/*--------------------------------*- C++ -*----------------------------------*\
| =========                 |                                                 |
| \\      /  F ield         | OpenFOAM: The Open Source CFD Toolbox           |
|  \\    /   O peration     | Version:  2412                                  |
|   \\  /    A nd           | Website:  www.openfoam.com                      |
|    \\/     M anipulation  |                                                 |
\*---------------------------------------------------------------------------*/
FoamFile
{
    version     2.0;
    format      ascii;
    arch        "LSB;label=32;scalar=64";
    class       volScalarField;
    location    "0.030011";
    object      ionicCurrent;
}
// * * * * * * * * * * * * * * * * * * * * * * * * * * * * * * * * * * * * * //

dimensions      [1 2 -4 0 0 -1 0];

internalField   nonuniform List<scalar> 
8790
(
2.01667e-12
1.22241e-12
7.30167e-13
4.29678e-13
2.48989e-13
1.41922e-13
7.96455e-14
4.41183e-14
2.38221e-14
1.26851e-14
6.75238e-15
3.4564e-15
1.68698e-15
9.23706e-16
1.25733e-16
2.16493e-17
-1.30451e-17
-1.30451e-17
-1.30451e-17
-1.30451e-17
-1.30451e-17
-1.30451e-17
2.16493e-17
-1.30451e-17
-1.30451e-17
-1.30451e-17
-1.30451e-17
-1.30451e-17
-1.30451e-17
-1.30451e-17
-1.30451e-17
-1.30451e-17
-4.77396e-17
1.96938e-12
1.19358e-12
7.12958e-13
4.19512e-13
2.43022e-13
1.38557e-13
7.7772e-14
4.29734e-14
2.31282e-14
1.22341e-14
6.37074e-15
3.38701e-15
1.82576e-15
1.06248e-15
5.42066e-16
9.10383e-17
-1.30451e-17
-1.30451e-17
-1.30451e-17
-4.77396e-17
-4.77396e-17
-1.30451e-17
9.10383e-17
-1.30451e-17
9.10383e-17
-1.30451e-17
-1.30451e-17
-1.30451e-17
2.16493e-17
-1.30451e-17
-1.30451e-17
-4.77396e-17
-4.77396e-17
1.87661e-12
1.13661e-12
6.78437e-13
3.99008e-13
2.30983e-13
1.31722e-13
7.38862e-14
4.07183e-14
2.19139e-14
1.17137e-14
5.9891e-15
2.93598e-15
1.51351e-15
8.54317e-16
4.72677e-16
2.29816e-16
1.25733e-16
-1.30451e-17
-1.30451e-17
-1.30451e-17
9.10383e-17
-1.30451e-17
-1.30451e-17
-1.30451e-17
-4.77396e-17
-1.30451e-17
-4.77396e-17
9.10383e-17
-1.30451e-17
-4.77396e-17
-1.30451e-17
-1.30451e-17
-1.30451e-17
1.74113e-12
1.05355e-12
6.28165e-13
3.69067e-13
2.1367e-13
1.21591e-13
6.83698e-14
3.77692e-14
2.06649e-14
1.10892e-14
5.74624e-15
2.72782e-15
1.34004e-15
8.19622e-16
4.37983e-16
1.25733e-16
-1.30451e-17
9.10383e-17
9.10383e-17
9.10383e-17
-1.30451e-17
-4.77396e-17
9.10383e-17
-1.30451e-17
-1.30451e-17
9.10383e-17
-1.30451e-17
2.16493e-17
-4.77396e-17
-1.30451e-17
2.16493e-17
9.10383e-17
9.10383e-17
1.56828e-12
9.48013e-13
5.6457e-13
3.31493e-13
1.91847e-13
1.09275e-13
6.11533e-14
3.34324e-14
1.80628e-14
9.45855e-15
4.77479e-15
2.58904e-15
1.37473e-15
5.07372e-16
2.29816e-16
2.16493e-17
-1.30451e-17
-1.30451e-17
-1.30451e-17
1.60427e-16
-1.30451e-17
-1.30451e-17
9.10383e-17
-1.30451e-17
1.25733e-16
-1.30451e-17
-1.30451e-17
-1.30451e-17
1.25733e-16
-1.30451e-17
-1.30451e-17
-1.30451e-17
-4.77396e-17
1.36737e-12
8.25195e-13
4.9074e-13
2.87292e-13
1.65931e-13
9.43212e-14
5.29654e-14
2.91303e-14
1.55301e-14
8.00138e-15
3.90743e-15
1.96454e-15
8.19622e-16
1.95122e-16
9.10383e-17
5.63438e-17
5.63438e-17
9.10383e-17
5.63438e-17
9.10383e-17
1.25733e-16
2.16493e-17
-1.17129e-16
-4.77396e-17
-1.30451e-17
1.25733e-16
-1.30451e-17
5.63438e-17
-1.30451e-17
1.25733e-16
5.63438e-17
5.63438e-17
2.64511e-16
1.14917e-12
6.92142e-13
4.10527e-13
2.39795e-13
1.38071e-13
7.80148e-14
4.36673e-14
2.40302e-14
1.28239e-14
6.85646e-15
3.52579e-15
1.68698e-15
1.06248e-15
5.07372e-16
1.25733e-16
-1.30451e-17
-1.30451e-17
9.10383e-17
-1.30451e-17
-1.30451e-17
-1.30451e-17
9.10383e-17
-4.77396e-17
-1.30451e-17
-1.30451e-17
-1.30451e-17
-1.30451e-17
-1.30451e-17
2.16493e-17
-1.30451e-17
-1.30451e-17
9.10383e-17
-4.77396e-17
9.26468e-13
5.56417e-13
3.28995e-13
1.91362e-13
1.09691e-13
6.19166e-14
3.45773e-14
1.86526e-14
9.90957e-15
5.26051e-15
2.41557e-15
1.09718e-15
4.03289e-16
9.10383e-17
9.10383e-17
-1.30451e-17
-1.30451e-17
9.10383e-17
-1.30451e-17
-1.30451e-17
-1.30451e-17
-1.30451e-17
-1.30451e-17
-1.30451e-17
-1.30451e-17
-1.30451e-17
-1.30451e-17
-1.30451e-17
-1.30451e-17
-1.30451e-17
1.95122e-16
9.10383e-17
-1.30451e-17
7.13652e-13
4.27076e-13
2.51799e-13
1.46259e-13
8.35659e-14
4.69286e-14
2.59384e-14
1.40035e-14
7.30749e-15
3.4911e-15
1.54821e-15
6.11455e-16
9.10383e-17
2.16493e-17
-1.30451e-17
5.63438e-17
5.63438e-17
2.16493e-17
5.63438e-17
9.10383e-17
2.16493e-17
2.16493e-17
-1.17129e-16
-4.77396e-17
-1.30451e-17
1.60427e-16
-1.30451e-17
5.63438e-17
-1.30451e-17
2.16493e-17
5.63438e-17
9.10383e-17
2.99205e-16
5.2259e-13
3.11751e-13
1.83313e-13
1.06256e-13
6.05982e-14
3.38488e-14
1.8722e-14
1.03606e-14
5.67685e-15
2.72782e-15
1.47882e-15
6.80844e-16
3.68594e-16
9.10383e-17
-1.30451e-17
2.16493e-17
-4.77396e-17
-1.30451e-17
9.10383e-17
9.10383e-17
1.25733e-16
2.16493e-17
9.10383e-17
-1.30451e-17
-4.77396e-17
2.16493e-17
-1.30451e-17
2.16493e-17
-4.77396e-17
-1.30451e-17
2.16493e-17
-1.30451e-17
9.10383e-17
3.62475e-13
2.15405e-13
1.2631e-13
7.30188e-14
4.16203e-14
2.33016e-14
1.2581e-14
6.78707e-15
3.62987e-15
2.13801e-15
1.09718e-15
6.11455e-16
9.10383e-17
-4.77396e-17
-1.51823e-16
-4.77396e-17
-1.30451e-17
-4.77396e-17
-1.30451e-17
-1.30451e-17
-4.77396e-17
9.10383e-17
-4.77396e-17
-1.51823e-16
-1.30451e-17
-1.30451e-17
-1.30451e-17
-1.30451e-17
-1.30451e-17
-4.77396e-17
-1.30451e-17
2.16493e-17
-4.77396e-17
2.36395e-13
1.3984e-13
8.12414e-14
4.64428e-14
2.60078e-14
1.44199e-14
7.79321e-15
3.80335e-15
1.99923e-15
1.02779e-15
4.72677e-16
1.25733e-16
-8.24341e-17
-4.77396e-17
-4.77396e-17
-4.77396e-17
-1.30451e-17
-1.30451e-17
-1.86517e-16
-1.86517e-16
-1.30451e-17
-1.30451e-17
-1.17129e-16
-4.77396e-17
-1.86517e-16
-1.51823e-16
9.10383e-17
-1.51823e-16
-1.86517e-16
-1.30451e-17
-1.30451e-17
1.25733e-16
-4.77396e-17
1.46328e-13
8.58211e-14
4.95654e-14
2.7916e-14
1.5426e-14
8.17485e-15
4.32376e-15
1.96454e-15
8.54317e-16
3.68594e-16
1.95122e-16
-1.30451e-17
-1.30451e-17
-1.30451e-17
-1.30451e-17
2.16493e-17
-4.77396e-17
-1.30451e-17
-1.30451e-17
-1.30451e-17
-1.30451e-17
-1.30451e-17
9.10383e-17
-1.30451e-17
-4.77396e-17
2.16493e-17
-1.30451e-17
2.16493e-17
-4.77396e-17
-1.30451e-17
2.16493e-17
9.10383e-17
9.10383e-17
8.97762e-14
5.24103e-14
3.01364e-14
1.68832e-14
9.28507e-15
4.7401e-15
2.31148e-15
1.09718e-15
5.42066e-16
9.10383e-17
-1.30451e-17
-1.30451e-17
-1.30451e-17
-4.77396e-17
-1.30451e-17
-4.77396e-17
-1.30451e-17
-1.30451e-17
-1.30451e-17
-1.30451e-17
-1.30451e-17
9.10383e-17
-4.77396e-17
-1.30451e-17
-1.30451e-17
-1.30451e-17
9.10383e-17
-1.30451e-17
-1.30451e-17
-1.30451e-17
-1.30451e-17
9.10383e-17
-4.77396e-17
6.25064e-14
3.61733e-14
2.05608e-14
1.10545e-14
5.74624e-15
2.8319e-15
1.34004e-15
7.84928e-16
1.95122e-16
5.63438e-17
-4.77396e-17
9.10383e-17
-4.77396e-17
-4.77396e-17
-4.77396e-17
-4.77396e-17
9.10383e-17
-4.77396e-17
-4.77396e-17
-4.77396e-17
-2.21212e-16
-1.30451e-17
2.16493e-17
9.10383e-17
9.10383e-17
-4.77396e-17
-4.77396e-17
-4.77396e-17
9.10383e-17
-4.77396e-17
-4.77396e-17
2.16493e-17
2.16493e-17
1.39783e-11
8.50412e-12
5.09654e-12
3.00762e-12
1.74692e-12
9.98528e-13
5.61343e-13
3.10537e-13
1.6888e-13
9.0366e-14
4.75878e-14
2.44119e-14
1.21647e-14
6.26665e-15
2.8666e-15
1.09718e-15
3.68594e-16
9.10383e-17
2.16493e-17
1.25733e-16
-1.30451e-17
-1.30451e-17
-1.30451e-17
-4.77396e-17
-1.30451e-17
9.10383e-17
-1.30451e-17
-1.30451e-17
-1.30451e-17
-1.30451e-17
9.10383e-17
-4.77396e-17
-4.77396e-17
1.36527e-11
8.30348e-12
4.9749e-12
2.93503e-12
1.70418e-12
9.73722e-13
5.47188e-13
3.02627e-13
1.64543e-13
8.80762e-14
4.64082e-14
2.39955e-14
1.23382e-14
6.40543e-15
3.10946e-15
1.30534e-15
4.72677e-16
1.60427e-16
9.10383e-17
-1.30451e-17
9.10383e-17
-1.30451e-17
9.10383e-17
-1.30451e-17
9.10383e-17
-1.30451e-17
-1.30451e-17
-1.30451e-17
9.10383e-17
1.25733e-16
-1.30451e-17
-4.77396e-17
-4.77396e-17
1.3011e-11
7.90838e-12
4.73526e-12
2.7915e-12
1.61991e-12
9.24837e-13
5.19641e-13
2.87049e-13
1.55869e-13
8.31496e-14
4.35285e-14
2.24343e-14
1.14014e-14
5.60746e-15
2.69312e-15
1.30534e-15
7.50233e-16
9.10383e-17
-1.30451e-17
-1.30451e-17
9.10383e-17
-1.30451e-17
-1.30451e-17
-1.30451e-17
-4.77396e-17
-1.30451e-17
-1.30451e-17
9.10383e-17
-1.30451e-17
-4.77396e-17
-1.30451e-17
-1.30451e-17
-1.30451e-17
1.2076e-11
7.33329e-12
4.38655e-12
2.58348e-12
1.49775e-12
8.54442e-13
4.79569e-13
2.6474e-13
1.43691e-13
7.68699e-14
4.03366e-14
2.07689e-14
1.05688e-14
5.3646e-15
2.79721e-15
1.40943e-15
5.07372e-16
1.95122e-16
9.10383e-17
-1.30451e-17
-1.30451e-17
-4.77396e-17
9.10383e-17
-1.30451e-17
-1.30451e-17
9.10383e-17
-1.30451e-17
-1.30451e-17
9.10383e-17
-1.30451e-17
2.16493e-17
9.10383e-17
9.10383e-17
1.08868e-11
6.60283e-12
3.94457e-12
2.31994e-12
1.34287e-12
7.64827e-13
4.28568e-13
2.36256e-13
1.28148e-13
6.84044e-14
3.5757e-14
1.85138e-14
9.21568e-15
4.60132e-15
2.27679e-15
1.02779e-15
4.37983e-16
5.63438e-17
-1.30451e-17
-1.30451e-17
-4.77396e-17
-1.30451e-17
-4.77396e-17
-4.77396e-17
-1.30451e-17
-1.30451e-17
-1.30451e-17
-1.30451e-17
-1.30451e-17
-4.77396e-17
-1.30451e-17
-1.30451e-17
-1.30451e-17
9.49992e-12
5.75216e-12
3.43047e-12
2.01421e-12
1.16409e-12
6.61923e-13
3.70142e-13
2.0347e-13
1.10003e-13
5.84818e-14
3.07956e-14
1.57382e-14
7.79321e-15
3.80335e-15
1.92985e-15
1.02779e-15
1.25733e-16
5.63438e-17
-1.30451e-17
-1.30451e-17
9.10383e-17
-1.30451e-17
-1.30451e-17
-1.30451e-17
-1.30451e-17
-4.77396e-17
-1.30451e-17
-1.30451e-17
-1.30451e-17
-1.30451e-17
-1.30451e-17
-1.30451e-17
-1.30451e-17
7.99234e-12
4.82914e-12
2.87352e-12
1.68329e-12
9.70599e-13
5.50484e-13
3.07206e-13
1.68741e-13
9.09905e-14
4.8247e-14
2.51404e-14
1.26157e-14
6.44013e-15
3.31762e-15
1.44412e-15
8.19622e-16
3.339e-16
5.63438e-17
-1.30451e-17
-1.30451e-17
-1.30451e-17
9.10383e-17
-4.77396e-17
-4.77396e-17
-1.30451e-17
-1.30451e-17
-1.30451e-17
-1.30451e-17
-1.30451e-17
-1.30451e-17
-1.30451e-17
9.10383e-17
-4.77396e-17
6.45507e-12
3.89e-12
2.30849e-12
1.34832e-12
7.74957e-13
4.38074e-13
2.43681e-13
1.3311e-13
7.14229e-14
3.7908e-14
1.94506e-14
9.87488e-15
4.80949e-15
2.2421e-15
1.13187e-15
3.68594e-16
9.10383e-17
9.10383e-17
-1.30451e-17
-1.30451e-17
-1.30451e-17
-1.30451e-17
-1.30451e-17
-4.77396e-17
-1.30451e-17
-1.30451e-17
9.10383e-17
-1.30451e-17
-1.30451e-17
9.10383e-17
1.95122e-16
-1.30451e-17
-1.30451e-17
4.98197e-12
2.99242e-12
1.77006e-12
1.03041e-12
5.90417e-13
3.3288e-13
1.84388e-13
1.00532e-13
5.37981e-14
2.82283e-14
1.43852e-14
7.02993e-15
3.38701e-15
1.65229e-15
6.80844e-16
3.68594e-16
9.10383e-17
9.10383e-17
5.63438e-17
5.63438e-17
2.16493e-17
-1.30451e-17
5.63438e-17
-1.30451e-17
9.10383e-17
2.64511e-16
9.10383e-17
5.63438e-17
-1.30451e-17
-1.30451e-17
5.63438e-17
9.10383e-17
2.99205e-16
3.6563e-12
2.18782e-12
1.28885e-12
7.47236e-13
4.26382e-13
2.39413e-13
1.32173e-13
7.16657e-14
3.8255e-14
1.9971e-14
1.03259e-14
5.12174e-15
2.34618e-15
1.02779e-15
6.11455e-16
9.10383e-17
-1.30451e-17
-1.30451e-17
-1.30451e-17
-1.30451e-17
9.10383e-17
-1.30451e-17
9.10383e-17
-1.30451e-17
-1.30451e-17
-4.77396e-17
-1.30451e-17
-1.30451e-17
-1.30451e-17
2.16493e-17
-1.30451e-17
-1.30451e-17
-1.30451e-17
2.53893e-12
1.51225e-12
8.86847e-13
5.11834e-13
2.9031e-13
1.62253e-13
8.89783e-14
4.80041e-14
2.52792e-14
1.32055e-14
6.68299e-15
3.42171e-15
1.72168e-15
7.15539e-16
5.63438e-17
-1.30451e-17
-4.77396e-17
-4.77396e-17
-4.77396e-17
-1.30451e-17
-4.77396e-17
-4.77396e-17
-1.30451e-17
-1.17129e-16
-1.30451e-17
-1.30451e-17
-1.30451e-17
-1.30451e-17
-1.30451e-17
-4.77396e-17
-1.30451e-17
2.16493e-17
9.10383e-17
1.66265e-12
9.84443e-13
5.73729e-13
3.28925e-13
1.85325e-13
1.02821e-13
5.59144e-14
2.97201e-14
1.55995e-14
7.93199e-15
4.21968e-15
1.96454e-15
7.15539e-16
3.68594e-16
9.10383e-17
-4.77396e-17
-1.30451e-17
-1.30451e-17
-1.86517e-16
-1.86517e-16
-1.30451e-17
-1.30451e-17
-1.17129e-16
-1.30451e-17
-1.86517e-16
-1.86517e-16
-1.30451e-17
-1.86517e-16
-1.86517e-16
-1.30451e-17
-1.30451e-17
-1.30451e-17
-4.77396e-17
1.03225e-12
6.0721e-13
3.51581e-13
2.00139e-13
1.11842e-13
6.13962e-14
3.29467e-14
1.73342e-14
9.07691e-15
4.63601e-15
2.34618e-15
9.584e-16
2.29816e-16
9.10383e-17
-4.77396e-17
-1.30451e-17
-1.30451e-17
-1.30451e-17
-1.30451e-17
-1.30451e-17
-4.77396e-17
-1.30451e-17
9.10383e-17
9.10383e-17
-1.30451e-17
-4.77396e-17
-1.30451e-17
-1.30451e-17
-1.30451e-17
-1.30451e-17
-1.30451e-17
-1.30451e-17
-1.30451e-17
6.32259e-13
3.69136e-13
2.12144e-13
1.19891e-13
6.65656e-14
3.64508e-14
1.93118e-14
1.01177e-14
5.01765e-15
2.45026e-15
9.584e-16
3.339e-16
5.63438e-17
-1.30451e-17
-1.30451e-17
-1.30451e-17
-4.77396e-17
9.10383e-17
-4.77396e-17
-1.30451e-17
9.10383e-17
-4.77396e-17
-1.30451e-17
-4.77396e-17
-1.30451e-17
-1.30451e-17
-1.30451e-17
-1.30451e-17
-1.30451e-17
9.10383e-17
-1.30451e-17
-1.30451e-17
9.10383e-17
4.40607e-13
2.55026e-13
1.45183e-13
8.10679e-14
4.45e-14
2.37527e-14
1.25117e-14
6.30135e-15
3.10946e-15
1.34004e-15
6.11455e-16
3.68594e-16
-1.30451e-17
-4.77396e-17
-2.21212e-16
-4.77396e-17
9.10383e-17
-4.77396e-17
-4.77396e-17
-4.77396e-17
-4.77396e-17
-1.30451e-17
2.16493e-17
-1.30451e-17
-4.77396e-17
-4.77396e-17
-1.30451e-17
-4.77396e-17
-4.77396e-17
-4.77396e-17
-1.30451e-17
-4.77396e-17
-4.77396e-17
1.08892e-10
6.64761e-11
3.99618e-11
2.36441e-11
1.3763e-11
7.87872e-12
4.43408e-12
2.45247e-12
1.33271e-12
7.11362e-13
3.73161e-13
1.92194e-13
9.71662e-14
4.8247e-14
2.34057e-14
1.10892e-14
5.01765e-15
2.13801e-15
9.23706e-16
5.07372e-16
1.95122e-16
2.16493e-17
-1.30451e-17
-1.30451e-17
-1.30451e-17
-1.30451e-17
-4.77396e-17
-4.77396e-17
-1.30451e-17
-4.77396e-17
-1.30451e-17
-1.30451e-17
-1.30451e-17
1.06366e-10
6.49132e-11
3.90092e-11
2.30727e-11
1.3426e-11
7.68297e-12
4.3224e-12
2.38981e-12
1.29843e-12
6.93182e-13
3.63342e-13
1.87129e-13
9.47722e-14
4.73102e-14
2.31976e-14
1.10545e-14
5.05235e-15
2.31148e-15
9.23706e-16
2.29816e-16
9.10383e-17
-1.30451e-17
-1.30451e-17
-1.30451e-17
-4.77396e-17
-1.30451e-17
-4.77396e-17
9.10383e-17
9.10383e-17
9.10383e-17
-1.30451e-17
-4.77396e-17
-4.77396e-17
1.01382e-10
6.18331e-11
3.71342e-11
2.1949e-11
1.27628e-11
7.29818e-12
4.10275e-12
2.26668e-12
1.23074e-12
6.56337e-13
3.44121e-13
1.77345e-13
8.98109e-14
4.46734e-14
2.18792e-14
1.03606e-14
4.94826e-15
2.10332e-15
8.89011e-16
4.37983e-16
5.63438e-17
-1.17129e-16
-1.30451e-17
-1.30451e-17
-1.30451e-17
-1.30451e-17
-4.77396e-17
-4.77396e-17
-1.30451e-17
-1.30451e-17
-1.17129e-16
-4.77396e-17
-1.86517e-16
9.41306e-11
5.73558e-11
3.4411e-11
2.03181e-11
1.18019e-11
6.74116e-12
3.78547e-12
2.08922e-12
1.13307e-12
6.03636e-13
3.16019e-13
1.626e-13
8.21782e-14
4.08917e-14
1.98669e-14
9.52793e-15
4.46254e-15
2.03393e-15
7.15539e-16
3.339e-16
9.10383e-17
-1.30451e-17
2.16493e-17
-4.77396e-17
-1.30451e-17
-1.30451e-17
-1.30451e-17
-1.30451e-17
-1.30451e-17
-1.30451e-17
-1.30451e-17
-1.30451e-17
2.16493e-17
8.49112e-11
5.16709e-11
3.09581e-11
1.82537e-11
1.05873e-11
6.03825e-12
3.38513e-12
1.86488e-12
1.00991e-12
5.37092e-13
2.80665e-13
1.44004e-13
7.26372e-14
3.59998e-14
1.76464e-14
8.45241e-15
3.97682e-15
1.99923e-15
7.50233e-16
2.29816e-16
-4.77396e-17
-1.17129e-16
-1.30451e-17
-1.30451e-17
-1.30451e-17
-1.30451e-17
-1.17129e-16
-4.77396e-17
-1.30451e-17
-4.77396e-17
-1.17129e-16
2.16493e-17
9.10383e-17
7.4159e-11
4.50513e-11
2.69446e-11
1.58582e-11
9.1807e-12
5.22577e-12
2.92397e-12
1.60783e-12
8.68945e-13
4.61354e-13
2.40454e-13
1.23291e-13
6.22982e-14
3.06916e-14
1.49056e-14
7.02993e-15
3.17885e-15
1.34004e-15
6.11455e-16
-4.77396e-17
-1.30451e-17
-4.77396e-17
5.63438e-17
-4.77396e-17
5.63438e-17
5.63438e-17
9.10383e-17
-4.77396e-17
9.10383e-17
-1.30451e-17
9.10383e-17
-1.30451e-17
-1.86517e-16
6.24555e-11
3.78593e-11
2.25924e-11
1.32657e-11
7.66139e-12
4.3504e-12
2.42811e-12
1.33198e-12
7.1792e-13
3.79926e-13
1.97919e-13
1.00983e-13
5.05715e-14
2.48629e-14
1.19565e-14
5.57276e-15
2.55435e-15
1.20126e-15
3.68594e-16
5.63438e-17
-4.77396e-17
-1.30451e-17
-1.30451e-17
-4.77396e-17
-1.30451e-17
-1.30451e-17
-1.30451e-17
-1.30451e-17
-1.30451e-17
-1.30451e-17
-1.30451e-17
-4.77396e-17
-4.77396e-17
5.05098e-11
3.05337e-11
1.81688e-11
1.06371e-11
6.12464e-12
3.46721e-12
1.92921e-12
1.05508e-12
5.67068e-13
2.99227e-13
1.55002e-13
7.89863e-14
3.95387e-14
1.95546e-14
9.18099e-15
4.18499e-15
1.79107e-15
9.23706e-16
4.72677e-16
9.10383e-17
-1.30451e-17
9.10383e-17
-1.30451e-17
-1.30451e-17
9.10383e-17
9.10383e-17
-1.30451e-17
9.10383e-17
9.10383e-17
9.10383e-17
9.10383e-17
-1.30451e-17
-1.30451e-17
3.90484e-11
2.35248e-11
1.3949e-11
8.13733e-12
4.66844e-12
2.63292e-12
1.45976e-12
7.95219e-13
4.25619e-13
2.23766e-13
1.15485e-13
5.83431e-14
2.90609e-14
1.42117e-14
6.71768e-15
2.93598e-15
1.09718e-15
2.99205e-16
9.10383e-17
-1.30451e-17
-1.30451e-17
-1.30451e-17
-1.30451e-17
-1.30451e-17
-1.30451e-17
-1.30451e-17
-4.77396e-17
-1.30451e-17
-1.30451e-17
-1.17129e-16
-1.30451e-17
-1.30451e-17
-1.30451e-17
2.87117e-11
1.72252e-11
1.01703e-11
5.90721e-12
3.37399e-12
1.89444e-12
1.04575e-12
5.67068e-13
3.01829e-13
1.57916e-13
8.09638e-14
4.0857e-14
2.01444e-14
9.7708e-15
4.7054e-15
1.99923e-15
9.93094e-16
4.37983e-16
1.60427e-16
-1.30451e-17
-1.30451e-17
-1.30451e-17
-1.30451e-17
-1.30451e-17
-1.30451e-17
-1.30451e-17
-1.30451e-17
-1.30451e-17
-1.30451e-17
-1.30451e-17
-1.30451e-17
-4.77396e-17
-1.30451e-17
1.99781e-11
1.1925e-11
7.00449e-12
4.04703e-12
2.29926e-12
1.28396e-12
7.04562e-13
3.79787e-13
2.01319e-13
1.04938e-13
5.36593e-14
2.70486e-14
1.32402e-14
6.40543e-15
3.10946e-15
1.30534e-15
5.07372e-16
2.29816e-16
5.63438e-17
-4.77396e-17
-1.30451e-17
9.10383e-17
-4.77396e-17
-1.30451e-17
-1.30451e-17
-1.30451e-17
-1.30451e-17
-1.30451e-17
9.10383e-17
-1.30451e-17
-4.77396e-17
-4.77396e-17
-4.77396e-17
1.31098e-11
7.77748e-12
4.54e-12
2.60665e-12
1.47159e-12
8.16729e-13
4.45429e-13
2.38858e-13
1.25789e-13
6.4935e-14
3.32243e-14
1.6675e-14
8.07077e-15
3.90743e-15
1.82576e-15
7.15539e-16
9.10383e-17
5.63438e-17
5.63438e-17
-1.30451e-17
-1.17129e-16
-1.30451e-17
-1.30451e-17
-1.30451e-17
5.63438e-17
5.63438e-17
1.25733e-16
5.63438e-17
5.63438e-17
-1.30451e-17
-1.30451e-17
1.25733e-16
9.10383e-17
8.15329e-12
4.80142e-12
2.78189e-12
1.58528e-12
8.88269e-13
4.89318e-13
2.64914e-13
1.40777e-13
7.36086e-14
3.7908e-14
1.90342e-14
9.45855e-15
4.7401e-15
2.41557e-15
1.16657e-15
3.339e-16
5.63438e-17
-1.30451e-17
9.10383e-17
9.10383e-17
-1.30451e-17
9.10383e-17
9.10383e-17
-1.30451e-17
9.10383e-17
9.10383e-17
-1.30451e-17
9.10383e-17
9.10383e-17
-1.30451e-17
9.10383e-17
-4.77396e-17
9.10383e-17
4.9987e-12
2.91762e-12
1.67559e-12
9.46521e-13
5.2592e-13
2.87361e-13
1.54169e-13
8.10332e-14
4.2002e-14
2.14628e-14
1.07769e-14
5.15643e-15
2.45026e-15
1.16657e-15
6.80844e-16
2.29816e-16
-1.30451e-17
-4.77396e-17
-1.30451e-17
-4.77396e-17
-1.30451e-17
9.10383e-17
-4.77396e-17
-1.30451e-17
-1.30451e-17
-1.30451e-17
-1.30451e-17
-1.30451e-17
9.10383e-17
-1.30451e-17
-4.77396e-17
-4.77396e-17
-4.77396e-17
3.48071e-12
2.01452e-12
1.14702e-12
6.42598e-13
3.54148e-13
1.91743e-13
1.02232e-13
5.36246e-14
2.74997e-14
1.38647e-14
6.92585e-15
3.52579e-15
1.86046e-15
1.02779e-15
3.68594e-16
5.63438e-17
-4.77396e-17
-4.77396e-17
9.10383e-17
9.10383e-17
-1.30451e-17
9.10383e-17
9.10383e-17
-4.77396e-17
9.10383e-17
9.10383e-17
-4.77396e-17
9.10383e-17
9.10383e-17
-4.77396e-17
9.10383e-17
-1.30451e-17
9.10383e-17
8.50166e-10
5.20928e-10
3.14193e-10
1.8643e-10
1.08772e-10
6.23735e-11
3.51396e-11
1.94431e-11
1.0563e-11
5.63378e-12
2.94961e-12
1.51582e-12
7.64722e-13
3.79024e-13
1.84631e-13
8.83885e-14
4.14468e-14
1.94159e-14
9.04221e-15
4.28907e-15
2.06862e-15
1.09718e-15
4.72677e-16
2.16493e-17
-1.30451e-17
9.10383e-17
-1.30451e-17
2.16493e-17
-4.77396e-17
-1.30451e-17
2.16493e-17
9.10383e-17
9.10383e-17
8.30529e-10
5.08729e-10
3.0673e-10
1.81937e-10
1.06111e-10
6.0825e-11
3.42539e-11
1.89451e-11
1.02883e-11
5.48515e-12
2.8705e-12
1.47447e-12
7.43663e-13
3.68165e-13
1.78837e-13
8.5266e-14
3.98162e-14
1.81322e-14
8.10546e-15
3.4911e-15
1.51351e-15
4.37983e-16
1.25733e-16
-1.30451e-17
9.10383e-17
-1.30451e-17
9.10383e-17
-1.30451e-17
-4.77396e-17
-1.30451e-17
-1.30451e-17
9.10383e-17
9.10383e-17
7.91737e-10
4.84655e-10
2.92017e-10
1.73089e-10
1.00877e-10
5.77809e-11
3.25144e-11
1.79692e-11
9.75059e-12
5.19434e-12
2.71632e-12
1.39457e-12
7.02932e-13
3.47868e-13
1.68984e-13
8.04434e-14
3.73529e-14
1.70219e-14
7.41157e-15
3.24824e-15
1.47882e-15
6.80844e-16
2.64511e-16
-1.30451e-17
-1.30451e-17
-1.30451e-17
-1.30451e-17
-1.30451e-17
-1.30451e-17
-1.30451e-17
-1.30451e-17
-4.77396e-17
-4.77396e-17
7.35366e-10
4.49706e-10
2.70679e-10
1.60267e-10
9.32991e-11
5.33784e-11
3.00015e-11
1.65601e-11
8.9752e-12
4.7754e-12
2.49403e-12
1.27893e-12
6.43743e-13
3.18413e-13
1.54724e-13
7.38515e-14
3.46467e-14
1.56342e-14
6.78707e-15
2.8319e-15
1.13187e-15
5.76761e-16
2.16493e-17
-4.77396e-17
-1.30451e-17
-1.30451e-17
-1.30451e-17
1.25733e-16
-4.77396e-17
-1.30451e-17
-1.30451e-17
-1.30451e-17
-1.30451e-17
6.63765e-10
4.05374e-10
2.43652e-10
1.44053e-10
8.37323e-11
4.78296e-11
2.68389e-11
1.47899e-11
8.00202e-12
4.24996e-12
2.21571e-12
1.13394e-12
5.69878e-13
2.81186e-13
1.36475e-13
6.4935e-14
3.04834e-14
1.37607e-14
6.02379e-15
2.45026e-15
9.584e-16
1.95122e-16
-1.30451e-17
-1.30451e-17
5.63438e-17
5.63438e-17
-1.30451e-17
5.63438e-17
-1.30451e-17
-4.77396e-17
5.63438e-17
-1.30451e-17
9.10383e-17
5.80242e-10
3.53743e-10
2.12228e-10
1.25234e-10
7.26504e-11
4.14154e-11
2.31915e-11
1.27528e-11
6.885e-12
3.64901e-12
1.89854e-12
9.69697e-13
4.8623e-13
2.39518e-13
1.15936e-13
5.51165e-14
2.56609e-14
1.17484e-14
5.05235e-15
2.13801e-15
8.19622e-16
3.339e-16
5.63438e-17
-4.77396e-17
-1.30451e-17
-1.30451e-17
-4.77396e-17
9.10383e-17
1.25733e-16
9.10383e-17
2.16493e-17
-1.30451e-17
-1.30451e-17
4.89205e-10
2.97573e-10
1.78111e-10
1.04847e-10
6.06716e-11
3.44978e-11
1.92674e-11
1.05669e-11
5.68964e-12
3.00741e-12
1.56051e-12
7.94803e-13
3.97412e-13
1.95421e-13
9.43906e-14
4.48469e-14
2.09771e-14
9.66671e-15
4.21968e-15
1.65229e-15
6.11455e-16
2.16493e-17
-1.30451e-17
-1.30451e-17
-1.30451e-17
-1.30451e-17
-1.30451e-17
1.25733e-16
-4.77396e-17
-1.30451e-17
-1.30451e-17
-1.30451e-17
-1.30451e-17
3.96184e-10
2.40298e-10
1.434e-10
8.41545e-11
4.85438e-11
2.75132e-11
1.53163e-11
8.37249e-12
4.49351e-12
2.36743e-12
1.22449e-12
6.21885e-13
3.09947e-13
1.52053e-13
7.34005e-14
3.4959e-14
1.62934e-14
7.48096e-15
3.14415e-15
1.16657e-15
2.64511e-16
9.10383e-17
-1.30451e-17
-4.77396e-17
-1.30451e-17
-1.30451e-17
-4.77396e-17
-4.77396e-17
-1.30451e-17
-1.30451e-17
-1.30451e-17
-4.77396e-17
-1.30451e-17
3.06805e-10
1.8542e-10
1.10241e-10
6.44493e-11
3.70324e-11
2.09059e-11
1.15917e-11
6.31126e-12
3.37389e-12
1.77062e-12
9.12e-13
4.61319e-13
2.29144e-13
1.12015e-13
5.38675e-14
2.53139e-14
1.16096e-14
5.12174e-15
2.2421e-15
9.23706e-16
1.60427e-16
5.63438e-17
-1.30451e-17
-4.77396e-17
-1.30451e-17
-1.30451e-17
-4.77396e-17
-4.77396e-17
9.10383e-17
9.10383e-17
-1.30451e-17
-1.30451e-17
-1.30451e-17
2.26038e-10
1.36009e-10
8.04993e-11
4.68442e-11
2.679e-11
1.5052e-11
8.30602e-12
4.50073e-12
2.3945e-12
1.25076e-12
6.41245e-13
3.22854e-13
1.59651e-13
7.77026e-14
3.71794e-14
1.72648e-14
7.68913e-15
3.35232e-15
1.61759e-15
6.4615e-16
2.99205e-16
2.16493e-17
-1.30451e-17
-4.77396e-17
-4.77396e-17
-1.30451e-17
-4.77396e-17
-1.30451e-17
-1.30451e-17
-4.77396e-17
-1.30451e-17
-1.30451e-17
-1.30451e-17
1.57635e-10
9.43444e-11
5.55349e-11
3.21372e-11
1.82756e-11
1.02099e-11
5.60196e-12
3.01837e-12
1.59708e-12
8.29601e-13
4.23121e-13
2.11935e-13
1.04174e-13
5.04327e-14
2.39955e-14
1.11239e-14
5.15643e-15
2.17271e-15
9.584e-16
1.25733e-16
2.16493e-17
-1.30451e-17
-1.30451e-17
-1.30451e-17
-8.24341e-17
5.63438e-17
-1.30451e-17
-1.17129e-16
-1.30451e-17
-1.30451e-17
-1.30451e-17
-1.30451e-17
-1.86517e-16
1.03681e-10
6.16516e-11
3.60517e-11
2.07237e-11
1.17064e-11
6.49628e-12
3.54104e-12
1.89576e-12
9.96724e-13
5.14506e-13
2.60924e-13
1.29918e-13
6.36513e-14
3.04834e-14
1.42464e-14
6.50952e-15
3.04007e-15
1.23596e-15
4.03289e-16
9.10383e-17
-1.30451e-17
5.63438e-17
-1.30451e-17
-1.30451e-17
-1.30451e-17
5.63438e-17
-4.77396e-17
-1.30451e-17
-1.30451e-17
-1.30451e-17
5.63438e-17
-4.77396e-17
-1.30451e-17
6.46097e-11
3.81152e-11
2.21106e-11
1.26081e-11
7.06506e-12
3.88972e-12
2.10369e-12
1.11746e-12
5.83236e-13
2.99088e-13
1.50839e-13
7.47882e-14
3.63121e-14
1.71954e-14
8.17485e-15
3.87274e-15
1.86046e-15
7.84928e-16
9.10383e-17
-1.30451e-17
-1.30451e-17
-1.30451e-17
-1.30451e-17
-1.30451e-17
-1.30451e-17
1.25733e-16
-1.30451e-17
1.25733e-16
-4.77396e-17
-1.30451e-17
-1.30451e-17
-1.30451e-17
-1.30451e-17
3.96635e-11
2.31744e-11
1.33138e-11
7.5189e-12
4.17311e-12
2.27584e-12
1.21932e-12
6.41731e-13
3.31944e-13
1.68741e-13
8.42251e-14
4.14122e-14
1.99016e-14
9.45855e-15
4.35846e-15
1.92985e-15
9.93094e-16
4.37983e-16
5.63438e-17
-1.30451e-17
-4.77396e-17
-1.30451e-17
-1.30451e-17
-1.30451e-17
-1.17129e-16
5.63438e-17
-1.30451e-17
-1.17129e-16
-1.30451e-17
-1.30451e-17
-1.30451e-17
-1.30451e-17
1.95122e-16
2.76286e-11
1.59994e-11
9.10954e-12
5.09837e-12
2.80441e-12
1.5161e-12
8.05454e-13
4.2038e-13
2.15752e-13
1.08858e-13
5.39715e-14
2.60078e-14
1.23035e-14
5.50338e-15
2.38087e-15
1.02779e-15
2.64511e-16
9.10383e-17
-1.30451e-17
-1.30451e-17
-1.30451e-17
-1.30451e-17
-1.30451e-17
9.10383e-17
-1.30451e-17
1.95122e-16
9.10383e-17
-1.17129e-16
-1.30451e-17
9.10383e-17
-1.30451e-17
-1.30451e-17
-1.30451e-17
6.63789e-09
4.08351e-09
2.47184e-09
1.47133e-09
8.60667e-10
4.945e-10
2.78934e-10
1.54408e-10
8.38561e-11
4.46687e-11
2.33363e-11
1.1957e-11
6.00914e-12
2.963e-12
1.43356e-12
6.81005e-13
3.17788e-13
1.45981e-13
6.62881e-14
2.9616e-14
1.29974e-14
5.71154e-15
2.27679e-15
7.50233e-16
9.10383e-17
9.10383e-17
-1.30451e-17
-1.30451e-17
-1.30451e-17
-1.30451e-17
9.10383e-17
-4.77396e-17
-4.77396e-17
6.48551e-09
3.98839e-09
2.4134e-09
1.43601e-09
8.39683e-10
4.82253e-10
2.71916e-10
1.50461e-10
8.16785e-11
4.34902e-11
2.27109e-11
1.16313e-11
5.84281e-12
2.87945e-12
1.39245e-12
6.61055e-13
3.08386e-13
1.41332e-13
6.37901e-14
2.84711e-14
1.24423e-14
5.50338e-15
2.10332e-15
6.80844e-16
9.10383e-17
9.10383e-17
-1.30451e-17
-1.30451e-17
-1.30451e-17
-1.30451e-17
9.10383e-17
-1.30451e-17
9.10383e-17
6.18365e-09
3.80021e-09
2.29792e-09
1.36629e-09
7.98311e-10
4.58131e-10
2.58106e-10
1.42701e-10
7.74003e-11
4.11771e-11
2.14844e-11
1.09939e-11
5.51821e-12
2.71708e-12
1.31276e-12
6.2251e-13
2.89929e-13
1.32555e-13
5.93145e-14
2.59731e-14
1.14708e-14
4.77479e-15
1.86046e-15
5.76761e-16
2.29816e-16
-1.30451e-17
-1.30451e-17
-1.30451e-17
9.10383e-17
1.25733e-16
-1.30451e-17
-1.30451e-17
-1.30451e-17
5.74547e-09
3.52734e-09
2.13063e-09
1.2654e-09
7.3849e-10
4.23286e-10
2.38177e-10
1.31514e-10
7.12404e-11
3.78506e-11
1.9723e-11
1.00797e-11
5.05268e-12
2.48491e-12
1.19937e-12
5.68386e-13
2.6481e-13
1.21279e-13
5.43185e-14
2.38567e-14
1.02218e-14
4.42785e-15
1.68698e-15
4.72677e-16
9.10383e-17
-1.30451e-17
-1.30451e-17
-1.30451e-17
-1.30451e-17
-1.30451e-17
-1.30451e-17
-1.30451e-17
-1.30451e-17
5.18951e-09
3.18161e-09
1.91899e-09
1.13796e-09
6.63053e-10
3.7942e-10
2.13131e-10
1.17479e-10
6.35248e-11
3.36907e-11
1.7524e-11
8.9395e-12
4.47342e-12
2.19632e-12
1.05827e-12
5.00663e-13
2.32822e-13
1.0643e-13
4.77265e-14
2.09424e-14
9.21568e-15
3.69926e-15
1.5829e-15
4.72677e-16
5.63438e-17
-1.30451e-17
-1.30451e-17
-1.30451e-17
-1.30451e-17
-1.30451e-17
-1.30451e-17
9.10383e-17
-1.30451e-17
4.54087e-09
2.77891e-09
1.6729e-09
9.90037e-10
5.75666e-10
3.28708e-10
1.84238e-10
1.01325e-10
5.46651e-11
2.89254e-11
1.50108e-11
7.64033e-12
3.81509e-12
1.86932e-12
8.99164e-13
4.24717e-13
1.97156e-13
8.97762e-14
4.01285e-14
1.78546e-14
7.65443e-15
3.10946e-15
1.23596e-15
3.68594e-16
1.95122e-16
2.64511e-16
-1.30451e-17
-1.30451e-17
-1.30451e-17
-1.30451e-17
1.60427e-16
-1.30451e-17
-1.30451e-17
3.83281e-09
2.34016e-09
1.40534e-09
8.29581e-10
4.811e-10
2.73968e-10
1.53132e-10
8.39805e-11
4.51784e-11
2.38371e-11
1.23347e-11
6.26026e-12
3.11704e-12
1.5229e-12
7.30444e-13
3.44156e-13
1.59373e-13
7.25678e-14
3.22875e-14
1.40035e-14
5.81563e-15
2.31148e-15
8.19622e-16
4.37983e-16
1.25733e-16
-1.30451e-17
-1.30451e-17
-1.30451e-17
-1.30451e-17
-1.30451e-17
-1.30451e-17
-1.30451e-17
-1.30451e-17
3.1086e-09
1.89231e-09
1.13284e-09
6.66556e-10
3.8527e-10
2.18648e-10
1.21787e-10
6.65561e-11
3.56786e-11
1.87587e-11
9.67336e-12
4.89319e-12
2.42853e-12
1.183e-12
5.65715e-13
2.65885e-13
1.22771e-13
5.55675e-14
2.49323e-14
1.10198e-14
4.56662e-15
1.79107e-15
6.80844e-16
9.10383e-17
9.10383e-17
-1.30451e-17
-1.30451e-17
9.10383e-17
-1.30451e-17
-1.30451e-17
9.10383e-17
-1.30451e-17
9.10383e-17
2.41169e-09
1.46258e-09
8.72163e-10
5.1111e-10
2.94204e-10
1.66265e-10
9.22152e-11
5.01792e-11
2.67846e-11
1.4023e-11
7.20131e-12
3.62774e-12
1.79355e-12
8.70575e-13
4.15002e-13
1.94449e-13
8.9464e-14
4.03366e-14
1.77852e-14
7.93199e-15
3.35232e-15
1.30534e-15
4.03289e-16
9.10383e-17
2.16493e-17
1.25733e-16
-4.77396e-17
-1.30451e-17
-1.30451e-17
-1.30451e-17
1.25733e-16
-1.30451e-17
-1.30451e-17
1.78057e-09
1.07486e-09
6.37918e-10
3.72013e-10
2.13069e-10
1.19802e-10
6.61055e-11
3.5787e-11
1.9005e-11
9.89992e-12
5.05886e-12
2.53629e-12
1.24777e-12
6.02595e-13
2.85835e-13
1.33248e-13
6.09798e-14
2.76038e-14
1.21647e-14
5.29521e-15
2.27679e-15
9.23706e-16
4.03289e-16
1.25733e-16
9.10383e-17
-1.30451e-17
9.10383e-17
-1.30451e-17
-1.30451e-17
9.10383e-17
-4.77396e-17
-1.30451e-17
-1.30451e-17
1.24473e-09
7.47176e-10
4.4088e-10
2.55591e-10
1.45511e-10
8.13204e-11
4.45989e-11
2.39979e-11
1.2668e-11
6.56029e-12
3.33329e-12
1.66189e-12
8.13017e-13
3.90508e-13
1.84492e-13
8.5717e-14
3.91223e-14
1.78546e-14
8.31363e-15
3.76865e-15
1.72168e-15
8.89011e-16
3.339e-16
9.10383e-17
-1.17129e-16
-4.77396e-17
-4.77396e-17
1.60427e-16
9.10383e-17
-1.30451e-17
-1.17129e-16
-1.30451e-17
-1.86517e-16
8.20819e-10
4.89333e-10
2.86714e-10
1.65033e-10
9.32803e-11
5.17552e-11
2.8181e-11
1.50568e-11
7.89312e-12
4.06004e-12
2.04953e-12
1.01567e-12
4.94002e-13
2.35944e-13
1.10697e-13
5.08837e-14
2.30241e-14
1.03259e-14
4.67071e-15
1.89515e-15
6.11455e-16
2.29816e-16
2.16493e-17
-1.30451e-17
-1.30451e-17
-1.30451e-17
-1.30451e-17
-1.30451e-17
-1.30451e-17