/*--------------------------------*- C++ -*----------------------------------*\
| =========                 |                                                 |
| \\      /  F ield         | OpenFOAM: The Open Source CFD Toolbox           |
|  \\    /   O peration     | Version:  2412                                  |
|   \\  /    A nd           | Website:  www.openfoam.com                      |
|    \\/     M anipulation  |                                                 |
\*---------------------------------------------------------------------------*/
FoamFile
{
    version     2.0;
    format      ascii;
    arch        "LSB;label=32;scalar=64";
    class       volScalarField;
    location    "0.030011";
    object      Vm;
}
// * * * * * * * * * * * * * * * * * * * * * * * * * * * * * * * * * * * * * //

dimensions      [0 0 0 0 0 0 0];

internalField   nonuniform List<scalar> 
8790
(
9.41271e-12
5.70554e-12
3.40801e-12
2.0055e-12
1.16214e-12
6.62413e-13
3.71741e-13
2.0592e-13
1.11188e-13
5.92071e-14
3.15163e-14
1.61326e-14
7.8739e-15
4.31134e-15
5.86851e-16
1.01047e-16
-6.08874e-17
-6.08874e-17
-6.08874e-17
-6.08874e-17
-6.08874e-17
-6.08874e-17
1.01047e-16
-6.08874e-17
-6.08874e-17
-6.08874e-17
-6.08874e-17
-6.08874e-17
-6.08874e-17
-6.08874e-17
-6.08874e-17
-6.08874e-17
-2.22822e-16
9.19199e-12
5.57097e-12
3.32769e-12
1.95805e-12
1.13429e-12
6.46706e-13
3.62996e-13
2.00576e-13
1.07949e-13
5.7102e-14
2.97351e-14
1.58087e-14
8.52164e-15
4.95908e-15
2.53006e-15
4.24916e-16
-6.08874e-17
-6.08874e-17
-6.08874e-17
-2.22822e-16
-2.22822e-16
-6.08874e-17
4.24916e-16
-6.08874e-17
4.24916e-16
-6.08874e-17
-6.08874e-17
-6.08874e-17
1.01047e-16
-6.08874e-17
-6.08874e-17
-2.22822e-16
-2.22822e-16
8.75898e-12
5.30508e-12
3.16657e-12
1.86235e-12
1.0781e-12
6.14804e-13
3.4486e-13
1.9005e-13
1.02282e-13
5.4673e-14
2.79538e-14
1.37035e-14
7.06423e-15
3.98748e-15
2.2062e-15
1.07265e-15
5.86851e-16
-6.08874e-17
-6.08874e-17
-6.08874e-17
4.24916e-16
-6.08874e-17
-6.08874e-17
-6.08874e-17
-2.22822e-16
-6.08874e-17
-2.22822e-16
4.24916e-16
-6.08874e-17
-2.22822e-16
-6.08874e-17
-6.08874e-17
-6.08874e-17
8.12662e-12
4.9174e-12
2.93193e-12
1.7226e-12
9.97294e-13
5.6752e-13
3.19112e-13
1.76286e-13
9.64521e-14
5.17582e-14
2.68202e-14
1.27319e-14
6.25456e-15
3.82554e-15
2.04426e-15
5.86851e-16
-6.08874e-17
4.24916e-16
4.24916e-16
4.24916e-16
-6.08874e-17
-2.22822e-16
4.24916e-16
-6.08874e-17
-6.08874e-17
4.24916e-16
-6.08874e-17
1.01047e-16
-2.22822e-16
-6.08874e-17
1.01047e-16
4.24916e-16
4.24916e-16
7.31986e-12
4.4248e-12
2.6351e-12
1.54722e-12
8.95437e-13
5.10033e-13
2.8543e-13
1.56044e-13
8.4307e-14
4.41472e-14
2.22861e-14
1.20842e-14
6.41649e-15
2.36813e-15
1.07265e-15
1.01047e-16
-6.08874e-17
-6.08874e-17
-6.08874e-17
7.48785e-16
-6.08874e-17
-6.08874e-17
4.24916e-16
-6.08874e-17
5.86851e-16
-6.08874e-17
-6.08874e-17
-6.08874e-17
5.86851e-16
-6.08874e-17
-6.08874e-17
-6.08874e-17
-2.22822e-16
6.3821e-12
3.85155e-12
2.2905e-12
1.34092e-12
7.74472e-13
4.40239e-13
2.47213e-13
1.35964e-13
7.24858e-14
3.7346e-14
1.82377e-14
9.16938e-15
3.82554e-15
9.1072e-16
4.24916e-16
2.62982e-16
2.62982e-16
4.24916e-16
2.62982e-16
4.24916e-16
5.86851e-16
1.01047e-16
-5.46691e-16
-2.22822e-16
-6.08874e-17
5.86851e-16
-6.08874e-17
2.62982e-16
-6.08874e-17
5.86851e-16
2.62982e-16
2.62982e-16
1.23459e-15
5.3637e-12
3.23053e-12
1.91611e-12
1.11923e-12
6.44438e-13
3.6413e-13
2.03815e-13
1.1216e-13
5.98549e-14
3.20021e-14
1.64564e-14
7.8739e-15
4.95908e-15
2.36813e-15
5.86851e-16
-6.08874e-17
-6.08874e-17
4.24916e-16
-6.08874e-17
-6.08874e-17
-6.08874e-17
4.24916e-16
-2.22822e-16
-6.08874e-17
-6.08874e-17
-6.08874e-17
-6.08874e-17
-6.08874e-17
1.01047e-16
-6.08874e-17
-6.08874e-17
4.24916e-16
-2.22822e-16
4.32424e-12
2.59704e-12
1.53556e-12
8.9317e-13
5.11976e-13
2.88992e-13
1.61388e-13
8.70599e-14
4.62524e-14
2.45532e-14
1.12745e-14
5.12102e-15
1.88233e-15
4.24916e-16
4.24916e-16
-6.08874e-17
-6.08874e-17
4.24916e-16
-6.08874e-17
-6.08874e-17
-6.08874e-17
-6.08874e-17
-6.08874e-17
-6.08874e-17
-6.08874e-17
-6.08874e-17
-6.08874e-17
-6.08874e-17
-6.08874e-17
-6.08874e-17
9.1072e-16
4.24916e-16
-6.08874e-17
3.33093e-12
1.99335e-12
1.17526e-12
6.82655e-13
3.90039e-13
2.19037e-13
1.21066e-13
6.53607e-14
3.41073e-14
1.62945e-14
7.22617e-15
2.85393e-15
4.24916e-16
1.01047e-16
-6.08874e-17
2.62982e-16
2.62982e-16
1.01047e-16
2.62982e-16
4.24916e-16
1.01047e-16
1.01047e-16
-5.46691e-16
-2.22822e-16
-6.08874e-17
7.48785e-16
-6.08874e-17
2.62982e-16
-6.08874e-17
1.01047e-16
2.62982e-16
4.24916e-16
1.39652e-15
2.43916e-12
1.45508e-12
8.55601e-13
4.95945e-13
2.82839e-13
1.57987e-13
8.73837e-14
4.83575e-14
2.64964e-14
1.27319e-14
6.9023e-15
3.1778e-15
1.72039e-15
4.24916e-16
-6.08874e-17
1.01047e-16
-2.22822e-16
-6.08874e-17
4.24916e-16
4.24916e-16
5.86851e-16
1.01047e-16
4.24916e-16
-6.08874e-17
-2.22822e-16
1.01047e-16
-6.08874e-17
1.01047e-16
-2.22822e-16
-6.08874e-17
1.01047e-16
-6.08874e-17
4.24916e-16
1.69183e-12
1.00539e-12
5.89543e-13
3.40811e-13
1.94261e-13
1.08759e-13
5.87213e-14
3.16783e-14
1.69422e-14
9.97905e-15
5.12102e-15
2.85393e-15
4.24916e-16
-2.22822e-16
-7.08625e-16
-2.22822e-16
-6.08874e-17
-2.22822e-16
-6.08874e-17
-6.08874e-17
-2.22822e-16
4.24916e-16
-2.22822e-16
-7.08625e-16
-6.08874e-17
-6.08874e-17
-6.08874e-17
-6.08874e-17
-6.08874e-17
-2.22822e-16
-6.08874e-17
1.01047e-16
-2.22822e-16
1.10336e-12
6.52697e-13
3.7919e-13
2.16769e-13
1.2139e-13
6.73039e-14
3.63744e-14
1.77519e-14
9.33131e-15
4.79715e-15
2.2062e-15
5.86851e-16
-3.84756e-16
-2.22822e-16
-2.22822e-16
-2.22822e-16
-6.08874e-17
-6.08874e-17
-8.7056e-16
-8.7056e-16
-6.08874e-17
-6.08874e-17
-5.46691e-16
-2.22822e-16
-8.7056e-16
-7.08625e-16
4.24916e-16
-7.08625e-16
-8.7056e-16
-6.08874e-17
-6.08874e-17
5.86851e-16
-2.22822e-16
6.82979e-13
4.00565e-13
2.31344e-13
1.30296e-13
7.2e-14
3.81557e-14
2.01809e-14
9.16938e-15
3.98748e-15
1.72039e-15
9.1072e-16
-6.08874e-17
-6.08874e-17
-6.08874e-17
-6.08874e-17
1.01047e-16
-2.22822e-16
-6.08874e-17
-6.08874e-17
-6.08874e-17
-6.08874e-17
-6.08874e-17
4.24916e-16
-6.08874e-17
-2.22822e-16
1.01047e-16
-6.08874e-17
1.01047e-16
-2.22822e-16
-6.08874e-17
1.01047e-16
4.24916e-16
4.24916e-16
4.19026e-13
2.44622e-13
1.4066e-13
7.88012e-14
4.33376e-14
2.21241e-14
1.07887e-14
5.12102e-15
2.53006e-15
4.24916e-16
-6.08874e-17
-6.08874e-17
-6.08874e-17
-2.22822e-16
-6.08874e-17
-2.22822e-16
-6.08874e-17
-6.08874e-17
-6.08874e-17
-6.08874e-17
-6.08874e-17
4.24916e-16
-2.22822e-16
-6.08874e-17
-6.08874e-17
-6.08874e-17
4.24916e-16
-6.08874e-17
-6.08874e-17
-6.08874e-17
-6.08874e-17
4.24916e-16
-2.22822e-16
2.91745e-13
1.68837e-13
9.59663e-14
5.15962e-14
2.68202e-14
1.32177e-14
6.25456e-15
3.66361e-15
9.1072e-16
2.62982e-16
-2.22822e-16
4.24916e-16
-2.22822e-16
-2.22822e-16
-2.22822e-16
-2.22822e-16
4.24916e-16
-2.22822e-16
-2.22822e-16
-2.22822e-16
-1.03249e-15
-6.08874e-17
1.01047e-16
4.24916e-16
4.24916e-16
-2.22822e-16
-2.22822e-16
-2.22822e-16
4.24916e-16
-2.22822e-16
-2.22822e-16
1.01047e-16
1.01047e-16
6.52429e-11
3.96925e-11
2.37878e-11
1.40379e-11
8.15367e-12
4.66058e-12
2.62004e-12
1.44941e-12
7.88236e-13
4.21779e-13
2.22113e-13
1.13941e-13
5.67781e-14
2.92493e-14
1.33797e-14
5.12102e-15
1.72039e-15
4.24916e-16
1.01047e-16
5.86851e-16
-6.08874e-17
-6.08874e-17
-6.08874e-17
-2.22822e-16
-6.08874e-17
4.24916e-16
-6.08874e-17
-6.08874e-17
-6.08874e-17
-6.08874e-17
4.24916e-16
-2.22822e-16
-2.22822e-16
6.37234e-11
3.87561e-11
2.32201e-11
1.36991e-11
7.95416e-12
4.54479e-12
2.55397e-12
1.41249e-12
7.67995e-13
4.11091e-13
2.16607e-13
1.11998e-13
5.75878e-14
2.9897e-14
1.45132e-14
6.09262e-15
2.2062e-15
7.48785e-16
4.24916e-16
-6.08874e-17
4.24916e-16
-6.08874e-17
4.24916e-16
-6.08874e-17
4.24916e-16
-6.08874e-17
-6.08874e-17
-6.08874e-17
4.24916e-16
5.86851e-16
-6.08874e-17
-2.22822e-16
-2.22822e-16
6.0728e-11
3.69119e-11
2.21016e-11
1.30292e-11
7.56082e-12
4.31663e-12
2.42539e-12
1.33979e-12
7.27511e-13
3.88096e-13
2.03167e-13
1.04711e-13
5.32156e-14
2.61725e-14
1.257e-14
6.09262e-15
3.50167e-15
4.24916e-16
-6.08874e-17
-6.08874e-17
4.24916e-16
-6.08874e-17
-6.08874e-17
-6.08874e-17
-2.22822e-16
-6.08874e-17
-6.08874e-17
4.24916e-16
-6.08874e-17
-2.22822e-16
-6.08874e-17
-6.08874e-17
-6.08874e-17
5.63638e-11
3.42277e-11
2.0474e-11
1.20582e-11
6.99065e-12
3.98806e-12
2.23836e-12
1.23566e-12
6.70672e-13
3.58786e-13
1.88269e-13
9.69379e-14
4.93291e-14
2.5039e-14
1.30558e-14
6.57843e-15
2.36813e-15
9.1072e-16
4.24916e-16
-6.08874e-17
-6.08874e-17
-2.22822e-16
4.24916e-16
-6.08874e-17
-6.08874e-17
4.24916e-16
-6.08874e-17
-6.08874e-17
4.24916e-16
-6.08874e-17
1.01047e-16
4.24916e-16
4.24916e-16
5.08137e-11
3.08183e-11
1.84111e-11
1.08282e-11
6.26778e-12
3.56979e-12
2.00032e-12
1.10271e-12
5.98125e-13
3.19274e-13
1.66894e-13
8.64121e-14
4.30137e-14
2.14764e-14
1.06268e-14
4.79715e-15
2.04426e-15
2.62982e-16
-6.08874e-17
-6.08874e-17
-2.22822e-16
-6.08874e-17
-2.22822e-16
-2.22822e-16
-6.08874e-17
-6.08874e-17
-6.08874e-17
-6.08874e-17
-6.08874e-17
-2.22822e-16
-6.08874e-17
-6.08874e-17
-6.08874e-17
4.43404e-11
2.68479e-11
1.60115e-11
9.40121e-12
5.43333e-12
3.08949e-12
1.72762e-12
9.49685e-13
5.13433e-13
2.72961e-13
1.43737e-13
7.34574e-14
3.63744e-14
1.77519e-14
9.00745e-15
4.79715e-15
5.86851e-16
2.62982e-16
-6.08874e-17
-6.08874e-17
4.24916e-16
-6.08874e-17
-6.08874e-17
-6.08874e-17
-6.08874e-17
-2.22822e-16
-6.08874e-17
-6.08874e-17
-6.08874e-17
-6.08874e-17
-6.08874e-17
-6.08874e-17
-6.08874e-17
3.73038e-11
2.25398e-11
1.3412e-11
7.85668e-12
4.53022e-12
2.56935e-12
1.43387e-12
7.87589e-13
4.24693e-13
2.2519e-13
1.17342e-13
5.88833e-14
3.00589e-14
1.54848e-14
6.74036e-15
3.82554e-15
1.55846e-15
2.62982e-16
-6.08874e-17
-6.08874e-17
-6.08874e-17
4.24916e-16
-2.22822e-16
-2.22822e-16
-6.08874e-17
-6.08874e-17
-6.08874e-17
-6.08874e-17
-6.08874e-17
-6.08874e-17
-6.08874e-17
4.24916e-16
-2.22822e-16
3.01287e-11
1.81564e-11
1.07747e-11
6.2932e-12
3.61707e-12
2.04469e-12
1.13737e-12
6.21282e-13
3.33362e-13
1.76934e-13
9.07844e-14
4.60904e-14
2.2448e-14
1.04649e-14
5.28295e-15
1.72039e-15
4.24916e-16
4.24916e-16
-6.08874e-17
-6.08874e-17
-6.08874e-17
-6.08874e-17
-6.08874e-17
-2.22822e-16
-6.08874e-17
-6.08874e-17
4.24916e-16
-6.08874e-17
-6.08874e-17
4.24916e-16
9.1072e-16
-6.08874e-17
-6.08874e-17
2.32531e-11
1.3967e-11
8.26168e-12
4.80939e-12
2.75574e-12
1.5537e-12
8.60621e-13
4.69225e-13
2.511e-13
1.31754e-13
6.71419e-14
3.28118e-14
1.58087e-14
7.71197e-15
3.1778e-15
1.72039e-15
4.24916e-16
4.24916e-16
2.62982e-16
2.62982e-16
1.01047e-16
-6.08874e-17
2.62982e-16
-6.08874e-17
4.24916e-16
1.23459e-15
4.24916e-16
2.62982e-16
-6.08874e-17
-6.08874e-17
2.62982e-16
4.24916e-16
1.39652e-15
1.70656e-11
1.02115e-11
6.01564e-12
3.48768e-12
1.99011e-12
1.11745e-12
6.1691e-13
3.34496e-13
1.78553e-13
9.32134e-14
4.81956e-14
2.39054e-14
1.09507e-14
4.79715e-15
2.85393e-15
4.24916e-16
-6.08874e-17
-6.08874e-17
-6.08874e-17
-6.08874e-17
4.24916e-16
-6.08874e-17
4.24916e-16
-6.08874e-17
-6.08874e-17
-2.22822e-16
-6.08874e-17
-6.08874e-17
-6.08874e-17
1.01047e-16
-6.08874e-17
-6.08874e-17
-6.08874e-17
1.18503e-11
7.05834e-12
4.13931e-12
2.38896e-12
1.35501e-12
7.57307e-13
4.15301e-13
2.24056e-13
1.17989e-13
6.16362e-14
3.11925e-14
1.59706e-14
8.03584e-15
3.33974e-15
2.62982e-16
-6.08874e-17
-2.22822e-16
-2.22822e-16
-2.22822e-16
-6.08874e-17
-2.22822e-16
-2.22822e-16
-6.08874e-17
-5.46691e-16
-6.08874e-17
-6.08874e-17
-6.08874e-17
-6.08874e-17
-6.08874e-17
-2.22822e-16
-6.08874e-17
1.01047e-16
4.24916e-16
7.76033e-12
4.59483e-12
2.67785e-12
1.53524e-12
8.64993e-13
4.79913e-13
2.60978e-13
1.38717e-13
7.28096e-14
3.70221e-14
1.96951e-14
9.16938e-15
3.33974e-15
1.72039e-15
4.24916e-16
-2.22822e-16
-6.08874e-17
-6.08874e-17
-8.7056e-16
-8.7056e-16
-6.08874e-17
-6.08874e-17
-5.46691e-16
-6.08874e-17
-8.7056e-16
-8.7056e-16
-6.08874e-17
-8.7056e-16
-8.7056e-16
-6.08874e-17
-6.08874e-17
-6.08874e-17
-2.22822e-16
4.81798e-12
2.83412e-12
1.64098e-12
9.34139e-13
5.22016e-13
2.86563e-13
1.53777e-13
8.09064e-14
4.2366e-14
2.16383e-14
1.09507e-14
4.47328e-15
1.07265e-15
4.24916e-16
-2.22822e-16
-6.08874e-17
-6.08874e-17
-6.08874e-17
-6.08874e-17
-6.08874e-17
-2.22822e-16
-6.08874e-17
4.24916e-16
4.24916e-16
-6.08874e-17
-2.22822e-16
-6.08874e-17
-6.08874e-17
-6.08874e-17
-6.08874e-17
-6.08874e-17
-6.08874e-17
-6.08874e-17
2.95103e-12
1.72292e-12
9.90169e-13
5.59585e-13
3.10691e-13
1.70132e-13
9.01366e-14
4.7224e-14
2.34196e-14
1.14365e-14
4.47328e-15
1.55846e-15
2.62982e-16
-6.08874e-17
-6.08874e-17
-6.08874e-17
-2.22822e-16
4.24916e-16
-2.22822e-16
-6.08874e-17
4.24916e-16
-2.22822e-16
-6.08874e-17
-2.22822e-16
-6.08874e-17
-6.08874e-17
-6.08874e-17
-6.08874e-17
-6.08874e-17
4.24916e-16
-6.08874e-17
-6.08874e-17
4.24916e-16
2.05651e-12
1.19032e-12
6.77635e-13
3.7838e-13
2.07701e-13
1.10864e-13
5.83975e-14
2.94112e-14
1.45132e-14
6.25456e-15
2.85393e-15
1.72039e-15
-6.08874e-17
-2.22822e-16
-1.03249e-15
-2.22822e-16
4.24916e-16
-2.22822e-16
-2.22822e-16
-2.22822e-16
-2.22822e-16
-6.08874e-17
1.01047e-16
-6.08874e-17
-2.22822e-16
-2.22822e-16
-6.08874e-17
-2.22822e-16
-2.22822e-16
-2.22822e-16
-6.08874e-17
-2.22822e-16
-2.22822e-16
5.08249e-10
3.10273e-10
1.8652e-10
1.10357e-10
6.42379e-11
3.67735e-11
2.06958e-11
1.14468e-11
6.22033e-12
3.32024e-12
1.74171e-12
8.97056e-13
4.53518e-13
2.2519e-13
1.09245e-13
5.17582e-14
2.34196e-14
9.97905e-15
4.31134e-15
2.36813e-15
9.1072e-16
1.01047e-16
-6.08874e-17
-6.08874e-17
-6.08874e-17
-6.08874e-17
-2.22822e-16
-2.22822e-16
-6.08874e-17
-2.22822e-16
-6.08874e-17
-6.08874e-17
-6.08874e-17
4.96457e-10
3.02979e-10
1.82073e-10
1.07691e-10
6.2665e-11
3.58599e-11
2.01746e-11
1.11543e-11
6.06034e-12
3.23539e-12
1.69588e-12
8.73414e-13
4.42344e-13
2.20818e-13
1.08273e-13
5.15962e-14
2.35816e-14
1.07887e-14
4.31134e-15
1.07265e-15
4.24916e-16
-6.08874e-17
-6.08874e-17
-6.08874e-17
-2.22822e-16
-6.08874e-17
-2.22822e-16
4.24916e-16
4.24916e-16
4.24916e-16
-6.08874e-17
-2.22822e-16
-2.22822e-16
4.73194e-10
2.88603e-10
1.73322e-10
1.02446e-10
5.95697e-11
3.40638e-11
1.91493e-11
1.05796e-11
5.7444e-12
3.06342e-12
1.60617e-12
8.27748e-13
4.19188e-13
2.08511e-13
1.0212e-13
4.83575e-14
2.30957e-14
9.81712e-15
4.14941e-15
2.04426e-15
2.62982e-16
-5.46691e-16
-6.08874e-17
-6.08874e-17
-6.08874e-17
-6.08874e-17
-2.22822e-16
-2.22822e-16
-6.08874e-17
-6.08874e-17
-5.46691e-16
-2.22822e-16
-8.7056e-16
4.39349e-10
2.67705e-10
1.60611e-10
9.48336e-11
5.50849e-11
3.1464e-11
1.76685e-11
9.75131e-12
5.28856e-12
2.81744e-12
1.475e-12
7.58926e-13
3.83562e-13
1.9086e-13
9.27276e-14
4.44711e-14
2.08287e-14
9.49325e-15
3.33974e-15
1.55846e-15
4.24916e-16
-6.08874e-17
1.01047e-16
-2.22822e-16
-6.08874e-17
-6.08874e-17
-6.08874e-17
-6.08874e-17
-6.08874e-17
-6.08874e-17
-6.08874e-17
-6.08874e-17
1.01047e-16
3.96318e-10
2.41171e-10
1.44495e-10
8.51982e-11
4.94156e-11
2.81832e-11
1.57999e-11
8.70424e-12
4.71369e-12
2.50685e-12
1.30999e-12
6.72129e-13
3.3903e-13
1.68027e-13
8.23638e-14
3.94511e-14
1.85616e-14
9.33131e-15
3.50167e-15
1.07265e-15
-2.22822e-16
-5.46691e-16
-6.08874e-17
-6.08874e-17
-6.08874e-17
-6.08874e-17
-5.46691e-16
-2.22822e-16
-6.08874e-17
-2.22822e-16
-5.46691e-16
1.01047e-16
4.24916e-16
3.46133e-10
2.10275e-10
1.25762e-10
7.40175e-11
4.28504e-11
2.4391e-11
1.36475e-11
7.50447e-12
4.05575e-12
2.15334e-12
1.12231e-12
5.75454e-13
2.90773e-13
1.43251e-13
6.9571e-14
3.28118e-14
1.48371e-14
6.25456e-15
2.85393e-15
-2.22822e-16
-6.08874e-17
-2.22822e-16
2.62982e-16
-2.22822e-16
2.62982e-16
2.62982e-16
4.24916e-16
-2.22822e-16
4.24916e-16
-6.08874e-17
4.24916e-16
-6.08874e-17
-8.7056e-16
2.91508e-10
1.76706e-10
1.05449e-10
6.19169e-11
3.57591e-11
2.03052e-11
1.13331e-11
6.21693e-12
3.35085e-12
1.77328e-12
9.23776e-13
4.7133e-13
2.3604e-13
1.16046e-13
5.58065e-14
2.60106e-14
1.19223e-14
5.60682e-15
1.72039e-15
2.62982e-16
-2.22822e-16
-6.08874e-17
-6.08874e-17
-2.22822e-16
-6.08874e-17
-6.08874e-17
-6.08874e-17
-6.08874e-17
-6.08874e-17
-6.08874e-17
-6.08874e-17
-2.22822e-16
-2.22822e-16
2.35752e-10
1.42514e-10
8.48018e-11
4.96479e-11
2.85864e-11
1.6183e-11
9.00447e-12
4.92453e-12
2.64676e-12
1.39662e-12
7.23463e-13
3.68664e-13
1.84544e-13
9.12702e-14
4.28518e-14
1.95332e-14
8.35971e-15
4.31134e-15
2.2062e-15
4.24916e-16
-6.08874e-17
4.24916e-16
-6.08874e-17
-6.08874e-17
4.24916e-16
4.24916e-16
-6.08874e-17
4.24916e-16
4.24916e-16
4.24916e-16
4.24916e-16
-6.08874e-17
-6.08874e-17
1.82256e-10
1.09801e-10
6.51064e-11
3.79805e-11
2.17897e-11
1.2289e-11
6.81333e-12
3.71164e-12
1.98655e-12
1.04442e-12
5.39019e-13
2.72313e-13
1.3564e-13
6.63323e-14
3.13544e-14
1.37035e-14
5.12102e-15
1.39652e-15
4.24916e-16
-6.08874e-17
-6.08874e-17
-6.08874e-17
-6.08874e-17
-6.08874e-17
-6.08874e-17
-6.08874e-17
-2.22822e-16
-6.08874e-17
-6.08874e-17
-5.46691e-16
-6.08874e-17
-6.08874e-17
-6.08874e-17
1.3401e-10
8.03975e-11
4.74691e-11
2.75716e-11
1.57479e-11
8.84221e-12
4.88097e-12
2.64676e-12
1.40877e-12
7.37065e-13
3.77894e-13
1.90698e-13
9.40231e-14
4.56046e-14
2.19622e-14
9.33131e-15
4.63521e-15
2.04426e-15
7.48785e-16
-6.08874e-17
-6.08874e-17
-6.08874e-17
-6.08874e-17
-6.08874e-17
-6.08874e-17
-6.08874e-17
-6.08874e-17
-6.08874e-17
-6.08874e-17
-6.08874e-17
-6.08874e-17
-2.22822e-16
-6.08874e-17
9.32465e-11
5.56593e-11
3.26931e-11
1.88893e-11
1.07317e-11
5.99281e-12
3.28851e-12
1.77264e-12
9.39645e-13
4.89791e-13
2.50452e-13
1.26248e-13
6.17981e-14
2.9897e-14
1.45132e-14
6.09262e-15
2.36813e-15
1.07265e-15
2.62982e-16
-2.22822e-16
-6.08874e-17
4.24916e-16
-2.22822e-16
-6.08874e-17
-6.08874e-17
-6.08874e-17
-6.08874e-17
-6.08874e-17
4.24916e-16
-6.08874e-17
-2.22822e-16
-2.22822e-16
-2.22822e-16
6.11895e-11
3.6301e-11
2.11902e-11
1.21664e-11
6.86855e-12
3.81204e-12
2.07902e-12
1.11486e-12
5.87114e-13
3.03081e-13
1.55072e-13
7.78296e-14
3.76699e-14
1.82377e-14
8.52164e-15
3.33974e-15
4.24916e-16
2.62982e-16
2.62982e-16
-6.08874e-17
-5.46691e-16
-6.08874e-17
-6.08874e-17
-6.08874e-17
2.62982e-16
2.62982e-16
5.86851e-16
2.62982e-16
2.62982e-16
-6.08874e-17
-6.08874e-17
5.86851e-16
4.24916e-16
3.8055e-11
2.24104e-11
1.29843e-11
7.39921e-12
4.14595e-12
2.28386e-12
1.23647e-12
6.57069e-13
3.43564e-13
1.76934e-13
8.88412e-14
4.41472e-14
2.21241e-14
1.12745e-14
5.44489e-15
1.55846e-15
2.62982e-16
-6.08874e-17
4.24916e-16
4.24916e-16
-6.08874e-17
4.24916e-16
4.24916e-16
-6.08874e-17
4.24916e-16
4.24916e-16
-6.08874e-17
4.24916e-16
4.24916e-16
-6.08874e-17
4.24916e-16
-2.22822e-16
4.24916e-16
2.33311e-11
1.36178e-11
7.82073e-12
4.41784e-12
2.4547e-12
1.34124e-12
7.19576e-13
3.78218e-13
1.96042e-13
1.00177e-13
5.03007e-14
2.40674e-14
1.14365e-14
5.44489e-15
3.1778e-15
1.07265e-15
-6.08874e-17
-2.22822e-16
-6.08874e-17
-2.22822e-16
-6.08874e-17
4.24916e-16
-2.22822e-16
-6.08874e-17
-6.08874e-17
-6.08874e-17
-6.08874e-17
-6.08874e-17
4.24916e-16
-6.08874e-17
-2.22822e-16
-2.22822e-16
-2.22822e-16
1.6246e-11
9.40267e-12
5.35366e-12
2.99929e-12
1.65297e-12
8.94951e-13
4.7716e-13
2.5029e-13
1.28353e-13
6.47129e-14
3.2326e-14
1.64564e-14
8.68358e-15
4.79715e-15
1.72039e-15
2.62982e-16
-2.22822e-16
-2.22822e-16
4.24916e-16
4.24916e-16
-6.08874e-17
4.24916e-16
4.24916e-16
-2.22822e-16
4.24916e-16
4.24916e-16
-2.22822e-16
4.24916e-16
4.24916e-16
-2.22822e-16
4.24916e-16
-6.08874e-17
4.24916e-16
3.9681e-09
2.4314e-09
1.46648e-09
8.70152e-10
5.07687e-10
2.91125e-10
1.64012e-10
9.07497e-11
4.93024e-11
2.62954e-11
1.37671e-11
7.07502e-12
3.5693e-12
1.76907e-12
8.61755e-13
4.12548e-13
1.93451e-13
9.06224e-14
4.2204e-14
2.0019e-14
9.65518e-15
5.12102e-15
2.2062e-15
1.01047e-16
-6.08874e-17
4.24916e-16
-6.08874e-17
1.01047e-16
-2.22822e-16
-6.08874e-17
1.01047e-16
4.24916e-16
4.24916e-16
3.87645e-09
2.37447e-09
1.43164e-09
8.49182e-10
4.95269e-10
2.83897e-10
1.59878e-10
8.84253e-11
4.80202e-11
2.56016e-11
1.33979e-11
6.88199e-12
3.47101e-12
1.71839e-12
8.34712e-13
3.97974e-13
1.8584e-13
8.46309e-14
3.78318e-14
1.62945e-14
7.06423e-15
2.04426e-15
5.86851e-16
-6.08874e-17
4.24916e-16
-6.08874e-17
4.24916e-16
-6.08874e-17
-2.22822e-16
-6.08874e-17
-6.08874e-17
4.24916e-16
4.24916e-16
3.69539e-09
2.2621e-09
1.36297e-09
8.07882e-10
4.70838e-10
2.69689e-10
1.51759e-10
8.387e-11
4.55103e-11
2.42443e-11
1.26783e-11
6.50906e-12
3.28089e-12
1.62366e-12
7.88722e-13
3.75465e-13
1.74343e-13
7.9449e-14
3.45931e-14
1.5161e-14
6.9023e-15
3.1778e-15
1.23459e-15
-6.08874e-17
-6.08874e-17
-6.08874e-17
-6.08874e-17
-6.08874e-17
-6.08874e-17
-6.08874e-17
-6.08874e-17
-2.22822e-16
-2.22822e-16
3.43228e-09
2.09898e-09
1.26338e-09
7.48037e-10
4.35469e-10
2.49141e-10
1.4003e-10
7.72935e-11
4.18913e-11
2.22889e-11
1.16408e-11
5.96933e-12
3.00463e-12
1.48617e-12
7.22167e-13
3.44698e-13
1.61712e-13
7.29716e-14
3.16783e-14
1.32177e-14
5.28295e-15
2.692e-15
1.01047e-16
-2.22822e-16
-6.08874e-17
-6.08874e-17
-6.08874e-17
5.86851e-16
-2.22822e-16
-6.08874e-17
-6.08874e-17
-6.08874e-17
-6.08874e-17
3.09809e-09
1.89206e-09
1.13723e-09
6.72357e-10
3.90816e-10
2.23242e-10
1.25269e-10
6.90312e-11
3.7349e-11
1.98364e-11
1.03417e-11
5.29261e-12
2.65988e-12
1.31242e-12
6.36989e-13
3.03081e-13
1.4228e-13
6.42271e-14
2.81157e-14
1.14365e-14
4.47328e-15
9.1072e-16
-6.08874e-17
-6.08874e-17
2.62982e-16
2.62982e-16
-6.08874e-17
2.62982e-16
-6.08874e-17
-2.22822e-16
2.62982e-16
-6.08874e-17
4.24916e-16
2.70825e-09
1.65108e-09
9.90564e-10
5.84524e-10
3.39092e-10
1.93304e-10
1.08245e-10
5.95229e-11
3.21354e-11
1.70316e-11
8.86132e-12
4.52601e-12
2.26945e-12
1.11793e-12
5.41124e-13
2.57253e-13
1.19771e-13
5.48349e-14
2.35816e-14
9.97905e-15
3.82554e-15
1.55846e-15
2.62982e-16
-2.22822e-16
-6.08874e-17
-6.08874e-17
-2.22822e-16
4.24916e-16
5.86851e-16
4.24916e-16
1.01047e-16
-6.08874e-17
-6.08874e-17
2.28334e-09
1.3889e-09
8.31324e-10
4.89369e-10
2.83181e-10
1.61017e-10
8.99296e-11
4.93205e-11
2.65561e-11
1.40369e-11
7.28359e-12
3.7097e-12
1.8549e-12
9.12116e-13
4.40563e-13
2.0932e-13
9.79095e-14
4.51188e-14
1.96951e-14
7.71197e-15
2.85393e-15
1.01047e-16
-6.08874e-17
-6.08874e-17
-6.08874e-17
-6.08874e-17
-6.08874e-17
5.86851e-16
-2.22822e-16
-6.08874e-17
-6.08874e-17
-6.08874e-17
-6.08874e-17
1.84917e-09
1.12158e-09
6.69313e-10
3.92787e-10
2.26575e-10
1.28416e-10
7.14882e-11
3.90781e-11
2.09732e-11
1.10499e-11
5.71526e-12
2.90262e-12
1.44666e-12
7.09698e-13
3.42593e-13
1.63169e-13
7.60483e-14
3.4917e-14
1.46752e-14
5.44489e-15
1.23459e-15
4.24916e-16
-6.08874e-17
-2.22822e-16
-6.08874e-17
-6.08874e-17
-2.22822e-16
-2.22822e-16
-6.08874e-17
-6.08874e-17
-6.08874e-17
-2.22822e-16
-6.08874e-17
1.43199e-09
8.65436e-10
5.14546e-10
3.00813e-10
1.72847e-10
9.75773e-11
5.41037e-11
2.94574e-11
1.57474e-11
8.26427e-12
4.25671e-12
2.15318e-12
1.06952e-12
5.22826e-13
2.51423e-13
1.18151e-13
5.41872e-14
2.39054e-14
1.04649e-14
4.31134e-15
7.48785e-16
2.62982e-16
-6.08874e-17
-2.22822e-16
-6.08874e-17
-6.08874e-17
-2.22822e-16
-2.22822e-16
4.24916e-16
4.24916e-16
-6.08874e-17
-6.08874e-17
-6.08874e-17
1.05502e-09
6.34814e-10
3.75726e-10
2.18643e-10
1.25041e-10
7.02543e-11
3.87679e-11
2.10069e-11
1.11762e-11
5.83784e-12
2.99297e-12
1.5069e-12
7.45162e-13
3.62672e-13
1.73533e-13
8.05825e-14
3.58886e-14
1.56468e-14
7.55003e-15
3.01587e-15
1.39652e-15
1.01047e-16
-6.08874e-17
-2.22822e-16
-2.22822e-16
-6.08874e-17
-2.22822e-16
-6.08874e-17
-6.08874e-17
-2.22822e-16
-6.08874e-17
-6.08874e-17
-6.08874e-17
7.35752e-10
4.40347e-10
2.59206e-10
1.49999e-10
8.53006e-11
4.7654e-11
2.61469e-11
1.40881e-11
7.45427e-12
3.87212e-12
1.97489e-12
9.89197e-13
4.86228e-13
2.35392e-13
1.11998e-13
5.19201e-14
2.40674e-14
1.0141e-14
4.47328e-15
5.86851e-16
1.01047e-16
-6.08874e-17
-6.08874e-17
-6.08874e-17
-3.84756e-16
2.62982e-16
-6.08874e-17
-5.46691e-16
-6.08874e-17
-6.08874e-17
-6.08874e-17
-6.08874e-17
-8.7056e-16
4.83924e-10
2.87755e-10
1.68269e-10
9.67267e-11
5.46389e-11
3.0321e-11
1.65276e-11
8.84836e-12
4.65216e-12
2.40143e-12
1.21785e-12
6.06384e-13
2.97089e-13
1.4228e-13
6.64942e-14
3.03828e-14
1.41893e-14
5.76876e-15
1.88233e-15
4.24916e-16
-6.08874e-17
2.62982e-16
-6.08874e-17
-6.08874e-17
-6.08874e-17
2.62982e-16
-2.22822e-16
-6.08874e-17
-6.08874e-17
-6.08874e-17
2.62982e-16
-2.22822e-16
-6.08874e-17
3.01562e-10
1.779e-10
1.032e-10
5.88478e-11
3.29758e-11
1.81551e-11
9.81884e-12
5.21569e-12
2.72222e-12
1.39598e-12
7.0403e-13
3.4907e-13
1.69485e-13
8.02586e-14
3.81557e-14
1.80758e-14
8.68358e-15
3.66361e-15
4.24916e-16
-6.08874e-17
-6.08874e-17
-6.08874e-17
-6.08874e-17
-6.08874e-17
-6.08874e-17
5.86851e-16
-6.08874e-17
5.86851e-16
-2.22822e-16
-6.08874e-17
-6.08874e-17
-6.08874e-17
-6.08874e-17
1.85127e-10
1.08165e-10
6.21415e-11
3.50941e-11
1.94777e-11
1.06224e-11
5.69113e-12
2.99524e-12
1.54933e-12
7.87589e-13
3.93116e-13
1.93289e-13
9.28895e-14
4.41472e-14
2.03429e-14
9.00745e-15
4.63521e-15
2.04426e-15
2.62982e-16
-6.08874e-17
-2.22822e-16
-6.08874e-17
-6.08874e-17
-6.08874e-17
-5.46691e-16
2.62982e-16
-6.08874e-17
-5.46691e-16
-6.08874e-17
-6.08874e-17
-6.08874e-17
-6.08874e-17
9.1072e-16
1.28955e-10
7.46765e-11
4.25183e-11
2.37964e-11
1.30894e-11
7.07632e-12
3.75941e-12
1.9621e-12
1.00701e-12
5.0809e-13
2.51909e-13
1.2139e-13
5.74259e-14
2.56867e-14
1.11126e-14
4.79715e-15
1.23459e-15
4.24916e-16
-6.08874e-17
-6.08874e-17
-6.08874e-17
-6.08874e-17
-6.08874e-17
4.24916e-16
-6.08874e-17
9.1072e-16
4.24916e-16
-5.46691e-16
-6.08874e-17
4.24916e-16
-6.08874e-17
-6.08874e-17
-6.08874e-17
3.0982e-08
1.90595e-08
1.15372e-08
6.86734e-09
4.01712e-09
2.30805e-09
1.30191e-09
7.2069e-10
3.91394e-10
2.08489e-10
1.08921e-10
5.58086e-11
2.80473e-11
1.38296e-11
6.69107e-12
3.17855e-12
1.48326e-12
6.8136e-13
3.09396e-13
1.38231e-13
6.06646e-14
2.66583e-14
1.06268e-14
3.50167e-15
4.24916e-16
4.24916e-16
-6.08874e-17
-6.08874e-17
-6.08874e-17
-6.08874e-17
4.24916e-16
-2.22822e-16
-2.22822e-16
3.02708e-08
1.86156e-08
1.12644e-08
6.70247e-09
3.91917e-09
2.25089e-09
1.26915e-09
7.0227e-10
3.8123e-10
2.02988e-10
1.06002e-10
5.42883e-11
2.7271e-11
1.34397e-11
6.49918e-12
3.08544e-12
1.43938e-12
6.5966e-13
2.97737e-13
1.32887e-13
5.80736e-14
2.56867e-14
9.81712e-15
3.1778e-15
4.24916e-16
4.24916e-16
-6.08874e-17
-6.08874e-17
-6.08874e-17
-6.08874e-17
4.24916e-16
-6.08874e-17
4.24916e-16
2.88618e-08
1.77372e-08
1.07254e-08
6.37709e-09
3.72607e-09
2.1383e-09
1.2047e-09
6.66049e-10
3.61262e-10
1.92192e-10
1.00277e-10
5.13134e-11
2.57559e-11
1.26818e-11
6.12722e-12
2.90553e-12
1.35323e-12
6.18691e-13
2.76847e-13
1.21228e-13
5.35394e-14
2.22861e-14
8.68358e-15
2.692e-15
1.07265e-15
-6.08874e-17
-6.08874e-17
-6.08874e-17
4.24916e-16
5.86851e-16
-6.08874e-17
-6.08874e-17
-6.08874e-17
2.68167e-08
1.64636e-08
9.9446e-09
5.90617e-09
3.44686e-09
1.97567e-09
1.11168e-09
6.13835e-10
3.3251e-10
1.76665e-10
9.20558e-11
4.70463e-11
2.35831e-11
1.15982e-11
5.59802e-12
2.65291e-12
1.23599e-12
5.66062e-13
2.53529e-13
1.1135e-13
4.77098e-14
2.06667e-14
7.8739e-15
2.2062e-15
4.24916e-16
-6.08874e-17
-6.08874e-17
-6.08874e-17
-6.08874e-17
-6.08874e-17
-6.08874e-17
-6.08874e-17
-6.08874e-17
2.42217e-08
1.485e-08
8.9568e-09
5.31135e-09
3.09477e-09
1.77092e-09
9.94775e-10
5.48327e-10
2.96498e-10
1.5725e-10
8.17921e-11
4.17246e-11
2.08795e-11
1.02512e-11
4.93943e-12
2.33682e-12
1.08668e-12
4.96754e-13
2.22761e-13
9.77476e-14
4.30137e-14
1.72661e-14
7.3881e-15
2.2062e-15
2.62982e-16
-6.08874e-17
-6.08874e-17
-6.08874e-17
-6.08874e-17
-6.08874e-17
-6.08874e-17
4.24916e-16
-6.08874e-17
2.11942e-08
1.29704e-08
7.80818e-09
4.62094e-09
2.68689e-09
1.53423e-09
8.59922e-10
4.72931e-10
2.55146e-10
1.35008e-10
7.00622e-11
3.56608e-11
1.78067e-11
8.72497e-12
4.1968e-12
1.98234e-12
9.20213e-13
4.19026e-13
1.87297e-13
8.33354e-14
3.57266e-14
1.45132e-14
5.76876e-15
1.72039e-15
9.1072e-16
1.23459e-15
-6.08874e-17
-6.08874e-17
-6.08874e-17
-6.08874e-17
7.48785e-16
-6.08874e-17
-6.08874e-17
1.78894e-08
1.09226e-08
6.55935e-09
3.87202e-09
2.24551e-09
1.27873e-09
7.14735e-10
3.91974e-10
2.10868e-10
1.11258e-10
5.75714e-11
2.92194e-11
1.45486e-11
7.10805e-12
3.40931e-12
1.60633e-12
7.43866e-13
3.38706e-13
1.507e-13
6.53607e-14
2.71441e-14
1.07887e-14
3.82554e-15
2.04426e-15
5.86851e-16
-6.08874e-17
-6.08874e-17
-6.08874e-17
-6.08874e-17
-6.08874e-17
-6.08874e-17
-6.08874e-17
-6.08874e-17
1.45092e-08
8.83226e-09
5.28747e-09
3.11111e-09
1.79822e-09
1.02053e-09
5.68436e-10
3.10647e-10
1.66528e-10
8.75553e-11
4.51499e-11
2.28387e-11
1.1335e-11
5.52158e-12
2.64044e-12
1.24101e-12
5.73025e-13
2.59358e-13
1.1637e-13
5.14343e-14
2.13145e-14
8.35971e-15
3.1778e-15
4.24916e-16
4.24916e-16
-6.08874e-17
-6.08874e-17
4.24916e-16
-6.08874e-17
-6.08874e-17
4.24916e-16
-6.08874e-17
4.24916e-16
1.12564e-08
6.8265e-09
4.07077e-09
2.38558e-09
1.37318e-09
7.76033e-10
4.30409e-10
2.34209e-10
1.25015e-10
6.54514e-11
3.36117e-11
1.69323e-11
8.37131e-12
4.06336e-12
1.937e-12
9.07582e-13
4.17568e-13
1.88269e-13
8.30115e-14
3.70221e-14
1.56468e-14
6.09262e-15
1.88233e-15
4.24916e-16
1.01047e-16
5.86851e-16
-2.22822e-16
-6.08874e-17
-6.08874e-17
-6.08874e-17
5.86851e-16
-6.08874e-17
-6.08874e-17
8.31069e-09
5.01687e-09
2.97744e-09
1.73635e-09
9.94489e-10
5.59171e-10
3.08544e-10
1.67034e-10
8.87046e-11
4.62073e-11
2.36119e-11
1.1838e-11
5.82391e-12
2.81258e-12
1.33412e-12
6.2193e-13
2.8462e-13
1.28839e-13
5.67781e-14
2.47151e-14
1.06268e-14
4.31134e-15
1.88233e-15
5.86851e-16
4.24916e-16
-6.08874e-17
4.24916e-16
-6.08874e-17
-6.08874e-17
4.24916e-16
-2.22822e-16
-6.08874e-17
-6.08874e-17
5.8097e-09
3.4874e-09
2.05778e-09
1.19296e-09
6.79164e-10
3.79559e-10
2.08163e-10
1.12009e-10
5.91272e-11
3.06198e-11
1.5558e-11
7.75676e-12
3.79471e-12
1.82267e-12
8.61107e-13
4.00079e-13
1.82601e-13
8.33354e-14
3.88034e-14
1.759e-14
8.03584e-15
4.14941e-15
1.55846e-15
4.24916e-16
-5.46691e-16
-2.22822e-16
-2.22822e-16
7.48785e-16
4.24916e-16
-6.08874e-17
-5.46691e-16
-6.08874e-17
-8.7056e-16
3.83113e-09
2.28393e-09
1.33822e-09
7.70284e-10
4.35381e-10
2.41564e-10
1.31533e-10
7.02766e-11
3.68407e-11
1.895e-11
9.56606e-12
4.74057e-12
2.30572e-12
1.10126e-12
5.16672e-13
2.37497e-13
1.07464e-13
4.81956e-14
2.18003e-14
8.84551e-15
2.85393e-15
1.07265e-15
1.01047e-16
-6.08874e-17
-6.08874e-17
-6.08874e-17
-6.08874e-17
-6.08874e-17
-6.08874e-17
-6.08874e-17
-6.08874e-17
-6.08874e-17
1.01047e-16