/*--------------------------------*- C++ -*----------------------------------*\
| =========                 |                                                 |
| \\      /  F ield         | OpenFOAM: The Open Source CFD Toolbox           |
|  \\    /   O peration     | Version:  2312                                  |
|   \\  /    A nd           | Website:  www.openfoam.com                      |
|    \\/     M anipulation  |                                                 |
\*---------------------------------------------------------------------------*/
FoamFile
{
    version     2.0;
    format      ascii;
    arch        "LSB;label=32;scalar=64";
    class       volVectorField;
    location    "0.3";
    object      D_0_0;
}
// * * * * * * * * * * * * * * * * * * * * * * * * * * * * * * * * * * * * * //

dimensions      [0 1 0 0 0 0 0];

internalField   nonuniform List<vector> 
12960
(
(7.86113e-05 -0.000101788 7.30627e-06)
(8.71836e-05 -9.45494e-05 7.30628e-06)
(9.50924e-05 -8.65912e-05 7.30629e-06)
(0.000102277 -7.79736e-05 7.30624e-06)
(0.000108684 -6.8763e-05 7.30625e-06)
(0.000114263 -5.90287e-05 7.30628e-06)
(0.000118973 -4.88454e-05 7.30629e-06)
(0.000122778 -3.82904e-05 7.30619e-06)
(0.000125648 -2.74438e-05 7.30615e-06)
(0.000127562 -1.63885e-05 7.30622e-06)
(0.000128505 -5.20844e-06 7.30627e-06)
(0.000128469 6.01137e-06 7.30631e-06)
(0.000127456 1.71853e-05 7.30634e-06)
(0.000125474 2.82285e-05 7.30636e-06)
(0.000122536 3.90569e-05 7.3063e-06)
(0.000118666 4.9588e-05 7.30628e-06)
(0.000113892 5.97417e-05 7.30626e-06)
(0.000108252 6.94408e-05 7.30623e-06)
(0.000101788 7.86113e-05 7.30627e-06)
(9.45494e-05 8.71836e-05 7.30628e-06)
(8.65912e-05 9.50924e-05 7.30629e-06)
(7.79736e-05 0.000102277 7.30624e-06)
(6.8763e-05 0.000108684 7.30625e-06)
(5.90287e-05 0.000114263 7.30628e-06)
(4.88454e-05 0.000118973 7.30629e-06)
(3.82904e-05 0.000122778 7.30619e-06)
(2.74438e-05 0.000125648 7.30615e-06)
(1.63885e-05 0.000127562 7.30622e-06)
(5.20844e-06 0.000128505 7.30627e-06)
(-6.01137e-06 0.000128469 7.30631e-06)
(-1.71853e-05 0.000127456 7.30634e-06)
(-2.82285e-05 0.000125474 7.30636e-06)
(-3.90569e-05 0.000122536 7.3063e-06)
(-4.9588e-05 0.000118666 7.30628e-06)
(-5.97417e-05 0.000113892 7.30626e-06)
(-6.94408e-05 0.000108252 7.30623e-06)
(-7.86113e-05 0.000101788 7.30627e-06)
(-8.71836e-05 9.45494e-05 7.30628e-06)
(-9.50924e-05 8.65912e-05 7.30629e-06)
(-0.000102277 7.79736e-05 7.30624e-06)
(-0.000108684 6.8763e-05 7.30625e-06)
(-0.000114263 5.90287e-05 7.30628e-06)
(-0.000118973 4.88454e-05 7.30629e-06)
(-0.000122778 3.82904e-05 7.30619e-06)
(-0.000125648 2.74438e-05 7.30615e-06)
(-0.000127562 1.63885e-05 7.30622e-06)
(-0.000128505 5.20844e-06 7.30627e-06)
(-0.000128469 -6.01137e-06 7.30631e-06)
(-0.000127456 -1.71853e-05 7.30634e-06)
(-0.000125474 -2.82285e-05 7.30636e-06)
(-0.000122536 -3.90569e-05 7.3063e-06)
(-0.000118666 -4.9588e-05 7.30628e-06)
(-0.000113892 -5.97417e-05 7.30626e-06)
(-0.000108252 -6.94408e-05 7.30623e-06)
(-0.000101788 -7.86113e-05 7.30627e-06)
(-9.45494e-05 -8.71836e-05 7.30628e-06)
(-8.65912e-05 -9.50924e-05 7.30629e-06)
(-7.79736e-05 -0.000102277 7.30624e-06)
(-6.8763e-05 -0.000108684 7.30625e-06)
(-5.90287e-05 -0.000114263 7.30628e-06)
(-4.88454e-05 -0.000118973 7.30629e-06)
(-3.82904e-05 -0.000122778 7.30619e-06)
(-2.74438e-05 -0.000125648 7.30615e-06)
(-1.63885e-05 -0.000127562 7.30622e-06)
(-5.20844e-06 -0.000128505 7.30627e-06)
(6.01137e-06 -0.000128469 7.30631e-06)
(1.71853e-05 -0.000127456 7.30634e-06)
(2.82285e-05 -0.000125474 7.30636e-06)
(3.90569e-05 -0.000122536 7.3063e-06)
(4.9588e-05 -0.000118666 7.30628e-06)
(5.97417e-05 -0.000113892 7.30626e-06)
(6.94408e-05 -0.000108252 7.30623e-06)
(6.95526e-05 -0.00010883 1.08012e-05)
(7.87729e-05 -0.000102354 1.08012e-05)
(8.7394e-05 -9.50991e-05 1.08012e-05)
(9.53501e-05 -8.71204e-05 1.08012e-05)
(0.00010258 -7.84785e-05 1.08012e-05)
(0.00010903 -6.92396e-05 1.08012e-05)
(0.00011465 -5.94736e-05 1.08012e-05)
(0.000119397 -4.92548e-05 1.08012e-05)
(0.000123235 -3.86612e-05 1.08011e-05)
(0.000126136 -2.77735e-05 1.08012e-05)
(0.000128077 -1.66744e-05 1.08012e-05)
(0.000129042 -5.44823e-06 1.08012e-05)
(0.000129026 5.81924e-06 1.08012e-05)
(0.000128028 1.70424e-05 1.08012e-05)
(0.000126055 2.8136e-05 1.08012e-05)
(0.000123123 3.90153e-05 1.08012e-05)
(0.000119254 4.95977e-05 1.08012e-05)
(0.000114478 5.98027e-05 1.08012e-05)
(0.00010883 6.95526e-05 1.08012e-05)
(0.000102354 7.87729e-05 1.08012e-05)
(9.50991e-05 8.7394e-05 1.08012e-05)
(8.71204e-05 9.53501e-05 1.08012e-05)
(7.84785e-05 0.00010258 1.08012e-05)
(6.92396e-05 0.00010903 1.08012e-05)
(5.94736e-05 0.00011465 1.08012e-05)
(4.92548e-05 0.000119397 1.08012e-05)
(3.86612e-05 0.000123235 1.08011e-05)
(2.77735e-05 0.000126136 1.08012e-05)
(1.66744e-05 0.000128077 1.08012e-05)
(5.44823e-06 0.000129042 1.08012e-05)
(-5.81924e-06 0.000129026 1.08012e-05)
(-1.70424e-05 0.000128028 1.08012e-05)
(-2.8136e-05 0.000126055 1.08012e-05)
(-3.90153e-05 0.000123123 1.08012e-05)
(-4.95977e-05 0.000119254 1.08012e-05)
(-5.98027e-05 0.000114478 1.08012e-05)
(-6.95526e-05 0.00010883 1.08012e-05)
(-7.87729e-05 0.000102354 1.08012e-05)
(-8.7394e-05 9.50991e-05 1.08012e-05)
(-9.53501e-05 8.71204e-05 1.08012e-05)
(-0.00010258 7.84785e-05 1.08012e-05)
(-0.00010903 6.92396e-05 1.08012e-05)
(-0.00011465 5.94736e-05 1.08012e-05)
(-0.000119397 4.92548e-05 1.08012e-05)
(-0.000123235 3.86612e-05 1.08011e-05)
(-0.000126136 2.77735e-05 1.08012e-05)
(-0.000128077 1.66744e-05 1.08012e-05)
(-0.000129042 5.44823e-06 1.08012e-05)
(-0.000129026 -5.81924e-06 1.08012e-05)
(-0.000128028 -1.70424e-05 1.08012e-05)
(-0.000126055 -2.8136e-05 1.08012e-05)
(-0.000123123 -3.90153e-05 1.08012e-05)
(-0.000119254 -4.95977e-05 1.08012e-05)
(-0.000114478 -5.98027e-05 1.08012e-05)
(-0.00010883 -6.95526e-05 1.08012e-05)
(-0.000102354 -7.87729e-05 1.08012e-05)
(-9.50991e-05 -8.7394e-05 1.08012e-05)
(-8.71204e-05 -9.53501e-05 1.08012e-05)
(-7.84785e-05 -0.00010258 1.08012e-05)
(-6.92396e-05 -0.00010903 1.08012e-05)
(-5.94736e-05 -0.00011465 1.08012e-05)
(-4.92548e-05 -0.000119397 1.08012e-05)
(-3.86612e-05 -0.000123235 1.08011e-05)
(-2.77735e-05 -0.000126136 1.08012e-05)
(-1.66744e-05 -0.000128077 1.08012e-05)
(-5.44823e-06 -0.000129042 1.08012e-05)
(5.81924e-06 -0.000129026 1.08012e-05)
(1.70424e-05 -0.000128028 1.08012e-05)
(2.8136e-05 -0.000126055 1.08012e-05)
(3.90153e-05 -0.000123123 1.08012e-05)
(4.95977e-05 -0.000119254 1.08012e-05)
(5.98027e-05 -0.000114478 1.08012e-05)
(5.83907e-05 -0.000115613 1.23684e-05)
(6.82449e-05 -0.000110084 1.23684e-05)
(7.75796e-05 -0.000103717 1.23684e-05)
(8.63238e-05 -9.65606e-05 1.23684e-05)
(9.44114e-05 -8.86698e-05 1.23685e-05)
(0.00010178 -8.01037e-05 1.23684e-05)
(0.000108374 -7.09281e-05 1.23684e-05)
(0.000114144 -6.12129e-05 1.23684e-05)
(0.000119044 -5.10317e-05 1.23684e-05)
(0.000123039 -4.04621e-05 1.23684e-05)
(0.000126097 -2.95846e-05 1.23684e-05)
(0.000128196 -1.84819e-05 1.23684e-05)
(0.000129319 -7.23857e-06 1.23684e-05)
(0.000129458 4.05989e-06 1.23684e-05)
(0.000128611 1.53274e-05 1.23684e-05)
(0.000126786 2.64783e-05 1.23684e-05)
(0.000123996 3.74277e-05 1.23684e-05)
(0.000120262 4.80922e-05 1.23684e-05)
(0.000115613 5.83907e-05 1.23684e-05)
(0.000110084 6.82449e-05 1.23684e-05)
(0.000103717 7.75796e-05 1.23684e-05)
(9.65606e-05 8.63238e-05 1.23684e-05)
(8.86698e-05 9.44114e-05 1.23685e-05)
(8.01037e-05 0.00010178 1.23684e-05)
(7.09281e-05 0.000108374 1.23684e-05)
(6.12129e-05 0.000114144 1.23684e-05)
(5.10317e-05 0.000119044 1.23684e-05)
(4.04621e-05 0.000123039 1.23684e-05)
(2.95846e-05 0.000126097 1.23684e-05)
(1.84819e-05 0.000128196 1.23684e-05)
(7.23857e-06 0.000129319 1.23684e-05)
(-4.05989e-06 0.000129458 1.23684e-05)
(-1.53274e-05 0.000128611 1.23684e-05)
(-2.64783e-05 0.000126786 1.23684e-05)
(-3.74277e-05 0.000123996 1.23684e-05)
(-4.80922e-05 0.000120262 1.23684e-05)
(-5.83907e-05 0.000115613 1.23684e-05)
(-6.82449e-05 0.000110084 1.23684e-05)
(-7.75796e-05 0.000103717 1.23684e-05)
(-8.63238e-05 9.65606e-05 1.23684e-05)
(-9.44114e-05 8.86698e-05 1.23685e-05)
(-0.00010178 8.01037e-05 1.23684e-05)
(-0.000108374 7.09281e-05 1.23684e-05)
(-0.000114144 6.12129e-05 1.23684e-05)
(-0.000119044 5.10317e-05 1.23684e-05)
(-0.000123039 4.04621e-05 1.23684e-05)
(-0.000126097 2.95846e-05 1.23684e-05)
(-0.000128196 1.84819e-05 1.23684e-05)
(-0.000129319 7.23857e-06 1.23684e-05)
(-0.000129458 -4.05989e-06 1.23684e-05)
(-0.000128611 -1.53274e-05 1.23684e-05)
(-0.000126786 -2.64783e-05 1.23684e-05)
(-0.000123996 -3.74277e-05 1.23684e-05)
(-0.000120262 -4.80922e-05 1.23684e-05)
(-0.000115613 -5.83907e-05 1.23684e-05)
(-0.000110084 -6.82449e-05 1.23684e-05)
(-0.000103717 -7.75796e-05 1.23684e-05)
(-9.65606e-05 -8.63238e-05 1.23684e-05)
(-8.86698e-05 -9.44114e-05 1.23685e-05)
(-8.01037e-05 -0.00010178 1.23684e-05)
(-7.09281e-05 -0.000108374 1.23684e-05)
(-6.12129e-05 -0.000114144 1.23684e-05)
(-5.10317e-05 -0.000119044 1.23684e-05)
(-4.04621e-05 -0.000123039 1.23684e-05)
(-2.95846e-05 -0.000126097 1.23684e-05)
(-1.84819e-05 -0.000128196 1.23684e-05)
(-7.23857e-06 -0.000129319 1.23684e-05)
(4.05989e-06 -0.000129458 1.23684e-05)
(1.53274e-05 -0.000128611 1.23684e-05)
(2.64783e-05 -0.000126786 1.23684e-05)
(3.74277e-05 -0.000123996 1.23684e-05)
(4.80922e-05 -0.000120262 1.23684e-05)
(4.48134e-05 -0.00012146 1.33568e-05)
(5.52288e-05 -0.000117092 1.33568e-05)
(6.52241e-05 -0.000111833 1.33568e-05)
(7.47224e-05 -0.000105723 1.33568e-05)
(8.36524e-05 -9.88078e-05 1.33568e-05)
(9.19459e-05 -9.11413e-05 1.33568e-05)
(9.95394e-05 -8.27808e-05 1.33568e-05)
(0.000106376 -7.37905e-05 1.33568e-05)
(0.000112402 -6.42385e-05 1.33568e-05)
(0.000117573 -5.41976e-05 1.33568e-05)
(0.000121849 -4.37441e-05 1.33568e-05)
(0.000125198 -3.29577e-05 1.33568e-05)
(0.000127594 -2.19206e-05 1.33568e-05)
(0.000129019 -1.07165e-05 1.33568e-05)
(0.000129462 5.68967e-07 1.33568e-05)
(0.00012892 1.18502e-05 1.33568e-05)
(0.000127397 2.30412e-05 1.33568e-05)
(0.000124904 3.40569e-05 1.33568e-05)
(0.00012146 4.48134e-05 1.33568e-05)
(0.000117092 5.52288e-05 1.33568e-05)
(0.000111833 6.52241e-05 1.33568e-05)
(0.000105723 7.47224e-05 1.33568e-05)
(9.88078e-05 8.36524e-05 1.33568e-05)
(9.11413e-05 9.19459e-05 1.33568e-05)
(8.27808e-05 9.95394e-05 1.33568e-05)
(7.37905e-05 0.000106376 1.33568e-05)
(6.42385e-05 0.000112402 1.33568e-05)
(5.41976e-05 0.000117573 1.33568e-05)
(4.37441e-05 0.000121849 1.33568e-05)
(3.29577e-05 0.000125198 1.33568e-05)
(2.19206e-05 0.000127594 1.33568e-05)
(1.07165e-05 0.000129019 1.33568e-05)
(-5.68967e-07 0.000129462 1.33568e-05)
(-1.18502e-05 0.00012892 1.33568e-05)
(-2.30412e-05 0.000127397 1.33568e-05)
(-3.40569e-05 0.000124904 1.33568e-05)
(-4.48134e-05 0.00012146 1.33568e-05)
(-5.52288e-05 0.000117092 1.33568e-05)
(-6.52241e-05 0.000111833 1.33568e-05)
(-7.47224e-05 0.000105723 1.33568e-05)
(-8.36524e-05 9.88078e-05 1.33568e-05)
(-9.19459e-05 9.11413e-05 1.33568e-05)
(-9.95394e-05 8.27808e-05 1.33568e-05)
(-0.000106376 7.37905e-05 1.33568e-05)
(-0.000112402 6.42385e-05 1.33568e-05)
(-0.000117573 5.41976e-05 1.33568e-05)
(-0.000121849 4.37441e-05 1.33568e-05)
(-0.000125198 3.29577e-05 1.33568e-05)
(-0.000127594 2.19206e-05 1.33568e-05)
(-0.000129019 1.07165e-05 1.33568e-05)
(-0.000129462 -5.68967e-07 1.33568e-05)
(-0.00012892 -1.18502e-05 1.33568e-05)
(-0.000127397 -2.30412e-05 1.33568e-05)
(-0.000124904 -3.40569e-05 1.33568e-05)
(-0.00012146 -4.48134e-05 1.33568e-05)
(-0.000117092 -5.52288e-05 1.33568e-05)
(-0.000111833 -6.52241e-05 1.33568e-05)
(-0.000105723 -7.47224e-05 1.33568e-05)
(-9.88078e-05 -8.36524e-05 1.33568e-05)
(-9.11413e-05 -9.19459e-05 1.33568e-05)
(-8.27808e-05 -9.95394e-05 1.33568e-05)
(-7.37905e-05 -0.000106376 1.33568e-05)
(-6.42385e-05 -0.000112402 1.33568e-05)
(-5.41976e-05 -0.000117573 1.33568e-05)
(-4.37441e-05 -0.000121849 1.33568e-05)
(-3.29577e-05 -0.000125198 1.33568e-05)
(-2.19206e-05 -0.000127594 1.33568e-05)
(-1.07165e-05 -0.000129019 1.33568e-05)
(5.68967e-07 -0.000129462 1.33568e-05)
(1.18502e-05 -0.00012892 1.33568e-05)
(2.30412e-05 -0.000127397 1.33568e-05)
(3.40569e-05 -0.000124904 1.33568e-05)
(2.78241e-05 -0.000125989 1.5177e-05)
(3.86989e-05 -0.000123084 1.51771e-05)
(4.92789e-05 -0.000119243 1.5177e-05)
(5.94842e-05 -0.000114494 1.51771e-05)
(6.92366e-05 -0.000108874 1.51771e-05)
(7.84621e-05 -0.000102426 1.5177e-05)
(8.70903e-05 -9.51971e-05 1.5177e-05)
(9.5056e-05 -8.72444e-05 1.5177e-05)
(0.000102299 -7.86283e-05 1.5177e-05)
(0.000108762 -6.94132e-05 1.51771e-05)
(0.000114398 -5.96694e-05 1.5177e-05)
(0.000119163 -4.94719e-05 1.5177e-05)
(0.000123021 -3.8898e-05 1.5177e-05)
(0.000125943 -2.8028e-05 1.5177e-05)
(0.000127907 -1.69447e-05 1.5177e-05)
(0.000128897 -5.73242e-06 1.5177e-05)
(0.000128906 5.5236e-06 1.51771e-05)
(0.000127934 1.67375e-05 1.5177e-05)
(0.000125989 2.78241e-05 1.5177e-05)
(0.000123084 3.86989e-05 1.51771e-05)
(0.000119243 4.92789e-05 1.5177e-05)
(0.000114494 5.94842e-05 1.51771e-05)
(0.000108874 6.92366e-05 1.51771e-05)
(0.000102426 7.84621e-05 1.5177e-05)
(9.51971e-05 8.70903e-05 1.5177e-05)
(8.72444e-05 9.5056e-05 1.5177e-05)
(7.86283e-05 0.000102299 1.5177e-05)
(6.94132e-05 0.000108762 1.51771e-05)
(5.96694e-05 0.000114398 1.5177e-05)
(4.94719e-05 0.000119163 1.5177e-05)
(3.8898e-05 0.000123021 1.5177e-05)
(2.8028e-05 0.000125943 1.5177e-05)
(1.69447e-05 0.000127907 1.5177e-05)
(5.73242e-06 0.000128897 1.5177e-05)
(-5.5236e-06 0.000128906 1.51771e-05)
(-1.67375e-05 0.000127934 1.5177e-05)
(-2.78241e-05 0.000125989 1.5177e-05)
(-3.86989e-05 0.000123084 1.51771e-05)
(-4.92789e-05 0.000119243 1.5177e-05)
(-5.94842e-05 0.000114494 1.51771e-05)
(-6.92366e-05 0.000108874 1.51771e-05)
(-7.84621e-05 0.000102426 1.5177e-05)
(-8.70903e-05 9.51971e-05 1.5177e-05)
(-9.5056e-05 8.72444e-05 1.5177e-05)
(-0.000102299 7.86283e-05 1.5177e-05)
(-0.000108762 6.94132e-05 1.51771e-05)
(-0.000114398 5.96694e-05 1.5177e-05)
(-0.000119163 4.94719e-05 1.5177e-05)
(-0.000123021 3.8898e-05 1.5177e-05)
(-0.000125943 2.8028e-05 1.5177e-05)
(-0.000127907 1.69447e-05 1.5177e-05)
(-0.000128897 5.73242e-06 1.5177e-05)
(-0.000128906 -5.5236e-06 1.51771e-05)
(-0.000127934 -1.67375e-05 1.5177e-05)
(-0.000125989 -2.78241e-05 1.5177e-05)
(-0.000123084 -3.86989e-05 1.51771e-05)
(-0.000119243 -4.92789e-05 1.5177e-05)
(-0.000114494 -5.94842e-05 1.51771e-05)
(-0.000108874 -6.92366e-05 1.51771e-05)
(-0.000102426 -7.84621e-05 1.5177e-05)
(-9.51971e-05 -8.70903e-05 1.5177e-05)
(-8.72444e-05 -9.5056e-05 1.5177e-05)
(-7.86283e-05 -0.000102299 1.5177e-05)
(-6.94132e-05 -0.000108762 1.51771e-05)
(-5.96694e-05 -0.000114398 1.5177e-05)
(-4.94719e-05 -0.000119163 1.5177e-05)
(-3.8898e-05 -0.000123021 1.5177e-05)
(-2.8028e-05 -0.000125943 1.5177e-05)
(-1.69447e-05 -0.000127907 1.5177e-05)
(-5.73242e-06 -0.000128897 1.5177e-05)
(5.5236e-06 -0.000128906 1.51771e-05)
(1.67375e-05 -0.000127934 1.5177e-05)
(2.8805e-06 -0.000129747 1.70254e-05)
(1.41777e-05 -0.000129002 1.70254e-05)
(2.53669e-05 -0.000127275 1.70254e-05)
(3.63635e-05 -0.000124581 1.70255e-05)
(4.70831e-05 -0.000120937 1.70255e-05)
(5.74442e-05 -0.000116373 1.70255e-05)
(6.73681e-05 -0.000110924 1.70254e-05)
(7.67791e-05 -0.00010463 1.70254e-05)
(8.56062e-05 -9.75402e-05 1.70255e-05)
(9.37817e-05 -8.9708e-05 1.70255e-05)
(0.000101243 -8.11928e-05 1.70255e-05)
(0.000107935 -7.206e-05 1.70255e-05)
(0.000113804 -6.23787e-05 1.70253e-05)
(0.000118808 -5.22227e-05 1.70253e-05)
(0.000122908 -4.16694e-05 1.70254e-05)
(0.000126071 -3.07986e-05 1.70254e-05)
(0.000128275 -1.96935e-05 1.70254e-05)
(0.000129504 -8.43859e-06 1.70255e-05)
(0.000129747 2.8805e-06 1.70254e-05)
(0.000129002 1.41777e-05 1.70254e-05)
(0.000127275 2.53669e-05 1.70254e-05)
(0.000124581 3.63635e-05 1.70255e-05)
(0.000120937 4.70831e-05 1.70255e-05)
(0.000116373 5.74442e-05 1.70255e-05)
(0.000110924 6.73681e-05 1.70254e-05)
(0.00010463 7.67791e-05 1.70254e-05)
(9.75402e-05 8.56062e-05 1.70255e-05)
(8.9708e-05 9.37817e-05 1.70255e-05)
(8.11928e-05 0.000101243 1.70255e-05)
(7.206e-05 0.000107935 1.70255e-05)
(6.23787e-05 0.000113804 1.70253e-05)
(5.22227e-05 0.000118808 1.70253e-05)
(4.16694e-05 0.000122908 1.70254e-05)
(3.07986e-05 0.000126071 1.70254e-05)
(1.96935e-05 0.000128275 1.70254e-05)
(8.43859e-06 0.000129504 1.70255e-05)
(-2.8805e-06 0.000129747 1.70254e-05)
(-1.41777e-05 0.000129002 1.70254e-05)
(-2.53669e-05 0.000127275 1.70254e-05)
(-3.63635e-05 0.000124581 1.70255e-05)
(-4.70831e-05 0.000120937 1.70255e-05)
(-5.74442e-05 0.000116373 1.70255e-05)
(-6.73681e-05 0.000110924 1.70254e-05)
(-7.67791e-05 0.00010463 1.70254e-05)
(-8.56062e-05 9.75402e-05 1.70255e-05)
(-9.37817e-05 8.9708e-05 1.70255e-05)
(-0.000101243 8.11928e-05 1.70255e-05)
(-0.000107935 7.206e-05 1.70255e-05)
(-0.000113804 6.23787e-05 1.70253e-05)
(-0.000118808 5.22227e-05 1.70253e-05)
(-0.000122908 4.16694e-05 1.70254e-05)
(-0.000126071 3.07986e-05 1.70254e-05)
(-0.000128275 1.96935e-05 1.70254e-05)
(-0.000129504 8.43859e-06 1.70255e-05)
(-0.000129747 -2.88049e-06 1.70254e-05)
(-0.000129002 -1.41777e-05 1.70254e-05)
(-0.000127275 -2.53669e-05 1.70254e-05)
(-0.000124581 -3.63635e-05 1.70255e-05)
(-0.000120937 -4.70831e-05 1.70255e-05)
(-0.000116373 -5.74442e-05 1.70255e-05)
(-0.000110924 -6.73681e-05 1.70254e-05)
(-0.00010463 -7.67791e-05 1.70254e-05)
(-9.75402e-05 -8.56062e-05 1.70255e-05)
(-8.9708e-05 -9.37817e-05 1.70255e-05)
(-8.11928e-05 -0.000101243 1.70255e-05)
(-7.206e-05 -0.000107935 1.70255e-05)
(-6.23787e-05 -0.000113804 1.70253e-05)
(-5.22227e-05 -0.000118808 1.70253e-05)
(-4.16694e-05 -0.000122908 1.70254e-05)
(-3.07986e-05 -0.000126071 1.70254e-05)
(-1.96935e-05 -0.000128275 1.70254e-05)
(-8.43859e-06 -0.000129504 1.70255e-05)
(0.000203567 -0.000308575 3.45973e-05)
(0.000229686 -0.000289659 3.45973e-05)
(0.000254058 -0.000268538 3.45974e-05)
(0.000276495 -0.000245373 3.45973e-05)
(0.000296829 -0.000220342 3.45973e-05)
(0.000314904 -0.000193633 3.45973e-05)
(0.000330581 -0.00016545 3.45973e-05)
(0.000343743 -0.000136009 3.45972e-05)
(0.00035429 -0.000105532 3.45971e-05)
(0.000362139 -7.4252e-05 3.45972e-05)
(0.000367232 -4.24069e-05 3.45973e-05)
(0.00036953 -1.02391e-05 3.45974e-05)
(0.000369017 2.20065e-05 3.45974e-05)
(0.000365694 5.40847e-05 3.45975e-05)
(0.000359589 8.57513e-05 3.45975e-05)
(0.000350747 0.000116765 3.45974e-05)
(0.000339236 0.000146891 3.45973e-05)
(0.000325142 0.000175898 3.45973e-05)
(0.000308575 0.000203567 3.45973e-05)
(0.000289659 0.000229686 3.45973e-05)
(0.000268538 0.000254058 3.45974e-05)
(0.000245373 0.000276495 3.45973e-05)
(0.000220342 0.000296829 3.45973e-05)
(0.000193633 0.000314904 3.45973e-05)
(0.00016545 0.000330581 3.45973e-05)
(0.000136009 0.000343743 3.45972e-05)
(0.000105532 0.00035429 3.45971e-05)
(7.4252e-05 0.000362139 3.45972e-05)
(4.24069e-05 0.000367232 3.45973e-05)
(1.02391e-05 0.00036953 3.45974e-05)
(-2.20065e-05 0.000369017 3.45974e-05)
(-5.40847e-05 0.000365694 3.45975e-05)
(-8.57513e-05 0.000359589 3.45975e-05)
(-0.000116765 0.000350747 3.45974e-05)
(-0.000146891 0.000339236 3.45973e-05)
(-0.000175898 0.000325142 3.45973e-05)
(-0.000203567 0.000308575 3.45973e-05)
(-0.000229686 0.000289659 3.45973e-05)
(-0.000254058 0.000268538 3.45974e-05)
(-0.000276495 0.000245373 3.45973e-05)
(-0.000296829 0.000220342 3.45973e-05)
(-0.000314904 0.000193633 3.45973e-05)
(-0.000330581 0.00016545 3.45973e-05)
(-0.000343743 0.000136009 3.45972e-05)
(-0.00035429 0.000105532 3.45971e-05)
(-0.000362139 7.4252e-05 3.45972e-05)
(-0.000367232 4.24069e-05 3.45973e-05)
(-0.00036953 1.02391e-05 3.45974e-05)
(-0.000369017 -2.20065e-05 3.45974e-05)
(-0.000365694 -5.40847e-05 3.45975e-05)
(-0.000359589 -8.57513e-05 3.45975e-05)
(-0.000350747 -0.000116765 3.45974e-05)
(-0.000339236 -0.000146891 3.45973e-05)
(-0.000325142 -0.000175898 3.45973e-05)
(-0.000308575 -0.000203567 3.45973e-05)
(-0.000289659 -0.000229686 3.45973e-05)
(-0.000268538 -0.000254058 3.45974e-05)
(-0.000245373 -0.000276495 3.45973e-05)
(-0.000220342 -0.000296829 3.45973e-05)
(-0.000193633 -0.000314904 3.45973e-05)
(-0.00016545 -0.000330581 3.45973e-05)
(-0.000136009 -0.000343743 3.45972e-05)
(-0.000105532 -0.00035429 3.45971e-05)
(-7.4252e-05 -0.000362139 3.45972e-05)
(-4.24069e-05 -0.000367232 3.45973e-05)
(-1.02391e-05 -0.00036953 3.45974e-05)
(2.20065e-05 -0.000369017 3.45974e-05)
(5.40847e-05 -0.000365694 3.45975e-05)
(8.57513e-05 -0.000359589 3.45975e-05)
(0.000116765 -0.000350747 3.45974e-05)
(0.000146891 -0.000339236 3.45973e-05)
(0.000175898 -0.000325142 3.45973e-05)
(0.000184994 -0.000327271 4.84461e-05)
(0.000212814 -0.000309903 4.84461e-05)
(0.000239014 -0.000290175 4.84461e-05)
(0.000263394 -0.00026824 4.84461e-05)
(0.000285771 -0.000244263 4.8446e-05)
(0.000305972 -0.000218426 4.8446e-05)
(0.000323845 -0.000190928 4.84462e-05)
(0.000339253 -0.000161976 4.84461e-05)
(0.00035208 -0.000131792 4.84461e-05)
(0.000362226 -0.000100605 4.84461e-05)
(0.000369616 -6.86521e-05 4.84461e-05)
(0.000374193 -3.61766e-05 4.84462e-05)
(0.000375922 -3.42605e-06 4.84461e-05)
(0.00037479 2.93509e-05 4.84462e-05)
(0.000370805 6.19042e-05 4.84462e-05)
(0.000363999 9.39865e-05 4.84462e-05)
(0.000354423 0.000125354 4.84461e-05)
(0.000342149 0.000155767 4.84461e-05)
(0.000327271 0.000184994 4.84461e-05)
(0.000309903 0.000212814 4.84461e-05)
(0.000290175 0.000239014 4.84461e-05)
(0.00026824 0.000263394 4.84461e-05)
(0.000244263 0.000285771 4.8446e-05)
(0.000218426 0.000305972 4.8446e-05)
(0.000190928 0.000323845 4.84462e-05)
(0.000161976 0.000339253 4.84461e-05)
(0.000131792 0.00035208 4.84461e-05)
(0.000100605 0.000362226 4.84461e-05)
(6.86521e-05 0.000369616 4.84461e-05)
(3.61766e-05 0.000374193 4.84462e-05)
(3.42605e-06 0.000375922 4.84461e-05)
(-2.93509e-05 0.00037479 4.84462e-05)
(-6.19042e-05 0.000370805 4.84462e-05)
(-9.39865e-05 0.000363999 4.84462e-05)
(-0.000125354 0.000354423 4.84461e-05)
(-0.000155767 0.000342149 4.84461e-05)
(-0.000184994 0.000327271 4.84461e-05)
(-0.000212814 0.000309903 4.84461e-05)
(-0.000239014 0.000290175 4.84461e-05)
(-0.000263394 0.00026824 4.84461e-05)
(-0.000285771 0.000244263 4.8446e-05)
(-0.000305972 0.000218426 4.8446e-05)
(-0.000323845 0.000190928 4.84462e-05)
(-0.000339253 0.000161976 4.84461e-05)
(-0.00035208 0.000131792 4.84461e-05)
(-0.000362226 0.000100605 4.84461e-05)
(-0.000369616 6.86521e-05 4.84461e-05)
(-0.000374193 3.61766e-05 4.84462e-05)
(-0.000375922 3.42605e-06 4.84461e-05)
(-0.00037479 -2.93509e-05 4.84462e-05)
(-0.000370805 -6.19042e-05 4.84462e-05)
(-0.000363999 -9.39865e-05 4.84462e-05)
(-0.000354423 -0.000125354 4.84461e-05)
(-0.000342149 -0.000155767 4.84461e-05)
(-0.000327271 -0.000184994 4.84461e-05)
(-0.000309903 -0.000212814 4.84461e-05)
(-0.000290175 -0.000239014 4.84461e-05)
(-0.00026824 -0.000263394 4.84461e-05)
(-0.000244263 -0.000285771 4.8446e-05)
(-0.000218426 -0.000305972 4.8446e-05)
(-0.000190928 -0.000323845 4.84462e-05)
(-0.000161976 -0.000339253 4.84461e-05)
(-0.000131792 -0.00035208 4.84461e-05)
(-0.000100605 -0.000362226 4.84461e-05)
(-6.86521e-05 -0.000369616 4.84461e-05)
(-3.61766e-05 -0.000374193 4.84462e-05)
(-3.42605e-06 -0.000375922 4.84461e-05)
(2.93509e-05 -0.00037479 4.84462e-05)
(6.19042e-05 -0.000370805 4.84462e-05)
(9.39865e-05 -0.000363999 4.84462e-05)
(0.000125354 -0.000354423 4.84461e-05)
(0.000155767 -0.000342149 4.84461e-05)
(0.000160081 -0.000345457 5.84933e-05)
(0.000189581 -0.000330191 5.84934e-05)
(0.000217637 -0.000312411 5.84934e-05)
(0.000244038 -0.000292254 5.84935e-05)
(0.000268581 -0.000269873 5.84934e-05)
(0.00029108 -0.000245438 5.84935e-05)
(0.000311363 -0.000219135 5.84936e-05)
(0.000329277 -0.000191163 5.84935e-05)
(0.000344685 -0.000161738 5.84935e-05)
(0.00035747 -0.000131081 5.84935e-05)
(0.000367534 -9.94265e-05 5.84935e-05)
(0.000374801 -6.70156e-05 5.84936e-05)
(0.000379216 -3.40944e-05 5.84936e-05)
(0.000380744 -9.13762e-07 5.84934e-05)
(0.000379375 3.22735e-05 5.84935e-05)
(0.000375118 6.52157e-05 5.84935e-05)
(0.000368007 9.76613e-05 5.84934e-05)
(0.000358095 0.000129364 5.84934e-05)
(0.000345457 0.000160081 5.84933e-05)
(0.000330191 0.000189581 5.84934e-05)
(0.000312411 0.000217637 5.84934e-05)
(0.000292254 0.000244038 5.84935e-05)
(0.000269873 0.000268581 5.84934e-05)
(0.000245438 0.00029108 5.84935e-05)
(0.000219135 0.000311363 5.84936e-05)
(0.000191163 0.000329277 5.84935e-05)
(0.000161738 0.000344685 5.84935e-05)
(0.000131081 0.00035747 5.84935e-05)
(9.94265e-05 0.000367534 5.84935e-05)
(6.70156e-05 0.000374801 5.84936e-05)
(3.40944e-05 0.000379216 5.84936e-05)
(9.13762e-07 0.000380744 5.84934e-05)
(-3.22735e-05 0.000379375 5.84935e-05)
(-6.52157e-05 0.000375118 5.84935e-05)
(-9.76613e-05 0.000368007 5.84934e-05)
(-0.000129364 0.000358095 5.84934e-05)
(-0.000160081 0.000345457 5.84933e-05)
(-0.000189581 0.000330191 5.84934e-05)
(-0.000217637 0.000312411 5.84934e-05)
(-0.000244038 0.000292254 5.84935e-05)
(-0.000268581 0.000269873 5.84934e-05)
(-0.00029108 0.000245438 5.84935e-05)
(-0.000311363 0.000219135 5.84936e-05)
(-0.000329277 0.000191163 5.84935e-05)
(-0.000344685 0.000161738 5.84935e-05)
(-0.00035747 0.000131081 5.84935e-05)
(-0.000367534 9.94265e-05 5.84935e-05)
(-0.000374801 6.70156e-05 5.84936e-05)
(-0.000379216 3.40944e-05 5.84936e-05)
(-0.000380744 9.13763e-07 5.84934e-05)
(-0.000379375 -3.22735e-05 5.84935e-05)
(-0.000375118 -6.52157e-05 5.84935e-05)
(-0.000368007 -9.76613e-05 5.84934e-05)
(-0.000358095 -0.000129364 5.84934e-05)
(-0.000345457 -0.000160081 5.84933e-05)
(-0.000330191 -0.000189581 5.84934e-05)
(-0.000312411 -0.000217637 5.84934e-05)
(-0.000292254 -0.000244038 5.84935e-05)
(-0.000269873 -0.000268581 5.84934e-05)
(-0.000245438 -0.00029108 5.84935e-05)
(-0.000219135 -0.000311363 5.84936e-05)
(-0.000191163 -0.000329277 5.84935e-05)
(-0.000161738 -0.000344685 5.84935e-05)
(-0.000131081 -0.00035747 5.84935e-05)
(-9.94265e-05 -0.000367534 5.84935e-05)
(-6.70156e-05 -0.000374801 5.84936e-05)
(-3.40944e-05 -0.000379216 5.84936e-05)
(-9.13763e-07 -0.000380744 5.84934e-05)
(3.22735e-05 -0.000379375 5.84935e-05)
(6.52157e-05 -0.000375118 5.84935e-05)
(9.76613e-05 -0.000368007 5.84934e-05)
(0.000129364 -0.000358095 5.84934e-05)
(0.000130155 -0.000361622 6.62276e-05)
(0.000161177 -0.000348902 6.62277e-05)
(0.000190972 -0.000333527 6.62278e-05)
(0.000219314 -0.000315614 6.62278e-05)
(0.000245987 -0.000295298 6.62278e-05)
(0.000270788 -0.000272735 6.62278e-05)
(0.000293528 -0.000248097 6.62278e-05)
(0.000314034 -0.00022157 6.62279e-05)
(0.00033215 -0.000193357 6.62278e-05)
(0.000347739 -0.000163672 6.62277e-05)
(0.00036068 -0.000132742 6.62278e-05)
(0.000370877 -0.000100802 6.62278e-05)
(0.000378251 -6.80939e-05 6.62278e-05)
(0.000382746 -3.4868e-05 6.62278e-05)
(0.000384329 -1.37672e-06 6.62277e-05)
(0.000382986 3.21248e-05 6.62278e-05)
(0.000378729 6.53822e-05 6.62278e-05)
(0.00037159 9.81419e-05 6.62277e-05)
(0.000361622 0.000130155 6.62276e-05)
(0.000348902 0.000161177 6.62277e-05)
(0.000333527 0.000190972 6.62278e-05)
(0.000315614 0.000219314 6.62278e-05)
(0.000295298 0.000245987 6.62278e-05)
(0.000272735 0.000270788 6.62278e-05)
(0.000248097 0.000293528 6.62278e-05)
(0.00022157 0.000314034 6.62279e-05)
(0.000193357 0.00033215 6.62278e-05)
(0.000163672 0.000347739 6.62277e-05)
(0.000132742 0.00036068 6.62278e-05)
(0.000100802 0.000370877 6.62278e-05)
(6.80939e-05 0.000378251 6.62278e-05)
(3.4868e-05 0.000382746 6.62278e-05)
(1.37672e-06 0.000384329 6.62277e-05)
(-3.21248e-05 0.000382986 6.62278e-05)
(-6.53822e-05 0.000378729 6.62278e-05)
(-9.81419e-05 0.00037159 6.62277e-05)
(-0.000130155 0.000361622 6.62276e-05)
(-0.000161177 0.000348902 6.62277e-05)
(-0.000190972 0.000333527 6.62278e-05)
(-0.000219314 0.000315614 6.62278e-05)
(-0.000245987 0.000295298 6.62278e-05)
(-0.000270788 0.000272735 6.62278e-05)
(-0.000293528 0.000248097 6.62278e-05)
(-0.000314034 0.00022157 6.62279e-05)
(-0.00033215 0.000193357 6.62278e-05)
(-0.000347739 0.000163672 6.62277e-05)
(-0.00036068 0.000132742 6.62278e-05)
(-0.000370877 0.000100802 6.62278e-05)
(-0.000378251 6.80939e-05 6.62278e-05)
(-0.000382746 3.4868e-05 6.62278e-05)
(-0.000384329 1.37672e-06 6.62277e-05)
(-0.000382986 -3.21248e-05 6.62278e-05)
(-0.000378729 -6.53822e-05 6.62278e-05)
(-0.00037159 -9.81419e-05 6.62277e-05)
(-0.000361622 -0.000130155 6.62276e-05)
(-0.000348902 -0.000161177 6.62277e-05)
(-0.000333527 -0.000190972 6.62278e-05)
(-0.000315614 -0.000219314 6.62278e-05)
(-0.000295298 -0.000245987 6.62278e-05)
(-0.000272735 -0.000270788 6.62278e-05)
(-0.000248097 -0.000293528 6.62278e-05)
(-0.00022157 -0.000314034 6.62279e-05)
(-0.000193357 -0.00033215 6.62278e-05)
(-0.000163672 -0.000347739 6.62277e-05)
(-0.000132742 -0.00036068 6.62278e-05)
(-0.000100802 -0.000370877 6.62278e-05)
(-6.80939e-05 -0.000378251 6.62278e-05)
(-3.4868e-05 -0.000382746 6.62278e-05)
(-1.37672e-06 -0.000384329 6.62277e-05)
(3.21248e-05 -0.000382986 6.62278e-05)
(6.53822e-05 -0.000378729 6.62278e-05)
(9.81419e-05 -0.00037159 6.62277e-05)
(9.53412e-05 -0.000374672 7.39231e-05)
(0.000127633 -0.000364937 7.39231e-05)
(0.000158954 -0.000352425 7.39232e-05)
(0.000189065 -0.00033723 7.39232e-05)
(0.000217737 -0.000319468 7.39231e-05)
(0.000244752 -0.000299275 7.39231e-05)
(0.000269904 -0.000276805 7.39232e-05)
(0.000293002 -0.000252228 7.3923e-05)
(0.00031387 -0.000225731 7.39229e-05)
(0.000332349 -0.000197517 7.39229e-05)
(0.0003483 -0.000167799 7.3923e-05)
(0.000361599 -0.000136804 7.39232e-05)
(0.000372146 -0.000104768 7.3923e-05)
(0.000379861 -7.19347e-05 7.3923e-05)
(0.000384685 -3.85541e-05 7.3923e-05)
(0.000386582 -4.87995e-06 7.39231e-05)
(0.000385536 2.88314e-05 7.39231e-05)
(0.000381556 6.23235e-05 7.3923e-05)
(0.000374672 9.53412e-05 7.39231e-05)
(0.000364937 0.000127633 7.39231e-05)
(0.000352425 0.000158954 7.39232e-05)
(0.00033723 0.000189065 7.39232e-05)
(0.000319468 0.000217737 7.39231e-05)
(0.000299275 0.000244752 7.39231e-05)
(0.000276805 0.000269904 7.39232e-05)
(0.000252228 0.000293002 7.3923e-05)
(0.000225731 0.00031387 7.39229e-05)
(0.000197517 0.000332349 7.39229e-05)
(0.000167799 0.0003483 7.3923e-05)
(0.000136804 0.000361599 7.39232e-05)
(0.000104768 0.000372146 7.3923e-05)
(7.19347e-05 0.000379861 7.3923e-05)