/*--------------------------------*- C++ -*----------------------------------*\
| =========                 |                                                 |
| \\      /  F ield         | OpenFOAM: The Open Source CFD Toolbox           |
|  \\    /   O peration     | Version:  2312                                  |
|   \\  /    A nd           | Website:  www.openfoam.com                      |
|    \\/     M anipulation  |                                                 |
\*---------------------------------------------------------------------------*/
FoamFile
{
    version     2.0;
    format      ascii;
    arch        "LSB;label=32;scalar=64";
    class       volVectorField;
    location    "0.3";
    object      D_0_0_0;
}
// * * * * * * * * * * * * * * * * * * * * * * * * * * * * * * * * * * * * * //

dimensions      [0 1 0 0 0 0 0];

internalField   nonuniform List<vector> 
12960
(
(7.72552e-05 -0.000100313 7.41383e-06)
(8.57041e-05 -9.31985e-05 7.41384e-06)
(9.35008e-05 -8.53743e-05 7.41385e-06)
(0.000100586 -7.69e-05 7.4138e-06)
(0.000106905 -6.78409e-05 7.41381e-06)
(0.000112411 -5.82652e-05 7.41384e-06)
(0.000117062 -4.82463e-05 7.41385e-06)
(0.000120821 -3.78601e-05 7.41376e-06)
(0.000123661 -2.71858e-05 7.41372e-06)
(0.00012556 -1.63046e-05 7.41378e-06)
(0.000126503 -5.2993e-06 7.41383e-06)
(0.000126483 5.74642e-06 7.41387e-06)
(0.000125501 1.67483e-05 7.4139e-06)
(0.000123564 2.76228e-05 7.41391e-06)
(0.000120686 3.8287e-05 7.41386e-06)
(0.00011689 4.86598e-05 7.41384e-06)
(0.000112204 5.86623e-05 7.41382e-06)
(0.000106665 6.82184e-05 7.41379e-06)
(0.000100313 7.72552e-05 7.41383e-06)
(9.31985e-05 8.57041e-05 7.41384e-06)
(8.53743e-05 9.35008e-05 7.41385e-06)
(7.69e-05 0.000100586 7.4138e-06)
(6.78409e-05 0.000106905 7.41381e-06)
(5.82652e-05 0.000112411 7.41384e-06)
(4.82463e-05 0.000117062 7.41385e-06)
(3.78601e-05 0.000120821 7.41376e-06)
(2.71858e-05 0.000123661 7.41372e-06)
(1.63046e-05 0.00012556 7.41378e-06)
(5.2993e-06 0.000126503 7.41383e-06)
(-5.74642e-06 0.000126483 7.41387e-06)
(-1.67483e-05 0.000125501 7.4139e-06)
(-2.76228e-05 0.000123564 7.41391e-06)
(-3.8287e-05 0.000120686 7.41386e-06)
(-4.86598e-05 0.00011689 7.41384e-06)
(-5.86623e-05 0.000112204 7.41382e-06)
(-6.82184e-05 0.000106665 7.41379e-06)
(-7.72552e-05 0.000100313 7.41383e-06)
(-8.57041e-05 9.31985e-05 7.41384e-06)
(-9.35008e-05 8.53743e-05 7.41385e-06)
(-0.000100586 7.69e-05 7.4138e-06)
(-0.000106905 6.78409e-05 7.41381e-06)
(-0.000112411 5.82652e-05 7.41384e-06)
(-0.000117062 4.82463e-05 7.41385e-06)
(-0.000120821 3.78601e-05 7.41376e-06)
(-0.000123661 2.71858e-05 7.41372e-06)
(-0.00012556 1.63046e-05 7.41378e-06)
(-0.000126503 5.2993e-06 7.41383e-06)
(-0.000126483 -5.74642e-06 7.41387e-06)
(-0.000125501 -1.67483e-05 7.4139e-06)
(-0.000123564 -2.76228e-05 7.41391e-06)
(-0.000120686 -3.8287e-05 7.41386e-06)
(-0.00011689 -4.86598e-05 7.41384e-06)
(-0.000112204 -5.86623e-05 7.41382e-06)
(-0.000106665 -6.82184e-05 7.41379e-06)
(-0.000100313 -7.72552e-05 7.41383e-06)
(-9.31985e-05 -8.57041e-05 7.41384e-06)
(-8.53743e-05 -9.35008e-05 7.41385e-06)
(-7.69e-05 -0.000100586 7.4138e-06)
(-6.78409e-05 -0.000106905 7.41381e-06)
(-5.82652e-05 -0.000112411 7.41384e-06)
(-4.82463e-05 -0.000117062 7.41385e-06)
(-3.78601e-05 -0.000120821 7.41376e-06)
(-2.71858e-05 -0.000123661 7.41372e-06)
(-1.63046e-05 -0.00012556 7.41378e-06)
(-5.2993e-06 -0.000126503 7.41383e-06)
(5.74642e-06 -0.000126483 7.41387e-06)
(1.67483e-05 -0.000125501 7.4139e-06)
(2.76228e-05 -0.000123564 7.41391e-06)
(3.8287e-05 -0.000120686 7.41386e-06)
(4.86598e-05 -0.00011689 7.41384e-06)
(5.86623e-05 -0.000112204 7.41382e-06)
(6.82184e-05 -0.000106665 7.41379e-06)
(6.83065e-05 -0.000106937 1.05938e-05)
(7.73667e-05 -0.000100577 1.05938e-05)
(8.58383e-05 -9.34515e-05 1.05938e-05)
(9.36566e-05 -8.56147e-05 1.05939e-05)
(0.000100762 -7.7126e-05 1.05938e-05)
(0.000107101 -6.80507e-05 1.05938e-05)
(0.000112624 -5.84574e-05 1.05939e-05)
(0.000117291 -4.8419e-05 1.05938e-05)
(0.000121064 -3.80122e-05 1.05938e-05)
(0.000123916 -2.73162e-05 1.05938e-05)
(0.000125826 -1.64123e-05 1.05939e-05)
(0.000126777 -5.38327e-06 1.05939e-05)
(0.000126764 5.68654e-06 1.05939e-05)
(0.000125786 1.67131e-05 1.05939e-05)
(0.000123851 2.76124e-05 1.05939e-05)
(0.000120972 3.83016e-05 1.05938e-05)
(0.000117174 4.86993e-05 1.05938e-05)
(0.000112484 5.87264e-05 1.05938e-05)
(0.000106937 6.83065e-05 1.05938e-05)
(0.000100577 7.73667e-05 1.05938e-05)
(9.34515e-05 8.58383e-05 1.05938e-05)
(8.56147e-05 9.36566e-05 1.05939e-05)
(7.7126e-05 0.000100762 1.05938e-05)
(6.80507e-05 0.000107101 1.05938e-05)
(5.84574e-05 0.000112624 1.05939e-05)
(4.8419e-05 0.000117291 1.05938e-05)
(3.80122e-05 0.000121064 1.05938e-05)
(2.73162e-05 0.000123916 1.05938e-05)
(1.64123e-05 0.000125826 1.05939e-05)
(5.38327e-06 0.000126777 1.05939e-05)
(-5.68654e-06 0.000126764 1.05939e-05)
(-1.67131e-05 0.000125786 1.05939e-05)
(-2.76124e-05 0.000123851 1.05939e-05)
(-3.83016e-05 0.000120972 1.05938e-05)
(-4.86993e-05 0.000117174 1.05938e-05)
(-5.87264e-05 0.000112484 1.05938e-05)
(-6.83065e-05 0.000106937 1.05938e-05)
(-7.73667e-05 0.000100577 1.05938e-05)
(-8.58383e-05 9.34515e-05 1.05938e-05)
(-9.36566e-05 8.56147e-05 1.05939e-05)
(-0.000100762 7.7126e-05 1.05938e-05)
(-0.000107101 6.80507e-05 1.05938e-05)
(-0.000112624 5.84574e-05 1.05939e-05)
(-0.000117291 4.8419e-05 1.05938e-05)
(-0.000121064 3.80122e-05 1.05938e-05)
(-0.000123916 2.73162e-05 1.05938e-05)
(-0.000125826 1.64123e-05 1.05939e-05)
(-0.000126777 5.38327e-06 1.05939e-05)
(-0.000126764 -5.68654e-06 1.05939e-05)
(-0.000125786 -1.67131e-05 1.05939e-05)
(-0.000123851 -2.76124e-05 1.05939e-05)
(-0.000120972 -3.83016e-05 1.05938e-05)
(-0.000117174 -4.86993e-05 1.05938e-05)
(-0.000112484 -5.87264e-05 1.05938e-05)
(-0.000106937 -6.83065e-05 1.05938e-05)
(-0.000100577 -7.73667e-05 1.05938e-05)
(-9.34515e-05 -8.58383e-05 1.05938e-05)
(-8.56147e-05 -9.36566e-05 1.05939e-05)
(-7.7126e-05 -0.000100762 1.05938e-05)
(-6.80507e-05 -0.000107101 1.05938e-05)
(-5.84574e-05 -0.000112624 1.05939e-05)
(-4.8419e-05 -0.000117291 1.05938e-05)
(-3.80122e-05 -0.000121064 1.05938e-05)
(-2.73162e-05 -0.000123916 1.05938e-05)
(-1.64123e-05 -0.000125826 1.05939e-05)
(-5.38327e-06 -0.000126777 1.05939e-05)
(5.68654e-06 -0.000126764 1.05939e-05)
(1.67131e-05 -0.000125786 1.05939e-05)
(2.76124e-05 -0.000123851 1.05939e-05)
(3.83016e-05 -0.000120972 1.05938e-05)
(4.86993e-05 -0.000117174 1.05938e-05)
(5.87264e-05 -0.000112484 1.05938e-05)
(5.74442e-05 -0.000113321 1.20023e-05)
(6.71022e-05 -0.000107883 1.20023e-05)
(7.62495e-05 -0.000101625 1.20023e-05)
(8.48165e-05 -9.45922e-05 1.20023e-05)
(9.27382e-05 -8.68402e-05 1.20024e-05)
(9.99536e-05 -7.84269e-05 1.20023e-05)
(0.000106408 -6.94168e-05 1.20023e-05)
(0.000112054 -5.98786e-05 1.20023e-05)
(0.000116846 -4.98846e-05 1.20023e-05)
(0.000120749 -3.9511e-05 1.20023e-05)
(0.000123733 -2.88367e-05 1.20023e-05)
(0.000125776 -1.79428e-05 1.20023e-05)
(0.000126861 -6.91251e-06 1.20023e-05)
(0.000126981 4.1705e-06 1.20023e-05)
(0.000126134 1.52217e-05 1.20023e-05)
(0.000124327 2.61571e-05 1.20023e-05)
(0.000121575 3.68934e-05 1.20023e-05)
(0.000117896 4.7349e-05 1.20023e-05)
(0.000113321 5.74442e-05 1.20023e-05)
(0.000107883 6.71022e-05 1.20023e-05)
(0.000101625 7.62495e-05 1.20023e-05)
(9.45922e-05 8.48165e-05 1.20023e-05)
(8.68402e-05 9.27382e-05 1.20024e-05)
(7.84269e-05 9.99536e-05 1.20023e-05)
(6.94168e-05 0.000106408 1.20023e-05)
(5.98786e-05 0.000112054 1.20023e-05)
(4.98846e-05 0.000116846 1.20023e-05)
(3.9511e-05 0.000120749 1.20023e-05)
(2.88367e-05 0.000123733 1.20023e-05)
(1.79428e-05 0.000125776 1.20023e-05)
(6.91251e-06 0.000126861 1.20023e-05)
(-4.1705e-06 0.000126981 1.20023e-05)
(-1.52217e-05 0.000126134 1.20023e-05)
(-2.61571e-05 0.000124327 1.20023e-05)
(-3.68934e-05 0.000121575 1.20023e-05)
(-4.7349e-05 0.000117896 1.20023e-05)
(-5.74442e-05 0.000113321 1.20023e-05)
(-6.71022e-05 0.000107883 1.20023e-05)
(-7.62495e-05 0.000101625 1.20023e-05)
(-8.48165e-05 9.45922e-05 1.20023e-05)
(-9.27382e-05 8.68402e-05 1.20024e-05)
(-9.99536e-05 7.84269e-05 1.20023e-05)
(-0.000106408 6.94168e-05 1.20023e-05)
(-0.000112054 5.98786e-05 1.20023e-05)
(-0.000116846 4.98846e-05 1.20023e-05)
(-0.000120749 3.9511e-05 1.20023e-05)
(-0.000123733 2.88367e-05 1.20023e-05)
(-0.000125776 1.79428e-05 1.20023e-05)
(-0.000126861 6.91251e-06 1.20023e-05)
(-0.000126981 -4.1705e-06 1.20023e-05)
(-0.000126134 -1.52217e-05 1.20023e-05)
(-0.000124327 -2.61571e-05 1.20023e-05)
(-0.000121575 -3.68934e-05 1.20023e-05)
(-0.000117896 -4.7349e-05 1.20023e-05)
(-0.000113321 -5.74442e-05 1.20023e-05)
(-0.000107883 -6.71022e-05 1.20023e-05)
(-0.000101625 -7.62495e-05 1.20023e-05)
(-9.45922e-05 -8.48165e-05 1.20023e-05)
(-8.68402e-05 -9.27382e-05 1.20024e-05)
(-7.84269e-05 -9.99536e-05 1.20023e-05)
(-6.94168e-05 -0.000106408 1.20023e-05)
(-5.98786e-05 -0.000112054 1.20023e-05)
(-4.98846e-05 -0.000116846 1.20023e-05)
(-3.9511e-05 -0.000120749 1.20023e-05)
(-2.88367e-05 -0.000123733 1.20023e-05)
(-1.79428e-05 -0.000125776 1.20023e-05)
(-6.91251e-06 -0.000126861 1.20023e-05)
(4.1705e-06 -0.000126981 1.20023e-05)
(1.52217e-05 -0.000126134 1.20023e-05)
(2.61571e-05 -0.000124327 1.20023e-05)
(3.68934e-05 -0.000121575 1.20023e-05)
(4.7349e-05 -0.000117896 1.20023e-05)
(4.42967e-05 -0.000118829 1.29218e-05)
(5.44848e-05 -0.000114516 1.29218e-05)
(6.42584e-05 -0.000109332 1.29218e-05)
(7.35424e-05 -0.000103315 1.29218e-05)
(8.2267e-05 -9.65123e-05 1.29218e-05)
(9.03657e-05 -8.89753e-05 1.29218e-05)
(9.77765e-05 -8.07608e-05 1.29218e-05)
(0.000104443 -7.19318e-05 1.29218e-05)
(0.000110315 -6.25553e-05 1.29218e-05)
(0.000115348 -5.27026e-05 1.29218e-05)
(0.000119502 -4.24488e-05 1.29218e-05)
(0.000122747 -3.1872e-05 1.29218e-05)
(0.000125057 -2.10526e-05 1.29218e-05)
(0.000126416 -1.00729e-05 1.29218e-05)
(0.000126813 9.83245e-07 1.29218e-05)
(0.000126245 1.2032e-05 1.29218e-05)
(0.000124716 2.29892e-05 1.29218e-05)
(0.000122238 3.37715e-05 1.29218e-05)
(0.000118829 4.42967e-05 1.29218e-05)
(0.000114516 5.44848e-05 1.29218e-05)
(0.000109332 6.42584e-05 1.29218e-05)
(0.000103315 7.35424e-05 1.29218e-05)
(9.65123e-05 8.2267e-05 1.29218e-05)
(8.89753e-05 9.03657e-05 1.29218e-05)
(8.07608e-05 9.77765e-05 1.29218e-05)
(7.19318e-05 0.000104443 1.29218e-05)
(6.25553e-05 0.000110315 1.29218e-05)
(5.27026e-05 0.000115348 1.29218e-05)
(4.24488e-05 0.000119502 1.29218e-05)
(3.1872e-05 0.000122747 1.29218e-05)
(2.10526e-05 0.000125057 1.29218e-05)
(1.00729e-05 0.000126416 1.29218e-05)
(-9.83245e-07 0.000126813 1.29218e-05)
(-1.2032e-05 0.000126245 1.29218e-05)
(-2.29892e-05 0.000124716 1.29218e-05)
(-3.37715e-05 0.000122238 1.29218e-05)
(-4.42967e-05 0.000118829 1.29218e-05)
(-5.44848e-05 0.000114516 1.29218e-05)
(-6.42584e-05 0.000109332 1.29218e-05)
(-7.35424e-05 0.000103315 1.29218e-05)
(-8.2267e-05 9.65123e-05 1.29218e-05)
(-9.03657e-05 8.89753e-05 1.29218e-05)
(-9.77765e-05 8.07608e-05 1.29218e-05)
(-0.000104443 7.19318e-05 1.29218e-05)
(-0.000110315 6.25553e-05 1.29218e-05)
(-0.000115348 5.27026e-05 1.29218e-05)
(-0.000119502 4.24488e-05 1.29218e-05)
(-0.000122747 3.1872e-05 1.29218e-05)
(-0.000125057 2.10526e-05 1.29218e-05)
(-0.000126416 1.00729e-05 1.29218e-05)
(-0.000126813 -9.83245e-07 1.29218e-05)
(-0.000126245 -1.2032e-05 1.29218e-05)
(-0.000124716 -2.29892e-05 1.29218e-05)
(-0.000122238 -3.37715e-05 1.29218e-05)
(-0.000118829 -4.42967e-05 1.29218e-05)
(-0.000114516 -5.44848e-05 1.29218e-05)
(-0.000109332 -6.42584e-05 1.29218e-05)
(-0.000103315 -7.35424e-05 1.29218e-05)
(-9.65123e-05 -8.2267e-05 1.29218e-05)
(-8.89753e-05 -9.03657e-05 1.29218e-05)
(-8.07608e-05 -9.77765e-05 1.29218e-05)
(-7.19318e-05 -0.000104443 1.29218e-05)
(-6.25553e-05 -0.000110315 1.29218e-05)
(-5.27026e-05 -0.000115348 1.29218e-05)
(-4.24488e-05 -0.000119502 1.29218e-05)
(-3.1872e-05 -0.000122747 1.29218e-05)
(-2.10526e-05 -0.000125057 1.29218e-05)
(-1.00729e-05 -0.000126416 1.29218e-05)
(9.83245e-07 -0.000126813 1.29218e-05)
(1.2032e-05 -0.000126245 1.29218e-05)
(2.29892e-05 -0.000124716 1.29218e-05)
(3.37715e-05 -0.000122238 1.29218e-05)
(2.78825e-05 -0.000123094 1.46704e-05)
(3.85047e-05 -0.000120195 1.46705e-05)
(4.88337e-05 -0.000116382 1.46705e-05)
(5.87913e-05 -0.000111683 1.46705e-05)
(6.83013e-05 -0.000106134 1.46705e-05)
(7.72915e-05 -9.97769e-05 1.46705e-05)
(8.56933e-05 -9.26606e-05 1.46705e-05)
(9.34432e-05 -8.48394e-05 1.46704e-05)
(0.000100482 -7.63729e-05 1.46705e-05)
(0.000106756 -6.73247e-05 1.46705e-05)
(0.000112217 -5.77637e-05 1.46704e-05)
(0.000116825 -4.77635e-05 1.46705e-05)
(0.000120543 -3.73998e-05 1.46704e-05)
(0.000123344 -2.67515e-05 1.46704e-05)
(0.000125206 -1.58996e-05 1.46705e-05)
(0.000126116 -4.92667e-06 1.46705e-05)
(0.000126065 6.08387e-06 1.46705e-05)
(0.000125055 1.7048e-05 1.46704e-05)
(0.000123094 2.78825e-05 1.46704e-05)
(0.000120195 3.85047e-05 1.46705e-05)
(0.000116382 4.88337e-05 1.46705e-05)
(0.000111683 5.87913e-05 1.46705e-05)
(0.000106134 6.83013e-05 1.46705e-05)
(9.97769e-05 7.72915e-05 1.46705e-05)
(9.26606e-05 8.56933e-05 1.46705e-05)
(8.48394e-05 9.34432e-05 1.46704e-05)
(7.63729e-05 0.000100482 1.46705e-05)
(6.73247e-05 0.000106756 1.46705e-05)
(5.77637e-05 0.000112217 1.46704e-05)
(4.77635e-05 0.000116825 1.46705e-05)
(3.73998e-05 0.000120543 1.46704e-05)
(2.67515e-05 0.000123344 1.46704e-05)
(1.58996e-05 0.000125206 1.46705e-05)
(4.92667e-06 0.000126116 1.46705e-05)
(-6.08387e-06 0.000126065 1.46705e-05)
(-1.7048e-05 0.000125055 1.46704e-05)
(-2.78825e-05 0.000123094 1.46704e-05)
(-3.85047e-05 0.000120195 1.46705e-05)
(-4.88337e-05 0.000116382 1.46705e-05)
(-5.87913e-05 0.000111683 1.46705e-05)
(-6.83013e-05 0.000106134 1.46705e-05)
(-7.72915e-05 9.97769e-05 1.46705e-05)
(-8.56933e-05 9.26606e-05 1.46705e-05)
(-9.34432e-05 8.48394e-05 1.46704e-05)
(-0.000100482 7.63729e-05 1.46705e-05)
(-0.000106756 6.73247e-05 1.46705e-05)
(-0.000112217 5.77637e-05 1.46704e-05)
(-0.000116825 4.77635e-05 1.46705e-05)
(-0.000120543 3.73998e-05 1.46704e-05)
(-0.000123344 2.67515e-05 1.46704e-05)
(-0.000125206 1.58996e-05 1.46705e-05)
(-0.000126116 4.92667e-06 1.46705e-05)
(-0.000126065 -6.08387e-06 1.46705e-05)
(-0.000125055 -1.7048e-05 1.46704e-05)
(-0.000123094 -2.78825e-05 1.46704e-05)
(-0.000120195 -3.85047e-05 1.46705e-05)
(-0.000116382 -4.88337e-05 1.46705e-05)
(-0.000111683 -5.87913e-05 1.46705e-05)
(-0.000106134 -6.83013e-05 1.46705e-05)
(-9.97769e-05 -7.72915e-05 1.46705e-05)
(-9.26606e-05 -8.56933e-05 1.46705e-05)
(-8.48394e-05 -9.34432e-05 1.46704e-05)
(-7.63729e-05 -0.000100482 1.46705e-05)
(-6.73247e-05 -0.000106756 1.46705e-05)
(-5.77637e-05 -0.000112217 1.46704e-05)
(-4.77635e-05 -0.000116825 1.46705e-05)
(-3.73998e-05 -0.000120543 1.46704e-05)
(-2.67515e-05 -0.000123344 1.46704e-05)
(-1.58996e-05 -0.000125206 1.46705e-05)
(-4.92667e-06 -0.000126116 1.46705e-05)
(6.08387e-06 -0.000126065 1.46705e-05)
(1.7048e-05 -0.000125055 1.46704e-05)
(3.80565e-06 -0.000126631 1.64391e-05)
(1.48278e-05 -0.000125817 1.64391e-05)
(2.57371e-05 -0.000124046 1.64391e-05)
(3.64508e-05 -0.000121332 1.64392e-05)
(4.68869e-05 -0.000117693 1.64391e-05)
(5.6966e-05 -0.000113159 1.64391e-05)
(6.66116e-05 -0.000107763 1.64391e-05)
(7.575e-05 -0.000101547 1.64391e-05)
(8.43124e-05 -9.4559e-05 1.64391e-05)
(9.2233e-05 -8.68509e-05 1.64392e-05)
(9.94514e-05 -7.84816e-05 1.64391e-05)
(0.000105913 -6.95153e-05 1.64391e-05)
(0.000111569 -6.00198e-05 1.6439e-05)
(0.000116376 -5.00676e-05 1.6439e-05)
(0.000120297 -3.97345e-05 1.64391e-05)
(0.000123301 -2.90986e-05 1.64391e-05)
(0.000125368 -1.82414e-05 1.64391e-05)
(0.000126481 -7.24543e-06 1.64392e-05)
(0.000126631 3.80565e-06 1.64391e-05)
(0.000125817 1.48278e-05 1.64391e-05)
(0.000124046 2.57371e-05 1.64391e-05)
(0.000121332 3.64508e-05 1.64392e-05)
(0.000117693 4.68869e-05 1.64391e-05)
(0.000113159 5.6966e-05 1.64391e-05)
(0.000107763 6.66116e-05 1.64391e-05)
(0.000101547 7.575e-05 1.64391e-05)
(9.4559e-05 8.43124e-05 1.64391e-05)
(8.68509e-05 9.2233e-05 1.64392e-05)
(7.84816e-05 9.94514e-05 1.64391e-05)
(6.95153e-05 0.000105913 1.64391e-05)
(6.00198e-05 0.000111569 1.6439e-05)
(5.00676e-05 0.000116376 1.6439e-05)
(3.97345e-05 0.000120297 1.64391e-05)
(2.90986e-05 0.000123301 1.64391e-05)
(1.82414e-05 0.000125368 1.64391e-05)
(7.24543e-06 0.000126481 1.64392e-05)
(-3.80565e-06 0.000126631 1.64391e-05)
(-1.48278e-05 0.000125817 1.64391e-05)
(-2.57371e-05 0.000124046 1.64391e-05)
(-3.64508e-05 0.000121332 1.64392e-05)
(-4.68869e-05 0.000117693 1.64391e-05)
(-5.6966e-05 0.000113159 1.64391e-05)
(-6.66116e-05 0.000107763 1.64391e-05)
(-7.575e-05 0.000101547 1.64391e-05)
(-8.43124e-05 9.4559e-05 1.64391e-05)
(-9.2233e-05 8.68509e-05 1.64392e-05)
(-9.94514e-05 7.84816e-05 1.64391e-05)
(-0.000105913 6.95153e-05 1.64391e-05)
(-0.000111569 6.00198e-05 1.6439e-05)
(-0.000116376 5.00676e-05 1.6439e-05)
(-0.000120297 3.97345e-05 1.64391e-05)
(-0.000123301 2.90986e-05 1.64391e-05)
(-0.000125368 1.82414e-05 1.64391e-05)
(-0.000126481 7.24543e-06 1.64392e-05)
(-0.000126631 -3.80565e-06 1.64391e-05)
(-0.000125817 -1.48278e-05 1.64391e-05)
(-0.000124046 -2.57371e-05 1.64391e-05)
(-0.000121332 -3.64508e-05 1.64392e-05)
(-0.000117693 -4.68869e-05 1.64391e-05)
(-0.000113159 -5.6966e-05 1.64391e-05)
(-0.000107763 -6.66116e-05 1.64391e-05)
(-0.000101547 -7.575e-05 1.64391e-05)
(-9.4559e-05 -8.43124e-05 1.64391e-05)
(-8.68509e-05 -9.2233e-05 1.64392e-05)
(-7.84816e-05 -9.94514e-05 1.64391e-05)
(-6.95153e-05 -0.000105913 1.64391e-05)
(-6.00198e-05 -0.000111569 1.6439e-05)
(-5.00676e-05 -0.000116376 1.6439e-05)
(-3.97345e-05 -0.000120297 1.64391e-05)
(-2.90986e-05 -0.000123301 1.64391e-05)
(-1.82414e-05 -0.000125368 1.64391e-05)
(-7.24543e-06 -0.000126481 1.64392e-05)
(0.000200081 -0.00030396 3.45744e-05)
(0.000225812 -0.000285365 3.45743e-05)
(0.000249824 -0.000264599 3.45744e-05)
(0.000271934 -0.000241818 3.45744e-05)
(0.000291976 -0.000217197 3.45743e-05)
(0.000309795 -0.000190924 3.45743e-05)
(0.000325256 -0.000163197 3.45743e-05)
(0.000338241 -0.000134228 3.45742e-05)
(0.000348654 -0.000104237 3.45741e-05)
(0.000356412 -7.34534e-05 3.45742e-05)
(0.000361457 -4.21105e-05 3.45744e-05)
(0.000363751 -1.04472e-05 3.45744e-05)
(0.000363278 2.12956e-05 3.45745e-05)
(0.000360039 5.28763e-05 3.45746e-05)
(0.00035406 8.40546e-05 3.45745e-05)
(0.000345388 0.000114593 3.45744e-05)
(0.000334086 0.00014426 3.45743e-05)
(0.000320241 0.000172828 3.45743e-05)
(0.00030396 0.000200081 3.45744e-05)
(0.000285365 0.000225812 3.45743e-05)
(0.000264599 0.000249824 3.45744e-05)
(0.000241818 0.000271934 3.45744e-05)
(0.000217197 0.000291976 3.45743e-05)
(0.000190924 0.000309795 3.45743e-05)
(0.000163197 0.000325256 3.45743e-05)
(0.000134228 0.000338241 3.45742e-05)
(0.000104237 0.000348654 3.45741e-05)
(7.34534e-05 0.000356412 3.45742e-05)
(4.21105e-05 0.000361457 3.45744e-05)
(1.04472e-05 0.000363751 3.45744e-05)
(-2.12956e-05 0.000363278 3.45745e-05)
(-5.28763e-05 0.000360039 3.45746e-05)
(-8.40546e-05 0.00035406 3.45745e-05)
(-0.000114593 0.000345388 3.45744e-05)
(-0.00014426 0.000334086 3.45743e-05)
(-0.000172828 0.000320241 3.45743e-05)
(-0.000200081 0.00030396 3.45744e-05)
(-0.000225812 0.000285365 3.45743e-05)
(-0.000249824 0.000264599 3.45744e-05)
(-0.000271934 0.000241818 3.45744e-05)
(-0.000291976 0.000217197 3.45743e-05)
(-0.000309795 0.000190924 3.45743e-05)
(-0.000325256 0.000163197 3.45743e-05)
(-0.000338241 0.000134228 3.45742e-05)
(-0.000348654 0.000104237 3.45741e-05)
(-0.000356412 7.34534e-05 3.45742e-05)
(-0.000361457 4.21105e-05 3.45744e-05)
(-0.000363751 1.04472e-05 3.45744e-05)
(-0.000363278 -2.12956e-05 3.45745e-05)
(-0.000360039 -5.28763e-05 3.45746e-05)
(-0.00035406 -8.40546e-05 3.45745e-05)
(-0.000345388 -0.000114593 3.45744e-05)
(-0.000334086 -0.00014426 3.45743e-05)
(-0.000320241 -0.000172828 3.45743e-05)
(-0.00030396 -0.000200081 3.45744e-05)
(-0.000285365 -0.000225812 3.45743e-05)
(-0.000264599 -0.000249824 3.45744e-05)
(-0.000241818 -0.000271934 3.45744e-05)
(-0.000217197 -0.000291976 3.45743e-05)
(-0.000190924 -0.000309795 3.45743e-05)
(-0.000163197 -0.000325256 3.45743e-05)
(-0.000134228 -0.000338241 3.45742e-05)
(-0.000104237 -0.000348654 3.45741e-05)
(-7.34534e-05 -0.000356412 3.45742e-05)
(-4.21105e-05 -0.000361457 3.45744e-05)
(-1.04472e-05 -0.000363751 3.45744e-05)
(2.12956e-05 -0.000363278 3.45745e-05)
(5.28763e-05 -0.000360039 3.45746e-05)
(8.40546e-05 -0.00035406 3.45745e-05)
(0.000114593 -0.000345388 3.45744e-05)
(0.00014426 -0.000334086 3.45743e-05)
(0.000172828 -0.000320241 3.45743e-05)
(0.000181963 -0.000321532 4.75401e-05)
(0.000209294 -0.000304449 4.75401e-05)
(0.000235032 -0.00028505 4.75401e-05)
(0.000258982 -0.00026348 4.75401e-05)
(0.00028096 -0.000239906 4.75401e-05)
(0.0003008 -0.000214506 4.754e-05)
(0.000318351 -0.000187473 4.75402e-05)
(0.000333479 -0.000159014 4.75401e-05)
(0.000346069 -0.000129344 4.75401e-05)
(0.000356025 -9.86902e-05 4.75401e-05)
(0.000363271 -6.72848e-05 4.75402e-05)
(0.000367753 -3.53675e-05 4.75402e-05)
(0.000369436 -3.18124e-06 4.75401e-05)
(0.000368308 2.90295e-05 4.75402e-05)
(0.000364376 6.10191e-05 4.75402e-05)
(0.000357671 9.25443e-05 4.75402e-05)
(0.000348245 0.000123365 4.75401e-05)
(0.000336167 0.000153248 4.75401e-05)
(0.000321532 0.000181963 4.75401e-05)
(0.000304449 0.000209294 4.75401e-05)
(0.00028505 0.000235032 4.75401e-05)
(0.00026348 0.000258982 4.75401e-05)
(0.000239906 0.00028096 4.75401e-05)
(0.000214506 0.0003008 4.754e-05)
(0.000187473 0.000318351 4.75402e-05)
(0.000159014 0.000333479 4.75401e-05)
(0.000129344 0.000346069 4.75401e-05)
(9.86902e-05 0.000356025 4.75401e-05)
(6.72848e-05 0.000363271 4.75402e-05)
(3.53675e-05 0.000367753 4.75402e-05)
(3.18124e-06 0.000369436 4.75401e-05)
(-2.90295e-05 0.000368308 4.75402e-05)
(-6.10191e-05 0.000364376 4.75402e-05)
(-9.25443e-05 0.000357671 4.75402e-05)
(-0.000123365 0.000348245 4.75401e-05)
(-0.000153248 0.000336167 4.75401e-05)
(-0.000181963 0.000321532 4.75401e-05)
(-0.000209294 0.000304449 4.75401e-05)
(-0.000235032 0.00028505 4.75401e-05)
(-0.000258982 0.00026348 4.75401e-05)
(-0.00028096 0.000239906 4.75401e-05)
(-0.0003008 0.000214506 4.754e-05)
(-0.000318351 0.000187473 4.75402e-05)
(-0.000333479 0.000159014 4.75401e-05)
(-0.000346069 0.000129344 4.75401e-05)
(-0.000356025 9.86902e-05 4.75401e-05)
(-0.000363271 6.72848e-05 4.75402e-05)
(-0.000367753 3.53675e-05 4.75402e-05)
(-0.000369436 3.18124e-06 4.75401e-05)
(-0.000368308 -2.90295e-05 4.75402e-05)
(-0.000364376 -6.10191e-05 4.75402e-05)
(-0.000357671 -9.25443e-05 4.75402e-05)
(-0.000348245 -0.000123365 4.75401e-05)
(-0.000336167 -0.000153248 4.75401e-05)
(-0.000321532 -0.000181963 4.75401e-05)
(-0.000304449 -0.000209294 4.75401e-05)
(-0.00028505 -0.000235032 4.75401e-05)
(-0.00026348 -0.000258982 4.75401e-05)
(-0.000239906 -0.00028096 4.75401e-05)
(-0.000214506 -0.0003008 4.754e-05)
(-0.000187473 -0.000318351 4.75402e-05)
(-0.000159014 -0.000333479 4.75401e-05)
(-0.000129344 -0.000346069 4.75401e-05)
(-9.86902e-05 -0.000356025 4.75401e-05)
(-6.72848e-05 -0.000363271 4.75402e-05)
(-3.53675e-05 -0.000367753 4.75402e-05)
(-3.18124e-06 -0.000369436 4.75401e-05)
(2.90295e-05 -0.000368308 4.75402e-05)
(6.10191e-05 -0.000364376 4.75402e-05)
(9.25443e-05 -0.000357671 4.75402e-05)
(0.000123365 -0.000348245 4.75401e-05)
(0.000153248 -0.000336167 4.75401e-05)
(0.000157807 -0.000338633 5.69575e-05)
(0.00018672 -0.000323591 5.69575e-05)
(0.000214212 -0.000306086 5.69575e-05)
(0.000240074 -0.000286251 5.69576e-05)
(0.000264109 -0.000264238 5.69575e-05)
(0.000286134 -0.000240214 5.69576e-05)
(0.000305981 -0.000214362 5.69577e-05)
(0.000323499 -0.000186878 5.69576e-05)
(0.000338556 -0.000157972 5.69576e-05)
(0.000351036 -0.000127864 5.69576e-05)
(0.000360844 -9.67823e-05 5.69576e-05)
(0.000367906 -6.49646e-05 5.69577e-05)
(0.000372168 -3.26521e-05 5.69577e-05)
(0.000373597 -9.11997e-08 5.69576e-05)
(0.000372184 3.24701e-05 5.69576e-05)
(0.000367937 6.47848e-05 5.69576e-05)
(0.000360891 9.66062e-05 5.69576e-05)
(0.000351098 0.000127692 5.69575e-05)
(0.000338633 0.000157807 5.69575e-05)
(0.000323591 0.00018672 5.69575e-05)
(0.000306086 0.000214212 5.69575e-05)
(0.000286251 0.000240074 5.69576e-05)
(0.000264238 0.000264109 5.69575e-05)
(0.000240214 0.000286134 5.69576e-05)
(0.000214362 0.000305981 5.69577e-05)
(0.000186878 0.000323499 5.69576e-05)
(0.000157972 0.000338556 5.69576e-05)
(0.000127864 0.000351036 5.69576e-05)
(9.67823e-05 0.000360844 5.69576e-05)
(6.49646e-05 0.000367906 5.69577e-05)
(3.26521e-05 0.000372168 5.69577e-05)
(9.11992e-08 0.000373597 5.69576e-05)
(-3.24701e-05 0.000372184 5.69576e-05)
(-6.47848e-05 0.000367937 5.69576e-05)
(-9.66062e-05 0.000360891 5.69576e-05)
(-0.000127692 0.000351098 5.69575e-05)
(-0.000157807 0.000338633 5.69575e-05)
(-0.00018672 0.000323591 5.69575e-05)
(-0.000214212 0.000306086 5.69575e-05)
(-0.000240074 0.000286251 5.69576e-05)
(-0.000264109 0.000264238 5.69575e-05)
(-0.000286134 0.000240214 5.69576e-05)
(-0.000305981 0.000214362 5.69577e-05)
(-0.000323499 0.000186878 5.69576e-05)
(-0.000338556 0.000157972 5.69576e-05)
(-0.000351036 0.000127864 5.69576e-05)
(-0.000360844 9.67823e-05 5.69576e-05)
(-0.000367906 6.49646e-05 5.69577e-05)
(-0.000372168 3.26521e-05 5.69577e-05)
(-0.000373597 9.11997e-08 5.69576e-05)
(-0.000372184 -3.24701e-05 5.69576e-05)
(-0.000367937 -6.47848e-05 5.69576e-05)
(-0.000360891 -9.66062e-05 5.69576e-05)
(-0.000351098 -0.000127692 5.69575e-05)
(-0.000338633 -0.000157807 5.69575e-05)
(-0.000323591 -0.00018672 5.69575e-05)
(-0.000306086 -0.000214212 5.69575e-05)
(-0.000286251 -0.000240074 5.69576e-05)
(-0.000264238 -0.000264109 5.69575e-05)
(-0.000240214 -0.000286134 5.69576e-05)
(-0.000214362 -0.000305981 5.69577e-05)
(-0.000186878 -0.000323499 5.69576e-05)
(-0.000157972 -0.000338556 5.69576e-05)
(-0.000127864 -0.000351036 5.69576e-05)
(-9.67823e-05 -0.000360844 5.69576e-05)
(-6.49646e-05 -0.000367906 5.69577e-05)
(-3.26521e-05 -0.000372168 5.69577e-05)
(-9.12001e-08 -0.000373597 5.69576e-05)
(3.24701e-05 -0.000372184 5.69576e-05)
(6.47848e-05 -0.000367937 5.69576e-05)
(9.66062e-05 -0.000360891 5.69576e-05)
(0.000127692 -0.000351098 5.69575e-05)
(0.000128867 -0.000353837 6.42768e-05)
(0.000159215 -0.000341259 6.42769e-05)
(0.000188352 -0.000326084 6.42769e-05)
(0.000216055 -0.000308427 6.42769e-05)
(0.000242114 -0.000288423 6.42769e-05)
(0.00026633 -0.000266224 6.42769e-05)
(0.00028852 -0.000241998 6.42769e-05)
(0.000308514 -0.000215931 6.4277e-05)
(0.000326159 -0.000188221 6.42769e-05)
(0.000341323 -0.000159078 6.42769e-05)
(0.000353888 -0.000128724 6.42769e-05)
(0.000363761 -9.73912e-05 6.42769e-05)
(0.000370865 -6.53166e-05 6.42769e-05)
(0.000375146 -3.27451e-05 6.42769e-05)
(0.000376572 7.57546e-08 6.42769e-05)
(0.000375133 3.28958e-05 6.42769e-05)
(0.000370839 6.54657e-05 6.42769e-05)
(0.000363722 9.75374e-05 6.42768e-05)
(0.000353837 0.000128867 6.42768e-05)
(0.000341259 0.000159215 6.42769e-05)
(0.000326084 0.000188352 6.42769e-05)
(0.000308427 0.000216055 6.42769e-05)
(0.000288423 0.000242114 6.42769e-05)
(0.000266224 0.00026633 6.42769e-05)
(0.000241998 0.00028852 6.42769e-05)
(0.000215931 0.000308514 6.4277e-05)
(0.000188221 0.000326159 6.42769e-05)
(0.000159078 0.000341323 6.42769e-05)
(0.000128724 0.000353888 6.42769e-05)
(9.73912e-05 0.000363761 6.42769e-05)
(6.53166e-05 0.000370865 6.42769e-05)
(3.27451e-05 0.000375146 6.42769e-05)
(-7.5755e-08 0.000376572 6.42769e-05)
(-3.28958e-05 0.000375133 6.42769e-05)
(-6.54657e-05 0.000370839 6.42769e-05)
(-9.75374e-05 0.000363722 6.42768e-05)
(-0.000128867 0.000353837 6.42768e-05)
(-0.000159215 0.000341259 6.42769e-05)
(-0.000188352 0.000326084 6.42769e-05)
(-0.000216055 0.000308427 6.42769e-05)
(-0.000242114 0.000288423 6.42769e-05)
(-0.00026633 0.000266224 6.42769e-05)
(-0.00028852 0.000241998 6.42769e-05)
(-0.000308514 0.000215931 6.4277e-05)
(-0.000326159 0.000188221 6.42769e-05)
(-0.000341323 0.000159078 6.42769e-05)
(-0.000353888 0.000128724 6.42769e-05)
(-0.000363761 9.73912e-05 6.42769e-05)
(-0.000370865 6.53166e-05 6.42769e-05)
(-0.000375146 3.27451e-05 6.42769e-05)
(-0.000376572 -7.57545e-08 6.42769e-05)
(-0.000375133 -3.28958e-05 6.42769e-05)
(-0.000370839 -6.54657e-05 6.42769e-05)
(-0.000363722 -9.75374e-05 6.42768e-05)
(-0.000353837 -0.000128867 6.42768e-05)
(-0.000341259 -0.000159215 6.42769e-05)
(-0.000326084 -0.000188352 6.42769e-05)
(-0.000308427 -0.000216055 6.42769e-05)
(-0.000288423 -0.000242114 6.42769e-05)
(-0.000266224 -0.00026633 6.42769e-05)
(-0.000241998 -0.00028852 6.42769e-05)
(-0.000215931 -0.000308514 6.4277e-05)
(-0.000188221 -0.000326159 6.42769e-05)
(-0.000159078 -0.000341323 6.42769e-05)
(-0.000128724 -0.000353888 6.42769e-05)
(-9.73912e-05 -0.000363761 6.42769e-05)
(-6.53166e-05 -0.000370865 6.42769e-05)
(-3.27451e-05 -0.000375146 6.42769e-05)
(7.57541e-08 -0.000376572 6.42769e-05)
(3.28958e-05 -0.000375133 6.42769e-05)
(6.54657e-05 -0.000370839 6.42769e-05)
(9.75374e-05 -0.000363722 6.42768e-05)
(9.52664e-05 -0.000366104 7.16406e-05)
(0.000126812 -0.000356408 7.16406e-05)
(0.000157392 -0.000343999 7.16407e-05)
(0.000186775 -0.000328972 7.16407e-05)
(0.000214736 -0.000311442 7.16407e-05)
(0.000241063 -0.000291541 7.16406e-05)
(0.000265555 -0.000269422 7.16408e-05)
(0.000288026 -0.000245252 7.16406e-05)
(0.000308305 -0.000219215 7.16405e-05)
(0.000326238 -0.000191511 7.16405e-05)
(0.000341688 -0.000162349 7.16406e-05)
(0.000354537 -0.000131951 7.16407e-05)
(0.000364688 -0.000100549 7.16406e-05)
(0.000372064 -6.83812e-05 7.16405e-05)
(0.000376608 -3.56937e-05 7.16406e-05)
(0.000378286 -2.73448e-06 7.16407e-05)
(0.000377085 3.02457e-05 7.16406e-05)
(0.000373014 6.29958e-05 7.16406e-05)
(0.000366104 9.52664e-05 7.16406e-05)
(0.000356408 0.000126812 7.16406e-05)
(0.000343999 0.000157392 7.16407e-05)
(0.000328972 0.000186775 7.16407e-05)
(0.000311442 0.000214736 7.16407e-05)
(0.000291541 0.000241063 7.16406e-05)
(0.000269422 0.000265555 7.16408e-05)
(0.000245252 0.000288026 7.16406e-05)
(0.000219215 0.000308305 7.16405e-05)
(0.000191511 0.000326238 7.16405e-05)
(0.000162349 0.000341688 7.16406e-05)
(0.000131951 0.000354537 7.16407e-05)