/*--------------------------------*- C++ -*----------------------------------*\
| =========                 |                                                 |
| \\      /  F ield         | OpenFOAM: The Open Source CFD Toolbox           |
|  \\    /   O peration     | Version:  2312                                  |
|   \\  /    A nd           | Website:  www.openfoam.com                      |
|    \\/     M anipulation  |                                                 |
\*---------------------------------------------------------------------------*/
FoamFile
{
    version     2.0;
    format      ascii;
    arch        "LSB;label=32;scalar=64";
    class       volTensorField;
    location    "0.3";
    object      F;
}
// * * * * * * * * * * * * * * * * * * * * * * * * * * * * * * * * * * * * * //

dimensions      [0 0 0 0 0 0 0];

internalField   nonuniform List<tensor> 
12960
(
(1.01829 0.0118278 -0.131405 0.0150466 1.00924 0.220908 -0.00822233 -0.000358962 0.970712)
(1.01589 0.012409 -0.150159 0.0156277 1.01164 0.208615 -0.00815978 -0.00107425 0.970712)
(1.01342 0.0125642 -0.167769 0.0157828 1.01411 0.194734 -0.00803504 -0.00178132 0.970712)
(1.01096 0.0122888 -0.184103 0.0155074 1.01657 0.179371 -0.00784923 -0.00247488 0.970712)
(1.00859 0.011591 -0.199036 0.0148097 1.01894 0.162643 -0.00760375 -0.00314955 0.970712)
(1.00638 0.0104922 -0.212453 0.013711 1.02115 0.144677 -0.00730015 -0.00380017 0.970712)
(1.00439 0.0090257 -0.224254 0.0122444 1.02314 0.12561 -0.00694112 -0.00442208 0.970712)
(1.00269 0.00723607 -0.234349 0.0104548 1.02485 0.105587 -0.00652941 -0.00501032 0.970712)
(1.00132 0.0051777 -0.242659 0.00839638 1.02621 0.0847599 -0.00606802 -0.00556029 0.970712)
(1.00033 0.00291309 -0.249123 0.00613174 1.0272 0.0632882 -0.00556029 -0.00606789 0.970712)
(0.999747 0.000510979 -0.253691 0.00372967 1.02778 0.0413349 -0.00501026 -0.00652938 0.970712)
(0.999592 -0.0019556 -0.256328 0.00126325 1.02794 0.019067 -0.00442205 -0.0069411 0.970712)
(0.999867 -0.00441146 -0.257015 -0.00119275 1.02766 -0.00334611 -0.00380019 -0.00730008 0.970712)
(1.00056 -0.00678223 -0.255745 -0.00356352 1.02697 -0.0257337 -0.00314949 -0.00760361 0.970712)
(1.00166 -0.00899597 -0.252529 -0.00577719 1.02587 -0.0479254 -0.00247479 -0.00784919 0.970712)
(1.00313 -0.0109851 -0.247391 -0.00776637 1.0244 -0.0697524 -0.00178129 -0.00803512 0.970712)
(1.00492 -0.0126894 -0.24037 -0.00947071 1.02261 -0.0910485 -0.00107423 -0.00815986 0.970712)
(1.00698 -0.0140571 -0.23152 -0.0108384 1.02055 -0.111652 -0.000359009 -0.00822244 0.970712)
(1.00924 -0.0150466 -0.220908 -0.0118278 1.01829 -0.131405 0.000358962 -0.00822233 0.970712)
(1.01164 -0.0156277 -0.208615 -0.012409 1.01589 -0.150159 0.00107425 -0.00815978 0.970712)
(1.01411 -0.0157828 -0.194734 -0.0125642 1.01342 -0.167769 0.00178132 -0.00803504 0.970712)
(1.01657 -0.0155074 -0.179371 -0.0122888 1.01096 -0.184103 0.00247488 -0.00784923 0.970712)
(1.01894 -0.0148097 -0.162643 -0.011591 1.00859 -0.199036 0.00314955 -0.00760375 0.970712)
(1.02115 -0.013711 -0.144677 -0.0104922 1.00638 -0.212453 0.00380017 -0.00730015 0.970712)
(1.02314 -0.0122444 -0.12561 -0.0090257 1.00439 -0.224254 0.00442208 -0.00694112 0.970712)
(1.02485 -0.0104548 -0.105587 -0.00723607 1.00269 -0.234349 0.00501032 -0.00652941 0.970712)
(1.02621 -0.00839638 -0.0847599 -0.0051777 1.00132 -0.242659 0.00556029 -0.00606802 0.970712)
(1.0272 -0.00613174 -0.0632882 -0.00291309 1.00033 -0.249123 0.00606789 -0.00556029 0.970712)
(1.02778 -0.00372967 -0.0413349 -0.000510979 0.999747 -0.253691 0.00652938 -0.00501026 0.970712)
(1.02794 -0.00126325 -0.019067 0.0019556 0.999592 -0.256328 0.0069411 -0.00442205 0.970712)
(1.02766 0.00119275 0.00334611 0.00441146 0.999867 -0.257015 0.00730008 -0.00380019 0.970712)
(1.02697 0.00356352 0.0257337 0.00678223 1.00056 -0.255745 0.00760361 -0.00314949 0.970712)
(1.02587 0.00577719 0.0479254 0.00899597 1.00166 -0.252529 0.00784919 -0.00247479 0.970712)
(1.0244 0.00776637 0.0697524 0.0109851 1.00313 -0.247391 0.00803512 -0.00178129 0.970712)
(1.02261 0.00947071 0.0910485 0.0126894 1.00492 -0.24037 0.00815986 -0.00107423 0.970712)
(1.02055 0.0108384 0.111652 0.0140571 1.00698 -0.23152 0.00822244 -0.000359009 0.970712)
(1.01829 0.0118278 0.131405 0.0150466 1.00924 -0.220908 0.00822233 0.000358962 0.970712)
(1.01589 0.012409 0.150159 0.0156277 1.01164 -0.208615 0.00815978 0.00107425 0.970712)
(1.01342 0.0125642 0.167769 0.0157828 1.01411 -0.194734 0.00803504 0.00178132 0.970712)
(1.01096 0.0122888 0.184103 0.0155074 1.01657 -0.179371 0.00784923 0.00247488 0.970712)
(1.00859 0.011591 0.199036 0.0148097 1.01894 -0.162643 0.00760375 0.00314955 0.970712)
(1.00638 0.0104922 0.212453 0.013711 1.02115 -0.144677 0.00730015 0.00380017 0.970712)
(1.00439 0.0090257 0.224254 0.0122444 1.02314 -0.12561 0.00694112 0.00442208 0.970712)
(1.00269 0.00723607 0.234349 0.0104548 1.02485 -0.105587 0.00652941 0.00501032 0.970712)
(1.00132 0.0051777 0.242659 0.00839638 1.02621 -0.0847599 0.00606802 0.00556029 0.970712)
(1.00033 0.00291309 0.249123 0.00613174 1.0272 -0.0632882 0.00556029 0.00606789 0.970712)
(0.999747 0.000510979 0.253691 0.00372967 1.02778 -0.0413349 0.00501026 0.00652938 0.970712)
(0.999592 -0.0019556 0.256328 0.00126325 1.02794 -0.019067 0.00442205 0.0069411 0.970712)
(0.999867 -0.00441146 0.257015 -0.00119275 1.02766 0.00334611 0.00380019 0.00730008 0.970712)
(1.00056 -0.00678223 0.255745 -0.00356352 1.02697 0.0257337 0.00314949 0.00760361 0.970712)
(1.00166 -0.00899597 0.252529 -0.00577719 1.02587 0.0479254 0.00247479 0.00784919 0.970712)
(1.00313 -0.0109851 0.247391 -0.00776637 1.0244 0.0697524 0.00178129 0.00803512 0.970712)
(1.00492 -0.0126894 0.24037 -0.00947071 1.02261 0.0910485 0.00107423 0.00815986 0.970712)
(1.00698 -0.0140571 0.23152 -0.0108384 1.02055 0.111652 0.000359009 0.00822244 0.970712)
(1.00924 -0.0150466 0.220908 -0.0118278 1.01829 0.131405 -0.000358962 0.00822233 0.970712)
(1.01164 -0.0156277 0.208615 -0.012409 1.01589 0.150159 -0.00107425 0.00815978 0.970712)
(1.01411 -0.0157828 0.194734 -0.0125642 1.01342 0.167769 -0.00178132 0.00803504 0.970712)
(1.01657 -0.0155074 0.179371 -0.0122888 1.01096 0.184103 -0.00247488 0.00784923 0.970712)
(1.01894 -0.0148097 0.162643 -0.011591 1.00859 0.199036 -0.00314955 0.00760375 0.970712)
(1.02115 -0.013711 0.144677 -0.0104922 1.00638 0.212453 -0.00380017 0.00730015 0.970712)
(1.02314 -0.0122444 0.12561 -0.0090257 1.00439 0.224254 -0.00442208 0.00694112 0.970712)
(1.02485 -0.0104548 0.105587 -0.00723607 1.00269 0.234349 -0.00501032 0.00652941 0.970712)
(1.02621 -0.00839638 0.0847599 -0.0051777 1.00132 0.242659 -0.00556029 0.00606802 0.970712)
(1.0272 -0.00613174 0.0632882 -0.00291309 1.00033 0.249123 -0.00606789 0.00556029 0.970712)
(1.02778 -0.00372967 0.0413349 -0.000510979 0.999747 0.253691 -0.00652938 0.00501026 0.970712)
(1.02794 -0.00126325 0.019067 0.0019556 0.999592 0.256328 -0.0069411 0.00442205 0.970712)
(1.02766 0.00119275 -0.00334611 0.00441146 0.999867 0.257015 -0.00730008 0.00380019 0.970712)
(1.02697 0.00356352 -0.0257337 0.00678223 1.00056 0.255745 -0.00760361 0.00314949 0.970712)
(1.02587 0.00577719 -0.0479254 0.00899597 1.00166 0.252529 -0.00784919 0.00247479 0.970712)
(1.0244 0.00776637 -0.0697524 0.0109851 1.00313 0.247391 -0.00803512 0.00178129 0.970712)
(1.02261 0.00947071 -0.0910485 0.0126894 1.00492 0.24037 -0.00815986 0.00107423 0.970712)
(1.02055 0.0108384 -0.111652 0.0140571 1.00698 0.23152 -0.00822244 0.000359009 0.970712)
(1.02064 0.0134197 -0.120603 0.0148259 1.00867 0.234248 -0.0060127 -0.000262502 0.959098)
(1.0181 0.0142442 -0.14056 0.0156503 1.01122 0.222845 -0.00596693 -0.000785563 0.959098)
(1.01545 0.0146145 -0.159447 0.0160206 1.01387 0.209747 -0.00587573 -0.00130263 0.959098)
(1.01278 0.0145194 -0.177121 0.0159254 1.01654 0.195052 -0.00573985 -0.00180977 0.959098)
(1.01016 0.0139618 -0.193447 0.0153679 1.01915 0.178873 -0.00556034 -0.00230318 0.959098)
(1.00769 0.0129586 -0.208301 0.0143646 1.02163 0.161332 -0.00533835 -0.00277897 0.959098)
(1.00542 0.0115402 -0.221569 0.0129463 1.0239 0.142563 -0.00507584 -0.00323371 0.959098)
(1.00343 0.00974995 -0.233151 0.011156 1.02588 0.12271 -0.00477479 -0.00366384 0.959098)
(1.00179 0.00764206 -0.242959 0.00904812 1.02753 0.101923 -0.00443733 -0.00406603 0.959098)
(1.00054 0.00528058 -0.250917 0.00668662 1.02878 0.0803595 -0.00406601 -0.00443725 0.959098)
(0.999711 0.00273723 -0.256966 0.00414332 1.02961 0.0581847 -0.0036638 -0.00477474 0.959098)
(0.999341 8.93529e-05 -0.261059 0.00149547 1.02998 0.0355671 -0.00323369 -0.00507582 0.959098)
(0.999436 -0.00258252 -0.263166 -0.00117639 1.02988 0.0126791 -0.00277897 -0.00533831 0.959098)
(0.999993 -0.00519731 -0.263269 -0.00379119 1.02932 -0.0103056 -0.00230313 -0.00556022 0.959098)
(1.001 -0.00767559 -0.261369 -0.00626941 1.02832 -0.0332119 -0.00180974 -0.00573982 0.959098)
(1.00241 -0.00994201 -0.25748 -0.00853578 1.0269 -0.0558653 -0.00130263 -0.00587575 0.959098)
(1.0042 -0.0119277 -0.251631 -0.0105215 1.02511 -0.0780937 -0.000785561 -0.00596699 0.959098)
(1.00631 -0.0135723 -0.243868 -0.0121661 1.023 -0.0997277 -0.000262491 -0.00601276 0.959098)
(1.00867 -0.0148259 -0.234248 -0.0134197 1.02064 -0.120603 0.000262502 -0.0060127 0.959098)
(1.01122 -0.0156503 -0.222845 -0.0142442 1.0181 -0.14056 0.000785563 -0.00596693 0.959098)
(1.01387 -0.0160206 -0.209747 -0.0146145 1.01545 -0.159447 0.00130263 -0.00587573 0.959098)
(1.01654 -0.0159254 -0.195052 -0.0145194 1.01278 -0.177121 0.00180977 -0.00573985 0.959098)
(1.01915 -0.0153679 -0.178873 -0.0139618 1.01016 -0.193447 0.00230318 -0.00556034 0.959098)
(1.02163 -0.0143646 -0.161332 -0.0129586 1.00769 -0.208301 0.00277897 -0.00533835 0.959098)
(1.0239 -0.0129463 -0.142563 -0.0115402 1.00542 -0.221569 0.00323371 -0.00507584 0.959098)
(1.02588 -0.011156 -0.12271 -0.00974995 1.00343 -0.233151 0.00366384 -0.00477479 0.959098)
(1.02753 -0.00904812 -0.101923 -0.00764206 1.00179 -0.242959 0.00406603 -0.00443733 0.959098)
(1.02878 -0.00668662 -0.0803595 -0.00528058 1.00054 -0.250917 0.00443725 -0.00406601 0.959098)
(1.02961 -0.00414332 -0.0581847 -0.00273723 0.999711 -0.256966 0.00477474 -0.0036638 0.959098)
(1.02998 -0.00149547 -0.0355671 -8.93529e-05 0.999341 -0.261059 0.00507582 -0.00323369 0.959098)
(1.02988 0.00117639 -0.0126791 0.00258252 0.999436 -0.263166 0.00533831 -0.00277897 0.959098)
(1.02932 0.00379119 0.0103056 0.00519731 0.999993 -0.263269 0.00556022 -0.00230313 0.959098)
(1.02832 0.00626941 0.0332119 0.00767559 1.001 -0.261369 0.00573982 -0.00180974 0.959098)
(1.0269 0.00853578 0.0558653 0.00994201 1.00241 -0.25748 0.00587575 -0.00130263 0.959098)
(1.02511 0.0105215 0.0780937 0.0119277 1.0042 -0.251631 0.00596699 -0.000785561 0.959098)
(1.023 0.0121661 0.0997277 0.0135723 1.00631 -0.243868 0.00601276 -0.000262491 0.959098)
(1.02064 0.0134197 0.120603 0.0148259 1.00867 -0.234248 0.0060127 0.000262502 0.959098)
(1.0181 0.0142442 0.14056 0.0156503 1.01122 -0.222845 0.00596693 0.000785563 0.959098)
(1.01545 0.0146145 0.159447 0.0160206 1.01387 -0.209747 0.00587573 0.00130263 0.959098)
(1.01278 0.0145194 0.177121 0.0159254 1.01654 -0.195052 0.00573985 0.00180977 0.959098)
(1.01016 0.0139618 0.193447 0.0153679 1.01915 -0.178873 0.00556034 0.00230318 0.959098)
(1.00769 0.0129586 0.208301 0.0143646 1.02163 -0.161332 0.00533835 0.00277897 0.959098)
(1.00542 0.0115402 0.221569 0.0129463 1.0239 -0.142563 0.00507584 0.00323371 0.959098)
(1.00343 0.00974995 0.233151 0.011156 1.02588 -0.12271 0.00477479 0.00366384 0.959098)
(1.00179 0.00764206 0.242959 0.00904812 1.02753 -0.101923 0.00443733 0.00406603 0.959098)
(1.00054 0.00528058 0.250917 0.00668662 1.02878 -0.0803595 0.00406601 0.00443725 0.959098)
(0.999711 0.00273723 0.256966 0.00414332 1.02961 -0.0581847 0.0036638 0.00477474 0.959098)
(0.999341 8.93529e-05 0.261059 0.00149547 1.02998 -0.0355671 0.00323369 0.00507582 0.959098)
(0.999436 -0.00258252 0.263166 -0.00117639 1.02988 -0.0126791 0.00277897 0.00533831 0.959098)
(0.999993 -0.00519731 0.263269 -0.00379119 1.02932 0.0103056 0.00230313 0.00556022 0.959098)
(1.001 -0.00767559 0.261369 -0.00626941 1.02832 0.0332119 0.00180974 0.00573982 0.959098)
(1.00241 -0.00994201 0.25748 -0.00853578 1.0269 0.0558653 0.00130263 0.00587575 0.959098)
(1.0042 -0.0119277 0.251631 -0.0105215 1.02511 0.0780937 0.000785561 0.00596699 0.959098)
(1.00631 -0.0135723 0.243868 -0.0121661 1.023 0.0997277 0.000262491 0.00601276 0.959098)
(1.00867 -0.0148259 0.234248 -0.0134197 1.02064 0.120603 -0.000262502 0.0060127 0.959098)
(1.01122 -0.0156503 0.222845 -0.0142442 1.0181 0.14056 -0.000785563 0.00596693 0.959098)
(1.01387 -0.0160206 0.209747 -0.0146145 1.01545 0.159447 -0.00130263 0.00587573 0.959098)
(1.01654 -0.0159254 0.195052 -0.0145194 1.01278 0.177121 -0.00180977 0.00573985 0.959098)
(1.01915 -0.0153679 0.178873 -0.0139618 1.01016 0.193447 -0.00230318 0.00556034 0.959098)
(1.02163 -0.0143646 0.161332 -0.0129586 1.00769 0.208301 -0.00277897 0.00533835 0.959098)
(1.0239 -0.0129463 0.142563 -0.0115402 1.00542 0.221569 -0.00323371 0.00507584 0.959098)
(1.02588 -0.011156 0.12271 -0.00974995 1.00343 0.233151 -0.00366384 0.00477479 0.959098)
(1.02753 -0.00904812 0.101923 -0.00764206 1.00179 0.242959 -0.00406603 0.00443733 0.959098)
(1.02878 -0.00668662 0.0803595 -0.00528058 1.00054 0.250917 -0.00443725 0.00406601 0.959098)
(1.02961 -0.00414332 0.0581847 -0.00273723 0.999711 0.256966 -0.00477474 0.0036638 0.959098)
(1.02998 -0.00149547 0.0355671 -8.93529e-05 0.999341 0.261059 -0.00507582 0.00323369 0.959098)
(1.02988 0.00117639 0.0126791 0.00258252 0.999436 0.263166 -0.00533831 0.00277897 0.959098)
(1.02932 0.00379119 -0.0103056 0.00519731 0.999993 0.263269 -0.00556022 0.00230313 0.959098)
(1.02832 0.00626941 -0.0332119 0.00767559 1.001 0.261369 -0.00573982 0.00180974 0.959098)
(1.0269 0.00853578 -0.0558653 0.00994201 1.00241 0.25748 -0.00587575 0.00130263 0.959098)
(1.02511 0.0105215 -0.0780937 0.0119277 1.0042 0.251631 -0.00596699 0.000785561 0.959098)
(1.023 0.0121661 -0.0997277 0.0135723 1.00631 0.243868 -0.00601276 0.000262491 0.959098)
(1.02568 0.0152679 -0.104972 0.0135876 1.0077 0.247267 -0.0029769 -0.000129987 0.949691)
(1.02303 0.0166091 -0.126123 0.0149288 1.01035 0.237177 -0.00295419 -0.000388935 0.949691)
(1.0202 0.0174713 -0.146314 0.0157909 1.01318 0.225282 -0.00290911 -0.000644926 0.94969)
(1.01726 0.0178282 -0.165392 0.0161478 1.01612 0.211672 -0.00284189 -0.000896026 0.94969)
(1.0143 0.0176688 -0.183211 0.0159885 1.01908 0.196452 -0.002753 -0.00114034 0.94969)
(1.01141 0.0169981 -0.199636 0.0153178 1.02197 0.179737 -0.00264314 -0.00137592 0.94969)
(1.00869 0.0158365 -0.214541 0.0141562 1.02469 0.161653 -0.00251317 -0.00160107 0.94969)
(1.00621 0.0142193 -0.227814 0.012539 1.02717 0.14234 -0.00236406 -0.00181404 0.94969)
(1.00404 0.0121955 -0.239353 0.0105152 1.02934 0.121943 -0.0021969 -0.00201309 0.94969)
(1.00226 0.00982668 -0.24907 0.00814636 1.03112 0.100618 -0.00201309 -0.00219689 0.94969)
(1.00092 0.00718476 -0.256892 0.00550452 1.03246 0.078527 -0.00181401 -0.00236401 0.94969)
(1.00006 0.00435011 -0.262758 0.00266985 1.03332 0.0558386 -0.00160107 -0.00251315 0.94969)
(0.999702 0.00140883 -0.266625 -0.000271499 1.03368 0.0327252 -0.0013759 -0.00264312 0.94969)
(0.999861 -0.00154972 -0.268462 -0.00323006 1.03352 0.00936274 -0.0011403 -0.00275292 0.94969)
(1.00053 -0.00443573 -0.268257 -0.00611599 1.03285 -0.0140708 -0.000896032 -0.00284187 0.94969)
(1.00169 -0.00716145 -0.26601 -0.0088417 1.03169 -0.0373976 -0.000644934 -0.00290907 0.94969)
(1.00331 -0.00964394 -0.261738 -0.0113242 1.03007 -0.0604396 -0.000388942 -0.0029542 0.94969)
(1.00533 -0.0118079 -0.255474 -0.0134882 1.02804 -0.0830215 -0.000129954 -0.0029769 0.949691)
(1.0077 -0.0135876 -0.247267 -0.0152679 1.02568 -0.104972 0.000129987 -0.0029769 0.949691)
(1.01035 -0.0149288 -0.237177 -0.0166091 1.02303 -0.126123 0.000388935 -0.00295419 0.949691)
(1.01318 -0.0157909 -0.225282 -0.0174713 1.0202 -0.146314 0.000644926 -0.00290911 0.94969)
(1.01612 -0.0161478 -0.211672 -0.0178282 1.01726 -0.165392 0.000896026 -0.00284189 0.94969)
(1.01908 -0.0159885 -0.196452 -0.0176688 1.0143 -0.183211 0.00114034 -0.002753 0.94969)
(1.02197 -0.0153178 -0.179737 -0.0169981 1.01141 -0.199636 0.00137592 -0.00264314 0.94969)
(1.02469 -0.0141562 -0.161653 -0.0158365 1.00869 -0.214541 0.00160107 -0.00251317 0.94969)
(1.02717 -0.012539 -0.14234 -0.0142193 1.00621 -0.227814 0.00181404 -0.00236406 0.94969)
(1.02934 -0.0105152 -0.121943 -0.0121955 1.00404 -0.239353 0.00201309 -0.0021969 0.94969)
(1.03112 -0.00814636 -0.100618 -0.00982668 1.00226 -0.24907 0.00219689 -0.00201309 0.94969)
(1.03246 -0.00550452 -0.078527 -0.00718476 1.00092 -0.256892 0.00236401 -0.00181401 0.94969)
(1.03332 -0.00266985 -0.0558386 -0.00435011 1.00006 -0.262758 0.00251315 -0.00160107 0.94969)
(1.03368 0.000271499 -0.0327252 -0.00140883 0.999702 -0.266625 0.00264312 -0.0013759 0.94969)
(1.03352 0.00323006 -0.00936274 0.00154972 0.999861 -0.268462 0.00275292 -0.0011403 0.94969)
(1.03285 0.00611599 0.0140708 0.00443573 1.00053 -0.268257 0.00284187 -0.000896032 0.94969)
(1.03169 0.0088417 0.0373976 0.00716145 1.00169 -0.26601 0.00290907 -0.000644934 0.94969)
(1.03007 0.0113242 0.0604396 0.00964394 1.00331 -0.261738 0.0029542 -0.000388942 0.94969)
(1.02804 0.0134882 0.0830215 0.0118079 1.00533 -0.255474 0.0029769 -0.000129954 0.949691)
(1.02568 0.0152679 0.104972 0.0135876 1.0077 -0.247267 0.0029769 0.000129987 0.949691)
(1.02303 0.0166091 0.126123 0.0149288 1.01035 -0.237177 0.00295419 0.000388935 0.949691)
(1.0202 0.0174713 0.146314 0.0157909 1.01318 -0.225282 0.00290911 0.000644926 0.94969)
(1.01726 0.0178282 0.165392 0.0161478 1.01612 -0.211672 0.00284189 0.000896026 0.94969)
(1.0143 0.0176688 0.183211 0.0159885 1.01908 -0.196452 0.002753 0.00114034 0.94969)
(1.01141 0.0169981 0.199636 0.0153178 1.02197 -0.179737 0.00264314 0.00137592 0.94969)
(1.00869 0.0158365 0.214541 0.0141562 1.02469 -0.161653 0.00251317 0.00160107 0.94969)
(1.00621 0.0142193 0.227814 0.012539 1.02717 -0.14234 0.00236406 0.00181404 0.94969)
(1.00404 0.0121955 0.239353 0.0105152 1.02934 -0.121943 0.0021969 0.00201309 0.94969)
(1.00226 0.00982668 0.24907 0.00814636 1.03112 -0.100618 0.00201309 0.00219689 0.94969)
(1.00092 0.00718476 0.256892 0.00550452 1.03246 -0.078527 0.00181401 0.00236401 0.94969)
(1.00006 0.00435011 0.262758 0.00266985 1.03332 -0.0558386 0.00160107 0.00251315 0.94969)
(0.999702 0.00140883 0.266625 -0.000271499 1.03368 -0.0327252 0.0013759 0.00264312 0.94969)
(0.999861 -0.00154972 0.268462 -0.00323006 1.03352 -0.00936274 0.0011403 0.00275292 0.94969)
(1.00053 -0.00443573 0.268257 -0.00611599 1.03285 0.0140708 0.000896032 0.00284187 0.94969)
(1.00169 -0.00716145 0.26601 -0.0088417 1.03169 0.0373976 0.000644934 0.00290907 0.94969)
(1.00331 -0.00964394 0.261738 -0.0113242 1.03007 0.0604396 0.000388942 0.0029542 0.94969)
(1.00533 -0.0118079 0.255474 -0.0134882 1.02804 0.0830215 0.000129954 0.0029769 0.949691)
(1.0077 -0.0135876 0.247267 -0.0152679 1.02568 0.104972 -0.000129987 0.0029769 0.949691)
(1.01035 -0.0149288 0.237177 -0.0166091 1.02303 0.126123 -0.000388935 0.00295419 0.949691)
(1.01318 -0.0157909 0.225282 -0.0174713 1.0202 0.146314 -0.000644926 0.00290911 0.94969)
(1.01612 -0.0161478 0.211672 -0.0178282 1.01726 0.165392 -0.000896026 0.00284189 0.94969)
(1.01908 -0.0159885 0.196452 -0.0176688 1.0143 0.183211 -0.00114034 0.002753 0.94969)
(1.02197 -0.0153178 0.179737 -0.0169981 1.01141 0.199636 -0.00137592 0.00264314 0.94969)
(1.02469 -0.0141562 0.161653 -0.0158365 1.00869 0.214541 -0.00160107 0.00251317 0.94969)
(1.02717 -0.012539 0.14234 -0.0142193 1.00621 0.227814 -0.00181404 0.00236406 0.94969)
(1.02934 -0.0105152 0.121943 -0.0121955 1.00404 0.239353 -0.00201309 0.0021969 0.94969)
(1.03112 -0.00814636 0.100618 -0.00982668 1.00226 0.24907 -0.00219689 0.00201309 0.94969)
(1.03246 -0.00550452 0.078527 -0.00718476 1.00092 0.256892 -0.00236401 0.00181401 0.94969)
(1.03332 -0.00266985 0.0558386 -0.00435011 1.00006 0.262758 -0.00251315 0.00160107 0.94969)
(1.03368 0.000271499 0.0327252 -0.00140883 0.999702 0.266625 -0.00264312 0.0013759 0.94969)
(1.03352 0.00323006 0.00936274 0.00154972 0.999861 0.268462 -0.00275292 0.0011403 0.94969)
(1.03285 0.00611599 -0.0140708 0.00443573 1.00053 0.268257 -0.00284187 0.000896032 0.94969)
(1.03169 0.0088417 -0.0373976 0.00716145 1.00169 0.26601 -0.00290907 0.000644934 0.94969)
(1.03007 0.0113242 -0.0604396 0.00964394 1.00331 0.261738 -0.0029542 0.000388942 0.94969)
(1.02804 0.0134882 -0.0830215 0.0118079 1.00533 0.255474 -0.0029769 0.000129954 0.949691)
(1.03192 0.0172389 -0.0863603 0.0111982 1.00623 0.259005 -0.00303194 -0.000132381 0.942004)
(1.02926 0.0192533 -0.108605 0.0132126 1.0089 0.250492 -0.00300889 -0.000396129 0.942004)
(1.02628 0.0207745 -0.130024 0.0147337 1.01187 0.240074 -0.00296298 -0.000656828 0.942004)
(1.02309 0.0217561 -0.150453 0.0157155 1.01506 0.227828 -0.00289445 -0.000912526 0.942004)
(1.01978 0.0221685 -0.169737 0.0161279 1.01838 0.213848 -0.0028039 -0.00116143 0.942004)
(1.01644 0.0219991 -0.187729 0.0159585 1.02171 0.198241 -0.002692 -0.00140139 0.942004)
(1.01318 0.0212531 -0.204293 0.0152123 1.02497 0.181125 -0.00255961 -0.00163067 0.942004)
(1.01011 0.0199531 -0.219301 0.0139123 1.02804 0.16263 -0.00240771 -0.00184761 0.942004)
(1.0073 0.0181386 -0.232641 0.0120978 1.03085 0.142898 -0.00223743 -0.0020503 0.942004)
(1.00486 0.0158647 -0.24421 0.00982399 1.03329 0.122078 -0.00205032 -0.00223745 0.942004)
(1.00284 0.0132004 -0.25392 0.00715976 1.03531 0.100329 -0.00184758 -0.00240769 0.942004)
(1.00132 0.0102269 -0.261698 0.00418624 1.03683 0.0778169 -0.00163068 -0.00255961 0.942004)
(1.00034 0.00703453 -0.267485 0.000993801 1.03781 0.0547122 -0.00140133 -0.00269196 0.942004)
(0.999928 0.00372011 -0.271235 -0.00232056 1.03822 0.0311913 -0.0011614 -0.00280384 0.942004)
(1.0001 0.000384426 -0.272922 -0.00565626 1.03806 0.00743274 -0.00091254 -0.00289439 0.942004)
(1.00084 -0.00287125 -0.272531 -0.00891182 1.03731 -0.0163822 -0.00065684 -0.00296298 0.942004)
(1.00214 -0.00594783 -0.270066 -0.0119885 1.03601 -0.0400725 -0.000396135 -0.00300886 0.942004)
(1.00396 -0.00875188 -0.265546 -0.0147926 1.03419 -0.0634579 -0.000132365 -0.00303194 0.942004)
(1.00623 -0.0111982 -0.259005 -0.0172389 1.03192 -0.0863603 0.000132381 -0.00303194 0.942004)
(1.0089 -0.0132126 -0.250492 -0.0192533 1.02926 -0.108605 0.000396129 -0.00300889 0.942004)
(1.01187 -0.0147337 -0.240074 -0.0207744 1.02628 -0.130024 0.000656828 -0.00296298 0.942004)
(1.01506 -0.0157155 -0.227828 -0.0217561 1.02309 -0.150453 0.000912526 -0.00289445 0.942004)
(1.01838 -0.0161279 -0.213848 -0.0221685 1.01978 -0.169737 0.00116143 -0.0028039 0.942004)
(1.02171 -0.0159585 -0.198241 -0.0219991 1.01644 -0.187729 0.00140139 -0.002692 0.942004)
(1.02497 -0.0152123 -0.181125 -0.0212531 1.01318 -0.204293 0.00163067 -0.00255961 0.942004)
(1.02804 -0.0139123 -0.16263 -0.0199531 1.01011 -0.219301 0.00184761 -0.00240771 0.942004)
(1.03085 -0.0120978 -0.142898 -0.0181386 1.0073 -0.232641 0.0020503 -0.00223743 0.942004)
(1.03329 -0.00982399 -0.122078 -0.0158647 1.00486 -0.24421 0.00223745 -0.00205032 0.942004)
(1.03531 -0.00715976 -0.100329 -0.0132004 1.00284 -0.25392 0.00240769 -0.00184758 0.942004)
(1.03683 -0.00418624 -0.0778169 -0.0102269 1.00132 -0.261698 0.00255961 -0.00163068 0.942004)
(1.03781 -0.000993801 -0.0547122 -0.00703453 1.00034 -0.267485 0.00269196 -0.00140133 0.942004)
(1.03822 0.00232056 -0.0311913 -0.00372011 0.999928 -0.271235 0.00280384 -0.0011614 0.942004)
(1.03806 0.00565626 -0.00743274 -0.000384426 1.0001 -0.272922 0.00289439 -0.00091254 0.942004)
(1.03731 0.00891182 0.0163822 0.00287125 1.00084 -0.272531 0.00296298 -0.00065684 0.942004)
(1.03601 0.0119885 0.0400725 0.00594783 1.00214 -0.270066 0.00300886 -0.000396135 0.942004)
(1.03419 0.0147926 0.0634579 0.00875188 1.00396 -0.265546 0.00303194 -0.000132365 0.942004)
(1.03192 0.0172389 0.0863603 0.0111982 1.00623 -0.259005 0.00303194 0.000132381 0.942004)
(1.02926 0.0192533 0.108605 0.0132126 1.0089 -0.250492 0.00300889 0.000396129 0.942004)
(1.02628 0.0207744 0.130024 0.0147337 1.01187 -0.240074 0.00296298 0.000656828 0.942004)
(1.02309 0.0217561 0.150453 0.0157155 1.01506 -0.227828 0.00289445 0.000912526 0.942004)
(1.01978 0.0221685 0.169737 0.0161279 1.01838 -0.213848 0.0028039 0.00116143 0.942004)
(1.01644 0.0219991 0.187729 0.0159585 1.02171 -0.198241 0.002692 0.00140139 0.942004)
(1.01318 0.0212531 0.204293 0.0152123 1.02497 -0.181125 0.00255961 0.00163067 0.942004)
(1.01011 0.0199531 0.219301 0.0139123 1.02804 -0.16263 0.00240771 0.00184761 0.942004)
(1.0073 0.0181386 0.232641 0.0120978 1.03085 -0.142898 0.00223743 0.0020503 0.942004)
(1.00486 0.0158647 0.24421 0.00982399 1.03329 -0.122078 0.00205032 0.00223745 0.942004)
(1.00284 0.0132004 0.25392 0.00715976 1.03531 -0.100329 0.00184758 0.00240769 0.942004)
(1.00132 0.0102269 0.261698 0.00418624 1.03683 -0.0778169 0.00163068 0.00255961 0.942004)
(1.00034 0.00703453 0.267485 0.000993801 1.03781 -0.0547122 0.00140133 0.00269196 0.942004)
(0.999928 0.00372011 0.271235 -0.00232056 1.03822 -0.0311913 0.0011614 0.00280384 0.942004)
(1.0001 0.000384426 0.272922 -0.00565626 1.03806 -0.00743274 0.00091254 0.00289439 0.942004)
(1.00084 -0.00287125 0.272531 -0.00891182 1.03731 0.0163822 0.00065684 0.00296298 0.942004)
(1.00214 -0.00594783 0.270066 -0.0119885 1.03601 0.0400725 0.000396135 0.00300886 0.942004)
(1.00396 -0.00875188 0.265546 -0.0147926 1.03419 0.0634579 0.000132365 0.00303194 0.942004)
(1.00623 -0.0111982 0.259005 -0.0172389 1.03192 0.0863603 -0.000132381 0.00303194 0.942004)
(1.0089 -0.0132126 0.250492 -0.0192533 1.02926 0.108605 -0.000396129 0.00300889 0.942004)
(1.01187 -0.0147337 0.240074 -0.0207744 1.02628 0.130024 -0.000656828 0.00296298 0.942004)
(1.01506 -0.0157155 0.227828 -0.0217561 1.02309 0.150453 -0.000912526 0.00289445 0.942004)
(1.01838 -0.0161279 0.213848 -0.0221685 1.01978 0.169737 -0.00116143 0.0028039 0.942004)
(1.02171 -0.0159585 0.198241 -0.0219991 1.01644 0.187729 -0.00140139 0.002692 0.942004)
(1.02497 -0.0152123 0.181125 -0.0212531 1.01318 0.204293 -0.00163067 0.00255961 0.942004)
(1.02804 -0.0139123 0.16263 -0.0199531 1.01011 0.219301 -0.00184761 0.00240771 0.942004)
(1.03085 -0.0120978 0.142898 -0.0181386 1.0073 0.232641 -0.0020503 0.00223743 0.942004)
(1.03329 -0.00982399 0.122078 -0.0158647 1.00486 0.24421 -0.00223745 0.00205032 0.942004)
(1.03531 -0.00715976 0.100329 -0.0132004 1.00284 0.25392 -0.00240769 0.00184758 0.942004)
(1.03683 -0.00418624 0.0778169 -0.0102269 1.00132 0.261698 -0.00255961 0.00163068 0.942004)
(1.03781 -0.000993801 0.0547122 -0.00703453 1.00034 0.267485 -0.00269196 0.00140133 0.942004)
(1.03822 0.00232056 0.0311913 -0.00372011 0.999928 0.271235 -0.00280384 0.0011614 0.942004)
(1.03806 0.00565626 0.00743274 -0.000384426 1.0001 0.272922 -0.00289439 0.00091254 0.942004)
(1.03731 0.00891182 -0.0163822 0.00287125 1.00084 0.272531 -0.00296298 0.00065684 0.942004)
(1.03601 0.0119885 -0.0400725 0.00594783 1.00214 0.270066 -0.00300886 0.000396135 0.942004)
(1.03419 0.0147926 -0.0634579 0.00875188 1.00396 0.265546 -0.00303194 0.000132365 0.942004)
(1.04396 0.0194917 -0.0654835 0.00902018 1.00409 0.268797 -0.00395204 -0.000172544 0.935283)
(1.04118 0.0227365 -0.0886616 0.0122651 1.00687 0.262067 -0.00392208 -0.000516297 0.935283)
(1.03788 0.0254497 -0.111165 0.0149782 1.01017 0.253343 -0.00386212 -0.000856171 0.935283)
(1.03416 0.0275486 -0.132822 0.0170773 1.01389 0.24269 -0.00377262 -0.00118948 0.935283)
(1.03013 0.0289696 -0.153468 0.0184981 1.01792 0.23019 -0.00365453 -0.00151374 0.935283)
(1.02592 0.0296692 -0.172947 0.0191979 1.02214 0.215939 -0.00350879 -0.00182654 0.935283)
(1.02165 0.0296266 -0.191109 0.0191552 1.02641 0.200044 -0.0033362 -0.0021254 0.935283)
(1.01745 0.028843 -0.207817 0.0183714 1.03061 0.182626 -0.00313825 -0.00240826 0.935283)
(1.01345 0.0273421 -0.222943 0.0168707 1.03461 0.163819 -0.00291652 -0.00267263 0.935283)
(1.00977 0.0251695 -0.236372 0.0146979 1.03828 0.143765 -0.00267264 -0.00291652 0.935283)
(1.00653 0.0223908 -0.248003 0.0119195 1.04153 0.122616 -0.00240828 -0.00313831 0.935283)
(1.00381 0.0190912 -0.257746 0.00861984 1.04424 0.100535 -0.0021254 -0.00333625 0.935283)
(1.00171 0.0153707 -0.265527 0.00489924 1.04634 0.0776884 -0.00182643 -0.00350872 0.935283)
(1.00029 0.0113422 -0.271288 0.00087084 1.04776 0.0542505 -0.00151371 -0.00365448 0.935283)
(0.999594 0.00712817 -0.274984 -0.00334324 1.04846 0.0303998 -0.0011895 -0.00377248 0.935283)
(0.999637 0.00285648 -0.276587 -0.00761499 1.04842 0.00631774 -0.000856208 -0.00386212 0.935283)
(1.00042 -0.0013428 -0.276085 -0.0118143 1.04763 -0.0178125 -0.000516295 -0.00392204 0.935283)
(1.00192 -0.00534234 -0.273482 -0.0158137 1.04613 -0.041807 -0.000172538 -0.0039521 0.935283)
(1.00409 -0.00902018 -0.268797 -0.0194917 1.04396 -0.0654835 0.000172544 -0.00395204 0.935283)
(1.00687 -0.0122651 -0.262067 -0.0227365 1.04118 -0.0886616 0.000516297 -0.00392208 0.935283)
(1.01017 -0.0149782 -0.253343 -0.0254497 1.03788 -0.111165 0.000856171 -0.00386212 0.935283)
(1.01389 -0.0170773 -0.24269 -0.0275486 1.03416 -0.132822 0.00118948 -0.00377262 0.935283)
(1.01792 -0.0184981 -0.23019 -0.0289696 1.03013 -0.153468 0.00151374 -0.00365453 0.935283)
(1.02214 -0.0191979 -0.215939 -0.0296692 1.02592 -0.172947 0.00182654 -0.00350879 0.935283)
(1.02641 -0.0191552 -0.200044 -0.0296266 1.02165 -0.191109 0.0021254 -0.0033362 0.935283)
(1.03061 -0.0183714 -0.182626 -0.028843 1.01745 -0.207817 0.00240826 -0.00313825 0.935283)
(1.03461 -0.0168707 -0.163819 -0.0273421 1.01345 -0.222943 0.00267263 -0.00291652 0.935283)
(1.03828 -0.0146979 -0.143765 -0.0251695 1.00977 -0.236372 0.00291652 -0.00267264 0.935283)
(1.04153 -0.0119195 -0.122616 -0.0223908 1.00653 -0.248003 0.00313831 -0.00240828 0.935283)
(1.04424 -0.00861984 -0.100535 -0.0190912 1.00381 -0.257746 0.00333625 -0.0021254 0.935283)
(1.04634 -0.00489924 -0.0776884 -0.0153707 1.00171 -0.265527 0.00350872 -0.00182643 0.935283)