/*--------------------------------*- C++ -*----------------------------------*\
| =========                 |                                                 |
| \\      /  F ield         | OpenFOAM: The Open Source CFD Toolbox           |
|  \\    /   O peration     | Version:  2312                                  |
|   \\  /    A nd           | Website:  www.openfoam.com                      |
|    \\/     M anipulation  |                                                 |
\*---------------------------------------------------------------------------*/
FoamFile
{
    version     2.0;
    format      ascii;
    arch        "LSB;label=32;scalar=64";
    class       pointVectorField;
    location    "0.3";
    object      pointD;
}
// * * * * * * * * * * * * * * * * * * * * * * * * * * * * * * * * * * * * * //

dimensions      [0 1 0 0 0 0 0];

internalField   nonuniform List<vector> 
15127
(
(0 0 0)
(0 0 0)
(0 0 0)
(0 0 0)
(0 0 0)
(0 0 0)
(0 0 0)
(0 0 0)
(0 0 0)
(0 0 0)
(0 0 0)
(0 0 0)
(0 0 0)
(0 0 0)
(0 0 0)
(0 0 0)
(0 0 0)
(0 0 0)
(0 0 0)
(0 0 0)
(0 0 0)
(0 0 0)
(0 0 0)
(0 0 0)
(0 0 0)
(0 0 0)
(0 0 0)
(0 0 0)
(0 0 0)
(0 0 0)
(0 0 0)
(0 0 0)
(0 0 0)
(0 0 0)
(0 0 0)
(0 0 0)
(0 0 0)
(0 0 0)
(0 0 0)
(0 0 0)
(0 0 0)
(0 0 0)
(0 0 0)
(0 0 0)
(0 0 0)
(0 0 0)
(0 0 0)
(0 0 0)
(0 0 0)
(0 0 0)
(0 0 0)
(0 0 0)
(0 0 0)
(0 0 0)
(0 0 0)
(0 0 0)
(0 0 0)
(0 0 0)
(0 0 0)
(0 0 0)
(0 0 0)
(0 0 0)
(0 0 0)
(0 0 0)
(0 0 0)
(0 0 0)
(0 0 0)
(0 0 0)
(0 0 0)
(0 0 0)
(0 0 0)
(0 0 0)
(0.000162739 -0.000195652 1.1297e-05)
(0.000179172 -0.000180724 1.1297e-05)
(0.000194242 -0.00016442 1.12971e-05)
(0.000207832 -0.000146865 1.12969e-05)
(0.000219842 -0.000128193 1.1297e-05)
(0.000230178 -0.000108544 1.1297e-05)
(0.000238762 -8.80698e-05 1.1297e-05)
(0.00024553 -6.6925e-05 1.12967e-05)
(0.000250428 -4.52713e-05 1.12967e-05)
(0.000253421 -2.32725e-05 1.12968e-05)
(0.000254485 -1.09696e-06 1.12971e-05)
(0.000253612 2.10871e-05 1.12971e-05)
(0.000250809 4.31105e-05 1.12972e-05)
(0.000246097 6.48062e-05 1.12971e-05)
(0.000239512 8.60081e-05 1.12971e-05)
(0.000231105 0.000106556 1.12969e-05)
(0.000220939 0.000126292 1.1297e-05)
(0.000209091 0.000145068 1.12969e-05)
(0.000195652 0.000162739 1.1297e-05)
(0.000180724 0.000179172 1.1297e-05)
(0.00016442 0.000194242 1.12971e-05)
(0.000146865 0.000207832 1.12969e-05)
(0.000128193 0.000219842 1.1297e-05)
(0.000108544 0.000230178 1.1297e-05)
(8.80698e-05 0.000238762 1.1297e-05)
(6.6925e-05 0.00024553 1.12967e-05)
(4.52713e-05 0.000250428 1.12967e-05)
(2.32725e-05 0.000253421 1.12968e-05)
(1.09697e-06 0.000254485 1.12971e-05)
(-2.10871e-05 0.000253612 1.12971e-05)
(-4.31105e-05 0.000250809 1.12972e-05)
(-6.48062e-05 0.000246097 1.12971e-05)
(-8.60081e-05 0.000239512 1.12971e-05)
(-0.000106556 0.000231105 1.12969e-05)
(-0.000126292 0.000220939 1.1297e-05)
(-0.000145068 0.000209091 1.12969e-05)
(-0.000162739 0.000195652 1.1297e-05)
(-0.000179172 0.000180724 1.1297e-05)
(-0.000194242 0.00016442 1.12971e-05)
(-0.000207832 0.000146865 1.12969e-05)
(-0.000219842 0.000128193 1.1297e-05)
(-0.000230178 0.000108544 1.1297e-05)
(-0.000238762 8.80698e-05 1.1297e-05)
(-0.00024553 6.6925e-05 1.12967e-05)
(-0.000250428 4.52713e-05 1.12967e-05)
(-0.000253421 2.32725e-05 1.12968e-05)
(-0.000254485 1.09697e-06 1.12971e-05)
(-0.000253612 -2.10871e-05 1.12971e-05)
(-0.000250809 -4.31105e-05 1.12972e-05)
(-0.000246097 -6.48062e-05 1.12971e-05)
(-0.000239512 -8.60081e-05 1.12971e-05)
(-0.000231105 -0.000106556 1.12969e-05)
(-0.000220939 -0.000126292 1.1297e-05)
(-0.000209091 -0.000145068 1.12969e-05)
(-0.000195652 -0.000162739 1.1297e-05)
(-0.000180724 -0.000179172 1.1297e-05)
(-0.00016442 -0.000194242 1.12971e-05)
(-0.000146865 -0.000207832 1.12969e-05)
(-0.000128193 -0.000219842 1.1297e-05)
(-0.000108544 -0.000230178 1.1297e-05)
(-8.80698e-05 -0.000238762 1.1297e-05)
(-6.6925e-05 -0.00024553 1.12967e-05)
(-4.52713e-05 -0.000250428 1.12967e-05)
(-2.32725e-05 -0.000253421 1.12968e-05)
(-1.09696e-06 -0.000254485 1.12971e-05)
(2.10871e-05 -0.000253612 1.12971e-05)
(4.31105e-05 -0.000250809 1.12972e-05)
(6.48062e-05 -0.000246097 1.12971e-05)
(8.60081e-05 -0.000239512 1.12971e-05)
(0.000106556 -0.000231105 1.12969e-05)
(0.000126292 -0.000220939 1.1297e-05)
(0.000145068 -0.000209091 1.12969e-05)
(0.000149853 -0.000210966 2.17127e-05)
(0.00016767 -0.000197103 2.17127e-05)
(0.000184211 -0.00018174 2.17127e-05)
(0.00019935 -0.000164993 2.17126e-05)
(0.000212971 -0.000146991 2.17126e-05)
(0.000224972 -0.00012787 2.17126e-05)
(0.00023526 -0.000107776 2.17127e-05)
(0.000243758 -8.68611e-05 2.17125e-05)
(0.000250401 -6.52857e-05 2.17125e-05)
(0.000255138 -4.32136e-05 2.17126e-05)
(0.000257934 -2.08121e-05 2.17127e-05)
(0.000258766 1.74759e-06 2.17126e-05)
(0.000257629 2.42936e-05 2.17128e-05)
(0.000254531 4.66552e-05 2.17127e-05)
(0.000249496 6.86615e-05 2.17128e-05)
(0.000242563 9.01452e-05 2.17127e-05)
(0.000233783 0.000110943 2.17127e-05)
(0.000223224 0.000130896 2.17127e-05)
(0.000210966 0.000149853 2.17127e-05)
(0.000197103 0.00016767 2.17127e-05)
(0.00018174 0.000184211 2.17127e-05)
(0.000164993 0.00019935 2.17126e-05)
(0.000146991 0.000212971 2.17126e-05)
(0.00012787 0.000224972 2.17126e-05)
(0.000107776 0.00023526 2.17127e-05)
(8.68611e-05 0.000243758 2.17125e-05)
(6.52857e-05 0.000250401 2.17125e-05)
(4.32136e-05 0.000255138 2.17126e-05)
(2.08121e-05 0.000257934 2.17127e-05)
(-1.74759e-06 0.000258766 2.17126e-05)
(-2.42936e-05 0.000257629 2.17128e-05)
(-4.66552e-05 0.000254531 2.17127e-05)
(-6.86615e-05 0.000249496 2.17128e-05)
(-9.01452e-05 0.000242563 2.17127e-05)
(-0.000110943 0.000233783 2.17127e-05)
(-0.000130896 0.000223224 2.17127e-05)
(-0.000149853 0.000210966 2.17127e-05)
(-0.00016767 0.000197103 2.17127e-05)
(-0.000184211 0.00018174 2.17127e-05)
(-0.00019935 0.000164993 2.17126e-05)
(-0.000212971 0.000146991 2.17126e-05)
(-0.000224972 0.00012787 2.17126e-05)
(-0.00023526 0.000107776 2.17127e-05)
(-0.000243758 8.68611e-05 2.17125e-05)
(-0.000250401 6.52857e-05 2.17125e-05)
(-0.000255138 4.32136e-05 2.17126e-05)
(-0.000257934 2.08121e-05 2.17127e-05)
(-0.000258766 -1.74759e-06 2.17126e-05)
(-0.000257629 -2.42936e-05 2.17128e-05)
(-0.000254531 -4.66552e-05 2.17127e-05)
(-0.000249496 -6.86615e-05 2.17128e-05)
(-0.000242563 -9.01452e-05 2.17127e-05)
(-0.000233783 -0.000110943 2.17127e-05)
(-0.000223224 -0.000130896 2.17127e-05)
(-0.000210966 -0.000149853 2.17127e-05)
(-0.000197103 -0.00016767 2.17127e-05)
(-0.00018174 -0.000184211 2.17127e-05)
(-0.000164993 -0.00019935 2.17126e-05)
(-0.000146991 -0.000212971 2.17126e-05)
(-0.00012787 -0.000224972 2.17126e-05)
(-0.000107776 -0.00023526 2.17127e-05)
(-8.68611e-05 -0.000243758 2.17125e-05)
(-6.52857e-05 -0.000250401 2.17125e-05)
(-4.32136e-05 -0.000255138 2.17126e-05)
(-2.08121e-05 -0.000257934 2.17127e-05)
(1.74759e-06 -0.000258766 2.17126e-05)
(2.42936e-05 -0.000257629 2.17128e-05)
(4.66552e-05 -0.000254531 2.17127e-05)
(6.86615e-05 -0.000249496 2.17128e-05)
(9.01452e-05 -0.000242563 2.17127e-05)
(0.000110943 -0.000233783 2.17127e-05)
(0.000130896 -0.000223224 2.17127e-05)
(0 0 0)
(0 0 0)
(0 0 0)
(0 0 0)
(0 0 0)
(0 0 0)
(0 0 0)
(0 0 0)
(0 0 0)
(0 0 0)
(0 0 0)
(0 0 0)
(0 0 0)
(0 0 0)
(0 0 0)
(0 0 0)
(0 0 0)
(0 0 0)
(0 0 0)
(0 0 0)
(0 0 0)
(0 0 0)
(0 0 0)
(0 0 0)
(0 0 0)
(0 0 0)
(0 0 0)
(0 0 0)
(0 0 0)
(0 0 0)
(0 0 0)
(0 0 0)
(0 0 0)
(0 0 0)
(0 0 0)
(0 0 0)
(0 0 0)
(0 0 0)
(0 0 0)
(0 0 0)
(0 0 0)
(0 0 0)
(0 0 0)
(0 0 0)
(0 0 0)
(0 0 0)
(0 0 0)
(0 0 0)
(0 0 0)
(0 0 0)
(0 0 0)
(0 0 0)
(0 0 0)
(0 0 0)
(0 0 0)
(0 0 0)
(0 0 0)
(0 0 0)
(0 0 0)
(0 0 0)
(0 0 0)
(0 0 0)
(0 0 0)
(0 0 0)
(0 0 0)
(0 0 0)
(0 0 0)
(0 0 0)
(0 0 0)
(0 0 0)
(0 0 0)
(0 0 0)
(0.000134491 -0.000226509 3.00616e-05)
(0.000153721 -0.000213925 3.00616e-05)
(0.000171781 -0.000199714 3.00618e-05)
(0.000188533 -0.000183982 3.00617e-05)
(0.000203851 -0.00016685 3.00617e-05)
(0.000217617 -0.000148449 3.00618e-05)
(0.000229727 -0.000128917 3.00617e-05)
(0.000240089 -0.000108404 3.00617e-05)
(0.000248623 -8.70666e-05 3.00617e-05)
(0.000255265 -6.50665e-05 3.00617e-05)
(0.000259965 -4.25708e-05 3.00617e-05)
(0.000262686 -1.97516e-05 3.00618e-05)
(0.000263408 3.21848e-06 3.00617e-05)
(0.000262125 2.61638e-05 3.00617e-05)
(0.000258847 4.89096e-05 3.00619e-05)
(0.000253599 7.12839e-05 3.00617e-05)
(0.000246422 9.31152e-05 3.00617e-05)
(0.000237368 0.000114238 3.00616e-05)
(0.000226509 0.000134491 3.00616e-05)
(0.000213925 0.000153721 3.00616e-05)
(0.000199714 0.000171781 3.00618e-05)
(0.000183982 0.000188533 3.00617e-05)
(0.00016685 0.000203851 3.00617e-05)
(0.000148449 0.000217617 3.00618e-05)
(0.000128917 0.000229727 3.00617e-05)
(0.000108404 0.000240089 3.00617e-05)
(8.70666e-05 0.000248623 3.00617e-05)
(6.50665e-05 0.000255265 3.00617e-05)
(4.25708e-05 0.000259965 3.00617e-05)
(1.97516e-05 0.000262686 3.00618e-05)
(-3.21848e-06 0.000263408 3.00617e-05)
(-2.61638e-05 0.000262125 3.00617e-05)
(-4.89096e-05 0.000258847 3.00619e-05)
(-7.12839e-05 0.000253599 3.00617e-05)
(-9.31152e-05 0.000246422 3.00617e-05)
(-0.000114238 0.000237368 3.00616e-05)
(-0.000134491 0.000226509 3.00616e-05)
(-0.000153721 0.000213925 3.00616e-05)
(-0.000171781 0.000199714 3.00618e-05)
(-0.000188533 0.000183982 3.00617e-05)
(-0.000203851 0.00016685 3.00617e-05)
(-0.000217617 0.000148449 3.00618e-05)
(-0.000229727 0.000128917 3.00617e-05)
(-0.000240089 0.000108404 3.00617e-05)
(-0.000248623 8.70666e-05 3.00617e-05)
(-0.000255265 6.50665e-05 3.00617e-05)
(-0.000259965 4.25708e-05 3.00617e-05)
(-0.000262686 1.97516e-05 3.00618e-05)
(-0.000263408 -3.21848e-06 3.00617e-05)
(-0.000262125 -2.61638e-05 3.00617e-05)
(-0.000258847 -4.89096e-05 3.00619e-05)
(-0.000253599 -7.12839e-05 3.00617e-05)
(-0.000246422 -9.31152e-05 3.00617e-05)
(-0.000237368 -0.000114238 3.00616e-05)
(-0.000226509 -0.000134491 3.00616e-05)
(-0.000213925 -0.000153721 3.00616e-05)
(-0.000199714 -0.000171781 3.00618e-05)
(-0.000183982 -0.000188533 3.00617e-05)
(-0.00016685 -0.000203851 3.00617e-05)
(-0.000148449 -0.000217617 3.00618e-05)
(-0.000128917 -0.000229727 3.00617e-05)
(-0.000108404 -0.000240089 3.00617e-05)
(-8.70666e-05 -0.000248623 3.00617e-05)
(-6.50665e-05 -0.000255265 3.00617e-05)
(-4.25708e-05 -0.000259965 3.00617e-05)
(-1.97516e-05 -0.000262686 3.00618e-05)
(3.21848e-06 -0.000263408 3.00617e-05)
(2.61638e-05 -0.000262125 3.00617e-05)
(4.89096e-05 -0.000258847 3.00619e-05)
(7.12839e-05 -0.000253599 3.00617e-05)
(9.31152e-05 -0.000246422 3.00617e-05)
(0.000114238 -0.000237368 3.00616e-05)
(0 0 0)
(0 0 0)
(0 0 0)
(0 0 0)
(0 0 0)
(0 0 0)
(0 0 0)
(0 0 0)
(0 0 0)
(0 0 0)
(0 0 0)
(0 0 0)
(0 0 0)
(0 0 0)
(0 0 0)
(0 0 0)
(0 0 0)
(0 0 0)
(0 0 0)
(0 0 0)
(0 0 0)
(0 0 0)
(0 0 0)
(0 0 0)
(0 0 0)
(0 0 0)
(0 0 0)
(0 0 0)
(0 0 0)
(0 0 0)
(0 0 0)
(0 0 0)
(0 0 0)
(0 0 0)
(0 0 0)
(0 0 0)
(0 0 0)
(0 0 0)
(0 0 0)
(0 0 0)
(0 0 0)
(0 0 0)
(0 0 0)
(0 0 0)
(0 0 0)
(0 0 0)
(0 0 0)
(0 0 0)
(0 0 0)
(0 0 0)
(0 0 0)
(0 0 0)
(0 0 0)
(0 0 0)
(0 0 0)
(0 0 0)
(0 0 0)
(0 0 0)
(0 0 0)
(0 0 0)
(0 0 0)
(0 0 0)
(0 0 0)
(0 0 0)
(0 0 0)
(0 0 0)
(0 0 0)
(0 0 0)
(0 0 0)
(0 0 0)
(0 0 0)
(0 0 0)
(0.000113759 -0.000241271 3.51418e-05)
(0.000134354 -0.000230438 3.51418e-05)
(0.000153927 -0.000217852 3.51418e-05)
(0.000172328 -0.000203607 3.51419e-05)
(0.000189418 -0.000187813 3.51419e-05)
(0.000205066 -0.00017059 3.51419e-05)
(0.000219153 -0.000152068 3.51419e-05)
(0.000231573 -0.000132389 3.51419e-05)
(0.00024223 -0.000111702 3.51418e-05)
(0.000251044 -9.01651e-05 3.51419e-05)
(0.000257947 -6.79418e-05 3.51418e-05)
(0.000262887 -4.5202e-05 3.5142e-05)
(0.000265826 -2.21177e-05 3.51419e-05)
(0.000266742 1.13456e-06 3.51419e-05)
(0.000265628 2.43787e-05 3.51418e-05)
(0.000262493 4.74367e-05 3.51419e-05)
(0.00025736 7.01341e-05 3.51418e-05)
(0.000250268 9.22977e-05 3.51418e-05)
(0.000241271 0.000113759 3.51418e-05)
(0.000230438 0.000134354 3.51418e-05)
(0.000217852 0.000153927 3.51418e-05)
(0.000203607 0.000172328 3.51419e-05)
(0.000187813 0.000189418 3.51419e-05)
(0.00017059 0.000205066 3.51419e-05)
(0.000152068 0.000219153 3.51419e-05)
(0.000132389 0.000231573 3.51419e-05)
(0.000111702 0.00024223 3.51418e-05)
(9.01651e-05 0.000251044 3.51419e-05)
(6.79418e-05 0.000257947 3.51418e-05)
(4.5202e-05 0.000262887 3.5142e-05)
(2.21177e-05 0.000265826 3.51419e-05)
(-1.13456e-06 0.000266742 3.51419e-05)
(-2.43787e-05 0.000265628 3.51418e-05)
(-4.74367e-05 0.000262493 3.51419e-05)
(-7.01341e-05 0.00025736 3.51418e-05)
(-9.22977e-05 0.000250268 3.51418e-05)
(-0.000113759 0.000241271 3.51418e-05)
(-0.000134354 0.000230438 3.51418e-05)
(-0.000153927 0.000217852 3.51418e-05)
(-0.000172328 0.000203607 3.51419e-05)
(-0.000189418 0.000187813 3.51419e-05)
(-0.000205066 0.00017059 3.51419e-05)
(-0.000219153 0.000152068 3.51419e-05)
(-0.000231573 0.000132389 3.51419e-05)
(-0.00024223 0.000111702 3.51418e-05)
(-0.000251044 9.01651e-05 3.51419e-05)
(-0.000257947 6.79418e-05 3.51418e-05)
(-0.000262887 4.5202e-05 3.5142e-05)
(-0.000265826 2.21177e-05 3.51419e-05)
(-0.000266742 -1.13456e-06 3.51419e-05)
(-0.000265628 -2.43787e-05 3.51418e-05)
(-0.000262493 -4.74367e-05 3.51419e-05)
(-0.00025736 -7.01341e-05 3.51418e-05)
(-0.000250268 -9.22977e-05 3.51418e-05)
(-0.000241271 -0.000113759 3.51418e-05)
(-0.000230438 -0.000134354 3.51418e-05)
(-0.000217852 -0.000153927 3.51418e-05)
(-0.000203607 -0.000172328 3.51419e-05)
(-0.000187813 -0.000189418 3.51419e-05)
(-0.00017059 -0.000205066 3.51419e-05)
(-0.000152068 -0.000219153 3.51419e-05)
(-0.000132389 -0.000231573 3.51419e-05)
(-0.000111702 -0.00024223 3.51418e-05)
(-9.01651e-05 -0.000251044 3.51419e-05)
(-6.79418e-05 -0.000257947 3.51418e-05)
(-4.5202e-05 -0.000262887 3.5142e-05)
(-2.21177e-05 -0.000265826 3.51419e-05)
(1.13456e-06 -0.000266742 3.51419e-05)
(2.43787e-05 -0.000265628 3.51418e-05)
(4.74367e-05 -0.000262493 3.51419e-05)
(7.01341e-05 -0.00025736 3.51418e-05)
(9.22977e-05 -0.000250268 3.51418e-05)
(0 0 0)
(0 0 0)
(0 0 0)
(0 0 0)
(0 0 0)
(0 0 0)
(0 0 0)
(0 0 0)
(0 0 0)
(0 0 0)
(0 0 0)
(0 0 0)
(0 0 0)
(0 0 0)
(0 0 0)
(0 0 0)
(0 0 0)
(0 0 0)
(0 0 0)
(0 0 0)
(0 0 0)
(0 0 0)
(0 0 0)
(0 0 0)
(0 0 0)
(0 0 0)
(0 0 0)
(0 0 0)
(0 0 0)
(0 0 0)
(0 0 0)
(0 0 0)
(0 0 0)
(0 0 0)
(0 0 0)
(0 0 0)
(0 0 0)
(0 0 0)
(0 0 0)
(0 0 0)
(0 0 0)
(0 0 0)
(0 0 0)
(0 0 0)
(0 0 0)
(0 0 0)
(0 0 0)
(0 0 0)
(0 0 0)
(0 0 0)
(0 0 0)
(0 0 0)
(0 0 0)
(0 0 0)
(0 0 0)
(0 0 0)
(0 0 0)
(0 0 0)
(0 0 0)
(0 0 0)
(0 0 0)
(0 0 0)
(0 0 0)
(0 0 0)
(0 0 0)
(0 0 0)
(0 0 0)
(0 0 0)
(0 0 0)
(0 0 0)
(0 0 0)
(0 0 0)
(8.88793e-05 -0.000253836 3.98165e-05)
(0.000110664 -0.000245123 3.98165e-05)
(0.000131607 -0.000234546 3.98166e-05)
(0.000151548 -0.000222183 3.98166e-05)
(0.000170336 -0.000208129 3.98166e-05)
(0.000187827 -0.000192491 3.98166e-05)
(0.000203889 -0.000175389 3.98166e-05)
(0.0002184 -0.000156951 3.98165e-05)
(0.000231248 -0.000137319 3.98166e-05)
(0.000242336 -0.000116642 3.98165e-05)
(0.00025158 -9.50771e-05 3.98166e-05)
(0.000258909 -7.27889e-05 3.98166e-05)
(0.000264268 -4.99459e-05 3.98166e-05)
(0.000267615 -2.67235e-05 3.98165e-05)
(0.000268926 -3.2981e-06 3.98166e-05)
(0.00026819 2.01531e-05 3.98166e-05)
(0.000265413 4.34509e-05 3.98165e-05)
(0.000260616 6.64178e-05 3.98165e-05)
(0.000253836 8.88793e-05 3.98165e-05)
(0.000245123 0.000110664 3.98165e-05)
(0.000234546 0.000131607 3.98166e-05)
(0.000222183 0.000151548 3.98166e-05)
(0.000208129 0.000170336 3.98166e-05)
(0.000192491 0.000187827 3.98166e-05)
(0.000175389 0.000203889 3.98166e-05)
(0.000156951 0.0002184 3.98165e-05)
(0.000137319 0.000231248 3.98166e-05)
(0.000116642 0.000242336 3.98165e-05)
(9.50771e-05 0.00025158 3.98166e-05)
(7.27889e-05 0.000258909 3.98166e-05)
(4.99459e-05 0.000264268 3.98166e-05)
(2.67235e-05 0.000267615 3.98165e-05)
(3.29811e-06 0.000268926 3.98166e-05)
(-2.01531e-05 0.00026819 3.98166e-05)
(-4.34509e-05 0.000265413 3.98165e-05)
(-6.64178e-05 0.000260616 3.98165e-05)
(-8.88793e-05 0.000253836 3.98165e-05)
(-0.000110664 0.000245123 3.98165e-05)
(-0.000131607 0.000234546 3.98166e-05)
(-0.000151548 0.000222183 3.98166e-05)
(-0.000170336 0.000208129 3.98166e-05)
(-0.000187827 0.000192491 3.98166e-05)
(-0.000203889 0.000175389 3.98166e-05)
(-0.0002184 0.000156951 3.98165e-05)
(-0.000231248 0.000137319 3.98166e-05)
(-0.000242336 0.000116642 3.98165e-05)
(-0.00025158 9.50771e-05 3.98166e-05)
(-0.000258909 7.27889e-05 3.98166e-05)
(-0.000264268 4.99459e-05 3.98166e-05)
(-0.000267615 2.67235e-05 3.98165e-05)
(-0.000268926 3.29811e-06 3.98166e-05)
(-0.00026819 -2.01531e-05 3.98166e-05)
(-0.000265413 -4.34509e-05 3.98165e-05)
(-0.000260616 -6.64178e-05 3.98165e-05)
(-0.000253836 -8.88793e-05 3.98165e-05)
(-0.000245123 -0.000110664 3.98165e-05)
(-0.000234546 -0.000131607 3.98166e-05)
(-0.000222183 -0.000151548 3.98166e-05)
(-0.000208129 -0.000170336 3.98166e-05)
(-0.000192491 -0.000187827 3.98166e-05)
(-0.000175389 -0.000203889 3.98166e-05)
(-0.000156951 -0.0002184 3.98165e-05)
(-0.000137319 -0.000231248 3.98166e-05)
(-0.000116642 -0.000242336 3.98165e-05)
(-9.50771e-05 -0.00025158 3.98166e-05)
(-7.27889e-05 -0.000258909 3.98166e-05)
(-4.99459e-05 -0.000264268 3.98166e-05)
(-2.67235e-05 -0.000267615 3.98165e-05)
(-3.2981e-06 -0.000268926 3.98166e-05)
(2.01531e-05 -0.00026819 3.98166e-05)
(4.34509e-05 -0.000265413 3.98165e-05)
(6.64178e-05 -0.000260616 3.98165e-05)
(0 0 0)
(0 0 0)
(0 0 0)
(0 0 0)
(0 0 0)
(0 0 0)
(0 0 0)
(0 0 0)
(0 0 0)
(0 0 0)
(0 0 0)
(0 0 0)
(0 0 0)
(0 0 0)
(0 0 0)
(0 0 0)
(0 0 0)
(0 0 0)
(0 0 0)
(0 0 0)
(0 0 0)
(0 0 0)
(0 0 0)
(0 0 0)
(0 0 0)
(0 0 0)
(0 0 0)
(0 0 0)
(0 0 0)
(0 0 0)
(0 0 0)
(0 0 0)
(0 0 0)
(0 0 0)
(0 0 0)
(0 0 0)
(0 0 0)
(0 0 0)
(0 0 0)
(0 0 0)
(0 0 0)
(0 0 0)
(0 0 0)
(0 0 0)
(0 0 0)
(0 0 0)
(0 0 0)
(0 0 0)
(0 0 0)
(0 0 0)
(0 0 0)
(0 0 0)
(0 0 0)
(0 0 0)
(0 0 0)
(0 0 0)
(0 0 0)
(0 0 0)
(0 0 0)
(0 0 0)
(0 0 0)
(0 0 0)
(0 0 0)
(0 0 0)
(0 0 0)
(0 0 0)
(0 0 0)
(0 0 0)
(0 0 0)
(0 0 0)
(0 0 0)
(0 0 0)
(5.69823e-05 -0.000264202 4.5315e-05)
(7.97923e-05 -0.00025823 4.53151e-05)
(0.000101995 -0.000250293 4.53151e-05)
(0.000123422 -0.000240451 4.53151e-05)
(0.000143909 -0.000228779 4.5315e-05)
(0.0001633 -0.000215366 4.5315e-05)
(0.000181449 -0.000200314 4.5315e-05)
(0.000198217 -0.000183738 4.5315e-05)
(0.000213477 -0.000165763 4.5315e-05)
(0.000227112 -0.000146526 4.5315e-05)
(0.000239018 -0.000126174 4.5315e-05)
(0.000249105 -0.000104862 4.53149e-05)
(0.000257297 -8.27525e-05 4.53149e-05)
(0.00026353 -6.00127e-05 4.53149e-05)
(0.000267758 -3.68162e-05 4.5315e-05)
(0.000269948 -1.33399e-05 4.5315e-05)
(0.000270083 1.02384e-05 4.5315e-05)
(0.000268163 3.37392e-05 4.5315e-05)
(0.000264202 5.69823e-05 4.5315e-05)
(0.00025823 7.97923e-05 4.53151e-05)
(0.000250293 0.000101995 4.53151e-05)
(0.000240451 0.000123422 4.53151e-05)
(0.000228779 0.000143909 4.5315e-05)
(0.000215366 0.0001633 4.5315e-05)
(0.000200314 0.000181449 4.5315e-05)
(0.000183738 0.000198217 4.5315e-05)
(0.000165763 0.000213477 4.5315e-05)
(0.000146526 0.000227112 4.5315e-05)
(0.000126174 0.000239018 4.5315e-05)
(0.000104862 0.000249105 4.53149e-05)
(8.27525e-05 0.000257297 4.53149e-05)
(6.00127e-05 0.00026353 4.53149e-05)
(3.68162e-05 0.000267758 4.5315e-05)
(1.33399e-05 0.000269948 4.5315e-05)
(-1.02384e-05 0.000270083 4.5315e-05)
(-3.37392e-05 0.000268163 4.5315e-05)
(-5.69823e-05 0.000264202 4.5315e-05)
(-7.97923e-05 0.00025823 4.53151e-05)
(-0.000101995 0.000250293 4.53151e-05)
(-0.000123422 0.000240451 4.53151e-05)
(-0.000143909 0.000228779 4.5315e-05)
(-0.0001633 0.000215366 4.5315e-05)
(-0.000181449 0.000200314 4.5315e-05)
(-0.000198217 0.000183738 4.5315e-05)
(-0.000213477 0.000165763 4.5315e-05)
(-0.000227112 0.000146526 4.5315e-05)
(-0.000239018 0.000126174 4.5315e-05)
(-0.000249105 0.000104862 4.53149e-05)
(-0.000257297 8.27525e-05 4.53149e-05)
(-0.00026353 6.00127e-05 4.53149e-05)
(-0.000267758 3.68162e-05 4.5315e-05)
(-0.000269948 1.33399e-05 4.5315e-05)
(-0.000270083 -1.02384e-05 4.5315e-05)
(-0.000268163 -3.37392e-05 4.5315e-05)
(-0.000264202 -5.69823e-05 4.5315e-05)
(-0.00025823 -7.97923e-05 4.53151e-05)
(-0.000250293 -0.000101995 4.53151e-05)
(-0.000240451 -0.000123422 4.53151e-05)
(-0.000228779 -0.000143909 4.5315e-05)
(-0.000215366 -0.0001633 4.5315e-05)
(-0.000200314 -0.000181449 4.5315e-05)
(-0.000183738 -0.000198217 4.5315e-05)
(-0.000165763 -0.000213477 4.5315e-05)
(-0.000146526 -0.000227112 4.5315e-05)
(-0.000126174 -0.000239018 4.5315e-05)
(-0.000104862 -0.000249105 4.53149e-05)
(-8.27525e-05 -0.000257297 4.53149e-05)
(-6.00127e-05 -0.00026353 4.53149e-05)
(-3.68162e-05 -0.000267758 4.5315e-05)
(-1.33399e-05 -0.000269948 4.5315e-05)
(1.02384e-05 -0.000270083 4.5315e-05)
(3.37392e-05 -0.000268163 4.5315e-05)
(0 0 0)
(0 0 0)
(0 0 0)
(0 0 0)
(0 0 0)
(0 0 0)
(0 0 0)
(0 0 0)
(0 0 0)
(0 0 0)
(0 0 0)
(0 0 0)
(0 0 0)
(0 0 0)
(0 0 0)
(0 0 0)
(0 0 0)
(0 0 0)
(0 0 0)
(0 0 0)
(0 0 0)
(0 0 0)
(0 0 0)
(0 0 0)
(0 0 0)
(0 0 0)
(0 0 0)
(0 0 0)
(0 0 0)
(0 0 0)
(0 0 0)
(0 0 0)
(0 0 0)
(0 0 0)
(0 0 0)
(0 0 0)
(0 0 0)
(0 0 0)
(0 0 0)
(0 0 0)
(0 0 0)
(0 0 0)
(0 0 0)
(0 0 0)
(0 0 0)
(0 0 0)
(0 0 0)
(0 0 0)
(0 0 0)
(0 0 0)
(0 0 0)
(0 0 0)
(0 0 0)
(0 0 0)
(0 0 0)
(0 0 0)
(0 0 0)
(0 0 0)
(0 0 0)
(0 0 0)
(0 0 0)
(0 0 0)
(0 0 0)
(0 0 0)
(0 0 0)
(0 0 0)
(0 0 0)
(0 0 0)
(0 0 0)
(0 0 0)
(0 0 0)
(0 0 0)
(2.11545e-05 -0.000273646 5.11045e-05)
(4.49237e-05 -0.000270761 5.11046e-05)
(6.83513e-05 -0.000265815 5.11045e-05)
(9.12582e-05 -0.000258847 5.11046e-05)
(0.000113471 -0.000249908 5.11044e-05)
(0.00013482 -0.000239067 5.11044e-05)
(0.000155143 -0.000226407 5.11044e-05)
(0.000174285 -0.000212024 5.11044e-05)
(0.000192101 -0.000196027 5.11045e-05)
(0.000208455 -0.000178538 5.11044e-05)
(0.000223223 -0.000159691 5.11044e-05)
(0.000236291 -0.000139628 5.11043e-05)
(0.000247561 -0.000118502 5.11041e-05)
(0.000256947 -9.64758e-05 5.11043e-05)
(0.000264378 -7.37138e-05 5.11043e-05)
(0.000269797 -5.03912e-05 5.11044e-05)
(0.000273162 -2.66849e-05 5.11045e-05)
(0.000274448 -2.77634e-06 5.11046e-05)
(0.000273646 2.11545e-05 5.11045e-05)
(0.000270761 4.49237e-05 5.11046e-05)
(0.000265815 6.83513e-05 5.11045e-05)
(0.000258847 9.12582e-05 5.11046e-05)
(0.000249908 0.000113471 5.11044e-05)
(0.000239067 0.00013482 5.11044e-05)
(0.000226407 0.000155143 5.11044e-05)
(0.000212024 0.000174285 5.11044e-05)
(0.000196027 0.000192101 5.11045e-05)
(0.000178538 0.000208455 5.11044e-05)
(0.000159691 0.000223223 5.11044e-05)
(0.000139628 0.000236291 5.11043e-05)
(0.000118502 0.000247561 5.11041e-05)
(9.64758e-05 0.000256947 5.11043e-05)
(7.37138e-05 0.000264378 5.11043e-05)
(5.03912e-05 0.000269797 5.11044e-05)
(2.66849e-05 0.000273162 5.11045e-05)
(2.77634e-06 0.000274448 5.11046e-05)
(-2.11545e-05 0.000273646 5.11045e-05)
(-4.49237e-05 0.000270761 5.11046e-05)
(-6.83513e-05 0.000265815 5.11045e-05)
(-9.12582e-05 0.000258847 5.11046e-05)
(-0.000113471 0.000249908 5.11044e-05)
(-0.00013482 0.000239067 5.11044e-05)
(-0.000155143 0.000226407 5.11044e-05)
(-0.000174285 0.000212024 5.11044e-05)
(-0.000192101 0.000196027 5.11045e-05)
(-0.000208455 0.000178538 5.11044e-05)
(-0.000223223 0.000159691 5.11044e-05)
(-0.000236291 0.000139628 5.11043e-05)
(-0.000247561 0.000118502 5.11041e-05)
(-0.000256947 9.64758e-05 5.11043e-05)
(-0.000264378 7.37138e-05 5.11043e-05)
(-0.000269797 5.03912e-05 5.11044e-05)
(-0.000273162 2.66849e-05 5.11045e-05)
(-0.000274448 2.77634e-06 5.11046e-05)
(-0.000273646 -2.11545e-05 5.11045e-05)
(-0.000270761 -4.49237e-05 5.11046e-05)
(-0.000265815 -6.83513e-05 5.11045e-05)
(-0.000258847 -9.12582e-05 5.11046e-05)
(-0.000249908 -0.000113471 5.11044e-05)
(-0.000239067 -0.00013482 5.11044e-05)
(-0.000226407 -0.000155143 5.11044e-05)
(-0.000212024 -0.000174285 5.11044e-05)
(-0.000196027 -0.000192101 5.11045e-05)
(-0.000178538 -0.000208455 5.11044e-05)
(-0.000159691 -0.000223223 5.11044e-05)
(-0.000139628 -0.000236291 5.11043e-05)
(-0.000118502 -0.000247561 5.11041e-05)
(-9.64758e-05 -0.000256947 5.11043e-05)
(-7.37138e-05 -0.000264378 5.11043e-05)
(-5.03912e-05 -0.000269797 5.11044e-05)
(-2.66849e-05 -0.000273162 5.11045e-05)
(-2.77634e-06 -0.000274448 5.11046e-05)
(0 0 0)
(0 0 0)
(0 0 0)
(0 0 0)
(0 0 0)
(0 0 0)
(0 0 0)
(0 0 0)
(0 0 0)
(0 0 0)
(0 0 0)
(0 0 0)
(0 0 0)
(0 0 0)
(0 0 0)
(0 0 0)
(0 0 0)
(0 0 0)
(0 0 0)
(0 0 0)
(0 0 0)
(0 0 0)
(0 0 0)
(0 0 0)
(0 0 0)
(0 0 0)
(0 0 0)
(0 0 0)
(0 0 0)
(0 0 0)
(0 0 0)
(0 0 0)
(0 0 0)
(0 0 0)
(0 0 0)
(0 0 0)
(0 0 0)
(0 0 0)
(0 0 0)
(0 0 0)
(0 0 0)
(0 0 0)
(0 0 0)
(0 0 0)
(0 0 0)
(0 0 0)
(0 0 0)
(0 0 0)
(0 0 0)
(0 0 0)
(0 0 0)
(0 0 0)
(0 0 0)
(0 0 0)
(0 0 0)
(0 0 0)
(0 0 0)
(0 0 0)
(0 0 0)
(0 0 0)
(0 0 0)
(0 0 0)
(0 0 0)
(0 0 0)
(0 0 0)
(0 0 0)
(0 0 0)
(0 0 0)
(0 0 0)
(0 0 0)
(0 0 0)
(0 0 0)
(0.000306107 -0.000398961 4.74751e-05)
(0.000339714 -0.000370763 4.74748e-05)
(0.000370735 -0.000339745 4.74751e-05)
(0.000398935 -0.00030614 4.74751e-05)
(0.000424099 -0.000270206 4.74748e-05)
(0.000446035 -0.000232215 4.74749e-05)
(0.000464577 -0.000192457 4.7475e-05)
(0.000479583 -0.000151233 4.74746e-05)
(0.000490939 -0.00010886 4.74747e-05)
(0.000498558 -6.56573e-05 4.74748e-05)
(0.000502383 -2.19559e-05 4.74752e-05)
(0.000502385 2.19133e-05 4.74751e-05)
(0.000498563 6.56161e-05 4.74752e-05)
(0.000490947 0.000108819 4.74754e-05)
(0.000479595 0.000151193 4.74753e-05)
(0.000464592 0.000192418 4.74748e-05)
(0.000446054 0.000232177 4.74751e-05)
(0.000424121 0.00027017 4.74749e-05)
(0.000398961 0.000306107 4.74751e-05)
(0.000370763 0.000339714 4.74748e-05)
(0.000339745 0.000370735 4.74751e-05)
(0.00030614 0.000398935 4.74751e-05)
(0.000270206 0.000424099 4.74748e-05)
(0.000232215 0.000446035 4.74749e-05)
(0.000192457 0.000464577 4.7475e-05)
(0.000151233 0.000479583 4.74746e-05)
(0.00010886 0.000490939 4.74747e-05)
(6.56573e-05 0.000498558 4.74748e-05)
(2.19559e-05 0.000502383 4.74752e-05)
(-2.19133e-05 0.000502385 4.74751e-05)
(-6.56161e-05 0.000498563 4.74752e-05)
(-0.000108819 0.000490947 4.74754e-05)
(-0.000151193 0.000479595 4.74753e-05)
(-0.000192418 0.000464592 4.74748e-05)
(-0.000232177 0.000446054 4.74751e-05)
(-0.00027017 0.000424121 4.74749e-05)
(-0.000306107 0.000398961 4.74751e-05)
(-0.000339714 0.000370763 4.74748e-05)
(-0.000370735 0.000339745 4.74751e-05)
(-0.000398935 0.00030614 4.74751e-05)
(-0.000424099 0.000270206 4.74748e-05)
(-0.000446035 0.000232215 4.74749e-05)
(-0.000464577 0.000192457 4.7475e-05)
(-0.000479583 0.000151233 4.74746e-05)
(-0.000490939 0.00010886 4.74747e-05)
(-0.000498558 6.56573e-05 4.74748e-05)
(-0.000502383 2.19559e-05 4.74752e-05)
(-0.000502385 -2.19133e-05 4.74751e-05)
(-0.000498563 -6.56161e-05 4.74752e-05)
(-0.000490947 -0.000108819 4.74754e-05)
(-0.000479595 -0.000151193 4.74753e-05)
(-0.000464592 -0.000192418 4.74748e-05)
(-0.000446054 -0.000232177 4.74751e-05)
(-0.000424121 -0.00027017 4.74749e-05)
(-0.000398961 -0.000306107 4.74751e-05)
(-0.000370763 -0.000339714 4.74748e-05)
(-0.000339745 -0.000370735 4.74751e-05)
(-0.00030614 -0.000398935 4.74751e-05)
(-0.000270206 -0.000424099 4.74748e-05)
(-0.000232215 -0.000446035 4.74749e-05)
(-0.000192457 -0.000464577 4.7475e-05)
(-0.000151233 -0.000479583 4.74746e-05)
(-0.00010886 -0.000490939 4.74747e-05)
(-6.56573e-05 -0.000498558 4.74748e-05)
(-2.19559e-05 -0.000502383 4.74752e-05)
(2.19133e-05 -0.000502385 4.74751e-05)
(6.56161e-05 -0.000498563 4.74752e-05)
(0.000108819 -0.000490947 4.74754e-05)
(0.000151193 -0.000479595 4.74753e-05)
(0.000192418 -0.000464592 4.74748e-05)
(0.000232177 -0.000446054 4.74751e-05)
(0.00027017 -0.000424121 4.74749e-05)
(0.000281798 -0.000426528 6.96433e-05)
(0.0003179 -0.000400344 6.96433e-05)
(0.000351583 -0.000371114 6.96433e-05)
(0.000382589 -0.000339059 6.96432e-05)
(0.000410684 -0.000304425 6.96434e-05)
(0.000435654 -0.000267472 6.9643e-05)
(0.000457308 -0.000228485 6.96432e-05)
(0.000475481 -0.000187758 6.9643e-05)
(0.000490036 -0.000145603 6.96434e-05)
(0.000500862 -0.000102339 6.96431e-05)
(0.000507875 -5.82968e-05 6.96433e-05)
(0.000511023 -1.38105e-05 6.96432e-05)
(0.000510282 3.07799e-05 6.96436e-05)
(0.000505658 7.51376e-05 6.96434e-05)
(0.000497185 0.000118922 6.96434e-05)
(0.000484928 0.000161802 6.96434e-05)
(0.000468981 0.000203451 6.96433e-05)
(0.000449464 0.000243551 6.96432e-05)
(0.000426528 0.000281798 6.96433e-05)
(0.000400344 0.0003179 6.96433e-05)
(0.000371114 0.000351583 6.96433e-05)
(0.000339059 0.000382589 6.96432e-05)
(0.000304425 0.000410684 6.96434e-05)
(0.000267472 0.000435654 6.9643e-05)
(0.000228485 0.000457308 6.96432e-05)
(0.000187758 0.000475481 6.9643e-05)
(0.000145603 0.000490036 6.96434e-05)
(0.000102339 0.000500862 6.96431e-05)
(5.82968e-05 0.000507875 6.96433e-05)
(1.38105e-05 0.000511023 6.96432e-05)
(-3.07799e-05 0.000510282 6.96436e-05)
(-7.51376e-05 0.000505658 6.96434e-05)
(-0.000118922 0.000497185 6.96434e-05)
(-0.000161802 0.000484928 6.96434e-05)
(-0.000203451 0.000468981 6.96433e-05)
(-0.000243551 0.000449464 6.96432e-05)
(-0.000281798 0.000426528 6.96433e-05)
(-0.0003179 0.000400344 6.96433e-05)
(-0.000351583 0.000371114 6.96433e-05)
(-0.000382589 0.000339059 6.96432e-05)
(-0.000410684 0.000304425 6.96434e-05)
(-0.000435654 0.000267472 6.9643e-05)
(-0.000457308 0.000228485 6.96432e-05)
(-0.000475481 0.000187758 6.9643e-05)
(-0.000490036 0.000145603 6.96434e-05)
(-0.000500862 0.000102339 6.96431e-05)
(-0.000507875 5.82968e-05 6.96433e-05)
(-0.000511023 1.38105e-05 6.96432e-05)
(-0.000510282 -3.07799e-05 6.96436e-05)
(-0.000505658 -7.51376e-05 6.96434e-05)
(-0.000497185 -0.000118922 6.96434e-05)
(-0.000484928 -0.000161802 6.96434e-05)
(-0.000468981 -0.000203451 6.96433e-05)
(-0.000449464 -0.000243551 6.96432e-05)
(-0.000426528 -0.000281798 6.96433e-05)
(-0.000400344 -0.0003179 6.96433e-05)
(-0.000371114 -0.000351583 6.96433e-05)
(-0.000339059 -0.000382589 6.96432e-05)
(-0.000304425 -0.000410684 6.96434e-05)
(-0.000267472 -0.000435654 6.9643e-05)
(-0.000228485 -0.000457308 6.96432e-05)
(-0.000187758 -0.000475481 6.9643e-05)
(-0.000145603 -0.000490036 6.96434e-05)
(-0.000102339 -0.000500862 6.96431e-05)
(-5.82968e-05 -0.000507875 6.96433e-05)
(-1.38105e-05 -0.000511023 6.96432e-05)
(3.07799e-05 -0.000510282 6.96436e-05)
(7.51376e-05 -0.000505658 6.96434e-05)
(0.000118922 -0.000497185 6.96434e-05)
(0.000161802 -0.000484928 6.96434e-05)
(0.000203451 -0.000468981 6.96433e-05)