/*--------------------------------*- C++ -*----------------------------------*\
| =========                 |                                                 |
| \\      /  F ield         | OpenFOAM: The Open Source CFD Toolbox           |
|  \\    /   O peration     | Version:  2312                                  |
|   \\  /    A nd           | Website:  www.openfoam.com                      |
|    \\/     M anipulation  |                                                 |
\*---------------------------------------------------------------------------*/
FoamFile
{
    version     2.0;
    format      ascii;
    arch        "LSB;label=32;scalar=64";
    class       volSymmTensorField;
    location    "0.3";
    object      sigma;
}
// * * * * * * * * * * * * * * * * * * * * * * * * * * * * * * * * * * * * * //

dimensions      [1 -1 -2 0 0 0 0];

internalField   nonuniform List<symmTensor> 
12960
(
(-3189.06 374.742 -2198.42 -1884.35 -4161.75 12246)
(-3244.18 255.772 -1827.32 -1829.1 -4337.58 12246)
(-3277.89 129.024 -1442.37 -1795.59 -4480.18 12246.1)
(-3289.03 -1.63908 -1046.39 -1784.41 -4588.88 12246.1)
(-3277.33 -132.253 -642.454 -1796.13 -4662.64 12246)
(-3243.05 -258.866 -233.58 -1830.23 -4700.96 12246)
(-3187.35 -377.576 176.96 -1885.95 -4703.36 12246.1)
(-3111.9 -484.826 586.193 -1961.41 -4670.01 12246.1)
(-3018.91 -577.407 991.114 -2054.21 -4601.28 12246)
(-2911.32 -652.394 1388.37 -2161.81 -4497.39 12246)
(-2792.46 -707.492 1774.9 -2280.94 -4359.16 12246.1)
(-2665.69 -741.168 2148.1 -2407.64 -4187.9 12246.1)
(-2535 -752.352 2505.03 -2538.29 -3984.79 12246)
(-2404.51 -740.602 2842.7 -2669.01 -3751.27 12246)
(-2277.92 -706.378 3158.8 -2795.61 -3489.22 12246)
(-2159.14 -650.692 3450.85 -2914.26 -3200.64 12246.1)
(-2051.8 -575.274 3716.83 -3021.53 -2887.7 12246)
(-1959.33 -482.33 3954.31 -3114.08 -2552.77 12246)
(-1884.35 -374.742 4161.75 -3189.06 -2198.42 12246)
(-1829.1 -255.772 4337.58 -3244.18 -1827.32 12246)
(-1795.59 -129.024 4480.18 -3277.89 -1442.37 12246.1)
(-1784.41 1.63908 4588.88 -3289.03 -1046.39 12246.1)
(-1796.13 132.253 4662.64 -3277.33 -642.454 12246)
(-1830.23 258.866 4700.96 -3243.05 -233.58 12246)
(-1885.95 377.576 4703.36 -3187.35 176.96 12246.1)
(-1961.41 484.826 4670.01 -3111.9 586.193 12246.1)
(-2054.21 577.407 4601.28 -3018.91 991.114 12246)
(-2161.81 652.394 4497.39 -2911.32 1388.37 12246)
(-2280.94 707.492 4359.16 -2792.46 1774.9 12246.1)
(-2407.64 741.168 4187.9 -2665.69 2148.1 12246.1)
(-2538.29 752.352 3984.79 -2535 2505.03 12246)
(-2669.01 740.602 3751.27 -2404.51 2842.7 12246)
(-2795.61 706.378 3489.22 -2277.92 3158.8 12246)
(-2914.26 650.692 3200.64 -2159.14 3450.85 12246.1)
(-3021.53 575.274 2887.7 -2051.8 3716.83 12246)
(-3114.08 482.33 2552.77 -1959.33 3954.31 12246)
(-3189.06 374.742 2198.42 -1884.35 4161.75 12246)
(-3244.18 255.772 1827.32 -1829.1 4337.58 12246)
(-3277.89 129.024 1442.37 -1795.59 4480.18 12246.1)
(-3289.03 -1.63908 1046.39 -1784.41 4588.88 12246.1)
(-3277.33 -132.253 642.454 -1796.13 4662.64 12246)
(-3243.05 -258.866 233.58 -1830.23 4700.96 12246)
(-3187.35 -377.576 -176.96 -1885.95 4703.36 12246.1)
(-3111.9 -484.826 -586.193 -1961.41 4670.01 12246.1)
(-3018.91 -577.407 -991.115 -2054.21 4601.28 12246)
(-2911.32 -652.394 -1388.37 -2161.81 4497.39 12246)
(-2792.46 -707.492 -1774.9 -2280.94 4359.16 12246.1)
(-2665.69 -741.168 -2148.1 -2407.64 4187.9 12246.1)
(-2535 -752.352 -2505.03 -2538.29 3984.79 12246)
(-2404.51 -740.602 -2842.7 -2669.01 3751.27 12246)
(-2277.92 -706.378 -3158.8 -2795.61 3489.22 12246)
(-2159.14 -650.692 -3450.85 -2914.26 3200.64 12246.1)
(-2051.8 -575.274 -3716.83 -3021.53 2887.7 12246)
(-1959.33 -482.33 -3954.31 -3114.08 2552.77 12246)
(-1884.35 -374.742 -4161.75 -3189.06 2198.42 12246)
(-1829.1 -255.772 -4337.58 -3244.18 1827.32 12246)
(-1795.59 -129.024 -4480.18 -3277.89 1442.37 12246.1)
(-1784.41 1.63908 -4588.88 -3289.03 1046.39 12246.1)
(-1796.13 132.253 -4662.64 -3277.33 642.454 12246)
(-1830.23 258.866 -4700.96 -3243.05 233.58 12246)
(-1885.95 377.576 -4703.36 -3187.35 -176.96 12246.1)
(-1961.41 484.826 -4670.01 -3111.9 -586.193 12246.1)
(-2054.21 577.407 -4601.28 -3018.91 -991.115 12246)
(-2161.81 652.394 -4497.39 -2911.32 -1388.37 12246)
(-2280.94 707.492 -4359.16 -2792.46 -1774.9 12246.1)
(-2407.64 741.168 -4187.9 -2665.69 -2148.1 12246.1)
(-2538.29 752.352 -3984.79 -2535 -2505.03 12246)
(-2669.01 740.602 -3751.27 -2404.51 -2842.7 12246)
(-2795.61 706.378 -3489.22 -2277.92 -3158.8 12246)
(-2914.26 650.692 -3200.64 -2159.14 -3450.85 12246.1)
(-3021.53 575.274 -2887.7 -2051.8 -3716.83 12246)
(-3114.08 482.33 -2552.77 -1959.33 -3954.31 12246)
(-13077.1 648.05 -1075.79 -5396.14 -7854.17 -4276.71)
(-13131.3 -28.6919 -387.155 -5341.88 -7918.05 -4276.67)
(-13067.1 -704.549 304.412 -5406.12 -7921.65 -4276.62)
(-12886.7 -1359.01 993.671 -5586.72 -7864.98 -4276.72)
(-12595.1 -1972.18 1675.37 -5878.04 -7748.45 -4276.65)
(-12201.7 -2525.44 2344.33 -6271.57 -7572.94 -4276.74)
(-11718.2 -3001.94 2995.42 -6755.22 -7339.81 -4276.76)
(-11159.2 -3387.22 3623.73 -7314.2 -7050.8 -4276.7)
(-10541.7 -3669.66 4224.48 -7931.52 -6708.14 -4276.81)
(-9884.66 -3840.54 4793.06 -8588.57 -6314.43 -4276.81)
(-9208.01 -3894.67 5325.13 -9265.38 -5872.67 -4276.72)
(-8532.13 -3830.53 5816.72 -9941.27 -5386.19 -4276.77)
(-7877.68 -3650.01 6264.02 -10595.7 -4858.74 -4276.82)
(-7264.4 -3358.54 6663.65 -11208.8 -4294.31 -4276.64)
(-6711.29 -2965.05 7012.56 -11762.1 -3697.2 -4276.74)
(-6234.75 -2481.46 7308.11 -12238.6 -3071.94 -4276.68)
(-5849.33 -1922.49 7548.05 -12623.8 -2423.3 -4276.69)
(-5567.01 -1305.1 7730.52 -12906.2 -1756.23 -4276.7)
(-5396.14 -648.05 7854.17 -13077.1 -1075.79 -4276.71)
(-5341.88 28.6919 7918.05 -13131.3 -387.155 -4276.67)
(-5406.12 704.549 7921.65 -13067.1 304.412 -4276.62)
(-5586.72 1359.01 7864.98 -12886.7 993.671 -4276.72)
(-5878.04 1972.18 7748.45 -12595.1 1675.37 -4276.65)
(-6271.57 2525.44 7572.94 -12201.7 2344.33 -4276.74)
(-6755.22 3001.94 7339.81 -11718.2 2995.42 -4276.76)
(-7314.2 3387.22 7050.8 -11159.2 3623.73 -4276.7)
(-7931.52 3669.66 6708.14 -10541.7 4224.48 -4276.81)
(-8588.57 3840.54 6314.43 -9884.66 4793.06 -4276.81)
(-9265.38 3894.67 5872.67 -9208.01 5325.13 -4276.72)
(-9941.27 3830.53 5386.19 -8532.13 5816.72 -4276.77)
(-10595.7 3650.01 4858.74 -7877.68 6264.02 -4276.82)
(-11208.8 3358.54 4294.31 -7264.4 6663.65 -4276.64)
(-11762.1 2965.05 3697.2 -6711.29 7012.56 -4276.74)
(-12238.6 2481.46 3071.94 -6234.75 7308.11 -4276.68)
(-12623.8 1922.49 2423.3 -5849.33 7548.05 -4276.69)
(-12906.2 1305.1 1756.23 -5567.01 7730.52 -4276.7)
(-13077.1 648.05 1075.79 -5396.14 7854.17 -4276.71)
(-13131.3 -28.6919 387.155 -5341.88 7918.05 -4276.67)
(-13067.1 -704.549 -304.412 -5406.12 7921.65 -4276.62)
(-12886.7 -1359.01 -993.671 -5586.72 7864.98 -4276.72)
(-12595.1 -1972.18 -1675.37 -5878.04 7748.45 -4276.65)
(-12201.7 -2525.44 -2344.33 -6271.57 7572.94 -4276.74)
(-11718.2 -3001.94 -2995.42 -6755.22 7339.81 -4276.76)
(-11159.2 -3387.22 -3623.73 -7314.2 7050.8 -4276.7)
(-10541.7 -3669.66 -4224.48 -7931.52 6708.14 -4276.81)
(-9884.66 -3840.54 -4793.06 -8588.57 6314.43 -4276.81)
(-9208.01 -3894.67 -5325.13 -9265.38 5872.67 -4276.72)
(-8532.13 -3830.53 -5816.72 -9941.27 5386.19 -4276.77)
(-7877.68 -3650.01 -6264.02 -10595.7 4858.74 -4276.82)
(-7264.4 -3358.54 -6663.65 -11208.8 4294.31 -4276.64)
(-6711.29 -2965.05 -7012.56 -11762.1 3697.2 -4276.74)
(-6234.75 -2481.46 -7308.11 -12238.6 3071.94 -4276.68)
(-5849.33 -1922.49 -7548.05 -12623.8 2423.3 -4276.69)
(-5567.01 -1305.1 -7730.52 -12906.2 1756.23 -4276.7)
(-5396.14 -648.05 -7854.17 -13077.1 1075.79 -4276.71)
(-5341.88 28.6919 -7918.05 -13131.3 387.155 -4276.67)
(-5406.12 704.549 -7921.65 -13067.1 -304.412 -4276.62)
(-5586.72 1359.01 -7864.98 -12886.7 -993.671 -4276.72)
(-5878.04 1972.18 -7748.45 -12595.1 -1675.37 -4276.65)
(-6271.57 2525.44 -7572.94 -12201.7 -2344.33 -4276.74)
(-6755.22 3001.94 -7339.81 -11718.2 -2995.42 -4276.76)
(-7314.2 3387.22 -7050.8 -11159.2 -3623.73 -4276.7)
(-7931.52 3669.66 -6708.14 -10541.7 -4224.48 -4276.81)
(-8588.57 3840.54 -6314.43 -9884.66 -4793.06 -4276.81)
(-9265.38 3894.67 -5872.67 -9208.01 -5325.13 -4276.72)
(-9941.27 3830.53 -5386.19 -8532.13 -5816.72 -4276.77)
(-10595.7 3650.01 -4858.74 -7877.68 -6264.02 -4276.82)
(-11208.8 3358.54 -4294.31 -7264.4 -6663.65 -4276.64)
(-11762.1 2965.05 -3697.2 -6711.29 -7012.56 -4276.74)
(-12238.6 2481.46 -3071.94 -6234.75 -7308.11 -4276.68)
(-12623.8 1922.49 -2423.3 -5849.33 -7548.05 -4276.69)
(-12906.2 1305.1 -1756.23 -5567.01 -7730.52 -4276.7)
(-18818.4 33.1647 -230.168 -3340.63 -4962 -17122.8)
(-18706.6 -1311.19 203.174 -3452.45 -4963.16 -17122.8)
(-18363.1 -2615.69 634.973 -3796.02 -4926.6 -17122.8)
(-17798.2 -3840.73 1061.94 -4360.89 -4852.49 -17122.8)
(-17029.2 -4949.07 1480.81 -5129.93 -4741.47 -17122.9)
(-16079.4 -5907.03 1888.42 -6079.65 -4594.35 -17122.9)
(-14977.7 -6685.51 2281.66 -7181.36 -4412.28 -17122.8)
(-13757.5 -7260.85 2657.54 -8401.49 -4196.64 -17122.8)
(-12456 -7615.59 3013.16 -9702.99 -3949.01 -17122.8)
(-11112.6 -7738.92 3345.88 -11046.3 -3671.38 -17122.9)
(-9768.34 -7627.09 3653.15 -12390.7 -3365.82 -17122.8)
(-8463.83 -7283.53 3932.59 -13695.2 -3034.61 -17122.9)
(-7238.84 -6718.67 4182.11 -14920.3 -2680.32 -17122.9)
(-6130.5 -5949.65 4399.82 -16028.6 -2305.63 -17122.9)
(-5172.56 -4999.87 4584.04 -16986.6 -1913.39 -17122.9)
(-4394.08 -3898.17 4733.36 -17765 -1506.59 -17122.8)
(-3818.7 -2678.02 4846.64 -18340.4 -1088.31 -17122.9)
(-3463.95 -1376.5 4923.06 -18695.1 -661.759 -17122.8)
(-3340.63 -33.1647 4962 -18818.4 -230.168 -17122.8)
(-3452.45 1311.19 4963.16 -18706.6 203.174 -17122.8)
(-3796.02 2615.69 4926.6 -18363.1 634.973 -17122.8)
(-4360.89 3840.73 4852.49 -17798.2 1061.94 -17122.8)
(-5129.93 4949.07 4741.47 -17029.2 1480.81 -17122.9)
(-6079.65 5907.03 4594.35 -16079.4 1888.42 -17122.9)
(-7181.36 6685.51 4412.28 -14977.7 2281.66 -17122.8)
(-8401.49 7260.85 4196.64 -13757.5 2657.54 -17122.8)
(-9702.99 7615.59 3949.01 -12456 3013.16 -17122.8)
(-11046.3 7738.92 3671.38 -11112.6 3345.88 -17122.9)
(-12390.7 7627.09 3365.82 -9768.34 3653.15 -17122.8)
(-13695.2 7283.53 3034.61 -8463.83 3932.59 -17122.9)
(-14920.3 6718.67 2680.32 -7238.84 4182.11 -17122.9)
(-16028.6 5949.65 2305.63 -6130.5 4399.82 -17122.9)
(-16986.6 4999.87 1913.39 -5172.56 4584.04 -17122.9)
(-17765 3898.17 1506.59 -4394.08 4733.36 -17122.8)
(-18340.4 2678.02 1088.31 -3818.7 4846.64 -17122.9)
(-18695.1 1376.5 661.759 -3463.95 4923.06 -17122.8)
(-18818.4 33.1647 230.168 -3340.63 4962 -17122.8)
(-18706.6 -1311.19 -203.174 -3452.45 4963.16 -17122.8)
(-18363.1 -2615.69 -634.973 -3796.02 4926.6 -17122.8)
(-17798.2 -3840.73 -1061.94 -4360.89 4852.49 -17122.8)
(-17029.2 -4949.07 -1480.81 -5129.93 4741.47 -17122.9)
(-16079.4 -5907.03 -1888.42 -6079.65 4594.35 -17122.9)
(-14977.7 -6685.51 -2281.66 -7181.36 4412.28 -17122.8)
(-13757.5 -7260.85 -2657.54 -8401.49 4196.64 -17122.8)
(-12456 -7615.59 -3013.16 -9702.99 3949.01 -17122.8)
(-11112.6 -7738.92 -3345.88 -11046.3 3671.38 -17122.9)
(-9768.34 -7627.09 -3653.15 -12390.7 3365.82 -17122.8)
(-8463.83 -7283.53 -3932.59 -13695.2 3034.61 -17122.9)
(-7238.84 -6718.67 -4182.11 -14920.3 2680.32 -17122.9)
(-6130.5 -5949.65 -4399.82 -16028.6 2305.63 -17122.9)
(-5172.56 -4999.87 -4584.04 -16986.6 1913.39 -17122.9)
(-4394.08 -3898.17 -4733.36 -17765 1506.59 -17122.8)
(-3818.7 -2678.02 -4846.64 -18340.4 1088.31 -17122.9)
(-3463.95 -1376.5 -4923.06 -18695.1 661.759 -17122.8)
(-3340.63 -33.1647 -4962 -18818.4 230.168 -17122.8)
(-3452.45 1311.19 -4963.16 -18706.6 -203.174 -17122.8)
(-3796.02 2615.69 -4926.6 -18363.1 -634.973 -17122.8)
(-4360.89 3840.73 -4852.49 -17798.2 -1061.94 -17122.8)
(-5129.93 4949.07 -4741.47 -17029.2 -1480.81 -17122.9)
(-6079.65 5907.03 -4594.35 -16079.4 -1888.42 -17122.9)
(-7181.36 6685.51 -4412.28 -14977.7 -2281.66 -17122.8)
(-8401.49 7260.85 -4196.64 -13757.5 -2657.54 -17122.8)
(-9702.99 7615.59 -3949.01 -12456 -3013.16 -17122.8)
(-11046.3 7738.92 -3671.38 -11112.6 -3345.88 -17122.9)
(-12390.7 7627.09 -3365.82 -9768.34 -3653.15 -17122.8)
(-13695.2 7283.53 -3034.61 -8463.83 -3932.59 -17122.9)
(-14920.3 6718.67 -2680.32 -7238.84 -4182.11 -17122.9)
(-16028.6 5949.65 -2305.63 -6130.5 -4399.82 -17122.9)
(-16986.6 4999.87 -1913.39 -5172.56 -4584.04 -17122.9)
(-17765 3898.17 -1506.59 -4394.08 -4733.36 -17122.8)
(-18340.4 2678.02 -1088.31 -3818.7 -4846.64 -17122.9)
(-18695.1 1376.5 -661.759 -3463.95 -4923.06 -17122.8)
(-22723.2 -1114.12 -353.689 -4315.6 3514.11 -22600.3)
(-22389.9 -2695.43 -658.62 -4648.87 3469.91 -22600.3)
(-21787.1 -4194.82 -958.535 -5251.74 3399.31 -22600.3)
(-20933 -5566.75 -1251.16 -6105.73 3302.83 -22600.3)
(-19853.8 -6769.54 -1534.26 -7185.02 3181.23 -22600.3)
(-18582.1 -7766.65 -1805.7 -8456.85 3035.44 -22600.3)
(-17156.5 -8527.78 -2063.37 -9882.42 2866.48 -22600.4)
(-15620.4 -9029.78 -2305.36 -11418.5 2675.75 -22600.3)
(-14020.4 -9257.43 -2529.81 -13018.4 2464.65 -22600.3)
(-12405.3 -9203.79 -2734.99 -14633.5 2234.79 -22600.3)
(-10824 -8870.49 -2919.34 -16214.9 1987.91 -22600.3)
(-9324.63 -8267.68 -3081.48 -17714.3 1725.89 -22600.4)
(-7952.7 -7413.65 -3220.2 -19086.2 1450.77 -22600.3)
(-6749.87 -6334.37 -3334.36 -20289 1164.58 -22600.3)
(-5752.7 -5062.61 -3423.15 -21286 869.536 -22600.3)
(-4991.67 -3637.04 -3485.91 -22047.2 567.881 -22600.3)
(-4489.61 -2100.95 -3522.14 -22549.2 261.903 -22600.3)
(-4261.96 -501.022 -3531.56 -22776.8 -46.0687 -22600.3)
(-4315.6 1114.12 -3514.11 -22723.2 -353.689 -22600.3)
(-4648.87 2695.43 -3469.91 -22389.9 -658.62 -22600.3)
(-5251.74 4194.82 -3399.31 -21787.1 -958.535 -22600.3)
(-6105.73 5566.75 -3302.83 -20933 -1251.16 -22600.3)
(-7185.02 6769.54 -3181.23 -19853.8 -1534.26 -22600.3)
(-8456.85 7766.65 -3035.44 -18582.1 -1805.7 -22600.3)
(-9882.42 8527.78 -2866.48 -17156.5 -2063.37 -22600.4)
(-11418.5 9029.78 -2675.75 -15620.4 -2305.36 -22600.3)
(-13018.4 9257.43 -2464.65 -14020.4 -2529.81 -22600.3)
(-14633.5 9203.79 -2234.79 -12405.3 -2734.99 -22600.3)
(-16214.9 8870.49 -1987.91 -10824 -2919.34 -22600.3)
(-17714.3 8267.68 -1725.89 -9324.63 -3081.48 -22600.4)
(-19086.2 7413.65 -1450.77 -7952.7 -3220.2 -22600.3)
(-20289 6334.37 -1164.58 -6749.87 -3334.36 -22600.3)
(-21286 5062.61 -869.536 -5752.7 -3423.15 -22600.3)
(-22047.2 3637.04 -567.881 -4991.67 -3485.91 -22600.3)
(-22549.2 2100.95 -261.903 -4489.61 -3522.14 -22600.3)
(-22776.8 501.022 46.0687 -4261.96 -3531.56 -22600.3)
(-22723.2 -1114.12 353.689 -4315.6 -3514.11 -22600.3)
(-22389.9 -2695.43 658.62 -4648.87 -3469.91 -22600.3)
(-21787.1 -4194.82 958.535 -5251.74 -3399.31 -22600.3)
(-20933 -5566.75 1251.16 -6105.73 -3302.83 -22600.3)
(-19853.8 -6769.54 1534.26 -7185.02 -3181.23 -22600.3)
(-18582.1 -7766.65 1805.7 -8456.85 -3035.44 -22600.3)
(-17156.5 -8527.78 2063.37 -9882.42 -2866.48 -22600.4)
(-15620.4 -9029.78 2305.36 -11418.5 -2675.75 -22600.3)
(-14020.4 -9257.43 2529.81 -13018.4 -2464.65 -22600.3)
(-12405.3 -9203.79 2734.99 -14633.5 -2234.79 -22600.3)
(-10824 -8870.49 2919.34 -16214.9 -1987.91 -22600.3)
(-9324.63 -8267.68 3081.48 -17714.3 -1725.89 -22600.4)
(-7952.7 -7413.65 3220.2 -19086.2 -1450.77 -22600.3)
(-6749.87 -6334.37 3334.36 -20289 -1164.58 -22600.3)
(-5752.7 -5062.61 3423.15 -21286 -869.536 -22600.3)
(-4991.67 -3637.04 3485.91 -22047.2 -567.881 -22600.3)
(-4489.61 -2100.95 3522.14 -22549.2 -261.903 -22600.3)
(-4261.96 -501.022 3531.56 -22776.8 46.0687 -22600.3)
(-4315.6 1114.12 3514.11 -22723.2 353.689 -22600.3)
(-4648.87 2695.43 3469.91 -22389.9 658.62 -22600.3)
(-5251.74 4194.82 3399.31 -21787.1 958.535 -22600.3)
(-6105.73 5566.75 3302.83 -20933 1251.16 -22600.3)
(-7185.02 6769.54 3181.23 -19853.8 1534.26 -22600.3)
(-8456.85 7766.65 3035.44 -18582.1 1805.7 -22600.3)
(-9882.42 8527.78 2866.48 -17156.5 2063.37 -22600.4)
(-11418.5 9029.78 2675.75 -15620.4 2305.36 -22600.3)
(-13018.4 9257.43 2464.65 -14020.4 2529.81 -22600.3)
(-14633.5 9203.79 2234.79 -12405.3 2734.99 -22600.3)
(-16214.9 8870.49 1987.91 -10824 2919.34 -22600.3)
(-17714.3 8267.68 1725.89 -9324.63 3081.48 -22600.4)
(-19086.2 7413.65 1450.77 -7952.7 3220.2 -22600.3)
(-20289 6334.37 1164.58 -6749.87 3334.36 -22600.3)
(-21286 5062.61 869.536 -5752.7 3423.15 -22600.3)
(-22047.2 3637.04 567.881 -4991.67 3485.91 -22600.3)
(-22549.2 2100.95 261.903 -4489.61 3522.14 -22600.3)
(-22776.8 501.022 -46.0687 -4261.96 3531.56 -22600.3)
(-20621.2 -1714.07 -1474.45 -8388.89 10249.4 -13602.2)
(-20230.7 -2750.09 -2362.14 -8779.51 10081.9 -13602.3)
(-19666 -3702.55 -3231.85 -9343.95 9837.7 -13602.2)
(-18944.6 -4542.5 -4076.96 -10065.2 9518.59 -13602.2)
(-18088.4 -5244.43 -4891.05 -10921.5 9127.05 -13602.1)
(-17123.4 -5787.03 -5667.9 -11886.7 8666.02 -13602.3)
(-16078.7 -6153.77 -6401.64 -12931.4 8139.06 -13602.2)
(-14986.2 -6333.55 -7086.63 -14023.9 7550.14 -13602.3)
(-13879 -6320.85 -7717.72 -15131 6903.78 -13602.2)
(-12790.9 -6116.13 -8290.05 -16219.1 6204.87 -13602.2)
(-11755 -5725.59 -8799.28 -17255.2 5458.73 -13602.3)
(-10802.5 -5161.05 -9241.56 -18207.6 4671.05 -13602.2)
(-9962.49 -4439.7 -9613.5 -19047.5 3847.81 -13602.3)
(-9260.52 -3583.45 -9912.29 -19749.4 2995.31 -13602.1)
(-8717.88 -2618.32 -10135.6 -20291.9 2119.99 -13602.1)
(-8351.23 -1573.64 -10281.8 -20658.8 1228.55 -13602.2)
(-8171.54 -481.141 -10349.8 -20838.6 327.751 -13602.3)
(-8184.17 625.972 -10339 -20825.9 -575.536 -13602.3)
(-8388.89 1714.07 -10249.4 -20621.2 -1474.45 -13602.2)
(-8779.51 2750.09 -10081.9 -20230.7 -2362.14 -13602.3)
(-9343.95 3702.55 -9837.7 -19666 -3231.85 -13602.2)
(-10065.2 4542.5 -9518.59 -18944.6 -4076.96 -13602.2)
(-10921.5 5244.43 -9127.05 -18088.4 -4891.05 -13602.1)
(-11886.7 5787.03 -8666.02 -17123.4 -5667.9 -13602.3)
(-12931.4 6153.77 -8139.06 -16078.7 -6401.64 -13602.2)
(-14023.9 6333.55 -7550.14 -14986.2 -7086.63 -13602.3)
(-15131 6320.85 -6903.78 -13879 -7717.72 -13602.2)
(-16219.1 6116.13 -6204.87 -12790.9 -8290.05 -13602.2)
(-17255.2 5725.59 -5458.73 -11755 -8799.28 -13602.3)
(-18207.6 5161.05 -4671.05 -10802.5 -9241.56 -13602.2)
(-19047.5 4439.7 -3847.81 -9962.49 -9613.5 -13602.3)
(-19749.4 3583.45 -2995.31 -9260.52 -9912.29 -13602.1)
(-20291.9 2618.32 -2119.99 -8717.88 -10135.6 -13602.1)
(-20658.8 1573.64 -1228.55 -8351.23 -10281.8 -13602.2)
(-20838.6 481.141 -327.751 -8171.54 -10349.8 -13602.3)
(-20825.9 -625.972 575.536 -8184.17 -10339 -13602.3)
(-20621.2 -1714.07 1474.45 -8388.89 -10249.4 -13602.2)
(-20230.7 -2750.09 2362.14 -8779.51 -10081.9 -13602.3)
(-19666 -3702.55 3231.85 -9343.95 -9837.7 -13602.2)
(-18944.6 -4542.5 4076.96 -10065.2 -9518.59 -13602.2)
(-18088.4 -5244.43 4891.05 -10921.5 -9127.05 -13602.1)
(-17123.4 -5787.03 5667.9 -11886.7 -8666.02 -13602.3)
(-16078.7 -6153.77 6401.64 -12931.4 -8139.06 -13602.2)
(-14986.2 -6333.55 7086.63 -14023.9 -7550.14 -13602.3)
(-13879 -6320.85 7717.72 -15131 -6903.78 -13602.2)
(-12790.9 -6116.13 8290.05 -16219.1 -6204.87 -13602.2)
(-11755 -5725.59 8799.28 -17255.2 -5458.73 -13602.3)
(-10802.5 -5161.05 9241.56 -18207.6 -4671.05 -13602.2)
(-9962.49 -4439.7 9613.5 -19047.5 -3847.81 -13602.3)
(-9260.52 -3583.45 9912.29 -19749.4 -2995.31 -13602.1)
(-8717.88 -2618.32 10135.6 -20291.9 -2119.99 -13602.1)
(-8351.23 -1573.64 10281.8 -20658.8 -1228.55 -13602.2)
(-8171.54 -481.141 10349.8 -20838.6 -327.751 -13602.3)
(-8184.17 625.972 10339 -20825.9 575.536 -13602.3)
(-8388.89 1714.07 10249.4 -20621.2 1474.45 -13602.2)
(-8779.51 2750.09 10081.9 -20230.7 2362.14 -13602.3)
(-9343.95 3702.55 9837.7 -19666 3231.85 -13602.2)
(-10065.2 4542.5 9518.59 -18944.6 4076.96 -13602.2)
(-10921.5 5244.43 9127.05 -18088.4 4891.05 -13602.1)
(-11886.7 5787.03 8666.02 -17123.4 5667.9 -13602.3)
(-12931.4 6153.77 8139.06 -16078.7 6401.64 -13602.2)
(-14023.9 6333.55 7550.14 -14986.2 7086.63 -13602.3)
(-15131 6320.85 6903.78 -13879 7717.72 -13602.2)
(-16219.1 6116.13 6204.87 -12790.9 8290.05 -13602.2)
(-17255.2 5725.59 5458.73 -11755 8799.28 -13602.3)
(-18207.6 5161.05 4671.05 -10802.5 9241.56 -13602.2)
(-19047.5 4439.7 3847.81 -9962.49 9613.5 -13602.3)
(-19749.4 3583.45 2995.31 -9260.52 9912.29 -13602.1)
(-20291.9 2618.32 2119.99 -8717.88 10135.6 -13602.1)
(-20658.8 1573.64 1228.55 -8351.23 10281.8 -13602.2)
(-20838.6 481.141 327.751 -8171.54 10349.8 -13602.3)
(-20825.9 -625.972 -575.536 -8184.17 10339 -13602.3)
(-23197.2 -838.771 -2308.59 -20988.5 6460.61 -7521.63)
(-23034.8 -1017.8 -2862.89 -21151 6234.82 -7521.66)
(-22843.7 -1165.89 -3395.39 -21342 5961.56 -7521.62)
(-22629.8 -1278.57 -3902.06 -21555.8 5642.96 -7521.58)
(-22399.7 -1352.41 -4379.03 -21786 5281.43 -7521.66)
(-22160.2 -1385.14 -4822.67 -22025.5 4879.67 -7521.63)
(-21918.6 -1375.79 -5229.62 -22267.1 4440.79 -7521.65)
(-21682.4 -1324.63 -5596.76 -22503.4 3968.08 -7521.69)
(-21458.5 -1233.22 -5921.29 -22727 3465.19 -7521.56)
(-21254 -1104.35 -6200.78 -22931.5 2935.93 -7521.55)
(-21075 -941.924 -6433.06 -23110.6 2384.33 -7521.63)
(-20926.9 -750.88 -6616.4 -23258.7 1814.58 -7521.6)
(-20814.2 -537.012 -6749.37 -23371.4 1231.02 -7521.62)
(-20740.4 -306.832 -6830.98 -23445.2 638.092 -7521.6)
(-20707.6 -67.3226 -6860.56 -23477.9 40.2914 -7521.55)
(-20717 174.226 -6837.96 -23468.6 -557.805 -7521.56)
(-20768.2 410.48 -6763.35 -23417.5 -1151.65 -7521.63)
(-20859.6 634.262 -6637.24 -23326 -1736.73 -7521.59)
(-20988.5 838.771 -6460.61 -23197.2 -2308.59 -7521.63)
(-21151 1017.8 -6234.82 -23034.8 -2862.89 -7521.66)
(-21342 1165.89 -5961.56 -22843.7 -3395.39 -7521.62)
(-21555.8 1278.57 -5642.96 -22629.8 -3902.06 -7521.58)
(-21786 1352.41 -5281.43 -22399.7 -4379.03 -7521.66)
(-22025.5 1385.14 -4879.67 -22160.2 -4822.67 -7521.63)
(-22267.1 1375.79 -4440.79 -21918.6 -5229.62 -7521.65)
(-22503.4 1324.63 -3968.08 -21682.4 -5596.76 -7521.69)
(-22727 1233.22 -3465.19 -21458.5 -5921.29 -7521.56)
(-22931.5 1104.35 -2935.93 -21254 -6200.78 -7521.55)
(-23110.6 941.924 -2384.33 -21075 -6433.06 -7521.63)
(-23258.7 750.88 -1814.58 -20926.9 -6616.4 -7521.6)
(-23371.4 537.012 -1231.02 -20814.2 -6749.37 -7521.62)
(-23445.2 306.832 -638.092 -20740.4 -6830.98 -7521.6)
(-23477.9 67.3226 -40.2914 -20707.6 -6860.56 -7521.55)
(-23468.6 -174.226 557.805 -20717 -6837.96 -7521.56)
(-23417.5 -410.48 1151.65 -20768.2 -6763.35 -7521.63)
(-23326 -634.262 1736.73 -20859.6 -6637.24 -7521.59)
(-23197.2 -838.771 2308.59 -20988.5 -6460.61 -7521.63)
(-23034.8 -1017.8 2862.89 -21151 -6234.82 -7521.66)
(-22843.7 -1165.89 3395.39 -21342 -5961.56 -7521.62)
(-22629.8 -1278.57 3902.06 -21555.8 -5642.96 -7521.58)
(-22399.7 -1352.41 4379.03 -21786 -5281.43 -7521.66)
(-22160.2 -1385.14 4822.67 -22025.5 -4879.67 -7521.63)
(-21918.6 -1375.79 5229.62 -22267.1 -4440.79 -7521.65)
(-21682.4 -1324.63 5596.76 -22503.4 -3968.08 -7521.69)
(-21458.5 -1233.22 5921.29 -22727 -3465.19 -7521.56)
(-21254 -1104.35 6200.78 -22931.5 -2935.93 -7521.55)
(-21075 -941.924 6433.06 -23110.6 -2384.33 -7521.63)
(-20926.9 -750.88 6616.4 -23258.7 -1814.58 -7521.6)
(-20814.2 -537.012 6749.37 -23371.4 -1231.02 -7521.62)
(-20740.4 -306.832 6830.98 -23445.2 -638.092 -7521.6)
(-20707.6 -67.3226 6860.56 -23477.9 -40.2914 -7521.55)
(-20717 174.226 6837.96 -23468.6 557.805 -7521.56)
(-20768.2 410.48 6763.35 -23417.5 1151.65 -7521.63)
(-20859.6 634.262 6637.24 -23326 1736.73 -7521.59)
(-20988.5 838.771 6460.61 -23197.2 2308.59 -7521.63)
(-21151 1017.8 6234.82 -23034.8 2862.89 -7521.66)
(-21342 1165.89 5961.56 -22843.7 3395.39 -7521.62)
(-21555.8 1278.57 5642.96 -22629.8 3902.06 -7521.58)
(-21786 1352.41 5281.43 -22399.7 4379.03 -7521.66)
(-22025.5 1385.14 4879.67 -22160.2 4822.67 -7521.63)
(-22267.1 1375.79 4440.79 -21918.6 5229.62 -7521.65)
(-22503.4 1324.63 3968.08 -21682.4 5596.76 -7521.69)
(-22727 1233.22 3465.19 -21458.5 5921.29 -7521.56)
(-22931.5 1104.35 2935.93 -21254 6200.78 -7521.55)
(-23110.6 941.924 2384.33 -21075 6433.06 -7521.63)
(-23258.7 750.88 1814.58 -20926.9 6616.4 -7521.6)
(-23371.4 537.012 1231.02 -20814.2 6749.37 -7521.62)
(-23445.2 306.832 638.092 -20740.4 6830.98 -7521.6)
(-23477.9 67.3226 40.2914 -20707.6 6860.56 -7521.55)
(-23468.6 -174.226 -557.805 -20717 6837.96 -7521.56)
(-23417.5 -410.48 -1151.65 -20768.2 6763.35 -7521.63)
(-23326 -634.262 -1736.73 -20859.6 6637.24 -7521.59)
(5100.24 265.308 -1999.1 5706.38 -2792.09 21147.4)
(5058.72 208.659 -1748.12 5747.85 -2955.85 21147.3)
(5027.72 145.65 -1483.9 5778.75 -3096.75 21147.4)
(5008.21 78.2311 -1208.38 5798.39 -3214.25 21147.5)
(5000.58 8.4307 -923.599 5805.96 -3307.41 21147.4)
(5005.08 -61.635 -631.768 5801.21 -3375.43 21147.2)
(5022.01 -129.813 -335.215 5784.61 -3417.58 21147.4)
(5050.41 -194.029 -36.1704 5756.29 -3433.7 21147.5)
(5089.32 -252.397 263.346 5717.13 -3423.88 21147.3)
(5137.9 -303.073 560.753 5668.52 -3387.91 21147.3)
(5194.68 -344.503 853.758 5611.96 -3326.04 21147.5)
(5257.66 -375.535 1140.53 5548.96 -3239.05 21147.4)
(5324.97 -395.138 1418.56 5481.43 -3127.35 21147.2)
(5394.81 -402.693 1685.61 5411.68 -2991.78 21147.4)
(5464.9 -398.022 1939.87 5341.67 -2833.46 21147.5)
(5533.07 -381.285 2179.48 5273.47 -2653.62 21147.4)
(5597.31 -352.984 2402.67 5209.17 -2453.57 21147.2)
(5655.69 -313.906 2607.25 5150.91 -2234.84 21147.4)
(5706.38 -265.308 2792.09 5100.24 -1999.1 21147.4)
(5747.85 -208.659 2955.85 5058.72 -1748.12 21147.3)
(5778.75 -145.65 3096.75 5027.72 -1483.9 21147.4)
(5798.39 -78.2311 3214.25 5008.21 -1208.38 21147.5)
(5805.96 -8.4307 3307.41 5000.58 -923.599 21147.4)
(5801.21 61.635 3375.43 5005.08 -631.768 21147.2)
(5784.61 129.813 3417.58 5022.01 -335.215 21147.4)
(5756.29 194.029 3433.7 5050.41 -36.1704 21147.5)
(5717.13 252.397 3423.88 5089.32 263.346 21147.3)
(5668.52 303.073 3387.91 5137.9 560.753 21147.3)
(5611.96 344.503 3326.04 5194.68 853.758 21147.5)
(5548.96 375.535 3239.05 5257.66 1140.53 21147.4)
(5481.43 395.138 3127.35 5324.97 1418.56 21147.2)
(5411.68 402.693 2991.78 5394.81 1685.61 21147.4)
(5341.67 398.022 2833.46 5464.9 1939.87 21147.5)
(5273.47 381.285 2653.62 5533.07 2179.48 21147.4)
(5209.17 352.984 2453.57 5597.31 2402.67 21147.2)
(5150.91 313.906 2234.84 5655.69 2607.25 21147.4)
(5100.24 265.308 1999.1 5706.38 2792.09 21147.4)
(5058.72 208.659 1748.12 5747.85 2955.85 21147.3)
(5027.72 145.65 1483.9 5778.75 3096.75 21147.4)
(5008.21 78.2311 1208.38 5798.39 3214.25 21147.5)
(5000.58 8.4307 923.599 5805.96 3307.41 21147.4)
(5005.08 -61.635 631.768 5801.21 3375.43 21147.2)
(5022.01 -129.813 335.215 5784.61 3417.58 21147.4)
(5050.41 -194.029 36.1704 5756.29 3433.7 21147.5)
(5089.32 -252.397 -263.346 5717.13 3423.88 21147.3)
(5137.9 -303.073 -560.753 5668.52 3387.91 21147.3)
(5194.68 -344.503 -853.758 5611.96 3326.04 21147.5)
(5257.66 -375.535 -1140.53 5548.96 3239.05 21147.4)
(5324.97 -395.138 -1418.56 5481.43 3127.35 21147.2)
(5394.81 -402.693 -1685.61 5411.68 2991.78 21147.4)
(5464.9 -398.022 -1939.87 5341.67 2833.46 21147.5)
(5533.07 -381.285 -2179.48 5273.47 2653.62 21147.4)
(5597.31 -352.984 -2402.67 5209.17 2453.57 21147.2)
(5655.69 -313.906 -2607.25 5150.91 2234.84 21147.4)
(5706.38 -265.308 -2792.09 5100.24 1999.1 21147.4)
(5747.85 -208.659 -2955.85 5058.72 1748.12 21147.3)
(5778.75 -145.65 -3096.75 5027.72 1483.9 21147.4)
(5798.39 -78.2311 -3214.25 5008.21 1208.38 21147.5)
(5805.96 -8.4307 -3307.41 5000.58 923.599 21147.4)
(5801.21 61.635 -3375.43 5005.08 631.768 21147.2)
(5784.61 129.813 -3417.58 5022.01 335.215 21147.4)
(5756.29 194.029 -3433.7 5050.41 36.1704 21147.5)
(5717.13 252.397 -3423.88 5089.32 -263.346 21147.3)
(5668.52 303.073 -3387.91 5137.9 -560.753 21147.3)
(5611.96 344.503 -3326.04 5194.68 -853.758 21147.5)
(5548.96 375.535 -3239.05 5257.66 -1140.53 21147.4)
(5481.43 395.138 -3127.35 5324.97 -1418.56 21147.2)
(5411.68 402.693 -2991.78 5394.81 -1685.61 21147.4)
(5341.67 398.022 -2833.46 5464.9 -1939.87 21147.5)
(5273.47 381.285 -2653.62 5533.07 -2179.48 21147.4)
(5209.17 352.984 -2453.57 5597.31 -2402.67 21147.2)
(5150.91 313.906 -2234.84 5655.69 -2607.25 21147.4)
(-829.382 645.643 -999.781 5961.64 -7730.89 8507.16)
(-889.911 46.2067 -322.182 6022.2 -7788.62 8507.13)
(-845.362 -554.622 357.859 5977.73 -7787.05 8507.26)
(-697.216 -1138.6 1035.18 5829.6 -7726.23 8507.27)
(-450.001 -1687.98 1704.62 5582.21 -7606.6 8507.21)
(-110.849 -2186.1 2361.11 5243.52 -7429.09 8507.37)
(309.237 -2617.78 2999.61 4823.05 -7195.04 8507.16)
(798.121 -2969.89 3615.27 4334.18 -6906.22 8507.26)
(1340.76 -3231.83 4203.45 3791.68 -6564.86 8507.2)
(1920.55 -3395.52 4759.62 3211.83 -6173.52 8507.19)
(2519.88 -3456.01 5279.54 2612.32 -5735.2 8507.21)
(3120.79 -3411.56 5759.33 2011.53 -5253.23 8507.19)
(3704.89 -3263.42 6195.26 1427.66 -4731.29 8507.3)
(4254.11 -3016.11 6584.03 878.144 -4173.33 8507.23)
(4752.31 -2677.17 6922.71 380.125 -3583.6 8507.29)
(5183.91 -2256.89 7208.7 -51.6162 -2966.62 8507.22)
(5536.1 -1768.04 7439.84 -403.764 -2327.04 8507.15)
(5797.94 -1225.46 7614.34 -665.681 -1669.77 8507.16)
(5961.64 -645.643 7730.89 -829.382 -999.781 8507.16)
(6022.2 -46.2067 7788.62 -889.911 -322.182 8507.13)
(5977.73 554.622 7787.05 -845.362 357.859 8507.26)
(5829.6 1138.6 7726.23 -697.216 1035.18 8507.27)
(5582.21 1687.98 7606.6 -450.001 1704.62 8507.21)
(5243.52 2186.1 7429.09 -110.849 2361.11 8507.37)
(4823.05 2617.78 7195.04 309.237 2999.61 8507.16)
(4334.18 2969.89 6906.22 798.121 3615.27 8507.26)
(3791.68 3231.83 6564.86 1340.76 4203.45 8507.2)
(3211.83 3395.52 6173.52 1920.55 4759.62 8507.19)
(2612.32 3456.01 5735.2 2519.88 5279.54 8507.21)
(2011.53 3411.56 5253.23 3120.79 5759.33 8507.19)
(1427.66 3263.42 4731.29 3704.89 6195.26 8507.3)
(878.144 3016.11 4173.33 4254.11 6584.03 8507.23)
(380.125 2677.17 3583.6 4752.31 6922.71 8507.29)
(-51.6162 2256.89 2966.62 5183.91 7208.7 8507.22)
(-403.764 1768.04 2327.04 5536.1 7439.84 8507.15)
(-665.681 1225.46 1669.77 5797.94 7614.34 8507.16)
(-829.382 645.643 999.781 5961.64 7730.89 8507.16)
(-889.911 46.2067 322.182 6022.2 7788.62 8507.13)
(-845.362 -554.622 -357.859 5977.73 7787.05 8507.26)
(-697.216 -1138.6 -1035.18 5829.6 7726.23 8507.27)
(-450.001 -1687.98 -1704.62 5582.21 7606.6 8507.21)
(-110.849 -2186.1 -2361.11 5243.52 7429.09 8507.37)
(309.237 -2617.78 -2999.61 4823.05 7195.04 8507.16)
(798.121 -2969.89 -3615.27 4334.18 6906.22 8507.26)
(1340.76 -3231.83 -4203.45 3791.68 6564.86 8507.2)
(1920.55 -3395.52 -4759.62 3211.83 6173.52 8507.19)