/*--------------------------------*- C++ -*----------------------------------*\
| =========                 |                                                 |
| \\      /  F ield         | OpenFOAM: The Open Source CFD Toolbox           |
|  \\    /   O peration     | Version:  2312                                  |
|   \\  /    A nd           | Website:  www.openfoam.com                      |
|    \\/     M anipulation  |                                                 |
\*---------------------------------------------------------------------------*/
FoamFile
{
    version     2.0;
    format      ascii;
    arch        "LSB;label=32;scalar=64";
    class       volVectorField;
    location    "0.3";
    object      U;
}
// * * * * * * * * * * * * * * * * * * * * * * * * * * * * * * * * * * * * * //

dimensions      [0 1 -1 0 0 0 0];

internalField   nonuniform List<vector> 
12960
(
(0.000133751 -0.000131604 -1.09604e-05)
(0.000144712 -0.000119446 -1.09604e-05)
(0.000154572 -0.000106379 -1.09604e-05)
(0.000163255 -9.25018e-05 -1.09605e-05)
(0.000170696 -7.79214e-05 -1.09606e-05)
(0.000176837 -6.27478e-05 -1.09604e-05)
(0.000181633 -4.70965e-05 -1.09605e-05)
(0.000185047 -3.1087e-05 -1.09607e-05)
(0.000187052 -1.48408e-05 -1.09609e-05)
(0.000187634 1.51825e-06 -1.09607e-05)
(0.000186788 1.7866e-05 -1.09604e-05)
(0.000184519 3.40777e-05 -1.09602e-05)
(0.000180847 5.00298e-05 -1.09602e-05)
(0.000175799 6.56015e-05 -1.09603e-05)
(0.000169412 8.06738e-05 -1.09605e-05)
(0.000161736 9.51321e-05 -1.09604e-05)
(0.00015283 0.000108866 -1.09604e-05)
(0.00014276 0.000121772 -1.09607e-05)
(0.000131604 0.000133751 -1.09604e-05)
(0.000119446 0.000144712 -1.09604e-05)
(0.000106379 0.000154572 -1.09604e-05)
(9.25018e-05 0.000163255 -1.09605e-05)
(7.79214e-05 0.000170696 -1.09606e-05)
(6.27478e-05 0.000176837 -1.09604e-05)
(4.70965e-05 0.000181633 -1.09605e-05)
(3.1087e-05 0.000185047 -1.09607e-05)
(1.48408e-05 0.000187052 -1.09609e-05)
(-1.51824e-06 0.000187634 -1.09607e-05)
(-1.7866e-05 0.000186788 -1.09604e-05)
(-3.40777e-05 0.000184519 -1.09602e-05)
(-5.00298e-05 0.000180847 -1.09602e-05)
(-6.56015e-05 0.000175799 -1.09603e-05)
(-8.06738e-05 0.000169412 -1.09605e-05)
(-9.51321e-05 0.000161736 -1.09604e-05)
(-0.000108866 0.00015283 -1.09604e-05)
(-0.000121772 0.00014276 -1.09607e-05)
(-0.000133751 0.000131604 -1.09604e-05)
(-0.000144712 0.000119446 -1.09604e-05)
(-0.000154572 0.000106379 -1.09604e-05)
(-0.000163255 9.25018e-05 -1.09605e-05)
(-0.000170696 7.79214e-05 -1.09606e-05)
(-0.000176837 6.27478e-05 -1.09604e-05)
(-0.000181633 4.70965e-05 -1.09605e-05)
(-0.000185047 3.10869e-05 -1.09607e-05)
(-0.000187052 1.48407e-05 -1.09609e-05)
(-0.000187634 -1.51827e-06 -1.09607e-05)
(-0.000186788 -1.7866e-05 -1.09604e-05)
(-0.000184519 -3.40777e-05 -1.09602e-05)
(-0.000180847 -5.00299e-05 -1.09602e-05)
(-0.000175799 -6.56015e-05 -1.09603e-05)
(-0.000169412 -8.06738e-05 -1.09605e-05)
(-0.000161736 -9.51322e-05 -1.09604e-05)
(-0.00015283 -0.000108866 -1.09604e-05)
(-0.00014276 -0.000121772 -1.09607e-05)
(-0.000131604 -0.000133751 -1.09604e-05)
(-0.000119446 -0.000144712 -1.09604e-05)
(-0.000106379 -0.000154572 -1.09604e-05)
(-9.25018e-05 -0.000163255 -1.09605e-05)
(-7.79214e-05 -0.000170696 -1.09606e-05)
(-6.27478e-05 -0.000176837 -1.09604e-05)
(-4.70965e-05 -0.000181633 -1.09605e-05)
(-3.10869e-05 -0.000185047 -1.09607e-05)
(-1.48407e-05 -0.000187052 -1.09609e-05)
(1.51828e-06 -0.000187634 -1.09607e-05)
(1.7866e-05 -0.000186788 -1.09604e-05)
(3.40777e-05 -0.000184519 -1.09602e-05)
(5.00299e-05 -0.000180847 -1.09602e-05)
(6.56015e-05 -0.000175799 -1.09603e-05)
(8.06738e-05 -0.000169412 -1.09605e-05)
(9.51322e-05 -0.000161736 -1.09604e-05)
(0.000108866 -0.00015283 -1.09604e-05)
(0.000121772 -0.00014276 -1.09607e-05)
(0.000122083 -0.000172691 2.12773e-05)
(0.000136669 -0.000161393 2.12773e-05)
(0.000150216 -0.000148868 2.12774e-05)
(0.000162619 -0.000135209 2.12775e-05)
(0.000173785 -0.000120521 2.12774e-05)
(0.000183628 -0.000104917 2.12774e-05)
(0.000192073 -8.85134e-05 2.12773e-05)
(0.000199057 -7.14362e-05 2.12772e-05)
(0.000204525 -5.38154e-05 2.12772e-05)
(0.000208437 -3.57853e-05 2.12773e-05)
(0.000210763 -1.74826e-05 2.12774e-05)
(0.000211485 9.53335e-07 2.12774e-05)
(0.000210596 1.93817e-05 2.12774e-05)
(0.000208105 3.76626e-05 2.12774e-05)
(0.000204031 5.56569e-05 2.12774e-05)
(0.000198404 7.32276e-05 2.12774e-05)
(0.000191266 9.02408e-05 2.12773e-05)
(0.000182674 0.000106568 2.12773e-05)
(0.000172691 0.000122083 2.12773e-05)
(0.000161393 0.000136669 2.12773e-05)
(0.000148868 0.000150216 2.12774e-05)
(0.000135209 0.000162619 2.12775e-05)
(0.000120521 0.000173785 2.12774e-05)
(0.000104917 0.000183628 2.12774e-05)
(8.85134e-05 0.000192073 2.12773e-05)
(7.14362e-05 0.000199057 2.12772e-05)
(5.38154e-05 0.000204525 2.12772e-05)
(3.57853e-05 0.000208437 2.12773e-05)
(1.74826e-05 0.000210763 2.12774e-05)
(-9.53329e-07 0.000211485 2.12774e-05)
(-1.93817e-05 0.000210596 2.12774e-05)
(-3.76626e-05 0.000208105 2.12774e-05)
(-5.56569e-05 0.000204031 2.12774e-05)
(-7.32276e-05 0.000198404 2.12774e-05)
(-9.02408e-05 0.000191266 2.12773e-05)
(-0.000106568 0.000182674 2.12773e-05)
(-0.000122083 0.000172691 2.12773e-05)
(-0.000136669 0.000161393 2.12773e-05)
(-0.000150216 0.000148868 2.12774e-05)
(-0.000162619 0.000135209 2.12775e-05)
(-0.000173785 0.000120521 2.12774e-05)
(-0.000183628 0.000104917 2.12774e-05)
(-0.000192073 8.85134e-05 2.12773e-05)
(-0.000199057 7.14361e-05 2.12772e-05)
(-0.000204525 5.38154e-05 2.12772e-05)
(-0.000208437 3.57853e-05 2.12773e-05)
(-0.000210763 1.74826e-05 2.12774e-05)
(-0.000211485 -9.53353e-07 2.12774e-05)
(-0.000210596 -1.93817e-05 2.12774e-05)
(-0.000208105 -3.76626e-05 2.12774e-05)
(-0.000204031 -5.5657e-05 2.12774e-05)
(-0.000198404 -7.32276e-05 2.12774e-05)
(-0.000191266 -9.02409e-05 2.12773e-05)
(-0.000182674 -0.000106568 2.12773e-05)
(-0.000172691 -0.000122083 2.12773e-05)
(-0.000161393 -0.000136669 2.12773e-05)
(-0.000148868 -0.000150216 2.12774e-05)
(-0.000135209 -0.000162619 2.12775e-05)
(-0.000120521 -0.000173785 2.12774e-05)
(-0.000104917 -0.000183628 2.12774e-05)
(-8.85134e-05 -0.000192073 2.12773e-05)
(-7.14361e-05 -0.000199057 2.12772e-05)
(-5.38154e-05 -0.000204525 2.12772e-05)
(-3.57853e-05 -0.000208437 2.12773e-05)
(-1.74826e-05 -0.000210763 2.12774e-05)
(9.5336e-07 -0.000211485 2.12774e-05)
(1.93818e-05 -0.000210596 2.12774e-05)
(3.76626e-05 -0.000208105 2.12775e-05)
(5.5657e-05 -0.000204031 2.12774e-05)
(7.32276e-05 -0.000198404 2.12774e-05)
(9.02409e-05 -0.000191266 2.12773e-05)
(0.000106568 -0.000182674 2.12773e-05)
(9.15246e-05 -0.000211651 3.71073e-05)
(0.000109623 -0.000202869 3.71074e-05)
(0.000126887 -0.000192543 3.71074e-05)
(0.000143185 -0.000180751 3.71074e-05)
(0.000158394 -0.000167584 3.71076e-05)
(0.000172397 -0.000153141 3.71073e-05)
(0.000185087 -0.000137533 3.71073e-05)
(0.00019637 -0.000120878 3.71073e-05)
(0.000206158 -0.000103303 3.71073e-05)
(0.000214377 -8.49425e-05 3.71073e-05)
(0.000220965 -6.5935e-05 3.71074e-05)
(0.00022587 -4.64256e-05 3.71073e-05)
(0.000229057 -2.65631e-05 3.71074e-05)
(0.000230501 -6.49824e-06 3.71075e-05)
(0.00023019 1.36158e-05 3.71074e-05)
(0.000228127 3.36266e-05 3.71074e-05)
(0.000224329 5.33813e-05 3.71075e-05)
(0.000218822 7.27297e-05 3.71073e-05)
(0.000211651 9.15246e-05 3.71073e-05)
(0.000202869 0.000109623 3.71074e-05)
(0.000192543 0.000126887 3.71074e-05)
(0.000180751 0.000143185 3.71074e-05)
(0.000167584 0.000158394 3.71076e-05)
(0.000153141 0.000172397 3.71073e-05)
(0.000137533 0.000185087 3.71073e-05)
(0.000120878 0.00019637 3.71073e-05)
(0.000103303 0.000206158 3.71073e-05)
(8.49425e-05 0.000214377 3.71073e-05)
(6.5935e-05 0.000220965 3.71074e-05)
(4.64257e-05 0.00022587 3.71073e-05)
(2.65631e-05 0.000229057 3.71074e-05)
(6.49824e-06 0.000230501 3.71075e-05)
(-1.36158e-05 0.00023019 3.71074e-05)
(-3.36266e-05 0.000228127 3.71074e-05)
(-5.33813e-05 0.000224328 3.71075e-05)
(-7.27297e-05 0.000218822 3.71073e-05)
(-9.15246e-05 0.000211651 3.71073e-05)
(-0.000109623 0.000202869 3.71074e-05)
(-0.000126887 0.000192543 3.71074e-05)
(-0.000143185 0.000180751 3.71074e-05)
(-0.000158394 0.000167584 3.71076e-05)
(-0.000172397 0.000153141 3.71073e-05)
(-0.000185087 0.000137533 3.71073e-05)
(-0.00019637 0.000120878 3.71073e-05)
(-0.000206158 0.000103303 3.71073e-05)
(-0.000214377 8.49424e-05 3.71073e-05)
(-0.000220965 6.5935e-05 3.71074e-05)
(-0.00022587 4.64256e-05 3.71073e-05)
(-0.000229057 2.65631e-05 3.71074e-05)
(-0.000230501 6.49822e-06 3.71075e-05)
(-0.00023019 -1.36159e-05 3.71074e-05)
(-0.000228127 -3.36266e-05 3.71074e-05)
(-0.000224328 -5.33813e-05 3.71075e-05)
(-0.000218822 -7.27297e-05 3.71073e-05)
(-0.000211651 -9.15246e-05 3.71073e-05)
(-0.000202869 -0.000109623 3.71074e-05)
(-0.000192543 -0.000126887 3.71074e-05)
(-0.000180751 -0.000143185 3.71074e-05)
(-0.000167584 -0.000158394 3.71076e-05)
(-0.000153141 -0.000172397 3.71073e-05)
(-0.000137533 -0.000185087 3.71073e-05)
(-0.000120878 -0.00019637 3.71073e-05)
(-0.000103303 -0.000206158 3.71073e-05)
(-8.49424e-05 -0.000214377 3.71073e-05)
(-6.59349e-05 -0.000220965 3.71074e-05)
(-4.64256e-05 -0.00022587 3.71073e-05)
(-2.65631e-05 -0.000229057 3.71074e-05)
(-6.49821e-06 -0.000230501 3.71075e-05)
(1.36159e-05 -0.00023019 3.71074e-05)
(3.36266e-05 -0.000228127 3.71074e-05)
(5.33813e-05 -0.000224329 3.71075e-05)
(7.27297e-05 -0.000218822 3.71073e-05)
(4.81756e-05 -0.000244302 4.34274e-05)
(6.92846e-05 -0.000239174 4.34275e-05)
(8.98665e-05 -0.000232225 4.34277e-05)
(0.000109764 -0.000223508 4.34274e-05)
(0.000128826 -0.000213091 4.34275e-05)
(0.000146908 -0.000201053 4.34275e-05)
(0.000163872 -0.000187484 4.34276e-05)
(0.000179589 -0.000172488 4.34276e-05)
(0.000193939 -0.00015618 4.34275e-05)
(0.000206813 -0.000138683 4.34275e-05)
(0.000218113 -0.00012013 4.34276e-05)
(0.000227752 -0.000100663 4.34275e-05)
(0.000235659 -8.04299e-05 4.34275e-05)
(0.000241771 -5.95844e-05 4.34273e-05)
(0.000246045 -3.8286e-05 4.34275e-05)
(0.000248447 -1.66962e-05 4.34276e-05)
(0.000248956 5.02097e-06 4.34275e-05)
(0.000247571 2.66999e-05 4.34274e-05)
(0.000244302 4.81756e-05 4.34274e-05)
(0.000239174 6.92846e-05 4.34275e-05)
(0.000232225 8.98665e-05 4.34277e-05)
(0.000223508 0.000109764 4.34274e-05)
(0.000213091 0.000128826 4.34275e-05)
(0.000201053 0.000146908 4.34275e-05)
(0.000187484 0.000163872 4.34276e-05)
(0.000172488 0.000179589 4.34276e-05)
(0.00015618 0.000193939 4.34275e-05)
(0.000138683 0.000206813 4.34275e-05)
(0.00012013 0.000218113 4.34276e-05)
(0.000100663 0.000227752 4.34275e-05)
(8.04299e-05 0.000235659 4.34275e-05)
(5.95844e-05 0.000241771 4.34273e-05)
(3.8286e-05 0.000246045 4.34275e-05)
(1.66962e-05 0.000248447 4.34276e-05)
(-5.02097e-06 0.000248956 4.34275e-05)
(-2.66999e-05 0.000247571 4.34274e-05)
(-4.81756e-05 0.000244302 4.34274e-05)
(-6.92846e-05 0.000239174 4.34275e-05)
(-8.98665e-05 0.000232225 4.34277e-05)
(-0.000109764 0.000223508 4.34274e-05)
(-0.000128826 0.000213091 4.34275e-05)
(-0.000146908 0.000201053 4.34275e-05)
(-0.000163872 0.000187484 4.34276e-05)
(-0.000179589 0.000172488 4.34276e-05)
(-0.000193939 0.00015618 4.34275e-05)
(-0.000206813 0.000138683 4.34275e-05)
(-0.000218113 0.00012013 4.34276e-05)
(-0.000227752 0.000100663 4.34275e-05)
(-0.000235659 8.04299e-05 4.34275e-05)
(-0.000241771 5.95844e-05 4.34273e-05)
(-0.000246045 3.8286e-05 4.34275e-05)
(-0.000248447 1.66962e-05 4.34276e-05)
(-0.000248956 -5.02099e-06 4.34275e-05)
(-0.000247571 -2.66999e-05 4.34274e-05)
(-0.000244302 -4.81756e-05 4.34274e-05)
(-0.000239174 -6.92846e-05 4.34275e-05)
(-0.000232225 -8.98665e-05 4.34277e-05)
(-0.000223508 -0.000109764 4.34274e-05)
(-0.000213091 -0.000128826 4.34275e-05)
(-0.000201053 -0.000146908 4.34275e-05)
(-0.000187484 -0.000163872 4.34276e-05)
(-0.000172488 -0.000179589 4.34276e-05)
(-0.00015618 -0.000193939 4.34275e-05)
(-0.000138683 -0.000206813 4.34275e-05)
(-0.00012013 -0.000218113 4.34276e-05)
(-0.000100663 -0.000227752 4.34275e-05)
(-8.04299e-05 -0.000235659 4.34275e-05)
(-5.95844e-05 -0.000241771 4.34273e-05)
(-3.8286e-05 -0.000246045 4.34275e-05)
(-1.66962e-05 -0.000248447 4.34276e-05)
(5.02099e-06 -0.000248956 4.34275e-05)
(2.66999e-05 -0.000247571 4.34274e-05)
(-9.33385e-06 -0.000269137 4.99403e-05)
(1.41585e-05 -0.000268927 4.99405e-05)
(3.75429e-05 -0.000266669 4.99404e-05)
(6.06418e-05 -0.000262382 4.99405e-05)
(8.32792e-05 -0.000256098 4.99404e-05)
(0.000105283 -0.000247865 4.99404e-05)
(0.000126484 -0.000237746 4.99403e-05)
(0.000146724 -0.000225817 4.99402e-05)
(0.000165848 -0.000212171 4.99404e-05)
(0.000183709 -0.00019691 4.99405e-05)
(0.000200171 -0.000180148 4.99402e-05)
(0.000215109 -0.000162016 4.99403e-05)
(0.000228412 -0.000142652 4.99402e-05)
(0.000239976 -0.000122202 4.99401e-05)
(0.000249713 -0.000100822 4.99404e-05)
(0.00025755 -7.86739e-05 4.99404e-05)
(0.000263428 -5.59274e-05 4.99405e-05)
(0.000267299 -3.27553e-05 4.99403e-05)
(0.000269137 -9.33387e-06 4.99403e-05)
(0.000268927 1.41585e-05 4.99405e-05)
(0.000266669 3.75428e-05 4.99404e-05)
(0.000262382 6.06418e-05 4.99405e-05)
(0.000256098 8.32791e-05 4.99404e-05)
(0.000247865 0.000105283 4.99404e-05)
(0.000237746 0.000126484 4.99403e-05)
(0.000225817 0.000146724 4.99402e-05)
(0.000212171 0.000165848 4.99404e-05)
(0.00019691 0.000183709 4.99405e-05)
(0.000180148 0.000200171 4.99402e-05)
(0.000162016 0.000215109 4.99403e-05)
(0.000142652 0.000228412 4.99402e-05)
(0.000122202 0.000239976 4.99401e-05)
(0.000100822 0.000249713 4.99404e-05)
(7.86739e-05 0.00025755 4.99404e-05)
(5.59274e-05 0.000263428 4.99405e-05)
(3.27553e-05 0.000267299 4.99403e-05)
(9.33387e-06 0.000269137 4.99403e-05)
(-1.41585e-05 0.000268927 4.99405e-05)
(-3.75428e-05 0.000266669 4.99404e-05)
(-6.06418e-05 0.000262382 4.99405e-05)
(-8.32791e-05 0.000256098 4.99404e-05)
(-0.000105283 0.000247865 4.99404e-05)
(-0.000126484 0.000237746 4.99403e-05)
(-0.000146724 0.000225817 4.99402e-05)
(-0.000165848 0.000212171 4.99404e-05)
(-0.000183709 0.00019691 4.99405e-05)
(-0.000200171 0.000180148 4.99402e-05)
(-0.000215109 0.000162016 4.99403e-05)
(-0.000228412 0.000142652 4.99402e-05)
(-0.000239976 0.000122201 4.99401e-05)
(-0.000249713 0.000100822 4.99404e-05)
(-0.00025755 7.86738e-05 4.99404e-05)
(-0.000263428 5.59274e-05 4.99405e-05)
(-0.000267299 3.27553e-05 4.99403e-05)
(-0.000269137 9.33385e-06 4.99403e-05)
(-0.000268927 -1.41585e-05 4.99405e-05)
(-0.000266669 -3.75429e-05 4.99404e-05)
(-0.000262382 -6.06418e-05 4.99405e-05)
(-0.000256098 -8.32792e-05 4.99404e-05)
(-0.000247865 -0.000105283 4.99404e-05)
(-0.000237746 -0.000126484 4.99403e-05)
(-0.000225817 -0.000146724 4.99402e-05)
(-0.000212171 -0.000165848 4.99404e-05)
(-0.00019691 -0.000183709 4.99405e-05)
(-0.000180148 -0.000200171 4.99402e-05)
(-0.000162016 -0.000215109 4.99403e-05)
(-0.000142652 -0.000228412 4.99402e-05)
(-0.000122201 -0.000239976 4.99401e-05)
(-0.000100822 -0.000249713 4.99404e-05)
(-7.86738e-05 -0.00025755 4.99404e-05)
(-5.59274e-05 -0.000263428 4.99405e-05)
(-3.27553e-05 -0.000267299 4.99403e-05)
(-9.53474e-05 -0.000289427 5.7434e-05)
(-6.9759e-05 -0.000296635 5.74339e-05)
(-4.36403e-05 -0.000301586 5.74339e-05)
(-1.7189e-05 -0.000304244 5.74342e-05)
(9.39329e-06 -0.000304584 5.7434e-05)
(3.59037e-05 -0.000302606 5.74339e-05)
(6.21407e-05 -0.000298325 5.74338e-05)
(8.79044e-05 -0.000291773 5.74337e-05)
(0.000113 -0.000283002 5.7434e-05)
(0.000137235 -0.000272077 5.74341e-05)
(0.000160426 -0.00025908 5.74339e-05)
(0.000182396 -0.000244112 5.74339e-05)
(0.000202977 -0.000227286 5.74336e-05)
(0.000222015 -0.000208731 5.74336e-05)
(0.000239362 -0.000188588 5.74338e-05)
(0.000254887 -0.000167008 5.74338e-05)
(0.000268472 -0.000144157 5.74338e-05)
(0.000280016 -0.00012021 5.74341e-05)
(0.000289427 -9.53474e-05 5.7434e-05)
(0.000296635 -6.97591e-05 5.74339e-05)
(0.000301586 -4.36403e-05 5.74339e-05)
(0.000304244 -1.7189e-05 5.74342e-05)
(0.000304584 9.39327e-06 5.7434e-05)
(0.000302606 3.59037e-05 5.74339e-05)
(0.000298325 6.21407e-05 5.74338e-05)
(0.000291773 8.79044e-05 5.74337e-05)
(0.000283002 0.000113 5.7434e-05)
(0.000272077 0.000137235 5.74341e-05)
(0.00025908 0.000160426 5.74339e-05)
(0.000244112 0.000182396 5.74339e-05)
(0.000227286 0.000202977 5.74336e-05)
(0.000208731 0.000222015 5.74336e-05)
(0.000188588 0.000239362 5.74338e-05)
(0.000167008 0.000254887 5.74338e-05)
(0.000144157 0.000268472 5.74338e-05)
(0.00012021 0.000280016 5.74341e-05)
(9.53474e-05 0.000289427 5.7434e-05)
(6.97591e-05 0.000296635 5.74339e-05)
(4.36403e-05 0.000301586 5.74339e-05)
(1.7189e-05 0.000304244 5.74342e-05)
(-9.39328e-06 0.000304584 5.7434e-05)
(-3.59037e-05 0.000302606 5.74339e-05)
(-6.21407e-05 0.000298325 5.74338e-05)
(-8.79044e-05 0.000291773 5.74337e-05)
(-0.000113 0.000283002 5.7434e-05)
(-0.000137235 0.000272077 5.74341e-05)
(-0.000160426 0.00025908 5.74339e-05)
(-0.000182396 0.000244112 5.74339e-05)
(-0.000202977 0.000227286 5.74336e-05)
(-0.000222015 0.000208731 5.74336e-05)
(-0.000239362 0.000188588 5.74338e-05)
(-0.000254887 0.000167007 5.74338e-05)
(-0.000268472 0.000144157 5.74339e-05)
(-0.000280016 0.00012021 5.74341e-05)
(-0.000289427 9.53474e-05 5.7434e-05)
(-0.000296635 6.9759e-05 5.74339e-05)
(-0.000301586 4.36403e-05 5.74339e-05)
(-0.000304244 1.7189e-05 5.74343e-05)
(-0.000304584 -9.39329e-06 5.7434e-05)
(-0.000302606 -3.59037e-05 5.74339e-05)
(-0.000298325 -6.21407e-05 5.74338e-05)
(-0.000291773 -8.79044e-05 5.74337e-05)
(-0.000283002 -0.000113 5.7434e-05)
(-0.000272077 -0.000137235 5.74341e-05)
(-0.00025908 -0.000160426 5.74339e-05)
(-0.000244112 -0.000182396 5.74339e-05)
(-0.000227286 -0.000202977 5.74336e-05)
(-0.000208731 -0.000222015 5.74336e-05)
(-0.000188588 -0.000239362 5.74338e-05)
(-0.000167007 -0.000254887 5.74338e-05)
(-0.000144157 -0.000268472 5.74339e-05)
(-0.00012021 -0.000280016 5.74341e-05)
(0.000342567 -0.000415093 2.06142e-06)
(0.000377441 -0.000383658 2.06107e-06)
(0.000409443 -0.000349302 2.06155e-06)
(0.000438328 -0.000312286 2.06154e-06)
(0.000463878 -0.000272896 2.06128e-06)
(0.000485897 -0.000231428 2.06089e-06)
(0.000504218 -0.000188199 2.06097e-06)
(0.000518702 -0.000143536 2.06057e-06)
(0.000529239 -9.77825e-05 2.06011e-06)
(0.000535747 -5.12842e-05 2.06043e-06)
(0.000538177 -4.39566e-06 2.06143e-06)
(0.000536512 4.25262e-05 2.06144e-06)
(0.000530764 8.91244e-05 2.06141e-06)
(0.000520977 0.000135045 2.06176e-06)
(0.000507223 0.000179937 2.06175e-06)
(0.000489611 0.00022346 2.06141e-06)
(0.000468273 0.000265282 2.06124e-06)
(0.00044337 0.000305085 2.06117e-06)
(0.000415093 0.000342567 2.06141e-06)
(0.000383658 0.000377441 2.06106e-06)
(0.000349302 0.000409443 2.06154e-06)
(0.000312286 0.000438328 2.06153e-06)
(0.000272896 0.000463878 2.06128e-06)
(0.000231428 0.000485897 2.06088e-06)
(0.000188199 0.000504218 2.06096e-06)
(0.000143536 0.000518702 2.06056e-06)
(9.77826e-05 0.000529239 2.0601e-06)
(5.12842e-05 0.000535747 2.06043e-06)
(4.39568e-06 0.000538177 2.06142e-06)
(-4.25262e-05 0.000536512 2.06144e-06)
(-8.91244e-05 0.000530764 2.0614e-06)
(-0.000135044 0.000520977 2.06175e-06)
(-0.000179937 0.000507223 2.06175e-06)
(-0.00022346 0.000489611 2.0614e-06)
(-0.000265282 0.000468273 2.06124e-06)
(-0.000305085 0.00044337 2.06116e-06)
(-0.000342567 0.000415093 2.06141e-06)
(-0.000377441 0.000383658 2.06106e-06)
(-0.000409443 0.000349302 2.06154e-06)
(-0.000438328 0.000312286 2.06153e-06)
(-0.000463878 0.000272896 2.06127e-06)
(-0.000485897 0.000231428 2.06088e-06)
(-0.000504218 0.000188199 2.06096e-06)
(-0.000518702 0.000143536 2.06056e-06)
(-0.000529239 9.77825e-05 2.0601e-06)
(-0.000535747 5.12841e-05 2.06043e-06)
(-0.000538177 4.39561e-06 2.06143e-06)
(-0.000536512 -4.25263e-05 2.06144e-06)
(-0.000530764 -8.91244e-05 2.06141e-06)
(-0.000520977 -0.000135045 2.06176e-06)
(-0.000507223 -0.000179937 2.06175e-06)
(-0.000489611 -0.00022346 2.06141e-06)
(-0.000468273 -0.000265282 2.06124e-06)
(-0.00044337 -0.000305086 2.06117e-06)
(-0.000415093 -0.000342567 2.06142e-06)
(-0.000383658 -0.000377441 2.06107e-06)
(-0.000349302 -0.000409443 2.06154e-06)
(-0.000312286 -0.000438328 2.06153e-06)
(-0.000272896 -0.000463878 2.06128e-06)
(-0.000231428 -0.000485897 2.06089e-06)
(-0.000188199 -0.000504218 2.06097e-06)
(-0.000143536 -0.000518702 2.06057e-06)
(-9.77825e-05 -0.000529239 2.06011e-06)
(-5.12841e-05 -0.000535747 2.06044e-06)
(-4.39559e-06 -0.000538177 2.06143e-06)
(4.25263e-05 -0.000536512 2.06145e-06)
(8.91244e-05 -0.000530764 2.06141e-06)
(0.000135045 -0.000520977 2.06176e-06)
(0.000179937 -0.000507223 2.06176e-06)
(0.00022346 -0.000489611 2.06141e-06)
(0.000265282 -0.000468273 2.06125e-06)
(0.000305086 -0.00044337 2.06117e-06)
(0.000295537 -0.000524606 9.14618e-05)
(0.000340135 -0.000496852 9.14616e-05)
(0.000382144 -0.000465317 9.14621e-05)
(0.000421245 -0.00043024 9.14622e-05)
(0.00045714 -0.000391889 9.14617e-05)
(0.000489555 -0.000350555 9.14616e-05)
(0.000518246 -0.000306554 9.14621e-05)
(0.000542991 -0.000260219 9.14617e-05)
(0.000563605 -0.000211905 9.14618e-05)
(0.000579929 -0.000161977 9.14619e-05)
(0.000591839 -0.000110816 9.14621e-05)
(0.000599245 -5.8812e-05 9.14623e-05)
(0.000602089 -6.36081e-06 9.14621e-05)
(0.000600353 4.61393e-05 9.14619e-05)
(0.000594047 9.82879e-05 9.14623e-05)
(0.00058322 0.000149689 9.14623e-05)
(0.000567955 0.00019995 9.14618e-05)
(0.000548367 0.00024869 9.14618e-05)
(0.000524606 0.000295537 9.14618e-05)
(0.000496852 0.000340135 9.14616e-05)
(0.000465317 0.000382144 9.14621e-05)
(0.00043024 0.000421245 9.14622e-05)
(0.000391889 0.000457139 9.14617e-05)
(0.000350555 0.000489555 9.14616e-05)
(0.000306554 0.000518245 9.1462e-05)
(0.000260219 0.000542991 9.14617e-05)
(0.000211905 0.000563605 9.14618e-05)
(0.000161977 0.000579929 9.14619e-05)
(0.000110816 0.000591838 9.14621e-05)
(5.8812e-05 0.000599245 9.14623e-05)
(6.36083e-06 0.000602089 9.14621e-05)
(-4.61393e-05 0.000600353 9.14619e-05)
(-9.82879e-05 0.000594047 9.14623e-05)
(-0.000149688 0.00058322 9.14623e-05)
(-0.00019995 0.000567955 9.14618e-05)
(-0.00024869 0.000548367 9.14618e-05)
(-0.000295537 0.000524606 9.14618e-05)
(-0.000340135 0.000496852 9.14616e-05)
(-0.000382144 0.000465317 9.14621e-05)
(-0.000421245 0.00043024 9.14622e-05)
(-0.00045714 0.000391889 9.14617e-05)
(-0.000489555 0.000350555 9.14616e-05)
(-0.000518245 0.000306554 9.1462e-05)
(-0.000542991 0.000260219 9.14617e-05)
(-0.000563605 0.000211905 9.14618e-05)
(-0.000579929 0.000161977 9.14619e-05)
(-0.000591838 0.000110816 9.14621e-05)
(-0.000599245 5.88119e-05 9.14623e-05)
(-0.000602089 6.36076e-06 9.14621e-05)
(-0.000600353 -4.61393e-05 9.14619e-05)
(-0.000594047 -9.8288e-05 9.14623e-05)
(-0.00058322 -0.000149689 9.14623e-05)
(-0.000567955 -0.00019995 9.14618e-05)
(-0.000548367 -0.00024869 9.14618e-05)
(-0.000524606 -0.000295537 9.14618e-05)
(-0.000496852 -0.000340135 9.14616e-05)
(-0.000465317 -0.000382144 9.14621e-05)
(-0.00043024 -0.000421245 9.14622e-05)
(-0.000391889 -0.00045714 9.14617e-05)
(-0.000350555 -0.000489555 9.14616e-05)
(-0.000306554 -0.000518246 9.14621e-05)
(-0.000260219 -0.000542991 9.14617e-05)
(-0.000211904 -0.000563605 9.14618e-05)
(-0.000161977 -0.000579929 9.14619e-05)
(-0.000110816 -0.000591839 9.14621e-05)
(-5.88119e-05 -0.000599245 9.14623e-05)
(-6.36074e-06 -0.000602089 9.14621e-05)
(4.61394e-05 -0.000600353 9.14619e-05)
(9.8288e-05 -0.000594047 9.14623e-05)
(0.000149689 -0.00058322 9.14623e-05)
(0.00019995 -0.000567955 9.14618e-05)
(0.00024869 -0.000548367 9.14618e-05)
(0.000218656 -0.000629868 0.000154371)
(0.00027272 -0.000608414 0.000154371)
(0.000324709 -0.00058233 0.000154371)
(0.000374227 -0.000551814 0.000154371)
(0.000420896 -0.000517097 0.000154371)
(0.000464363 -0.000478447 0.000154372)
(0.000504295 -0.000436155 0.000154372)
(0.000540389 -0.000390542 0.000154372)
(0.00057237 -0.000341958 0.000154371)
(0.000599996 -0.000290772 0.000154371)
(0.000623055 -0.000237372 0.000154371)
(0.000641373 -0.000182166 0.000154372)
(0.000654809 -0.000125573 0.000154372)
(0.000663261 -6.80246e-05 0.000154371)
(0.000666666 -9.95915e-06 0.000154372)
(0.000664997 4.81832e-05 0.000154371)
(0.000658267 0.000105958 0.000154371)
(0.000646528 0.000162927 0.000154371)
(0.000629868 0.000218656 0.000154371)
(0.000608414 0.00027272 0.000154371)
(0.00058233 0.000324709 0.000154371)
(0.000551814 0.000374227 0.000154371)
(0.000517097 0.000420896 0.000154371)
(0.000478447 0.000464363 0.000154372)
(0.000436155 0.000504295 0.000154372)
(0.000390542 0.000540389 0.000154372)
(0.000341958 0.00057237 0.000154371)
(0.000290772 0.000599996 0.000154371)
(0.000237372 0.000623055 0.000154371)
(0.000182166 0.000641373 0.000154372)
(0.000125573 0.000654809 0.000154372)
(6.80246e-05 0.000663261 0.000154371)
(9.95916e-06 0.000666666 0.000154372)
(-4.81832e-05 0.000664997 0.000154371)
(-0.000105958 0.000658267 0.000154371)
(-0.000162927 0.000646528 0.000154371)
(-0.000218656 0.000629867 0.000154371)
(-0.00027272 0.000608414 0.000154371)
(-0.000324709 0.00058233 0.000154371)
(-0.000374227 0.000551813 0.000154371)
(-0.000420896 0.000517097 0.000154371)
(-0.000464363 0.000478447 0.000154372)
(-0.000504295 0.000436155 0.000154372)
(-0.000540389 0.000390542 0.000154372)
(-0.00057237 0.000341958 0.000154371)
(-0.000599996 0.000290772 0.000154371)
(-0.000623055 0.000237372 0.000154371)
(-0.000641373 0.000182166 0.000154372)
(-0.000654809 0.000125573 0.000154372)
(-0.000663261 6.80245e-05 0.000154371)
(-0.000666666 9.95909e-06 0.000154372)
(-0.000664997 -4.81833e-05 0.000154371)
(-0.000658267 -0.000105958 0.000154371)
(-0.000646528 -0.000162927 0.000154371)
(-0.000629867 -0.000218656 0.000154371)
(-0.000608414 -0.00027272 0.000154371)
(-0.00058233 -0.000324709 0.000154371)
(-0.000551813 -0.000374227 0.000154371)
(-0.000517097 -0.000420896 0.000154371)
(-0.000478447 -0.000464363 0.000154372)
(-0.000436155 -0.000504295 0.000154372)
(-0.000390542 -0.000540389 0.000154372)
(-0.000341958 -0.00057237 0.000154371)
(-0.000290772 -0.000599996 0.000154371)
(-0.000237372 -0.000623055 0.000154371)
(-0.000182166 -0.000641373 0.000154372)
(-0.000125573 -0.000654809 0.000154372)
(-6.80245e-05 -0.000663261 0.000154371)
(-9.95908e-06 -0.000666666 0.000154372)
(4.81833e-05 -0.000664997 0.000154371)
(0.000105958 -0.000658267 0.000154371)
(0.000162927 -0.000646528 0.000154371)
(0.000119108 -0.000722013 0.000194584)
(0.000181582 -0.000708885 0.000194584)
(0.000242675 -0.000690361 0.000194584)
(0.00030192 -0.000666584 0.000194584)
(0.000358867 -0.000637733 0.000194584)
(0.000413083 -0.000604029 0.000194584)
(0.000464156 -0.000565728 0.000194584)
(0.000511696 -0.000523122 0.000194584)
(0.000555342 -0.000476533 0.000194584)
(0.000594761 -0.000426318 0.000194584)
(0.000629654 -0.00037286 0.000194584)
(0.000659755 -0.000316563 0.000194584)
(0.000684834 -0.000257857 0.000194584)
(0.000704702 -0.000197188 0.000194584)
(0.000719206 -0.000135018 0.000194584)
(0.000728238 -7.1822e-05 0.000194584)
(0.000731726 -8.07841e-06 0.000194584)
(0.000729646 5.57268e-05 0.000194584)
(0.000722013 0.000119108 0.000194584)
(0.000708885 0.000181582 0.000194584)
(0.000690361 0.000242675 0.000194584)
(0.000666584 0.00030192 0.000194584)
(0.000637733 0.000358867 0.000194584)
(0.000604029 0.000413083 0.000194584)
(0.000565728 0.000464156 0.000194584)
(0.000523122 0.000511696 0.000194584)
(0.000476533 0.000555342 0.000194584)
(0.000426318 0.000594761 0.000194584)
(0.00037286 0.000629654 0.000194584)
(0.000316563 0.000659754 0.000194584)
(0.000257857 0.000684834 0.000194584)
(0.000197188 0.000704702 0.000194584)
(0.000135018 0.000719206 0.000194584)
(7.18221e-05 0.000728238 0.000194584)
(8.07841e-06 0.000731726 0.000194584)
(-5.57268e-05 0.000729646 0.000194584)
(-0.000119108 0.000722013 0.000194584)
(-0.000181582 0.000708885 0.000194584)
(-0.000242675 0.000690361 0.000194584)
(-0.00030192 0.000666583 0.000194584)
(-0.000358867 0.000637733 0.000194584)
(-0.000413083 0.000604029 0.000194584)
(-0.000464156 0.000565728 0.000194584)
(-0.000511696 0.000523122 0.000194584)
(-0.000555342 0.000476533 0.000194584)
(-0.000594761 0.000426318 0.000194584)
(-0.000629654 0.00037286 0.000194584)
(-0.000659754 0.000316563 0.000194584)
(-0.000684834 0.000257857 0.000194584)
(-0.000704702 0.000197188 0.000194584)
(-0.000719206 0.000135018 0.000194584)
(-0.000728238 7.1822e-05 0.000194584)
(-0.000731726 8.07835e-06 0.000194584)
(-0.000729646 -5.57269e-05 0.000194584)
(-0.000722013 -0.000119108 0.000194584)
(-0.000708885 -0.000181582 0.000194584)
(-0.000690361 -0.000242675 0.000194584)
(-0.000666583 -0.00030192 0.000194584)
(-0.000637733 -0.000358867 0.000194584)
(-0.000604029 -0.000413083 0.000194584)
(-0.000565728 -0.000464156 0.000194584)
(-0.000523122 -0.000511696 0.000194584)
(-0.000476533 -0.000555342 0.000194584)
(-0.000426318 -0.000594761 0.000194584)
(-0.00037286 -0.000629654 0.000194584)
(-0.000316563 -0.000659755 0.000194584)
(-0.000257857 -0.000684834 0.000194584)
(-0.000197188 -0.000704702 0.000194584)
(-0.000135018 -0.000719206 0.000194584)
(-7.1822e-05 -0.000728238 0.000194584)
(-8.07834e-06 -0.000731726 0.000194584)
(5.57269e-05 -0.000729646 0.000194584)
(-2.64361e-06 -0.000795632 0.00022579)
(6.67098e-05 -0.000792836 0.00022579)
(0.000135556 -0.000784005 0.00022579)
(0.000203372 -0.000769206 0.00022579)
(0.000269638 -0.000748553 0.00022579)
(0.000333853 -0.000722205 0.00022579)
(0.000395527 -0.00069036 0.00022579)
(0.00045419 -0.00065326 0.000225789)
(0.000509396 -0.000611188 0.000225789)
(0.000560727 -0.000564466 0.000225789)
(0.00060779 -0.000513448 0.000225789)
(0.000650228 -0.000458522 0.00022579)
(0.000687715 -0.000400105 0.000225789)
(0.000719969 -0.000338644 0.000225789)
(0.000746745 -0.000274607 0.000225789)
(0.000767837 -0.000208479 0.00022579)
(0.000783086 -0.000140764 0.00022579)
(0.000792374 -7.19778e-05 0.00022579)
(0.000795632 -2.64367e-06 0.00022579)
(0.000792836 6.67098e-05 0.00022579)
(0.000784005 0.000135556 0.00022579)
(0.000769206 0.000203371 0.00022579)
(0.000748553 0.000269638 0.00022579)
(0.000722205 0.000333853 0.00022579)
(0.00069036 0.000395527 0.00022579)
(0.00065326 0.00045419 0.000225789)
(0.000611188 0.000509396 0.000225789)
(0.000564466 0.000560727 0.000225789)
(0.000513448 0.00060779 0.000225789)