/*--------------------------------*- C++ -*----------------------------------*\
| =========                 |                                                 |
| \\      /  F ield         | OpenFOAM: The Open Source CFD Toolbox           |
|  \\    /   O peration     | Version:  2312                                  |
|   \\  /    A nd           | Website:  www.openfoam.com                      |
|    \\/     M anipulation  |                                                 |
\*---------------------------------------------------------------------------*/
FoamFile
{
    version     2.0;
    format      ascii;
    arch        "LSB;label=32;scalar=64";
    class       pointVectorField;
    location    "0.6";
    object      pointD;
}
// * * * * * * * * * * * * * * * * * * * * * * * * * * * * * * * * * * * * * //

dimensions      [0 1 0 0 0 0 0];

internalField   nonuniform List<vector> 
112333
(
(0 0 0)
(0 0 0)
(0 0 0)
(0 0 0)
(0 0 0)
(0 0 0)
(0 0 0)
(0 0 0)
(0 0 0)
(0 0 0)
(0 0 0)
(0 0 0)
(0 0 0)
(0 0 0)
(0 0 0)
(0 0 0)
(0 0 0)
(0 0 0)
(0 0 0)
(0 0 0)
(0 0 0)
(0 0 0)
(0 0 0)
(0 0 0)
(0 0 0)
(0 0 0)
(0 0 0)
(0 0 0)
(0 0 0)
(0 0 0)
(0 0 0)
(0 0 0)
(0 0 0)
(0 0 0)
(0 0 0)
(0 0 0)
(0 0 0)
(0 0 0)
(0 0 0)
(0 0 0)
(0 0 0)
(0 0 0)
(0 0 0)
(0 0 0)
(0 0 0)
(0 0 0)
(0 0 0)
(0 0 0)
(0 0 0)
(0 0 0)
(0 0 0)
(0 0 0)
(0 0 0)
(0 0 0)
(0 0 0)
(0 0 0)
(0 0 0)
(0 0 0)
(0 0 0)
(0 0 0)
(0 0 0)
(0 0 0)
(0 0 0)
(0 0 0)
(0 0 0)
(0 0 0)
(0 0 0)
(0 0 0)
(0 0 0)
(0 0 0)
(0 0 0)
(0 0 0)
(0 0 0)
(0 0 0)
(0 0 0)
(0 0 0)
(0 0 0)
(0 0 0)
(0 0 0)
(0 0 0)
(0 0 0)
(0 0 0)
(0 0 0)
(0 0 0)
(0 0 0)
(0 0 0)
(0 0 0)
(0 0 0)
(0 0 0)
(0 0 0)
(0 0 0)
(0 0 0)
(0 0 0)
(0 0 0)
(0 0 0)
(0 0 0)
(0 0 0)
(0 0 0)
(0 0 0)
(0 0 0)
(0 0 0)
(0 0 0)
(0 0 0)
(0 0 0)
(0 0 0)
(0 0 0)
(0 0 0)
(0 0 0)
(0 0 0)
(0 0 0)
(0 0 0)
(0 0 0)
(0 0 0)
(0 0 0)
(0 0 0)
(0 0 0)
(0 0 0)
(0 0 0)
(0 0 0)
(0 0 0)
(0 0 0)
(0 0 0)
(0 0 0)
(0 0 0)
(0 0 0)
(0 0 0)
(0 0 0)
(0 0 0)
(0 0 0)
(0 0 0)
(0 0 0)
(0 0 0)
(0 0 0)
(0 0 0)
(0 0 0)
(0 0 0)
(0 0 0)
(0 0 0)
(0 0 0)
(0 0 0)
(0 0 0)
(0 0 0)
(0 0 0)
(0 0 0)
(0.000146565 -0.000138524 -2.77809e-05)
(0.000152468 -0.000131999 -2.77811e-05)
(0.000158081 -0.000125223 -2.77817e-05)
(0.000163392 -0.000118209 -2.77811e-05)
(0.000168393 -0.000110969 -2.77807e-05)
(0.000173073 -0.000103518 -2.77811e-05)
(0.000177424 -9.58701e-05 -2.77813e-05)
(0.000181437 -8.80395e-05 -2.77809e-05)
(0.000185105 -8.00413e-05 -2.77805e-05)
(0.00018842 -7.18916e-05 -2.778e-05)
(0.000191376 -6.36049e-05 -2.77803e-05)
(0.000193969 -5.51964e-05 -2.77812e-05)
(0.000196192 -4.66828e-05 -2.77814e-05)
(0.000198041 -3.80804e-05 -2.77812e-05)
(0.000199513 -2.94061e-05 -2.77806e-05)
(0.000200606 -2.06748e-05 -2.77816e-05)
(0.000201317 -1.19047e-05 -2.77817e-05)
(0.000201645 -3.11189e-06 -2.77817e-05)
(0.000201589 5.68599e-06 -2.77809e-05)
(0.000201149 1.44738e-05 -2.7781e-05)
(0.000200326 2.32339e-05 -2.77809e-05)
(0.000199122 3.19505e-05 -2.77814e-05)
(0.000197539 4.06054e-05 -2.77811e-05)
(0.00019558 4.9183e-05 -2.7781e-05)
(0.000193248 5.76669e-05 -2.77807e-05)
(0.000190548 6.60417e-05 -2.77806e-05)
(0.000187486 7.42908e-05 -2.77809e-05)
(0.000184068 8.2398e-05 -2.7781e-05)
(0.000180299 9.03485e-05 -2.77812e-05)
(0.000176186 9.81271e-05 -2.7781e-05)
(0.000171738 0.000105719 -2.77807e-05)
(0.000166963 0.000113109 -2.7781e-05)
(0.00016187 0.000120285 -2.77812e-05)
(0.000156469 0.000127231 -2.77807e-05)
(0.000150771 0.000133935 -2.77809e-05)
(0.000144785 0.000140384 -2.77808e-05)
(0.000138524 0.000146565 -2.77809e-05)
(0.000131999 0.000152468 -2.77811e-05)
(0.000125223 0.000158081 -2.77817e-05)
(0.000118209 0.000163392 -2.77811e-05)
(0.000110969 0.000168393 -2.77807e-05)
(0.000103518 0.000173073 -2.77811e-05)
(9.58701e-05 0.000177424 -2.77813e-05)
(8.80395e-05 0.000181437 -2.77809e-05)
(8.00413e-05 0.000185105 -2.77805e-05)
(7.18916e-05 0.00018842 -2.778e-05)
(6.36049e-05 0.000191376 -2.77803e-05)
(5.51964e-05 0.000193969 -2.77812e-05)
(4.66828e-05 0.000196192 -2.77814e-05)
(3.80804e-05 0.000198041 -2.77812e-05)
(2.94061e-05 0.000199513 -2.77806e-05)
(2.06748e-05 0.000200606 -2.77816e-05)
(1.19047e-05 0.000201317 -2.77817e-05)
(3.11189e-06 0.000201645 -2.77817e-05)
(-5.68599e-06 0.000201589 -2.77809e-05)
(-1.44738e-05 0.000201149 -2.7781e-05)
(-2.32339e-05 0.000200326 -2.77809e-05)
(-3.19505e-05 0.000199122 -2.77814e-05)
(-4.06054e-05 0.000197539 -2.77811e-05)
(-4.9183e-05 0.00019558 -2.7781e-05)
(-5.76669e-05 0.000193248 -2.77807e-05)
(-6.60417e-05 0.000190548 -2.77806e-05)
(-7.42908e-05 0.000187486 -2.77809e-05)
(-8.2398e-05 0.000184068 -2.7781e-05)
(-9.03485e-05 0.000180299 -2.77812e-05)
(-9.81271e-05 0.000176186 -2.7781e-05)
(-0.000105719 0.000171738 -2.77807e-05)
(-0.000113109 0.000166963 -2.7781e-05)
(-0.000120285 0.00016187 -2.77812e-05)
(-0.000127231 0.000156469 -2.77807e-05)
(-0.000133935 0.000150771 -2.77809e-05)
(-0.000140384 0.000144785 -2.77808e-05)
(-0.000146565 0.000138524 -2.77809e-05)
(-0.000152468 0.000131999 -2.77811e-05)
(-0.000158081 0.000125223 -2.77817e-05)
(-0.000163392 0.000118209 -2.77811e-05)
(-0.000168393 0.000110969 -2.77807e-05)
(-0.000173073 0.000103518 -2.77811e-05)
(-0.000177424 9.58701e-05 -2.77813e-05)
(-0.000181437 8.80395e-05 -2.77809e-05)
(-0.000185105 8.00413e-05 -2.77805e-05)
(-0.00018842 7.18916e-05 -2.778e-05)
(-0.000191376 6.36049e-05 -2.77803e-05)
(-0.000193969 5.51964e-05 -2.77812e-05)
(-0.000196192 4.66828e-05 -2.77814e-05)
(-0.000198041 3.80804e-05 -2.77812e-05)
(-0.000199513 2.94061e-05 -2.77806e-05)
(-0.000200606 2.06748e-05 -2.77816e-05)
(-0.000201317 1.19047e-05 -2.77817e-05)
(-0.000201645 3.11189e-06 -2.77817e-05)
(-0.000201589 -5.68599e-06 -2.77809e-05)
(-0.000201149 -1.44738e-05 -2.7781e-05)
(-0.000200326 -2.32339e-05 -2.77809e-05)
(-0.000199122 -3.19505e-05 -2.77814e-05)
(-0.000197539 -4.06054e-05 -2.77811e-05)
(-0.00019558 -4.9183e-05 -2.7781e-05)
(-0.000193248 -5.76669e-05 -2.77807e-05)
(-0.000190548 -6.60417e-05 -2.77806e-05)
(-0.000187486 -7.42908e-05 -2.77809e-05)
(-0.000184068 -8.2398e-05 -2.7781e-05)
(-0.000180299 -9.03485e-05 -2.77812e-05)
(-0.000176186 -9.81271e-05 -2.7781e-05)
(-0.000171738 -0.000105719 -2.77807e-05)
(-0.000166963 -0.000113109 -2.7781e-05)
(-0.00016187 -0.000120285 -2.77812e-05)
(-0.000156469 -0.000127231 -2.77807e-05)
(-0.000150771 -0.000133935 -2.77809e-05)
(-0.000144785 -0.000140384 -2.77808e-05)
(-0.000138524 -0.000146565 -2.77809e-05)
(-0.000131999 -0.000152468 -2.77811e-05)
(-0.000125223 -0.000158081 -2.77817e-05)
(-0.000118209 -0.000163392 -2.77811e-05)
(-0.000110969 -0.000168393 -2.77807e-05)
(-0.000103518 -0.000173073 -2.77811e-05)
(-9.58701e-05 -0.000177424 -2.77813e-05)
(-8.80395e-05 -0.000181437 -2.77809e-05)
(-8.00413e-05 -0.000185105 -2.77805e-05)
(-7.18916e-05 -0.00018842 -2.778e-05)
(-6.36049e-05 -0.000191376 -2.77803e-05)
(-5.51964e-05 -0.000193969 -2.77812e-05)
(-4.66828e-05 -0.000196192 -2.77814e-05)
(-3.80804e-05 -0.000198041 -2.77812e-05)
(-2.94061e-05 -0.000199513 -2.77806e-05)
(-2.06748e-05 -0.000200606 -2.77816e-05)
(-1.19047e-05 -0.000201317 -2.77817e-05)
(-3.11189e-06 -0.000201645 -2.77817e-05)
(5.68599e-06 -0.000201589 -2.77809e-05)
(1.44738e-05 -0.000201149 -2.7781e-05)
(2.32339e-05 -0.000200326 -2.77809e-05)
(3.19505e-05 -0.000199122 -2.77814e-05)
(4.06054e-05 -0.000197539 -2.77811e-05)
(4.9183e-05 -0.00019558 -2.7781e-05)
(5.76669e-05 -0.000193248 -2.77807e-05)
(6.60417e-05 -0.000190548 -2.77806e-05)
(7.42908e-05 -0.000187486 -2.77809e-05)
(8.2398e-05 -0.000184068 -2.7781e-05)
(9.03485e-05 -0.000180299 -2.77812e-05)
(9.81271e-05 -0.000176186 -2.7781e-05)
(0.000105719 -0.000171738 -2.77807e-05)
(0.000113109 -0.000166963 -2.7781e-05)
(0.000120285 -0.00016187 -2.77812e-05)
(0.000127231 -0.000156469 -2.77807e-05)
(0.000133935 -0.000150771 -2.77809e-05)
(0.000140384 -0.000144785 -2.77808e-05)
(0.000140442 -0.00015581 -5.32251e-06)
(0.000147105 -0.000149536 -5.32244e-06)
(0.000153488 -0.000142977 -5.32238e-06)
(0.000159578 -0.000136146 -5.32288e-06)
(0.000165365 -0.000129056 -5.32216e-06)
(0.000170837 -0.000121719 -5.32273e-06)
(0.000175984 -0.000114152 -5.32273e-06)
(0.000180795 -0.000106367 -5.32224e-06)
(0.000185263 -9.838e-05 -5.32172e-06)
(0.000189378 -9.02055e-05 -5.32164e-06)
(0.000193132 -8.18593e-05 -5.32192e-06)
(0.000196519 -7.33569e-05 -5.32251e-06)
(0.000199532 -6.47147e-05 -5.32275e-06)
(0.000202165 -5.59497e-05 -5.32244e-06)
(0.000204413 -4.70776e-05 -5.3226e-06)
(0.000206272 -3.81168e-05 -5.32249e-06)
(0.000207738 -2.90826e-05 -5.32301e-06)
(0.000208809 -1.99942e-05 -5.32247e-06)
(0.000209482 -1.0867e-05 -5.32254e-06)
(0.000209757 -1.71924e-06 -5.32216e-06)
(0.000209632 7.43242e-06 -5.3227e-06)
(0.000209108 1.65691e-05 -5.32252e-06)
(0.000208187 2.56744e-05 -5.32257e-06)
(0.000206869 3.47308e-05 -5.32245e-06)
(0.000205157 4.3721e-05 -5.32214e-06)
(0.000203054 5.26283e-05 -5.32198e-06)
(0.000200566 6.14354e-05 -5.32199e-06)
(0.000197695 7.01257e-05 -5.32233e-06)
(0.000194448 7.86823e-05 -5.32271e-06)
(0.000190831 8.70892e-05 -5.32268e-06)
(0.00018685 9.53301e-05 -5.32217e-06)
(0.000182514 0.00010339 -5.3228e-06)
(0.000177831 0.000111252 -5.32204e-06)
(0.000172809 0.000118903 -5.32216e-06)
(0.000167458 0.000126328 -5.32248e-06)
(0.000161788 0.000133512 -5.32216e-06)
(0.00015581 0.000140442 -5.32251e-06)
(0.000149536 0.000147105 -5.32244e-06)
(0.000142977 0.000153488 -5.32238e-06)
(0.000136146 0.000159578 -5.32288e-06)
(0.000129056 0.000165365 -5.32216e-06)
(0.000121719 0.000170837 -5.32273e-06)
(0.000114152 0.000175984 -5.32273e-06)
(0.000106367 0.000180795 -5.32224e-06)
(9.838e-05 0.000185263 -5.32172e-06)
(9.02055e-05 0.000189378 -5.32164e-06)
(8.18593e-05 0.000193132 -5.32192e-06)
(7.33569e-05 0.000196519 -5.32251e-06)
(6.47147e-05 0.000199532 -5.32275e-06)
(5.59497e-05 0.000202165 -5.32244e-06)
(4.70776e-05 0.000204413 -5.3226e-06)
(3.81168e-05 0.000206272 -5.32249e-06)
(2.90826e-05 0.000207738 -5.32301e-06)
(1.99942e-05 0.000208809 -5.32247e-06)
(1.0867e-05 0.000209482 -5.32254e-06)
(1.71924e-06 0.000209757 -5.32216e-06)
(-7.43242e-06 0.000209632 -5.3227e-06)
(-1.65691e-05 0.000209108 -5.32252e-06)
(-2.56744e-05 0.000208187 -5.32257e-06)
(-3.47308e-05 0.000206869 -5.32245e-06)
(-4.3721e-05 0.000205157 -5.32214e-06)
(-5.26283e-05 0.000203054 -5.32198e-06)
(-6.14354e-05 0.000200566 -5.32199e-06)
(-7.01257e-05 0.000197695 -5.32233e-06)
(-7.86823e-05 0.000194448 -5.32271e-06)
(-8.70892e-05 0.000190831 -5.32268e-06)
(-9.53301e-05 0.00018685 -5.32217e-06)
(-0.00010339 0.000182514 -5.3228e-06)
(-0.000111252 0.000177831 -5.32204e-06)
(-0.000118903 0.000172809 -5.32216e-06)
(-0.000126328 0.000167458 -5.32248e-06)
(-0.000133512 0.000161788 -5.32216e-06)
(-0.000140442 0.00015581 -5.32251e-06)
(-0.000147105 0.000149536 -5.32244e-06)
(-0.000153488 0.000142977 -5.32238e-06)
(-0.000159578 0.000136146 -5.32288e-06)
(-0.000165365 0.000129056 -5.32216e-06)
(-0.000170837 0.000121719 -5.32273e-06)
(-0.000175984 0.000114152 -5.32273e-06)
(-0.000180795 0.000106367 -5.32224e-06)
(-0.000185263 9.838e-05 -5.32172e-06)
(-0.000189378 9.02055e-05 -5.32164e-06)
(-0.000193132 8.18593e-05 -5.32192e-06)
(-0.000196519 7.33569e-05 -5.32251e-06)
(-0.000199532 6.47147e-05 -5.32275e-06)
(-0.000202165 5.59497e-05 -5.32244e-06)
(-0.000204413 4.70776e-05 -5.3226e-06)
(-0.000206272 3.81168e-05 -5.32249e-06)
(-0.000207738 2.90826e-05 -5.32301e-06)
(-0.000208809 1.99942e-05 -5.32247e-06)
(-0.000209482 1.0867e-05 -5.32254e-06)
(-0.000209757 1.71924e-06 -5.32216e-06)
(-0.000209632 -7.43242e-06 -5.3227e-06)
(-0.000209108 -1.65691e-05 -5.32252e-06)
(-0.000208187 -2.56744e-05 -5.32257e-06)
(-0.000206869 -3.47308e-05 -5.32245e-06)
(-0.000205157 -4.3721e-05 -5.32214e-06)
(-0.000203054 -5.26283e-05 -5.32198e-06)
(-0.000200566 -6.14354e-05 -5.32199e-06)
(-0.000197695 -7.01257e-05 -5.32233e-06)
(-0.000194448 -7.86823e-05 -5.32271e-06)
(-0.000190831 -8.70892e-05 -5.32268e-06)
(-0.00018685 -9.533e-05 -5.32217e-06)
(-0.000182514 -0.00010339 -5.3228e-06)
(-0.000177831 -0.000111252 -5.32204e-06)
(-0.000172809 -0.000118903 -5.32216e-06)
(-0.000167458 -0.000126328 -5.32248e-06)
(-0.000161788 -0.000133512 -5.32216e-06)
(-0.00015581 -0.000140442 -5.32251e-06)
(-0.000149536 -0.000147105 -5.32244e-06)
(-0.000142977 -0.000153488 -5.32238e-06)
(-0.000136146 -0.000159578 -5.32288e-06)
(-0.000129056 -0.000165365 -5.32216e-06)
(-0.000121719 -0.000170837 -5.32273e-06)
(-0.000114152 -0.000175984 -5.32273e-06)
(-0.000106367 -0.000180795 -5.32224e-06)
(-9.838e-05 -0.000185263 -5.32172e-06)
(-9.02055e-05 -0.000189378 -5.32164e-06)
(-8.18593e-05 -0.000193132 -5.32192e-06)
(-7.33569e-05 -0.000196519 -5.32251e-06)
(-6.47147e-05 -0.000199532 -5.32275e-06)
(-5.59497e-05 -0.000202165 -5.32244e-06)
(-4.70776e-05 -0.000204413 -5.3226e-06)
(-3.81168e-05 -0.000206272 -5.32249e-06)
(-2.90826e-05 -0.000207738 -5.32301e-06)
(-1.99942e-05 -0.000208809 -5.32247e-06)
(-1.0867e-05 -0.000209482 -5.32254e-06)
(-1.71924e-06 -0.000209757 -5.32216e-06)
(7.43242e-06 -0.000209632 -5.3227e-06)
(1.65691e-05 -0.000209108 -5.32252e-06)
(2.56744e-05 -0.000208187 -5.32257e-06)
(3.47308e-05 -0.000206869 -5.32245e-06)
(4.3721e-05 -0.000205157 -5.32214e-06)
(5.26283e-05 -0.000203054 -5.32198e-06)
(6.14354e-05 -0.000200566 -5.32199e-06)
(7.01257e-05 -0.000197695 -5.32233e-06)
(7.86823e-05 -0.000194448 -5.32271e-06)
(8.70892e-05 -0.000190831 -5.32268e-06)
(9.53301e-05 -0.00018685 -5.32217e-06)
(0.00010339 -0.000182514 -5.3228e-06)
(0.000111252 -0.000177831 -5.32204e-06)
(0.000118903 -0.000172809 -5.32216e-06)
(0.000126328 -0.000167458 -5.32248e-06)
(0.000133512 -0.000161788 -5.32216e-06)
(0 0 0)
(0 0 0)
(0 0 0)
(0 0 0)
(0 0 0)
(0 0 0)
(0 0 0)
(0 0 0)
(0 0 0)
(0 0 0)
(0 0 0)
(0 0 0)
(0 0 0)
(0 0 0)
(0 0 0)
(0 0 0)
(0 0 0)
(0 0 0)
(0 0 0)
(0 0 0)
(0 0 0)
(0 0 0)
(0 0 0)
(0 0 0)
(0 0 0)
(0 0 0)
(0 0 0)
(0 0 0)
(0 0 0)
(0 0 0)
(0 0 0)
(0 0 0)
(0 0 0)
(0 0 0)
(0 0 0)
(0 0 0)
(0 0 0)
(0 0 0)
(0 0 0)
(0 0 0)
(0 0 0)
(0 0 0)
(0 0 0)
(0 0 0)
(0 0 0)
(0 0 0)
(0 0 0)
(0 0 0)
(0 0 0)
(0 0 0)
(0 0 0)
(0 0 0)
(0 0 0)
(0 0 0)
(0 0 0)
(0 0 0)
(0 0 0)
(0 0 0)
(0 0 0)
(0 0 0)
(0 0 0)
(0 0 0)
(0 0 0)
(0 0 0)
(0 0 0)
(0 0 0)
(0 0 0)
(0 0 0)
(0 0 0)
(0 0 0)
(0 0 0)
(0 0 0)
(0 0 0)
(0 0 0)
(0 0 0)
(0 0 0)
(0 0 0)
(0 0 0)
(0 0 0)
(0 0 0)
(0 0 0)
(0 0 0)
(0 0 0)
(0 0 0)
(0 0 0)
(0 0 0)
(0 0 0)
(0 0 0)
(0 0 0)
(0 0 0)
(0 0 0)
(0 0 0)
(0 0 0)
(0 0 0)
(0 0 0)
(0 0 0)
(0 0 0)
(0 0 0)
(0 0 0)
(0 0 0)
(0 0 0)
(0 0 0)
(0 0 0)
(0 0 0)
(0 0 0)
(0 0 0)
(0 0 0)
(0 0 0)
(0 0 0)
(0 0 0)
(0 0 0)
(0 0 0)
(0 0 0)
(0 0 0)
(0 0 0)
(0 0 0)
(0 0 0)
(0 0 0)
(0 0 0)
(0 0 0)
(0 0 0)
(0 0 0)
(0 0 0)
(0 0 0)
(0 0 0)
(0 0 0)
(0 0 0)
(0 0 0)
(0 0 0)
(0 0 0)
(0 0 0)
(0 0 0)
(0 0 0)
(0 0 0)
(0 0 0)
(0 0 0)
(0 0 0)
(0 0 0)
(0 0 0)
(0 0 0)
(0 0 0)
(0 0 0)
(0 0 0)
(0 0 0)
(0.000131046 -0.000173269 1.34848e-05)
(0.000138479 -0.000167388 1.34845e-05)
(0.000145649 -0.000161188 1.34844e-05)
(0.000152541 -0.000154682 1.3485e-05)
(0.000159143 -0.000147881 1.34852e-05)
(0.000165442 -0.000140799 1.34849e-05)
(0.000171426 -0.000133448 1.34848e-05)
(0.000177084 -0.000125844 1.3485e-05)
(0.000182405 -0.000117999 1.34849e-05)
(0.000187378 -0.000109931 1.34852e-05)
(0.000191995 -0.000101653 1.3485e-05)
(0.000196246 -9.31816e-05 1.34848e-05)
(0.000200124 -8.45326e-05 1.34846e-05)
(0.000203621 -7.57224e-05 1.34846e-05)
(0.00020673 -6.67691e-05 1.34852e-05)
(0.000209446 -5.76882e-05 1.34852e-05)
(0.000211762 -4.84967e-05 1.34846e-05)
(0.000213676 -3.92138e-05 1.34845e-05)
(0.000215184 -2.98561e-05 1.34847e-05)
(0.000216281 -2.04422e-05 1.34854e-05)
(0.000216967 -1.09884e-05 1.34852e-05)
(0.000217239 -1.5133e-06 1.34846e-05)
(0.000217099 7.96374e-06 1.34846e-05)
(0.000216545 1.74257e-05 1.34847e-05)
(0.000215579 2.68544e-05 1.34849e-05)
(0.000214202 3.62322e-05 1.34851e-05)
(0.000212418 4.55414e-05 1.34848e-05)
(0.000210229 5.47635e-05 1.3485e-05)
(0.00020764 6.38815e-05 1.34848e-05)
(0.000204656 7.28779e-05 1.34849e-05)
(0.000201283 8.17352e-05 1.34852e-05)
(0.000197526 9.04373e-05 1.3485e-05)
(0.000193393 9.89674e-05 1.34846e-05)
(0.000188892 0.000107309 1.34847e-05)
(0.000184031 0.000115446 1.34849e-05)
(0.00017882 0.000123364 1.34847e-05)
(0.000173269 0.000131046 1.34848e-05)
(0.000167388 0.000138479 1.34845e-05)
(0.000161188 0.000145649 1.34844e-05)
(0.000154682 0.000152541 1.3485e-05)
(0.000147881 0.000159143 1.34852e-05)
(0.000140799 0.000165442 1.34849e-05)
(0.000133448 0.000171426 1.34848e-05)
(0.000125844 0.000177084 1.3485e-05)
(0.000117999 0.000182405 1.34849e-05)
(0.000109931 0.000187378 1.34852e-05)
(0.000101653 0.000191995 1.3485e-05)
(9.31816e-05 0.000196246 1.34848e-05)
(8.45326e-05 0.000200124 1.34846e-05)
(7.57224e-05 0.000203621 1.34846e-05)
(6.67691e-05 0.00020673 1.34852e-05)
(5.76882e-05 0.000209446 1.34852e-05)
(4.84967e-05 0.000211762 1.34846e-05)
(3.92138e-05 0.000213676 1.34845e-05)
(2.98561e-05 0.000215184 1.34847e-05)
(2.04422e-05 0.000216281 1.34854e-05)
(1.09884e-05 0.000216967 1.34852e-05)
(1.5133e-06 0.000217239 1.34846e-05)
(-7.96374e-06 0.000217099 1.34846e-05)
(-1.74257e-05 0.000216545 1.34847e-05)
(-2.68544e-05 0.000215579 1.34849e-05)
(-3.62322e-05 0.000214202 1.34851e-05)
(-4.55414e-05 0.000212418 1.34848e-05)
(-5.47635e-05 0.000210229 1.3485e-05)
(-6.38815e-05 0.00020764 1.34848e-05)
(-7.28779e-05 0.000204656 1.34849e-05)
(-8.17352e-05 0.000201283 1.34852e-05)
(-9.04373e-05 0.000197526 1.3485e-05)
(-9.89674e-05 0.000193393 1.34846e-05)
(-0.000107309 0.000188892 1.34847e-05)
(-0.000115446 0.000184031 1.34849e-05)
(-0.000123364 0.00017882 1.34847e-05)
(-0.000131046 0.000173269 1.34848e-05)
(-0.000138479 0.000167388 1.34845e-05)
(-0.000145649 0.000161188 1.34844e-05)
(-0.000152541 0.000154682 1.3485e-05)
(-0.000159143 0.000147881 1.34852e-05)
(-0.000165442 0.000140799 1.34849e-05)
(-0.000171426 0.000133448 1.34848e-05)
(-0.000177084 0.000125844 1.3485e-05)
(-0.000182405 0.000117999 1.34849e-05)
(-0.000187378 0.000109931 1.34852e-05)
(-0.000191995 0.000101653 1.3485e-05)
(-0.000196246 9.31816e-05 1.34848e-05)
(-0.000200124 8.45326e-05 1.34846e-05)
(-0.000203621 7.57224e-05 1.34846e-05)
(-0.00020673 6.67691e-05 1.34852e-05)
(-0.000209446 5.76882e-05 1.34852e-05)
(-0.000211762 4.84967e-05 1.34846e-05)
(-0.000213676 3.92138e-05 1.34845e-05)
(-0.000215184 2.98561e-05 1.34847e-05)
(-0.000216281 2.04422e-05 1.34854e-05)
(-0.000216967 1.09884e-05 1.34852e-05)
(-0.000217239 1.51331e-06 1.34846e-05)
(-0.000217099 -7.96374e-06 1.34846e-05)
(-0.000216545 -1.74257e-05 1.34847e-05)
(-0.000215579 -2.68544e-05 1.34849e-05)
(-0.000214202 -3.62322e-05 1.34851e-05)
(-0.000212418 -4.55414e-05 1.34848e-05)
(-0.000210229 -5.47635e-05 1.3485e-05)
(-0.00020764 -6.38815e-05 1.34848e-05)
(-0.000204656 -7.28779e-05 1.34849e-05)
(-0.000201283 -8.17352e-05 1.34852e-05)
(-0.000197526 -9.04373e-05 1.3485e-05)
(-0.000193393 -9.89674e-05 1.34846e-05)
(-0.000188892 -0.000107309 1.34847e-05)
(-0.000184031 -0.000115446 1.34849e-05)
(-0.00017882 -0.000123364 1.34847e-05)
(-0.000173269 -0.000131046 1.34848e-05)
(-0.000167388 -0.000138479 1.34845e-05)
(-0.000161188 -0.000145649 1.34844e-05)
(-0.000154682 -0.000152541 1.3485e-05)
(-0.000147881 -0.000159143 1.34852e-05)
(-0.000140799 -0.000165442 1.34849e-05)
(-0.000133448 -0.000171426 1.34848e-05)
(-0.000125844 -0.000177084 1.3485e-05)
(-0.000117999 -0.000182405 1.34849e-05)
(-0.000109931 -0.000187378 1.34852e-05)
(-0.000101653 -0.000191995 1.3485e-05)
(-9.31816e-05 -0.000196246 1.34848e-05)
(-8.45326e-05 -0.000200124 1.34846e-05)
(-7.57224e-05 -0.000203621 1.34846e-05)
(-6.67691e-05 -0.00020673 1.34852e-05)
(-5.76882e-05 -0.000209446 1.34852e-05)
(-4.84967e-05 -0.000211762 1.34846e-05)
(-3.92138e-05 -0.000213676 1.34845e-05)
(-2.98561e-05 -0.000215184 1.34847e-05)
(-2.04422e-05 -0.000216281 1.34854e-05)
(-1.09884e-05 -0.000216967 1.34852e-05)
(-1.51331e-06 -0.000217239 1.34846e-05)
(7.96374e-06 -0.000217099 1.34846e-05)
(1.74257e-05 -0.000216545 1.34847e-05)
(2.68544e-05 -0.000215579 1.34849e-05)
(3.62322e-05 -0.000214202 1.34851e-05)
(4.55414e-05 -0.000212418 1.34848e-05)
(5.47635e-05 -0.000210229 1.3485e-05)
(6.38815e-05 -0.00020764 1.34848e-05)
(7.28779e-05 -0.000204656 1.34849e-05)
(8.17352e-05 -0.000201283 1.34852e-05)
(9.04373e-05 -0.000197526 1.3485e-05)
(9.89674e-05 -0.000193393 1.34846e-05)
(0.000107309 -0.000188892 1.34847e-05)
(0.000115446 -0.000184031 1.34849e-05)
(0.000123364 -0.00017882 1.34847e-05)
(0 0 0)
(0 0 0)
(0 0 0)
(0 0 0)
(0 0 0)
(0 0 0)
(0 0 0)
(0 0 0)
(0 0 0)
(0 0 0)
(0 0 0)
(0 0 0)
(0 0 0)
(0 0 0)
(0 0 0)
(0 0 0)
(0 0 0)
(0 0 0)
(0 0 0)
(0 0 0)
(0 0 0)
(0 0 0)
(0 0 0)
(0 0 0)
(0 0 0)
(0 0 0)
(0 0 0)
(0 0 0)
(0 0 0)
(0 0 0)
(0 0 0)
(0 0 0)
(0 0 0)
(0 0 0)
(0 0 0)
(0 0 0)
(0 0 0)
(0 0 0)
(0 0 0)
(0 0 0)
(0 0 0)
(0 0 0)
(0 0 0)
(0 0 0)
(0 0 0)
(0 0 0)
(0 0 0)
(0 0 0)
(0 0 0)
(0 0 0)
(0 0 0)
(0 0 0)
(0 0 0)
(0 0 0)
(0 0 0)
(0 0 0)
(0 0 0)
(0 0 0)
(0 0 0)
(0 0 0)
(0 0 0)
(0 0 0)
(0 0 0)
(0 0 0)
(0 0 0)
(0 0 0)
(0 0 0)
(0 0 0)
(0 0 0)
(0 0 0)
(0 0 0)
(0 0 0)
(0 0 0)
(0 0 0)
(0 0 0)
(0 0 0)
(0 0 0)
(0 0 0)
(0 0 0)
(0 0 0)
(0 0 0)
(0 0 0)
(0 0 0)
(0 0 0)
(0 0 0)
(0 0 0)
(0 0 0)
(0 0 0)
(0 0 0)
(0 0 0)
(0 0 0)
(0 0 0)
(0 0 0)
(0 0 0)
(0 0 0)
(0 0 0)
(0 0 0)
(0 0 0)
(0 0 0)
(0 0 0)
(0 0 0)
(0 0 0)
(0 0 0)
(0 0 0)
(0 0 0)
(0 0 0)
(0 0 0)
(0 0 0)
(0 0 0)
(0 0 0)
(0 0 0)
(0 0 0)
(0 0 0)
(0 0 0)
(0 0 0)
(0 0 0)
(0 0 0)
(0 0 0)
(0 0 0)
(0 0 0)
(0 0 0)
(0 0 0)
(0 0 0)
(0 0 0)
(0 0 0)
(0 0 0)
(0 0 0)
(0 0 0)
(0 0 0)
(0 0 0)
(0 0 0)
(0 0 0)
(0 0 0)
(0 0 0)
(0 0 0)
(0 0 0)
(0 0 0)
(0 0 0)
(0 0 0)
(0 0 0)
(0 0 0)
(0 0 0)
(0 0 0)
(0 0 0)
(0.000115786 -0.000190347 2.39562e-05)
(0.000123978 -0.000185116 2.39562e-05)
(0.000131935 -0.000179532 2.39563e-05)
(0.00013964 -0.000173606 2.39565e-05)
(0.00014708 -0.00016735 2.39565e-05)
(0.00015424 -0.000160775 2.39566e-05)
(0.000161106 -0.000153894 2.39565e-05)
(0.000167665 -0.000146721 2.39566e-05)
(0.000173906 -0.000139267 2.39563e-05)
(0.000179815 -0.000131549 2.39563e-05)
(0.000185382 -0.00012358 2.39564e-05)
(0.000190596 -0.000115377 2.39564e-05)
(0.000195447 -0.000106953 2.39563e-05)
(0.000199926 -9.83257e-05 2.39563e-05)
(0.000204025 -8.95115e-05 2.39563e-05)
(0.000207735 -8.05273e-05 2.39566e-05)
(0.00021105 -7.13894e-05 2.39566e-05)
(0.000213963 -6.21146e-05 2.39562e-05)
(0.000216469 -5.27237e-05 2.39566e-05)
(0.000218562 -4.32311e-05 2.39566e-05)
(0.00022024 -3.36558e-05 2.39564e-05)
(0.000221498 -2.40172e-05 2.39563e-05)
(0.000222335 -1.43328e-05 2.39563e-05)
(0.000222749 -4.62129e-06 2.39564e-05)
(0.000222739 5.09945e-06 2.39564e-05)
(0.000222304 1.48108e-05 2.39562e-05)
(0.000221446 2.44933e-05 2.39563e-05)
(0.000220167 3.41289e-05 2.39566e-05)
(0.000218469 4.37001e-05 2.39565e-05)
(0.000216355 5.31879e-05 2.39566e-05)
(0.000213829 6.25748e-05 2.39564e-05)
(0.000210896 7.18419e-05 2.39565e-05)
(0.000207562 8.0973e-05 2.39564e-05)
(0.000203832 8.995e-05 2.39562e-05)
(0.000199714 9.87553e-05 2.39562e-05)
(0.000195217 0.000107373 2.39562e-05)
(0.000190347 0.000115786 2.39562e-05)
(0.000185116 0.000123978 2.39562e-05)
(0.000179532 0.000131935 2.39563e-05)
(0.000173606 0.00013964 2.39565e-05)
(0.00016735 0.00014708 2.39565e-05)
(0.000160775 0.00015424 2.39566e-05)
(0.000153894 0.000161106 2.39565e-05)
(0.000146721 0.000167665 2.39566e-05)
(0.000139267 0.000173906 2.39563e-05)
(0.000131549 0.000179815 2.39563e-05)
(0.00012358 0.000185382 2.39564e-05)
(0.000115377 0.000190596 2.39564e-05)
(0.000106953 0.000195447 2.39563e-05)
(9.83257e-05 0.000199926 2.39563e-05)
(8.95115e-05 0.000204025 2.39563e-05)
(8.05273e-05 0.000207735 2.39566e-05)
(7.13894e-05 0.00021105 2.39566e-05)
(6.21146e-05 0.000213963 2.39562e-05)
(5.27237e-05 0.000216469 2.39566e-05)
(4.32311e-05 0.000218562 2.39566e-05)
(3.36558e-05 0.00022024 2.39564e-05)
(2.40172e-05 0.000221498 2.39563e-05)
(1.43328e-05 0.000222335 2.39563e-05)
(4.62129e-06 0.000222749 2.39564e-05)
(-5.09945e-06 0.000222739 2.39564e-05)
(-1.48108e-05 0.000222304 2.39562e-05)
(-2.44933e-05 0.000221446 2.39563e-05)
(-3.41289e-05 0.000220167 2.39566e-05)
(-4.37001e-05 0.000218469 2.39565e-05)
(-5.31879e-05 0.000216355 2.39566e-05)
(-6.25748e-05 0.000213829 2.39564e-05)
(-7.18419e-05 0.000210896 2.39565e-05)
(-8.0973e-05 0.000207562 2.39564e-05)
(-8.995e-05 0.000203832 2.39562e-05)
(-9.87553e-05 0.000199714 2.39562e-05)
(-0.000107373 0.000195217 2.39562e-05)
(-0.000115786 0.000190347 2.39562e-05)
(-0.000123978 0.000185116 2.39562e-05)
(-0.000131935 0.000179532 2.39563e-05)
(-0.00013964 0.000173606 2.39565e-05)
(-0.00014708 0.00016735 2.39565e-05)
(-0.00015424 0.000160775 2.39566e-05)
(-0.000161106 0.000153894 2.39565e-05)
(-0.000167665 0.000146721 2.39566e-05)
(-0.000173906 0.000139267 2.39563e-05)
(-0.000179815 0.000131549 2.39563e-05)
(-0.000185382 0.00012358 2.39564e-05)
(-0.000190596 0.000115377 2.39564e-05)
(-0.000195447 0.000106953 2.39563e-05)
(-0.000199926 9.83257e-05 2.39563e-05)
(-0.000204025 8.95115e-05 2.39563e-05)
(-0.000207735 8.05273e-05 2.39566e-05)
(-0.00021105 7.13894e-05 2.39566e-05)
(-0.000213963 6.21146e-05 2.39562e-05)
(-0.000216469 5.27237e-05 2.39566e-05)
(-0.000218562 4.32311e-05 2.39566e-05)
(-0.00022024 3.36558e-05 2.39564e-05)
(-0.000221498 2.40172e-05 2.39563e-05)
(-0.000222335 1.43328e-05 2.39563e-05)
(-0.000222749 4.62129e-06 2.39564e-05)
(-0.000222739 -5.09945e-06 2.39564e-05)
(-0.000222304 -1.48108e-05 2.39562e-05)
(-0.000221446 -2.44933e-05 2.39563e-05)
(-0.000220167 -3.41289e-05 2.39566e-05)
(-0.000218469 -4.37001e-05 2.39565e-05)
(-0.000216355 -5.31879e-05 2.39566e-05)
(-0.000213829 -6.25748e-05 2.39564e-05)
(-0.000210896 -7.18419e-05 2.39565e-05)
(-0.000207562 -8.0973e-05 2.39564e-05)
(-0.000203832 -8.995e-05 2.39562e-05)
(-0.000199714 -9.87553e-05 2.39562e-05)
(-0.000195217 -0.000107373 2.39562e-05)
(-0.000190347 -0.000115786 2.39562e-05)
(-0.000185116 -0.000123978 2.39562e-05)
(-0.000179532 -0.000131935 2.39563e-05)
(-0.000173606 -0.00013964 2.39565e-05)
(-0.00016735 -0.00014708 2.39565e-05)
(-0.000160775 -0.00015424 2.39566e-05)
(-0.000153894 -0.000161106 2.39565e-05)
(-0.000146721 -0.000167665 2.39566e-05)
(-0.000139267 -0.000173906 2.39563e-05)
(-0.000131549 -0.000179815 2.39563e-05)
(-0.00012358 -0.000185382 2.39564e-05)
(-0.000115377 -0.000190596 2.39564e-05)
(-0.000106953 -0.000195447 2.39563e-05)
(-9.83257e-05 -0.000199926 2.39563e-05)
(-8.95115e-05 -0.000204025 2.39563e-05)
(-8.05273e-05 -0.000207735 2.39566e-05)
(-7.13894e-05 -0.00021105 2.39566e-05)
(-6.21146e-05 -0.000213963 2.39562e-05)
(-5.27237e-05 -0.000216469 2.39566e-05)
(-4.32311e-05 -0.000218562 2.39566e-05)
(-3.36558e-05 -0.00022024 2.39564e-05)
(-2.40172e-05 -0.000221498 2.39563e-05)
(-1.43328e-05 -0.000222335 2.39563e-05)
(-4.62129e-06 -0.000222749 2.39564e-05)
(5.09945e-06 -0.000222739 2.39564e-05)
(1.48108e-05 -0.000222304 2.39562e-05)
(2.44933e-05 -0.000221446 2.39563e-05)
(3.41289e-05 -0.000220167 2.39566e-05)
(4.37001e-05 -0.000218469 2.39565e-05)
(5.31879e-05 -0.000216355 2.39566e-05)
(6.25748e-05 -0.000213829 2.39564e-05)
(7.18419e-05 -0.000210896 2.39565e-05)
(8.0973e-05 -0.000207562 2.39564e-05)
(8.995e-05 -0.000203832 2.39562e-05)
(9.87553e-05 -0.000199714 2.39562e-05)
(0.000107373 -0.000195217 2.39562e-05)
(0 0 0)
(0 0 0)
(0 0 0)
(0 0 0)
(0 0 0)
(0 0 0)
(0 0 0)
(0 0 0)
(0 0 0)
(0 0 0)
(0 0 0)
(0 0 0)
(0 0 0)
(0 0 0)
(0 0 0)
(0 0 0)
(0 0 0)
(0 0 0)
(0 0 0)
(0 0 0)
(0 0 0)
(0 0 0)
(0 0 0)
(0 0 0)
(0 0 0)
(0 0 0)
(0 0 0)
(0 0 0)
(0 0 0)
(0 0 0)
(0 0 0)
(0 0 0)
(0 0 0)
(0 0 0)
(0 0 0)
(0 0 0)
(0 0 0)
(0 0 0)
(0 0 0)
(0 0 0)
(0 0 0)
(0 0 0)
(0 0 0)
(0 0 0)
(0 0 0)
(0 0 0)
(0 0 0)
(0 0 0)
(0 0 0)
(0 0 0)
(0 0 0)
(0 0 0)
(0 0 0)
(0 0 0)
(0 0 0)
(0 0 0)
(0 0 0)
(0 0 0)
(0 0 0)
(0 0 0)
(0 0 0)
(0 0 0)
(0 0 0)
(0 0 0)
(0 0 0)
(0 0 0)
(0 0 0)
(0 0 0)
(0 0 0)
(0 0 0)
(0 0 0)
(0 0 0)
(0 0 0)
(0 0 0)
(0 0 0)
(0 0 0)
(0 0 0)
(0 0 0)
(0 0 0)
(0 0 0)
(0 0 0)
(0 0 0)
(0 0 0)
(0 0 0)
(0 0 0)
(0 0 0)
(0 0 0)
(0 0 0)
(0 0 0)
(0 0 0)
(0 0 0)
(0 0 0)
(0 0 0)
(0 0 0)
(0 0 0)
(0 0 0)
(0 0 0)
(0 0 0)
(0 0 0)
(0 0 0)
(0 0 0)
(0 0 0)
(0 0 0)
(0 0 0)
(0 0 0)
(0 0 0)
(0 0 0)
(0 0 0)
(0 0 0)
(0 0 0)
(0 0 0)
(0 0 0)
(0 0 0)
(0 0 0)
(0 0 0)
(0 0 0)
(0 0 0)
(0 0 0)
(0 0 0)
(0 0 0)
(0 0 0)
(0 0 0)
(0 0 0)
(0 0 0)
(0 0 0)
(0 0 0)
(0 0 0)
(0 0 0)
(0 0 0)
(0 0 0)
(0 0 0)
(0 0 0)
(0 0 0)
(0 0 0)
(0 0 0)
(0 0 0)
(0 0 0)
(0 0 0)
(0 0 0)
(0 0 0)
(0 0 0)
(0 0 0)
(0 0 0)
(0 0 0)
(9.75295e-05 -0.00020621 2.80757e-05)
(0.000106431 -0.000201759 2.80757e-05)
(0.00011513 -0.000196925 2.80758e-05)
(0.000123611 -0.000191715 2.80759e-05)
(0.000131856 -0.000186141 2.8076e-05)
(0.000139849 -0.000180213 2.8076e-05)
(0.000147576 -0.000173941 2.80759e-05)
(0.000155023 -0.000167338 2.80759e-05)
(0.000162175 -0.000160417 2.80759e-05)
(0.000169018 -0.00015319 2.80759e-05)
(0.000175539 -0.000145672 2.80758e-05)
(0.000181726 -0.000137876 2.80758e-05)
(0.000187568 -0.000129818 2.80758e-05)
(0.000193052 -0.000121513 2.80758e-05)
(0.000198168 -0.000112977 2.80759e-05)
(0.000202908 -0.000104225 2.8076e-05)
(0.000207261 -9.52758e-05 2.8076e-05)
(0.000211219 -8.61444e-05 2.8076e-05)
(0.000214776 -7.68493e-05 2.8076e-05)
(0.000217923 -6.74076e-05 2.80759e-05)
(0.000220656 -5.78376e-05 2.80759e-05)
(0.000222969 -4.81572e-05 2.80758e-05)
(0.000224858 -3.83858e-05 2.80758e-05)
(0.000226318 -2.85409e-05 2.80758e-05)
(0.000227347 -1.86419e-05 2.80758e-05)
(0.000227944 -8.70745e-06 2.80759e-05)
(0.000228107 1.243e-06 2.80759e-05)
(0.000227836 1.11917e-05 2.80759e-05)
(0.000227131 2.11192e-05 2.80759e-05)
(0.000225993 3.10069e-05 2.80759e-05)
(0.000224425 4.08352e-05 2.80759e-05)
(0.000222431 5.05855e-05 2.80758e-05)
(0.000220013 6.02397e-05 2.80758e-05)
(0.000217176 6.97792e-05 2.80758e-05)
(0.000213925 7.91859e-05 2.80758e-05)
(0.000210268 8.84417e-05 2.80758e-05)
(0.00020621 9.75295e-05 2.80757e-05)
(0.000201759 0.000106431 2.80757e-05)
(0.000196925 0.00011513 2.80758e-05)
(0.000191715 0.000123611 2.80759e-05)
(0.000186141 0.000131856 2.8076e-05)
(0.000180213 0.000139849 2.8076e-05)
(0.000173941 0.000147576 2.80759e-05)
(0.000167338 0.000155023 2.80759e-05)
(0.000160417 0.000162175 2.80759e-05)
(0.00015319 0.000169018 2.80759e-05)
(0.000145672 0.000175539 2.80758e-05)
(0.000137876 0.000181726 2.80758e-05)
(0.000129818 0.000187568 2.80758e-05)