/*--------------------------------*- C++ -*----------------------------------*\
| =========                 |                                                 |
| \\      /  F ield         | OpenFOAM: The Open Source CFD Toolbox           |
|  \\    /   O peration     | Version:  2312                                  |
|   \\  /    A nd           | Website:  www.openfoam.com                      |
|    \\/     M anipulation  |                                                 |
\*---------------------------------------------------------------------------*/
FoamFile
{
    version     2.0;
    format      ascii;
    arch        "LSB;label=32;scalar=64";
    class       pointVectorField;
    location    "0.2";
    object      pointD;
}
// * * * * * * * * * * * * * * * * * * * * * * * * * * * * * * * * * * * * * //

dimensions      [0 1 0 0 0 0 0];

internalField   nonuniform List<vector> 
112333
(
(0 0 0)
(0 0 0)
(0 0 0)
(0 0 0)
(0 0 0)
(0 0 0)
(0 0 0)
(0 0 0)
(0 0 0)
(0 0 0)
(0 0 0)
(0 0 0)
(0 0 0)
(0 0 0)
(0 0 0)
(0 0 0)
(0 0 0)
(0 0 0)
(0 0 0)
(0 0 0)
(0 0 0)
(0 0 0)
(0 0 0)
(0 0 0)
(0 0 0)
(0 0 0)
(0 0 0)
(0 0 0)
(0 0 0)
(0 0 0)
(0 0 0)
(0 0 0)
(0 0 0)
(0 0 0)
(0 0 0)
(0 0 0)
(0 0 0)
(0 0 0)
(0 0 0)
(0 0 0)
(0 0 0)
(0 0 0)
(0 0 0)
(0 0 0)
(0 0 0)
(0 0 0)
(0 0 0)
(0 0 0)
(0 0 0)
(0 0 0)
(0 0 0)
(0 0 0)
(0 0 0)
(0 0 0)
(0 0 0)
(0 0 0)
(0 0 0)
(0 0 0)
(0 0 0)
(0 0 0)
(0 0 0)
(0 0 0)
(0 0 0)
(0 0 0)
(0 0 0)
(0 0 0)
(0 0 0)
(0 0 0)
(0 0 0)
(0 0 0)
(0 0 0)
(0 0 0)
(0 0 0)
(0 0 0)
(0 0 0)
(0 0 0)
(0 0 0)
(0 0 0)
(0 0 0)
(0 0 0)
(0 0 0)
(0 0 0)
(0 0 0)
(0 0 0)
(0 0 0)
(0 0 0)
(0 0 0)
(0 0 0)
(0 0 0)
(0 0 0)
(0 0 0)
(0 0 0)
(0 0 0)
(0 0 0)
(0 0 0)
(0 0 0)
(0 0 0)
(0 0 0)
(0 0 0)
(0 0 0)
(0 0 0)
(0 0 0)
(0 0 0)
(0 0 0)
(0 0 0)
(0 0 0)
(0 0 0)
(0 0 0)
(0 0 0)
(0 0 0)
(0 0 0)
(0 0 0)
(0 0 0)
(0 0 0)
(0 0 0)
(0 0 0)
(0 0 0)
(0 0 0)
(0 0 0)
(0 0 0)
(0 0 0)
(0 0 0)
(0 0 0)
(0 0 0)
(0 0 0)
(0 0 0)
(0 0 0)
(0 0 0)
(0 0 0)
(0 0 0)
(0 0 0)
(0 0 0)
(0 0 0)
(0 0 0)
(0 0 0)
(0 0 0)
(0 0 0)
(0 0 0)
(0 0 0)
(0 0 0)
(0 0 0)
(0 0 0)
(0 0 0)
(0 0 0)
(9.09121e-05 -8.34429e-05 2.78984e-06)
(9.44653e-05 -7.9398e-05 2.78975e-06)
(9.78387e-05 -7.5202e-05 2.78958e-06)
(0.000101026 -7.0863e-05 2.78969e-06)
(0.000104021 -6.63887e-05 2.78979e-06)
(0.000106817 -6.17882e-05 2.78965e-06)
(0.000109411 -5.70701e-05 2.78957e-06)
(0.000111796 -5.22433e-05 2.78972e-06)
(0.000113969 -4.7317e-05 2.78988e-06)
(0.000115924 -4.23009e-05 2.78996e-06)
(0.000117659 -3.72042e-05 2.78987e-06)
(0.00011917 -3.20365e-05 2.78967e-06)
(0.000120454 -2.68079e-05 2.78963e-06)
(0.000121508 -2.15281e-05 2.78975e-06)
(0.000122332 -1.62076e-05 2.78983e-06)
(0.000122922 -1.08559e-05 2.78956e-06)
(0.000123279 -5.48383e-06 2.78947e-06)
(0.000123401 -1.01206e-07 2.78957e-06)
(0.000123288 5.28134e-06 2.78977e-06)
(0.00012294 1.06541e-05 2.78973e-06)
(0.000122358 1.60064e-05 2.78977e-06)
(0.000121544 2.13286e-05 2.78971e-06)
(0.000120498 2.66099e-05 2.78971e-06)
(0.000119222 3.18405e-05 2.78969e-06)
(0.00011772 3.70104e-05 2.78976e-06)
(0.000115993 4.21102e-05 2.7898e-06)
(0.000114046 4.71298e-05 2.78973e-06)
(0.000111882 5.20595e-05 2.78967e-06)
(0.000109505 5.68902e-05 2.78965e-06)
(0.000106919 6.16126e-05 2.78973e-06)
(0.00010413 6.62176e-05 2.78975e-06)
(0.000101142 7.06967e-05 2.78969e-06)
(9.7962e-05 7.50413e-05 2.78975e-06)
(9.45956e-05 7.92428e-05 2.78989e-06)
(9.10489e-05 8.32936e-05 2.78986e-06)
(8.73291e-05 8.71858e-05 2.78986e-06)
(8.34429e-05 9.09121e-05 2.78984e-06)
(7.9398e-05 9.44653e-05 2.78975e-06)
(7.5202e-05 9.78387e-05 2.78958e-06)
(7.0863e-05 0.000101026 2.78969e-06)
(6.63887e-05 0.000104021 2.78979e-06)
(6.17882e-05 0.000106817 2.78965e-06)
(5.70701e-05 0.000109411 2.78957e-06)
(5.22433e-05 0.000111796 2.78972e-06)
(4.7317e-05 0.000113969 2.78988e-06)
(4.23009e-05 0.000115924 2.78996e-06)
(3.72042e-05 0.000117659 2.78987e-06)
(3.20365e-05 0.00011917 2.78967e-06)
(2.68079e-05 0.000120454 2.78963e-06)
(2.15281e-05 0.000121508 2.78975e-06)
(1.62076e-05 0.000122332 2.78983e-06)
(1.08559e-05 0.000122922 2.78956e-06)
(5.48383e-06 0.000123279 2.78947e-06)
(1.01206e-07 0.000123401 2.78957e-06)
(-5.28134e-06 0.000123288 2.78977e-06)
(-1.06541e-05 0.00012294 2.78973e-06)
(-1.60064e-05 0.000122358 2.78977e-06)
(-2.13286e-05 0.000121544 2.78971e-06)
(-2.66099e-05 0.000120498 2.78971e-06)
(-3.18405e-05 0.000119222 2.78969e-06)
(-3.70104e-05 0.00011772 2.78976e-06)
(-4.21102e-05 0.000115993 2.7898e-06)
(-4.71298e-05 0.000114046 2.78973e-06)
(-5.20595e-05 0.000111882 2.78967e-06)
(-5.68902e-05 0.000109505 2.78965e-06)
(-6.16126e-05 0.000106919 2.78973e-06)
(-6.62176e-05 0.00010413 2.78975e-06)
(-7.06967e-05 0.000101142 2.78969e-06)
(-7.50413e-05 9.7962e-05 2.78975e-06)
(-7.92428e-05 9.45956e-05 2.78989e-06)
(-8.32936e-05 9.10489e-05 2.78986e-06)
(-8.71858e-05 8.73291e-05 2.78986e-06)
(-9.09121e-05 8.34429e-05 2.78984e-06)
(-9.44653e-05 7.9398e-05 2.78975e-06)
(-9.78387e-05 7.5202e-05 2.78958e-06)
(-0.000101026 7.0863e-05 2.78969e-06)
(-0.000104021 6.63887e-05 2.78979e-06)
(-0.000106817 6.17882e-05 2.78965e-06)
(-0.000109411 5.70701e-05 2.78957e-06)
(-0.000111796 5.22433e-05 2.78972e-06)
(-0.000113969 4.7317e-05 2.78988e-06)
(-0.000115924 4.23009e-05 2.78996e-06)
(-0.000117659 3.72042e-05 2.78987e-06)
(-0.00011917 3.20365e-05 2.78967e-06)
(-0.000120454 2.68079e-05 2.78963e-06)
(-0.000121508 2.15281e-05 2.78975e-06)
(-0.000122332 1.62076e-05 2.78983e-06)
(-0.000122922 1.08559e-05 2.78956e-06)
(-0.000123279 5.48383e-06 2.78947e-06)
(-0.000123401 1.01206e-07 2.78957e-06)
(-0.000123288 -5.28134e-06 2.78977e-06)
(-0.00012294 -1.06541e-05 2.78973e-06)
(-0.000122358 -1.60064e-05 2.78977e-06)
(-0.000121544 -2.13286e-05 2.78971e-06)
(-0.000120498 -2.66099e-05 2.78971e-06)
(-0.000119222 -3.18405e-05 2.78969e-06)
(-0.00011772 -3.70104e-05 2.78976e-06)
(-0.000115993 -4.21102e-05 2.7898e-06)
(-0.000114046 -4.71298e-05 2.78973e-06)
(-0.000111882 -5.20595e-05 2.78967e-06)
(-0.000109505 -5.68902e-05 2.78965e-06)
(-0.000106919 -6.16126e-05 2.78973e-06)
(-0.00010413 -6.62176e-05 2.78975e-06)
(-0.000101142 -7.06967e-05 2.78969e-06)
(-9.7962e-05 -7.50413e-05 2.78975e-06)
(-9.45956e-05 -7.92428e-05 2.78989e-06)
(-9.10489e-05 -8.32936e-05 2.78986e-06)
(-8.73291e-05 -8.71858e-05 2.78986e-06)
(-8.34429e-05 -9.09121e-05 2.78984e-06)
(-7.9398e-05 -9.44653e-05 2.78975e-06)
(-7.5202e-05 -9.78387e-05 2.78958e-06)
(-7.0863e-05 -0.000101026 2.78969e-06)
(-6.63887e-05 -0.000104021 2.78979e-06)
(-6.17882e-05 -0.000106817 2.78965e-06)
(-5.70701e-05 -0.000109411 2.78957e-06)
(-5.22433e-05 -0.000111796 2.78972e-06)
(-4.7317e-05 -0.000113969 2.78988e-06)
(-4.23009e-05 -0.000115924 2.78996e-06)
(-3.72042e-05 -0.000117659 2.78987e-06)
(-3.20365e-05 -0.00011917 2.78967e-06)
(-2.68079e-05 -0.000120454 2.78963e-06)
(-2.15281e-05 -0.000121508 2.78975e-06)
(-1.62076e-05 -0.000122332 2.78983e-06)
(-1.08559e-05 -0.000122922 2.78956e-06)
(-5.48383e-06 -0.000123279 2.78947e-06)
(-1.01206e-07 -0.000123401 2.78957e-06)
(5.28134e-06 -0.000123288 2.78977e-06)
(1.06541e-05 -0.00012294 2.78973e-06)
(1.60064e-05 -0.000122358 2.78977e-06)
(2.13286e-05 -0.000121544 2.78971e-06)
(2.66099e-05 -0.000120498 2.78971e-06)
(3.18405e-05 -0.000119222 2.78969e-06)
(3.70104e-05 -0.00011772 2.78976e-06)
(4.21102e-05 -0.000115993 2.7898e-06)
(4.71298e-05 -0.000114046 2.78973e-06)
(5.20595e-05 -0.000111882 2.78967e-06)
(5.68902e-05 -0.000109505 2.78965e-06)
(6.16126e-05 -0.000106919 2.78973e-06)
(6.62176e-05 -0.00010413 2.78975e-06)
(7.06967e-05 -0.000101142 2.78969e-06)
(7.50413e-05 -9.7962e-05 2.78975e-06)
(7.92428e-05 -9.45956e-05 2.78989e-06)
(8.32936e-05 -9.10489e-05 2.78986e-06)
(8.71858e-05 -8.73291e-05 2.78986e-06)
(8.67896e-05 -8.82639e-05 5.86826e-06)
(9.05569e-05 -8.43942e-05 5.86823e-06)
(9.4152e-05 -8.0364e-05 5.86818e-06)
(9.75679e-05 -7.61806e-05 5.86812e-06)
(0.000100798 -7.18523e-05 5.86824e-06)
(0.000103836 -6.7387e-05 5.86812e-06)
(0.000106677 -6.27937e-05 5.8681e-06)
(0.000109314 -5.80809e-05 5.86823e-06)
(0.000111744 -5.32574e-05 5.86837e-06)
(0.00011396 -4.83325e-05 5.86838e-06)
(0.00011596 -4.33157e-05 5.86829e-06)
(0.000117739 -3.82163e-05 5.86817e-06)
(0.000119294 -3.30441e-05 5.86814e-06)
(0.000120622 -2.78091e-05 5.86823e-06)
(0.00012172 -2.2521e-05 5.86822e-06)
(0.000122586 -1.71904e-05 5.86816e-06)
(0.00012322 -1.18267e-05 5.86804e-06)
(0.000123618 -6.44092e-06 5.86817e-06)
(0.000123782 -1.04264e-06 5.86821e-06)
(0.000123709 4.35764e-06 5.86827e-06)
(0.000123401 9.74978e-06 5.86819e-06)
(0.000122859 1.51231e-05 5.86821e-06)
(0.000122082 2.04677e-05 5.86818e-06)
(0.000121073 2.57733e-05 5.86817e-06)
(0.000119834 3.10298e-05 5.86822e-06)
(0.000118366 3.62274e-05 5.86828e-06)
(0.000116673 4.1356e-05 5.86827e-06)
(0.000114758 4.64059e-05 5.8682e-06)
(0.000112625 5.13674e-05 5.86815e-06)
(0.000110277 5.62312e-05 5.86817e-06)
(0.000107719 6.09878e-05 5.86822e-06)
(0.000104956 6.56286e-05 5.86812e-06)
(0.000101994 7.0144e-05 5.86829e-06)
(9.88372e-05 7.45263e-05 5.86832e-06)
(9.54923e-05 7.87666e-05 5.86828e-06)
(9.19657e-05 8.28569e-05 5.86831e-06)
(8.82639e-05 8.67896e-05 5.86826e-06)
(8.43942e-05 9.05569e-05 5.86823e-06)
(8.0364e-05 9.4152e-05 5.86818e-06)
(7.61806e-05 9.75679e-05 5.86812e-06)
(7.18523e-05 0.000100798 5.86824e-06)
(6.7387e-05 0.000103836 5.86812e-06)
(6.27937e-05 0.000106677 5.8681e-06)
(5.80809e-05 0.000109314 5.86823e-06)
(5.32574e-05 0.000111744 5.86837e-06)
(4.83325e-05 0.00011396 5.86838e-06)
(4.33157e-05 0.00011596 5.86829e-06)
(3.82163e-05 0.000117739 5.86817e-06)
(3.30441e-05 0.000119294 5.86814e-06)
(2.78091e-05 0.000120622 5.86823e-06)
(2.2521e-05 0.00012172 5.86822e-06)
(1.71904e-05 0.000122586 5.86816e-06)
(1.18267e-05 0.00012322 5.86804e-06)
(6.44092e-06 0.000123618 5.86817e-06)
(1.04264e-06 0.000123782 5.86821e-06)
(-4.35764e-06 0.000123709 5.86827e-06)
(-9.74978e-06 0.000123401 5.86819e-06)
(-1.51231e-05 0.000122859 5.86821e-06)
(-2.04677e-05 0.000122082 5.86818e-06)
(-2.57733e-05 0.000121073 5.86817e-06)
(-3.10298e-05 0.000119834 5.86822e-06)
(-3.62274e-05 0.000118366 5.86828e-06)
(-4.1356e-05 0.000116673 5.86827e-06)
(-4.64059e-05 0.000114758 5.8682e-06)
(-5.13674e-05 0.000112625 5.86815e-06)
(-5.62312e-05 0.000110277 5.86817e-06)
(-6.09878e-05 0.000107719 5.86822e-06)
(-6.56286e-05 0.000104956 5.86812e-06)
(-7.0144e-05 0.000101994 5.86829e-06)
(-7.45263e-05 9.88372e-05 5.86832e-06)
(-7.87666e-05 9.54923e-05 5.86828e-06)
(-8.28569e-05 9.19657e-05 5.86831e-06)
(-8.67896e-05 8.82639e-05 5.86826e-06)
(-9.05569e-05 8.43942e-05 5.86823e-06)
(-9.4152e-05 8.0364e-05 5.86818e-06)
(-9.75679e-05 7.61806e-05 5.86812e-06)
(-0.000100798 7.18523e-05 5.86824e-06)
(-0.000103836 6.7387e-05 5.86812e-06)
(-0.000106677 6.27937e-05 5.8681e-06)
(-0.000109314 5.80809e-05 5.86823e-06)
(-0.000111744 5.32574e-05 5.86837e-06)
(-0.00011396 4.83325e-05 5.86838e-06)
(-0.00011596 4.33157e-05 5.86829e-06)
(-0.000117739 3.82163e-05 5.86817e-06)
(-0.000119294 3.30441e-05 5.86814e-06)
(-0.000120622 2.78091e-05 5.86823e-06)
(-0.00012172 2.2521e-05 5.86822e-06)
(-0.000122586 1.71904e-05 5.86816e-06)
(-0.00012322 1.18267e-05 5.86804e-06)
(-0.000123618 6.44092e-06 5.86817e-06)
(-0.000123782 1.04264e-06 5.86821e-06)
(-0.000123709 -4.35764e-06 5.86827e-06)
(-0.000123401 -9.74978e-06 5.86819e-06)
(-0.000122859 -1.51231e-05 5.86821e-06)
(-0.000122082 -2.04677e-05 5.86818e-06)
(-0.000121073 -2.57733e-05 5.86817e-06)
(-0.000119834 -3.10298e-05 5.86822e-06)
(-0.000118366 -3.62274e-05 5.86828e-06)
(-0.000116673 -4.1356e-05 5.86827e-06)
(-0.000114758 -4.64059e-05 5.8682e-06)
(-0.000112625 -5.13674e-05 5.86815e-06)
(-0.000110277 -5.62312e-05 5.86817e-06)
(-0.000107719 -6.09878e-05 5.86822e-06)
(-0.000104956 -6.56286e-05 5.86812e-06)
(-0.000101994 -7.0144e-05 5.86829e-06)
(-9.88372e-05 -7.45263e-05 5.86832e-06)
(-9.54923e-05 -7.87666e-05 5.86828e-06)
(-9.19657e-05 -8.28569e-05 5.86831e-06)
(-8.82639e-05 -8.67896e-05 5.86826e-06)
(-8.43942e-05 -9.05569e-05 5.86823e-06)
(-8.0364e-05 -9.4152e-05 5.86818e-06)
(-7.61806e-05 -9.75679e-05 5.86812e-06)
(-7.18523e-05 -0.000100798 5.86824e-06)
(-6.7387e-05 -0.000103836 5.86812e-06)
(-6.27937e-05 -0.000106677 5.8681e-06)
(-5.80809e-05 -0.000109314 5.86823e-06)
(-5.32574e-05 -0.000111744 5.86837e-06)
(-4.83325e-05 -0.00011396 5.86838e-06)
(-4.33157e-05 -0.00011596 5.86829e-06)
(-3.82163e-05 -0.000117739 5.86817e-06)
(-3.30441e-05 -0.000119294 5.86814e-06)
(-2.78091e-05 -0.000120622 5.86823e-06)
(-2.2521e-05 -0.00012172 5.86822e-06)
(-1.71904e-05 -0.000122586 5.86816e-06)
(-1.18267e-05 -0.00012322 5.86804e-06)
(-6.44092e-06 -0.000123618 5.86817e-06)
(-1.04264e-06 -0.000123782 5.86821e-06)
(4.35764e-06 -0.000123709 5.86827e-06)
(9.74978e-06 -0.000123401 5.86819e-06)
(1.51231e-05 -0.000122859 5.86821e-06)
(2.04677e-05 -0.000122082 5.86818e-06)
(2.57733e-05 -0.000121073 5.86817e-06)
(3.10298e-05 -0.000119834 5.86822e-06)
(3.62274e-05 -0.000118366 5.86828e-06)
(4.1356e-05 -0.000116673 5.86827e-06)
(4.64059e-05 -0.000114758 5.8682e-06)
(5.13674e-05 -0.000112625 5.86815e-06)
(5.62312e-05 -0.000110277 5.86817e-06)
(6.09878e-05 -0.000107719 5.86822e-06)
(6.56286e-05 -0.000104956 5.86812e-06)
(7.0144e-05 -0.000101994 5.86829e-06)
(7.45263e-05 -9.88372e-05 5.86832e-06)
(7.87666e-05 -9.54923e-05 5.86828e-06)
(8.28569e-05 -9.19657e-05 5.86831e-06)
(0 0 0)
(0 0 0)
(0 0 0)
(0 0 0)
(0 0 0)
(0 0 0)
(0 0 0)
(0 0 0)
(0 0 0)
(0 0 0)
(0 0 0)
(0 0 0)
(0 0 0)
(0 0 0)
(0 0 0)
(0 0 0)
(0 0 0)
(0 0 0)
(0 0 0)
(0 0 0)
(0 0 0)
(0 0 0)
(0 0 0)
(0 0 0)
(0 0 0)
(0 0 0)
(0 0 0)
(0 0 0)
(0 0 0)
(0 0 0)
(0 0 0)
(0 0 0)
(0 0 0)
(0 0 0)
(0 0 0)
(0 0 0)
(0 0 0)
(0 0 0)
(0 0 0)
(0 0 0)
(0 0 0)
(0 0 0)
(0 0 0)
(0 0 0)
(0 0 0)
(0 0 0)
(0 0 0)
(0 0 0)
(0 0 0)
(0 0 0)
(0 0 0)
(0 0 0)
(0 0 0)
(0 0 0)
(0 0 0)
(0 0 0)
(0 0 0)
(0 0 0)
(0 0 0)
(0 0 0)
(0 0 0)
(0 0 0)
(0 0 0)
(0 0 0)
(0 0 0)
(0 0 0)
(0 0 0)
(0 0 0)
(0 0 0)
(0 0 0)
(0 0 0)
(0 0 0)
(0 0 0)
(0 0 0)
(0 0 0)
(0 0 0)
(0 0 0)
(0 0 0)
(0 0 0)
(0 0 0)
(0 0 0)
(0 0 0)
(0 0 0)
(0 0 0)
(0 0 0)
(0 0 0)
(0 0 0)
(0 0 0)
(0 0 0)
(0 0 0)
(0 0 0)
(0 0 0)
(0 0 0)
(0 0 0)
(0 0 0)
(0 0 0)
(0 0 0)
(0 0 0)
(0 0 0)
(0 0 0)
(0 0 0)
(0 0 0)
(0 0 0)
(0 0 0)
(0 0 0)
(0 0 0)
(0 0 0)
(0 0 0)
(0 0 0)
(0 0 0)
(0 0 0)
(0 0 0)
(0 0 0)
(0 0 0)
(0 0 0)
(0 0 0)
(0 0 0)
(0 0 0)
(0 0 0)
(0 0 0)
(0 0 0)
(0 0 0)
(0 0 0)
(0 0 0)
(0 0 0)
(0 0 0)
(0 0 0)
(0 0 0)
(0 0 0)
(0 0 0)
(0 0 0)
(0 0 0)
(0 0 0)
(0 0 0)
(0 0 0)
(0 0 0)
(0 0 0)
(0 0 0)
(0 0 0)
(0 0 0)
(0 0 0)
(0 0 0)
(0 0 0)
(0 0 0)
(8.2051e-05 -9.31299e-05 8.24104e-06)
(8.60352e-05 -8.94622e-05 8.24099e-06)
(8.98557e-05 -8.56242e-05 8.24096e-06)
(9.35049e-05 -8.16235e-05 8.24103e-06)
(9.69762e-05 -7.74673e-05 8.24107e-06)
(0.000100263 -7.31633e-05 8.24101e-06)
(0.000103359 -6.87202e-05 8.24101e-06)
(0.000106258 -6.41465e-05 8.24106e-06)
(0.000108955 -5.94504e-05 8.24107e-06)
(0.000111444 -5.46414e-05 8.2411e-06)
(0.000113722 -4.97282e-05 8.24104e-06)
(0.000115783 -4.47204e-05 8.24099e-06)
(0.000117623 -3.96274e-05 8.24097e-06)
(0.00011924 -3.44589e-05 8.24099e-06)
(0.000120629 -2.92251e-05 8.24109e-06)
(0.000121789 -2.39356e-05 8.24107e-06)
(0.000122718 -1.86002e-05 8.24095e-06)
(0.000123412 -1.32296e-05 8.24096e-06)
(0.000123872 -7.8339e-06 8.24101e-06)
(0.000124095 -2.4235e-06 8.24111e-06)
(0.000124083 2.99183e-06 8.24109e-06)
(0.000123834 8.40168e-06 8.24099e-06)
(0.00012335 1.37952e-05 8.24097e-06)
(0.000122631 1.91625e-05 8.24097e-06)
(0.000121678 2.44932e-05 8.24101e-06)
(0.000120494 2.97773e-05 8.24105e-06)
(0.000119081 3.5005e-05 8.24102e-06)
(0.00011744 4.01659e-05 8.24104e-06)
(0.000115577 4.52504e-05 8.24102e-06)
(0.000113493 5.02488e-05 8.24103e-06)
(0.000111193 5.51513e-05 8.24106e-06)
(0.000108682 5.9949e-05 8.24103e-06)
(0.000105963 6.46327e-05 8.24101e-06)
(0.000103043 6.91932e-05 8.24103e-06)
(9.99268e-05 7.36219e-05 8.24106e-06)
(9.66202e-05 7.79107e-05 8.24103e-06)
(9.31299e-05 8.2051e-05 8.24104e-06)
(8.94622e-05 8.60352e-05 8.24099e-06)
(8.56242e-05 8.98557e-05 8.24096e-06)
(8.16235e-05 9.35049e-05 8.24103e-06)
(7.74673e-05 9.69762e-05 8.24107e-06)
(7.31633e-05 0.000100263 8.24101e-06)
(6.87202e-05 0.000103359 8.24101e-06)
(6.41465e-05 0.000106258 8.24106e-06)
(5.94504e-05 0.000108955 8.24107e-06)
(5.46414e-05 0.000111444 8.2411e-06)
(4.97282e-05 0.000113722 8.24104e-06)
(4.47204e-05 0.000115783 8.24099e-06)
(3.96274e-05 0.000117623 8.24097e-06)
(3.44589e-05 0.00011924 8.24099e-06)
(2.92251e-05 0.000120629 8.24109e-06)
(2.39356e-05 0.000121789 8.24107e-06)
(1.86002e-05 0.000122718 8.24095e-06)
(1.32296e-05 0.000123412 8.24096e-06)
(7.8339e-06 0.000123872 8.24101e-06)
(2.4235e-06 0.000124095 8.24111e-06)
(-2.99183e-06 0.000124083 8.24109e-06)
(-8.40168e-06 0.000123834 8.24099e-06)
(-1.37952e-05 0.00012335 8.24097e-06)
(-1.91625e-05 0.000122631 8.24097e-06)
(-2.44932e-05 0.000121678 8.24101e-06)
(-2.97773e-05 0.000120494 8.24105e-06)
(-3.5005e-05 0.000119081 8.24102e-06)
(-4.01659e-05 0.00011744 8.24104e-06)
(-4.52504e-05 0.000115577 8.24102e-06)
(-5.02488e-05 0.000113493 8.24103e-06)
(-5.51513e-05 0.000111193 8.24106e-06)
(-5.9949e-05 0.000108682 8.24103e-06)
(-6.46327e-05 0.000105963 8.24101e-06)
(-6.91932e-05 0.000103043 8.24103e-06)
(-7.36219e-05 9.99268e-05 8.24106e-06)
(-7.79107e-05 9.66202e-05 8.24103e-06)
(-8.2051e-05 9.31299e-05 8.24104e-06)
(-8.60352e-05 8.94622e-05 8.24099e-06)
(-8.98557e-05 8.56242e-05 8.24096e-06)
(-9.35049e-05 8.16235e-05 8.24103e-06)
(-9.69762e-05 7.74673e-05 8.24107e-06)
(-0.000100263 7.31633e-05 8.24101e-06)
(-0.000103359 6.87202e-05 8.24101e-06)
(-0.000106258 6.41465e-05 8.24106e-06)
(-0.000108955 5.94504e-05 8.24107e-06)
(-0.000111444 5.46414e-05 8.2411e-06)
(-0.000113722 4.97282e-05 8.24104e-06)
(-0.000115783 4.47204e-05 8.24099e-06)
(-0.000117623 3.96274e-05 8.24097e-06)
(-0.00011924 3.44589e-05 8.24099e-06)
(-0.000120629 2.92251e-05 8.24109e-06)
(-0.000121789 2.39356e-05 8.24107e-06)
(-0.000122718 1.86002e-05 8.24095e-06)
(-0.000123412 1.32296e-05 8.24096e-06)
(-0.000123872 7.8339e-06 8.24101e-06)
(-0.000124095 2.4235e-06 8.24111e-06)
(-0.000124083 -2.99183e-06 8.24109e-06)
(-0.000123834 -8.40168e-06 8.24099e-06)
(-0.00012335 -1.37952e-05 8.24097e-06)
(-0.000122631 -1.91625e-05 8.24097e-06)
(-0.000121678 -2.44932e-05 8.24101e-06)
(-0.000120494 -2.97773e-05 8.24105e-06)
(-0.000119081 -3.5005e-05 8.24102e-06)
(-0.00011744 -4.01659e-05 8.24104e-06)
(-0.000115577 -4.52504e-05 8.24102e-06)
(-0.000113493 -5.02488e-05 8.24103e-06)
(-0.000111193 -5.51513e-05 8.24106e-06)
(-0.000108682 -5.9949e-05 8.24103e-06)
(-0.000105963 -6.46327e-05 8.24101e-06)
(-0.000103043 -6.91932e-05 8.24103e-06)
(-9.99268e-05 -7.36219e-05 8.24106e-06)
(-9.66202e-05 -7.79107e-05 8.24103e-06)
(-9.31299e-05 -8.2051e-05 8.24104e-06)
(-8.94622e-05 -8.60352e-05 8.24099e-06)
(-8.56242e-05 -8.98557e-05 8.24096e-06)
(-8.16235e-05 -9.35049e-05 8.24103e-06)
(-7.74673e-05 -9.69762e-05 8.24107e-06)
(-7.31633e-05 -0.000100263 8.24101e-06)
(-6.87202e-05 -0.000103359 8.24101e-06)
(-6.41465e-05 -0.000106258 8.24106e-06)
(-5.94504e-05 -0.000108955 8.24107e-06)
(-5.46414e-05 -0.000111444 8.2411e-06)
(-4.97282e-05 -0.000113722 8.24104e-06)
(-4.47204e-05 -0.000115783 8.24099e-06)
(-3.96274e-05 -0.000117623 8.24097e-06)
(-3.44589e-05 -0.00011924 8.24099e-06)
(-2.92251e-05 -0.000120629 8.24109e-06)
(-2.39356e-05 -0.000121789 8.24107e-06)
(-1.86002e-05 -0.000122718 8.24095e-06)
(-1.32296e-05 -0.000123412 8.24096e-06)
(-7.8339e-06 -0.000123872 8.24101e-06)
(-2.4235e-06 -0.000124095 8.24111e-06)
(2.99183e-06 -0.000124083 8.24109e-06)
(8.40168e-06 -0.000123834 8.24099e-06)
(1.37952e-05 -0.00012335 8.24097e-06)
(1.91625e-05 -0.000122631 8.24097e-06)
(2.44932e-05 -0.000121678 8.24101e-06)
(2.97773e-05 -0.000120494 8.24105e-06)
(3.5005e-05 -0.000119081 8.24102e-06)
(4.01659e-05 -0.00011744 8.24104e-06)
(4.52504e-05 -0.000115577 8.24102e-06)
(5.02488e-05 -0.000113493 8.24103e-06)
(5.51513e-05 -0.000111193 8.24106e-06)
(5.9949e-05 -0.000108682 8.24103e-06)
(6.46327e-05 -0.000105963 8.24101e-06)
(6.91932e-05 -0.000103043 8.24103e-06)
(7.36219e-05 -9.99268e-05 8.24106e-06)
(7.79107e-05 -9.66202e-05 8.24103e-06)
(0 0 0)
(0 0 0)
(0 0 0)
(0 0 0)
(0 0 0)
(0 0 0)
(0 0 0)
(0 0 0)
(0 0 0)
(0 0 0)
(0 0 0)
(0 0 0)
(0 0 0)
(0 0 0)
(0 0 0)
(0 0 0)
(0 0 0)
(0 0 0)
(0 0 0)
(0 0 0)
(0 0 0)
(0 0 0)
(0 0 0)
(0 0 0)
(0 0 0)
(0 0 0)
(0 0 0)
(0 0 0)
(0 0 0)
(0 0 0)
(0 0 0)
(0 0 0)
(0 0 0)
(0 0 0)
(0 0 0)
(0 0 0)
(0 0 0)
(0 0 0)
(0 0 0)
(0 0 0)
(0 0 0)
(0 0 0)
(0 0 0)
(0 0 0)
(0 0 0)
(0 0 0)
(0 0 0)
(0 0 0)
(0 0 0)
(0 0 0)
(0 0 0)
(0 0 0)
(0 0 0)
(0 0 0)
(0 0 0)
(0 0 0)
(0 0 0)
(0 0 0)
(0 0 0)
(0 0 0)
(0 0 0)
(0 0 0)
(0 0 0)
(0 0 0)
(0 0 0)
(0 0 0)
(0 0 0)
(0 0 0)
(0 0 0)
(0 0 0)
(0 0 0)
(0 0 0)
(0 0 0)
(0 0 0)
(0 0 0)
(0 0 0)
(0 0 0)
(0 0 0)
(0 0 0)
(0 0 0)
(0 0 0)
(0 0 0)
(0 0 0)
(0 0 0)
(0 0 0)
(0 0 0)
(0 0 0)
(0 0 0)
(0 0 0)
(0 0 0)
(0 0 0)
(0 0 0)
(0 0 0)
(0 0 0)
(0 0 0)
(0 0 0)
(0 0 0)
(0 0 0)
(0 0 0)
(0 0 0)
(0 0 0)
(0 0 0)
(0 0 0)
(0 0 0)
(0 0 0)
(0 0 0)
(0 0 0)
(0 0 0)
(0 0 0)
(0 0 0)
(0 0 0)
(0 0 0)
(0 0 0)
(0 0 0)
(0 0 0)
(0 0 0)
(0 0 0)
(0 0 0)
(0 0 0)
(0 0 0)
(0 0 0)
(0 0 0)
(0 0 0)
(0 0 0)
(0 0 0)
(0 0 0)
(0 0 0)
(0 0 0)
(0 0 0)
(0 0 0)
(0 0 0)
(0 0 0)
(0 0 0)
(0 0 0)
(0 0 0)
(0 0 0)
(0 0 0)
(0 0 0)
(0 0 0)
(0 0 0)
(0 0 0)
(0 0 0)
(0 0 0)
(0 0 0)
(7.61092e-05 -9.7974e-05 9.33073e-06)
(8.03104e-05 -9.45609e-05 9.33072e-06)
(8.43585e-05 -9.09679e-05 9.33074e-06)
(8.82462e-05 -8.72017e-05 9.33078e-06)
(9.1966e-05 -8.32693e-05 9.33079e-06)
(9.55106e-05 -7.91786e-05 9.33081e-06)
(9.88734e-05 -7.49371e-05 9.3308e-06)
(0.000102048 -7.05531e-05 9.33079e-06)
(0.000105028 -6.60346e-05 9.33076e-06)
(0.000107809 -6.13904e-05 9.33075e-06)
(0.000110384 -5.66295e-05 9.33076e-06)
(0.000112749 -5.17607e-05 9.33074e-06)
(0.0001149 -4.67933e-05 9.33072e-06)
(0.000116831 -4.1737e-05 9.33074e-06)
(0.000118541 -3.66011e-05 9.33076e-06)
(0.000120024 -3.13958e-05 9.33081e-06)
(0.000121279 -2.61305e-05 9.33079e-06)
(0.000122304 -2.08152e-05 9.33073e-06)
(0.000123095 -1.54609e-05 9.33078e-06)
(0.000123653 -1.00768e-05 9.33081e-06)
(0.000123974 -4.67334e-06 9.33078e-06)
(0.00012406 7.38721e-07 9.33074e-06)
(0.00012391 6.14941e-06 9.33072e-06)
(0.000123524 1.15483e-05 9.33072e-06)
(0.000122903 1.69254e-05 9.33073e-06)
(0.000122047 2.22704e-05 9.33073e-06)
(0.00012096 2.75728e-05 9.33075e-06)
(0.000119642 3.28226e-05 9.33078e-06)
(0.000118096 3.80101e-05 9.33079e-06)
(0.000116326 4.31252e-05 9.33081e-06)
(0.000114334 4.81583e-05 9.33078e-06)
(0.000112125 5.30995e-05 9.33078e-06)
(0.000109702 5.79399e-05 9.33075e-06)
(0.00010707 6.267e-05 9.33073e-06)
(0.000104234 6.72806e-05 9.33074e-06)
(0.000101201 7.17633e-05 9.33074e-06)
(9.7974e-05 7.61092e-05 9.33073e-06)
(9.45609e-05 8.03104e-05 9.33072e-06)
(9.09679e-05 8.43585e-05 9.33074e-06)
(8.72017e-05 8.82462e-05 9.33078e-06)
(8.32693e-05 9.1966e-05 9.33079e-06)
(7.91786e-05 9.55106e-05 9.33081e-06)
(7.49371e-05 9.88734e-05 9.3308e-06)
(7.05531e-05 0.000102048 9.33079e-06)
(6.60346e-05 0.000105028 9.33076e-06)
(6.13904e-05 0.000107809 9.33075e-06)
(5.66295e-05 0.000110384 9.33076e-06)
(5.17607e-05 0.000112749 9.33074e-06)
(4.67933e-05 0.0001149 9.33072e-06)
(4.1737e-05 0.000116831 9.33074e-06)
(3.66011e-05 0.000118541 9.33076e-06)
(3.13958e-05 0.000120024 9.33081e-06)
(2.61305e-05 0.000121279 9.33079e-06)
(2.08152e-05 0.000122304 9.33073e-06)
(1.54609e-05 0.000123095 9.33078e-06)
(1.00768e-05 0.000123653 9.33081e-06)
(4.67334e-06 0.000123974 9.33078e-06)
(-7.38721e-07 0.00012406 9.33074e-06)
(-6.14941e-06 0.00012391 9.33072e-06)
(-1.15483e-05 0.000123524 9.33072e-06)
(-1.69254e-05 0.000122903 9.33073e-06)
(-2.22704e-05 0.000122047 9.33073e-06)
(-2.75728e-05 0.00012096 9.33075e-06)
(-3.28226e-05 0.000119642 9.33078e-06)
(-3.80101e-05 0.000118096 9.33079e-06)
(-4.31252e-05 0.000116326 9.33081e-06)
(-4.81583e-05 0.000114334 9.33078e-06)
(-5.30995e-05 0.000112125 9.33078e-06)
(-5.79399e-05 0.000109702 9.33075e-06)
(-6.267e-05 0.00010707 9.33073e-06)
(-6.72806e-05 0.000104234 9.33074e-06)
(-7.17633e-05 0.000101201 9.33074e-06)
(-7.61092e-05 9.7974e-05 9.33073e-06)
(-8.03104e-05 9.45609e-05 9.33072e-06)
(-8.43585e-05 9.09679e-05 9.33074e-06)
(-8.82462e-05 8.72017e-05 9.33078e-06)
(-9.1966e-05 8.32693e-05 9.33079e-06)
(-9.55106e-05 7.91786e-05 9.33081e-06)
(-9.88734e-05 7.49371e-05 9.3308e-06)
(-0.000102048 7.05531e-05 9.33079e-06)
(-0.000105028 6.60346e-05 9.33076e-06)
(-0.000107809 6.13904e-05 9.33075e-06)
(-0.000110384 5.66295e-05 9.33076e-06)
(-0.000112749 5.17607e-05 9.33074e-06)
(-0.0001149 4.67933e-05 9.33072e-06)
(-0.000116831 4.1737e-05 9.33074e-06)
(-0.000118541 3.66011e-05 9.33076e-06)
(-0.000120024 3.13958e-05 9.33081e-06)
(-0.000121279 2.61305e-05 9.33079e-06)
(-0.000122304 2.08152e-05 9.33073e-06)
(-0.000123095 1.54609e-05 9.33078e-06)
(-0.000123653 1.00768e-05 9.33081e-06)
(-0.000123974 4.67333e-06 9.33078e-06)
(-0.00012406 -7.38721e-07 9.33074e-06)
(-0.00012391 -6.14941e-06 9.33072e-06)
(-0.000123524 -1.15483e-05 9.33072e-06)
(-0.000122903 -1.69254e-05 9.33073e-06)
(-0.000122047 -2.22704e-05 9.33073e-06)
(-0.00012096 -2.75728e-05 9.33075e-06)
(-0.000119642 -3.28226e-05 9.33078e-06)
(-0.000118096 -3.80101e-05 9.33079e-06)
(-0.000116326 -4.31252e-05 9.33081e-06)
(-0.000114334 -4.81583e-05 9.33078e-06)
(-0.000112125 -5.30995e-05 9.33078e-06)
(-0.000109702 -5.79399e-05 9.33075e-06)
(-0.00010707 -6.267e-05 9.33073e-06)
(-0.000104234 -6.72806e-05 9.33074e-06)
(-0.000101201 -7.17633e-05 9.33074e-06)
(-9.7974e-05 -7.61092e-05 9.33073e-06)
(-9.45609e-05 -8.03104e-05 9.33072e-06)
(-9.09679e-05 -8.43585e-05 9.33074e-06)
(-8.72017e-05 -8.82462e-05 9.33078e-06)
(-8.32693e-05 -9.1966e-05 9.33079e-06)
(-7.91786e-05 -9.55106e-05 9.33081e-06)
(-7.49371e-05 -9.88734e-05 9.3308e-06)
(-7.05531e-05 -0.000102048 9.33079e-06)
(-6.60346e-05 -0.000105028 9.33076e-06)
(-6.13904e-05 -0.000107809 9.33075e-06)
(-5.66295e-05 -0.000110384 9.33076e-06)
(-5.17607e-05 -0.000112749 9.33074e-06)
(-4.67933e-05 -0.0001149 9.33072e-06)
(-4.1737e-05 -0.000116831 9.33074e-06)
(-3.66011e-05 -0.000118541 9.33076e-06)
(-3.13958e-05 -0.000120024 9.33081e-06)
(-2.61305e-05 -0.000121279 9.33079e-06)
(-2.08152e-05 -0.000122304 9.33073e-06)
(-1.54609e-05 -0.000123095 9.33078e-06)
(-1.00768e-05 -0.000123653 9.33081e-06)
(-4.67333e-06 -0.000123974 9.33078e-06)
(7.38721e-07 -0.00012406 9.33074e-06)
(6.14941e-06 -0.00012391 9.33072e-06)
(1.15483e-05 -0.000123524 9.33072e-06)
(1.69254e-05 -0.000122903 9.33073e-06)
(2.22704e-05 -0.000122047 9.33073e-06)
(2.75728e-05 -0.00012096 9.33075e-06)
(3.28226e-05 -0.000119642 9.33078e-06)
(3.80101e-05 -0.000118096 9.33079e-06)
(4.31252e-05 -0.000116326 9.33081e-06)
(4.81583e-05 -0.000114334 9.33078e-06)
(5.30995e-05 -0.000112125 9.33078e-06)
(5.79399e-05 -0.000109702 9.33075e-06)
(6.267e-05 -0.00010707 9.33073e-06)
(6.72806e-05 -0.000104234 9.33074e-06)
(7.17633e-05 -0.000101201 9.33074e-06)
(0 0 0)
(0 0 0)
(0 0 0)
(0 0 0)
(0 0 0)
(0 0 0)
(0 0 0)
(0 0 0)
(0 0 0)
(0 0 0)
(0 0 0)
(0 0 0)
(0 0 0)
(0 0 0)
(0 0 0)
(0 0 0)
(0 0 0)
(0 0 0)
(0 0 0)
(0 0 0)
(0 0 0)
(0 0 0)
(0 0 0)
(0 0 0)
(0 0 0)
(0 0 0)
(0 0 0)
(0 0 0)
(0 0 0)
(0 0 0)
(0 0 0)
(0 0 0)
(0 0 0)
(0 0 0)
(0 0 0)
(0 0 0)
(0 0 0)
(0 0 0)
(0 0 0)
(0 0 0)
(0 0 0)
(0 0 0)
(0 0 0)
(0 0 0)
(0 0 0)
(0 0 0)
(0 0 0)
(0 0 0)
(0 0 0)
(0 0 0)
(0 0 0)
(0 0 0)
(0 0 0)
(0 0 0)
(0 0 0)
(0 0 0)
(0 0 0)
(0 0 0)
(0 0 0)
(0 0 0)
(0 0 0)
(0 0 0)
(0 0 0)
(0 0 0)
(0 0 0)
(0 0 0)
(0 0 0)
(0 0 0)
(0 0 0)
(0 0 0)
(0 0 0)
(0 0 0)
(0 0 0)
(0 0 0)
(0 0 0)
(0 0 0)
(0 0 0)
(0 0 0)
(0 0 0)
(0 0 0)
(0 0 0)
(0 0 0)
(0 0 0)
(0 0 0)
(0 0 0)
(0 0 0)
(0 0 0)
(0 0 0)
(0 0 0)
(0 0 0)
(0 0 0)
(0 0 0)
(0 0 0)
(0 0 0)
(0 0 0)
(0 0 0)
(0 0 0)
(0 0 0)
(0 0 0)
(0 0 0)
(0 0 0)
(0 0 0)
(0 0 0)
(0 0 0)
(0 0 0)
(0 0 0)
(0 0 0)
(0 0 0)
(0 0 0)
(0 0 0)
(0 0 0)
(0 0 0)
(0 0 0)
(0 0 0)
(0 0 0)
(0 0 0)
(0 0 0)
(0 0 0)
(0 0 0)
(0 0 0)
(0 0 0)
(0 0 0)
(0 0 0)
(0 0 0)
(0 0 0)
(0 0 0)
(0 0 0)
(0 0 0)
(0 0 0)
(0 0 0)
(0 0 0)
(0 0 0)
(0 0 0)
(0 0 0)
(0 0 0)
(0 0 0)
(0 0 0)
(0 0 0)
(0 0 0)
(0 0 0)
(0 0 0)
(0 0 0)
(0 0 0)
(0 0 0)
(6.95277e-05 -0.000102603 9.58804e-06)
(7.3937e-05 -9.94722e-05 9.58804e-06)
(7.82055e-05 -9.61525e-05 9.58806e-06)
(8.23251e-05 -9.26496e-05 9.5881e-06)
(8.62881e-05 -8.89705e-05 9.58813e-06)
(9.00867e-05 -8.5122e-05 9.58813e-06)
(9.37139e-05 -8.11116e-05 9.5881e-06)
(9.71628e-05 -7.69465e-05 9.58808e-06)
(0.000100427 -7.26352e-05 9.58807e-06)
(0.000103499 -6.81854e-05 9.58808e-06)
(0.000106375 -6.36059e-05 9.58808e-06)
(0.000109048 -5.89054e-05 9.58805e-06)
(0.000111514 -5.40926e-05 9.58805e-06)
(0.000113767 -4.91768e-05 9.58806e-06)
(0.000115804 -4.41677e-05 9.58809e-06)
(0.00011762 -3.90745e-05 9.58813e-06)
(0.000119213 -3.39068e-05 9.58813e-06)
(0.000120578 -2.86745e-05 9.58812e-06)
(0.000121714 -2.33877e-05 9.58812e-06)
(0.000122619 -1.80563e-05 9.58811e-06)
(0.00012329 -1.26905e-05 9.5881e-06)
(0.000123726 -7.30046e-06 9.58807e-06)
(0.000123927 -1.89677e-06 9.58804e-06)
(0.000123891 3.51076e-06 9.58804e-06)
(0.00012362 8.91145e-06 9.58806e-06)
(0.000123114 1.42952e-05 9.58807e-06)
(0.000122373 1.96515e-05 9.58807e-06)
(0.000121399 2.49706e-05 9.58808e-06)
(0.000120195 3.02423e-05 9.5881e-06)
(0.000118761 3.54565e-05 9.58811e-06)
(0.000117101 4.06031e-05 9.58812e-06)
(0.000115219 4.56723e-05 9.5881e-06)
(0.000113117 5.06546e-05 9.58806e-06)
(0.0001108 5.55405e-05 9.58804e-06)
(0.000108272 6.03207e-05 9.58806e-06)
(0.000105538 6.4986e-05 9.58806e-06)
(0.000102603 6.95277e-05 9.58804e-06)
(9.94722e-05 7.3937e-05 9.58804e-06)
(9.61525e-05 7.82055e-05 9.58806e-06)
(9.26496e-05 8.23251e-05 9.5881e-06)
(8.89705e-05 8.62881e-05 9.58813e-06)
(8.5122e-05 9.00867e-05 9.58813e-06)
(8.11116e-05 9.37139e-05 9.5881e-06)
(7.69465e-05 9.71628e-05 9.58808e-06)
(7.26352e-05 0.000100427 9.58807e-06)
(6.81854e-05 0.000103499 9.58808e-06)
(6.36059e-05 0.000106375 9.58808e-06)
(5.89054e-05 0.000109048 9.58805e-06)
(5.40926e-05 0.000111514 9.58805e-06)
(4.91768e-05 0.000113767 9.58806e-06)
(4.41677e-05 0.000115804 9.58809e-06)
(3.90745e-05 0.00011762 9.58813e-06)
(3.39068e-05 0.000119213 9.58813e-06)
(2.86745e-05 0.000120578 9.58812e-06)
(2.33877e-05 0.000121714 9.58812e-06)
(1.80563e-05 0.000122619 9.58811e-06)
(1.26905e-05 0.00012329 9.5881e-06)