/*--------------------------------*- C++ -*----------------------------------*\
| =========                 |                                                 |
| \\      /  F ield         | OpenFOAM: The Open Source CFD Toolbox           |
|  \\    /   O peration     | Version:  2312                                  |
|   \\  /    A nd           | Website:  www.openfoam.com                      |
|    \\/     M anipulation  |                                                 |
\*---------------------------------------------------------------------------*/
FoamFile
{
    version     2.0;
    format      ascii;
    arch        "LSB;label=32;scalar=64";
    class       volVectorField;
    location    "0.1";
    object      D;
}
// * * * * * * * * * * * * * * * * * * * * * * * * * * * * * * * * * * * * * //

dimensions      [0 1 0 0 0 0 0];

internalField   nonuniform List<vector> 
1620
(
(-9.31763e-05 0.000209887 -2.31006e-05)
(-0.000128207 0.000190518 -2.31007e-05)
(-0.000159343 0.000165361 -2.31007e-05)
(-0.000185637 0.000135179 -2.31006e-05)
(-0.00020629 0.00010089 -2.31007e-05)
(-0.000220675 6.35355e-05 -2.31007e-05)
(-0.000228355 2.42503e-05 -2.31006e-05)
(-0.000229097 -1.57715e-05 -2.31006e-05)
(-0.000222878 -5.53143e-05 -2.31006e-05)
(-0.000209887 -9.31763e-05 -2.31006e-05)
(-0.000190518 -0.000128207 -2.31007e-05)
(-0.000165361 -0.000159343 -2.31007e-05)
(-0.000135179 -0.000185637 -2.31006e-05)
(-0.00010089 -0.00020629 -2.31007e-05)
(-6.35355e-05 -0.000220675 -2.31007e-05)
(-2.42503e-05 -0.000228355 -2.31006e-05)
(1.57716e-05 -0.000229097 -2.31006e-05)
(5.53143e-05 -0.000222878 -2.31006e-05)
(9.31764e-05 -0.000209887 -2.31006e-05)
(0.000128207 -0.000190518 -2.31007e-05)
(0.000159343 -0.000165361 -2.31007e-05)
(0.000185637 -0.000135179 -2.31006e-05)
(0.00020629 -0.00010089 -2.31007e-05)
(0.000220675 -6.35355e-05 -2.31007e-05)
(0.000228355 -2.42503e-05 -2.31006e-05)
(0.000229097 1.57715e-05 -2.31006e-05)
(0.000222878 5.53143e-05 -2.31006e-05)
(0.000209887 9.31763e-05 -2.31006e-05)
(0.000190518 0.000128207 -2.31007e-05)
(0.000165361 0.000159343 -2.31007e-05)
(0.000135179 0.000185637 -2.31006e-05)
(0.00010089 0.00020629 -2.31007e-05)
(6.35355e-05 0.000220675 -2.31007e-05)
(2.42503e-05 0.000228355 -2.31006e-05)
(-1.57715e-05 0.000229097 -2.31006e-05)
(-5.53143e-05 0.000222878 -2.31006e-05)
(-7.6754e-05 0.000200797 -1.70908e-05)
(-0.000110456 0.000184418 -1.70908e-05)
(-0.000140802 0.000162435 -1.70908e-05)
(-0.000166869 0.000135518 -1.70908e-05)
(-0.000187867 0.000104483 -1.70908e-05)
(-0.000203156 7.02724e-05 -1.70908e-05)
(-0.000212272 3.39273e-05 -1.70908e-05)
(-0.000214938 -3.44872e-06 -1.70908e-05)
(-0.000211074 -4.072e-05 -1.70908e-05)
(-0.000200797 -7.6754e-05 -1.70908e-05)
(-0.000184418 -0.000110456 -1.70908e-05)
(-0.000162435 -0.000140802 -1.70908e-05)
(-0.000135518 -0.000166869 -1.70908e-05)
(-0.000104483 -0.000187867 -1.70908e-05)
(-7.02724e-05 -0.000203156 -1.70908e-05)
(-3.39273e-05 -0.000212272 -1.70908e-05)
(3.44873e-06 -0.000214938 -1.70908e-05)
(4.07201e-05 -0.000211074 -1.70908e-05)
(7.6754e-05 -0.000200797 -1.70908e-05)
(0.000110456 -0.000184418 -1.70908e-05)
(0.000140802 -0.000162435 -1.70908e-05)
(0.000166869 -0.000135518 -1.70908e-05)
(0.000187867 -0.000104483 -1.70908e-05)
(0.000203156 -7.02724e-05 -1.70908e-05)
(0.000212272 -3.39273e-05 -1.70908e-05)
(0.000214938 3.44873e-06 -1.70908e-05)
(0.000211074 4.072e-05 -1.70908e-05)
(0.000200797 7.6754e-05 -1.70908e-05)
(0.000184418 0.000110456 -1.70908e-05)
(0.000162435 0.000140802 -1.70908e-05)
(0.000135518 0.000166869 -1.70908e-05)
(0.000104483 0.000187867 -1.70908e-05)
(7.02724e-05 0.000203156 -1.70908e-05)
(3.39273e-05 0.000212272 -1.70908e-05)
(-3.44872e-06 0.000214938 -1.70908e-05)
(-4.072e-05 0.000211074 -1.70908e-05)
(-6.33676e-05 0.000190828 -1.13154e-05)
(-9.55418e-05 0.000176925 -1.13154e-05)
(-0.000124813 0.000157647 -1.13154e-05)
(-0.000150292 0.000133578 -1.13154e-05)
(-0.000171205 0.000105451 -1.13154e-05)
(-0.000186914 7.41194e-05 -1.13154e-05)
(-0.000196946 4.0536e-05 -1.13154e-05)
(-0.000200993 5.72085e-06 -1.13154e-05)
(-0.000198932 -2.9268e-05 -1.13154e-05)
(-0.000190828 -6.33676e-05 -1.13154e-05)
(-0.000176925 -9.55418e-05 -1.13154e-05)
(-0.000157647 -0.000124813 -1.13154e-05)
(-0.000133578 -0.000150292 -1.13154e-05)
(-0.000105451 -0.000171205 -1.13154e-05)
(-7.41194e-05 -0.000186914 -1.13154e-05)
(-4.05359e-05 -0.000196946 -1.13154e-05)
(-5.72085e-06 -0.000200993 -1.13154e-05)
(2.9268e-05 -0.000198932 -1.13154e-05)
(6.33676e-05 -0.000190828 -1.13154e-05)
(9.55418e-05 -0.000176925 -1.13154e-05)
(0.000124813 -0.000157647 -1.13154e-05)
(0.000150292 -0.000133578 -1.13154e-05)
(0.000171205 -0.000105451 -1.13154e-05)
(0.000186914 -7.41194e-05 -1.13154e-05)
(0.000196946 -4.05359e-05 -1.13154e-05)
(0.000200993 -5.72085e-06 -1.13154e-05)
(0.000198932 2.9268e-05 -1.13154e-05)
(0.000190828 6.33676e-05 -1.13154e-05)
(0.000176925 9.55418e-05 -1.13154e-05)
(0.000157647 0.000124813 -1.13154e-05)
(0.000133578 0.000150292 -1.13154e-05)
(0.000105451 0.000171205 -1.13154e-05)
(7.41194e-05 0.000186914 -1.13154e-05)
(4.05359e-05 0.000196946 -1.13154e-05)
(5.72085e-06 0.000200993 -1.13154e-05)
(-2.9268e-05 0.000198932 -1.13154e-05)
(-0.000246005 0.00062883 -7.86528e-05)
(-0.000351463 0.000576559 -7.86529e-05)
(-0.000446242 0.000506769 -7.86529e-05)
(-0.000527462 0.00042158 -7.86527e-05)
(-0.000592655 0.000323583 -7.86527e-05)
(-0.000639841 0.000215754 -7.86528e-05)
(-0.000667586 0.000101369 -7.86528e-05)
(-0.000675046 -1.60965e-05 -7.86528e-05)
(-0.000661995 -0.000133072 -7.86528e-05)
(-0.00062883 -0.000246005 -7.86528e-05)
(-0.000576559 -0.000351463 -7.86529e-05)
(-0.000506768 -0.000446242 -7.86529e-05)
(-0.00042158 -0.000527462 -7.86527e-05)
(-0.000323583 -0.000592655 -7.86527e-05)
(-0.000215754 -0.000639841 -7.86528e-05)
(-0.000101369 -0.000667586 -7.86528e-05)
(1.60965e-05 -0.000675046 -7.86528e-05)
(0.000133072 -0.000661995 -7.86528e-05)
(0.000246005 -0.00062883 -7.86528e-05)
(0.000351463 -0.000576559 -7.86529e-05)
(0.000446242 -0.000506768 -7.86529e-05)
(0.000527462 -0.00042158 -7.86527e-05)
(0.000592655 -0.000323583 -7.86527e-05)
(0.000639841 -0.000215754 -7.86528e-05)
(0.000667586 -0.000101369 -7.86528e-05)
(0.000675046 1.60965e-05 -7.86528e-05)
(0.000661995 0.000133072 -7.86528e-05)
(0.00062883 0.000246005 -7.86528e-05)
(0.000576559 0.000351463 -7.86529e-05)
(0.000506768 0.000446242 -7.86529e-05)
(0.00042158 0.000527462 -7.86527e-05)
(0.000323583 0.000592655 -7.86527e-05)
(0.000215754 0.000639841 -7.86528e-05)
(0.000101369 0.000667586 -7.86528e-05)
(-1.60965e-05 0.000675046 -7.86528e-05)
(-0.000133072 0.000661995 -7.86528e-05)
(-0.000228141 0.000596857 -6.52836e-05)
(-0.000328317 0.000548173 -6.52836e-05)
(-0.000418519 0.000482833 -6.52837e-05)
(-0.000496004 0.000402823 -6.52837e-05)
(-0.000558418 0.000310573 -6.52836e-05)
(-0.000603865 0.000208886 -6.52837e-05)
(-0.000630963 0.000100853 -6.52837e-05)
(-0.00063889 -1.0245e-05 -6.52836e-05)
(-0.000627405 -0.000121031 -6.52836e-05)
(-0.000596857 -0.000228141 -6.52836e-05)
(-0.000548173 -0.000328317 -6.52836e-05)
(-0.000482833 -0.000418519 -6.52837e-05)
(-0.000402823 -0.000496004 -6.52837e-05)
(-0.000310573 -0.000558418 -6.52836e-05)
(-0.000208886 -0.000603865 -6.52837e-05)
(-0.000100853 -0.000630963 -6.52837e-05)
(1.0245e-05 -0.00063889 -6.52836e-05)
(0.000121031 -0.000627405 -6.52836e-05)
(0.000228141 -0.000596857 -6.52836e-05)
(0.000328317 -0.000548173 -6.52836e-05)
(0.000418519 -0.000482833 -6.52837e-05)
(0.000496004 -0.000402823 -6.52837e-05)
(0.000558418 -0.000310573 -6.52836e-05)
(0.000603865 -0.000208886 -6.52837e-05)
(0.000630963 -0.000100853 -6.52837e-05)
(0.00063889 1.0245e-05 -6.52836e-05)
(0.000627405 0.000121031 -6.52836e-05)
(0.000596857 0.000228141 -6.52836e-05)
(0.000548173 0.000328317 -6.52836e-05)
(0.000482833 0.000418519 -6.52837e-05)
(0.000402823 0.000496004 -6.52837e-05)
(0.000310573 0.000558418 -6.52836e-05)
(0.000208886 0.000603865 -6.52836e-05)
(0.000100853 0.000630963 -6.52836e-05)
(-1.0245e-05 0.00063889 -6.52836e-05)
(-0.000121031 0.000627405 -6.52836e-05)
(-0.0002144 0.000563651 -5.23767e-05)
(-0.000309019 0.000517858 -5.23766e-05)
(-0.000394249 0.00045633 -5.23766e-05)
(-0.0004675 0.000380937 -5.23766e-05)
(-0.000526547 0.000293969 -5.23766e-05)
(-0.000569595 0.000198068 -5.23766e-05)
(-0.000595336 9.61502e-05 -5.23767e-05)
(-0.000602988 -8.68939e-06 -5.23767e-05)
(-0.000592318 -0.000113265 -5.23767e-05)
(-0.000563651 -0.0002144 -5.23767e-05)
(-0.000517858 -0.000309019 -5.23766e-05)
(-0.00045633 -0.000394249 -5.23766e-05)
(-0.000380936 -0.0004675 -5.23766e-05)
(-0.000293969 -0.000526547 -5.23766e-05)
(-0.000198068 -0.000569595 -5.23766e-05)
(-9.61502e-05 -0.000595336 -5.23767e-05)
(8.6894e-06 -0.000602988 -5.23767e-05)
(0.000113265 -0.000592318 -5.23767e-05)
(0.0002144 -0.000563651 -5.23767e-05)
(0.000309019 -0.000517858 -5.23766e-05)
(0.000394249 -0.00045633 -5.23766e-05)
(0.0004675 -0.000380936 -5.23766e-05)
(0.000526547 -0.000293969 -5.23766e-05)
(0.000569595 -0.000198068 -5.23766e-05)
(0.000595336 -9.61502e-05 -5.23767e-05)
(0.000602988 8.6894e-06 -5.23767e-05)
(0.000592318 0.000113265 -5.23767e-05)
(0.000563651 0.0002144 -5.23767e-05)
(0.000517858 0.000309019 -5.23766e-05)
(0.00045633 0.000394249 -5.23766e-05)
(0.000380937 0.0004675 -5.23766e-05)
(0.000293969 0.000526547 -5.23766e-05)
(0.000198068 0.000569595 -5.23766e-05)
(9.61502e-05 0.000595336 -5.23767e-05)
(-8.6894e-06 0.000602988 -5.23767e-05)
(-0.000113265 0.000592318 -5.23767e-05)
(-0.000399354 0.00103846 -0.000155601)
(-0.000573613 0.000953338 -0.000155601)
(-0.000730444 0.000839248 -0.000155601)
(-0.000865081 0.000699657 -0.000155601)
(-0.000973433 0.000538808 -0.000155601)
(-0.00105221 0.000361588 -0.000155601)
(-0.00109901 0.000173381 -0.000155601)
(-0.00111242 -2.00948e-05 -0.000155601)
(-0.00109203 -0.00021296 -0.000155601)
(-0.00103846 -0.000399354 -0.000155601)
(-0.000953338 -0.000573613 -0.000155601)
(-0.000839248 -0.000730444 -0.000155601)
(-0.000699657 -0.000865081 -0.000155601)
(-0.000538808 -0.000973433 -0.000155601)
(-0.000361588 -0.00105221 -0.000155601)
(-0.000173381 -0.00109901 -0.000155601)
(2.00948e-05 -0.00111242 -0.000155601)
(0.00021296 -0.00109203 -0.000155601)
(0.000399354 -0.00103846 -0.000155601)
(0.000573613 -0.000953338 -0.000155601)
(0.000730444 -0.000839248 -0.000155601)
(0.000865081 -0.000699657 -0.000155601)
(0.000973433 -0.000538808 -0.000155601)
(0.00105221 -0.000361588 -0.000155601)
(0.00109901 -0.000173381 -0.000155601)
(0.00111242 2.00948e-05 -0.000155601)
(0.00109203 0.00021296 -0.000155601)
(0.00103846 0.000399354 -0.000155601)
(0.000953338 0.000573613 -0.000155601)
(0.000839248 0.000730444 -0.000155601)
(0.000699657 0.000865081 -0.000155601)
(0.000538808 0.000973433 -0.000155601)
(0.000361588 0.00105221 -0.000155601)
(0.000173381 0.00109901 -0.000155601)
(-2.00948e-05 0.00111242 -0.000155601)
(-0.00021296 0.00109203 -0.000155601)
(-0.000376355 0.000981795 -0.000136959)
(-0.000541124 0.000901526 -0.000136959)
(-0.000689452 0.000793865 -0.000136959)
(-0.00081683 0.000662082 -0.000136959)
(-0.00091939 0.000510183 -0.000136959)
(-0.000994015 0.000342781 -0.000136959)
(-0.00103844 0.000164965 -0.000136959)
(-0.00105131 -1.78642e-05 -0.000136959)
(-0.00103223 -0.00020015 -0.000136959)
(-0.000981795 -0.000376355 -0.000136959)
(-0.000901526 -0.000541124 -0.000136959)
(-0.000793865 -0.000689451 -0.000136959)
(-0.000662082 -0.00081683 -0.000136959)
(-0.000510183 -0.00091939 -0.000136959)
(-0.000342781 -0.000994015 -0.000136959)
(-0.000164965 -0.00103844 -0.000136959)
(1.78642e-05 -0.00105131 -0.000136959)
(0.00020015 -0.00103223 -0.000136959)
(0.000376355 -0.000981795 -0.000136959)
(0.000541124 -0.000901526 -0.000136959)
(0.000689452 -0.000793865 -0.000136959)
(0.00081683 -0.000662082 -0.000136959)
(0.00091939 -0.000510183 -0.000136959)
(0.000994015 -0.000342781 -0.000136959)
(0.00103844 -0.000164965 -0.000136959)
(0.00105131 1.78642e-05 -0.000136959)
(0.00103223 0.00020015 -0.000136959)
(0.000981795 0.000376355 -0.000136959)
(0.000901526 0.000541124 -0.000136959)
(0.000793865 0.000689452 -0.000136959)
(0.000662082 0.00081683 -0.000136959)
(0.000510183 0.00091939 -0.000136959)
(0.000342781 0.000994015 -0.000136959)
(0.000164965 0.00103844 -0.000136959)
(-1.78642e-05 0.00105131 -0.000136959)
(-0.00020015 0.00103223 -0.000136959)
(-0.000357426 0.000923415 -0.000118916)
(-0.000512345 0.00084732 -0.000118916)
(-0.000651697 0.00074548 -0.000118916)
(-0.000771247 0.000620989 -0.000118916)
(-0.000867364 0.000477628 -0.000118916)
(-0.000937126 0.000319756 -0.000118916)
(-0.000978413 0.000152168 -0.000118916)
(-0.000989973 -2.00435e-05 -0.000118916)
(-0.000971452 -0.000191646 -0.000118916)
(-0.000923415 -0.000357426 -0.000118916)
(-0.00084732 -0.000512345 -0.000118916)
(-0.00074548 -0.000651697 -0.000118916)
(-0.000620988 -0.000771247 -0.000118916)
(-0.000477628 -0.000867364 -0.000118916)
(-0.000319756 -0.000937126 -0.000118916)
(-0.000152168 -0.000978413 -0.000118916)
(2.00435e-05 -0.000989973 -0.000118916)
(0.000191646 -0.000971452 -0.000118916)
(0.000357426 -0.000923415 -0.000118916)
(0.000512345 -0.00084732 -0.000118916)
(0.000651697 -0.00074548 -0.000118916)
(0.000771247 -0.000620988 -0.000118916)
(0.000867364 -0.000477628 -0.000118916)
(0.000937126 -0.000319756 -0.000118916)
(0.000978413 -0.000152168 -0.000118916)
(0.000989973 2.00435e-05 -0.000118916)
(0.000971452 0.000191646 -0.000118916)
(0.000923415 0.000357426 -0.000118916)
(0.00084732 0.000512345 -0.000118916)
(0.00074548 0.000651697 -0.000118916)
(0.000620988 0.000771247 -0.000118916)
(0.000477628 0.000867364 -0.000118916)
(0.000319756 0.000937126 -0.000118916)
(0.000152168 0.000978414 -0.000118916)
(-2.00435e-05 0.000989973 -0.000118916)
(-0.000191646 0.000971452 -0.000118916)
(-0.000549519 0.00143162 -0.000250435)
(-0.000789769 0.00131445 -0.000250436)
(-0.00100602 0.00115734 -0.000250435)
(-0.00119171 0.000965059 -0.000250435)
(-0.00134118 0.00074346 -0.000250435)
(-0.00144991 0.000499271 -0.000250435)
(-0.00151458 0.000239912 -0.000250435)
(-0.00153323 -2.67366e-05 -0.000250435)
(-0.00150529 -0.000292573 -0.000250435)
(-0.00143162 -0.000549519 -0.000250435)
(-0.00131445 -0.000789769 -0.000250436)
(-0.00115734 -0.00100602 -0.000250435)
(-0.000965059 -0.00119171 -0.000250435)
(-0.00074346 -0.00134118 -0.000250435)
(-0.000499271 -0.00144991 -0.000250435)
(-0.000239912 -0.00151458 -0.000250435)
(2.67366e-05 -0.00153323 -0.000250435)
(0.000292573 -0.00150529 -0.000250435)
(0.000549519 -0.00143162 -0.000250435)
(0.000789769 -0.00131445 -0.000250436)
(0.00100602 -0.00115734 -0.000250435)
(0.00119171 -0.000965059 -0.000250435)
(0.00134118 -0.00074346 -0.000250435)
(0.00144991 -0.000499271 -0.000250435)
(0.00151458 -0.000239912 -0.000250435)
(0.00153323 2.67366e-05 -0.000250435)
(0.00150529 0.000292573 -0.000250435)
(0.00143162 0.000549519 -0.000250435)
(0.00131445 0.000789769 -0.000250436)
(0.00115734 0.00100602 -0.000250435)
(0.000965059 0.00119171 -0.000250435)
(0.00074346 0.00134118 -0.000250435)
(0.000499271 0.00144991 -0.000250435)
(0.000239912 0.00151458 -0.000250435)
(-2.67366e-05 0.00153323 -0.000250435)
(-0.000292573 0.00150529 -0.000250435)
(-0.000519633 0.0013479 -0.000227002)
(-0.000745799 0.00123719 -0.000227002)
(-0.000949305 0.00108889 -0.000227002)
(-0.00112397 0.000907501 -0.000227002)
(-0.00126448 0.00069854 -0.000227002)
(-0.00136657 0.000468353 -0.000227002)
(-0.00142713 0.000223936 -0.000227002)
(-0.00144434 -2.7285e-05 -0.000227002)
(-0.00141766 -0.000277677 -0.000227002)
(-0.0013479 -0.000519633 -0.000227002)
(-0.00123719 -0.000745799 -0.000227002)
(-0.00108889 -0.000949305 -0.000227002)
(-0.000907501 -0.00112397 -0.000227002)
(-0.00069854 -0.00126448 -0.000227002)
(-0.000468353 -0.00136657 -0.000227002)
(-0.000223936 -0.00142713 -0.000227002)
(2.7285e-05 -0.00144434 -0.000227002)
(0.000277677 -0.00141766 -0.000227002)
(0.000519633 -0.0013479 -0.000227002)
(0.000745799 -0.00123719 -0.000227002)
(0.000949305 -0.00108889 -0.000227002)
(0.00112397 -0.000907501 -0.000227002)
(0.00126448 -0.00069854 -0.000227002)
(0.00136657 -0.000468353 -0.000227002)
(0.00142713 -0.000223936 -0.000227002)
(0.00144434 2.7285e-05 -0.000227002)
(0.00141766 0.000277677 -0.000227002)
(0.0013479 0.000519633 -0.000227002)
(0.00123719 0.000745799 -0.000227002)
(0.00108889 0.000949305 -0.000227002)
(0.000907501 0.00112397 -0.000227002)
(0.00069854 0.00126448 -0.000227002)
(0.000468353 0.00136657 -0.000227002)
(0.000223936 0.00142713 -0.000227002)
(-2.7285e-05 0.00144434 -0.000227002)
(-0.000277677 0.00141766 -0.000227002)
(-0.000493866 0.00126202 -0.000204326)
(-0.000705511 0.00115708 -0.000204327)
(-0.000895718 0.001017 -0.000204326)
(-0.00105871 0.000846005 -0.000204326)
(-0.00118953 0.000649309 -0.000204326)
(-0.00128421 0.000432885 -0.000204326)
(-0.00133987 0.000203307 -0.000204327)
(-0.00135482 -3.24473e-05 -0.000204327)
(-0.0013286 -0.000267217 -0.000204326)
(-0.00126202 -0.000493866 -0.000204326)
(-0.00115708 -0.000705511 -0.000204327)
(-0.001017 -0.000895718 -0.000204326)
(-0.000846005 -0.00105871 -0.000204326)
(-0.000649309 -0.00118953 -0.000204326)
(-0.000432885 -0.00128421 -0.000204326)
(-0.000203307 -0.00133987 -0.000204327)
(3.24473e-05 -0.00135482 -0.000204327)
(0.000267217 -0.0013286 -0.000204326)
(0.000493867 -0.00126202 -0.000204326)
(0.000705511 -0.00115708 -0.000204327)
(0.000895718 -0.001017 -0.000204326)
(0.00105871 -0.000846005 -0.000204326)
(0.00118953 -0.000649309 -0.000204326)
(0.00128421 -0.000432885 -0.000204326)
(0.00133987 -0.000203307 -0.000204327)
(0.00135482 3.24473e-05 -0.000204327)
(0.0013286 0.000267217 -0.000204326)
(0.00126202 0.000493866 -0.000204326)
(0.00115708 0.000705511 -0.000204327)
(0.001017 0.000895718 -0.000204326)
(0.000846005 0.00105871 -0.000204326)
(0.000649309 0.00118953 -0.000204326)
(0.000432885 0.00128421 -0.000204326)
(0.000203307 0.00133987 -0.000204327)
(-3.24473e-05 0.00135482 -0.000204327)
(-0.000267217 0.0013286 -0.000204326)
(-0.000695265 0.00180105 -0.000360579)
(-0.00099745 0.00165295 -0.000360579)
(-0.00126933 0.00145464 -0.000360579)
(-0.00150264 0.00121212 -0.000360579)
(-0.00169029 0.000932774 -0.000360579)
(-0.00182659 0.000625087 -0.000360579)
(-0.00190738 0.000298407 -0.000360579)
(-0.00193022 -3.73409e-05 -0.000360579)
(-0.00189442 -0.000371954 -0.000360579)
(-0.00180105 -0.000695265 -0.000360579)
(-0.00165295 -0.00099745 -0.000360579)
(-0.00145464 -0.00126933 -0.000360579)
(-0.00121212 -0.00150264 -0.000360579)
(-0.000932774 -0.00169029 -0.000360579)
(-0.000625087 -0.00182659 -0.000360579)
(-0.000298407 -0.00190738 -0.000360579)
(3.73409e-05 -0.00193022 -0.000360579)
(0.000371954 -0.00189442 -0.000360579)
(0.000695265 -0.00180105 -0.000360579)
(0.00099745 -0.00165295 -0.000360579)
(0.00126933 -0.00145464 -0.000360579)
(0.00150264 -0.00121212 -0.000360579)
(0.00169029 -0.000932774 -0.000360579)
(0.00182659 -0.000625087 -0.000360579)
(0.00190738 -0.000298407 -0.000360579)
(0.00193022 3.73409e-05 -0.000360579)
(0.00189442 0.000371954 -0.000360579)
(0.00180105 0.000695265 -0.000360579)
(0.00165295 0.00099745 -0.000360579)
(0.00145464 0.00126933 -0.000360579)
(0.00121212 0.00150264 -0.000360579)
(0.000932774 0.00169029 -0.000360579)
(0.000625087 0.00182659 -0.000360579)
(0.000298407 0.00190738 -0.000360579)
(-3.73409e-05 0.00193022 -0.000360579)
(-0.000371954 0.00189442 -0.000360579)
(-0.000657042 0.00168741 -0.000332194)
(-0.000940077 0.00154768 -0.000332194)
(-0.00119455 0.00136093 -0.000332194)
(-0.00141272 0.00113282 -0.000332194)
(-0.00158797 0.000870297 -0.000332194)
(-0.00171497 0.000581326 -0.000332194)
(-0.00178986 0.000274693 -0.000332194)
(-0.00181037 -4.02869e-05 -0.000332194)
(-0.00177587 -0.000354043 -0.000332194)
(-0.00168741 -0.000657042 -0.000332194)
(-0.00154768 -0.000940077 -0.000332194)
(-0.00136093 -0.00119455 -0.000332194)
(-0.00113282 -0.00141272 -0.000332194)
(-0.000870296 -0.00158797 -0.000332194)
(-0.000581326 -0.00171497 -0.000332194)
(-0.000274693 -0.00178986 -0.000332194)
(4.02869e-05 -0.00181037 -0.000332194)
(0.000354043 -0.00177587 -0.000332194)
(0.000657042 -0.00168741 -0.000332194)
(0.000940077 -0.00154768 -0.000332194)
(0.00119455 -0.00136093 -0.000332194)
(0.00141272 -0.00113282 -0.000332194)
(0.00158797 -0.000870297 -0.000332194)
(0.00171497 -0.000581326 -0.000332194)
(0.00178986 -0.000274693 -0.000332194)
(0.00181037 4.02869e-05 -0.000332194)
(0.00177587 0.000354043 -0.000332194)
(0.00168741 0.000657042 -0.000332194)
(0.00154768 0.000940077 -0.000332194)
(0.00136093 0.00119455 -0.000332194)
(0.00113282 0.00141272 -0.000332194)
(0.000870297 0.00158797 -0.000332194)
(0.000581326 0.00171497 -0.000332194)
(0.000274693 0.00178986 -0.000332194)
(-4.02869e-05 0.00181037 -0.000332194)
(-0.000354043 0.00177587 -0.000332194)
(-0.000623019 0.00157135 -0.000304702)
(-0.000886416 0.00143929 -0.000304702)
(-0.00112288 0.0012635 -0.000304702)
(-0.00132522 0.00104932 -0.000304702)
(-0.0014873 0.000803254 -0.000304702)
(-0.00160419 0.000532783 -0.000304702)
(-0.00167234 0.000246124 -0.000304702)
(-0.00168967 -4.80134e-05 -0.000304702)
(-0.00165566 -0.000340692 -0.000304702)
(-0.00157135 -0.000623019 -0.000304702)
(-0.00143929 -0.000886416 -0.000304702)
(-0.0012635 -0.00112288 -0.000304702)
(-0.00104932 -0.00132522 -0.000304702)
(-0.000803254 -0.0014873 -0.000304702)
(-0.000532783 -0.00160419 -0.000304702)
(-0.000246124 -0.00167234 -0.000304702)
(4.80134e-05 -0.00168967 -0.000304702)
(0.000340692 -0.00165566 -0.000304702)
(0.000623019 -0.00157135 -0.000304702)
(0.000886416 -0.00143929 -0.000304702)
(0.00112288 -0.0012635 -0.000304702)
(0.00132522 -0.00104932 -0.000304702)
(0.0014873 -0.000803254 -0.000304702)
(0.00160419 -0.000532783 -0.000304702)
(0.00167234 -0.000246124 -0.000304702)
(0.00168967 4.80134e-05 -0.000304702)
(0.00165566 0.000340692 -0.000304702)
(0.00157135 0.000623019 -0.000304702)
(0.00143929 0.000886416 -0.000304702)
(0.0012635 0.00112288 -0.000304702)
(0.00104932 0.00132522 -0.000304702)
(0.000803254 0.0014873 -0.000304702)
(0.000532783 0.00160419 -0.000304702)
(0.000246124 0.00167234 -0.000304702)
(-4.80134e-05 0.00168967 -0.000304702)
(-0.000340692 0.00165566 -0.000304702)
(-0.000835436 0.00213918 -0.00048273)
(-0.00119421 0.00196161 -0.00048273)
(-0.0015167 0.00172444 -0.00048273)
(-0.0017931 0.00143487 -0.00048273)
(-0.00201502 0.0011017 -0.00048273)
(-0.00217572 0.00073506 -0.00048273)
(-0.00227031 0.000346084 -0.00048273)
(-0.00229591 -5.34088e-05 -0.00048273)
(-0.00225176 -0.000451278 -0.00048273)
(-0.00213918 -0.000835436 -0.00048273)
(-0.00196161 -0.00119421 -0.00048273)
(-0.00172444 -0.0015167 -0.00048273)
(-0.00143487 -0.0017931 -0.00048273)
(-0.0011017 -0.00201502 -0.00048273)
(-0.00073506 -0.00217572 -0.00048273)
(-0.000346084 -0.00227031 -0.00048273)
(5.34088e-05 -0.00229591 -0.00048273)
(0.000451278 -0.00225176 -0.00048273)
(0.000835436 -0.00213918 -0.00048273)
(0.00119421 -0.00196161 -0.00048273)
(0.0015167 -0.00172444 -0.00048273)
(0.0017931 -0.00143487 -0.00048273)
(0.00201502 -0.0011017 -0.00048273)
(0.00217572 -0.00073506 -0.00048273)
(0.00227031 -0.000346084 -0.00048273)
(0.00229591 5.34088e-05 -0.00048273)
(0.00225176 0.000451278 -0.00048273)
(0.00213918 0.000835436 -0.00048273)
(0.00196161 0.00119421 -0.00048273)
(0.00172444 0.0015167 -0.00048273)
(0.00143487 0.0017931 -0.00048273)
(0.0011017 0.00201502 -0.00048273)
(0.00073506 0.00217572 -0.00048273)
(0.000346084 0.00227031 -0.00048273)
(-5.34088e-05 0.00229591 -0.00048273)
(-0.000451278 0.00225176 -0.00048273)
(-0.000787309 0.00199223 -0.000448796)
(-0.0011213 0.00182525 -0.000448796)
(-0.00142121 0.00160281 -0.000448796)
(-0.00167795 0.00133167 -0.000448796)
(-0.0018837 0.00102007 -0.000448796)
(-0.00203221 0.00067747 -0.000448796)
(-0.00211898 0.000314288 -0.000448796)
(-0.00214136 -5.84435e-05 -0.000448796)
(-0.00209868 -0.0004294 -0.000448796)
(-0.00199223 -0.000787309 -0.000448796)
(-0.00182525 -0.0011213 -0.000448796)
(-0.00160281 -0.00142121 -0.000448796)
(-0.00133167 -0.00167795 -0.000448796)
(-0.00102007 -0.0018837 -0.000448796)
(-0.00067747 -0.00203221 -0.000448796)
(-0.000314288 -0.00211898 -0.000448796)
(5.84436e-05 -0.00214136 -0.000448796)
(0.0004294 -0.00209868 -0.000448796)
(0.000787309 -0.00199223 -0.000448796)
(0.0011213 -0.00182525 -0.000448796)
(0.00142121 -0.00160281 -0.000448796)
(0.00167795 -0.00133167 -0.000448796)
(0.0018837 -0.00102007 -0.000448796)
(0.00203221 -0.00067747 -0.000448796)
(0.00211898 -0.000314288 -0.000448796)
(0.00214136 5.84435e-05 -0.000448796)
(0.00209868 0.0004294 -0.000448796)
(0.00199223 0.000787309 -0.000448796)
(0.00182525 0.0011213 -0.000448796)
(0.00160281 0.00142121 -0.000448796)
(0.00133167 0.00167795 -0.000448796)
(0.00102007 0.0018837 -0.000448796)
(0.00067747 0.00203221 -0.000448796)
(0.000314288 0.00211898 -0.000448796)
(-5.84435e-05 0.00214136 -0.000448796)
(-0.0004294 0.00209868 -0.000448796)
(-0.000743409 0.00184284 -0.000415886)
(-0.00105212 0.00168575 -0.000415886)
(-0.00132886 0.00147744 -0.000415886)
(-0.00156523 0.00122424 -0.000415886)
(-0.00175404 0.000933842 -0.000415886)
(-0.00188955 0.00061507 -0.000415886)
(-0.00196765 0.000277609 -0.000415886)
(-0.00198596 -6.82873e-05 -0.000415886)
(-0.00194393 -0.000412109 -0.000415886)
(-0.00184284 -0.000743409 -0.000415886)
(-0.00168575 -0.00105212 -0.000415886)
(-0.00147744 -0.00132886 -0.000415886)
(-0.00122424 -0.00156523 -0.000415886)
(-0.000933842 -0.00175404 -0.000415886)
(-0.00061507 -0.00188955 -0.000415886)
(-0.000277609 -0.00196765 -0.000415886)
(6.82873e-05 -0.00198596 -0.000415886)
(0.000412109 -0.00194393 -0.000415886)
(0.000743409 -0.00184284 -0.000415886)
(0.00105212 -0.00168575 -0.000415886)
(0.00132886 -0.00147744 -0.000415886)
(0.00156523 -0.00122424 -0.000415886)
(0.00175404 -0.000933842 -0.000415886)
(0.00188955 -0.00061507 -0.000415886)
(0.00196765 -0.000277609 -0.000415886)
(0.00198596 6.82873e-05 -0.000415886)
(0.00194393 0.000412109 -0.000415886)
(0.00184284 0.000743409 -0.000415886)
(0.00168575 0.00105212 -0.000415886)
(0.00147744 0.00132886 -0.000415886)
(0.00122424 0.00156523 -0.000415886)
(0.000933842 0.00175404 -0.000415886)
(0.00061507 0.00188955 -0.000415886)
(0.000277609 0.00196765 -0.000415886)
(-6.82873e-05 0.00198596 -0.000415886)
(-0.000412109 0.00194393 -0.000415886)
(-0.000968258 0.00243745 -0.000613161)
(-0.00137681 0.00223228 -0.000613161)
(-0.00174352 0.00195929 -0.000613161)
(-0.00205726 0.00162676 -0.000613161)
(-0.00230849 0.00124481 -0.000613161)
(-0.00248958 0.000825031 -0.000613161)
(-0.00259502 0.000380187 -0.000613161)
(-0.00262161 -7.62098e-05 -0.000613161)
(-0.00256855 -0.000530291 -0.000613161)
(-0.00243745 -0.000968258 -0.000613161)
(-0.00223228 -0.00137681 -0.000613161)
(-0.00195929 -0.00174352 -0.000613161)
(-0.00162676 -0.00205726 -0.000613161)
(-0.00124481 -0.00230849 -0.000613161)
(-0.000825031 -0.00248958 -0.000613161)
(-0.000380187 -0.00259502 -0.000613161)
(7.62099e-05 -0.00262161 -0.000613161)
(0.000530291 -0.00256855 -0.000613161)
(0.000968258 -0.00243745 -0.000613161)
(0.00137681 -0.00223228 -0.000613161)
(0.00174352 -0.00195929 -0.000613161)
(0.00205726 -0.00162676 -0.000613161)
(0.00230849 -0.00124481 -0.000613161)
(0.00248958 -0.000825031 -0.000613161)
(0.00259502 -0.000380187 -0.000613161)
(0.00262161 7.62098e-05 -0.000613161)
(0.00256855 0.000530291 -0.000613161)
(0.00243745 0.000968258 -0.000613161)
(0.00223228 0.00137681 -0.000613161)
(0.00195929 0.00174352 -0.000613161)
(0.00162676 0.00205726 -0.000613161)
(0.00124481 0.00230849 -0.000613161)
(0.000825031 0.00248958 -0.000613161)
(0.000380187 0.00259502 -0.000613161)
(-7.62098e-05 0.00262161 -0.000613161)
(-0.000530291 0.00256855 -0.000613161)
(-0.000908164 0.00225342 -0.000572848)
(-0.00128567 0.00206149 -0.000572848)
(-0.00162411 0.00180691 -0.000572848)
(-0.00191321 0.00149744 -0.000572848)
(-0.00214417 0.00114246 -0.000572848)
(-0.00230998 0.000752778 -0.000572848)
(-0.0024056 0.000340218 -0.000572848)
(-0.00242814 -8.26795e-05 -0.000572848)
(-0.00237689 -0.000503065 -0.000572848)
(-0.00225342 -0.000908164 -0.000572848)
(-0.00206149 -0.00128567 -0.000572848)
(-0.00180691 -0.00162411 -0.000572848)
(-0.00149744 -0.00191321 -0.000572848)
(-0.00114246 -0.00214417 -0.000572848)
(-0.000752778 -0.00230998 -0.000572848)
(-0.000340218 -0.0024056 -0.000572848)
(8.26796e-05 -0.00242814 -0.000572848)
(0.000503065 -0.00237689 -0.000572848)
(0.000908165 -0.00225342 -0.000572848)
(0.00128567 -0.00206149 -0.000572848)
(0.00162411 -0.00180691 -0.000572848)
(0.00191321 -0.00149744 -0.000572848)
(0.00214417 -0.00114246 -0.000572848)
(0.00230998 -0.000752778 -0.000572848)
(0.0024056 -0.000340218 -0.000572848)
(0.00242814 8.26796e-05 -0.000572848)
(0.00237689 0.000503065 -0.000572848)
(0.00225342 0.000908164 -0.000572848)
(0.00206149 0.00128567 -0.000572848)
(0.00180691 0.00162411 -0.000572848)
(0.00149744 0.00191321 -0.000572848)
(0.00114246 0.00214417 -0.000572848)
(0.000752778 0.00230998 -0.000572848)
(0.000340218 0.0024056 -0.000572848)
(-8.26796e-05 0.00242814 -0.000572848)
(-0.000503065 0.00237689 -0.000572848)
(-0.000852206 0.00206727 -0.000533716)
(-0.00119824 0.00188788 -0.000533716)
(-0.00150786 0.00165113 -0.000533716)
(-0.00177167 0.0013642 -0.000533716)
(-0.00198164 0.00103583 -0.000533716)
(-0.00213141 0.000675987 -0.000533716)
(-0.00221641 0.000295603 -0.000533716)
(-0.00223407 -9.37636e-05 -0.000533716)
(-0.00218385 -0.000480281 -0.000533716)
(-0.00206727 -0.000852206 -0.000533716)
(-0.00188788 -0.00119824 -0.000533716)
(-0.00165113 -0.00150786 -0.000533716)
(-0.0013642 -0.00177167 -0.000533716)
(-0.00103583 -0.00198164 -0.000533716)
(-0.000675987 -0.00213141 -0.000533716)
(-0.000295603 -0.00221641 -0.000533716)
(9.37636e-05 -0.00223407 -0.000533716)
(0.000480281 -0.00218385 -0.000533716)
(0.000852206 -0.00206727 -0.000533716)
(0.00119824 -0.00188788 -0.000533716)
(0.00150786 -0.00165113 -0.000533716)
(0.00177167 -0.0013642 -0.000533716)
(0.00198164 -0.00103583 -0.000533716)
(0.00213141 -0.000675987 -0.000533716)
(0.00221641 -0.000295603 -0.000533716)
(0.00223407 9.37636e-05 -0.000533716)