/*--------------------------------*- C++ -*----------------------------------*\
| =========                 |                                                 |
| \\      /  F ield         | OpenFOAM: The Open Source CFD Toolbox           |
|  \\    /   O peration     | Version:  2312                                  |
|   \\  /    A nd           | Website:  www.openfoam.com                      |
|    \\/     M anipulation  |                                                 |
\*---------------------------------------------------------------------------*/
FoamFile
{
    version     2.0;
    format      ascii;
    arch        "LSB;label=32;scalar=64";
    class       volVectorField;
    location    "0.1";
    object      D_0_0;
}
// * * * * * * * * * * * * * * * * * * * * * * * * * * * * * * * * * * * * * //

dimensions      [0 1 0 0 0 0 0];

internalField   nonuniform List<vector> 
1620
(
(-7.34293e-05 0.000179072 -1.79432e-05)
(-0.000103409 0.000163601 -1.79432e-05)
(-0.000130247 0.000143158 -1.79432e-05)
(-0.000153128 0.000118367 -1.79432e-05)
(-0.000171356 8.99781e-05 -1.79432e-05)
(-0.000184377 5.88555e-05 -1.79433e-05)
(-0.000191796 2.59445e-05 -1.79432e-05)
(-0.000193387 -7.75454e-06 -1.79432e-05)
(-0.000189103 -4.12181e-05 -1.79432e-05)
(-0.000179072 -7.34293e-05 -1.79432e-05)
(-0.000163601 -0.000103409 -1.79432e-05)
(-0.000143158 -0.000130247 -1.79432e-05)
(-0.000118367 -0.000153128 -1.79432e-05)
(-8.99781e-05 -0.000171356 -1.79432e-05)
(-5.88555e-05 -0.000184377 -1.79433e-05)
(-2.59445e-05 -0.000191796 -1.79432e-05)
(7.75455e-06 -0.000193387 -1.79432e-05)
(4.12181e-05 -0.000189103 -1.79432e-05)
(7.34293e-05 -0.000179072 -1.79432e-05)
(0.000103409 -0.000163601 -1.79432e-05)
(0.000130247 -0.000143158 -1.79432e-05)
(0.000153128 -0.000118367 -1.79432e-05)
(0.000171356 -8.99781e-05 -1.79432e-05)
(0.000184377 -5.88555e-05 -1.79433e-05)
(0.000191796 -2.59445e-05 -1.79432e-05)
(0.000193387 7.75455e-06 -1.79432e-05)
(0.000189103 4.12181e-05 -1.79432e-05)
(0.000179072 7.34293e-05 -1.79432e-05)
(0.000163601 0.000103409 -1.79432e-05)
(0.000143158 0.000130247 -1.79432e-05)
(0.000118367 0.000153128 -1.79432e-05)
(8.99781e-05 0.000171356 -1.79432e-05)
(5.88555e-05 0.000184377 -1.79433e-05)
(2.59445e-05 0.000191796 -1.79432e-05)
(-7.75455e-06 0.000193387 -1.79432e-05)
(-4.12181e-05 0.000189103 -1.79432e-05)
(-6.03259e-05 0.000169419 -1.34118e-05)
(-8.88287e-05 0.00015637 -1.34118e-05)
(-0.000114632 0.000138569 -1.34118e-05)
(-0.000136953 0.000116558 -1.34118e-05)
(-0.000155113 9.10058e-05 -1.34118e-05)
(-0.000168559 6.2688e-05 -1.34118e-05)
(-0.000176884 3.24657e-05 -1.34118e-05)
(-0.000179834 1.25695e-06 -1.34118e-05)
(-0.000177321 -2.99901e-05 -1.34118e-05)
(-0.000169419 -6.03259e-05 -1.34118e-05)
(-0.00015637 -8.88287e-05 -1.34118e-05)
(-0.000138569 -0.000114632 -1.34118e-05)
(-0.000116558 -0.000136953 -1.34118e-05)
(-9.10058e-05 -0.000155113 -1.34118e-05)
(-6.2688e-05 -0.000168559 -1.34118e-05)
(-3.24657e-05 -0.000176884 -1.34118e-05)
(-1.25694e-06 -0.000179834 -1.34118e-05)
(2.99901e-05 -0.000177321 -1.34118e-05)
(6.03259e-05 -0.000169419 -1.34118e-05)
(8.88287e-05 -0.00015637 -1.34118e-05)
(0.000114632 -0.000138569 -1.34118e-05)
(0.000136953 -0.000116558 -1.34118e-05)
(0.000155113 -9.10058e-05 -1.34118e-05)
(0.000168559 -6.2688e-05 -1.34118e-05)
(0.000176884 -3.24657e-05 -1.34118e-05)
(0.000179834 -1.25694e-06 -1.34118e-05)
(0.000177321 2.99901e-05 -1.34118e-05)
(0.000169419 6.03259e-05 -1.34118e-05)
(0.00015637 8.88287e-05 -1.34118e-05)
(0.000138569 0.000114632 -1.34118e-05)
(0.000116558 0.000136953 -1.34118e-05)
(9.10058e-05 0.000155113 -1.34118e-05)
(6.2688e-05 0.000168559 -1.34118e-05)
(3.24657e-05 0.000176884 -1.34118e-05)
(1.25694e-06 0.000179834 -1.34118e-05)
(-2.99901e-05 0.000177321 -1.34118e-05)
(-4.91707e-05 0.000159063 -9.06524e-06)
(-7.60448e-05 0.000148109 -9.06524e-06)
(-0.000100608 0.000132654 -9.06528e-06)
(-0.000122115 0.000113168 -9.06525e-06)
(-0.000139911 9.02436e-05 -9.06528e-06)
(-0.000153456 6.45771e-05 -9.06525e-06)
(-0.000162339 3.69487e-05 -9.06527e-06)
(-0.000166288 8.19754e-06 -9.06529e-06)
(-0.000165185 -2.08026e-05 -9.06525e-06)
(-0.000159063 -4.91707e-05 -9.06524e-06)
(-0.000148109 -7.60448e-05 -9.06524e-06)
(-0.000132654 -0.000100608 -9.06528e-06)
(-0.000113168 -0.000122115 -9.06525e-06)
(-9.02436e-05 -0.000139911 -9.06528e-06)
(-6.45771e-05 -0.000153456 -9.06526e-06)
(-3.69487e-05 -0.000162339 -9.06527e-06)
(-8.19753e-06 -0.000166288 -9.06529e-06)
(2.08026e-05 -0.000165185 -9.06526e-06)
(4.91707e-05 -0.000159063 -9.06524e-06)
(7.60448e-05 -0.000148109 -9.06524e-06)
(0.000100608 -0.000132654 -9.06528e-06)
(0.000122115 -0.000113168 -9.06525e-06)
(0.000139911 -9.02436e-05 -9.06528e-06)
(0.000153456 -6.45771e-05 -9.06526e-06)
(0.000162339 -3.69487e-05 -9.06527e-06)
(0.000166288 -8.19753e-06 -9.06529e-06)
(0.000165185 2.08026e-05 -9.06525e-06)
(0.000159063 4.91707e-05 -9.06524e-06)
(0.000148109 7.60448e-05 -9.06524e-06)
(0.000132654 0.000100608 -9.06528e-06)
(0.000113168 0.000122115 -9.06525e-06)
(9.02436e-05 0.000139911 -9.06528e-06)
(6.45771e-05 0.000153456 -9.06525e-06)
(3.69487e-05 0.000162339 -9.06527e-06)
(8.19753e-06 0.000166288 -9.06529e-06)
(-2.08026e-05 0.000165185 -9.06525e-06)
(-0.000194124 0.000536379 -6.09652e-05)
(-0.000284316 0.000494521 -6.09653e-05)
(-0.00036587 0.000437638 -6.09653e-05)
(-0.000436306 0.000367456 -6.09652e-05)
(-0.000493486 0.00028611 -6.09651e-05)
(-0.000535671 0.00019607 -6.09652e-05)
(-0.000561581 0.000100073 -6.09652e-05)
(-0.000570426 1.03557e-06 -6.09652e-05)
(-0.00056194 -9.80336e-05 -6.09652e-05)
(-0.000536379 -0.000194124 -6.09652e-05)
(-0.000494521 -0.000284316 -6.09653e-05)
(-0.000437638 -0.00036587 -6.09653e-05)
(-0.000367456 -0.000436306 -6.09652e-05)
(-0.00028611 -0.000493486 -6.09651e-05)
(-0.00019607 -0.000535671 -6.09652e-05)
(-0.000100073 -0.000561581 -6.09652e-05)
(-1.03555e-06 -0.000570426 -6.09652e-05)
(9.80337e-05 -0.00056194 -6.09652e-05)
(0.000194124 -0.000536379 -6.09652e-05)
(0.000284316 -0.000494521 -6.09653e-05)
(0.00036587 -0.000437638 -6.09653e-05)
(0.000436306 -0.000367456 -6.09652e-05)
(0.000493486 -0.00028611 -6.09651e-05)
(0.000535671 -0.00019607 -6.09652e-05)
(0.000561581 -0.000100073 -6.09652e-05)
(0.000570426 -1.03555e-06 -6.09652e-05)
(0.00056194 9.80337e-05 -6.09652e-05)
(0.000536379 0.000194124 -6.09652e-05)
(0.000494521 0.000284316 -6.09653e-05)
(0.000437638 0.00036587 -6.09653e-05)
(0.000367456 0.000436306 -6.09652e-05)
(0.00028611 0.000493486 -6.09651e-05)
(0.00019607 0.000535671 -6.09652e-05)
(0.000100073 0.000561581 -6.09652e-05)
(1.03556e-06 0.000570426 -6.09652e-05)
(-9.80336e-05 0.00056194 -6.09652e-05)
(-0.000179025 0.000503673 -5.1338e-05)
(-0.000263767 0.000464933 -5.1338e-05)
(-0.000340494 0.000412068 -5.13381e-05)
(-0.000406876 0.000346681 -5.13381e-05)
(-0.000460896 0.000270761 -5.13381e-05)
(-0.000500911 0.000186614 -5.13381e-05)
(-0.000525706 9.67964e-05 -5.13381e-05)
(-0.000534527 4.03794e-06 -5.1338e-05)
(-0.000527108 -8.88431e-05 -5.13381e-05)
(-0.000503673 -0.000179025 -5.1338e-05)
(-0.000464933 -0.000263767 -5.1338e-05)
(-0.000412068 -0.000340494 -5.13381e-05)
(-0.000346681 -0.000406876 -5.13381e-05)
(-0.000270761 -0.000460896 -5.13381e-05)
(-0.000186614 -0.000500911 -5.13381e-05)
(-9.67964e-05 -0.000525706 -5.13381e-05)
(-4.03792e-06 -0.000534527 -5.1338e-05)
(8.88431e-05 -0.000527108 -5.13381e-05)
(0.000179025 -0.000503673 -5.13381e-05)
(0.000263767 -0.000464933 -5.13381e-05)
(0.000340494 -0.000412068 -5.13381e-05)
(0.000406876 -0.000346681 -5.13381e-05)
(0.000460896 -0.000270761 -5.13381e-05)
(0.000500911 -0.000186614 -5.13381e-05)
(0.000525706 -9.67964e-05 -5.13381e-05)
(0.000534527 -4.03792e-06 -5.1338e-05)
(0.000527108 8.88431e-05 -5.13381e-05)
(0.000503673 0.000179025 -5.1338e-05)
(0.000464933 0.000263767 -5.1338e-05)
(0.000412068 0.000340494 -5.13381e-05)
(0.000346681 0.000406876 -5.13381e-05)
(0.000270761 0.000460896 -5.13381e-05)
(0.000186614 0.000500911 -5.13381e-05)
(9.67964e-05 0.000525706 -5.13381e-05)
(4.03793e-06 0.000534527 -5.1338e-05)
(-8.88431e-05 0.000527108 -5.13381e-05)
(-0.000166638 0.00047006 -4.2049e-05)
(-0.000245731 0.000433983 -4.20489e-05)
(-0.000317358 0.000384719 -4.20489e-05)
(-0.000379343 0.000323765 -4.20489e-05)
(-0.000429801 0.000252974 -4.20489e-05)
(-0.0004672 0.000174497 -4.20489e-05)
(-0.000490403 9.07174e-05 -4.2049e-05)
(-0.000498706 4.18168e-06 -4.2049e-05)
(-0.000491856 -8.24812e-05 -4.2049e-05)
(-0.00047006 -0.000166638 -4.2049e-05)
(-0.000433983 -0.000245731 -4.20489e-05)
(-0.000384719 -0.000317358 -4.20489e-05)
(-0.000323765 -0.000379343 -4.20489e-05)
(-0.000252974 -0.000429801 -4.20489e-05)
(-0.000174497 -0.0004672 -4.20489e-05)
(-9.07173e-05 -0.000490403 -4.2049e-05)
(-4.18166e-06 -0.000498706 -4.2049e-05)
(8.24812e-05 -0.000491856 -4.2049e-05)
(0.000166638 -0.00047006 -4.2049e-05)
(0.000245731 -0.000433983 -4.20489e-05)
(0.000317358 -0.000384719 -4.20489e-05)
(0.000379343 -0.000323765 -4.20489e-05)
(0.000429801 -0.000252974 -4.20489e-05)
(0.0004672 -0.000174497 -4.20489e-05)
(0.000490403 -9.07173e-05 -4.2049e-05)
(0.000498706 -4.18166e-06 -4.2049e-05)
(0.000491856 8.24812e-05 -4.2049e-05)
(0.00047006 0.000166638 -4.2049e-05)
(0.000433983 0.000245731 -4.20489e-05)
(0.000384719 0.000317358 -4.20489e-05)
(0.000323765 0.000379343 -4.20489e-05)
(0.000252974 0.000429801 -4.20489e-05)
(0.000174497 0.0004672 -4.20489e-05)
(9.07173e-05 0.000490403 -4.2049e-05)
(4.18167e-06 0.000498706 -4.2049e-05)
(-8.24812e-05 0.000491856 -4.2049e-05)
(-0.000315222 0.000886134 -0.000120913)
(-0.000464308 0.000817934 -0.000120913)
(-0.000599287 0.000724881 -0.000120913)
(-0.000716057 0.000609803 -0.000120913)
(-0.00081107 0.000476197 -0.000120913)
(-0.000881438 0.000328122 -0.000120913)
(-0.000925025 0.000170077 -0.000120913)
(-0.000940505 6.86392e-06 -0.000120913)
(-0.000927409 -0.000156558 -0.000120913)
(-0.000886134 -0.000315222 -0.000120913)
(-0.000817934 -0.000464308 -0.000120913)
(-0.000724881 -0.000599287 -0.000120913)
(-0.000609803 -0.000716057 -0.000120913)
(-0.000476197 -0.00081107 -0.000120913)
(-0.000328122 -0.000881438 -0.000120913)
(-0.000170077 -0.000925025 -0.000120913)
(-6.86388e-06 -0.000940505 -0.000120913)
(0.000156558 -0.000927409 -0.000120913)
(0.000315222 -0.000886134 -0.000120913)
(0.000464308 -0.000817934 -0.000120913)
(0.000599287 -0.000724881 -0.000120913)
(0.000716057 -0.000609803 -0.000120913)
(0.00081107 -0.000476197 -0.000120913)
(0.000881438 -0.000328122 -0.000120913)
(0.000925025 -0.000170077 -0.000120913)
(0.000940505 -6.86388e-06 -0.000120913)
(0.000927409 0.000156558 -0.000120913)
(0.000886134 0.000315222 -0.000120913)
(0.000817934 0.000464308 -0.000120913)
(0.000724881 0.000599287 -0.000120913)
(0.000609803 0.000716057 -0.000120913)
(0.000476197 0.00081107 -0.000120913)
(0.000328122 0.000881438 -0.000120913)
(0.000170077 0.000925025 -0.000120913)
(6.86391e-06 0.000940505 -0.000120913)
(-0.000156558 0.000927409 -0.000120913)
(-0.000295029 0.000828793 -0.000107751)
(-0.000434466 0.000764971 -0.000107751)
(-0.000560701 0.000677905 -0.000107751)
(-0.000669899 0.000570241 -0.000107751)
(-0.000758743 0.000445251 -0.000107751)
(-0.000824533 0.000306732 -0.000107751)
(-0.00086527 0.000158894 -0.000107751)
(-0.000879717 6.2269e-06 -0.000107751)
(-0.000867433 -0.000146629 -0.000107751)
(-0.000828793 -0.000295029 -0.000107751)
(-0.000764971 -0.000434465 -0.000107751)
(-0.000677905 -0.000560701 -0.000107751)
(-0.000570241 -0.000669899 -0.000107751)
(-0.000445251 -0.000758743 -0.000107751)
(-0.000306732 -0.000824533 -0.000107751)
(-0.000158894 -0.00086527 -0.000107751)
(-6.22686e-06 -0.000879717 -0.000107751)
(0.000146629 -0.000867433 -0.000107751)
(0.000295029 -0.000828793 -0.000107751)
(0.000434466 -0.000764971 -0.000107751)
(0.000560701 -0.000677905 -0.000107751)
(0.000669899 -0.000570241 -0.000107751)
(0.000758743 -0.000445251 -0.000107751)
(0.000824533 -0.000306732 -0.000107751)
(0.00086527 -0.000158894 -0.000107751)
(0.000879717 -6.22686e-06 -0.000107751)
(0.000867433 0.000146629 -0.000107751)
(0.000828793 0.000295029 -0.000107751)
(0.000764971 0.000434466 -0.000107751)
(0.000677905 0.000560701 -0.000107751)
(0.000570241 0.000669899 -0.000107751)
(0.000445251 0.000758743 -0.000107751)
(0.000306732 0.000824533 -0.000107751)
(0.000158894 0.00086527 -0.000107751)
(6.22689e-06 0.000879717 -0.000107751)
(-0.000146629 0.000867433 -0.000107751)
(-0.00027749 0.000770277 -9.49815e-05)
(-0.000407031 0.000710389 -9.49815e-05)
(-0.000524205 0.000628916 -9.49815e-05)
(-0.000625451 0.000528335 -9.49816e-05)
(-0.000707694 0.000411699 -9.49816e-05)
(-0.000768433 0.000282555 -9.49816e-05)
(-0.000805824 0.000144825 -9.49816e-05)
(-0.00081873 2.6953e-06 -9.49815e-05)
(-0.00080676 -0.000139517 -9.49815e-05)
(-0.000770277 -0.00027749 -9.49815e-05)
(-0.000710389 -0.000407031 -9.49815e-05)
(-0.000628916 -0.000524205 -9.49815e-05)
(-0.000528335 -0.000625451 -9.49816e-05)
(-0.000411699 -0.000707694 -9.49816e-05)
(-0.000282555 -0.000768433 -9.49816e-05)
(-0.000144825 -0.000805824 -9.49816e-05)
(-2.69526e-06 -0.00081873 -9.49816e-05)
(0.000139517 -0.00080676 -9.49816e-05)
(0.00027749 -0.000770277 -9.49815e-05)
(0.000407031 -0.000710389 -9.49815e-05)
(0.000524205 -0.000628916 -9.49815e-05)
(0.000625451 -0.000528335 -9.49816e-05)
(0.000707694 -0.000411699 -9.49816e-05)
(0.000768433 -0.000282555 -9.49816e-05)
(0.000805824 -0.000144825 -9.49816e-05)
(0.00081873 -2.69526e-06 -9.49815e-05)
(0.00080676 0.000139517 -9.49815e-05)
(0.000770277 0.00027749 -9.49815e-05)
(0.000710389 0.000407031 -9.49815e-05)
(0.000628916 0.000524205 -9.49815e-05)
(0.000528335 0.000625451 -9.49816e-05)
(0.000411699 0.000707694 -9.49816e-05)
(0.000282555 0.000768433 -9.49816e-05)
(0.000144825 0.000805824 -9.49816e-05)
(2.69529e-06 0.00081873 -9.49815e-05)
(-0.000139517 0.00080676 -9.49815e-05)
(-0.000433653 0.00122255 -0.000194986)
(-0.000639358 0.00112867 -0.000194986)
(-0.000825636 0.0010005 -0.000194986)
(-0.000986828 0.000841929 -0.000194986)
(-0.00111803 0.000657777 -0.000194986)
(-0.00121527 0.00045364 -0.000194986)
(-0.00127558 0.000235718 -0.000194986)
(-0.00129714 1.06342e-05 -0.000194986)
(-0.00127928 -0.000214773 -0.000194986)
(-0.00122255 -0.000433653 -0.000194986)
(-0.00112867 -0.000639358 -0.000194986)
(-0.0010005 -0.000825636 -0.000194986)
(-0.000841929 -0.000986828 -0.000194986)
(-0.000657777 -0.00111803 -0.000194986)
(-0.000453639 -0.00121527 -0.000194986)
(-0.000235718 -0.00127558 -0.000194986)
(-1.06342e-05 -0.00129714 -0.000194986)
(0.000214773 -0.00127928 -0.000194986)
(0.000433653 -0.00122255 -0.000194986)
(0.000639358 -0.00112867 -0.000194986)
(0.000825636 -0.0010005 -0.000194986)
(0.000986828 -0.000841929 -0.000194986)
(0.00111803 -0.000657777 -0.000194986)
(0.00121527 -0.000453639 -0.000194986)
(0.00127558 -0.000235718 -0.000194986)
(0.00129714 -1.06342e-05 -0.000194986)
(0.00127928 0.000214773 -0.000194986)
(0.00122255 0.000433653 -0.000194986)
(0.00112867 0.000639358 -0.000194986)
(0.0010005 0.000825636 -0.000194986)
(0.000841929 0.000986828 -0.000194986)
(0.000657777 0.00111803 -0.000194986)
(0.00045364 0.00121527 -0.000194986)
(0.000235718 0.00127558 -0.000194986)
(1.06342e-05 0.00129714 -0.000194986)
(-0.000214773 0.00127928 -0.000194986)
(-0.000406863 0.00113875 -0.000178523)
(-0.000598425 0.0010508 -0.000178523)
(-0.000771803 0.000930924 -0.000178523)
(-0.000921731 0.000782759 -0.000178523)
(-0.00104365 0.00061081 -0.000178523)
(-0.00113386 0.000420302 -0.000178523)
(-0.00118962 0.000217024 -0.000178523)
(-0.00120923 7.15077e-06 -0.000178523)
(-0.00119211 -0.000202939 -0.000178523)
(-0.00113875 -0.000406863 -0.000178523)
(-0.0010508 -0.000598425 -0.000178523)
(-0.000930924 -0.000771803 -0.000178523)
(-0.000782759 -0.000921731 -0.000178523)
(-0.00061081 -0.00104365 -0.000178523)
(-0.000420302 -0.00113386 -0.000178523)
(-0.000217024 -0.00118962 -0.000178523)
(-7.15071e-06 -0.00120923 -0.000178523)
(0.000202939 -0.00119211 -0.000178523)
(0.000406863 -0.00113875 -0.000178523)
(0.000598425 -0.0010508 -0.000178523)
(0.000771803 -0.000930924 -0.000178523)
(0.000921731 -0.000782759 -0.000178523)
(0.00104365 -0.00061081 -0.000178523)
(0.00113386 -0.000420302 -0.000178523)
(0.00118962 -0.000217024 -0.000178523)
(0.00120923 -7.15072e-06 -0.000178523)
(0.00119211 0.000202939 -0.000178523)
(0.00113875 0.000406863 -0.000178523)
(0.0010508 0.000598425 -0.000178523)
(0.000930924 0.000771803 -0.000178523)
(0.000782759 0.000921731 -0.000178523)
(0.00061081 0.00104365 -0.000178523)
(0.000420302 0.00113386 -0.000178523)
(0.000217024 0.00118962 -0.000178523)
(7.15075e-06 0.00120923 -0.000178523)
(-0.000202939 0.00119211 -0.000178523)
(-0.000382791 0.00105356 -0.000162526)
(-0.000559924 0.000971079 -0.000162526)
(-0.000720043 0.000859097 -0.000162526)
(-0.000858285 0.000721011 -0.000162526)
(-0.000970447 0.000561017 -0.000162526)
(-0.00105312 0.000383978 -0.000162526)
(-0.0011038 0.000195271 -0.000162526)
(-0.00112094 6.31466e-07 -0.000162526)
(-0.00110402 -0.000194028 -0.000162526)
(-0.00105356 -0.000382791 -0.000162526)
(-0.000971079 -0.000559924 -0.000162526)
(-0.000859096 -0.000720043 -0.000162526)
(-0.00072101 -0.000858285 -0.000162526)
(-0.000561017 -0.000970447 -0.000162526)
(-0.000383978 -0.00105312 -0.000162526)
(-0.000195271 -0.0011038 -0.000162526)
(-6.31417e-07 -0.00112094 -0.000162526)
(0.000194028 -0.00110402 -0.000162526)
(0.000382791 -0.00105356 -0.000162526)
(0.000559924 -0.000971079 -0.000162526)
(0.000720043 -0.000859096 -0.000162526)
(0.000858285 -0.00072101 -0.000162526)
(0.000970447 -0.000561017 -0.000162526)
(0.00105312 -0.000383978 -0.000162526)
(0.0011038 -0.000195271 -0.000162526)
(0.00112094 -6.31416e-07 -0.000162526)
(0.00110402 0.000194028 -0.000162526)
(0.00105356 0.000382791 -0.000162526)
(0.000971079 0.000559924 -0.000162526)
(0.000859097 0.000720043 -0.000162526)
(0.00072101 0.000858285 -0.000162526)
(0.000561017 0.000970447 -0.000162526)
(0.000383978 0.00105312 -0.000162526)
(0.000195271 0.0011038 -0.000162526)
(6.31451e-07 0.00112094 -0.000162526)
(-0.000194028 0.00110402 -0.000162526)
(-0.000548288 0.00153971 -0.000281188)
(-0.000807327 0.00142111 -0.000281188)
(-0.00104183 0.00125933 -0.000281188)
(-0.00124469 0.00105928 -0.000281188)
(-0.00140972 0.000827054 -0.000281188)
(-0.00153192 0.000569694 -0.000281188)
(-0.00160757 0.000295024 -0.000281188)
(-0.00163438 1.13897e-05 -0.000281188)
(-0.00161153 -0.000272591 -0.000281188)
(-0.00153971 -0.000548288 -0.000281188)
(-0.00142111 -0.000807327 -0.000281188)
(-0.00125933 -0.00104183 -0.000281188)
(-0.00105928 -0.00124469 -0.000281188)
(-0.000827054 -0.00140972 -0.000281188)
(-0.000569694 -0.00153192 -0.000281188)
(-0.000295024 -0.00160757 -0.000281188)
(-1.13896e-05 -0.00163438 -0.000281188)
(0.000272591 -0.00161153 -0.000281188)
(0.000548288 -0.00153971 -0.000281188)
(0.000807327 -0.00142111 -0.000281188)
(0.00104183 -0.00125933 -0.000281188)
(0.00124469 -0.00105928 -0.000281188)
(0.00140972 -0.000827054 -0.000281188)
(0.00153192 -0.000569694 -0.000281188)
(0.00160757 -0.000295024 -0.000281188)
(0.00163438 -1.13896e-05 -0.000281188)
(0.00161153 0.000272591 -0.000281188)
(0.00153971 0.000548288 -0.000281188)
(0.00142111 0.000807327 -0.000281188)
(0.00125933 0.00104183 -0.000281188)
(0.00105928 0.00124469 -0.000281188)
(0.000827054 0.00140972 -0.000281188)
(0.000569694 0.00153192 -0.000281188)
(0.000295024 0.00160757 -0.000281188)
(1.13897e-05 0.00163438 -0.000281188)
(-0.000272591 0.00161153 -0.000281188)
(-0.000513696 0.00142743 -0.000261125)
(-0.000753763 0.00131654 -0.000261126)
(-0.000970926 0.00116565 -0.000261126)
(-0.00115859 0.000979343 -0.000261125)
(-0.00131105 0.000763278 -0.000261126)
(-0.00142367 0.000524021 -0.000261125)
(-0.00149304 0.000268841 -0.000261125)
(-0.00151704 5.49382e-06 -0.000261125)
(-0.00149495 -0.000258021 -0.000261125)
(-0.00142743 -0.000513696 -0.000261125)
(-0.00131654 -0.000753763 -0.000261126)
(-0.00116565 -0.000970926 -0.000261126)
(-0.000979343 -0.00115859 -0.000261126)
(-0.000763277 -0.00131105 -0.000261126)
(-0.000524021 -0.00142367 -0.000261125)
(-0.000268841 -0.00149304 -0.000261125)
(-5.49375e-06 -0.00151704 -0.000261125)
(0.000258021 -0.00149495 -0.000261125)
(0.000513696 -0.00142743 -0.000261125)
(0.000753763 -0.00131654 -0.000261126)
(0.000970926 -0.00116565 -0.000261126)
(0.00115859 -0.000979343 -0.000261126)
(0.00131105 -0.000763277 -0.000261126)
(0.00142367 -0.000524021 -0.000261125)
(0.00149304 -0.000268841 -0.000261125)
(0.00151704 -5.49375e-06 -0.000261125)
(0.00149495 0.000258021 -0.000261125)
(0.00142743 0.000513696 -0.000261125)
(0.00131654 0.000753763 -0.000261126)
(0.00116565 0.000970926 -0.000261126)
(0.000979343 0.00115859 -0.000261125)
(0.000763278 0.00131105 -0.000261125)
(0.000524021 0.00142367 -0.000261125)
(0.000268841 0.00149304 -0.000261125)
(5.4938e-06 0.00151704 -0.000261125)
(-0.000258021 0.00149495 -0.000261125)
(-0.000481949 0.00131365 -0.000241584)
(-0.000702739 0.00121 -0.000241584)
(-0.000902178 0.00106959 -0.000241584)
(-0.0010742 0.000896678 -0.000241584)
(-0.00121359 0.000696522 -0.000241584)
(-0.0013161 0.000475203 -0.000241584)
(-0.00137863 0.000239445 -0.000241584)
(-0.00139926 -3.58899e-06 -0.000241584)
(-0.00137738 -0.000246514 -0.000241584)
(-0.00131365 -0.000481948 -0.000241584)
(-0.00121 -0.000702739 -0.000241584)
(-0.00106959 -0.000902178 -0.000241584)
(-0.000896678 -0.0010742 -0.000241584)
(-0.000696522 -0.00121359 -0.000241584)
(-0.000475203 -0.0013161 -0.000241584)
(-0.000239445 -0.00137863 -0.000241584)
(3.58906e-06 -0.00139926 -0.000241584)
(0.000246514 -0.00137738 -0.000241584)
(0.000481949 -0.00131365 -0.000241584)
(0.000702739 -0.00121 -0.000241584)
(0.000902178 -0.00106959 -0.000241584)
(0.0010742 -0.000896678 -0.000241584)
(0.00121359 -0.000696522 -0.000241584)
(0.0013161 -0.000475203 -0.000241584)
(0.00137863 -0.000239445 -0.000241584)
(0.00139926 3.58906e-06 -0.000241584)
(0.00137738 0.000246514 -0.000241584)
(0.00131365 0.000481949 -0.000241584)
(0.00121 0.000702739 -0.000241584)
(0.00106959 0.000902178 -0.000241584)
(0.000896678 0.0010742 -0.000241584)
(0.000696522 0.00121359 -0.000241584)
(0.000475203 0.0013161 -0.000241584)
(0.000239445 0.00137863 -0.000241584)
(-3.58901e-06 0.00139926 -0.000241584)
(-0.000246514 0.00137738 -0.000241584)
(-0.000658092 0.00183144 -0.000377038)
(-0.000966121 0.00168934 -0.000377038)
(-0.00124479 0.00149591 -0.000377038)
(-0.00148564 0.00125703 -0.000377038)
(-0.00168135 0.000979951 -0.000377038)
(-0.00182598 0.000673099 -0.000377038)
(-0.00191512 0.000345796 -0.000377038)
(-0.00194607 7.98498e-06 -0.000377038)
(-0.00191789 -0.000330068 -0.000377038)
(-0.00183144 -0.000658092 -0.000377038)
(-0.00168934 -0.000966121 -0.000377038)
(-0.00149591 -0.00124479 -0.000377038)
(-0.00125703 -0.00148564 -0.000377038)
(-0.000979951 -0.00168135 -0.000377038)
(-0.000673099 -0.00182598 -0.000377038)
(-0.000345795 -0.00191512 -0.000377038)
(-7.98489e-06 -0.00194607 -0.000377038)
(0.000330068 -0.00191789 -0.000377038)
(0.000658092 -0.00183144 -0.000377038)
(0.000966121 -0.00168934 -0.000377038)
(0.00124479 -0.00149591 -0.000377038)
(0.00148564 -0.00125703 -0.000377038)
(0.00168135 -0.000979951 -0.000377038)
(0.00182598 -0.000673099 -0.000377038)
(0.00191512 -0.000345795 -0.000377038)
(0.00194607 -7.9849e-06 -0.000377038)
(0.00191789 0.000330068 -0.000377038)
(0.00183144 0.000658092 -0.000377038)
(0.00168934 0.000966121 -0.000377038)
(0.00149591 0.00124479 -0.000377038)
(0.00125703 0.00148564 -0.000377038)
(0.000979951 0.00168135 -0.000377038)
(0.000673099 0.00182598 -0.000377038)
(0.000345796 0.00191512 -0.000377038)
(7.98495e-06 0.00194607 -0.000377038)
(-0.000330068 0.00191789 -0.000377038)
(-0.00061448 0.00168833 -0.000352717)
(-0.00089832 0.00155597 -0.000352717)
(-0.00115486 0.00137634 -0.000352717)
(-0.00137632 0.00115489 -0.000352717)
(-0.00155595 0.000898352 -0.000352717)
(-0.00168831 0.000614516 -0.000352717)
(-0.00176937 0.000312008 -0.000352717)
(-0.00179667 1.9345e-08 -0.000352717)
(-0.00176938 -0.00031197 -0.000352717)
(-0.00168833 -0.00061448 -0.000352717)
(-0.00155597 -0.00089832 -0.000352717)
(-0.00137634 -0.00115486 -0.000352717)
(-0.00115489 -0.00137632 -0.000352717)
(-0.000898352 -0.00155595 -0.000352717)
(-0.000614516 -0.00168831 -0.000352717)
(-0.000312008 -0.00176937 -0.000352717)
(-1.92579e-08 -0.00179667 -0.000352717)
(0.00031197 -0.00176938 -0.000352717)
(0.00061448 -0.00168833 -0.000352717)
(0.00089832 -0.00155597 -0.000352717)
(0.00115486 -0.00137634 -0.000352717)
(0.00137632 -0.00115489 -0.000352717)
(0.00155595 -0.000898352 -0.000352717)
(0.00168831 -0.000614516 -0.000352717)
(0.00176937 -0.000312008 -0.000352717)
(0.00179667 -1.92661e-08 -0.000352717)
(0.00176938 0.00031197 -0.000352717)
(0.00168833 0.00061448 -0.000352717)
(0.00155597 0.00089832 -0.000352717)
(0.00137634 0.00115486 -0.000352717)
(0.00115489 0.00137632 -0.000352717)
(0.000898352 0.00155595 -0.000352717)
(0.000614516 0.00168831 -0.000352717)
(0.000312008 0.00176937 -0.000352717)
(1.93158e-08 0.00179667 -0.000352717)
(-0.00031197 0.00176938 -0.000352717)
(-0.000573842 0.00154378 -0.000328965)
(-0.000833199 0.00142068 -0.000328965)
(-0.00106724 0.00125442 -0.000328965)
(-0.00126885 0.00105004 -0.000328965)
(-0.00143191 0.000813749 -0.000328965)
(-0.00155147 0.000552737 -0.000328965)
(-0.00162388 0.000274931 -0.000328965)
(-0.00164695 -1.12289e-05 -0.000328965)
(-0.00161998 -0.000297048 -0.000328965)
(-0.00154378 -0.000573842 -0.000328965)
(-0.00142068 -0.000833199 -0.000328965)
(-0.00125442 -0.00106724 -0.000328965)
(-0.00105004 -0.00126885 -0.000328965)
(-0.000813749 -0.00143191 -0.000328965)
(-0.000552737 -0.00155147 -0.000328965)
(-0.000274931 -0.00162388 -0.000328965)
(1.1229e-05 -0.00164695 -0.000328965)
(0.000297048 -0.00161998 -0.000328965)
(0.000573842 -0.00154378 -0.000328965)
(0.000833199 -0.00142068 -0.000328965)
(0.00106724 -0.00125442 -0.000328965)
(0.00126885 -0.00105004 -0.000328965)
(0.00143191 -0.000813749 -0.000328965)
(0.00155147 -0.000552737 -0.000328965)
(0.00162388 -0.000274931 -0.000328965)
(0.00164695 1.1229e-05 -0.000328965)
(0.00161998 0.000297048 -0.000328965)
(0.00154378 0.000573842 -0.000328965)
(0.00142068 0.000833199 -0.000328965)
(0.00125442 0.00106724 -0.000328965)
(0.00105004 0.00126885 -0.000328965)
(0.000813749 0.00143191 -0.000328965)
(0.000552737 0.00155147 -0.000328965)
(0.000274931 0.00162388 -0.000328965)
(-1.12289e-05 0.00164695 -0.000328965)
(-0.000297048 0.00161998 -0.000328965)
(-0.00076164 0.00209065 -0.000479844)
(-0.00111311 0.00192663 -0.000479844)
(-0.00143075 0.00170408 -0.000479844)
(-0.00170493 0.00142974 -0.000479844)
(-0.0019273 0.00111196 -0.000479844)
(-0.00209111 0.000760396 -0.000479844)
(-0.00219138 0.000385727 -0.000479844)
(-0.00222507 -6.62251e-07 -0.000479844)
(-0.00219115 -0.000387031 -0.000479844)
(-0.00209065 -0.00076164 -0.000479844)
(-0.00192663 -0.00111311 -0.000479844)
(-0.00170408 -0.00143075 -0.000479844)
(-0.00142974 -0.00170493 -0.000479844)
(-0.00111196 -0.0019273 -0.000479844)
(-0.000760396 -0.00209111 -0.000479844)
(-0.000385727 -0.00219138 -0.000479844)
(6.62364e-07 -0.00222507 -0.000479844)
(0.000387031 -0.00219115 -0.000479844)
(0.00076164 -0.00209065 -0.000479844)
(0.00111311 -0.00192663 -0.000479844)
(0.00143075 -0.00170408 -0.000479844)
(0.00170493 -0.00142974 -0.000479844)
(0.0019273 -0.00111196 -0.000479844)
(0.00209111 -0.000760396 -0.000479844)
(0.00219138 -0.000385727 -0.000479844)
(0.00222507 6.62346e-07 -0.000479844)
(0.00219115 0.000387031 -0.000479844)
(0.00209065 0.00076164 -0.000479844)
(0.00192663 0.00111311 -0.000479844)
(0.00170408 0.00143075 -0.000479844)
(0.00142974 0.00170493 -0.000479844)
(0.00111196 0.0019273 -0.000479844)
(0.000760396 0.00209111 -0.000479844)
(0.000385727 0.00219138 -0.000479844)
(-6.62292e-07 0.00222507 -0.000479844)
(-0.000387031 0.00219115 -0.000479844)
(-0.000707498 0.00191414 -0.000450422)
(-0.00102914 0.0017622 -0.000450422)
(-0.0013195 0.00155672 -0.000450423)
(-0.00156978 0.00130394 -0.000450423)
(-0.00177236 0.00101154 -0.000450422)
(-0.00192108 0.000688409 -0.000450422)
(-0.00201144 0.000344357 -0.000450422)
(-0.00204068 -1.01574e-05 -0.000450422)
(-0.00200791 -0.000364364 -0.000450422)
(-0.00191414 -0.000707498 -0.000450422)
(-0.0017622 -0.00102914 -0.000450422)
(-0.00155672 -0.0013195 -0.000450423)
(-0.00130394 -0.00156978 -0.000450423)
(-0.00101154 -0.00177236 -0.000450422)
(-0.000688409 -0.00192108 -0.000450423)
(-0.000344357 -0.00201144 -0.000450423)
(1.01575e-05 -0.00204068 -0.000450422)
(0.000364364 -0.00200791 -0.000450422)
(0.000707498 -0.00191414 -0.000450422)
(0.00102914 -0.0017622 -0.000450423)
(0.0013195 -0.00155672 -0.000450423)
(0.00156978 -0.00130394 -0.000450423)
(0.00177236 -0.00101154 -0.000450422)
(0.00192108 -0.000688409 -0.000450423)
(0.00201144 -0.000344357 -0.000450423)
(0.00204068 1.01575e-05 -0.000450422)
(0.00200791 0.000364364 -0.000450422)
(0.00191414 0.000707498 -0.000450422)
(0.0017622 0.00102914 -0.000450422)
(0.00155672 0.0013195 -0.000450423)
(0.00130394 0.00156978 -0.000450423)
(0.00101154 0.00177236 -0.000450422)
(0.000688409 0.00192108 -0.000450422)
(0.000344357 0.00201144 -0.000450422)
(-1.01574e-05 0.00204068 -0.000450422)
(-0.000364364 0.00200791 -0.000450422)
(-0.000656417 0.00173646 -0.000421625)
(-0.000947978 0.0015961 -0.000421625)
(-0.00121074 0.00140724 -0.000421625)
(-0.00143671 0.00117561 -0.000421625)
(-0.00161902 0.000908273 -0.000421625)
(-0.00175214 0.000613334 -0.000421625)
(-0.00183203 0.000299759 -0.000421625)
(-0.00185625 -2.29235e-05 -0.000421625)
(-0.00182407 -0.00034491 -0.000421625)
(-0.00173646 -0.000656417 -0.000421625)
(-0.0015961 -0.000947978 -0.000421625)
(-0.00140724 -0.00121074 -0.000421625)
(-0.00117561 -0.00143671 -0.000421625)
(-0.000908272 -0.00161902 -0.000421625)
(-0.000613334 -0.00175214 -0.000421625)
(-0.000299759 -0.00183203 -0.000421625)
(2.29236e-05 -0.00185625 -0.000421625)
(0.00034491 -0.00182407 -0.000421625)
(0.000656417 -0.00173646 -0.000421625)
(0.000947978 -0.0015961 -0.000421625)
(0.00121074 -0.00140724 -0.000421625)
(0.00143671 -0.00117561 -0.000421625)