/*--------------------------------*- C++ -*----------------------------------*\
| =========                 |                                                 |
| \\      /  F ield         | OpenFOAM: The Open Source CFD Toolbox           |
|  \\    /   O peration     | Version:  2312                                  |
|   \\  /    A nd           | Website:  www.openfoam.com                      |
|    \\/     M anipulation  |                                                 |
\*---------------------------------------------------------------------------*/
FoamFile
{
    version     2.0;
    format      ascii;
    arch        "LSB;label=32;scalar=64";
    class       volTensorField;
    location    "0.1";
    object      F;
}
// * * * * * * * * * * * * * * * * * * * * * * * * * * * * * * * * * * * * * //

dimensions      [0 0 0 0 0 0 0];

internalField   nonuniform List<tensor> 
1620
(
(0.985442 -0.024035 0.0775582 0.0104898 0.990813 -0.215359 -0.00601538 -0.000526303 1.02819)
(0.98792 -0.0245451 0.113777 0.00997964 0.988335 -0.19862 -0.00583267 -0.00156288 1.02819)
(0.990424 -0.0241768 0.146538 0.0103479 0.985831 -0.175845 -0.00547265 -0.00255192 1.02819)
(0.99265 -0.0229745 0.174847 0.0115502 0.983605 -0.147728 -0.00494633 -0.00346345 1.02819)
(0.994331 -0.0210833 0.197843 0.0134416 0.981924 -0.115122 -0.00426978 -0.00426981 1.02819)
(0.995264 -0.0187312 0.214828 0.0157937 0.980991 -0.0790175 -0.00346348 -0.00494636 1.02819)
(0.995336 -0.0162019 0.225286 0.0183229 0.980919 -0.0405124 -0.00255194 -0.0054726 1.02819)
(0.994538 -0.0138006 0.228898 0.0207242 0.981717 -0.000776426 -0.00156285 -0.00583261 1.02819)
(0.992968 -0.0118167 0.225556 0.0227081 0.983288 0.0389831 -0.00052628 -0.00601538 1.02819)
(0.990813 -0.0104898 0.215359 0.024035 0.985442 0.0775582 0.000526302 -0.00601538 1.02819)
(0.988335 -0.00997964 0.19862 0.0245451 0.98792 0.113777 0.00156288 -0.00583266 1.02819)
(0.985831 -0.0103479 0.175845 0.0241768 0.990424 0.146538 0.00255192 -0.00547265 1.02819)
(0.983605 -0.0115502 0.147728 0.0229745 0.99265 0.174847 0.00346345 -0.00494633 1.02819)
(0.981924 -0.0134416 0.115122 0.0210833 0.994331 0.197843 0.00426981 -0.00426978 1.02819)
(0.980991 -0.0157937 0.0790175 0.0187312 0.995264 0.214828 0.00494636 -0.00346348 1.02819)
(0.980919 -0.0183229 0.0405124 0.0162019 0.995336 0.225286 0.0054726 -0.00255194 1.02819)
(0.981717 -0.0207242 0.000776422 0.0138006 0.994538 0.228898 0.00583261 -0.00156285 1.02819)
(0.983287 -0.0227081 -0.0389831 0.0118167 0.992968 0.225556 0.00601538 -0.00052628 1.02819)
(0.985442 -0.024035 -0.0775582 0.0104898 0.990813 0.215359 0.00601538 0.000526302 1.02819)
(0.98792 -0.0245451 -0.113777 0.00997964 0.988335 0.19862 0.00583267 0.00156288 1.02819)
(0.990424 -0.0241768 -0.146538 0.0103479 0.985831 0.175845 0.00547265 0.00255192 1.02819)
(0.99265 -0.0229745 -0.174847 0.0115502 0.983605 0.147728 0.00494633 0.00346345 1.02819)
(0.994331 -0.0210833 -0.197843 0.0134416 0.981924 0.115122 0.00426978 0.00426981 1.02819)
(0.995264 -0.0187312 -0.214828 0.0157937 0.980991 0.0790175 0.00346348 0.00494636 1.02819)
(0.995336 -0.0162019 -0.225286 0.0183229 0.980919 0.0405124 0.00255194 0.0054726 1.02819)
(0.994538 -0.0138006 -0.228898 0.0207242 0.981717 0.000776424 0.00156285 0.00583261 1.02819)
(0.992968 -0.0118167 -0.225556 0.0227081 0.983288 -0.0389831 0.000526281 0.00601538 1.02819)
(0.990813 -0.0104898 -0.215359 0.024035 0.985442 -0.0775582 -0.000526302 0.00601538 1.02819)
(0.988335 -0.00997964 -0.19862 0.0245451 0.98792 -0.113777 -0.00156288 0.00583266 1.02819)
(0.985831 -0.0103479 -0.175845 0.0241768 0.990424 -0.146538 -0.00255191 0.00547265 1.02819)
(0.983605 -0.0115502 -0.147728 0.0229745 0.99265 -0.174847 -0.00346345 0.00494633 1.02819)
(0.981924 -0.0134416 -0.115122 0.0210833 0.994331 -0.197843 -0.00426981 0.00426978 1.02819)
(0.980991 -0.0157937 -0.0790175 0.0187312 0.995264 -0.214828 -0.00494636 0.00346348 1.02819)
(0.980919 -0.0183229 -0.0405124 0.0162019 0.995336 -0.225286 -0.0054726 0.00255194 1.02819)
(0.981717 -0.0207242 -0.000776425 0.0138006 0.994538 -0.228898 -0.00583261 0.00156285 1.02819)
(0.983288 -0.0227081 0.0389831 0.0118167 0.992968 -0.225556 -0.00601538 0.00052628 1.02819)
(0.987049 -0.0255276 0.0771338 0.0106619 0.991608 -0.204052 -0.00591344 -0.000517361 1.02447)
(0.989729 -0.025859 0.111395 0.0103305 0.988928 -0.187558 -0.00573381 -0.00153638 1.02447)
(0.99236 -0.0252539 0.142272 0.0109356 0.986297 -0.165365 -0.00537989 -0.00250869 1.02447)
(0.994626 -0.0237853 0.168826 0.0124042 0.984031 -0.138147 -0.00486252 -0.00340475 1.02447)
(0.996253 -0.0216303 0.19025 0.0145592 0.982404 -0.106732 -0.00419742 -0.00419743 1.02447)
(0.997044 -0.0190489 0.205893 0.0171407 0.981613 -0.0720739 -0.00340477 -0.00486254 1.02447)
(0.996905 -0.0163524 0.215281 0.0198371 0.981752 -0.035226 -0.00250869 -0.00537987 1.02447)
(0.995852 -0.0138661 0.218127 0.0223235 0.982805 0.00269229 -0.00153636 -0.00573375 1.02447)
(0.994013 -0.0118898 0.214346 0.0242998 0.984644 0.0405288 -0.000517361 -0.00591343 1.02447)
(0.991608 -0.0106619 0.204052 0.0255276 0.987049 0.0771338 0.000517361 -0.00591344 1.02447)
(0.988928 -0.0103305 0.187558 0.025859 0.989729 0.111395 0.00153638 -0.00573381 1.02447)
(0.986297 -0.0109356 0.165365 0.0252539 0.99236 0.142272 0.00250869 -0.00537989 1.02447)
(0.984031 -0.0124042 0.138147 0.0237853 0.994626 0.168826 0.00340475 -0.00486252 1.02447)
(0.982404 -0.0145592 0.106732 0.0216303 0.996253 0.19025 0.00419743 -0.00419742 1.02447)
(0.981613 -0.0171407 0.0720739 0.0190489 0.997044 0.205893 0.00486254 -0.00340477 1.02447)
(0.981752 -0.0198371 0.035226 0.0163524 0.996905 0.215281 0.00537987 -0.00250869 1.02447)
(0.982805 -0.0223234 -0.00269229 0.0138661 0.995852 0.218127 0.00573375 -0.00153636 1.02447)
(0.984644 -0.0242998 -0.0405288 0.0118898 0.994013 0.214346 0.00591343 -0.000517361 1.02447)
(0.987049 -0.0255276 -0.0771338 0.0106619 0.991608 0.204052 0.00591344 0.000517361 1.02447)
(0.989729 -0.025859 -0.111395 0.0103305 0.988928 0.187558 0.00573381 0.00153638 1.02447)
(0.99236 -0.0252539 -0.142272 0.0109356 0.986297 0.165365 0.00537989 0.00250869 1.02447)
(0.994626 -0.0237853 -0.168826 0.0124042 0.984031 0.138147 0.00486252 0.00340475 1.02447)
(0.996253 -0.0216303 -0.19025 0.0145592 0.982404 0.106732 0.00419742 0.00419743 1.02447)
(0.997044 -0.0190489 -0.205893 0.0171407 0.981613 0.0720739 0.00340477 0.00486254 1.02447)
(0.996905 -0.0163524 -0.215281 0.0198371 0.981752 0.035226 0.00250869 0.00537987 1.02447)
(0.995852 -0.0138661 -0.218127 0.0223235 0.982805 -0.00269229 0.00153636 0.00573375 1.02447)
(0.994013 -0.0118898 -0.214346 0.0242998 0.984644 -0.0405288 0.000517361 0.00591343 1.02447)
(0.991608 -0.0106619 -0.204052 0.0255276 0.987049 -0.0771338 -0.000517361 0.00591344 1.02447)
(0.988928 -0.0103305 -0.187558 0.025859 0.989729 -0.111395 -0.00153638 0.00573381 1.02447)
(0.986297 -0.0109356 -0.165365 0.0252539 0.99236 -0.142272 -0.00250869 0.00537989 1.02447)
(0.984031 -0.0124042 -0.138147 0.0237853 0.994626 -0.168826 -0.00340475 0.00486252 1.02447)
(0.982404 -0.0145592 -0.106732 0.0216303 0.996253 -0.19025 -0.00419743 0.00419742 1.02447)
(0.981613 -0.0171407 -0.0720739 0.0190489 0.997044 -0.205893 -0.00486254 0.00340477 1.02447)
(0.981752 -0.0198371 -0.035226 0.0163524 0.996905 -0.215281 -0.00537987 0.00250869 1.02447)
(0.982805 -0.0223235 0.00269229 0.0138661 0.995852 -0.218127 -0.00573375 0.00153636 1.02447)
(0.984644 -0.0242998 0.0405288 0.0118898 0.994013 -0.214346 -0.00591343 0.000517361 1.02447)
(0.988861 -0.0273215 0.0773753 0.0110464 0.992217 -0.192738 -0.00574461 -0.000502571 1.02088)
(0.991745 -0.0274047 0.109668 0.0109631 0.989333 -0.176374 -0.0055701 -0.00149251 1.02088)
(0.994484 -0.0264965 0.138629 0.0118713 0.986594 -0.154651 -0.00522629 -0.00243708 1.02088)
(0.996747 -0.0247063 0.163378 0.0136616 0.984331 -0.128228 -0.0047237 -0.00330756 1.02088)
(0.998262 -0.02225 0.183162 0.0161179 0.982817 -0.0979101 -0.00407758 -0.00407758 1.02088)
(0.998844 -0.0194238 0.197382 0.0189441 0.982234 -0.0646167 -0.00330757 -0.00472371 1.02088)
(0.998426 -0.0165688 0.205604 0.0217991 0.982653 -0.0293601 -0.00243705 -0.0052263 1.02088)
(0.997056 -0.0140291 0.207578 0.0243388 0.984023 0.00678866 -0.00149248 -0.00557005 1.02088)
(0.994899 -0.0121112 0.203246 0.0262567 0.986179 0.0427311 -0.0005026 -0.0057446 1.02088)
(0.992217 -0.0110464 0.192738 0.0273215 0.988861 0.0773753 0.000502571 -0.00574461 1.02088)
(0.989333 -0.0109631 0.176374 0.0274047 0.991745 0.109668 0.00149251 -0.0055701 1.02088)
(0.986594 -0.0118713 0.154651 0.0264965 0.994484 0.138629 0.00243707 -0.00522629 1.02088)
(0.984331 -0.0136616 0.128228 0.0247063 0.996747 0.163378 0.00330756 -0.0047237 1.02088)
(0.982817 -0.0161179 0.0979101 0.02225 0.998262 0.183162 0.00407758 -0.00407758 1.02088)
(0.982234 -0.0189441 0.0646167 0.0194238 0.998844 0.197382 0.00472371 -0.00330757 1.02088)
(0.982653 -0.0217991 0.0293601 0.0165688 0.998426 0.205604 0.0052263 -0.00243705 1.02088)
(0.984023 -0.0243388 -0.00678866 0.0140291 0.997056 0.207578 0.00557005 -0.00149248 1.02088)
(0.986179 -0.0262567 -0.0427311 0.0121112 0.994899 0.203246 0.0057446 -0.0005026 1.02088)
(0.988861 -0.0273215 -0.0773753 0.0110464 0.992217 0.192738 0.00574461 0.000502571 1.02088)
(0.991745 -0.0274047 -0.109668 0.0109631 0.989333 0.176374 0.0055701 0.00149251 1.02088)
(0.994484 -0.0264965 -0.138629 0.0118713 0.986594 0.154651 0.00522629 0.00243707 1.02088)
(0.996747 -0.0247063 -0.163378 0.0136616 0.984331 0.128228 0.0047237 0.00330756 1.02088)
(0.998262 -0.02225 -0.183162 0.0161179 0.982817 0.0979101 0.00407758 0.00407758 1.02088)
(0.998844 -0.0194238 -0.197382 0.0189441 0.982234 0.0646167 0.00330757 0.00472371 1.02088)
(0.998426 -0.0165688 -0.205604 0.0217991 0.982653 0.0293601 0.00243705 0.0052263 1.02088)
(0.997056 -0.0140291 -0.207578 0.0243388 0.984023 -0.00678866 0.00149248 0.00557005 1.02088)
(0.994899 -0.0121112 -0.203246 0.0262567 0.986179 -0.0427311 0.0005026 0.0057446 1.02088)
(0.992217 -0.0110464 -0.192738 0.0273215 0.988861 -0.0773753 -0.000502571 0.00574461 1.02088)
(0.989333 -0.0109631 -0.176374 0.0274047 0.991745 -0.109668 -0.00149251 0.0055701 1.02088)
(0.986594 -0.0118713 -0.154651 0.0264965 0.994484 -0.138629 -0.00243707 0.00522629 1.02088)
(0.984331 -0.0136616 -0.128228 0.0247063 0.996747 -0.163378 -0.00330756 0.0047237 1.02088)
(0.982817 -0.0161179 -0.0979101 0.02225 0.998262 -0.183162 -0.00407758 0.00407758 1.02088)
(0.982234 -0.0189441 -0.0646167 0.0194238 0.998844 -0.197382 -0.00472371 0.00330757 1.02088)
(0.982653 -0.0217991 -0.0293601 0.0165688 0.998426 -0.205604 -0.0052263 0.00243705 1.02088)
(0.984023 -0.0243388 0.00678866 0.0140291 0.997056 -0.207578 -0.00557005 0.00149248 1.02088)
(0.986179 -0.0262567 0.0427311 0.0121112 0.994899 -0.203246 -0.0057446 0.0005026 1.02088)
(0.98814 -0.0681529 0.078105 0.0339767 0.976716 -0.212187 -0.0129866 -0.00113621 1.03357)
(0.99364 -0.0651688 0.113764 0.0369607 0.971216 -0.195401 -0.0125921 -0.00337406 1.03357)
(0.997788 -0.0604836 0.145967 0.0416459 0.967069 -0.172677 -0.0118149 -0.00550933 1.03357)
(1.00008 -0.0546624 0.173734 0.0474672 0.964774 -0.144707 -0.0106786 -0.0074772 1.03357)
(1.00025 -0.0484072 0.196223 0.0537224 0.964608 -0.11234 -0.00921794 -0.00921796 1.03357)
(0.998265 -0.0424726 0.212749 0.0596571 0.966591 -0.0765592 -0.00747726 -0.0106787 1.03357)
(0.994371 -0.0375743 0.222812 0.0645554 0.970485 -0.0384525 -0.00550933 -0.0118148 1.03357)
(0.989037 -0.0343031 0.226104 0.0678265 0.97582 0.000822526 -0.003374 -0.012592 1.03357)
(0.982905 -0.0330537 0.222526 0.0690759 0.981951 0.0400726 -0.00113617 -0.0129866 1.03357)
(0.976716 -0.0339767 0.212187 0.0681529 0.98814 0.078105 0.00113621 -0.0129866 1.03357)
(0.971216 -0.0369607 0.195401 0.0651688 0.99364 0.113764 0.00337406 -0.0125921 1.03357)
(0.967069 -0.0416459 0.172677 0.0604836 0.997788 0.145967 0.00550933 -0.0118149 1.03357)
(0.964774 -0.0474672 0.144707 0.0546624 1.00008 0.173734 0.0074772 -0.0106786 1.03357)
(0.964608 -0.0537224 0.11234 0.0484072 1.00025 0.196223 0.00921796 -0.00921794 1.03357)
(0.966591 -0.0596571 0.0765592 0.0424726 0.998265 0.212749 0.0106787 -0.00747725 1.03357)
(0.970485 -0.0645554 0.0384525 0.0375743 0.994371 0.222812 0.0118148 -0.00550933 1.03357)
(0.97582 -0.0678265 -0.000822529 0.0343031 0.989037 0.226104 0.012592 -0.003374 1.03357)
(0.981951 -0.0690759 -0.0400726 0.0330537 0.982905 0.222526 0.0129866 -0.00113617 1.03357)
(0.98814 -0.0681529 -0.078105 0.0339767 0.976716 0.212187 0.0129866 0.00113621 1.03357)
(0.99364 -0.0651688 -0.113764 0.0369607 0.971216 0.195401 0.0125921 0.00337406 1.03357)
(0.997788 -0.0604836 -0.145967 0.0416459 0.967069 0.172677 0.0118149 0.00550933 1.03357)
(1.00008 -0.0546624 -0.173734 0.0474672 0.964774 0.144707 0.0106786 0.0074772 1.03357)
(1.00025 -0.0484072 -0.196223 0.0537224 0.964608 0.11234 0.00921794 0.00921796 1.03357)
(0.998265 -0.0424726 -0.212749 0.0596571 0.966591 0.0765592 0.00747726 0.0106787 1.03357)
(0.994371 -0.0375743 -0.222812 0.0645554 0.970485 0.0384525 0.00550933 0.0118148 1.03357)
(0.989037 -0.0343031 -0.226104 0.0678265 0.97582 -0.000822527 0.003374 0.012592 1.03357)
(0.982905 -0.0330537 -0.222526 0.0690759 0.981951 -0.0400726 0.00113617 0.0129866 1.03357)
(0.976716 -0.0339767 -0.212187 0.0681529 0.98814 -0.078105 -0.0011362 0.0129866 1.03357)
(0.971216 -0.0369607 -0.195401 0.0651688 0.99364 -0.113764 -0.00337405 0.0125921 1.03357)
(0.967069 -0.0416459 -0.172677 0.0604836 0.997788 -0.145967 -0.00550933 0.0118149 1.03357)
(0.964774 -0.0474672 -0.144707 0.0546624 1.00008 -0.173734 -0.0074772 0.0106786 1.03357)
(0.964608 -0.0537224 -0.11234 0.0484072 1.00025 -0.196223 -0.00921796 0.00921794 1.03357)
(0.966591 -0.0596571 -0.0765592 0.0424726 0.998265 -0.212749 -0.0106787 0.00747725 1.03357)
(0.970485 -0.0645554 -0.0384525 0.0375743 0.994371 -0.222812 -0.0118148 0.00550933 1.03357)
(0.97582 -0.0678265 0.000822526 0.0343031 0.989037 -0.226104 -0.012592 0.003374 1.03357)
(0.981951 -0.0690759 0.0400726 0.0330537 0.982905 -0.222526 -0.0129866 0.00113617 1.03357)
(0.990595 -0.0720752 0.0770329 0.0342189 0.975759 -0.201271 -0.0128725 -0.0011262 1.03059)
(0.996621 -0.0683965 0.110813 0.0378975 0.969732 -0.184836 -0.0124814 -0.00334439 1.03059)
(1.00103 -0.0628786 0.141226 0.0434154 0.965327 -0.162786 -0.011711 -0.00546094 1.03059)
(1.00328 -0.056187 0.167348 0.0501071 0.963075 -0.135789 -0.0105848 -0.00741151 1.03059)
(1.00311 -0.0491286 0.188385 0.0571655 0.963248 -0.104666 -0.00913695 -0.00913694 1.03059)
(1.00053 -0.0425549 0.203698 0.0637392 0.965824 -0.0703635 -0.00741153 -0.0105848 1.03059)
(0.99586 -0.0372588 0.212822 0.0690353 0.970493 -0.0339228 -0.00546091 -0.011711 1.03059)
(0.989661 -0.0338791 0.215479 0.0724151 0.976692 0.00354873 -0.00334436 -0.0124813 1.03059)
(0.98268 -0.0328233 0.211589 0.0734708 0.983673 0.0409124 -0.0011262 -0.0128725 1.03059)
(0.975759 -0.0342189 0.201271 0.0720752 0.990595 0.0770329 0.0011262 -0.0128725 1.03059)
(0.969732 -0.0378975 0.184836 0.0683965 0.996621 0.110813 0.00334439 -0.0124814 1.03059)
(0.965327 -0.0434154 0.162786 0.0628786 1.00103 0.141226 0.00546094 -0.011711 1.03059)
(0.963075 -0.0501071 0.135789 0.056187 1.00328 0.167348 0.00741151 -0.0105848 1.03059)
(0.963248 -0.0571655 0.104666 0.0491286 1.00311 0.188385 0.00913694 -0.00913695 1.03059)
(0.965824 -0.0637392 0.0703635 0.0425549 1.00053 0.203698 0.0105848 -0.00741153 1.03059)
(0.970493 -0.0690353 0.0339228 0.0372588 0.99586 0.212822 0.011711 -0.00546091 1.03059)
(0.976692 -0.0724151 -0.00354874 0.0338791 0.989661 0.215479 0.0124813 -0.00334436 1.03059)
(0.983673 -0.0734708 -0.0409124 0.0328233 0.98268 0.211589 0.0128725 -0.0011262 1.03059)
(0.990595 -0.0720752 -0.0770329 0.0342189 0.975759 0.201271 0.0128725 0.0011262 1.03059)
(0.996621 -0.0683965 -0.110813 0.0378975 0.969732 0.184836 0.0124814 0.00334439 1.03059)
(1.00103 -0.0628786 -0.141226 0.0434154 0.965327 0.162786 0.011711 0.00546094 1.03059)
(1.00328 -0.056187 -0.167348 0.0501071 0.963075 0.135789 0.0105848 0.00741151 1.03059)
(1.00311 -0.0491286 -0.188385 0.0571655 0.963248 0.104666 0.00913695 0.00913694 1.03059)
(1.00053 -0.0425549 -0.203698 0.0637392 0.965824 0.0703635 0.00741153 0.0105848 1.03059)
(0.99586 -0.0372588 -0.212822 0.0690353 0.970493 0.0339228 0.00546091 0.011711 1.03059)
(0.989661 -0.0338791 -0.215479 0.0724151 0.976692 -0.00354873 0.00334436 0.0124813 1.03059)
(0.98268 -0.0328233 -0.211589 0.0734708 0.983673 -0.0409124 0.0011262 0.0128725 1.03059)
(0.975759 -0.0342189 -0.201271 0.0720752 0.990595 -0.0770329 -0.0011262 0.0128725 1.03059)
(0.969732 -0.0378975 -0.184836 0.0683965 0.996621 -0.110813 -0.00334439 0.0124814 1.03059)
(0.965327 -0.0434154 -0.162786 0.0628786 1.00103 -0.141226 -0.00546094 0.011711 1.03059)
(0.963075 -0.0501071 -0.135789 0.056187 1.00328 -0.167348 -0.00741151 0.0105848 1.03059)
(0.963248 -0.0571655 -0.104666 0.0491286 1.00311 -0.188385 -0.00913694 0.00913695 1.03059)
(0.965824 -0.0637392 -0.0703635 0.0425549 1.00053 -0.203698 -0.0105848 0.00741153 1.03059)
(0.970493 -0.0690353 -0.0339228 0.0372588 0.99586 -0.212822 -0.011711 0.00546091 1.03059)
(0.976692 -0.0724151 0.00354873 0.0338791 0.989661 -0.215479 -0.0124813 0.00334436 1.03059)
(0.983673 -0.0734708 0.0409124 0.0328233 0.98268 -0.211589 -0.0128725 0.0011262 1.03059)
(0.993159 -0.0768901 0.0762904 0.0350452 0.974047 -0.19016 -0.0124579 -0.0010899 1.02772)
(0.999739 -0.0723598 0.108152 0.0395755 0.967467 -0.174024 -0.0120794 -0.00323665 1.02772)
(1.00437 -0.0658524 0.136728 0.0460829 0.962834 -0.152599 -0.0113338 -0.00528507 1.02772)
(1.0065 -0.0581528 0.16115 0.0537825 0.960705 -0.126538 -0.0102438 -0.00717282 1.02772)
(1.00587 -0.0501896 0.180675 0.0617458 0.961339 -0.0966327 -0.00884266 -0.00884265 1.02772)
(1.00255 -0.0429233 0.19471 0.0690121 0.964658 -0.0637908 -0.00717281 -0.0102438 1.02772)
(0.996944 -0.0372304 0.202829 0.074705 0.970262 -0.0290107 -0.00528501 -0.0113338 1.02772)
(0.989731 -0.0337974 0.204785 0.078138 0.977475 0.00665091 -0.00323664 -0.0120793 1.02772)
(0.981779 -0.0330385 0.200519 0.0788969 0.985427 0.0421104 -0.00108993 -0.0124578 1.02772)
(0.974047 -0.0350452 0.19016 0.0768901 0.993159 0.0762904 0.0010899 -0.0124578 1.02772)
(0.967467 -0.0395755 0.174024 0.0723598 0.999739 0.108152 0.00323665 -0.0120794 1.02772)
(0.962834 -0.0460829 0.152599 0.0658524 1.00437 0.136728 0.00528507 -0.0113338 1.02772)
(0.960705 -0.0537825 0.126538 0.0581528 1.0065 0.16115 0.00717282 -0.0102438 1.02772)
(0.961339 -0.0617458 0.0966327 0.0501896 1.00587 0.180675 0.00884265 -0.00884266 1.02772)
(0.964658 -0.0690121 0.0637908 0.0429233 1.00255 0.19471 0.0102438 -0.00717281 1.02772)
(0.970262 -0.074705 0.0290107 0.0372304 0.996944 0.202829 0.0113338 -0.00528501 1.02772)
(0.977475 -0.078138 -0.00665091 0.0337974 0.989731 0.204785 0.0120793 -0.00323664 1.02772)
(0.985427 -0.0788969 -0.0421104 0.0330385 0.981779 0.200519 0.0124578 -0.00108993 1.02772)
(0.993159 -0.0768901 -0.0762904 0.0350452 0.974047 0.19016 0.0124579 0.0010899 1.02772)
(0.999739 -0.0723598 -0.108152 0.0395755 0.967467 0.174024 0.0120794 0.00323665 1.02772)
(1.00437 -0.0658524 -0.136728 0.0460829 0.962834 0.152599 0.0113338 0.00528506 1.02772)
(1.0065 -0.0581528 -0.16115 0.0537825 0.960705 0.126538 0.0102438 0.00717282 1.02772)
(1.00587 -0.0501896 -0.180675 0.0617458 0.961339 0.0966327 0.00884266 0.00884265 1.02772)
(1.00255 -0.0429233 -0.19471 0.0690121 0.964658 0.0637908 0.00717281 0.0102438 1.02772)
(0.996944 -0.0372304 -0.202829 0.074705 0.970262 0.0290107 0.00528501 0.0113338 1.02772)
(0.989731 -0.0337974 -0.204785 0.078138 0.977475 -0.00665091 0.00323664 0.0120793 1.02772)
(0.981779 -0.0330385 -0.200519 0.0788969 0.985427 -0.0421104 0.00108993 0.0124578 1.02772)
(0.974047 -0.0350452 -0.19016 0.0768901 0.993159 -0.0762904 -0.0010899 0.0124578 1.02772)
(0.967467 -0.0395755 -0.174024 0.0723598 0.999739 -0.108152 -0.00323665 0.0120794 1.02772)
(0.962834 -0.0460829 -0.152599 0.0658524 1.00437 -0.136728 -0.00528506 0.0113338 1.02772)
(0.960705 -0.0537825 -0.126538 0.0581528 1.0065 -0.16115 -0.00717282 0.0102438 1.02772)
(0.961339 -0.0617458 -0.0966327 0.0501896 1.00587 -0.180675 -0.00884265 0.00884266 1.02772)
(0.964658 -0.0690121 -0.0637908 0.0429233 1.00255 -0.19471 -0.0102438 0.00717281 1.02772)
(0.970262 -0.074705 -0.0290107 0.0372304 0.996944 -0.202829 -0.0113338 0.00528501 1.02772)
(0.977475 -0.078138 0.00665091 0.0337974 0.989731 -0.204785 -0.0120793 0.00323664 1.02772)
(0.985427 -0.0788969 0.0421104 0.0330385 0.981779 -0.200519 -0.0124578 0.00108993 1.02772)
(0.988294 -0.111229 0.0784684 0.0558697 0.962507 -0.207552 -0.0172441 -0.00150869 1.04442)
(0.996983 -0.10515 0.113317 0.0619488 0.953818 -0.190773 -0.0167202 -0.00448016 1.04442)
(1.00307 -0.0964656 0.144723 0.0706331 0.947732 -0.168197 -0.0156882 -0.00731549 1.04442)
(1.00582 -0.0862233 0.171731 0.0808754 0.944983 -0.140511 -0.0141795 -0.00992853 1.04442)
(1.0049 -0.0756585 0.193522 0.0914403 0.945903 -0.108555 -0.01224 -0.0122399 1.04442)
(1.00042 -0.0660455 0.209432 0.101053 0.95038 -0.0733014 -0.00992855 -0.0141794 1.04442)
(0.992925 -0.0585437 0.218979 0.108555 0.957876 -0.0358203 -0.00731547 -0.0156881 1.04442)
(0.983316 -0.0540579 0.221873 0.113041 0.967485 0.00274932 -0.00448009 -0.0167201 1.04442)
(0.972752 -0.0531292 0.218024 0.11397 0.978049 0.0412353 -0.00150861 -0.0172441 1.04442)
(0.962507 -0.0558697 0.207552 0.111229 0.988294 0.0784684 0.00150869 -0.0172441 1.04442)
(0.953818 -0.0619488 0.190773 0.10515 0.996983 0.113317 0.00448016 -0.0167202 1.04442)
(0.947732 -0.0706331 0.168197 0.0964656 1.00307 0.144723 0.00731549 -0.0156882 1.04442)
(0.944983 -0.0808754 0.140511 0.0862233 1.00582 0.171731 0.00992853 -0.0141795 1.04442)
(0.945903 -0.0914403 0.108555 0.0756585 1.0049 0.193522 0.0122399 -0.01224 1.04442)
(0.95038 -0.101053 0.0733014 0.0660455 1.00042 0.209432 0.0141794 -0.00992855 1.04442)
(0.957876 -0.108555 0.0358203 0.0585437 0.992925 0.218979 0.0156881 -0.00731546 1.04442)
(0.967485 -0.113041 -0.00274932 0.0540579 0.983316 0.221873 0.0167201 -0.00448009 1.04442)
(0.978049 -0.11397 -0.0412353 0.0531292 0.972752 0.218024 0.0172441 -0.00150861 1.04442)
(0.988294 -0.111229 -0.0784684 0.0558697 0.962507 0.207552 0.0172441 0.00150869 1.04442)
(0.996983 -0.10515 -0.113317 0.0619488 0.953818 0.190773 0.0167202 0.00448016 1.04442)
(1.00307 -0.0964656 -0.144723 0.0706331 0.947732 0.168197 0.0156882 0.00731549 1.04442)
(1.00582 -0.0862233 -0.171731 0.0808754 0.944983 0.140511 0.0141795 0.00992853 1.04442)
(1.0049 -0.0756585 -0.193522 0.0914403 0.945903 0.108555 0.01224 0.0122399 1.04442)
(1.00042 -0.0660455 -0.209432 0.101053 0.95038 0.0733014 0.00992855 0.0141794 1.04442)
(0.992925 -0.0585437 -0.218979 0.108555 0.957876 0.0358203 0.00731547 0.0156881 1.04442)
(0.983316 -0.0540579 -0.221873 0.113041 0.967485 -0.00274932 0.00448009 0.0167201 1.04442)
(0.972752 -0.0531292 -0.218024 0.11397 0.978049 -0.0412353 0.00150861 0.0172441 1.04442)
(0.962507 -0.0558697 -0.207552 0.111229 0.988294 -0.0784684 -0.00150868 0.0172441 1.04442)
(0.953818 -0.0619488 -0.190773 0.10515 0.996983 -0.113317 -0.00448016 0.0167202 1.04442)
(0.947732 -0.0706331 -0.168197 0.0964656 1.00307 -0.144723 -0.00731549 0.0156882 1.04442)
(0.944983 -0.0808754 -0.140511 0.0862233 1.00582 -0.171731 -0.00992853 0.0141795 1.04442)
(0.945903 -0.0914403 -0.108555 0.0756585 1.0049 -0.193522 -0.0122399 0.01224 1.04442)
(0.95038 -0.101053 -0.0733014 0.0660455 1.00042 -0.209432 -0.0141794 0.00992855 1.04442)
(0.957876 -0.108555 -0.0358203 0.0585437 0.992925 -0.218979 -0.0156881 0.00731546 1.04442)
(0.967485 -0.113041 0.00274932 0.0540579 0.983316 -0.221873 -0.0167201 0.00448009 1.04442)
(0.978049 -0.11397 0.0412353 0.0531292 0.972752 -0.218024 -0.0172441 0.00150861 1.04442)
(0.990977 -0.117268 0.0764898 0.0564686 0.96029 -0.197084 -0.0170753 -0.00149391 1.0425)
(1.00045 -0.110187 0.109551 0.0635497 0.950818 -0.180807 -0.0165565 -0.00443631 1.0425)
(1.00693 -0.100293 0.139283 0.0734434 0.944339 -0.159037 -0.0155346 -0.00724391 1.0425)
(1.00963 -0.0887804 0.164784 0.0849564 0.941635 -0.132435 -0.0140407 -0.00983136 1.0425)
(1.00824 -0.0770368 0.185277 0.0967 0.943031 -0.101808 -0.0121201 -0.0121201 1.0425)
(1.00291 -0.0664791 0.200141 0.107258 0.94836 -0.0680883 -0.00983135 -0.0140406 1.0425)
(0.994289 -0.0583806 0.208924 0.115356 0.956979 -0.0322997 -0.00724386 -0.0155345 1.0425)
(0.98342 -0.0537182 0.211359 0.120019 0.967847 0.00447032 -0.00443626 -0.0165564 1.0425)
(0.971613 -0.0530541 0.207372 0.120683 0.979655 0.0411045 -0.00149388 -0.0170753 1.0425)
(0.96029 -0.0564686 0.197084 0.117268 0.990977 0.0764898 0.00149391 -0.0170753 1.0425)
(0.950818 -0.0635497 0.180807 0.110187 1.00045 0.109551 0.00443631 -0.0165565 1.0425)
(0.944339 -0.0734434 0.159037 0.100293 1.00693 0.139283 0.00724391 -0.0155346 1.0425)
(0.941635 -0.0849564 0.132435 0.0887804 1.00963 0.164784 0.00983136 -0.0140407 1.0425)
(0.943031 -0.0967 0.101808 0.0770368 1.00824 0.185277 0.0121201 -0.0121201 1.0425)
(0.94836 -0.107258 0.0680883 0.0664791 1.00291 0.200141 0.0140406 -0.00983135 1.0425)
(0.956979 -0.115356 0.0322997 0.0583806 0.994289 0.208924 0.0155345 -0.00724386 1.0425)
(0.967847 -0.120019 -0.00447033 0.0537182 0.98342 0.211359 0.0165564 -0.00443626 1.0425)
(0.979655 -0.120683 -0.0411045 0.0530541 0.971613 0.207372 0.0170753 -0.00149388 1.0425)
(0.990977 -0.117268 -0.0764898 0.0564686 0.96029 0.197084 0.0170753 0.00149391 1.0425)
(1.00045 -0.110187 -0.109551 0.0635497 0.950818 0.180807 0.0165565 0.00443631 1.0425)
(1.00693 -0.100293 -0.139283 0.0734434 0.944339 0.159037 0.0155346 0.00724391 1.0425)
(1.00963 -0.0887804 -0.164784 0.0849564 0.941635 0.132435 0.0140407 0.00983136 1.0425)
(1.00824 -0.0770368 -0.185277 0.0967 0.943031 0.101808 0.0121201 0.0121201 1.0425)
(1.00291 -0.0664791 -0.200141 0.107258 0.94836 0.0680883 0.00983136 0.0140406 1.0425)
(0.994289 -0.0583806 -0.208924 0.115356 0.956979 0.0322997 0.00724386 0.0155345 1.0425)
(0.98342 -0.0537182 -0.211359 0.120019 0.967847 -0.00447033 0.00443626 0.0165564 1.0425)
(0.971613 -0.0530541 -0.207372 0.120683 0.979655 -0.0411045 0.00149388 0.0170753 1.0425)
(0.96029 -0.0564686 -0.197084 0.117268 0.990977 -0.0764898 -0.0014939 0.0170753 1.0425)
(0.950818 -0.0635497 -0.180807 0.110187 1.00045 -0.109551 -0.00443631 0.0165565 1.0425)
(0.944339 -0.0734434 -0.159037 0.100293 1.00693 -0.139283 -0.00724391 0.0155346 1.0425)
(0.941635 -0.0849564 -0.132435 0.0887804 1.00963 -0.164784 -0.00983136 0.0140407 1.0425)
(0.943031 -0.0967 -0.101808 0.0770368 1.00824 -0.185277 -0.0121201 0.0121201 1.0425)
(0.94836 -0.107258 -0.0680883 0.0664791 1.00291 -0.200141 -0.0140406 0.00983135 1.0425)
(0.956979 -0.115356 -0.0322997 0.0583806 0.994289 -0.208924 -0.0155345 0.00724386 1.0425)
(0.967847 -0.120019 0.00447032 0.0537182 0.98342 -0.211359 -0.0165564 0.00443625 1.0425)
(0.979655 -0.120683 0.0411045 0.0530541 0.971613 -0.207372 -0.0170753 0.00149388 1.0425)
(0.993662 -0.12465 0.0745319 0.0580098 0.957042 -0.186168 -0.0165795 -0.00145051 1.04062)
(1.00395 -0.116378 0.105727 0.0662816 0.94675 -0.170397 -0.0160758 -0.00430749 1.04062)
(1.0108 -0.105085 0.13371 0.0775747 0.939908 -0.149449 -0.0150835 -0.00703359 1.04062)
(1.01336 -0.0921326 0.15763 0.0905268 0.937341 -0.12396 -0.013633 -0.00954593 1.04062)
(1.01135 -0.0790836 0.176761 0.103576 0.939359 -0.0947048 -0.0117682 -0.0117682 1.04062)
(1.00499 -0.0675117 0.190521 0.115148 0.945718 -0.0625718 -0.00954588 -0.0136329 1.04062)
(0.995053 -0.0588126 0.198492 0.123847 0.955651 -0.0285375 -0.00703353 -0.0150834 1.04062)
(0.982743 -0.0540356 0.200432 0.128624 0.967961 0.00636384 -0.00430747 -0.0160757 1.04062)
(0.969542 -0.0537567 0.196282 0.128903 0.981162 0.0410718 -0.00145053 -0.0165795 1.04062)
(0.957042 -0.0580098 0.186168 0.12465 0.993662 0.0745319 0.0014505 -0.0165795 1.04062)
(0.94675 -0.0662816 0.170397 0.116378 1.00395 0.105727 0.00430749 -0.0160758 1.04062)
(0.939908 -0.0775747 0.149449 0.105085 1.0108 0.13371 0.00703359 -0.0150835 1.04062)
(0.937341 -0.0905268 0.12396 0.0921326 1.01336 0.15763 0.00954593 -0.013633 1.04062)
(0.939359 -0.103576 0.0947048 0.0790836 1.01135 0.176761 0.0117682 -0.0117682 1.04062)
(0.945718 -0.115148 0.0625717 0.0675117 1.00499 0.190521 0.0136329 -0.00954588 1.04062)
(0.955651 -0.123847 0.0285375 0.0588126 0.995053 0.198492 0.0150834 -0.00703353 1.04062)
(0.967961 -0.128624 -0.00636384 0.0540356 0.982743 0.200432 0.0160757 -0.00430747 1.04062)
(0.981162 -0.128903 -0.0410718 0.0537567 0.969542 0.196282 0.0165795 -0.00145053 1.04062)
(0.993662 -0.12465 -0.0745319 0.0580097 0.957042 0.186168 0.0165795 0.0014505 1.04062)
(1.00395 -0.116378 -0.105727 0.0662816 0.94675 0.170397 0.0160758 0.00430749 1.04062)
(1.0108 -0.105085 -0.13371 0.0775747 0.939908 0.149449 0.0150835 0.00703359 1.04062)
(1.01336 -0.0921326 -0.15763 0.0905268 0.937341 0.12396 0.013633 0.00954593 1.04062)
(1.01135 -0.0790836 -0.176761 0.103576 0.939359 0.0947048 0.0117682 0.0117682 1.04062)
(1.00499 -0.0675117 -0.190521 0.115148 0.945718 0.0625717 0.00954588 0.0136329 1.04062)
(0.995053 -0.0588126 -0.198492 0.123847 0.955651 0.0285375 0.00703353 0.0150834 1.04062)
(0.982743 -0.0540356 -0.200432 0.128624 0.967961 -0.00636384 0.00430747 0.0160757 1.04062)
(0.969542 -0.0537567 -0.196282 0.128903 0.981162 -0.0410718 0.00145053 0.0165795 1.04062)
(0.957042 -0.0580097 -0.186168 0.12465 0.993662 -0.0745319 -0.0014505 0.0165795 1.04062)
(0.94675 -0.0662816 -0.170397 0.116378 1.00395 -0.105727 -0.00430749 0.0160758 1.04062)
(0.939908 -0.0775747 -0.149449 0.105085 1.0108 -0.13371 -0.00703359 0.0150835 1.04062)
(0.937341 -0.0905268 -0.12396 0.0921326 1.01336 -0.15763 -0.00954593 0.013633 1.04062)
(0.939359 -0.103576 -0.0947048 0.0790836 1.01135 -0.176761 -0.0117682 0.0117682 1.04062)
(0.945718 -0.115148 -0.0625718 0.0675117 1.00499 -0.190521 -0.0136329 0.00954588 1.04062)
(0.955651 -0.123847 -0.0285375 0.0588126 0.995053 -0.198492 -0.0150834 0.00703353 1.04062)
(0.967961 -0.128624 0.00636384 0.0540356 0.982743 -0.200432 -0.0160757 0.00430747 1.04062)
(0.981162 -0.128903 0.0410718 0.0537567 0.969542 -0.196282 -0.0165795 0.00145053 1.04062)