/*--------------------------------*- C++ -*----------------------------------*\
| =========                 |                                                 |
| \\      /  F ield         | OpenFOAM: The Open Source CFD Toolbox           |
|  \\    /   O peration     | Version:  2312                                  |
|   \\  /    A nd           | Website:  www.openfoam.com                      |
|    \\/     M anipulation  |                                                 |
\*---------------------------------------------------------------------------*/
FoamFile
{
    version     2.0;
    format      ascii;
    arch        "LSB;label=32;scalar=64";
    class       volVectorField;
    location    "0.1";
    object      U;
}
// * * * * * * * * * * * * * * * * * * * * * * * * * * * * * * * * * * * * * //

dimensions      [0 1 -1 0 0 0 0];

internalField   nonuniform List<vector> 
1620
(
(-0.0009326 0.0012821 -0.000256888)
(-0.00114106 0.00110068 -0.000256889)
(-0.00131486 0.000885812 -0.000256889)
(-0.00144871 0.000644033 -0.000256888)
(-0.00153853 0.000382685 -0.000256889)
(-0.00158161 0.000109707 -0.000256889)
(-0.00157663 -0.000166604 -0.000256888)
(-0.00152375 -0.000437852 -0.000256888)
(-0.00142457 -0.000695797 -0.000256888)
(-0.0012821 -0.0009326 -0.000256888)
(-0.00110068 -0.00114106 -0.000256889)
(-0.000885812 -0.00131486 -0.000256889)
(-0.000644033 -0.00144871 -0.000256888)
(-0.000382685 -0.00153853 -0.000256889)
(-0.000109707 -0.00158161 -0.000256889)
(0.000166604 -0.00157663 -0.000256888)
(0.000437852 -0.00152375 -0.000256888)
(0.000695797 -0.00142457 -0.000256888)
(0.0009326 -0.0012821 -0.000256888)
(0.00114106 -0.00110068 -0.000256889)
(0.00131486 -0.000885812 -0.000256889)
(0.00144871 -0.000644034 -0.000256888)
(0.00153853 -0.000382685 -0.000256889)
(0.00158161 -0.000109707 -0.000256889)
(0.00157663 0.000166604 -0.000256888)
(0.00152375 0.000437852 -0.000256887)
(0.00142457 0.000695797 -0.000256888)
(0.0012821 0.0009326 -0.000256888)
(0.00110068 0.00114106 -0.000256889)
(0.000885812 0.00131486 -0.000256889)
(0.000644033 0.00144871 -0.000256888)
(0.000382685 0.00153853 -0.000256889)
(0.000109707 0.00158161 -0.000256889)
(-0.000166604 0.00157663 -0.000256888)
(-0.000437852 0.00152375 -0.000256888)
(-0.000695797 0.00142457 -0.000256888)
(-0.00076765 0.00134049 -0.00018236)
(-0.000988761 0.00118682 -0.000182361)
(-0.00117983 0.000997094 -0.000182361)
(-0.00133505 0.000777072 -0.00018236)
(-0.0014497 0.000533439 -0.000182361)
(-0.00152031 0.000273595 -0.000182361)
(-0.00154472 5.44e-06 -0.00018236)
(-0.0015222 -0.000262881 -0.00018236)
(-0.00145342 -0.000523214 -0.00018236)
(-0.00134049 -0.00076765 -0.00018236)
(-0.00118682 -0.000988761 -0.000182361)
(-0.000997094 -0.00117983 -0.000182361)
(-0.000777072 -0.00133505 -0.00018236)
(-0.000533439 -0.0014497 -0.000182361)
(-0.000273595 -0.00152031 -0.000182361)
(-5.4401e-06 -0.00154472 -0.00018236)
(0.000262881 -0.0015222 -0.00018236)
(0.000523214 -0.00145342 -0.00018236)
(0.00076765 -0.00134049 -0.00018236)
(0.000988761 -0.00118682 -0.000182361)
(0.00117983 -0.000997095 -0.000182361)
(0.00133505 -0.000777072 -0.00018236)
(0.0014497 -0.000533439 -0.000182361)
(0.00152031 -0.000273595 -0.000182361)
(0.00154472 -5.44025e-06 -0.00018236)
(0.0015222 0.00026288 -0.00018236)
(0.00145342 0.000523214 -0.00018236)
(0.00134049 0.00076765 -0.00018236)
(0.00118682 0.00098876 -0.000182361)
(0.000997095 0.00117983 -0.000182361)
(0.000777072 0.00133505 -0.00018236)
(0.000533439 0.0014497 -0.000182361)
(0.000273595 0.00152031 -0.000182361)
(5.44013e-06 0.00154472 -0.00018236)
(-0.000262881 0.0015222 -0.00018236)
(-0.000523214 0.00145342 -0.00018236)
(-0.000659541 0.00139058 -0.000109928)
(-0.000890993 0.00125492 -0.000109928)
(-0.00109537 0.00108114 -0.000109929)
(-0.00126647 0.000874505 -0.000109928)
(-0.00139909 0.000641301 -0.000109929)
(-0.00148919 0.000388609 -0.000109928)
(-0.00153405 0.000124109 -0.000109928)
(-0.00153229 -0.000144161 -0.000109929)
(-0.00148398 -0.000408051 -0.000109928)
(-0.00139058 -0.000659542 -0.000109928)
(-0.00125492 -0.000890993 -0.000109928)
(-0.00108114 -0.00109537 -0.000109929)
(-0.000874505 -0.00126647 -0.000109928)
(-0.000641301 -0.00139909 -0.000109929)
(-0.000388609 -0.00148919 -0.000109928)
(-0.000124109 -0.00153405 -0.000109928)
(0.000144161 -0.00153229 -0.000109929)
(0.00040805 -0.00148398 -0.000109928)
(0.000659541 -0.00139058 -0.000109928)
(0.000890993 -0.00125492 -0.000109928)
(0.00109537 -0.00108114 -0.000109928)
(0.00126647 -0.000874505 -0.000109928)
(0.00139909 -0.000641301 -0.000109929)
(0.00148919 -0.000388609 -0.000109928)
(0.00153405 -0.000124109 -0.000109928)
(0.00153229 0.000144161 -0.000109929)
(0.00148398 0.00040805 -0.000109928)
(0.00139058 0.000659541 -0.000109928)
(0.00125492 0.000890993 -0.000109928)
(0.00108114 0.00109537 -0.000109928)
(0.000874505 0.00126647 -0.000109928)
(0.000641301 0.00139909 -0.000109929)
(0.000388609 0.00148919 -0.000109928)
(0.000124109 0.00153405 -0.000109928)
(-0.000144161 0.00153229 -0.000109929)
(-0.00040805 0.00148398 -0.000109928)
(-0.00242727 0.00385316 -0.00088415)
(-0.00305949 0.00337313 -0.000884151)
(-0.00359875 0.00279061 -0.000884152)
(-0.00402866 0.0021233 -0.000884149)
(-0.00433616 0.00139148 -0.000884148)
(-0.00451191 0.000617369 -0.000884149)
(-0.00455058 -0.000175497 -0.00088415)
(-0.00445097 -0.00096303 -0.00088415)
(-0.00421612 -0.0017213 -0.00088415)
(-0.00385316 -0.00242727 -0.00088415)
(-0.00337314 -0.00305949 -0.000884151)
(-0.00279061 -0.00359875 -0.000884152)
(-0.0021233 -0.00402866 -0.000884149)
(-0.00139148 -0.00433616 -0.000884148)
(-0.000617369 -0.00451191 -0.000884149)
(0.000175497 -0.00455058 -0.00088415)
(0.00096303 -0.00445097 -0.000884149)
(0.0017213 -0.00421612 -0.000884149)
(0.00242727 -0.00385316 -0.00088415)
(0.00305949 -0.00337314 -0.000884151)
(0.00359875 -0.00279062 -0.000884151)
(0.00402866 -0.0021233 -0.000884149)
(0.00433616 -0.00139148 -0.000884148)
(0.00451191 -0.00061737 -0.000884149)
(0.00455058 0.000175497 -0.00088415)
(0.00445097 0.000963029 -0.000884149)
(0.00421612 0.0017213 -0.000884149)
(0.00385316 0.00242727 -0.00088415)
(0.00337314 0.00305949 -0.000884151)
(0.00279061 0.00359875 -0.000884151)
(0.0021233 0.00402866 -0.000884149)
(0.00139148 0.00433616 -0.000884148)
(0.000617369 0.00451191 -0.000884149)
(-0.000175497 0.00455058 -0.00088415)
(-0.00096303 0.00445097 -0.000884149)
(-0.0017213 0.00421612 -0.00088415)
(-0.00229688 0.00398109 -0.000690351)
(-0.00295329 0.00352176 -0.000690351)
(-0.00351997 0.00295543 -0.000690352)
(-0.0039797 0.00229929 -0.000690351)
(-0.00431851 0.00157329 -0.000690351)
(-0.0045261 0.000799488 -0.000690351)
(-0.00459616 1.39384e-06 -0.000690351)
(-0.00452658 -0.000796743 -0.00069035)
(-0.00431946 -0.00157067 -0.000690351)
(-0.00398109 -0.00229688 -0.000690351)
(-0.00352176 -0.00295329 -0.000690351)
(-0.00295543 -0.00351997 -0.000690352)
(-0.00229929 -0.0039797 -0.000690351)
(-0.00157329 -0.00431851 -0.000690351)
(-0.000799488 -0.0045261 -0.000690351)
(-1.39416e-06 -0.00459617 -0.000690351)
(0.000796743 -0.00452658 -0.00069035)
(0.00157067 -0.00431946 -0.000690351)
(0.00229688 -0.00398109 -0.000690351)
(0.00295329 -0.00352176 -0.000690351)
(0.00351997 -0.00295543 -0.000690351)
(0.0039797 -0.00229929 -0.000690351)
(0.00431851 -0.00157329 -0.000690351)
(0.0045261 -0.000799488 -0.000690351)
(0.00459616 -1.39459e-06 -0.000690351)
(0.00452658 0.000796743 -0.00069035)
(0.00431946 0.00157067 -0.00069035)
(0.00398109 0.00229687 -0.00069035)
(0.00352176 0.00295329 -0.000690351)
(0.00295543 0.00351997 -0.000690351)
(0.00229929 0.0039797 -0.000690351)
(0.00157329 0.00431851 -0.000690351)
(0.000799488 0.0045261 -0.000690351)
(1.39424e-06 0.00459616 -0.000690351)
(-0.000796743 0.00452658 -0.00069035)
(-0.00157067 0.00431946 -0.000690351)
(-0.00223933 0.00409286 -0.00050243)
(-0.00291602 0.00364182 -0.000502429)
(-0.00350411 0.00308014 -0.00050243)
(-0.00398574 0.00242486 -0.00050243)
(-0.00434626 0.0016959 -0.00050243)
(-0.00457472 0.000915416 -0.000502429)
(-0.00466418 0.000107116 -0.00050243)
(-0.00461192 -0.000704437 -0.00050243)
(-0.00441954 -0.00149459 -0.00050243)
(-0.00409286 -0.00223933 -0.00050243)
(-0.00364182 -0.00291602 -0.000502429)
(-0.00308014 -0.00350412 -0.00050243)
(-0.00242486 -0.00398574 -0.00050243)
(-0.0016959 -0.00434626 -0.00050243)
(-0.000915416 -0.00457472 -0.000502429)
(-0.000107117 -0.00466418 -0.00050243)
(0.000704436 -0.00461192 -0.00050243)
(0.00149459 -0.00441954 -0.00050243)
(0.00223933 -0.00409286 -0.00050243)
(0.00291602 -0.00364183 -0.000502429)
(0.00350411 -0.00308014 -0.000502429)
(0.00398574 -0.00242486 -0.000502429)
(0.00434626 -0.0016959 -0.00050243)
(0.00457472 -0.000915417 -0.000502429)
(0.00466418 -0.000107117 -0.00050243)
(0.00461192 0.000704436 -0.00050243)
(0.00441954 0.00149459 -0.00050243)
(0.00409286 0.00223933 -0.00050243)
(0.00364182 0.00291602 -0.000502429)
(0.00308014 0.00350411 -0.000502429)
(0.00242486 0.00398574 -0.000502429)
(0.0016959 0.00434626 -0.00050243)
(0.000915417 0.00457472 -0.000502429)
(0.000107117 0.00466418 -0.00050243)
(-0.000704436 0.00461192 -0.00050243)
(-0.00149459 0.00441954 -0.00050243)
(-0.00392043 0.00635263 -0.0017349)
(-0.00496399 0.00557534 -0.0017349)
(-0.00585672 0.00462865 -0.0017349)
(-0.0065715 0.00354132 -0.0017349)
(-0.00708661 0.00234639 -0.0017349)
(-0.00738639 0.00108017 -0.0017349)
(-0.00746175 -0.000218878 -0.0017349)
(-0.00731038 -0.00151127 -0.0017349)
(-0.00693689 -0.00275775 -0.0017349)
(-0.00635263 -0.00392043 -0.0017349)
(-0.00557534 -0.00496399 -0.0017349)
(-0.00462865 -0.00585672 -0.0017349)
(-0.00354132 -0.0065715 -0.0017349)
(-0.00234639 -0.00708661 -0.0017349)
(-0.00108017 -0.0073864 -0.0017349)
(0.000218877 -0.00746175 -0.0017349)
(0.00151127 -0.00731038 -0.0017349)
(0.00275775 -0.00693689 -0.0017349)
(0.00392043 -0.00635263 -0.0017349)
(0.00496399 -0.00557534 -0.0017349)
(0.00585672 -0.00462865 -0.0017349)
(0.0065715 -0.00354132 -0.0017349)
(0.00708661 -0.00234639 -0.0017349)
(0.00738639 -0.00108017 -0.0017349)
(0.00746175 0.000218876 -0.0017349)
(0.00731038 0.00151127 -0.0017349)
(0.00693689 0.00275775 -0.0017349)
(0.00635263 0.00392043 -0.0017349)
(0.00557534 0.00496399 -0.0017349)
(0.00462865 0.00585672 -0.0017349)
(0.00354132 0.0065715 -0.0017349)
(0.00234639 0.00708661 -0.0017349)
(0.00108017 0.00738639 -0.0017349)
(-0.000218877 0.00746175 -0.0017349)
(-0.00151127 0.00731038 -0.0017349)
(-0.00275775 0.00693689 -0.0017349)
(-0.0038021 0.00653864 -0.00144765)
(-0.00487976 0.00577908 -0.00144765)
(-0.00580915 0.00484392 -0.00144765)
(-0.00656203 0.00376158 -0.00144765)
(-0.00711553 0.00256495 -0.00144765)
(-0.00745283 0.00129038 -0.00144765)
(-0.00756368 -2.33905e-05 -0.00144765)
(-0.00744471 -0.00133646 -0.00144765)
(-0.00709953 -0.00260891 -0.00144765)
(-0.00653864 -0.0038021 -0.00144765)
(-0.00577908 -0.00487976 -0.00144765)
(-0.00484392 -0.00580915 -0.00144765)
(-0.00376159 -0.00656203 -0.00144765)
(-0.00256495 -0.00711553 -0.00144765)
(-0.00129038 -0.00745283 -0.00144765)
(2.339e-05 -0.00756368 -0.00144765)
(0.00133646 -0.00744471 -0.00144765)
(0.00260891 -0.00709953 -0.00144765)
(0.0038021 -0.00653864 -0.00144765)
(0.00487976 -0.00577908 -0.00144765)
(0.00580915 -0.00484392 -0.00144765)
(0.00656203 -0.00376159 -0.00144765)
(0.00711553 -0.00256495 -0.00144765)
(0.00745283 -0.00129038 -0.00144765)
(0.00756368 2.33893e-05 -0.00144765)
(0.00744471 0.00133646 -0.00144765)
(0.00709953 0.00260891 -0.00144765)
(0.00653864 0.0038021 -0.00144765)
(0.00577908 0.00487976 -0.00144765)
(0.00484392 0.00580915 -0.00144765)
(0.00376159 0.00656203 -0.00144765)
(0.00256495 0.00711553 -0.00144765)
(0.00129038 0.00745283 -0.00144765)
(-2.33899e-05 0.00756368 -0.00144765)
(-0.00133646 0.00744471 -0.00144765)
(-0.00260891 0.00709953 -0.00144765)
(-0.00375745 0.00669676 -0.00117069)
(-0.00486325 0.00594255 -0.00117069)
(-0.00582128 0.00500777 -0.00117069)
(-0.00660243 0.00392084 -0.00117069)
(-0.00718297 0.00271478 -0.00117069)
(-0.00754526 0.00142622 -0.00117069)
(-0.00767829 9.43306e-05 -0.00117069)
(-0.00757802 -0.00124042 -0.00117069)
(-0.0072475 -0.00253749 -0.00117069)
(-0.00669676 -0.00375745 -0.00117069)
(-0.00594255 -0.00486325 -0.00117069)
(-0.00500778 -0.00582128 -0.00117069)
(-0.00392084 -0.00660243 -0.00117069)
(-0.00271478 -0.00718297 -0.00117069)
(-0.00142622 -0.00754526 -0.00117069)
(-9.4331e-05 -0.00767829 -0.00117069)
(0.00124042 -0.00757802 -0.00117069)
(0.00253749 -0.0072475 -0.00117069)
(0.00375745 -0.00669676 -0.00117069)
(0.00486325 -0.00594255 -0.00117069)
(0.00582128 -0.00500778 -0.00117069)
(0.00660243 -0.00392084 -0.00117069)
(0.00718297 -0.00271478 -0.00117069)
(0.00754526 -0.00142622 -0.00117069)
(0.00767829 -9.43317e-05 -0.00117069)
(0.00757802 0.00124042 -0.00117069)
(0.0072475 0.00253749 -0.00117069)
(0.00669676 0.00375745 -0.00117069)
(0.00594255 0.00486325 -0.00117069)
(0.00500778 0.00582128 -0.00117069)
(0.00392084 0.00660243 -0.00117069)
(0.00271478 0.00718297 -0.00117069)
(0.00142622 0.00754526 -0.00117069)
(9.43311e-05 0.00767829 -0.00117069)
(-0.00124042 0.00757802 -0.00117069)
(-0.00253749 0.0072475 -0.00117069)
(-0.00538177 0.00872383 -0.00277524)
(-0.00681489 0.00765676 -0.00277524)
(-0.00804093 0.00635704 -0.00277524)
(-0.00902266 0.00486417 -0.00277524)
(-0.00973024 0.0032235 -0.00277524)
(-0.0101422 0.00148489 -0.00277524)
(-0.0102459 -0.000298836 -0.00277524)
(-0.0100384 -0.00207349 -0.00277524)
(-0.00952582 -0.00378513 -0.00277524)
(-0.00872383 -0.00538177 -0.00277524)
(-0.00765676 -0.00681489 -0.00277524)
(-0.00635704 -0.00804093 -0.00277524)
(-0.00486417 -0.00902266 -0.00277524)
(-0.00322351 -0.00973024 -0.00277524)
(-0.00148489 -0.0101422 -0.00277524)
(0.000298835 -0.0102459 -0.00277524)
(0.00207349 -0.0100384 -0.00277524)
(0.00378513 -0.00952583 -0.00277524)
(0.00538177 -0.00872383 -0.00277524)
(0.00681489 -0.00765676 -0.00277524)
(0.00804093 -0.00635704 -0.00277524)
(0.00902266 -0.00486417 -0.00277524)
(0.00973024 -0.00322351 -0.00277524)
(0.0101422 -0.0014849 -0.00277524)
(0.0102459 0.000298834 -0.00277524)
(0.0100384 0.00207349 -0.00277524)
(0.00952582 0.00378513 -0.00277524)
(0.00872383 0.00538177 -0.00277524)
(0.00765676 0.00681488 -0.00277524)
(0.00635704 0.00804093 -0.00277524)
(0.00486417 0.00902266 -0.00277524)
(0.00322351 0.00973024 -0.00277524)
(0.00148489 0.0101422 -0.00277524)
(-0.000298835 0.0102459 -0.00277524)
(-0.00207349 0.0100384 -0.00277524)
(-0.00378513 0.00952582 -0.00277524)
(-0.00526899 0.00893772 -0.00240832)
(-0.00674096 0.00788699 -0.00240832)
(-0.00800811 0.00659661 -0.00240833)
(-0.00903193 0.0051058 -0.00240832)
(-0.00978133 0.00345985 -0.00240832)
(-0.0102335 0.00170878 -0.00240832)
(-0.0103748 -9.42138e-05 -0.00240832)
(-0.0102008 -0.00189435 -0.00240832)
(-0.00971689 -0.00363692 -0.00240832)
(-0.00893772 -0.00526899 -0.00240833)
(-0.00788699 -0.00674096 -0.00240832)
(-0.00659661 -0.00800811 -0.00240833)
(-0.0051058 -0.00903193 -0.00240832)
(-0.00345985 -0.00978133 -0.00240832)
(-0.00170878 -0.0102335 -0.00240832)
(9.42131e-05 -0.0103748 -0.00240832)
(0.00189435 -0.0102008 -0.00240832)
(0.00363692 -0.00971689 -0.00240832)
(0.00526899 -0.00893772 -0.00240832)
(0.00674096 -0.00788699 -0.00240832)
(0.00800811 -0.00659661 -0.00240832)
(0.00903193 -0.0051058 -0.00240832)
(0.00978133 -0.00345985 -0.00240832)
(0.0102335 -0.00170878 -0.00240832)
(0.0103748 9.42121e-05 -0.00240832)
(0.0102008 0.00189434 -0.00240832)
(0.00971689 0.00363692 -0.00240832)
(0.00893772 0.00526899 -0.00240832)
(0.00788699 0.00674096 -0.00240832)
(0.00659661 0.00800811 -0.00240832)
(0.0051058 0.00903193 -0.00240832)
(0.00345985 0.00978133 -0.00240832)
(0.00170878 0.0102335 -0.00240832)
(-9.42129e-05 0.0103748 -0.00240832)
(-0.00189435 0.0102008 -0.00240832)
(-0.00363692 0.00971689 -0.00240832)
(-0.00522946 0.00911108 -0.00205633)
(-0.00673214 0.00806458 -0.00205634)
(-0.00803026 0.00677304 -0.00205634)
(-0.00908439 0.0052757 -0.00205633)
(-0.00986249 0.00361806 -0.00205633)
(-0.0103409 0.00185049 -0.00205634)
(-0.0105052 2.66946e-05 -0.00205634)
(-0.0103502 -0.00179791 -0.00205634)
(-0.00988075 -0.00356789 -0.00205634)
(-0.00911108 -0.00522946 -0.00205633)
(-0.00806458 -0.00673214 -0.00205634)
(-0.00677304 -0.00803026 -0.00205634)
(-0.0052757 -0.00908439 -0.00205633)
(-0.00361806 -0.00986249 -0.00205633)
(-0.00185049 -0.0103409 -0.00205633)
(-2.66952e-05 -0.0105052 -0.00205634)
(0.00179791 -0.0103502 -0.00205634)
(0.00356789 -0.00988075 -0.00205633)
(0.00522946 -0.00911108 -0.00205633)
(0.00673214 -0.00806458 -0.00205634)
(0.00803026 -0.00677304 -0.00205633)
(0.00908439 -0.0052757 -0.00205633)
(0.00986249 -0.00361806 -0.00205633)
(0.0103409 -0.00185049 -0.00205633)
(0.0105052 -2.66962e-05 -0.00205633)
(0.0103502 0.00179791 -0.00205634)
(0.00988075 0.00356789 -0.00205633)
(0.00911108 0.00522946 -0.00205633)
(0.00806458 0.00673214 -0.00205634)
(0.00677304 0.00803026 -0.00205633)
(0.0052757 0.00908439 -0.00205633)
(0.00361806 0.00986249 -0.00205633)
(0.00185049 0.0103409 -0.00205633)
(2.66954e-05 0.0105052 -0.00205634)
(-0.00179791 0.0103502 -0.00205634)
(-0.00356789 0.00988075 -0.00205633)
(-0.00680902 0.0109098 -0.00397623)
(-0.00860003 0.00956164 -0.00397623)
(-0.0101297 0.007923 -0.00397623)
(-0.0113517 0.00604362 -0.00397623)
(-0.0122287 0.00398061 -0.00397623)
(-0.0127341 0.00179665 -0.00397623)
(-0.0128526 -0.0004419 -0.00397623)
(-0.0125806 -0.00266703 -0.00397623)
(-0.0119264 -0.00481111 -0.00397623)
(-0.0109098 -0.00680902 -0.00397623)
(-0.00956164 -0.00860003 -0.00397623)
(-0.007923 -0.0101297 -0.00397623)
(-0.00604362 -0.0113517 -0.00397623)
(-0.00398061 -0.0122287 -0.00397623)
(-0.00179665 -0.0127341 -0.00397623)
(0.000441899 -0.0128526 -0.00397623)
(0.00266703 -0.0125806 -0.00397622)
(0.00481111 -0.0119264 -0.00397623)
(0.00680902 -0.0109098 -0.00397623)
(0.00860003 -0.00956164 -0.00397623)
(0.0101297 -0.007923 -0.00397623)
(0.0113517 -0.00604362 -0.00397623)
(0.0122287 -0.00398061 -0.00397623)
(0.0127341 -0.00179665 -0.00397623)
(0.0128526 0.000441898 -0.00397623)
(0.0125806 0.00266702 -0.00397622)
(0.0119264 0.00481111 -0.00397623)
(0.0109098 0.00680902 -0.00397623)
(0.00956164 0.00860003 -0.00397623)
(0.007923 0.0101297 -0.00397623)
(0.00604362 0.0113517 -0.00397623)
(0.00398061 0.0122287 -0.00397623)
(0.00179665 0.0127341 -0.00397623)
(-0.000441899 0.0128526 -0.00397623)
(-0.00266703 0.0125806 -0.00397622)
(-0.00481111 0.0119264 -0.00397623)
(-0.00669378 0.011105 -0.00353928)
(-0.00852045 0.00977392 -0.00353928)
(-0.0100882 0.00814588 -0.00353928)
(-0.0113495 0.00627032 -0.00353928)
(-0.0122659 0.00420424 -0.00353928)
(-0.0128096 0.00201042 -0.00353928)
(-0.0129641 -0.000244483 -0.00353928)
(-0.0127247 -0.00249196 -0.00353928)
(-0.0120986 -0.00466372 -0.00353928)
(-0.011105 -0.00669378 -0.00353928)
(-0.00977392 -0.00852045 -0.00353928)
(-0.00814588 -0.0100882 -0.00353928)
(-0.00627032 -0.0113495 -0.00353928)
(-0.00420424 -0.0122659 -0.00353928)
(-0.00201043 -0.0128096 -0.00353928)
(0.000244482 -0.0129641 -0.00353928)
(0.00249196 -0.0127247 -0.00353928)
(0.00466372 -0.0120986 -0.00353928)
(0.00669378 -0.011105 -0.00353928)
(0.00852045 -0.00977392 -0.00353928)
(0.0100882 -0.00814588 -0.00353928)
(0.0113495 -0.00627032 -0.00353928)
(0.0122659 -0.00420425 -0.00353928)
(0.0128096 -0.00201043 -0.00353928)
(0.0129641 0.000244481 -0.00353928)
(0.0127247 0.00249196 -0.00353928)
(0.0120986 0.00466372 -0.00353928)
(0.011105 0.00669378 -0.00353928)
(0.00977392 0.00852045 -0.00353928)
(0.00814588 0.0100882 -0.00353928)
(0.00627032 0.0113495 -0.00353928)
(0.00420425 0.0122659 -0.00353928)
(0.00201043 0.0128096 -0.00353928)
(-0.000244482 0.0129641 -0.00353928)
(-0.00249196 0.0127247 -0.00353928)
(-0.00466372 0.0120986 -0.00353928)
(-0.00664934 0.0112496 -0.00312162)
(-0.0085018 0.00992408 -0.00312162)
(-0.0100959 0.00829699 -0.00312162)
(-0.0113833 0.0064178 -0.00312162)
(-0.0123248 0.00434361 -0.00312162)
(-0.0128918 0.00213744 -0.00312162)
(-0.0130671 -0.00013368 -0.00312162)
(-0.0128454 -0.00240074 -0.00312162)
(-0.0122334 -0.00459485 -0.00312162)
(-0.0112496 -0.00664935 -0.00312162)
(-0.00992408 -0.00850181 -0.00312162)
(-0.00829699 -0.0100959 -0.00312162)
(-0.0064178 -0.0113833 -0.00312162)
(-0.00434361 -0.0123248 -0.00312162)
(-0.00213744 -0.0128918 -0.00312162)
(0.000133679 -0.0130671 -0.00312162)
(0.00240074 -0.0128454 -0.00312162)
(0.00459484 -0.0122334 -0.00312162)
(0.00664935 -0.0112496 -0.00312162)
(0.0085018 -0.00992408 -0.00312162)
(0.0100959 -0.00829699 -0.00312162)
(0.0113833 -0.0064178 -0.00312162)
(0.0123248 -0.00434361 -0.00312162)
(0.0128918 -0.00213744 -0.00312162)
(0.0130671 0.000133678 -0.00312162)
(0.0128454 0.00240073 -0.00312162)
(0.0122334 0.00459484 -0.00312162)
(0.0112496 0.00664934 -0.00312162)
(0.00992408 0.0085018 -0.00312162)
(0.00829699 0.0100959 -0.00312162)
(0.0064178 0.0113833 -0.00312162)
(0.00434361 0.0123248 -0.00312162)
(0.00213744 0.0128918 -0.00312162)
(-0.000133679 0.0130671 -0.00312162)
(-0.00240073 0.0128454 -0.00312162)
(-0.00459484 0.0122334 -0.00312162)
(-0.00820018 0.0128517 -0.00529713)
(-0.0103073 0.0112325 -0.00529713)
(-0.0121012 0.00927204 -0.00529714)
(-0.0135274 0.00702982 -0.00529713)
(-0.0145426 0.00457401 -0.00529713)
(-0.015116 0.00197922 -0.00529713)
(-0.01523 -0.000675709 -0.00529713)
(-0.0148813 -0.00331011 -0.00529713)
(-0.0140804 -0.00584393 -0.00529713)
(-0.0128517 -0.00820018 -0.00529713)
(-0.0112325 -0.0103073 -0.00529713)
(-0.00927204 -0.0121012 -0.00529713)
(-0.00702982 -0.0135274 -0.00529713)
(-0.00457401 -0.0145426 -0.00529713)
(-0.00197922 -0.015116 -0.00529713)
(0.000675708 -0.01523 -0.00529713)
(0.00331011 -0.0148813 -0.00529713)
(0.00584393 -0.0140804 -0.00529713)
(0.00820018 -0.0128517 -0.00529713)
(0.0103073 -0.0112325 -0.00529713)
(0.0121012 -0.00927204 -0.00529713)
(0.0135274 -0.00702982 -0.00529713)
(0.0145426 -0.00457401 -0.00529713)
(0.015116 -0.00197922 -0.00529713)
(0.01523 0.000675706 -0.00529713)
(0.0148813 0.0033101 -0.00529713)
(0.0140804 0.00584392 -0.00529713)
(0.0128517 0.00820018 -0.00529713)
(0.0112325 0.0103073 -0.00529713)
(0.00927204 0.0121012 -0.00529713)
(0.00702982 0.0135274 -0.00529713)
(0.00457401 0.0145426 -0.00529713)
(0.00197922 0.015116 -0.00529713)
(-0.000675708 0.01523 -0.00529713)
(-0.00331011 0.0148813 -0.00529713)
(-0.00584393 0.0140804 -0.00529713)
(-0.0080675 0.0129688 -0.00479642)
(-0.0101969 0.0113708 -0.00479642)
(-0.0120165 0.0094274 -0.00479642)
(-0.013471 0.00719753 -0.00479642)
(-0.0145162 0.00474896 -0.00479642)
(-0.0151203 0.0021561 -0.00479642)
(-0.015265 -0.000502278 -0.00479642)
(-0.0149459 -0.00314539 -0.00479642)
(-0.0141726 -0.00569294 -0.00479642)
(-0.0129688 -0.0080675 -0.00479642)
(-0.0113708 -0.0101969 -0.00479642)
(-0.0094274 -0.0120165 -0.00479642)
(-0.00719753 -0.013471 -0.00479642)
(-0.00474896 -0.0145162 -0.00479642)
(-0.0021561 -0.0151203 -0.00479642)
(0.000502276 -0.015265 -0.00479642)
(0.00314539 -0.0149459 -0.00479642)
(0.00569294 -0.0141726 -0.00479642)
(0.0080675 -0.0129688 -0.00479642)
(0.0101969 -0.0113708 -0.00479642)
(0.0120165 -0.0094274 -0.00479642)
(0.013471 -0.00719753 -0.00479642)
(0.0145162 -0.00474896 -0.00479642)
(0.0151203 -0.0021561 -0.00479642)
(0.015265 0.000502275 -0.00479642)
(0.0149459 0.00314539 -0.00479642)
(0.0141726 0.00569293 -0.00479642)
(0.0129688 0.0080675 -0.00479642)
(0.0113708 0.0101969 -0.00479642)
(0.0094274 0.0120165 -0.00479642)
(0.00719753 0.013471 -0.00479642)
(0.00474896 0.0145162 -0.00479642)
(0.0021561 0.0151203 -0.00479642)
(-0.000502276 0.015265 -0.00479642)
(-0.00314539 0.0149459 -0.00479642)
(-0.00569294 0.0141726 -0.00479642)
(-0.00799987 0.0130299 -0.00431945)
(-0.010141 0.0114428 -0.00431946)
(-0.0119739 0.00950799 -0.00431945)
(-0.013443 0.0072843 -0.00431946)
(-0.0145037 0.00483928 -0.00431945)
(-0.0151237 0.00224721 -0.00431946)
(-0.0152842 -0.000413128 -0.00431945)
(-0.0149802 -0.00306092 -0.00431946)
(-0.0142211 -0.00561571 -0.00431945)
(-0.0130299 -0.00799987 -0.00431945)
(-0.0114428 -0.010141 -0.00431946)
(-0.00950799 -0.0119739 -0.00431945)
(-0.0072843 -0.013443 -0.00431945)
(-0.00483928 -0.0145037 -0.00431945)
(-0.00224721 -0.0151237 -0.00431945)
(0.000413127 -0.0152842 -0.00431945)
(0.00306092 -0.0149802 -0.00431946)
(0.00561571 -0.0142211 -0.00431945)
(0.00799987 -0.0130299 -0.00431945)
(0.010141 -0.0114428 -0.00431946)
(0.0119739 -0.009508 -0.00431945)
(0.013443 -0.00728431 -0.00431945)
(0.0145037 -0.00483928 -0.00431945)
(0.0151237 -0.00224721 -0.00431945)
(0.0152842 0.000413125 -0.00431945)
(0.0149802 0.00306092 -0.00431945)
(0.0142211 0.00561571 -0.00431945)
(0.0130299 0.00799987 -0.00431945)
(0.0114428 0.010141 -0.00431945)
(0.00950799 0.0119739 -0.00431945)
(0.0072843 0.013443 -0.00431945)
(0.00483928 0.0145037 -0.00431945)
(0.00224721 0.0151237 -0.00431945)
(-0.000413126 0.0152842 -0.00431945)
(-0.00306092 0.0149802 -0.00431946)
(-0.00561571 0.0142211 -0.00431945)
(-0.00954174 0.0144836 -0.006686)
(-0.0119118 0.0126066 -0.006686)
(-0.01392 0.0103466 -0.006686)
(-0.0155052 0.00777226 -0.006686)
(-0.0166193 0.00496173 -0.006686)
(-0.0172284 0.00200045 -0.006686)
(-0.017314 -0.00102162 -0.006686)
(-0.0168736 -0.00401264 -0.006686)
(-0.0159204 -0.00688175 -0.006686)
(-0.0144836 -0.00954175 -0.006686)
(-0.0126066 -0.0119118 -0.006686)
(-0.0103466 -0.01392 -0.006686)
(-0.00777226 -0.0155052 -0.006686)
(-0.00496174 -0.0166193 -0.006686)
(-0.00200045 -0.0172284 -0.006686)
(0.00102161 -0.017314 -0.006686)
(0.00401264 -0.0168736 -0.006686)
(0.00688175 -0.0159204 -0.00668599)
(0.00954174 -0.0144836 -0.006686)
(0.0119118 -0.0126066 -0.006686)
(0.01392 -0.0103466 -0.006686)
(0.0155052 -0.00777226 -0.006686)
(0.0166193 -0.00496174 -0.006686)
(0.0172284 -0.00200045 -0.006686)
(0.017314 0.00102161 -0.006686)
(0.0168736 0.00401264 -0.006686)
(0.0159204 0.00688174 -0.00668599)
(0.0144836 0.00954174 -0.00668599)
(0.0126066 0.0119118 -0.006686)
(0.0103466 0.01392 -0.006686)
(0.00777226 0.0155052 -0.006686)
(0.00496174 0.0166193 -0.006686)
(0.00200045 0.0172284 -0.006686)
(-0.00102161 0.017314 -0.006686)
(-0.00401264 0.0168736 -0.006686)
(-0.00688174 0.0159204 -0.006686)
(-0.00936521 0.0144564 -0.00612504)
(-0.0117333 0.0126105 -0.00612504)
(-0.0137448 0.0103815 -0.00612504)
(-0.0153387 0.00783699 -0.00612504)
(-0.0164666 0.00505439 -0.00612504)
(-0.0170941 0.00211822 -0.00612504)
(-0.0172022 -0.000882318 -0.00612504)
(-0.0167877 -0.00385604 -0.00612504)
(-0.015863 -0.00671261 -0.00612504)
(-0.0144564 -0.00936521 -0.00612504)
(-0.0126105 -0.0117333 -0.00612504)
(-0.0103815 -0.0137448 -0.00612504)
(-0.00783699 -0.0153387 -0.00612504)
(-0.00505439 -0.0164666 -0.00612504)
(-0.00211822 -0.0170941 -0.00612504)
(0.000882317 -0.0172022 -0.00612504)
(0.00385604 -0.0167877 -0.00612504)
(0.00671261 -0.015863 -0.00612504)
(0.00936521 -0.0144564 -0.00612504)
(0.0117333 -0.0126105 -0.00612504)
(0.0137448 -0.0103815 -0.00612504)
(0.0153387 -0.00783699 -0.00612504)
(0.0164666 -0.0050544 -0.00612504)
(0.0170941 -0.00211823 -0.00612504)
(0.0172022 0.000882315 -0.00612504)
(0.0167877 0.00385604 -0.00612504)
(0.015863 0.00671261 -0.00612504)
(0.0144564 0.00936521 -0.00612504)
(0.0126105 0.0117333 -0.00612504)
(0.0103815 0.0137448 -0.00612504)
(0.00783699 0.0153387 -0.00612504)
(0.00505439 0.0164666 -0.00612504)
(0.00211822 0.0170941 -0.00612504)
(-0.000882317 0.0172022 -0.00612504)
(-0.00385604 0.0167877 -0.00612504)
(-0.00671261 0.015863 -0.00612504)
(-0.00924363 0.0143752 -0.00559331)
(-0.0115994 0.0125516 -0.00559331)
(-0.0136028 0.0103467 -0.00559331)
(-0.0151928 0.00782744 -0.00559331)
(-0.0163212 0.00507033 -0.00559331)
(-0.0169537 0.00215915 -0.00559331)
(-0.0170711 -0.000817629 -0.00559331)
(-0.0166697 -0.00376957 -0.00559331)
(-0.0157619 -0.00660697 -0.00559331)
(-0.0143752 -0.00924363 -0.00559331)
(-0.0125516 -0.0115994 -0.00559331)
(-0.0103467 -0.0136028 -0.00559331)
(-0.00782744 -0.0151928 -0.00559331)
(-0.00507033 -0.0163212 -0.00559331)
(-0.00215915 -0.0169537 -0.00559331)
(0.000817628 -0.0170711 -0.00559331)
(0.00376957 -0.0166697 -0.00559331)
(0.00660697 -0.0157619 -0.00559331)
(0.00924363 -0.0143752 -0.00559331)
(0.0115994 -0.0125516 -0.00559331)
(0.0136028 -0.0103467 -0.00559331)
(0.0151928 -0.00782745 -0.00559331)
(0.0163212 -0.00507033 -0.0055933)
(0.0169537 -0.00215916 -0.0055933)
(0.0170711 0.000817626 -0.00559331)
(0.0166697 0.00376956 -0.00559331)
(0.0157619 0.00660697 -0.00559331)
(0.0143752 0.00924362 -0.00559331)
(0.0125516 0.0115994 -0.00559331)
(0.0103467 0.0136028 -0.00559331)
(0.00782745 0.0151928 -0.00559331)
(0.00507033 0.0163212 -0.0055933)
(0.00215916 0.0169537 -0.00559331)
(-0.000817628 0.0170711 -0.00559331)
(-0.00376957 0.0166697 -0.00559331)
(-0.00660697 0.0157619 -0.00559331)
(-0.0107954 0.0157266 -0.00807674)
(-0.0133622 0.0136131 -0.00807674)
(-0.0155231 0.0110859 -0.00807674)
(-0.0172123 0.00822193 -0.00807675)
(-0.0183786 0.00510813 -0.00807675)
(-0.0189864 0.00183912 -0.00807674)
(-0.0190173 -0.00148577 -0.00807674)
(-0.0184704 -0.00476552 -0.00807674)
(-0.0173622 -0.00790046 -0.00807674)
(-0.0157266 -0.0107954 -0.00807674)
(-0.0136131 -0.0133622 -0.00807674)
(-0.0110859 -0.0155231 -0.00807674)
(-0.00822193 -0.0172123 -0.00807674)
(-0.00510813 -0.0183786 -0.00807675)
(-0.00183912 -0.0189864 -0.00807674)
(0.00148577 -0.0190173 -0.00807674)
(0.00476552 -0.0184704 -0.00807674)
(0.00790046 -0.0173622 -0.00807674)
(0.0107954 -0.0157266 -0.00807674)
(0.0133622 -0.0136131 -0.00807674)
(0.0155231 -0.0110859 -0.00807674)
(0.0172123 -0.00822194 -0.00807674)
(0.0183786 -0.00510813 -0.00807675)
(0.0189864 -0.00183913 -0.00807674)
(0.0190173 0.00148576 -0.00807674)
(0.0184704 0.00476551 -0.00807674)
(0.0173622 0.00790046 -0.00807674)
(0.0157266 0.0107953 -0.00807674)
(0.0136131 0.0133622 -0.00807674)
(0.0110859 0.0155231 -0.00807674)
(0.00822193 0.0172123 -0.00807674)
(0.00510813 0.0183786 -0.00807675)
(0.00183912 0.0189864 -0.00807674)
(-0.00148577 0.0190173 -0.00807674)
(-0.00476552 0.0184704 -0.00807674)
(-0.00790046 0.0173622 -0.00807674)
(-0.0105348 0.0154929 -0.00745734)
(-0.013065 0.0134282 -0.00745734)
(-0.0151983 0.0109554 -0.00745734)
(-0.0168698 0.00814984 -0.00745734)