/*--------------------------------*- C++ -*----------------------------------*\
| =========                 |                                                 |
| \\      /  F ield         | OpenFOAM: The Open Source CFD Toolbox           |
|  \\    /   O peration     | Version:  2312                                  |
|   \\  /    A nd           | Website:  www.openfoam.com                      |
|    \\/     M anipulation  |                                                 |
\*---------------------------------------------------------------------------*/
FoamFile
{
    version     2.0;
    format      ascii;
    arch        "LSB;label=32;scalar=64";
    class       volVectorField;
    location    "0.5";
    object      D_0;
}
// * * * * * * * * * * * * * * * * * * * * * * * * * * * * * * * * * * * * * //

dimensions      [0 1 0 0 0 0 0];

internalField   nonuniform List<vector> 
1620
(
(-0.000219752 0.000236039 -0.00011507)
(-0.000257401 0.000194293 -0.00011507)
(-0.000287229 0.000146645 -0.00011507)
(-0.00030833 9.45405e-05 -0.00011507)
(-0.000320063 3.95636e-05 -0.00011507)
(-0.000322071 -1.6616e-05 -0.00011507)
(-0.000314292 -7.22907e-05 -0.000115069)
(-0.000296964 -0.000125768 -0.000115069)
(-0.000270613 -0.000175425 -0.00011507)
(-0.000236039 -0.000219752 -0.00011507)
(-0.000194293 -0.000257401 -0.00011507)
(-0.000146645 -0.000287229 -0.00011507)
(-9.45405e-05 -0.00030833 -0.00011507)
(-3.95636e-05 -0.000320063 -0.00011507)
(1.66161e-05 -0.000322071 -0.00011507)
(7.22907e-05 -0.000314292 -0.000115069)
(0.000125768 -0.000296964 -0.000115069)
(0.000175425 -0.000270613 -0.00011507)
(0.000219752 -0.000236039 -0.00011507)
(0.000257401 -0.000194293 -0.00011507)
(0.000287229 -0.000146645 -0.00011507)
(0.00030833 -9.45405e-05 -0.00011507)
(0.000320063 -3.95636e-05 -0.00011507)
(0.000322071 1.66161e-05 -0.00011507)
(0.000314292 7.22907e-05 -0.000115069)
(0.000296964 0.000125768 -0.000115069)
(0.000270613 0.000175425 -0.00011507)
(0.000236039 0.000219752 -0.00011507)
(0.000194293 0.000257401 -0.00011507)
(0.000146645 0.000287229 -0.00011507)
(9.45405e-05 0.00030833 -0.00011507)
(3.95636e-05 0.000320063 -0.00011507)
(-1.6616e-05 0.000322071 -0.00011507)
(-7.22907e-05 0.000314292 -0.000115069)
(-0.000125768 0.000296964 -0.000115069)
(-0.000175425 0.000270613 -0.00011507)
(-0.000157559 0.000303389 -7.78486e-05)
(-0.000207849 0.00027142 -7.78487e-05)
(-0.000251822 0.000231204 -7.78486e-05)
(-0.000288145 0.000183963 -7.78486e-05)
(-0.000315713 0.000131133 -7.78487e-05)
(-0.000333687 7.43175e-05 -7.78486e-05)
(-0.000341522 1.52444e-05 -7.78485e-05)
(-0.000338981 -4.42919e-05 -7.78485e-05)
(-0.00032614 -0.000102483 -7.78486e-05)
(-0.000303389 -0.000157559 -7.78486e-05)
(-0.00027142 -0.000207849 -7.78487e-05)
(-0.000231204 -0.000251822 -7.78486e-05)
(-0.000183963 -0.000288145 -7.78486e-05)
(-0.000131133 -0.000315713 -7.78487e-05)
(-7.43175e-05 -0.000333687 -7.78487e-05)
(-1.52444e-05 -0.000341522 -7.78485e-05)
(4.42919e-05 -0.000338981 -7.78485e-05)
(0.000102483 -0.00032614 -7.78486e-05)
(0.000157559 -0.000303389 -7.78486e-05)
(0.000207849 -0.00027142 -7.78487e-05)
(0.000251822 -0.000231204 -7.78486e-05)
(0.000288145 -0.000183963 -7.78486e-05)
(0.000315713 -0.000131133 -7.78487e-05)
(0.000333687 -7.43175e-05 -7.78486e-05)
(0.000341522 -1.52444e-05 -7.78485e-05)
(0.000338981 4.42919e-05 -7.78485e-05)
(0.00032614 0.000102483 -7.78486e-05)
(0.000303389 0.000157559 -7.78486e-05)
(0.00027142 0.000207849 -7.78487e-05)
(0.000231204 0.000251822 -7.78486e-05)
(0.000183963 0.000288145 -7.78486e-05)
(0.000131133 0.000315713 -7.78487e-05)
(7.43175e-05 0.000333687 -7.78486e-05)
(1.52444e-05 0.000341522 -7.78485e-05)
(-4.42919e-05 0.000338981 -7.78485e-05)
(-0.000102483 0.00032614 -7.78486e-05)
(-0.000118332 0.000371841 -4.98968e-05)
(-0.000181104 0.000345644 -4.98968e-05)
(-0.000238373 0.000308945 -4.9897e-05)
(-0.000288399 0.000262858 -4.98968e-05)
(-0.000329663 0.000208785 -4.9897e-05)
(-0.00036091 0.000148367 -4.98968e-05)
(-0.000381191 8.34417e-05 -4.9897e-05)
(-0.000389889 1.5981e-05 -4.9897e-05)
(-0.00038674 -5.19652e-05 -4.98969e-05)
(-0.000371841 -0.000118332 -4.98968e-05)
(-0.000345644 -0.000181104 -4.98968e-05)
(-0.000308945 -0.000238373 -4.9897e-05)
(-0.000262858 -0.000288399 -4.98968e-05)
(-0.000208785 -0.000329663 -4.9897e-05)
(-0.000148367 -0.00036091 -4.98968e-05)
(-8.34417e-05 -0.000381191 -4.9897e-05)
(-1.5981e-05 -0.000389889 -4.9897e-05)
(5.19652e-05 -0.00038674 -4.98969e-05)
(0.000118332 -0.000371841 -4.98968e-05)
(0.000181104 -0.000345644 -4.98968e-05)
(0.000238373 -0.000308945 -4.9897e-05)
(0.000288399 -0.000262858 -4.98968e-05)
(0.000329663 -0.000208785 -4.9897e-05)
(0.00036091 -0.000148367 -4.98968e-05)
(0.000381191 -8.34417e-05 -4.9897e-05)
(0.000389889 -1.5981e-05 -4.9897e-05)
(0.00038674 5.19652e-05 -4.98969e-05)
(0.000371841 0.000118332 -4.98968e-05)
(0.000345644 0.000181104 -4.98968e-05)
(0.000308945 0.000238373 -4.9897e-05)
(0.000262858 0.000288399 -4.98968e-05)
(0.000208785 0.000329663 -4.98969e-05)
(0.000148367 0.00036091 -4.98968e-05)
(8.34417e-05 0.000381191 -4.9897e-05)
(1.5981e-05 0.000389889 -4.9897e-05)
(-5.19652e-05 0.00038674 -4.98969e-05)
(-0.000525401 0.000780894 -0.00034223)
(-0.00065302 0.000677796 -0.00034223)
(-0.000760797 0.000554103 -0.00034223)
(-0.000845458 0.000413574 -0.000342229)
(-0.000904429 0.00026048 -0.000342229)
(-0.000935921 9.94701e-05 -0.000342229)
(-0.000938976 -6.45624e-05 -0.000342229)
(-0.000913499 -0.000226633 -0.000342229)
(-0.000860266 -0.000381817 -0.00034223)
(-0.000780894 -0.000525401 -0.00034223)
(-0.000677796 -0.00065302 -0.00034223)
(-0.000554103 -0.000760797 -0.00034223)
(-0.000413574 -0.000845458 -0.000342229)
(-0.00026048 -0.000904429 -0.000342229)
(-9.947e-05 -0.000935921 -0.000342229)
(6.45624e-05 -0.000938976 -0.000342229)
(0.000226633 -0.000913499 -0.000342229)
(0.000381818 -0.000860266 -0.00034223)
(0.000525401 -0.000780894 -0.00034223)
(0.00065302 -0.000677796 -0.00034223)
(0.000760797 -0.000554103 -0.00034223)
(0.000845458 -0.000413574 -0.000342229)
(0.00090443 -0.00026048 -0.000342229)
(0.000935921 -9.947e-05 -0.000342229)
(0.000938976 6.45624e-05 -0.000342229)
(0.000913499 0.000226633 -0.000342229)
(0.000860266 0.000381818 -0.00034223)
(0.000780894 0.000525401 -0.00034223)
(0.000677796 0.00065302 -0.00034223)
(0.000554103 0.000760797 -0.00034223)
(0.000413574 0.000845458 -0.000342229)
(0.00026048 0.00090443 -0.000342229)
(9.94701e-05 0.000935921 -0.000342229)
(-6.45624e-05 0.000938976 -0.000342229)
(-0.000226633 0.000913499 -0.000342229)
(-0.000381817 0.000860266 -0.00034223)
(-0.000474721 0.000908282 -0.000255552)
(-0.00062523 0.000812048 -0.000255552)
(-0.000756743 0.000691142 -0.000255552)
(-0.000865261 0.000549235 -0.000255552)
(-0.00094749 0.00039064 -0.000255552)
(-0.00100093 0.000220175 -0.000255552)
(-0.00102396 4.30206e-05 -0.000255552)
(-0.00101587 -0.000135441 -0.000255551)
(-0.000976918 -0.000309788 -0.000255552)
(-0.000908282 -0.000474721 -0.000255552)
(-0.000812048 -0.00062523 -0.000255552)
(-0.000691142 -0.000756743 -0.000255552)
(-0.000549235 -0.000865261 -0.000255552)
(-0.00039064 -0.00094749 -0.000255552)
(-0.000220175 -0.00100093 -0.000255552)
(-4.30206e-05 -0.00102396 -0.000255552)
(0.000135441 -0.00101587 -0.000255551)
(0.000309788 -0.000976918 -0.000255552)
(0.000474721 -0.000908282 -0.000255552)
(0.00062523 -0.000812048 -0.000255552)
(0.000756743 -0.000691142 -0.000255552)
(0.000865262 -0.000549235 -0.000255552)
(0.00094749 -0.00039064 -0.000255552)
(0.00100093 -0.000220175 -0.000255552)
(0.00102396 -4.30206e-05 -0.000255552)
(0.00101587 0.000135441 -0.000255551)
(0.000976918 0.000309788 -0.000255552)
(0.000908282 0.000474721 -0.000255552)
(0.000812048 0.00062523 -0.000255552)
(0.000691142 0.000756743 -0.000255552)
(0.000549235 0.000865262 -0.000255552)
(0.00039064 0.00094749 -0.000255551)
(0.000220175 0.00100093 -0.000255552)
(4.30206e-05 0.00102396 -0.000255552)
(-0.000135441 0.00101587 -0.000255551)
(-0.000309788 0.000976918 -0.000255552)
(-0.000452764 0.00103139 -0.000171984)
(-0.000624984 0.0009371 -0.000171983)
(-0.000778215 0.000814336 -0.000171984)
(-0.000907799 0.000666828 -0.000171984)
(-0.0010098 0.00049906 -0.000171984)
(-0.00108112 0.000316128 -0.000171984)
(-0.00111959 0.00012359 -0.000171984)
(-0.00112404 -7.27026e-05 -0.000171984)
(-0.00109434 -0.000266787 -0.000171984)
(-0.00103139 -0.000452764 -0.000171984)
(-0.0009371 -0.000624984 -0.000171983)
(-0.000814336 -0.000778215 -0.000171984)
(-0.000666828 -0.000907799 -0.000171984)
(-0.00049906 -0.0010098 -0.000171984)
(-0.000316128 -0.00108112 -0.000171984)
(-0.00012359 -0.00111959 -0.000171984)
(7.27026e-05 -0.00112404 -0.000171984)
(0.000266787 -0.00109434 -0.000171984)
(0.000452764 -0.00103139 -0.000171984)
(0.000624985 -0.0009371 -0.000171983)
(0.000778215 -0.000814336 -0.000171984)
(0.000907799 -0.000666828 -0.000171984)
(0.0010098 -0.00049906 -0.000171984)
(0.00108112 -0.000316128 -0.000171984)
(0.00111959 -0.00012359 -0.000171984)
(0.00112404 7.27026e-05 -0.000171984)
(0.00109434 0.000266787 -0.000171984)
(0.00103139 0.000452764 -0.000171984)
(0.0009371 0.000624985 -0.000171983)
(0.000814336 0.000778215 -0.000171984)
(0.000666828 0.000907799 -0.000171984)
(0.00049906 0.0010098 -0.000171984)
(0.000316128 0.00108112 -0.000171984)
(0.00012359 0.00111959 -0.000171984)
(-7.27026e-05 0.00112404 -0.000171984)
(-0.000266787 0.00109434 -0.000171984)
(-0.00082147 0.00133538 -0.000636475)
(-0.00104088 0.00117245 -0.000636475)
(-0.00122866 0.00097389 -0.000636475)
(-0.00137911 0.00074574 -0.000636474)
(-0.00148765 0.000494932 -0.000636474)
(-0.00155099 0.000229086 -0.000636474)
(-0.00156721 -4.3722e-05 -0.000636474)
(-0.00153581 -0.000315201 -0.000636474)
(-0.00145774 -0.000577103 -0.000636475)
(-0.00133538 -0.00082147 -0.000636475)
(-0.00117245 -0.00104088 -0.000636475)
(-0.000973889 -0.00122866 -0.000636475)
(-0.00074574 -0.00137911 -0.000636474)
(-0.000494932 -0.00148765 -0.000636474)
(-0.000229086 -0.00155099 -0.000636474)
(4.37221e-05 -0.00156721 -0.000636474)
(0.000315201 -0.00153581 -0.000636474)
(0.000577103 -0.00145774 -0.000636475)
(0.00082147 -0.00133538 -0.000636475)
(0.00104088 -0.00117245 -0.000636475)
(0.00122866 -0.000973889 -0.000636475)
(0.00137911 -0.00074574 -0.000636474)
(0.00148765 -0.000494932 -0.000636474)
(0.00155099 -0.000229086 -0.000636474)
(0.00156721 4.37221e-05 -0.000636474)
(0.00153581 0.000315201 -0.000636474)
(0.00145774 0.000577103 -0.000636475)
(0.00133538 0.00082147 -0.000636475)
(0.00117245 0.00104088 -0.000636475)
(0.00097389 0.00122866 -0.000636475)
(0.00074574 0.00137911 -0.000636474)
(0.000494932 0.00148765 -0.000636474)
(0.000229086 0.00155099 -0.000636474)
(-4.3722e-05 0.00156721 -0.000636474)
(-0.000315201 0.00153581 -0.000636474)
(-0.000577103 0.00145774 -0.000636475)
(-0.000786706 0.00150548 -0.000506842)
(-0.00103618 0.001346 -0.000506842)
(-0.00125416 0.00114562 -0.000506842)
(-0.00143405 0.00091043 -0.000506842)
(-0.00157035 0.00064758 -0.000506841)
(-0.00165895 0.000365052 -0.000506841)
(-0.00169713 7.14327e-05 -0.000506841)
(-0.00168376 -0.000224358 -0.000506841)
(-0.00161922 -0.00051333 -0.000506842)
(-0.00150548 -0.000786706 -0.000506842)
(-0.001346 -0.00103618 -0.000506842)
(-0.00114562 -0.00125416 -0.000506842)
(-0.00091043 -0.00143405 -0.000506842)
(-0.00064758 -0.00157035 -0.000506841)
(-0.000365052 -0.00165895 -0.000506841)
(-7.14326e-05 -0.00169713 -0.000506841)
(0.000224358 -0.00168376 -0.000506842)
(0.00051333 -0.00161922 -0.000506842)
(0.000786706 -0.00150548 -0.000506842)
(0.00103618 -0.001346 -0.000506842)
(0.00125416 -0.00114562 -0.000506842)
(0.00143405 -0.00091043 -0.000506842)
(0.00157035 -0.00064758 -0.000506841)
(0.00165895 -0.000365052 -0.000506841)
(0.00169713 -7.14326e-05 -0.000506841)
(0.00168376 0.000224358 -0.000506841)
(0.00161922 0.00051333 -0.000506842)
(0.00150548 0.000786706 -0.000506842)
(0.001346 0.00103618 -0.000506842)
(0.00114562 0.00125416 -0.000506842)
(0.00091043 0.00143405 -0.000506841)
(0.00064758 0.00157035 -0.000506841)
(0.000365052 0.00165895 -0.000506841)
(7.14327e-05 0.00169713 -0.000506841)
(-0.000224358 0.00168376 -0.000506841)
(-0.00051333 0.00161922 -0.000506842)
(-0.000784508 0.00166425 -0.00038119)
(-0.00106158 0.00150274 -0.00038119)
(-0.0013064 0.00129557 -0.00038119)
(-0.00151153 0.00104903 -0.00038119)
(-0.00167073 0.000770618 -0.00038119)
(-0.00177916 0.000468791 -0.00038119)
(-0.00183353 0.000152721 -0.00038119)
(-0.0018322 -0.000167989 -0.00038119)
(-0.00177519 -0.000483595 -0.00038119)
(-0.00166425 -0.000784508 -0.00038119)
(-0.00150274 -0.00106158 -0.00038119)
(-0.00129557 -0.0013064 -0.00038119)
(-0.00104903 -0.00151153 -0.00038119)
(-0.000770618 -0.00167073 -0.00038119)
(-0.000468791 -0.00177916 -0.00038119)
(-0.000152721 -0.00183353 -0.00038119)
(0.000167989 -0.0018322 -0.00038119)
(0.000483595 -0.00177519 -0.00038119)
(0.000784508 -0.00166425 -0.00038119)
(0.00106158 -0.00150274 -0.00038119)
(0.0013064 -0.00129557 -0.00038119)
(0.00151153 -0.00104903 -0.00038119)
(0.00167073 -0.000770618 -0.00038119)
(0.00177916 -0.000468791 -0.00038119)
(0.00183353 -0.000152721 -0.00038119)
(0.0018322 0.000167989 -0.00038119)
(0.00177519 0.000483595 -0.00038119)
(0.00166425 0.000784508 -0.00038119)
(0.00150274 0.00106158 -0.00038119)
(0.00129557 0.0013064 -0.00038119)
(0.00104903 0.00151153 -0.00038119)
(0.000770618 0.00167073 -0.00038119)
(0.000468791 0.00177916 -0.00038119)
(0.000152721 0.00183353 -0.00038119)
(-0.000167989 0.0018322 -0.00038119)
(-0.000483595 0.00177519 -0.00038119)
(-0.00110474 0.00189948 -0.000978176)
(-0.0014178 0.00167878 -0.000978177)
(-0.00168777 0.00140708 -0.000978176)
(-0.00190647 0.00109263 -0.000978176)
(-0.00206724 0.000744972 -0.000978176)
(-0.0021652 0.000374682 -0.000978175)
(-0.00219736 -6.9926e-06 -0.000978175)
(-0.00216277 -0.000388456 -0.000978175)
(-0.00206246 -0.000758115 -0.000978175)
(-0.00189948 -0.00110474 -0.000978176)
(-0.00167878 -0.0014178 -0.000978177)
(-0.00140708 -0.00168777 -0.000978176)
(-0.00109263 -0.00190647 -0.000978176)
(-0.000744972 -0.00206724 -0.000978176)
(-0.000374682 -0.0021652 -0.000978175)
(6.9927e-06 -0.00219736 -0.000978175)
(0.000388456 -0.00216277 -0.000978175)
(0.000758115 -0.00206246 -0.000978176)
(0.00110474 -0.00189948 -0.000978176)
(0.0014178 -0.00167878 -0.000978177)
(0.00168777 -0.00140708 -0.000978176)
(0.00190647 -0.00109263 -0.000978176)
(0.00206724 -0.000744972 -0.000978176)
(0.0021652 -0.000374682 -0.000978175)
(0.00219736 6.9927e-06 -0.000978175)
(0.00216277 0.000388456 -0.000978175)
(0.00206246 0.000758115 -0.000978175)
(0.00189948 0.00110474 -0.000978176)
(0.00167878 0.0014178 -0.000978177)
(0.00140708 0.00168777 -0.000978176)
(0.00109263 0.00190647 -0.000978176)
(0.000744972 0.00206724 -0.000978176)
(0.000374682 0.0021652 -0.000978175)
(-6.9926e-06 0.00219736 -0.000978175)
(-0.000388455 0.00216277 -0.000978175)
(-0.000758115 0.00206246 -0.000978175)
(-0.00109003 0.00208296 -0.00081511)
(-0.00143517 0.00186203 -0.00081511)
(-0.0017367 0.00158453 -0.00081511)
(-0.00198547 0.00125888 -0.00081511)
(-0.00217391 0.000894981 -0.00081511)
(-0.00229629 0.000503889 -0.000815109)
(-0.00234891 9.74865e-05 -0.000815109)
(-0.00233015 -0.000311878 -0.000815109)
(-0.00224059 -0.000711767 -0.00081511)
(-0.00208296 -0.00109003 -0.00081511)
(-0.00186203 -0.00143517 -0.00081511)
(-0.00158453 -0.0017367 -0.00081511)
(-0.00125888 -0.00198547 -0.00081511)
(-0.000894981 -0.00217391 -0.00081511)
(-0.000503889 -0.00229629 -0.000815109)
(-9.74864e-05 -0.00234891 -0.000815109)
(0.000311878 -0.00233015 -0.000815109)
(0.000711767 -0.00224059 -0.00081511)
(0.00109003 -0.00208296 -0.00081511)
(0.00143517 -0.00186203 -0.00081511)
(0.0017367 -0.00158453 -0.00081511)
(0.00198547 -0.00125888 -0.00081511)
(0.00217391 -0.000894981 -0.00081511)
(0.00229629 -0.000503889 -0.000815109)
(0.00234891 -9.74864e-05 -0.000815109)
(0.00233015 0.000311878 -0.000815109)
(0.00224059 0.000711767 -0.00081511)
(0.00208296 0.00109003 -0.00081511)
(0.00186203 0.00143517 -0.00081511)
(0.00158453 0.0017367 -0.00081511)
(0.00125888 0.00198547 -0.00081511)
(0.000894981 0.00217391 -0.00081511)
(0.000503889 0.00229629 -0.000815109)
(9.74865e-05 0.00234891 -0.000815109)
(-0.000311878 0.00233015 -0.000815109)
(-0.000711767 0.00224059 -0.00081511)
(-0.00111078 0.00224666 -0.000658247)
(-0.00148404 0.00201965 -0.000658248)
(-0.0018122 0.00173126 -0.000658247)
(-0.0020853 0.00139028 -0.000658247)
(-0.00229504 0.00100705 -0.000658247)
(-0.00243504 0.000593219 -0.000658247)
(-0.00250106 0.000161365 -0.000658248)
(-0.00249108 -0.00027539 -0.000658248)
(-0.00240542 -0.000703779 -0.000658247)
(-0.00224666 -0.00111078 -0.000658247)
(-0.00201965 -0.00148404 -0.000658248)
(-0.00173126 -0.0018122 -0.000658247)
(-0.00139028 -0.0020853 -0.000658247)
(-0.00100705 -0.00229504 -0.000658247)
(-0.000593219 -0.00243504 -0.000658247)
(-0.000161365 -0.00250106 -0.000658248)
(0.00027539 -0.00249108 -0.000658248)
(0.000703779 -0.00240542 -0.000658247)
(0.00111078 -0.00224666 -0.000658247)
(0.00148404 -0.00201965 -0.000658248)
(0.0018122 -0.00173126 -0.000658247)
(0.0020853 -0.00139028 -0.000658247)
(0.00229504 -0.00100705 -0.000658247)
(0.00243504 -0.000593219 -0.000658247)
(0.00250106 -0.000161365 -0.000658248)
(0.00249108 0.00027539 -0.000658248)
(0.00240542 0.000703779 -0.000658247)
(0.00224666 0.00111078 -0.000658247)
(0.00201965 0.00148404 -0.000658248)
(0.00173126 0.0018122 -0.000658247)
(0.00139028 0.0020853 -0.000658247)
(0.00100705 0.00229504 -0.000658247)
(0.000593219 0.00243504 -0.000658247)
(0.000161365 0.00250106 -0.000658248)
(-0.00027539 0.00249108 -0.000658248)
(-0.000703779 0.00240542 -0.000658247)
(-0.00138432 0.00246368 -0.00135449)
(-0.00179111 0.00218587 -0.00135449)
(-0.00214347 0.00184164 -0.00135449)
(-0.0024307 0.00144145 -0.00135449)
(-0.00264408 0.000997463 -0.00135449)
(-0.00277711 0.00052317 -0.00135449)
(-0.00282577 3.29815e-05 -0.00135449)
(-0.00278857 -0.00045821 -0.00135449)
(-0.00266664 -0.000935479 -0.00135449)
(-0.00246368 -0.00138432 -0.00135449)
(-0.00218587 -0.00179111 -0.00135449)
(-0.00184164 -0.00214347 -0.00135449)
(-0.00144145 -0.0024307 -0.00135449)
(-0.000997463 -0.00264408 -0.00135449)
(-0.00052317 -0.00277711 -0.00135449)
(-3.29814e-05 -0.00282577 -0.00135449)
(0.00045821 -0.00278857 -0.00135449)
(0.000935479 -0.00266664 -0.00135449)
(0.00138432 -0.00246368 -0.00135449)
(0.00179111 -0.00218587 -0.00135449)
(0.00214347 -0.00184164 -0.00135449)
(0.0024307 -0.00144145 -0.00135449)
(0.00264408 -0.000997463 -0.00135449)
(0.00277711 -0.00052317 -0.00135449)
(0.00282577 -3.29814e-05 -0.00135449)
(0.00278857 0.00045821 -0.00135449)
(0.00266664 0.000935479 -0.00135449)
(0.00246368 0.00138432 -0.00135449)
(0.00218587 0.00179111 -0.00135449)
(0.00184164 0.00214347 -0.00135449)
(0.00144145 0.0024307 -0.00135449)
(0.000997463 0.00264408 -0.00135449)
(0.00052317 0.00277711 -0.00135449)
(3.29816e-05 0.00282577 -0.00135449)
(-0.00045821 0.00278857 -0.00135449)
(-0.000935479 0.00266664 -0.00135449)
(-0.0013871 0.00262811 -0.00116745)
(-0.0018224 0.00234731 -0.00116745)
(-0.00220232 0.0019952 -0.00116745)
(-0.00251532 0.00158246 -0.00116745)
(-0.0027519 0.00112164 -0.00116745)
(-0.00290486 0.000626734 -0.00116745)
(-0.00296956 0.000112789 -0.00116745)
(-0.00294403 -0.000404584 -0.00116745)
(-0.00282905 -0.000909663 -0.00116745)
(-0.00262811 -0.0013871 -0.00116745)
(-0.00234731 -0.0018224 -0.00116745)
(-0.0019952 -0.00220232 -0.00116745)
(-0.00158246 -0.00251532 -0.00116745)
(-0.00112164 -0.0027519 -0.00116745)
(-0.000626734 -0.00290486 -0.00116745)
(-0.000112788 -0.00296956 -0.00116745)
(0.000404584 -0.00294403 -0.00116745)
(0.000909664 -0.00282905 -0.00116745)
(0.0013871 -0.00262811 -0.00116745)
(0.0018224 -0.00234731 -0.00116745)
(0.00220232 -0.0019952 -0.00116745)
(0.00251532 -0.00158246 -0.00116745)
(0.0027519 -0.00112164 -0.00116745)
(0.00290486 -0.000626734 -0.00116745)
(0.00296956 -0.000112789 -0.00116745)
(0.00294403 0.000404584 -0.00116745)
(0.00282905 0.000909664 -0.00116745)
(0.00262811 0.0013871 -0.00116745)
(0.00234731 0.0018224 -0.00116745)
(0.0019952 0.00220232 -0.00116745)
(0.00158246 0.00251532 -0.00116745)
(0.00112164 0.0027519 -0.00116745)
(0.000626734 0.00290486 -0.00116745)
(0.000112789 0.00296956 -0.00116745)
(-0.000404584 0.00294403 -0.00116745)
(-0.000909663 0.00282905 -0.00116745)
(-0.00142624 0.00276491 -0.000988924)
(-0.00188469 0.00247524 -0.000988924)
(-0.00228588 0.00211037 -0.000988924)
(-0.00261761 0.00168137 -0.000988923)
(-0.00286981 0.00120128 -0.000988924)
(-0.00303481 0.000684691 -0.000988924)
(-0.0031076 0.000147299 -0.000988924)
(-0.00308597 -0.000394569 -0.000988924)
(-0.00297057 -0.000924448 -0.000988924)
(-0.00276491 -0.00142624 -0.000988924)
(-0.00247524 -0.00188469 -0.000988924)
(-0.00211037 -0.00228588 -0.000988924)
(-0.00168137 -0.00261761 -0.000988923)
(-0.00120128 -0.00286981 -0.000988924)
(-0.000684691 -0.00303481 -0.000988924)
(-0.000147299 -0.0031076 -0.000988924)
(0.000394569 -0.00308597 -0.000988924)
(0.000924448 -0.00297057 -0.000988924)
(0.00142624 -0.00276491 -0.000988924)
(0.00188469 -0.00247524 -0.000988924)
(0.00228588 -0.00211037 -0.000988924)
(0.00261761 -0.00168137 -0.000988923)
(0.00286981 -0.00120128 -0.000988924)
(0.00303481 -0.000684691 -0.000988924)
(0.0031076 -0.000147299 -0.000988924)
(0.00308597 0.000394569 -0.000988924)
(0.00297057 0.000924448 -0.000988924)
(0.00276491 0.00142624 -0.000988924)
(0.00247524 0.00188469 -0.000988924)
(0.00211037 0.00228588 -0.000988924)
(0.00168137 0.00261761 -0.000988923)
(0.00120128 0.00286981 -0.000988924)
(0.000684691 0.00303481 -0.000988923)
(0.000147299 0.0031076 -0.000988924)
(-0.000394569 0.00308597 -0.000988924)
(-0.000924448 0.00297057 -0.000988924)
(-0.00166928 0.00300901 -0.00175701)
(-0.00216643 0.00267342 -0.00175701)
(-0.00259775 0.00225661 -0.00175701)
(-0.00295014 0.00177124 -0.00175701)
(-0.00321289 0.00123204 -0.00175701)
(-0.00337802 0.000655409 -0.00175701)
(-0.00344051 5.88641e-05 -0.00175701)
(-0.00339847 -0.00053947 -0.00175701)
(-0.00325316 -0.00112141 -0.00175701)
(-0.003009 -0.00166928 -0.00175701)
(-0.00267342 -0.00216643 -0.00175701)
(-0.00225661 -0.00259775 -0.00175701)
(-0.00177123 -0.00295014 -0.00175701)
(-0.00123204 -0.00321289 -0.00175701)
(-0.000655409 -0.00337802 -0.00175701)
(-5.88639e-05 -0.00344051 -0.00175701)
(0.00053947 -0.00339847 -0.00175701)
(0.00112141 -0.00325316 -0.00175701)
(0.00166928 -0.003009 -0.00175701)
(0.00216643 -0.00267342 -0.00175701)
(0.00259775 -0.00225661 -0.00175701)
(0.00295014 -0.00177123 -0.00175701)
(0.00321289 -0.00123204 -0.00175701)
(0.00337802 -0.000655409 -0.00175701)
(0.00344051 -5.88639e-05 -0.00175701)
(0.00339847 0.00053947 -0.00175701)
(0.00325316 0.00112141 -0.00175701)
(0.00300901 0.00166928 -0.00175701)
(0.00267342 0.00216643 -0.00175701)
(0.00225661 0.00259775 -0.00175701)
(0.00177124 0.00295014 -0.00175701)
(0.00123204 0.00321289 -0.00175701)
(0.000655409 0.00337802 -0.00175701)
(5.88641e-05 0.00344051 -0.00175701)
(-0.00053947 0.00339847 -0.00175701)
(-0.00112141 0.00325316 -0.00175701)
(-0.00168136 0.00312638 -0.00155204)
(-0.00219871 0.00278692 -0.00155204)
(-0.00264925 0.00236277 -0.00155204)
(-0.00301929 0.00186684 -0.00155204)
(-0.00329759 0.00131419 -0.00155204)
(-0.0034757 0.000721599 -0.00155204)
(-0.0035482 0.000107088 -0.00155204)
(-0.00351289 -0.000510678 -0.00155204)
(-0.00337085 -0.00111293 -0.00155204)
(-0.00312638 -0.00168136 -0.00155204)
(-0.00278692 -0.00219871 -0.00155204)
(-0.00236277 -0.00264925 -0.00155204)
(-0.00186684 -0.00301929 -0.00155204)
(-0.00131419 -0.00329759 -0.00155204)
(-0.000721599 -0.0034757 -0.00155204)
(-0.000107087 -0.0035482 -0.00155204)
(0.000510679 -0.00351289 -0.00155204)
(0.00111293 -0.00337085 -0.00155204)
(0.00168136 -0.00312638 -0.00155204)
(0.00219871 -0.00278692 -0.00155204)
(0.00264925 -0.00236277 -0.00155204)
(0.00301929 -0.00186684 -0.00155204)
(0.00329759 -0.00131419 -0.00155204)
(0.0034757 -0.000721599 -0.00155204)
(0.0035482 -0.000107087 -0.00155204)
(0.00351289 0.000510679 -0.00155204)
(0.00337085 0.00111293 -0.00155204)
(0.00312638 0.00168136 -0.00155204)
(0.00278692 0.00219871 -0.00155204)
(0.00236277 0.00264925 -0.00155204)
(0.00186684 0.00301929 -0.00155204)
(0.00131419 0.00329759 -0.00155204)
(0.000721599 0.0034757 -0.00155204)
(0.000107088 0.0035482 -0.00155204)
(-0.000510678 0.00351289 -0.00155204)
(-0.00111293 0.00337085 -0.00155204)
(-0.00172843 0.00321025 -0.00135758)
(-0.00225962 0.00286134 -0.00135758)
(-0.00272216 0.00242549 -0.00135758)
(-0.00310199 0.00191595 -0.00135758)
(-0.00338756 0.00134818 -0.00135758)
(-0.00357021 0.000739458 -0.00135758)
(-0.00364437 0.000108265 -0.00135758)
(-0.00360781 -0.000526219 -0.00135758)
(-0.00346162 -0.00114471 -0.00135758)
(-0.00321025 -0.00172843 -0.00135758)
(-0.00286134 -0.00225962 -0.00135758)
(-0.00242549 -0.00272216 -0.00135758)
(-0.00191595 -0.00310199 -0.00135758)
(-0.00134818 -0.00338756 -0.00135758)
(-0.000739458 -0.00357021 -0.00135758)
(-0.000108265 -0.00364437 -0.00135758)
(0.00052622 -0.00360781 -0.00135758)
(0.00114471 -0.00346162 -0.00135758)
(0.00172843 -0.00321025 -0.00135758)
(0.00225962 -0.00286134 -0.00135758)
(0.00272216 -0.00242549 -0.00135758)
(0.00310199 -0.00191595 -0.00135758)
(0.00338756 -0.00134818 -0.00135758)
(0.00357021 -0.000739458 -0.00135758)
(0.00364437 -0.000108265 -0.00135758)
(0.00360781 0.00052622 -0.00135758)
(0.00346162 0.00114471 -0.00135758)
(0.00321025 0.00172843 -0.00135758)
(0.00286134 0.00225962 -0.00135758)
(0.00242549 0.00272216 -0.00135758)
(0.00191595 0.00310199 -0.00135758)
(0.00134818 0.00338756 -0.00135758)
(0.000739458 0.00357021 -0.00135758)
(0.000108265 0.00364437 -0.00135758)
(-0.000526219 0.00360781 -0.00135758)
(-0.00114471 0.00346162 -0.00135758)
(-0.00196308 0.00350873 -0.00217968)
(-0.00254254 0.00311454 -0.00217968)
(-0.00304474 0.00262571 -0.00217968)
(-0.00345444 0.00205711 -0.00217968)
(-0.00375917 0.001426 -0.00217968)
(-0.00394968 0.000751562 -0.00217968)
(-0.00402018 5.42894e-05 -0.00217968)
(-0.00396853 -0.000644634 -0.00217968)
(-0.0037963 -0.00132397 -0.00217968)
(-0.00350873 -0.00196308 -0.00217968)
(-0.00311454 -0.00254254 -0.00217968)
(-0.00262571 -0.00304474 -0.00217968)
(-0.00205711 -0.00345444 -0.00217968)
(-0.001426 -0.00375917 -0.00217968)
(-0.000751562 -0.00394968 -0.00217968)
(-5.42892e-05 -0.00402018 -0.00217968)
(0.000644634 -0.00396853 -0.00217968)
(0.00132397 -0.0037963 -0.00217968)
(0.00196308 -0.00350873 -0.00217968)
(0.00254254 -0.00311454 -0.00217968)
(0.00304474 -0.00262571 -0.00217968)
(0.00345444 -0.00205711 -0.00217968)
(0.00375917 -0.001426 -0.00217968)
(0.00394968 -0.000751562 -0.00217968)
(0.00402018 -5.42893e-05 -0.00217968)
(0.00396853 0.000644634 -0.00217968)
(0.0037963 0.00132397 -0.00217968)
(0.00350873 0.00196308 -0.00217968)
(0.00311454 0.00254254 -0.00217968)
(0.00262571 0.00304474 -0.00217968)
(0.00205711 0.00345444 -0.00217968)
(0.001426 0.00375917 -0.00217968)
(0.000751562 0.00394968 -0.00217968)
(5.42895e-05 0.00402018 -0.00217968)
(-0.000644634 0.00396853 -0.00217968)
(-0.00132397 0.0037963 -0.00217968)
(-0.00197319 0.00355905 -0.00195882)
(-0.00256123 0.00316234 -0.00195882)
(-0.00307146 0.00266954 -0.00195882)
(-0.00348836 0.00209563 -0.00195882)
(-0.00379926 0.00145805 -0.00195882)
(-0.00399473 0.000776164 -0.00195882)
(-0.00406882 7.06934e-05 -0.00195882)
(-0.00401928 -0.000636924 -0.00195882)
(-0.00384762 -0.00132519 -0.00195882)
(-0.00355905 -0.00197319 -0.00195882)
(-0.00316234 -0.00256123 -0.00195882)
(-0.00266954 -0.00307146 -0.00195882)
(-0.00209563 -0.00348836 -0.00195882)
(-0.00145805 -0.00379926 -0.00195882)
(-0.000776164 -0.00399473 -0.00195882)
(-7.06932e-05 -0.00406882 -0.00195882)
(0.000636924 -0.00401928 -0.00195882)
(0.00132519 -0.00384762 -0.00195882)
(0.00197319 -0.00355905 -0.00195882)
(0.00256123 -0.00316234 -0.00195882)
(0.00307146 -0.00266954 -0.00195882)
(0.00348836 -0.00209563 -0.00195882)
(0.00379926 -0.00145805 -0.00195882)
(0.00399473 -0.000776164 -0.00195882)
(0.00406882 -7.06933e-05 -0.00195882)
(0.00401928 0.000636924 -0.00195882)
(0.00384762 0.00132519 -0.00195882)
(0.00355905 0.00197319 -0.00195882)
(0.00316234 0.00256123 -0.00195882)
(0.00266954 0.00307146 -0.00195882)
(0.00209563 0.00348836 -0.00195882)
(0.00145805 0.00379926 -0.00195882)
(0.000776164 0.00399473 -0.00195882)
(7.06934e-05 0.00406882 -0.00195882)
(-0.000636924 0.00401928 -0.00195882)
(-0.00132519 0.00384762 -0.00195882)
(-0.00201474 0.00357324 -0.00175022)
(-0.00260461 0.0031691 -0.00175022)
(-0.00311535 0.00266867 -0.00175022)
(-0.00353143 0.00208715 -0.00175022)
(-0.00384021 0.00144221 -0.00175022)
(-0.00403231 0.000753457 -0.00175022)
(-0.00410188 4.18077e-05 -0.00175022)
(-0.00404683 -0.000671112 -0.00175022)
(-0.00386881 -0.00136364 -0.00175022)
(-0.00357324 -0.00201474 -0.00175022)
(-0.0031691 -0.00260461 -0.00175022)
(-0.00266867 -0.00311535 -0.00175022)
(-0.00208715 -0.00353143 -0.00175022)
(-0.00144221 -0.00384021 -0.00175022)
(-0.000753457 -0.00403231 -0.00175022)
(-4.18075e-05 -0.00410188 -0.00175022)
(0.000671112 -0.00404683 -0.00175022)
(0.00136364 -0.00386881 -0.00175022)
(0.00201474 -0.00357324 -0.00175022)
(0.00260461 -0.0031691 -0.00175022)
(0.00311535 -0.00266867 -0.00175022)
(0.00353143 -0.00208715 -0.00175022)
(0.00384021 -0.00144221 -0.00175022)
(0.00403231 -0.000753457 -0.00175022)
(0.00410188 -4.18076e-05 -0.00175022)
(0.00404683 0.000671112 -0.00175022)
(0.00386881 0.00136364 -0.00175022)
(0.00357324 0.00201474 -0.00175022)
(0.0031691 0.00260461 -0.00175022)
(0.00266867 0.00311535 -0.00175022)
(0.00208715 0.00353143 -0.00175022)
(0.00144221 0.00384021 -0.00175022)
(0.000753458 0.00403231 -0.00175022)
(4.18077e-05 0.00410188 -0.00175022)
(-0.000671112 0.00404683 -0.00175022)
(-0.00136364 0.00386881 -0.00175022)
(-0.00225851 0.00393008 -0.00261461)
(-0.00290665 0.00347818 -0.00261461)
(-0.00346647 0.00292061 -0.00261461)
(-0.00392096 0.00227429 -0.00261461)
(-0.00425632 0.00155887 -0.00261461)
(-0.00446235 0.000796084 -0.00261461)
(-0.0045328 9.10938e-06 -0.00261461)
(-0.00446552 -0.000778142 -0.00261461)