/*--------------------------------*- C++ -*----------------------------------*\
| =========                 |                                                 |
| \\      /  F ield         | OpenFOAM: The Open Source CFD Toolbox           |
|  \\    /   O peration     | Version:  2312                                  |
|   \\  /    A nd           | Website:  www.openfoam.com                      |
|    \\/     M anipulation  |                                                 |
\*---------------------------------------------------------------------------*/
FoamFile
{
    version     2.0;
    format      ascii;
    arch        "LSB;label=32;scalar=64";
    class       volVectorField;
    location    "0.5";
    object      D_0_0;
}
// * * * * * * * * * * * * * * * * * * * * * * * * * * * * * * * * * * * * * //

dimensions      [0 1 0 0 0 0 0];

internalField   nonuniform List<vector> 
1620
(
(-0.000218431 0.000237576 -0.000113237)
(-0.000256367 0.000196036 -0.000113237)
(-0.000286514 0.00014854 -0.000113237)
(-0.000307955 9.65314e-05 -0.000113237)
(-0.000320039 4.15894e-05 -0.000113237)
(-0.000322399 -1.46169e-05 -0.000113237)
(-0.000314963 -7.03789e-05 -0.000113237)
(-0.000297956 -0.000124002 -0.000113237)
(-0.000271897 -0.000173858 -0.000113237)
(-0.000237576 -0.000218431 -0.000113237)
(-0.000196036 -0.000256367 -0.000113237)
(-0.00014854 -0.000286514 -0.000113237)
(-9.65314e-05 -0.000307955 -0.000113237)
(-4.15893e-05 -0.000320039 -0.000113237)
(1.46169e-05 -0.000322399 -0.000113237)
(7.03789e-05 -0.000314963 -0.000113237)
(0.000124002 -0.000297956 -0.000113237)
(0.000173858 -0.000271897 -0.000113237)
(0.000218431 -0.000237576 -0.000113237)
(0.000256367 -0.000196036 -0.000113237)
(0.000286514 -0.00014854 -0.000113237)
(0.000307955 -9.65314e-05 -0.000113237)
(0.000320039 -4.15893e-05 -0.000113237)
(0.000322399 1.46169e-05 -0.000113237)
(0.000314963 7.03789e-05 -0.000113237)
(0.000297956 0.000124002 -0.000113237)
(0.000271897 0.000173858 -0.000113237)
(0.000237576 0.000218431 -0.000113237)
(0.000196036 0.000256367 -0.000113237)
(0.00014854 0.000286514 -0.000113237)
(9.65314e-05 0.000307955 -0.000113237)
(4.15894e-05 0.000320039 -0.000113237)
(-1.46169e-05 0.000322399 -0.000113237)
(-7.03789e-05 0.000314963 -0.000113237)
(-0.000124002 0.000297956 -0.000113237)
(-0.000173858 0.000271897 -0.000113237)
(-0.000157113 0.000303235 -7.66431e-05)
(-0.000207382 0.000271346 -7.66432e-05)
(-0.00025135 0.000231212 -7.66432e-05)
(-0.000287681 0.000184053 -7.66431e-05)
(-0.000315272 0.000131302 -7.66433e-05)
(-0.000333282 7.45605e-05 -7.66432e-05)
(-0.000341166 1.55541e-05 -7.66431e-05)
(-0.000338684 -4.3925e-05 -7.66431e-05)
(-0.000325911 -0.00010207 -7.66432e-05)
(-0.000303235 -0.000157113 -7.66432e-05)
(-0.000271346 -0.000207382 -7.66432e-05)
(-0.000231212 -0.00025135 -7.66432e-05)
(-0.000184053 -0.000287681 -7.66431e-05)
(-0.000131302 -0.000315272 -7.66433e-05)
(-7.45605e-05 -0.000333282 -7.66432e-05)
(-1.55541e-05 -0.000341166 -7.66431e-05)
(4.3925e-05 -0.000338684 -7.66431e-05)
(0.00010207 -0.000325911 -7.66432e-05)
(0.000157113 -0.000303235 -7.66432e-05)
(0.000207382 -0.000271346 -7.66432e-05)
(0.00025135 -0.000231212 -7.66432e-05)
(0.000287681 -0.000184053 -7.66431e-05)
(0.000315272 -0.000131302 -7.66433e-05)
(0.000333282 -7.45605e-05 -7.66432e-05)
(0.000341166 -1.55541e-05 -7.66431e-05)
(0.000338684 4.3925e-05 -7.66431e-05)
(0.000325911 0.00010207 -7.66432e-05)
(0.000303235 0.000157113 -7.66431e-05)
(0.000271346 0.000207382 -7.66432e-05)
(0.000231212 0.00025135 -7.66432e-05)
(0.000184053 0.000287681 -7.66431e-05)
(0.000131302 0.000315272 -7.66433e-05)
(7.45605e-05 0.000333282 -7.66432e-05)
(1.55541e-05 0.000341166 -7.66431e-05)
(-4.3925e-05 0.000338684 -7.66431e-05)
(-0.00010207 0.000325911 -7.66431e-05)
(-0.000118396 0.000369923 -4.91539e-05)
(-0.000180833 0.000343744 -4.91539e-05)
(-0.000237777 0.00030712 -4.9154e-05)
(-0.000287495 0.000261165 -4.91539e-05)
(-0.000328479 0.000207274 -4.9154e-05)
(-0.000359481 0.000147085 -4.91539e-05)
(-0.000379561 8.24276e-05 -4.9154e-05)
(-0.000388108 1.52653e-05 -4.91541e-05)
(-0.000384862 -5.23608e-05 -4.91539e-05)
(-0.000369923 -0.000118396 -4.91539e-05)
(-0.000343744 -0.000180833 -4.91539e-05)
(-0.00030712 -0.000237777 -4.9154e-05)
(-0.000261165 -0.000287495 -4.91539e-05)
(-0.000207274 -0.000328479 -4.9154e-05)
(-0.000147085 -0.000359481 -4.91539e-05)
(-8.24276e-05 -0.000379561 -4.9154e-05)
(-1.52653e-05 -0.000388108 -4.91541e-05)
(5.23608e-05 -0.000384862 -4.91539e-05)
(0.000118396 -0.000369923 -4.91539e-05)
(0.000180833 -0.000343744 -4.91539e-05)
(0.000237777 -0.00030712 -4.9154e-05)
(0.000287495 -0.000261165 -4.91539e-05)
(0.000328479 -0.000207274 -4.9154e-05)
(0.000359481 -0.000147085 -4.91539e-05)
(0.000379561 -8.24276e-05 -4.9154e-05)
(0.000388108 -1.52653e-05 -4.91541e-05)
(0.000384862 5.23608e-05 -4.91539e-05)
(0.000369923 0.000118396 -4.91539e-05)
(0.000343744 0.000180833 -4.91539e-05)
(0.00030712 0.000237777 -4.9154e-05)
(0.000261165 0.000287495 -4.91539e-05)
(0.000207274 0.000328479 -4.9154e-05)
(0.000147085 0.000359481 -4.91539e-05)
(8.24276e-05 0.000379561 -4.9154e-05)
(1.52653e-05 0.000388108 -4.91541e-05)
(-5.23608e-05 0.000384862 -4.91539e-05)
(-0.000523361 0.000783884 -0.000337188)
(-0.00065153 0.000681095 -0.000337189)
(-0.000759903 0.00055761 -0.000337189)
(-0.000845186 0.000417183 -0.000337188)
(-0.000904788 0.000264081 -0.000337187)
(-0.0009369 0.000102954 -0.000337188)
(-0.000940545 -6.13009e-05 -0.000337188)
(-0.000915611 -0.000223693 -0.000337188)
(-0.000862856 -0.000379289 -0.000337188)
(-0.000783884 -0.000523361 -0.000337188)
(-0.000681094 -0.00065153 -0.000337189)
(-0.00055761 -0.000759903 -0.000337189)
(-0.000417183 -0.000845186 -0.000337188)
(-0.000264081 -0.000904788 -0.000337187)
(-0.000102954 -0.0009369 -0.000337188)
(6.13009e-05 -0.000940545 -0.000337188)
(0.000223693 -0.000915611 -0.000337188)
(0.000379289 -0.000862856 -0.000337188)
(0.000523361 -0.000783884 -0.000337188)
(0.00065153 -0.000681094 -0.000337189)
(0.000759903 -0.00055761 -0.000337189)
(0.000845186 -0.000417183 -0.000337188)
(0.000904788 -0.000264081 -0.000337187)
(0.0009369 -0.000102954 -0.000337188)
(0.000940545 6.13009e-05 -0.000337188)
(0.000915611 0.000223693 -0.000337188)
(0.000862856 0.000379289 -0.000337188)
(0.000783884 0.000523361 -0.000337188)
(0.000681095 0.00065153 -0.000337189)
(0.00055761 0.000759903 -0.000337189)
(0.000417183 0.000845186 -0.000337187)
(0.000264081 0.000904789 -0.000337187)
(0.000102954 0.0009369 -0.000337188)
(-6.13009e-05 0.000940545 -0.000337188)
(-0.000223693 0.000915611 -0.000337188)
(-0.000379289 0.000862856 -0.000337188)
(-0.000473289 0.000907668 -0.000251989)
(-0.000623713 0.000811692 -0.000251989)
(-0.000755187 0.000691054 -0.00025199)
(-0.000863714 0.000549419 -0.000251989)
(-0.000945999 0.00039109 -0.000251989)
(-0.000999539 0.000220877 -0.000251989)
(-0.00102271 4.39534e-05 -0.000251989)
(-0.0010148 -0.000134306 -0.000251989)
(-0.000976064 -0.000308484 -0.000251989)
(-0.000907667 -0.000473289 -0.000251989)
(-0.000811692 -0.000623713 -0.00025199)
(-0.000691054 -0.000755187 -0.00025199)
(-0.000549419 -0.000863714 -0.00025199)
(-0.00039109 -0.000945999 -0.000251989)
(-0.000220877 -0.000999539 -0.000251989)
(-4.39534e-05 -0.00102271 -0.000251989)
(0.000134306 -0.0010148 -0.000251989)
(0.000308484 -0.000976064 -0.000251989)
(0.000473289 -0.000907667 -0.000251989)
(0.000623713 -0.000811692 -0.00025199)
(0.000755187 -0.000691054 -0.00025199)
(0.000863714 -0.000549419 -0.00025199)
(0.000945999 -0.00039109 -0.000251989)
(0.000999539 -0.000220877 -0.000251989)
(0.00102271 -4.39534e-05 -0.000251989)
(0.0010148 0.000134306 -0.000251989)
(0.000976064 0.000308484 -0.000251989)
(0.000907668 0.000473289 -0.000251989)
(0.000811692 0.000623713 -0.000251989)
(0.000691054 0.000755187 -0.00025199)
(0.000549419 0.000863714 -0.000251989)
(0.00039109 0.000945999 -0.000251989)
(0.000220877 0.000999539 -0.000251989)
(4.39534e-05 0.00102271 -0.000251989)
(-0.000134306 0.0010148 -0.000251989)
(-0.000308484 0.000976064 -0.000251989)
(-0.000451453 0.00102719 -0.000169853)
(-0.000622963 0.000933186 -0.000169853)
(-0.000775544 0.000810832 -0.000169853)
(-0.000904561 0.000663842 -0.000169853)
(-0.00100609 0.000496681 -0.000169853)
(-0.00107706 0.000314429 -0.000169853)
(-0.00111529 0.000122623 -0.000169853)
(-0.00111964 -7.29087e-05 -0.000169853)
(-0.00108997 -0.000266225 -0.000169853)
(-0.00102719 -0.000451453 -0.000169853)
(-0.000933186 -0.000622963 -0.000169853)
(-0.000810832 -0.000775544 -0.000169853)
(-0.000663842 -0.000904561 -0.000169853)
(-0.000496681 -0.00100609 -0.000169853)
(-0.000314429 -0.00107706 -0.000169853)
(-0.000122623 -0.00111529 -0.000169853)
(7.29088e-05 -0.00111964 -0.000169853)
(0.000266225 -0.00108997 -0.000169853)
(0.000451453 -0.00102719 -0.000169853)
(0.000622963 -0.000933186 -0.000169853)
(0.000775544 -0.000810832 -0.000169853)
(0.000904561 -0.000663842 -0.000169853)
(0.00100609 -0.000496681 -0.000169853)
(0.00107706 -0.000314429 -0.000169853)
(0.00111529 -0.000122623 -0.000169853)
(0.00111964 7.29088e-05 -0.000169853)
(0.00108997 0.000266225 -0.000169853)
(0.00102719 0.000451453 -0.000169853)
(0.000933186 0.000622963 -0.000169853)
(0.000810832 0.000775544 -0.000169853)
(0.000663842 0.000904561 -0.000169853)
(0.000496681 0.00100609 -0.000169853)
(0.000314429 0.00107706 -0.000169853)
(0.000122623 0.00111529 -0.000169853)
(-7.29087e-05 0.00111964 -0.000169853)
(-0.000266225 0.00108997 -0.000169853)
(-0.000818992 0.00133895 -0.000627815)
(-0.00103906 0.00117639 -0.000627815)
(-0.00122755 0.000978092 -0.000627815)
(-0.00137874 0.000750071 -0.000627814)
(-0.00148805 0.000499261 -0.000627814)
(-0.00155214 0.00023328 -0.000627814)
(-0.00156906 -3.97905e-05 -0.000627814)
(-0.00153832 -0.000311651 -0.000627814)
(-0.00146083 -0.000574043 -0.000627815)
(-0.00133895 -0.000818992 -0.000627815)
(-0.00117639 -0.00103906 -0.000627815)
(-0.000978092 -0.00122755 -0.000627815)
(-0.000750071 -0.00137874 -0.000627814)
(-0.000499261 -0.00148805 -0.000627814)
(-0.00023328 -0.00155214 -0.000627814)
(3.97905e-05 -0.00156906 -0.000627814)
(0.000311651 -0.00153832 -0.000627814)
(0.000574043 -0.00146083 -0.000627815)
(0.000818992 -0.00133895 -0.000627815)
(0.00103906 -0.00117639 -0.000627815)
(0.00122755 -0.000978092 -0.000627815)
(0.00137874 -0.000750071 -0.000627814)
(0.00148805 -0.000499261 -0.000627814)
(0.00155214 -0.00023328 -0.000627814)
(0.00156906 3.97905e-05 -0.000627814)
(0.00153832 0.000311651 -0.000627814)
(0.00146083 0.000574043 -0.000627815)
(0.00133895 0.000818992 -0.000627815)
(0.00117639 0.00103906 -0.000627815)
(0.000978092 0.00122755 -0.000627815)
(0.000750071 0.00137874 -0.000627814)
(0.000499261 0.00148805 -0.000627814)
(0.00023328 0.00155214 -0.000627814)
(-3.97905e-05 0.00156906 -0.000627814)
(-0.000311651 0.00153832 -0.000627814)
(-0.000574043 0.00146083 -0.000627815)
(-0.000784297 0.00150411 -0.000500343)
(-0.00103357 0.00134507 -0.000500344)
(-0.00125143 0.00114516 -0.000500344)
(-0.00143128 0.000910451 -0.000500343)
(-0.00156763 0.000648081 -0.000500343)
(-0.00165635 0.000366019 -0.000500343)
(-0.00169475 7.28356e-05 -0.000500343)
(-0.00168165 -0.000222561 -0.000500343)
(-0.00161745 -0.000511195 -0.000500343)
(-0.00150411 -0.000784297 -0.000500343)
(-0.00134507 -0.00103357 -0.000500344)
(-0.00114516 -0.00125143 -0.000500344)
(-0.000910451 -0.00143128 -0.000500343)
(-0.000648081 -0.00156763 -0.000500343)
(-0.000366019 -0.00165635 -0.000500343)
(-7.28355e-05 -0.00169475 -0.000500343)
(0.000222561 -0.00168165 -0.000500343)
(0.000511195 -0.00161745 -0.000500343)
(0.000784297 -0.00150411 -0.000500343)
(0.00103357 -0.00134507 -0.000500344)
(0.00125143 -0.00114516 -0.000500344)
(0.00143128 -0.000910451 -0.000500343)
(0.00156763 -0.000648081 -0.000500343)
(0.00165635 -0.000366019 -0.000500343)
(0.00169475 -7.28355e-05 -0.000500343)
(0.00168165 0.000222561 -0.000500343)
(0.00161745 0.000511195 -0.000500343)
(0.00150411 0.000784297 -0.000500343)
(0.00134507 0.00103357 -0.000500344)
(0.00114516 0.00125143 -0.000500344)
(0.000910451 0.00143128 -0.000500343)
(0.000648081 0.00156763 -0.000500343)
(0.000366019 0.00165635 -0.000500343)
(7.28356e-05 0.00169475 -0.000500343)
(-0.000222561 0.00168165 -0.000500343)
(-0.000511195 0.00161745 -0.000500343)
(-0.000781554 0.00165813 -0.000376776)
(-0.00105761 0.00149722 -0.000376776)
(-0.00130153 0.00129082 -0.000376776)
(-0.00150591 0.0010452 -0.000376776)
(-0.00166453 0.000767827 -0.000376776)
(-0.00177257 0.000467119 -0.000376776)
(-0.00182676 0.000152218 -0.000376776)
(-0.00182544 -0.000167307 -0.000376776)
(-0.00176865 -0.00048175 -0.000376776)
(-0.00165813 -0.000781554 -0.000376776)
(-0.00149722 -0.00105761 -0.000376776)
(-0.00129082 -0.00130153 -0.000376776)
(-0.0010452 -0.00150591 -0.000376776)
(-0.000767827 -0.00166453 -0.000376776)
(-0.000467119 -0.00177257 -0.000376776)
(-0.000152218 -0.00182676 -0.000376776)
(0.000167307 -0.00182544 -0.000376776)
(0.00048175 -0.00176865 -0.000376776)
(0.000781554 -0.00165813 -0.000376776)
(0.00105761 -0.00149722 -0.000376776)
(0.00130153 -0.00129082 -0.000376776)
(0.00150591 -0.0010452 -0.000376776)
(0.00166453 -0.000767827 -0.000376776)
(0.00177257 -0.000467119 -0.000376776)
(0.00182676 -0.000152218 -0.000376776)
(0.00182544 0.000167307 -0.000376776)
(0.00176865 0.00048175 -0.000376776)
(0.00165813 0.000781554 -0.000376776)
(0.00149722 0.00105761 -0.000376776)
(0.00129082 0.00130153 -0.000376776)
(0.0010452 0.00150591 -0.000376776)
(0.000767827 0.00166453 -0.000376776)
(0.000467119 0.00177257 -0.000376776)
(0.000152218 0.00182676 -0.000376776)
(-0.000167307 0.00182544 -0.000376776)
(-0.00048175 0.00176865 -0.000376776)
(-0.00110201 0.00190239 -0.00096596)
(-0.00141561 0.00168213 -0.000965961)
(-0.00168621 0.00141076 -0.00096596)
(-0.00190556 0.00109652 -0.00096596)
(-0.00206702 0.000748962 -0.00096596)
(-0.00216568 0.000378648 -0.000965959)
(-0.00219853 -3.17003e-06 -0.000965959)
(-0.00216457 -0.000384893 -0.000965959)
(-0.00206485 -0.00075492 -0.00096596)
(-0.00190239 -0.00110201 -0.00096596)
(-0.00168213 -0.00141561 -0.000965961)
(-0.00141076 -0.00168621 -0.00096596)
(-0.00109652 -0.00190556 -0.00096596)
(-0.000748961 -0.00206702 -0.00096596)
(-0.000378648 -0.00216568 -0.000965959)
(3.17014e-06 -0.00219853 -0.000965959)
(0.000384893 -0.00216457 -0.000965959)
(0.00075492 -0.00206485 -0.00096596)
(0.00110201 -0.00190239 -0.00096596)
(0.00141561 -0.00168213 -0.000965961)
(0.00168621 -0.00141076 -0.00096596)
(0.00190557 -0.00109652 -0.00096596)
(0.00206702 -0.000748961 -0.00096596)
(0.00216568 -0.000378648 -0.000965959)
(0.00219853 3.17014e-06 -0.000965959)
(0.00216457 0.000384893 -0.000965959)
(0.00206485 0.00075492 -0.00096596)
(0.00190239 0.00110201 -0.00096596)
(0.00168213 0.00141561 -0.000965961)
(0.00141076 0.00168621 -0.00096596)
(0.00109652 0.00190557 -0.00096596)
(0.000748962 0.00206702 -0.00096596)
(0.000378648 0.00216568 -0.000965959)
(-3.17003e-06 0.00219853 -0.000965959)
(-0.000384893 0.00216457 -0.000965959)
(-0.00075492 0.00206485 -0.000965959)
(-0.00108672 0.00208045 -0.000805453)
(-0.00143147 0.00186014 -0.000805453)
(-0.00173274 0.00158331 -0.000805453)
(-0.00198135 0.00125837 -0.000805452)
(-0.00216976 0.000895191 -0.000805452)
(-0.00229225 0.000504816 -0.000805452)
(-0.00234508 9.9102e-05 -0.000805452)
(-0.00232666 -0.000309623 -0.000805452)
(-0.00223755 -0.000708941 -0.000805452)
(-0.00208045 -0.00108672 -0.000805453)
(-0.00186014 -0.00143147 -0.000805453)
(-0.00158331 -0.00173274 -0.000805453)
(-0.00125837 -0.00198135 -0.000805453)
(-0.000895191 -0.00216976 -0.000805453)
(-0.000504816 -0.00229225 -0.000805452)
(-9.91019e-05 -0.00234508 -0.000805452)
(0.000309623 -0.00232666 -0.000805452)
(0.000708941 -0.00223755 -0.000805452)
(0.00108672 -0.00208045 -0.000805453)
(0.00143147 -0.00186014 -0.000805453)
(0.00173274 -0.00158331 -0.000805453)
(0.00198135 -0.00125837 -0.000805452)
(0.00216976 -0.000895191 -0.000805453)
(0.00229225 -0.000504816 -0.000805452)
(0.00234508 -9.91019e-05 -0.000805452)
(0.00232666 0.000309623 -0.000805452)
(0.00223755 0.000708941 -0.000805452)
(0.00208045 0.00108672 -0.000805453)
(0.00186014 0.00143147 -0.000805453)
(0.00158331 0.00173274 -0.000805453)
(0.00125837 0.00198135 -0.000805452)
(0.000895191 0.00216976 -0.000805452)
(0.000504816 0.00229225 -0.000805452)
(9.9102e-05 0.00234508 -0.000805452)
(-0.000309623 0.00232666 -0.000805452)
(-0.000708941 0.00223755 -0.000805452)
(-0.0011062 0.00223913 -0.000651004)
(-0.00147822 0.00201303 -0.000651004)
(-0.00180532 0.00172576 -0.000651004)
(-0.00207756 0.00138605 -0.000651004)
(-0.00228668 0.00100423 -0.000651004)
(-0.00242633 0.000591891 -0.000651004)
(-0.00249225 0.00016157 -0.000651004)
(-0.00248244 -0.000273658 -0.000651004)
(-0.00239721 -0.000700573 -0.000651004)
(-0.00223913 -0.0011062 -0.000651004)
(-0.00201303 -0.00147822 -0.000651004)
(-0.00172576 -0.00180532 -0.000651004)
(-0.00138605 -0.00207756 -0.000651004)
(-0.00100423 -0.00228668 -0.000651004)
(-0.000591891 -0.00242633 -0.000651004)
(-0.00016157 -0.00249225 -0.000651004)
(0.000273658 -0.00248244 -0.000651004)
(0.000700573 -0.00239721 -0.000651004)
(0.0011062 -0.00223913 -0.000651004)
(0.00147822 -0.00201303 -0.000651004)
(0.00180532 -0.00172576 -0.000651004)
(0.00207756 -0.00138605 -0.000651004)
(0.00228668 -0.00100423 -0.000651004)
(0.00242633 -0.000591891 -0.000651004)
(0.00249225 -0.00016157 -0.000651004)
(0.00248244 0.000273658 -0.000651004)
(0.00239721 0.000700573 -0.000651004)
(0.00223913 0.0011062 -0.000651004)
(0.00201303 0.00147822 -0.000651004)
(0.00172576 0.00180532 -0.000651004)
(0.00138605 0.00207756 -0.000651004)
(0.00100423 0.00228668 -0.000651004)
(0.000591891 0.00242633 -0.000651004)
(0.00016157 0.00249225 -0.000651004)
(-0.000273658 0.00248244 -0.000651004)
(-0.000700573 0.00239721 -0.000651004)
(-0.00138127 0.00246475 -0.00133899)
(-0.00178828 0.00218745 -0.00133899)
(-0.00214096 0.00184368 -0.00133899)
(-0.00242859 0.0014439 -0.00133899)
(-0.00264242 0.00100024 -0.00133899)
(-0.00277597 0.000526195 -0.00133899)
(-0.00282517 3.6159e-05 -0.00133899)
(-0.00278853 -0.000454977 -0.00133899)
(-0.00266716 -0.000932287 -0.00133899)
(-0.00246475 -0.00138127 -0.00133899)
(-0.00218745 -0.00178828 -0.00133899)
(-0.00184368 -0.00214096 -0.00133899)
(-0.0014439 -0.00242859 -0.00133899)
(-0.00100024 -0.00264242 -0.00133899)
(-0.000526195 -0.00277597 -0.00133899)
(-3.61588e-05 -0.00282517 -0.00133899)
(0.000454977 -0.00278853 -0.00133899)
(0.000932287 -0.00266716 -0.00133899)
(0.00138127 -0.00246475 -0.00133899)
(0.00178828 -0.00218745 -0.00133899)
(0.00214096 -0.00184368 -0.00133899)
(0.00242859 -0.0014439 -0.00133899)
(0.00264242 -0.00100024 -0.00133899)
(0.00277597 -0.000526195 -0.00133899)
(0.00282517 -3.61588e-05 -0.00133899)
(0.00278853 0.000454977 -0.00133898)
(0.00266716 0.000932287 -0.00133899)
(0.00246475 0.00138127 -0.00133899)
(0.00218745 0.00178828 -0.00133899)
(0.00184368 0.00214096 -0.00133899)
(0.0014439 0.00242859 -0.00133899)
(0.00100024 0.00264242 -0.00133899)
(0.000526195 0.00277597 -0.00133899)
(3.6159e-05 0.00282517 -0.00133899)
(-0.000454977 0.00278853 -0.00133898)
(-0.000932287 0.00266716 -0.00133899)
(-0.00138292 0.002624 -0.00115467)
(-0.00181756 0.002344 -0.00115467)
(-0.00219698 0.00199277 -0.00115467)
(-0.00250964 0.00158099 -0.00115467)
(-0.00274605 0.00112118 -0.00115467)
(-0.00289902 0.000627301 -0.00115467)
(-0.00296391 0.000114361 -0.00115467)
(-0.00293874 -0.000402054 -0.00115467)
(-0.00282428 -0.000906253 -0.00115467)
(-0.002624 -0.00138292 -0.00115467)
(-0.002344 -0.00181756 -0.00115467)
(-0.00199277 -0.00219698 -0.00115467)
(-0.00158099 -0.00250964 -0.00115467)
(-0.00112118 -0.00274605 -0.00115467)
(-0.000627301 -0.00289902 -0.00115467)
(-0.000114361 -0.00296391 -0.00115467)
(0.000402054 -0.00293874 -0.00115467)
(0.000906253 -0.00282428 -0.00115467)
(0.00138292 -0.002624 -0.00115467)
(0.00181756 -0.002344 -0.00115467)
(0.00219698 -0.00199277 -0.00115467)
(0.00250964 -0.00158099 -0.00115467)
(0.00274605 -0.00112118 -0.00115467)
(0.00289902 -0.000627301 -0.00115467)
(0.00296391 -0.000114361 -0.00115467)
(0.00293874 0.000402054 -0.00115467)
(0.00282428 0.000906253 -0.00115467)
(0.002624 0.00138292 -0.00115467)
(0.002344 0.00181756 -0.00115467)
(0.00199277 0.00219698 -0.00115467)
(0.00158099 0.00250964 -0.00115467)
(0.00112118 0.00274605 -0.00115467)
(0.000627301 0.00289902 -0.00115467)
(0.000114361 0.00296391 -0.00115467)
(-0.000402054 0.00293874 -0.00115467)
(-0.000906253 0.00282428 -0.00115467)
(-0.00142022 0.00275623 -0.000978641)
(-0.00187726 0.00246774 -0.000978641)
(-0.00227726 0.00210426 -0.000978641)
(-0.00260806 0.00167685 -0.000978641)
(-0.00285962 0.00119849 -0.000978641)
(-0.00302429 0.000683719 -0.000978641)
(-0.00309707 0.000148169 -0.000978641)
(-0.00307575 -0.000391884 -0.000978641)
(-0.00296097 -0.000920029 -0.000978641)
(-0.00275623 -0.00142022 -0.000978641)
(-0.00246774 -0.00187726 -0.000978641)
(-0.00210426 -0.00227726 -0.000978641)
(-0.00167685 -0.00260806 -0.000978641)
(-0.00119849 -0.00285962 -0.000978641)
(-0.000683719 -0.00302429 -0.000978641)
(-0.000148168 -0.00309707 -0.000978641)
(0.000391884 -0.00307575 -0.000978641)
(0.000920029 -0.00296097 -0.000978641)
(0.00142022 -0.00275623 -0.000978641)
(0.00187726 -0.00246774 -0.000978641)
(0.00227726 -0.00210426 -0.000978641)
(0.00260806 -0.00167685 -0.000978641)
(0.00285962 -0.00119849 -0.000978641)
(0.00302429 -0.000683719 -0.000978641)
(0.00309707 -0.000148168 -0.000978641)
(0.00307575 0.000391884 -0.000978641)
(0.00296097 0.000920029 -0.000978641)
(0.00275623 0.00142022 -0.000978641)
(0.00246774 0.00187726 -0.000978641)
(0.00210426 0.00227726 -0.000978641)
(0.00167685 0.00260806 -0.000978641)
(0.00119849 0.00285962 -0.000978641)
(0.000683719 0.00302429 -0.000978641)
(0.000148169 0.00309707 -0.000978641)
(-0.000391884 0.00307575 -0.000978641)
(-0.000920029 0.00296097 -0.000978641)
(-0.00166559 0.00300735 -0.00173843)
(-0.0021625 0.00267244 -0.00173843)
(-0.00259371 0.00225632 -0.00173843)
(-0.00294612 0.00177165 -0.00173843)
(-0.003209 0.00123315 -0.00173843)
(-0.00337438 0.000657176 -0.00173843)
(-0.00343724 6.12364e-05 -0.00173843)
(-0.00339565 -0.000536564 -0.00173843)
(-0.00325089 -0.00111806 -0.00173843)
(-0.00300735 -0.00166559 -0.00173843)
(-0.00267244 -0.0021625 -0.00173843)
(-0.00225632 -0.00259371 -0.00173843)
(-0.00177165 -0.00294612 -0.00173843)
(-0.00123315 -0.003209 -0.00173843)
(-0.000657176 -0.00337438 -0.00173843)
(-6.12362e-05 -0.00343724 -0.00173843)
(0.000536564 -0.00339565 -0.00173843)
(0.00111806 -0.00325089 -0.00173843)
(0.00166559 -0.00300735 -0.00173843)
(0.0021625 -0.00267244 -0.00173843)
(0.00259371 -0.00225632 -0.00173843)
(0.00294612 -0.00177165 -0.00173843)
(0.003209 -0.00123315 -0.00173843)
(0.00337438 -0.000657176 -0.00173843)
(0.00343724 -6.12362e-05 -0.00173843)
(0.00339565 0.000536564 -0.00173843)
(0.00325089 0.00111806 -0.00173843)
(0.00300735 0.00166559 -0.00173843)
(0.00267244 0.0021625 -0.00173843)
(0.00225632 0.00259371 -0.00173843)
(0.00177165 0.00294612 -0.00173843)
(0.00123315 0.003209 -0.00173843)
(0.000657176 0.00337438 -0.00173843)
(6.12364e-05 0.00343724 -0.00173843)
(-0.000536564 0.00339565 -0.00173843)
(-0.00111806 0.00325089 -0.00173843)
(-0.0016762 0.00312021 -0.00153625)
(-0.00219256 0.00278174 -0.00153625)
(-0.00264229 0.00235874 -0.00153625)
(-0.00301174 0.00186408 -0.00153625)
(-0.00328968 0.00131278 -0.00153625)
(-0.00346766 0.000721588 -0.00153625)
(-0.00354028 0.000108472 -0.00153625)
(-0.00350533 -0.000507939 -0.00153625)
(-0.00336388 -0.00110892 -0.00153625)
(-0.00312021 -0.0016762 -0.00153625)
(-0.00278174 -0.00219256 -0.00153625)
(-0.00235874 -0.00264229 -0.00153625)
(-0.00186408 -0.00301174 -0.00153625)
(-0.00131278 -0.00328968 -0.00153625)
(-0.000721587 -0.00346766 -0.00153625)
(-0.000108472 -0.00354028 -0.00153625)
(0.000507939 -0.00350533 -0.00153625)
(0.00110892 -0.00336388 -0.00153625)
(0.0016762 -0.00312021 -0.00153625)
(0.00219256 -0.00278174 -0.00153625)
(0.00264229 -0.00235874 -0.00153625)
(0.00301174 -0.00186408 -0.00153625)
(0.00328968 -0.00131278 -0.00153625)
(0.00346766 -0.000721587 -0.00153625)
(0.00354028 -0.000108472 -0.00153625)
(0.00350533 0.000507939 -0.00153625)
(0.00336388 0.00110892 -0.00153625)
(0.00312021 0.0016762 -0.00153625)
(0.00278174 0.00219256 -0.00153625)
(0.00235874 0.00264229 -0.00153625)
(0.00186408 0.00301174 -0.00153625)
(0.00131278 0.00328968 -0.00153625)
(0.000721588 0.00346766 -0.00153625)
(0.000108472 0.00354028 -0.00153625)
(-0.000507939 0.00350533 -0.00153625)
(-0.00110892 0.00336388 -0.00153625)
(-0.00172115 0.00320033 -0.00134429)
(-0.00225073 0.00285283 -0.00134429)
(-0.00271193 0.00241866 -0.00134429)
(-0.00309072 0.00191099 -0.00134429)
(-0.00337561 0.00134526 -0.00134429)
(-0.00355793 0.000738655 -0.00134429)
(-0.00363214 0.000109607 -0.00134429)
(-0.00359599 -0.000522774 -0.00134429)
(-0.00345058 -0.00113927 -0.00134429)
(-0.00320033 -0.00172115 -0.00134429)
(-0.00285283 -0.00225073 -0.00134429)
(-0.00241866 -0.00271193 -0.00134429)
(-0.00191099 -0.00309072 -0.00134429)
(-0.00134526 -0.00337561 -0.00134429)
(-0.000738655 -0.00355793 -0.00134429)
(-0.000109607 -0.00363214 -0.00134429)
(0.000522774 -0.00359599 -0.00134429)
(0.00113927 -0.00345058 -0.00134429)
(0.00172115 -0.00320033 -0.00134429)
(0.00225073 -0.00285283 -0.00134429)
(0.00271193 -0.00241866 -0.00134429)
(0.00309072 -0.00191099 -0.00134429)
(0.00337561 -0.00134526 -0.00134429)
(0.00355793 -0.000738655 -0.00134429)
(0.00363214 -0.000109607 -0.00134429)
(0.00359599 0.000522774 -0.00134429)
(0.00345058 0.00113927 -0.00134429)
(0.00320033 0.00172115 -0.00134429)
(0.00285283 0.00225073 -0.00134429)
(0.00241866 0.00271193 -0.00134429)
(0.00191099 0.00309072 -0.00134429)
(0.00134526 0.00337561 -0.00134429)
(0.000738655 0.00355793 -0.00134429)
(0.000109607 0.00363214 -0.00134429)
(-0.000522774 0.00359599 -0.00134429)
(-0.00113927 0.00345058 -0.00134429)
(-0.00195823 0.00350394 -0.00215802)
(-0.00253693 0.00311066 -0.00215802)
(-0.00303855 0.00262287 -0.00215802)
(-0.00344785 0.00205539 -0.00215802)
(-0.00375238 0.00142545 -0.00215802)
(-0.0039429 0.000752198 -0.00215802)
(-0.00401361 5.60934e-05 -0.00215802)
(-0.00396238 -0.000641716 -0.00215802)
(-0.00379075 -0.00132003 -0.00215802)
(-0.00350394 -0.00195823 -0.00215802)
(-0.00311066 -0.00253693 -0.00215802)
(-0.00262287 -0.00303855 -0.00215802)
(-0.00205539 -0.00344785 -0.00215802)
(-0.00142545 -0.00375238 -0.00215802)
(-0.000752197 -0.0039429 -0.00215802)
(-5.60931e-05 -0.00401361 -0.00215802)
(0.000641717 -0.00396238 -0.00215802)
(0.00132003 -0.00379075 -0.00215802)
(0.00195823 -0.00350394 -0.00215802)
(0.00253693 -0.00311066 -0.00215802)
(0.00303855 -0.00262287 -0.00215802)
(0.00344785 -0.00205539 -0.00215802)
(0.00375238 -0.00142545 -0.00215802)
(0.0039429 -0.000752197 -0.00215802)
(0.00401361 -5.60932e-05 -0.00215802)
(0.00396238 0.000641717 -0.00215802)
(0.00379075 0.00132003 -0.00215802)
(0.00350394 0.00195823 -0.00215802)
(0.00311066 0.00253693 -0.00215802)
(0.00262287 0.00303855 -0.00215802)
(0.00205539 0.00344785 -0.00215802)
(0.00142545 0.00375238 -0.00215802)
(0.000752198 0.0039429 -0.00215802)
(5.60934e-05 0.00401361 -0.00215802)
(-0.000641716 0.00396238 -0.00215802)
(-0.00132003 0.00379075 -0.00215802)
(-0.00196679 0.00355053 -0.00194007)
(-0.00255346 0.00315505 -0.00194007)
(-0.00306253 0.00266372 -0.00194007)
(-0.00347856 0.00209145 -0.00194007)
(-0.00378888 0.00145563 -0.00194007)
(-0.00398409 0.000775583 -0.00194007)
(-0.00405824 7.19689e-05 -0.00194007)
(-0.00400909 -0.000633831 -0.00194007)
(-0.00383812 -0.00132037 -0.00194007)
(-0.00355053 -0.00196679 -0.00194007)
(-0.00315505 -0.00255346 -0.00194007)
(-0.00266372 -0.00306253 -0.00194007)
(-0.00209145 -0.00347856 -0.00194007)
(-0.00145563 -0.00378888 -0.00194007)
(-0.000775583 -0.00398409 -0.00194007)
(-7.19687e-05 -0.00405824 -0.00194007)
(0.000633831 -0.00400909 -0.00194007)
(0.00132037 -0.00383812 -0.00194007)
(0.00196679 -0.00355053 -0.00194007)
(0.00255346 -0.00315505 -0.00194007)
(0.00306253 -0.00266372 -0.00194007)
(0.00347856 -0.00209145 -0.00194007)
(0.00378888 -0.00145563 -0.00194007)
(0.00398409 -0.000775583 -0.00194007)
(0.00405824 -7.19688e-05 -0.00194007)
(0.00400909 0.000633831 -0.00194007)
(0.00383812 0.00132037 -0.00194007)
(0.00355053 0.00196679 -0.00194007)
(0.00315505 0.00255346 -0.00194007)
(0.00266372 0.00306253 -0.00194007)
(0.00209145 0.00347856 -0.00194007)
(0.00145563 0.00378888 -0.00194007)
(0.000775583 0.00398409 -0.00194007)
(7.19689e-05 0.00405824 -0.00194007)
(-0.000633831 0.00400909 -0.00194007)
(-0.00132037 0.00383812 -0.00194007)
(-0.00200622 0.00356184 -0.00173403)
(-0.00259425 0.00315935 -0.00173403)
(-0.00310345 0.00266087 -0.00173403)
(-0.00351836 0.00208154 -0.00173403)
(-0.00382636 0.00143896 -0.00173403)
(-0.0040181 0.000752657 -0.00173403)
(-0.00408775 4.34867e-05 -0.00173403)
(-0.0040332 -0.000667005 -0.00173403)
(-0.00385611 -0.00135723 -0.00173403)
(-0.00356184 -0.00200622 -0.00173403)
(-0.00315935 -0.00259425 -0.00173403)
(-0.00266087 -0.00310345 -0.00173403)
(-0.00208154 -0.00351836 -0.00173403)
(-0.00143896 -0.00382636 -0.00173403)
(-0.000752657 -0.0040181 -0.00173403)
(-4.34865e-05 -0.00408775 -0.00173403)
(0.000667005 -0.0040332 -0.00173403)
(0.00135723 -0.00385611 -0.00173403)
(0.00200622 -0.00356184 -0.00173403)
(0.00259425 -0.00315935 -0.00173403)
(0.00310345 -0.00266087 -0.00173403)
(0.00351836 -0.00208154 -0.00173403)
(0.00382636 -0.00143896 -0.00173403)
(0.0040181 -0.000752657 -0.00173403)
(0.00408775 -4.34866e-05 -0.00173403)
(0.0040332 0.000667005 -0.00173403)
(0.00385611 0.00135723 -0.00173403)
(0.00356184 0.00200622 -0.00173403)
(0.00315935 0.00259425 -0.00173403)
(0.00266087 0.00310345 -0.00173403)
(0.00208154 0.00351836 -0.00173403)
(0.00143896 0.00382636 -0.00173403)
(0.000752657 0.0040181 -0.00173403)
(4.34867e-05 0.00408775 -0.00173403)
(-0.000667005 0.0040332 -0.00173403)
(-0.00135723 0.00385611 -0.00173403)
(-0.00225192 0.00392227 -0.00258966)
(-0.0028988 0.00347164 -0.00258966)
(-0.0034576 0.00291553 -0.00258966)
(-0.00391135 0.00227083 -0.00258966)