/*--------------------------------*- C++ -*----------------------------------*\
| =========                 |                                                 |
| \\      /  F ield         | OpenFOAM: The Open Source CFD Toolbox           |
|  \\    /   O peration     | Version:  2312                                  |
|   \\  /    A nd           | Website:  www.openfoam.com                      |
|    \\/     M anipulation  |                                                 |
\*---------------------------------------------------------------------------*/
FoamFile
{
    version     2.0;
    format      ascii;
    arch        "LSB;label=32;scalar=64";
    class       volVectorField;
    location    "0.5";
    object      D_0_0_0;
}
// * * * * * * * * * * * * * * * * * * * * * * * * * * * * * * * * * * * * * //

dimensions      [0 1 0 0 0 0 0];

internalField   nonuniform List<vector> 
1620
(
(-0.000217083 0.000239081 -0.000111391)
(-0.000255301 0.000197752 -0.000111391)
(-0.000285762 0.000150416 -0.000111391)
(-0.00030754 9.85089e-05 -0.000111391)
(-0.000319974 4.36089e-05 -0.000111391)
(-0.000322685 -1.26168e-05 -0.000111391)
(-0.000315592 -6.84589e-05 -0.000111391)
(-0.00029891 -0.000122221 -0.000111391)
(-0.000273145 -0.000172269 -0.000111391)
(-0.000239081 -0.000217083 -0.000111391)
(-0.000197752 -0.000255301 -0.000111391)
(-0.000150416 -0.000285762 -0.000111391)
(-9.85089e-05 -0.00030754 -0.000111391)
(-4.36089e-05 -0.000319974 -0.000111391)
(1.26168e-05 -0.000322685 -0.000111391)
(6.84589e-05 -0.000315592 -0.000111391)
(0.000122221 -0.00029891 -0.000111391)
(0.000172269 -0.000273145 -0.000111391)
(0.000217083 -0.000239081 -0.000111391)
(0.000255301 -0.000197752 -0.000111391)
(0.000285762 -0.000150416 -0.000111391)
(0.00030754 -9.85089e-05 -0.000111391)
(0.000319974 -4.36089e-05 -0.000111391)
(0.000322685 1.26168e-05 -0.000111391)
(0.000315592 6.84589e-05 -0.000111391)
(0.00029891 0.000122221 -0.000111391)
(0.000273145 0.000172269 -0.000111391)
(0.000239081 0.000217083 -0.000111391)
(0.000197752 0.000255301 -0.000111391)
(0.000150416 0.000285762 -0.000111391)
(9.85089e-05 0.00030754 -0.000111391)
(4.36089e-05 0.000319974 -0.000111391)
(-1.26167e-05 0.000322685 -0.000111391)
(-6.84589e-05 0.000315592 -0.000111391)
(-0.000122221 0.00029891 -0.000111391)
(-0.000172269 0.000273145 -0.000111391)
(-0.000156649 0.000303035 -7.54321e-05)
(-0.00020689 0.000271229 -7.54321e-05)
(-0.000250845 0.000231182 -7.54321e-05)
(-0.000287179 0.000184111 -7.5432e-05)
(-0.000314787 0.000131446 -7.54322e-05)
(-0.00033283 7.47869e-05 -7.54321e-05)
(-0.00034076 1.58556e-05 -7.5432e-05)
(-0.000338337 -4.35576e-05 -7.5432e-05)
(-0.000325633 -0.000101647 -7.54321e-05)
(-0.000303035 -0.000156649 -7.54321e-05)
(-0.000271229 -0.00020689 -7.54321e-05)
(-0.000231182 -0.000250845 -7.54321e-05)
(-0.000184111 -0.000287179 -7.54321e-05)
(-0.000131446 -0.000314787 -7.54322e-05)
(-7.47869e-05 -0.00033283 -7.54321e-05)
(-1.58556e-05 -0.00034076 -7.5432e-05)
(4.35576e-05 -0.000338337 -7.5432e-05)
(0.000101648 -0.000325633 -7.54321e-05)
(0.000156649 -0.000303035 -7.54321e-05)
(0.00020689 -0.000271229 -7.54321e-05)
(0.000250845 -0.000231182 -7.54321e-05)
(0.000287179 -0.000184111 -7.54321e-05)
(0.000314787 -0.000131446 -7.54322e-05)
(0.00033283 -7.47869e-05 -7.54321e-05)
(0.00034076 -1.58556e-05 -7.5432e-05)
(0.000338337 4.35576e-05 -7.5432e-05)
(0.000325633 0.000101648 -7.54321e-05)
(0.000303035 0.000156649 -7.54321e-05)
(0.000271229 0.00020689 -7.54321e-05)
(0.000231182 0.000250845 -7.54321e-05)
(0.000184111 0.000287179 -7.5432e-05)
(0.000131446 0.000314787 -7.54322e-05)
(7.47869e-05 0.00033283 -7.54321e-05)
(1.58556e-05 0.00034076 -7.5432e-05)
(-4.35576e-05 0.000338337 -7.5432e-05)
(-0.000101647 0.000325633 -7.54321e-05)
(-0.000118444 0.000367944 -4.84124e-05)
(-0.000180537 0.000341787 -4.84124e-05)
(-0.000237145 0.000305245 -4.84125e-05)
(-0.000286547 0.000259427 -4.84124e-05)
(-0.000327244 0.000205728 -4.84125e-05)
(-0.000357996 0.000145777 -4.84124e-05)
(-0.000377871 8.1397e-05 -4.84125e-05)
(-0.000386265 1.45437e-05 -4.84126e-05)
(-0.000382922 -5.27514e-05 -4.84124e-05)
(-0.000367944 -0.000118444 -4.84124e-05)
(-0.000341787 -0.000180537 -4.84124e-05)
(-0.000305245 -0.000237145 -4.84125e-05)
(-0.000259427 -0.000286547 -4.84124e-05)
(-0.000205728 -0.000327244 -4.84125e-05)
(-0.000145777 -0.000357996 -4.84124e-05)
(-8.1397e-05 -0.000377871 -4.84125e-05)
(-1.45437e-05 -0.000386265 -4.84126e-05)
(5.27514e-05 -0.000382922 -4.84124e-05)
(0.000118444 -0.000367944 -4.84124e-05)
(0.000180537 -0.000341787 -4.84124e-05)
(0.000237145 -0.000305245 -4.84125e-05)
(0.000286547 -0.000259427 -4.84124e-05)
(0.000327244 -0.000205728 -4.84125e-05)
(0.000357996 -0.000145777 -4.84124e-05)
(0.000377871 -8.1397e-05 -4.84125e-05)
(0.000386265 -1.45437e-05 -4.84126e-05)
(0.000382922 5.27514e-05 -4.84124e-05)
(0.000367944 0.000118444 -4.84124e-05)
(0.000341787 0.000180537 -4.84124e-05)
(0.000305245 0.000237145 -4.84125e-05)
(0.000259427 0.000286547 -4.84124e-05)
(0.000205728 0.000327244 -4.84125e-05)
(0.000145777 0.000357996 -4.84124e-05)
(8.1397e-05 0.000377871 -4.84125e-05)
(1.45437e-05 0.000386265 -4.84126e-05)
(-5.27514e-05 0.000382922 -4.84124e-05)
(-0.000521258 0.000786779 -0.000332097)
(-0.000649962 0.000684311 -0.000332097)
(-0.000758917 0.00056105 -0.000332097)
(-0.000844813 0.000420742 -0.000332096)
(-0.000905039 0.00026765 -0.000332096)
(-0.000937766 0.000106426 -0.000332096)
(-0.000942001 -5.80326e-05 -0.000332096)
(-0.000917612 -0.000220728 -0.000332096)
(-0.000865342 -0.000376716 -0.000332097)
(-0.000786779 -0.000521258 -0.000332097)
(-0.000684311 -0.000649962 -0.000332097)
(-0.00056105 -0.000758917 -0.000332097)
(-0.000420742 -0.000844813 -0.000332096)
(-0.00026765 -0.000905039 -0.000332096)
(-0.000106426 -0.000937766 -0.000332096)
(5.80327e-05 -0.000942001 -0.000332096)
(0.000220728 -0.000917612 -0.000332096)
(0.000376716 -0.000865342 -0.000332097)
(0.000521258 -0.000786779 -0.000332097)
(0.000649962 -0.000684311 -0.000332097)
(0.000758917 -0.00056105 -0.000332097)
(0.000844813 -0.000420742 -0.000332096)
(0.000905039 -0.00026765 -0.000332096)
(0.000937766 -0.000106426 -0.000332096)
(0.000942001 5.80327e-05 -0.000332096)
(0.000917612 0.000220728 -0.000332096)
(0.000865342 0.000376716 -0.000332096)
(0.000786779 0.000521258 -0.000332097)
(0.000684311 0.000649962 -0.000332097)
(0.00056105 0.000758917 -0.000332097)
(0.000420742 0.000844813 -0.000332096)
(0.00026765 0.000905039 -0.000332096)
(0.000106426 0.000937766 -0.000332096)
(-5.80326e-05 0.000942001 -0.000332096)
(-0.000220728 0.000917613 -0.000332096)
(-0.000376716 0.000865342 -0.000332096)
(-0.000471802 0.000906916 -0.0002484)
(-0.000622118 0.00081121 -0.0002484)
(-0.000753532 0.000690857 -0.0002484)
(-0.00086205 0.000549513 -0.0002484)
(-0.000944376 0.000391471 -0.0002484)
(-0.000998007 0.000221534 -0.0002484)
(-0.00102131 4.48662e-05 -0.0002484)
(-0.00101359 -0.000133165 -0.0002484)
(-0.000975066 -0.00030715 -0.0002484)
(-0.000906916 -0.000471802 -0.0002484)
(-0.00081121 -0.000622118 -0.0002484)
(-0.000690857 -0.000753532 -0.0002484)
(-0.000549512 -0.00086205 -0.0002484)
(-0.000391471 -0.000944376 -0.0002484)
(-0.000221534 -0.000998007 -0.0002484)
(-4.48661e-05 -0.00102131 -0.0002484)
(0.000133165 -0.00101359 -0.0002484)
(0.00030715 -0.000975066 -0.0002484)
(0.000471802 -0.000906916 -0.0002484)
(0.000622118 -0.00081121 -0.0002484)
(0.000753532 -0.000690857 -0.0002484)
(0.00086205 -0.000549512 -0.0002484)
(0.000944376 -0.000391471 -0.0002484)
(0.000998007 -0.000221534 -0.0002484)
(0.00102131 -4.48661e-05 -0.0002484)
(0.00101359 0.000133165 -0.0002484)
(0.000975066 0.00030715 -0.0002484)
(0.000906916 0.000471802 -0.0002484)
(0.00081121 0.000622118 -0.0002484)
(0.000690857 0.000753532 -0.0002484)
(0.000549513 0.00086205 -0.0002484)
(0.000391471 0.000944376 -0.0002484)
(0.000221534 0.000998007 -0.0002484)
(4.48662e-05 0.00102131 -0.0002484)
(-0.000133165 0.00101359 -0.0002484)
(-0.00030715 0.000975066 -0.0002484)
(-0.000450085 0.0010228 -0.000167717)
(-0.000620854 0.000929109 -0.000167717)
(-0.00077276 0.000807184 -0.000167717)
(-0.000901185 0.000660732 -0.000167717)
(-0.00100223 0.000494205 -0.000167717)
(-0.00107282 0.000312661 -0.000167717)
(-0.00111082 0.000121617 -0.000167717)
(-0.00111506 -7.31212e-05 -0.000167717)
(-0.00108542 -0.000265639 -0.000167717)
(-0.0010228 -0.000450085 -0.000167717)
(-0.000929109 -0.000620854 -0.000167717)
(-0.000807183 -0.00077276 -0.000167717)
(-0.000660732 -0.000901185 -0.000167717)
(-0.000494205 -0.00100223 -0.000167717)
(-0.000312661 -0.00107282 -0.000167717)
(-0.000121617 -0.00111082 -0.000167717)
(7.31212e-05 -0.00111506 -0.000167717)
(0.000265639 -0.00108542 -0.000167717)
(0.000450085 -0.0010228 -0.000167717)
(0.000620854 -0.000929109 -0.000167717)
(0.00077276 -0.000807183 -0.000167717)
(0.000901185 -0.000660732 -0.000167717)
(0.00100223 -0.000494205 -0.000167717)
(0.00107282 -0.000312661 -0.000167717)
(0.00111082 -0.000121617 -0.000167717)
(0.00111506 7.31213e-05 -0.000167717)
(0.00108542 0.000265639 -0.000167717)
(0.0010228 0.000450085 -0.000167717)
(0.000929109 0.000620854 -0.000167717)
(0.000807184 0.00077276 -0.000167717)
(0.000660732 0.000901185 -0.000167717)
(0.000494205 0.00100223 -0.000167717)
(0.000312661 0.00107282 -0.000167717)
(0.000121617 0.00111082 -0.000167717)
(-7.31212e-05 0.00111506 -0.000167717)
(-0.000265639 0.00108542 -0.000167717)
(-0.000816418 0.00134237 -0.000619046)
(-0.00103711 0.00118021 -0.000619046)
(-0.0012263 0.000982185 -0.000619046)
(-0.00137822 0.000754319 -0.000619046)
(-0.00148827 0.000503534 -0.000619045)
(-0.0015531 0.000237449 -0.000619045)
(-0.00157074 -3.58519e-05 -0.000619045)
(-0.00154065 -0.000308063 -0.000619045)
(-0.00146375 -0.000570914 -0.000619046)
(-0.00134237 -0.000816418 -0.000619046)
(-0.00118021 -0.00103711 -0.000619046)
(-0.000982185 -0.0012263 -0.000619046)
(-0.000754319 -0.00137822 -0.000619046)
(-0.000503534 -0.00148827 -0.000619045)
(-0.000237449 -0.0015531 -0.000619045)
(3.5852e-05 -0.00157074 -0.000619045)
(0.000308063 -0.00154065 -0.000619045)
(0.000570914 -0.00146375 -0.000619046)
(0.000816418 -0.00134237 -0.000619046)
(0.00103711 -0.00118021 -0.000619046)
(0.0012263 -0.000982185 -0.000619046)
(0.00137822 -0.000754319 -0.000619046)
(0.00148827 -0.000503534 -0.000619045)
(0.0015531 -0.000237449 -0.000619045)
(0.00157074 3.5852e-05 -0.000619045)
(0.00154065 0.000308063 -0.000619045)
(0.00146375 0.000570914 -0.000619046)
(0.00134237 0.000816418 -0.000619046)
(0.00118021 0.00103711 -0.000619046)
(0.000982185 0.0012263 -0.000619046)
(0.000754319 0.00137822 -0.000619045)
(0.000503534 0.00148827 -0.000619045)
(0.000237449 0.0015531 -0.000619045)
(-3.58519e-05 0.00157074 -0.000619045)
(-0.000308063 0.00154065 -0.000619045)
(-0.000570914 0.00146375 -0.000619046)
(-0.000781794 0.00150252 -0.000493775)
(-0.00103083 0.00134394 -0.000493775)
(-0.00124854 0.00114452 -0.000493775)
(-0.00142831 0.000910328 -0.000493775)
(-0.00156469 0.000648474 -0.000493774)
(-0.00165353 0.000366915 -0.000493774)
(-0.00169212 7.4209e-05 -0.000493774)
(-0.0016793 -0.000220753 -0.000493774)
(-0.00161545 -0.000509006 -0.000493775)
(-0.00150252 -0.000781794 -0.000493775)
(-0.00134394 -0.00103083 -0.000493775)
(-0.00114452 -0.00124854 -0.000493775)
(-0.000910327 -0.00142831 -0.000493775)
(-0.000648473 -0.00156469 -0.000493774)
(-0.000366915 -0.00165353 -0.000493774)
(-7.42089e-05 -0.00169212 -0.000493774)
(0.000220753 -0.0016793 -0.000493775)
(0.000509006 -0.00161545 -0.000493775)
(0.000781794 -0.00150252 -0.000493775)
(0.00103083 -0.00134394 -0.000493775)
(0.00124854 -0.00114452 -0.000493775)
(0.00142831 -0.000910327 -0.000493775)
(0.00156469 -0.000648473 -0.000493774)
(0.00165353 -0.000366915 -0.000493774)
(0.00169212 -7.42089e-05 -0.000493774)
(0.0016793 0.000220753 -0.000493774)
(0.00161545 0.000509006 -0.000493775)
(0.00150252 0.000781794 -0.000493775)
(0.00134394 0.00103083 -0.000493775)
(0.00114452 0.00124854 -0.000493775)
(0.000910328 0.00142831 -0.000493774)
(0.000648474 0.00156469 -0.000493774)
(0.000366915 0.00165353 -0.000493774)
(7.4209e-05 0.00169212 -0.000493774)
(-0.000220753 0.0016793 -0.000493774)
(-0.000509006 0.00161545 -0.000493775)
(-0.000778501 0.00165172 -0.000372329)
(-0.00105349 0.00149144 -0.000372329)
(-0.00129647 0.00128585 -0.000372329)
(-0.00150006 0.00104118 -0.000372329)
(-0.00165807 0.00076488 -0.000372329)
(-0.0017657 0.000465338 -0.000372329)
(-0.00181968 0.000151658 -0.000372329)
(-0.00181837 -0.00016663 -0.000372329)
(-0.00176181 -0.000479855 -0.000372329)
(-0.00165172 -0.000778501 -0.000372329)
(-0.00149144 -0.00105349 -0.000372329)
(-0.00128585 -0.00129647 -0.000372329)
(-0.00104118 -0.00150006 -0.000372329)
(-0.00076488 -0.00165807 -0.000372329)
(-0.000465338 -0.0017657 -0.000372329)
(-0.000151658 -0.00181968 -0.000372329)
(0.00016663 -0.00181837 -0.000372329)
(0.000479855 -0.00176181 -0.000372329)
(0.000778501 -0.00165172 -0.000372329)
(0.00105349 -0.00149144 -0.000372329)
(0.00129647 -0.00128585 -0.000372329)
(0.00150006 -0.00104118 -0.000372329)
(0.00165807 -0.00076488 -0.000372329)
(0.0017657 -0.000465338 -0.000372329)
(0.00181968 -0.000151658 -0.000372329)
(0.00181837 0.00016663 -0.000372329)
(0.00176181 0.000479856 -0.000372329)
(0.00165172 0.000778501 -0.000372329)
(0.00149144 0.00105349 -0.000372329)
(0.00128585 0.00129647 -0.000372329)
(0.00104118 0.00150006 -0.000372329)
(0.00076488 0.00165807 -0.000372329)
(0.000465338 0.0017657 -0.000372329)
(0.000151658 0.00181968 -0.000372329)
(-0.00016663 0.00181837 -0.000372329)
(-0.000479855 0.00176181 -0.000372329)
(-0.00109915 0.00190511 -0.000953553)
(-0.00141327 0.0016853 -0.000953554)
(-0.00168445 0.00141429 -0.000953553)
(-0.00190445 0.0011003 -0.000953553)
(-0.00206658 0.00075288 -0.000953553)
(-0.00216592 0.000382584 -0.000953552)
(-0.00219945 6.63985e-07 -0.000953552)
(-0.00216615 -0.000381277 -0.000953552)
(-0.00206703 -0.000751632 -0.000953553)
(-0.00190511 -0.00109915 -0.000953553)
(-0.0016853 -0.00141327 -0.000953554)
(-0.00141429 -0.00168445 -0.000953553)
(-0.0011003 -0.00190445 -0.000953553)
(-0.00075288 -0.00206658 -0.000953553)
(-0.000382584 -0.00216592 -0.000953552)
(-6.63872e-07 -0.00219945 -0.000953552)
(0.000381277 -0.00216615 -0.000953552)
(0.000751632 -0.00206703 -0.000953553)
(0.00109915 -0.00190511 -0.000953553)
(0.00141327 -0.0016853 -0.000953554)
(0.00168445 -0.00141429 -0.000953553)
(0.00190445 -0.0011003 -0.000953553)
(0.00206658 -0.00075288 -0.000953553)
(0.00216592 -0.000382584 -0.000953552)
(0.00219945 -6.63875e-07 -0.000953552)
(0.00216615 0.000381277 -0.000953552)
(0.00206703 0.000751632 -0.000953553)
(0.00190511 0.00109915 -0.000953553)
(0.0016853 0.00141327 -0.000953554)
(0.00141429 0.00168445 -0.000953553)
(0.0011003 0.00190445 -0.000953553)
(0.00075288 0.00206658 -0.000953553)
(0.000382584 0.00216592 -0.000953552)
(6.63986e-07 0.00219945 -0.000953552)
(-0.000381277 0.00216615 -0.000953552)
(-0.000751632 0.00206703 -0.000953553)
(-0.00108327 0.00207765 -0.000795658)
(-0.00142759 0.00185798 -0.000795658)
(-0.00172854 0.00158185 -0.000795658)
(-0.00197696 0.00125766 -0.000795658)
(-0.00216532 0.000895262 -0.000795658)
(-0.00228789 0.000505656 -0.000795657)
(-0.00234093 0.000100687 -0.000795657)
(-0.00232285 -0.000307342 -0.000795657)
(-0.0022342 -0.000706033 -0.000795658)
(-0.00207765 -0.00108327 -0.000795658)
(-0.00185798 -0.00142759 -0.000795658)
(-0.00158185 -0.00172854 -0.000795658)
(-0.00125766 -0.00197696 -0.000795658)
(-0.000895261 -0.00216532 -0.000795658)
(-0.000505656 -0.00228789 -0.000795658)
(-0.000100687 -0.00234093 -0.000795657)
(0.000307342 -0.00232285 -0.000795658)
(0.000706033 -0.0022342 -0.000795658)
(0.00108327 -0.00207765 -0.000795658)
(0.00142759 -0.00185798 -0.000795658)
(0.00172854 -0.00158185 -0.000795658)
(0.00197697 -0.00125766 -0.000795658)
(0.00216532 -0.000895261 -0.000795658)
(0.00228789 -0.000505656 -0.000795657)
(0.00234093 -0.000100687 -0.000795657)
(0.00232285 0.000307342 -0.000795657)
(0.0022342 0.000706033 -0.000795658)
(0.00207765 0.00108327 -0.000795658)
(0.00185798 0.00142759 -0.000795658)
(0.00158185 0.00172854 -0.000795658)
(0.00125766 0.00197697 -0.000795658)
(0.000895262 0.00216532 -0.000795658)
(0.000505656 0.00228789 -0.000795657)
(0.000100687 0.00234093 -0.000795657)
(-0.000307342 0.00232285 -0.000795657)
(-0.000706033 0.0022342 -0.000795658)
(-0.00110147 0.00223122 -0.000643676)
(-0.00147218 0.00200606 -0.000643676)
(-0.00179816 0.00171994 -0.000643676)
(-0.00206951 0.00138156 -0.000643676)
(-0.00227797 0.00100121 -0.000643676)
(-0.00241722 0.00059043 -0.000643676)
(-0.00248303 0.000161713 -0.000643676)
(-0.00247339 -0.000271917 -0.000643676)
(-0.00238859 -0.000697286 -0.000643676)
(-0.00223122 -0.00110147 -0.000643676)
(-0.00200606 -0.00147218 -0.000643676)
(-0.00171994 -0.00179816 -0.000643676)
(-0.00138156 -0.00206951 -0.000643676)
(-0.00100121 -0.00227797 -0.000643676)
(-0.00059043 -0.00241722 -0.000643676)
(-0.000161713 -0.00248303 -0.000643676)
(0.000271917 -0.00247339 -0.000643676)
(0.000697286 -0.00238859 -0.000643676)
(0.00110147 -0.00223122 -0.000643676)
(0.00147218 -0.00200606 -0.000643676)
(0.00179816 -0.00171994 -0.000643676)
(0.00206951 -0.00138156 -0.000643676)
(0.00227797 -0.00100121 -0.000643676)
(0.00241722 -0.00059043 -0.000643676)
(0.00248303 -0.000161713 -0.000643676)
(0.00247339 0.000271917 -0.000643676)
(0.00238859 0.000697286 -0.000643676)
(0.00223122 0.00110147 -0.000643676)
(0.00200606 0.00147218 -0.000643676)
(0.00171994 0.00179816 -0.000643676)
(0.00138156 0.00206951 -0.000643676)
(0.00100121 0.00227797 -0.000643676)
(0.00059043 0.00241722 -0.000643676)
(0.000161713 0.00248303 -0.000643676)
(-0.000271917 0.00247339 -0.000643676)
(-0.000697286 0.00238859 -0.000643676)
(-0.00137805 0.00246557 -0.00132319)
(-0.00178525 0.00218882 -0.00132319)
(-0.00213822 0.00184556 -0.00132319)
(-0.00242621 0.00144622 -0.00132319)
(-0.00264048 0.00100294 -0.00132319)
(-0.00277453 0.000529193 -0.00132319)
(-0.00282427 3.93615e-05 -0.00132319)
(-0.0027882 -0.000451667 -0.00132319)
(-0.00266741 -0.00092897 -0.00132319)
(-0.00246557 -0.00137805 -0.00132319)
(-0.00218882 -0.00178525 -0.0013232)
(-0.00184556 -0.00213822 -0.00132319)
(-0.00144622 -0.00242621 -0.00132319)
(-0.00100294 -0.00264048 -0.00132319)
(-0.000529192 -0.00277453 -0.00132319)
(-3.93613e-05 -0.00282427 -0.00132319)
(0.000451667 -0.0027882 -0.00132319)
(0.00092897 -0.00266741 -0.00132319)
(0.00137805 -0.00246557 -0.00132319)
(0.00178525 -0.00218882 -0.0013232)
(0.00213822 -0.00184556 -0.00132319)
(0.00242621 -0.00144622 -0.00132319)
(0.00264048 -0.00100294 -0.00132319)
(0.00277453 -0.000529193 -0.00132319)
(0.00282427 -3.93614e-05 -0.00132319)
(0.0027882 0.000451667 -0.00132319)
(0.00266741 0.00092897 -0.00132319)
(0.00246557 0.00137805 -0.00132319)
(0.00218882 0.00178525 -0.00132319)
(0.00184556 0.00213822 -0.00132319)
(0.00144622 0.00242621 -0.00132319)
(0.00100294 0.00264048 -0.00132319)
(0.000529193 0.00277453 -0.00132319)
(3.93615e-05 0.00282427 -0.00132319)
(-0.000451667 0.0027882 -0.00132319)
(-0.00092897 0.00266741 -0.00132319)
(-0.00137855 0.00261954 -0.00114166)
(-0.00181248 0.00234036 -0.00114166)
(-0.00219134 0.00199007 -0.00114166)
(-0.00250363 0.00157932 -0.00114166)
(-0.00273984 0.00112057 -0.00114166)
(-0.0028928 0.000627783 -0.00114166)
(-0.00295786 0.000115916 -0.00114166)
(-0.00293305 -0.000399472 -0.00114166)
(-0.00281913 -0.000902723 -0.00114166)
(-0.00261954 -0.00137855 -0.00114166)
(-0.00234036 -0.00181248 -0.00114166)
(-0.00199007 -0.00219134 -0.00114166)
(-0.00157932 -0.00250363 -0.00114166)
(-0.00112057 -0.00273984 -0.00114166)
(-0.000627783 -0.0028928 -0.00114166)
(-0.000115916 -0.00295786 -0.00114166)
(0.000399472 -0.00293305 -0.00114166)
(0.000902723 -0.00281913 -0.00114166)
(0.00137855 -0.00261954 -0.00114166)
(0.00181248 -0.00234036 -0.00114166)
(0.00219134 -0.00199007 -0.00114166)
(0.00250363 -0.00157932 -0.00114166)
(0.00273984 -0.00112057 -0.00114166)
(0.0028928 -0.000627783 -0.00114166)
(0.00295786 -0.000115916 -0.00114166)
(0.00293305 0.000399472 -0.00114166)
(0.00281913 0.000902723 -0.00114166)
(0.00261954 0.00137855 -0.00114166)
(0.00234036 0.00181248 -0.00114166)
(0.00199007 0.00219134 -0.00114166)
(0.00157932 0.00250363 -0.00114166)
(0.00112057 0.00273984 -0.00114166)
(0.000627783 0.0028928 -0.00114166)
(0.000115916 0.00295786 -0.00114166)
(-0.000399472 0.00293305 -0.00114166)
(-0.000902723 0.00281913 -0.00114166)
(-0.001414 0.00274709 -0.000968197)
(-0.00186954 0.00245982 -0.000968197)
(-0.00226828 0.00209781 -0.000968197)
(-0.0025981 0.00167205 -0.000968197)
(-0.00284898 0.0011955 -0.000968197)
(-0.00301329 0.000682615 -0.000968197)
(-0.00308605 0.000148991 -0.000968197)
(-0.00306504 -0.000389159 -0.000968197)
(-0.00295089 -0.000915485 -0.000968197)
(-0.00274709 -0.001414 -0.000968197)
(-0.00245982 -0.00186954 -0.000968197)
(-0.00209781 -0.00226828 -0.000968197)
(-0.00167205 -0.0025981 -0.000968197)
(-0.0011955 -0.00284898 -0.000968197)
(-0.000682614 -0.00301329 -0.000968197)
(-0.000148991 -0.00308605 -0.000968197)
(0.00038916 -0.00306504 -0.000968197)
(0.000915485 -0.00295089 -0.000968197)
(0.001414 -0.00274709 -0.000968197)
(0.00186954 -0.00245982 -0.000968197)
(0.00226828 -0.00209781 -0.000968197)
(0.0025981 -0.00167205 -0.000968197)
(0.00284898 -0.0011955 -0.000968197)
(0.00301329 -0.000682614 -0.000968197)
(0.00308605 -0.000148991 -0.000968197)
(0.00306504 0.00038916 -0.000968197)
(0.00295089 0.000915485 -0.000968197)
(0.00274709 0.001414 -0.000968197)
(0.00245982 0.00186954 -0.000968197)
(0.00209781 0.00226828 -0.000968197)
(0.00167205 0.0025981 -0.000968197)
(0.0011955 0.00284898 -0.000968197)
(0.000682615 0.00301329 -0.000968197)
(0.000148991 0.00308605 -0.000968197)
(-0.000389159 0.00306504 -0.000968197)
(-0.000915485 0.00295089 -0.000968197)
(-0.00166167 0.00300542 -0.00171945)
(-0.00215831 0.00267121 -0.00171945)
(-0.00258937 0.00225584 -0.00171945)
(-0.00294175 0.00177193 -0.00171945)
(-0.00320476 0.00123418 -0.00171945)
(-0.00337038 0.000658933 -0.00171945)
(-0.0034336 6.36614e-05 -0.00171945)
(-0.00339249 -0.000533545 -0.00171945)
(-0.0032483 -0.00111454 -0.00171945)
(-0.00300542 -0.00166167 -0.00171945)
(-0.00267121 -0.00215831 -0.00171945)
(-0.00225584 -0.00258937 -0.00171945)
(-0.00177193 -0.00294175 -0.00171945)
(-0.00123418 -0.00320476 -0.00171945)
(-0.000658932 -0.00337038 -0.00171945)
(-6.36613e-05 -0.0034336 -0.00171945)
(0.000533545 -0.00339249 -0.00171945)
(0.00111454 -0.0032483 -0.00171945)
(0.00166167 -0.00300542 -0.00171945)
(0.00215831 -0.00267121 -0.00171945)
(0.00258937 -0.00225584 -0.00171945)
(0.00294176 -0.00177193 -0.00171945)
(0.00320476 -0.00123418 -0.00171945)
(0.00337038 -0.000658933 -0.00171945)
(0.0034336 -6.36613e-05 -0.00171945)
(0.00339249 0.000533545 -0.00171945)
(0.0032483 0.00111454 -0.00171945)
(0.00300542 0.00166167 -0.00171945)
(0.00267121 0.00215831 -0.00171945)
(0.00225584 0.00258937 -0.00171945)
(0.00177193 0.00294176 -0.00171945)
(0.00123418 0.00320476 -0.00171945)
(0.000658933 0.00337038 -0.00171945)
(6.36615e-05 0.0034336 -0.00171945)
(-0.000533545 0.00339249 -0.00171945)
(-0.00111454 0.0032483 -0.00171945)
(-0.0016708 0.00311365 -0.00152013)
(-0.0021861 0.00277622 -0.00152013)
(-0.00263497 0.00235443 -0.00152013)
(-0.00300378 0.0018611 -0.00152013)
(-0.00328132 0.00131123 -0.00152013)
(-0.00345916 0.000721511 -0.00152013)
(-0.0035319 0.000109872 -0.00152013)
(-0.00349732 -0.000505105 -0.00152013)
(-0.00335648 -0.00110474 -0.00152013)
(-0.00311365 -0.0016708 -0.00152013)
(-0.00277622 -0.0021861 -0.00152013)
(-0.00235443 -0.00263497 -0.00152013)
(-0.0018611 -0.00300378 -0.00152013)
(-0.00131123 -0.00328132 -0.00152013)
(-0.000721511 -0.00345916 -0.00152013)
(-0.000109872 -0.0035319 -0.00152013)
(0.000505105 -0.00349732 -0.00152013)
(0.00110474 -0.00335648 -0.00152013)
(0.0016708 -0.00311365 -0.00152013)
(0.0021861 -0.00277622 -0.00152013)
(0.00263497 -0.00235443 -0.00152013)
(0.00300378 -0.0018611 -0.00152013)
(0.00328132 -0.00131123 -0.00152013)
(0.00345916 -0.000721511 -0.00152013)
(0.0035319 -0.000109872 -0.00152013)
(0.00349732 0.000505105 -0.00152013)
(0.00335648 0.00110474 -0.00152013)
(0.00311365 0.0016708 -0.00152013)
(0.00277622 0.0021861 -0.00152013)
(0.00235443 0.00263497 -0.00152013)
(0.0018611 0.00300378 -0.00152013)
(0.00131123 0.00328132 -0.00152013)
(0.000721511 0.00345916 -0.00152013)
(0.000109872 0.0035319 -0.00152013)
(-0.000505105 0.00349732 -0.00152013)
(-0.00110474 0.00335648 -0.00152013)
(-0.0017136 0.00318992 -0.00133075)
(-0.00224149 0.00284389 -0.00133075)
(-0.00270127 0.00241146 -0.00133075)
(-0.00307898 0.00190575 -0.00133075)
(-0.00336313 0.00134214 -0.00133075)
(-0.0035451 0.000737746 -0.00133075)
(-0.00361935 0.000110939 -0.00133075)
(-0.00358363 -0.00051924 -0.00133075)
(-0.00343902 -0.00113364 -0.00133075)
(-0.00318992 -0.0017136 -0.00133075)
(-0.00284389 -0.00224149 -0.00133075)
(-0.00241146 -0.00270127 -0.00133075)
(-0.00190575 -0.00307898 -0.00133075)
(-0.00134214 -0.00336313 -0.00133075)
(-0.000737746 -0.0035451 -0.00133075)
(-0.000110939 -0.00361935 -0.00133075)
(0.000519241 -0.00358363 -0.00133075)
(0.00113364 -0.00343902 -0.00133075)
(0.0017136 -0.00318992 -0.00133075)
(0.00224149 -0.00284389 -0.00133075)
(0.00270127 -0.00241146 -0.00133075)
(0.00307898 -0.00190575 -0.00133075)
(0.00336313 -0.00134214 -0.00133075)
(0.0035451 -0.000737746 -0.00133075)
(0.00361935 -0.000110939 -0.00133075)
(0.00358363 0.000519241 -0.00133075)
(0.00343902 0.00113364 -0.00133075)
(0.00318992 0.0017136 -0.00133075)
(0.00284389 0.00224149 -0.00133075)
(0.00241146 0.00270127 -0.00133075)
(0.00190575 0.00307898 -0.00133075)
(0.00134214 0.00336313 -0.00133075)
(0.000737746 0.0035451 -0.00133075)
(0.000110939 0.00361935 -0.00133075)
(-0.00051924 0.00358363 -0.00133075)
(-0.00113364 0.00343902 -0.00133075)
(-0.00195309 0.00349884 -0.00213584)
(-0.00253099 0.00310654 -0.00213584)
(-0.00303198 0.00261984 -0.00213584)
(-0.00344085 0.00205354 -0.00213584)
(-0.00374517 0.00142484 -0.00213584)
(-0.00393569 0.000752856 -0.00213584)
(-0.00400663 5.79927e-05 -0.00213584)
(-0.00395583 -0.000638633 -0.00213584)
(-0.00378484 -0.00131585 -0.00213584)
(-0.00349884 -0.00195309 -0.00213584)
(-0.00310654 -0.00253099 -0.00213584)
(-0.00261984 -0.00303198 -0.00213584)
(-0.00205354 -0.00344085 -0.00213584)
(-0.00142484 -0.00374517 -0.00213584)
(-0.000752855 -0.00393569 -0.00213584)
(-5.79925e-05 -0.00400663 -0.00213584)
(0.000638634 -0.00395583 -0.00213584)
(0.00131585 -0.00378484 -0.00213584)
(0.00195309 -0.00349884 -0.00213584)
(0.00253099 -0.00310654 -0.00213584)
(0.00303198 -0.00261984 -0.00213584)
(0.00344085 -0.00205354 -0.00213584)
(0.00374517 -0.00142484 -0.00213584)
(0.00393569 -0.000752855 -0.00213584)
(0.00400663 -5.79925e-05 -0.00213584)
(0.00395583 0.000638634 -0.00213584)
(0.00378484 0.00131585 -0.00213584)
(0.00349884 0.00195309 -0.00213584)
(0.00310654 0.00253099 -0.00213584)
(0.00261984 0.00303198 -0.00213584)
(0.00205354 0.00344085 -0.00213584)
(0.00142484 0.00374517 -0.00213584)
(0.000752856 0.00393569 -0.00213584)
(5.79927e-05 0.00400663 -0.00213584)
(-0.000638633 0.00395583 -0.00213584)
(-0.00131585 0.00378484 -0.00213584)
(-0.00196009 0.00354159 -0.00192087)
(-0.0025453 0.00314742 -0.00192087)
(-0.00305318 0.00265762 -0.00192087)
(-0.00346829 0.00208706 -0.00192087)
(-0.00377801 0.0014531 -0.00192087)
(-0.00397294 0.000774977 -0.00192087)
(-0.00404715 7.33089e-05 -0.00192087)
(-0.0039984 -0.000630586 -0.00192087)
(-0.00382815 -0.00131532 -0.00192087)
(-0.00354159 -0.00196009 -0.00192087)
(-0.00314742 -0.0025453 -0.00192087)
(-0.00265762 -0.00305318 -0.00192087)
(-0.00208706 -0.00346829 -0.00192087)
(-0.0014531 -0.00377801 -0.00192087)
(-0.000774977 -0.00397294 -0.00192087)
(-7.33087e-05 -0.00404715 -0.00192087)
(0.000630586 -0.0039984 -0.00192087)
(0.00131532 -0.00382815 -0.00192087)
(0.00196009 -0.00354159 -0.00192087)
(0.0025453 -0.00314742 -0.00192087)
(0.00305318 -0.00265762 -0.00192087)
(0.00346829 -0.00208706 -0.00192087)
(0.00377801 -0.0014531 -0.00192087)
(0.00397294 -0.000774977 -0.00192087)
(0.00404715 -7.33088e-05 -0.00192087)
(0.0039984 0.000630586 -0.00192087)
(0.00382815 0.00131532 -0.00192087)
(0.00354159 0.00196009 -0.00192087)
(0.00314742 0.0025453 -0.00192087)
(0.00265762 0.00305318 -0.00192087)
(0.00208706 0.00346829 -0.00192087)
(0.0014531 0.00377801 -0.00192087)
(0.000774977 0.00397294 -0.00192087)
(7.33089e-05 0.00404715 -0.00192087)
(-0.000630586 0.0039984 -0.00192087)
(-0.00131532 0.00382816 -0.00192087)
(-0.00199736 0.00354995 -0.00171748)
(-0.00258346 0.00314918 -0.00171748)
(-0.00309106 0.00265272 -0.00171748)
(-0.00350474 0.00207566 -0.00171748)
(-0.00381193 0.00143554 -0.00171748)
(-0.00400329 0.000751797 -0.00171748)
(-0.00407302 4.52108e-05 -0.00171748)
(-0.00401899 -0.000662749 -0.00171748)
(-0.00384285 -0.00135057 -0.00171748)
(-0.00354995 -0.00199736 -0.00171748)
(-0.00314918 -0.00258346 -0.00171748)
(-0.00265272 -0.00309106 -0.00171748)
(-0.00207566 -0.00350474 -0.00171748)
(-0.00143554 -0.00381193 -0.00171748)
(-0.000751797 -0.00400329 -0.00171748)
(-4.52106e-05 -0.00407302 -0.00171748)
(0.000662749 -0.00401899 -0.00171748)
(0.00135057 -0.00384285 -0.00171748)
(0.00199736 -0.00354995 -0.00171748)
(0.00258346 -0.00314918 -0.00171748)
(0.00309106 -0.00265272 -0.00171748)
(0.00350474 -0.00207566 -0.00171748)
(0.00381193 -0.00143554 -0.00171748)
(0.00400329 -0.000751797 -0.00171748)
(0.00407302 -4.52107e-05 -0.00171748)
(0.00401899 0.000662749 -0.00171748)
(0.00384285 0.00135057 -0.00171748)
(0.00354995 0.00199736 -0.00171748)
(0.00314918 0.00258346 -0.00171748)
(0.00265272 0.00309106 -0.00171748)
(0.00207566 0.00350474 -0.00171748)
(0.00143554 0.00381193 -0.00171748)
(0.000751797 0.00400329 -0.00171748)
(4.52108e-05 0.00407302 -0.00171748)
(-0.000662749 0.00401899 -0.00171748)
(-0.00135057 0.00384285 -0.00171748)
(-0.00224497 0.00391415 -0.00256407)
(-0.00289054 0.00346485 -0.00256407)
(-0.0034483 0.00291027 -0.00256407)
(-0.00390127 0.00226727 -0.00256407)
(-0.00423571 0.00155537 -0.00256407)
(-0.00444145 0.000796221 -0.00256407)