/*--------------------------------*- C++ -*----------------------------------*\
| =========                 |                                                 |
| \\      /  F ield         | OpenFOAM: The Open Source CFD Toolbox           |
|  \\    /   O peration     | Version:  2312                                  |
|   \\  /    A nd           | Website:  www.openfoam.com                      |
|    \\/     M anipulation  |                                                 |
\*---------------------------------------------------------------------------*/
FoamFile
{
    version     2.0;
    format      ascii;
    arch        "LSB;label=32;scalar=64";
    class       volTensorField;
    location    "0.5";
    object      F;
}
// * * * * * * * * * * * * * * * * * * * * * * * * * * * * * * * * * * * * * //

dimensions      [0 0 0 0 0 0 0];

internalField   nonuniform List<tensor> 
1620
(
(0.939111 -0.0307548 0.153153 -0.0657163 0.970279 -0.285493 -0.0377694 -0.00330454 1.1159)
(0.956548 -0.0331759 0.200401 -0.0681376 0.952841 -0.254561 -0.0366221 -0.0098129 1.1159)
(0.973762 -0.0294872 0.241561 -0.0644489 0.935628 -0.215895 -0.0343616 -0.0160229 1.1159)
(0.988676 -0.0201333 0.275381 -0.0550948 0.920714 -0.170668 -0.031057 -0.0217463 1.1159)
(0.999492 -0.00624244 0.300834 -0.041204 0.909898 -0.120256 -0.0268091 -0.0268092 1.1159)
(1.0049 0.0105095 0.317145 -0.024452 0.904486 -0.0661902 -0.0217466 -0.0310571 1.1159)
(1.00426 0.0281022 0.323821 -0.00685916 0.90513 -0.0101127 -0.0160231 -0.0343613 1.1159)
(0.997638 0.044414 0.320657 0.00945264 0.911752 0.0462719 -0.00981272 -0.0366217 1.1159)
(0.985837 0.0574773 0.307751 0.0225158 0.923553 0.101251 -0.00330433 -0.0377693 1.1159)
(0.970279 0.0657163 0.285493 0.0307548 0.939111 0.153153 0.00330454 -0.0377694 1.1159)
(0.952841 0.0681376 0.254561 0.0331759 0.956548 0.200401 0.0098129 -0.036622 1.1159)
(0.935628 0.0644489 0.215895 0.0294872 0.973762 0.241561 0.0160229 -0.0343616 1.1159)
(0.920714 0.0550948 0.170668 0.0201333 0.988676 0.275381 0.0217463 -0.031057 1.1159)
(0.909898 0.041204 0.120256 0.00624244 0.999492 0.300834 0.0268092 -0.0268091 1.1159)
(0.904486 0.024452 0.0661901 -0.0105095 1.0049 0.317145 0.0310571 -0.0217466 1.1159)
(0.90513 0.00685916 0.0101127 -0.0281022 1.00426 0.323821 0.0343613 -0.0160231 1.1159)
(0.911752 -0.00945264 -0.0462719 -0.044414 0.997638 0.320657 0.0366217 -0.00981272 1.1159)
(0.923553 -0.0225158 -0.101251 -0.0574773 0.985837 0.307751 0.0377693 -0.00330433 1.1159)
(0.939111 -0.0307548 -0.153153 -0.0657163 0.970279 0.285493 0.0377694 0.00330454 1.1159)
(0.956548 -0.0331759 -0.200401 -0.0681376 0.952841 0.254561 0.036622 0.0098129 1.1159)
(0.973762 -0.0294872 -0.241561 -0.0644489 0.935628 0.215895 0.0343616 0.0160229 1.1159)
(0.988676 -0.0201333 -0.275381 -0.0550948 0.920714 0.170668 0.031057 0.0217463 1.1159)
(0.999492 -0.00624244 -0.300834 -0.041204 0.909898 0.120256 0.0268091 0.0268092 1.1159)
(1.0049 0.0105095 -0.317145 -0.024452 0.904486 0.0661901 0.0217466 0.0310571 1.1159)
(1.00426 0.0281022 -0.323821 -0.00685916 0.90513 0.0101127 0.0160231 0.0343613 1.1159)
(0.997638 0.044414 -0.320657 0.00945264 0.911752 -0.0462719 0.00981272 0.0366217 1.1159)
(0.985837 0.0574773 -0.307751 0.0225158 0.923553 -0.101251 0.00330433 0.0377693 1.1159)
(0.970279 0.0657163 -0.285493 0.0307548 0.939111 -0.153153 -0.00330454 0.0377694 1.1159)
(0.952841 0.0681376 -0.254561 0.0331759 0.956548 -0.200401 -0.0098129 0.036622 1.1159)
(0.935628 0.0644489 -0.215895 0.0294872 0.973762 -0.241561 -0.0160229 0.0343616 1.1159)
(0.920714 0.0550948 -0.170668 0.0201333 0.988676 -0.275381 -0.0217463 0.031057 1.1159)
(0.909898 0.041204 -0.120256 0.00624244 0.999492 -0.300834 -0.0268092 0.0268091 1.1159)
(0.904486 0.024452 -0.0661902 -0.0105095 1.0049 -0.317145 -0.0310571 0.0217465 1.1159)
(0.90513 0.00685915 -0.0101127 -0.0281022 1.00426 -0.323821 -0.0343613 0.0160231 1.1159)
(0.911752 -0.00945265 0.0462719 -0.044414 0.997638 -0.320657 -0.0366217 0.00981272 1.1159)
(0.923553 -0.0225158 0.101251 -0.0574773 0.985837 -0.307751 -0.0377693 0.00330433 1.1159)
(0.95118 -0.0411429 0.160519 -0.0672368 0.974923 -0.318198 -0.0333419 -0.00291707 1.09056)
(0.97043 -0.0419351 0.213335 -0.0680292 0.955673 -0.28549 -0.032329 -0.00866257 1.09056)
(0.98879 -0.0360958 0.259669 -0.06219 0.937313 -0.244108 -0.0303335 -0.0141447 1.09056)
(1.00405 -0.0243292 0.298113 -0.0504231 0.922058 -0.195308 -0.0274164 -0.0191971 1.09056)
(1.01436 -0.00805427 0.327499 -0.0341482 0.911747 -0.140574 -0.0236665 -0.0236665 1.09056)
(1.01848 0.0107657 0.346934 -0.0153282 0.907624 -0.081569 -0.0191973 -0.0274165 1.09056)
(1.01592 0.0298607 0.355827 0.00376692 0.910186 -0.0200855 -0.0141447 -0.0303334 1.09056)
(1.00698 0.0469278 0.353909 0.0208341 0.919125 0.0420085 -0.00866242 -0.0323287 1.09056)
(0.992741 0.0599084 0.341238 0.0338146 0.933362 0.102826 -0.00291701 -0.0333418 1.09056)
(0.974923 0.0672368 0.318198 0.0411429 0.95118 0.160519 0.00291707 -0.0333419 1.09056)
(0.955673 0.0680292 0.28549 0.0419351 0.97043 0.213335 0.00866257 -0.032329 1.09056)
(0.937313 0.06219 0.244108 0.0360959 0.98879 0.259669 0.0141447 -0.0303335 1.09056)
(0.922058 0.0504231 0.195308 0.0243292 1.00405 0.298113 0.0191971 -0.0274164 1.09056)
(0.911747 0.0341482 0.140574 0.00805427 1.01436 0.327499 0.0236665 -0.0236665 1.09056)
(0.907624 0.0153282 0.081569 -0.0107657 1.01848 0.346934 0.0274165 -0.0191973 1.09056)
(0.910186 -0.00376692 0.0200855 -0.0298607 1.01592 0.355827 0.0303334 -0.0141447 1.09056)
(0.919125 -0.0208341 -0.0420085 -0.0469278 1.00698 0.353909 0.0323287 -0.00866242 1.09056)
(0.933362 -0.0338146 -0.102826 -0.0599084 0.992741 0.341238 0.0333418 -0.00291701 1.09056)
(0.95118 -0.0411429 -0.160519 -0.0672368 0.974923 0.318198 0.0333419 0.00291707 1.09056)
(0.97043 -0.0419351 -0.213335 -0.0680292 0.955673 0.28549 0.032329 0.00866257 1.09056)
(0.98879 -0.0360959 -0.259669 -0.06219 0.937313 0.244108 0.0303335 0.0141447 1.09056)
(1.00405 -0.0243292 -0.298113 -0.0504231 0.922058 0.195308 0.0274164 0.0191971 1.09056)
(1.01436 -0.00805427 -0.327499 -0.0341482 0.911747 0.140574 0.0236665 0.0236665 1.09056)
(1.01848 0.0107657 -0.346934 -0.0153282 0.907624 0.081569 0.0191973 0.0274165 1.09056)
(1.01592 0.0298607 -0.355827 0.00376692 0.910186 0.0200855 0.0141447 0.0303334 1.09056)
(1.00698 0.0469278 -0.353909 0.0208341 0.919125 -0.0420085 0.00866242 0.0323287 1.09056)
(0.992741 0.0599084 -0.341238 0.0338146 0.933362 -0.102826 0.00291701 0.0333418 1.09056)
(0.974923 0.0672368 -0.318198 0.0411429 0.95118 -0.160519 -0.00291707 0.0333419 1.09056)
(0.955673 0.0680292 -0.28549 0.0419351 0.97043 -0.213335 -0.00866257 0.032329 1.09056)
(0.937313 0.06219 -0.244108 0.0360958 0.98879 -0.259669 -0.0141447 0.0303335 1.09056)
(0.922058 0.0504231 -0.195308 0.0243292 1.00405 -0.298113 -0.0191971 0.0274164 1.09056)
(0.911747 0.0341482 -0.140574 0.00805427 1.01436 -0.327499 -0.0236665 0.0236665 1.09056)
(0.907624 0.0153282 -0.081569 -0.0107657 1.01848 -0.346934 -0.0274165 0.0191973 1.09056)
(0.910186 -0.00376693 -0.0200855 -0.0298607 1.01592 -0.355827 -0.0303334 0.0141447 1.09056)
(0.919125 -0.0208341 0.0420085 -0.0469278 1.00698 -0.353909 -0.0323287 0.00866242 1.09056)
(0.933362 -0.0338146 0.102826 -0.0599084 0.992741 -0.341238 -0.0333418 0.00291701 1.09056)
(0.964761 -0.0546786 0.171268 -0.0675378 0.977764 -0.348716 -0.0282357 -0.00247024 1.06194)
(0.986053 -0.053217 0.22922 -0.0660763 0.956472 -0.313678 -0.0273779 -0.0073359 1.06194)
(1.00556 -0.0445612 0.280207 -0.0574205 0.936964 -0.269109 -0.025688 -0.0119786 1.06194)
(1.02093 -0.0297552 0.32268 -0.0426143 0.921592 -0.216363 -0.0232177 -0.0162571 1.06194)
(1.03031 -0.0105847 0.355349 -0.0234438 0.912212 -0.157043 -0.020042 -0.020042 1.06194)
(1.03257 0.010638 0.377221 -0.00222093 0.909954 -0.0929516 -0.0162572 -0.0232177 1.06194)
(1.02743 0.0313529 0.387631 0.018494 0.915091 -0.0260357 -0.0119784 -0.0256879 1.06194)
(1.01552 0.049062 0.386263 0.036203 0.927002 0.0416712 -0.00733577 -0.0273776 1.06194)
(0.998272 0.0616288 0.373159 0.0487698 0.944253 0.108112 -0.00247034 -0.0282356 1.06194)
(0.977764 0.0675378 0.348716 0.0546786 0.964761 0.171268 0.00247024 -0.0282357 1.06194)
(0.956472 0.0660763 0.313678 0.053217 0.986053 0.22922 0.0073359 -0.0273779 1.06194)
(0.936964 0.0574205 0.269109 0.0445612 1.00556 0.280207 0.0119786 -0.025688 1.06194)
(0.921592 0.0426143 0.216363 0.0297552 1.02093 0.32268 0.0162571 -0.0232177 1.06194)
(0.912212 0.0234438 0.157043 0.0105847 1.03031 0.355349 0.020042 -0.020042 1.06194)
(0.909954 0.00222093 0.0929516 -0.010638 1.03257 0.377221 0.0232177 -0.0162572 1.06194)
(0.915091 -0.018494 0.0260357 -0.0313529 1.02743 0.387631 0.0256879 -0.0119784 1.06194)
(0.927002 -0.036203 -0.0416712 -0.049062 1.01552 0.386263 0.0273776 -0.00733577 1.06194)
(0.944253 -0.0487698 -0.108112 -0.0616288 0.998272 0.373159 0.0282356 -0.00247035 1.06194)
(0.964761 -0.0546786 -0.171268 -0.0675378 0.977764 0.348716 0.0282357 0.00247024 1.06194)
(0.986053 -0.053217 -0.22922 -0.0660763 0.956472 0.313678 0.0273779 0.0073359 1.06194)
(1.00556 -0.0445612 -0.280207 -0.0574205 0.936964 0.269109 0.025688 0.0119786 1.06194)
(1.02093 -0.0297552 -0.32268 -0.0426143 0.921592 0.216363 0.0232177 0.0162571 1.06194)
(1.03031 -0.0105847 -0.355349 -0.0234438 0.912212 0.157043 0.020042 0.020042 1.06194)
(1.03257 0.010638 -0.377221 -0.00222093 0.909954 0.0929516 0.0162572 0.0232177 1.06194)
(1.02743 0.0313529 -0.387631 0.018494 0.915091 0.0260357 0.0119784 0.0256879 1.06194)
(1.01552 0.049062 -0.386263 0.036203 0.927002 -0.0416712 0.00733577 0.0273776 1.06194)
(0.998272 0.0616288 -0.373159 0.0487698 0.944253 -0.108112 0.00247035 0.0282356 1.06194)
(0.977764 0.0675378 -0.348716 0.0546786 0.964761 -0.171268 -0.00247024 0.0282357 1.06194)
(0.956472 0.0660763 -0.313678 0.053217 0.986053 -0.22922 -0.00733589 0.0273779 1.06194)
(0.936964 0.0574205 -0.269109 0.0445612 1.00556 -0.280207 -0.0119785 0.025688 1.06194)
(0.921592 0.0426143 -0.216363 0.0297552 1.02093 -0.32268 -0.0162571 0.0232177 1.06194)
(0.912212 0.0234438 -0.157043 0.0105847 1.03031 -0.355349 -0.020042 0.020042 1.06194)
(0.909954 0.00222092 -0.0929516 -0.010638 1.03257 -0.377221 -0.0232177 0.0162572 1.06194)
(0.915091 -0.018494 -0.0260357 -0.0313529 1.02743 -0.387631 -0.0256879 0.0119784 1.06194)
(0.927002 -0.036203 0.0416712 -0.049062 1.01552 -0.386263 -0.0273776 0.00733577 1.06194)
(0.944253 -0.0487698 0.108112 -0.0616288 0.998272 -0.373159 -0.0282356 0.00247034 1.06194)
(0.956326 -0.0868376 0.152912 -0.124848 0.932789 -0.290001 -0.0863694 -0.00755655 1.13197)
(0.991816 -0.0764297 0.200947 -0.11444 0.897299 -0.259042 -0.0837454 -0.0224396 1.13197)
(1.02161 -0.0545111 0.242876 -0.0925215 0.867508 -0.220213 -0.0785767 -0.0366405 1.13197)
(1.0421 -0.0237252 0.277426 -0.0617353 0.847011 -0.174692 -0.0710198 -0.0497282 1.13197)
(1.05084 0.0122147 0.303547 -0.0257951 0.83828 -0.123864 -0.0613053 -0.0613053 1.13197)
(1.04675 0.0489736 0.320444 0.0109639 0.842366 -0.0692718 -0.0497285 -0.0710198 1.13197)
(1.03034 0.0821175 0.327604 0.044108 0.858779 -0.0125749 -0.0366405 -0.0785759 1.13197)
(1.00358 0.107649 0.324811 0.0696398 0.885538 0.0445041 -0.0224392 -0.0837448 1.13197)
(0.969699 0.12249 0.312148 0.0844796 0.919416 0.100231 -0.00755618 -0.0863693 1.13197)
(0.932789 0.124848 0.290001 0.0868376 0.956325 0.152912 0.00755654 -0.0863694 1.13197)
(0.897299 0.11444 0.259042 0.0764297 0.991816 0.200947 0.0224396 -0.0837454 1.13197)
(0.867508 0.0925215 0.220213 0.0545111 1.02161 0.242876 0.0366405 -0.0785767 1.13197)
(0.847011 0.0617353 0.174692 0.0237252 1.0421 0.277426 0.0497282 -0.0710198 1.13197)
(0.83828 0.0257951 0.123864 -0.0122147 1.05084 0.303547 0.0613053 -0.0613053 1.13197)
(0.842366 -0.0109639 0.0692718 -0.0489736 1.04675 0.320444 0.0710198 -0.0497285 1.13197)
(0.858779 -0.044108 0.0125749 -0.0821175 1.03034 0.327604 0.0785759 -0.0366405 1.13197)
(0.885538 -0.0696398 -0.0445041 -0.107649 1.00358 0.324811 0.0837448 -0.0224392 1.13197)
(0.919416 -0.0844796 -0.100231 -0.12249 0.969699 0.312148 0.0863693 -0.00755618 1.13197)
(0.956325 -0.0868376 -0.152912 -0.124848 0.932789 0.290001 0.0863694 0.00755654 1.13197)
(0.991816 -0.0764297 -0.200947 -0.11444 0.897299 0.259042 0.0837454 0.0224396 1.13197)
(1.02161 -0.0545111 -0.242876 -0.0925215 0.867508 0.220213 0.0785767 0.0366405 1.13197)
(1.0421 -0.0237252 -0.277426 -0.0617353 0.847011 0.174692 0.0710198 0.0497282 1.13197)
(1.05084 0.0122147 -0.303547 -0.0257951 0.83828 0.123864 0.0613053 0.0613053 1.13197)
(1.04675 0.0489736 -0.320444 0.0109639 0.842366 0.0692718 0.0497285 0.0710198 1.13197)
(1.03034 0.0821175 -0.327604 0.044108 0.858779 0.0125749 0.0366405 0.0785759 1.13197)
(1.00358 0.107649 -0.324811 0.0696398 0.885538 -0.0445041 0.0224392 0.0837448 1.13197)
(0.969699 0.12249 -0.312148 0.0844796 0.919416 -0.100231 0.00755618 0.0863693 1.13197)
(0.932789 0.124848 -0.290001 0.0868376 0.956326 -0.152912 -0.00755653 0.0863694 1.13197)
(0.897299 0.11444 -0.259042 0.0764297 0.991816 -0.200947 -0.0224396 0.0837454 1.13197)
(0.867508 0.0925215 -0.220213 0.0545111 1.02161 -0.242876 -0.0366405 0.0785767 1.13197)
(0.847011 0.0617353 -0.174692 0.0237252 1.0421 -0.277426 -0.0497282 0.0710198 1.13197)
(0.83828 0.0257951 -0.123864 -0.0122147 1.05084 -0.303547 -0.0613053 0.0613053 1.13197)
(0.842366 -0.0109639 -0.0692718 -0.0489736 1.04675 -0.320444 -0.0710198 0.0497285 1.13197)
(0.858779 -0.044108 -0.0125749 -0.0821175 1.03034 -0.327604 -0.0785759 0.0366405 1.13197)
(0.885538 -0.0696398 0.0445041 -0.107649 1.00358 -0.324811 -0.0837448 0.0224392 1.13197)
(0.919416 -0.0844796 0.100231 -0.12249 0.969699 -0.312148 -0.0863693 0.00755618 1.13197)
(0.972816 -0.110866 0.162026 -0.12446 0.932274 -0.319264 -0.0855216 -0.00748226 1.10877)
(1.01184 -0.096837 0.215004 -0.110432 0.893254 -0.286278 -0.0829234 -0.0222193 1.10877)
(1.04371 -0.0703084 0.26145 -0.0839029 0.861385 -0.244594 -0.0778053 -0.0362811 1.10877)
(1.06458 -0.03448 0.299951 -0.0480739 0.840511 -0.195478 -0.0703226 -0.0492402 1.10877)
(1.07194 0.00632744 0.329338 -0.00726626 0.83315 -0.140422 -0.0607036 -0.0607036 1.10877)
(1.0649 0.0471916 0.348719 0.0335979 0.84019 -0.0810996 -0.0492403 -0.0703226 1.10877)
(1.04431 0.0831833 0.357504 0.0695896 0.860781 -0.0193131 -0.0362809 -0.0778047 1.10877)
(1.01265 0.109962 0.355426 0.096368 0.892441 0.0430603 -0.022219 -0.0829228 1.10877)
(0.97374 0.124297 0.342549 0.110703 0.93135 0.104125 -0.00748211 -0.0855216 1.10877)
(0.932274 0.12446 0.319264 0.110866 0.972816 0.162026 0.00748225 -0.0855216 1.10877)
(0.893254 0.110432 0.286278 0.0968371 1.01184 0.215004 0.0222193 -0.0829234 1.10877)
(0.861385 0.083903 0.244594 0.0703084 1.04371 0.26145 0.0362811 -0.0778053 1.10877)
(0.840511 0.048074 0.195478 0.03448 1.06458 0.299951 0.0492402 -0.0703226 1.10877)
(0.83315 0.00726627 0.140422 -0.00632744 1.07194 0.329338 0.0607036 -0.0607036 1.10877)
(0.84019 -0.0335978 0.0810996 -0.0471916 1.0649 0.348719 0.0703226 -0.0492403 1.10877)
(0.860781 -0.0695896 0.0193131 -0.0831833 1.04431 0.357504 0.0778047 -0.0362809 1.10877)
(0.892441 -0.096368 -0.0430603 -0.109962 1.01265 0.355426 0.0829228 -0.022219 1.10877)
(0.93135 -0.110703 -0.104125 -0.124297 0.97374 0.342549 0.0855216 -0.00748211 1.10877)
(0.972816 -0.110866 -0.162026 -0.12446 0.932274 0.319264 0.0855216 0.00748225 1.10877)
(1.01184 -0.0968371 -0.215004 -0.110432 0.893254 0.286278 0.0829234 0.0222193 1.10877)
(1.04371 -0.0703084 -0.26145 -0.083903 0.861385 0.244594 0.0778053 0.0362811 1.10877)
(1.06458 -0.03448 -0.299951 -0.0480739 0.840511 0.195478 0.0703226 0.0492402 1.10877)
(1.07194 0.00632744 -0.329338 -0.00726627 0.83315 0.140422 0.0607036 0.0607035 1.10877)
(1.0649 0.0471916 -0.348719 0.0335979 0.84019 0.0810996 0.0492403 0.0703226 1.10877)
(1.04431 0.0831833 -0.357504 0.0695896 0.860781 0.0193131 0.0362809 0.0778047 1.10877)
(1.01265 0.109962 -0.355426 0.096368 0.892441 -0.0430603 0.022219 0.0829228 1.10877)
(0.97374 0.124297 -0.342549 0.110703 0.93135 -0.104125 0.00748212 0.0855216 1.10877)
(0.932274 0.12446 -0.319264 0.110866 0.972816 -0.162026 -0.00748225 0.0855216 1.10877)
(0.893254 0.110432 -0.286278 0.0968371 1.01184 -0.215004 -0.0222193 0.0829234 1.10877)
(0.861385 0.0839029 -0.244594 0.0703084 1.04371 -0.26145 -0.0362811 0.0778053 1.10877)
(0.840511 0.0480739 -0.195478 0.03448 1.06458 -0.299951 -0.0492402 0.0703226 1.10877)
(0.83315 0.00726626 -0.140422 -0.00632744 1.07194 -0.329338 -0.0607035 0.0607036 1.10877)
(0.84019 -0.0335979 -0.0810996 -0.0471916 1.0649 -0.348719 -0.0703226 0.0492403 1.10877)
(0.860781 -0.0695896 -0.0193131 -0.0831833 1.04431 -0.357504 -0.0778047 0.0362809 1.10877)
(0.892441 -0.096368 0.0430603 -0.109962 1.01265 -0.355426 -0.0829228 0.022219 1.10877)
(0.93135 -0.110703 0.104125 -0.124297 0.97374 -0.342549 -0.0855216 0.00748211 1.10877)
(0.990797 -0.140953 0.174178 -0.121081 0.927954 -0.345986 -0.0831969 -0.00727871 1.08403)
(1.03371 -0.122304 0.231612 -0.102433 0.885038 -0.310484 -0.0806693 -0.0216152 1.08403)
(1.06766 -0.0901032 0.282008 -0.0702311 0.851089 -0.265548 -0.0756902 -0.035295 1.08403)
(1.08855 -0.0482325 0.323836 -0.0283603 0.830201 -0.212543 -0.068411 -0.047902 1.08403)
(1.09386 -0.0017428 0.355823 0.0181298 0.824893 -0.153081 -0.0590536 -0.0590536 1.08403)
(1.08295 0.0437589 0.377 0.0636316 0.835806 -0.0889672 -0.0479019 -0.068411 1.08403)
(1.05713 0.0827841 0.386721 0.102657 0.861623 -0.0221501 -0.0352946 -0.0756898 1.08403)
(1.01952 0.110626 0.384693 0.130498 0.89923 0.0453399 -0.0216151 -0.0806687 1.08403)
(0.974659 0.123926 0.370975 0.143799 0.944092 0.111452 -0.00727882 -0.0831968 1.08403)
(0.927954 0.121081 0.345986 0.140953 0.990797 0.174178 0.00727871 -0.0831969 1.08403)
(0.885038 0.102433 0.310484 0.122304 1.03371 0.231612 0.0216152 -0.0806693 1.08403)
(0.851089 0.0702312 0.265548 0.0901032 1.06766 0.282008 0.035295 -0.0756902 1.08403)
(0.830201 0.0283603 0.212543 0.0482325 1.08855 0.323836 0.047902 -0.068411 1.08403)
(0.824893 -0.0181298 0.153081 0.0017428 1.09386 0.355823 0.0590536 -0.0590536 1.08403)
(0.835806 -0.0636316 0.0889672 -0.0437589 1.08295 0.377 0.068411 -0.0479019 1.08403)
(0.861623 -0.102657 0.0221501 -0.082784 1.05713 0.386721 0.0756898 -0.0352946 1.08403)
(0.89923 -0.130498 -0.04534 -0.110626 1.01952 0.384693 0.0806687 -0.0216151 1.08403)
(0.944092 -0.143799 -0.111452 -0.123926 0.974659 0.370975 0.0831968 -0.00727882 1.08403)
(0.990797 -0.140953 -0.174178 -0.121081 0.927954 0.345986 0.0831969 0.0072787 1.08403)
(1.03371 -0.122304 -0.231612 -0.102433 0.885038 0.310484 0.0806693 0.0216152 1.08403)
(1.06766 -0.0901032 -0.282008 -0.0702312 0.851089 0.265548 0.0756902 0.035295 1.08403)
(1.08855 -0.0482325 -0.323836 -0.0283603 0.830201 0.212543 0.068411 0.047902 1.08403)
(1.09386 -0.0017428 -0.355823 0.0181298 0.824893 0.153081 0.0590536 0.0590536 1.08403)
(1.08295 0.0437589 -0.377 0.0636316 0.835806 0.0889672 0.0479019 0.068411 1.08403)
(1.05713 0.082784 -0.386722 0.102657 0.861623 0.0221501 0.0352946 0.0756897 1.08403)
(1.01952 0.110626 -0.384693 0.130498 0.89923 -0.04534 0.0216151 0.0806687 1.08403)
(0.974659 0.123926 -0.370975 0.143799 0.944092 -0.111452 0.00727882 0.0831968 1.08403)
(0.927954 0.121081 -0.345986 0.140953 0.990797 -0.174178 -0.0072787 0.0831969 1.08403)
(0.885038 0.102433 -0.310484 0.122304 1.03371 -0.231612 -0.0216152 0.0806693 1.08403)
(0.851089 0.0702311 -0.265548 0.0901032 1.06766 -0.282008 -0.035295 0.0756902 1.08403)
(0.830201 0.0283603 -0.212543 0.0482325 1.08855 -0.323836 -0.047902 0.068411 1.08403)
(0.824893 -0.0181298 -0.153081 0.0017428 1.09386 -0.355823 -0.0590536 0.0590536 1.08403)
(0.835806 -0.0636316 -0.0889672 -0.0437589 1.08295 -0.377 -0.068411 0.0479019 1.08403)
(0.861623 -0.102657 -0.0221501 -0.082784 1.05713 -0.386722 -0.0756897 0.0352946 1.08403)
(0.89923 -0.130498 0.0453399 -0.110626 1.01952 -0.384693 -0.0806687 0.0216151 1.08403)
(0.944092 -0.143799 0.111452 -0.123926 0.974659 -0.370975 -0.0831968 0.00727882 1.08403)
(0.980518 -0.143026 0.149962 -0.170985 0.89761 -0.290119 -0.125929 -0.0110175 1.16604)
(1.03172 -0.119379 0.198062 -0.147338 0.846411 -0.259671 -0.122103 -0.0327174 1.16604)
(1.07174 -0.0796473 0.240145 -0.107607 0.806387 -0.221333 -0.114567 -0.053423 1.16604)
(1.09576 -0.0286229 0.27493 -0.0565823 0.782366 -0.17627 -0.103549 -0.0725053 1.16604)
(1.10088 0.02754 0.301362 -0.000419124 0.777246 -0.125851 -0.089385 -0.0893847 1.16604)
(1.08649 0.0820674 0.318638 0.0541084 0.791643 -0.0716077 -0.0725055 -0.103548 1.16604)
(1.05431 0.128382 0.326231 0.100424 0.823821 -0.015189 -0.0534227 -0.114566 1.16604)
(1.00823 0.160899 0.323913 0.13294 0.869899 0.0416913 -0.0327168 -0.122102 1.16604)
(0.953809 0.175695 0.311752 0.147735 0.924319 0.0973047 -0.011017 -0.125929 1.16604)
(0.89761 0.170985 0.290119 0.143026 0.980518 0.149962 0.0110175 -0.125929 1.16604)
(0.846411 0.147338 0.259671 0.119379 1.03172 0.198062 0.0327174 -0.122103 1.16604)
(0.806387 0.107607 0.221333 0.0796473 1.07174 0.240145 0.053423 -0.114567 1.16604)
(0.782366 0.0565823 0.17627 0.0286229 1.09576 0.27493 0.0725053 -0.103549 1.16604)
(0.777246 0.000419133 0.125851 -0.02754 1.10088 0.301362 0.0893847 -0.089385 1.16604)
(0.791643 -0.0541084 0.0716077 -0.0820674 1.08649 0.318638 0.103548 -0.0725055 1.16604)
(0.823821 -0.100424 0.015189 -0.128382 1.05431 0.326231 0.114566 -0.0534227 1.16604)
(0.869899 -0.13294 -0.0416913 -0.160899 1.00823 0.323913 0.122102 -0.0327168 1.16604)
(0.924319 -0.147735 -0.0973047 -0.175695 0.953809 0.311752 0.125929 -0.011017 1.16604)
(0.980518 -0.143026 -0.149962 -0.170985 0.89761 0.290119 0.125929 0.0110175 1.16604)
(1.03172 -0.119379 -0.198062 -0.147338 0.846411 0.259671 0.122103 0.0327174 1.16604)
(1.07174 -0.0796473 -0.240145 -0.107607 0.806387 0.221333 0.114567 0.053423 1.16604)
(1.09576 -0.0286229 -0.27493 -0.0565823 0.782366 0.17627 0.103549 0.0725053 1.16604)
(1.10088 0.02754 -0.301362 -0.00041913 0.777246 0.125851 0.089385 0.0893847 1.16604)
(1.08649 0.0820674 -0.318638 0.0541084 0.791643 0.0716077 0.0725055 0.103548 1.16604)
(1.05431 0.128382 -0.326231 0.100424 0.823821 0.015189 0.0534227 0.114566 1.16604)
(1.00823 0.160899 -0.323913 0.13294 0.869899 -0.0416913 0.0327168 0.122102 1.16604)
(0.953809 0.175695 -0.311752 0.147735 0.924319 -0.0973047 0.011017 0.125929 1.16604)
(0.89761 0.170985 -0.290119 0.143026 0.980518 -0.149962 -0.0110175 0.125929 1.16604)
(0.846411 0.147338 -0.259671 0.119379 1.03172 -0.198062 -0.0327174 0.122103 1.16604)
(0.806387 0.107607 -0.221333 0.0796473 1.07174 -0.240145 -0.053423 0.114567 1.16604)
(0.782366 0.0565823 -0.17627 0.0286229 1.09576 -0.27493 -0.0725053 0.103549 1.16604)
(0.777246 0.000419125 -0.125851 -0.02754 1.10088 -0.301362 -0.0893847 0.089385 1.16604)
(0.791643 -0.0541084 -0.0716077 -0.0820674 1.08649 -0.318638 -0.103548 0.0725055 1.16604)
(0.823821 -0.100424 -0.015189 -0.128382 1.05431 -0.326231 -0.114566 0.0534227 1.16604)
(0.869899 -0.13294 0.0416913 -0.160899 1.00823 -0.323913 -0.122102 0.0327168 1.16604)
(0.924319 -0.147735 0.0973047 -0.175695 0.953809 -0.311752 -0.125929 0.011017 1.16604)
(1.00058 -0.178694 0.161962 -0.168014 0.891691 -0.30971 -0.1251 -0.0109449 1.14834)
(1.05659 -0.149619 0.213282 -0.138938 0.835685 -0.27688 -0.121299 -0.0325019 1.14834)
(1.09927 -0.103141 0.258121 -0.0924612 0.792999 -0.235638 -0.113812 -0.0530713 1.14834)
(1.12349 -0.0448681 0.295118 -0.0341876 0.768785 -0.187236 -0.102867 -0.0720279 1.14834)
(1.12631 0.0181732 0.323147 0.028854 0.765961 -0.133144 -0.0887962 -0.0887961 1.14834)
(1.1074 0.0783784 0.341358 0.0890594 0.784869 -0.0750076 -0.0720278 -0.102866 1.14834)
(1.06904 0.128486 0.349197 0.139167 0.823228 -0.014592 -0.0530709 -0.113811 1.14834)
(1.01586 0.162452 0.346426 0.173133 0.876412 0.0462671 -0.0325015 -0.121298 1.14834)
(0.954265 0.17618 0.333129 0.186861 0.938005 0.105721 -0.0109447 -0.125099 1.14834)
(0.891691 0.168014 0.30971 0.178694 1.00058 0.161962 0.0109449 -0.1251 1.14834)
(0.835685 0.138938 0.27688 0.149619 1.05659 0.213282 0.0325018 -0.121299 1.14834)
(0.792999 0.0924613 0.235638 0.103141 1.09927 0.258121 0.0530713 -0.113812 1.14834)
(0.768785 0.0341876 0.187236 0.0448681 1.12349 0.295118 0.0720279 -0.102867 1.14834)
(0.765961 -0.0288539 0.133144 -0.0181732 1.12631 0.323147 0.0887961 -0.0887962 1.14834)
(0.784869 -0.0890594 0.0750076 -0.0783784 1.1074 0.341358 0.102866 -0.0720278 1.14834)
(0.823228 -0.139167 0.014592 -0.128486 1.06904 0.349197 0.113811 -0.0530709 1.14834)
(0.876412 -0.173133 -0.0462671 -0.162452 1.01586 0.346426 0.121298 -0.0325015 1.14834)
(0.938005 -0.186861 -0.105721 -0.17618 0.954265 0.333129 0.125099 -0.0109447 1.14834)
(1.00058 -0.178694 -0.161962 -0.168014 0.891691 0.30971 0.1251 0.0109449 1.14834)
(1.05659 -0.149619 -0.213282 -0.138938 0.835685 0.27688 0.121299 0.0325018 1.14834)
(1.09927 -0.103141 -0.258121 -0.0924613 0.792999 0.235638 0.113812 0.0530713 1.14834)
(1.12349 -0.0448681 -0.295118 -0.0341876 0.768785 0.187236 0.102867 0.0720279 1.14834)
(1.12631 0.0181732 -0.323147 0.0288539 0.765961 0.133144 0.0887962 0.0887961 1.14834)
(1.1074 0.0783784 -0.341358 0.0890594 0.784869 0.0750076 0.0720278 0.102866 1.14834)
(1.06904 0.128486 -0.349197 0.139167 0.823228 0.014592 0.053071 0.113811 1.14834)
(1.01586 0.162452 -0.346426 0.173133 0.876412 -0.0462671 0.0325015 0.121298 1.14834)
(0.954265 0.17618 -0.333129 0.186861 0.938005 -0.105721 0.0109447 0.125099 1.14834)
(0.891691 0.168014 -0.30971 0.178694 1.00058 -0.161962 -0.0109449 0.1251 1.14834)
(0.835685 0.138938 -0.27688 0.149619 1.05659 -0.213282 -0.0325018 0.121299 1.14834)
(0.792999 0.0924612 -0.235638 0.103141 1.09927 -0.258121 -0.0530713 0.113812 1.14834)
(0.768785 0.0341876 -0.187236 0.0448681 1.12349 -0.295118 -0.0720279 0.102867 1.14834)
(0.765961 -0.028854 -0.133144 -0.0181732 1.12631 -0.323147 -0.0887961 0.0887962 1.14834)
(0.784869 -0.0890594 -0.0750076 -0.0783784 1.1074 -0.341358 -0.102866 0.0720278 1.14834)
(0.823228 -0.139167 -0.014592 -0.128486 1.06904 -0.349197 -0.113811 0.0530709 1.14834)
(0.876412 -0.173133 0.0462671 -0.162452 1.01586 -0.346426 -0.121298 0.0325015 1.14834)
(0.938005 -0.186861 0.105721 -0.17618 0.954265 -0.333129 -0.125099 0.0109447 1.14834)
(1.02199 -0.222516 0.176606 -0.16025 0.880168 -0.325988 -0.122458 -0.0107137 1.13105)
(1.08317 -0.186721 0.23053 -0.124456 0.818987 -0.290368 -0.118738 -0.0318157 1.13105)
(1.12841 -0.132161 0.277449 -0.0698953 0.773739 -0.245926 -0.111409 -0.0519509 1.13105)
(1.15227 -0.0654157 0.315939 -0.00314946 0.74988 -0.194011 -0.100695 -0.0705074 1.13105)
(1.15186 0.00546507 0.344828 0.0677317 0.750288 -0.136201 -0.0869215 -0.0869215 1.13105)
(1.12724 0.0719316 0.363241 0.134198 0.774915 -0.0742532 -0.0705071 -0.100695 1.13105)
(1.08136 0.125967 0.370616 0.188234 0.820789 -0.010049 -0.0519505 -0.111408 1.13105)
(1.01978 0.161054 0.366731 0.22332 0.882378 0.0544605 -0.0318155 -0.118737 1.13105)
(0.949901 0.17296 0.351702 0.235226 0.952253 0.117315 -0.0107138 -0.122458 1.13105)
(0.880168 0.16025 0.325988 0.222516 1.02199 0.176606 0.0107137 -0.122458 1.13105)
(0.818987 0.124456 0.290368 0.186721 1.08317 0.23053 0.0318157 -0.118738 1.13105)
(0.773739 0.0698954 0.245925 0.132161 1.12841 0.277449 0.0519509 -0.111409 1.13105)
(0.74988 0.00314947 0.194011 0.0654157 1.15227 0.315939 0.0705074 -0.100695 1.13105)
(0.750288 -0.0677316 0.136201 -0.00546507 1.15186 0.344828 0.0869215 -0.0869215 1.13105)
(0.774915 -0.134198 0.0742531 -0.0719316 1.12724 0.363241 0.100695 -0.0705071 1.13105)
(0.820789 -0.188234 0.0100489 -0.125967 1.08136 0.370616 0.111408 -0.0519505 1.13105)
(0.882378 -0.22332 -0.0544605 -0.161054 1.01978 0.366731 0.118737 -0.0318155 1.13105)
(0.952253 -0.235226 -0.117315 -0.17296 0.949901 0.351702 0.122458 -0.0107138 1.13105)
(1.02199 -0.222516 -0.176606 -0.16025 0.880168 0.325988 0.122458 0.0107137 1.13105)
(1.08317 -0.186721 -0.23053 -0.124456 0.818987 0.290368 0.118738 0.0318157 1.13105)
(1.12841 -0.132161 -0.277449 -0.0698954 0.773739 0.245925 0.111409 0.0519509 1.13105)
(1.15227 -0.0654157 -0.315939 -0.00314947 0.74988 0.194011 0.100695 0.0705074 1.13105)
(1.15186 0.00546506 -0.344828 0.0677316 0.750288 0.136201 0.0869215 0.0869215 1.13105)
(1.12724 0.0719316 -0.363241 0.134198 0.774915 0.0742531 0.0705071 0.100695 1.13105)
(1.08136 0.125967 -0.370616 0.188234 0.820789 0.0100489 0.0519505 0.111408 1.13105)
(1.01978 0.161054 -0.366731 0.22332 0.882378 -0.0544605 0.0318155 0.118737 1.13105)
(0.949901 0.17296 -0.351702 0.235226 0.952253 -0.117315 0.0107138 0.122458 1.13105)
(0.880168 0.16025 -0.325988 0.222516 1.02199 -0.176606 -0.0107137 0.122458 1.13105)
(0.818987 0.124456 -0.290368 0.186721 1.08317 -0.23053 -0.0318157 0.118738 1.13105)
(0.773739 0.0698953 -0.245926 0.132161 1.12841 -0.277449 -0.0519509 0.111409 1.13105)
(0.74988 0.00314946 -0.194011 0.0654157 1.15227 -0.315939 -0.0705074 0.100695 1.13105)
(0.750288 -0.0677317 -0.136201 -0.00546506 1.15186 -0.344828 -0.0869215 0.0869215 1.13105)
(0.774915 -0.134198 -0.0742532 -0.0719316 1.12724 -0.363241 -0.100695 0.0705071 1.13105)
(0.820789 -0.188234 -0.010049 -0.125967 1.08136 -0.370616 -0.111408 0.0519505 1.13105)
(0.882378 -0.22332 0.0544605 -0.161054 1.01978 -0.366731 -0.118737 0.0318155 1.13105)
(0.952253 -0.235226 0.117315 -0.17296 0.949901 -0.351702 -0.122458 0.0107138 1.13105)
(1.01129 -0.201094 0.146769 -0.19216 0.865186 -0.284906 -0.151959 -0.013295 1.19537)
(1.07414 -0.16425 0.194012 -0.155316 0.802342 -0.255092 -0.147342 -0.0394803 1.19537)
(1.12059 -0.108134 0.235361 -0.0992006 0.755888 -0.217527 -0.138248 -0.0644659 1.19537)
(1.14505 -0.0395147 0.269558 -0.030581 0.731429 -0.173352 -0.124953 -0.0874929 1.19537)
(1.14456 0.033332 0.295565 0.042266 0.731914 -0.12391 -0.107862 -0.107861 1.19537)
(1.11919 0.10162 0.312592 0.110554 0.757285 -0.0707028 -0.0874929 -0.124952 1.19537)
(1.072 0.157112 0.32012 0.166046 0.804481 -0.0153475 -0.0644659 -0.138247 1.19537)
(1.00867 0.193115 0.317922 0.202049 0.867812 0.0404739 -0.0394797 -0.147341 1.19537)
(0.936842 0.205287 0.306064 0.214221 0.939636 0.0950656 -0.0132943 -0.151959 1.19537)
(0.865186 0.19216 0.284906 0.201094 1.01129 0.146769 0.013295 -0.151959 1.19537)