/*--------------------------------*- C++ -*----------------------------------*\
| =========                 |                                                 |
| \\      /  F ield         | OpenFOAM: The Open Source CFD Toolbox           |
|  \\    /   O peration     | Version:  2312                                  |
|   \\  /    A nd           | Website:  www.openfoam.com                      |
|    \\/     M anipulation  |                                                 |
\*---------------------------------------------------------------------------*/
FoamFile
{
    version     2.0;
    format      ascii;
    arch        "LSB;label=32;scalar=64";
    class       volScalarField;
    location    "0.5";
    object      sigmaHyd;
}
// * * * * * * * * * * * * * * * * * * * * * * * * * * * * * * * * * * * * * //

dimensions      [1 -1 -2 0 0 0 0];

internalField   nonuniform List<scalar> 
1620
(
18803.8
18803.8
18803.8
18803.6
18803.6
18803.7
18803.7
18803.8
18803.8
18803.8
18803.8
18803.8
18803.6
18803.6
18803.7
18803.7
18803.8
18803.8
18803.8
18803.8
18803.8
18803.6
18803.6
18803.7
18803.7
18803.8
18803.8
18803.8
18803.8
18803.8
18803.6
18803.6
18803.7
18803.7
18803.8
18803.8
12142.9
12142.9
12142.8
12142.9
12142.8
12142.8
12142.9
12142.9
12142.8
12142.9
12142.9
12142.8
12142.9
12142.8
12142.8
12142.9
12142.9
12142.8
12142.9
12142.9
12142.8
12142.9
12142.8
12142.8
12142.9
12142.9
12142.8
12142.9
12142.9
12142.8
12142.9
12142.8
12142.8
12142.9
12142.9
12142.8
1205.19
1205.19
1205.06
1205.04
1205.14
1205.13
1205.16
1205.07
1205.15
1205.19
1205.19
1205.06
1205.04
1205.14
1205.13
1205.16
1205.07
1205.15
1205.19
1205.19
1205.06
1205.04
1205.14
1205.13
1205.16
1205.07
1205.15
1205.19
1205.19
1205.06
1205.03
1205.14
1205.13
1205.16
1205.07
1205.15
5675.55
5675.56
5675.68
5675.47
5675.51
5675.58
5675.47
5675.6
5675.56
5675.55
5675.56
5675.68
5675.47
5675.51
5675.58
5675.47
5675.6
5675.56
5675.55
5675.56
5675.68
5675.47
5675.51
5675.58
5675.47
5675.6
5675.56
5675.55
5675.56
5675.68
5675.47
5675.51
5675.58
5675.47
5675.6
5675.56
-2000.62
-2000.62
-2000.69
-2000.49
-2000.54
-2000.67
-2000.51
-2000.7
-2000.62
-2000.62
-2000.62
-2000.69
-2000.49
-2000.54
-2000.67
-2000.51
-2000.7
-2000.62
-2000.62
-2000.62
-2000.69
-2000.49
-2000.54
-2000.67
-2000.51
-2000.7
-2000.62
-2000.62
-2000.62
-2000.69
-2000.49
-2000.54
-2000.67
-2000.51
-2000.7
-2000.61
-14888.1
-14888.1
-14888.1
-14888.2
-14888.1
-14888
-14888.1
-14888
-14888
-14888.1
-14888.1
-14888.1
-14888.2
-14888.1
-14888
-14888.1
-14888
-14888
-14888.1
-14888.1
-14888.1
-14888.2
-14888.1
-14888
-14888.1
-14888
-14888
-14888.1
-14888.1
-14888.1
-14888.2
-14888.1
-14888
-14888.1
-14888
-14888
6592.98
6592.75
6592.95
6592.78
6592.91
6592.98
6592.74
6592.86
6592.75
6592.98
6592.75
6592.96
6592.78
6592.91
6592.98
6592.74
6592.86
6592.76
6592.98
6592.75
6592.96
6592.78
6592.91
6592.98
6592.74
6592.86
6592.75
6592.98
6592.75
6592.96
6592.78
6592.91
6592.98
6592.74
6592.86
6592.75
-1868.87
-1868.67
-1868.88
-1868.69
-1868.74
-1868.9
-1868.73
-1868.89
-1868.69
-1868.87
-1868.67
-1868.88
-1868.69
-1868.74
-1868.9
-1868.73
-1868.89
-1868.69
-1868.87
-1868.67
-1868.88
-1868.69
-1868.74
-1868.9
-1868.73
-1868.89
-1868.69
-1868.87
-1868.67
-1868.88
-1868.69
-1868.74
-1868.9
-1868.73
-1868.89
-1868.69
-16170.7
-16170.8
-16170.6
-16170.6
-16170.7
-16170.7
-16170.8
-16170.6
-16170.6
-16170.7
-16170.8
-16170.6
-16170.6
-16170.7
-16170.7
-16170.8
-16170.6
-16170.6
-16170.7
-16170.8
-16170.6
-16170.6
-16170.7
-16170.7
-16170.8
-16170.6
-16170.6
-16170.7
-16170.8
-16170.6
-16170.6
-16170.7
-16170.7
-16170.8
-16170.6
-16170.6
6819.31
6819.34
6819.27
6819.37
6819.36
6819.39
6819.38
6819.25
6819.33
6819.31
6819.35
6819.27
6819.37
6819.36
6819.39
6819.38
6819.25
6819.33
6819.31
6819.35
6819.27
6819.37
6819.36
6819.39
6819.38
6819.25
6819.32
6819.31
6819.35
6819.27
6819.37
6819.36
6819.39
6819.38
6819.25
6819.32
-2102.97
-2103.04
-2103.01
-2102.93
-2103.03
-2102.99
-2103.01
-2103.01
-2102.97
-2102.97
-2103.04
-2103.01
-2102.93
-2103.03
-2102.99
-2103.01
-2103.01
-2102.97
-2102.97
-2103.04
-2103.01
-2102.93
-2103.03
-2102.99
-2103.01
-2103.01
-2102.97
-2102.97
-2103.04
-2103.01
-2102.93
-2103.03
-2102.99
-2103.01
-2103.01
-2102.97
-18571.6
-18571.7
-18571.6
-18571.7
-18571.7
-18571.6
-18571.7
-18571.6
-18571.6
-18571.6
-18571.7
-18571.6
-18571.7
-18571.7
-18571.6
-18571.7
-18571.6
-18571.6
-18571.6
-18571.7
-18571.6
-18571.7
-18571.7
-18571.6
-18571.7
-18571.6
-18571.6
-18571.6
-18571.7
-18571.6
-18571.7
-18571.7
-18571.6
-18571.7
-18571.6
-18571.6
6827.39
6827.52
6827.32
6827.53
6827.42
6827.36
6827.58
6827.28
6827.48
6827.39
6827.52
6827.32
6827.53
6827.42
6827.36
6827.58
6827.28
6827.48
6827.39
6827.52
6827.32
6827.53
6827.42
6827.36
6827.58
6827.28
6827.48
6827.39
6827.52
6827.32
6827.53
6827.42
6827.36
6827.58
6827.28
6827.48
-2365.31
-2365.58
-2365.28
-2365.48
-2365.42
-2365.29
-2365.5
-2365.32
-2365.42
-2365.31
-2365.57
-2365.28
-2365.48
-2365.42
-2365.29
-2365.5
-2365.32
-2365.42
-2365.31
-2365.57
-2365.28
-2365.48
-2365.42
-2365.29
-2365.5
-2365.32
-2365.42
-2365.31
-2365.57
-2365.28
-2365.48
-2365.42
-2365.29
-2365.5
-2365.32
-2365.42
-20284.3
-20284.1
-20284.2
-20284.2
-20284.1
-20284.2
-20284.1
-20284.3
-20284.1
-20284.3
-20284.1
-20284.2
-20284.2
-20284.1
-20284.2
-20284.1
-20284.3
-20284.1
-20284.3
-20284.1
-20284.2
-20284.2
-20284.1
-20284.2
-20284.1
-20284.3
-20284.1
-20284.3
-20284.1
-20284.2
-20284.2
-20284.1
-20284.2
-20284.1
-20284.3
-20284.1
6361.41
6361.57
6361.41
6361.53
6361.45
6361.41
6361.48
6361.35
6361.56
6361.41
6361.57
6361.41
6361.53
6361.45
6361.41
6361.49
6361.35
6361.56
6361.41
6361.57
6361.41
6361.53
6361.45
6361.41
6361.49
6361.35
6361.56
6361.41
6361.57
6361.41
6361.53
6361.45
6361.41
6361.48
6361.35
6361.56
-2988.91
-2989.09
-2988.98
-2989.02
-2988.99
-2988.98
-2989.09
-2988.8
-2989.1
-2988.91
-2989.09
-2988.98
-2989.02
-2988.99
-2988.98
-2989.09
-2988.8
-2989.1
-2988.91
-2989.09
-2988.98
-2989.02
-2988.99
-2988.98
-2989.09
-2988.8
-2989.1
-2988.91
-2989.1
-2988.98
-2989.02
-2988.99
-2988.98
-2989.09
-2988.8
-2989.1
-21402.4
-21402.3
-21402.5
-21402.3
-21402.5
-21402.6
-21402.4
-21402.5
-21402.4
-21402.4
-21402.3
-21402.5
-21402.3
-21402.5
-21402.6
-21402.4
-21402.5
-21402.4
-21402.4
-21402.3
-21402.5
-21402.3
-21402.5
-21402.6
-21402.4
-21402.5
-21402.4
-21402.4
-21402.3
-21402.5
-21402.3
-21402.5
-21402.6
-21402.4
-21402.5
-21402.4
5237.05
5237.21
5236.87
5237.27
5236.97
5236.93
5237.19
5236.89
5237.12
5237.05
5237.21
5236.87
5237.27
5236.97
5236.93
5237.2
5236.89
5237.12
5237.05
5237.21
5236.87
5237.27
5236.97
5236.93
5237.19
5236.89
5237.12
5237.05
5237.21
5236.87
5237.27
5236.97
5236.93
5237.19
5236.89
5237.12
-3982.5
-3983.02
-3982.57
-3982.87
-3982.83
-3982.51
-3982.82
-3982.64
-3982.87
-3982.5
-3983.02
-3982.57
-3982.87
-3982.83
-3982.51
-3982.82
-3982.64
-3982.87
-3982.5
-3983.02
-3982.57
-3982.87
-3982.83
-3982.51
-3982.82
-3982.64
-3982.87
-3982.5
-3983.02
-3982.57
-3982.87
-3982.83
-3982.51
-3982.82
-3982.64
-3982.87
-21919.1
-21918.8
-21918.9
-21918.9
-21918.9
-21918.9
-21918.8
-21919.1
-21918.6
-21919.1
-21918.8
-21918.9
-21918.9
-21918.9
-21918.9
-21918.8
-21919.1
-21918.6
-21919.1
-21918.8
-21918.9
-21918.9
-21918.9
-21918.9
-21918.8
-21919.1
-21918.6
-21919.1
-21918.8
-21918.9
-21918.9
-21918.9
-21918.9
-21918.8
-21919.1
-21918.6
3158.42
3158.34
3158.23
3158.37
3158.24
3158.25
3158.35
3158.23
3158.2
3158.42
3158.34
3158.23
3158.37
3158.24
3158.25
3158.35
3158.23
3158.2
3158.42
3158.34
3158.23
3158.37
3158.24
3158.25
3158.35
3158.23
3158.2
3158.42
3158.34
3158.23
3158.37
3158.24
3158.25
3158.35
3158.23
3158.2
-5277.13
-5277.16
-5276.94
-5277.23
-5277.01
-5276.9
-5277.07
-5277.08
-5276.91
-5277.13
-5277.16
-5276.94
-5277.23
-5277.01
-5276.9
-5277.07
-5277.08
-5276.91
-5277.13
-5277.16
-5276.94
-5277.23
-5277.01
-5276.9
-5277.07
-5277.08
-5276.91
-5277.13
-5277.16
-5276.94
-5277.23
-5277.01
-5276.9
-5277.07
-5277.08
-5276.91
-21706.8
-21706.6
-21706.7
-21706.7
-21706.7
-21706.8
-21706.8
-21706.7
-21706.8
-21706.8
-21706.6
-21706.7
-21706.7
-21706.7
-21706.8
-21706.8
-21706.7
-21706.8
-21706.8
-21706.6
-21706.7
-21706.7
-21706.7
-21706.8
-21706.8
-21706.7
-21706.8
-21706.8
-21706.6
-21706.7
-21706.7
-21706.7
-21706.8
-21706.8
-21706.7
-21706.8
-251.245
-251.181
-251.216
-251.233
-251.235
-251.235
-251.282
-251.223
-251.162
-251.246
-251.182
-251.217
-251.233
-251.235
-251.235
-251.281
-251.222
-251.162
-251.246
-251.182
-251.216
-251.233
-251.234
-251.235
-251.281
-251.222
-251.162
-251.246
-251.182
-251.217
-251.233
-251.235
-251.235
-251.281
-251.222
-251.161
-6722.16
-6722.03
-6722.13
-6721.97
-6721.99
-6722.17
-6721.89
-6722.09
-6722.08
-6722.16
-6722.03
-6722.13
-6721.97
-6721.99
-6722.17
-6721.89
-6722.09
-6722.08
-6722.16
-6722.03
-6722.13
-6721.97
-6721.99
-6722.17
-6721.89
-6722.09
-6722.08
-6722.16
-6722.03
-6722.13
-6721.97
-6721.99
-6722.17
-6721.89
-6722.09
-6722.08
-20324.2
-20324.5
-20324.4
-20324.6
-20324.5
-20324.5
-20324.4
-20324.5
-20324.7
-20324.2
-20324.5
-20324.4
-20324.6
-20324.5
-20324.5
-20324.4
-20324.5
-20324.7
-20324.2
-20324.5
-20324.4
-20324.6
-20324.5
-20324.5
-20324.4
-20324.5
-20324.7
-20324.2
-20324.5
-20324.4
-20324.6
-20324.5
-20324.5
-20324.4
-20324.5
-20324.7
-5183.61
-5183.69
-5183.63
-5183.52
-5183.58
-5183.68
-5183.65
-5183.49
-5183.61
-5183.61
-5183.69
-5183.63
-5183.52
-5183.58
-5183.67
-5183.64
-5183.49
-5183.61
-5183.61
-5183.69
-5183.63
-5183.52
-5183.58
-5183.67
-5183.64
-5183.49
-5183.61
-5183.61
-5183.69
-5183.63
-5183.52
-5183.58
-5183.68
-5183.64
-5183.49
-5183.61
-8010.96
-8010.87
-8011.03
-8010.98
-8011.03
-8011.06
-8010.89
-8010.99
-8011.09
-8010.96
-8010.87
-8011.03
-8010.98
-8011.03
-8011.06
-8010.89
-8010.99
-8011.09
-8010.96
-8010.87
-8011.03
-8010.98
-8011.03
-8011.06
-8010.89
-8010.99
-8011.09
-8010.96
-8010.87
-8011.03
-8010.98
-8011.03
-8011.06
-8010.89
-8010.99
-8011.09
-16874
-16874.1
-16874
-16874.1
-16874
-16874
-16874
-16874
-16874.2
-16874
-16874.1
-16874
-16874.1
-16874
-16874
-16874
-16874
-16874.2
-16874
-16874.1
-16874
-16874.1
-16874
-16874
-16874
-16874
-16874.2
-16874
-16874.1
-16874
-16874.1
-16874
-16874
-16874
-16874
-16874.2
-11010.8
-11011
-11010.9
-11010.8
-11010.8
-11010.8
-11010.7
-11010.8
-11010.9
-11010.8
-11011
-11010.9
-11010.8
-11010.7
-11010.8
-11010.7
-11010.8
-11010.9
-11010.8
-11011
-11010.9
-11010.8
-11010.7
-11010.8
-11010.7
-11010.8
-11010.9
-11010.8
-11011
-11010.9
-11010.8
-11010.8
-11010.8
-11010.7
-11010.8
-11010.9
-8695.45
-8695.1
-8695.38
-8695.31
-8695.33
-8695.35
-8695.32
-8695.54
-8695.25
-8695.45
-8695.1
-8695.38
-8695.31
-8695.33
-8695.35
-8695.32
-8695.54
-8695.25
-8695.45
-8695.1
-8695.38
-8695.31
-8695.33
-8695.35
-8695.32
-8695.54
-8695.25
-8695.45
-8695.1
-8695.38
-8695.31
-8695.33
-8695.35
-8695.32
-8695.54
-8695.25
-10220.9
-10221.1
-10220.9
-10221
-10221
-10221
-10221.2
-10220.8
-10221
-10220.9
-10221.1
-10220.9
-10221
-10221
-10221
-10221.2
-10220.8
-10221
-10220.9
-10221.1
-10220.9
-10221
-10221
-10221
-10221.2
-10220.8
-10221
-10220.9
-10221.1
-10220.9
-10221
-10221
-10221
-10221.2
-10220.8
-10221
-15844.8
-15844.8
-15844.6
-15844.8
-15844.6
-15844.6
-15844.6
-15844.7
-15845
-15844.8
-15844.8
-15844.6
-15844.8
-15844.6
-15844.6
-15844.6
-15844.7
-15845
-15844.8
-15844.8
-15844.6
-15844.8
-15844.6
-15844.6
-15844.6
-15844.7
-15845
-15844.8
-15844.8
-15844.6
-15844.8
-15844.6
-15844.6
-15844.6
-15844.7
-15845
-8563.25
-8563.11
-8563.22
-8563.32
-8563.25
-8563.32
-8563.34
-8563.49
-8563.29
-8563.25
-8563.11
-8563.22
-8563.32
-8563.25
-8563.32
-8563.34
-8563.49
-8563.29
-8563.25
-8563.11
-8563.22
-8563.32
-8563.25
-8563.32
-8563.34
-8563.49
-8563.29
-8563.26
-8563.11
-8563.22
-8563.32
-8563.25
-8563.32
-8563.34
-8563.49
-8563.29
367.56
367.371
367.489
367.412
367.423
367.313
367.497
367.637
367.657
367.56
367.37
367.488
367.41
367.421
367.31
367.495
367.635
367.656
367.559
367.37
367.487
367.409
367.42
367.31
367.495
367.635
367.657
367.56
367.371
367.489
367.411
367.422
367.311
367.495
367.635
367.657
-16826.4
-16826.4
-16826.2
-16826.2
-16826.2
-16826
-16826.3
-16826.2
-16826.7
-16826.4
-16826.4
-16826.2
-16826.2
-16826.2
-16826
-16826.3
-16826.2
-16826.7
-16826.4
-16826.4
-16826.2
-16826.2
-16826.2
-16826
-16826.3
-16826.2
-16826.7
-16826.4
-16826.4
-16826.2
-16826.2
-16826.2
-16826
-16826.3
-16826.2
-16826.7
-7397.7
-7397.61
-7397.72
-7397.89
-7397.44
-7397.86
-7397.69
-7397.9
-7397.54
-7397.7
-7397.61
-7397.72
-7397.89
-7397.44
-7397.86
-7397.69
-7397.9
-7397.54
-7397.7
-7397.61
-7397.72
-7397.89
-7397.44
-7397.86
-7397.69
-7397.9
-7397.54
-7397.7
-7397.61
-7397.72
-7397.89
-7397.44
-7397.86
-7397.69
-7397.9
-7397.54
15471.2
15470.8
15471
15470.9
15470.9
15471.2
15471
15471.5
15471.2
15471.2
15470.8
15471
15470.9
15470.9
15471.2
15471
15471.5
15471.2
15471.2
15470.8
15471
15470.9
15470.9
15471.2
15471
15471.5
15471.2
15471.2
15470.9
15471
15470.9
15470.9
15471.2
15471
15471.5
15471.2
-14175
-14174.3
-14172.8
-14173.3
-14175.5
-14173.8
-14172.7
-14174.3
-14175.5
-14175
-14174.3
-14172.8
-14173.3
-14175.5
-14173.8
-14172.7
-14174.3
-14175.5
-14175
-14174.3
-14172.8
-14173.4
-14175.5
-14173.8
-14172.7
-14174.3
-14175.5
-14175
-14174.3
-14172.8
-14173.4
-14175.5
-14173.8
-14172.7
-14174.3
-14175.5
-8529.48
-8529.74
-8529.59
-8529.93
-8529.35
-8530.22
-8529.76
-8529.71
-8529.6
-8529.47
-8529.73
-8529.59
-8529.92
-8529.35
-8530.22
-8529.76
-8529.71
-8529.61
-8529.47
-8529.73
-8529.59
-8529.92
-8529.35
-8530.23
-8529.77
-8529.71
-8529.61
-8529.47
-8529.73
-8529.59
-8529.92
-8529.34
-8530.22
-8529.76
-8529.71
-8529.61
31544
31543.9
31543.8
31544.1
31544.1
31544
31544.5
31544.3
31544.2
31544
31543.8
31543.8
31544.1
31544.1
31544
31544.5
31544.3
31544.2
31544
31543.8
31543.8
31544.1
31544.1
31544
31544.5
31544.3
31544.2
31544
31543.9
31543.8
31544.1
31544.1
31544
31544.5
31544.3
31544.2
8359.01
8361.76
8346.3
8350.73
8364.34
8353.47
8345.87
8356.48
8353.86
8359.06
8361.86
8346.37
8350.77
8364.38
8353.51
8345.9
8356.52
8353.9
8359.08
8361.89
8346.38
8350.77
8364.39
8353.51
8345.89
8356.5
8353.87
8359.06
8361.87
8346.37
8350.76
8364.38
8353.5
8345.9
8356.49
8353.85
5362.57
5361.4
5362.57
5359.22
5367.09
5357.96
5364.57
5362.22
5363.56
5362.57
5361.39
5362.55
5359.2
5367.08
5357.96
5364.57
5362.23
5363.57
5362.57
5361.4
5362.55
5359.21
5367.08
5357.96
5364.58
5362.23
5363.57
5362.59
5361.41
5362.57
5359.2
5367.07
5357.97
5364.57
5362.21
5363.55
38321.3
38320.9
38317.4
38328.5
38309.6
38331.9
38313.4
38324.3
38320.1
38321.2
38320.9
38317.3
38328.5
38309.5
38331.9
38313.4
38324.3
38320.1
38321.3
38320.9
38317.4
38328.5
38309.6
38331.9
38313.4
38324.3
38320.1
38321.3
38320.9
38317.4
38328.5
38309.5
38331.9
38313.4
38324.3
38320.1
)
;

boundaryField
{
    fixed
    {
        type            zeroGradient;
    }
    inside
    {
        type            zeroGradient;
    }
    outside
    {
        type            zeroGradient;
    }
}


// ************************************************************************* //
