/*--------------------------------*- C++ -*----------------------------------*\
| =========                 |                                                 |
| \\      /  F ield         | OpenFOAM: The Open Source CFD Toolbox           |
|  \\    /   O peration     | Version:  2312                                  |
|   \\  /    A nd           | Website:  www.openfoam.com                      |
|    \\/     M anipulation  |                                                 |
\*---------------------------------------------------------------------------*/
FoamFile
{
    version     2.0;
    format      ascii;
    arch        "LSB;label=32;scalar=64";
    class       volSymmTensorField;
    location    "0.5";
    object      sigma;
}
// * * * * * * * * * * * * * * * * * * * * * * * * * * * * * * * * * * * * * //

dimensions      [1 -1 -2 0 0 0 0];

internalField   nonuniform List<symmTensor> 
1620
(
(18701.8 -2080.2 -922.546 34957.3 13137.5 32752.2)
(19903.5 -4734.58 -3189.81 33755.7 12777.7 32752.2)
(21940.5 -6817.95 -5360.2 31718.7 12029.6 32752.2)
(24567.1 -8078.91 -7367.7 29091.7 10916.1 32752.1)
(27466.6 -8365.44 -9151.31 26192.2 9470.9 32752.1)
(30289.4 -7643.02 -10656.9 23369.6 7737.92 32752.2)
(32694.9 -5998.76 -11838.6 20964.2 5769.81 32752.1)
(34392.9 -3630.9 -12660.7 19266.2 3626.4 32752.2)
(35178.6 -825.119 -13098.1 18480.6 1372.79 32752.2)
(34957.3 2080.2 -13137.5 18701.8 -922.546 32752.2)
(33755.7 4734.58 -12777.7 19903.5 -3189.81 32752.2)
(31718.7 6817.95 -12029.6 21940.5 -5360.2 32752.2)
(29091.7 8078.91 -10916.1 24567.1 -7367.7 32752.1)
(26192.2 8365.44 -9470.9 27466.6 -9151.31 32752.1)
(23369.6 7643.02 -7737.92 30289.4 -10656.9 32752.2)
(20964.2 5998.76 -5769.81 32694.9 -11838.6 32752.1)
(19266.2 3630.9 -3626.4 34392.9 -12660.7 32752.2)
(18480.6 825.119 -1372.79 35178.6 -13098.1 32752.2)
(18701.8 -2080.2 922.546 34957.3 -13137.5 32752.2)
(19903.5 -4734.58 3189.81 33755.7 -12777.7 32752.2)
(21940.5 -6817.95 5360.2 31718.7 -12029.6 32752.2)
(24567.1 -8078.91 7367.7 29091.7 -10916.1 32752.1)
(27466.6 -8365.44 9151.31 26192.2 -9470.9 32752.1)
(30289.4 -7643.02 10656.9 23369.6 -7737.92 32752.2)
(32694.9 -5998.76 11838.6 20964.2 -5769.81 32752.1)
(34392.9 -3630.9 12660.7 19266.2 -3626.4 32752.2)
(35178.6 -825.119 13098.1 18480.6 -1372.79 32752.2)
(34957.3 2080.2 13137.5 18701.8 922.546 32752.2)
(33755.7 4734.58 12777.7 19903.5 3189.81 32752.2)
(31718.7 6817.95 12029.6 21940.5 5360.2 32752.2)
(29091.7 8078.91 10916.1 24567.1 7367.7 32752.1)
(26192.2 8365.44 9470.9 27466.6 9151.31 32752.1)
(23369.6 7643.02 7737.92 30289.4 10656.9 32752.2)
(20964.2 5998.76 5769.81 32694.9 11838.6 32752.1)
(19266.2 3630.9 3626.4 34392.9 12660.7 32752.2)
(18480.6 825.119 1372.79 35178.6 13098.1 32752.2)
(11944.8 -3486.17 402.843 41718.3 678.324 12765.5)
(14034.9 -8367.49 278.934 39628.2 737.972 12765.5)
(17668.5 -12239.6 146.553 35994.6 775.183 12765.4)
(22407.4 -14635.4 9.66963 31255.8 788.919 12765.5)
(27679.7 -15266 -127.521 25983.4 778.662 12765.4)
(32849.7 -14055.2 -260.739 20813.3 744.654 12765.4)
(37294.1 -11149.3 -386.01 16369.1 688.03 12765.5)
(40476.4 -6898.45 -499.635 13186.8 610.549 12765.5)
(42012.9 -1815.64 -598.067 11650.2 514.513 12765.4)
(41718.3 3486.17 -678.324 11944.8 402.843 12765.5)
(39628.2 8367.49 -737.973 14034.9 278.934 12765.5)
(35994.6 12239.6 -775.183 17668.5 146.553 12765.4)
(31255.8 14635.4 -788.919 22407.4 9.66962 12765.5)
(25983.4 15266 -778.662 27679.7 -127.521 12765.4)
(20813.3 14055.2 -744.654 32849.7 -260.739 12765.4)
(16369.1 11149.3 -688.03 37294.1 -386.01 12765.5)
(13186.8 6898.45 -610.549 40476.4 -499.635 12765.5)
(11650.2 1815.64 -514.513 42012.9 -598.067 12765.4)
(11944.8 -3486.17 -402.843 41718.4 -678.324 12765.5)
(14034.9 -8367.49 -278.934 39628.2 -737.973 12765.5)
(17668.5 -12239.6 -146.553 35994.6 -775.183 12765.4)
(22407.4 -14635.4 -9.66967 31255.8 -788.919 12765.5)
(27679.7 -15266 127.521 25983.4 -778.662 12765.4)
(32849.7 -14055.2 260.739 20813.3 -744.654 12765.4)
(37294.1 -11149.3 386.009 16369.1 -688.03 12765.5)
(40476.4 -6898.45 499.635 13186.8 -610.549 12765.5)
(42012.9 -1815.64 598.067 11650.2 -514.513 12765.4)
(41718.3 3486.17 678.324 11944.8 -402.844 12765.5)
(39628.2 8367.49 737.973 14034.9 -278.934 12765.5)
(35994.5 12239.6 775.183 17668.5 -146.553 12765.4)
(31255.8 14635.4 788.919 22407.4 -9.6697 12765.5)
(25983.4 15266 778.662 27679.7 127.521 12765.4)
(20813.3 14055.2 744.654 32849.7 260.739 12765.4)
(16369.1 11149.3 688.03 37294.1 386.009 12765.5)
(13186.8 6898.45 610.549 40476.4 499.635 12765.5)
(11650.2 1815.64 514.513 42012.9 598.067 12765.4)
(-1258.46 -3632.39 2866.68 22691.2 -19277.5 12182.8)
(706.06 -7508.96 6170.63 20726.7 -18486.9 12182.8)
(3877.86 -10479.9 9287.12 17554.6 -17134.5 12182.7)
(7874.59 -12186.7 12121.4 13557.9 -15261.5 12182.6)
(12214.2 -12423.7 14587.3 9218.58 -12924.7 12182.7)
(16372.9 -11162.2 16610.1 5059.73 -10195.4 12182.7)
(19849.5 -8554.32 18128.2 1583.19 -7156.15 12182.8)
(22224.4 -4914.67 19095.4 -791.869 -3899.47 12182.7)
(23211.4 -682.293 19482.4 -1778.67 -524.364 12182.7)
(22691.2 3632.39 19277.5 -1258.46 2866.68 12182.8)
(20726.7 7508.96 18486.9 706.063 6170.63 12182.8)
(17554.6 10479.9 17134.5 3877.86 9287.12 12182.7)
(13557.9 12186.7 15261.5 7874.59 12121.4 12182.6)
(9218.58 12423.7 12924.7 12214.2 14587.3 12182.7)
(5059.74 11162.2 10195.4 16372.9 16610.1 12182.7)
(1583.19 8554.32 7156.15 19849.5 18128.2 12182.8)
(-791.868 4914.67 3899.47 22224.4 19095.4 12182.7)
(-1778.67 682.292 524.364 23211.4 19482.4 12182.7)
(-1258.46 -3632.39 -2866.68 22691.2 19277.5 12182.8)
(706.063 -7508.96 -6170.63 20726.7 18486.9 12182.8)
(3877.86 -10479.9 -9287.12 17554.6 17134.5 12182.7)
(7874.59 -12186.7 -12121.4 13557.9 15261.5 12182.6)
(12214.2 -12423.7 -14587.3 9218.58 12924.7 12182.7)
(16372.9 -11162.2 -16610.1 5059.73 10195.4 12182.7)
(19849.5 -8554.32 -18128.2 1583.19 7156.15 12182.8)
(22224.4 -4914.67 -19095.4 -791.87 3899.47 12182.7)
(23211.4 -682.292 -19482.4 -1778.67 524.364 12182.7)
(22691.2 3632.39 -19277.5 -1258.46 -2866.68 12182.8)
(20726.7 7508.96 -18486.9 706.061 -6170.63 12182.8)
(17554.6 10479.9 -17134.5 3877.86 -9287.12 12182.7)
(13557.9 12186.7 -15261.5 7874.59 -12121.4 12182.6)
(9218.58 12423.7 -12924.7 12214.2 -14587.3 12182.7)
(5059.73 11162.2 -10195.4 16372.9 -16610.1 12182.7)
(1583.19 8554.32 -7156.15 19849.5 -18128.2 12182.8)
(-791.872 4914.67 -3899.47 22224.4 -19095.4 12182.7)
(-1778.68 682.293 -524.364 23211.4 -19482.4 12182.7)
(5556.95 -2386.13 -1200.32 20005.3 13086.4 21464.3)
(6808.71 -4712.99 -3454.47 18753.5 12679.2 21464.4)
(8780.97 -6471.49 -5603.74 16781.6 11886.7 21464.5)
(11235.4 -7449.35 -7582.73 14326.6 10733 21464.4)
(13876.5 -7528.73 -9331.3 11685.6 9253.26 21464.4)
(16385.4 -6700.07 -10796.3 9176.87 7492.38 21464.5)
(18459.6 -5063.29 -11933.3 7102.55 5503.76 21464.3)
(19848.9 -2815.75 -12707.8 5713.38 3347.93 21464.5)
(20385.8 -228.65 -13096.1 5176.54 1090.42 21464.4)
(20005.3 2386.13 -13086.4 5556.95 -1200.32 21464.3)
(18753.5 4712.99 -12679.2 6808.71 -3454.47 21464.4)
(16781.6 6471.49 -11886.7 8780.97 -5603.74 21464.5)
(14326.6 7449.35 -10733 11235.4 -7582.73 21464.4)
(11685.6 7528.73 -9253.26 13876.5 -9331.3 21464.4)
(9176.87 6700.07 -7492.38 16385.4 -10796.3 21464.5)
(7102.55 5063.29 -5503.76 18459.6 -11933.3 21464.3)
(5713.38 2815.75 -3347.93 19848.9 -12707.8 21464.5)
(5176.54 228.65 -1090.42 20385.8 -13096.1 21464.4)
(5556.95 -2386.13 1200.32 20005.3 -13086.4 21464.3)
(6808.71 -4712.99 3454.47 18753.5 -12679.2 21464.4)
(8780.97 -6471.49 5603.74 16781.6 -11886.7 21464.5)
(11235.4 -7449.35 7582.73 14326.6 -10733 21464.4)
(13876.5 -7528.73 9331.3 11685.6 -9253.26 21464.4)
(16385.4 -6700.07 10796.3 9176.87 -7492.38 21464.5)
(18459.6 -5063.29 11933.3 7102.55 -5503.76 21464.3)
(19848.9 -2815.75 12707.8 5713.38 -3347.93 21464.5)
(20385.8 -228.65 13096.1 5176.54 -1090.42 21464.4)
(20005.3 2386.13 13086.4 5556.95 1200.32 21464.3)
(18753.5 4712.99 12679.2 6808.71 3454.47 21464.4)
(16781.6 6471.49 11886.7 8780.97 5603.74 21464.5)
(14326.6 7449.35 10733 11235.4 7582.73 21464.4)
(11685.6 7528.73 9253.26 13876.5 9331.3 21464.4)
(9176.87 6700.07 7492.38 16385.4 10796.3 21464.5)
(7102.55 5063.29 5503.76 18459.6 11933.3 21464.3)
(5713.38 2815.75 3347.93 19848.9 12707.8 21464.5)
(5176.54 228.65 1090.42 20385.8 13096.1 21464.4)
(-1840.65 -4125.13 376.366 26911 1441.19 -1072.23)
(437.171 -8793.13 120.365 24633.2 1484.74 -1072.21)
(4174.15 -12400.6 -139.276 20896.1 1483.05 -1072.29)
(8919.83 -14512.4 -394.722 16150.8 1436.38 -1072.07)
(14101.3 -14873.7 -638.129 10969.2 1346 -1072.12)
(19093.9 -13441.1 -862.192 5976.37 1214.76 -1072.25)
(23295.6 -10387.3 -1059.98 1774.94 1046.56 -1072.1)
(26199.2 -6080.6 -1225.64 -1128.98 846.608 -1072.29)
(27454.9 -1040.54 -1353.94 -2384.54 620.915 -1072.23)
(26911 4125.13 -1441.19 -1840.65 376.366 -1072.23)
(24633.2 8793.13 -1484.74 437.171 120.365 -1072.21)
(20896.1 12400.6 -1483.05 4174.15 -139.276 -1072.29)
(16150.8 14512.4 -1436.38 8919.83 -394.722 -1072.07)
(10969.2 14873.7 -1346 14101.3 -638.129 -1072.12)
(5976.37 13441.1 -1214.76 19093.9 -862.192 -1072.25)
(1774.94 10387.3 -1046.56 23295.6 -1059.98 -1072.1)
(-1128.98 6080.6 -846.608 26199.2 -1225.64 -1072.29)
(-2384.54 1040.54 -620.915 27454.9 -1353.94 -1072.23)
(-1840.65 -4125.13 -376.366 26911 -1441.19 -1072.23)
(437.171 -8793.13 -120.365 24633.2 -1484.74 -1072.21)
(4174.15 -12400.6 139.276 20896.1 -1483.05 -1072.29)
(8919.83 -14512.4 394.722 16150.8 -1436.38 -1072.07)
(14101.3 -14873.7 638.129 10969.2 -1346 -1072.13)
(19093.9 -13441.1 862.192 5976.37 -1214.76 -1072.25)
(23295.6 -10387.3 1059.98 1774.94 -1046.56 -1072.1)
(26199.2 -6080.6 1225.64 -1128.98 -846.608 -1072.29)
(27454.9 -1040.54 1353.94 -2384.54 -620.915 -1072.23)
(26911 4125.13 1441.19 -1840.65 -376.366 -1072.23)
(24633.2 8793.13 1484.74 437.171 -120.365 -1072.21)
(20896.1 12400.6 1483.05 4174.15 139.276 -1072.29)
(16150.8 14512.4 1436.38 8919.83 394.722 -1072.07)
(10969.2 14873.7 1346 14101.3 638.129 -1072.13)
(5976.37 13441.1 1214.76 19093.9 862.192 -1072.25)
(1774.94 10387.3 1046.56 23295.6 1059.98 -1072.11)
(-1128.98 6080.6 846.608 26199.2 1225.64 -1072.29)
(-2384.54 1040.54 620.915 27454.9 1353.94 -1072.22)
(-16868.6 -4415.57 3264.45 6227.46 -19331.1 -4023.03)
(-14662 -8098.94 6571.64 4020.77 -18470.5 -4023.14)
(-11328.7 -10805.4 9679.15 687.477 -17048.8 -4023.04)
(-7270.79 -12208.7 12492.6 -3370.71 -15109 -4023.19)
(-2977.44 -12139.4 14926.4 -7663.76 -12710.1 -4023.09)
(1033.26 -10605.8 16906.8 -11674.2 -9925.08 -4022.91)
(4277.47 -7793.09 18373.4 -14918.6 -6838.42 -4023.03)
(6364.1 -4040.42 19281.7 -17005.1 -3544.03 -4023)
(7041.26 199.567 19604.2 -17682.3 -141.989 -4022.98)
(6227.46 4415.57 19331.1 -16868.6 3264.45 -4023.03)
(4020.77 8098.94 18470.5 -14662 6571.64 -4023.14)
(687.478 10805.4 17048.8 -11328.7 9679.15 -4023.04)
(-3370.71 12208.7 15109 -7270.79 12492.6 -4023.19)
(-7663.76 12139.4 12710.1 -2977.43 14926.4 -4023.09)
(-11674.2 10605.8 9925.08 1033.26 16906.8 -4022.91)
(-14918.6 7793.09 6838.42 4277.47 18373.4 -4023.02)
(-17005.1 4040.42 3544.03 6364.1 19281.7 -4023)
(-17682.3 -199.567 141.989 7041.26 19604.2 -4022.98)
(-16868.6 -4415.57 -3264.45 6227.46 19331.1 -4023.03)
(-14662 -8098.94 -6571.64 4020.77 18470.5 -4023.14)
(-11328.7 -10805.4 -9679.15 687.478 17048.8 -4023.04)
(-7270.79 -12208.7 -12492.6 -3370.71 15109 -4023.19)
(-2977.43 -12139.4 -14926.4 -7663.76 12710.1 -4023.09)
(1033.26 -10605.8 -16906.8 -11674.2 9925.08 -4022.91)
(4277.47 -7793.09 -18373.4 -14918.6 6838.42 -4023.02)
(6364.1 -4040.42 -19281.7 -17005.1 3544.03 -4023)
(7041.26 199.567 -19604.2 -17682.3 141.989 -4022.98)
(6227.46 4415.57 -19331.1 -16868.6 -3264.45 -4023.03)
(4020.77 8098.94 -18470.5 -14662 -6571.64 -4023.14)
(687.478 10805.4 -17048.8 -11328.7 -9679.15 -4023.04)
(-3370.71 12208.7 -15109 -7270.79 -12492.6 -4023.19)
(-7663.76 12139.4 -12710.1 -2977.44 -14926.4 -4023.09)
(-11674.2 10605.8 -9925.08 1033.26 -16906.8 -4022.91)
(-14918.6 7793.09 -6838.42 4277.47 -18373.4 -4023.03)
(-17005.1 4040.42 -3544.03 6364.1 -19281.7 -4023)
(-17682.3 -199.567 -141.989 7041.25 -19604.2 -4022.98)
(6296.21 -2491.16 -1053.29 20467.9 12894.5 23014.8)
(7575.36 -4764.45 -3276.45 19188.3 12515.7 23014.6)
(9555.26 -6463.04 -5399.99 17208.8 11756.6 23014.8)
(11996.3 -7382.06 -7359.47 14767.3 10640.3 23014.7)
(14604.9 -7410.8 -9095.35 12159.1 9200.73 23014.7)
(17065.8 -6545.56 -10554.8 9698.27 7481.57 23014.9)
(19082.1 -4890.93 -11693.6 7681.49 5535.09 23014.6)
(20411.3 -2646.31 -12477.2 6352.57 3420.38 23014.7)
(20892.4 -82.5825 -12881.5 5871.3 1201.83 23014.6)
(20467.9 2491.16 -12894.5 6296.21 -1053.29 23014.8)
(19188.3 4764.45 -12515.7 7575.36 -3276.45 23014.6)
(17208.8 6463.04 -11756.6 9555.26 -5399.99 23014.8)
(14767.3 7382.06 -10640.3 11996.3 -7359.47 23014.7)
(12159.1 7410.8 -9200.73 14604.9 -9095.35 23014.7)
(9698.27 6545.56 -7481.57 17065.8 -10554.8 23014.9)
(7681.49 4890.93 -5535.09 19082.1 -11693.6 23014.6)
(6352.57 2646.31 -3420.38 20411.3 -12477.2 23014.7)
(5871.3 82.5825 -1201.83 20892.4 -12881.5 23014.6)
(6296.21 -2491.16 1053.29 20467.9 -12894.5 23014.8)
(7575.36 -4764.45 3276.45 19188.3 -12515.7 23014.6)
(9555.26 -6463.04 5399.99 17208.8 -11756.6 23014.8)
(11996.3 -7382.06 7359.47 14767.3 -10640.3 23014.7)
(14604.9 -7410.8 9095.35 12159.1 -9200.73 23014.7)
(17065.8 -6545.56 10554.8 9698.27 -7481.57 23014.9)
(19082.1 -4890.93 11693.6 7681.49 -5535.09 23014.6)
(20411.3 -2646.31 12477.2 6352.57 -3420.38 23014.7)
(20892.4 -82.5825 12881.5 5871.3 -1201.83 23014.6)
(20467.9 2491.16 12894.5 6296.21 1053.29 23014.8)
(19188.3 4764.45 12515.7 7575.36 3276.45 23014.6)
(17208.8 6463.04 11756.6 9555.26 5399.99 23014.8)
(14767.3 7382.06 10640.3 11996.3 7359.47 23014.7)
(12159.1 7410.8 9200.73 14604.9 9095.35 23014.7)
(9698.27 6545.56 7481.57 17065.8 10554.8 23014.9)
(7681.49 4890.93 5535.09 19082.1 11693.6 23014.6)
(6352.57 2646.31 3420.38 20411.3 12477.2 23014.7)
(5871.3 82.5826 1201.83 20892.4 12881.5 23014.6)
(-1385.3 -4727.52 494.319 26447.3 1349.22 -668.634)
(1071.04 -9202.04 252.504 23991.4 1414.62 -668.418)
(4909.27 -12566.7 3.02129 20152.7 1436.97 -668.625)
(9667.13 -14415.6 -246.55 15395.2 1415.67 -668.433)
(14770.3 -14525.8 -488.565 10292 1351.29 -668.507)
(19603.2 -12883.9 -715.872 5458.73 1245.97 -668.648)
(23583.4 -9688.13 -921.347 1478.88 1102.73 -668.476)
(26230.3 -5323.75 -1098.81 -1168.3 925.977 -668.639)
(27225.1 -317.289 -1242.88 -2162.76 721.105 -668.45)
(26447.3 4727.52 -1349.22 -1385.3 494.319 -668.634)
(23991.4 9202.04 -1414.59 1071.05 252.513 -668.424)
(20152.7 12566.7 -1436.97 4909.27 3.02135 -668.624)
(15395.2 14415.6 -1415.67 9667.13 -246.55 -668.433)
(10292 14525.8 -1351.29 14770.3 -488.565 -668.507)
(5458.73 12883.9 -1245.97 19603.2 -715.871 -668.647)
(1478.88 9688.13 -1102.73 23583.4 -921.347 -668.475)
(-1168.3 5323.75 -925.977 26230.3 -1098.81 -668.638)
(-2162.76 317.289 -721.105 27225.1 -1242.88 -668.449)
(-1385.3 -4727.52 -494.319 26447.3 -1349.22 -668.634)
(1071.05 -9202.04 -252.513 23991.4 -1414.59 -668.424)
(4909.27 -12566.7 -3.02137 20152.7 -1436.97 -668.624)
(9667.13 -14415.6 246.55 15395.2 -1415.67 -668.433)
(14770.3 -14525.8 488.565 10292 -1351.29 -668.507)
(19603.2 -12883.9 715.871 5458.73 -1245.97 -668.648)
(23583.4 -9688.13 921.347 1478.88 -1102.73 -668.476)
(26230.3 -5323.75 1098.81 -1168.3 -925.977 -668.639)
(27225.1 -317.289 1242.88 -2162.76 -721.105 -668.45)
(26447.3 4727.52 1349.22 -1385.3 -494.319 -668.634)
(23991.4 9202.04 1414.59 1071.05 -252.513 -668.424)
(20152.7 12566.7 1436.97 4909.27 -3.02139 -668.625)
(15395.2 14415.6 1415.67 9667.13 246.55 -668.434)
(10292 14525.8 1351.29 14770.3 488.565 -668.507)
(5458.73 12883.9 1245.97 19603.2 715.871 -668.648)
(1478.88 9688.13 1102.73 23583.4 921.347 -668.476)
(-1168.3 5323.74 925.983 26230.3 1098.84 -668.633)
(-2162.76 317.289 721.105 27225.1 1242.88 -668.449)
(-17641.3 -6813.07 5052.91 3975.7 -20358.1 -4846.49)
(-14659.4 -10098.9 8511.27 993.567 -19171.4 -4846.67)
(-10733.1 -12166.7 11711.1 -2932.24 -17402.2 -4846.45)
(-6336.69 -12767 14555 -7328.8 -15104.2 -4846.46)
(-2000.08 -11827.4 16956.7 -11665.5 -12347.3 -4846.55)
(1753.71 -9461.19 18843.2 -15419.2 -9215.18 -4846.47)
(4471.7 -5953.88 20157.1 -18137.4 -5803.1 -4846.62)
(5826.45 -1728.48 20858.5 -19491.8 -2214.73 -4846.43)
(5654.13 2705.46 20926.3 -19319.6 1440.98 -4846.45)
(3975.7 6813.07 20358.1 -17641.3 5052.91 -4846.49)
(993.567 10098.9 19171.4 -14659.4 8511.27 -4846.67)
(-2932.24 12166.7 17402.2 -10733.1 11711.1 -4846.45)
(-7328.8 12767 15104.2 -6336.69 14555 -4846.45)
(-11665.5 11827.4 12347.3 -2000.08 16956.7 -4846.55)
(-15419.2 9461.19 9215.18 1753.71 18843.2 -4846.47)
(-18137.4 5953.88 5803.1 4471.7 20157.1 -4846.62)
(-19491.8 1728.48 2214.73 5826.45 20858.5 -4846.43)
(-19319.6 -2705.46 -1440.98 5654.13 20926.3 -4846.45)
(-17641.3 -6813.07 -5052.91 3975.7 20358.1 -4846.49)
(-14659.4 -10098.9 -8511.27 993.567 19171.4 -4846.67)
(-10733.1 -12166.7 -11711.1 -2932.24 17402.2 -4846.45)
(-6336.69 -12767 -14555 -7328.8 15104.2 -4846.45)
(-2000.08 -11827.4 -16956.7 -11665.5 12347.3 -4846.55)
(1753.71 -9461.19 -18843.2 -15419.2 9215.18 -4846.47)
(4471.7 -5953.88 -20157.1 -18137.4 5803.1 -4846.62)
(5826.45 -1728.48 -20858.5 -19491.8 2214.73 -4846.43)
(5654.13 2705.46 -20926.3 -19319.6 -1440.98 -4846.45)
(3975.7 6813.07 -20358.1 -17641.3 -5052.91 -4846.49)
(993.567 10098.9 -19171.4 -14659.4 -8511.27 -4846.67)
(-2932.24 12166.7 -17402.2 -10733.1 -11711.1 -4846.45)
(-7328.8 12767 -15104.2 -6336.69 -14555 -4846.46)
(-11665.5 11827.4 -12347.3 -2000.08 -16956.7 -4846.55)
(-15419.2 9461.19 -9215.18 1753.71 -18843.2 -4846.47)
(-18137.4 5953.88 -5803.1 4471.7 -20157.1 -4846.62)
(-19491.8 1728.48 -2214.73 5826.45 -20858.5 -4846.43)
(-19319.6 -2705.46 1440.98 5654.13 -20926.3 -4846.45)
(6385.64 -2328.41 -592.463 20258.1 12688.2 23814.2)
(7600.36 -4560.36 -2786.76 19043.5 12392.5 23814.1)
(9505.1 -6242.26 -4896.41 17138.6 11720.3 23814.1)
(11870.3 -7171.2 -6857.23 14773.6 10692 23814.2)
(14410.5 -7235.21 -8609.66 12233.4 9338.88 23814.2)
(16819.5 -6426.54 -10100.6 9824.43 7701.93 23814.2)
(18806.6 -4842.79 -11284.5 7837.39 5831.01 23814.2)
(20132.1 -2674.83 -12125.6 6511.66 3782.82 23814)
(20636.2 -184.31 -12598.3 6007.59 1619.78 23814.2)
(20258.1 2328.41 -12688.2 6385.64 -592.463 23814.2)
(19043.5 4560.36 -12392.5 7600.36 -2786.76 23814.1)
(17138.6 6242.26 -11720.3 9505.1 -4896.41 23814.1)
(14773.6 7171.2 -10692 11870.3 -6857.23 23814.2)
(12233.4 7235.21 -9338.88 14410.5 -8609.66 23814.2)
(9824.44 6426.54 -7701.93 16819.5 -10100.6 23814.2)
(7837.39 4842.79 -5831.01 18806.6 -11284.5 23814.2)
(6511.66 2674.83 -3782.82 20132.1 -12125.6 23814)
(6007.59 184.31 -1619.78 20636.2 -12598.3 23814.2)
(6385.64 -2328.41 592.463 20258.1 -12688.2 23814.2)
(7600.36 -4560.36 2786.76 19043.5 -12392.5 23814.1)
(9505.1 -6242.26 4896.41 17138.6 -11720.3 23814.1)
(11870.3 -7171.2 6857.23 14773.6 -10692 23814.2)
(14410.5 -7235.21 8609.66 12233.4 -9338.88 23814.2)
(16819.5 -6426.54 10100.6 9824.44 -7701.93 23814.2)
(18806.6 -4842.79 11284.5 7837.39 -5831.01 23814.2)
(20132.1 -2674.83 12125.6 6511.66 -3782.82 23814)
(20636.2 -184.31 12598.3 6007.59 -1619.78 23814.2)
(20258.1 2328.41 12688.2 6385.64 592.463 23814.2)
(19043.5 4560.36 12392.5 7600.36 2786.76 23814.1)
(17138.6 6242.26 11720.3 9505.1 4896.41 23814.1)
(14773.6 7171.2 10692 11870.3 6857.23 23814.2)
(12233.4 7235.21 9338.88 14410.5 8609.66 23814.2)
(9824.43 6426.54 7701.93 16819.5 10100.6 23814.2)
(7837.39 4842.79 5831.01 18806.6 11284.5 23814.2)
(6511.66 2674.83 3782.82 20132.1 12125.6 23814)
(6007.59 184.31 1619.78 20636.2 12598.3 23814.2)
(-1083.78 -5377.64 576.195 25418.7 1217.06 -643.869)
(1554.55 -9585.53 356.098 22780.3 1298.63 -643.94)
(5473.07 -12637.3 125.182 18861.8 1340.73 -643.91)
(10199.1 -14164.8 -109.559 14135.9 1342.13 -643.822)
(15162.3 -13983.8 -340.947 9172.55 1302.72 -643.915)
(19764.4 -12116.1 -561.984 4570.47 1223.72 -643.876)
(23450.2 -8787.11 -765.909 884.633 1107.53 -643.913)
(25775.2 -4398.23 -946.593 -1440.3 957.708 -643.91)
(26458.9 521.147 -1098.51 -2123.9 778.782 -643.873)
(25418.7 5377.64 -1217.06 -1083.79 576.195 -643.871)
(22780.3 9585.53 -1298.63 1554.56 356.098 -643.94)
(18861.8 12637.3 -1340.73 5473.07 125.182 -643.907)
(14135.9 14164.8 -1342.13 10199.1 -109.559 -643.822)
(9172.55 13983.8 -1302.72 15162.3 -340.947 -643.915)
(4570.47 12116.1 -1223.72 19764.4 -561.984 -643.875)
(884.634 8787.11 -1107.53 23450.2 -765.909 -643.913)
(-1440.3 4398.23 -957.708 25775.2 -946.593 -643.909)
(-2123.9 -521.147 -778.782 26458.9 -1098.51 -643.873)
(-1083.79 -5377.64 -576.195 25418.7 -1217.06 -643.87)
(1554.56 -9585.53 -356.098 22780.3 -1298.63 -643.939)
(5473.07 -12637.3 -125.182 18861.8 -1340.73 -643.907)
(10199.1 -14164.8 109.559 14135.9 -1342.13 -643.822)
(15162.3 -13983.8 340.947 9172.55 -1302.72 -643.915)
(19764.4 -12116.1 561.984 4570.47 -1223.72 -643.876)
(23450.2 -8787.11 765.909 884.633 -1107.53 -643.913)
(25775.2 -4398.23 946.593 -1440.3 -957.708 -643.91)
(26458.9 521.147 1098.51 -2123.9 -778.782 -643.873)
(25418.7 5377.64 1217.06 -1083.79 -576.195 -643.871)
(22780.3 9585.53 1298.63 1554.56 -356.098 -643.94)
(18861.8 12637.3 1340.73 5473.07 -125.182 -643.907)
(14135.9 14164.8 1342.13 10199.1 109.559 -643.822)
(9172.55 13983.8 1302.72 15162.3 340.947 -643.916)
(4570.47 12116.1 1223.72 19764.4 561.983 -643.876)
(884.636 8787.11 1107.53 23450.2 765.909 -643.911)
(-1440.3 4398.23 957.708 25775.2 946.592 -643.91)
(-2123.9 -521.147 778.782 26458.9 1098.51 -643.875)
(-18912.6 -9282.68 6997.64 -43.6575 -21160.8 -6758.54)
(-15168.8 -11949.7 10565.9 -3787.53 -19624.1 -6758.65)
(-10738.5 -13175.3 13813 -8217.68 -17491.3 -6758.54)
(-6156.37 -12811.8 16640.5 -12800 -14826.9 -6758.61)
(-1974.86 -10903.1 18962.3 -16981.6 -11712.1 -6758.71)
(1301.85 -7679.22 20708.1 -20258 -8241.36 -6758.51)
(3278.02 -3529.15 21824.6 -22234.5 -4520.23 -6758.67)
(3715.92 1046.58 22277.9 -22672.1 -661.766 -6758.59)
(2562.25 5496.11 22054.4 -21518.5 3216.82 -6758.55)
(-43.6585 9282.68 21160.8 -18912.6 6997.64 -6758.54)
(-3787.53 11949.7 19624.1 -15168.8 10565.9 -6758.65)
(-8217.68 13175.3 17491.3 -10738.5 13813 -6758.54)
(-12800 12811.8 14826.9 -6156.37 16640.5 -6758.61)
(-16981.6 10903.1 11712.1 -1974.86 18962.3 -6758.71)
(-20258 7679.22 8241.36 1301.85 20708.1 -6758.51)
(-22234.5 3529.15 4520.23 3278.02 21824.6 -6758.67)
(-22672.1 -1046.58 661.766 3715.92 22277.9 -6758.59)
(-21518.5 -5496.11 -3216.82 2562.25 22054.4 -6758.55)
(-18912.6 -9282.68 -6997.64 -43.6585 21160.8 -6758.54)
(-15168.8 -11949.7 -10565.9 -3787.53 19624.1 -6758.65)
(-10738.5 -13175.3 -13813 -8217.68 17491.3 -6758.54)
(-6156.37 -12811.8 -16640.5 -12800 14826.9 -6758.61)
(-1974.86 -10903.1 -18962.3 -16981.6 11712.1 -6758.71)
(1301.85 -7679.22 -20708.1 -20258 8241.36 -6758.51)
(3278.02 -3529.15 -21824.6 -22234.5 4520.23 -6758.67)
(3715.92 1046.58 -22277.9 -22672.1 661.766 -6758.59)
(2562.25 5496.11 -22054.4 -21518.5 -3216.82 -6758.55)
(-43.6583 9282.68 -21160.8 -18912.6 -6997.64 -6758.54)
(-3787.53 11949.7 -19624.1 -15168.8 -10565.9 -6758.65)
(-8217.68 13175.3 -17491.3 -10738.5 -13813 -6758.54)
(-12800 12811.8 -14826.9 -6156.37 -16640.5 -6758.61)
(-16981.6 10903.1 -11712.1 -1974.86 -18962.3 -6758.71)
(-20258 7679.22 -8241.36 1301.85 -20708.1 -6758.51)
(-22234.5 3529.15 -4520.23 3278.02 -21824.6 -6758.67)
(-22672.1 -1046.58 -661.766 3715.92 -22277.9 -6758.59)
(-21518.5 -5496.11 3216.82 2562.25 -22054.4 -6758.55)
(6417.26 -2077.87 -47.2483 19620.5 12456.4 24444.4)
(7526.2 -4210.46 -2209.57 18511.9 12258.9 24444.5)
(9297.31 -5835.2 -4304.74 16740.3 11689 24444.3)
(11517.8 -6756.16 -6269.17 14520.3 10763.9 24444.5)
(13918.9 -6862.13 -8043.02 12118.9 9511.74 24444.5)
(16211.6 -6140.54 -9572.51 9826.2 7970.59 24444.3)
(18119.4 -4678.25 -10811.2 7918.78 6187.27 24444.6)
(19411.6 -2651.69 -11721.3 6626 4215.91 24444.3)
(19933.1 -305.293 -12275.3 6104.79 2116.46 24444.5)
(19620.5 2077.87 -12456.4 6417.26 -47.2483 24444.4)
(18511.9 4210.46 -12258.9 7526.2 -2209.57 24444.5)
(16740.3 5835.2 -11689 9297.31 -4304.74 24444.3)
(14520.3 6756.16 -10763.9 11517.8 -6269.17 24444.5)
(12118.9 6862.13 -9511.74 13918.9 -8043.02 24444.5)
(9826.2 6140.54 -7970.59 16211.6 -9572.51 24444.3)
(7918.78 4678.25 -6187.27 18119.4 -10811.2 24444.6)
(6626 2651.69 -4215.91 19411.6 -11721.3 24444.3)
(6104.79 305.293 -2116.46 19933.1 -12275.3 24444.5)
(6417.26 -2077.87 47.2481 19620.5 -12456.4 24444.4)
(7526.2 -4210.46 2209.57 18511.9 -12258.9 24444.5)
(9297.31 -5835.2 4304.74 16740.3 -11689 24444.3)
(11517.8 -6756.16 6269.17 14520.3 -10763.9 24444.5)
(13918.9 -6862.13 8043.02 12118.9 -9511.74 24444.5)
(16211.6 -6140.54 9572.51 9826.2 -7970.59 24444.3)
(18119.4 -4678.25 10811.2 7918.78 -6187.27 24444.6)
(19411.6 -2651.69 11721.3 6626 -4215.91 24444.2)
(19933.1 -305.293 12275.3 6104.79 -2116.46 24444.5)
(19620.5 2077.87 12456.4 6417.26 47.2482 24444.4)
(18511.9 4210.46 12258.9 7526.2 2209.57 24444.5)
(16740.3 5835.2 11689 9297.31 4304.74 24444.3)
(14520.3 6756.16 10763.9 11517.8 6269.17 24444.5)
(12118.9 6862.13 9511.74 13918.9 8043.02 24444.5)
(9826.2 6140.54 7970.59 16211.6 9572.51 24444.3)
(7918.78 4678.25 6187.27 18119.4 10811.2 24444.6)
(6626 2651.69 4215.91 19411.6 11721.3 24444.2)
(6104.79 305.293 2116.46 19933.1 12275.3 24444.5)
(-568.55 -5915.34 598.351 24069.3 1201.48 -596.625)
(2197.27 -9771.93 380.62 21302.9 1287.13 -596.894)
(6115.87 -12449.9 151.343 17384.9 1333.64 -596.609)
(10713.6 -13626.2 -82.5266 12786.8 1339.64 -596.818)
(15436.6 -13158.9 -313.961 8063.91 1305.02 -596.729)
(19715 -11104.6 -535.724 3785.75 1230.63 -596.625)
(23032.5 -7710.8 -741.313 467.853 1118.92 -596.829)
(24989.5 -3387.02 -924.376 -1488.8 973.199 -596.642)
(25349.4 1345.32 -1079.32 -1848.91 797.894 -596.744)
(24069.3 5915.34 -1201.48 -568.55 598.351 -596.625)
(21302.9 9771.93 -1287.13 2197.27 380.62 -596.892)
(17384.9 12449.9 -1333.64 6115.87 151.343 -596.607)
(12786.8 13626.2 -1339.64 10713.6 -82.5266 -596.82)
(8063.91 13158.9 -1305.02 15436.6 -313.961 -596.729)
(3785.75 11104.6 -1230.63 19715 -535.724 -596.625)
(467.854 7710.8 -1118.92 23032.5 -741.313 -596.829)
(-1488.8 3387.02 -973.199 24989.5 -924.376 -596.642)
(-1848.91 -1345.32 -797.895 25349.4 -1079.32 -596.744)
(-568.55 -5915.34 -598.351 24069.3 -1201.48 -596.625)
(2197.27 -9771.93 -380.62 21302.9 -1287.13 -596.892)
(6115.87 -12449.9 -151.343 17384.9 -1333.64 -596.607)
(10713.6 -13626.2 82.5267 12786.8 -1339.64 -596.821)
(15436.6 -13158.9 313.961 8063.91 -1305.02 -596.729)
(19715 -11104.6 535.724 3785.75 -1230.63 -596.625)
(23032.5 -7710.8 741.313 467.853 -1118.92 -596.829)
(24989.5 -3387.02 924.376 -1488.8 -973.199 -596.642)
(25349.4 1345.32 1079.32 -1848.91 -797.895 -596.744)
(24069.3 5915.34 1201.48 -568.55 -598.351 -596.626)
(21302.9 9771.93 1287.13 2197.27 -380.62 -596.892)
(17384.9 12449.9 1333.64 6115.87 -151.343 -596.607)
(12786.8 13626.2 1339.64 10713.6 82.5266 -596.821)
(8063.91 13158.9 1305.02 15436.6 313.96 -596.73)
(3785.75 11104.6 1230.63 19715 535.723 -596.625)
(467.853 7710.8 1118.92 23032.5 741.313 -596.829)
(-1488.8 3387.02 973.199 24989.5 924.375 -596.642)
(-1848.91 -1345.32 797.895 25349.4 1079.32 -596.745)
(-18871.2 -11446.2 8936.34 -4008.46 -21554.3 -7973.26)
(-14507.9 -13297.7 12543.5 -8371.36 -19675.1 -7973.01)
(-9774.9 -13545.1 15769.5 -13104.5 -17198 -7973.17)
(-5242.63 -12158.8 18516.3 -17636.9 -14198.4 -7973.15)
(-1457.68 -9306.05 20700.5 -21421.6 -10767.4 -7973.05)
(1123.05 -5330.79 22255.8 -24002.6 -7009.19 -7973.15)
(2188.78 -712.576 23134.8 -25068.1 -3038.02 -7973.11)
(1610.43 3991.59 23310.9 -24490.1 1025.44 -7973.19)
(-541.599 8214.36 22778.7 -22337.7 5057.77 -7973.09)
(-4008.46 11446.2 21554.3 -18871.2 8936.34 -7973.26)
(-8371.36 13297.6 19675.1 -14507.9 12543.5 -7973.01)
(-13104.5 13545.1 17198 -9774.88 15769.5 -7973.15)
(-17636.9 12158.8 14198.4 -5242.63 18516.3 -7973.15)
(-21421.6 9306.05 10767.4 -1457.68 20700.5 -7973.05)
(-24002.6 5330.79 7009.19 1123.05 22255.8 -7973.15)
(-25068.1 712.576 3038.02 2188.78 23134.8 -7973.1)
(-24490.1 -3991.59 -1025.44 1610.43 23310.9 -7973.19)
(-22337.7 -8214.36 -5057.77 -541.599 22778.7 -7973.09)
(-18871.2 -11446.2 -8936.34 -4008.46 21554.3 -7973.26)
(-14507.9 -13297.6 -12543.5 -8371.36 19675.1 -7973.01)
(-9774.88 -13545.1 -15769.5 -13104.5 17198 -7973.15)
(-5242.63 -12158.8 -18516.3 -17636.9 14198.4 -7973.15)
(-1457.68 -9306.05 -20700.5 -21421.6 10767.4 -7973.05)
(1123.05 -5330.79 -22255.8 -24002.6 7009.19 -7973.15)
(2188.78 -712.576 -23134.8 -25068.1 3038.02 -7973.11)
(1610.43 3991.59 -23310.9 -24490.1 -1025.44 -7973.19)
(-541.599 8214.36 -22778.7 -22337.7 -5057.77 -7973.09)
(-4008.46 11446.2 -21554.3 -18871.2 -8936.34 -7973.26)
(-8371.36 13297.6 -19675.1 -14507.9 -12543.5 -7973.01)
(-13104.5 13545.1 -17198 -9774.88 -15769.5 -7973.15)
(-17636.9 12158.8 -14198.4 -5242.63 -18516.3 -7973.15)
(-21421.6 9306.05 -10767.4 -1457.67 -20700.5 -7973.05)
(-24002.6 5330.79 -7009.19 1123.05 -22255.8 -7973.15)
(-25068.1 712.576 -3038.02 2188.78 -23134.8 -7973.1)
(-24490.1 -3991.59 1025.44 1610.43 -23310.9 -7973.19)
(-22337.7 -8214.36 5057.77 -541.598 -22778.7 -7973.09)
(6152.72 -1635.36 596.819 18310 12247.5 24621.5)
(7078.8 -3615.75 -1539 17384.3 12165.1 24621.6)
(8626.02 -5160.01 -3628.04 15836.7 11713 24621.5)
(10608.4 -6081.96 -5606.89 13854.6 10905.1 24621.6)
(12786.4 -6270.29 -7415.37 11676.4 9765.77 24621.5)
(14897.5 -5702.35 -8998.52 9565.32 8329.73 24621.4)
(16687 -4446.59 -10308.2 7775.85 6640.64 24621.6)
(17939 -2654.54 -11304.8 6523.62 4749.75 24621.4)
(18502.9 -542.29 -11957.8 5960.13 2714.52 24621.6)
(18310 1635.36 -12247.5 6152.72 596.819 24621.5)
(17384.3 3615.75 -12165.1 7078.8 -1539 24621.6)
(15836.7 5160.01 -11713 8626.02 -3628.04 24621.5)
(13854.6 6081.96 -10905.1 10608.4 -5606.89 24621.6)
(11676.4 6270.29 -9765.77 12786.4 -7415.37 24621.5)
(9565.32 5702.35 -8329.73 14897.5 -8998.52 24621.4)
(7775.85 4446.59 -6640.64 16687 -10308.2 24621.6)
(6523.62 2654.54 -4749.75 17939 -11304.8 24621.4)
(5960.13 542.29 -2714.52 18502.9 -11957.8 24621.6)
(6152.72 -1635.36 -596.819 18310 -12247.5 24621.5)
(7078.8 -3615.75 1539 17384.3 -12165.1 24621.6)