/*--------------------------------*- C++ -*----------------------------------*\
| =========                 |                                                 |
| \\      /  F ield         | OpenFOAM: The Open Source CFD Toolbox           |
|  \\    /   O peration     | Version:  2312                                  |
|   \\  /    A nd           | Website:  www.openfoam.com                      |
|    \\/     M anipulation  |                                                 |
\*---------------------------------------------------------------------------*/
FoamFile
{
    version     2.0;
    format      ascii;
    arch        "LSB;label=32;scalar=64";
    class       volVectorField;
    location    "0.5";
    object      traction;
}
// * * * * * * * * * * * * * * * * * * * * * * * * * * * * * * * * * * * * * //

dimensions      [1 -1 -2 0 0 0 0];

internalField   uniform (0 0 0);

boundaryField
{
    fixed
    {
        type            calculated;
        value           nonuniform List<vector> 
108
(
(1361.7 -1889.41 19416.1)
(1669.11 -1624.25 19416.2)
(1925.8 -1309.75 19416.2)
(2123.97 -955.442 19416)
(2257.61 -572.096 19416)
(2322.66 -171.375 19416.1)
(2317.13 234.549 19416.1)
(2241.2 633.356 19416.1)
(2097.16 1012.92 19416.2)
(1889.41 1361.7 19416.1)
(1624.25 1669.11 19416.2)
(1309.75 1925.8 19416.2)
(955.442 2123.97 19416)
(572.096 2257.61 19416)
(171.375 2322.66 19416.1)
(-234.549 2317.13 19416.1)
(-633.356 2241.2 19416.1)
(-1012.92 2097.16 19416.2)
(-1361.7 1889.41 19416.1)
(-1669.11 1624.25 19416.2)
(-1925.8 1309.75 19416.2)
(-2123.97 955.442 19416)
(-2257.61 572.096 19416)
(-2322.66 171.375 19416.1)
(-2317.13 -234.549 19416.1)
(-2241.2 -633.356 19416.1)
(-2097.16 -1012.92 19416.2)
(-1889.41 -1361.7 19416.1)
(-1624.25 -1669.11 19416.2)
(-1309.75 -1925.8 19416.2)
(-955.442 -2123.97 19416)
(-572.096 -2257.61 19416)
(-171.376 -2322.66 19416.1)
(234.549 -2317.13 19416.1)
(633.356 -2241.2 19416.1)
(1012.92 -2097.16 19416.2)
(1113.84 -2153.09 12516.8)
(1470.8 -1926.96 12516.8)
(1783.07 -1642.29 12516.7)
(2041.16 -1307.71 12516.8)
(2237.23 -933.4 12516.7)
(2365.32 -530.73 12516.7)
(2421.55 -111.933 12516.8)
(2404.2 310.266 12516.8)
(2313.79 723.035 12516.7)
(2153.09 1113.84 12516.8)
(1926.96 1470.8 12516.8)
(1642.29 1783.07 12516.7)
(1307.71 2041.16 12516.8)
(933.4 2237.23 12516.7)
(530.73 2365.32 12516.7)
(111.933 2421.55 12516.8)
(-310.266 2404.2 12516.8)
(-723.035 2313.79 12516.7)
(-1113.84 2153.09 12516.8)
(-1470.8 1926.96 12516.8)
(-1783.07 1642.29 12516.7)
(-2041.16 1307.71 12516.8)
(-2237.23 933.4 12516.7)
(-2365.32 530.73 12516.7)
(-2421.55 111.933 12516.8)
(-2404.2 -310.266 12516.8)
(-2313.79 -723.035 12516.7)
(-2153.09 -1113.84 12516.8)
(-1926.96 -1470.8 12516.8)
(-1642.29 -1783.07 12516.7)
(-1307.71 -2041.16 12516.8)
(-933.401 -2237.23 12516.7)
(-530.73 -2365.32 12516.7)
(-111.933 -2421.55 12516.8)
(310.266 -2404.2 12516.8)
(723.035 -2313.79 12516.7)
(830.7 -2412.94 1315.05)
(1237.08 -2232.03 1315.05)
(1605.87 -1983.3 1314.92)
(1925.87 -1674.32 1314.9)
(2187.36 -1314.45 1315)
(2382.37 -914.652 1314.99)
(2505.01 -487.061 1315.02)
(2551.54 -44.6708 1314.93)
(2520.53 399.078 1315.01)
(2412.94 830.7 1315.05)
(2232.03 1237.08 1315.05)
(1983.3 1605.87 1314.92)
(1674.32 1925.87 1314.9)
(1314.45 2187.36 1315)
(914.652 2382.37 1314.99)
(487.06 2505.01 1315.02)
(44.6708 2551.54 1314.93)
(-399.078 2520.53 1315.01)
(-830.7 2412.94 1315.05)
(-1237.08 2232.03 1315.05)
(-1605.87 1983.3 1314.92)
(-1925.87 1674.32 1314.9)
(-2187.36 1314.45 1315)
(-2382.37 914.652 1314.99)
(-2505.01 487.061 1315.02)
(-2551.54 44.6708 1314.93)
(-2520.53 -399.078 1315.01)
(-2412.94 -830.7 1315.05)
(-2232.03 -1237.08 1315.05)
(-1983.3 -1605.87 1314.92)
(-1674.32 -1925.87 1314.89)
(-1314.45 -2187.36 1315)
(-914.652 -2382.37 1314.99)
(-487.061 -2505.01 1315.02)
(-44.6709 -2551.54 1314.93)
(399.078 -2520.53 1315.01)
)
;
    }
    inside
    {
        type            calculated;
        value           nonuniform List<vector> 
540
(
(-285.096 -694.367 -441.805)
(-160.245 -733.158 -441.815)
(-30.2693 -750.002 -441.799)
(100.33 -743.69 -441.813)
(227.934 -715.103 -441.805)
(348.713 -664.696 -441.803)
(458.644 -593.991 -441.815)
(555.081 -505.289 -441.798)
(634.201 -401.299 -441.813)
(694.368 -285.099 -441.805)
(733.159 -160.248 -441.814)
(750.003 -30.2712 -441.799)
(743.692 100.329 -441.813)
(715.104 227.933 -441.805)
(664.697 348.713 -441.803)
(593.993 458.644 -441.815)
(505.29 555.081 -441.798)
(401.3 634.201 -441.813)
(285.099 694.368 -441.805)
(160.248 733.159 -441.815)
(30.2711 750.003 -441.799)
(-100.329 743.691 -441.813)
(-227.934 715.103 -441.805)
(-348.713 664.696 -441.803)
(-458.644 593.991 -441.815)
(-555.081 505.288 -441.798)
(-634.201 401.298 -441.813)
(-694.368 285.097 -441.805)
(-733.158 160.246 -441.815)
(-750.002 30.269 -441.799)
(-743.69 -100.331 -441.813)
(-715.101 -227.935 -441.805)
(-664.694 -348.715 -441.803)
(-593.989 -458.645 -441.815)
(-505.286 -555.082 -441.798)
(-401.296 -634.201 -441.813)
(15474.2 896.234 -939.512)
(15083.5 3569.79 -939.591)
(14234.5 6134.71 -939.553)
(12953 8513.44 -939.512)
(11277.8 10633.2 -939.505)
(9260 12429.9 -939.5)
(6960.89 13849.2 -939.533)
(4450.3 14847.5 -939.545)
(1804.37 15394.7 -939.592)
(-896.234 15474.2 -939.512)
(-3569.79 15083.5 -939.592)
(-6134.71 14234.5 -939.553)
(-8513.44 12953 -939.512)
(-10633.2 11277.8 -939.506)
(-12429.9 9260 -939.5)
(-13849.2 6960.89 -939.533)
(-14847.5 4450.3 -939.545)
(-15394.7 1804.37 -939.592)
(-15474.2 -896.234 -939.512)
(-15083.5 -3569.79 -939.592)
(-14234.5 -6134.71 -939.554)
(-12953 -8513.44 -939.513)
(-11277.8 -10633.2 -939.506)
(-9260 -12429.9 -939.5)
(-6960.89 -13849.2 -939.533)
(-4450.3 -14847.5 -939.545)
(-1804.37 -15394.7 -939.592)
(896.234 -15474.2 -939.513)
(3569.79 -15083.5 -939.592)
(6134.71 -14234.5 -939.554)
(8513.44 -12953 -939.512)
(10633.2 -11277.8 -939.506)
(12429.9 -9260 -939.5)
(13849.2 -6960.89 -939.533)
(14847.5 -4450.3 -939.545)
(15394.7 -1804.37 -939.592)
(16484.2 981.466 -1108.2)
(16063.5 3829.1 -1108.19)
(15154.4 6560.15 -1108.21)
(13785 9092.06 -1108.27)
(11996.8 11347.7 -1108.25)
(9844 13258.5 -1108.25)
(7392.14 14766.6 -1108.22)
(4715.65 15825.7 -1108.16)
(1895.89 16404.2 -1108.23)
(-981.466 16484.2 -1108.2)
(-3829.1 16063.5 -1108.19)
(-6560.15 15154.3 -1108.22)
(-9092.06 13785 -1108.27)
(-11347.7 11996.8 -1108.25)
(-13258.5 9844 -1108.25)
(-14766.6 7392.14 -1108.22)
(-15825.7 4715.65 -1108.16)
(-16404.2 1895.89 -1108.23)
(-16484.2 -981.466 -1108.2)
(-16063.5 -3829.1 -1108.19)
(-15154.4 -6560.15 -1108.22)
(-13785 -9092.06 -1108.27)
(-11996.8 -11347.7 -1108.25)
(-9844 -13258.5 -1108.25)
(-7392.14 -14766.6 -1108.22)
(-4715.65 -15825.7 -1108.16)
(-1895.89 -16404.2 -1108.23)
(981.466 -16484.2 -1108.2)
(3829.1 -16063.5 -1108.19)
(6560.15 -15154.4 -1108.22)
(9092.06 -13785 -1108.27)
(11347.7 -11996.8 -1108.25)
(13258.5 -9844 -1108.25)
(14766.6 -7392.14 -1108.22)
(15825.7 -4715.65 -1108.16)
(16404.2 -1895.89 -1108.23)
(18184.9 2057.11 -1304.25)
(17551.5 5183.67 -1304.25)
(16384.7 8152.62 -1304.23)
(14720.1 10874 -1304.21)
(12608.2 13265 -1304.24)
(10113.2 15252.7 -1304.22)
(7310.98 16777.3 -1304.24)
(4286.59 17791.8 -1304.27)
(1131.95 18265.9 -1304.19)
(-2057.11 18184.9 -1304.25)
(-5183.67 17551.5 -1304.25)
(-8152.62 16384.7 -1304.23)
(-10874 14720.1 -1304.21)
(-13265 12608.2 -1304.24)
(-15252.7 10113.2 -1304.22)
(-16777.3 7310.98 -1304.24)
(-17791.8 4286.59 -1304.27)
(-18265.9 1131.95 -1304.19)
(-18184.9 -2057.11 -1304.25)
(-17551.5 -5183.67 -1304.25)
(-16384.7 -8152.62 -1304.23)
(-14720.1 -10874 -1304.21)
(-12608.2 -13265 -1304.24)
(-10113.2 -15252.7 -1304.22)
(-7310.98 -16777.3 -1304.24)
(-4286.59 -17791.8 -1304.27)
(-1131.95 -18265.9 -1304.19)
(2057.11 -18184.9 -1304.25)
(5183.67 -17551.5 -1304.25)
(8152.62 -16384.7 -1304.23)
(10874 -14720.1 -1304.21)
(13265 -12608.2 -1304.24)
(15252.7 -10113.2 -1304.22)
(16777.3 -7310.98 -1304.24)
(17791.8 -4286.59 -1304.27)
(18265.9 -1131.95 -1304.19)
(18802.6 3336.21 -1480.37)
(17937.5 6550.42 -1480.28)
(16527.5 9565.83 -1480.34)
(14615.4 12290.5 -1480.34)
(12259.1 14641.6 -1480.32)
(9530.37 16548 -1480.35)
(6512.07 17951.5 -1480.32)
(3295.83 18809.7 -1480.34)
(-20.4399 19096.1 -1480.3)
(-3336.21 18802.6 -1480.37)
(-6550.42 17937.5 -1480.28)
(-9565.83 16527.5 -1480.34)
(-12290.5 14615.4 -1480.34)
(-14641.6 12259.1 -1480.32)
(-16548 9530.37 -1480.35)
(-17951.5 6512.07 -1480.32)
(-18809.7 3295.83 -1480.34)
(-19096.1 -20.4397 -1480.3)
(-18802.6 -3336.21 -1480.37)
(-17937.5 -6550.42 -1480.28)
(-16527.5 -9565.83 -1480.34)
(-14615.4 -12290.5 -1480.34)
(-12259.1 -14641.6 -1480.32)
(-9530.37 -16548 -1480.35)
(-6512.07 -17951.5 -1480.32)
(-3295.83 -18809.7 -1480.34)
(20.4398 -19096.1 -1480.3)
(3336.21 -18802.6 -1480.37)
(6550.42 -17937.5 -1480.28)
(9565.83 -16527.5 -1480.34)
(12290.5 -14615.4 -1480.34)
(14641.6 -12259.1 -1480.32)
(16548 -9530.37 -1480.35)
(17951.4 -6512.07 -1480.32)
(18809.7 -3295.83 -1480.34)
(19096.1 20.4395 -1480.3)
(18447.8 4402.91 -1712.07)
(17402.9 7539.33 -1712.04)
(15829.5 10447 -1712.06)
(13774.8 13036.8 -1712.1)
(11301.7 15230.9 -1712.11)
(8485.22 16962.1 -1712.11)
(5410.9 18177.7 -1712.11)
(2172.13 18841.2 -1712.1)
(-1132.59 18932.1 -1712.03)
(-4402.91 18447.8 -1712.07)
(-7539.34 17402.9 -1712.04)
(-10447 15829.5 -1712.06)
(-13036.8 13774.8 -1712.1)
(-15230.9 11301.7 -1712.11)
(-16962.1 8485.22 -1712.11)
(-18177.7 5410.9 -1712.11)
(-18841.2 2172.13 -1712.1)
(-18932.1 -1132.59 -1712.03)
(-18447.8 -4402.91 -1712.07)
(-17402.9 -7539.34 -1712.04)
(-15829.5 -10447 -1712.06)
(-13774.8 -13036.8 -1712.1)
(-11301.7 -15230.9 -1712.11)
(-8485.22 -16962.1 -1712.11)
(-5410.9 -18177.7 -1712.11)
(-2172.13 -18841.2 -1712.1)
(1132.59 -18932.1 -1712.03)
(4402.91 -18447.8 -1712.07)
(7539.34 -17402.9 -1712.04)
(10447 -15829.5 -1712.06)
(13036.8 -13774.8 -1712.1)
(15230.9 -11301.7 -1712.11)
(16962.1 -8485.22 -1712.11)
(18177.7 -5410.9 -1712.11)
(18841.2 -2172.13 -1712.1)
(18932.1 1132.59 -1712.03)
(17207.1 4837.35 -2042.46)
(16105.5 7751.62 -2042.43)
(14514.9 10430.7 -2042.41)
(12483 12792.6 -2042.36)
(10072 14766 -2042.38)
(7354.9 16290.7 -2042.4)
(4414.34 17320.2 -2042.4)
(1339.58 17823.9 -2042.48)
(-1775.63 17785.3 -2042.43)
(-4837.35 17207.1 -2042.46)
(-7751.61 16105.5 -2042.43)
(-10430.7 14514.9 -2042.41)
(-12792.6 12483 -2042.36)
(-14766 10072 -2042.38)
(-16290.7 7354.9 -2042.4)
(-17320.2 4414.34 -2042.4)
(-17823.9 1339.58 -2042.48)
(-17785.3 -1775.63 -2042.43)
(-17207.1 -4837.35 -2042.46)
(-16105.5 -7751.61 -2042.43)
(-14514.9 -10430.7 -2042.41)
(-12483 -12792.6 -2042.36)
(-10072 -14766 -2042.38)
(-7354.9 -16290.7 -2042.4)
(-4414.34 -17320.2 -2042.4)
(-1339.58 -17823.9 -2042.48)
(1775.63 -17785.3 -2042.43)
(4837.35 -17207.1 -2042.46)
(7751.61 -16105.5 -2042.43)
(10430.7 -14514.9 -2042.41)
(12792.6 -12483 -2042.36)
(14766 -10072 -2042.38)
(16290.7 -7354.9 -2042.4)
(17320.2 -4414.34 -2042.4)
(17823.9 -1339.58 -2042.48)
(17785.3 1775.63 -2042.43)
(15158.3 4211.9 -2452.69)
(14196.5 6780 -2452.64)
(12803.5 9142.19 -2452.74)
(11021.5 11226.6 -2452.7)
(8904.55 12970 -2452.7)
(6517.05 14319.3 -2452.75)
(3931.51 15233.4 -2452.71)
(1226.57 15684.6 -2452.7)
(-1515.69 15659.3 -2452.68)
(-4211.9 15158.3 -2452.69)
(-6780 14196.5 -2452.64)
(-9142.19 12803.5 -2452.74)
(-11226.6 11021.5 -2452.7)
(-12970 8904.55 -2452.7)
(-14319.3 6517.05 -2452.75)
(-15233.4 3931.51 -2452.71)
(-15684.6 1226.57 -2452.7)
(-15659.3 -1515.69 -2452.68)
(-15158.3 -4211.9 -2452.69)
(-14196.5 -6780 -2452.64)
(-12803.5 -9142.19 -2452.74)
(-11021.5 -11226.6 -2452.7)
(-8904.55 -12970 -2452.7)
(-6517.05 -14319.3 -2452.75)
(-3931.51 -15233.4 -2452.71)
(-1226.57 -15684.6 -2452.7)
(1515.69 -15659.3 -2452.68)
(4211.9 -15158.3 -2452.69)
(6780 -14196.5 -2452.64)
(9142.19 -12803.5 -2452.74)
(11226.6 -11021.5 -2452.7)
(12970 -8904.55 -2452.7)
(14319.3 -6517.05 -2452.75)
(15233.4 -3931.51 -2452.71)
(15684.6 -1226.57 -2452.7)
(15659.3 1515.69 -2452.68)
(12314.7 1945.67 -2848.3)
(11789.8 4054.74 -2848.25)
(10906.6 6040.33 -2848.25)
(9692.01 7842.67 -2848.3)
(8182.91 9406.47 -2848.32)
(6425.2 10684.4 -2848.3)
(4472.27 11637.8 -2848.26)
(2383.41 12237.6 -2848.29)
(222.016 12465.7 -2848.32)
(-1945.67 12314.7 -2848.3)
(-4054.74 11789.8 -2848.25)
(-6040.33 10906.6 -2848.25)
(-7842.67 9692.01 -2848.3)
(-9406.47 8182.91 -2848.32)
(-10684.4 6425.2 -2848.3)
(-11637.8 4472.27 -2848.26)
(-12237.6 2383.41 -2848.29)
(-12465.7 222.016 -2848.32)
(-12314.7 -1945.67 -2848.3)
(-11789.8 -4054.74 -2848.25)
(-10906.6 -6040.33 -2848.25)
(-9692.01 -7842.67 -2848.3)
(-8182.91 -9406.47 -2848.32)
(-6425.2 -10684.4 -2848.3)
(-4472.27 -11637.8 -2848.26)
(-2383.41 -12237.6 -2848.29)
(-222.016 -12465.7 -2848.31)
(1945.67 -12314.7 -2848.3)
(4054.74 -11789.8 -2848.25)
(6040.33 -10906.6 -2848.24)
(7842.67 -9692.01 -2848.3)
(9406.47 -8182.91 -2848.32)
(10684.4 -6425.2 -2848.3)
(11637.8 -4472.27 -2848.26)
(12237.6 -2383.41 -2848.29)
(12465.7 -222.016 -2848.32)
(8660.7 -2715.2 -3006.23)
(9000.65 -1169.93 -3006.26)
(9067.06 410.782 -3006.22)
(8857.99 1979.07 -3006.21)
(8379.76 3487.13 -3006.18)
(7646.94 4889.19 -3006.19)
(6681.74 6142.82 -3006.23)
(5513.54 7209.77 -3006.24)
(4177.71 8057.75 -3006.24)
(2715.2 8660.7 -3006.23)
(1169.93 9000.65 -3006.26)
(-410.782 9067.06 -3006.22)
(-1979.07 8857.99 -3006.21)
(-3487.13 8379.76 -3006.18)
(-4889.19 7646.94 -3006.19)
(-6142.82 6681.74 -3006.23)
(-7209.77 5513.54 -3006.24)
(-8057.75 4177.71 -3006.24)
(-8660.7 2715.2 -3006.23)
(-9000.65 1169.93 -3006.26)
(-9067.06 -410.782 -3006.22)
(-8857.99 -1979.07 -3006.21)
(-8379.76 -3487.13 -3006.18)
(-7646.94 -4889.19 -3006.19)
(-6681.74 -6142.82 -3006.23)
(-5513.54 -7209.77 -3006.24)
(-4177.7 -8057.75 -3006.24)
(-2715.2 -8660.7 -3006.23)
(-1169.93 -9000.65 -3006.25)
(410.782 -9067.06 -3006.22)
(1979.07 -8857.99 -3006.21)
(3487.13 -8379.76 -3006.18)
(4889.19 -7646.94 -3006.19)
(6142.82 -6681.74 -3006.23)
(7209.77 -5513.54 -3006.24)
(8057.75 -4177.71 -3006.24)
(4318.12 -10390.7 -2387.17)
(6056.92 -9482.79 -2387.25)
(7611.55 -8287.13 -2387.18)
(8934.94 -6839.36 -2387.24)
(9986.86 -5183.96 -2387.23)
(10735.3 -3370.98 -2387.23)
(11157.5 -1455.5 -2387.27)
(11240.9 503.878 -2387.17)
(10982.5 2448.32 -2387.22)
(10390.7 4318.12 -2387.18)
(9482.79 6056.92 -2387.25)
(8287.13 7611.55 -2387.18)
(6839.36 8934.94 -2387.24)
(5183.95 9986.86 -2387.23)
(3370.98 10735.3 -2387.23)
(1455.49 11157.5 -2387.27)
(-503.879 11240.9 -2387.17)
(-2448.32 10982.5 -2387.22)
(-4318.12 10390.7 -2387.18)
(-6056.92 9482.79 -2387.25)
(-7611.55 8287.13 -2387.18)
(-8934.94 6839.36 -2387.24)
(-9986.86 5183.95 -2387.23)
(-10735.3 3370.98 -2387.23)
(-11157.5 1455.49 -2387.27)
(-11240.9 -503.879 -2387.17)
(-10982.5 -2448.32 -2387.22)
(-10390.7 -4318.12 -2387.17)
(-9482.79 -6056.92 -2387.25)
(-8287.13 -7611.55 -2387.18)
(-6839.36 -8934.94 -2387.24)
(-5183.96 -9986.86 -2387.23)
(-3370.98 -10735.3 -2387.23)
(-1455.49 -11157.5 -2387.27)
(503.879 -11240.9 -2387.17)
(2448.32 -10982.5 -2387.22)
(-211.892 -20872.9 254.784)
(3415.84 -20592.3 254.713)
(6939.86 -19686.5 254.747)
(10252.9 -18182.2 254.716)
(13254.4 -16125.6 254.72)
(15853.2 -13578.9 254.681)
(17970.4 -10619.9 254.764)
(19541.7 -7338.09 254.813)
(20519 -3833.29 254.83)
(20872.9 -211.893 254.784)
(20592.3 3415.84 254.713)
(19686.4 6939.86 254.746)
(18182.2 10252.9 254.715)
(16125.6 13254.4 254.719)
(13578.9 15853.2 254.68)
(10619.9 17970.4 254.763)
(7338.09 19541.7 254.812)
(3833.29 20519 254.83)
(211.892 20872.9 254.783)
(-3415.84 20592.3 254.713)
(-6939.86 19686.4 254.746)
(-10252.9 18182.2 254.715)
(-13254.4 16125.6 254.719)
(-15853.2 13578.9 254.68)
(-17970.4 10619.9 254.763)
(-19541.7 7338.09 254.812)
(-20519 3833.29 254.83)
(-20872.9 211.893 254.784)
(-20592.3 -3415.84 254.714)
(-19686.5 -6939.86 254.747)
(-18182.2 -10252.9 254.716)
(-16125.6 -13254.4 254.72)
(-13578.9 -15853.2 254.68)
(-10619.9 -17970.4 254.763)
(-7338.09 -19541.7 254.812)
(-3833.29 -20519 254.83)
(-4079.58 -32447.5 7670.43)
(1616.83 -32662.6 7670.25)
(7264.18 -31885.7 7670.32)
(12690.7 -30139.8 7670.24)
(17731.6 -27478.2 7670.23)
(22234 -23982 7670.43)
(26060.4 -19756.6 7670.32)
(29095.7 -14931.3 7670.62)
(31246.1 -9651.99 7670.44)
(32447.5 -4079.58 7670.43)
(32662.6 1616.83 7670.25)
(31885.7 7264.18 7670.32)
(30139.8 12690.7 7670.24)
(27478.2 17731.6 7670.23)
(23982 22234 7670.43)
(19756.6 26060.4 7670.32)
(14931.3 29095.7 7670.62)
(9651.99 31246.1 7670.44)
(4079.58 32447.5 7670.43)
(-1616.83 32662.6 7670.25)
(-7264.18 31885.7 7670.32)
(-12690.7 30139.8 7670.24)
(-17731.6 27478.2 7670.23)
(-22234 23982 7670.43)
(-26060.4 19756.6 7670.32)
(-29095.7 14931.3 7670.62)
(-31246.1 9652 7670.44)
(-32447.5 4079.58 7670.43)
(-32662.6 -1616.83 7670.25)
(-31885.8 -7264.18 7670.32)
(-30139.8 -12690.7 7670.24)
(-27478.2 -17731.6 7670.23)
(-23982 -22234 7670.43)
(-19756.6 -26060.4 7670.31)
(-14931.3 -29095.7 7670.62)
(-9651.99 -31246.1 7670.44)
(-5060.02 -36652.1 21095)
(1381.97 -36973.9 21094.8)
(7780.98 -36172.1 21094.8)
(13944.4 -34271.5 21095)
(19683.6 -31329.5 21095.1)
(24824.9 -27435.5 21095)
(29212.3 -22707.9 21095.4)
(32711.3 -17290.5 21095.2)
(35217.1 -11347.1 21095.1)
(36652.1 -5060.02 21095)
(36973.9 1381.97 21094.8)
(36172.1 7780.98 21094.8)
(34271.5 13944.4 21095)
(31329.5 19683.6 21095)
(27435.5 24824.9 21095)
(22707.9 29212.3 21095.4)
(17290.5 32711.3 21095.2)
(11347.1 35217.1 21095.1)
(5060.02 36652.1 21095)
(-1381.97 36973.9 21094.8)
(-7780.98 36172.1 21094.8)
(-13944.4 34271.5 21095)
(-19683.6 31329.5 21095)
(-24824.9 27435.5 21095)
(-29212.3 22707.9 21095.4)
(-32711.3 17290.5 21095.2)
(-35217.1 11347.1 21095.1)
(-36652.1 5060.02 21095)
(-36973.9 -1381.97 21094.8)
(-36172.1 -7780.98 21094.8)
(-34271.5 -13944.4 21095)
(-31329.5 -19683.6 21095.1)
(-27435.5 -24824.9 21095)
(-22707.9 -29212.3 21095.4)
(-17290.5 -32711.3 21095.2)
(-11347.1 -35217.1 21095.1)
(-3919.78 -20853.4 23537.3)
(-238.884 -21217 23536.4)
(3448.61 -20935.2 23534.2)
(7033.57 -20021.5 23543.7)
(10398.8 -18490.7 23525.9)
(13458.4 -16409.5 23548.2)
(16097.3 -13819.5 23529.4)
(18256.2 -10816 23540.2)
(19855.7 -7480.9 23536.2)
(20853.4 -3919.78 23537.3)
(21217 -238.885 23536.4)
(20935.2 3448.61 23534.2)
(20021.5 7033.56 23543.7)
(18490.7 10398.8 23525.9)
(16409.5 13458.4 23548.2)
(13819.5 16097.3 23529.4)
(10816 18256.2 23540.2)
(7480.9 19855.7 23536.2)
(3919.78 20853.4 23537.3)
(238.883 21217 23536.4)
(-3448.61 20935.2 23534.2)
(-7033.57 20021.5 23543.7)
(-10398.8 18490.7 23525.9)
(-13458.4 16409.5 23548.2)
(-16097.3 13819.5 23529.4)
(-18256.2 10816 23540.2)
(-19855.7 7480.9 23536.2)
(-20853.4 3919.78 23537.3)
(-21217 238.883 23536.4)
(-20935.2 -3448.61 23534.2)
(-20021.5 -7033.56 23543.7)
(-18490.7 -10398.8 23525.9)
(-16409.5 -13458.4 23548.2)
(-13819.5 -16097.3 23529.4)
(-10816 -18256.2 23540.2)
(-7480.9 -19855.7 23536.2)
)
;
    }
    outside
    {
        type            calculated;
        value           nonuniform List<vector> 
540
(
(17915.8 2271.61 -17.347)
(17249.2 5348.33 -17.3322)
(16058.5 8262.22 -17.3553)
(14379.7 10925 -17.317)
(12264.1 13256.1 -17.2752)
(9775.78 15184.5 -17.3089)
(6990.59 16651.3 -17.3542)
(3993.07 17612.3 -17.3459)
(873.898 18038.2 -17.3472)
(-2271.61 17915.8 -17.3471)
(-5348.33 17249.2 -17.3324)
(-8262.22 16058.5 -17.3555)
(-10925 14379.7 -17.3172)
(-13256.1 12264.1 -17.2754)
(-15184.5 9775.78 -17.3091)
(-16651.3 6990.59 -17.3544)
(-17612.3 3993.07 -17.3461)
(-18038.2 873.898 -17.3474)
(-17915.8 -2271.61 -17.3473)
(-17249.2 -5348.33 -17.3326)
(-16058.5 -8262.22 -17.3556)
(-14379.7 -10925 -17.3173)
(-12264.1 -13256.1 -17.2755)
(-9775.78 -15184.5 -17.3092)
(-6990.59 -16651.3 -17.3544)
(-3993.07 -17612.3 -17.3461)
(-873.898 -18038.2 -17.3473)
(2271.61 -17915.8 -17.3473)
(5348.33 -17249.2 -17.3325)
(8262.22 -16058.5 -17.3555)
(10925 -14379.7 -17.3172)
(13256.1 -12264.1 -17.2754)
(15184.5 -9775.78 -17.309)
(16651.3 -6990.59 -17.3542)
(17612.3 -3993.07 -17.3459)
(18038.2 -873.898 -17.3471)
(4710.83 2487.95 36.1967)
(4207.19 3268.4 36.2036)
(3575.84 3949.32 36.2031)
(2835.67 4509.98 36.2048)
(2009.35 4934.02 36.192)
(1121.94 5208.15 36.1933)
(200.642 5323.66 36.2147)
(-726.772 5277.74 36.2061)
(-1632.43 5071.34 36.1905)
(-2487.95 4710.83 36.1967)
(-3268.4 4207.19 36.2036)
(-3949.32 3575.84 36.203)
(-4509.98 2835.67 36.2048)
(-4934.02 2009.35 36.1919)
(-5208.15 1121.94 36.1933)
(-5323.66 200.642 36.2147)
(-5277.74 -726.772 36.2061)
(-5071.34 -1632.43 36.1905)
(-4710.83 -2487.95 36.1967)
(-4207.19 -3268.4 36.2036)
(-3575.84 -3949.32 36.203)
(-2835.67 -4509.97 36.2047)
(-2009.35 -4934.02 36.1919)
(-1121.94 -5208.15 36.1933)
(-200.642 -5323.66 36.2147)
(726.772 -5277.74 36.2061)
(1632.43 -5071.34 36.1905)
(2487.95 -4710.83 36.1967)
(3268.4 -4207.19 36.2036)
(3949.32 -3575.84 36.203)
(4509.97 -2835.67 36.2048)
(4934.02 -2009.35 36.192)
(5208.15 -1121.94 36.1933)
(5323.67 -200.642 36.2147)
(5277.74 726.772 36.2061)
(5071.34 1632.43 36.1905)
(5266.99 4351.34 -231.954)
(4431.14 5199.82 -231.953)
(3461.02 5890.44 -231.969)
(2385.49 6401.79 -231.965)
(1237.66 6718.88 -231.977)
(52.1773 6831.79 -231.976)
(-1134.95 6736.81 -231.952)
(-2287.59 6437.51 -231.956)
(-3370.76 5942.36 -231.941)
(-4351.34 5266.99 -231.954)
(-5199.82 4431.14 -231.953)
(-5890.44 3461.02 -231.969)
(-6401.79 2385.49 -231.965)
(-6718.88 1237.67 -231.978)
(-6831.79 52.1774 -231.976)
(-6736.81 -1134.95 -231.952)
(-6437.51 -2287.59 -231.956)
(-5942.36 -3370.76 -231.941)
(-5266.99 -4351.34 -231.954)
(-4431.14 -5199.82 -231.953)
(-3461.02 -5890.44 -231.969)
(-2385.49 -6401.79 -231.965)
(-1237.67 -6718.88 -231.978)
(-52.1774 -6831.79 -231.976)
(1134.95 -6736.81 -231.952)
(2287.59 -6437.51 -231.956)
(3370.76 -5942.36 -231.941)
(4351.34 -5266.99 -231.954)
(5199.82 -4431.14 -231.953)
(5890.44 -3461.02 -231.969)
(6401.79 -2385.49 -231.965)
(6718.88 -1237.66 -231.977)
(6831.79 -52.1773 -231.976)
(6736.81 1134.95 -231.952)
(6437.51 2287.59 -231.956)
(5942.36 3370.76 -231.941)
(5108.83 6091.29 -524.318)
(3973.45 6886.06 -524.325)
(2717.31 7471.26 -524.314)
(1378.74 7829.67 -524.308)
(-1.82429 7950.15 -524.302)
(-1382.32 7829.1 -524.308)
(-2720.82 7470.11 -524.321)
(-3976.55 6883.98 -524.307)
(-5111.69 6088.95 -524.318)
(-6091.29 5108.83 -524.318)
(-6886.06 3973.45 -524.325)
(-7471.26 2717.31 -524.314)
(-7829.67 1378.74 -524.308)
(-7950.15 -1.82403 -524.302)
(-7829.1 -1382.32 -524.308)
(-7470.11 -2720.82 -524.321)
(-6883.98 -3976.55 -524.307)
(-6088.95 -5111.69 -524.318)
(-5108.83 -6091.29 -524.319)
(-3973.45 -6886.06 -524.325)
(-2717.31 -7471.26 -524.314)
(-1378.74 -7829.67 -524.308)
(1.82402 -7950.15 -524.302)
(1382.32 -7829.1 -524.308)
(2720.82 -7470.11 -524.321)
(3976.55 -6883.98 -524.307)
(5111.69 -6088.95 -524.318)
(6091.29 -5108.83 -524.318)
(6886.06 -3973.45 -524.325)
(7471.26 -2717.31 -524.314)
(7829.67 -1378.74 -524.308)
(7950.15 1.82423 -524.302)
(7829.1 1382.32 -524.308)
(7470.11 2720.82 -524.321)
(6883.98 3976.55 -524.307)
(6088.95 5111.69 -524.318)
(4750.13 7833.15 -858.101)
(3317.79 8539.22 -858.122)
(1784.49 8985.34 -858.094)
(197.234 9158.83 -858.11)
(-1396.28 9053.91 -858.098)
(-2947.34 8673.9 -858.097)
(-4408.7 8030.52 -858.117)
(-5736.05 7142.61 -858.087)
(-6889.41 6038.22 -858.109)
(-7833.15 4750.13 -858.101)
(-8539.22 3317.79 -858.122)
(-8985.34 1784.49 -858.094)
(-9158.83 197.234 -858.11)
(-9053.91 -1396.28 -858.098)
(-8673.9 -2947.34 -858.097)
(-8030.52 -4408.7 -858.117)
(-7142.61 -5736.05 -858.087)
(-6038.22 -6889.41 -858.109)
(-4750.13 -7833.15 -858.101)
(-3317.79 -8539.22 -858.122)
(-1784.49 -8985.34 -858.094)
(-197.234 -9158.83 -858.11)
(1396.28 -9053.91 -858.098)
(2947.34 -8673.9 -858.097)
(4408.7 -8030.52 -858.117)
(5736.05 -7142.61 -858.087)
(6889.41 -6038.22 -858.109)
(7833.15 -4750.13 -858.101)
(8539.22 -3317.79 -858.122)
(8985.34 -1784.49 -858.094)
(9158.83 -197.234 -858.11)
(9053.91 1396.28 -858.098)
(8673.9 2947.34 -858.097)
(8030.52 4408.7 -858.116)
(7142.61 5736.05 -858.087)
(6038.22 6889.41 -858.109)
(4013.22 9532.42 -1178.25)
(2297.06 10084.7 -1178.27)
(510.859 10330.2 -1178.26)
(-1290.62 10262.1 -1178.28)
(-3053.05 9881.98 -1178.27)
(-4722.69 9201.65 -1178.26)
(-6248.72 8241.83 -1178.26)
(-7584.98 7031.42 -1178.24)
(-8690.87 5607.66 -1178.27)
(-9532.42 4013.22 -1178.25)
(-10084.7 2297.06 -1178.27)
(-10330.2 510.859 -1178.26)
(-10262.1 -1290.62 -1178.28)
(-9881.98 -3053.05 -1178.27)
(-9201.65 -4722.69 -1178.26)
(-8241.83 -6248.72 -1178.26)
(-7031.42 -7584.98 -1178.24)
(-5607.66 -8690.87 -1178.27)
(-4013.22 -9532.42 -1178.25)
(-2297.06 -10084.7 -1178.27)
(-510.859 -10330.2 -1178.26)
(1290.62 -10262.1 -1178.28)
(3053.05 -9881.98 -1178.27)
(4722.69 -9201.65 -1178.26)
(6248.72 -8241.83 -1178.26)
(7584.98 -7031.42 -1178.24)
(8690.87 -5607.66 -1178.27)
(9532.42 -4013.22 -1178.25)
(10084.7 -2297.06 -1178.27)
(10330.2 -510.859 -1178.26)
(10262.1 1290.62 -1178.28)
(9881.98 3053.05 -1178.27)
(9201.65 4722.69 -1178.26)
(8241.83 6248.72 -1178.26)
(7031.42 7584.98 -1178.24)
(5607.66 8690.87 -1178.27)
(2826.94 11089.7 -1414.61)
(858.401 11412.2 -1414.64)
(-1136.58 11387.7 -1414.59)
(-3096.57 11017.7 -1414.66)
(-4962.79 10312.2 -1414.62)
(-6678.06 9293.7 -1414.6)
(-8190.45 7993.16 -1414.63)
(-9454.05 6449.21 -1414.6)
(-10430.4 4709.76 -1414.62)
(-11089.7 2826.94 -1414.61)
(-11412.2 858.401 -1414.64)
(-11387.7 -1136.58 -1414.59)
(-11017.7 -3096.57 -1414.66)
(-10312.2 -4962.79 -1414.62)
(-9293.7 -6678.06 -1414.6)
(-7993.16 -8190.45 -1414.63)
(-6449.21 -9454.05 -1414.6)
(-4709.76 -10430.4 -1414.62)
(-2826.94 -11089.7 -1414.61)
(-858.401 -11412.2 -1414.64)
(1136.58 -11387.7 -1414.59)
(3096.57 -11017.7 -1414.66)
(4962.79 -10312.2 -1414.62)
(6678.06 -9293.7 -1414.6)
(8190.45 -7993.16 -1414.63)
(9454.05 -6449.21 -1414.6)
(10430.4 -4709.76 -1414.62)
(11089.7 -2826.94 -1414.61)
(11412.2 -858.4 -1414.64)
(11387.7 1136.58 -1414.59)
(11017.7 3096.57 -1414.66)
(10312.2 4962.79 -1414.62)
(9293.7 6678.06 -1414.6)
(7993.16 8190.45 -1414.63)
(6449.21 9454.05 -1414.6)
(4709.76 10430.4 -1414.62)
(1102.09 12283.7 -1449.98)
(-1047.73 12288.4 -1449.96)
(-3165.74 11919.8 -1449.94)
(-5187.46 11189.1 -1449.97)
(-7051.61 10118.1 -1449.94)
(-8701.43 8739.88 -1449.94)
(-10087 7096.22 -1449.96)
(-11166 5236.76 -1449.95)
(-11905.7 3218.24 -1449.94)
(-12283.7 1102.09 -1449.98)
(-12288.4 -1047.73 -1449.96)
(-11919.8 -3165.74 -1449.94)
(-11189.1 -5187.46 -1449.97)
(-10118.1 -7051.61 -1449.94)
(-8739.88 -8701.43 -1449.94)
(-7096.22 -10087 -1449.96)
(-5236.76 -11166 -1449.95)
(-3218.24 -11905.7 -1449.94)
(-1102.09 -12283.7 -1449.98)
(1047.73 -12288.4 -1449.96)
(3165.74 -11919.8 -1449.94)
(5187.46 -11189.1 -1449.97)
(7051.61 -10118.1 -1449.94)
(8701.43 -8739.88 -1449.94)
(10087 -7096.22 -1449.96)
(11166 -5236.76 -1449.95)
(11905.7 -3218.24 -1449.94)
(12283.7 -1102.09 -1449.98)
(12288.4 1047.73 -1449.96)
(11919.8 3165.74 -1449.94)
(11189.1 5187.46 -1449.97)
(10118.1 7051.61 -1449.94)
(8739.88 8701.43 -1449.94)
(7096.22 10087 -1449.96)
(5236.76 11166 -1449.95)
(3218.24 11905.7 -1449.94)
(-1210.59 12753.1 -1057.22)
(-3406.67 12349.2 -1057.24)
(-5499.38 11570 -1057.24)
(-7424.94 10439.3 -1057.24)
(-9124.9 8991.34 -1057.24)
(-10547.6 7270.24 -1057.24)
(-11649.8 5328.14 -1057.22)
(-12398.1 3224.3 -1057.24)
(-12769.7 1022.5 -1057.25)
(-12753.1 -1210.59 -1057.22)
(-12349.2 -3406.67 -1057.24)
(-11570 -5499.38 -1057.24)
(-10439.3 -7424.94 -1057.24)
(-8991.34 -9124.9 -1057.24)
(-7270.24 -10547.6 -1057.24)
(-5328.14 -11649.8 -1057.22)
(-3224.3 -12398.1 -1057.24)
(-1022.5 -12769.7 -1057.25)
(1210.59 -12753.1 -1057.22)
(3406.67 -12349.2 -1057.24)
(5499.38 -11570 -1057.24)
(7424.94 -10439.3 -1057.24)
(9124.9 -8991.34 -1057.24)
(10547.6 -7270.24 -1057.24)
(11649.8 -5328.14 -1057.22)
(12398.1 -3224.3 -1057.24)
(12769.7 -1022.5 -1057.25)
(12753.1 1210.59 -1057.22)
(12349.2 3406.67 -1057.24)
(11570 5499.38 -1057.24)
(10439.3 7424.94 -1057.24)
(8991.34 9124.9 -1057.24)
(7270.24 10547.6 -1057.24)
(5328.14 11649.8 -1057.22)
(3224.3 12398.1 -1057.24)
(1022.51 12769.7 -1057.25)
(-3943.13 12028.5 167.941)
(-5971.96 11161 167.968)
(-7819.31 9954.4 167.951)
(-9429.08 8445.43 167.917)
(-10752.4 6679.77 167.931)
(-11748.9 4711.12 167.952)
(-12388.5 2599.37 167.947)
(-12651.7 408.726 167.907)
(-12530.4 -1794.5 167.938)
(-12028.5 -3943.13 167.941)
(-11161 -5971.96 167.969)
(-9954.4 -7819.31 167.951)
(-8445.43 -9429.08 167.917)
(-6679.77 -10752.4 167.931)
(-4711.12 -11748.9 167.952)
(-2599.37 -12388.5 167.947)
(-408.727 -12651.7 167.907)
(1794.5 -12530.4 167.938)
(3943.13 -12028.5 167.941)
(5971.96 -11161 167.969)
(7819.31 -9954.4 167.951)
(9429.08 -8445.43 167.917)
(10752.4 -6679.77 167.931)
(11748.9 -4711.12 167.952)
(12388.5 -2599.37 167.947)
(12651.7 -408.726 167.907)
(12530.4 1794.5 167.938)
(12028.5 3943.13 167.941)
(11161 5971.96 167.969)
(9954.4 7819.31 167.951)
(8445.43 9429.08 167.917)
(6679.77 10752.4 167.931)
(4711.12 11748.9 167.952)
(2599.37 12388.5 167.947)
(408.727 12651.7 167.907)
(-1794.5 12530.4 167.938)
(-6397.42 9964.18 2714.67)
(-8030.54 8701.79 2714.73)
(-9419.63 7175.02 2714.72)
(-10522.4 5430.47 2714.68)
(-11305.6 3520.79 2714.67)
(-11745.2 1504.05 2714.7)
(-11828 -558.176 2714.65)
(-11551.2 -2603.83 2714.68)
(-10923.5 -4570.18 2714.71)
(-9964.18 -6397.42 2714.67)
(-8701.79 -8030.54 2714.73)
(-7175.02 -9419.63 2714.72)
(-5430.47 -10522.4 2714.68)
(-3520.79 -11305.6 2714.67)
(-1504.05 -11745.2 2714.7)
(558.175 -11828 2714.65)
(2603.83 -11551.2 2714.68)
(4570.18 -10923.5 2714.71)
(6397.42 -9964.18 2714.67)
(8030.54 -8701.79 2714.73)
(9419.63 -7175.02 2714.72)
(10522.4 -5430.47 2714.68)
(11305.6 -3520.79 2714.66)
(11745.2 -1504.05 2714.7)
(11828 558.175 2714.65)
(11551.2 2603.83 2714.68)
(10923.5 4570.18 2714.71)
(9964.18 6397.42 2714.67)
(8701.79 8030.54 2714.73)
(7175.01 9419.63 2714.72)
(5430.47 10522.4 2714.68)
(3520.79 11305.6 2714.67)
(1504.05 11745.2 2714.7)
(-558.175 11828 2714.65)
(-2603.83 11551.2 2714.68)
(-4570.18 10923.5 2714.71)
(-7384.06 7526.48 6710.16)
(-8578.95 6129.75 6710.2)
(-9513.02 4547.05 6710.12)
(-10158.1 2826.01 6710.19)
(-10494.5 1019.22 6710.12)
(-10512.1 -818.688 6710.13)
(-10210.3 -2631.52 6710.07)
(-9598.14 -4364.56 6710.09)
(-8694.09 -5965.28 6710.27)
(-7526.48 -7384.06 6710.16)
(-6129.75 -8578.95 6710.2)
(-4547.05 -9513.02 6710.12)
(-2826.01 -10158.1 6710.19)