/*--------------------------------*- C++ -*----------------------------------*\
| =========                 |                                                 |
| \\      /  F ield         | OpenFOAM: The Open Source CFD Toolbox           |
|  \\    /   O peration     | Version:  2312                                  |
|   \\  /    A nd           | Website:  www.openfoam.com                      |
|    \\/     M anipulation  |                                                 |
\*---------------------------------------------------------------------------*/
FoamFile
{
    version     2.0;
    format      ascii;
    arch        "LSB;label=32;scalar=64";
    class       volVectorField;
    location    "0.7";
    object      D;
}
// * * * * * * * * * * * * * * * * * * * * * * * * * * * * * * * * * * * * * //

dimensions      [0 1 0 0 0 0 0];

internalField   nonuniform List<vector> 
1620
(
(0.000120535 0.000306633 4.64456e-05)
(6.54571e-05 0.000322905 4.64454e-05)
(8.39104e-06 0.000329366 4.64456e-05)
(-4.89301e-05 0.00032582 4.6446e-05)
(-0.000104765 0.000312374 4.64461e-05)
(-0.000157416 0.000289436 4.64459e-05)
(-0.000205285 0.000257703 4.64461e-05)
(-0.000246916 0.00021814 4.6446e-05)
(-0.000281044 0.00017195 4.64457e-05)
(-0.000306633 0.000120535 4.64456e-05)
(-0.000322905 6.54571e-05 4.64454e-05)
(-0.000329366 8.39102e-06 4.64455e-05)
(-0.00032582 -4.89301e-05 4.6446e-05)
(-0.000312374 -0.000104765 4.64461e-05)
(-0.000289436 -0.000157416 4.64459e-05)
(-0.000257703 -0.000205285 4.64461e-05)
(-0.00021814 -0.000246916 4.6446e-05)
(-0.00017195 -0.000281044 4.64457e-05)
(-0.000120535 -0.000306633 4.64456e-05)
(-6.54571e-05 -0.000322905 4.64454e-05)
(-8.391e-06 -0.000329366 4.64456e-05)
(4.89301e-05 -0.00032582 4.6446e-05)
(0.000104765 -0.000312374 4.64461e-05)
(0.000157416 -0.000289436 4.64459e-05)
(0.000205285 -0.000257703 4.64461e-05)
(0.000246916 -0.00021814 4.6446e-05)
(0.000281044 -0.00017195 4.64457e-05)
(0.000306633 -0.000120535 4.64456e-05)
(0.000322905 -6.54571e-05 4.64454e-05)
(0.000329366 -8.39102e-06 4.64456e-05)
(0.00032582 4.89301e-05 4.64461e-05)
(0.000312374 0.000104765 4.64461e-05)
(0.000289436 0.000157416 4.64459e-05)
(0.000257703 0.000205285 4.64461e-05)
(0.00021814 0.000246916 4.64461e-05)
(0.00017195 0.000281044 4.64457e-05)
(5.59854e-05 0.000338746 7.47511e-05)
(-3.68774e-06 0.000343322 7.47511e-05)
(-6.32485e-05 0.000337465 7.47512e-05)
(-0.000120888 0.000321355 7.47514e-05)
(-0.000174854 0.000295482 7.47516e-05)
(-0.000223508 0.000260629 7.47514e-05)
(-0.00026537 0.000217858 7.47513e-05)
(-0.000299169 0.000168467 7.47513e-05)
(-0.000323878 0.000113957 7.47511e-05)
(-0.000338746 5.59854e-05 7.47511e-05)
(-0.000343322 -3.68776e-06 7.47511e-05)
(-0.000337465 -6.32486e-05 7.47512e-05)
(-0.000321355 -0.000120888 7.47514e-05)
(-0.000295482 -0.000174854 7.47515e-05)
(-0.000260629 -0.000223508 7.47514e-05)
(-0.000217858 -0.00026537 7.47513e-05)
(-0.000168467 -0.000299169 7.47513e-05)
(-0.000113957 -0.000323878 7.47511e-05)
(-5.59854e-05 -0.000338746 7.47511e-05)
(3.68778e-06 -0.000343322 7.47511e-05)
(6.32486e-05 -0.000337465 7.47512e-05)
(0.000120888 -0.000321355 7.47514e-05)
(0.000174854 -0.000295482 7.47516e-05)
(0.000223508 -0.000260629 7.47514e-05)
(0.00026537 -0.000217858 7.47513e-05)
(0.000299169 -0.000168467 7.47513e-05)
(0.000323878 -0.000113957 7.47511e-05)
(0.000338746 -5.59854e-05 7.47511e-05)
(0.000343322 3.68776e-06 7.47511e-05)
(0.000337465 6.32486e-05 7.47512e-05)
(0.000321355 0.000120888 7.47514e-05)
(0.000295482 0.000174854 7.47516e-05)
(0.000260629 0.000223508 7.47514e-05)
(0.000217858 0.00026537 7.47513e-05)
(0.000168467 0.000299169 7.47513e-05)
(0.000113957 0.000323878 7.47511e-05)
(-4.02363e-05 0.000358925 9.00578e-05)
(-0.000101952 0.000346486 9.0058e-05)
(-0.000160569 0.000323518 9.0058e-05)
(-0.000214308 0.00029072 9.00579e-05)
(-0.000261536 0.00024909 9.00582e-05)
(-0.000300816 0.00019989 9.00581e-05)
(-0.000330957 0.000144617 9.00581e-05)
(-0.000351041 8.49497e-05 9.00578e-05)
(-0.000360459 2.27016e-05 9.00578e-05)
(-0.000358925 -4.02363e-05 9.00578e-05)
(-0.000346486 -0.000101952 9.0058e-05)
(-0.000323518 -0.000160569 9.00579e-05)
(-0.00029072 -0.000214308 9.00579e-05)
(-0.00024909 -0.000261536 9.00582e-05)
(-0.00019989 -0.000300816 9.00581e-05)
(-0.000144617 -0.000330957 9.00581e-05)
(-8.49497e-05 -0.000351041 9.00577e-05)
(-2.27016e-05 -0.000360459 9.00578e-05)
(4.02363e-05 -0.000358925 9.00578e-05)
(0.000101952 -0.000346486 9.0058e-05)
(0.000160569 -0.000323518 9.00579e-05)
(0.000214308 -0.00029072 9.00579e-05)
(0.000261536 -0.00024909 9.00582e-05)
(0.000300816 -0.00019989 9.00581e-05)
(0.000330957 -0.000144617 9.00581e-05)
(0.000351041 -8.49497e-05 9.00578e-05)
(0.000360459 -2.27016e-05 9.00578e-05)
(0.000358925 4.02363e-05 9.00578e-05)
(0.000346486 0.000101952 9.0058e-05)
(0.000323518 0.000160569 9.0058e-05)
(0.00029072 0.000214308 9.00579e-05)
(0.00024909 0.000261536 9.00582e-05)
(0.00019989 0.000300816 9.00581e-05)
(0.000144617 0.000330957 9.00581e-05)
(8.49497e-05 0.000351041 9.00578e-05)
(2.27016e-05 0.000360459 9.00578e-05)
(0.000229759 0.000911564 0.000188559)
(6.79772e-05 0.000937612 0.000188559)
(-9.58699e-05 0.000935172 0.000188559)
(-0.000256804 0.000904317 0.000188561)
(-0.000409935 0.000845985 0.000188561)
(-0.000550611 0.000761948 0.000188561)
(-0.000674558 0.00065476 0.000188561)
(-0.000778008 0.000527676 0.00018856)
(-0.000857818 0.00038456 0.000188559)
(-0.000911564 0.000229759 0.000188559)
(-0.000937612 6.79772e-05 0.000188559)
(-0.000935172 -9.587e-05 0.000188559)
(-0.000904317 -0.000256804 0.000188561)
(-0.000845985 -0.000409935 0.000188561)
(-0.000761948 -0.000550611 0.000188561)
(-0.00065476 -0.000674558 0.000188561)
(-0.000527676 -0.000778008 0.00018856)
(-0.00038456 -0.000857818 0.000188559)
(-0.000229759 -0.000911564 0.000188559)
(-6.79771e-05 -0.000937612 0.000188559)
(9.58701e-05 -0.000935172 0.000188559)
(0.000256804 -0.000904317 0.000188561)
(0.000409935 -0.000845985 0.000188561)
(0.000550611 -0.000761948 0.000188561)
(0.000674558 -0.00065476 0.000188561)
(0.000778008 -0.000527676 0.00018856)
(0.000857818 -0.00038456 0.000188559)
(0.000911564 -0.000229759 0.000188559)
(0.000937612 -6.79772e-05 0.000188559)
(0.000935172 9.587e-05 0.000188559)
(0.000904317 0.000256804 0.000188561)
(0.000845985 0.000409935 0.000188561)
(0.000761948 0.000550611 0.000188561)
(0.00065476 0.000674558 0.000188561)
(0.000527677 0.000778008 0.00018856)
(0.00038456 0.000857818 0.000188559)
(0.000119076 0.000995438 0.000266718)
(-5.55884e-05 0.00100099 0.000266717)
(-0.000228564 0.000976132 0.000266718)
(-0.000394595 0.000921614 0.000266719)
(-0.000548637 0.000839091 0.000266719)
(-0.000686009 0.000731073 0.000266719)
(-0.000802536 0.000600842 0.000266718)
(-0.000894679 0.000452355 0.000266718)
(-0.000959637 0.000290123 0.000266718)
(-0.000995438 0.000119076 0.000266718)
(-0.00100099 -5.55885e-05 0.000266717)
(-0.000976132 -0.000228564 0.000266718)
(-0.000921613 -0.000394595 0.000266719)
(-0.000839091 -0.000548637 0.000266719)
(-0.000731073 -0.000686009 0.000266719)
(-0.000600842 -0.000802536 0.000266718)
(-0.000452355 -0.000894679 0.000266718)
(-0.000290123 -0.000959637 0.000266718)
(-0.000119076 -0.000995438 0.000266718)
(5.55885e-05 -0.00100099 0.000266717)
(0.000228564 -0.000976132 0.000266718)
(0.000394595 -0.000921613 0.000266719)
(0.000548637 -0.000839091 0.000266719)
(0.000686009 -0.000731073 0.000266719)
(0.000802536 -0.000600842 0.000266718)
(0.000894679 -0.000452355 0.000266718)
(0.000959637 -0.000290123 0.000266718)
(0.000995438 -0.000119076 0.000266718)
(0.00100099 5.55885e-05 0.000266717)
(0.000976133 0.000228564 0.000266718)
(0.000921614 0.000394595 0.000266719)
(0.000839091 0.000548637 0.000266719)
(0.000731073 0.000686009 0.000266719)
(0.000600842 0.000802536 0.000266719)
(0.000452355 0.000894679 0.000266718)
(0.000290123 0.000959637 0.000266718)
(-2.84592e-05 0.00106517 0.000326049)
(-0.000212992 0.00104405 0.000326049)
(-0.000391053 0.000991203 0.000326049)
(-0.000557232 0.000908238 0.000326049)
(-0.000706481 0.000797678 0.000326049)
(-0.000834263 0.000662879 0.000326049)
(-0.000936697 0.00050794 0.000326049)
(-0.00101067 0.000337568 0.000326049)
(-0.00105393 0.000156939 0.000326049)
(-0.00106517 -2.84593e-05 0.000326049)
(-0.00104405 -0.000212992 0.000326049)
(-0.000991203 -0.000391053 0.000326049)
(-0.000908238 -0.000557232 0.000326049)
(-0.000797678 -0.000706481 0.000326049)
(-0.000662879 -0.000834263 0.000326049)
(-0.00050794 -0.000936697 0.000326049)
(-0.000337568 -0.00101067 0.000326049)
(-0.000156939 -0.00105393 0.000326049)
(2.84593e-05 -0.00106517 0.000326049)
(0.000212992 -0.00104405 0.000326049)
(0.000391053 -0.000991203 0.000326049)
(0.000557232 -0.000908238 0.000326049)
(0.000706481 -0.000797678 0.000326049)
(0.000834263 -0.000662879 0.000326049)
(0.000936697 -0.00050794 0.000326049)
(0.00101067 -0.000337568 0.000326049)
(0.00105393 -0.000156939 0.000326049)
(0.00106517 2.84593e-05 0.000326049)
(0.00104405 0.000212992 0.000326049)
(0.000991203 0.000391053 0.000326049)
(0.000908238 0.000557232 0.000326049)
(0.000797678 0.000706481 0.000326049)
(0.000662879 0.000834263 0.000326049)
(0.00050794 0.000936697 0.000326049)
(0.000337568 0.00101067 0.000326049)
(0.000156939 0.00105393 0.000326049)
(0.000280288 0.00152225 0.000424786)
(1.16932e-05 0.0015478 0.000424785)
(-0.000257257 0.00152632 0.000424786)
(-0.000518391 0.00145846 0.000424787)
(-0.000763773 0.00134628 0.000424788)
(-0.000985948 0.0011932 0.000424788)
(-0.00117817 0.00100386 0.000424788)
(-0.00133459 0.000784027 0.000424787)
(-0.00145046 0.000540366 0.000424786)
(-0.00152225 0.000280288 0.000424785)
(-0.0015478 1.16931e-05 0.000424785)
(-0.00152632 -0.000257257 0.000424786)
(-0.00145846 -0.000518391 0.000424787)
(-0.00134628 -0.000763773 0.000424788)
(-0.0011932 -0.000985948 0.000424788)
(-0.00100386 -0.00117817 0.000424788)
(-0.000784026 -0.00133459 0.000424787)
(-0.000540366 -0.00145046 0.000424786)
(-0.000280288 -0.00152225 0.000424785)
(-1.1693e-05 -0.0015478 0.000424785)
(0.000257257 -0.00152632 0.000424786)
(0.000518391 -0.00145846 0.000424787)
(0.000763773 -0.00134628 0.000424788)
(0.000985948 -0.0011932 0.000424788)
(0.00117817 -0.00100386 0.000424788)
(0.00133459 -0.000784027 0.000424787)
(0.00145046 -0.000540366 0.000424786)
(0.00152225 -0.000280288 0.000424786)
(0.0015478 -1.16931e-05 0.000424786)
(0.00152632 0.000257257 0.000424786)
(0.00145846 0.000518391 0.000424787)
(0.00134628 0.000763773 0.000424788)
(0.0011932 0.000985948 0.000424788)
(0.00100386 0.00117817 0.000424788)
(0.000784027 0.00133459 0.000424787)
(0.000540366 0.00145046 0.000424786)
(0.000130045 0.00162741 0.000527964)
(-0.000154526 0.00162527 0.000527964)
(-0.000434403 0.00157374 0.000527964)
(-0.000701079 0.0014744 0.000527965)
(-0.000946455 0.00133026 0.000527965)
(-0.00116307 0.0011457 0.000527965)
(-0.00134435 0.000926326 0.000527965)
(-0.00148478 0.000678809 0.000527965)
(-0.0015801 0.000410666 0.000527964)
(-0.00162741 0.000130045 0.000527964)
(-0.00162527 -0.000154526 0.000527964)
(-0.00157374 -0.000434403 0.000527964)
(-0.0014744 -0.000701079 0.000527965)
(-0.00133026 -0.000946455 0.000527965)
(-0.0011457 -0.00116307 0.000527965)
(-0.000926326 -0.00134435 0.000527965)
(-0.000678809 -0.00148478 0.000527965)
(-0.000410666 -0.0015801 0.000527964)
(-0.000130045 -0.00162741 0.000527964)
(0.000154526 -0.00162527 0.000527964)
(0.000434403 -0.00157374 0.000527964)
(0.000701079 -0.0014744 0.000527965)
(0.000946455 -0.00133026 0.000527965)
(0.00116307 -0.0011457 0.000527965)
(0.00134435 -0.000926326 0.000527965)
(0.00148478 -0.000678809 0.000527965)
(0.0015801 -0.000410666 0.000527964)
(0.00162741 -0.000130045 0.000527964)
(0.00162527 0.000154526 0.000527964)
(0.00157374 0.000434403 0.000527964)
(0.0014744 0.000701079 0.000527965)
(0.00133026 0.000946455 0.000527965)
(0.0011457 0.00116307 0.000527965)
(0.000926327 0.00134435 0.000527965)
(0.000678809 0.00148478 0.000527965)
(0.000410666 0.0015801 0.000527964)
(-5.25741e-05 0.00171569 0.000612843)
(-0.000349701 0.00168049 0.000612843)
(-0.000636202 0.00159424 0.000612843)
(-0.000903373 0.00145954 0.000612843)
(-0.0011431 0.0012805 0.000612843)
(-0.00134809 0.00106255 0.000612843)
(-0.00151212 0.000812314 0.000612843)
(-0.0016302 0.000537397 0.000612843)
(-0.00169875 0.000246151 0.000612843)
(-0.00171569 -5.25742e-05 0.000612843)
(-0.00168049 -0.000349701 0.000612843)
(-0.00159424 -0.000636202 0.000612843)
(-0.00145954 -0.000903373 0.000612843)
(-0.0012805 -0.0011431 0.000612843)
(-0.00106255 -0.00134809 0.000612843)
(-0.000812314 -0.00151212 0.000612843)
(-0.000537397 -0.0016302 0.000612843)
(-0.000246151 -0.00169875 0.000612843)
(5.25742e-05 -0.00171569 0.000612843)
(0.000349701 -0.00168049 0.000612843)
(0.000636202 -0.00159424 0.000612843)
(0.000903373 -0.00145954 0.000612843)
(0.0011431 -0.0012805 0.000612843)
(0.00134809 -0.00106255 0.000612843)
(0.00151212 -0.000812314 0.000612843)
(0.0016302 -0.000537397 0.000612843)
(0.00169875 -0.000246151 0.000612843)
(0.00171569 5.25742e-05 0.000612843)
(0.00168049 0.000349701 0.000612843)
(0.00159424 0.000636202 0.000612843)
(0.00145954 0.000903373 0.000612843)
(0.0012805 0.0011431 0.000612843)
(0.00106255 0.00134809 0.000612843)
(0.000812314 0.00151212 0.000612843)
(0.000537397 0.0016302 0.000612843)
(0.000246151 0.00169875 0.000612843)
(0.00024522 0.0021205 0.000705843)
(-0.000126727 0.00213087 0.000705843)
(-0.000494824 0.00207649 0.000705843)
(-0.000847885 0.00195902 0.000705844)
(-0.00117518 0.00178203 0.000705845)
(-0.00146677 0.00155088 0.000705846)
(-0.0017138 0.00127262 0.000705845)
(-0.00190875 0.000955686 0.000705845)
(-0.00204571 0.000609716 0.000705844)
(-0.0021205 0.00024522 0.000705843)
(-0.00213087 -0.000126727 0.000705843)
(-0.00207649 -0.000494824 0.000705843)
(-0.00195902 -0.000847885 0.000705844)
(-0.00178203 -0.00117518 0.000705845)
(-0.00155088 -0.00146677 0.000705846)
(-0.00127262 -0.0017138 0.000705845)
(-0.000955686 -0.00190875 0.000705845)
(-0.000609716 -0.00204571 0.000705844)
(-0.00024522 -0.0021205 0.000705843)
(0.000126727 -0.00213087 0.000705843)
(0.000494824 -0.00207649 0.000705843)
(0.000847885 -0.00195902 0.000705844)
(0.00117518 -0.00178203 0.000705845)
(0.00146677 -0.00155088 0.000705846)
(0.0017138 -0.00127262 0.000705845)
(0.00190875 -0.000955686 0.000705845)
(0.00204571 -0.000609716 0.000705844)
(0.0021205 -0.00024522 0.000705843)
(0.00213087 0.000126727 0.000705843)
(0.00207649 0.000494824 0.000705843)
(0.00195902 0.000847885 0.000705844)
(0.00178203 0.00117518 0.000705845)
(0.00155088 0.00146677 0.000705846)
(0.00127262 0.0017138 0.000705845)
(0.000955687 0.00190875 0.000705845)
(0.000609716 0.00204571 0.000705844)
(7.86761e-05 0.00221517 0.000817063)
(-0.00030718 0.00219518 0.000817063)
(-0.000683702 0.00210849 0.000817063)
(-0.00103945 0.00195773 0.000817064)
(-0.00136361 0.00174749 0.000817064)
(-0.00164635 0.00148416 0.000817064)
(-0.00187906 0.00117572 0.000817064)
(-0.00205467 0.000831565 0.000817064)
(-0.00216786 0.000462142 0.000817064)
(-0.00221517 7.8676e-05 0.000817063)
(-0.00219518 -0.00030718 0.000817063)
(-0.00210849 -0.000683702 0.000817063)
(-0.00195773 -0.00103945 0.000817063)
(-0.00174749 -0.00136361 0.000817064)
(-0.00148416 -0.00164635 0.000817064)
(-0.00117572 -0.00187906 0.000817064)
(-0.000831565 -0.00205467 0.000817064)
(-0.000462142 -0.00216786 0.000817064)
(-7.86759e-05 -0.00221517 0.000817063)
(0.00030718 -0.00219518 0.000817063)
(0.000683702 -0.00210849 0.000817063)
(0.00103945 -0.00195773 0.000817063)
(0.00136361 -0.00174749 0.000817064)
(0.00164635 -0.00148416 0.000817064)
(0.00187906 -0.00117572 0.000817064)
(0.00205467 -0.000831565 0.000817064)
(0.00216786 -0.000462142 0.000817064)
(0.00221517 -7.8676e-05 0.000817063)
(0.00219518 0.00030718 0.000817063)
(0.00210849 0.000683702 0.000817063)
(0.00195773 0.00103945 0.000817064)
(0.00174749 0.00136361 0.000817064)
(0.00148416 0.00164635 0.000817064)
(0.00117572 0.00187906 0.000817064)
(0.000831565 0.00205467 0.000817064)
(0.000462142 0.00216786 0.000817064)
(-0.000115639 0.00229278 0.000910413)
(-0.000512019 0.00223787 0.000910413)
(-0.000892841 0.00211496 0.000910413)
(-0.00124654 0.00192779 0.000910413)
(-0.00156235 0.00168204 0.000910413)
(-0.0018307 0.00138519 0.000910413)
(-0.00204342 0.00104624 0.000910413)
(-0.00219406 0.000675513 0.000910413)
(-0.00227803 0.000284256 0.000910413)
(-0.00229278 -0.000115639 0.000910413)
(-0.00223787 -0.000512019 0.000910413)
(-0.00211496 -0.000892842 0.000910413)
(-0.00192779 -0.00124654 0.000910413)
(-0.00168204 -0.00156235 0.000910413)
(-0.00138519 -0.0018307 0.000910413)
(-0.00104624 -0.00204342 0.000910413)
(-0.000675513 -0.00219406 0.000910413)
(-0.000284255 -0.00227803 0.000910413)
(0.000115639 -0.00229278 0.000910413)
(0.000512019 -0.00223787 0.000910413)
(0.000892842 -0.00211496 0.000910413)
(0.00124654 -0.00192779 0.000910413)
(0.00156235 -0.00168204 0.000910413)
(0.0018307 -0.00138519 0.000910413)
(0.00204342 -0.00104624 0.000910413)
(0.00219406 -0.000675513 0.000910413)
(0.00227803 -0.000284255 0.000910413)
(0.00229278 0.000115639 0.000910413)
(0.00223787 0.000512019 0.000910413)
(0.00211496 0.000892842 0.000910413)
(0.00192779 0.00124654 0.000910413)
(0.00168204 0.00156235 0.000910413)
(0.00138519 0.0018307 0.000910413)
(0.00104625 0.00204342 0.000910413)
(0.000675513 0.00219406 0.000910413)
(0.000284256 0.00227803 0.000910413)
(0.000136633 0.00267839 0.0010058)
(-0.000330539 0.00266142 0.00100579)
(-0.000787669 0.00256359 0.0010058)
(-0.00122086 0.00238787 0.0010058)
(-0.00161696 0.00213959 0.0010058)
(-0.00196393 0.0018263 0.0010058)
(-0.00225123 0.00145752 0.0010058)
(-0.00247013 0.00104445 0.0010058)
(-0.00261397 0.000599654 0.0010058)
(-0.00267839 0.000136633 0.0010058)
(-0.00266142 -0.00033054 0.00100579)
(-0.00256359 -0.000787669 0.00100579)
(-0.00238787 -0.00122086 0.0010058)
(-0.00213959 -0.00161696 0.0010058)
(-0.0018263 -0.00196393 0.0010058)
(-0.00145752 -0.00225123 0.0010058)
(-0.00104445 -0.00247013 0.0010058)
(-0.000599653 -0.00261397 0.0010058)
(-0.000136632 -0.00267839 0.0010058)
(0.00033054 -0.00266142 0.00100579)
(0.000787669 -0.00256359 0.00100579)
(0.00122086 -0.00238787 0.0010058)
(0.00161696 -0.00213959 0.0010058)
(0.00196393 -0.0018263 0.0010058)
(0.00225123 -0.00145752 0.0010058)
(0.00247013 -0.00104445 0.0010058)
(0.00261397 -0.000599654 0.0010058)
(0.00267839 -0.000136633 0.0010058)
(0.00266142 0.00033054 0.00100579)
(0.00256359 0.000787669 0.0010058)
(0.00238787 0.00122086 0.0010058)
(0.00213959 0.00161696 0.0010058)
(0.0018263 0.00196393 0.0010058)
(0.00145752 0.00225123 0.0010058)
(0.00104445 0.00247013 0.0010058)
(0.000599654 0.00261397 0.0010058)
(-2.98749e-05 0.00274015 0.00111364)
(-0.000505243 0.00269333 0.00111364)
(-0.000965259 0.00256468 0.00111364)
(-0.00139595 0.0023581 0.00111365)
(-0.00178422 0.00207987 0.00111365)
(-0.00211828 0.00173845 0.00111365)
(-0.00238797 0.0013442 0.00111365)
(-0.00258511 0.000909113 0.00111365)
(-0.00270371 0.000446401 0.00111365)
(-0.00274015 -2.98751e-05 0.00111364)
(-0.00269333 -0.000505243 0.00111364)
(-0.00256468 -0.000965259 0.00111364)
(-0.0023581 -0.00139595 0.00111365)
(-0.00207987 -0.00178422 0.00111365)
(-0.00173845 -0.00211828 0.00111365)
(-0.0013442 -0.00238797 0.00111365)
(-0.000909113 -0.00258511 0.00111365)
(-0.000446401 -0.00270371 0.00111365)
(2.98752e-05 -0.00274015 0.00111364)
(0.000505243 -0.00269333 0.00111364)
(0.000965259 -0.00256468 0.00111364)
(0.00139595 -0.0023581 0.00111365)
(0.00178422 -0.00207987 0.00111365)
(0.00211828 -0.00173845 0.00111365)
(0.00238797 -0.0013442 0.00111365)
(0.00258511 -0.000909113 0.00111365)
(0.00270371 -0.000446401 0.00111365)
(0.00274015 2.98751e-05 0.00111364)
(0.00269333 0.000505243 0.00111364)
(0.00256468 0.000965259 0.00111364)
(0.0023581 0.00139595 0.00111365)
(0.00207987 0.00178422 0.00111365)
(0.00173845 0.00211828 0.00111365)
(0.0013442 0.00238797 0.00111365)
(0.000909113 0.00258511 0.00111365)
(0.000446401 0.00270371 0.00111365)
(-0.00021984 0.00278639 0.00120404)
(-0.000700353 0.00270589 0.00120404)
(-0.00115959 0.00254316 0.00120404)
(-0.00158358 0.00230317 0.00120404)
(-0.00195947 0.00199319 0.00120404)
(-0.00227581 0.00162265 0.00120404)
(-0.00252301 0.00120281 0.00120404)
(-0.00269354 0.000746421 0.00120404)
(-0.00278224 0.000267352 0.00120404)
(-0.00278639 -0.00021984 0.00120404)
(-0.00270589 -0.000700353 0.00120404)
(-0.00254316 -0.00115959 0.00120404)
(-0.00230317 -0.00158358 0.00120404)
(-0.00199319 -0.00195947 0.00120404)
(-0.00162265 -0.00227581 0.00120404)
(-0.00120281 -0.00252301 0.00120404)
(-0.000746421 -0.00269354 0.00120404)
(-0.000267352 -0.00278224 0.00120404)
(0.00021984 -0.00278639 0.00120404)
(0.000700353 -0.00270589 0.00120404)
(0.00115959 -0.00254316 0.00120404)
(0.00158358 -0.00230317 0.00120404)
(0.00195947 -0.00199319 0.00120404)
(0.00227581 -0.00162265 0.00120404)
(0.00252301 -0.00120281 0.00120404)
(0.00269354 -0.000746421 0.00120404)
(0.00278224 -0.000267352 0.00120404)
(0.00278639 0.00021984 0.00120404)
(0.00270589 0.000700353 0.00120404)
(0.00254316 0.00115959 0.00120404)
(0.00230317 0.00158358 0.00120404)
(0.00199319 0.00195947 0.00120404)
(0.00162265 0.00227581 0.00120404)
(0.00120281 0.00252301 0.00120404)
(0.000746421 0.00269354 0.00120404)
(0.000267353 0.00278224 0.00120404)
(-2.27955e-05 0.00316775 0.00131248)
(-0.000572523 0.00311566 0.00131248)
(-0.00110485 0.00296891 0.00131248)
(-0.00160361 0.00273195 0.00131248)
(-0.00205365 0.00241198 0.00131248)
(-0.00244129 0.00201873 0.00131248)
(-0.00275474 0.00156413 0.00131248)
(-0.0029845 0.00106201 0.00131248)
(-0.00312358 0.000527624 0.00131248)
(-0.00316775 -2.27957e-05 0.00131248)
(-0.00311566 -0.000572523 0.00131248)
(-0.00296891 -0.00110485 0.00131248)
(-0.00273195 -0.00160361 0.00131248)
(-0.00241198 -0.00205365 0.00131248)
(-0.00201873 -0.00244129 0.00131248)
(-0.00156413 -0.00275474 0.00131248)
(-0.00106201 -0.0029845 0.00131248)
(-0.000527624 -0.00312358 0.00131248)
(2.27959e-05 -0.00316775 0.00131248)
(0.000572523 -0.00311566 0.00131248)
(0.00110485 -0.00296891 0.00131248)
(0.00160361 -0.00273195 0.00131248)
(0.00205365 -0.00241198 0.00131248)
(0.00244129 -0.00201873 0.00131248)
(0.00275475 -0.00156413 0.00131248)
(0.0029845 -0.00106201 0.00131248)
(0.00312358 -0.000527624 0.00131248)
(0.00316775 2.27958e-05 0.00131248)
(0.00311566 0.000572523 0.00131248)
(0.00296891 0.00110485 0.00131248)
(0.00273195 0.00160361 0.00131248)
(0.00241198 0.00205365 0.00131248)
(0.00201873 0.00244129 0.00131248)
(0.00156413 0.00275474 0.00131248)
(0.00106201 0.0029845 0.00131248)
(0.000527624 0.00312358 0.00131248)
(-0.000181429 0.00318347 0.00140916)
(-0.000731477 0.0031036 0.00140916)
(-0.0012593 0.00292943 0.00140916)
(-0.00174886 0.00266625 0.00140916)
(-0.00218528 0.00232206 0.00140916)
(-0.0025553 0.00190731 0.00140916)
(-0.00284768 0.00143461 0.00140916)
(-0.00305354 0.000918325 0.00140916)
(-0.00316661 0.000374132 0.00140916)
(-0.00318347 -0.000181429 0.00140916)
(-0.0031036 -0.000731478 0.00140916)
(-0.00292943 -0.0012593 0.00140916)
(-0.00266625 -0.00174886 0.00140916)
(-0.00232206 -0.00218528 0.00140916)
(-0.00190731 -0.0025553 0.00140916)
(-0.00143461 -0.00284768 0.00140916)
(-0.000918325 -0.00305354 0.00140916)
(-0.000374131 -0.00316661 0.00140916)
(0.000181429 -0.00318347 0.00140916)
(0.000731478 -0.0031036 0.00140916)
(0.0012593 -0.00292943 0.00140916)
(0.00174886 -0.00266625 0.00140916)
(0.00218528 -0.00232206 0.00140916)
(0.0025553 -0.00190731 0.00140916)
(0.00284768 -0.00143461 0.00140916)
(0.00305354 -0.000918325 0.00140916)
(0.00316661 -0.000374132 0.00140916)
(0.00318347 0.000181429 0.00140916)
(0.0031036 0.000731478 0.00140916)
(0.00292943 0.0012593 0.00140916)
(0.00266625 0.00174886 0.00140916)
(0.00232206 0.00218528 0.00140916)
(0.00190731 0.0025553 0.00140916)
(0.00143462 0.00284768 0.00140916)
(0.000918325 0.00305354 0.00140916)
(0.000374132 0.00316661 0.00140916)
(-0.00035885 0.0031867 0.00148842)
(-0.000906764 0.00307597 0.00148842)
(-0.00142713 0.00287179 0.00148842)
(-0.00190412 0.00258034 0.00148842)
(-0.00232327 0.00221049 0.00148842)
(-0.00267182 0.00177348 0.00148842)
(-0.00293919 0.00128258 0.00148842)
(-0.00311725 0.000752708 0.00148842)
(-0.0032006 0.000199966 0.00148842)
(-0.0031867 -0.00035885 0.00148842)
(-0.00307597 -0.000906764 0.00148842)
(-0.00287179 -0.00142713 0.00148842)
(-0.00258034 -0.00190412 0.00148842)
(-0.00221049 -0.00232327 0.00148842)
(-0.00177348 -0.00267182 0.00148842)
(-0.00128258 -0.00293919 0.00148842)
(-0.000752707 -0.00311725 0.00148842)
(-0.000199966 -0.0032006 0.00148842)
(0.000358851 -0.0031867 0.00148842)
(0.000906764 -0.00307597 0.00148842)
(0.00142713 -0.00287179 0.00148842)
(0.00190412 -0.00258034 0.00148842)
(0.00232327 -0.00221049 0.00148842)
(0.00267182 -0.00177348 0.00148842)
(0.00293919 -0.00128258 0.00148842)
(0.00311725 -0.000752708 0.00148842)
(0.0032006 -0.000199966 0.00148842)
(0.0031867 0.000358851 0.00148842)
(0.00307597 0.000906764 0.00148842)
(0.00287179 0.00142713 0.00148842)
(0.00258034 0.00190412 0.00148842)
(0.00221049 0.00232327 0.00148842)
(0.00177348 0.00267182 0.00148842)
(0.00128258 0.00293919 0.00148842)
(0.000752708 0.00311725 0.00148842)
(0.000199967 0.0032006 0.00148842)
(-0.000205736 0.00356519 0.00162708)
(-0.000821699 0.0034753 0.00162708)
(-0.0014127 0.00327982 0.00162708)
(-0.00196077 0.00298468 0.00162708)
(-0.00244926 0.00259885 0.00162708)
(-0.00286334 0.00213406 0.00162708)
(-0.00319041 0.00160442 0.00162708)
(-0.00342055 0.00102604 0.00162708)
(-0.00354675 0.000416477 0.00162708)
(-0.00356519 -0.000205736 0.00162708)
(-0.0034753 -0.0008217 0.00162708)
(-0.00327982 -0.0014127 0.00162708)
(-0.00298468 -0.00196077 0.00162708)
(-0.00259885 -0.00244926 0.00162708)
(-0.00213406 -0.00286334 0.00162708)
(-0.00160442 -0.00319041 0.00162708)
(-0.00102604 -0.00342055 0.00162708)
(-0.000416477 -0.00354675 0.00162708)
(0.000205736 -0.00356519 0.00162708)
(0.0008217 -0.0034753 0.00162708)
(0.0014127 -0.00327982 0.00162708)
(0.00196077 -0.00298468 0.00162708)
(0.00244926 -0.00259885 0.00162708)
(0.00286334 -0.00213406 0.00162708)
(0.00319041 -0.00160442 0.00162708)
(0.00342055 -0.00102604 0.00162708)
(0.00354675 -0.000416477 0.00162708)
(0.00356519 0.000205736 0.00162708)
(0.0034753 0.0008217 0.00162708)
(0.00327982 0.0014127 0.00162708)
(0.00298468 0.00196077 0.00162708)
(0.00259885 0.00244926 0.00162708)
(0.00213406 0.00286334 0.00162708)
(0.00160442 0.00319041 0.00162708)
(0.00102604 0.00342055 0.00162708)
(0.000416478 0.00354675 0.00162708)
(-0.000355216 0.0035269 0.00170587)
(-0.00096226 0.00341163 0.00170587)
(-0.00154006 0.00319271 0.00170587)
(-0.00207108 0.00287678 0.00170587)
(-0.00253916 0.00247343 0.00170587)
(-0.00293009 0.00199494 0.00170587)
(-0.00323199 0.00145582 0.00170587)
(-0.00343569 0.000872476 0.00170587)
(-0.003535 0.000262619 0.00170587)
(-0.0035269 -0.000355216 0.00170587)
(-0.00341163 -0.00096226 0.00170587)
(-0.00319271 -0.00154006 0.00170587)
(-0.00287678 -0.00207108 0.00170587)
(-0.00247343 -0.00253916 0.00170587)
(-0.00199494 -0.00293009 0.00170587)
(-0.00145582 -0.00323199 0.00170587)
(-0.000872476 -0.00343569 0.00170587)
(-0.000262618 -0.003535 0.00170587)
(0.000355217 -0.0035269 0.00170587)
(0.00096226 -0.00341163 0.00170587)
(0.00154007 -0.00319271 0.00170587)
(0.00207108 -0.00287678 0.00170587)
(0.00253916 -0.00247343 0.00170587)
(0.00293009 -0.00199494 0.00170587)
(0.00323199 -0.00145582 0.00170587)
(0.00343569 -0.000872476 0.00170587)
(0.003535 -0.000262619 0.00170587)
(0.0035269 0.000355216 0.00170587)
(0.00341164 0.00096226 0.00170587)
(0.00319271 0.00154006 0.00170587)
(0.00287678 0.00207108 0.00170587)
(0.00247343 0.00253916 0.00170587)
(0.00199494 0.00293009 0.00170587)
(0.00145582 0.00323199 0.00170587)
(0.000872477 0.00343569 0.00170587)
(0.000262619 0.003535 0.00170587)
(-0.000517937 0.00348108 0.00176666)
(-0.00111455 0.00333825 0.00176666)
(-0.0016773 0.003094 0.00176666)
(-0.00218908 0.00275573 0.00176666)
(-0.00263435 0.00233374 0.00176666)
(-0.00299958 0.00184083 0.00176666)
(-0.00327367 0.00129199 0.00176666)
(-0.00344828 0.000703897 0.00176666)
(-0.00351813 9.44152e-05 0.00176666)
(-0.00348108 -0.000517937 0.00176666)
(-0.00333825 -0.00111455 0.00176666)
(-0.003094 -0.0016773 0.00176666)
(-0.00275573 -0.00218908 0.00176666)
(-0.00233373 -0.00263435 0.00176666)
(-0.00184083 -0.00299958 0.00176666)
(-0.00129199 -0.00327367 0.00176666)
(-0.000703897 -0.00344828 0.00176666)
(-9.4415e-05 -0.00351813 0.00176666)
(0.000517937 -0.00348108 0.00176666)
(0.00111455 -0.00333825 0.00176666)
(0.0016773 -0.003094 0.00176666)
(0.00218908 -0.00275573 0.00176666)
(0.00263435 -0.00233373 0.00176666)
(0.00299958 -0.00184083 0.00176666)
(0.00327367 -0.00129199 0.00176666)
(0.00344828 -0.000703897 0.00176666)
(0.00351813 -9.44152e-05 0.00176666)
(0.00348108 0.000517937 0.00176666)
(0.00333825 0.00111455 0.00176666)
(0.003094 0.0016773 0.00176666)
(0.00275573 0.00218908 0.00176666)
(0.00233374 0.00263435 0.00176666)
(0.00184083 0.00299958 0.00176666)
(0.00129199 0.00327367 0.00176666)
(0.000703898 0.00344828 0.00176666)
(9.44154e-05 0.00351813 0.00176666)
(-0.00038275 0.00385142 0.00195959)
(-0.00104573 0.00372645 0.00195959)
(-0.00167693 0.00348825 0.00195959)
(-0.00225718 0.00314406 0.00195959)
(-0.00276885 0.00270433 0.00195958)
(-0.00319639 0.00218244 0.00195959)
(-0.0035268 0.00159424 0.00195959)
(-0.00375006 0.000957595 0.00195959)
(-0.00385937 0.000291855 0.00195959)
(-0.00385142 -0.00038275 0.00195959)
(-0.00372645 -0.00104573 0.00195959)
(-0.00348825 -0.00167693 0.00195959)
(-0.00314405 -0.00225718 0.00195959)
(-0.00270433 -0.00276885 0.00195958)
(-0.00218244 -0.00319639 0.00195959)
(-0.00159424 -0.0035268 0.00195959)
(-0.000957595 -0.00375006 0.00195959)
(-0.000291855 -0.00385937 0.00195959)
(0.000382751 -0.00385142 0.00195959)
(0.00104573 -0.00372645 0.00195959)
(0.00167693 -0.00348825 0.00195959)
(0.00225718 -0.00314405 0.00195959)
(0.00276885 -0.00270433 0.00195958)
(0.00319639 -0.00218244 0.00195959)
(0.0035268 -0.00159424 0.00195959)
(0.00375006 -0.000957595 0.00195959)
(0.00385937 -0.000291855 0.00195959)