/*--------------------------------*- C++ -*----------------------------------*\
| =========                 |                                                 |
| \\      /  F ield         | OpenFOAM: The Open Source CFD Toolbox           |
|  \\    /   O peration     | Version:  2312                                  |
|   \\  /    A nd           | Website:  www.openfoam.com                      |
|    \\/     M anipulation  |                                                 |
\*---------------------------------------------------------------------------*/
FoamFile
{
    version     2.0;
    format      ascii;
    arch        "LSB;label=32;scalar=64";
    class       pointVectorField;
    location    "0.7";
    object      pointD;
}
// * * * * * * * * * * * * * * * * * * * * * * * * * * * * * * * * * * * * * //

dimensions      [0 1 0 0 0 0 0];

internalField   nonuniform List<vector> 
2164
(
(0 0 0)
(0 0 0)
(0 0 0)
(0 0 0)
(0 0 0)
(0 0 0)
(0 0 0)
(0 0 0)
(0 0 0)
(0 0 0)
(0 0 0)
(0 0 0)
(0 0 0)
(0 0 0)
(0 0 0)
(0 0 0)
(0 0 0)
(0 0 0)
(0 0 0)
(0 0 0)
(0 0 0)
(0 0 0)
(0 0 0)
(0 0 0)
(0 0 0)
(0 0 0)
(0 0 0)
(0 0 0)
(0 0 0)
(0 0 0)
(0 0 0)
(0 0 0)
(0 0 0)
(0 0 0)
(0 0 0)
(0 0 0)
(0.000175313 0.000598125 7.82417e-05)
(6.87863e-05 0.000619482 7.82418e-05)
(-3.98305e-05 0.000622015 7.82428e-05)
(-0.000147236 0.000605649 7.82436e-05)
(-0.000250169 0.000570881 7.82434e-05)
(-0.000345502 0.000518767 7.82434e-05)
(-0.000430336 0.000450889 7.82434e-05)
(-0.000502094 0.000369312 7.82425e-05)
(-0.000558596 0.000276513 7.82423e-05)
(-0.000598125 0.000175313 7.82417e-05)
(-0.000619481 6.87862e-05 7.82418e-05)
(-0.000622015 -3.98305e-05 7.82428e-05)
(-0.000605649 -0.000147236 7.82436e-05)
(-0.000570881 -0.000250169 7.82434e-05)
(-0.000518766 -0.000345502 7.82434e-05)
(-0.000450889 -0.000430336 7.82434e-05)
(-0.000369312 -0.000502094 7.82425e-05)
(-0.000276513 -0.000558596 7.82423e-05)
(-0.000175313 -0.000598125 7.82417e-05)
(-6.87862e-05 -0.000619481 7.82418e-05)
(3.98306e-05 -0.000622015 7.82428e-05)
(0.000147236 -0.000605649 7.82436e-05)
(0.000250169 -0.000570881 7.82434e-05)
(0.000345502 -0.000518767 7.82434e-05)
(0.000430336 -0.000450889 7.82434e-05)
(0.000502094 -0.000369312 7.82425e-05)
(0.000558596 -0.000276513 7.82423e-05)
(0.000598126 -0.000175313 7.82417e-05)
(0.000619482 -6.87862e-05 7.82418e-05)
(0.000622015 3.98305e-05 7.82428e-05)
(0.000605649 0.000147236 7.82436e-05)
(0.000570881 0.000250169 7.82434e-05)
(0.000518767 0.000345502 7.82434e-05)
(0.000450889 0.000430336 7.82434e-05)
(0.000369312 0.000502094 7.82425e-05)
(0.000276513 0.000558596 7.82423e-05)
(8.64928e-05 0.000652543 0.0001354)
(-2.81338e-05 0.000657649 0.0001354)
(-0.000141905 0.000642773 0.000135401)
(-0.000251366 0.000608366 0.000135401)
(-0.000353189 0.000555474 0.000135401)
(-0.00044428 0.000485704 0.000135401)
(-0.000521872 0.000401177 0.000135401)
(-0.000583608 0.000304459 0.000135401)
(-0.00062761 0.000198492 0.0001354)
(-0.000652543 8.64927e-05 0.0001354)
(-0.000657649 -2.81339e-05 0.0001354)
(-0.000642773 -0.000141905 0.000135401)
(-0.000608366 -0.000251366 0.000135401)
(-0.000555474 -0.000353189 0.000135401)
(-0.000485704 -0.00044428 0.000135401)
(-0.000401177 -0.000521872 0.000135401)
(-0.000304459 -0.000583608 0.000135401)
(-0.000198492 -0.00062761 0.0001354)
(-8.64927e-05 -0.000652543 0.0001354)
(2.81339e-05 -0.000657649 0.0001354)
(0.000141905 -0.000642773 0.000135401)
(0.000251366 -0.000608366 0.000135401)
(0.000353189 -0.000555474 0.000135401)
(0.000444281 -0.000485704 0.000135401)
(0.000521872 -0.000401177 0.000135401)
(0.000583608 -0.000304459 0.000135401)
(0.00062761 -0.000198492 0.0001354)
(0.000652543 -8.64927e-05 0.0001354)
(0.000657649 2.81339e-05 0.0001354)
(0.000642773 0.000141905 0.000135401)
(0.000608366 0.000251366 0.000135401)
(0.000555474 0.000353189 0.000135401)
(0.000485704 0.00044428 0.000135401)
(0.000401177 0.000521872 0.000135401)
(0.000304459 0.000583608 0.000135401)
(0.000198492 0.00062761 0.0001354)
(0 0 0)
(0 0 0)
(0 0 0)
(0 0 0)
(0 0 0)
(0 0 0)
(0 0 0)
(0 0 0)
(0 0 0)
(0 0 0)
(0 0 0)
(0 0 0)
(0 0 0)
(0 0 0)
(0 0 0)
(0 0 0)
(0 0 0)
(0 0 0)
(0 0 0)
(0 0 0)
(0 0 0)
(0 0 0)
(0 0 0)
(0 0 0)
(0 0 0)
(0 0 0)
(0 0 0)
(0 0 0)
(0 0 0)
(0 0 0)
(0 0 0)
(0 0 0)
(0 0 0)
(0 0 0)
(0 0 0)
(0 0 0)
(-2.45279e-05 0.00069992 0.000183792)
(-0.000145694 0.000685027 0.000183792)
(-0.000262435 0.00064932 0.000183793)
(-0.0003712 0.000593885 0.000183793)
(-0.000468688 0.000520404 0.000183793)
(-0.000551935 0.00043111 0.000183793)
(-0.000618411 0.000328719 0.000183792)
(-0.000666098 0.000216338 0.000183792)
(-0.000693545 9.73849e-05 0.000183792)
(-0.00069992 -2.45279e-05 0.000183792)
(-0.000685027 -0.000145694 0.000183792)
(-0.00064932 -0.000262435 0.000183793)
(-0.000593885 -0.0003712 0.000183793)
(-0.000520404 -0.000468688 0.000183793)
(-0.00043111 -0.000551935 0.000183793)
(-0.000328719 -0.000618411 0.000183792)
(-0.000216338 -0.000666098 0.000183792)
(-9.73849e-05 -0.000693545 0.000183792)
(2.4528e-05 -0.00069992 0.000183792)
(0.000145694 -0.000685027 0.000183792)
(0.000262435 -0.00064932 0.000183793)
(0.0003712 -0.000593885 0.000183793)
(0.000468688 -0.000520404 0.000183793)
(0.000551935 -0.00043111 0.000183793)
(0.000618411 -0.000328719 0.000183792)
(0.000666098 -0.000216338 0.000183792)
(0.000693545 -9.73849e-05 0.000183792)
(0.00069992 2.45279e-05 0.000183792)
(0.000685027 0.000145694 0.000183792)
(0.00064932 0.000262435 0.000183793)
(0.000593885 0.0003712 0.000183793)
(0.000520404 0.000468688 0.000183793)
(0.00043111 0.000551935 0.000183793)
(0.000328719 0.000618411 0.000183792)
(0.000216338 0.000666098 0.000183792)
(9.7385e-05 0.000693545 0.000183792)
(0 0 0)
(0 0 0)
(0 0 0)
(0 0 0)
(0 0 0)
(0 0 0)
(0 0 0)
(0 0 0)
(0 0 0)
(0 0 0)
(0 0 0)
(0 0 0)
(0 0 0)
(0 0 0)
(0 0 0)
(0 0 0)
(0 0 0)
(0 0 0)
(0 0 0)
(0 0 0)
(0 0 0)
(0 0 0)
(0 0 0)
(0 0 0)
(0 0 0)
(0 0 0)
(0 0 0)
(0 0 0)
(0 0 0)
(0 0 0)
(0 0 0)
(0 0 0)
(0 0 0)
(0 0 0)
(0 0 0)
(0 0 0)
(-0.000154439 0.000733052 0.000220496)
(-0.000279385 0.000695097 0.000220496)
(-0.000395843 0.000636023 0.000220496)
(-0.000500274 0.000557622 0.000220496)
(-0.000589503 0.000462279 0.000220496)
(-0.000660821 0.000352889 0.000220496)
(-0.00071206 0.000232777 0.000220495)
(-0.000741664 0.000105593 0.000220496)
(-0.000748732 -2.47989e-05 0.000220495)
(-0.000733052 -0.000154439 0.000220496)
(-0.000695097 -0.000279385 0.000220496)
(-0.000636023 -0.000395843 0.000220496)
(-0.000557622 -0.000500274 0.000220496)
(-0.000462279 -0.000589503 0.000220496)
(-0.000352889 -0.000660821 0.000220496)
(-0.000232777 -0.00071206 0.000220495)
(-0.000105593 -0.000741664 0.000220496)
(2.47989e-05 -0.000748732 0.000220495)
(0.000154439 -0.000733052 0.000220496)
(0.000279385 -0.000695097 0.000220496)
(0.000395843 -0.000636023 0.000220496)
(0.000500274 -0.000557622 0.000220496)
(0.000589503 -0.000462279 0.000220496)
(0.000660821 -0.000352889 0.000220496)
(0.00071206 -0.000232777 0.000220495)
(0.000741664 -0.000105593 0.000220496)
(0.000748732 2.47989e-05 0.000220495)
(0.000733052 0.000154439 0.000220496)
(0.000695097 0.000279385 0.000220496)
(0.000636023 0.000395843 0.000220496)
(0.000557622 0.000500274 0.000220496)
(0.000462279 0.000589503 0.000220496)
(0.000352889 0.000660821 0.000220496)
(0.000232777 0.00071206 0.000220495)
(0.000105593 0.000741664 0.000220496)
(-2.47989e-05 0.000748732 0.000220495)
(0 0 0)
(0 0 0)
(0 0 0)
(0 0 0)
(0 0 0)
(0 0 0)
(0 0 0)
(0 0 0)
(0 0 0)
(0 0 0)
(0 0 0)
(0 0 0)
(0 0 0)
(0 0 0)
(0 0 0)
(0 0 0)
(0 0 0)
(0 0 0)
(0 0 0)
(0 0 0)
(0 0 0)
(0 0 0)
(0 0 0)
(0 0 0)
(0 0 0)
(0 0 0)
(0 0 0)
(0 0 0)
(0 0 0)
(0 0 0)
(0 0 0)
(0 0 0)
(0 0 0)
(0 0 0)
(0 0 0)
(0 0 0)
(0.000234057 0.0012012 0.000244349)
(2.19157e-05 0.00122359 0.000244349)
(-0.000190893 0.00120881 0.000244351)
(-0.000397899 0.0011573 0.000244353)
(-0.000592817 0.00107062 0.000244353)
(-0.000769722 0.000951415 0.000244353)
(-0.000923239 0.0008033 0.000244352)
(-0.00104871 0.000630777 0.000244351)
(-0.00114231 0.000439087 0.00024435)
(-0.0012012 0.000234057 0.000244349)
(-0.00122359 2.19156e-05 0.000244349)
(-0.00120881 -0.000190893 0.000244351)
(-0.0011573 -0.000397899 0.000244353)
(-0.00107062 -0.000592817 0.000244353)
(-0.000951415 -0.000769722 0.000244353)
(-0.0008033 -0.00092324 0.000244352)
(-0.000630777 -0.00104871 0.000244351)
(-0.000439087 -0.00114231 0.00024435)
(-0.000234057 -0.0012012 0.000244349)
(-2.19156e-05 -0.00122359 0.000244349)
(0.000190893 -0.00120881 0.000244351)
(0.000397899 -0.0011573 0.000244353)
(0.000592817 -0.00107062 0.000244353)
(0.000769722 -0.000951415 0.000244353)
(0.00092324 -0.0008033 0.000244352)
(0.00104871 -0.000630777 0.000244351)
(0.00114231 -0.000439087 0.00024435)
(0.0012012 -0.000234057 0.000244349)
(0.00122359 -2.19156e-05 0.000244349)
(0.00120881 0.000190893 0.000244351)
(0.0011573 0.000397899 0.000244353)
(0.00107062 0.000592817 0.000244353)
(0.000951415 0.000769722 0.000244353)
(0.0008033 0.00092324 0.000244352)
(0.000630777 0.00104871 0.000244351)
(0.000439087 0.00114231 0.00024435)
(9.73136e-05 0.00128965 0.000340354)
(-0.000128111 0.00128695 0.000340355)
(-0.00034964 0.00124516 0.000340355)
(-0.000560548 0.00116553 0.000340356)
(-0.000754423 0.00105048 0.000340356)
(-0.000925375 0.000903518 0.000340356)
(-0.00106821 0.0007291 0.000340356)
(-0.00117859 0.00053253 0.000340355)
(-0.00125316 0.000319779 0.000340354)
(-0.00128965 9.73135e-05 0.000340354)
(-0.00128695 -0.000128111 0.000340355)
(-0.00124516 -0.00034964 0.000340355)
(-0.00116553 -0.000560548 0.000340356)
(-0.00105048 -0.000754423 0.000340356)
(-0.000903517 -0.000925375 0.000340356)
(-0.0007291 -0.00106821 0.000340356)
(-0.00053253 -0.00117859 0.000340355)
(-0.000319779 -0.00125316 0.000340354)
(-9.73135e-05 -0.00128965 0.000340354)
(0.000128111 -0.00128695 0.000340355)
(0.00034964 -0.00124516 0.000340355)
(0.000560548 -0.00116553 0.000340356)
(0.000754423 -0.00105048 0.000340356)
(0.000925375 -0.000903518 0.000340356)
(0.00106821 -0.0007291 0.000340356)
(0.00117859 -0.00053253 0.000340355)
(0.00125316 -0.000319779 0.000340354)
(0.00128965 -9.73135e-05 0.000340354)
(0.00128695 0.000128111 0.000340355)
(0.00124516 0.00034964 0.000340355)
(0.00116553 0.000560548 0.000340356)
(0.00105048 0.000754423 0.000340356)
(0.000903518 0.000925375 0.000340356)
(0.0007291 0.00106821 0.000340356)
(0.00053253 0.00117859 0.000340355)
(0.000319779 0.00125316 0.000340354)
(-6.34758e-05 0.00137161 0.000426928)
(-0.000300687 0.00133975 0.000426928)
(-0.000528764 0.00126718 0.000426928)
(-0.000740776 0.00115611 0.000426929)
(-0.000930279 0.00100991 0.000426929)
(-0.00109152 0.000833029 0.000426929)
(-0.00121959 0.000630833 0.000426928)
(-0.0013106 0.000409472 0.000426928)
(-0.00136179 0.000175667 0.000426928)
(-0.00137161 -6.34758e-05 0.000426928)
(-0.00133975 -0.000300687 0.000426928)
(-0.00126718 -0.000528764 0.000426928)
(-0.00115611 -0.000740776 0.000426929)
(-0.00100991 -0.00093028 0.000426929)
(-0.000833029 -0.00109152 0.000426928)
(-0.000630833 -0.00121959 0.000426928)
(-0.000409472 -0.0013106 0.000426928)
(-0.000175667 -0.00136179 0.000426928)
(6.34759e-05 -0.00137161 0.000426928)
(0.000300687 -0.00133975 0.000426928)
(0.000528764 -0.00126718 0.000426928)
(0.000740776 -0.00115611 0.000426929)
(0.00093028 -0.00100991 0.000426929)
(0.00109152 -0.000833029 0.000426929)
(0.00121959 -0.000630833 0.000426928)
(0.0013106 -0.000409472 0.000426928)
(0.00136179 -0.000175667 0.000426928)
(0.00137161 6.34758e-05 0.000426928)
(0.00133975 0.000300687 0.000426928)
(0.00126718 0.000528764 0.000426928)
(0.00115611 0.000740776 0.000426929)
(0.00100991 0.00093028 0.000426929)
(0.000833029 0.00109152 0.000426929)
(0.000630833 0.00121959 0.000426928)
(0.000409472 0.0013106 0.000426928)
(0.000175667 0.00136179 0.000426928)
(-0.000240537 0.00143414 0.00049843)
(-0.000485917 0.00137058 0.00049843)
(-0.000716532 0.00126538 0.000498429)
(-0.000925376 0.00112173 0.000498429)
(-0.0011061 0.000943999 0.000498429)
(-0.00125322 0.000737584 0.000498429)
(-0.00136227 0.000508758 0.000498429)
(-0.00142992 0.000264474 0.000498429)
(-0.00145412 1.2154e-05 0.000498429)
(-0.00143414 -0.000240537 0.000498429)
(-0.00137058 -0.000485917 0.000498429)
(-0.00126538 -0.000716532 0.000498429)
(-0.00112173 -0.000925376 0.000498429)
(-0.000943999 -0.0011061 0.000498429)
(-0.000737584 -0.00125322 0.000498429)
(-0.000508758 -0.00136227 0.000498429)
(-0.000264473 -0.00142992 0.000498429)
(-1.21539e-05 -0.00145412 0.000498429)
(0.000240537 -0.00143414 0.000498429)
(0.000485917 -0.00137058 0.000498429)
(0.000716532 -0.00126538 0.000498429)
(0.000925377 -0.00112173 0.000498429)
(0.0011061 -0.000943999 0.000498429)
(0.00125322 -0.000737584 0.000498429)
(0.00136227 -0.000508758 0.000498429)
(0.00142992 -0.000264473 0.000498429)
(0.00145412 -1.21539e-05 0.000498429)
(0.00143414 0.000240537 0.00049843)
(0.00137058 0.000485917 0.00049843)
(0.00126538 0.000716532 0.000498429)
(0.00112173 0.000925376 0.000498429)
(0.000943999 0.0011061 0.000498429)
(0.000737584 0.00125322 0.000498429)
(0.000508758 0.00136227 0.000498429)
(0.000264474 0.00142992 0.000498429)
(1.2154e-05 0.00145412 0.000498429)
(0.000203952 0.00181212 0.000504585)
(-0.000113818 0.00182001 0.000504586)
(-0.000428132 0.00177259 0.000504587)
(-0.000729434 0.00167132 0.000504589)
(-0.00100857 0.00151926 0.000504589)
(-0.00125707 0.00132105 0.000504589)
(-0.00146737 0.00108269 0.000504589)
(-0.00163308 0.000811433 0.000504587)
(-0.00174918 0.000515524 0.000504586)
(-0.00181212 0.000203952 0.000504585)
(-0.00182001 -0.000113819 0.000504586)
(-0.00177259 -0.000428132 0.000504587)
(-0.00167132 -0.000729434 0.000504589)
(-0.00151926 -0.00100857 0.000504589)
(-0.00132104 -0.00125707 0.000504589)
(-0.00108269 -0.00146737 0.000504589)
(-0.000811433 -0.00163308 0.000504587)
(-0.000515524 -0.00174918 0.000504586)
(-0.000203952 -0.00181212 0.000504585)
(0.000113819 -0.00182001 0.000504586)
(0.000428132 -0.00177259 0.000504587)
(0.000729434 -0.00167132 0.000504589)
(0.00100857 -0.00151926 0.000504589)
(0.00125707 -0.00132104 0.00050459)
(0.00146737 -0.00108269 0.000504589)
(0.00163308 -0.000811433 0.000504587)
(0.00174918 -0.000515524 0.000504586)
(0.00181212 -0.000203952 0.000504586)
(0.00182001 0.000113819 0.000504586)
(0.00177259 0.000428132 0.000504587)
(0.00167132 0.000729434 0.000504589)
(0.00151926 0.00100857 0.00050459)
(0.00132105 0.00125707 0.00050459)
(0.00108269 0.00146737 0.000504589)
(0.000811433 0.00163308 0.000504587)
(0.000515524 0.00174918 0.000504586)
(3.74902e-05 0.00190258 0.000616341)
(-0.000293458 0.00188018 0.000616342)
(-0.000615489 0.00180066 0.000616342)
(-0.00091882 0.00166642 0.000616343)
(-0.00119423 0.00148156 0.000616343)
(-0.00143336 0.00125167 0.000616343)
(-0.00162893 0.000983756 0.000616343)
(-0.00177501 0.000685949 0.000616342)
(-0.00186716 0.000367299 0.000616342)
(-0.00190258 3.74901e-05 0.000616341)
(-0.00188018 -0.000293459 0.000616342)
(-0.00180066 -0.000615489 0.000616342)
(-0.00166642 -0.00091882 0.000616343)
(-0.00148156 -0.00119423 0.000616343)
(-0.00125167 -0.00143336 0.000616343)
(-0.000983756 -0.00162893 0.000616343)
(-0.000685949 -0.00177501 0.000616342)
(-0.000367299 -0.00186716 0.000616342)
(-3.749e-05 -0.00190258 0.000616341)
(0.000293459 -0.00188018 0.000616342)
(0.000615489 -0.00180066 0.000616342)
(0.00091882 -0.00166642 0.000616343)
(0.00119423 -0.00148156 0.000616343)
(0.00143336 -0.00125167 0.000616343)
(0.00162893 -0.000983756 0.000616343)
(0.00177501 -0.000685949 0.000616342)
(0.00186716 -0.000367299 0.000616342)
(0.00190258 -3.74901e-05 0.000616341)
(0.00188018 0.000293459 0.000616342)
(0.00180066 0.000615489 0.000616342)
(0.00166642 0.00091882 0.000616343)
(0.00148156 0.00119423 0.000616343)
(0.00125167 0.00143336 0.000616343)
(0.000983756 0.00162893 0.000616343)
(0.000685949 0.00177501 0.000616342)
(0.000367299 0.00186716 0.000616342)
(-0.000150036 0.00198599 0.000718508)
(-0.000492621 0.00192977 0.000718508)
(-0.000820237 0.00181491 0.000718508)
(-0.00112293 0.0016449 0.000718508)
(-0.00139151 0.00142492 0.000718508)
(-0.0016178 0.00116164 0.000718509)
(-0.00179494 0.000863062 0.000718508)
(-0.00191754 0.000538261 0.000718508)
(-0.00198187 0.000197107 0.000718508)
(-0.00198599 -0.000150036 0.000718508)
(-0.00192977 -0.000492621 0.000718508)
(-0.00181491 -0.000820237 0.000718508)
(-0.0016449 -0.00112293 0.000718508)
(-0.00142492 -0.00139151 0.000718508)
(-0.00116164 -0.0016178 0.000718508)
(-0.000863062 -0.00179494 0.000718508)
(-0.000538261 -0.00191754 0.000718508)
(-0.000197107 -0.00198187 0.000718507)
(0.000150036 -0.00198599 0.000718508)
(0.000492621 -0.00192977 0.000718508)
(0.000820237 -0.00181491 0.000718508)
(0.00112293 -0.0016449 0.000718508)
(0.00139151 -0.00142492 0.000718508)
(0.0016178 -0.00116164 0.000718509)
(0.00179494 -0.000863062 0.000718508)
(0.00191754 -0.000538261 0.000718508)
(0.00198187 -0.000197107 0.000718508)
(0.00198599 0.000150036 0.000718508)
(0.00192977 0.000492621 0.000718508)
(0.00181491 0.000820237 0.000718508)
(0.0016449 0.00112293 0.000718508)
(0.00142492 0.00139151 0.000718508)
(0.00116164 0.0016178 0.000718509)
(0.000863062 0.00179494 0.000718508)
(0.000538261 0.00191754 0.000718508)
(0.000197107 0.00198187 0.000718508)
(-0.000349569 0.00204818 0.000806186)
(-0.000699919 0.00195636 0.000806186)
(-0.00102901 0.0018051 0.000806186)
(-0.00132682 0.00159899 0.000806186)
(-0.00158433 0.0013443 0.000806186)
(-0.00179369 0.00104876 0.000806186)
(-0.00194856 0.000721356 0.000806186)
(-0.00204422 0.000372033 0.000806186)
(-0.00207777 1.14045e-05 0.000806186)
(-0.00204818 -0.000349569 0.000806186)
(-0.00195636 -0.000699919 0.000806186)
(-0.0018051 -0.00102901 0.000806186)
(-0.00159899 -0.00132682 0.000806186)
(-0.0013443 -0.00158433 0.000806186)
(-0.00104876 -0.00179369 0.000806186)
(-0.000721356 -0.00194856 0.000806185)
(-0.000372033 -0.00204422 0.000806186)
(-1.14044e-05 -0.00207777 0.000806186)
(0.000349569 -0.00204818 0.000806186)
(0.000699919 -0.00195636 0.000806186)
(0.00102901 -0.0018051 0.000806186)
(0.00132682 -0.00159899 0.000806186)
(0.00158433 -0.0013443 0.000806186)
(0.00179369 -0.00104876 0.000806186)
(0.00194856 -0.000721356 0.000806186)
(0.00204422 -0.000372033 0.000806186)
(0.00207777 -1.14045e-05 0.000806187)
(0.00204818 0.000349569 0.000806186)
(0.00195636 0.000699919 0.000806186)
(0.0018051 0.00102901 0.000806186)
(0.00159899 0.00132682 0.000806186)
(0.0013443 0.00158433 0.000806186)
(0.00104876 0.00179369 0.000806186)
(0.000721356 0.00194856 0.000806186)
(0.000372034 0.00204422 0.000806186)
(1.14046e-05 0.00207777 0.000806187)
(7.93132e-05 0.00240276 0.000799123)
(-0.000339131 0.00238003 0.000799123)
(-0.000747266 0.00228499 0.000799124)
(-0.00113269 0.00212051 0.000799124)
(-0.00148371 0.0018916 0.000799125)
(-0.00178964 0.00160522 0.000799126)
(-0.0020412 0.00127007 0.000799126)
(-0.00223073 0.000896322 0.000799124)
(-0.00235249 0.000495342 0.000799124)
(-0.00240276 7.93131e-05 0.000799123)
(-0.00238003 -0.000339131 0.000799123)
(-0.00228499 -0.000747266 0.000799124)
(-0.00212051 -0.00113269 0.000799124)
(-0.0018916 -0.00148371 0.000799125)
(-0.00160522 -0.00178964 0.000799126)
(-0.00127007 -0.0020412 0.000799126)
(-0.000896322 -0.00223073 0.000799124)
(-0.000495342 -0.00235249 0.000799124)
(-7.9313e-05 -0.00240276 0.000799123)
(0.000339131 -0.00238003 0.000799123)
(0.000747266 -0.00228499 0.000799124)
(0.00113269 -0.00212051 0.000799124)
(0.00148371 -0.0018916 0.000799125)
(0.00178964 -0.00160522 0.000799126)
(0.0020412 -0.00127007 0.000799126)
(0.00223073 -0.000896322 0.000799125)
(0.00235249 -0.000495342 0.000799124)
(0.00240276 -7.93131e-05 0.000799123)
(0.00238003 0.000339131 0.000799123)
(0.00228499 0.000747266 0.000799124)
(0.00212051 0.00113269 0.000799124)
(0.0018916 0.00148371 0.000799125)
(0.00160522 0.00178964 0.000799126)
(0.00127007 0.0020412 0.000799126)
(0.000896322 0.00223073 0.000799125)
(0.000495342 0.00235249 0.000799124)
(-9.28873e-05 0.00246891 0.00091263)
(-0.000520198 0.00241527 0.000912629)
(-0.000931703 0.00228825 0.00091263)
(-0.0013149 0.0020917 0.00091263)
(-0.00165814 0.00183159 0.000912631)
(-0.001951 0.00151583 0.000912631)
(-0.00218458 0.00115401 0.000912631)
(-0.00235179 0.000757132 0.000912631)
(-0.00244753 0.000337246 0.00091263)
(-0.00246891 -9.28874e-05 0.000912629)
(-0.00241527 -0.000520198 0.000912629)
(-0.00228825 -0.000931703 0.00091263)
(-0.0020917 -0.0013149 0.00091263)
(-0.00183159 -0.00165814 0.00091263)
(-0.00151583 -0.001951 0.000912631)
(-0.00115401 -0.00218458 0.000912631)
(-0.000757132 -0.00235179 0.000912631)
(-0.000337246 -0.00244753 0.00091263)
(9.28875e-05 -0.00246891 0.000912629)
(0.000520199 -0.00241527 0.000912629)
(0.000931703 -0.00228825 0.00091263)
(0.0013149 -0.0020917 0.00091263)
(0.00165814 -0.00183159 0.000912631)
(0.001951 -0.00151583 0.000912631)
(0.00218458 -0.00115401 0.000912631)
(0.00235179 -0.000757132 0.000912631)
(0.00244753 -0.000337246 0.00091263)
(0.00246891 9.28874e-05 0.00091263)
(0.00241527 0.000520198 0.000912629)
(0.00228825 0.000931703 0.00091263)
(0.0020917 0.0013149 0.00091263)
(0.00183159 0.00165814 0.000912631)
(0.00151583 0.001951 0.000912631)
(0.00115401 0.00218458 0.000912631)
(0.000757132 0.00235179 0.000912631)
(0.000337247 0.00244753 0.00091263)
(-0.00028247 0.00252846 0.00101623)
(-0.000717242 0.002441 0.00101623)
(-0.00113022 0.00227937 0.00101623)
(-0.00150886 0.00204848 0.00101623)
(-0.00184165 0.00175535 0.00101623)
(-0.00211848 0.00140888 0.00101623)
(-0.00233095 0.00101961 0.00101623)
(-0.00247259 0.000599352 0.00101623)
(-0.0025391 0.000160884 0.00101623)
(-0.00252846 -0.00028247 0.00101623)
(-0.002441 -0.000717242 0.00101623)
(-0.00227937 -0.00113022 0.00101623)
(-0.00204848 -0.00150886 0.00101623)
(-0.00175535 -0.00184165 0.00101623)
(-0.00140888 -0.00211848 0.00101623)
(-0.00101961 -0.00233095 0.00101623)
(-0.000599352 -0.00247259 0.00101623)
(-0.000160884 -0.0025391 0.00101623)
(0.00028247 -0.00252846 0.00101623)
(0.000717242 -0.002441 0.00101623)
(0.00113022 -0.00227937 0.00101623)
(0.00150886 -0.00204848 0.00101623)
(0.00184165 -0.00175535 0.00101623)
(0.00211848 -0.00140888 0.00101623)
(0.00233095 -0.00101961 0.00101623)
(0.00247259 -0.000599352 0.00101623)
(0.0025391 -0.000160884 0.00101623)
(0.00252846 0.00028247 0.00101623)
(0.002441 0.000717242 0.00101623)
(0.00227937 0.00113022 0.00101623)
(0.00204848 0.00150886 0.00101623)
(0.00175535 0.00184165 0.00101623)
(0.00140888 0.00211848 0.00101623)
(0.00101961 0.00233095 0.00101623)
(0.000599352 0.00247259 0.00101623)
(0.000160884 0.0025391 0.00101623)
(-0.000481811 0.00256738 0.00110585)
(-0.000920313 0.00244471 0.00110585)
(-0.00133085 0.00224776 0.00110585)
(-0.00170095 0.00198251 0.00110585)
(-0.00201937 0.00165703 0.00110585)
(-0.00227643 0.00128119 0.00110585)
(-0.00246432 0.000866431 0.00110585)
(-0.00257734 0.000425343 0.00110585)
(-0.00261204 -2.86704e-05 0.00110585)
(-0.00256738 -0.000481811 0.00110585)
(-0.00244471 -0.000920314 0.00110585)
(-0.00224776 -0.00133085 0.00110585)
(-0.00198251 -0.00170095 0.00110585)
(-0.00165703 -0.00201937 0.00110585)
(-0.00128119 -0.00227643 0.00110585)
(-0.000866431 -0.00246432 0.00110585)
(-0.000425343 -0.00257734 0.00110585)
(2.86705e-05 -0.00261204 0.00110585)
(0.000481811 -0.00256738 0.00110585)
(0.000920314 -0.00244471 0.00110585)
(0.00133085 -0.00224776 0.00110585)
(0.00170095 -0.00198251 0.00110585)
(0.00201937 -0.00165703 0.00110585)
(0.00227643 -0.00128119 0.00110585)
(0.00246432 -0.000866431 0.00110585)
(0.00257734 -0.000425343 0.00110585)
(0.00261204 2.86704e-05 0.00110585)
(0.00256738 0.000481811 0.00110585)
(0.00244471 0.000920314 0.00110585)
(0.00224776 0.00133085 0.00110585)
(0.00198251 0.00170095 0.00110585)
(0.00165703 0.00201937 0.00110585)
(0.00128119 0.00227643 0.00110585)
(0.000866431 0.00246432 0.00110585)
(0.000425343 0.00257734 0.00110585)
(-2.86702e-05 0.00261204 0.00110585)
(-0.000111505 0.00294085 0.0011078)
(-0.000620484 0.0028768 0.00110779)
(-0.00111061 0.00272535 0.0011078)
(-0.00156699 0.00249109 0.0011078)
(-0.00197575 0.00218114 0.0011078)
(-0.00232449 0.00180492 0.0011078)
(-0.0026026 0.00137385 0.0011078)
(-0.00280163 0.000901046 0.0011078)
(-0.00291553 0.00040086 0.0011078)
(-0.00294084 -0.000111505 0.0011078)
(-0.0028768 -0.000620485 0.00110779)
(-0.00272535 -0.00111061 0.0011078)
(-0.00249109 -0.00156699 0.0011078)
(-0.00218114 -0.00197575 0.0011078)
(-0.00180492 -0.00232449 0.0011078)
(-0.00137385 -0.0026026 0.0011078)
(-0.000901046 -0.00280163 0.0011078)
(-0.00040086 -0.00291553 0.0011078)
(0.000111506 -0.00294085 0.0011078)
(0.000620485 -0.0028768 0.00110779)
(0.00111061 -0.00272535 0.0011078)
(0.00156699 -0.00249109 0.0011078)
(0.00197575 -0.00218114 0.0011078)
(0.00232449 -0.00180492 0.0011078)
(0.0026026 -0.00137385 0.0011078)
(0.00280163 -0.000901046 0.0011078)
(0.00291553 -0.00040086 0.0011078)
(0.00294085 0.000111505 0.0011078)
(0.00287681 0.000620485 0.00110779)
(0.00272535 0.00111061 0.0011078)
(0.00249109 0.00156699 0.0011078)
(0.00218114 0.00197575 0.0011078)
(0.00180492 0.00232449 0.0011078)
(0.00137385 0.0026026 0.0011078)
(0.000901046 0.00280163 0.0011078)
(0.00040086 0.00291553 0.0011078)
(-0.000275601 0.00296591 0.00121375)
(-0.000786437 0.00287299 0.00121375)
(-0.00127338 0.00269278 0.00121375)
(-0.00172163 0.00243075 0.00121375)
(-0.00211757 0.00209486 0.00121375)
(-0.00244917 0.00169533 0.00121375)
(-0.00270635 0.00124428 0.00121375)
(-0.0028813 0.000755421 0.00121375)
(-0.0029687 0.000243611 0.00121375)
(-0.00296591 -0.000275601 0.00121375)
(-0.00287299 -0.000786437 0.00121375)
(-0.00269278 -0.00127338 0.00121375)
(-0.00243075 -0.00172163 0.00121375)
(-0.00209486 -0.00211757 0.00121375)
(-0.00169533 -0.00244917 0.00121375)
(-0.00124428 -0.00270635 0.00121375)
(-0.000755421 -0.0028813 0.00121375)
(-0.000243611 -0.0029687 0.00121375)
(0.000275601 -0.00296591 0.00121375)
(0.000786437 -0.00287299 0.00121375)
(0.00127338 -0.00269278 0.00121375)
(0.00172163 -0.00243075 0.00121375)
(0.00211757 -0.00209486 0.00121375)
(0.00244917 -0.00169533 0.00121375)
(0.00270635 -0.00124428 0.00121375)
(0.0028813 -0.000755421 0.00121375)
(0.00296871 -0.000243611 0.00121375)
(0.00296591 0.000275601 0.00121375)
(0.00287299 0.000786437 0.00121375)
(0.00269278 0.00127338 0.00121375)
(0.00243075 0.00172163 0.00121375)
(0.00209486 0.00211757 0.00121375)
(0.00169533 0.00244917 0.00121375)
(0.00124428 0.00270635 0.00121375)
(0.000755422 0.0028813 0.00121375)
(0.000243611 0.0029687 0.00121375)
(-0.000453768 0.00298603 0.00130962)
(-0.000965391 0.00286187 0.00130962)
(-0.00144768 0.00265075 0.00130962)
(-0.00188599 0.0023591 0.00130962)
(-0.00226699 0.00199576 0.00130962)
(-0.00257911 0.00157178 0.00130962)
(-0.00281286 0.00110004 0.00130962)
(-0.00296115 0.000594882 0.00130962)
(-0.00301946 7.1645e-05 0.00130962)
(-0.00298603 -0.000453768 0.00130962)
(-0.00286187 -0.000965392 0.00130962)
(-0.00265075 -0.00144768 0.00130962)
(-0.0023591 -0.00188599 0.00130962)
(-0.00199576 -0.00226699 0.00130962)
(-0.00157178 -0.00257911 0.00130962)
(-0.00110004 -0.00281286 0.00130962)
(-0.000594882 -0.00296115 0.00130962)
(-7.16448e-05 -0.00301946 0.00130962)
(0.000453769 -0.00298603 0.00130962)
(0.000965392 -0.00286187 0.00130962)
(0.00144768 -0.00265075 0.00130962)
(0.00188599 -0.0023591 0.00130962)
(0.00226699 -0.00199576 0.00130962)
(0.00257911 -0.00157178 0.00130962)
(0.00281286 -0.00110004 0.00130962)
(0.00296115 -0.000594882 0.00130962)
(0.00301946 -7.1645e-05 0.00130962)
(0.00298603 0.000453768 0.00130962)
(0.00286187 0.000965392 0.00130962)
(0.00265075 0.00144768 0.00130962)
(0.0023591 0.00188599 0.00130962)
(0.00199576 0.00226699 0.00130962)
(0.00157178 0.00257911 0.00130962)
(0.00110004 0.00281286 0.00130962)
(0.000594882 0.00296115 0.00130962)
(7.16452e-05 0.00301946 0.00130962)
(-0.00063953 0.00298729 0.00139179)
(-0.00114855 0.00283085 0.00139179)
(-0.00162268 0.0025884 0.00139179)
(-0.00204749 0.0022673 0.00139179)
(-0.0024101 0.00187731 0.00139179)
(-0.00269948 0.00143028 0.00139179)
(-0.00290683 0.000939796 0.00139179)
(-0.00302586 0.00042075 0.00139179)
(-0.00305296 -0.000111079 0.00139179)
(-0.00298729 -0.00063953 0.00139179)
(-0.00283085 -0.00114855 0.00139179)
(-0.0025884 -0.00162268 0.00139179)
(-0.0022673 -0.00204749 0.00139179)
(-0.00187731 -0.0024101 0.00139179)
(-0.00143028 -0.00269948 0.00139179)
(-0.000939795 -0.00290683 0.00139179)
(-0.00042075 -0.00302586 0.00139179)
(0.000111079 -0.00305296 0.00139179)
(0.00063953 -0.00298729 0.00139179)
(0.00114855 -0.00283085 0.00139179)
(0.00162268 -0.0025884 0.00139179)
(0.00204749 -0.0022673 0.00139179)
(0.0024101 -0.00187731 0.00139179)
(0.00269948 -0.00143028 0.00139179)
(0.00290683 -0.000939796 0.00139179)
(0.00302586 -0.00042075 0.00139179)
(0.00305296 0.000111079 0.00139179)
(0.00298729 0.00063953 0.00139179)
(0.00283085 0.00114855 0.00139179)
(0.0025884 0.00162268 0.00139179)
(0.0022673 0.00204749 0.00139179)
(0.00187731 0.0024101 0.00139179)
(0.00143028 0.00269948 0.00139179)
(0.000939796 0.00290683 0.00139179)
(0.00042075 0.00302586 0.00139179)
(-0.000111078 0.00305296 0.00139179)
(-0.000336145 0.0033991 0.0014246)
(-0.000921286 0.00328909 0.0014246)
(-0.00147843 0.00307914 0.0014246)
(-0.00199066 0.00277563 0.0014246)
(-0.0024424 0.00238779 0.0014246)
(-0.00281993 0.00192739 0.0014246)
(-0.00311177 0.00140844 0.0014246)
(-0.00330907 0.000846685 0.0014246)
(-0.00340583 0.000259207 0.0014246)
(-0.0033991 -0.000336146 0.0014246)
(-0.00328909 -0.000921286 0.0014246)
(-0.00307914 -0.00147843 0.0014246)
(-0.00277563 -0.00199066 0.0014246)
(-0.00238779 -0.0024424 0.0014246)
(-0.00192739 -0.00281993 0.0014246)
(-0.00140844 -0.00311177 0.0014246)
(-0.000846685 -0.00330907 0.0014246)
(-0.000259207 -0.00340583 0.0014246)
(0.000336146 -0.0033991 0.0014246)
(0.000921287 -0.00328909 0.0014246)
(0.00147843 -0.00307914 0.0014246)
(0.00199066 -0.00277563 0.0014246)
(0.0024424 -0.00238779 0.0014246)
(0.00281993 -0.00192739 0.0014246)
(0.00311177 -0.00140844 0.0014246)
(0.00330907 -0.000846685 0.0014246)
(0.00340583 -0.000259207 0.0014246)
(0.0033991 0.000336146 0.0014246)
(0.00328909 0.000921287 0.0014246)
(0.00307914 0.00147843 0.0014246)
(0.00277563 0.00199066 0.0014246)