/*--------------------------------*- C++ -*----------------------------------*\
| =========                 |                                                 |
| \\      /  F ield         | OpenFOAM: The Open Source CFD Toolbox           |
|  \\    /   O peration     | Version:  2312                                  |
|   \\  /    A nd           | Website:  www.openfoam.com                      |
|    \\/     M anipulation  |                                                 |
\*---------------------------------------------------------------------------*/
FoamFile
{
    version     2.0;
    format      ascii;
    arch        "LSB;label=32;scalar=64";
    class       volSymmTensorField;
    location    "0.7";
    object      sigma;
}
// * * * * * * * * * * * * * * * * * * * * * * * * * * * * * * * * * * * * * //

dimensions      [1 -1 -2 0 0 0 0];

internalField   nonuniform List<symmTensor> 
1620
(
(-5818.09 -1092.06 -2218.18 2903.27 15805.8 25184.4)
(-5181.56 -2517.63 -4929.11 2266.82 15180.5 25184.5)
(-4095.84 -3639.58 -7490.33 1181.19 14093.9 25184.4)
(-2692.15 -4322.43 -9823.85 -223.017 12579.1 25184.4)
(-1139.4 -4483.99 -11858.9 -1775.85 10682.1 25184.4)
(375.109 -4104.75 -13533.7 -3290.16 8460.56 25184.5)
(1668.66 -3230.45 -14797.3 -4583.53 5981.94 25184.3)
(2584.96 -1966.44 -15611.2 -5499.88 3321.54 25184.4)
(3013.79 -465.252 -15950.9 -5928.63 560.196 25184.4)
(2903.27 1092.06 -15805.8 -5818.09 -2218.18 25184.4)
(2266.82 2517.63 -15180.5 -5181.56 -4929.11 25184.5)
(1181.19 3639.58 -14093.9 -4095.84 -7490.33 25184.4)
(-223.016 4322.43 -12579.1 -2692.15 -9823.85 25184.4)
(-1775.85 4483.99 -10682.1 -1139.4 -11858.9 25184.4)
(-3290.16 4104.75 -8460.56 375.11 -13533.7 25184.5)
(-4583.53 3230.45 -5981.94 1668.66 -14797.3 25184.3)
(-5499.88 1966.44 -3321.54 2584.96 -15611.2 25184.4)
(-5928.63 465.252 -560.196 3013.79 -15950.9 25184.4)
(-5818.09 -1092.06 2218.18 2903.27 -15805.8 25184.4)
(-5181.56 -2517.63 4929.11 2266.82 -15180.5 25184.5)
(-4095.84 -3639.58 7490.33 1181.19 -14093.9 25184.4)
(-2692.15 -4322.43 9823.85 -223.017 -12579.1 25184.4)
(-1139.4 -4483.99 11858.9 -1775.85 -10682.1 25184.4)
(375.108 -4104.75 13533.7 -3290.16 -8460.56 25184.5)
(1668.66 -3230.45 14797.3 -4583.53 -5981.94 25184.3)
(2584.96 -1966.44 15611.2 -5499.88 -3321.54 25184.4)
(3013.78 -465.252 15950.9 -5928.63 -560.196 25184.4)
(2903.27 1092.06 15805.8 -5818.09 2218.18 25184.4)
(2266.82 2517.63 15180.5 -5181.56 4929.11 25184.5)
(1181.19 3639.58 14093.9 -4095.84 7490.33 25184.4)
(-223.018 4322.43 12579.1 -2692.15 9823.85 25184.4)
(-1775.85 4483.99 10682.1 -1139.4 11858.9 25184.4)
(-3290.16 4104.75 8460.56 375.107 13533.7 25184.5)
(-4583.53 3230.45 5981.94 1668.66 14797.3 25184.3)
(-5499.88 1966.44 3321.54 2584.96 15611.2 25184.4)
(-5928.63 465.252 560.196 3013.78 15950.9 25184.4)
(-23794.1 -4017.79 -512.143 17019.5 4274.98 -24255.5)
(-21189.2 -10755 -1246.7 14414.8 4121.1 -24255.4)
(-16437.1 -16195.1 -1943.39 9662.73 3842 -24255.4)
(-10111.1 -19681.7 -2581.12 3336.58 3446.3 -24255.4)
(-2974.19 -20794.4 -3140.43 -3800.48 2945.83 -24255.4)
(4112.95 -19399.1 -3604.15 -10887.7 2355.68 -24255.5)
(10295.7 -15664 -3958.31 -17070.1 1693.97 -24255.4)
(14827.9 -10039.4 -4192.33 -21602.4 980.87 -24255.5)
(17163 -3204.05 -4298.97 -23937.6 237.98 -24255.5)
(17019.5 4017.79 -4274.98 -23794.1 -512.143 -24255.5)
(14414.8 10755 -4121.1 -21189.2 -1246.7 -24255.4)
(9662.73 16195.1 -3842 -16437.1 -1943.39 -24255.4)
(3336.58 19681.7 -3446.3 -10111.1 -2581.12 -24255.4)
(-3800.48 20794.4 -2945.83 -2974.19 -3140.43 -24255.4)
(-10887.7 19399.1 -2355.68 4112.95 -3604.15 -24255.5)
(-17070.1 15664 -1693.97 10295.7 -3958.31 -24255.4)
(-21602.4 10039.4 -980.87 14827.9 -4192.33 -24255.5)
(-23937.6 3204.05 -237.98 17163 -4298.97 -24255.5)
(-23794.1 -4017.79 512.143 17019.5 -4274.98 -24255.5)
(-21189.2 -10755 1246.7 14414.8 -4121.1 -24255.4)
(-16437.1 -16195.1 1943.39 9662.73 -3842 -24255.4)
(-10111.1 -19681.7 2581.12 3336.58 -3446.3 -24255.4)
(-2974.19 -20794.4 3140.43 -3800.48 -2945.83 -24255.4)
(4112.95 -19399.1 3604.15 -10887.7 -2355.68 -24255.5)
(10295.7 -15664 3958.31 -17070.1 -1693.97 -24255.4)
(14827.9 -10039.4 4192.33 -21602.4 -980.87 -24255.5)
(17163 -3204.05 4298.97 -23937.6 -237.98 -24255.5)
(17019.5 4017.79 4274.98 -23794.1 512.143 -24255.5)
(14414.8 10755 4121.1 -21189.2 1246.7 -24255.4)
(9662.73 16195.1 3842 -16437.1 1943.39 -24255.4)
(3336.58 19681.7 3446.3 -10111.1 2581.12 -24255.4)
(-3800.48 20794.4 2945.83 -2974.19 3140.43 -24255.4)
(-10887.7 19399.1 2355.68 4112.95 3604.15 -24255.5)
(-17070.1 15664 1693.97 10295.7 3958.31 -24255.4)
(-21602.4 10039.4 980.87 14827.9 4192.33 -24255.5)
(-23937.6 3204.05 237.98 17163 4298.97 -24255.5)
(-46246.4 -1095.64 1087.86 -29458.1 -22147.9 -19108.1)
(-45365.4 -3900.53 4917.27 -30339.1 -21622.5 -19108.1)
(-43578.4 -6234.96 8597.29 -32126.4 -20440.1 -19108.3)
(-41100.5 -7817.38 12016.1 -34604.1 -18636.7 -19108.2)
(-38230.9 -8456.96 15069.8 -37473.6 -16267 -19108.4)
(-35315.6 -8076.37 17665.5 -40388.8 -13403.1 -19108.1)
(-32706.4 -6721.71 19724.6 -42998.2 -10131.8 -19108.1)
(-30717.8 -4556.3 21184.3 -44986.9 -6552.7 -19108.2)
(-29589.6 -1841.39 22000.3 -46114.9 -2774.6 -19108.1)
(-29458.1 1095.64 22147.9 -46246.4 1087.86 -19108.1)
(-30339.1 3900.53 21622.5 -45365.4 4917.27 -19108.1)
(-32126.4 6234.96 20440.1 -43578.4 8597.29 -19108.2)
(-34604.1 7817.38 18636.7 -41100.5 12016.1 -19108.2)
(-37473.6 8456.96 16267 -38230.9 15069.8 -19108.4)
(-40388.8 8076.37 13403.1 -35315.6 17665.5 -19108.1)
(-42998.2 6721.71 10131.8 -32706.4 19724.6 -19108.1)
(-44986.9 4556.3 6552.7 -30717.8 21184.3 -19108.2)
(-46114.9 1841.39 2774.6 -29589.6 22000.3 -19108.1)
(-46246.4 -1095.64 -1087.86 -29458.1 22147.9 -19108.1)
(-45365.4 -3900.53 -4917.27 -30339.1 21622.5 -19108.1)
(-43578.4 -6234.96 -8597.29 -32126.4 20440.1 -19108.2)
(-41100.5 -7817.38 -12016.1 -34604.1 18636.7 -19108.2)
(-38230.9 -8456.96 -15069.8 -37473.6 16267 -19108.4)
(-35315.6 -8076.37 -17665.5 -40388.8 13403.1 -19108.1)
(-32706.4 -6721.71 -19724.6 -42998.2 10131.8 -19108.1)
(-30717.8 -4556.3 -21184.3 -44986.9 6552.7 -19108.2)
(-29589.6 -1841.39 -22000.3 -46114.9 2774.6 -19108.2)
(-29458.1 1095.64 -22147.9 -46246.4 -1087.86 -19108.1)
(-30339.1 3900.53 -21622.5 -45365.4 -4917.27 -19108.1)
(-32126.4 6234.96 -20440.1 -43578.4 -8597.29 -19108.3)
(-34604.1 7817.38 -18636.7 -41100.5 -12016.1 -19108.2)
(-37473.6 8456.96 -16267 -38230.9 -15069.8 -19108.4)
(-40388.8 8076.37 -13403.1 -35315.6 -17665.5 -19108.1)
(-42998.2 6721.71 -10131.8 -32706.4 -19724.6 -19108.1)
(-44986.9 4556.3 -6552.7 -30717.8 -21184.3 -19108.2)
(-46114.9 1841.39 -2774.6 -29589.6 -22000.3 -19108.2)
(8689.47 -1480.2 -2574.92 14468.8 13742.1 41251.7)
(9369.88 -2379.2 -4922.01 13788.1 13086.1 41251.7)
(10317 -2991.32 -7119.68 12841.3 12032.7 41251.7)
(11416.1 -3242.51 -9100.89 11742 10613.4 41251.9)
(12535 -3102.69 -10805.7 10623.2 8871.81 41252)
(13538.5 -2588.63 -12182 9619.66 6860.74 41252)
(14305.7 -1762.41 -13188.5 8852.28 4641.17 41251.6)
(14744 -723.527 -13794 8414.03 2280.49 41251.7)
(14800.8 402.595 -13980.5 8357.5 -149.439 41251.7)
(14468.8 1480.2 -13742.1 8689.47 -2574.92 41251.7)
(13788.1 2379.2 -13086.1 9369.88 -4922.01 41251.7)
(12841.3 2991.32 -12032.7 10317 -7119.68 41251.7)
(11741.9 3242.51 -10613.4 11416.1 -9100.88 41251.9)
(10623.2 3102.69 -8871.81 12535 -10805.7 41252)
(9619.66 2588.63 -6860.74 13538.5 -12182 41252)
(8852.28 1762.41 -4641.17 14305.7 -13188.5 41251.6)
(8414.03 723.527 -2280.49 14744 -13794 41251.7)
(8357.5 -402.595 149.439 14800.8 -13980.5 41251.7)
(8689.47 -1480.2 2574.92 14468.8 -13742.1 41251.7)
(9369.88 -2379.2 4922.01 13788.1 -13086.1 41251.7)
(10317 -2991.32 7119.68 12841.3 -12032.7 41251.7)
(11416.1 -3242.51 9100.88 11741.9 -10613.4 41251.9)
(12535 -3102.69 10805.7 10623.2 -8871.81 41252)
(13538.5 -2588.63 12182 9619.66 -6860.74 41252)
(14305.7 -1762.41 13188.5 8852.28 -4641.17 41251.6)
(14744 -723.527 13794 8414.03 -2280.49 41251.7)
(14800.8 402.595 13980.5 8357.5 149.439 41251.7)
(14468.8 1480.2 13742.1 8689.47 2574.92 41251.7)
(13788.1 2379.2 13086.1 9369.88 4922.01 41251.7)
(12841.3 2991.32 12032.7 10317 7119.68 41251.7)
(11742 3242.51 10613.4 11416.1 9100.88 41251.9)
(10623.2 3102.69 8871.81 12535 10805.7 41252)
(9619.66 2588.63 6860.74 13538.5 12182 41252)
(8852.28 1762.41 4641.17 14305.7 13188.5 41251.6)
(8414.03 723.527 2280.49 14744 13794 41251.7)
(8357.51 -402.595 -149.439 14800.8 13980.5 41251.7)
(-4801.38 -5306.39 -761.243 34757.8 5986.19 -5910.48)
(-1793.58 -11751.3 -1789.2 31750.1 5763.21 -5910.34)
(3236.98 -16779 -2762.76 26719.4 5364.89 -5910.49)
(9683.79 -19782.8 -3652.46 20272.5 4803.74 -5910.44)
(16769.2 -20400.5 -4431.1 13187.1 4096.49 -5910.45)
(23638.4 -18557.6 -5075.16 6317.63 3264.82 -5910.59)
(29463.5 -14476.5 -5564.88 493.06 2333.88 -5910.4)
(33541.1 -8649.18 -5885.69 -3584.65 1332.11 -5910.38)
(35379.9 -1778.75 -6027.43 -5423.39 289.83 -5910.47)
(34757.8 5306.39 -5986.19 -4801.38 -761.243 -5910.48)
(31750.1 11751.3 -5763.21 -1793.58 -1789.2 -5910.34)
(26719.4 16779 -5364.89 3236.99 -2762.76 -5910.49)
(20272.5 19782.8 -4803.74 9683.79 -3652.46 -5910.44)
(13187.1 20400.5 -4096.49 16769.2 -4431.1 -5910.45)
(6317.63 18557.6 -3264.82 23638.4 -5075.16 -5910.59)
(493.06 14476.5 -2333.88 29463.5 -5564.88 -5910.4)
(-3584.65 8649.18 -1332.11 33541.1 -5885.69 -5910.38)
(-5423.39 1778.75 -289.83 35379.9 -6027.43 -5910.47)
(-4801.38 -5306.39 761.243 34757.8 -5986.19 -5910.48)
(-1793.58 -11751.3 1789.2 31750.1 -5763.21 -5910.34)
(3236.99 -16779 2762.76 26719.4 -5364.89 -5910.49)
(9683.79 -19782.8 3652.46 20272.5 -4803.74 -5910.44)
(16769.2 -20400.5 4431.1 13187.1 -4096.49 -5910.45)
(23638.4 -18557.6 5075.16 6317.63 -3264.82 -5910.59)
(29463.5 -14476.5 5564.88 493.06 -2333.88 -5910.4)
(33541.1 -8649.18 5885.69 -3584.65 -1332.11 -5910.38)
(35379.9 -1778.75 6027.43 -5423.39 -289.83 -5910.47)
(34757.8 5306.39 5986.19 -4801.38 761.243 -5910.48)
(31750.1 11751.3 5763.21 -1793.58 1789.2 -5910.34)
(26719.4 16779 5364.89 3236.99 2762.76 -5910.49)
(20272.5 19782.8 4803.74 9683.79 3652.46 -5910.44)
(13187.1 20400.5 4096.49 16769.2 4431.1 -5910.45)
(6317.63 18557.6 3264.82 23638.4 5075.16 -5910.59)
(493.06 14476.5 2333.88 29463.5 5564.88 -5910.4)
(-3584.65 8649.18 1332.11 33541.1 5885.69 -5910.38)
(-5423.39 1778.75 289.83 35379.9 6027.43 -5910.47)
(-26000.5 -1793.02 831.551 -9122.47 -22355.1 -693.379)
(-24878.3 -4571.18 4700.82 -10244.6 -21871.1 -693.446)
(-22873.6 -6797.99 8427.26 -12249.3 -20722.5 -693.411)
(-20228.2 -8204.87 11897.7 -14894.7 -18944.3 -693.352)
(-17261 -8622.17 15006.6 -17861.6 -16590.5 -693.333)
(-14330 -7999.43 17659.5 -20792.3 -13732.6 -693.066)
(-11789.1 -6411.89 19775.9 -23333.7 -10457.4 -693.334)
(-9944.15 -4050.95 21291.4 -25178.6 -6864.47 -693.375)
(-9018.15 -1201.46 22159.9 -26104.8 -3063.05 -693.374)
(-9122.47 1793.02 22355.1 -26000.5 831.551 -693.378)
(-10244.6 4571.18 21871.1 -24878.3 4700.82 -693.444)
(-12249.3 6797.99 20722.5 -22873.6 8427.26 -693.41)
(-14894.7 8204.87 18944.3 -20228.2 11897.7 -693.351)
(-17861.6 8622.17 16590.5 -17261 15006.6 -693.331)
(-20792.3 7999.43 13732.6 -14330 17659.5 -693.065)
(-23333.7 6411.89 10457.4 -11789.1 19775.9 -693.333)
(-25178.6 4050.95 6864.47 -9944.15 21291.4 -693.374)
(-26104.8 1201.46 3063.05 -9018.15 22159.9 -693.374)
(-26000.5 -1793.02 -831.551 -9122.47 22355.1 -693.378)
(-24878.3 -4571.18 -4700.82 -10244.6 21871.1 -693.444)
(-22873.6 -6797.99 -8427.26 -12249.3 20722.5 -693.41)
(-20228.2 -8204.87 -11897.7 -14894.7 18944.3 -693.351)
(-17261 -8622.17 -15006.6 -17861.6 16590.5 -693.332)
(-14330 -7999.43 -17659.5 -20792.3 13732.6 -693.065)
(-11789.1 -6411.89 -19775.9 -23333.7 10457.4 -693.334)
(-9944.15 -4050.95 -21291.4 -25178.6 6864.47 -693.375)
(-9018.15 -1201.46 -22159.9 -26104.8 3063.05 -693.375)
(-9122.47 1793.02 -22355.1 -26000.5 -831.551 -693.379)
(-10244.6 4571.18 -21871.1 -24878.3 -4700.82 -693.445)
(-12249.3 6797.99 -20722.5 -22873.6 -8427.26 -693.411)
(-14894.7 8204.87 -18944.3 -20228.2 -11897.7 -693.353)
(-17861.6 8622.17 -16590.5 -17261 -15006.6 -693.333)
(-20792.3 7999.43 -13732.6 -14330 -17659.5 -693.067)
(-23333.7 6411.89 -10457.4 -11789.1 -19775.9 -693.335)
(-25178.6 4050.95 -6864.47 -9944.15 -21291.4 -693.376)
(-26104.8 1201.46 -3063.05 -9018.15 -22159.9 -693.376)
(6039.52 -1914.84 -1922.73 11249.9 13815.3 37163.7)
(6851.46 -2690.42 -4292.63 10437.7 13271.5 37163.6)
(7879.85 -3141.44 -6531.95 9409.48 12324.5 37163.7)
(9000.32 -3213.52 -8572.77 8288.81 11002.9 37163.8)
(10078.2 -2898.14 -10353.3 7211.39 9347.26 37163.7)
(10982.8 -2233.02 -11819 6306.54 7407.31 37163.9)
(11605.5 -1298.71 -12925.8 5683.64 5242.49 37163.6)
(11871.2 -207.677 -13639.8 5418.14 2918.26 37163.7)
(11747.5 908.342 -13939.3 5541.56 505.498 37163.5)
(11249.9 1914.84 -13815.3 6039.52 -1922.73 37163.7)
(10437.7 2690.42 -13271.5 6851.46 -4292.63 37163.6)
(9409.48 3141.44 -12324.5 7879.85 -6531.95 37163.7)
(8288.81 3213.52 -11002.9 9000.31 -8572.77 37163.8)
(7211.39 2898.14 -9347.26 10078.2 -10353.3 37163.7)
(6306.54 2233.02 -7407.31 10982.8 -11819 37163.9)
(5683.64 1298.71 -5242.49 11605.5 -12925.8 37163.6)
(5418.14 207.677 -2918.26 11871.2 -13639.8 37163.7)
(5541.56 -908.341 -505.498 11747.5 -13939.3 37163.5)
(6039.52 -1914.84 1922.73 11249.9 -13815.3 37163.7)
(6851.46 -2690.42 4292.63 10437.7 -13271.5 37163.6)
(7879.85 -3141.44 6531.95 9409.48 -12324.5 37163.7)
(9000.31 -3213.52 8572.77 8288.81 -11002.9 37163.8)
(10078.2 -2898.14 10353.3 7211.39 -9347.26 37163.7)
(10982.8 -2233.02 11819 6306.54 -7407.31 37163.9)
(11605.5 -1298.71 12925.8 5683.64 -5242.49 37163.6)
(11871.2 -207.677 13639.8 5418.14 -2918.26 37163.7)
(11747.5 908.341 13939.3 5541.56 -505.498 37163.5)
(11249.9 1914.84 13815.3 6039.52 1922.73 37163.7)
(10437.7 2690.42 13271.5 6851.46 4292.63 37163.6)
(9409.48 3141.44 12324.5 7879.85 6531.95 37163.7)
(8288.81 3213.52 11002.9 9000.32 8572.77 37163.8)
(7211.39 2898.14 9347.26 10078.2 10353.3 37163.7)
(6306.54 2233.02 7407.31 10982.8 11819 37163.9)
(5683.64 1298.71 5242.49 11605.5 12925.8 37163.6)
(5418.14 207.677 2918.26 11871.2 13639.8 37163.7)
(5541.56 -908.342 505.498 11747.5 13939.3 37163.5)
(-4489.68 -6564.37 -802.995 34072.1 6338.74 -7240.03)
(-1081.72 -12762.9 -1891.52 30664.2 6103.08 -7239.94)
(4240.68 -17422.1 -2922.58 25341.7 5681.9 -7239.98)
(10835.7 -19979.9 -3864.84 18747 5088.12 -7239.81)
(17907.9 -20127.9 -4689.53 11674.8 4339.55 -7239.92)
(24603.9 -17848 -5372.01 4978.45 3459.4 -7239.98)
(30116.6 -13415.6 -5891.08 -534.024 2474 -7239.9)
(33780.6 -7364.92 -6231.18 -4198.39 1413.43 -7240.1)
(35154.6 -426.031 -6381.87 -5571.94 309.929 -7239.94)
(34072.1 6564.37 -6338.74 -4489.68 -802.995 -7240.03)
(30664.2 12762.9 -6103.08 -1081.72 -1891.52 -7239.94)
(25341.7 17422.1 -5681.9 4240.68 -2922.58 -7239.98)
(18747 19979.9 -5088.12 10835.7 -3864.84 -7239.8)
(11674.8 20127.9 -4339.55 17907.9 -4689.53 -7239.92)
(4978.45 17848 -3459.4 24603.9 -5372.01 -7239.98)
(-534.024 13415.6 -2474 30116.6 -5891.08 -7239.9)
(-4198.39 7364.92 -1413.43 33780.6 -6231.18 -7240.1)
(-5571.94 426.032 -309.929 35154.6 -6381.87 -7239.94)
(-4489.68 -6564.37 802.995 34072.1 -6338.74 -7240.03)
(-1081.72 -12762.9 1891.52 30664.2 -6103.08 -7239.94)
(4240.68 -17422.1 2922.58 25341.7 -5681.9 -7239.98)
(10835.7 -19979.9 3864.84 18747 -5088.12 -7239.8)
(17907.9 -20127.9 4689.53 11674.8 -4339.55 -7239.92)
(24603.9 -17848 5372.01 4978.45 -3459.4 -7239.98)
(30116.6 -13415.6 5891.08 -534.024 -2474 -7239.9)
(33780.6 -7364.92 6231.18 -4198.39 -1413.43 -7240.1)
(35154.6 -426.032 6381.87 -5571.94 -309.929 -7239.94)
(34072.1 6564.37 6338.74 -4489.68 802.995 -7240.03)
(30664.2 12762.9 6103.08 -1081.72 1891.52 -7239.94)
(25341.7 17422.1 5681.9 4240.68 2922.58 -7239.98)
(18747 19979.9 5088.12 10835.7 3864.84 -7239.81)
(11674.8 20127.9 4339.55 17907.9 4689.53 -7239.92)
(4978.45 17848 3459.4 24603.9 5372.01 -7239.98)
(-534.024 13415.6 2474 30116.6 5891.08 -7239.9)
(-4198.39 7364.92 1413.43 33780.6 6231.18 -7240.1)
(-5571.94 426.031 309.929 35154.6 6381.87 -7239.94)
(-24735.6 -4181.04 2435.96 -9186.83 -22144.9 -1678.74)
(-22836.8 -6587.88 6244.34 -11085.7 -21385.5 -1678.82)
(-20229.1 -8200.15 9863.03 -13693.1 -19976.3 -1678.69)
(-17227.5 -8823.34 13182 -16694.9 -17960.1 -1678.74)
(-14193.7 -8382.33 16100.5 -19728.8 -15398.2 -1678.87)
(-11493.7 -6930.23 18529.8 -22428.8 -12368.4 -1678.8)
(-9453.19 -4642.3 20396 -24469.4 -8962.83 -1678.9)
(-8318.02 -1794.44 21642.5 -25604.1 -5284.97 -1678.68)
(-8225.62 1269.89 22231.5 -25696.7 -1446.49 -1678.68)
(-9186.83 4181.04 22144.9 -24735.6 2435.96 -1678.74)
(-11085.7 6587.88 21385.5 -22836.8 6244.34 -1678.82)
(-13693.1 8200.15 19976.3 -20229.1 9863.03 -1678.69)
(-16694.9 8823.34 17960.1 -17227.5 13182 -1678.74)
(-19728.8 8382.33 15398.2 -14193.7 16100.5 -1678.87)
(-22428.8 6930.23 12368.4 -11493.7 18529.8 -1678.8)
(-24469.4 4642.3 8962.83 -9453.19 20396 -1678.9)
(-25604.1 1794.44 5284.97 -8318.02 21642.5 -1678.68)
(-25696.7 -1269.89 1446.49 -8225.62 22231.5 -1678.68)
(-24735.6 -4181.04 -2435.96 -9186.83 22144.9 -1678.74)
(-22836.8 -6587.88 -6244.34 -11085.7 21385.5 -1678.82)
(-20229.1 -8200.15 -9863.03 -13693.1 19976.3 -1678.69)
(-17227.5 -8823.34 -13182 -16694.9 17960.1 -1678.74)
(-14193.7 -8382.33 -16100.5 -19728.8 15398.2 -1678.87)
(-11493.7 -6930.23 -18529.8 -22428.8 12368.4 -1678.8)
(-9453.19 -4642.3 -20396 -24469.4 8962.83 -1678.9)
(-8318.02 -1794.44 -21642.5 -25604.1 5284.97 -1678.68)
(-8225.62 1269.89 -22231.5 -25696.7 1446.49 -1678.68)
(-9186.83 4181.04 -22144.9 -24735.6 -2435.96 -1678.74)
(-11085.7 6587.88 -21385.5 -22836.8 -6244.34 -1678.82)
(-13693.1 8200.15 -19976.3 -20229.1 -9863.03 -1678.69)
(-16694.9 8823.34 -17960.1 -17227.5 -13182 -1678.74)
(-19728.8 8382.33 -15398.2 -14193.7 -16100.5 -1678.87)
(-22428.8 6930.23 -12368.4 -11493.7 -18529.8 -1678.8)
(-24469.4 4642.3 -8962.83 -9453.19 -20396 -1678.9)
(-25604.1 1794.44 -5284.97 -8318.02 -21642.5 -1678.68)
(-25696.7 -1269.89 -1446.49 -8225.62 -22231.5 -1678.68)
(5813.83 -1928.06 -387.735 10685.1 14106.8 35499.9)
(6620.17 -2644.86 -2831.52 9878.9 13825.2 35499.8)
(7622.97 -3042.64 -5189.26 8875.99 13123.5 35499.7)
(8701.5 -3073.39 -7389.28 7797.59 12022.9 35499.9)
(9725.4 -2733.48 -9364.7 6773.79 10557.2 35499.9)
(10571.3 -2063.84 -11055.7 5927.8 8770.59 35499.9)
(11137.3 -1145.35 -12410.8 5362.06 6717.63 35499.9)
(11354.7 -88.625 -13388.7 5144.28 4460.4 35499.8)
(11197.7 978.759 -13959.8 5301.32 2067.74 35499.9)
(10685.1 1928.06 -14106.8 5813.83 -387.735 35499.9)
(9878.9 2644.86 -13825.2 6620.17 -2831.52 35499.8)
(8875.99 3042.64 -13123.5 7622.97 -5189.26 35499.7)
(7797.59 3073.39 -12022.9 8701.49 -7389.28 35499.9)
(6773.79 2733.48 -10557.2 9725.4 -9364.7 35499.9)
(5927.8 2063.84 -8770.59 10571.3 -11055.7 35499.9)
(5362.06 1145.35 -6717.63 11137.3 -12410.8 35499.9)
(5144.28 88.6252 -4460.4 11354.7 -13388.7 35499.8)
(5301.32 -978.759 -2067.74 11197.7 -13959.8 35499.9)
(5813.83 -1928.06 387.735 10685.1 -14106.8 35499.9)
(6620.17 -2644.86 2831.52 9878.9 -13825.2 35499.8)
(7622.97 -3042.64 5189.26 8875.99 -13123.5 35499.7)
(8701.49 -3073.39 7389.28 7797.59 -12022.9 35499.9)
(9725.4 -2733.48 9364.7 6773.79 -10557.2 35499.9)
(10571.3 -2063.84 11055.7 5927.8 -8770.59 35499.9)
(11137.3 -1145.35 12410.8 5362.06 -6717.63 35499.9)
(11354.7 -88.6251 13388.7 5144.28 -4460.4 35499.8)
(11197.7 978.759 13959.8 5301.32 -2067.74 35499.9)
(10685.1 1928.06 14106.8 5813.83 387.735 35499.9)
(9878.9 2644.86 13825.2 6620.17 2831.52 35499.8)
(8875.99 3042.64 13123.5 7622.97 5189.26 35499.7)
(7797.59 3073.39 12022.9 8701.5 7389.28 35499.9)
(6773.79 2733.48 10557.2 9725.4 9364.7 35499.9)
(5927.8 2063.84 8770.59 10571.3 11055.7 35499.9)
(5362.06 1145.35 6717.63 11137.3 12410.8 35499.9)
(5144.28 88.625 4460.4 11354.7 13388.7 35499.8)
(5301.32 -978.761 2067.73 11197.7 13959.8 35499.9)
(-3164.49 -7706.75 -805.328 34175.3 6536.37 -7746.97)
(597.29 -13627.5 -1928.11 30413.5 6297.19 -7746.99)
(6157.26 -17904.6 -2992.31 24853.5 5866.67 -7747.04)
(12844.8 -20022 -3965.63 18166.1 5258 -7746.92)
(19853 -19724.5 -4818.45 11157.7 4489.53 -7747.01)
(26337.1 -17048 -5524.8 4673.8 3584.59 -7746.95)
(31514.6 -12315.3 -6063.25 -503.807 2570.73 -7747.05)
(34761.2 -6097.04 -6417.58 -3750.39 1478.8 -7747.01)
(35685.3 856.524 -6576.91 -4674.43 341.933 -7746.99)
(34175.3 7706.75 -6536.37 -3164.49 -805.328 -7746.97)
(30413.5 13627.5 -6297.19 597.29 -1928.11 -7746.99)
(24853.5 17904.6 -5866.67 6157.26 -2992.31 -7747.04)
(18166.1 20022 -5258 12844.8 -3965.63 -7746.92)
(11157.7 19724.5 -4489.53 19853 -4818.45 -7747.01)
(4673.8 17048 -3584.59 26337.1 -5524.8 -7746.95)
(-503.806 12315.3 -2570.73 31514.6 -6063.25 -7747.05)
(-3750.39 6097.04 -1478.8 34761.2 -6417.58 -7747.01)
(-4674.43 -856.524 -341.933 35685.3 -6576.91 -7746.99)
(-3164.49 -7706.75 805.328 34175.3 -6536.37 -7746.97)
(597.289 -13627.5 1928.11 30413.5 -6297.19 -7746.99)
(6157.26 -17904.6 2992.31 24853.5 -5866.67 -7747.04)
(12844.8 -20022 3965.63 18166.1 -5258 -7746.92)
(19853 -19724.5 4818.45 11157.7 -4489.53 -7747.01)
(26337.1 -17048 5524.8 4673.8 -3584.59 -7746.95)
(31514.6 -12315.3 6063.25 -503.806 -2570.73 -7747.05)
(34761.2 -6097.04 6417.58 -3750.39 -1478.8 -7747.01)
(35685.3 856.524 6576.91 -4674.43 -341.933 -7746.99)
(34175.3 7706.75 6536.37 -3164.49 805.328 -7746.97)
(30413.5 13627.5 6297.19 597.289 1928.11 -7746.99)
(24853.5 17904.6 5866.67 6157.26 2992.31 -7747.04)
(18166.1 20022 5258 12844.8 3965.63 -7746.92)
(11157.7 19724.5 4489.53 19853 4818.45 -7747.01)
(4673.8 17048 3584.59 26337.1 5524.8 -7746.95)
(-503.807 12315.3 2570.73 31514.6 6063.25 -7747.05)
(-3750.39 6097.04 1478.8 34761.2 6417.58 -7747.01)
(-4674.43 -856.524 341.933 35685.3 6576.91 -7746.99)
(-21392.3 -6561.24 4014.55 -7721 -21943.7 -1030.93)
(-18736.1 -8503.49 7764.05 -10377.3 -20913.3 -1031.06)
(-15575.6 -9420.1 11277.7 -13537.7 -19247.3 -1030.94)
(-12292.4 -9200.47 14448.6 -16821.1 -16996.5 -1030.98)
(-9282.16 -7871.2 17180.5 -19831.3 -14229.4 -1031.09)
(-6908.13 -5592.47 19390.4 -22205.2 -11029.8 -1030.94)
(-5456.75 -2639.23 21011.1 -23656.8 -7495.16 -1031.05)
(-5102.72 632.302 21993.4 -24010.6 -3732.78 -1031.03)
(-5889.14 3827.63 22307.5 -23224.2 143.087 -1030.93)
(-7721 6561.24 21943.7 -21392.3 4014.55 -1030.92)
(-10377.3 8503.49 20913.3 -18736.1 7764.05 -1031.05)
(-13537.7 9420.1 19247.3 -15575.6 11277.7 -1030.94)
(-16821.1 9200.47 16996.5 -12292.4 14448.6 -1030.98)
(-19831.3 7871.2 14229.4 -9282.16 17180.5 -1031.09)
(-22205.2 5592.47 11029.8 -6908.13 19390.4 -1030.94)
(-23656.8 2639.23 7495.16 -5456.75 21011.1 -1031.05)
(-24010.6 -632.302 3732.77 -5102.72 21993.4 -1031.03)
(-23224.2 -3827.63 -143.087 -5889.14 22307.5 -1030.92)
(-21392.3 -6561.24 -4014.55 -7721 21943.7 -1030.92)
(-18736.1 -8503.49 -7764.05 -10377.3 20913.3 -1031.05)
(-15575.6 -9420.1 -11277.7 -13537.7 19247.3 -1030.94)
(-12292.4 -9200.47 -14448.6 -16821.1 16996.5 -1030.98)
(-9282.16 -7871.2 -17180.5 -19831.3 14229.4 -1031.09)
(-6908.13 -5592.47 -19390.4 -22205.2 11029.8 -1030.94)
(-5456.75 -2639.23 -21011.1 -23656.8 7495.16 -1031.05)
(-5102.72 632.302 -21993.4 -24010.6 3732.78 -1031.03)
(-5889.14 3827.63 -22307.5 -23224.2 -143.087 -1030.93)
(-7721 6561.24 -21943.7 -21392.3 -4014.55 -1030.93)
(-10377.3 8503.49 -20913.3 -18736.1 -7764.05 -1031.06)
(-13537.7 9420.1 -19247.3 -15575.6 -11277.7 -1030.94)
(-16821.1 9200.47 -16996.5 -12292.4 -14448.6 -1030.98)
(-19831.3 7871.2 -14229.4 -9282.16 -17180.5 -1031.09)
(-22205.2 5592.47 -11029.8 -6908.13 -19390.4 -1030.94)
(-23656.8 2639.23 -7495.16 -5456.75 -21011.1 -1031.05)
(-24010.6 -632.302 -3732.78 -5102.72 -21993.4 -1031.03)
(-23224.2 -3827.63 143.087 -5889.14 -22307.5 -1030.93)
(5367.01 -1582.88 1300.28 9742.36 14381 33729.6)
(6040.43 -2235.66 -1216.72 9069.22 14388.3 33729.7)
(6896.2 -2618.78 -3696.73 8213.06 13958.5 33729.5)
(7831.74 -2686.08 -6064.55 7277.77 13104.5 33729.6)
(8733.57 -2429.28 -8247.83 6375.65 11852.2 33729.6)
(9493.47 -1879.61 -10180.8 5615.95 10240 33729.5)
(10019.5 -1103.17 -11804.2 5090.21 8316.61 33729.7)
(10248 -193.675 -13069.1 4861.29 6140.45 33729.5)
(10151.8 739.222 -13936.7 4957.57 3777.71 33729.7)
(9742.36 1582.88 -14381 5367.01 1300.28 33729.6)
(9069.22 2235.66 -14388.3 6040.42 -1216.71 33729.7)
(8213.06 2618.78 -13958.5 6896.2 -3696.73 33729.5)
(7277.77 2686.08 -13104.5 7831.74 -6064.55 33729.6)
(6375.65 2429.28 -11852.2 8733.57 -8247.83 33729.6)
(5615.95 1879.61 -10240 9493.47 -10180.8 33729.5)
(5090.21 1103.17 -8316.61 10019.5 -11804.2 33729.7)
(4861.29 193.676 -6140.45 10248 -13069.1 33729.5)
(4957.57 -739.222 -3777.71 10151.8 -13936.7 33729.7)
(5367.01 -1582.88 -1300.29 9742.36 -14381 33729.6)
(6040.43 -2235.66 1216.71 9069.22 -14388.3 33729.7)
(6896.2 -2618.78 3696.73 8213.06 -13958.5 33729.5)
(7831.74 -2686.08 6064.55 7277.77 -13104.5 33729.6)
(8733.57 -2429.28 8247.83 6375.65 -11852.2 33729.6)
(9493.47 -1879.61 10180.8 5615.95 -10240 33729.5)
(10019.5 -1103.17 11804.2 5090.21 -8316.61 33729.7)
(10248 -193.676 13069.1 4861.29 -6140.45 33729.5)
(10151.8 739.222 13936.7 4957.58 -3777.71 33729.7)
(9742.36 1582.88 14381 5367.01 -1300.28 33729.6)
(9069.22 2235.66 14388.3 6040.43 1216.71 33729.7)
(8213.06 2618.78 13958.5 6896.2 3696.73 33729.5)
(7277.77 2686.08 13104.5 7831.74 6064.55 33729.6)
(6375.65 2429.28 11852.2 8733.57 8247.83 33729.6)
(5615.95 1879.61 10240 9493.47 10180.8 33729.5)
(5090.21 1103.17 8316.61 10019.5 11804.2 33729.7)
(4861.29 193.675 6140.45 10248 13069.1 33729.5)
(4957.58 -739.222 3777.71 10151.8 13936.7 33729.7)
(-2363.98 -8390.84 -806.321 33517.7 6835.38 -8542.78)
(1587.65 -14021 -1981.03 29565.7 6591.51 -8542.96)
(7226.94 -17959.9 -3095.51 23926.8 6147.3 -8542.81)
(13873.1 -19732.7 -4115.95 17280.4 5516.37 -8542.95)
(20724.7 -19125.3 -5011.4 10428.8 4717.94 -8542.85)
(26955.6 -16211.3 -5754.42 4198.15 3775.98 -8542.83)
(31813.9 -11341.8 -6322.7 -660.391 2719.37 -8542.98)
(34713.9 -5104.4 -6698.93 -3560.15 1580.15 -8542.79)
(35305.5 1748.73 -6871.54 -4151.93 392.873 -8542.87)
(33517.7 8390.84 -6835.38 -2363.98 -806.321 -8542.78)
(29565.7 14021 -6591.51 1587.65 -1981.03 -8542.96)
(23926.8 17959.9 -6147.3 7226.94 -3095.51 -8542.81)
(17280.4 19732.7 -5516.37 13873.1 -4115.95 -8542.94)
(10428.8 19125.3 -4717.94 20724.7 -5011.4 -8542.85)
(4198.15 16211.3 -3775.98 26955.6 -5754.42 -8542.83)
(-660.391 11341.8 -2719.37 31813.9 -6322.7 -8542.98)
(-3560.15 5104.4 -1580.15 34713.9 -6698.93 -8542.79)
(-4151.93 -1748.73 -392.873 35305.5 -6871.54 -8542.87)
(-2363.98 -8390.84 806.321 33517.7 -6835.38 -8542.78)
(1587.65 -14021 1981.03 29565.7 -6591.51 -8542.96)
(7226.94 -17959.9 3095.51 23926.8 -6147.3 -8542.81)
(13873.1 -19732.7 4115.95 17280.4 -5516.37 -8542.94)
(20724.7 -19125.3 5011.4 10428.8 -4717.94 -8542.85)
(26955.6 -16211.3 5754.42 4198.15 -3775.98 -8542.83)
(31813.9 -11341.8 6322.7 -660.391 -2719.37 -8542.98)
(34713.9 -5104.4 6698.93 -3560.15 -1580.15 -8542.79)
(35305.5 1748.73 6871.54 -4151.93 -392.873 -8542.87)
(33517.7 8390.84 6835.38 -2363.98 806.321 -8542.78)
(29565.7 14021 6591.51 1587.65 1981.03 -8542.96)
(23926.8 17959.9 6147.3 7226.94 3095.51 -8542.81)
(17280.4 19732.7 5516.37 13873.1 4115.95 -8542.95)
(10428.8 19125.3 4717.94 20724.7 5011.4 -8542.85)
(4198.15 16211.3 3775.98 26955.6 5754.42 -8542.83)
(-660.391 11341.8 2719.37 31813.9 6322.7 -8542.98)
(-3560.15 5104.4 1580.15 34713.9 6698.93 -8542.79)
(-4151.93 -1748.73 392.873 35305.5 6871.54 -8542.87)
(-18261.1 -8664.74 5511.83 -6908.38 -21686.8 -937.978)
(-14955.2 -10083.6 9193.99 -10214.2 -20400.1 -937.719)
(-11363.5 -10286.3 12596.8 -13806 -18493.7 -937.87)
(-7919.02 -9248.2 15616.8 -17250.5 -16025.3 -937.818)
(-5037.25 -7094.71 18162.3 -20132.1 -13070.1 -937.806)
(-3065.95 -4085.47 20156 -22103.5 -9717.65 -937.822)
(-2242.66 -583.485 21537.2 -22926.8 -6069.98 -937.911)
(-2666.92 2988.91 22264 -22502.7 -2237.86 -937.894)
(-4287.07 6200.82 22314.4 -20882.2 1662.28 -937.878)
(-6908.38 8664.74 21686.8 -18261.1 5511.83 -937.977)
(-10214.2 10083.6 20400.1 -14955.2 9193.99 -937.718)
(-13806 10286.3 18493.7 -11363.5 12596.8 -937.868)
(-17250.5 9248.2 16025.3 -7919.01 15616.8 -937.816)
(-20132.1 7094.71 13070.1 -5037.25 18162.3 -937.805)
(-22103.5 4085.47 9717.65 -3065.95 20156 -937.821)
(-22926.8 583.485 6069.98 -2242.66 21537.2 -937.911)
(-22502.7 -2988.91 2237.86 -2666.92 22264 -937.893)
(-20882.2 -6200.82 -1662.28 -4287.07 22314.4 -937.878)
(-18261.1 -8664.74 -5511.83 -6908.38 21686.8 -937.977)
(-14955.2 -10083.6 -9193.99 -10214.2 20400.1 -937.718)
(-11363.5 -10286.3 -12596.8 -13806 18493.7 -937.869)
(-7919.02 -9248.2 -15616.8 -17250.5 16025.3 -937.818)
(-5037.25 -7094.71 -18162.3 -20132.1 13070.1 -937.807)
(-3065.96 -4085.47 -20156 -22103.5 9717.65 -937.823)
(-2242.66 -583.485 -21537.2 -22926.8 6069.98 -937.912)
(-2666.92 2988.91 -22264 -22502.7 2237.86 -937.895)
(-4287.07 6200.82 -22314.4 -20882.2 -1662.28 -937.879)
(-6908.38 8664.74 -21686.8 -18261.1 -5511.83 -937.979)
(-10214.2 10083.6 -20400.1 -14955.2 -9193.99 -937.72)
(-13806 10286.3 -18493.7 -11363.5 -12596.8 -937.87)
(-17250.5 9248.2 -16025.3 -7919.02 -15616.8 -937.818)
(-20132.1 7094.71 -13070.1 -5037.25 -18162.3 -937.807)
(-22103.5 4085.47 -9717.65 -3065.96 -20156 -937.823)
(-22926.8 583.485 -6069.98 -2242.66 -21537.2 -937.913)
(-22502.7 -2988.91 -2237.86 -2666.92 -22264 -937.895)
(-20882.2 -6200.82 1662.28 -4287.07 -22314.4 -937.879)
(4851.8 -900.827 3027.17 8504.27 14610.5 31845.2)
(5270.12 -1471.09 444.144 8086.1 14914.1 31845.3)
(5858.04 -1863.9 -2152.37 7497.9 14764.6 31845.2)
(6545.12 -2032 -4683.65 6811.16 14166.7 31845.2)
(7248.05 -1954.92 -7072.5 6108 13138.1 31845.2)
(7882.34 -1642.1 -9246.48 5473.8 11710.4 31845.1)
(8371.27 -1131.13 -11139.3 4984.83 9926.85 31845.3)
(8655.97 -483.829 -12694 4699.98 7841.74 31845.1)
(8702.3 221.896 -13862.8 4653.89 5518.25 31845.2)
(8504.27 900.827 -14610.5 4851.8 3027.17 31845.2)
(8086.1 1471.09 -14914.1 5270.12 444.144 31845.3)
(7497.9 1863.9 -14764.6 5858.04 -2152.37 31845.2)
(6811.16 2032 -14166.7 6545.12 -4683.65 31845.2)
(6108 1954.92 -13138.1 7248.05 -7072.5 31845.2)
(5473.8 1642.1 -11710.4 7882.34 -9246.48 31845.1)
(4984.83 1131.13 -9926.85 8371.27 -11139.3 31845.3)
(4699.98 483.83 -7841.74 8655.97 -12694 31845.1)