/*--------------------------------*- C++ -*----------------------------------*\
| =========                 |                                                 |
| \\      /  F ield         | OpenFOAM: The Open Source CFD Toolbox           |
|  \\    /   O peration     | Version:  2312                                  |
|   \\  /    A nd           | Website:  www.openfoam.com                      |
|    \\/     M anipulation  |                                                 |
\*---------------------------------------------------------------------------*/
FoamFile
{
    version     2.0;
    format      ascii;
    arch        "LSB;label=32;scalar=64";
    class       volVectorField;
    location    "0.7";
    object      traction;
}
// * * * * * * * * * * * * * * * * * * * * * * * * * * * * * * * * * * * * * //

dimensions      [1 -1 -2 0 0 0 0];

internalField   uniform (0 0 0);

boundaryField
{
    fixed
    {
        type            calculated;
        value           nonuniform List<vector> 
108
(
(-1910.88 15824.8 25179.9)
(-4629.81 15252.6 25180)
(-7208.06 14216.9 25179.9)
(-9567.25 12749.2 25179.9)
(-11635.7 10894.1 25179.9)
(-13350.7 8708.16 25180)
(-14660.2 6257.57 25179.8)
(-15524 3616.79 25179.9)
(-15916.2 866.123 25179.9)
(-15824.8 -1910.88 25179.9)
(-15252.6 -4629.81 25180)
(-14216.9 -7208.06 25179.9)
(-12749.2 -9567.25 25179.9)
(-10894.1 -11635.7 25179.9)
(-8708.16 -13350.7 25180)
(-6257.57 -14660.2 25179.8)
(-3616.79 -15524 25179.9)
(-866.123 -15916.2 25179.9)
(1910.88 -15824.8 25179.9)
(4629.81 -15252.6 25180)
(7208.06 -14216.9 25179.9)
(9567.25 -12749.2 25179.9)
(11635.7 -10894.1 25179.9)
(13350.7 -8708.16 25179.9)
(14660.2 -6257.57 25179.8)
(15524 -3616.79 25179.9)
(15916.2 -866.123 25179.9)
(15824.8 1910.88 25179.9)
(15252.6 4629.81 25180)
(14216.9 7208.06 25179.9)
(12749.2 9567.25 25179.9)
(10894.1 11635.7 25179.9)
(8708.16 13350.7 25179.9)
(6257.57 14660.2 25179.8)
(3616.79 15524 25179.9)
(866.123 15916.2 25179.9)
(-992.632 4240.18 -24248.4)
(-1713.85 4003.39 -24248.3)
(-2382.98 3644.92 -24248.3)
(-2979.81 3175.88 -24248.3)
(-3486.14 2610.31 -24248.4)
(-3886.31 1965.21 -24248.4)
(-4168.38 1260.43 -24248.4)
(-4323.96 517.461 -24248.4)
(-4348.13 -241.253 -24248.4)
(-4240.18 -992.632 -24248.4)
(-4003.39 -1713.85 -24248.3)
(-3644.92 -2382.98 -24248.3)
(-3175.88 -2979.81 -24248.3)
(-2610.31 -3486.14 -24248.4)
(-1965.21 -3886.31 -24248.4)
(-1260.43 -4168.38 -24248.4)
(-517.461 -4323.96 -24248.4)
(241.253 -4348.13 -24248.4)
(992.632 -4240.18 -24248.4)
(1713.85 -4003.39 -24248.3)
(2382.98 -3644.92 -24248.3)
(2979.81 -3175.88 -24248.3)
(3486.14 -2610.31 -24248.4)
(3886.31 -1965.21 -24248.4)
(4168.38 -1260.43 -24248.4)
(4323.96 -517.461 -24248.4)
(4348.13 241.253 -24248.4)
(4240.18 992.632 -24248.4)
(4003.39 1713.85 -24248.3)
(3644.92 2382.98 -24248.3)
(3175.88 2979.81 -24248.3)
(2610.31 3486.14 -24248.4)
(1965.21 3886.31 -24248.4)
(1260.43 4168.38 -24248.4)
(517.461 4323.96 -24248.4)
(-241.253 4348.13 -24248.4)
(1299.71 -22167.2 -19104.7)
(5129.23 -21604.7 -19104.7)
(8802.97 -20385.8 -19104.8)
(12209.2 -18547.4 -19104.7)
(15244.5 -16145.6 -19104.9)
(17816.5 -13253.2 -19104.7)
(19847.2 -9958 -19104.7)
(21274.9 -6360.25 -19104.8)
(22056.1 -2569.31 -19104.8)
(22167.2 1299.71 -19104.7)
(21604.7 5129.23 -19104.7)
(20385.8 8802.97 -19104.8)
(18547.4 12209.2 -19104.7)
(16145.6 15244.5 -19104.9)
(13253.2 17816.5 -19104.7)
(9958 19847.2 -19104.7)
(6360.25 21274.9 -19104.8)
(2569.31 22056.1 -19104.8)
(-1299.71 22167.2 -19104.7)
(-5129.23 21604.7 -19104.7)
(-8802.97 20385.8 -19104.8)
(-12209.2 18547.4 -19104.7)
(-15244.5 16145.6 -19104.9)
(-17816.5 13253.2 -19104.7)
(-19847.2 9958 -19104.7)
(-21274.9 6360.25 -19104.8)
(-22056.1 2569.31 -19104.8)
(-22167.2 -1299.71 -19104.7)
(-21604.7 -5129.23 -19104.7)
(-20385.8 -8802.97 -19104.8)
(-18547.4 -12209.2 -19104.7)
(-16145.6 -15244.5 -19104.9)
(-13253.2 -17816.5 -19104.7)
(-9958 -19847.2 -19104.7)
(-6360.25 -21274.9 -19104.8)
(-2569.31 -22056.1 -19104.8)
)
;
    }
    inside
    {
        type            calculated;
        value           nonuniform List<vector> 
540
(
(44396.6 6438.86 2399.45)
(42604.2 14050.1 2399.4)
(39517 21235.3 2399.48)
(35229.3 27774.4 2399.43)
(29871.1 33470.1 2399.44)
(23605.1 38148.6 2399.42)
(16622.4 41667.9 2399.41)
(9133.8 43921.5 2399.45)
(1368.51 44840.2 2399.45)
(-6438.86 44396.6 2399.45)
(-14050.1 42604.2 2399.39)
(-21235.3 39517 2399.47)
(-27774.4 35229.3 2399.43)
(-33470.1 29871.1 2399.44)
(-38148.6 23605.1 2399.42)
(-41667.9 16622.4 2399.41)
(-43921.5 9133.8 2399.45)
(-44840.2 1368.51 2399.45)
(-44396.6 -6438.86 2399.45)
(-42604.2 -14050.1 2399.39)
(-39517 -21235.3 2399.47)
(-35229.3 -27774.4 2399.43)
(-29871.1 -33470.1 2399.44)
(-23605.1 -38148.6 2399.42)
(-16622.4 -41667.9 2399.41)
(-9133.8 -43921.5 2399.45)
(-1368.51 -44840.2 2399.45)
(6438.86 -44396.6 2399.45)
(14050.1 -42604.2 2399.39)
(21235.3 -39517 2399.48)
(27774.4 -35229.3 2399.43)
(33470.1 -29871.1 2399.45)
(38148.6 -23605.1 2399.43)
(41667.9 -16622.4 2399.41)
(43921.5 -9133.8 2399.45)
(44840.2 -1368.51 2399.46)
(24461.8 6649.47 279.624)
(22935.6 10796 279.664)
(20712.4 14614.7 279.644)
(17859.9 17989.4 279.605)
(14464.7 20817.3 279.601)
(10629.9 23012.7 279.564)
(6472.36 24509.1 279.611)
(2118.02 25260.7 279.618)
(-2300.41 25244.8 279.678)
(-6649.47 24461.8 279.624)
(-10796 22935.6 279.664)
(-14614.7 20712.4 279.644)
(-17989.4 17859.9 279.605)
(-20817.3 14464.7 279.601)
(-23012.7 10629.9 279.564)
(-24509.1 6472.36 279.612)
(-25260.7 2118.02 279.619)
(-25244.8 -2300.41 279.678)
(-24461.8 -6649.47 279.624)
(-22935.6 -10796 279.664)
(-20712.4 -14614.7 279.644)
(-17859.9 -17989.4 279.605)
(-14464.7 -20817.3 279.601)
(-10629.9 -23012.7 279.564)
(-6472.36 -24509.1 279.612)
(-2118.02 -25260.7 279.619)
(2300.41 -25244.8 279.678)
(6649.47 -24461.8 279.624)
(10796 -22935.6 279.664)
(14614.7 -20712.4 279.644)
(17989.4 -17859.9 279.605)
(20817.3 -14464.7 279.601)
(23012.7 -10629.9 279.564)
(24509.1 -6472.36 279.611)
(25260.7 -2118.02 279.618)
(25244.8 2300.41 279.678)
(23224.3 9386.64 -845.994)
(21241.5 13276.8 -845.998)
(18613.2 16763.6 -846.009)
(15419.5 19741.1 -845.976)
(11757.3 22118.9 -845.981)
(7737.71 23824.5 -845.985)
(3483.11 24806.2 -845.998)
(-877.398 25034 -846.031)
(-5211.1 24501.3 -845.989)
(-9386.64 23224.3 -845.994)
(-13276.8 21241.5 -845.998)
(-16763.6 18613.2 -846.008)
(-19741.1 15419.5 -845.976)
(-22118.9 11757.3 -845.981)
(-23824.5 7737.71 -845.984)
(-24806.2 3483.11 -845.998)
(-25034 -877.397 -846.031)
(-24501.3 -5211.1 -845.989)
(-23224.3 -9386.64 -845.994)
(-21241.5 -13276.8 -845.998)
(-18613.2 -16763.6 -846.008)
(-15419.5 -19741.1 -845.976)
(-11757.3 -22118.9 -845.981)
(-7737.71 -23824.5 -845.984)
(-3483.11 -24806.2 -845.998)
(877.397 -25034 -846.031)
(5211.1 -24501.3 -845.989)
(9386.64 -23224.3 -845.994)
(13276.8 -21241.5 -845.998)
(16763.6 -18613.2 -846.008)
(19741.1 -15419.5 -845.976)
(22118.9 -11757.3 -845.981)
(23824.5 -7737.71 -845.984)
(24806.2 -3483.11 -845.999)
(25034 877.397 -846.031)
(24501.3 5211.1 -845.989)
(20433.9 11155.8 -1853.46)
(18186.3 14534.8 -1853.42)
(15386 17471.9 -1853.47)
(12118.3 19878.3 -1853.49)
(8482.43 21680.6 -1853.47)
(4588.75 22824.1 -1853.49)
(555.664 23274.3 -1853.47)
(-3494.28 23017.1 -1853.42)
(-7438.17 22060.6 -1853.49)
(-11155.8 20433.9 -1853.46)
(-14534.8 18186.3 -1853.42)
(-17471.9 15386 -1853.47)
(-19878.3 12118.3 -1853.49)
(-21680.6 8482.43 -1853.47)
(-22824.1 4588.75 -1853.49)
(-23274.3 555.664 -1853.47)
(-23017.1 -3494.28 -1853.42)
(-22060.6 -7438.17 -1853.49)
(-20433.9 -11155.8 -1853.46)
(-18186.3 -14534.8 -1853.42)
(-15386 -17471.9 -1853.47)
(-12118.3 -19878.3 -1853.49)
(-8482.44 -21680.6 -1853.47)
(-4588.75 -22824.1 -1853.49)
(-555.665 -23274.3 -1853.47)
(3494.28 -23017.1 -1853.42)
(7438.17 -22060.6 -1853.49)
(11155.8 -20433.9 -1853.46)
(14534.8 -18186.3 -1853.42)
(17471.9 -15386 -1853.47)
(19878.3 -12118.3 -1853.49)
(21680.6 -8482.44 -1853.47)
(22824.1 -4588.75 -1853.49)
(23274.3 -555.665 -1853.47)
(23017.1 3494.28 -1853.42)
(22060.6 7438.17 -1853.49)
(18256.3 12487.7 -2489.75)
(15810.3 15468.2 -2489.79)
(12884.2 17978.6 -2489.78)
(9566.46 19942.8 -2489.78)
(5958.07 21301 -2489.78)
(2168.7 22012.1 -2489.78)
(-1686.63 22054.3 -2489.79)
(-5490.63 21426.4 -2489.79)
(-9127.95 20147.3 -2489.78)
(-12487.7 18256.3 -2489.75)
(-15468.2 15810.3 -2489.79)
(-17978.6 12884.2 -2489.78)
(-19942.8 9566.46 -2489.78)
(-21301 5958.07 -2489.78)
(-22012.1 2168.7 -2489.78)
(-22054.3 -1686.63 -2489.79)
(-21426.4 -5490.63 -2489.79)
(-20147.3 -9127.95 -2489.78)
(-18256.3 -12487.7 -2489.75)
(-15810.3 -15468.2 -2489.79)
(-12884.2 -17978.6 -2489.78)
(-9566.46 -19942.8 -2489.78)
(-5958.08 -21301 -2489.78)
(-2168.7 -22012.1 -2489.78)
(1686.63 -22054.3 -2489.79)
(5490.63 -21426.4 -2489.79)
(9127.95 -20147.3 -2489.78)
(12487.7 -18256.3 -2489.75)
(15468.2 -15810.3 -2489.79)
(17978.6 -12884.2 -2489.78)
(19942.8 -9566.46 -2489.78)
(21301 -5958.07 -2489.78)
(22012.1 -2168.7 -2489.78)
(22054.3 1686.63 -2489.79)
(21426.4 5490.63 -2489.79)
(20147.3 9127.95 -2489.78)
(16100.5 13202.8 -2799.88)
(13563.1 15798.1 -2799.88)
(10613.9 17913.5 -2799.91)
(7342.01 19484.2 -2799.85)
(3847.08 20463.3 -2799.85)
(235.234 20820.5 -2799.88)
(-3383.71 20544.9 -2799.89)
(-6899.94 19645.3 -2799.91)
(-10206.5 18148.6 -2799.9)
(-13202.8 16100.5 -2799.88)
(-15798.1 13563.1 -2799.88)
(-17913.5 10613.9 -2799.91)
(-19484.2 7342.01 -2799.85)
(-20463.3 3847.08 -2799.85)
(-20820.5 235.234 -2799.88)
(-20544.9 -3383.71 -2799.89)
(-19645.3 -6899.94 -2799.91)
(-18148.6 -10206.5 -2799.9)
(-16100.5 -13202.8 -2799.88)
(-13563.1 -15798.1 -2799.88)
(-10613.9 -17913.5 -2799.91)
(-7342.01 -19484.2 -2799.85)
(-3847.08 -20463.3 -2799.85)
(-235.235 -20820.5 -2799.88)
(3383.71 -20544.9 -2799.89)
(6899.94 -19645.3 -2799.91)
(10206.5 -18148.6 -2799.9)
(13202.8 -16100.5 -2799.88)
(15798.1 -13563.1 -2799.88)
(17913.5 -10613.9 -2799.91)
(19484.2 -7342.01 -2799.85)
(20463.3 -3847.08 -2799.85)
(20820.5 -235.234 -2799.88)
(20544.9 3383.71 -2799.89)
(19645.3 6899.94 -2799.91)
(18148.6 10206.5 -2799.9)
(13813.2 13230.8 -2735.5)
(11305.7 15428.3 -2735.47)
(8454.97 17157.3 -2735.49)
(5347.11 18364.7 -2735.5)
(2076.9 19014.3 -2735.53)
(-1256.42 19086.1 -2735.52)
(-4551.62 18577.9 -2735.47)
(-7708.48 17505.4 -2735.51)
(-10631 15900.7 -2735.44)
(-13230.8 13813.2 -2735.5)
(-15428.3 11305.7 -2735.47)
(-17157.3 8454.97 -2735.49)
(-18364.7 5347.11 -2735.5)
(-19014.3 2076.9 -2735.53)
(-19086.1 -1256.42 -2735.51)
(-18577.9 -4551.62 -2735.47)
(-17505.4 -7708.48 -2735.51)
(-15900.7 -10631 -2735.44)
(-13813.2 -13230.8 -2735.5)
(-11305.7 -15428.3 -2735.47)
(-8454.97 -17157.3 -2735.49)
(-5347.11 -18364.7 -2735.5)
(-2076.9 -19014.3 -2735.53)
(1256.42 -19086.1 -2735.52)
(4551.62 -18577.9 -2735.47)
(7708.48 -17505.4 -2735.51)
(10631 -15900.7 -2735.45)
(13230.8 -13813.2 -2735.5)
(15428.3 -11305.7 -2735.47)
(17157.3 -8454.97 -2735.49)
(18364.7 -5347.11 -2735.5)
(19014.3 -2076.9 -2735.53)
(19086.1 1256.42 -2735.52)
(18577.9 4551.62 -2735.47)
(17505.4 7708.48 -2735.51)
(15900.7 10631 -2735.45)
(11267.9 12394 -2169.7)
(8944.38 14162.3 -2169.67)
(6349.33 15500.3 -2169.59)
(3561.2 16367.4 -2169.62)
(664.978 16737.2 -2169.65)
(-2251.47 16598.4 -2169.65)
(-5099.62 15955.3 -2169.63)
(-7792.67 14827.3 -2169.69)
(-10249.1 13248.8 -2169.68)
(-12394 11267.9 -2169.7)
(-14162.3 8944.38 -2169.67)
(-15500.3 6349.33 -2169.59)
(-16367.4 3561.2 -2169.62)
(-16737.2 664.978 -2169.65)
(-16598.4 -2251.47 -2169.65)
(-15955.3 -5099.62 -2169.63)
(-14827.3 -7792.67 -2169.69)
(-13248.8 -10249.1 -2169.68)
(-11267.9 -12394 -2169.7)
(-8944.38 -14162.3 -2169.67)
(-6349.33 -15500.3 -2169.59)
(-3561.2 -16367.4 -2169.62)
(-664.978 -16737.2 -2169.65)
(2251.47 -16598.4 -2169.65)
(5099.62 -15955.3 -2169.63)
(7792.67 -14827.3 -2169.69)
(10249.1 -13248.8 -2169.68)
(12394 -11267.9 -2169.7)
(14162.3 -8944.38 -2169.67)
(15500.3 -6349.33 -2169.59)
(16367.4 -3561.2 -2169.62)
(16737.2 -664.978 -2169.65)
(16598.4 2251.47 -2169.65)
(15955.3 5099.62 -2169.63)
(14827.3 7792.67 -2169.69)
(13248.8 10249.1 -2169.68)
(8531.35 10549.8 -924.338)
(6569.77 11871.2 -924.402)
(4408.54 12831.6 -924.403)
(2113.42 13402.3 -924.423)
(-245.93 13565.7 -924.369)
(-2597.85 13316.8 -924.407)
(-4870.84 12663.4 -924.41)
(-6995.77 11625.1 -924.387)
(-8908.34 10233.9 -924.408)
(-10549.8 8531.35 -924.337)
(-11871.2 6569.77 -924.402)
(-12831.6 4408.54 -924.402)
(-13402.3 2113.42 -924.422)
(-13565.7 -245.929 -924.368)
(-13316.8 -2597.85 -924.406)
(-12663.4 -4870.84 -924.41)
(-11625.1 -6995.77 -924.387)
(-10233.9 -8908.35 -924.408)
(-8531.36 -10549.8 -924.337)
(-6569.78 -11871.2 -924.402)
(-4408.54 -12831.6 -924.403)
(-2113.43 -13402.3 -924.423)
(245.929 -13565.7 -924.369)
(2597.85 -13316.8 -924.408)
(4870.84 -12663.4 -924.411)
(6995.77 -11625.1 -924.389)
(8908.35 -10233.9 -924.41)
(10549.8 -8531.36 -924.339)
(11871.2 -6569.78 -924.404)
(12831.6 -4408.54 -924.404)
(13402.3 -2113.42 -924.424)
(13565.7 245.929 -924.37)
(13316.8 2597.85 -924.408)
(12663.4 4870.84 -924.412)
(11625.1 6995.77 -924.389)
(10233.9 8908.35 -924.41)
(5955.81 7798.5 1092.75)
(4511.2 8714.35 1092.79)
(2929.37 9365.31 1092.75)
(1258.61 9731.76 1092.67)
(-450.457 9802.35 1092.66)
(-2145.75 9575.18 1092.77)
(-3775.81 9057.1 1092.8)
(-5291.24 8263.93 1092.82)
(-6645.97 7219.62 1092.71)
(-7798.5 5955.81 1092.75)
(-8714.35 4511.21 1092.79)
(-9365.31 2929.37 1092.75)
(-9731.76 1258.61 1092.67)
(-9802.35 -450.456 1092.66)
(-9575.18 -2145.75 1092.77)
(-9057.1 -3775.81 1092.8)
(-8263.94 -5291.24 1092.82)
(-7219.62 -6645.97 1092.71)
(-5955.81 -7798.5 1092.75)
(-4511.21 -8714.35 1092.79)
(-2929.37 -9365.32 1092.75)
(-1258.61 -9731.76 1092.67)
(450.456 -9802.35 1092.66)
(2145.75 -9575.19 1092.77)
(3775.81 -9057.11 1092.79)
(5291.24 -8263.94 1092.82)
(6645.97 -7219.62 1092.7)
(7798.5 -5955.81 1092.75)
(8714.36 -4511.21 1092.79)
(9365.32 -2929.37 1092.75)
(9731.76 -1258.61 1092.67)
(9802.35 450.457 1092.66)
(9575.19 2145.75 1092.77)
(9057.1 3775.81 1092.79)
(8263.94 5291.24 1092.82)
(7219.62 6645.97 1092.7)
(4236.18 4706.82 3593.94)
(3354.59 5371.04 3593.91)
(2370.92 5871.89 3593.98)
(1315.31 6194.47 3593.92)
(219.668 6328.73 3593.98)
(-882.664 6270.72 3593.98)
(-1958.18 6022.21 3593.87)
(-2974.13 5590.56 3593.94)
(-3899.78 4989.23 3593.9)
(-4706.82 4236.18 3593.95)
(-5371.04 3354.6 3593.9)
(-5871.89 2370.92 3593.98)
(-6194.47 1315.31 3593.92)
(-6328.73 219.669 3593.98)
(-6270.72 -882.664 3593.98)
(-6022.21 -1958.18 3593.87)
(-5590.56 -2974.13 3593.94)
(-4989.23 -3899.78 3593.9)
(-4236.18 -4706.82 3593.94)
(-3354.6 -5371.04 3593.9)
(-2370.92 -5871.89 3593.97)
(-1315.31 -6194.48 3593.92)
(-219.669 -6328.74 3593.97)
(882.665 -6270.72 3593.97)
(1958.18 -6022.21 3593.86)
(2974.13 -5590.56 3593.94)
(3899.79 -4989.23 3593.9)
(4706.82 -4236.18 3593.94)
(5371.04 -3354.6 3593.9)
(5871.89 -2370.92 3593.97)
(6194.48 -1315.31 3593.92)
(6328.74 -219.668 3593.97)
(6270.72 882.665 3593.97)
(6022.21 1958.18 3593.86)
(5590.56 2974.13 3593.94)
(4989.23 3899.78 3593.9)
(4176.24 2255.28 5463.67)
(3721.23 2946.28 5463.52)
(3153.06 3547.7 5463.58)
(2489.13 4041.34 5463.56)
(1749.53 4412.14 5463.58)
(956.789 4648.95 5463.55)
(134.982 4744.31 5463.56)
(-690.899 4695.64 5463.69)
(-1495.77 4504.31 5463.65)
(-2255.28 4176.24 5463.67)
(-2946.28 3721.23 5463.52)
(-3547.71 3153.07 5463.58)
(-4041.34 2489.13 5463.56)
(-4412.15 1749.53 5463.58)
(-4648.95 956.789 5463.55)
(-4744.31 134.982 5463.56)
(-4695.65 -690.9 5463.69)
(-4504.32 -1495.77 5463.65)
(-4176.24 -2255.28 5463.67)
(-3721.23 -2946.28 5463.51)
(-3153.07 -3547.71 5463.57)
(-2489.13 -4041.34 5463.56)
(-1749.53 -4412.15 5463.58)
(-956.788 -4648.95 5463.55)
(-134.98 -4744.31 5463.56)
(690.9 -4695.64 5463.69)
(1495.77 -4504.31 5463.65)
(2255.28 -4176.24 5463.67)
(2946.28 -3721.23 5463.51)
(3547.71 -3153.06 5463.57)
(4041.34 -2489.13 5463.56)
(4412.15 -1749.53 5463.58)
(4648.95 -956.788 5463.55)
(4744.31 -134.981 5463.56)
(4695.64 690.9 5463.69)
(4504.32 1495.77 5463.65)
(6456.3 1782.26 3412.55)
(6048.85 2876.48 3412.27)
(5457.47 3883.16 3412.34)
(4700.25 4771.88 3412.34)
(3800.23 5515.52 3412.41)
(2784.74 6091.6 3412.43)
(1684.63 6482.54 3412.34)
(533.415 6676.42 3412.62)
(-634.045 6667.62 3412.57)
(-1782.26 6456.3 3412.55)
(-2876.48 6048.85 3412.27)
(-3883.16 5457.47 3412.33)
(-4771.88 4700.25 3412.34)
(-5515.52 3800.23 3412.41)
(-6091.61 2784.74 3412.43)
(-6482.54 1684.63 3412.34)
(-6676.42 533.414 3412.62)
(-6667.62 -634.046 3412.57)
(-6456.3 -1782.26 3412.55)
(-6048.85 -2876.48 3412.27)
(-5457.47 -3883.16 3412.33)
(-4700.25 -4771.88 3412.34)
(-3800.23 -5515.52 3412.41)
(-2784.74 -6091.61 3412.42)
(-1684.62 -6482.54 3412.34)
(-533.413 -6676.42 3412.62)
(634.045 -6667.62 3412.57)
(1782.26 -6456.29 3412.55)
(2876.48 -6048.85 3412.27)
(3883.16 -5457.47 3412.33)
(4771.88 -4700.25 3412.34)
(5515.52 -3800.23 3412.41)
(6091.61 -2784.74 3412.42)
(6482.55 -1684.62 3412.34)
(6676.42 -533.412 3412.62)
(6667.62 634.047 3412.57)
(8465.85 2189.79 -5105.92)
(7957.19 3626.9 -5106.14)
(7206.47 4953.47 -5106.25)
(6236.81 6129.64 -5106.01)
(5077.71 7119.57 -5106.05)
(3764.28 7893.11 -5106.17)
(2336.42 8426.82 -5106)
(837.774 8704.16 -5105.71)
(-686.536 8717.61 -5105.64)
(-2189.79 8465.84 -5105.91)
(-3626.9 7957.19 -5106.13)
(-4953.47 7206.46 -5106.25)
(-6129.64 6236.81 -5106.01)
(-7119.57 5077.71 -5106.05)
(-7893.12 3764.27 -5106.17)
(-8426.82 2336.42 -5106)
(-8704.16 837.773 -5105.71)
(-8717.61 -686.538 -5105.64)
(-8465.84 -2189.79 -5105.91)
(-7957.19 -3626.9 -5106.13)
(-7206.46 -4953.47 -5106.24)
(-6236.81 -6129.65 -5106.01)
(-5077.71 -7119.57 -5106.05)
(-3764.27 -7893.12 -5106.16)
(-2336.43 -8426.83 -5105.98)
(-837.773 -8704.16 -5105.71)
(686.536 -8717.61 -5105.64)
(2189.79 -8465.84 -5105.9)
(3626.9 -7957.18 -5106.12)
(4953.46 -7206.46 -5106.24)
(6129.64 -6236.81 -5106)
(7119.56 -5077.71 -5106.04)
(7893.11 -3764.27 -5106.16)
(8426.82 -2336.42 -5106)
(8704.16 -837.771 -5105.72)
(8717.62 686.54 -5105.65)
(15019.3 8166.08 -55099.5)
(13373 10650.3 -55098.6)
(11321 12811 -55101)
(8923.35 14581.4 -55099.4)
(6256.99 15910.8 -55099.6)
(3398.36 16754 -55099.6)
(437.357 17090.7 -55100.4)
(-2536.5 16906.5 -55098.3)
(-5434.2 16209.1 -55099.4)
(-8166.07 15019.3 -55099.5)
(-10650.3 13373 -55098.6)
(-12811 11321 -55101)
(-14581.4 8923.35 -55099.4)
(-15910.8 6256.99 -55099.6)
(-16754 3398.35 -55099.6)
(-17090.7 437.354 -55100.4)
(-16906.5 -2536.51 -55098.3)
(-16209.1 -5434.21 -55099.4)
(-15019.3 -8166.08 -55099.5)
(-13373 -10650.3 -55098.6)
(-11321 -12811 -55101)
(-8923.35 -14581.4 -55099.4)
(-6256.99 -15910.9 -55099.6)
(-3398.35 -16754 -55099.6)
(-437.347 -17090.7 -55100.4)
(2536.51 -16906.5 -55098.3)
(5434.22 -16209.1 -55099.4)
(8166.08 -15019.3 -55099.5)
(10650.3 -13373 -55098.6)
(12811 -11321 -55101)
(14581.4 -8923.34 -55099.4)
(15910.8 -6256.98 -55099.6)
(16754 -3398.35 -55099.6)
(17090.7 -437.347 -55100.4)
(16906.5 2536.51 -55098.3)
(16209.1 5434.21 -55099.4)
)
;
    }
    outside
    {
        type            calculated;
        value           nonuniform List<vector> 
540
(
(-6511.11 -964.708 6104.87)
(-6244.61 -2080.7 6104.96)
(-5788.43 -3133.43 6104.86)
(-5156.51 -4091.07 6104.94)
(-4367.77 -4924.36 6105.04)
(-3446.26 -5607.94 6104.99)
(-2420.11 -6121.17 6104.84)
(-1320.42 -6448.42 6104.89)
(-180.589 -6579.72 6104.88)
(964.708 -6511.1 6104.87)
(2080.7 -6244.61 6104.96)
(3133.43 -5788.43 6104.86)
(4091.07 -5156.51 6104.94)
(4924.36 -4367.77 6105.04)
(5607.94 -3446.26 6104.99)
(6121.17 -2420.11 6104.84)
(6448.42 -1320.42 6104.89)
(6579.72 -180.589 6104.88)
(6511.1 964.708 6104.87)
(6244.61 2080.7 6104.96)
(5788.43 3133.43 6104.86)
(5156.51 4091.07 6104.94)
(4367.77 4924.36 6105.04)
(3446.26 5607.94 6104.99)
(2420.11 6121.18 6104.84)
(1320.42 6448.42 6104.89)
(180.589 6579.72 6104.88)
(-964.708 6511.11 6104.87)
(-2080.7 6244.61 6104.96)
(-3133.43 5788.43 6104.86)
(-4091.07 5156.51 6104.94)
(-4924.36 4367.77 6105.04)
(-5607.94 3446.26 6104.99)
(-6121.18 2420.11 6104.84)
(-6448.42 1320.42 6104.89)
(-6579.72 180.589 6104.88)
(7484.86 756.802 6372.57)
(7239.64 2045.04 6372.8)
(6774.64 3271.17 6372.82)
(6103.71 4397.87 6372.68)
(5247.31 5391 6372.53)
(4231.44 6220.28 6372.76)
(3086.97 6860.35 6372.78)
(1848.81 7292.28 6372.76)
(554.387 7502.59 6372.65)
(-756.802 7484.86 6372.57)
(-2045.04 7239.64 6372.8)
(-3271.17 6774.64 6372.82)
(-4397.86 6103.71 6372.68)
(-5391 5247.31 6372.53)
(-6220.28 4231.44 6372.75)
(-6860.35 3086.97 6372.77)
(-7292.28 1848.81 6372.76)
(-7502.59 554.387 6372.65)
(-7484.86 -756.802 6372.57)
(-7239.64 -2045.04 6372.8)
(-6774.64 -3271.17 6372.82)
(-6103.71 -4397.86 6372.68)
(-5247.31 -5391 6372.53)
(-4231.44 -6220.28 6372.75)
(-3086.97 -6860.35 6372.77)
(-1848.81 -7292.28 6372.76)
(-554.387 -7502.59 6372.65)
(756.802 -7484.86 6372.57)
(2045.04 -7239.64 6372.8)
(3271.17 -6774.64 6372.82)
(4397.86 -6103.71 6372.68)
(5391 -5247.31 6372.53)
(6220.28 -4231.44 6372.76)
(6860.35 -3086.97 6372.78)
(7292.28 -1848.81 6372.76)
(7502.59 -554.387 6372.65)
(4848.93 -90.058 3486.71)
(4790.8 753.29 3486.51)
(4587.27 1573.82 3486.57)
(4244.27 2346.45 3486.45)
(3772.4 3047.9 3486.38)
(3185.83 3656.66 3486.45)
(2502.42 4154.14 3486.48)
(1743.04 4525.69 3486.52)
(930.69 4759.47 3486.76)
(90.058 4848.93 3486.71)
(-753.29 4790.8 3486.5)
(-1573.82 4587.27 3486.57)
(-2346.45 4244.27 3486.45)
(-3047.9 3772.4 3486.38)
(-3656.66 3185.83 3486.45)
(-4154.14 2502.42 3486.48)
(-4525.69 1743.04 3486.52)
(-4759.47 930.69 3486.76)
(-4848.93 90.0579 3486.71)
(-4790.8 -753.29 3486.5)
(-4587.27 -1573.82 3486.57)
(-4244.27 -2346.45 3486.45)
(-3772.4 -3047.9 3486.38)
(-3185.83 -3656.66 3486.45)
(-2502.42 -4154.14 3486.48)
(-1743.04 -4525.69 3486.52)
(-930.69 -4759.47 3486.76)
(-90.058 -4848.93 3486.71)
(753.29 -4790.8 3486.5)
(1573.82 -4587.27 3486.57)
(2346.45 -4244.27 3486.45)
(3047.9 -3772.4 3486.38)
(3656.66 -3185.83 3486.45)
(4154.14 -2502.42 3486.48)
(4525.69 -1743.04 3486.52)
(4759.47 -930.69 3486.76)
(4455.1 -606.685 1699.09)
(4492.76 176.177 1699.1)
(4393.86 953.619 1699.15)
(4161.6 1702.19 1699.2)
(3802.83 2399.02 1699.4)
(3328.45 3022.89 1699.19)
(2752.98 3555.02 1699.11)
(2093.83 3978.89 1699.05)
(1371.07 4282.1 1699.15)
(606.685 4455.1 1699.09)
(-176.177 4492.76 1699.1)
(-953.619 4393.86 1699.15)
(-1702.19 4161.6 1699.2)
(-2399.02 3802.83 1699.4)
(-3022.89 3328.45 1699.19)
(-3555.02 2752.98 1699.11)
(-3978.89 2093.83 1699.05)
(-4282.1 1371.07 1699.15)
(-4455.1 606.685 1699.09)
(-4492.76 -176.177 1699.1)
(-4393.86 -953.619 1699.15)
(-4161.6 -1702.19 1699.2)
(-3802.83 -2399.02 1699.4)
(-3328.45 -3022.89 1699.19)
(-2752.98 -3555.02 1699.11)
(-2093.83 -3978.89 1699.05)
(-1371.07 -4282.1 1699.15)
(-606.685 -4455.1 1699.09)
(176.177 -4492.76 1699.1)
(953.619 -4393.86 1699.15)
(1702.19 -4161.6 1699.2)
(2399.02 -3802.83 1699.4)
(3022.89 -3328.45 1699.19)
(3555.02 -2752.98 1699.11)
(3978.89 -2093.83 1699.05)
(4282.1 -1371.07 1699.15)
(3608.41 -1145.49 311.467)
(3752.58 -501.426 311.544)
(3782.52 157.696 311.599)
(3697.73 812.212 311.48)
(3500.49 1441.91 311.572)
(3196.92 2027.88 311.515)
(2796.26 2552.39 311.599)
(2310.56 2998.94 311.488)
(1754.67 3354.69 311.527)
(1145.49 3608.41 311.466)
(501.426 3752.58 311.543)
(-157.696 3782.52 311.598)
(-812.212 3697.73 311.479)
(-1441.91 3500.49 311.571)
(-2027.88 3196.92 311.513)
(-2552.39 2796.26 311.598)
(-2998.94 2310.56 311.487)
(-3354.69 1754.67 311.526)
(-3608.41 1145.49 311.466)
(-3752.58 501.426 311.542)
(-3782.52 -157.696 311.598)
(-3697.73 -812.213 311.478)
(-3500.49 -1441.91 311.571)
(-3196.92 -2027.88 311.514)
(-2796.26 -2552.39 311.599)
(-2310.56 -2998.94 311.487)
(-1754.67 -3354.69 311.527)
(-1145.49 -3608.41 311.467)
(-501.426 -3752.58 311.543)
(157.696 -3782.52 311.599)
(812.213 -3697.73 311.479)
(1441.91 -3500.49 311.572)
(2027.88 -3196.92 311.515)
(2552.39 -2796.26 311.6)
(2998.94 -2310.56 311.488)
(3354.69 -1754.67 311.528)
(2517.56 -1684.57 -679.914)
(2771.93 -1221.75 -679.763)
(2941.88 -721.92 -679.771)
(3022.59 -200.025 -679.937)
(3011.37 327.807 -679.993)
(2908.7 845.752 -679.89)
(2717.68 1338.05 -679.789)
(2444.04 1789.53 -679.746)
(2096.12 2186.85 -679.886)
(1684.57 2517.56 -679.915)
(1221.75 2771.93 -679.764)
(721.92 2941.88 -679.773)
(200.025 3022.59 -679.938)
(-327.807 3011.36 -679.994)
(-845.752 2908.7 -679.891)
(-1338.05 2717.68 -679.79)
(-1789.53 2444.04 -679.747)
(-2186.85 2096.12 -679.887)
(-2517.56 1684.57 -679.916)
(-2771.93 1221.75 -679.765)
(-2941.88 721.92 -679.773)
(-3022.59 200.025 -679.939)
(-3011.37 -327.807 -679.994)
(-2908.7 -845.753 -679.891)
(-2717.68 -1338.05 -679.79)
(-2444.04 -1789.53 -679.747)
(-2096.12 -2186.85 -679.886)
(-1684.57 -2517.56 -679.915)
(-1221.75 -2771.93 -679.764)
(-721.92 -2941.88 -679.772)
(-200.025 -3022.59 -679.937)
(327.807 -3011.37 -679.993)
(845.752 -2908.7 -679.89)
(1338.05 -2717.68 -679.789)
(1789.53 -2444.04 -679.745)
(2186.85 -2096.12 -679.885)
(1033.35 -2402.64 -1267.81)
(1434.91 -2186.66 -1267.89)
(1792.67 -1904.43 -1267.81)
(2096.3 -1563.95 -1267.91)
(2335.95 -1176.33 -1267.97)
(2504.72 -752.942 -1267.84)
(2597.43 -306.358 -1267.87)
(2611.18 149.136 -1267.83)
(2545.59 600.422 -1267.8)
(2402.64 1033.35 -1267.82)
(2186.66 1434.91 -1267.89)
(1904.43 1792.67 -1267.81)
(1563.95 2096.3 -1267.91)
(1176.33 2335.95 -1267.97)
(752.942 2504.72 -1267.84)
(306.358 2597.43 -1267.87)
(-149.136 2611.18 -1267.83)
(-600.422 2545.59 -1267.8)
(-1033.35 2402.64 -1267.82)
(-1434.91 2186.66 -1267.89)
(-1792.67 1904.43 -1267.81)
(-2096.3 1563.95 -1267.91)
(-2335.95 1176.33 -1267.98)
(-2504.72 752.941 -1267.84)
(-2597.43 306.357 -1267.87)
(-2611.18 -149.137 -1267.83)
(-2545.59 -600.422 -1267.8)
(-2402.64 -1033.36 -1267.82)
(-2186.66 -1434.91 -1267.89)
(-1904.43 -1792.67 -1267.81)
(-1563.95 -2096.3 -1267.91)
(-1176.33 -2335.95 -1267.97)
(-752.941 -2504.72 -1267.84)
(-306.357 -2597.43 -1267.87)
(149.137 -2611.18 -1267.82)
(600.422 -2545.59 -1267.8)
(-834.967 -3394.24 -1450.92)
(-232.893 -3487.71 -1450.72)
(376.232 -3475.2 -1450.79)
(974.088 -3356.94 -1450.69)
(1542.17 -3136.92 -1450.62)
(2063.46 -2821.47 -1450.65)
(2522.04 -2420.3 -1450.79)
(2904.02 -1945.6 -1450.69)
(3197.73 -1411.83 -1450.88)
(3394.24 -834.968 -1450.92)
(3487.71 -232.893 -1450.73)
(3475.2 376.232 -1450.79)
(3356.94 974.087 -1450.69)
(3136.92 1542.17 -1450.62)
(2821.47 2063.46 -1450.65)
(2420.3 2522.04 -1450.8)
(1945.6 2904.02 -1450.69)
(1411.83 3197.73 -1450.88)
(834.967 3394.24 -1450.93)
(232.893 3487.71 -1450.73)
(-376.232 3475.2 -1450.79)
(-974.088 3356.94 -1450.69)
(-1542.17 3136.92 -1450.62)
(-2063.46 2821.47 -1450.65)
(-2522.04 2420.3 -1450.8)
(-2904.02 1945.6 -1450.69)
(-3197.73 1411.83 -1450.88)
(-3394.24 834.967 -1450.92)
(-3487.71 232.892 -1450.72)
(-3475.2 -376.233 -1450.79)
(-3356.94 -974.088 -1450.69)
(-3136.92 -1542.17 -1450.62)
(-2821.47 -2063.46 -1450.65)
(-2420.3 -2522.04 -1450.79)
(-1945.6 -2904.02 -1450.69)
(-1411.83 -3197.73 -1450.88)
(-2989.55 -4600.88 -1220.21)
(-2145.18 -5050.08 -1220.22)
(-1235.63 -5345.82 -1220.35)
(-288.589 -5479.2 -1220.34)
(667.232 -5446.13 -1220.31)
(1602.8 -5247.56 -1220.3)
(2489.68 -4889.52 -1220.3)
(3300.93 -4382.81 -1220.21)
(4011.81 -3742.97 -1220.27)
(4600.88 -2989.55 -1220.21)
(5050.08 -2145.18 -1220.22)
(5345.82 -1235.63 -1220.35)
(5479.2 -288.59 -1220.34)
(5446.13 667.232 -1220.31)
(5247.56 1602.8 -1220.3)
(4889.52 2489.68 -1220.3)
(4382.81 3300.93 -1220.21)
(3742.97 4011.81 -1220.27)
(2989.55 4600.88 -1220.21)
(2145.18 5050.08 -1220.22)
(1235.63 5345.82 -1220.35)
(288.59 5479.2 -1220.34)
(-667.232 5446.13 -1220.31)
(-1602.8 5247.56 -1220.3)
(-2489.68 4889.52 -1220.3)
(-3300.93 4382.81 -1220.21)
(-4011.81 3742.97 -1220.27)
(-4600.88 2989.55 -1220.21)
(-5050.08 2145.18 -1220.22)
(-5345.82 1235.63 -1220.35)
(-5479.2 288.589 -1220.34)
(-5446.13 -667.232 -1220.31)
(-5247.56 -1602.8 -1220.3)
(-4889.52 -2489.68 -1220.3)
(-4382.81 -3300.93 -1220.21)
(-3742.97 -4011.81 -1220.27)
(-5211.52 -5701.59 -533.892)
(-4142.36 -6519.97 -533.985)
(-2947.16 -7140.17 -533.974)
(-1662.43 -7543.37 -533.976)
(-327.325 -7717.53 -533.952)
(1017.78 -7657.15 -533.903)
(2331.97 -7364.15 -533.932)
(3575.28 -6847.22 -534.055)
(4709.97 -6122.33 -533.929)
(5701.59 -5211.52 -533.893)
(6519.97 -4142.36 -533.986)
(7140.17 -2947.16 -533.976)
(7543.37 -1662.44 -533.977)
(7717.53 -327.326 -533.953)
(7657.15 1017.78 -533.904)
(7364.15 2331.97 -533.934)
(6847.22 3575.27 -534.057)
(6122.33 4709.97 -533.93)
(5211.52 5701.59 -533.894)
(4142.36 6519.97 -533.987)
(2947.16 7140.17 -533.976)
(1662.43 7543.37 -533.978)
(327.325 7717.52 -533.953)
(-1017.78 7657.15 -533.904)
(-2331.97 7364.15 -533.933)
(-3575.28 6847.22 -534.056)
(-4709.97 6122.33 -533.929)
(-5701.59 5211.52 -533.892)
(-6519.97 4142.36 -533.985)
(-7140.17 2947.16 -533.974)
(-7543.37 1662.43 -533.976)
(-7717.52 327.325 -533.952)
(-7657.15 -1017.78 -533.903)
(-7364.15 -2331.97 -533.932)
(-6847.22 -3575.28 -534.056)
(-6122.33 -4709.97 -533.929)
(-7070.3 -6031.04 700.947)
(-5915.7 -7167.19 700.79)
(-4581.16 -8085.46 700.852)
(-3107.55 -8758.18 700.866)
(-1539.51 -9164.75 700.848)
(75.314 -9292.84 700.899)
(1687.86 -9138.55 700.827)
(3249.18 -8706.72 700.875)
(4711.72 -8010.17 701.032)
(6031.04 -7070.3 700.948)
(7167.19 -5915.71 700.789)
(8085.46 -4581.16 700.85)
(8758.18 -3107.55 700.864)
(9164.75 -1539.51 700.845)
(9292.84 75.3129 700.897)
(9138.55 1687.86 700.825)
(8706.72 3249.17 700.873)
(8010.17 4711.72 701.031)
(7070.3 6031.04 700.946)
(5915.7 7167.19 700.788)
(4581.16 8085.45 700.85)
(3107.55 8758.17 700.863)
(1539.51 9164.75 700.846)
(-75.3138 9292.84 700.897)
(-1687.86 9138.55 700.826)
(-3249.18 8706.72 700.875)
(-4711.72 8010.16 701.033)
(-6031.04 7070.3 700.949)
(-7167.19 5915.7 700.79)
(-8085.46 4581.16 700.852)
(-8758.18 3107.55 700.866)
(-9164.75 1539.51 700.847)
(-9292.84 -75.314 700.898)
(-9138.55 -1687.86 700.826)
(-8706.72 -3249.17 700.874)
(-8010.16 -4711.72 701.032)
(-7561.52 -4742.39 2412.15)
(-6623.06 -5983.3 2412.05)
(-5483.35 -7042.41 2412.13)
(-4177.28 -7887.72 2412.1)
(-2744.11 -8493.22 2412.1)
(-1227.58 -8840.68 2412.12)
(326.26 -8919.39 2412.2)
(1870.18 -8727.44 2412.13)
(3357.38 -8270.19 2412.4)
(4742.39 -7561.52 2412.16)
(5983.3 -6623.06 2412.05)
(7042.41 -5483.35 2412.13)
(7887.72 -4177.28 2412.1)