/*--------------------------------*- C++ -*----------------------------------*\
| =========                 |                                                 |
| \\      /  F ield         | OpenFOAM: The Open Source CFD Toolbox           |
|  \\    /   O peration     | Version:  2312                                  |
|   \\  /    A nd           | Website:  www.openfoam.com                      |
|    \\/     M anipulation  |                                                 |
\*---------------------------------------------------------------------------*/
FoamFile
{
    version     2.0;
    format      ascii;
    arch        "LSB;label=32;scalar=64";
    class       volVectorField;
    location    "0.7";
    object      U;
}
// * * * * * * * * * * * * * * * * * * * * * * * * * * * * * * * * * * * * * //

dimensions      [0 1 -1 0 0 0 0];

internalField   nonuniform List<vector> 
1620
(
(6.03151e-05 9.95882e-05 -4.69784e-06)
(4.21055e-05 0.000108549 -4.69828e-06)
(2.26166e-05 0.000114211 -4.69817e-06)
(2.44084e-06 0.000116403 -4.69752e-06)
(-1.78095e-05 0.000115059 -4.69743e-06)
(-3.75191e-05 0.000110219 -4.69775e-06)
(-5.60885e-05 0.000102029 -4.69729e-06)
(-7.29536e-05 9.0739e-05 -4.69716e-06)
(-8.76017e-05 7.66921e-05 -4.6977e-06)
(-9.95881e-05 6.03151e-05 -4.69784e-06)
(-0.000108549 4.21055e-05 -4.69829e-06)
(-0.000114211 2.26166e-05 -4.69818e-06)
(-0.000116403 2.44085e-06 -4.69752e-06)
(-0.000115059 -1.78095e-05 -4.69743e-06)
(-0.000110219 -3.75191e-05 -4.69775e-06)
(-0.000102029 -5.60885e-05 -4.69729e-06)
(-9.0739e-05 -7.29536e-05 -4.69716e-06)
(-7.66921e-05 -8.76017e-05 -4.6977e-06)
(-6.03151e-05 -9.95881e-05 -4.69784e-06)
(-4.21054e-05 -0.000108548 -4.69828e-06)
(-2.26166e-05 -0.000114211 -4.69817e-06)
(-2.44084e-06 -0.000116403 -4.69751e-06)
(1.78095e-05 -0.000115059 -4.69742e-06)
(3.75191e-05 -0.000110219 -4.69774e-06)
(5.60885e-05 -0.000102029 -4.69728e-06)
(7.29536e-05 -9.0739e-05 -4.69715e-06)
(8.76017e-05 -7.66921e-05 -4.69769e-06)
(9.95882e-05 -6.03151e-05 -4.69783e-06)
(0.000108549 -4.21054e-05 -4.69827e-06)
(0.000114211 -2.26166e-05 -4.69817e-06)
(0.000116403 -2.44083e-06 -4.69751e-06)
(0.000115059 1.78095e-05 -4.69742e-06)
(0.000110219 3.75191e-05 -4.69774e-06)
(0.000102029 5.60885e-05 -4.69728e-06)
(9.0739e-05 7.29536e-05 -4.69716e-06)
(7.66921e-05 8.76017e-05 -4.6977e-06)
(2.58594e-05 0.000166301 5.31618e-05)
(-3.41122e-06 0.000168265 5.31617e-05)
(-3.2578e-05 0.000165116 5.31617e-05)
(-6.0755e-05 0.00015695 5.31621e-05)
(-8.70866e-05 0.000144016 5.31622e-05)
(-0.000110772 0.000126706 5.3162e-05)
(-0.000131091 0.000105545 5.31621e-05)
(-0.000147428 8.11782e-05 5.31621e-05)
(-0.000159284 5.43444e-05 5.31618e-05)
(-0.000166301 2.58594e-05 5.31618e-05)
(-0.000168265 -3.41121e-06 5.31617e-05)
(-0.000165116 -3.2578e-05 5.31617e-05)
(-0.00015695 -6.0755e-05 5.3162e-05)
(-0.000144016 -8.70866e-05 5.31622e-05)
(-0.000126706 -0.000110772 5.3162e-05)
(-0.000105545 -0.000131091 5.3162e-05)
(-8.11782e-05 -0.000147428 5.3162e-05)
(-5.43443e-05 -0.000159284 5.31618e-05)
(-2.58594e-05 -0.000166301 5.31618e-05)
(3.41122e-06 -0.000168265 5.31617e-05)
(3.2578e-05 -0.000165116 5.31617e-05)
(6.0755e-05 -0.00015695 5.3162e-05)
(8.70866e-05 -0.000144016 5.31622e-05)
(0.000110772 -0.000126706 5.3162e-05)
(0.000131091 -0.000105545 5.31621e-05)
(0.000147428 -8.11782e-05 5.31621e-05)
(0.000159284 -5.43443e-05 5.31618e-05)
(0.000166301 -2.58594e-05 5.31618e-05)
(0.000168265 3.41123e-06 5.31617e-05)
(0.000165116 3.2578e-05 5.31617e-05)
(0.00015695 6.0755e-05 5.31621e-05)
(0.000144016 8.70866e-05 5.31622e-05)
(0.000126706 0.000110772 5.3162e-05)
(0.000105545 0.000131091 5.31621e-05)
(8.11782e-05 0.000147428 5.31621e-05)
(5.43443e-05 0.000159284 5.31618e-05)
(-5.07681e-05 0.000214233 8.84343e-05)
(-8.71979e-05 0.000202163 8.84345e-05)
(-0.000120978 0.00018395 8.84344e-05)
(-0.000151083 0.000160147 8.84344e-05)
(-0.000176597 0.000131479 8.84347e-05)
(-0.000196745 9.88156e-05 8.84347e-05)
(-0.000210916 6.31499e-05 8.84346e-05)
(-0.000218677 2.55654e-05 8.84342e-05)
(-0.000219794 -1.27957e-05 8.84343e-05)
(-0.000214233 -5.0768e-05 8.84343e-05)
(-0.000202163 -8.71978e-05 8.84345e-05)
(-0.00018395 -0.000120978 8.84344e-05)
(-0.000160147 -0.000151083 8.84344e-05)
(-0.000131479 -0.000176597 8.84347e-05)
(-9.88156e-05 -0.000196745 8.84347e-05)
(-6.31499e-05 -0.000210916 8.84346e-05)
(-2.55654e-05 -0.000218677 8.84342e-05)
(1.27957e-05 -0.000219794 8.84343e-05)
(5.0768e-05 -0.000214233 8.84343e-05)
(8.71978e-05 -0.000202163 8.84345e-05)
(0.000120978 -0.00018395 8.84344e-05)
(0.000151083 -0.000160147 8.84344e-05)
(0.000176597 -0.000131479 8.84347e-05)
(0.000196745 -9.88156e-05 8.84347e-05)
(0.000210916 -6.31499e-05 8.84346e-05)
(0.000218677 -2.55653e-05 8.84342e-05)
(0.000219794 1.27958e-05 8.84343e-05)
(0.000214233 5.07681e-05 8.84343e-05)
(0.000202163 8.71979e-05 8.84345e-05)
(0.00018395 0.000120978 8.84344e-05)
(0.000160147 0.000151083 8.84344e-05)
(0.000131479 0.000176597 8.84347e-05)
(9.88156e-05 0.000196745 8.84347e-05)
(6.31499e-05 0.000210916 8.84346e-05)
(2.55654e-05 0.000218677 8.84342e-05)
(-1.27958e-05 0.000219794 8.84343e-05)
(0.000102052 0.00031224 2.2155e-05)
(4.62825e-05 0.000325217 2.21543e-05)
(-1.0894e-05 0.000328313 2.21544e-05)
(-6.77394e-05 0.000321434 2.21565e-05)
(-0.000122527 0.000304788 2.21575e-05)
(-0.000173591 0.000278881 2.21567e-05)
(-0.000219382 0.000244501 2.21568e-05)
(-0.000258506 0.000202691 2.21564e-05)
(-0.000289775 0.000154722 2.21554e-05)
(-0.00031224 0.000102052 2.2155e-05)
(-0.000325217 4.62825e-05 2.21542e-05)
(-0.000328313 -1.0894e-05 2.21544e-05)
(-0.000321434 -6.77394e-05 2.21565e-05)
(-0.000304788 -0.000122527 2.21575e-05)
(-0.000278881 -0.000173591 2.21567e-05)
(-0.000244501 -0.000219382 2.21568e-05)
(-0.000202691 -0.000258506 2.21564e-05)
(-0.000154722 -0.000289775 2.21554e-05)
(-0.000102052 -0.00031224 2.2155e-05)
(-4.62825e-05 -0.000325217 2.21543e-05)
(1.0894e-05 -0.000328313 2.21544e-05)
(6.77394e-05 -0.000321434 2.21565e-05)
(0.000122527 -0.000304788 2.21575e-05)
(0.000173591 -0.000278881 2.21568e-05)
(0.000219382 -0.000244501 2.21568e-05)
(0.000258506 -0.000202691 2.21565e-05)
(0.000289775 -0.000154722 2.21554e-05)
(0.00031224 -0.000102052 2.2155e-05)
(0.000325217 -4.62824e-05 2.21543e-05)
(0.000328313 1.08941e-05 2.21544e-05)
(0.000321434 6.77394e-05 2.21566e-05)
(0.000304788 0.000122527 2.21575e-05)
(0.000278881 0.000173591 2.21568e-05)
(0.000244501 0.000219382 2.21568e-05)
(0.000202691 0.000258506 2.21565e-05)
(0.000154722 0.000289775 2.21554e-05)
(1.98191e-05 0.000479232 0.000158839)
(-6.36992e-05 0.000475393 0.000158839)
(-0.000145282 0.00045711 0.000158839)
(-0.000222451 0.000424937 0.00015884)
(-0.000292862 0.000379853 0.000158841)
(-0.000354373 0.000323227 0.00015884)
(-0.000405117 0.00025678 0.00015884)
(-0.000443552 0.000182531 0.00015884)
(-0.00046851 0.000102736 0.000158839)
(-0.000479232 1.98191e-05 0.000158839)
(-0.000475393 -6.36992e-05 0.000158839)
(-0.00045711 -0.000145282 0.000158839)
(-0.000424937 -0.000222451 0.00015884)
(-0.000379853 -0.000292862 0.000158841)
(-0.000323227 -0.000354373 0.00015884)
(-0.00025678 -0.000405117 0.00015884)
(-0.000182531 -0.000443552 0.00015884)
(-0.000102736 -0.00046851 0.000158839)
(-1.98191e-05 -0.000479232 0.000158839)
(6.36992e-05 -0.000475393 0.000158839)
(0.000145282 -0.00045711 0.000158839)
(0.000222451 -0.000424937 0.00015884)
(0.000292862 -0.000379853 0.000158841)
(0.000354373 -0.000323227 0.00015884)
(0.000405117 -0.00025678 0.00015884)
(0.000443552 -0.000182531 0.00015884)
(0.00046851 -0.000102736 0.000158839)
(0.000479232 -1.98191e-05 0.000158839)
(0.000475393 6.36992e-05 0.000158839)
(0.00045711 0.000145282 0.000158839)
(0.000424937 0.000222451 0.00015884)
(0.000379853 0.000292862 0.000158841)
(0.000323227 0.000354373 0.00015884)
(0.00025678 0.000405117 0.00015884)
(0.000182531 0.000443552 0.00015884)
(0.000102736 0.00046851 0.000158839)
(-0.000112521 0.000623375 0.000262831)
(-0.000219059 0.000594366 0.000262831)
(-0.00031894 0.000547297 0.000262831)
(-0.000409132 0.000483599 0.000262831)
(-0.000486892 0.000405206 0.000262831)
(-0.000549859 0.000314502 0.000262831)
(-0.000596118 0.000214241 0.000262831)
(-0.000624265 0.000107472 0.000262831)
(-0.000633444 -2.56327e-06 0.000262831)
(-0.000623375 -0.000112521 0.000262831)
(-0.000594366 -0.000219059 0.000262831)
(-0.000547297 -0.00031894 0.000262831)
(-0.000483599 -0.000409132 0.000262831)
(-0.000405206 -0.000486892 0.000262831)
(-0.000314502 -0.000549859 0.000262831)
(-0.000214241 -0.000596118 0.000262831)
(-0.000107472 -0.000624265 0.000262831)
(2.56328e-06 -0.000633444 0.000262831)
(0.000112521 -0.000623375 0.000262831)
(0.000219059 -0.000594366 0.000262831)
(0.00031894 -0.000547297 0.000262831)
(0.000409132 -0.000483599 0.000262831)
(0.000486892 -0.000405206 0.000262831)
(0.000549859 -0.000314502 0.000262831)
(0.000596118 -0.000214241 0.000262831)
(0.000624265 -0.000107472 0.000262831)
(0.000633444 2.56333e-06 0.000262831)
(0.000623375 0.000112521 0.000262831)
(0.000594366 0.000219059 0.000262831)
(0.000547297 0.000318941 0.000262831)
(0.000483599 0.000409132 0.000262831)
(0.000405206 0.000486892 0.000262831)
(0.000314502 0.000549859 0.000262831)
(0.000214241 0.000596118 0.000262831)
(0.000107472 0.000624265 0.000262831)
(-2.56331e-06 0.000633444 0.000262831)
(5.69766e-05 0.000554377 8.32257e-05)
(-4.01552e-05 0.000555848 8.32255e-05)
(-0.000136067 0.000540431 8.32258e-05)
(-0.000227845 0.000508592 8.32278e-05)
(-0.0003127 0.000461301 8.3229e-05)
(-0.000388053 0.000399993 8.32291e-05)
(-0.000451616 0.000326532 8.32291e-05)
(-0.000501457 0.000243149 8.32282e-05)
(-0.000536061 0.000152378 8.32265e-05)
(-0.000554377 5.69766e-05 8.32256e-05)
(-0.000555848 -4.01551e-05 8.32255e-05)
(-0.000540431 -0.000136067 8.32258e-05)
(-0.000508592 -0.000227845 8.32278e-05)
(-0.000461301 -0.0003127 8.3229e-05)
(-0.000399993 -0.000388053 8.32291e-05)
(-0.000326532 -0.000451616 8.32291e-05)
(-0.000243149 -0.000501456 8.32282e-05)
(-0.000152378 -0.000536061 8.32265e-05)
(-5.69766e-05 -0.000554377 8.32257e-05)
(4.01552e-05 -0.000555848 8.32255e-05)
(0.000136067 -0.00054043 8.32258e-05)
(0.000227845 -0.000508592 8.32278e-05)
(0.0003127 -0.000461301 8.32291e-05)
(0.000388053 -0.000399993 8.32291e-05)
(0.000451616 -0.000326532 8.32292e-05)
(0.000501457 -0.000243149 8.32282e-05)
(0.000536061 -0.000152378 8.32266e-05)
(0.000554377 -5.69766e-05 8.32257e-05)
(0.000555848 4.01552e-05 8.32256e-05)
(0.000540431 0.000136067 8.32259e-05)
(0.000508592 0.000227845 8.32278e-05)
(0.000461301 0.0003127 8.32291e-05)
(0.000399993 0.000388053 8.32291e-05)
(0.000326532 0.000451616 8.32292e-05)
(0.000243149 0.000501457 8.32282e-05)
(0.000152378 0.000536061 8.32265e-05)
(-4.66633e-05 0.000778664 0.000258187)
(-0.000181168 0.000758732 0.000258187)
(-0.000310167 0.000715745 0.000258187)
(-0.000429742 0.000651012 0.000258188)
(-0.000536261 0.000566498 0.000258189)
(-0.000626485 0.00046477 0.000258188)
(-0.000697674 0.000348921 0.000258189)
(-0.000747665 0.00022247 0.000258188)
(-0.000774937 8.92594e-05 0.000258188)
(-0.000778664 -4.66632e-05 0.000258187)
(-0.000758732 -0.000181167 0.000258187)
(-0.000715745 -0.000310167 0.000258187)
(-0.000651012 -0.000429742 0.000258188)
(-0.000566498 -0.000536261 0.000258188)
(-0.00046477 -0.000626485 0.000258188)
(-0.000348921 -0.000697674 0.000258189)
(-0.00022247 -0.000747665 0.000258188)
(-8.92593e-05 -0.000774937 0.000258188)
(4.66633e-05 -0.000778664 0.000258187)
(0.000181168 -0.000758731 0.000258187)
(0.000310167 -0.000715745 0.000258187)
(0.000429742 -0.000651012 0.000258188)
(0.000536261 -0.000566498 0.000258189)
(0.000626485 -0.00046477 0.000258188)
(0.000697674 -0.000348921 0.000258189)
(0.000747665 -0.00022247 0.000258188)
(0.000774937 -8.92593e-05 0.000258188)
(0.000778664 4.66633e-05 0.000258187)
(0.000758732 0.000181168 0.000258187)
(0.000715745 0.000310167 0.000258187)
(0.000651012 0.000429742 0.000258188)
(0.000566498 0.000536261 0.000258189)
(0.00046477 0.000626485 0.000258189)
(0.000348921 0.000697674 0.000258189)
(0.00022247 0.000747665 0.000258188)
(8.92593e-05 0.000774937 0.000258188)
(-0.000194674 0.000976728 0.000402223)
(-0.000361323 0.000928085 0.000402222)
(-0.000516993 0.000851243 0.000402222)
(-0.000656955 0.000748536 0.000402223)
(-0.000776956 0.000623085 0.000402223)
(-0.00087335 0.0004787 0.000402223)
(-0.000943207 0.000319772 0.000402223)
(-0.000984406 0.000151127 0.000402223)
(-0.000995694 -2.21093e-05 0.000402223)
(-0.000976728 -0.000194674 0.000402223)
(-0.000928085 -0.000361323 0.000402222)
(-0.000851243 -0.000516993 0.000402222)
(-0.000748536 -0.000656955 0.000402222)
(-0.000623085 -0.000776956 0.000402223)
(-0.0004787 -0.00087335 0.000402223)
(-0.000319772 -0.000943207 0.000402223)
(-0.000151127 -0.000984406 0.000402223)
(2.21093e-05 -0.000995694 0.000402223)
(0.000194674 -0.000976728 0.000402223)
(0.000361323 -0.000928085 0.000402222)
(0.000516993 -0.000851243 0.000402222)
(0.000656955 -0.000748536 0.000402222)
(0.000776956 -0.000623084 0.000402223)
(0.00087335 -0.0004787 0.000402223)
(0.000943207 -0.000319772 0.000402223)
(0.000984406 -0.000151127 0.000402223)
(0.000995694 2.21094e-05 0.000402223)
(0.000976728 0.000194674 0.000402223)
(0.000928085 0.000361323 0.000402222)
(0.000851243 0.000516993 0.000402222)
(0.000748536 0.000656955 0.000402223)
(0.000623084 0.000776957 0.000402223)
(0.0004787 0.00087335 0.000402223)
(0.000319772 0.000943207 0.000402223)
(0.000151127 0.000984406 0.000402223)
(-2.21094e-05 0.000995694 0.000402223)
(-9.11939e-05 0.00080548 0.000115687)
(-0.000229679 0.000777407 0.000115686)
(-0.000361185 0.000725713 0.000115687)
(-0.000481716 0.000651969 0.000115688)
(-0.000587611 0.000558415 0.000115689)
(-0.000675652 0.000447894 0.00011569)
(-0.000743163 0.000323763 0.00011569)
(-0.000788093 0.000189796 0.00011569)
(-0.000809078 5.00618e-05 0.000115688)
(-0.00080548 -9.11938e-05 0.000115687)
(-0.000777407 -0.000229679 0.000115686)
(-0.000725713 -0.000361185 0.000115687)
(-0.000651969 -0.000481716 0.000115688)
(-0.000558415 -0.000587611 0.000115689)
(-0.000447893 -0.000675652 0.00011569)
(-0.000323763 -0.000743163 0.00011569)
(-0.000189796 -0.000788093 0.00011569)
(-5.00617e-05 -0.000809078 0.000115688)
(9.11939e-05 -0.00080548 0.000115687)
(0.000229679 -0.000777407 0.000115686)
(0.000361185 -0.000725713 0.000115687)
(0.000481716 -0.000651969 0.000115688)
(0.000587611 -0.000558415 0.000115689)
(0.000675652 -0.000447893 0.00011569)
(0.000743163 -0.000323763 0.00011569)
(0.000788094 -0.000189796 0.00011569)
(0.000809078 -5.00617e-05 0.000115688)
(0.00080548 9.1194e-05 0.000115687)
(0.000777407 0.000229679 0.000115687)
(0.000725713 0.000361185 0.000115687)
(0.000651969 0.000481716 0.000115688)
(0.000558415 0.000587611 0.000115689)
(0.000447893 0.000675652 0.00011569)
(0.000323763 0.000743163 0.00011569)
(0.000189796 0.000788094 0.00011569)
(5.00617e-05 0.000809078 0.000115688)
(-0.000180294 0.00105084 0.000307047)
(-0.00036003 0.00100356 0.000307047)
(-0.000528828 0.0009258 0.000307047)
(-0.000681556 0.000819905 0.000307048)
(-0.000813577 0.000689098 0.000307048)
(-0.000920877 0.000537352 0.000307048)
(-0.0010002 0.00036928 0.000307049)
(-0.00104913 0.000189987 0.000307049)
(-0.00106618 4.92143e-06 0.000307048)
(-0.00105084 -0.000180294 0.000307047)
(-0.00100356 -0.00036003 0.000307047)
(-0.0009258 -0.000528828 0.000307047)
(-0.000819905 -0.000681556 0.000307048)
(-0.000689098 -0.000813577 0.000307048)
(-0.000537352 -0.000920877 0.000307048)
(-0.00036928 -0.0010002 0.000307049)
(-0.000189987 -0.00104913 0.000307049)
(-4.92138e-06 -0.00106618 0.000307048)
(0.000180294 -0.00105084 0.000307047)
(0.00036003 -0.00100356 0.000307047)
(0.000528828 -0.0009258 0.000307047)
(0.000681556 -0.000819905 0.000307048)
(0.000813577 -0.000689098 0.000307048)
(0.000920877 -0.000537352 0.000307048)
(0.0010002 -0.00036928 0.000307049)
(0.00104913 -0.000189987 0.000307049)
(0.00106618 -4.92131e-06 0.000307048)
(0.00105084 0.000180294 0.000307047)
(0.00100356 0.000360031 0.000307047)
(0.0009258 0.000528828 0.000307047)
(0.000819905 0.000681557 0.000307048)
(0.000689098 0.000813577 0.000307048)
(0.000537352 0.000920877 0.000307048)
(0.00036928 0.0010002 0.000307049)
(0.000189987 0.00104913 0.000307049)
(4.92136e-06 0.00106618 0.000307048)
(-0.000309159 0.00126962 0.000469833)
(-0.00052493 0.00119665 0.000469833)
(-0.00072475 0.00108732 0.000469833)
(-0.00090255 0.000944946 0.000469833)
(-0.00105293 0.000773864 0.000469833)
(-0.00117131 0.000579269 0.000469833)
(-0.0012541 0.000367072 0.000469833)
(-0.00129879 0.000143722 0.000469833)
(-0.00130402 -8.39946e-05 0.000469833)
(-0.00126962 -0.000309159 0.000469833)
(-0.00119665 -0.00052493 0.000469833)
(-0.00108732 -0.00072475 0.000469833)
(-0.000944946 -0.00090255 0.000469833)
(-0.000773864 -0.00105293 0.000469833)
(-0.000579269 -0.00117131 0.000469833)
(-0.000367072 -0.0012541 0.000469833)
(-0.000143722 -0.00129879 0.000469833)
(8.39946e-05 -0.00130402 0.000469833)
(0.000309159 -0.00126962 0.000469833)
(0.00052493 -0.00119665 0.000469833)
(0.00072475 -0.00108732 0.000469833)
(0.00090255 -0.000944946 0.000469833)
(0.00105293 -0.000773864 0.000469833)
(0.00117131 -0.000579269 0.000469833)
(0.0012541 -0.000367072 0.000469833)
(0.00129879 -0.000143722 0.000469833)
(0.00130402 8.39947e-05 0.000469834)
(0.00126962 0.000309159 0.000469833)
(0.00119665 0.00052493 0.000469833)
(0.00108732 0.00072475 0.000469833)
(0.000944946 0.00090255 0.000469833)
(0.000773864 0.00105293 0.000469833)
(0.000579269 0.00117131 0.000469833)
(0.000367072 0.0012541 0.000469833)
(0.000143722 0.00129879 0.000469833)
(-8.39947e-05 0.00130402 0.000469834)
(-0.000309582 0.00102851 8.57418e-05)
(-0.000483478 0.000959128 8.57404e-05)
(-0.000642684 0.000860602 8.57408e-05)
(-0.000782361 0.000735926 8.57417e-05)
(-0.000898267 0.00058889 8.57423e-05)
(-0.00098688 0.000423961 8.57429e-05)
(-0.00104551 0.00024615 8.57431e-05)
(-0.00107237 6.08594e-05 8.57432e-05)
(-0.00106664 -0.000126279 8.57426e-05)
(-0.00102851 -0.000309582 8.57417e-05)
(-0.000959128 -0.000483478 8.57403e-05)
(-0.000860601 -0.000642684 8.57407e-05)
(-0.000735926 -0.000782361 8.57416e-05)
(-0.00058889 -0.000898267 8.57423e-05)
(-0.00042396 -0.00098688 8.57429e-05)
(-0.000246149 -0.00104551 8.57431e-05)
(-6.08593e-05 -0.00107237 8.57433e-05)
(0.00012628 -0.00106664 8.57427e-05)
(0.000309582 -0.00102851 8.57418e-05)
(0.000483478 -0.000959128 8.57404e-05)
(0.000642684 -0.000860601 8.57408e-05)
(0.000782361 -0.000735926 8.57418e-05)
(0.000898267 -0.00058889 8.57424e-05)
(0.00098688 -0.00042396 8.5743e-05)
(0.00104551 -0.000246149 8.57433e-05)
(0.00107237 -6.08593e-05 8.57434e-05)
(0.00106664 0.00012628 8.57428e-05)
(0.00102851 0.000309582 8.57419e-05)
(0.000959128 0.000483478 8.57405e-05)
(0.000860601 0.000642684 8.57409e-05)
(0.000735926 0.000782361 8.57418e-05)
(0.00058889 0.000898267 8.57424e-05)
(0.00042396 0.00098688 8.5743e-05)
(0.00024615 0.00104551 8.57432e-05)
(6.08593e-05 0.00107237 8.57433e-05)
(-0.00012628 0.00106664 8.57427e-05)
(-0.000368875 0.00128205 0.000284714)
(-0.000585896 0.00119852 0.000284713)
(-0.000785115 0.00107857 0.000284713)
(-0.000960478 0.000925848 0.000284714)
(-0.00110666 0.000744997 0.000284714)
(-0.00121921 0.00054151 0.000284714)
(-0.00129472 0.000321569 0.000284714)
(-0.00133089 9.18572e-05 0.000284714)
(-0.00132662 -0.000140645 0.000284714)
(-0.00128205 -0.000368875 0.000284714)
(-0.00119852 -0.000585896 0.000284713)
(-0.00107857 -0.000785115 0.000284713)
(-0.000925848 -0.000960478 0.000284714)
(-0.000744997 -0.00110666 0.000284714)
(-0.00054151 -0.00121921 0.000284714)
(-0.000321569 -0.00129472 0.000284714)
(-9.18571e-05 -0.00133089 0.000284714)
(0.000140645 -0.00132662 0.000284714)
(0.000368875 -0.00128205 0.000284714)
(0.000585896 -0.00119851 0.000284713)
(0.000785115 -0.00107857 0.000284713)
(0.000960478 -0.000925848 0.000284714)
(0.00110666 -0.000744997 0.000284714)
(0.00121921 -0.00054151 0.000284714)
(0.00129472 -0.000321569 0.000284714)
(0.00133089 -9.18571e-05 0.000284714)
(0.00132662 0.000140646 0.000284714)
(0.00128205 0.000368875 0.000284714)
(0.00119852 0.000585896 0.000284713)
(0.00107857 0.000785115 0.000284713)
(0.000925848 0.000960479 0.000284714)
(0.000744997 0.00110666 0.000284714)
(0.00054151 0.00121921 0.000284714)
(0.000321569 0.00129472 0.000284714)
(9.18571e-05 0.00133089 0.000284714)
(-0.000140645 0.00132662 0.000284714)
(-0.000463758 0.00150946 0.000457261)
(-0.000718828 0.001406 0.000457261)
(-0.000952058 0.00125982 0.000457261)
(-0.00115636 0.00107536 0.000457261)
(-0.00132552 0.000858219 0.000457261)
(-0.00145441 0.000615006 0.000457261)
(-0.00153911 0.000353106 0.000457261)
(-0.00157705 8.04774e-05 0.000457261)
(-0.00156706 -0.000194596 0.000457261)
(-0.00150946 -0.000463758 0.000457261)
(-0.001406 -0.000718828 0.000457261)
(-0.00125982 -0.000952057 0.000457261)
(-0.00107536 -0.00115636 0.000457261)
(-0.000858219 -0.00132552 0.000457261)
(-0.000615006 -0.00145441 0.000457261)
(-0.000353106 -0.00153911 0.000457261)
(-8.04774e-05 -0.00157705 0.000457261)
(0.000194597 -0.00156706 0.000457261)
(0.000463758 -0.00150946 0.000457261)
(0.000718828 -0.001406 0.000457261)
(0.000952058 -0.00125982 0.000457261)
(0.00115636 -0.00107536 0.000457261)
(0.00132552 -0.000858219 0.000457261)
(0.00145441 -0.000615006 0.000457261)
(0.00153911 -0.000353106 0.000457261)
(0.00157705 -8.04773e-05 0.000457261)
(0.00156706 0.000194597 0.000457261)
(0.00150946 0.000463758 0.000457261)
(0.001406 0.000718829 0.000457261)
(0.00125982 0.000952058 0.000457261)
(0.00107536 0.00115636 0.000457261)
(0.000858219 0.00132552 0.000457261)
(0.000615006 0.00145441 0.000457261)
(0.000353106 0.00153911 0.000457261)
(8.04773e-05 0.00157705 0.000457261)
(-0.000194597 0.00156706 0.000457261)
(-0.000558108 0.00119405 -1.51887e-05)
(-0.000756974 0.00107899 -1.51907e-05)
(-0.000932839 0.000931154 -1.51908e-05)
(-0.00108036 0.000755022 -1.51901e-05)
(-0.00119505 0.000555948 -1.51893e-05)
(-0.00127344 0.000339983 -1.51893e-05)
(-0.00131313 0.000113688 -1.51895e-05)
(-0.00131292 -0.000116062 -1.5189e-05)
(-0.00127282 -0.000342285 -1.51882e-05)
(-0.00119405 -0.000558108 -1.51888e-05)
(-0.00107899 -0.000756974 -1.51908e-05)
(-0.000931154 -0.000932839 -1.51909e-05)
(-0.000755021 -0.00108036 -1.51901e-05)
(-0.000555948 -0.00119505 -1.51894e-05)
(-0.000339983 -0.00127344 -1.51894e-05)
(-0.000113687 -0.00131313 -1.51895e-05)
(0.000116062 -0.00131292 -1.5189e-05)
(0.000342285 -0.00127282 -1.51882e-05)
(0.000558108 -0.00119405 -1.51887e-05)
(0.000756974 -0.00107899 -1.51907e-05)
(0.000932839 -0.000931154 -1.51908e-05)
(0.00108036 -0.000755021 -1.519e-05)
(0.00119505 -0.000555948 -1.51892e-05)
(0.00127344 -0.000339983 -1.51892e-05)
(0.00131313 -0.000113687 -1.51893e-05)
(0.00131292 0.000116063 -1.51888e-05)
(0.00127282 0.000342285 -1.5188e-05)
(0.00119405 0.000558108 -1.51886e-05)
(0.00107899 0.000756974 -1.51906e-05)
(0.000931154 0.000932839 -1.51907e-05)
(0.000755022 0.00108036 -1.519e-05)
(0.000555948 0.00119505 -1.51892e-05)
(0.000339983 0.00127344 -1.51892e-05)
(0.000113688 0.00131313 -1.51894e-05)
(-0.000116062 0.00131292 -1.51889e-05)
(-0.000342285 0.00127282 -1.51881e-05)
(-0.000591593 0.00145746 0.000189147)
(-0.000835692 0.00133259 0.000189146)
(-0.0010544 0.00116723 0.000189146)
(-0.00124107 0.000966404 0.000189147)
(-0.00139003 0.000736213 0.000189147)
(-0.00149675 0.000483653 0.000189147)
(-0.001558 0.000216398 0.000189147)
(-0.0015719 -5.74334e-05 0.000189147)
(-0.00153805 -0.000329519 0.000189148)
(-0.00145746 -0.000591593 0.000189147)
(-0.00133259 -0.000835692 0.000189146)
(-0.00116723 -0.0010544 0.000189146)
(-0.000966404 -0.00124107 0.000189146)
(-0.000736213 -0.00139003 0.000189147)
(-0.000483653 -0.00149675 0.000189147)
(-0.000216397 -0.001558 0.000189147)
(5.74335e-05 -0.0015719 0.000189147)
(0.00032952 -0.00153805 0.000189148)
(0.000591593 -0.00145746 0.000189147)
(0.000835692 -0.00133259 0.000189146)
(0.0010544 -0.00116723 0.000189146)
(0.00124107 -0.000966404 0.000189147)
(0.00139003 -0.000736213 0.000189147)
(0.00149675 -0.000483653 0.000189147)
(0.001558 -0.000216397 0.000189147)
(0.0015719 5.74336e-05 0.000189147)
(0.00153805 0.00032952 0.000189148)
(0.00145746 0.000591593 0.000189147)
(0.00133259 0.000835692 0.000189147)
(0.00116723 0.0010544 0.000189146)
(0.000966404 0.00124107 0.000189147)
(0.000736213 0.00139003 0.000189147)
(0.000483653 0.00149675 0.000189147)
(0.000216397 0.001558 0.000189147)
(-5.74335e-05 0.0015719 0.000189147)
(-0.00032952 0.00153805 0.000189148)
(-0.000654991 0.00169621 0.000368049)
(-0.000939585 0.0015567 0.000368049)
(-0.00119563 0.0013699 0.000368049)
(-0.00141535 0.00114147 0.000368049)
(-0.00159206 0.000878354 0.000368049)
(-0.00172039 0.000588552 0.000368049)
(-0.00179646 0.000280868 0.000368049)
(-0.00181794 -3.53514e-05 0.000368049)
(-0.00178418 -0.000350496 0.000368049)
(-0.00169621 -0.000654991 0.000368049)
(-0.0015567 -0.000939585 0.000368049)
(-0.0013699 -0.00119563 0.000368049)
(-0.00114147 -0.00141535 0.000368049)
(-0.000878354 -0.00159206 0.000368049)
(-0.000588552 -0.00172039 0.000368049)
(-0.000280868 -0.00179646 0.000368049)
(3.53515e-05 -0.00181794 0.000368049)
(0.000350496 -0.00178418 0.000368049)
(0.000654991 -0.00169621 0.000368049)
(0.000939585 -0.0015567 0.000368049)
(0.00119563 -0.0013699 0.000368049)
(0.00141535 -0.00114147 0.000368049)
(0.00159206 -0.000878354 0.000368049)
(0.00172039 -0.000588552 0.000368049)
(0.00179646 -0.000280868 0.000368049)
(0.00181794 3.53516e-05 0.000368049)
(0.00178418 0.000350496 0.000368049)
(0.00169621 0.000654991 0.000368049)
(0.0015567 0.000939585 0.000368049)
(0.0013699 0.00119563 0.000368049)
(0.00114147 0.00141535 0.000368049)
(0.000878354 0.00159206 0.000368049)
(0.000588552 0.00172039 0.000368049)
(0.000280868 0.00179646 0.000368049)
(-3.53515e-05 0.00181794 0.000368049)
(-0.000350496 0.00178418 0.000368049)
(-0.0007979 0.00128667 -0.000173288)
(-0.00100921 0.00112857 -0.000173289)
(-0.00118985 0.000936173 -0.000173289)
(-0.00133434 0.000715335 -0.00017329)
(-0.00143828 0.000472762 -0.00017329)
(-0.00149852 0.000215825 -0.000173289)
(-0.00151324 -4.76696e-05 -0.000173289)
(-0.00148197 -0.000309716 -0.000173288)
(-0.00140567 -0.000562352 -0.000173288)
(-0.00128667 -0.0007979 -0.000173288)
(-0.00112856 -0.00100921 -0.000173289)
(-0.000936173 -0.00118985 -0.00017329)
(-0.000715335 -0.00133434 -0.00017329)
(-0.000472762 -0.00143828 -0.00017329)
(-0.000215825 -0.00149852 -0.000173289)
(4.76697e-05 -0.00151324 -0.000173289)
(0.000309716 -0.00148197 -0.000173288)
(0.000562352 -0.00140567 -0.000173287)
(0.0007979 -0.00128667 -0.000173288)
(0.00100921 -0.00112856 -0.000173289)
(0.00118985 -0.000936173 -0.000173289)
(0.00133434 -0.000715335 -0.00017329)
(0.00143828 -0.000472762 -0.00017329)
(0.00149852 -0.000215825 -0.000173289)
(0.00151324 4.76699e-05 -0.000173289)
(0.00148197 0.000309716 -0.000173288)
(0.00140567 0.000562352 -0.000173287)
(0.00128667 0.000797901 -0.000173288)
(0.00112857 0.00100921 -0.000173289)
(0.000936173 0.00118985 -0.000173289)
(0.000715335 0.00133434 -0.00017329)
(0.000472762 0.00143828 -0.00017329)
(0.000215825 0.00149852 -0.000173289)
(-4.76697e-05 0.00151324 -0.000173289)
(-0.000309716 0.00148197 -0.000173288)
(-0.000562352 0.00140567 -0.000173287)
(-0.000821573 0.00156344 3.40139e-05)
(-0.00108058 0.00139702 3.40133e-05)
(-0.00130675 0.00118816 3.4013e-05)
(-0.00149322 0.00094319 3.40127e-05)
(-0.00163432 0.000669565 3.40124e-05)
(-0.00172576 0.000375597 3.40128e-05)
(-0.00176476 7.0216e-05 3.40129e-05)
(-0.00175014 -0.000237298 3.40133e-05)
(-0.00168235 -0.000537603 3.40139e-05)
(-0.00156344 -0.000821573 3.40138e-05)
(-0.00139702 -0.00108058 3.40132e-05)
(-0.00118816 -0.00130675 3.40129e-05)
(-0.00094319 -0.00149322 3.40126e-05)
(-0.000669565 -0.00163432 3.40124e-05)
(-0.000375597 -0.00172576 3.40127e-05)
(-7.02158e-05 -0.00176476 3.40129e-05)
(0.000237299 -0.00175014 3.40133e-05)
(0.000537603 -0.00168235 3.4014e-05)
(0.000821573 -0.00156344 3.40138e-05)
(0.00108058 -0.00139702 3.40133e-05)
(0.00130675 -0.00118816 3.4013e-05)
(0.00149322 -0.00094319 3.40127e-05)
(0.00163432 -0.000669565 3.40125e-05)
(0.00172576 -0.000375597 3.40129e-05)
(0.00176476 -7.02157e-05 3.40131e-05)
(0.00175014 0.000237299 3.40135e-05)
(0.00168235 0.000537604 3.40142e-05)
(0.00156344 0.000821573 3.4014e-05)
(0.00139702 0.00108058 3.40134e-05)
(0.00118816 0.00130675 3.40131e-05)
(0.00094319 0.00149322 3.40128e-05)
(0.000669565 0.00163432 3.40126e-05)
(0.000375597 0.00172576 3.40129e-05)
(7.02159e-05 0.00176476 3.40131e-05)
(-0.000237298 0.00175015 3.40134e-05)
(-0.000537603 0.00168235 3.40141e-05)
(-0.00086663 0.00182038 0.000215219)
(-0.00116957 0.00164223 0.00021522)
(-0.00143697 0.00141419 0.000215219)
(-0.00166071 0.00114318 0.000215219)
(-0.00183399 0.000837431 0.000215219)
(-0.00195155 0.00050624 0.000215219)
(-0.00200981 0.000159666 0.000215219)
(-0.002007 -0.000191759 0.000215219)
(-0.00194321 -0.000537358 0.00021522)
(-0.00182038 -0.00086663 0.000215219)
(-0.00164223 -0.00116957 0.000215219)
(-0.00141419 -0.00143697 0.000215219)
(-0.00114318 -0.00166071 0.000215219)
(-0.000837431 -0.00183399 0.000215219)
(-0.00050624 -0.00195155 0.000215219)
(-0.000159666 -0.00200981 0.000215219)
(0.000191759 -0.002007 0.000215219)
(0.000537358 -0.00194321 0.00021522)
(0.00086663 -0.00182038 0.000215219)
(0.00116957 -0.00164223 0.00021522)
(0.00143697 -0.00141419 0.000215219)
(0.00166071 -0.00114318 0.000215219)
(0.00183399 -0.000837431 0.000215219)
(0.00195155 -0.000506239 0.000215219)
(0.00200981 -0.000159666 0.000215219)
(0.002007 0.000191759 0.00021522)
(0.00194321 0.000537358 0.00021522)
(0.00182038 0.000866631 0.00021522)
(0.00164223 0.00116957 0.00021522)
(0.00141419 0.00143697 0.000215219)
(0.00114318 0.00166071 0.000215219)
(0.000837431 0.00183399 0.000215219)
(0.00050624 0.00195155 0.000215219)
(0.000159666 0.00200981 0.000215219)
(-0.000191759 0.002007 0.00021522)
(-0.000537358 0.00194321 0.00021522)
(-0.000990078 0.0013003 -0.000358677)
(-0.00120083 0.00110862 -0.000358678)
(-0.0013751 0.000883252 -0.000358679)
(-0.00150758 0.00063105 -0.00035868)