# Probe 0 (0 0 0.007)
# Probe 1 (0 0 0)
# Probe 2 (0.019999 0 0.007)
# Probe 3 (0.019999 0 0)
# Probe 4 (0 0.003 0.007)
# Probe 5 (0 0.003 0)
# Probe 6 (0.019999 0.003 0.007)
# Probe 7 (0.019999 0.003 0)
# Probe 8 (0.01 0.0015 0.0035)
# Time        0             1             2             3             4             5             6             7             8            
0.2           0.00119495    0.132316      0.046518      0.142155      0.0359355     0.133633      0.0559663     0.143067      0.070721     
