/*--------------------------------*- C++ -*----------------------------------*\
| =========                 |                                                 |
| \\      /  F ield         | OpenFOAM: The Open Source CFD Toolbox           |
|  \\    /   O peration     | Version:  2412                                  |
|   \\  /    A nd           | Website:  www.openfoam.com                      |
|    \\/     M anipulation  |                                                 |
\*---------------------------------------------------------------------------*/
FoamFile
{
    version     2.0;
    format      ascii;
    arch        "LSB;label=32;scalar=64";
    class       volScalarField;
    location    "0.0350058";
    object      ionicCurrent;
}
// * * * * * * * * * * * * * * * * * * * * * * * * * * * * * * * * * * * * * //

dimensions      [1 2 -4 0 0 -1 0];

internalField   nonuniform List<scalar> 
8679
(
-0.842348
-0.849413
-0.84683
-0.842597
-0.845232
-0.847521
-0.849783
-0.85502
-0.857784
-0.862135
-0.858249
-0.860725
-0.863596
-0.870467
-0.874138
-0.873048
-0.879613
-0.886725
-0.892652
-0.894117
-0.900119
-0.902076
-0.902328
-0.902386
-0.910011
-0.910104
-0.916796
-0.923321
-0.923311
-0.923355
-0.926598
-0.929048
-0.929522
-0.850116
-0.84856
-0.846102
-0.850411
-0.850309
-0.848011
-0.852922
-0.856419
-0.854755
-0.860591
-0.865849
-0.866584
-0.872174
-0.87338
-0.873387
-0.87978
-0.878296
-0.883733
-0.889198
-0.893441
-0.896591
-0.898743
-0.900252
-0.909155
-0.910269
-0.917054
-0.915971
-0.921689
-0.926128
-0.923712
-0.92518
-0.926945
-0.927674
-0.845452
-0.844635
-0.849991
-0.847167
-0.850276
-0.852512
-0.853154
-0.852397
-0.857978
-0.854956
-0.858823
-0.862831
-0.865721
-0.867535
-0.876097
-0.876958
-0.88414
-0.89107
-0.892052
-0.891244
-0.899111
-0.905488
-0.906435
-0.907283
-0.91515
-0.915015
-0.9216
-0.926797
-0.922675
-0.925698
-0.9293
-0.931413
-0.931986
-0.784846
-0.784651
-0.78699
-0.786757
-0.789181
-0.790793
-0.791616
-0.795104
-0.797106
-0.801829
-0.805762
-0.808884
-0.810834
-0.811968
-0.819173
-0.818998
-0.824997
-0.831023
-0.835618
-0.839391
-0.842763
-0.852909
-0.855664
-0.8642
-0.865319
-0.873136
-0.881289
-0.889104
-0.895424
-0.901226
-0.905876
-0.909729
-0.915502
-0.783555
-0.782715
-0.787475
-0.784424
-0.786897
-0.788554
-0.78967
-0.796183
-0.794949
-0.799565
-0.803984
-0.807281
-0.809805
-0.81554
-0.819552
-0.825415
-0.823609
-0.827643
-0.832131
-0.836281
-0.84778
-0.85111
-0.856107
-0.862772
-0.871652
-0.871628
-0.878521
-0.885981
-0.892449
-0.898129
-0.902593
-0.909157
-0.912339
-0.790269
-0.788451
-0.785943
-0.789922
-0.793729
-0.795287
-0.795637
-0.795137
-0.800004
-0.796984
-0.799981
-0.8034
-0.813741
-0.816231
-0.820465
-0.822829
-0.82857
-0.834638
-0.839486
-0.843343
-0.846874
-0.857217
-0.860095
-0.868713
-0.869987
-0.877781
-0.885796
-0.891584
-0.891814
-0.896311
-0.906556
-0.912141
-0.918071
-0.794187
-0.79223
-0.789428
-0.793495
-0.797048
-0.799121
-0.799253
-0.798818
-0.803722
-0.800674
-0.803644
-0.807365
-0.814413
-0.819733
-0.823883
-0.826201
-0.831894
-0.83788
-0.842613
-0.846627
-0.850156
-0.860374
-0.863038
-0.871711
-0.873014
-0.880652
-0.887585
-0.888204
-0.892488
-0.897195
-0.902918
-0.912721
-0.916929
-0.793658
-0.792364
-0.796795
-0.793507
-0.795789
-0.797536
-0.798661
-0.805056
-0.804078
-0.808457
-0.81241
-0.815629
-0.818455
-0.823972
-0.827915
-0.830944
-0.831928
-0.835675
-0.840173
-0.844629
-0.856383
-0.859663
-0.861566
-0.871213
-0.880037
-0.880383
-0.886931
-0.894121
-0.900443
-0.906192
-0.910594
-0.914328
-0.919803
-0.718064
-0.72443
-0.723205
-0.727
-0.729601
-0.730178
-0.729438
-0.727615
-0.732228
-0.737
-0.740671
-0.743379
-0.749259
-0.753448
-0.760591
-0.764219
-0.769983
-0.774208
-0.7807
-0.783738
-0.793487
-0.796683
-0.804855
-0.809252
-0.813964
-0.821599
-0.829104
-0.838536
-0.844367
-0.849892
-0.862795
-0.868777
-0.880675
-0.725965
-0.724406
-0.721959
-0.725449
-0.728101
-0.729426
-0.729835
-0.734975
-0.732933
-0.736449
-0.739798
-0.742237
-0.750808
-0.752
-0.758337
-0.765057
-0.770771
-0.775224
-0.77864
-0.782014
-0.791512
-0.794138
-0.803515
-0.812988
-0.820664
-0.823318
-0.828829
-0.836039
-0.847354
-0.854088
-0.862096
-0.866272
-0.877661
-0.72313
-0.722318
-0.727462
-0.728
-0.725825
-0.726646
-0.733656
-0.734247
-0.73963
-0.741447
-0.746996
-0.748761
-0.749935
-0.756717
-0.756452
-0.761837
-0.767106
-0.772786
-0.781453
-0.788039
-0.790504
-0.799736
-0.808686
-0.809942
-0.817736
-0.825657
-0.833363
-0.839769
-0.848425
-0.854222
-0.863926
-0.872038
-0.875546
-0.728029
-0.726515
-0.73043
-0.726874
-0.728471
-0.730467
-0.735366
-0.738375
-0.743699
-0.745411
-0.748435
-0.752543
-0.753551
-0.760193
-0.75975
-0.765243
-0.770546
-0.776133
-0.784655
-0.79142
-0.793958
-0.80252
-0.804281
-0.812447
-0.820807
-0.829371
-0.836952
-0.84336
-0.851971
-0.856992
-0.86227
-0.874195
-0.879068
-0.734389
-0.735166
-0.73248
-0.735317
-0.737863
-0.739077
-0.739248
-0.742013
-0.742611
-0.745533
-0.748617
-0.751444
-0.759565
-0.760924
-0.767829
-0.774347
-0.777188
-0.784242
-0.788036
-0.791194
-0.801128
-0.804426
-0.813437
-0.822336
-0.823063
-0.82934
-0.836391
-0.845795
-0.852391
-0.862761
-0.871749
-0.876546
-0.887825
-0.739988
-0.738053
-0.735291
-0.738483
-0.74134
-0.74289
-0.74313
-0.745768
-0.746575
-0.7494
-0.753619
-0.760418
-0.765223
-0.764894
-0.771378
-0.778008
-0.784129
-0.788661
-0.792489
-0.79589
-0.80588
-0.809081
-0.818289
-0.827243
-0.827977
-0.83434
-0.841477
-0.850835
-0.856615
-0.862359
-0.872124
-0.88032
-0.883957
-0.74544
-0.744808
-0.745894
-0.745793
-0.747663
-0.748364
-0.748841
-0.755531
-0.758001
-0.757666
-0.7606
-0.767107
-0.771706
-0.771375
-0.777873
-0.784687
-0.791061
-0.795818
-0.799748
-0.803149
-0.813544
-0.816967
-0.825574
-0.826567
-0.834258
-0.842357
-0.850425
-0.857256
-0.863343
-0.872152
-0.877269
-0.886059
-0.89322
-0.749741
-0.75347
-0.755616
-0.756587
-0.759714
-0.76126
-0.760583
-0.762312
-0.767682
-0.769662
-0.773158
-0.775992
-0.780434
-0.784768
-0.78783
-0.794039
-0.800348
-0.805347
-0.809057
-0.812083
-0.814931
-0.824657
-0.827181
-0.835868
-0.84528
-0.853187
-0.855427
-0.861534
-0.868745
-0.88002
-0.886346
-0.893872
-0.897533
-0.761551
-0.76115
-0.766225
-0.763158
-0.76549
-0.768384
-0.773826
-0.777072
-0.778894
-0.779054
-0.781852
-0.784945
-0.791589
-0.79577
-0.795428
-0.802191
-0.809076
-0.814856
-0.819845
-0.823444
-0.826693
-0.836895
-0.839782
-0.848533
-0.853241
-0.858556
-0.866528
-0.874454
-0.881314
-0.887379
-0.895503
-0.89977
-0.903463
-0.777168
-0.780841
-0.782444
-0.782594
-0.780428
-0.781004
-0.781798
-0.788798
-0.787911
-0.792828
-0.797541
-0.801023
-0.803
-0.804297
-0.812776
-0.817839
-0.82054
-0.826012
-0.830848
-0.83527
-0.839326
-0.85024
-0.853126
-0.857685
-0.863901
-0.872792
-0.876446
-0.883121
-0.890476
-0.896751
-0.901933
-0.90669
-0.9138
-0.799953
-0.798234
-0.796202
-0.800155
-0.803385
-0.805376
-0.805982
-0.805379
-0.806484
-0.809028
-0.814456
-0.81856
-0.820846
-0.823069
-0.831529
-0.833134
-0.840257
-0.846262
-0.846582
-0.851048
-0.860201
-0.865494
-0.868135
-0.872843
-0.881565
-0.88319
-0.891813
-0.90058
-0.90849
-0.914582
-0.915148
-0.924027
-0.929044
-0.814488
-0.813384
-0.815677
-0.816021
-0.819259
-0.821796
-0.822604
-0.822507
-0.825353
-0.827027
-0.832051
-0.836539
-0.839764
-0.842511
-0.84938
-0.854262
-0.858142
-0.860539
-0.86597
-0.871181
-0.87642
-0.880407
-0.884097
-0.894093
-0.896332
-0.900099
-0.905364
-0.91355
-0.915888
-0.921608
-0.927684
-0.932858
-0.937012
-0.827706
-0.830155
-0.832679
-0.83286
-0.833213
-0.836093
-0.83736
-0.837073
-0.838983
-0.842745
-0.847919
-0.847485
-0.851246
-0.859159
-0.862471
-0.86681
-0.871239
-0.874122
-0.880674
-0.884031
-0.889457
-0.893465
-0.899893
-0.902298
-0.90411
-0.913185
-0.9149
-0.92191
-0.923515
-0.929521
-0.936124
-0.94177
-0.945603
-0.825663
-0.825312
-0.828034
-0.829061
-0.829702
-0.832708
-0.834269
-0.834366
-0.83657
-0.839574
-0.841653
-0.843119
-0.847475
-0.8505
-0.855359
-0.856278
-0.861721
-0.864938
-0.871429
-0.877068
-0.873919
-0.877241
-0.885304
-0.894262
-0.89757
-0.899509
-0.907888
-0.908785
-0.914859
-0.915769
-0.92062
-0.925909
-0.930235
-0.796349
-0.79494
-0.795635
-0.796362
-0.795218
-0.797345
-0.798996
-0.799324
-0.799353
-0.806048
-0.80495
-0.810569
-0.815885
-0.819679
-0.821887
-0.823154
-0.828515
-0.832073
-0.838349
-0.836813
-0.841833
-0.847016
-0.851357
-0.854776
-0.856629
-0.861381
-0.867478
-0.871846
-0.875369
-0.877069
-0.879048
-0.883372
-0.88133
-0.661689
-0.66078
-0.664752
-0.661187
-0.662152
-0.663291
-0.669027
-0.667634
-0.671263
-0.674761
-0.677268
-0.685217
-0.686293
-0.692174
-0.698573
-0.703785
-0.708104
-0.711595
-0.720723
-0.723381
-0.73239
-0.741744
-0.750306
-0.758088
-0.765675
-0.77211
-0.780829
-0.786819
-0.796038
-0.804143
-0.811371
-0.822729
-0.831494
-0.661086
-0.659893
-0.66454
-0.664776
-0.663288
-0.667337
-0.670358
-0.671852
-0.671902
-0.675206
-0.681475
-0.68655
-0.69012
-0.692389
-0.697285
-0.701985
-0.706421
-0.716948
-0.720452
-0.729047
-0.731436
-0.739085
-0.747642
-0.755516
-0.762836
-0.7693
-0.777916
-0.783604
-0.796247
-0.802192
-0.813607
-0.821124
-0.8324
-0.667198
-0.665499
-0.662968
-0.666385
-0.668295
-0.668303
-0.667854
-0.673119
-0.678069
-0.681295
-0.683432
-0.684308
-0.691525
-0.69871
-0.701642
-0.706766
-0.713306
-0.716838
-0.723438
-0.729294
-0.736685
-0.740596
-0.747256
-0.75482
-0.762636
-0.774148
-0.781587
-0.790073
-0.79524
-0.80681
-0.815357
-0.82342
-0.829966
-0.669012
-0.669855
-0.667325
-0.669825
-0.671881
-0.672178
-0.672082
-0.677387
-0.67964
-0.685639
-0.687019
-0.687972
-0.695095
-0.698851
-0.700697
-0.709142
-0.716641
-0.719649
-0.7226
-0.731913
-0.740637
-0.74236
-0.749164
-0.756712
-0.766526
-0.773883
-0.784592
-0.794148
-0.799686
-0.811616
-0.816684
-0.827768
-0.834336
-0.671843
-0.670946
-0.672095
-0.671187
-0.672234
-0.672824
-0.678604
-0.677305
-0.680707
-0.683454
-0.686197
-0.693708
-0.694784
-0.700988
-0.706811
-0.712383
-0.716311
-0.719758
-0.72894
-0.731794
-0.74104
-0.750458
-0.759063
-0.766817
-0.774052
-0.780469
-0.789334
-0.795329
-0.804515
-0.812803
-0.819868
-0.82861
-0.839788
-0.67577
-0.675044
-0.676092
-0.675062
-0.677063
-0.681817
-0.685415
-0.686791
-0.686563
-0.689272
-0.695883
-0.701048
-0.704419
-0.706408
-0.711013
-0.715956
-0.72112
-0.728983
-0.735827
-0.741574
-0.747198
-0.75577
-0.764234
-0.771942
-0.779293
-0.785901
-0.79199
-0.800835
-0.810261
-0.818341
-0.825837
-0.8347
-0.846057
-0.681975
-0.684748
-0.685644
-0.68585
-0.687486
-0.688351
-0.6907
-0.693905
-0.698399
-0.701772
-0.703573
-0.707843
-0.71123
-0.712875
-0.717946
-0.722755
-0.728014
-0.735983
-0.742129
-0.744138
-0.753507
-0.763252
-0.771108
-0.774317
-0.780281
-0.787606
-0.798866
-0.808996
-0.81533
-0.827494
-0.831801
-0.838539
-0.849592
-0.693166
-0.692378
-0.693001
-0.692099
-0.694241
-0.699557
-0.699377
-0.700045
-0.704205
-0.708314
-0.711306
-0.717073
-0.721541
-0.725365
-0.730621
-0.73231
-0.740268
-0.7451
-0.750805
-0.753174
-0.762679
-0.772204
-0.773679
-0.781163
-0.788707
-0.798751
-0.805499
-0.812265
-0.82287
-0.832133
-0.839997
-0.848112
-0.854983
-0.702635
-0.701866
-0.707291
-0.707639
-0.706401
-0.711231
-0.711383
-0.712529
-0.716989
-0.721129
-0.724101
-0.726317
-0.731176
-0.734711
-0.740955
-0.746788
-0.752479
-0.75694
-0.760858
-0.770775
-0.774331
-0.783415
-0.785182
-0.793433
-0.80179
-0.810208
-0.820523
-0.826905
-0.832522
-0.840927
-0.850278
-0.859219
-0.867393
-0.721891
-0.721135
-0.722266
-0.722054
-0.723552
-0.72456
-0.725312
-0.730849
-0.729268
-0.73305
-0.736435
-0.739074
-0.747633
-0.749263
-0.756416
-0.763623
-0.769932
-0.775086
-0.779117
-0.782311
-0.788142
-0.795843
-0.805808
-0.811351
-0.819677
-0.825645
-0.836352
-0.843295
-0.849753
-0.855176
-0.863587
-0.872959
-0.881302
-0.740034
-0.739057
-0.743177
-0.740034
-0.74217
-0.743785
-0.747263
-0.751075
-0.750096
-0.754506
-0.758644
-0.761398
-0.766383
-0.771679
-0.775782
-0.780039
-0.786806
-0.793124
-0.797996
-0.802234
-0.808893
-0.816501
-0.823217
-0.831908
-0.83344
-0.841797
-0.850317
-0.858865
-0.866022
-0.875084
-0.880588
-0.888999
-0.898084
-0.765408
-0.766436
-0.764381
-0.767868
-0.768037
-0.769956
-0.773522
-0.772678
-0.771535
-0.776746
-0.781393
-0.78481
-0.786853
-0.791193
-0.796951
-0.805087
-0.805441
-0.811334
-0.816778
-0.821681
-0.828925
-0.837078
-0.843631
-0.845967
-0.855329
-0.864456
-0.868634
-0.872625
-0.883281
-0.889994
-0.896271
-0.901773
-0.91447
-0.784443
-0.785617
-0.782956
-0.786133
-0.781843
-0.783173
-0.784447
-0.791961
-0.792052
-0.797915
-0.802329
-0.802078
-0.809062
-0.811866
-0.813861
-0.821213
-0.824584
-0.828207
-0.834387
-0.840003
-0.847577
-0.851236
-0.854536
-0.864787
-0.868089
-0.877906
-0.886522
-0.890107
-0.896961
-0.903722
-0.910286
-0.915681
-0.92015
-0.778869
-0.778031
-0.780213
-0.780455
-0.783337
-0.782686
-0.783624
-0.786783
-0.78616
-0.793327
-0.7968
-0.801632
-0.804903
-0.807062
-0.810509
-0.811334
-0.819057
-0.825801
-0.824587
-0.829681
-0.834665
-0.843001
-0.851605
-0.856175
-0.861882
-0.86819
-0.873243
-0.881149
-0.885102
-0.88634
-0.8919
-0.901012
-0.906424
-0.745917
-0.744475
-0.742067
-0.74553
-0.741264
-0.742939
-0.744523
-0.74858
-0.752595
-0.752818
-0.759047
-0.764646
-0.768754
-0.771932
-0.773669
-0.774575
-0.782138
-0.786005
-0.789279
-0.795471
-0.801533
-0.806904
-0.811048
-0.817595
-0.820271
-0.827207
-0.83277
-0.840748
-0.841103
-0.848167
-0.855662
-0.86193
-0.86725
-0.600502
-0.605734
-0.604354
-0.606646
-0.608131
-0.608122
-0.61019
-0.610312
-0.613045
-0.619386
-0.623384
-0.623214
-0.628219
-0.63401
-0.639181
-0.646857
-0.653344
-0.658425
-0.663019
-0.669967
-0.677441
-0.684674
-0.691286
-0.700553
-0.710167
-0.718961
-0.723791
-0.735456
-0.746648
-0.754225
-0.764459
-0.775222
-0.78558
-0.605122
-0.606107
-0.603404
-0.606202
-0.607708
-0.607971
-0.612563
-0.610501
-0.613608
-0.619568
-0.624877
-0.627556
-0.629539
-0.633154
-0.637687
-0.647519
-0.650832
-0.658968
-0.660842
-0.6679
-0.675317
-0.682232
-0.691197
-0.697512
-0.70739
-0.716954
-0.728446
-0.734335
-0.744801
-0.75141
-0.76174
-0.772176
-0.785227
-0.605119
-0.604456
-0.60852
-0.609182
-0.610693
-0.613088
-0.611666
-0.615534
-0.618998
-0.621448
-0.625843
-0.629324
-0.634837
-0.639717
-0.643724
-0.64727
-0.656123
-0.659125
-0.667069
-0.675086
-0.682919
-0.689629
-0.69587
-0.704362
-0.709996
-0.722123
-0.728062
-0.738616
-0.746163
-0.75673
-0.767954
-0.779358
-0.789561
-0.609609
-0.608686
-0.609234
-0.608719
-0.609739
-0.613672
-0.616009
-0.620258
-0.620983
-0.625003
-0.625872
-0.632301
-0.636201
-0.641311
-0.647923
-0.651592
-0.657844
-0.663528
-0.671404
-0.679527
-0.687454
-0.694238
-0.700553
-0.706305
-0.714482
-0.723583
-0.732431
-0.743119
-0.75086
-0.761361
-0.772194
-0.78253
-0.788631
-0.610398
-0.609891
-0.614101
-0.614575
-0.615828
-0.617868
-0.616056
-0.619604
-0.622935
-0.62535
-0.629618
-0.632777
-0.637592
-0.642821
-0.647598
-0.654998
-0.661687
-0.666983
-0.671914
-0.679133
-0.686736
-0.694292
-0.700236
-0.708508
-0.714174
-0.726424
-0.732175
-0.74405
-0.755148
-0.762845
-0.773312
-0.784162
-0.794694
-0.616519
-0.618734
-0.619939
-0.619647
-0.621015
-0.623652
-0.625144
-0.625396
-0.628221
-0.633926
-0.638671
-0.641815
-0.643406
-0.647606
-0.652202
-0.659797
-0.666424
-0.671906
-0.676639
-0.683898
-0.69154
-0.699265
-0.705774
-0.713874
-0.719647
-0.731917
-0.73783
-0.748702
-0.756569
-0.767313
-0.778735
-0.790547
-0.80128
-0.6268
-0.624995
-0.624454
-0.626305
-0.627372
-0.628078
-0.631332
-0.636317
-0.639478
-0.641695
-0.645309
-0.649104
-0.654289
-0.656004
-0.663185
-0.667483
-0.673261
-0.678793
-0.683783
-0.69126
-0.699797
-0.707688
-0.71465
-0.720709
-0.729187
-0.738656
-0.747358
-0.754681
-0.763532
-0.774664
-0.781607
-0.791201
-0.804185
-0.636442
-0.63458
-0.633976
-0.636133
-0.637724
-0.638138
-0.640887
-0.641426
-0.645034
-0.651139
-0.653191
-0.655667
-0.661578
-0.664951
-0.672454
-0.676089
-0.679663
-0.689553
-0.695514
-0.700664
-0.70833
-0.716483
-0.723929
-0.730654
-0.739569
-0.745755
-0.758372
-0.764908
-0.776418
-0.784693
-0.795264
-0.805446
-0.811157
-0.646103
-0.648425
-0.649702
-0.649839
-0.651574
-0.651608
-0.653629
-0.655701
-0.660103
-0.663312
-0.667804
-0.671651
-0.674892
-0.680184
-0.685795
-0.690462
-0.694764
-0.702052
-0.708404
-0.716295
-0.718267
-0.725796
-0.733718
-0.744522
-0.751566
-0.758585
-0.771316
-0.777598
-0.785485
-0.79609
-0.803593
-0.814558
-0.826457
-0.665252
-0.66568
-0.662804
-0.665385
-0.667702
-0.668993
-0.672891
-0.675417
-0.679703
-0.682764
-0.684954
-0.686386
-0.693426
-0.699778
-0.69869
-0.703321
-0.710983
-0.719356
-0.724229
-0.733523
-0.73877
-0.747878
-0.754259
-0.762948
-0.773213
-0.780073
-0.786532
-0.795054
-0.800403
-0.81241
-0.820543
-0.832474
-0.843431
-0.688974
-0.68707
-0.686563
-0.686911
-0.689212
-0.69007
-0.69366
-0.697017
-0.70187
-0.702032
-0.704623
-0.710499
-0.715776
-0.719381
-0.721233
-0.72646
-0.731723
-0.737454
-0.748485
-0.752646
-0.758331
-0.765374
-0.774911
-0.783349
-0.786768
-0.793116
-0.803821
-0.815227
-0.82247
-0.831583
-0.843774
-0.848806
-0.859587
-0.713026
-0.715695
-0.714141
-0.716209
-0.714144
-0.715362
-0.719968
-0.723894
-0.726992
-0.731892
-0.735097
-0.737627
-0.741283
-0.741517
-0.74844
-0.75564
-0.76205
-0.767333
-0.772327
-0.775789
-0.781833
-0.789625
-0.799534
-0.804946
-0.812864
-0.821415
-0.829273
-0.836599
-0.846411
-0.852834
-0.865927
-0.871326
-0.878355
-0.738566
-0.737465
-0.737752
-0.738985
-0.741665
-0.743205
-0.743353
-0.746254
-0.749523
-0.754464
-0.754124
-0.756415
-0.763242
-0.76842
-0.772809
-0.776318
-0.782622
-0.788794
-0.793714
-0.797943
-0.801672
-0.812111
-0.816144
-0.826243
-0.835536
-0.840213
-0.847504
-0.855099
-0.86187
-0.868368
-0.877498
-0.887471
-0.896455
-0.731324
-0.734951
-0.734272
-0.73733
-0.733045
-0.734005
-0.738287
-0.74256
-0.743126
-0.748772
-0.753516
-0.756853
-0.759605
-0.760827
-0.76467
-0.769335
-0.776455
-0.778348
-0.782469
-0.787937
-0.797367
-0.805368
-0.808857
-0.818903
-0.822059
-0.831307
-0.839702
-0.842702
-0.848791
-0.856259
-0.867785
-0.875269
-0.883496
-0.690359
-0.689155
-0.689701
-0.691012
-0.693137
-0.691466
-0.696783
-0.698061
-0.700996
-0.703068
-0.703976
-0.707757
-0.711599
-0.718578
-0.720817
-0.725155
-0.732792
-0.736068
-0.737612
-0.742651
-0.748563
-0.757998
-0.765778
-0.769386
-0.77934
-0.78259
-0.791225
-0.795524
-0.799775
-0.808101
-0.816045
-0.822523
-0.831435
-0.550535
-0.549668
-0.549889
-0.549251
-0.552889
-0.555021
-0.552611
-0.555055
-0.557457
-0.56441
-0.564953
-0.569506
-0.574677
-0.58207
-0.588629
-0.593545
-0.597817
-0.60407
-0.610524
-0.616207
-0.624933
-0.633868
-0.642226
-0.653101
-0.658008
-0.668118
-0.681446
-0.690922
-0.696999
-0.709333
-0.721601
-0.730397
-0.741429
-0.550112
-0.549366
-0.552734
-0.5527
-0.553754
-0.556241
-0.557945
-0.561186
-0.563467
-0.567082
-0.569669
-0.571684
-0.578554
-0.582533
-0.587734
-0.594675
-0.595796
-0.602386
-0.608363
-0.617508
-0.626938
-0.635745
-0.640447
-0.650511
-0.658113
-0.668292
-0.678986
-0.689491
-0.69941
-0.711578
-0.720406
-0.731512
-0.73942
-0.549008
-0.5506
-0.551419
-0.553208
-0.553998
-0.553357
-0.557696
-0.561333
-0.562937
-0.563628
-0.569563
-0.575032
-0.579332
-0.583126
-0.588761
-0.59413
-0.601287
-0.608438
-0.615067
-0.621065
-0.628678
-0.633938
-0.644984
-0.650275
-0.66084
-0.671409
-0.67773
-0.686689
-0.698726
-0.70788
-0.719919
-0.732064
-0.743963
-0.552264
-0.551595
-0.554962
-0.557412
-0.558342
-0.558037
-0.562517
-0.563576
-0.567651
-0.568286
-0.573983
-0.576896
-0.583597
-0.587272
-0.592877
-0.598238
-0.605493
-0.612675
-0.619337
-0.625412
-0.630834
-0.638544
-0.646959
-0.654709
-0.664632
-0.671768
-0.681046
-0.690712
-0.702866
-0.712
-0.720653
-0.731986
-0.746567
-0.555292
-0.557524
-0.55789
-0.55942
-0.559819
-0.559011
-0.563103
-0.566613
-0.568781
-0.57269
-0.575506
-0.579624
-0.583495
-0.586987
-0.595519
-0.597877
-0.605413
-0.612793
-0.619639
-0.625848
-0.634184
-0.643005
-0.650783
-0.65803
-0.666037
-0.677091
-0.687266
-0.695824
-0.704396
-0.713873
-0.729638
-0.738833
-0.749725
-0.560591
-0.562857
-0.563236
-0.562347
-0.566148
-0.568465
-0.569537
-0.571428
-0.573548
-0.577479
-0.579861
-0.584608
-0.589268
-0.595878
-0.602403
-0.607655
-0.61168
-0.618037
-0.624473
-0.630657
-0.639079
-0.648338
-0.656763
-0.661176
-0.671838
-0.682708
-0.689086
-0.697956
-0.709943
-0.719203
-0.731462
-0.744351
-0.756171
-0.570895
-0.569762
-0.571943
-0.570888
-0.574378
-0.574486
-0.578656
-0.581588
-0.583157
-0.583987
-0.589905
-0.595316
-0.599685
-0.603027
-0.608503
-0.613317
-0.617938
-0.624785
-0.631745
-0.638359
-0.647285
-0.656975
-0.665817
-0.67036
-0.68068
-0.687673
-0.697754
-0.708388
-0.718786
-0.731322
-0.74022
-0.751389
-0.759418
-0.577403
-0.578993
-0.579666
-0.582017
-0.58301
-0.582724
-0.587374
-0.590759
-0.593132
-0.594353
-0.59956
-0.601575
-0.606073
-0.613846
-0.617921
-0.623151
-0.631448
-0.636362
-0.639767
-0.648161
-0.655048
-0.665363
-0.674514
-0.680179
-0.690691
-0.698578
-0.709423
-0.720857
-0.731766
-0.742169
-0.754108
-0.763022
-0.774239
-0.591491
-0.593676
-0.594089
-0.593628
-0.597439
-0.597411
-0.600194
-0.604886
-0.607979
-0.61226
-0.615706
-0.618004
-0.622852
-0.62769
-0.63216
-0.638982
-0.644742
-0.652602
-0.656678
-0.663468
-0.670359
-0.677202
-0.684125
-0.696641
-0.705891
-0.71473
-0.723038
-0.734086
-0.744147
-0.750107
-0.761643
-0.771397
-0.78754
-0.615541
-0.61345
-0.610701
-0.612773
-0.613906
-0.614846
-0.621059
-0.626474
-0.630326
-0.632363
-0.633828
-0.639689
-0.641802
-0.643869
-0.651265
-0.659026
-0.663263
-0.669056
-0.677327
-0.685594
-0.689344
-0.696321
-0.707263
-0.715126
-0.724155
-0.732632
-0.740968
-0.749413
-0.760475
-0.772129
-0.782859
-0.795845
-0.805484
-0.641311
-0.639768
-0.640225
-0.638955
-0.639793
-0.640498
-0.646653
-0.645981
-0.64987
-0.653302
-0.661678
-0.664157
-0.66951
-0.671532
-0.676155
-0.681568
-0.689635
-0.696467
-0.699588
-0.708653
-0.717248
-0.72504
-0.728392
-0.735066
-0.748533
-0.755758
-0.764954
-0.774202
-0.782988
-0.794332
-0.805303
-0.811279
-0.823245
-0.672225
-0.671621
-0.672414
-0.67196
-0.672674
-0.674022
-0.677924
-0.680104
-0.684574
-0.688185
-0.691073
-0.6927
-0.6992
-0.699039
-0.704442
-0.710125
-0.717738
-0.722022
-0.729299
-0.735828
-0.745334
-0.754093
-0.754943
-0.764569
-0.771918
-0.779437
-0.790487
-0.800195
-0.808748
-0.818702
-0.831018
-0.838549
-0.84877
-0.695218
-0.701131
-0.699873
-0.703228
-0.705536
-0.706261
-0.706108
-0.704736
-0.70965
-0.714361
-0.717682
-0.720007
-0.728196
-0.729464
-0.735837
-0.741899
-0.747778
-0.752289
-0.756417
-0.762724
-0.769427
-0.775417
-0.784156
-0.793005
-0.801847
-0.810072
-0.817365
-0.823764
-0.829879
-0.842107
-0.850504
-0.854545
-0.866246
-0.687459
-0.68681
-0.691504
-0.688645
-0.690682
-0.692297
-0.69343
-0.699377
-0.698594
-0.703612
-0.707371
-0.710207
-0.714853
-0.719858
-0.723709
-0.727778
-0.734623
-0.739956
-0.74464
-0.748395
-0.755104
-0.762042
-0.768262
-0.778007
-0.784665
-0.794141
-0.802783
-0.810216
-0.817204
-0.826267
-0.832115
-0.844272
-0.849978
-0.636037
-0.637727
-0.635608
-0.635792
-0.63447
-0.636452
-0.641581
-0.645619
-0.644666
-0.649861
-0.654701
-0.658483
-0.661366
-0.66369
-0.671199
-0.673032
-0.679518
-0.685359
-0.687405
-0.696093
-0.701293
-0.705042
-0.711385
-0.717883
-0.724138
-0.734146
-0.741168
-0.750769
-0.759429
-0.76679
-0.7769
-0.783152
-0.78901
-0.497487
-0.49625
-0.499578
-0.501357
-0.501386
-0.499766
-0.502606
-0.505564
-0.509722
-0.512331
-0.51617
-0.520336
-0.526147
-0.531554
-0.538062
-0.544043
-0.549773
-0.557466
-0.565481
-0.572962
-0.582169
-0.58861
-0.597425
-0.606769
-0.615668
-0.626636
-0.63435
-0.644246
-0.657582
-0.667948
-0.681185
-0.69366
-0.702561
-0.49781
-0.499157
-0.499736
-0.501043
-0.501836
-0.503167
-0.504012
-0.50897
-0.513383
-0.515655
-0.517517
-0.523593
-0.529447
-0.534133
-0.537334
-0.542886
-0.548957
-0.55958
-0.565023
-0.571801
-0.581453
-0.590794
-0.596942
-0.605245
-0.616305
-0.624631
-0.635241
-0.646493
-0.657418
-0.670464
-0.680511
-0.693312
-0.705076
-0.500902
-0.50155
-0.498289
-0.499832
-0.503064
-0.505736
-0.506347
-0.510576
-0.51134
-0.51676
-0.521208
-0.52412
-0.526578
-0.533938
-0.541457
-0.548177
-0.553745
-0.558934
-0.56591
-0.575452
-0.580221
-0.589659
-0.599329
-0.611161
-0.619659
-0.630582
-0.638423
-0.648647
-0.661948
-0.672367
-0.684864
-0.694302
-0.706375
-0.500982
-0.502279
-0.50242
-0.503449
-0.504006
-0.506904
-0.510849
-0.51263
-0.51578
-0.518125
-0.52281
-0.528025
-0.530412
-0.537628
-0.54508
-0.551664
-0.557073
-0.562298
-0.569553
-0.576723
-0.584207
-0.593652
-0.603396
-0.615268
-0.624124
-0.631992
-0.642419
-0.652437
-0.662096
-0.672296
-0.681855
-0.696871
-0.710225
-0.50434
-0.506082
-0.505711
-0.506409
-0.506858
-0.511647
-0.512493
-0.516853
-0.51714
-0.521887
-0.52619
-0.530019
-0.535649
-0.540328
-0.546879
-0.552826
-0.558663
-0.564223
-0.574341
-0.582079
-0.591335
-0.595513
-0.607115
-0.616439
-0.625462
-0.63652
-0.644273
-0.654134
-0.667392
-0.677836
-0.690476
-0.699737
-0.71185
-0.507951
-0.508882
-0.509252
-0.510254
-0.513036
-0.514984
-0.518111
-0.520065
-0.522676
-0.525297
-0.529556
-0.535485
-0.541105
-0.545852
-0.552433
-0.558897
-0.564243
-0.569247
-0.576334
-0.586077
-0.59099
-0.600719
-0.610662
-0.622746
-0.631389
-0.642523
-0.650467
-0.660457
-0.669923
-0.682926
-0.692491
-0.705148
-0.718577
-0.519211
-0.518076
-0.520673
-0.522096
-0.521574
-0.519927
-0.52256
-0.524435
-0.53029
-0.532447
-0.536889
-0.544003
-0.547172
-0.551271
-0.557858
-0.564734
-0.570752
-0.57695
-0.587623
-0.593171
-0.599997
-0.609937
-0.620012
-0.628935
-0.63678
-0.644764
-0.658872
-0.667792
-0.67799
-0.69114
-0.701104
-0.713492
-0.722082
-0.524965
-0.528939
-0.526615
-0.52771
-0.530764
-0.532943
-0.536576
-0.538641
-0.539834
-0.545588
-0.550647
-0.554516
-0.558119
-0.565779
-0.570489
-0.577299
-0.584188
-0.590458
-0.595681
-0.603543
-0.613686
-0.621309
-0.628646
-0.640934
-0.646521
-0.654148
-0.665851
-0.678046
-0.68958
-0.699732
-0.712926
-0.72275
-0.735544
-0.54634
-0.544592
-0.543717
-0.545593
-0.549319
-0.549676
-0.553775
-0.556439
-0.558087
-0.563692
-0.565831
-0.570285
-0.574284
-0.581086
-0.586785
-0.594205
-0.597978
-0.604019
-0.61066
-0.622354
-0.628664
-0.635941
-0.6462
-0.653445
-0.663241
-0.673173
-0.682634
-0.694386
-0.702624
-0.712503
-0.726145
-0.736841
-0.749566
-0.566694
-0.56804
-0.56862
-0.571065
-0.572209
-0.57454
-0.576522
-0.580449
-0.582471
-0.586204
-0.589711
-0.595233
-0.599968
-0.603822
-0.609124
-0.614135
-0.619264
-0.6278
-0.63533
-0.644831
-0.650824
-0.658305
-0.663626
-0.675043
-0.685683
-0.69262
-0.702368
-0.71472
-0.723861
-0.73513
-0.743071
-0.757479
-0.768724
-0.601688
-0.600774
-0.601153
-0.600187
-0.601225
-0.607119
-0.606803
-0.610534
-0.613069
-0.614784
-0.621234
-0.624423
-0.629528
-0.633982
-0.638194
-0.644737
-0.651128
-0.658947
-0.663186
-0.670303
-0.677305
-0.68355
-0.692115
-0.70136
-0.710004
-0.720698
-0.727344
-0.737465
-0.747696
-0.757377
-0.768955
-0.777343
-0.792306
-0.637902
-0.637152
-0.638649
-0.641439
-0.643121
-0.643487
-0.645184
-0.646695
-0.650305
-0.655085
-0.656763
-0.660431
-0.663357
-0.668243
-0.67255
-0.677262
-0.686883
-0.690451
-0.697876
-0.702423
-0.709845
-0.717086
-0.723675
-0.730416
-0.743256
-0.750174
-0.761304
-0.769051
-0.779637
-0.791034
-0.801402
-0.811258
-0.820307
-0.664663
-0.66382
-0.667113
-0.663947
-0.665329
-0.666483
-0.671994
-0.671314
-0.674783
-0.678202
-0.680499
-0.684483
-0.688981
-0.695224
-0.696828
-0.70118
-0.70984
-0.714272
-0.720101
-0.72664
-0.73549
-0.739747
-0.746997
-0.754127
-0.762023
-0.772818
-0.782448
-0.788045
-0.79947
-0.807088
-0.817854
-0.826452
-0.840378
-0.642162
-0.64151
-0.645491
-0.645456
-0.644681
-0.646698
-0.65338
-0.653466
-0.65789
-0.661914
-0.665015
-0.666876
-0.66867
-0.675302
-0.678016
-0.683674
-0.689066
-0.693726
-0.697862
-0.705547
-0.712338
-0.721979
-0.728168
-0.732835
-0.740193
-0.748343
-0.75893
-0.769768
-0.776772
-0.785339
-0.794498
-0.803423
-0.815263
-0.579302
-0.578987
-0.58333
-0.580768
-0.583553
-0.585132
-0.586489
-0.5923
-0.592135
-0.596817
-0.601077
-0.603889
-0.606504
-0.614223
-0.615738
-0.622425
-0.628413
-0.630332
-0.638834
-0.644332
-0.648778
-0.655128
-0.661713
-0.667416
-0.676576
-0.686064
-0.695544
-0.704004
-0.711939
-0.719024
-0.729035
-0.739221
-0.748722
-0.45001
-0.45112
-0.451113
-0.451497
-0.451462
-0.455448
-0.457644
-0.45871
-0.464163
-0.467932
-0.471321
-0.47874
-0.483003
-0.491192
-0.495971
-0.502734
-0.509003
-0.515012
-0.523002
-0.533208
-0.540951
-0.550697
-0.560179
-0.569596
-0.579292
-0.592676
-0.600649
-0.611072
-0.621874
-0.634898
-0.644903
-0.657305
-0.672772
-0.449402
-0.450957
-0.450672
-0.452121
-0.454672
-0.455839
-0.457501
-0.45832
-0.463222
-0.46795
-0.473603
-0.478835
-0.484802
-0.490241
-0.494848
-0.501513
-0.510803
-0.517103
-0.525099
-0.53209
-0.539715
-0.549449
-0.561907
-0.571344
-0.579856
-0.59145
-0.602411
-0.610256
-0.622766
-0.632813
-0.645552
-0.658887
-0.67175
-0.452664
-0.453883
-0.453234
-0.454462
-0.456427
-0.457485
-0.459367
-0.460404
-0.465707
-0.469758
-0.473364
-0.479597
-0.483084
-0.488242
-0.498454
-0.503616
-0.512452
-0.5188
-0.526673
-0.53502
-0.544832
-0.554496
-0.560735
-0.569553
-0.580694
-0.589236
-0.602847
-0.61417
-0.62544
-0.638697
-0.648643
-0.661042
-0.676027
-0.453086
-0.454283
-0.453919
-0.454508
-0.457261
-0.46117
-0.463402
-0.46421
-0.46882
-0.473023
-0.475982
-0.482542
-0.485989
-0.491114
-0.501168
-0.505804
-0.511987
-0.520218
-0.529318
-0.537998
-0.548435
-0.555368
-0.564224
-0.573315
-0.584571
-0.593379
-0.604462
-0.618367
-0.629512
-0.643225
-0.652755
-0.664819
-0.674019
-0.457736
-0.458955
-0.458142
-0.458687
-0.461423
-0.465161
-0.466641
-0.466992
-0.471505
-0.474852
-0.480395
-0.484693
-0.491439
-0.49707
-0.504391
-0.508714
-0.517324
-0.523395
-0.531556
-0.542294
-0.549829
-0.559684
-0.566428
-0.57848
-0.588093
-0.598954
-0.609739
-0.620252
-0.631299
-0.644611
-0.65474
-0.667038
-0.682196
-0.463312
-0.461826
-0.463487
-0.463891
-0.462844
-0.465808
-0.467952
-0.474124
-0.479184
-0.482678
-0.4852
-0.491622
-0.495478
-0.503108
-0.510752
-0.51507
-0.52374
-0.529888
-0.53789
-0.546411
-0.556851
-0.563836
-0.572695
-0.581756
-0.592974
-0.601539
-0.61268
-0.627019
-0.638272
-0.651744
-0.661827
-0.673735
-0.683008
-0.467584
-0.465566
-0.467825
-0.468591
-0.473254
-0.474367