/*--------------------------------*- C++ -*----------------------------------*\
| =========                 |                                                 |
| \\      /  F ield         | OpenFOAM: The Open Source CFD Toolbox           |
|  \\    /   O peration     | Version:  2412                                  |
|   \\  /    A nd           | Website:  www.openfoam.com                      |
|    \\/     M anipulation  |                                                 |
\*---------------------------------------------------------------------------*/
FoamFile
{
    version     2.0;
    format      ascii;
    arch        "LSB;label=32;scalar=64";
    class       volScalarField;
    location    "0.0350058";
    object      Jsi;
}
// * * * * * * * * * * * * * * * * * * * * * * * * * * * * * * * * * * * * * //

dimensions      [0 0 0 0 0 0 0];

internalField   nonuniform List<scalar> 
8679
(
-0.24154
-0.24159
-0.241476
-0.241299
-0.241173
-0.241006
-0.240805
-0.240603
-0.24033
-0.240035
-0.239596
-0.239202
-0.238782
-0.238379
-0.2379
-0.237329
-0.236824
-0.236296
-0.23572
-0.235053
-0.234409
-0.233683
-0.232905
-0.232102
-0.231371
-0.230527
-0.229744
-0.228935
-0.228021
-0.227081
-0.226163
-0.225218
-0.224229
-0.24157
-0.241509
-0.241397
-0.241329
-0.241168
-0.240941
-0.240767
-0.240537
-0.240204
-0.239929
-0.239611
-0.2392
-0.238813
-0.238336
-0.237809
-0.237327
-0.236717
-0.236162
-0.235578
-0.234946
-0.234269
-0.233551
-0.232799
-0.232113
-0.231307
-0.230543
-0.229659
-0.228837
-0.227974
-0.227003
-0.226061
-0.225106
-0.224124
-0.241334
-0.241284
-0.241272
-0.241118
-0.240997
-0.240825
-0.240592
-0.240303
-0.240053
-0.23966
-0.23932
-0.238951
-0.238535
-0.238072
-0.23766
-0.23712
-0.236626
-0.236094
-0.235452
-0.234758
-0.234144
-0.233484
-0.232726
-0.23194
-0.231215
-0.230367
-0.229577
-0.228745
-0.227774
-0.226872
-0.225962
-0.225016
-0.224031
-0.248675
-0.248635
-0.248587
-0.248466
-0.24834
-0.248164
-0.24794
-0.247713
-0.247431
-0.247146
-0.246812
-0.24643
-0.245995
-0.245515
-0.245076
-0.24451
-0.243988
-0.243435
-0.242831
-0.242184
-0.241503
-0.240877
-0.240129
-0.239422
-0.238597
-0.237832
-0.237048
-0.236235
-0.235375
-0.23448
-0.233544
-0.232573
-0.231602
-0.248584
-0.248534
-0.248514
-0.248358
-0.24823
-0.248054
-0.247834
-0.247643
-0.247316
-0.247027
-0.2467
-0.246322
-0.245899
-0.24548
-0.245003
-0.244511
-0.243887
-0.243303
-0.242697
-0.242058
-0.241483
-0.240776
-0.240058
-0.239333
-0.238605
-0.237738
-0.236931
-0.236108
-0.235246
-0.234348
-0.233411
-0.232475
-0.231476
-0.248531
-0.248466
-0.248354
-0.248286
-0.248178
-0.247999
-0.247763
-0.247476
-0.247217
-0.246823
-0.246471
-0.246096
-0.245775
-0.24532
-0.244848
-0.244317
-0.243796
-0.243247
-0.242649
-0.242007
-0.241332
-0.240713
-0.23997
-0.239267
-0.238444
-0.237675
-0.236882
-0.236032
-0.235085
-0.23417
-0.233307
-0.232364
-0.231397
-0.248343
-0.248275
-0.248158
-0.24809
-0.247978
-0.247806
-0.247566
-0.247279
-0.24702
-0.246623
-0.24627
-0.245896
-0.245532
-0.245112
-0.244639
-0.244108
-0.243585
-0.243034
-0.242435
-0.241795
-0.241121
-0.240501
-0.239756
-0.239055
-0.238233
-0.237461
-0.236651
-0.235734
-0.234837
-0.233926
-0.233009
-0.23212
-0.231138
-0.247957
-0.247901
-0.247875
-0.247714
-0.247582
-0.247406
-0.247184
-0.246987
-0.24666
-0.246363
-0.246025
-0.245644
-0.245223
-0.244799
-0.24432
-0.243791
-0.243201
-0.242615
-0.24201
-0.241379
-0.24081
-0.240104
-0.23935
-0.238667
-0.237944
-0.237084
-0.236276
-0.235451
-0.234591
-0.233697
-0.232762
-0.231794
-0.230824
-0.255266
-0.255312
-0.255224
-0.255158
-0.255035
-0.254843
-0.254592
-0.254292
-0.254041
-0.25376
-0.253431
-0.253054
-0.252683
-0.252255
-0.251829
-0.251321
-0.250803
-0.25023
-0.249652
-0.248998
-0.248397
-0.247683
-0.246998
-0.246234
-0.245443
-0.244661
-0.243852
-0.243038
-0.242151
-0.241234
-0.240382
-0.239416
-0.238495
-0.255312
-0.255251
-0.255141
-0.255068
-0.254945
-0.254766
-0.254537
-0.254327
-0.253991
-0.253689
-0.253352
-0.25297
-0.252629
-0.252161
-0.251722
-0.251252
-0.250733
-0.250162
-0.249543
-0.248892
-0.248288
-0.247569
-0.246904
-0.24621
-0.245459
-0.244612
-0.243772
-0.242929
-0.242111
-0.241208
-0.24029
-0.239297
-0.238366
-0.255138
-0.255089
-0.255075
-0.254964
-0.254778
-0.254593
-0.25445
-0.25419
-0.253952
-0.25363
-0.253318
-0.252921
-0.252481
-0.252075
-0.251546
-0.251054
-0.25053
-0.24998
-0.249434
-0.248828
-0.248137
-0.2475
-0.246826
-0.246025
-0.245275
-0.244499
-0.243691
-0.242837
-0.241983
-0.241065
-0.240169
-0.239225
-0.238195
-0.254985
-0.254924
-0.254891
-0.254725
-0.254586
-0.254417
-0.254248
-0.254019
-0.253779
-0.253454
-0.253108
-0.252738
-0.252295
-0.251886
-0.251354
-0.250863
-0.250339
-0.249787
-0.249239
-0.248635
-0.247943
-0.247294
-0.246529
-0.245815
-0.245076
-0.24431
-0.243502
-0.242649
-0.241793
-0.240864
-0.239913
-0.239019
-0.238011
-0.254729
-0.254696
-0.25458
-0.254495
-0.254368
-0.254185
-0.253949
-0.253708
-0.253402
-0.253089
-0.252744
-0.252364
-0.252014
-0.251544
-0.251109
-0.250634
-0.250077
-0.249538
-0.248925
-0.248273
-0.247677
-0.246967
-0.246297
-0.245592
-0.244752
-0.243951
-0.243134
-0.242322
-0.241447
-0.240592
-0.239691
-0.23871
-0.23778
-0.254296
-0.254229
-0.254111
-0.254031
-0.25391
-0.253733
-0.2535
-0.253257
-0.252954
-0.252641
-0.252313
-0.251983
-0.25159
-0.251096
-0.250654
-0.250182
-0.249668
-0.249097
-0.248483
-0.247833
-0.247237
-0.246525
-0.245858
-0.245154
-0.244313
-0.243514
-0.2427
-0.241887
-0.241001
-0.240087
-0.239196
-0.238257
-0.237233
-0.253677
-0.25363
-0.253564
-0.253446
-0.253313
-0.253126
-0.252899
-0.252713
-0.252434
-0.25208
-0.251732
-0.251396
-0.250998
-0.250503
-0.250062
-0.249593
-0.249082
-0.248514
-0.2479
-0.247249
-0.246657
-0.245947
-0.245268
-0.244463
-0.243714
-0.242945
-0.242148
-0.241307
-0.240429
-0.239556
-0.238609
-0.23768
-0.236702
-0.252805
-0.252818
-0.252773
-0.252674
-0.252563
-0.252391
-0.252151
-0.251903
-0.251663
-0.251342
-0.251004
-0.250622
-0.250225
-0.249791
-0.249308
-0.24883
-0.248319
-0.247754
-0.247136
-0.246476
-0.245785
-0.245153
-0.244402
-0.243701
-0.242982
-0.242214
-0.241346
-0.2405
-0.239644
-0.238812
-0.237889
-0.236948
-0.235931
-0.251784
-0.251744
-0.251734
-0.251583
-0.251461
-0.251311
-0.251156
-0.250933
-0.250649
-0.250306
-0.249958
-0.249582
-0.249216
-0.248783
-0.248259
-0.247792
-0.247294
-0.246746
-0.246152
-0.245506
-0.244826
-0.244203
-0.24346
-0.242762
-0.241986
-0.24119
-0.2404
-0.239584
-0.238727
-0.237831
-0.236931
-0.235952
-0.234939
-0.250574
-0.250582
-0.250526
-0.250409
-0.250223
-0.250033
-0.249813
-0.249634
-0.249319
-0.249041
-0.248726
-0.248358
-0.247934
-0.24747
-0.247063
-0.24658
-0.246032
-0.245484
-0.244893
-0.244265
-0.243602
-0.242995
-0.242257
-0.241509
-0.240756
-0.240008
-0.239169
-0.238339
-0.237491
-0.236601
-0.235669
-0.234705
-0.233744
-0.249139
-0.249075
-0.248968
-0.2489
-0.248786
-0.248616
-0.24839
-0.24811
-0.247816
-0.247508
-0.247203
-0.246845
-0.24643
-0.24598
-0.245577
-0.245055
-0.244567
-0.24403
-0.243386
-0.242762
-0.242168
-0.241496
-0.240758
-0.240017
-0.239298
-0.238466
-0.237696
-0.236903
-0.236071
-0.235186
-0.234203
-0.233297
-0.232318
-0.247222
-0.247169
-0.247119
-0.247008
-0.246894
-0.246732
-0.246509
-0.246238
-0.245968
-0.245651
-0.245343
-0.244994
-0.244593
-0.244155
-0.243735
-0.243255
-0.242727
-0.242146
-0.24157
-0.240959
-0.240319
-0.239633
-0.238914
-0.238245
-0.23745
-0.236646
-0.235834
-0.235034
-0.234135
-0.233253
-0.232351
-0.231412
-0.230434
-0.244968
-0.244962
-0.244919
-0.244806
-0.244655
-0.244499
-0.244284
-0.244012
-0.243733
-0.243446
-0.24314
-0.24273
-0.24234
-0.241968
-0.241505
-0.241019
-0.240498
-0.239926
-0.239367
-0.238736
-0.2381
-0.237418
-0.236737
-0.235976
-0.235181
-0.234449
-0.233599
-0.232789
-0.231887
-0.231018
-0.230136
-0.229217
-0.228251
-0.24244
-0.242398
-0.242356
-0.242253
-0.242107
-0.241952
-0.241742
-0.241478
-0.241205
-0.240909
-0.240566
-0.240181
-0.239797
-0.239362
-0.238914
-0.238382
-0.237873
-0.237306
-0.236746
-0.236143
-0.235401
-0.234714
-0.234063
-0.233395
-0.232626
-0.231812
-0.23105
-0.23017
-0.229328
-0.228401
-0.227502
-0.22659
-0.225645
-0.240226
-0.240166
-0.240092
-0.239978
-0.239803
-0.239634
-0.239424
-0.239163
-0.238867
-0.238621
-0.238246
-0.237921
-0.237558
-0.237136
-0.236655
-0.236126
-0.235617
-0.235053
-0.23449
-0.233799
-0.233162
-0.232501
-0.231803
-0.231063
-0.230275
-0.229498
-0.228713
-0.227882
-0.227013
-0.226098
-0.225164
-0.224238
-0.223214
-0.261525
-0.261476
-0.261447
-0.261283
-0.261135
-0.260955
-0.260794
-0.260508
-0.260251
-0.259961
-0.259625
-0.259324
-0.258901
-0.258503
-0.258078
-0.2576
-0.257072
-0.2565
-0.255964
-0.255315
-0.254716
-0.25409
-0.253421
-0.252707
-0.251954
-0.251152
-0.250346
-0.249473
-0.248611
-0.247703
-0.246754
-0.245827
-0.244834
-0.261465
-0.261411
-0.261393
-0.261279
-0.261105
-0.260963
-0.260771
-0.260522
-0.260219
-0.259925
-0.259636
-0.259296
-0.2589
-0.258451
-0.258
-0.257512
-0.256988
-0.256505
-0.255899
-0.255321
-0.254632
-0.253977
-0.253303
-0.252588
-0.251831
-0.25103
-0.250223
-0.249349
-0.248532
-0.2476
-0.246704
-0.24573
-0.244771
-0.261438
-0.261375
-0.261262
-0.261187
-0.261056
-0.260861
-0.260626
-0.26043
-0.260195
-0.2599
-0.259553
-0.259156
-0.258805
-0.25842
-0.257944
-0.25746
-0.256959
-0.256385
-0.255816
-0.255203
-0.254574
-0.253867
-0.253163
-0.252441
-0.251692
-0.250959
-0.250142
-0.249303
-0.24839
-0.247527
-0.246595
-0.245625
-0.244605
-0.261264
-0.261233
-0.261119
-0.261031
-0.2609
-0.26071
-0.26048
-0.260282
-0.260012
-0.25975
-0.259391
-0.258992
-0.258636
-0.258204
-0.257713
-0.257272
-0.256783
-0.256202
-0.255586
-0.255017
-0.254407
-0.253672
-0.252969
-0.252246
-0.251522
-0.250737
-0.249962
-0.249139
-0.248232
-0.247372
-0.246396
-0.245464
-0.244446
-0.260975
-0.260922
-0.260855
-0.260723
-0.260578
-0.260391
-0.260232
-0.259946
-0.259683
-0.259377
-0.259037
-0.258723
-0.258293
-0.257892
-0.257452
-0.256973
-0.256436
-0.25586
-0.255322
-0.254674
-0.254075
-0.253447
-0.252775
-0.252056
-0.251296
-0.250492
-0.249687
-0.248815
-0.247953
-0.247048
-0.246096
-0.245136
-0.244175
-0.260554
-0.260504
-0.260437
-0.260306
-0.260178
-0.260049
-0.259866
-0.259614
-0.259305
-0.258999
-0.258708
-0.258364
-0.257957
-0.257496
-0.257034
-0.256544
-0.256025
-0.255506
-0.254941
-0.254327
-0.253681
-0.25304
-0.252364
-0.251642
-0.250881
-0.250078
-0.249238
-0.248403
-0.247545
-0.246639
-0.245694
-0.244736
-0.243779
-0.259987
-0.259984
-0.259918
-0.259805
-0.259672
-0.259492
-0.259295
-0.259072
-0.258827
-0.25853
-0.258176
-0.257815
-0.257405
-0.256937
-0.256478
-0.255985
-0.255464
-0.254944
-0.254365
-0.253702
-0.253101
-0.252474
-0.251785
-0.251003
-0.250223
-0.249434
-0.248666
-0.247853
-0.246961
-0.246106
-0.24512
-0.244133
-0.243171
-0.259246
-0.259198
-0.259128
-0.259002
-0.258878
-0.258757
-0.258527
-0.258269
-0.258021
-0.257737
-0.257401
-0.257064
-0.256674
-0.256239
-0.255785
-0.255252
-0.254763
-0.254201
-0.253613
-0.252951
-0.252349
-0.251714
-0.250944
-0.250218
-0.249466
-0.248715
-0.247892
-0.247038
-0.246202
-0.245317
-0.244381
-0.243415
-0.242403
-0.258223
-0.258178
-0.258173
-0.258065
-0.257898
-0.257769
-0.257543
-0.257293
-0.257049
-0.256764
-0.256427
-0.256045
-0.255661
-0.255226
-0.254791
-0.254316
-0.253803
-0.253239
-0.252633
-0.252068
-0.251392
-0.250752
-0.249988
-0.249277
-0.24854
-0.247774
-0.246999
-0.246141
-0.24524
-0.244344
-0.24343
-0.242479
-0.241488
-0.25706
-0.257011
-0.256946
-0.256825
-0.256687
-0.256507
-0.256287
-0.256091
-0.255767
-0.255475
-0.255144
-0.25477
-0.254437
-0.253982
-0.253563
-0.253111
-0.252612
-0.25206
-0.251456
-0.250808
-0.250163
-0.249514
-0.248862
-0.248124
-0.247387
-0.246591
-0.245823
-0.244974
-0.244086
-0.243154
-0.242231
-0.24129
-0.240307
-0.255532
-0.25548
-0.25545
-0.255291
-0.255161
-0.254989
-0.254803
-0.254584
-0.254267
-0.253983
-0.253662
-0.253288
-0.252909
-0.252498
-0.252038
-0.251546
-0.251052
-0.250516
-0.249927
-0.249296
-0.248666
-0.248017
-0.247325
-0.246623
-0.2458
-0.245033
-0.244242
-0.243421
-0.242552
-0.241674
-0.240721
-0.239774
-0.238806
-0.253708
-0.25368
-0.253573
-0.253497
-0.253341
-0.25317
-0.252982
-0.2527
-0.252379
-0.252105
-0.25179
-0.251423
-0.251002
-0.250577
-0.250137
-0.249692
-0.249112
-0.248567
-0.247983
-0.247362
-0.24674
-0.246098
-0.245404
-0.244625
-0.243904
-0.243151
-0.242304
-0.241425
-0.240601
-0.2397
-0.238763
-0.237789
-0.236876
-0.251389
-0.251362
-0.251246
-0.251161
-0.250945
-0.250762
-0.250547
-0.250376
-0.250078
-0.249817
-0.2495
-0.249087
-0.248728
-0.248281
-0.247788
-0.247328
-0.246783
-0.246206
-0.24563
-0.245016
-0.244395
-0.243695
-0.24296
-0.242283
-0.241492
-0.240751
-0.239964
-0.239083
-0.238213
-0.237316
-0.236389
-0.235421
-0.234415
-0.248574
-0.248523
-0.248469
-0.248352
-0.248227
-0.248021
-0.2478
-0.247573
-0.247266
-0.247023
-0.246699
-0.246352
-0.245946
-0.245486
-0.245004
-0.244456
-0.243963
-0.243422
-0.242748
-0.242123
-0.241471
-0.240835
-0.240173
-0.239429
-0.238667
-0.237882
-0.237052
-0.236226
-0.23532
-0.234355
-0.233423
-0.232513
-0.231534
-0.246099
-0.246035
-0.245918
-0.245833
-0.245614
-0.245435
-0.245223
-0.245011
-0.244764
-0.244435
-0.244148
-0.243817
-0.243427
-0.242982
-0.24248
-0.241932
-0.241436
-0.240861
-0.240245
-0.239637
-0.238999
-0.238324
-0.237602
-0.236879
-0.236078
-0.235302
-0.234481
-0.23366
-0.232716
-0.231832
-0.230931
-0.22999
-0.229011
-0.267228
-0.267258
-0.267167
-0.267081
-0.266947
-0.266755
-0.266552
-0.266291
-0.266032
-0.265789
-0.26548
-0.265082
-0.264717
-0.264331
-0.263904
-0.263472
-0.262986
-0.262443
-0.261857
-0.261267
-0.260652
-0.26
-0.259305
-0.25861
-0.257883
-0.257109
-0.256249
-0.255439
-0.25459
-0.253659
-0.252726
-0.251767
-0.250767
-0.267247
-0.267221
-0.267111
-0.267032
-0.266901
-0.266716
-0.266548
-0.266262
-0.266009
-0.26576
-0.265469
-0.265106
-0.264698
-0.264277
-0.263835
-0.263425
-0.262897
-0.26239
-0.261768
-0.261178
-0.260558
-0.259899
-0.259231
-0.258495
-0.257771
-0.257009
-0.256233
-0.255351
-0.254489
-0.253544
-0.252612
-0.251648
-0.250683
-0.267142
-0.267098
-0.267076
-0.266974
-0.266844
-0.266687
-0.266446
-0.266237
-0.265989
-0.265694
-0.265389
-0.265038
-0.264678
-0.264274
-0.263823
-0.263331
-0.26287
-0.262301
-0.261759
-0.261183
-0.260568
-0.259901
-0.259192
-0.258477
-0.257694
-0.256958
-0.25611
-0.255284
-0.254387
-0.253495
-0.252578
-0.251628
-0.250627
-0.267022
-0.266972
-0.266902
-0.266782
-0.266646
-0.266511
-0.26632
-0.266117
-0.265834
-0.265555
-0.265202
-0.264886
-0.264506
-0.264105
-0.263688
-0.263198
-0.262705
-0.26217
-0.261628
-0.261054
-0.260439
-0.259771
-0.259059
-0.258306
-0.25755
-0.256775
-0.255964
-0.255141
-0.254246
-0.253352
-0.252427
-0.25146
-0.250405
-0.266738
-0.266695
-0.266675
-0.266569
-0.266433
-0.266269
-0.266019
-0.265802
-0.265549
-0.265249
-0.264938
-0.264579
-0.264206
-0.263804
-0.263364
-0.262921
-0.262433
-0.26189
-0.261306
-0.260717
-0.260097
-0.25944
-0.258726
-0.258005
-0.257218
-0.256481
-0.25563
-0.254822
-0.25397
-0.253041
-0.252112
-0.251154
-0.250156
-0.266398
-0.266389
-0.266329
-0.266212
-0.266079
-0.265925
-0.265718
-0.26546
-0.2652
-0.264943
-0.264638
-0.264274
-0.263854
-0.263432
-0.262982
-0.262538
-0.262045
-0.261501
-0.260912
-0.260321
-0.259701
-0.259046
-0.258339
-0.257615
-0.256828
-0.25609
-0.255238
-0.254414
-0.25352
-0.25263
-0.251715
-0.250771
-0.249776
-0.265929
-0.265866
-0.265781
-0.265689
-0.265552
-0.265375
-0.265196
-0.265003
-0.26475
-0.264448
-0.264126
-0.263769
-0.263393
-0.262937
-0.262515
-0.262023
-0.261514
-0.260967
-0.260379
-0.25979
-0.259181
-0.258529
-0.257827
-0.257076
-0.256323
-0.25555
-0.254733
-0.253865
-0.252981
-0.252091
-0.251112
-0.250133
-0.249161
-0.26521
-0.265147
-0.265061
-0.264975
-0.264844
-0.264663
-0.264474
-0.264222
-0.263974
-0.263722
-0.263381
-0.263008
-0.262642
-0.26221
-0.261794
-0.261292
-0.260756
-0.260264
-0.259688
-0.259067
-0.258444
-0.257793
-0.257098
-0.25636
-0.255616
-0.254805
-0.254041
-0.253168
-0.25232
-0.251397
-0.250465
-0.249491
-0.248425
-0.264221
-0.264214
-0.264156
-0.264045
-0.263916
-0.263729
-0.263531
-0.2633
-0.263063
-0.262774
-0.262463
-0.262107
-0.261707
-0.261297
-0.260857
-0.260369
-0.259841
-0.259317
-0.258747
-0.258158
-0.25746
-0.256799
-0.256114
-0.255433
-0.25467
-0.253872
-0.253111
-0.252232
-0.251337
-0.250442
-0.249475
-0.248518
-0.247539
-0.263047
-0.263011
-0.262894
-0.26281
-0.262689
-0.26252
-0.26235
-0.262126
-0.261886
-0.26159
-0.261245
-0.260856
-0.260502
-0.260102
-0.259572
-0.259082
-0.2586
-0.258094
-0.257509
-0.256943
-0.256293
-0.255658
-0.254956
-0.254249
-0.253527
-0.252725
-0.251883
-0.251031
-0.250106
-0.249233
-0.24828
-0.247338
-0.246348
-0.261547
-0.261479
-0.261389
-0.261273
-0.261147
-0.260969
-0.260791
-0.260575
-0.260338
-0.260004
-0.259664
-0.25933
-0.258951
-0.258513
-0.258017
-0.257532
-0.257016
-0.256474
-0.255964
-0.255332
-0.254685
-0.254022
-0.253358
-0.252644
-0.251832
-0.251025
-0.250244
-0.249439
-0.248547
-0.247645
-0.246745
-0.24572
-0.24473
-0.259585
-0.259577
-0.259476
-0.25938
-0.259194
-0.259016
-0.258847
-0.258635
-0.258376
-0.258101
-0.257765
-0.257382
-0.256975
-0.25649
-0.256058
-0.255598
-0.255093
-0.254537
-0.253941
-0.253292
-0.252645
-0.251991
-0.251331
-0.250581
-0.24983
-0.249054
-0.248237
-0.247381
-0.246523
-0.245592
-0.24471
-0.243697
-0.242672
-0.257133
-0.257079
-0.257001
-0.256897
-0.256772
-0.256595
-0.256365
-0.256134
-0.255873
-0.255595
-0.255212
-0.254825
-0.254461
-0.25404
-0.253572
-0.253058
-0.252544
-0.251993
-0.251391
-0.250747
-0.250068
-0.249444
-0.248711
-0.248023
-0.247291
-0.246467
-0.245641
-0.244786
-0.243889
-0.24296
-0.242036
-0.241092
-0.240106
-0.253973
-0.253979
-0.253891
-0.253807
-0.253591
-0.253405
-0.253229
-0.253018
-0.252724
-0.252458
-0.252143
-0.25177
-0.25135
-0.250871
-0.250389
-0.249884
-0.249374
-0.248763
-0.248147
-0.247519
-0.246915
-0.246263
-0.245524
-0.244833
-0.244024
-0.243259
-0.242449
-0.241538
-0.240635
-0.239724
-0.238838
-0.237873
-0.236884
-0.251098
-0.25104
-0.250964
-0.250858
-0.250723
-0.250505
-0.250342
-0.250092
-0.249826
-0.249511
-0.249145
-0.248778
-0.248376
-0.247975
-0.247477
-0.246969
-0.246466
-0.245871
-0.24522
-0.244584
-0.243935
-0.243301
-0.242615
-0.241844
-0.24112
-0.240281
-0.239476
-0.238585
-0.237664
-0.236768
-0.235842
-0.234869
-0.233896
-0.272572
-0.272523
-0.272451
-0.272333
-0.272233
-0.272076
-0.271826
-0.271606
-0.271357
-0.271134
-0.270796
-0.270476
-0.270133
-0.269784
-0.269386
-0.268927
-0.268419
-0.267898
-0.267343
-0.266744
-0.266148
-0.265518
-0.264843
-0.264159
-0.263362
-0.262593
-0.261827
-0.260971
-0.260032
-0.259134
-0.258195
-0.257173
-0.25614
-0.272527
-0.272483
-0.272455
-0.272348
-0.272218
-0.272071
-0.27188
-0.271675
-0.271425
-0.271157
-0.270841
-0.270485
-0.270157
-0.269756
-0.269334
-0.268895
-0.268343
-0.267825
-0.267264
-0.266708
-0.26612
-0.265485
-0.264758
-0.26406
-0.263295
-0.262526
-0.261726
-0.260884
-0.259995
-0.259094
-0.258111
-0.257115
-0.25604
-0.272416
-0.272402
-0.272344
-0.272261
-0.272129
-0.271944
-0.271788
-0.27159
-0.27133
-0.271024
-0.270753
-0.270443
-0.270082
-0.269678
-0.269262
-0.268806
-0.268335
-0.267827
-0.267272
-0.266671
-0.266052
-0.265365
-0.264713
-0.263953
-0.263221
-0.26245
-0.261587
-0.26072
-0.259855
-0.258916
-0.257976
-0.256999
-0.255978
-0.2723
-0.272259
-0.272234
-0.272161
-0.272032
-0.271852
-0.271698
-0.271467
-0.271237
-0.270929
-0.270652
-0.270308
-0.269976
-0.269571
-0.269154
-0.268697
-0.268227
-0.267718
-0.267163
-0.26656
-0.265909
-0.26525
-0.264563
-0.263829
-0.263085
-0.262267
-0.261438
-0.260578
-0.259712
-0.258769
-0.257782
-0.256793
-0.255807
-0.272087
-0.272081
-0.272016
-0.271929
-0.271789
-0.2716
-0.271438
-0.271236
-0.270981
-0.270713
-0.270397
-0.270062
-0.26969
-0.269279
-0.268895
-0.268397
-0.267927
-0.267418
-0.266864
-0.266264
-0.265653
-0.26501
-0.264314
-0.263572
-0.262802
-0.262035
-0.261217
-0.260341
-0.259427
-0.25849
-0.257594
-0.256577
-0.255539
-0.271775
-0.271769
-0.271702
-0.271584
-0.27149
-0.271341
-0.27114
-0.270912
-0.270654
-0.270384
-0.270061
-0.269733
-0.26937
-0.268997
-0.268585
-0.268117
-0.267595
-0.267066
-0.266501
-0.265897
-0.265286
-0.264648
-0.263958
-0.263179
-0.262441
-0.261668
-0.260799
-0.259925
-0.259054
-0.258114
-0.257175
-0.256204
-0.255179
-0.271354
-0.271303
-0.271258
-0.271136
-0.271035
-0.270858
-0.270697
-0.270485
-0.270219
-0.269908
-0.269628
-0.269308
-0.268936
-0.268514
-0.268081
-0.267602
-0.267085
-0.266559
-0.266
-0.265401
-0.264796
-0.264164
-0.263479
-0.2627
-0.261955
-0.261132
-0.260312
-0.259463
-0.258574
-0.257673
-0.256684
-0.255683
-0.254604
-0.270628
-0.270613
-0.270551
-0.270473
-0.270342
-0.27016
-0.270006
-0.269801
-0.269545
-0.269238
-0.268945
-0.268576
-0.268203
-0.267837
-0.267387
-0.266915
-0.266443
-0.265889
-0.26528
-0.264698
-0.264064
-0.263438
-0.262759
-0.261997
-0.261259
-0.260452
-0.259646
-0.258812
-0.257931
-0.257003
-0.256054
-0.255025
-0.253985
-0.269727
-0.269719
-0.269651
-0.269536
-0.26944
-0.269262
-0.269085
-0.268898
-0.268653
-0.268385
-0.268067
-0.267696
-0.267322
-0.266913
-0.266464
-0.266009
-0.265505
-0.264988
-0.264386
-0.263782
-0.263142
-0.262468
-0.261762
-0.261091
-0.260343
-0.259549
-0.25871
-0.257867
-0.256971
-0.255984
-0.255029
-0.254017
-0.253044
-0.268608
-0.268539
-0.268423
-0.268334
-0.268202
-0.268035
-0.267903
-0.267726
-0.267488
-0.267186
-0.266837
-0.266505
-0.26609
-0.265638
-0.26522
-0.264774
-0.264248
-0.263707
-0.263161
-0.262577
-0.261899
-0.261226
-0.260569
-0.259839
-0.259086
-0.258287
-0.257448
-0.256574
-0.255697
-0.254792
-0.253836
-0.252869
-0.251819
-0.267056
-0.266993
-0.266915
-0.266778
-0.266633
-0.266455
-0.266311
-0.266046
-0.265801
-0.265516
-0.265255
-0.264881
-0.264502
-0.264043
-0.263583
-0.263102
-0.26262
-0.262088
-0.261472
-0.260896
-0.260279
-0.259613
-0.258855
-0.258105
-0.257408
-0.256598
-0.255775
-0.254917
-0.254017
-0.253112
-0.252162
-0.251109
-0.250092
-0.264993
-0.264945
-0.264873
-0.264747
-0.264598
-0.264422
-0.264244
-0.264009
-0.263766
-0.263475
-0.263134
-0.262739
-0.262366
-0.261874
-0.261417
-0.260934
-0.26044
-0.259869
-0.2593
-0.258688
-0.258079
-0.257424
-0.256633
-0.255919
-0.255145
-0.254341
-0.253547
-0.2527
-0.251804
-0.250889
-0.249967
-0.248946
-0.247921
-0.262177
-0.262215
-0.262124
-0.26205
-0.261923
-0.261735
-0.261497
-0.261208
-0.260965
-0.260684
-0.260348
-0.259962
-0.259613
-0.259141
-0.258696
-0.258212
-0.257689
-0.257112
-0.256494
-0.255871
-0.255221
-0.254532
-0.253845
-0.25313
-0.25238
-0.251586
-0.250744
-0.249853
-0.248926
-0.248043
-0.247077
-0.246023
-0.245033
-0.25856
-0.258514
-0.258495
-0.25834
-0.258207
-0.258033
-0.257818
-0.257627
-0.257314
-0.257037
-0.256706
-0.256325
-0.255929
-0.2555
-0.255019
-0.254505
-0.25399
-0.25342
-0.252805
-0.252147
-0.251496
-0.250818
-0.250101
-0.249397
-0.248624
-0.247853
-0.247037
-0.24617
-0.245264
-0.24435
-0.243364
-0.242424
-0.241371
-0.255196
-0.255175
-0.255065
-0.254943
-0.254767
-0.254599
-0.254437
-0.254225
-0.253911
-0.253637
-0.253322
-0.252954
-0.252536
-0.252073
-0.251638
-0.251096
-0.250575
-0.25001
-0.249363
-0.248767
-0.248095
-0.247373
-0.246653
-0.245907
-0.245129
-0.24437
-0.243541
-0.242712
-0.241838
-0.240914
-0.239991
-0.238986
-0.237944
-0.277352
-0.277303
-0.277278
-0.277199
-0.277061
-0.276869
-0.276703
-0.276512
-0.276305
-0.276046
-0.275769
-0.275464
-0.275145
-0.274784
-0.274396
-0.273961
-0.273481
-0.272986
-0.272455
-0.271876
-0.271277
-0.270599
-0.269909
-0.269183
-0.268409
-0.267618
-0.266743
-0.265854
-0.264968
-0.264003
-0.263029
-0.262
-0.26088
-0.277328
-0.277312
-0.277253
-0.277169
-0.277045
-0.276894
-0.276708
-0.276543
-0.27634
-0.276076
-0.275772
-0.275488
-0.275165
-0.274788
-0.274351
-0.273906
-0.273429
-0.272969
-0.272403
-0.271812
-0.271217
-0.270574
-0.269849
-0.269108
-0.26836
-0.267536
-0.266699
-0.265828
-0.264912
-0.263979
-0.262963
-0.261937
-0.260853
-0.277298
-0.27727
-0.277159
-0.277078
-0.276988
-0.276858
-0.276669
-0.276494
-0.276243
-0.276017
-0.275745
-0.275417
-0.275048
-0.274707
-0.27433
-0.273902
-0.273416
-0.272883
-0.272331
-0.271771
-0.271109
-0.270466
-0.269786
-0.269092
-0.268312
-0.267518
-0.266642
-0.265755
-0.264866
-0.263897
-0.26291
-0.261841
-0.260761
-0.277162
-0.277145
-0.27708
-0.276993
-0.276869
-0.276744
-0.276599
-0.276392
-0.276169
-0.275901
-0.27563
-0.275331
-0.274961
-0.274615
-0.274236
-0.273804
-0.273313
-0.272777
-0.272227
-0.271634
-0.271005
-0.270361
-0.26968
-0.268984
-0.268204
-0.267367
-0.266519
-0.265624
-0.264682
-0.263704
-0.262677
-0.261679
-0.260618
-0.276987
-0.276976
-0.276904
-0.276811
-0.276685
-0.276581
-0.276395
-0.276217
-0.275955
-0.275716
-0.275438
-0.275119
-0.274787
-0.274405
-0.274008
-0.273562
-0.273073
-0.272541
-0.272027
-0.271443
-0.270833
-0.270118
-0.269455
-0.268723
-0.267943
-0.267144
-0.266261
-0.265362
-0.264465
-0.263492
-0.262502
-0.261426
-0.260344
-0.276684
-0.276663
-0.2766
-0.276512
-0.276414
-0.276273
-0.276113
-0.275904
-0.275669
-0.275401
-0.275121
-0.274828
-0.274493
-0.274109
-0.273708
-0.273264
-0.272763
-0.272216
-0.271658
-0.271092
-0.270425
-0.269778
-0.269095
-0.268396
-0.26761
-0.26681
-0.265926
-0.265026
-0.264078
-0.263133
-0.262103
-0.26107
-0.260004
-0.27632
-0.276272
-0.276236
-0.276151
-0.276005
-0.27581
-0.275638
-0.275426
-0.275232
-0.274957
-0.274677
-0.274396
-0.274025
-0.273626
-0.273221
-0.272779
-0.272286
-0.271755
-0.27124
-0.27062
-0.269975
-0.269328
-0.268642
-0.267897
-0.267094
-0.266251
-0.265446
-0.264533
-0.263594
-0.26265
-0.261622
-0.260579
-0.259446
-0.275625
-0.275642
-0.275544
-0.275456
-0.27536
-0.27522
-0.275063
-0.274851
-0.274594
-0.274361
-0.274083
-0.273753
-0.273383
-0.273026
-0.272593
-0.272147
-0.271661
-0.271124
-0.270535
-0.26994
-0.269334
-0.268655
-0.267931
-0.267227
-0.266395
-0.265547
-0.264713
-0.263845
-0.262926
-0.261945
-0.260958
-0.259886
-0.258807
-0.274847
-0.274788
-0.274706
-0.274626
-0.274537
-0.274371
-0.274217
-0.27401
-0.273753
-0.273509
-0.273184
-0.272852
-0.272478
-0.272103
-0.271676
-0.271231
-0.270699
-0.270156
-0.269584
-0.269037
-0.268382
-0.267697
-0.267009
-0.266244
-0.26547
-0.264656
-0.263794
-0.262919
-0.261956
-0.260971
-0.259991
-0.258932
-0.257853
-0.273632
-0.273612
-0.273548
-0.273473
-0.273346
-0.2732
-0.273014
-0.272815
-0.272555
-0.272279
-0.271963
-0.271636
-0.271261
-0.270836
-0.270393
-0.269909
-0.269391
-0.26888
-0.26832
-0.267743
-0.26708
-0.266395
-0.265644
-0.264933
-0.264173
-0.263325
-0.262471
-0.261609
-0.260666
-0.259706
-0.258664
-0.25766
-0.256574
-0.272054
-0.272002
-0.271929
-0.271802
-0.271665
-0.271555
-0.271331
-0.27112
-0.270857
-0.270548
-0.270262
-0.269897
-0.269518
-0.269092
-0.268628
-0.268157
-0.26765
-0.267122
-0.266511
-0.265897
-0.265244
-0.264543
-0.263834
-0.263098
-0.262317
-0.261521
-0.260635
-0.259752
-0.258832
-0.257865
-0.256879
-0.255812
-0.254785
-0.269758
-0.269709
-0.269651
-0.269571
-0.269439
-0.269251
-0.269043
-0.268796
-0.26854
-0.268262
-0.267907
-0.267537
-0.267122
-0.266693
-0.266222
-0.265722
-0.265248
-0.264661
-0.264085
-0.263436
-0.262787
-0.262099
-0.261367
-0.260604
-0.259883
-0.259051
-0.258233
-0.257334
-0.256433
-0.255504
-0.25452
-0.253488
-0.252403
-0.266529
-0.26648
-0.266443
-0.266284
-0.266144
-0.265965
-0.265803
-0.265526
-0.265263
-0.264964
-0.264613
-0.264247
-0.263851
-0.263439
-0.26293
-0.262421
-0.261931
-0.261351
-0.260754
-0.260131
-0.259502
-0.25878
-0.25806
-0.257305
-0.256528
-0.255753
-0.254926
-0.25401
-0.25313
-0.252167
-0.251205
-0.25018
-0.249184
-0.262193
-0.262148
-0.262124
-0.262009
-0.261845
-0.26168
-0.261538
-0.261275
-0.261027
-0.260736
-0.260394
-0.259998
-0.259564
-0.259155
-0.25866
-0.258165
-0.257631
-0.257051
-0.25643
-0.255823
-0.255172
-0.254524
-0.253797
-0.253016
-0.252237
-0.251439
-0.250638
-0.249804
-0.248885
-0.247949
-0.246986
-0.245986
-0.244985
-0.258309
-0.258268
-0.258247
-0.2581
-0.257982
-0.257812
-0.257602
-0.257411
-0.257107
-0.256826
-0.256501
-0.25612
-0.255699
-0.255305
-0.254797
-0.254316
-0.25379
-0.253177
-0.252612
-0.251976
-0.251292
-0.2506
-0.249879
-0.249117
-0.24837
-0.247599
-0.246794
-0.24594
-0.245045
-0.244104
-0.243166
-0.242195
-0.241179
-0.281716
-0.281699
-0.281635
-0.281544
-0.28142
-0.281318
-0.281166
-0.280972
-0.280805
-0.280586
-0.28033
-0.280088
-0.279768
-0.279454
-0.279051
-0.278626
-0.278146
-0.277617
-0.277069
-0.276504
-0.275861
-0.275195
-0.274479
-0.273713
-0.272904
-0.272092
-0.271163
-0.270217
-0.269231
-0.268229
-0.267142
-0.266041
-0.264932
-0.281682
-0.281671
-0.281605
-0.28153
-0.281439
-0.281301
-0.28114
-0.280941
-0.280766
-0.280559
-0.280331
-0.28006
-0.279757
-0.279405
-0.278997
-0.27857
-0.278131
-0.277606
-0.277055
-0.276444
-0.275796
-0.275129
-0.27445
-0.273683
-0.272857
-0.272021
-0.27113
-0.270152
-0.269187
-0.268146
-0.267094
-0.266004
-0.26486
-0.281675
-0.281658
-0.281585
-0.281505
-0.281406
-0.281265
-0.281106
-0.280908
-0.280737
-0.280519
-0.28026
-0.279996
-0.279658
-0.279301
-0.278965
-0.27852
-0.278074
-0.277549
-0.276996
-0.276402
-0.275779
-0.275105
-0.274339
-0.273559
-0.272763
-0.271891
-0.271036
-0.270106
-0.269129
-0.268128
-0.267036
-0.265929
-0.264808
-0.281573
-0.281556
-0.281486
-0.2814
-0.281312
-0.281211
-0.281057
-0.280855
-0.280671
-0.280451
-0.28018
-0.279916
-0.279574
-0.279212
-0.27887
-0.278413
-0.277929
-0.277425
-0.276887
-0.276297
-0.275679
-0.274968
-0.274233
-0.273455
-0.272659
-0.271786
-0.270897
-0.269997
-0.269016
-0.268017
-0.266916
-0.2658
-0.264602
-0.281456
-0.281438
-0.281363
-0.281275
-0.281187
-0.281082
-0.280916
-0.280705
-0.280516
-0.280281
-0.28004
-0.279746
-0.279444
-0.279085
-0.278703
-0.278236
-0.277777
-0.27724
-0.276685
-0.276115
-0.275457
-0.274779
-0.274015
-0.273273
-0.272454
-0.271603
-0.270704
-0.269756
-0.268768
-0.267762
-0.266668
-0.265555
-0.264431
-0.281213
-0.281161
-0.281117
-0.281026
-0.280887
-0.280771
-0.280618
-0.280486
-0.280308
-0.280073
-0.27979
-0.279518
-0.279174
-0.278836
-0.278453
-0.277981
-0.277518
-0.276977
-0.276413
-0.27581
-0.275184
-0.274465
-0.273722
-0.272936
-0.27213
-0.271246
-0.270349
-0.269448
-0.268461
-0.267454
-0.266356
-0.265232
-0.26403
-0.280769
-0.280711
-0.280676
-0.280594
-0.280529
-0.280389