/*--------------------------------*- C++ -*----------------------------------*\
| =========                 |                                                 |
| \\      /  F ield         | OpenFOAM: The Open Source CFD Toolbox           |
|  \\    /   O peration     | Version:  2412                                  |
|   \\  /    A nd           | Website:  www.openfoam.com                      |
|    \\/     M anipulation  |                                                 |
\*---------------------------------------------------------------------------*/
FoamFile
{
    version     2.0;
    format      ascii;
    arch        "LSB;label=32;scalar=64";
    class       volScalarField;
    location    "0.0350058";
    object      Vm_0;
}
// * * * * * * * * * * * * * * * * * * * * * * * * * * * * * * * * * * * * * //

dimensions      [1 2 -3 0 0 -1 0];

internalField   nonuniform List<scalar> 
8679
(
0.0145727
0.0145683
0.0145572
0.0145403
0.0145194
0.0144938
0.0144635
0.0144286
0.0143879
0.0143417
0.0142892
0.0142326
0.0141718
0.014107
0.0140369
0.0139617
0.0138832
0.0138006
0.013713
0.01362
0.0135227
0.0134203
0.0133132
0.0132027
0.0130896
0.0129727
0.0128532
0.0127301
0.0126022
0.0124704
0.012336
0.0121984
0.0120575
0.0145647
0.0145589
0.0145478
0.0145322
0.014511
0.0144843
0.0144536
0.0144175
0.0143758
0.01433
0.0142793
0.0142232
0.0141627
0.0140967
0.0140257
0.0139508
0.0138707
0.0137871
0.0136991
0.0136064
0.0135092
0.0134075
0.0133019
0.0131935
0.0130804
0.0129638
0.0128428
0.0127189
0.0125911
0.0124588
0.0123238
0.0121861
0.0120456
0.0145405
0.0145352
0.0145252
0.0145091
0.0144883
0.014462
0.01443
0.0143926
0.0143506
0.0143029
0.0142514
0.0141957
0.0141354
0.0140703
0.0140015
0.0139273
0.0138492
0.0137663
0.0136776
0.0135843
0.0134881
0.0133876
0.013282
0.0131725
0.0130598
0.0129426
0.0128223
0.0126978
0.0125686
0.0124372
0.0123032
0.012166
0.0120253
0.0155933
0.0155884
0.0155786
0.0155635
0.0155435
0.0155184
0.0154882
0.0154535
0.0154139
0.0153698
0.0153206
0.0152662
0.0152066
0.0151423
0.0150739
0.0150001
0.0149224
0.0148405
0.0147539
0.0146626
0.0145673
0.0144684
0.0143645
0.0142568
0.0141445
0.0140294
0.013911
0.0137887
0.013662
0.0135309
0.0133955
0.0132561
0.013113
0.0155835
0.0155783
0.0155686
0.0155529
0.0155328
0.0155075
0.0154774
0.0154428
0.0154024
0.0153578
0.0153087
0.0152546
0.0151957
0.0151323
0.0150639
0.0149905
0.0149113
0.0148284
0.0147415
0.0146508
0.0145568
0.0144577
0.0143543
0.0142471
0.0141357
0.0140192
0.0138995
0.0137763
0.0136491
0.0135178
0.0133824
0.0132435
0.0131007
0.0155666
0.0155609
0.0155501
0.0155354
0.0155157
0.0154902
0.0154591
0.0154228
0.0153818
0.0153353
0.015285
0.0152311
0.0151735
0.0151103
0.0150421
0.014969
0.0148918
0.0148102
0.0147239
0.014633
0.0145381
0.0144398
0.0143364
0.014229
0.0141167
0.014001
0.0138815
0.0137572
0.0136282
0.0134963
0.0133619
0.0132234
0.0130806
0.0155363
0.0155305
0.0155196
0.0155047
0.0154849
0.0154594
0.0154282
0.0153917
0.0153506
0.0153038
0.0152533
0.015199
0.0151408
0.0150778
0.0150096
0.0149363
0.014859
0.0147772
0.0146908
0.0145999
0.0145051
0.0144067
0.0143032
0.0141959
0.0140836
0.0139676
0.0138474
0.0137221
0.0135934
0.0134615
0.0133267
0.013189
0.0130466
0.0154873
0.015482
0.0154719
0.015456
0.0154355
0.0154101
0.0153796
0.0153444
0.0153034
0.0152581
0.0152082
0.0151535
0.0150942
0.0150304
0.0149615
0.0148875
0.0148084
0.0147253
0.0146384
0.0145478
0.014454
0.0143549
0.0142513
0.0141447
0.0140336
0.0139173
0.0137976
0.0136744
0.0135472
0.0134159
0.0132806
0.0131413
0.0129985
0.0165315
0.0165279
0.0165187
0.0165048
0.0164855
0.0164605
0.01643
0.0163948
0.0163563
0.0163138
0.0162667
0.016215
0.0161592
0.0160986
0.0160337
0.0159636
0.0158888
0.0158092
0.0157252
0.0156366
0.0155444
0.0154473
0.0153462
0.0152402
0.0151299
0.015016
0.0148983
0.0147768
0.0146507
0.0145205
0.0143872
0.014249
0.0141069
0.0165257
0.0165204
0.0165101
0.0164957
0.0164764
0.0164519
0.0164224
0.0163884
0.016349
0.0163056
0.016258
0.016206
0.0161501
0.0160888
0.0160234
0.0159536
0.0158787
0.0157989
0.0157144
0.0156256
0.0155333
0.0154364
0.015336
0.0152314
0.0151218
0.015007
0.0148883
0.0147663
0.0146408
0.0145106
0.0143761
0.014237
0.0140943
0.016508
0.016503
0.0164937
0.0164789
0.0164587
0.0164342
0.0164059
0.0163722
0.0163341
0.0162908
0.016243
0.0161901
0.0161325
0.0160708
0.0160038
0.015933
0.0158582
0.0157792
0.0156961
0.0156082
0.0155153
0.015419
0.0153181
0.0152119
0.0151023
0.0149886
0.0148707
0.0147484
0.0146221
0.0144914
0.0143571
0.0142183
0.0140746
0.0164815
0.0164761
0.0164662
0.0164505
0.0164306
0.0164064
0.0163779
0.0163444
0.0163062
0.0162626
0.0162143
0.0161613
0.0161036
0.0160416
0.0159744
0.0159035
0.0158285
0.0157494
0.0156662
0.0155782
0.0154851
0.0153881
0.0152861
0.0151807
0.0150715
0.0149582
0.0148403
0.014718
0.0145915
0.0144604
0.0143254
0.0141873
0.0140443
0.01644
0.0164347
0.016424
0.016409
0.0163893
0.0163644
0.0163344
0.0162998
0.0162602
0.0162162
0.0161679
0.0161154
0.0160588
0.015997
0.0159312
0.0158607
0.0157851
0.0157053
0.0156207
0.0155319
0.0154398
0.0153428
0.015242
0.0151367
0.0150257
0.014911
0.0147928
0.014671
0.014545
0.0144153
0.0142811
0.0141422
0.0139996
0.0163771
0.0163714
0.0163606
0.0163458
0.0163263
0.0163017
0.0162718
0.0162372
0.0161975
0.0161536
0.0161057
0.0160536
0.0159964
0.0159338
0.0158677
0.0157974
0.0157222
0.0156419
0.015557
0.0154679
0.0153756
0.0152784
0.0151774
0.0150719
0.0149607
0.0148459
0.0147276
0.0146057
0.0144792
0.0143486
0.0142142
0.0140754
0.0139318
0.0162909
0.0162858
0.0162759
0.016261
0.0162414
0.0162168
0.0161873
0.0161537
0.0161146
0.0160701
0.0160214
0.0159688
0.0159112
0.0158484
0.0157821
0.0157117
0.0156364
0.015556
0.0154708
0.0153813
0.0152887
0.015191
0.0150893
0.0149824
0.0148723
0.0147586
0.0146409
0.0145188
0.0143926
0.0142624
0.0141276
0.0139888
0.0138455
0.016174
0.01617
0.0161612
0.0161472
0.0161285
0.0161044
0.0160748
0.0160406
0.016002
0.0159582
0.0159097
0.0158566
0.0157992
0.0157371
0.0156703
0.0155994
0.015524
0.0154434
0.0153577
0.0152673
0.0151731
0.0150756
0.0149735
0.0148681
0.014759
0.0146454
0.0145269
0.0144049
0.0142795
0.0141505
0.0140165
0.0138778
0.0137342
0.0160266
0.0160221
0.0160133
0.0159985
0.0159796
0.0159561
0.0159282
0.0158948
0.0158558
0.0158116
0.0157629
0.0157098
0.0156528
0.0155908
0.0155237
0.0154531
0.0153782
0.0152983
0.0152135
0.0151237
0.0150298
0.0149325
0.0148305
0.0147249
0.014615
0.0145012
0.0143839
0.0142625
0.014137
0.0140071
0.0138728
0.0137336
0.0135899
0.0158487
0.0158444
0.0158347
0.0158195
0.0157989
0.0157738
0.0157443
0.0157107
0.0156716
0.0156285
0.0155807
0.015528
0.0154703
0.0154081
0.0153426
0.0152722
0.0151967
0.0151169
0.0150323
0.0149431
0.0148498
0.0147531
0.0146511
0.014545
0.0144352
0.0143218
0.0142038
0.0140821
0.0139563
0.0138262
0.0136917
0.0135529
0.0134103
0.0156303
0.0156246
0.015614
0.0155993
0.0155796
0.0155548
0.0155246
0.0154894
0.0154497
0.0154059
0.0153582
0.0153056
0.015248
0.0151861
0.0151206
0.01505
0.0149752
0.0148954
0.0148102
0.0147211
0.0146285
0.0145311
0.0144289
0.0143229
0.0142132
0.014099
0.0139819
0.0138611
0.0137359
0.0136059
0.0134709
0.0133327
0.0131901
0.0153606
0.0153554
0.0153454
0.0153305
0.0153108
0.015286
0.0152557
0.0152205
0.015181
0.0151371
0.0150893
0.0150367
0.0149794
0.0149175
0.0148518
0.0147812
0.0147055
0.0146249
0.0145402
0.014451
0.0143576
0.0142597
0.0141577
0.0140522
0.0139416
0.0138269
0.0137087
0.0135869
0.0134604
0.0133305
0.0131968
0.0130589
0.0129168
0.0150468
0.0150424
0.0150328
0.0150177
0.0149975
0.0149725
0.0149424
0.0149071
0.0148676
0.014824
0.0147758
0.0147223
0.0146649
0.0146036
0.014537
0.0144657
0.0143896
0.0143087
0.0142237
0.0141339
0.01404
0.0139418
0.0138396
0.0137328
0.0136218
0.0135076
0.0133887
0.0132663
0.0131395
0.0130098
0.0128768
0.0127399
0.0125986
0.0147177
0.0147126
0.0147029
0.0146877
0.0146674
0.0146423
0.0146121
0.0145769
0.0145374
0.0144934
0.0144446
0.014391
0.0143331
0.0142702
0.0142026
0.0141298
0.014053
0.0139716
0.0138859
0.0137954
0.0136996
0.0136009
0.0134994
0.0133938
0.013283
0.0131678
0.0130492
0.0129258
0.012799
0.0126682
0.0125347
0.012398
0.0122577
0.0144697
0.0144639
0.0144529
0.0144367
0.0144152
0.0143893
0.0143588
0.0143235
0.0142838
0.0142406
0.0141921
0.0141397
0.0140826
0.0140199
0.0139516
0.0138783
0.0138009
0.0137188
0.0136324
0.0135407
0.0134457
0.013347
0.0132441
0.0131367
0.0130249
0.0129096
0.0127907
0.0126676
0.0125404
0.0124091
0.0122744
0.0121365
0.0119943
0.0173912
0.0173864
0.0173772
0.0173621
0.0173426
0.0173187
0.0172907
0.0172574
0.0172205
0.0171796
0.0171345
0.0170857
0.0170317
0.0169738
0.0169116
0.0168445
0.0167724
0.0166957
0.0166152
0.0165299
0.0164412
0.0163486
0.0162513
0.0161492
0.0160422
0.0159303
0.0158141
0.0156932
0.0155682
0.0154387
0.0153047
0.0151667
0.0150236
0.0173847
0.0173798
0.0173708
0.0173565
0.0173372
0.0173139
0.0172859
0.0172531
0.0172156
0.0171746
0.0171298
0.0170804
0.0170261
0.016967
0.0169038
0.0168363
0.0167644
0.0166886
0.0166075
0.0165223
0.016432
0.0163381
0.0162402
0.0161378
0.0160307
0.0159189
0.0158028
0.015682
0.0155577
0.0154283
0.0152948
0.0151565
0.0150139
0.0173726
0.0173672
0.017357
0.0173429
0.0173239
0.0173
0.0172717
0.0172399
0.0172038
0.0171627
0.0171167
0.0170662
0.0170123
0.016954
0.0168905
0.0168227
0.0167507
0.0166738
0.0165927
0.0165071
0.0164171
0.0163221
0.0162231
0.0161202
0.0160133
0.0159026
0.0157868
0.0156663
0.0155409
0.0154119
0.015278
0.0151393
0.0149959
0.0173486
0.0173435
0.0173332
0.0173187
0.0172997
0.0172758
0.0172475
0.0172155
0.0171789
0.0171378
0.0170915
0.0170406
0.0169861
0.0169269
0.0168631
0.0167958
0.0167239
0.0166466
0.016565
0.0164799
0.0163901
0.0162948
0.0161956
0.0160926
0.0159858
0.0158746
0.0157593
0.0156391
0.0155138
0.0153846
0.01525
0.0151116
0.0149684
0.0173089
0.0173038
0.0172938
0.0172788
0.0172594
0.0172355
0.0172075
0.0171741
0.0171366
0.0170948
0.0170488
0.0169989
0.0169439
0.0168849
0.0168216
0.0167537
0.0166809
0.0166036
0.0165226
0.0164369
0.0163477
0.0162544
0.0161564
0.0160535
0.0159457
0.0158334
0.0157168
0.0155957
0.0154704
0.0153406
0.0152061
0.0150675
0.0149246
0.0172513
0.0172463
0.0172365
0.0172218
0.0172031
0.0171803
0.0171525
0.0171194
0.0170814
0.0170395
0.0169939
0.0169436
0.0168881
0.0168277
0.0167634
0.016695
0.0166223
0.0165457
0.0164645
0.0163787
0.0162887
0.0161948
0.0160964
0.0159931
0.015885
0.0157722
0.0156551
0.0155341
0.0154089
0.0152791
0.0151446
0.0150059
0.0148629
0.0171724
0.0171681
0.0171587
0.0171443
0.0171255
0.017102
0.0170741
0.0170419
0.0170051
0.0169633
0.0169166
0.0168654
0.0168094
0.0167485
0.0166838
0.0166149
0.0165419
0.0164647
0.0163827
0.0162959
0.016206
0.0161119
0.0160126
0.0159079
0.0157992
0.0156869
0.0155711
0.0154508
0.0153255
0.0151959
0.0150606
0.0149209
0.0147773
0.0170646
0.0170597
0.0170502
0.0170359
0.0170174
0.0169946
0.0169663
0.0169333
0.0168964
0.016855
0.0168088
0.0167583
0.016703
0.0166429
0.0165783
0.0165088
0.0164356
0.0163576
0.0162749
0.0161875
0.0160968
0.0160019
0.0159013
0.0157972
0.0156893
0.0155776
0.0154611
0.0153402
0.0152154
0.0150859
0.0149513
0.0148118
0.0146677
0.0169239
0.0169193
0.0169109
0.0168969
0.0168778
0.0168547
0.0168264
0.0167936
0.0167566
0.0167149
0.0166684
0.0166172
0.0165619
0.016502
0.0164381
0.0163696
0.0162964
0.0162184
0.0161356
0.0160491
0.0159576
0.0158622
0.0157618
0.015658
0.0155504
0.0154387
0.0153226
0.0152013
0.0150752
0.0149449
0.0148104
0.0146712
0.0145272
0.0167508
0.0167458
0.016736
0.0167212
0.0167017
0.0166777
0.0166491
0.0166163
0.0165781
0.0165358
0.0164892
0.0164383
0.0163836
0.0163238
0.0162602
0.0161923
0.0161195
0.0160416
0.0159586
0.0158711
0.0157798
0.0156849
0.015586
0.0154822
0.0153743
0.0152618
0.0151454
0.0150239
0.0148975
0.0147665
0.0146316
0.0144924
0.0143485
0.0165327
0.0165276
0.0165178
0.0165025
0.0164829
0.0164588
0.0164304
0.0163971
0.0163585
0.0163161
0.0162694
0.0162181
0.0161625
0.0161025
0.0160379
0.0159688
0.0158955
0.0158176
0.0157347
0.0156473
0.015556
0.0154606
0.0153608
0.0152564
0.0151469
0.015034
0.0149172
0.0147961
0.0146704
0.0145401
0.0144048
0.0142654
0.0141214
0.0162653
0.0162602
0.0162497
0.0162349
0.0162149
0.0161904
0.0161612
0.0161267
0.0160875
0.0160449
0.0159979
0.0159459
0.0158891
0.0158282
0.0157632
0.0156938
0.0156187
0.0155395
0.0154558
0.0153679
0.0152762
0.0151802
0.0150796
0.0149741
0.0148651
0.0147518
0.0146335
0.0145107
0.0143846
0.0142538
0.0141185
0.0139788
0.0138356
0.0159422
0.0159369
0.0159261
0.0159105
0.0158892
0.0158639
0.0158345
0.0158014
0.015763
0.0157207
0.0156733
0.0156205
0.0155638
0.0155018
0.015435
0.0153642
0.0152883
0.0152078
0.0151232
0.0150344
0.0149415
0.0148438
0.0147419
0.0146367
0.0145266
0.014413
0.0142946
0.0141711
0.0140436
0.0139119
0.0137762
0.0136362
0.013492
0.0155893
0.0155839
0.0155738
0.0155583
0.0155378
0.0155122
0.0154822
0.0154481
0.0154092
0.0153669
0.0153195
0.0152672
0.0152093
0.0151461
0.0150779
0.0150049
0.0149284
0.014847
0.01476
0.0146696
0.0145757
0.0144783
0.0143769
0.0142705
0.0141595
0.0140442
0.0139244
0.0138002
0.0136711
0.0135377
0.0134014
0.013262
0.0131185
0.0153188
0.0153127
0.0153011
0.0152849
0.0152629
0.015237
0.015207
0.0151731
0.0151348
0.0150916
0.0150445
0.0149926
0.0149351
0.0148719
0.0148031
0.0147295
0.0146522
0.01457
0.0144833
0.0143928
0.0142983
0.0141996
0.0140963
0.0139888
0.0138765
0.0137605
0.0136402
0.0135157
0.013386
0.0132534
0.0131173
0.0129772
0.0128328
0.0181718
0.0181682
0.0181591
0.0181456
0.0181273
0.0181041
0.0180767
0.018045
0.0180099
0.0179715
0.0179284
0.0178804
0.017829
0.0177738
0.0177144
0.0176508
0.0175822
0.0175085
0.0174301
0.0173476
0.0172611
0.0171701
0.0170747
0.016975
0.0168706
0.0167612
0.0166465
0.0165278
0.0164044
0.0162756
0.0161422
0.0160041
0.015861
0.0181677
0.0181632
0.0181537
0.0181403
0.0181223
0.0180996
0.0180729
0.0180413
0.0180062
0.0179678
0.0179249
0.0178772
0.0178248
0.0177684
0.0177081
0.0176442
0.0175749
0.0175012
0.0174223
0.0173396
0.0172526
0.0171612
0.0170655
0.0169651
0.0168606
0.0167516
0.0166378
0.0165183
0.0163944
0.0162652
0.0161317
0.0159936
0.0158507
0.0181551
0.0181506
0.0181423
0.018129
0.0181112
0.0180889
0.0180618
0.0180311
0.0179963
0.0179571
0.0179139
0.0178664
0.0178148
0.0177588
0.0176981
0.017633
0.0175641
0.0174901
0.0174122
0.0173299
0.0172429
0.0171508
0.017054
0.0169529
0.0168472
0.0167377
0.0166229
0.0165037
0.0163795
0.0162511
0.0161182
0.0159803
0.0158372
0.0181343
0.0181295
0.0181203
0.0181065
0.0180887
0.0180668
0.0180405
0.01801
0.0179746
0.0179352
0.0178912
0.0178437
0.0177919
0.0177359
0.0176757
0.0176107
0.0175415
0.0174678
0.0173899
0.0173076
0.0172204
0.017128
0.0170307
0.0169288
0.0168228
0.0167127
0.0165981
0.016479
0.0163548
0.0162262
0.0160927
0.0159541
0.01581
0.0180988
0.0180944
0.018086
0.0180726
0.0180544
0.0180317
0.0180041
0.0179728
0.0179374
0.0178976
0.0178538
0.0178057
0.0177535
0.0176971
0.0176366
0.0175719
0.0175027
0.0174285
0.0173496
0.0172666
0.0171792
0.0170871
0.0169899
0.0168882
0.0167818
0.0166718
0.0165566
0.0164375
0.0163136
0.0161846
0.016051
0.0159126
0.0157691
0.0180492
0.018045
0.0180361
0.0180223
0.0180043
0.0179819
0.0179548
0.0179231
0.0178876
0.0178483
0.0178045
0.0177558
0.0177023
0.0176449
0.0175834
0.0175181
0.0174483
0.0173736
0.0172943
0.0172109
0.0171233
0.0170309
0.0169337
0.0168317
0.0167251
0.0166147
0.016499
0.0163792
0.0162546
0.0161258
0.0159924
0.0158541
0.0157104
0.017978
0.0179729
0.0179633
0.0179497
0.0179315
0.0179091
0.0178827
0.0178523
0.0178171
0.0177771
0.0177328
0.0176839
0.0176306
0.0175724
0.0175106
0.017444
0.0173732
0.017298
0.0172183
0.0171347
0.017047
0.0169545
0.016857
0.0167546
0.016648
0.0165371
0.0164215
0.016301
0.0161759
0.0160462
0.0159111
0.0157713
0.015627
0.0178772
0.0178722
0.0178626
0.0178491
0.017831
0.0178083
0.0177814
0.01775
0.0177147
0.0176753
0.0176307
0.0175816
0.0175284
0.0174706
0.0174088
0.0173419
0.0172707
0.0171958
0.017116
0.0170315
0.016943
0.0168502
0.0167526
0.0166504
0.0165439
0.0164328
0.0163179
0.0161976
0.0160728
0.0159428
0.0158078
0.0156675
0.0155215
0.0177433
0.0177391
0.0177302
0.0177164
0.0176982
0.0176754
0.0176484
0.0176172
0.0175819
0.017542
0.0174975
0.0174483
0.0173946
0.0173367
0.0172743
0.0172074
0.017136
0.0170606
0.0169805
0.0168959
0.016806
0.0167125
0.016615
0.0165137
0.0164073
0.0162962
0.0161809
0.0160599
0.015934
0.0158036
0.0156682
0.0155284
0.0153837
0.0175727
0.0175676
0.0175575
0.0175435
0.0175254
0.0175029
0.0174764
0.0174453
0.0174097
0.017369
0.0173234
0.0172733
0.0172195
0.017161
0.017097
0.0170295
0.0169586
0.0168834
0.0168034
0.0167193
0.0166301
0.016537
0.0164393
0.0163374
0.0162308
0.016119
0.0160021
0.0158806
0.0157542
0.0156239
0.0154885
0.0153486
0.0152031
0.0173547
0.0173492
0.0173388
0.017324
0.0173052
0.017282
0.0172549
0.0172234
0.0171872
0.0171457
0.0170998
0.0170499
0.0169953
0.0169356
0.0168712
0.016803
0.0167309
0.0166547
0.0165746
0.0164891
0.0163992
0.0163051
0.0162069
0.0161038
0.0159953
0.0158828
0.0157666
0.0156461
0.0155202
0.0153897
0.0152544
0.015113
0.014967
0.0170778
0.017073
0.0170627
0.0170478
0.0170278
0.0170039
0.0169763
0.0169442
0.0169075
0.0168661
0.0168196
0.016768
0.0167118
0.0166508
0.0165865
0.0165182
0.0164452
0.0163673
0.0162846
0.0161973
0.0161061
0.0160113
0.0159123
0.0158082
0.0156999
0.0155872
0.0154698
0.0153478
0.0152214
0.0150901
0.0149547
0.0148133
0.0146672
0.0167357
0.0167304
0.0167203
0.0167055
0.0166859
0.0166615
0.0166324
0.0165992
0.0165617
0.0165195
0.0164718
0.0164197
0.0163637
0.0163028
0.0162371
0.0161668
0.0160921
0.0160128
0.0159286
0.01584
0.0157473
0.0156515
0.0155509
0.0154467
0.0153378
0.0152236
0.0151047
0.0149812
0.014853
0.0147206
0.0145842
0.0144436
0.0142982
0.0163491
0.0163445
0.0163344
0.0163193
0.0162983
0.0162733
0.0162447
0.0162116
0.0161735
0.0161314
0.0160843
0.0160319
0.0159742
0.0159112
0.0158438
0.0157721
0.015696
0.0156145
0.0155287
0.0154394
0.0153468
0.01525
0.0151483
0.0150427
0.0149319
0.014817
0.0146973
0.0145721
0.0144428
0.0143098
0.0141732
0.0140319
0.0138857
0.0160451
0.0160396
0.016029
0.0160135
0.0159931
0.0159679
0.0159391
0.0159053
0.0158669
0.0158234
0.0157751
0.0157224
0.015665
0.0156029
0.0155352
0.015463
0.0153863
0.0153042
0.0152171
0.0151266
0.0150326
0.0149351
0.014833
0.0147259
0.0146149
0.0144985
0.014378
0.0142524
0.0141224
0.0139889
0.0138513
0.0137092
0.0135628
0.0188795
0.0188749
0.0188661
0.018853
0.0188361
0.0188145
0.0187883
0.0187587
0.0187258
0.0186897
0.0186488
0.0186043
0.0185562
0.0185042
0.0184475
0.0183857
0.0183188
0.0182475
0.0181717
0.0180914
0.0180071
0.0179182
0.0178244
0.0177258
0.0176215
0.0175131
0.0174
0.0172811
0.0171564
0.0170273
0.0168929
0.0167525
0.016607
0.0188748
0.0188706
0.0188626
0.0188499
0.0188331
0.0188123
0.0187873
0.0187585
0.0187255
0.0186887
0.0186476
0.0186024
0.0185536
0.0185003
0.0184426
0.0183803
0.0183126
0.018241
0.0181651
0.0180853
0.0180009
0.0179115
0.0178166
0.0177174
0.0176132
0.0175046
0.0173911
0.0172724
0.0171483
0.0170191
0.0168841
0.0167436
0.0165975
0.0188631
0.0188593
0.0188512
0.018839
0.0188222
0.0188012
0.0187767
0.0187481
0.018715
0.0186778
0.0186373
0.0185927
0.0185437
0.0184902
0.0184325
0.0183704
0.0183039
0.0182328
0.0181568
0.0180758
0.0179902
0.0178996
0.0178048
0.0177046
0.0176002
0.0174908
0.0173758
0.0172561
0.0171319
0.0170024
0.016868
0.0167283
0.0165831
0.0188449
0.0188409
0.0188333
0.0188213
0.0188047
0.0187838
0.0187593
0.0187304
0.0186974
0.01866
0.0186191
0.018574
0.0185251
0.0184715
0.0184138
0.0183516
0.0182851
0.0182138
0.0181375
0.0180562
0.0179699
0.0178791
0.0177836
0.0176833
0.0175782
0.0174678
0.0173528
0.0172329
0.0171083
0.0169781
0.0168427
0.0167027
0.0165577
0.0188155
0.0188117
0.0188035
0.018791
0.0187739
0.0187525
0.0187277
0.0186987
0.0186654
0.0186281
0.0185865
0.0185409
0.0184911
0.018437
0.0183792
0.0183162
0.0182491
0.0181775
0.0181011
0.0180199
0.0179341
0.0178436
0.0177479
0.0176471
0.0175416
0.0174317
0.0173166
0.0171962
0.0170708
0.0169407
0.0168062
0.0166656
0.0165194
0.0187711
0.0187673
0.0187588
0.018746
0.0187295
0.0187087
0.0186832
0.0186536
0.0186199
0.0185822
0.0185404
0.0184946
0.0184448
0.0183908
0.0183323
0.0182688
0.0182004
0.0181277
0.0180504
0.0179687
0.0178827
0.017792
0.0176961
0.0175946
0.0174891
0.0173786
0.0172625
0.0171417
0.0170166
0.0168862
0.0167512
0.0166108
0.0164647
0.0187069
0.0187024
0.0186939
0.0186809
0.0186642
0.0186429
0.018618
0.0185886
0.0185547
0.0185164
0.0184748
0.0184288
0.0183782
0.0183229
0.0182633
0.018199
0.0181301
0.018057
0.0179795
0.0178976
0.0178116
0.0177208
0.0176247
0.0175229
0.0174168
0.0173055
0.0171899
0.0170695
0.0169441
0.0168136
0.016677
0.0165351
0.0163874
0.0186114
0.0186074
0.0185991
0.0185866
0.0185696
0.0185483
0.0185234
0.0184942
0.0184603
0.0184218
0.0183794
0.0183324
0.0182814
0.0182265
0.0181666
0.0181022
0.0180335
0.0179597
0.0178809
0.0177984
0.0177114
0.0176203
0.0175242
0.0174227
0.0173168
0.0172059
0.0170907
0.0169706
0.0168451
0.0167141
0.0165777
0.0164352
0.0162873
0.0184844
0.0184803
0.0184716
0.0184585
0.0184418
0.0184204
0.0183954
0.0183664
0.0183327
0.0182945
0.0182514
0.0182037
0.0181518
0.0180957
0.0180352
0.0179705
0.0179012
0.0178273
0.0177484
0.017665
0.0175771
0.0174847
0.0173881
0.0172876
0.017182
0.017071
0.0169548
0.0168338
0.0167072
0.0165747
0.0164377
0.0162955
0.0161484
0.0183167
0.0183113
0.0183013
0.0182877
0.0182702
0.0182489
0.0182243
0.0181953
0.0181613
0.018122
0.0180778
0.0180295
0.0179762
0.0179186
0.0178574
0.0177922
0.0177222
0.0176479
0.0175694
0.0174861
0.0173975
0.0173047
0.0172079
0.0171063
0.0169998
0.0168882
0.0167714
0.0166498
0.0165236
0.0163924
0.0162558
0.0161139
0.0159658
0.0180937
0.0180883
0.0180782
0.0180635
0.0180448
0.0180222
0.0179962
0.017965
0.0179299
0.0178904
0.0178469
0.0177979
0.0177442
0.0176855
0.0176227
0.0175561
0.0174856
0.0174105
0.0173303
0.0172463
0.0171577
0.017064
0.016965
0.0168621
0.0167555
0.0166435
0.0165268
0.0164052
0.0162785
0.0161469
0.0160098
0.0158664
0.0157181
0.0178001
0.0177951
0.0177853
0.0177706
0.0177514
0.0177281
0.0177008
0.0176691
0.0176331
0.0175923
0.0175465
0.0174957
0.0174407
0.0173805
0.0173166
0.0172488
0.0171769
0.0171
0.0170189
0.0169335
0.0168439
0.0167493
0.0166491
0.0165454
0.0164372
0.0163246
0.0162078
0.0160859
0.0159589
0.0158272
0.0156903
0.0155474
0.0153995
0.0174232
0.0174194
0.0174101
0.0173962
0.0173773
0.0173531
0.017324
0.0172904
0.0172533
0.0172119
0.0171656
0.0171145
0.0170595
0.016999
0.0169344
0.0168654
0.0167917
0.0167129
0.0166295
0.016542
0.0164505
0.0163547
0.016255
0.0161511
0.0160427
0.0159292
0.0158105
0.0156866
0.015558
0.0154254
0.0152873
0.0151439
0.0149966
0.0169877
0.016983
0.0169738
0.0169587
0.0169392
0.0169152
0.0168868
0.0168543
0.0168164
0.0167745
0.0167278
0.016676
0.0166195
0.0165583
0.0164922
0.0164215
0.0163464
0.0162664
0.0161816
0.0160924
0.0159995
0.0159026
0.0158016
0.0156966
0.0155871
0.0154732
0.0153545
0.0152306
0.0151016
0.0149682
0.0148297
0.0146871
0.0145388
0.0166429
0.0166378
0.0166271
0.0166116
0.0165914
0.0165674
0.0165396
0.0165069
0.0164688
0.0164267
0.0163799
0.0163278
0.0162706
0.0162086
0.0161422
0.0160706
0.0159946
0.0159138
0.0158279
0.0157384
0.0156442
0.0155455
0.015443
0.0153364
0.0152258
0.0151115
0.0149925
0.0148689
0.0147404
0.014607
0.0144689
0.0143253
0.0141768
0.0195133
0.0195093
0.0195019
0.0194903
0.0194742
0.0194539
0.0194307
0.0194043
0.0193745
0.0193407
0.019303
0.0192616
0.0192162
0.0191664
0.0191119
0.0190524
0.018988
0.0189189
0.018845
0.018766
0.018682
0.0185924
0.0184978
0.0183979
0.0182926
0.0181821
0.0180658
0.0179443
0.0178178
0.0176856
0.0175478
0.0174037
0.017253
0.0195101
0.0195064
0.0194988
0.0194872
0.0194716
0.0194523
0.0194293
0.0194034
0.0193737
0.0193396
0.0193015
0.0192599
0.019214
0.0191633
0.0191076
0.0190475
0.0189829
0.018914
0.0188395
0.01876
0.0186759
0.0185864
0.0184912
0.018391
0.0182858
0.0181751
0.0180591
0.0179379
0.0178113
0.0176791
0.0175407
0.0173965
0.0172461
0.0195024
0.0194983
0.0194898
0.0194782
0.0194633
0.0194445
0.0194217
0.0193954
0.019365
0.0193312
0.0192933
0.0192509
0.0192043
0.019154
0.0190994
0.0190398
0.0189748
0.0189046
0.0188297
0.0187501
0.0186648
0.0185751
0.0184805
0.0183809
0.0182754
0.0181646
0.0180479
0.0179261
0.0177992
0.0176665
0.0175279
0.0173832
0.0172329
0.0194864
0.0194827
0.019475
0.0194634
0.0194482
0.0194296
0.0194073
0.0193808
0.0193503
0.0193158
0.0192777
0.0192355
0.0191887
0.0191383
0.0190834
0.0190234
0.018958
0.0188875
0.0188123
0.0187321
0.0186469
0.018557
0.0184621
0.0183622
0.0182562
0.0181444
0.0180273
0.0179048
0.0177767
0.017643
0.0175037
0.0173597
0.0172098
0.0194615
0.0194578
0.0194499
0.0194382
0.0194228
0.0194041
0.0193812
0.0193545
0.0193235
0.019289
0.0192505
0.0192079
0.0191611
0.0191098
0.019054
0.0189933
0.0189275
0.0188569
0.018782
0.0187019
0.0186165
0.0185254
0.01843
0.0183292
0.0182229
0.0181112
0.0179935
0.0178706
0.0177428
0.0176091
0.0174699
0.0173245
0.0171736
0.0194212
0.0194174
0.0194096
0.019398
0.0193828
0.0193636
0.0193406
0.0193135
0.0192824
0.0192474
0.0192087
0.0191661
0.0191191
0.0190674
0.0190111
0.0189497
0.0188831
0.0188115
0.0187354
0.0186546
0.0185684
0.0184776
0.018382
0.0182812
0.0181745
0.0180624
0.0179442
0.0178208
0.017692
0.017558
0.0174181
0.0172727
0.0171217
0.0193633
0.0193592
0.0193515
0.0193396
0.0193232
0.0193027
0.0192789
0.0192515
0.0192207
0.0191855
0.0191466
0.0191036
0.0190556
0.019003
0.0189461
0.0188843
0.0188176
0.0187461
0.0186701
0.0185886
0.0185021
0.0184109
0.0183145
0.0182125
0.0181047
0.0179916
0.017874
0.0177504
0.0176214
0.0174871
0.0173465
0.0172002
0.0170475
0.0192741
0.0192706
0.0192624
0.0192506
0.0192352
0.0192157
0.0191923
0.0191646
0.0191327
0.0190974
0.0190577
0.0190135
0.0189649
0.0189121
0.0188544
0.0187921
0.0187249
0.0186524
0.0185749
0.0184929
0.0184063
0.0183143
0.018217
0.0181149
0.0180065
0.017893
0.0177751
0.017652
0.0175231
0.0173883
0.0172478
0.0171011
0.0169487
0.0191536
0.019149
0.0191405
0.0191286
0.019113
0.019093
0.0190693
0.0190411
0.0190085
0.018972
0.0189307
0.0188853
0.0188355
0.0187817
0.0187231
0.0186599
0.0185913
0.0185181
0.0184405
0.0183587
0.0182711
0.0181785
0.0180811
0.0179784
0.0178707
0.0177577
0.0176393
0.0175154
0.0173855
0.01725
0.0171092
0.0169624
0.0168095
0.0189824
0.0189783
0.0189699
0.0189576
0.0189411
0.0189206
0.0188958
0.018867
0.0188334
0.0187955
0.0187532
0.0187066
0.0186554
0.0185995
0.0185393
0.0184745
0.0184053
0.0183322
0.0182543
0.0181716
0.0180833
0.0179898
0.0178914
0.0177888
0.0176811
0.0175676
0.0174491
0.0173255
0.017196
0.0170609
0.01692
0.0167739
0.0166216
0.0187473
0.0187425
0.0187332
0.0187194
0.0187018
0.0186806
0.0186543
0.018624
0.0185891
0.0185499
0.0185067
0.0184587
0.0184062
0.018349
0.0182873
0.0182216
0.0181515
0.0180769
0.017997
0.0179126
0.0178234
0.0177292
0.0176306
0.0175274
0.0174192
0.017306
0.0171871
0.0170633
0.0169342
0.0167996
0.0166594
0.0165132
0.0163619
0.0184233
0.0184185
0.0184094
0.018396
0.0183777
0.0183548
0.0183274
0.0182957
0.0182599
0.0182197
0.0181746
0.0181249
0.0180706
0.0180119
0.0179488
0.0178815
0.0178104
0.0177339
0.017653
0.0175672
0.0174771
0.0173823
0.0172828
0.0171788
0.0170711
0.0169578
0.0168398
0.0167162
0.0165879
0.0164543
0.016315
0.0161696
0.0160182
0.0179972
0.0179924
0.0179832
0.0179685
0.0179495
0.0179262
0.0178989
0.0178661
0.0178293
0.0177881
0.0177422
0.0176918
0.0176371
0.0175778
0.0175133
0.0174446
0.017372
0.0172943
0.0172122
0.0171258
0.0170351
0.0169393
0.0168391
0.0167345
0.0166256
0.0165124
0.0163941
0.0162702
0.0161417
0.0160077
0.0158688
0.0157246
0.0155755
0.0175011
0.0174966
0.0174879
0.0174738
0.0174548
0.0174318
0.0174047
0.0173722
0.0173354
0.0172938
0.0172472
0.0171956
0.0171393
0.0170791
0.0170138
0.0169441
0.0168698
0.0167907
0.0167071
0.0166198
0.0165282
0.0164324
0.0163315
0.0162258
0.0161161
0.0160023
0.0158843
0.0157612
0.0156326
0.0154989
0.0153604
0.0152168
0.0150682
0.0171131
0.0171085
0.0170996
0.0170851
0.0170664
0.017043
0.0170151
0.016983
0.0169454
0.0169036
0.016857
0.0168054
0.016749
0.0166885
0.0166225
0.0165524
0.0164775
0.0163974
0.0163135
0.0162249
0.0161316
0.0160341
0.0159323
0.0158263
0.0157168
0.0156033
0.0154851
0.0153618
0.0152334
0.0150999
0.0149618
0.0148187
0.01467
0.0200824
0.0200789
0.0200716
0.0200606
0.0200464
0.0200294
0.0200089
0.0199851
0.0199586
0.0199283
0.0198941
0.0198562
0.0198134
0.019766
0.0197129
0.0196544
0.0195902
0.0195205
0.0194457
0.0193657
0.0192799
0.0191885
0.0190913
0.0189881
0.018879
0.0187643
0.0186428
0.0185155
0.0183826
0.018244
0.0180991
0.0179484
0.0177919
0.0200793
0.0200759
0.0200687
0.0200582
0.0200443
0.0200269
0.0200061
0.019982
0.0199553
0.0199251
0.0198911
0.0198528
0.0198098
0.0197616
0.0197081
0.0196495
0.0195859
0.0195163
0.0194411
0.0193603
0.0192739
0.0191824
0.0190854
0.0189821
0.0188727
0.0187576
0.0186365
0.018509
0.0183761
0.0182371
0.0180924
0.0179417
0.0177846
0.0200741
0.0200705
0.020063
0.0200522
0.0200381
0.0200205
0.0199996
0.0199755
0.0199486
0.019918
0.0198833
0.0198444
0.0198006
0.0197522
0.0196995
0.0196409
0.0195771
0.0195073
0.0194321
0.0193513
0.019265
0.0191726
0.019074
0.0189699
0.0188605
0.0187452
0.0186247
0.018498
0.0183653
0.0182265
0.018081
0.0179296
0.0177722
0.0200618
0.0200582
0.0200508
0.02004
0.0200262
0.0200093
0.0199886
0.0199642
0.0199369
0.0199058
0.0198705
0.0198312
0.0197869
0.0197381
0.0196849
0.0196255
0.0195608
0.019491
0.0194158
0.0193349
0.0192483
0.0191553
0.0190567
0.0189524
0.0188427
0.018727
0.0186058
0.0184792
0.0183461
0.0182069
0.0180608
0.0179086
0.01775
0.0200421
0.0200385
0.0200309
0.0200201
0.0200062
0.0199891
0.019968
0.0199432
0.0199153
0.0198837
0.0198484
0.0198086
0.0197645
0.0197153
0.0196611
0.019601
0.0195359
0.0194651
0.0193891
0.0193079
0.0192204
0.0191273
0.0190281
0.0189238
0.0188136
0.0186975
0.0185756
0.0184477
0.0183139
0.0181742
0.0180279
0.0178757
0.0177176
0.0200067
0.0200027
0.0199953
0.0199843
0.0199698
0.0199524
0.0199319
0.0199084
0.019881
0.0198492
0.019813
0.0197728
0.0197278
0.0196783
0.0196234
0.0195627
0.019497
0.0194255
0.0193487
0.0192665
0.0191787
0.0190845
0.0189848
0.0188794
0.0187685
0.0186515
0.0185291
0.0184013
0.0182672
0.0181271
0.0179802
0.017827
0.0176675
0.0199497
0.0199458