/*--------------------------------*- C++ -*----------------------------------*\
| =========                 |                                                 |
| \\      /  F ield         | OpenFOAM: The Open Source CFD Toolbox           |
|  \\    /   O peration     | Version:  2312                                  |
|   \\  /    A nd           | Website:  www.openfoam.com                      |
|    \\/     M anipulation  |                                                 |
\*---------------------------------------------------------------------------*/
FoamFile
{
    version     2.0;
    format      ascii;
    arch        "LSB;label=32;scalar=64";
    class       volVectorField;
    location    "0.2";
    object      D;
}
// * * * * * * * * * * * * * * * * * * * * * * * * * * * * * * * * * * * * * //

dimensions      [0 1 0 0 0 0 0];

internalField   nonuniform List<vector> 
3240
(
(-0.000190409 0.000192598 -7.34832e-05)
(-0.00020647 0.00017527 -7.34829e-05)
(-0.00022096 0.000156608 -7.34835e-05)
(-0.000233768 0.000136753 -7.34835e-05)
(-0.000244798 0.000115859 -7.34833e-05)
(-0.000253965 9.40821e-05 -7.34831e-05)
(-0.000261198 7.15902e-05 -7.34824e-05)
(-0.000266443 4.85531e-05 -7.34824e-05)
(-0.000269661 2.51468e-05 -7.34829e-05)
(-0.000270827 1.54871e-06 -7.34833e-05)
(-0.000269931 -2.20615e-05 -7.34835e-05)
(-0.000266981 -4.55041e-05 -7.34836e-05)
(-0.000261999 -6.86003e-05 -7.34832e-05)
(-0.000255023 -9.11739e-05 -7.34829e-05)
(-0.000246106 -0.000113053 -7.34824e-05)
(-0.000235317 -0.000134072 -7.3483e-05)
(-0.000222736 -0.000154072 -7.34836e-05)
(-0.00020846 -0.000172898 -7.34832e-05)
(-0.000192598 -0.000190409 -7.34832e-05)
(-0.00017527 -0.00020647 -7.34829e-05)
(-0.000156608 -0.00022096 -7.34835e-05)
(-0.000136753 -0.000233768 -7.34835e-05)
(-0.000115859 -0.000244798 -7.34833e-05)
(-9.40821e-05 -0.000253965 -7.34831e-05)
(-7.15902e-05 -0.000261198 -7.34824e-05)
(-4.85532e-05 -0.000266443 -7.34825e-05)
(-2.51468e-05 -0.000269661 -7.34829e-05)
(-1.54871e-06 -0.000270827 -7.34833e-05)
(2.20615e-05 -0.000269931 -7.34835e-05)
(4.55041e-05 -0.000266981 -7.34836e-05)
(6.86003e-05 -0.000261999 -7.34832e-05)
(9.11739e-05 -0.000255023 -7.34829e-05)
(0.000113053 -0.000246106 -7.34824e-05)
(0.000134072 -0.000235317 -7.3483e-05)
(0.000154072 -0.000222736 -7.34836e-05)
(0.000172898 -0.00020846 -7.34832e-05)
(0.000190409 -0.000192598 -7.34832e-05)
(0.00020647 -0.00017527 -7.34829e-05)
(0.00022096 -0.000156608 -7.34835e-05)
(0.000233768 -0.000136753 -7.34835e-05)
(0.000244798 -0.000115859 -7.34833e-05)
(0.000253965 -9.40821e-05 -7.34831e-05)
(0.000261198 -7.15902e-05 -7.34824e-05)
(0.000266443 -4.85532e-05 -7.34825e-05)
(0.000269661 -2.51468e-05 -7.34829e-05)
(0.000270827 -1.54871e-06 -7.34833e-05)
(0.000269931 2.20615e-05 -7.34835e-05)
(0.000266981 4.55041e-05 -7.34836e-05)
(0.000261999 6.86003e-05 -7.34832e-05)
(0.000255023 9.11739e-05 -7.34829e-05)
(0.000246106 0.000113053 -7.34824e-05)
(0.000235317 0.000134072 -7.3483e-05)
(0.000222736 0.000154072 -7.34836e-05)
(0.00020846 0.000172899 -7.34832e-05)
(0.000192598 0.000190409 -7.34832e-05)
(0.00017527 0.00020647 -7.34829e-05)
(0.000156608 0.00022096 -7.34835e-05)
(0.000136753 0.000233768 -7.34835e-05)
(0.000115859 0.000244798 -7.34833e-05)
(9.40821e-05 0.000253965 -7.34831e-05)
(7.15902e-05 0.000261198 -7.34824e-05)
(4.85531e-05 0.000266443 -7.34825e-05)
(2.51468e-05 0.000269661 -7.34829e-05)
(1.5487e-06 0.000270827 -7.34833e-05)
(-2.20615e-05 0.000269931 -7.34835e-05)
(-4.55041e-05 0.000266981 -7.34836e-05)
(-6.86003e-05 0.000261999 -7.34832e-05)
(-9.11739e-05 0.000255023 -7.34829e-05)
(-0.000113053 0.000246106 -7.34824e-05)
(-0.000134072 0.000235317 -7.3483e-05)
(-0.000154072 0.000222736 -7.34836e-05)
(-0.000172899 0.00020846 -7.34832e-05)
(-0.000154265 0.000211078 -3.51069e-05)
(-0.000172075 0.00019683 -3.51067e-05)
(-0.000188575 0.000181083 -3.51069e-05)
(-0.00020364 0.000163958 -3.51068e-05)
(-0.000217155 0.000145586 -3.51068e-05)
(-0.000229017 0.000126106 -3.51067e-05)
(-0.000239136 0.000105666 -3.51065e-05)
(-0.000247436 8.4422e-05 -3.51063e-05)
(-0.000253852 6.25359e-05 -3.51064e-05)
(-0.000258337 4.01732e-05 -3.51068e-05)
(-0.000260855 1.75046e-05 -3.51069e-05)
(-0.000261388 -5.29731e-06 -3.51068e-05)
(-0.000259932 -2.80588e-05 -3.51067e-05)
(-0.000256497 -5.06065e-05 -3.51066e-05)
(-0.00025111 -7.27688e-05 -3.51066e-05)
(-0.000243813 -9.43775e-05 -3.51067e-05)
(-0.000234659 -0.000115268 -3.5107e-05)
(-0.00022372 -0.000135281 -3.51068e-05)
(-0.000211078 -0.000154265 -3.51069e-05)
(-0.00019683 -0.000172075 -3.51067e-05)
(-0.000181083 -0.000188575 -3.51069e-05)
(-0.000163958 -0.00020364 -3.51068e-05)
(-0.000145586 -0.000217155 -3.51068e-05)
(-0.000126106 -0.000229017 -3.51067e-05)
(-0.000105666 -0.000239136 -3.51065e-05)
(-8.4422e-05 -0.000247436 -3.51063e-05)
(-6.25359e-05 -0.000253852 -3.51064e-05)
(-4.01733e-05 -0.000258337 -3.51068e-05)
(-1.75046e-05 -0.000260855 -3.51069e-05)
(5.29731e-06 -0.000261388 -3.51068e-05)
(2.80588e-05 -0.000259932 -3.51067e-05)
(5.06065e-05 -0.000256497 -3.51066e-05)
(7.27688e-05 -0.00025111 -3.51066e-05)
(9.43775e-05 -0.000243813 -3.51067e-05)
(0.000115268 -0.000234659 -3.5107e-05)
(0.000135281 -0.00022372 -3.51068e-05)
(0.000154265 -0.000211078 -3.51069e-05)
(0.000172075 -0.00019683 -3.51067e-05)
(0.000188575 -0.000181083 -3.51069e-05)
(0.00020364 -0.000163958 -3.51068e-05)
(0.000217155 -0.000145586 -3.51068e-05)
(0.000229017 -0.000126106 -3.51067e-05)
(0.000239136 -0.000105666 -3.51065e-05)
(0.000247436 -8.4422e-05 -3.51063e-05)
(0.000253852 -6.25359e-05 -3.51064e-05)
(0.000258337 -4.01733e-05 -3.51068e-05)
(0.000260855 -1.75046e-05 -3.51069e-05)
(0.000261388 5.29731e-06 -3.51068e-05)
(0.000259932 2.80589e-05 -3.51067e-05)
(0.000256497 5.06065e-05 -3.51066e-05)
(0.00025111 7.27688e-05 -3.51066e-05)
(0.000243813 9.43776e-05 -3.51067e-05)
(0.000234659 0.000115268 -3.5107e-05)
(0.00022372 0.000135281 -3.51068e-05)
(0.000211078 0.000154265 -3.51069e-05)
(0.00019683 0.000172075 -3.51067e-05)
(0.000181083 0.000188575 -3.51069e-05)
(0.000163958 0.00020364 -3.51068e-05)
(0.000145586 0.000217155 -3.51068e-05)
(0.000126106 0.000229017 -3.51067e-05)
(0.000105666 0.000239136 -3.51065e-05)
(8.4422e-05 0.000247436 -3.51063e-05)
(6.25359e-05 0.000253852 -3.51064e-05)
(4.01733e-05 0.000258337 -3.51068e-05)
(1.75046e-05 0.000260855 -3.51069e-05)
(-5.29731e-06 0.000261388 -3.51068e-05)
(-2.80588e-05 0.000259932 -3.51067e-05)
(-5.06065e-05 0.000256497 -3.51066e-05)
(-7.27688e-05 0.00025111 -3.51066e-05)
(-9.43776e-05 0.000243813 -3.51067e-05)
(-0.000115268 0.000234659 -3.5107e-05)
(-0.000135281 0.00022372 -3.51068e-05)
(-0.000133782 0.000235047 2.09177e-06)
(-0.000153759 0.000222493 2.09187e-06)
(-0.000172565 0.000208245 2.09208e-06)
(-0.000190058 0.000192413 2.09191e-06)
(-0.000206106 0.000175116 2.09175e-06)
(-0.000220583 0.000156486 2.09178e-06)
(-0.000233382 0.000136665 2.09199e-06)
(-0.000244405 0.000115805 2.09182e-06)
(-0.000253569 9.40638e-05 2.09187e-06)
(-0.000260802 7.16058e-05 2.0917e-06)
(-0.00026605 4.86025e-05 2.09182e-06)
(-0.000269274 2.52296e-05 2.09195e-06)
(-0.000270448 1.66456e-06 2.09206e-06)
(-0.000269565 -2.19129e-05 2.09179e-06)
(-0.000266628 -4.53233e-05 2.09151e-06)
(-0.000261664 -6.83889e-05 2.09159e-06)
(-0.000254707 -9.0934e-05 2.09177e-06)
(-0.000245813 -0.000112787 2.0918e-06)
(-0.000235047 -0.000133782 2.09177e-06)
(-0.000222493 -0.000153759 2.09187e-06)
(-0.000208245 -0.000172565 2.09208e-06)
(-0.000192413 -0.000190058 2.09191e-06)
(-0.000175116 -0.000206106 2.09175e-06)
(-0.000156486 -0.000220583 2.09178e-06)
(-0.000136665 -0.000233382 2.09199e-06)
(-0.000115805 -0.000244405 2.09182e-06)
(-9.40638e-05 -0.000253569 2.09187e-06)
(-7.16058e-05 -0.000260802 2.09169e-06)
(-4.86025e-05 -0.00026605 2.09182e-06)
(-2.52296e-05 -0.000269274 2.09194e-06)
(-1.66455e-06 -0.000270448 2.09206e-06)
(2.19129e-05 -0.000269565 2.09179e-06)
(4.53233e-05 -0.000266628 2.09151e-06)
(6.83889e-05 -0.000261664 2.0916e-06)
(9.0934e-05 -0.000254707 2.09177e-06)
(0.000112787 -0.000245813 2.0918e-06)
(0.000133782 -0.000235047 2.09177e-06)
(0.000153759 -0.000222493 2.09187e-06)
(0.000172565 -0.000208245 2.09208e-06)
(0.000190058 -0.000192413 2.09191e-06)
(0.000206106 -0.000175116 2.09175e-06)
(0.000220583 -0.000156486 2.09177e-06)
(0.000233382 -0.000136665 2.09198e-06)
(0.000244405 -0.000115805 2.09181e-06)
(0.000253569 -9.40638e-05 2.09186e-06)
(0.000260802 -7.16058e-05 2.09169e-06)
(0.00026605 -4.86025e-05 2.09181e-06)
(0.000269274 -2.52296e-05 2.09194e-06)
(0.000270448 -1.66455e-06 2.09206e-06)
(0.000269565 2.19129e-05 2.09179e-06)
(0.000266628 4.53233e-05 2.09151e-06)
(0.000261664 6.83889e-05 2.09159e-06)
(0.000254707 9.0934e-05 2.09177e-06)
(0.000245813 0.000112787 2.0918e-06)
(0.000235047 0.000133782 2.09177e-06)
(0.000222493 0.000153759 2.09187e-06)
(0.000208245 0.000172565 2.09208e-06)
(0.000192413 0.000190058 2.09191e-06)
(0.000175116 0.000206106 2.09175e-06)
(0.000156486 0.000220583 2.09177e-06)
(0.000136665 0.000233382 2.09198e-06)
(0.000115805 0.000244405 2.09181e-06)
(9.40638e-05 0.000253569 2.09186e-06)
(7.16058e-05 0.000260802 2.09169e-06)
(4.86025e-05 0.00026605 2.09181e-06)
(2.52296e-05 0.000269274 2.09194e-06)
(1.66455e-06 0.000270448 2.09206e-06)
(-2.19129e-05 0.000269565 2.09179e-06)
(-4.53233e-05 0.000266628 2.09151e-06)
(-6.83889e-05 0.000261664 2.09159e-06)
(-9.0934e-05 0.000254707 2.09176e-06)
(-0.000112787 0.000245813 2.0918e-06)
(-0.000477843 0.000579777 -0.00021296)
(-0.000526555 0.000535924 -0.00021296)
(-0.00057126 0.000487992 -0.000212961)
(-0.000611618 0.000436346 -0.000212961)
(-0.000647321 0.000381379 -0.000212961)
(-0.000678098 0.000323511 -0.00021296)
(-0.000703713 0.00026318 -0.000212959)
(-0.000723973 0.000200846 -0.000212958)
(-0.000738722 0.000136984 -0.000212958)
(-0.00074785 7.20796e-05 -0.000212959)
(-0.000751286 6.62591e-06 -0.00021296)
(-0.000749004 -5.88787e-05 -0.00021296)
(-0.000741023 -0.000123936 -0.00021296)
(-0.000727401 -0.000188049 -0.000212959)
(-0.000708244 -0.000250729 -0.000212959)
(-0.000683696 -0.000311502 -0.000212959)
(-0.000653945 -0.000369906 -0.000212961)
(-0.000619217 -0.000425494 -0.00021296)
(-0.000579777 -0.000477843 -0.00021296)
(-0.000535923 -0.000526555 -0.00021296)
(-0.000487992 -0.00057126 -0.000212961)
(-0.000436346 -0.000611618 -0.000212961)
(-0.000381379 -0.000647321 -0.000212961)
(-0.000323511 -0.000678098 -0.00021296)
(-0.00026318 -0.000703713 -0.000212959)
(-0.000200846 -0.000723973 -0.000212958)
(-0.000136984 -0.000738722 -0.000212958)
(-7.20796e-05 -0.00074785 -0.000212959)
(-6.62591e-06 -0.000751286 -0.00021296)
(5.88787e-05 -0.000749004 -0.00021296)
(0.000123936 -0.000741023 -0.00021296)
(0.000188049 -0.000727401 -0.000212959)
(0.000250729 -0.000708244 -0.000212959)
(0.000311502 -0.000683696 -0.000212959)
(0.000369906 -0.000653945 -0.000212961)
(0.000425494 -0.000619217 -0.00021296)
(0.000477843 -0.000579777 -0.00021296)
(0.000526555 -0.000535923 -0.00021296)
(0.00057126 -0.000487992 -0.000212961)
(0.000611618 -0.000436346 -0.000212961)
(0.000647321 -0.000381379 -0.000212961)
(0.000678098 -0.000323511 -0.00021296)
(0.000703713 -0.00026318 -0.000212959)
(0.000723973 -0.000200846 -0.000212958)
(0.000738722 -0.000136984 -0.000212958)
(0.00074785 -7.20796e-05 -0.000212959)
(0.000751286 -6.6259e-06 -0.00021296)
(0.000749004 5.88787e-05 -0.00021296)
(0.000741023 0.000123936 -0.00021296)
(0.000727401 0.000188049 -0.000212959)
(0.000708244 0.000250729 -0.000212959)
(0.000683696 0.000311502 -0.000212959)
(0.000653945 0.000369906 -0.000212961)
(0.000619217 0.000425494 -0.00021296)
(0.000579777 0.000477843 -0.00021296)
(0.000535923 0.000526555 -0.00021296)
(0.000487992 0.00057126 -0.000212961)
(0.000436346 0.000611618 -0.000212961)
(0.000381379 0.000647321 -0.000212961)
(0.000323511 0.000678098 -0.00021296)
(0.00026318 0.000703713 -0.000212959)
(0.000200846 0.000723973 -0.000212958)
(0.000136984 0.000738722 -0.000212958)
(7.20796e-05 0.00074785 -0.000212959)
(6.6259e-06 0.000751286 -0.00021296)
(-5.88788e-05 0.000749004 -0.00021296)
(-0.000123936 0.000741023 -0.00021296)
(-0.000188049 0.000727401 -0.000212959)
(-0.000250729 0.000708244 -0.000212959)
(-0.000311502 0.000683696 -0.000212959)
(-0.000369906 0.000653945 -0.000212961)
(-0.000425494 0.000619217 -0.00021296)
(-0.000457841 0.000637545 -0.000124723)
(-0.000511664 0.000595216 -0.000124723)
(-0.000561593 0.000548356 -0.000124723)
(-0.000607249 0.000497323 -0.000124723)
(-0.000648283 0.000442505 -0.000124723)
(-0.000684383 0.00038432 -0.000124723)
(-0.000715274 0.00032321 -0.000124722)
(-0.000740722 0.00025964 -0.000124722)
(-0.000760532 0.000194094 -0.000124722)
(-0.000774555 0.000127071 -0.000124722)
(-0.000782682 5.90805e-05 -0.000124722)
(-0.000784853 -9.35992e-06 -0.000124723)
(-0.000781051 -7.77293e-05 -0.000124723)
(-0.000771304 -0.000145506 -0.000124723)
(-0.000755687 -0.000212176 -0.000124723)
(-0.000734319 -0.00027723 -0.000124723)
(-0.000707362 -0.000340176 -0.000124723)
(-0.000675022 -0.000400533 -0.000124723)
(-0.000637545 -0.000457841 -0.000124723)
(-0.000595216 -0.000511664 -0.000124723)
(-0.000548356 -0.000561593 -0.000124723)
(-0.000497323 -0.000607249 -0.000124723)
(-0.000442505 -0.000648283 -0.000124723)
(-0.00038432 -0.000684383 -0.000124723)
(-0.00032321 -0.000715274 -0.000124722)
(-0.00025964 -0.000740722 -0.000124722)
(-0.000194095 -0.000760532 -0.000124722)
(-0.000127071 -0.000774555 -0.000124722)
(-5.90805e-05 -0.000782682 -0.000124722)
(9.35991e-06 -0.000784853 -0.000124723)
(7.77293e-05 -0.000781051 -0.000124723)
(0.000145506 -0.000771304 -0.000124723)
(0.000212176 -0.000755687 -0.000124723)
(0.00027723 -0.000734319 -0.000124723)
(0.000340176 -0.000707362 -0.000124723)
(0.000400533 -0.000675022 -0.000124723)
(0.000457841 -0.000637545 -0.000124723)
(0.000511664 -0.000595216 -0.000124723)
(0.000561593 -0.000548356 -0.000124723)
(0.000607249 -0.000497323 -0.000124723)
(0.000648283 -0.000442505 -0.000124723)
(0.000684383 -0.00038432 -0.000124723)
(0.000715274 -0.00032321 -0.000124722)
(0.000740722 -0.00025964 -0.000124722)
(0.000760532 -0.000194095 -0.000124722)
(0.000774555 -0.000127071 -0.000124722)
(0.000782682 -5.90805e-05 -0.000124722)
(0.000784853 9.35992e-06 -0.000124723)
(0.000781051 7.77293e-05 -0.000124723)
(0.000771304 0.000145506 -0.000124723)
(0.000755687 0.000212176 -0.000124723)
(0.000734319 0.00027723 -0.000124723)
(0.000707362 0.000340176 -0.000124723)
(0.000675022 0.000400533 -0.000124723)
(0.000637545 0.000457841 -0.000124723)
(0.000595216 0.000511664 -0.000124723)
(0.000548356 0.000561593 -0.000124723)
(0.000497323 0.000607249 -0.000124723)
(0.000442505 0.000648283 -0.000124723)
(0.00038432 0.000684383 -0.000124723)
(0.00032321 0.000715274 -0.000124722)
(0.00025964 0.000740722 -0.000124722)
(0.000194094 0.000760532 -0.000124722)
(0.000127071 0.000774555 -0.000124722)
(5.90805e-05 0.000782682 -0.000124722)
(-9.35992e-06 0.000784853 -0.000124723)
(-7.77293e-05 0.000781051 -0.000124723)
(-0.000145506 0.000771304 -0.000124723)
(-0.000212176 0.000755687 -0.000124723)
(-0.00027723 0.000734319 -0.000124723)
(-0.000340176 0.000707362 -0.000124723)
(-0.000400533 0.000675022 -0.000124723)
(-0.000457067 0.000708948 -4.06586e-05)
(-0.000517117 0.000666415 -4.06582e-05)
(-0.00057323 0.000618809 -4.06578e-05)
(-0.000624982 0.000566494 -4.06581e-05)
(-0.000671977 0.000509867 -4.0658e-05)
(-0.000713858 0.000449361 -4.06581e-05)
(-0.000750306 0.000385434 -4.06581e-05)
(-0.000781043 0.000318574 -4.06581e-05)
(-0.000805836 0.00024929 -4.0658e-05)
(-0.000824497 0.000178108 -4.06576e-05)
(-0.000836883 0.00010557 -4.06575e-05)
(-0.0008429 3.22288e-05 -4.06579e-05)
(-0.000842501 -4.13576e-05 -4.06581e-05)
(-0.000835691 -0.000114629 -4.06585e-05)
(-0.00082252 -0.000187027 -4.06585e-05)
(-0.000803089 -0.000258003 -4.06582e-05)
(-0.000777547 -0.000327015 -4.06584e-05)
(-0.000746087 -0.000393539 -4.06583e-05)
(-0.000708948 -0.000457067 -4.06586e-05)
(-0.000666415 -0.000517117 -4.06582e-05)
(-0.000618809 -0.00057323 -4.06578e-05)
(-0.000566494 -0.000624982 -4.06581e-05)
(-0.000509867 -0.000671977 -4.0658e-05)
(-0.000449361 -0.000713858 -4.06581e-05)
(-0.000385434 -0.000750306 -4.06581e-05)
(-0.000318574 -0.000781043 -4.06582e-05)
(-0.00024929 -0.000805836 -4.0658e-05)
(-0.000178108 -0.000824497 -4.06576e-05)
(-0.00010557 -0.000836883 -4.06575e-05)
(-3.22288e-05 -0.0008429 -4.06579e-05)
(4.13576e-05 -0.000842501 -4.06582e-05)
(0.000114629 -0.000835691 -4.06585e-05)
(0.000187027 -0.00082252 -4.06585e-05)
(0.000258003 -0.000803089 -4.06582e-05)
(0.000327015 -0.000777547 -4.06584e-05)
(0.000393539 -0.000746087 -4.06583e-05)
(0.000457067 -0.000708948 -4.06586e-05)
(0.000517117 -0.000666415 -4.06582e-05)
(0.00057323 -0.000618809 -4.06578e-05)
(0.000624982 -0.000566494 -4.06581e-05)
(0.000671977 -0.000509867 -4.0658e-05)
(0.000713858 -0.000449361 -4.06581e-05)
(0.000750306 -0.000385434 -4.06581e-05)
(0.000781043 -0.000318574 -4.06582e-05)
(0.000805836 -0.00024929 -4.0658e-05)
(0.000824497 -0.000178108 -4.06576e-05)
(0.000836883 -0.00010557 -4.06575e-05)
(0.0008429 -3.22288e-05 -4.06579e-05)
(0.000842501 4.13576e-05 -4.06582e-05)
(0.000835691 0.000114629 -4.06585e-05)
(0.00082252 0.000187027 -4.06585e-05)
(0.000803089 0.000258003 -4.06582e-05)
(0.000777547 0.000327015 -4.06584e-05)
(0.000746087 0.000393539 -4.06583e-05)
(0.000708948 0.000457067 -4.06586e-05)
(0.000666415 0.000517117 -4.06582e-05)
(0.000618809 0.00057323 -4.06578e-05)
(0.000566494 0.000624982 -4.06581e-05)
(0.000509867 0.000671977 -4.0658e-05)
(0.000449361 0.000713858 -4.06581e-05)
(0.000385434 0.000750306 -4.06581e-05)
(0.000318574 0.000781043 -4.06582e-05)
(0.00024929 0.000805836 -4.0658e-05)
(0.000178108 0.000824497 -4.06576e-05)
(0.00010557 0.000836883 -4.06575e-05)
(3.22288e-05 0.0008429 -4.06579e-05)
(-4.13576e-05 0.000842501 -4.06582e-05)
(-0.000114629 0.000835691 -4.06585e-05)
(-0.000187027 0.00082252 -4.06585e-05)
(-0.000258003 0.000803089 -4.06583e-05)
(-0.000327015 0.000777547 -4.06584e-05)
(-0.000393539 0.000746087 -4.06583e-05)
(-0.000736809 0.00098064 -0.000366849)
(-0.000819473 0.000912691 -0.000366849)
(-0.0008959 0.000837797 -0.000366849)
(-0.00096551 0.000756526 -0.000366849)
(-0.00102777 0.000669497 -0.000366849)
(-0.00108221 0.000577373 -0.000366848)
(-0.00112841 0.000480855 -0.000366846)
(-0.00116603 0.000380679 -0.000366846)
(-0.00119477 0.000277604 -0.000366846)
(-0.00121442 0.000172416 -0.000366847)
(-0.00122483 6.5917e-05 -0.000366847)
(-0.00122591 -4.10841e-05 -0.000366847)
(-0.00121766 -0.000147773 -0.000366847)
(-0.00120015 -0.000253338 -0.000366847)
(-0.0011735 -0.000356974 -0.000366847)
(-0.00113793 -0.000457893 -0.000366848)
(-0.00109369 -0.000555327 -0.000366849)
(-0.00104113 -0.000648536 -0.000366849)
(-0.00098064 -0.000736809 -0.000366849)
(-0.000912691 -0.000819473 -0.000366849)
(-0.000837797 -0.0008959 -0.000366849)
(-0.000756526 -0.00096551 -0.000366849)
(-0.000669497 -0.00102777 -0.000366849)
(-0.000577373 -0.00108221 -0.000366848)
(-0.000480855 -0.00112841 -0.000366846)
(-0.000380679 -0.00116603 -0.000366846)
(-0.000277604 -0.00119477 -0.000366846)
(-0.000172416 -0.00121442 -0.000366847)
(-6.5917e-05 -0.00122483 -0.000366847)
(4.10841e-05 -0.00122591 -0.000366847)
(0.000147773 -0.00121766 -0.000366847)
(0.000253338 -0.00120015 -0.000366847)
(0.000356974 -0.0011735 -0.000366847)
(0.000457893 -0.00113793 -0.000366847)
(0.000555327 -0.00109369 -0.000366849)
(0.000648536 -0.00104113 -0.000366849)
(0.000736809 -0.00098064 -0.000366849)
(0.000819473 -0.000912691 -0.000366849)
(0.0008959 -0.000837796 -0.000366849)
(0.00096551 -0.000756526 -0.000366849)
(0.00102777 -0.000669497 -0.000366849)
(0.00108221 -0.000577373 -0.000366848)
(0.00112841 -0.000480855 -0.000366846)
(0.00116603 -0.000380679 -0.000366846)
(0.00119477 -0.000277604 -0.000366846)
(0.00121442 -0.000172416 -0.000366847)
(0.00122483 -6.5917e-05 -0.000366847)
(0.00122591 4.10842e-05 -0.000366847)
(0.00121766 0.000147773 -0.000366847)
(0.00120015 0.000253338 -0.000366847)
(0.0011735 0.000356974 -0.000366847)
(0.00113793 0.000457893 -0.000366847)
(0.00109369 0.000555327 -0.000366849)
(0.00104113 0.000648536 -0.000366849)
(0.00098064 0.000736809 -0.000366849)
(0.000912691 0.000819473 -0.000366849)
(0.000837796 0.0008959 -0.000366849)
(0.000756526 0.00096551 -0.000366849)
(0.000669497 0.00102777 -0.000366849)
(0.000577373 0.00108221 -0.000366848)
(0.000480855 0.00112841 -0.000366846)
(0.000380679 0.00116603 -0.000366846)
(0.000277604 0.00119477 -0.000366846)
(0.000172416 0.00121442 -0.000366847)
(6.5917e-05 0.00122483 -0.000366847)
(-4.10842e-05 0.00122591 -0.000366847)
(-0.000147773 0.00121766 -0.000366847)
(-0.000253338 0.00120015 -0.000366847)
(-0.000356974 0.0011735 -0.000366847)
(-0.000457893 0.00113793 -0.000366847)
(-0.000555327 0.00109369 -0.000366849)
(-0.000648536 0.00104113 -0.000366849)
(-0.000737248 0.00107658 -0.000247744)
(-0.000828272 0.00100823 -0.000247744)
(-0.000912992 0.000932201 -0.000247744)
(-0.000990765 0.000849082 -0.000247744)
(-0.001061 0.000759499 -0.000247744)
(-0.00112315 0.000664137 -0.000247744)
(-0.00117676 0.000563721 -0.000247743)
(-0.00122142 0.000459014 -0.000247743)
(-0.00125678 0.000350814 -0.000247743)
(-0.00128257 0.000239944 -0.000247743)
(-0.0012986 0.000127248 -0.000247743)
(-0.00130475 1.35831e-05 -0.000247743)
(-0.00130097 -0.000100185 -0.000247744)
(-0.00128729 -0.000213191 -0.000247743)
(-0.00126381 -0.000324574 -0.000247743)
(-0.00123071 -0.000433487 -0.000247744)
(-0.00118824 -0.000539101 -0.000247744)
(-0.00113674 -0.000640612 -0.000247744)
(-0.00107658 -0.000737248 -0.000247744)
(-0.00100823 -0.000828272 -0.000247744)
(-0.000932201 -0.000912992 -0.000247744)
(-0.000849082 -0.000990765 -0.000247744)
(-0.000759499 -0.001061 -0.000247744)
(-0.000664137 -0.00112315 -0.000247744)
(-0.000563721 -0.00117676 -0.000247743)
(-0.000459014 -0.00122142 -0.000247743)
(-0.000350814 -0.00125678 -0.000247743)
(-0.000239944 -0.00128257 -0.000247743)
(-0.000127248 -0.0012986 -0.000247743)
(-1.35831e-05 -0.00130475 -0.000247743)
(0.000100185 -0.00130097 -0.000247744)
(0.000213191 -0.00128729 -0.000247743)
(0.000324574 -0.00126381 -0.000247743)
(0.000433487 -0.00123071 -0.000247744)
(0.000539101 -0.00118824 -0.000247744)
(0.000640612 -0.00113674 -0.000247744)
(0.000737248 -0.00107658 -0.000247744)
(0.000828272 -0.00100823 -0.000247744)
(0.000912992 -0.000932201 -0.000247744)
(0.000990765 -0.000849081 -0.000247744)
(0.001061 -0.000759499 -0.000247744)
(0.00112315 -0.000664137 -0.000247744)
(0.00117676 -0.000563721 -0.000247743)
(0.00122142 -0.000459014 -0.000247743)
(0.00125678 -0.000350814 -0.000247743)
(0.00128257 -0.000239944 -0.000247743)
(0.0012986 -0.000127248 -0.000247743)
(0.00130475 -1.35831e-05 -0.000247743)
(0.00130097 0.000100185 -0.000247744)
(0.00128729 0.000213191 -0.000247743)
(0.00126381 0.000324574 -0.000247743)
(0.00123071 0.000433487 -0.000247744)
(0.00118824 0.000539101 -0.000247744)
(0.00113674 0.000640612 -0.000247744)
(0.00107658 0.000737248 -0.000247744)
(0.00100823 0.000828272 -0.000247744)
(0.000932201 0.000912992 -0.000247744)
(0.000849081 0.000990765 -0.000247744)
(0.000759499 0.001061 -0.000247744)
(0.000664137 0.00112315 -0.000247744)
(0.000563721 0.00117676 -0.000247743)
(0.000459014 0.00122142 -0.000247743)
(0.000350814 0.00125678 -0.000247743)
(0.000239944 0.00128257 -0.000247743)
(0.000127248 0.0012986 -0.000247743)
(1.35831e-05 0.00130475 -0.000247743)
(-0.000100185 0.00130097 -0.000247744)
(-0.000213191 0.00128729 -0.000247743)
(-0.000324574 0.00126381 -0.000247743)
(-0.000433487 0.00123071 -0.000247744)
(-0.000539101 0.00118824 -0.000247744)
(-0.000640612 0.00113674 -0.000247744)
(-0.000758661 0.00118068 -0.000135869)
(-0.000858677 0.00111007 -0.000135869)
(-0.000952158 0.001031 -0.000135869)
(-0.00103839 0.000944094 -0.000135869)
(-0.00111672 0.000849999 -0.000135869)
(-0.00118656 0.000749437 -0.000135869)
(-0.00124736 0.00064317 -0.000135869)
(-0.00129867 0.000532008 -0.000135869)
(-0.00134009 0.000416797 -0.000135869)
(-0.00137132 0.000298414 -0.000135869)
(-0.00139211 0.00017776 -0.000135869)
(-0.00140231 5.57525e-05 -0.000135869)
(-0.00140183 -6.66789e-05 -0.000135869)
(-0.00139068 -0.000188602 -0.000135869)
(-0.00136895 -0.000309091 -0.000135869)
(-0.00133681 -0.000427227 -0.000135869)
(-0.00129448 -0.000542112 -0.000135869)
(-0.00124231 -0.000652871 -0.000135869)
(-0.00118068 -0.000758661 -0.000135869)
(-0.00111007 -0.000858677 -0.000135869)
(-0.001031 -0.000952158 -0.000135869)
(-0.000944094 -0.00103839 -0.000135869)
(-0.000849999 -0.00111672 -0.000135869)
(-0.000749437 -0.00118656 -0.000135869)
(-0.00064317 -0.00124736 -0.000135869)
(-0.000532008 -0.00129867 -0.000135869)
(-0.000416797 -0.00134009 -0.000135869)
(-0.000298414 -0.00137132 -0.000135869)
(-0.00017776 -0.00139211 -0.000135869)
(-5.57525e-05 -0.00140231 -0.000135869)
(6.66789e-05 -0.00140183 -0.000135869)
(0.000188602 -0.00139068 -0.000135869)
(0.000309091 -0.00136895 -0.000135869)
(0.000427227 -0.00133681 -0.000135869)
(0.000542112 -0.00129448 -0.000135869)
(0.000652871 -0.00124231 -0.000135869)
(0.000758661 -0.00118068 -0.000135869)
(0.000858677 -0.00111007 -0.000135869)
(0.000952158 -0.001031 -0.000135869)
(0.00103839 -0.000944094 -0.000135869)
(0.00111672 -0.000849999 -0.000135869)
(0.00118656 -0.000749437 -0.000135869)
(0.00124736 -0.00064317 -0.000135869)
(0.00129867 -0.000532008 -0.000135869)
(0.00134009 -0.000416797 -0.000135869)
(0.00137132 -0.000298414 -0.000135869)
(0.00139211 -0.00017776 -0.000135869)
(0.00140231 -5.57525e-05 -0.000135869)
(0.00140183 6.66789e-05 -0.000135869)
(0.00139068 0.000188602 -0.000135869)
(0.00136895 0.000309091 -0.000135869)
(0.00133681 0.000427227 -0.000135869)
(0.00129448 0.000542112 -0.000135869)
(0.00124231 0.000652871 -0.000135869)
(0.00118068 0.000758661 -0.000135869)
(0.00111007 0.000858677 -0.000135869)
(0.001031 0.000952158 -0.000135869)
(0.000944094 0.00103839 -0.000135869)
(0.000849999 0.00111672 -0.000135869)
(0.000749437 0.00118656 -0.000135869)
(0.00064317 0.00124736 -0.000135869)
(0.000532008 0.00129867 -0.000135869)
(0.000416797 0.00134009 -0.000135869)
(0.000298414 0.00137132 -0.000135869)
(0.00017776 0.00139211 -0.000135869)
(5.57525e-05 0.00140231 -0.000135869)
(-6.66789e-05 0.00140183 -0.000135869)
(-0.000188602 0.00139068 -0.000135869)
(-0.000309091 0.00136895 -0.000135869)
(-0.000427227 0.00133681 -0.000135869)
(-0.000542112 0.00129448 -0.000135869)
(-0.000652871 0.00124231 -0.000135869)
(-0.000956021 0.00140317 -0.000538545)
(-0.00107468 0.00131451 -0.000538546)
(-0.00118516 0.00121585 -0.000538546)
(-0.00128661 0.00110793 -0.000538546)
(-0.00137828 0.000991574 -0.000538545)
(-0.00145946 0.000867676 -0.000538545)
(-0.00152953 0.000737175 -0.000538544)
(-0.00158795 0.000601063 -0.000538544)
(-0.0016343 0.000460376 -0.000538544)
(-0.0016682 0.000316186 -0.000538545)
(-0.00168941 0.000169589 -0.000538544)
(-0.00169777 2.17018e-05 -0.000538544)
(-0.0016932 -0.000126351 -0.000538544)
(-0.00167574 -0.000273441 -0.000538544)
(-0.00164553 -0.000418452 -0.000538544)
(-0.0016028 -0.000560277 -0.000538544)
(-0.00154787 -0.000697838 -0.000538545)
(-0.00148116 -0.000830088 -0.000538545)
(-0.00140317 -0.000956021 -0.000538545)
(-0.00131451 -0.00107468 -0.000538546)
(-0.00121585 -0.00118516 -0.000538546)
(-0.00110793 -0.00128661 -0.000538546)
(-0.000991574 -0.00137828 -0.000538545)
(-0.000867676 -0.00145946 -0.000538545)
(-0.000737175 -0.00152953 -0.000538544)
(-0.000601063 -0.00158795 -0.000538543)
(-0.000460376 -0.0016343 -0.000538544)
(-0.000316186 -0.0016682 -0.000538545)
(-0.000169589 -0.00168941 -0.000538544)
(-2.17018e-05 -0.00169777 -0.000538544)
(0.000126351 -0.0016932 -0.000538544)
(0.000273441 -0.00167574 -0.000538544)
(0.000418452 -0.00164553 -0.000538544)
(0.000560277 -0.0016028 -0.000538544)
(0.000697838 -0.00154787 -0.000538545)
(0.000830088 -0.00148116 -0.000538545)
(0.000956021 -0.00140317 -0.000538545)
(0.00107468 -0.00131451 -0.000538546)
(0.00118516 -0.00121585 -0.000538546)
(0.00128661 -0.00110793 -0.000538546)
(0.00137828 -0.000991574 -0.000538545)
(0.00145946 -0.000867676 -0.000538545)
(0.00152953 -0.000737175 -0.000538544)
(0.00158795 -0.000601063 -0.000538544)
(0.0016343 -0.000460376 -0.000538544)
(0.0016682 -0.000316186 -0.000538545)
(0.00168941 -0.000169589 -0.000538544)
(0.00169777 -2.17018e-05 -0.000538544)
(0.0016932 0.000126351 -0.000538544)
(0.00167574 0.000273441 -0.000538544)
(0.00164553 0.000418452 -0.000538544)
(0.0016028 0.000560277 -0.000538544)
(0.00154787 0.000697838 -0.000538545)
(0.00148116 0.000830088 -0.000538545)
(0.00140317 0.000956021 -0.000538545)
(0.00131451 0.00107468 -0.000538546)
(0.00121585 0.00118516 -0.000538546)
(0.00110793 0.00128661 -0.000538546)
(0.000991574 0.00137828 -0.000538545)
(0.000867676 0.00145946 -0.000538545)
(0.000737175 0.00152953 -0.000538544)
(0.000601063 0.00158795 -0.000538544)
(0.000460376 0.0016343 -0.000538544)
(0.000316186 0.0016682 -0.000538545)
(0.000169589 0.00168941 -0.000538544)
(2.17018e-05 0.00169777 -0.000538544)
(-0.000126351 0.0016932 -0.000538544)
(-0.000273441 0.00167574 -0.000538544)
(-0.000418452 0.00164553 -0.000538544)
(-0.000560277 0.0016028 -0.000538544)
(-0.000697838 0.00154787 -0.000538545)
(-0.000830088 0.00148116 -0.000538545)
(-0.000975017 0.00152061 -0.000398127)
(-0.00110384 0.00142985 -0.000398128)
(-0.00122426 0.0013282 -0.000398128)
(-0.00133536 0.00121645 -0.000398128)
(-0.0014363 0.00109543 -0.000398128)
(-0.0015263 0.000966082 -0.000398127)
(-0.00160469 0.00082938 -0.000398127)
(-0.00167087 0.000686366 -0.000398127)
(-0.00172434 0.000538128 -0.000398126)
(-0.00176468 0.000385794 -0.000398127)
(-0.00179158 0.000230525 -0.000398127)
(-0.00180486 7.35005e-05 -0.000398127)
(-0.0018044 -8.40828e-05 -0.000398127)
(-0.0017902 -0.000241026 -0.000398127)
(-0.00176238 -0.000396136 -0.000398127)
(-0.00172115 -0.00054823 -0.000398127)
(-0.00166682 -0.000696153 -0.000398127)
(-0.0015998 -0.000838777 -0.000398127)
(-0.00152061 -0.000975017 -0.000398127)
(-0.00142985 -0.00110384 -0.000398128)
(-0.0013282 -0.00122426 -0.000398128)
(-0.00121645 -0.00133536 -0.000398128)