/*--------------------------------*- C++ -*----------------------------------*\
| =========                 |                                                 |
| \\      /  F ield         | OpenFOAM: The Open Source CFD Toolbox           |
|  \\    /   O peration     | Version:  2312                                  |
|   \\  /    A nd           | Website:  www.openfoam.com                      |
|    \\/     M anipulation  |                                                 |
\*---------------------------------------------------------------------------*/
FoamFile
{
    version     2.0;
    format      ascii;
    arch        "LSB;label=32;scalar=64";
    class       volVectorField;
    location    "0.2";
    object      D_0;
}
// * * * * * * * * * * * * * * * * * * * * * * * * * * * * * * * * * * * * * //

dimensions      [0 1 0 0 0 0 0];

internalField   nonuniform List<vector> 
3240
(
(-0.000183051 0.000191071 -7.08029e-05)
(-0.000199007 0.000174391 -7.08027e-05)
(-0.000213449 0.000156382 -7.08032e-05)
(-0.000226266 0.000137183 -7.08031e-05)
(-0.000237362 0.000116941 -7.0803e-05)
(-0.000246651 9.58085e-05 -7.08028e-05)
(-0.000254062 7.39475e-05 -7.08022e-05)
(-0.00025954 5.15233e-05 -7.08022e-05)
(-0.000263043 2.87073e-05 -7.08026e-05)
(-0.000264544 5.67244e-06 -7.0803e-05)
(-0.000264032 -1.74059e-05 -7.08032e-05)
(-0.00026151 -4.0352e-05 -7.08033e-05)
(-0.000256998 -6.2991e-05 -7.08029e-05)
(-0.00025053 -8.51501e-05 -7.08026e-05)
(-0.000242155 -0.00010666 -7.08022e-05)
(-0.000231938 -0.00012736 -7.08027e-05)
(-0.000219955 -0.00014709 -7.08033e-05)
(-0.000206298 -0.000165701 -7.08029e-05)
(-0.000191071 -0.000183051 -7.08029e-05)
(-0.000174391 -0.000199007 -7.08027e-05)
(-0.000156382 -0.000213449 -7.08032e-05)
(-0.000137183 -0.000226266 -7.08031e-05)
(-0.000116941 -0.000237362 -7.0803e-05)
(-9.58085e-05 -0.000246651 -7.08028e-05)
(-7.39475e-05 -0.000254062 -7.08022e-05)
(-5.15233e-05 -0.00025954 -7.08022e-05)
(-2.87073e-05 -0.000263043 -7.08026e-05)
(-5.67245e-06 -0.000264544 -7.0803e-05)
(1.74059e-05 -0.000264032 -7.08032e-05)
(4.0352e-05 -0.00026151 -7.08033e-05)
(6.2991e-05 -0.000256998 -7.08029e-05)
(8.51501e-05 -0.00025053 -7.08026e-05)
(0.00010666 -0.000242155 -7.08021e-05)
(0.00012736 -0.000231938 -7.08027e-05)
(0.00014709 -0.000219955 -7.08033e-05)
(0.000165701 -0.000206298 -7.08029e-05)
(0.000183051 -0.000191071 -7.08029e-05)
(0.000199007 -0.000174391 -7.08027e-05)
(0.000213449 -0.000156382 -7.08032e-05)
(0.000226266 -0.000137183 -7.08031e-05)
(0.000237362 -0.000116941 -7.0803e-05)
(0.000246651 -9.58085e-05 -7.08028e-05)
(0.000254062 -7.39475e-05 -7.08022e-05)
(0.00025954 -5.15233e-05 -7.08022e-05)
(0.000263043 -2.87073e-05 -7.08026e-05)
(0.000264544 -5.67244e-06 -7.0803e-05)
(0.000264032 1.74059e-05 -7.08032e-05)
(0.00026151 4.0352e-05 -7.08033e-05)
(0.000256998 6.2991e-05 -7.08029e-05)
(0.00025053 8.51501e-05 -7.08026e-05)
(0.000242155 0.00010666 -7.08021e-05)
(0.000231938 0.00012736 -7.08027e-05)
(0.000219955 0.00014709 -7.08033e-05)
(0.000206298 0.000165701 -7.08029e-05)
(0.000191071 0.000183051 -7.08029e-05)
(0.000174391 0.000199007 -7.08027e-05)
(0.000156382 0.000213449 -7.08032e-05)
(0.000137183 0.000226266 -7.08031e-05)
(0.000116941 0.000237362 -7.0803e-05)
(9.58085e-05 0.000246651 -7.08028e-05)
(7.39475e-05 0.000254062 -7.08022e-05)
(5.15233e-05 0.00025954 -7.08022e-05)
(2.87073e-05 0.000263043 -7.08026e-05)
(5.67244e-06 0.000264544 -7.0803e-05)
(-1.74059e-05 0.000264032 -7.08032e-05)
(-4.0352e-05 0.00026151 -7.08033e-05)
(-6.2991e-05 0.000256998 -7.08029e-05)
(-8.51501e-05 0.00025053 -7.08026e-05)
(-0.00010666 0.000242155 -7.08021e-05)
(-0.00012736 0.000231938 -7.08027e-05)
(-0.00014709 0.000219955 -7.08033e-05)
(-0.000165701 0.000206298 -7.08029e-05)
(-0.000148194 0.000208032 -3.36753e-05)
(-0.000165761 0.000194325 -3.36751e-05)
(-0.000182067 0.000179138 -3.36753e-05)
(-0.000196987 0.000162588 -3.36753e-05)
(-0.000210408 0.0001448 -3.36752e-05)
(-0.000222228 0.000125911 -3.36751e-05)
(-0.000232356 0.000106064 -3.36749e-05)
(-0.000240715 8.54093e-05 -3.36747e-05)
(-0.000247244 6.41051e-05 -3.36748e-05)
(-0.00025189 4.23125e-05 -3.36752e-05)
(-0.000254619 2.01976e-05 -3.36753e-05)
(-0.000255411 -2.07105e-06 -3.36753e-05)
(-0.000254258 -2.43239e-05 -3.36751e-05)
(-0.000251171 -4.63913e-05 -3.3675e-05)
(-0.000246172 -6.81055e-05 -3.3675e-05)
(-0.000239299 -8.93015e-05 -3.36751e-05)
(-0.000230605 -0.000109818 -3.36754e-05)
(-0.000220156 -0.000129499 -3.36753e-05)
(-0.000208032 -0.000148194 -3.36753e-05)
(-0.000194325 -0.000165761 -3.36751e-05)
(-0.000179138 -0.000182067 -3.36753e-05)
(-0.000162588 -0.000196987 -3.36752e-05)
(-0.0001448 -0.000210408 -3.36752e-05)
(-0.000125911 -0.000222228 -3.36751e-05)
(-0.000106064 -0.000232356 -3.36749e-05)
(-8.54094e-05 -0.000240715 -3.36748e-05)
(-6.41052e-05 -0.000247244 -3.36748e-05)
(-4.23125e-05 -0.00025189 -3.36752e-05)
(-2.01976e-05 -0.000254619 -3.36753e-05)
(2.07105e-06 -0.000255411 -3.36753e-05)
(2.43239e-05 -0.000254258 -3.36751e-05)
(4.63913e-05 -0.000251171 -3.3675e-05)
(6.81055e-05 -0.000246172 -3.3675e-05)
(8.93016e-05 -0.000239299 -3.36751e-05)
(0.000109818 -0.000230605 -3.36754e-05)
(0.000129499 -0.000220156 -3.36753e-05)
(0.000148194 -0.000208032 -3.36753e-05)
(0.000165761 -0.000194325 -3.36751e-05)
(0.000182067 -0.000179138 -3.36753e-05)
(0.000196987 -0.000162588 -3.36753e-05)
(0.000210408 -0.0001448 -3.36752e-05)
(0.000222228 -0.000125911 -3.36751e-05)
(0.000232356 -0.000106064 -3.36749e-05)
(0.000240715 -8.54094e-05 -3.36748e-05)
(0.000247244 -6.41051e-05 -3.36749e-05)
(0.00025189 -4.23125e-05 -3.36752e-05)
(0.000254619 -2.01976e-05 -3.36753e-05)
(0.000255411 2.07106e-06 -3.36753e-05)
(0.000254258 2.43239e-05 -3.36751e-05)
(0.000251171 4.63913e-05 -3.3675e-05)
(0.000246172 6.81055e-05 -3.3675e-05)
(0.000239299 8.93016e-05 -3.36751e-05)
(0.000230605 0.000109818 -3.36754e-05)
(0.000220156 0.000129499 -3.36753e-05)
(0.000208032 0.000148194 -3.36753e-05)
(0.000194325 0.000165761 -3.36751e-05)
(0.000179138 0.000182067 -3.36753e-05)
(0.000162588 0.000196987 -3.36753e-05)
(0.0001448 0.000210408 -3.36752e-05)
(0.000125911 0.000222228 -3.36751e-05)
(0.000106064 0.000232356 -3.36749e-05)
(8.54094e-05 0.000240715 -3.36748e-05)
(6.41051e-05 0.000247244 -3.36749e-05)
(4.23125e-05 0.00025189 -3.36752e-05)
(2.01976e-05 0.000254619 -3.36753e-05)
(-2.07106e-06 0.000255411 -3.36753e-05)
(-2.43239e-05 0.000254258 -3.36751e-05)
(-4.63913e-05 0.000251171 -3.3675e-05)
(-6.81055e-05 0.000246172 -3.3675e-05)
(-8.93016e-05 0.000239299 -3.36751e-05)
(-0.000109818 0.000230605 -3.36754e-05)
(-0.000129499 0.000220156 -3.36753e-05)
(-0.000128401 0.000229521 2.13765e-06)
(-0.000147916 0.000217457 2.13775e-06)
(-0.000166306 0.000203737 2.13796e-06)
(-0.00018343 0.000188467 2.13779e-06)
(-0.000199159 0.000171763 2.13764e-06)
(-0.000213371 0.000153752 2.13767e-06)
(-0.000225959 0.00013457 2.13787e-06)
(-0.000236828 0.000114365 2.13771e-06)
(-0.000245895 9.32891e-05 2.13776e-06)
(-0.00025309 7.1503e-05 2.13759e-06)
(-0.000258358 4.91723e-05 2.1377e-06)
(-0.00026166 2.64677e-05 2.13782e-06)
(-0.000262971 3.5615e-06 2.13794e-06)
(-0.000262282 -1.93715e-05 2.13768e-06)
(-0.000259595 -4.21569e-05 2.13741e-06)
(-0.000254933 -6.46215e-05 2.13748e-06)
(-0.00024833 -8.65943e-05 2.13765e-06)
(-0.000239838 -0.000107908 2.13768e-06)
(-0.000229521 -0.000128401 2.13765e-06)
(-0.000217457 -0.000147916 2.13775e-06)
(-0.000203737 -0.000166306 2.13796e-06)
(-0.000188467 -0.00018343 2.13779e-06)
(-0.000171763 -0.000199159 2.13764e-06)
(-0.000153752 -0.000213371 2.13766e-06)
(-0.00013457 -0.000225959 2.13787e-06)
(-0.000114365 -0.000236828 2.13771e-06)
(-9.32891e-05 -0.000245895 2.13775e-06)
(-7.1503e-05 -0.00025309 2.13758e-06)
(-4.91723e-05 -0.000258358 2.1377e-06)
(-2.64677e-05 -0.00026166 2.13782e-06)
(-3.5615e-06 -0.000262971 2.13793e-06)
(1.93715e-05 -0.000262282 2.13768e-06)
(4.21569e-05 -0.000259595 2.13741e-06)
(6.46215e-05 -0.000254933 2.13749e-06)
(8.65943e-05 -0.00024833 2.13765e-06)
(0.000107908 -0.000239838 2.13768e-06)
(0.000128401 -0.000229521 2.13765e-06)
(0.000147916 -0.000217457 2.13775e-06)
(0.000166306 -0.000203737 2.13796e-06)
(0.00018343 -0.000188467 2.13779e-06)
(0.000199159 -0.000171763 2.13764e-06)
(0.000213371 -0.000153752 2.13766e-06)
(0.000225959 -0.00013457 2.13787e-06)
(0.000236828 -0.000114365 2.1377e-06)
(0.000245895 -9.32891e-05 2.13775e-06)
(0.00025309 -7.1503e-05 2.13758e-06)
(0.000258358 -4.91723e-05 2.1377e-06)
(0.00026166 -2.64677e-05 2.13782e-06)
(0.000262971 -3.5615e-06 2.13793e-06)
(0.000262282 1.93715e-05 2.13768e-06)
(0.000259595 4.21569e-05 2.1374e-06)
(0.000254933 6.46215e-05 2.13748e-06)
(0.00024833 8.65943e-05 2.13765e-06)
(0.000239838 0.000107908 2.13769e-06)
(0.000229521 0.000128401 2.13766e-06)
(0.000217457 0.000147916 2.13776e-06)
(0.000203737 0.000166306 2.13796e-06)
(0.000188467 0.00018343 2.13779e-06)
(0.000171763 0.000199159 2.13764e-06)
(0.000153752 0.000213371 2.13766e-06)
(0.00013457 0.000225959 2.13786e-06)
(0.000114365 0.000236828 2.1377e-06)
(9.32891e-05 0.000245895 2.13775e-06)
(7.1503e-05 0.00025309 2.13758e-06)
(4.91723e-05 0.000258358 2.13769e-06)
(2.64677e-05 0.00026166 2.13782e-06)
(3.5615e-06 0.000262971 2.13793e-06)
(-1.93715e-05 0.000262282 2.13767e-06)
(-4.21569e-05 0.000259595 2.1374e-06)
(-6.46215e-05 0.000254933 2.13748e-06)
(-8.65943e-05 0.00024833 2.13765e-06)
(-0.000107908 0.000239838 2.13768e-06)
(-0.000459954 0.000575085 -0.000205028)
(-0.000508325 0.000532809 -0.000205028)
(-0.000552828 0.000486478 -0.000205029)
(-0.000593124 0.000436444 -0.000205029)
(-0.000628906 0.000383089 -0.000205028)
(-0.000659902 0.000326819 -0.000205028)
(-0.000685875 0.000268061 -0.000205027)
(-0.000706628 0.000207264 -0.000205026)
(-0.000722002 0.000144889 -0.000205026)
(-0.000731883 8.14115e-05 -0.000205027)
(-0.000736193 1.73139e-05 -0.000205028)
(-0.000734901 -4.6916e-05 -0.000205028)
(-0.000728015 -0.000110789 -0.000205028)
(-0.000715589 -0.000173818 -0.000205027)
(-0.000697717 -0.000235524 -0.000205027)
(-0.000674534 -0.000295437 -0.000205027)
(-0.000646218 -0.000353103 -0.000205029)
(-0.000612984 -0.000408082 -0.000205028)
(-0.000575085 -0.000459954 -0.000205028)
(-0.000532809 -0.000508325 -0.000205028)
(-0.000486478 -0.000552828 -0.000205029)
(-0.000436444 -0.000593124 -0.000205029)
(-0.000383089 -0.000628906 -0.000205028)
(-0.000326819 -0.000659902 -0.000205028)
(-0.000268061 -0.000685875 -0.000205027)
(-0.000207264 -0.000706628 -0.000205026)
(-0.000144889 -0.000722002 -0.000205026)
(-8.14115e-05 -0.000731883 -0.000205027)
(-1.73139e-05 -0.000736193 -0.000205028)
(4.6916e-05 -0.000734901 -0.000205028)
(0.000110789 -0.000728015 -0.000205028)
(0.000173818 -0.000715589 -0.000205027)
(0.000235524 -0.000697717 -0.000205027)
(0.000295437 -0.000674534 -0.000205027)
(0.000353103 -0.000646218 -0.000205029)
(0.000408082 -0.000612984 -0.000205028)
(0.000459954 -0.000575085 -0.000205028)
(0.000508325 -0.000532809 -0.000205028)
(0.000552828 -0.000486478 -0.000205029)
(0.000593124 -0.000436444 -0.000205029)
(0.000628906 -0.000383089 -0.000205028)
(0.000659902 -0.000326819 -0.000205028)
(0.000685875 -0.000268061 -0.000205027)
(0.000706628 -0.000207264 -0.000205026)
(0.000722002 -0.000144889 -0.000205026)
(0.000731883 -8.14115e-05 -0.000205027)
(0.000736193 -1.73139e-05 -0.000205028)
(0.000734901 4.6916e-05 -0.000205028)
(0.000728015 0.000110789 -0.000205028)
(0.000715589 0.000173818 -0.000205027)
(0.000697717 0.000235524 -0.000205027)
(0.000674534 0.000295437 -0.000205027)
(0.000646218 0.000353103 -0.000205029)
(0.000612984 0.000408082 -0.000205028)
(0.000575085 0.000459954 -0.000205028)
(0.000532809 0.000508325 -0.000205028)
(0.000486478 0.000552828 -0.000205029)
(0.000436444 0.000593124 -0.000205029)
(0.000383089 0.000628906 -0.000205028)
(0.000326819 0.000659902 -0.000205028)
(0.000268061 0.000685875 -0.000205027)
(0.000207264 0.000706628 -0.000205026)
(0.000144889 0.000722003 -0.000205026)
(8.14115e-05 0.000731883 -0.000205027)
(1.73139e-05 0.000736193 -0.000205028)
(-4.6916e-05 0.000734901 -0.000205028)
(-0.000110789 0.000728015 -0.000205028)
(-0.000173818 0.000715589 -0.000205027)
(-0.000235524 0.000697717 -0.000205027)
(-0.000295437 0.000674534 -0.000205027)
(-0.000353103 0.000646218 -0.000205029)
(-0.000408082 0.000612984 -0.000205028)
(-0.000440211 0.000627503 -0.000120313)
(-0.000493226 0.000586748 -0.000120313)
(-0.000542487 0.000541528 -0.000120313)
(-0.00058762 0.000492186 -0.000120313)
(-0.000628282 0.000439099 -0.000120313)
(-0.000664161 0.00038267 -0.000120313)
(-0.000694985 0.000323329 -0.000120312)
(-0.00072052 0.000261527 -0.000120312)
(-0.000740572 0.000197734 -0.000120312)
(-0.000754988 0.000132437 -0.000120312)
(-0.000763657 6.61312e-05 -0.000120312)
(-0.000766515 -6.77854e-07 -0.000120313)
(-0.000763539 -6.7482e-05 -0.000120313)
(-0.000754752 -0.000133772 -0.000120313)
(-0.000740221 -0.000199043 -0.000120313)
(-0.000720056 -0.0002628 -0.000120313)
(-0.000694412 -0.000324558 -0.000120313)
(-0.000663482 -0.000383845 -0.000120313)
(-0.000627503 -0.000440211 -0.000120313)
(-0.000586748 -0.000493226 -0.000120313)
(-0.000541528 -0.000542487 -0.000120313)
(-0.000492186 -0.00058762 -0.000120313)
(-0.000439099 -0.000628282 -0.000120313)
(-0.00038267 -0.000664161 -0.000120313)
(-0.000323329 -0.000694985 -0.000120312)
(-0.000261527 -0.00072052 -0.000120312)
(-0.000197734 -0.000740572 -0.000120312)
(-0.000132437 -0.000754988 -0.000120312)
(-6.61312e-05 -0.000763657 -0.000120312)
(6.77851e-07 -0.000766515 -0.000120313)
(6.7482e-05 -0.000763539 -0.000120313)
(0.000133772 -0.000754752 -0.000120313)
(0.000199043 -0.000740221 -0.000120313)
(0.0002628 -0.000720056 -0.000120313)
(0.000324558 -0.000694412 -0.000120313)
(0.000383845 -0.000663482 -0.000120313)
(0.000440211 -0.000627503 -0.000120313)
(0.000493226 -0.000586748 -0.000120313)
(0.000542487 -0.000541528 -0.000120313)
(0.00058762 -0.000492186 -0.000120313)
(0.000628282 -0.000439099 -0.000120313)
(0.000664161 -0.00038267 -0.000120313)
(0.000694985 -0.000323329 -0.000120312)
(0.00072052 -0.000261527 -0.000120312)
(0.000740572 -0.000197734 -0.000120312)
(0.000754988 -0.000132437 -0.000120312)
(0.000763657 -6.61312e-05 -0.000120312)
(0.000766515 6.77861e-07 -0.000120313)
(0.000763539 6.7482e-05 -0.000120313)
(0.000754752 0.000133772 -0.000120313)
(0.000740221 0.000199043 -0.000120313)
(0.000720056 0.0002628 -0.000120313)
(0.000694412 0.000324558 -0.000120313)
(0.000663482 0.000383845 -0.000120313)
(0.000627503 0.000440211 -0.000120313)
(0.000586748 0.000493226 -0.000120313)
(0.000541528 0.000542487 -0.000120313)
(0.000492186 0.00058762 -0.000120313)
(0.000439099 0.000628282 -0.000120313)
(0.00038267 0.000664161 -0.000120313)
(0.000323329 0.000694985 -0.000120312)
(0.000261527 0.00072052 -0.000120312)
(0.000197734 0.000740572 -0.000120312)
(0.000132437 0.000754988 -0.000120312)
(6.61312e-05 0.000763657 -0.000120312)
(-6.7786e-07 0.000766515 -0.000120313)
(-6.7482e-05 0.000763539 -0.000120313)
(-0.000133772 0.000754752 -0.000120313)
(-0.000199043 0.000740221 -0.000120313)
(-0.0002628 0.000720056 -0.000120313)
(-0.000324558 0.000694412 -0.000120313)
(-0.000383845 0.000663482 -0.000120313)
(-0.000438797 0.000692221 -3.9755e-05)
(-0.000497459 0.000651344 -3.97546e-05)
(-0.000552333 0.000605508 -3.97542e-05)
(-0.000603005 0.000555065 -3.97545e-05)
(-0.000649088 0.000500398 -3.97545e-05)
(-0.00069023 0.000441922 -3.97545e-05)
(-0.00072612 0.000380083 -3.97545e-05)
(-0.000756483 0.000315351 -3.97546e-05)
(-0.000781089 0.00024822 -3.97544e-05)
(-0.00079975 0.000179199 -3.9754e-05)
(-0.000812325 0.000108814 -3.97539e-05)
(-0.000818719 3.76004e-05 -3.97543e-05)
(-0.00081888 -3.38989e-05 -3.97546e-05)
(-0.00081281 -0.00010514 -3.97549e-05)
(-0.000800553 -0.00017558 -3.97549e-05)
(-0.000782204 -0.000244684 -3.97547e-05)
(-0.000757902 -0.000311927 -3.97548e-05)
(-0.000727831 -0.000376796 -3.97547e-05)
(-0.000692221 -0.000438797 -3.9755e-05)
(-0.000651344 -0.000497459 -3.97546e-05)
(-0.000605508 -0.000552333 -3.97542e-05)
(-0.000555065 -0.000603005 -3.97545e-05)
(-0.000500398 -0.000649088 -3.97545e-05)
(-0.000441922 -0.00069023 -3.97545e-05)
(-0.000380083 -0.00072612 -3.97545e-05)
(-0.000315351 -0.000756483 -3.97546e-05)
(-0.00024822 -0.000781089 -3.97544e-05)
(-0.000179199 -0.00079975 -3.9754e-05)
(-0.000108814 -0.000812325 -3.97539e-05)
(-3.76004e-05 -0.000818719 -3.97543e-05)
(3.38989e-05 -0.00081888 -3.97546e-05)
(0.00010514 -0.00081281 -3.97549e-05)
(0.00017558 -0.000800553 -3.97549e-05)
(0.000244684 -0.000782203 -3.97547e-05)
(0.000311927 -0.000757902 -3.97548e-05)
(0.000376796 -0.000727831 -3.97547e-05)
(0.000438797 -0.000692221 -3.9755e-05)
(0.000497459 -0.000651344 -3.97546e-05)
(0.000552333 -0.000605508 -3.97542e-05)
(0.000603005 -0.000555065 -3.97545e-05)
(0.000649088 -0.000500398 -3.97545e-05)
(0.00069023 -0.000441922 -3.97545e-05)
(0.00072612 -0.000380083 -3.97545e-05)
(0.000756483 -0.000315351 -3.97546e-05)
(0.000781089 -0.00024822 -3.97545e-05)
(0.00079975 -0.000179199 -3.9754e-05)
(0.000812325 -0.000108814 -3.97539e-05)
(0.000818719 -3.76004e-05 -3.97543e-05)
(0.00081888 3.38989e-05 -3.97546e-05)
(0.00081281 0.00010514 -3.97549e-05)
(0.000800553 0.00017558 -3.97549e-05)
(0.000782203 0.000244684 -3.97547e-05)
(0.000757902 0.000311927 -3.97548e-05)
(0.000727831 0.000376796 -3.97547e-05)
(0.000692221 0.000438797 -3.9755e-05)
(0.000651344 0.000497459 -3.97546e-05)
(0.000605508 0.000552333 -3.97542e-05)
(0.000555065 0.000603005 -3.97545e-05)
(0.000500398 0.000649088 -3.97545e-05)
(0.000441922 0.00069023 -3.97545e-05)
(0.000380083 0.00072612 -3.97545e-05)
(0.000315351 0.000756483 -3.97546e-05)
(0.00024822 0.000781089 -3.97545e-05)
(0.000179199 0.00079975 -3.9754e-05)
(0.000108814 0.000812325 -3.97539e-05)
(3.76004e-05 0.000818719 -3.97544e-05)
(-3.38989e-05 0.00081888 -3.97546e-05)
(-0.00010514 0.00081281 -3.9755e-05)
(-0.00017558 0.000800553 -3.97549e-05)
(-0.000244684 0.000782204 -3.97547e-05)
(-0.000311927 0.000757902 -3.97548e-05)
(-0.000376796 0.000727831 -3.97547e-05)
(-0.000711038 0.000971154 -0.000353515)
(-0.000792974 0.000905488 -0.000353515)
(-0.000868874 0.00083293 -0.000353515)
(-0.000938163 0.000754033 -0.000353515)
(-0.00100031 0.000669397 -0.000353515)
(-0.00105485 0.000579667 -0.000353514)
(-0.00110135 0.000485525 -0.000353513)
(-0.00113948 0.000387689 -0.000353513)
(-0.00116893 0.000286902 -0.000353513)
(-0.00118949 0.000183931 -0.000353513)
(-0.00120099 7.95607e-05 -0.000353513)
(-0.00120336 -2.54153e-05 -0.000353514)
(-0.00119656 -0.000130199 -0.000353514)
(-0.00118066 -0.000233991 -0.000353514)
(-0.00115578 -0.000336002 -0.000353514)
(-0.00112209 -0.000435456 -0.000353514)
(-0.00107987 -0.000531596 -0.000353515)
(-0.00102943 -0.000623691 -0.000353515)
(-0.000971154 -0.000711038 -0.000353515)
(-0.000905488 -0.000792974 -0.000353515)
(-0.00083293 -0.000868874 -0.000353515)
(-0.000754033 -0.000938163 -0.000353515)
(-0.000669397 -0.00100031 -0.000353515)
(-0.000579667 -0.00105485 -0.000353514)
(-0.000485525 -0.00110135 -0.000353513)
(-0.000387689 -0.00113948 -0.000353513)
(-0.000286902 -0.00116893 -0.000353513)
(-0.000183931 -0.00118949 -0.000353513)
(-7.95607e-05 -0.00120099 -0.000353513)
(2.54153e-05 -0.00120336 -0.000353514)
(0.000130199 -0.00119656 -0.000353514)
(0.000233991 -0.00118066 -0.000353514)
(0.000336002 -0.00115578 -0.000353514)
(0.000435456 -0.00112209 -0.000353514)
(0.000531596 -0.00107987 -0.000353515)
(0.000623691 -0.00102943 -0.000353515)
(0.000711038 -0.000971154 -0.000353515)
(0.000792974 -0.000905488 -0.000353515)
(0.000868874 -0.00083293 -0.000353515)
(0.000938163 -0.000754033 -0.000353515)
(0.00100031 -0.000669397 -0.000353515)
(0.00105485 -0.000579667 -0.000353514)
(0.00110135 -0.000485525 -0.000353513)
(0.00113948 -0.000387689 -0.000353513)
(0.00116893 -0.000286902 -0.000353513)
(0.00118949 -0.000183931 -0.000353513)
(0.00120099 -7.95607e-05 -0.000353513)
(0.00120336 2.54153e-05 -0.000353514)
(0.00119656 0.000130199 -0.000353514)
(0.00118066 0.000233991 -0.000353514)
(0.00115578 0.000336002 -0.000353514)
(0.00112209 0.000435456 -0.000353514)
(0.00107987 0.000531596 -0.000353515)
(0.00102943 0.000623691 -0.000353515)
(0.000971154 0.000711038 -0.000353515)
(0.000905488 0.000792974 -0.000353515)
(0.00083293 0.000868874 -0.000353515)
(0.000754033 0.000938163 -0.000353515)
(0.000669397 0.00100031 -0.000353515)
(0.000579667 0.00105485 -0.000353514)
(0.000485525 0.00110135 -0.000353513)
(0.000387689 0.00113948 -0.000353513)
(0.000286902 0.00116893 -0.000353513)
(0.000183931 0.00118949 -0.000353513)
(7.95607e-05 0.00120099 -0.000353513)
(-2.54153e-05 0.00120336 -0.000353514)
(-0.000130199 0.00119656 -0.000353514)
(-0.000233991 0.00118066 -0.000353514)
(-0.000336002 0.00115578 -0.000353514)
(-0.000435456 0.00112209 -0.000353514)
(-0.000531596 0.00107987 -0.000353515)
(-0.000623691 0.00102943 -0.000353515)
(-0.000710187 0.00105839 -0.000239405)
(-0.00079973 0.00099247 -0.000239405)
(-0.000883186 0.000918993 -0.000239405)
(-0.000959921 0.000838521 -0.000239405)
(-0.00102935 0.000751667 -0.000239405)
(-0.00109095 0.000659093 -0.000239405)
(-0.00114424 0.000561504 -0.000239404)
(-0.00118882 0.00045964 -0.000239404)
(-0.00122436 0.000354279 -0.000239404)
(-0.00125058 0.000246221 -0.000239404)
(-0.00126728 0.000136289 -0.000239404)
(-0.00127433 2.53198e-05 -0.000239404)
(-0.00127169 -8.58422e-05 -0.000239405)
(-0.00125937 -0.000196351 -0.000239404)
(-0.00123746 -0.000305365 -0.000239404)
(-0.00120614 -0.000412055 -0.000239405)
(-0.00116564 -0.000515609 -0.000239405)
(-0.00111626 -0.00061524 -0.000239405)
(-0.00105839 -0.000710187 -0.000239405)
(-0.00099247 -0.00079973 -0.000239405)
(-0.000918993 -0.000883186 -0.000239405)
(-0.000838521 -0.000959921 -0.000239405)
(-0.000751667 -0.00102935 -0.000239405)
(-0.000659093 -0.00109095 -0.000239405)
(-0.000561504 -0.00114424 -0.000239404)
(-0.00045964 -0.00118882 -0.000239404)
(-0.000354279 -0.00122436 -0.000239404)
(-0.000246221 -0.00125058 -0.000239404)
(-0.000136289 -0.00126728 -0.000239404)
(-2.53198e-05 -0.00127433 -0.000239404)
(8.58423e-05 -0.00127169 -0.000239405)
(0.000196351 -0.00125937 -0.000239404)
(0.000305365 -0.00123746 -0.000239404)
(0.000412055 -0.00120614 -0.000239405)
(0.000515609 -0.00116564 -0.000239405)
(0.00061524 -0.00111626 -0.000239405)
(0.000710187 -0.00105839 -0.000239405)
(0.00079973 -0.00099247 -0.000239405)
(0.000883186 -0.000918993 -0.000239405)
(0.000959921 -0.000838521 -0.000239405)
(0.00102935 -0.000751667 -0.000239405)
(0.00109095 -0.000659093 -0.000239405)
(0.00114424 -0.000561504 -0.000239404)
(0.00118882 -0.00045964 -0.000239404)
(0.00122436 -0.000354279 -0.000239404)
(0.00125058 -0.000246221 -0.000239404)
(0.00126728 -0.000136289 -0.000239404)
(0.00127433 -2.53198e-05 -0.000239404)
(0.00127169 8.58423e-05 -0.000239405)
(0.00125937 0.000196351 -0.000239404)
(0.00123746 0.000305365 -0.000239404)
(0.00120614 0.000412055 -0.000239405)
(0.00116564 0.000515609 -0.000239405)
(0.00111626 0.00061524 -0.000239405)
(0.00105839 0.000710187 -0.000239405)
(0.00099247 0.00079973 -0.000239405)
(0.000918993 0.000883186 -0.000239405)
(0.000838521 0.000959921 -0.000239405)
(0.000751667 0.00102935 -0.000239405)
(0.000659093 0.00109095 -0.000239405)
(0.000561504 0.00114424 -0.000239404)
(0.00045964 0.00118882 -0.000239404)
(0.000354279 0.00122436 -0.000239404)
(0.000246221 0.00125058 -0.000239404)
(0.000136289 0.00126728 -0.000239404)
(2.53198e-05 0.00127433 -0.000239404)
(-8.58423e-05 0.00127169 -0.000239405)
(-0.000196351 0.00125937 -0.000239404)
(-0.000305365 0.00123746 -0.000239404)
(-0.000412055 0.00120614 -0.000239405)
(-0.000515609 0.00116564 -0.000239405)
(-0.00061524 0.00111626 -0.000239405)
(-0.000729157 0.00115318 -0.000132123)
(-0.000826888 0.00108524 -0.000132123)
(-0.000918326 0.00100904 -0.000132123)
(-0.00100278 0.000925164 -0.000132123)
(-0.00107959 0.000834246 -0.000132123)
(-0.00114819 0.000736979 -0.000132123)
(-0.00120806 0.000634104 -0.000132123)
(-0.00125873 0.000526402 -0.000132123)
(-0.00129981 0.000414693 -0.000132123)
(-0.00133101 0.000299829 -0.000132123)
(-0.00135208 0.000182683 -0.000132123)
(-0.00136286 6.41457e-05 -0.000132123)
(-0.00136326 -5.48791e-05 -0.000132123)
(-0.00135329 -0.000173486 -0.000132123)
(-0.00133302 -0.000290773 -0.000132123)
(-0.0013026 -0.000405846 -0.000132123)
(-0.00126227 -0.000517832 -0.000132123)
(-0.00121234 -0.000625876 -0.000132123)
(-0.00115318 -0.000729157 -0.000132123)
(-0.00108524 -0.000826888 -0.000132123)
(-0.00100904 -0.000918326 -0.000132123)
(-0.000925164 -0.00100278 -0.000132123)
(-0.000834246 -0.00107959 -0.000132123)
(-0.000736979 -0.00114819 -0.000132123)
(-0.000634104 -0.00120806 -0.000132123)
(-0.000526402 -0.00125873 -0.000132123)
(-0.000414693 -0.00129981 -0.000132123)
(-0.000299829 -0.00133101 -0.000132123)
(-0.000182683 -0.00135208 -0.000132123)
(-6.41457e-05 -0.00136286 -0.000132123)
(5.48791e-05 -0.00136326 -0.000132123)
(0.000173486 -0.00135329 -0.000132123)
(0.000290773 -0.00133302 -0.000132123)
(0.000405846 -0.0013026 -0.000132123)
(0.000517832 -0.00126227 -0.000132123)
(0.000625876 -0.00121234 -0.000132123)
(0.000729157 -0.00115318 -0.000132123)
(0.000826888 -0.00108524 -0.000132123)
(0.000918326 -0.00100904 -0.000132123)
(0.00100278 -0.000925164 -0.000132123)
(0.00107959 -0.000834246 -0.000132123)
(0.00114819 -0.000736979 -0.000132123)
(0.00120806 -0.000634104 -0.000132123)
(0.00125873 -0.000526402 -0.000132123)
(0.00129981 -0.000414693 -0.000132123)
(0.00133101 -0.000299829 -0.000132123)
(0.00135208 -0.000182682 -0.000132123)
(0.00136286 -6.41457e-05 -0.000132123)
(0.00136326 5.48792e-05 -0.000132123)
(0.00135329 0.000173486 -0.000132123)
(0.00133302 0.000290773 -0.000132123)
(0.0013026 0.000405846 -0.000132123)
(0.00126227 0.000517832 -0.000132123)
(0.00121234 0.000625876 -0.000132123)
(0.00115318 0.000729157 -0.000132123)
(0.00108524 0.000826888 -0.000132123)
(0.00100904 0.000918326 -0.000132123)
(0.000925164 0.00100278 -0.000132123)
(0.000834246 0.00107959 -0.000132123)
(0.000736979 0.00114819 -0.000132123)
(0.000634104 0.00120806 -0.000132123)
(0.000526402 0.00125873 -0.000132123)
(0.000414693 0.00129981 -0.000132123)
(0.000299829 0.00133101 -0.000132123)
(0.000182683 0.00135208 -0.000132123)
(6.41457e-05 0.00136286 -0.000132123)
(-5.48792e-05 0.00136326 -0.000132123)
(-0.000173486 0.00135329 -0.000132123)
(-0.000290773 0.00133302 -0.000132123)
(-0.000405846 0.0013026 -0.000132123)
(-0.000517832 0.00126227 -0.000132123)
(-0.000625876 0.00121234 -0.000132123)
(-0.000925683 0.00138625 -0.000519475)
(-0.00104298 0.0013003 -0.000519476)
(-0.00115234 0.00120445 -0.000519477)
(-0.00125293 0.00109943 -0.000519476)
(-0.00134398 0.000986051 -0.000519476)
(-0.00142481 0.000865163 -0.000519476)
(-0.00149479 0.000737691 -0.000519474)
(-0.0015534 0.000604604 -0.000519474)
(-0.00160018 0.000466916 -0.000519474)
(-0.00163479 0.000325674 -0.000519475)
(-0.00165695 0.000181953 -0.000519475)
(-0.0016665 3.68488e-05 -0.000519475)
(-0.00166337 -0.000108537 -0.000519474)
(-0.00164758 -0.000253096 -0.000519474)
(-0.00161925 -0.00039573 -0.000519474)
(-0.0015786 -0.000535352 -0.000519475)
(-0.00152594 -0.000670898 -0.000519475)
(-0.00146166 -0.00080134 -0.000519475)
(-0.00138625 -0.000925683 -0.000519475)
(-0.0013003 -0.00104298 -0.000519476)
(-0.00120445 -0.00115234 -0.000519477)
(-0.00109943 -0.00125293 -0.000519476)
(-0.000986051 -0.00134398 -0.000519476)
(-0.000865163 -0.00142481 -0.000519475)
(-0.000737691 -0.00149479 -0.000519474)
(-0.000604604 -0.0015534 -0.000519474)
(-0.000466916 -0.00160018 -0.000519474)
(-0.000325674 -0.00163479 -0.000519475)
(-0.000181953 -0.00165695 -0.000519475)
(-3.68487e-05 -0.0016665 -0.000519475)
(0.000108537 -0.00166337 -0.000519474)
(0.000253096 -0.00164758 -0.000519474)
(0.00039573 -0.00161925 -0.000519474)
(0.000535352 -0.0015786 -0.000519475)
(0.000670898 -0.00152594 -0.000519475)
(0.00080134 -0.00146166 -0.000519475)
(0.000925683 -0.00138625 -0.000519475)
(0.00104298 -0.0013003 -0.000519476)
(0.00115234 -0.00120445 -0.000519477)
(0.00125293 -0.00109943 -0.000519476)
(0.00134398 -0.000986051 -0.000519476)
(0.00142481 -0.000865163 -0.000519475)
(0.00149479 -0.000737691 -0.000519474)
(0.0015534 -0.000604604 -0.000519474)
(0.00160018 -0.000466916 -0.000519474)
(0.00163479 -0.000325674 -0.000519475)
(0.00165695 -0.000181953 -0.000519475)
(0.0016665 -3.68487e-05 -0.000519475)
(0.00166337 0.000108537 -0.000519474)
(0.00164758 0.000253096 -0.000519474)
(0.00161925 0.00039573 -0.000519474)
(0.0015786 0.000535352 -0.000519475)
(0.00152594 0.000670899 -0.000519475)
(0.00146166 0.00080134 -0.000519475)
(0.00138625 0.000925683 -0.000519475)
(0.0013003 0.00104298 -0.000519476)
(0.00120445 0.00115234 -0.000519477)
(0.00109943 0.00125293 -0.000519476)
(0.000986051 0.00134398 -0.000519476)
(0.000865163 0.00142481 -0.000519476)
(0.000737691 0.00149479 -0.000519474)
(0.000604604 0.0015534 -0.000519474)
(0.000466916 0.00160018 -0.000519474)
(0.000325674 0.00163479 -0.000519475)
(0.000181953 0.00165695 -0.000519475)
(3.68487e-05 0.0016665 -0.000519475)
(-0.000108537 0.00166337 -0.000519474)
(-0.000253096 0.00164758 -0.000519474)
(-0.00039573 0.00161925 -0.000519474)
(-0.000535352 0.0015786 -0.000519475)
(-0.000670899 0.00152594 -0.000519475)
(-0.00080134 0.00146166 -0.000519475)
(-0.000941935 0.00149343 -0.000384725)
(-0.00106851 0.00140565 -0.000384725)
(-0.00118696 0.00130718 -0.000384725)
(-0.00129637 0.00119875 -0.000384726)
(-0.00139591 0.00108121 -0.000384726)
(-0.00148483 0.00095543 -0.000384725)
(-0.00156246 0.000822382 -0.000384724)
(-0.00162818 0.000683076 -0.000384724)
(-0.00168152 0.000538572 -0.000384724)
(-0.00172206 0.000389968 -0.000384724)
(-0.0017495 0.000238396 -0.000384725)
(-0.00176362 8.50098e-05 -0.000384724)
(-0.00176432 -6.9023e-05 -0.000384724)
(-0.00175159 -0.000222531 -0.000384724)
(-0.00172553 -0.000374345 -0.000384724)
(-0.00168633 -0.00052331 -0.000384725)
(-0.00163431 -0.000668293 -0.000384725)
(-0.00156984 -0.000808189 -0.000384725)
(-0.00149343 -0.000941935 -0.000384725)
(-0.00140565 -0.00106851 -0.000384725)
(-0.00130718 -0.00118696 -0.000384725)
(-0.00119875 -0.00129637 -0.000384725)