/*--------------------------------*- C++ -*----------------------------------*\
| =========                 |                                                 |
| \\      /  F ield         | OpenFOAM: The Open Source CFD Toolbox           |
|  \\    /   O peration     | Version:  2312                                  |
|   \\  /    A nd           | Website:  www.openfoam.com                      |
|    \\/     M anipulation  |                                                 |
\*---------------------------------------------------------------------------*/
FoamFile
{
    version     2.0;
    format      ascii;
    arch        "LSB;label=32;scalar=64";
    class       volVectorField;
    location    "0.2";
    object      D_0_0;
}
// * * * * * * * * * * * * * * * * * * * * * * * * * * * * * * * * * * * * * //

dimensions      [0 1 0 0 0 0 0];

internalField   nonuniform List<vector> 
3240
(
(-0.000175792 0.000190241 -6.81954e-05)
(-0.000191704 0.000174196 -6.81951e-05)
(-0.000206156 0.000156825 -6.81956e-05)
(-0.00021904 0.00013826 -6.81956e-05)
(-0.000230257 0.000118644 -6.81955e-05)
(-0.000239721 9.81239e-05 -6.81952e-05)
(-0.000247361 7.68579e-05 -6.81946e-05)
(-0.000253118 5.50067e-05 -6.81947e-05)
(-0.000256949 3.27371e-05 -6.81951e-05)
(-0.000258825 1.0218e-05 -6.81955e-05)
(-0.00025873 -1.23792e-05 -6.81956e-05)
(-0.000256667 -3.48823e-05 -6.81957e-05)
(-0.00025265 -5.712e-05 -6.81953e-05)
(-0.00024671 -7.89225e-05 -6.8195e-05)
(-0.000238893 -0.000100124 -6.81946e-05)
(-0.000229258 -0.000120564 -6.81951e-05)
(-0.000217877 -0.000140086 -6.81957e-05)
(-0.000204839 -0.000158543 -6.81953e-05)
(-0.000190241 -0.000175792 -6.81954e-05)
(-0.000174196 -0.000191704 -6.81951e-05)
(-0.000156825 -0.000206156 -6.81956e-05)
(-0.00013826 -0.00021904 -6.81956e-05)
(-0.000118644 -0.000230257 -6.81955e-05)
(-9.81239e-05 -0.000239721 -6.81952e-05)
(-7.68579e-05 -0.000247361 -6.81947e-05)
(-5.50067e-05 -0.000253118 -6.81947e-05)
(-3.27371e-05 -0.000256949 -6.81951e-05)
(-1.0218e-05 -0.000258825 -6.81955e-05)
(1.23792e-05 -0.00025873 -6.81956e-05)
(3.48823e-05 -0.000256667 -6.81957e-05)
(5.712e-05 -0.00025265 -6.81953e-05)
(7.89225e-05 -0.00024671 -6.8195e-05)
(0.000100124 -0.000238893 -6.81946e-05)
(0.000120564 -0.000229258 -6.81951e-05)
(0.000140086 -0.000217877 -6.81957e-05)
(0.000158543 -0.000204839 -6.81953e-05)
(0.000175792 -0.000190241 -6.81954e-05)
(0.000191704 -0.000174196 -6.81951e-05)
(0.000206156 -0.000156825 -6.81956e-05)
(0.00021904 -0.00013826 -6.81956e-05)
(0.000230257 -0.000118644 -6.81955e-05)
(0.000239721 -9.81239e-05 -6.81952e-05)
(0.000247361 -7.68579e-05 -6.81947e-05)
(0.000253118 -5.50067e-05 -6.81947e-05)
(0.000256949 -3.27371e-05 -6.81951e-05)
(0.000258825 -1.0218e-05 -6.81955e-05)
(0.00025873 1.23792e-05 -6.81956e-05)
(0.000256667 3.48823e-05 -6.81957e-05)
(0.00025265 5.712e-05 -6.81953e-05)
(0.00024671 7.89225e-05 -6.8195e-05)
(0.000238893 0.000100124 -6.81946e-05)
(0.000229258 0.000120564 -6.81951e-05)
(0.000217877 0.000140086 -6.81957e-05)
(0.000204839 0.000158543 -6.81953e-05)
(0.000190241 0.000175792 -6.81954e-05)
(0.000174196 0.000191704 -6.81951e-05)
(0.000156825 0.000206156 -6.81956e-05)
(0.00013826 0.00021904 -6.81956e-05)
(0.000118644 0.000230257 -6.81955e-05)
(9.81239e-05 0.000239721 -6.81952e-05)
(7.68579e-05 0.000247361 -6.81947e-05)
(5.50067e-05 0.000253118 -6.81947e-05)
(3.27371e-05 0.000256949 -6.81951e-05)
(1.0218e-05 0.000258825 -6.81955e-05)
(-1.23792e-05 0.00025873 -6.81956e-05)
(-3.48823e-05 0.000256667 -6.81957e-05)
(-5.712e-05 0.00025265 -6.81953e-05)
(-7.89225e-05 0.00024671 -6.8195e-05)
(-0.000100124 0.000238893 -6.81946e-05)
(-0.000120564 0.000229258 -6.81951e-05)
(-0.000140086 0.000217877 -6.81957e-05)
(-0.000158543 0.000204839 -6.81953e-05)
(-0.000142173 0.000205635 -3.23107e-05)
(-0.000159555 0.000192462 -3.23105e-05)
(-0.000175722 0.000177823 -3.23107e-05)
(-0.000190551 0.000161831 -3.23107e-05)
(-0.000203931 0.000144608 -3.23106e-05)
(-0.000215758 0.000126284 -3.23105e-05)
(-0.000225944 0.000106999 -3.23104e-05)
(-0.000234409 8.68994e-05 -3.23102e-05)
(-0.000241091 6.61391e-05 -3.23103e-05)
(-0.000245938 4.4875e-05 -3.23106e-05)
(-0.000248913 2.3269e-05 -3.23107e-05)
(-0.000249994 1.48604e-06 -3.23107e-05)
(-0.000249173 -2.03083e-05 -3.23105e-05)
(-0.000246454 -4.19477e-05 -3.23104e-05)
(-0.00024186 -6.32677e-05 -3.23105e-05)
(-0.000235426 -8.41065e-05 -3.23105e-05)
(-0.0002272 -0.000104305 -3.23108e-05)
(-0.000217244 -0.00012371 -3.23107e-05)
(-0.000205635 -0.000142173 -3.23107e-05)
(-0.000192462 -0.000159555 -3.23105e-05)
(-0.000177823 -0.000175722 -3.23107e-05)
(-0.000161831 -0.000190551 -3.23107e-05)
(-0.000144608 -0.000203931 -3.23106e-05)
(-0.000126284 -0.000215758 -3.23106e-05)
(-0.000106999 -0.000225944 -3.23104e-05)
(-8.68994e-05 -0.000234409 -3.23102e-05)
(-6.61391e-05 -0.000241091 -3.23103e-05)
(-4.4875e-05 -0.000245938 -3.23106e-05)
(-2.3269e-05 -0.000248913 -3.23107e-05)
(-1.48604e-06 -0.000249994 -3.23107e-05)
(2.03083e-05 -0.000249173 -3.23105e-05)
(4.19477e-05 -0.000246454 -3.23104e-05)
(6.32677e-05 -0.00024186 -3.23105e-05)
(8.41065e-05 -0.000235426 -3.23105e-05)
(0.000104305 -0.0002272 -3.23108e-05)
(0.00012371 -0.000217244 -3.23107e-05)
(0.000142173 -0.000205635 -3.23107e-05)
(0.000159555 -0.000192462 -3.23105e-05)
(0.000175722 -0.000177823 -3.23107e-05)
(0.000190551 -0.000161831 -3.23107e-05)
(0.000203931 -0.000144608 -3.23106e-05)
(0.000215758 -0.000126284 -3.23106e-05)
(0.000225944 -0.000106999 -3.23104e-05)
(0.000234409 -8.68994e-05 -3.23102e-05)
(0.000241091 -6.61391e-05 -3.23103e-05)
(0.000245938 -4.4875e-05 -3.23106e-05)
(0.000248913 -2.3269e-05 -3.23107e-05)
(0.000249994 -1.48604e-06 -3.23107e-05)
(0.000249173 2.03083e-05 -3.23105e-05)
(0.000246454 4.19477e-05 -3.23104e-05)
(0.00024186 6.32677e-05 -3.23105e-05)
(0.000235426 8.41065e-05 -3.23105e-05)
(0.0002272 0.000104305 -3.23108e-05)
(0.000217244 0.00012371 -3.23107e-05)
(0.000205635 0.000142173 -3.23107e-05)
(0.000192462 0.000159555 -3.23105e-05)
(0.000177823 0.000175722 -3.23107e-05)
(0.000161831 0.000190551 -3.23107e-05)
(0.000144608 0.000203931 -3.23106e-05)
(0.000126284 0.000215758 -3.23106e-05)
(0.000106999 0.000225944 -3.23104e-05)
(8.68994e-05 0.000234409 -3.23102e-05)
(6.61391e-05 0.000241091 -3.23103e-05)
(4.4875e-05 0.000245938 -3.23106e-05)
(2.3269e-05 0.000248913 -3.23107e-05)
(1.48604e-06 0.000249994 -3.23107e-05)
(-2.03083e-05 0.000249173 -3.23105e-05)
(-4.19477e-05 0.000246454 -3.23104e-05)
(-6.32677e-05 0.00024186 -3.23105e-05)
(-8.41065e-05 0.000235426 -3.23105e-05)
(-0.000104305 0.0002272 -3.23108e-05)
(-0.00012371 0.000217244 -3.23107e-05)
(-0.00012308 0.00022463 2.14635e-06)
(-0.000142189 0.000213048 2.14645e-06)
(-0.000160216 0.000199845 2.14665e-06)
(-0.000177024 0.00018512 2.14649e-06)
(-0.000192486 0.000168987 2.14634e-06)
(-0.000206481 0.000151568 2.14637e-06)
(-0.000218905 0.000132995 2.14657e-06)
(-0.000229663 0.00011341 2.14641e-06)
(-0.000238674 9.2963e-05 2.14645e-06)
(-0.000245868 7.18074e-05 2.14629e-06)
(-0.000251191 5.01049e-05 2.1464e-06)
(-0.000254602 2.80214e-05 2.14652e-06)
(-0.000256075 5.72454e-06 2.14662e-06)
(-0.0002556 -1.66157e-05 2.14638e-06)
(-0.000253179 -3.88292e-05 2.14611e-06)
(-0.000248832 -6.07473e-05 2.14619e-06)
(-0.00024259 -8.22031e-05 2.14635e-06)
(-0.000234502 -0.000103033 2.14638e-06)
(-0.00022463 -0.00012308 2.14635e-06)
(-0.000213048 -0.000142189 2.14645e-06)
(-0.000199845 -0.000160216 2.14665e-06)
(-0.00018512 -0.000177024 2.14649e-06)
(-0.000168987 -0.000192486 2.14634e-06)
(-0.000151568 -0.000206481 2.14636e-06)
(-0.000132995 -0.000218905 2.14656e-06)
(-0.00011341 -0.000229663 2.14641e-06)
(-9.2963e-05 -0.000238674 2.14645e-06)
(-7.18074e-05 -0.000245868 2.14629e-06)
(-5.01049e-05 -0.000251191 2.1464e-06)
(-2.80214e-05 -0.000254602 2.14651e-06)
(-5.72454e-06 -0.000256075 2.14662e-06)
(1.66157e-05 -0.0002556 2.14637e-06)
(3.88292e-05 -0.000253179 2.14611e-06)
(6.07473e-05 -0.000248832 2.14619e-06)
(8.22031e-05 -0.00024259 2.14635e-06)
(0.000103033 -0.000234502 2.14638e-06)
(0.00012308 -0.00022463 2.14635e-06)
(0.000142189 -0.000213048 2.14645e-06)
(0.000160216 -0.000199845 2.14665e-06)
(0.000177024 -0.00018512 2.14649e-06)
(0.000192486 -0.000168987 2.14634e-06)
(0.000206481 -0.000151568 2.14636e-06)
(0.000218905 -0.000132995 2.14656e-06)
(0.000229663 -0.00011341 2.1464e-06)
(0.000238674 -9.2963e-05 2.14645e-06)
(0.000245868 -7.18074e-05 2.14628e-06)
(0.000251191 -5.01049e-05 2.1464e-06)
(0.000254602 -2.80214e-05 2.14651e-06)
(0.000256075 -5.72453e-06 2.14662e-06)
(0.0002556 1.66157e-05 2.14637e-06)
(0.000253179 3.88292e-05 2.14611e-06)
(0.000248832 6.07473e-05 2.14619e-06)
(0.00024259 8.22031e-05 2.14635e-06)
(0.000234502 0.000103033 2.14638e-06)
(0.00022463 0.00012308 2.14635e-06)
(0.000213048 0.000142189 2.14645e-06)
(0.000199845 0.000160216 2.14665e-06)
(0.00018512 0.000177024 2.14649e-06)
(0.000168987 0.000192486 2.14634e-06)
(0.000151568 0.000206481 2.14636e-06)
(0.000132995 0.000218905 2.14656e-06)
(0.00011341 0.000229663 2.1464e-06)
(9.2963e-05 0.000238674 2.14644e-06)
(7.18074e-05 0.000245868 2.14628e-06)
(5.01049e-05 0.000251191 2.14639e-06)
(2.80214e-05 0.000254602 2.14651e-06)
(5.72454e-06 0.000256075 2.14662e-06)
(-1.66157e-05 0.0002556 2.14637e-06)
(-3.88292e-05 0.000253179 2.14611e-06)
(-6.07473e-05 0.000248832 2.14619e-06)
(-8.22031e-05 0.00024259 2.14635e-06)
(-0.000103033 0.000234502 2.14638e-06)
(-0.000442209 0.000572387 -0.000197322)
(-0.000490412 0.000531667 -0.000197322)
(-0.000534884 0.000486902 -0.000197323)
(-0.000575285 0.000438431 -0.000197323)
(-0.000611308 0.000386623 -0.000197323)
(-0.000642679 0.000331873 -0.000197322)
(-0.000669158 0.000274597 -0.000197321)
(-0.000690544 0.000215232 -0.00019732)
(-0.000706674 0.000154228 -0.00019732)
(-0.000717427 9.20512e-05 -0.000197321)
(-0.00072272 2.9173e-05 -0.000197322)
(-0.000722512 -3.39276e-05 -0.000197322)
(-0.000716806 -9.67705e-05 -0.000197322)
(-0.000705644 -0.000158876 -0.000197322)
(-0.000689112 -0.000219772 -0.000197322)
(-0.000667335 -0.000278995 -0.000197322)
(-0.000640479 -0.000336096 -0.000197323)
(-0.00060875 -0.000390639 -0.000197323)
(-0.000572387 -0.000442209 -0.000197322)
(-0.000531667 -0.000490412 -0.000197322)
(-0.000486902 -0.000534884 -0.000197323)
(-0.000438431 -0.000575285 -0.000197323)
(-0.000386623 -0.000611308 -0.000197323)
(-0.000331873 -0.000642679 -0.000197322)
(-0.000274597 -0.000669158 -0.000197321)
(-0.000215232 -0.000690544 -0.00019732)
(-0.000154228 -0.000706674 -0.00019732)
(-9.20512e-05 -0.000717427 -0.000197321)
(-2.9173e-05 -0.00072272 -0.000197322)
(3.39276e-05 -0.000722512 -0.000197322)
(9.67705e-05 -0.000716806 -0.000197322)
(0.000158876 -0.000705644 -0.000197322)
(0.000219772 -0.000689112 -0.000197322)
(0.000278995 -0.000667335 -0.000197322)
(0.000336096 -0.000640479 -0.000197323)
(0.000390639 -0.00060875 -0.000197323)
(0.000442209 -0.000572387 -0.000197322)
(0.000490412 -0.000531667 -0.000197322)
(0.000534884 -0.000486902 -0.000197323)
(0.000575285 -0.000438431 -0.000197323)
(0.000611308 -0.000386623 -0.000197323)
(0.000642679 -0.000331873 -0.000197322)
(0.000669158 -0.000274597 -0.000197321)
(0.000690544 -0.000215232 -0.00019732)
(0.000706674 -0.000154228 -0.00019732)
(0.000717427 -9.20512e-05 -0.000197321)
(0.00072272 -2.9173e-05 -0.000197322)
(0.000722512 3.39277e-05 -0.000197322)
(0.000716806 9.67705e-05 -0.000197322)
(0.000705644 0.000158876 -0.000197322)
(0.000689112 0.000219772 -0.000197322)
(0.000667335 0.000278995 -0.000197322)
(0.000640479 0.000336096 -0.000197323)
(0.00060875 0.00039064 -0.000197323)
(0.000572387 0.000442209 -0.000197322)
(0.000531667 0.000490412 -0.000197322)
(0.000486902 0.000534884 -0.000197323)
(0.000438431 0.000575285 -0.000197323)
(0.000386623 0.000611308 -0.000197323)
(0.000331873 0.000642679 -0.000197322)
(0.000274597 0.000669158 -0.000197321)
(0.000215232 0.000690544 -0.00019732)
(0.000154228 0.000706674 -0.00019732)
(9.20512e-05 0.000717427 -0.000197321)
(2.9173e-05 0.00072272 -0.000197322)
(-3.39277e-05 0.000722512 -0.000197322)
(-9.67705e-05 0.000716806 -0.000197322)
(-0.000158876 0.000705644 -0.000197322)
(-0.000219772 0.000689112 -0.000197322)
(-0.000278995 0.000667335 -0.000197322)
(-0.000336096 0.000640479 -0.000197323)
(-0.00039064 0.00060875 -0.000197323)
(-0.000422695 0.000619406 -0.000116056)
(-0.000475071 0.000580208 -0.000116056)
(-0.000523831 0.000536595 -0.000116056)
(-0.000568605 0.000488898 -0.000116056)
(-0.000609053 0.000437481 -0.000116056)
(-0.000644864 0.000382734 -0.000116055)
(-0.000675767 0.000325074 -0.000116055)
(-0.000701528 0.00026494 -0.000116055)
(-0.000721949 0.00020279 -0.000116055)
(-0.000736876 0.000139097 -0.000116055)
(-0.000746195 7.43442e-05 -0.000116055)
(-0.000749836 9.02576e-06 -0.000116055)
(-0.000747768 -5.63615e-05 -0.000116055)
(-0.000740011 -0.000121319 -0.000116055)
(-0.000726621 -0.000185353 -0.000116055)
(-0.000707701 -0.000247977 -0.000116055)
(-0.000683395 -0.000308714 -0.000116056)
(-0.000653889 -0.000367101 -0.000116056)
(-0.000619406 -0.000422695 -0.000116056)
(-0.000580208 -0.000475071 -0.000116056)
(-0.000536595 -0.000523831 -0.000116056)
(-0.000488898 -0.000568605 -0.000116056)
(-0.000437481 -0.000609053 -0.000116056)
(-0.000382734 -0.000644864 -0.000116055)
(-0.000325074 -0.000675767 -0.000116055)
(-0.00026494 -0.000701528 -0.000116055)
(-0.00020279 -0.000721949 -0.000116055)
(-0.000139097 -0.000736876 -0.000116055)
(-7.43442e-05 -0.000746195 -0.000116055)
(-9.02577e-06 -0.000749836 -0.000116055)
(5.63615e-05 -0.000747768 -0.000116055)
(0.000121319 -0.000740011 -0.000116055)
(0.000185353 -0.000726621 -0.000116055)
(0.000247977 -0.000707701 -0.000116055)
(0.000308714 -0.000683395 -0.000116056)
(0.000367101 -0.000653889 -0.000116056)
(0.000422695 -0.000619406 -0.000116056)
(0.000475071 -0.000580208 -0.000116056)
(0.000523831 -0.000536595 -0.000116056)
(0.000568605 -0.000488898 -0.000116056)
(0.000609053 -0.000437481 -0.000116056)
(0.000644864 -0.000382734 -0.000116055)
(0.000675767 -0.000325074 -0.000116055)
(0.000701528 -0.00026494 -0.000116055)
(0.000721949 -0.00020279 -0.000116055)
(0.000736876 -0.000139097 -0.000116055)
(0.000746195 -7.43442e-05 -0.000116055)
(0.000749836 -9.02576e-06 -0.000116055)
(0.000747768 5.63616e-05 -0.000116055)
(0.000740011 0.000121319 -0.000116055)
(0.000726621 0.000185353 -0.000116055)
(0.000707701 0.000247977 -0.000116055)
(0.000683395 0.000308714 -0.000116056)
(0.000653889 0.000367101 -0.000116056)
(0.000619406 0.000422695 -0.000116056)
(0.000580208 0.000475071 -0.000116056)
(0.000536595 0.000523831 -0.000116056)
(0.000488898 0.000568605 -0.000116056)
(0.000437481 0.000609053 -0.000116056)
(0.000382734 0.000644864 -0.000116055)
(0.000325074 0.000675767 -0.000116055)
(0.00026494 0.000701528 -0.000116055)
(0.00020279 0.000721949 -0.000116055)
(0.000139097 0.000736876 -0.000116055)
(7.43442e-05 0.000746195 -0.000116055)
(9.02576e-06 0.000749836 -0.000116055)
(-5.63616e-05 0.000747768 -0.000116055)
(-0.000121319 0.000740011 -0.000116055)
(-0.000185353 0.000726621 -0.000116055)
(-0.000247977 0.000707701 -0.000116055)
(-0.000308714 0.000683395 -0.000116056)
(-0.000367101 0.000653889 -0.000116056)
(-0.000420671 0.000677379 -3.89352e-05)
(-0.000478108 0.000638138 -3.89349e-05)
(-0.000531905 0.000594039 -3.89345e-05)
(-0.000581655 0.00054542 -3.89347e-05)
(-0.000626978 0.00049265 -3.89347e-05)
(-0.00066753 0.00043613 -3.89348e-05)
(-0.000703001 0.000376292 -3.89348e-05)
(-0.000733121 0.00031359 -3.89348e-05)
(-0.000757663 0.000248501 -3.89347e-05)
(-0.000776438 0.000181521 -3.89343e-05)
(-0.000789304 0.000113158 -3.89342e-05)
(-0.000796163 4.39352e-05 -3.89346e-05)
(-0.000796963 -2.56223e-05 -3.89348e-05)
(-0.000791697 -9.49845e-05 -3.89352e-05)
(-0.000780406 -0.000163624 -3.89352e-05)
(-0.000763175 -0.000231017 -3.89349e-05)
(-0.000740137 -0.000296654 -3.89351e-05)
(-0.000711465 -0.000360032 -3.8935e-05)
(-0.000677379 -0.000420671 -3.89352e-05)
(-0.000638138 -0.000478108 -3.89349e-05)
(-0.000594039 -0.000531905 -3.89345e-05)
(-0.00054542 -0.000581655 -3.89347e-05)
(-0.00049265 -0.000626978 -3.89347e-05)
(-0.00043613 -0.00066753 -3.89348e-05)
(-0.000376292 -0.000703001 -3.89348e-05)
(-0.00031359 -0.000733121 -3.89348e-05)
(-0.000248501 -0.000757663 -3.89347e-05)
(-0.000181521 -0.000776438 -3.89343e-05)
(-0.000113159 -0.000789304 -3.89342e-05)
(-4.39352e-05 -0.000796163 -3.89346e-05)
(2.56223e-05 -0.000796963 -3.89348e-05)
(9.49845e-05 -0.000791697 -3.89352e-05)
(0.000163624 -0.000780406 -3.89352e-05)
(0.000231017 -0.000763175 -3.89349e-05)
(0.000296654 -0.000740137 -3.89351e-05)
(0.000360032 -0.000711465 -3.8935e-05)
(0.000420671 -0.000677379 -3.89352e-05)
(0.000478108 -0.000638138 -3.89349e-05)
(0.000531905 -0.000594039 -3.89345e-05)
(0.000581655 -0.00054542 -3.89347e-05)
(0.000626978 -0.00049265 -3.89347e-05)
(0.00066753 -0.00043613 -3.89348e-05)
(0.000703001 -0.000376292 -3.89348e-05)
(0.000733121 -0.00031359 -3.89348e-05)
(0.000757663 -0.000248501 -3.89347e-05)
(0.000776438 -0.000181521 -3.89343e-05)
(0.000789304 -0.000113158 -3.89342e-05)
(0.000796163 -4.39352e-05 -3.89346e-05)
(0.000796963 2.56223e-05 -3.89349e-05)
(0.000791697 9.49845e-05 -3.89352e-05)
(0.000780406 0.000163624 -3.89352e-05)
(0.000763175 0.000231017 -3.89349e-05)
(0.000740137 0.000296654 -3.89351e-05)
(0.000711465 0.000360032 -3.8935e-05)
(0.000677379 0.000420671 -3.89352e-05)
(0.000638138 0.000478108 -3.89349e-05)
(0.000594039 0.000531905 -3.89345e-05)
(0.00054542 0.000581655 -3.89347e-05)
(0.00049265 0.000626978 -3.89347e-05)
(0.00043613 0.00066753 -3.89348e-05)
(0.000376292 0.000703001 -3.89348e-05)
(0.00031359 0.000733121 -3.89348e-05)
(0.000248501 0.000757663 -3.89347e-05)
(0.000181521 0.000776438 -3.89343e-05)
(0.000113159 0.000789304 -3.89342e-05)
(4.39352e-05 0.000796163 -3.89346e-05)
(-2.56223e-05 0.000796963 -3.89349e-05)
(-9.49845e-05 0.000791697 -3.89352e-05)
(-0.000163624 0.000780406 -3.89352e-05)
(-0.000231017 0.000763175 -3.89349e-05)
(-0.000296654 0.000740137 -3.89351e-05)
(-0.000360032 0.000711465 -3.8935e-05)
(-0.000685242 0.000964892 -0.000340514)
(-0.00076673 0.000901497 -0.000340514)
(-0.000842383 0.000831242 -0.000340514)
(-0.000911625 0.00075466 -0.000340513)
(-0.00097393 0.000672335 -0.000340513)
(-0.00102882 0.000584893 -0.000340512)
(-0.00107588 0.000493 -0.000340511)
(-0.00111476 0.000397355 -0.000340511)
(-0.00114515 0.000298686 -0.000340511)
(-0.00116682 0.000197743 -0.000340511)
(-0.00117962 9.5296e-05 -0.000340511)
(-0.00118343 -7.87663e-06 -0.000340512)
(-0.00117824 -0.00011099 -0.000340512)
(-0.00116408 -0.000213259 -0.000340512)
(-0.00114107 -0.000313904 -0.000340512)
(-0.00110937 -0.00041216 -0.000340512)
(-0.00106922 -0.000507279 -0.000340513)
(-0.00102094 -0.000598539 -0.000340514)
(-0.000964892 -0.000685242 -0.000340514)
(-0.000901497 -0.00076673 -0.000340514)
(-0.000831242 -0.000842383 -0.000340514)
(-0.00075466 -0.000911625 -0.000340513)
(-0.000672335 -0.00097393 -0.000340513)
(-0.000584893 -0.00102882 -0.000340512)
(-0.000493 -0.00107588 -0.000340511)
(-0.000397355 -0.00111476 -0.000340511)
(-0.000298686 -0.00114515 -0.000340511)
(-0.000197743 -0.00116682 -0.000340511)
(-9.5296e-05 -0.00117962 -0.000340511)
(7.87664e-06 -0.00118343 -0.000340512)
(0.00011099 -0.00117824 -0.000340512)
(0.000213259 -0.00116408 -0.000340512)
(0.000313903 -0.00114107 -0.000340512)
(0.00041216 -0.00110937 -0.000340512)
(0.000507279 -0.00106922 -0.000340513)
(0.000598539 -0.00102094 -0.000340514)
(0.000685242 -0.000964892 -0.000340514)
(0.00076673 -0.000901497 -0.000340514)
(0.000842383 -0.000831242 -0.000340514)
(0.000911625 -0.00075466 -0.000340513)
(0.00097393 -0.000672335 -0.000340513)
(0.00102882 -0.000584893 -0.000340512)
(0.00107588 -0.000493 -0.000340511)
(0.00111476 -0.000397355 -0.000340511)
(0.00114515 -0.000298686 -0.000340511)
(0.00116682 -0.000197743 -0.000340511)
(0.00117962 -9.5296e-05 -0.000340511)
(0.00118343 7.87666e-06 -0.000340512)
(0.00117824 0.00011099 -0.000340512)
(0.00116408 0.000213259 -0.000340512)
(0.00114107 0.000313904 -0.000340512)
(0.00110937 0.00041216 -0.000340512)
(0.00106922 0.000507279 -0.000340513)
(0.00102094 0.000598539 -0.000340514)
(0.000964892 0.000685242 -0.000340514)
(0.000901497 0.00076673 -0.000340514)
(0.000831242 0.000842383 -0.000340514)
(0.00075466 0.000911625 -0.000340513)
(0.000672335 0.00097393 -0.000340513)
(0.000584893 0.00102882 -0.000340512)
(0.000493 0.00107588 -0.000340511)
(0.000397355 0.00111476 -0.000340511)
(0.000298686 0.00114515 -0.000340511)
(0.000197743 0.00116682 -0.000340511)
(9.5296e-05 0.00117962 -0.000340511)
(-7.87665e-06 0.00118343 -0.000340512)
(-0.00011099 0.00117824 -0.000340512)
(-0.000213259 0.00116408 -0.000340512)
(-0.000313904 0.00114107 -0.000340512)
(-0.00041216 0.00110937 -0.000340512)
(-0.000507279 0.00106922 -0.000340513)
(-0.000598539 0.00102094 -0.000340514)
(-0.000683124 0.0010433 -0.000231314)
(-0.000771454 0.000979795 -0.000231314)
(-0.000853913 0.00090883 -0.000231314)
(-0.000929874 0.000830948 -0.000231314)
(-0.000998757 0.000746742 -0.000231314)
(-0.00106004 0.000656853 -0.000231314)
(-0.00111325 0.000561966 -0.000231313)
(-0.001158 0.000462801 -0.000231313)
(-0.00119393 0.000360114 -0.000231313)
(-0.00122077 0.000254686 -0.000231312)
(-0.00123832 0.00014732 -0.000231313)
(-0.00124645 3.88326e-05 -0.000231313)
(-0.00124509 -6.99505e-05 -0.000231313)
(-0.00123425 -0.000178201 -0.000231313)
(-0.00121403 -0.000285095 -0.000231313)
(-0.00118456 -0.00038982 -0.000231313)
(-0.00114608 -0.000491578 -0.000231314)
(-0.00109887 -0.000589595 -0.000231314)
(-0.0010433 -0.000683124 -0.000231314)
(-0.000979795 -0.000771454 -0.000231314)
(-0.00090883 -0.000853913 -0.000231314)
(-0.000830948 -0.000929874 -0.000231314)
(-0.000746742 -0.000998757 -0.000231314)
(-0.000656853 -0.00106004 -0.000231314)
(-0.000561966 -0.00111325 -0.000231313)
(-0.000462801 -0.001158 -0.000231313)
(-0.000360114 -0.00119393 -0.000231313)
(-0.000254686 -0.00122077 -0.000231313)
(-0.00014732 -0.00123832 -0.000231313)
(-3.88326e-05 -0.00124645 -0.000231313)
(6.99505e-05 -0.00124509 -0.000231313)
(0.000178201 -0.00123425 -0.000231313)
(0.000285095 -0.00121403 -0.000231313)
(0.00038982 -0.00118456 -0.000231313)
(0.000491578 -0.00114608 -0.000231314)
(0.000589595 -0.00109887 -0.000231314)
(0.000683124 -0.0010433 -0.000231314)
(0.000771454 -0.000979795 -0.000231314)
(0.000853913 -0.00090883 -0.000231314)
(0.000929874 -0.000830948 -0.000231314)
(0.000998757 -0.000746742 -0.000231314)
(0.00106004 -0.000656853 -0.000231314)
(0.00111325 -0.000561966 -0.000231313)
(0.001158 -0.000462801 -0.000231313)
(0.00119393 -0.000360114 -0.000231313)
(0.00122077 -0.000254686 -0.000231313)
(0.00123832 -0.00014732 -0.000231313)
(0.00124645 -3.88326e-05 -0.000231313)
(0.00124509 6.99505e-05 -0.000231313)
(0.00123425 0.000178201 -0.000231313)
(0.00121403 0.000285095 -0.000231313)
(0.00118456 0.00038982 -0.000231313)
(0.00114608 0.000491578 -0.000231314)
(0.00109887 0.000589595 -0.000231314)
(0.0010433 0.000683124 -0.000231314)
(0.000979795 0.000771454 -0.000231314)
(0.00090883 0.000853913 -0.000231314)
(0.000830948 0.000929874 -0.000231314)
(0.000746742 0.000998757 -0.000231314)
(0.000656853 0.00106004 -0.000231314)
(0.000561966 0.00111325 -0.000231313)
(0.000462801 0.001158 -0.000231313)
(0.000360114 0.00119393 -0.000231313)
(0.000254686 0.00122077 -0.000231313)
(0.00014732 0.00123832 -0.000231313)
(3.88326e-05 0.00124645 -0.000231313)
(-6.99505e-05 0.00124509 -0.000231313)
(-0.000178201 0.00123425 -0.000231313)
(-0.000285095 0.00121403 -0.000231313)
(-0.00038982 0.00118456 -0.000231313)
(-0.000491578 0.00114608 -0.000231314)
(-0.000589595 0.00109887 -0.000231314)
(-0.000699706 0.00112854 -0.000128604)
(-0.000795402 0.00106326 -0.000128603)
(-0.000885044 0.000989889 -0.000128603)
(-0.00096795 0.000908986 -0.000128603)
(-0.00104349 0.000821165 -0.000128603)
(-0.00111109 0.000727094 -0.000128603)
(-0.00117023 0.00062749 -0.000128603)
(-0.00122047 0.00052311 -0.000128603)
(-0.00126142 0.000414748 -0.000128604)
(-0.00129276 0.00030323 -0.000128603)
(-0.00131427 0.000189405 -0.000128603)
(-0.00132578 7.41373e-05 -0.000128603)
(-0.0013272 -4.16941e-05 -0.000128603)
(-0.00131851 -0.000157208 -0.000128603)
(-0.00129979 -0.000271525 -0.000128603)
(-0.00127118 -0.000383776 -0.000128603)
(-0.00123289 -0.000493107 -0.000128603)
(-0.00118523 -0.000598685 -0.000128604)
(-0.00112854 -0.000699706 -0.000128604)
(-0.00106326 -0.000795402 -0.000128603)
(-0.000989889 -0.000885044 -0.000128603)
(-0.000908986 -0.00096795 -0.000128603)
(-0.000821165 -0.00104349 -0.000128604)
(-0.000727094 -0.00111109 -0.000128603)
(-0.00062749 -0.00117023 -0.000128603)
(-0.00052311 -0.00122047 -0.000128603)
(-0.000414748 -0.00126142 -0.000128604)
(-0.00030323 -0.00129276 -0.000128603)
(-0.000189405 -0.00131427 -0.000128603)
(-7.41373e-05 -0.00132578 -0.000128603)
(4.16941e-05 -0.0013272 -0.000128603)
(0.000157208 -0.00131851 -0.000128604)
(0.000271525 -0.00129979 -0.000128603)
(0.000383776 -0.00127118 -0.000128603)
(0.000493107 -0.00123289 -0.000128603)
(0.000598685 -0.00118523 -0.000128604)
(0.000699706 -0.00112854 -0.000128604)
(0.000795402 -0.00106326 -0.000128603)
(0.000885044 -0.000989889 -0.000128603)
(0.00096795 -0.000908986 -0.000128603)
(0.00104349 -0.000821164 -0.000128604)
(0.00111109 -0.000727094 -0.000128603)
(0.00117023 -0.00062749 -0.000128604)
(0.00122047 -0.00052311 -0.000128603)
(0.00126142 -0.000414748 -0.000128604)
(0.00129276 -0.00030323 -0.000128603)
(0.00131427 -0.000189405 -0.000128603)
(0.00132578 -7.41373e-05 -0.000128603)
(0.0013272 4.16941e-05 -0.000128603)
(0.00131851 0.000157208 -0.000128604)
(0.00129979 0.000271525 -0.000128603)
(0.00127118 0.000383776 -0.000128603)
(0.00123289 0.000493107 -0.000128603)
(0.00118523 0.000598685 -0.000128604)
(0.00112854 0.000699706 -0.000128604)
(0.00106326 0.000795402 -0.000128603)
(0.000989889 0.000885044 -0.000128603)
(0.000908986 0.00096795 -0.000128603)
(0.000821164 0.00104349 -0.000128603)
(0.000727094 0.00111109 -0.000128603)
(0.00062749 0.00117023 -0.000128604)
(0.00052311 0.00122047 -0.000128603)
(0.000414748 0.00126142 -0.000128604)
(0.00030323 0.00129276 -0.000128603)
(0.000189405 0.00131427 -0.000128603)
(7.41373e-05 0.00132578 -0.000128603)
(-4.16941e-05 0.0013272 -0.000128603)
(-0.000157208 0.00131851 -0.000128604)
(-0.000271525 0.00129979 -0.000128603)
(-0.000383776 0.00127118 -0.000128603)
(-0.000493107 0.00123289 -0.000128604)
(-0.000598685 0.00118523 -0.000128604)
(-0.000894963 0.00137364 -0.000500788)
(-0.00101128 0.00129042 -0.000500788)
(-0.0011199 0.00119737 -0.000500789)
(-0.00121999 0.00109521 -0.000500788)
(-0.0013108 0.000984708 -0.000500788)
(-0.00139164 0.000866717 -0.000500788)
(-0.00146188 0.00074213 -0.000500787)
(-0.001521 0.000611895 -0.000500786)
(-0.00156854 0.000477003 -0.000500787)
(-0.00160415 0.00033848 -0.000500787)
(-0.00162754 0.000197381 -0.000500787)
(-0.00163855 5.47805e-05 -0.000500787)
(-0.00163709 -8.82372e-05 -0.000500787)
(-0.00162317 -0.000230583 -0.000500787)
(-0.0015969 -0.000371175 -0.000500787)
(-0.00155847 -0.000508942 -0.000500787)
(-0.00150818 -0.000642835 -0.000500787)
(-0.00144642 -0.000771836 -0.000500788)
(-0.00137364 -0.000894963 -0.000500788)
(-0.00129042 -0.00101128 -0.000500788)
(-0.00119737 -0.0011199 -0.000500789)
(-0.00109521 -0.00121999 -0.000500788)
(-0.000984708 -0.0013108 -0.000500788)
(-0.000866717 -0.00139164 -0.000500788)
(-0.00074213 -0.00146188 -0.000500787)
(-0.000611895 -0.001521 -0.000500786)
(-0.000477003 -0.00156854 -0.000500787)
(-0.00033848 -0.00160415 -0.000500787)
(-0.000197381 -0.00162754 -0.000500787)
(-5.47805e-05 -0.00163855 -0.000500787)
(8.82372e-05 -0.00163709 -0.000500787)
(0.000230583 -0.00162317 -0.000500787)
(0.000371175 -0.0015969 -0.000500787)
(0.000508942 -0.00155847 -0.000500787)
(0.000642835 -0.00150818 -0.000500787)
(0.000771836 -0.00144642 -0.000500788)
(0.000894963 -0.00137364 -0.000500788)
(0.00101128 -0.00129042 -0.000500788)
(0.0011199 -0.00119737 -0.000500789)
(0.00121999 -0.00109521 -0.000500788)
(0.0013108 -0.000984708 -0.000500788)
(0.00139164 -0.000866717 -0.000500788)
(0.00146188 -0.00074213 -0.000500787)
(0.001521 -0.000611895 -0.000500786)
(0.00156854 -0.000477003 -0.000500787)
(0.00160415 -0.00033848 -0.000500787)
(0.00162754 -0.000197381 -0.000500787)
(0.00163855 -5.47805e-05 -0.000500787)
(0.00163709 8.82372e-05 -0.000500787)
(0.00162317 0.000230583 -0.000500787)
(0.0015969 0.000371175 -0.000500787)
(0.00155847 0.000508942 -0.000500787)
(0.00150818 0.000642835 -0.000500787)
(0.00144642 0.000771836 -0.000500788)
(0.00137364 0.000894963 -0.000500788)
(0.00129042 0.00101128 -0.000500788)
(0.00119737 0.0011199 -0.000500789)
(0.00109521 0.00121999 -0.000500788)
(0.000984708 0.0013108 -0.000500788)
(0.000866717 0.00139164 -0.000500788)
(0.00074213 0.00146188 -0.000500787)
(0.000611895 0.001521 -0.000500786)
(0.000477003 0.00156854 -0.000500787)
(0.00033848 0.00160415 -0.000500787)
(0.000197381 0.00162754 -0.000500787)
(5.47805e-05 0.00163855 -0.000500787)
(-8.82372e-05 0.00163709 -0.000500787)
(-0.000230583 0.00162317 -0.000500787)
(-0.000371175 0.0015969 -0.000500787)
(-0.000508942 0.00155847 -0.000500787)
(-0.000642835 0.00150818 -0.000500787)
(-0.000771836 0.00144642 -0.000500788)
(-0.000908513 0.00147021 -0.000371707)
(-0.00103319 0.00138543 -0.000371707)
(-0.00115001 0.00129011 -0.000371707)
(-0.00125807 0.00118497 -0.000371707)
(-0.00135657 0.00107082 -0.000371707)
(-0.00144473 0.00094851 -0.000371706)
(-0.0015219 0.000818984 -0.000371706)
(-0.00158749 0.000683225 -0.000371706)
(-0.00164099 0.000542267 -0.000371706)
(-0.00168201 0.000397181 -0.000371706)
(-0.00171023 0.000249073 -0.000371706)
(-0.00172543 9.90685e-05 -0.000371706)
(-0.0017275 -5.16893e-05 -0.000371706)
(-0.00171642 -0.000202054 -0.000371706)
(-0.00169228 -0.000350881 -0.000371706)
(-0.00165525 -0.000497037 -0.000371706)
(-0.00160564 -0.000639411 -0.000371706)
(-0.0015438 -0.000776919 -0.000371706)
(-0.00147021 -0.000908513 -0.000371707)
(-0.00138543 -0.00103319 -0.000371707)
(-0.00129011 -0.00115001 -0.000371707)
(-0.00118497 -0.00125807 -0.000371707)