/*--------------------------------*- C++ -*----------------------------------*\
| =========                 |                                                 |
| \\      /  F ield         | OpenFOAM: The Open Source CFD Toolbox           |
|  \\    /   O peration     | Version:  2312                                  |
|   \\  /    A nd           | Website:  www.openfoam.com                      |
|    \\/     M anipulation  |                                                 |
\*---------------------------------------------------------------------------*/
FoamFile
{
    version     2.0;
    format      ascii;
    arch        "LSB;label=32;scalar=64";
    class       volVectorField;
    location    "0.2";
    object      D_0_0_0;
}
// * * * * * * * * * * * * * * * * * * * * * * * * * * * * * * * * * * * * * //

dimensions      [0 1 0 0 0 0 0];

internalField   nonuniform List<vector> 
3240
(
(-0.000168371 0.000189418 -6.54431e-05)
(-0.000184239 0.000174023 -6.54429e-05)
(-0.000198705 0.000157303 -6.54433e-05)
(-0.000211659 0.000139386 -6.54433e-05)
(-0.000223002 0.000120408 -6.54432e-05)
(-0.000232648 0.000100514 -6.5443e-05)
(-0.000240523 7.98556e-05 -6.54424e-05)
(-0.000246567 5.8589e-05 -6.54425e-05)
(-0.000250735 3.68767e-05 -6.54428e-05)
(-0.000252995 1.48834e-05 -6.54432e-05)
(-0.00025333 -7.22341e-06 -6.54433e-05)
(-0.000251736 -2.92754e-05 -6.54434e-05)
(-0.000248227 -5.11047e-05 -6.54431e-05)
(-0.000242828 -7.25445e-05 -6.54428e-05)
(-0.000235581 -9.34317e-05 -6.54424e-05)
(-0.000226542 -0.000113608 -6.54429e-05)
(-0.000215778 -0.000132921 -6.54435e-05)
(-0.000203372 -0.000151222 -6.54431e-05)
(-0.000189418 -0.000168371 -6.54431e-05)
(-0.000174023 -0.000184239 -6.54429e-05)
(-0.000157303 -0.000198705 -6.54433e-05)
(-0.000139386 -0.000211659 -6.54433e-05)
(-0.000120408 -0.000223002 -6.54432e-05)
(-0.000100514 -0.000232648 -6.5443e-05)
(-7.98556e-05 -0.000240523 -6.54424e-05)
(-5.8589e-05 -0.000246567 -6.54425e-05)
(-3.68767e-05 -0.000250736 -6.54428e-05)
(-1.48834e-05 -0.000252995 -6.54432e-05)
(7.22341e-06 -0.00025333 -6.54433e-05)
(2.92754e-05 -0.000251736 -6.54434e-05)
(5.11047e-05 -0.000248227 -6.54431e-05)
(7.25445e-05 -0.000242828 -6.54428e-05)
(9.34317e-05 -0.000235581 -6.54424e-05)
(0.000113608 -0.000226542 -6.54429e-05)
(0.000132921 -0.000215778 -6.54435e-05)
(0.000151222 -0.000203372 -6.54431e-05)
(0.000168371 -0.000189418 -6.54431e-05)
(0.000184239 -0.000174023 -6.54429e-05)
(0.000198705 -0.000157303 -6.54433e-05)
(0.000211659 -0.000139386 -6.54433e-05)
(0.000223002 -0.000120408 -6.54432e-05)
(0.000232648 -0.000100514 -6.5443e-05)
(0.000240523 -7.98556e-05 -6.54425e-05)
(0.000246567 -5.8589e-05 -6.54425e-05)
(0.000250736 -3.68767e-05 -6.54428e-05)
(0.000252995 -1.48834e-05 -6.54432e-05)
(0.00025333 7.22341e-06 -6.54433e-05)
(0.000251736 2.92754e-05 -6.54434e-05)
(0.000248227 5.11047e-05 -6.54431e-05)
(0.000242828 7.25445e-05 -6.54428e-05)
(0.000235581 9.34317e-05 -6.54424e-05)
(0.000226542 0.000113608 -6.54429e-05)
(0.000215778 0.000132921 -6.54435e-05)
(0.000203372 0.000151222 -6.54431e-05)
(0.000189418 0.000168371 -6.54431e-05)
(0.000174023 0.000184239 -6.54429e-05)
(0.000157303 0.000198705 -6.54433e-05)
(0.000139386 0.000211659 -6.54433e-05)
(0.000120408 0.000223002 -6.54432e-05)
(0.000100514 0.000232648 -6.5443e-05)
(7.98556e-05 0.000240523 -6.54425e-05)
(5.8589e-05 0.000246567 -6.54425e-05)
(3.68767e-05 0.000250736 -6.54428e-05)
(1.48834e-05 0.000252995 -6.54432e-05)
(-7.22341e-06 0.00025333 -6.54433e-05)
(-2.92754e-05 0.000251736 -6.54434e-05)
(-5.11047e-05 0.000248227 -6.54431e-05)
(-7.25445e-05 0.000242828 -6.54428e-05)
(-9.34317e-05 0.000235581 -6.54424e-05)
(-0.000113608 0.000226542 -6.54429e-05)
(-0.000132921 0.000215778 -6.54435e-05)
(-0.000151222 0.000203372 -6.54431e-05)
(-0.000136077 0.000203169 -3.08677e-05)
(-0.000153267 0.000190536 -3.08676e-05)
(-0.00016929 0.000176453 -3.08677e-05)
(-0.000184024 0.000161026 -3.08677e-05)
(-0.000197359 0.000144375 -3.08676e-05)
(-0.000209191 0.000126625 -3.08676e-05)
(-0.000219431 0.000107911 -3.08674e-05)
(-0.000228 8.83756e-05 -3.08672e-05)
(-0.000234836 6.81683e-05 -3.08673e-05)
(-0.000239883 4.74417e-05 -3.08676e-05)
(-0.000243105 2.63536e-05 -3.08677e-05)
(-0.000244477 5.06514e-06 -3.08677e-05)
(-0.000243988 -1.62619e-05 -3.08676e-05)
(-0.000241642 -3.74649e-05 -3.08675e-05)
(-0.000237457 -5.83826e-05 -3.08675e-05)
(-0.000231466 -7.88562e-05 -3.08675e-05)
(-0.000223712 -9.87297e-05 -3.08678e-05)
(-0.000214256 -0.000117852 -3.08677e-05)
(-0.000203169 -0.000136077 -3.08677e-05)
(-0.000190536 -0.000153267 -3.08676e-05)
(-0.000176453 -0.00016929 -3.08677e-05)
(-0.000161026 -0.000184024 -3.08677e-05)
(-0.000144375 -0.000197359 -3.08676e-05)
(-0.000126625 -0.000209191 -3.08676e-05)
(-0.000107911 -0.000219431 -3.08674e-05)
(-8.83757e-05 -0.000228 -3.08672e-05)
(-6.81683e-05 -0.000234836 -3.08673e-05)
(-4.74417e-05 -0.000239883 -3.08676e-05)
(-2.63536e-05 -0.000243105 -3.08677e-05)
(-5.06514e-06 -0.000244477 -3.08677e-05)
(1.62619e-05 -0.000243988 -3.08676e-05)
(3.74649e-05 -0.000241642 -3.08675e-05)
(5.83826e-05 -0.000237457 -3.08675e-05)
(7.88562e-05 -0.000231466 -3.08675e-05)
(9.87297e-05 -0.000223712 -3.08678e-05)
(0.000117852 -0.000214256 -3.08677e-05)
(0.000136077 -0.000203169 -3.08677e-05)
(0.000153267 -0.000190536 -3.08676e-05)
(0.00016929 -0.000176453 -3.08677e-05)
(0.000184024 -0.000161026 -3.08677e-05)
(0.000197359 -0.000144375 -3.08676e-05)
(0.000209191 -0.000126625 -3.08676e-05)
(0.000219431 -0.000107911 -3.08674e-05)
(0.000228 -8.83757e-05 -3.08672e-05)
(0.000234836 -6.81683e-05 -3.08673e-05)
(0.000239883 -4.74417e-05 -3.08676e-05)
(0.000243105 -2.63536e-05 -3.08677e-05)
(0.000244477 -5.06513e-06 -3.08677e-05)
(0.000243988 1.62619e-05 -3.08676e-05)
(0.000241642 3.74649e-05 -3.08675e-05)
(0.000237457 5.83826e-05 -3.08675e-05)
(0.000231466 7.88562e-05 -3.08675e-05)
(0.000223712 9.87297e-05 -3.08678e-05)
(0.000214256 0.000117852 -3.08677e-05)
(0.000203169 0.000136077 -3.08677e-05)
(0.000190536 0.000153267 -3.08676e-05)
(0.000176453 0.00016929 -3.08677e-05)
(0.000161026 0.000184024 -3.08677e-05)
(0.000144375 0.000197359 -3.08676e-05)
(0.000126625 0.000209191 -3.08676e-05)
(0.000107911 0.000219431 -3.08674e-05)
(8.83757e-05 0.000228 -3.08672e-05)
(6.81683e-05 0.000234836 -3.08673e-05)
(4.74417e-05 0.000239883 -3.08676e-05)
(2.63536e-05 0.000243105 -3.08677e-05)
(5.06513e-06 0.000244477 -3.08677e-05)
(-1.62619e-05 0.000243988 -3.08676e-05)
(-3.74649e-05 0.000241642 -3.08675e-05)
(-5.83826e-05 0.000237457 -3.08675e-05)
(-7.88562e-05 0.000231466 -3.08675e-05)
(-9.87297e-05 0.000223712 -3.08678e-05)
(-0.000117852 0.000214256 -3.08677e-05)
(-0.000117759 0.000219651 2.18712e-06)
(-0.000136455 0.000208552 2.18721e-06)
(-0.000154112 0.000195865 2.1874e-06)
(-0.000170596 0.000181688 2.18725e-06)
(-0.000185783 0.000166128 2.18711e-06)
(-0.000199554 0.000149304 2.18713e-06)
(-0.000211807 0.000131343 2.18732e-06)
(-0.000222449 0.000112384 2.18718e-06)
(-0.000231398 9.25688e-05 2.18721e-06)
(-0.000238585 7.20489e-05 2.18706e-06)
(-0.000243956 5.09803e-05 2.18716e-06)
(-0.000247471 2.9524e-05 2.18727e-06)
(-0.000249103 7.84286e-06 2.18737e-06)
(-0.000248839 -1.38977e-05 2.18714e-06)
(-0.00024668 -3.55323e-05 2.18689e-06)
(-0.000242645 -5.68966e-05 2.18696e-06)
(-0.000236763 -7.78279e-05 2.18711e-06)
(-0.000229079 -9.8167e-05 2.18714e-06)
(-0.000219651 -0.000117759 2.18712e-06)
(-0.000208552 -0.000136455 2.18721e-06)
(-0.000195865 -0.000154112 2.1874e-06)
(-0.000181688 -0.000170596 2.18725e-06)
(-0.000166128 -0.000185783 2.18711e-06)
(-0.000149304 -0.000199554 2.18713e-06)
(-0.000131343 -0.000211807 2.18732e-06)
(-0.000112384 -0.000222449 2.18717e-06)
(-9.25688e-05 -0.000231398 2.18721e-06)
(-7.20489e-05 -0.000238585 2.18706e-06)
(-5.09803e-05 -0.000243956 2.18716e-06)
(-2.9524e-05 -0.000247471 2.18727e-06)
(-7.84286e-06 -0.000249103 2.18737e-06)
(1.38977e-05 -0.000248839 2.18714e-06)
(3.55323e-05 -0.00024668 2.18689e-06)
(5.68966e-05 -0.000242645 2.18696e-06)
(7.78279e-05 -0.000236763 2.18711e-06)
(9.8167e-05 -0.000229079 2.18714e-06)
(0.000117759 -0.000219651 2.18712e-06)
(0.000136455 -0.000208552 2.18721e-06)
(0.000154112 -0.000195865 2.1874e-06)
(0.000170596 -0.000181688 2.18725e-06)
(0.000185783 -0.000166128 2.18711e-06)
(0.000199554 -0.000149304 2.18713e-06)
(0.000211807 -0.000131343 2.18732e-06)
(0.000222449 -0.000112384 2.18717e-06)
(0.000231398 -9.25688e-05 2.18721e-06)
(0.000238585 -7.20489e-05 2.18705e-06)
(0.000243956 -5.09803e-05 2.18716e-06)
(0.000247471 -2.9524e-05 2.18727e-06)
(0.000249103 -7.84286e-06 2.18737e-06)
(0.000248839 1.38977e-05 2.18713e-06)
(0.00024668 3.55323e-05 2.18689e-06)
(0.000242645 5.68966e-05 2.18696e-06)
(0.000236763 7.78279e-05 2.18711e-06)
(0.000229079 9.8167e-05 2.18714e-06)
(0.000219651 0.000117759 2.18712e-06)
(0.000208552 0.000136455 2.18721e-06)
(0.000195865 0.000154112 2.1874e-06)
(0.000181688 0.000170596 2.18725e-06)
(0.000166128 0.000185783 2.18711e-06)
(0.000149304 0.000199554 2.18713e-06)
(0.000131343 0.000211807 2.18732e-06)
(0.000112384 0.000222449 2.18717e-06)
(9.25688e-05 0.000231398 2.1872e-06)
(7.20489e-05 0.000238585 2.18705e-06)
(5.09803e-05 0.000243956 2.18716e-06)
(2.9524e-05 0.000247471 2.18726e-06)
(7.84286e-06 0.000249103 2.18737e-06)
(-1.38977e-05 0.000248839 2.18713e-06)
(-3.55323e-05 0.00024668 2.18688e-06)
(-5.68966e-05 0.000242645 2.18696e-06)
(-7.78279e-05 0.000236763 2.18711e-06)
(-9.8167e-05 0.000229079 2.18714e-06)
(-0.000424106 0.000569675 -0.000189181)
(-0.000472142 0.000530544 -0.000189181)
(-0.000516585 0.000487375 -0.000189181)
(-0.000557097 0.000440497 -0.000189181)
(-0.000593369 0.000390266 -0.000189181)
(-0.000625126 0.000337066 -0.00018918)
(-0.000652124 0.0002813 -0.000189179)
(-0.000674159 0.000223394 -0.000189179)
(-0.000691063 0.000163788 -0.000189179)
(-0.000702708 0.000102935 -0.000189179)
(-0.000709006 4.12978e-05 -0.00018918)
(-0.000709907 -2.06537e-05 -0.000189181)
(-0.000705406 -8.24485e-05 -0.000189181)
(-0.000695536 -0.000143615 -0.00018918)
(-0.000680372 -0.000203688 -0.00018918)
(-0.00066003 -0.00026221 -0.00018918)
(-0.000634665 -0.000318739 -0.000189181)
(-0.00060447 -0.000372841 -0.000189181)
(-0.000569675 -0.000424106 -0.000189181)
(-0.000530544 -0.000472142 -0.000189181)
(-0.000487375 -0.000516585 -0.000189181)
(-0.000440497 -0.000557097 -0.000189181)
(-0.000390266 -0.000593369 -0.000189181)
(-0.000337066 -0.000625126 -0.00018918)
(-0.0002813 -0.000652124 -0.000189179)
(-0.000223394 -0.000674159 -0.000189179)
(-0.000163788 -0.000691063 -0.000189179)
(-0.000102935 -0.000702708 -0.000189179)
(-4.12978e-05 -0.000709006 -0.00018918)
(2.06537e-05 -0.000709907 -0.000189181)
(8.24484e-05 -0.000705406 -0.000189181)
(0.000143615 -0.000695536 -0.00018918)
(0.000203688 -0.000680372 -0.00018918)
(0.00026221 -0.00066003 -0.00018918)
(0.000318739 -0.000634665 -0.000189181)
(0.000372841 -0.00060447 -0.000189181)
(0.000424106 -0.000569675 -0.000189181)
(0.000472142 -0.000530544 -0.000189181)
(0.000516585 -0.000487375 -0.000189181)
(0.000557097 -0.000440497 -0.000189181)
(0.000593369 -0.000390266 -0.000189181)
(0.000625126 -0.000337066 -0.00018918)
(0.000652124 -0.0002813 -0.000189179)
(0.000674159 -0.000223394 -0.000189179)
(0.000691063 -0.000163788 -0.000189179)
(0.000702708 -0.000102935 -0.000189179)
(0.000709006 -4.12978e-05 -0.00018918)
(0.000709907 2.06537e-05 -0.000189181)
(0.000705406 8.24485e-05 -0.000189181)
(0.000695536 0.000143615 -0.00018918)
(0.000680372 0.000203688 -0.00018918)
(0.00066003 0.00026221 -0.00018918)
(0.000634665 0.000318739 -0.000189181)
(0.00060447 0.000372841 -0.000189181)
(0.000569675 0.000424106 -0.000189181)
(0.000530544 0.000472142 -0.000189181)
(0.000487375 0.000516585 -0.000189181)
(0.000440497 0.000557097 -0.000189181)
(0.000390266 0.000593369 -0.000189181)
(0.000337066 0.000625126 -0.00018918)
(0.0002813 0.000652124 -0.000189179)
(0.000223394 0.000674159 -0.000189179)
(0.000163788 0.000691063 -0.000189179)
(0.000102935 0.000702708 -0.000189179)
(4.12978e-05 0.000709006 -0.00018918)
(-2.06537e-05 0.000709907 -0.000189181)
(-8.24485e-05 0.000705406 -0.000189181)
(-0.000143615 0.000695536 -0.00018918)
(-0.000203688 0.000680372 -0.00018918)
(-0.00026221 0.00066003 -0.00018918)
(-0.000318739 0.000634665 -0.000189181)
(-0.000372841 0.00060447 -0.000189181)
(-0.000404921 0.00061114 -0.000111472)
(-0.000456644 0.000573523 -0.000111471)
(-0.000504892 0.000531542 -0.000111472)
(-0.000549298 0.000485514 -0.000111472)
(-0.000589524 0.000435793 -0.000111471)
(-0.000625262 0.000382754 -0.000111471)
(-0.000656242 0.000326803 -0.000111471)
(-0.000682228 0.000268364 -0.000111471)
(-0.000703021 0.000207883 -0.000111471)
(-0.000718464 0.00014582 -0.000111471)
(-0.000728439 8.26464e-05 -0.000111471)
(-0.00073287 1.8844e-05 -0.000111471)
(-0.000731724 -4.5102e-05 -0.000111471)
(-0.000725009 -0.000108704 -0.000111471)
(-0.000712775 -0.000171479 -0.000111471)
(-0.000695117 -0.000232948 -0.000111471)
(-0.000672169 -0.000292646 -0.000111472)
(-0.000644106 -0.000350116 -0.000111472)
(-0.00061114 -0.000404921 -0.000111472)
(-0.000573523 -0.000456644 -0.000111471)
(-0.000531541 -0.000504892 -0.000111472)
(-0.000485514 -0.000549298 -0.000111472)
(-0.000435793 -0.000589524 -0.000111471)
(-0.000382754 -0.000625262 -0.000111471)
(-0.000326803 -0.000656242 -0.000111471)
(-0.000268364 -0.000682228 -0.000111471)
(-0.000207883 -0.000703021 -0.000111471)
(-0.00014582 -0.000718464 -0.000111471)
(-8.26464e-05 -0.000728439 -0.000111471)
(-1.8844e-05 -0.00073287 -0.000111471)
(4.5102e-05 -0.000731724 -0.000111471)
(0.000108704 -0.000725009 -0.000111471)
(0.000171479 -0.000712775 -0.000111471)
(0.000232948 -0.000695117 -0.000111471)
(0.000292646 -0.000672169 -0.000111472)
(0.000350116 -0.000644106 -0.000111472)
(0.000404921 -0.00061114 -0.000111472)
(0.000456644 -0.000573523 -0.000111471)
(0.000504892 -0.000531541 -0.000111472)
(0.000549298 -0.000485514 -0.000111472)
(0.000589524 -0.000435793 -0.000111471)
(0.000625262 -0.000382754 -0.000111471)
(0.000656242 -0.000326803 -0.000111471)
(0.000682228 -0.000268364 -0.000111471)
(0.000703021 -0.000207883 -0.000111471)
(0.000718464 -0.00014582 -0.000111471)
(0.000728439 -8.26464e-05 -0.000111471)
(0.00073287 -1.8844e-05 -0.000111471)
(0.000731724 4.5102e-05 -0.000111471)
(0.000725009 0.000108704 -0.000111471)
(0.000712775 0.000171479 -0.000111471)
(0.000695117 0.000232948 -0.000111471)
(0.000672169 0.000292646 -0.000111472)
(0.000644106 0.000350116 -0.000111472)
(0.00061114 0.000404921 -0.000111472)
(0.000573523 0.000456644 -0.000111471)
(0.000531541 0.000504892 -0.000111472)
(0.000485514 0.000549298 -0.000111472)
(0.000435793 0.000589524 -0.000111471)
(0.000382754 0.000625262 -0.000111471)
(0.000326803 0.000656242 -0.000111471)
(0.000268364 0.000682228 -0.000111471)
(0.000207883 0.000703021 -0.000111471)
(0.00014582 0.000718464 -0.000111471)
(8.26464e-05 0.000728439 -0.000111471)
(1.8844e-05 0.00073287 -0.000111471)
(-4.5102e-05 0.000731724 -0.000111471)
(-0.000108704 0.000725009 -0.000111471)
(-0.000171479 0.000712775 -0.000111471)
(-0.000232948 0.000695117 -0.000111471)
(-0.000292646 0.000672169 -0.000111472)
(-0.000350116 0.000644106 -0.000111472)
(-0.000402386 0.00066226 -3.78805e-05)
(-0.000458575 0.00062467 -3.78802e-05)
(-0.000511273 0.000582325 -3.78798e-05)
(-0.000560081 0.000535549 -3.78801e-05)
(-0.000604625 0.000484697 -3.78801e-05)
(-0.000644569 0.000430156 -3.78801e-05)
(-0.000679606 0.000372341 -3.78801e-05)
(-0.000709472 0.000311693 -3.78801e-05)
(-0.000733938 0.000248673 -3.788e-05)
(-0.000752818 0.000183759 -3.78796e-05)
(-0.000765969 0.000117447 -3.78796e-05)
(-0.000773291 5.02416e-05 -3.788e-05)
(-0.000774727 -1.73465e-05 -3.78802e-05)
(-0.000770268 -8.48023e-05 -3.78805e-05)
(-0.000759946 -0.000151612 -3.78805e-05)
(-0.000743839 -0.000217269 -3.78803e-05)
(-0.000722073 -0.000281272 -3.78804e-05)
(-0.00069481 -0.000343135 -3.78803e-05)
(-0.00066226 -0.000402386 -3.78805e-05)
(-0.00062467 -0.000458575 -3.78802e-05)
(-0.000582325 -0.000511273 -3.78798e-05)
(-0.000535549 -0.000560081 -3.78801e-05)
(-0.000484697 -0.000604625 -3.78801e-05)
(-0.000430156 -0.000644569 -3.78801e-05)
(-0.000372341 -0.000679606 -3.78801e-05)
(-0.000311693 -0.000709472 -3.78802e-05)
(-0.000248673 -0.000733938 -3.788e-05)
(-0.000183759 -0.000752818 -3.78797e-05)
(-0.000117447 -0.000765969 -3.78796e-05)
(-5.02416e-05 -0.000773291 -3.788e-05)
(1.73465e-05 -0.000774727 -3.78802e-05)
(8.48023e-05 -0.000770268 -3.78805e-05)
(0.000151612 -0.000759946 -3.78805e-05)
(0.000217269 -0.000743839 -3.78803e-05)
(0.000281272 -0.000722073 -3.78804e-05)
(0.000343135 -0.00069481 -3.78803e-05)
(0.000402386 -0.00066226 -3.78805e-05)
(0.000458575 -0.00062467 -3.78802e-05)
(0.000511273 -0.000582325 -3.78798e-05)
(0.000560081 -0.000535549 -3.78801e-05)
(0.000604625 -0.000484697 -3.78801e-05)
(0.000644569 -0.000430156 -3.78801e-05)
(0.000679606 -0.000372341 -3.78801e-05)
(0.000709472 -0.000311693 -3.78802e-05)
(0.000733938 -0.000248673 -3.78801e-05)
(0.000752818 -0.000183759 -3.78797e-05)
(0.000765969 -0.000117447 -3.78796e-05)
(0.000773291 -5.02416e-05 -3.788e-05)
(0.000774727 1.73466e-05 -3.78802e-05)
(0.000770268 8.48023e-05 -3.78805e-05)
(0.000759946 0.000151612 -3.78805e-05)
(0.000743839 0.000217269 -3.78803e-05)
(0.000722073 0.000281272 -3.78804e-05)
(0.00069481 0.000343135 -3.78803e-05)
(0.00066226 0.000402386 -3.78805e-05)
(0.00062467 0.000458575 -3.78802e-05)
(0.000582325 0.000511273 -3.78798e-05)
(0.000535549 0.000560081 -3.78801e-05)
(0.000484697 0.000604625 -3.78801e-05)
(0.000430156 0.000644569 -3.78801e-05)
(0.000372341 0.000679606 -3.78801e-05)
(0.000311693 0.000709472 -3.78802e-05)
(0.000248673 0.000733938 -3.78801e-05)
(0.000183759 0.000752818 -3.78797e-05)
(0.000117447 0.000765969 -3.78796e-05)
(5.02416e-05 0.000773291 -3.788e-05)
(-1.73465e-05 0.000774727 -3.78802e-05)
(-8.48023e-05 0.000770268 -3.78805e-05)
(-0.000151612 0.000759946 -3.78805e-05)
(-0.000217269 0.000743839 -3.78803e-05)
(-0.000281272 0.000722073 -3.78804e-05)
(-0.000343135 0.00069481 -3.78803e-05)
(-0.000658794 0.000958623 -0.000326708)
(-0.000739836 0.000897557 -0.000326708)
(-0.000815248 0.000829661 -0.000326708)
(-0.000884456 0.00075545 -0.000326708)
(-0.000946932 0.00067549 -0.000326708)
(-0.0010022 0.000590389 -0.000326707)
(-0.00104984 0.000500795 -0.000326706)
(-0.0010895 0.00040739 -0.000326706)
(-0.00112086 0.000310884 -0.000326706)
(-0.00114369 0.000212012 -0.000326706)
(-0.00115781 0.000111527 -0.000326706)
(-0.00116313 1.01927e-05 -0.000326707)
(-0.00115959 -9.12198e-05 -0.000326707)
(-0.00114723 -0.000191938 -0.000326707)
(-0.00112613 -0.000291194 -0.000326707)
(-0.00109647 -0.000388235 -0.000326707)
(-0.00105846 -0.000482321 -0.000326708)
(-0.00101239 -0.000572737 -0.000326708)
(-0.000958623 -0.000658794 -0.000326708)
(-0.000897557 -0.000739836 -0.000326708)
(-0.00082966 -0.000815248 -0.000326708)
(-0.00075545 -0.000884456 -0.000326708)
(-0.00067549 -0.000946932 -0.000326708)
(-0.000590389 -0.0010022 -0.000326707)
(-0.000500795 -0.00104984 -0.000326706)
(-0.00040739 -0.0010895 -0.000326706)
(-0.000310884 -0.00112086 -0.000326706)
(-0.000212012 -0.00114369 -0.000326706)
(-0.000111527 -0.00115781 -0.000326706)
(-1.01927e-05 -0.00116313 -0.000326707)
(9.12198e-05 -0.00115959 -0.000326707)
(0.000191938 -0.00114723 -0.000326707)
(0.000291194 -0.00112613 -0.000326707)
(0.000388235 -0.00109647 -0.000326707)
(0.000482321 -0.00105846 -0.000326708)
(0.000572737 -0.00101239 -0.000326708)
(0.000658794 -0.000958623 -0.000326708)
(0.000739836 -0.000897557 -0.000326708)
(0.000815248 -0.00082966 -0.000326708)
(0.000884456 -0.00075545 -0.000326708)
(0.000946932 -0.00067549 -0.000326708)
(0.0010022 -0.000590389 -0.000326707)
(0.00104984 -0.000500795 -0.000326706)
(0.0010895 -0.00040739 -0.000326706)
(0.00112086 -0.000310884 -0.000326706)
(0.00114369 -0.000212012 -0.000326706)
(0.00115781 -0.000111527 -0.000326706)
(0.00116313 -1.01926e-05 -0.000326707)
(0.00115959 9.12198e-05 -0.000326707)
(0.00114723 0.000191938 -0.000326707)
(0.00112613 0.000291194 -0.000326707)
(0.00109647 0.000388235 -0.000326707)
(0.00105846 0.000482321 -0.000326708)
(0.00101239 0.000572737 -0.000326708)
(0.000958623 0.000658794 -0.000326708)
(0.000897557 0.000739836 -0.000326708)
(0.00082966 0.000815248 -0.000326708)
(0.00075545 0.000884456 -0.000326708)
(0.00067549 0.000946932 -0.000326708)
(0.000590389 0.0010022 -0.000326707)
(0.000500795 0.00104984 -0.000326706)
(0.00040739 0.0010895 -0.000326706)
(0.000310884 0.00112086 -0.000326706)
(0.000212012 0.00114369 -0.000326706)
(0.000111527 0.00115781 -0.000326706)
(1.01926e-05 0.00116313 -0.000326707)
(-9.12198e-05 0.00115959 -0.000326707)
(-0.000191938 0.00114723 -0.000326707)
(-0.000291194 0.00112613 -0.000326707)
(-0.000388235 0.00109647 -0.000326707)
(-0.000482321 0.00105846 -0.000326708)
(-0.000572737 0.00101239 -0.000326708)
(-0.000655525 0.00102794 -0.00022257)
(-0.00074262 0.000966891 -0.00022257)
(-0.000824064 0.000898488 -0.00022257)
(-0.000899237 0.000823247 -0.00022257)
(-0.000967566 0.000741741 -0.000222569)
(-0.00102853 0.000654589 -0.000222569)
(-0.00108167 0.000562456 -0.000222569)
(-0.00112657 0.000466043 -0.000222569)
(-0.0011629 0.000366082 -0.000222569)
(-0.00119039 0.000263335 -0.000222568)
(-0.00120881 0.000158584 -0.000222569)
(-0.00121803 5.2626e-05 -0.000222569)
(-0.00121798 -5.37327e-05 -0.000222569)
(-0.00120866 -0.000159682 -0.000222569)
(-0.00119015 -0.000264416 -0.000222569)
(-0.00116257 -0.000367138 -0.000222569)
(-0.00112615 -0.000467066 -0.00022257)
(-0.00108116 -0.00056344 -0.00022257)
(-0.00102794 -0.000655525 -0.00022257)
(-0.000966891 -0.00074262 -0.00022257)
(-0.000898488 -0.000824064 -0.00022257)
(-0.000823247 -0.000899237 -0.00022257)
(-0.000741741 -0.000967566 -0.000222569)
(-0.000654589 -0.00102853 -0.000222569)
(-0.000562456 -0.00108167 -0.000222569)
(-0.000466043 -0.00112657 -0.000222569)
(-0.000366082 -0.0011629 -0.000222569)
(-0.000263335 -0.00119039 -0.000222568)
(-0.000158584 -0.00120881 -0.000222569)
(-5.2626e-05 -0.00121803 -0.000222569)
(5.37327e-05 -0.00121798 -0.000222569)
(0.000159682 -0.00120866 -0.000222569)
(0.000264416 -0.00119015 -0.000222569)
(0.000367138 -0.00116257 -0.000222569)
(0.000467066 -0.00112615 -0.00022257)
(0.00056344 -0.00108116 -0.00022257)
(0.000655525 -0.00102794 -0.00022257)
(0.00074262 -0.000966891 -0.00022257)
(0.000824064 -0.000898488 -0.00022257)
(0.000899237 -0.000823247 -0.00022257)
(0.000967566 -0.000741741 -0.000222569)
(0.00102853 -0.000654589 -0.000222569)
(0.00108167 -0.000562456 -0.000222569)
(0.00112657 -0.000466043 -0.000222569)
(0.0011629 -0.000366082 -0.000222569)
(0.00119039 -0.000263335 -0.000222568)
(0.00120881 -0.000158584 -0.000222569)
(0.00121803 -5.2626e-05 -0.000222569)
(0.00121798 5.37327e-05 -0.000222569)
(0.00120866 0.000159682 -0.000222569)
(0.00119015 0.000264416 -0.000222569)
(0.00116257 0.000367138 -0.000222569)
(0.00112615 0.000467066 -0.00022257)
(0.00108116 0.00056344 -0.00022257)
(0.00102794 0.000655525 -0.00022257)
(0.000966891 0.00074262 -0.00022257)
(0.000898488 0.000824064 -0.00022257)
(0.000823247 0.000899237 -0.00022257)
(0.000741741 0.000967566 -0.000222569)
(0.000654589 0.00102853 -0.000222569)
(0.000562456 0.00108167 -0.000222569)
(0.000466043 0.00112657 -0.000222569)
(0.000366082 0.0011629 -0.000222569)
(0.000263335 0.00119039 -0.000222568)
(0.000158584 0.00120881 -0.000222569)
(5.2626e-05 0.00121803 -0.000222569)
(-5.37327e-05 0.00121798 -0.000222569)
(-0.000159682 0.00120866 -0.000222569)
(-0.000264416 0.00119015 -0.000222569)
(-0.000367138 0.00116257 -0.000222569)
(-0.000467066 0.00112615 -0.00022257)
(-0.00056344 0.00108116 -0.00022257)
(-0.000669834 0.00110335 -0.000124596)
(-0.000763447 0.00104077 -0.000124595)
(-0.000851251 0.000970268 -0.000124595)
(-0.000932576 0.000892384 -0.000124595)
(-0.0010068 0.000807709 -0.000124595)
(-0.00107337 0.000716888 -0.000124595)
(-0.00113177 0.00062061 -0.000124595)
(-0.00118155 0.000519608 -0.000124595)
(-0.00122234 0.000414652 -0.000124596)
(-0.00125383 0.00030654 -0.000124595)
(-0.00127577 0.000196096 -0.000124595)
(-0.00128801 8.41582e-05 -0.000124595)
(-0.00129044 -2.84195e-05 -0.000124595)
(-0.00128305 -0.000140781 -0.000124596)
(-0.0012659 -0.00025207 -0.000124595)
(-0.00123912 -0.000361442 -0.000124595)
(-0.0012029 -0.000468063 -0.000124596)
(-0.00115753 -0.000571122 -0.000124596)
(-0.00110335 -0.000669834 -0.000124596)
(-0.00104077 -0.000763447 -0.000124595)
(-0.000970268 -0.000851251 -0.000124595)
(-0.000892384 -0.000932576 -0.000124595)
(-0.000807709 -0.0010068 -0.000124595)
(-0.000716888 -0.00107337 -0.000124595)
(-0.00062061 -0.00113177 -0.000124595)
(-0.000519608 -0.00118155 -0.000124595)
(-0.000414652 -0.00122234 -0.000124596)
(-0.00030654 -0.00125383 -0.000124595)
(-0.000196096 -0.00127577 -0.000124595)
(-8.41582e-05 -0.00128801 -0.000124595)
(2.84195e-05 -0.00129044 -0.000124595)
(0.000140781 -0.00128305 -0.000124596)
(0.00025207 -0.0012659 -0.000124595)
(0.000361442 -0.00123912 -0.000124595)
(0.000468063 -0.0012029 -0.000124596)
(0.000571122 -0.00115753 -0.000124596)
(0.000669834 -0.00110335 -0.000124596)
(0.000763447 -0.00104077 -0.000124595)
(0.000851251 -0.000970268 -0.000124595)
(0.000932576 -0.000892384 -0.000124595)
(0.0010068 -0.000807709 -0.000124596)
(0.00107337 -0.000716888 -0.000124595)
(0.00113177 -0.00062061 -0.000124596)
(0.00118155 -0.000519608 -0.000124595)
(0.00122234 -0.000414652 -0.000124596)
(0.00125383 -0.00030654 -0.000124595)
(0.00127577 -0.000196096 -0.000124595)
(0.00128801 -8.41582e-05 -0.000124595)
(0.00129044 2.84196e-05 -0.000124595)
(0.00128305 0.000140781 -0.000124596)
(0.0012659 0.00025207 -0.000124595)
(0.00123912 0.000361442 -0.000124595)
(0.0012029 0.000468063 -0.000124596)
(0.00115753 0.000571122 -0.000124596)
(0.00110335 0.000669834 -0.000124596)
(0.00104077 0.000763447 -0.000124595)
(0.000970268 0.000851251 -0.000124595)
(0.000892384 0.000932576 -0.000124595)
(0.000807709 0.0010068 -0.000124595)
(0.000716888 0.00107337 -0.000124595)
(0.00062061 0.00113177 -0.000124596)
(0.000519608 0.00118155 -0.000124595)
(0.000414652 0.00122234 -0.000124596)
(0.00030654 0.00125383 -0.000124595)
(0.000196096 0.00127577 -0.000124595)
(8.41582e-05 0.00128801 -0.000124595)
(-2.84196e-05 0.00129044 -0.000124595)
(-0.000140781 0.00128305 -0.000124596)
(-0.00025207 0.0012659 -0.000124595)
(-0.000361442 0.00123912 -0.000124595)
(-0.000468063 0.0012029 -0.000124596)
(-0.000571122 0.00115753 -0.000124596)
(-0.000863193 0.00136105 -0.000480875)
(-0.000978532 0.00128064 -0.000480876)
(-0.00108642 0.00119048 -0.000480876)
(-0.00118605 0.00109127 -0.000480876)
(-0.00127664 0.000983742 -0.000480876)
(-0.00135753 0.000868732 -0.000480875)
(-0.00142807 0.00074711 -0.000480874)
(-0.00148775 0.000619803 -0.000480874)
(-0.00153611 0.000487778 -0.000480874)
(-0.00157278 0.00035204 -0.000480875)
(-0.00159748 0.000213624 -0.000480874)
(-0.00161002 7.3582e-05 -0.000480874)
(-0.0016103 -6.702e-05 -0.000480874)
(-0.00159833 -0.000207112 -0.000480874)
(-0.0015742 -0.000345628 -0.000480874)
(-0.00153809 -0.000481514 -0.000480874)
(-0.00149027 -0.000613735 -0.000480875)
(-0.00143111 -0.000741285 -0.000480875)
(-0.00136105 -0.000863193 -0.000480875)
(-0.00128064 -0.000978532 -0.000480876)
(-0.00119048 -0.00108642 -0.000480876)
(-0.00109127 -0.00118605 -0.000480876)
(-0.000983742 -0.00127664 -0.000480875)
(-0.000868732 -0.00135753 -0.000480875)
(-0.00074711 -0.00142807 -0.000480874)
(-0.000619803 -0.00148775 -0.000480874)
(-0.000487778 -0.00153611 -0.000480874)
(-0.00035204 -0.00157278 -0.000480875)
(-0.000213624 -0.00159748 -0.000480874)
(-7.3582e-05 -0.00161002 -0.000480874)
(6.70201e-05 -0.0016103 -0.000480874)
(0.000207112 -0.00159833 -0.000480874)
(0.000345628 -0.0015742 -0.000480874)
(0.000481514 -0.00153809 -0.000480874)
(0.000613735 -0.00149027 -0.000480875)
(0.000741285 -0.00143111 -0.000480875)
(0.000863193 -0.00136105 -0.000480875)
(0.000978532 -0.00128064 -0.000480876)
(0.00108642 -0.00119048 -0.000480876)
(0.00118605 -0.00109127 -0.000480876)
(0.00127664 -0.000983742 -0.000480876)
(0.00135753 -0.000868732 -0.000480875)
(0.00142807 -0.00074711 -0.000480874)
(0.00148775 -0.000619803 -0.000480874)
(0.00153611 -0.000487778 -0.000480874)
(0.00157278 -0.00035204 -0.000480875)
(0.00159748 -0.000213624 -0.000480874)
(0.00161002 -7.3582e-05 -0.000480874)
(0.0016103 6.70201e-05 -0.000480874)
(0.00159833 0.000207112 -0.000480874)
(0.0015742 0.000345629 -0.000480874)
(0.00153809 0.000481514 -0.000480874)
(0.00149027 0.000613735 -0.000480875)
(0.00143111 0.000741285 -0.000480875)
(0.00136105 0.000863193 -0.000480875)
(0.00128064 0.000978532 -0.000480876)
(0.00119048 0.00108642 -0.000480876)
(0.00109127 0.00118605 -0.000480876)
(0.000983742 0.00127664 -0.000480876)
(0.000868732 0.00135753 -0.000480875)
(0.00074711 0.00142807 -0.000480874)
(0.000619803 0.00148775 -0.000480874)
(0.000487778 0.00153611 -0.000480874)
(0.00035204 0.00157278 -0.000480875)
(0.000213624 0.00159748 -0.000480874)
(7.3582e-05 0.00161002 -0.000480874)
(-6.70201e-05 0.0016103 -0.000480874)
(-0.000207112 0.00159833 -0.000480874)
(-0.000345629 0.0015742 -0.000480874)
(-0.000481514 0.00153809 -0.000480874)
(-0.000613735 0.00149027 -0.000480875)
(-0.000741285 0.00143111 -0.000480875)
(-0.00087415 0.00144657 -0.000357697)
(-0.0009969 0.00136488 -0.000357697)
(-0.00111206 0.0012728 -0.000357697)
(-0.00121876 0.00117103 -0.000357697)
(-0.00131619 0.00106035 -0.000357697)
(-0.00140359 0.000941604 -0.000357697)
(-0.00148032 0.00081569 -0.000357696)
(-0.00154578 0.000683567 -0.000357696)
(-0.00159947 0.000546243 -0.000357696)
(-0.00164099 0.000404761 -0.000357696)
(-0.00167003 0.000260199 -0.000357696)
(-0.00168635 0.000113656 -0.000357696)
(-0.00168984 -3.37511e-05 -0.000357696)
(-0.00168047 -0.000180902 -0.000357696)
(-0.00165831 -0.000326676 -0.000357696)
(-0.00162352 -0.000469964 -0.000357697)
(-0.00157638 -0.000609675 -0.000357697)
(-0.00151725 -0.000744746 -0.000357697)
(-0.00144657 -0.00087415 -0.000357697)
(-0.00136488 -0.0009969 -0.000357697)
(-0.0012728 -0.00111206 -0.000357697)
(-0.00117103 -0.00121876 -0.000357697)