/*--------------------------------*- C++ -*----------------------------------*\
| =========                 |                                                 |
| \\      /  F ield         | OpenFOAM: The Open Source CFD Toolbox           |
|  \\    /   O peration     | Version:  2312                                  |
|   \\  /    A nd           | Website:  www.openfoam.com                      |
|    \\/     M anipulation  |                                                 |
\*---------------------------------------------------------------------------*/
FoamFile
{
    version     2.0;
    format      ascii;
    arch        "LSB;label=32;scalar=64";
    class       pointVectorField;
    location    "0.2";
    object      pointD;
}
// * * * * * * * * * * * * * * * * * * * * * * * * * * * * * * * * * * * * * //

dimensions      [0 1 0 0 0 0 0];

internalField   nonuniform List<vector> 
4324
(
(0 0 0)
(0 0 0)
(0 0 0)
(0 0 0)
(0 0 0)
(0 0 0)
(0 0 0)
(0 0 0)
(0 0 0)
(0 0 0)
(0 0 0)
(0 0 0)
(0 0 0)
(0 0 0)
(0 0 0)
(0 0 0)
(0 0 0)
(0 0 0)
(0 0 0)
(0 0 0)
(0 0 0)
(0 0 0)
(0 0 0)
(0 0 0)
(0 0 0)
(0 0 0)
(0 0 0)
(0 0 0)
(0 0 0)
(0 0 0)
(0 0 0)
(0 0 0)
(0 0 0)
(0 0 0)
(0 0 0)
(0 0 0)
(0 0 0)
(0 0 0)
(0 0 0)
(0 0 0)
(0 0 0)
(0 0 0)
(0 0 0)
(0 0 0)
(0 0 0)
(0 0 0)
(0 0 0)
(0 0 0)
(0 0 0)
(0 0 0)
(0 0 0)
(0 0 0)
(0 0 0)
(0 0 0)
(0 0 0)
(0 0 0)
(0 0 0)
(0 0 0)
(0 0 0)
(0 0 0)
(0 0 0)
(0 0 0)
(0 0 0)
(0 0 0)
(0 0 0)
(0 0 0)
(0 0 0)
(0 0 0)
(0 0 0)
(0 0 0)
(0 0 0)
(0 0 0)
(-0.000367034 0.000348875 -0.000172607)
(-0.000396044 0.000315558 -0.000172608)
(-0.000422039 0.000279839 -0.000172608)
(-0.000444823 0.000241991 -0.000172608)
(-0.000464222 0.000202302 -0.000172608)
(-0.000480087 0.000161072 -0.000172606)
(-0.000492299 0.000118618 -0.000172605)
(-0.000500763 7.52602e-05 -0.000172606)
(-0.000505417 3.13302e-05 -0.000172606)
(-0.000506224 -1.28388e-05 -0.000172607)
(-0.000503178 -5.69104e-05 -0.000172608)
(-0.000496304 -0.00010055 -0.000172608)
(-0.000485652 -0.000143424 -0.000172607)
(-0.000471304 -0.000185205 -0.000172606)
(-0.000453369 -0.000225576 -0.000172606)
(-0.000431982 -0.000264231 -0.000172608)
(-0.00040731 -0.000300876 -0.000172608)
(-0.000379536 -0.000335232 -0.000172608)
(-0.000348875 -0.000367034 -0.000172607)
(-0.000315558 -0.000396044 -0.000172608)
(-0.000279839 -0.000422039 -0.000172608)
(-0.000241991 -0.000444823 -0.000172608)
(-0.000202302 -0.000464222 -0.000172608)
(-0.000161072 -0.000480087 -0.000172606)
(-0.000118618 -0.000492299 -0.000172605)
(-7.52602e-05 -0.000500763 -0.000172606)
(-3.13302e-05 -0.000505417 -0.000172606)
(1.28388e-05 -0.000506224 -0.000172607)
(5.69104e-05 -0.000503178 -0.000172608)
(0.00010055 -0.000496304 -0.000172608)
(0.000143424 -0.000485652 -0.000172607)
(0.000185205 -0.000471304 -0.000172606)
(0.000225576 -0.000453369 -0.000172606)
(0.000264231 -0.000431982 -0.000172608)
(0.000300876 -0.00040731 -0.000172608)
(0.000335232 -0.000379536 -0.000172608)
(0.000367034 -0.000348875 -0.000172607)
(0.000396044 -0.000315558 -0.000172608)
(0.000422039 -0.000279839 -0.000172608)
(0.000444823 -0.000241991 -0.000172608)
(0.000464222 -0.000202302 -0.000172608)
(0.000480087 -0.000161072 -0.000172606)
(0.000492299 -0.000118618 -0.000172605)
(0.000500763 -7.52602e-05 -0.000172606)
(0.000505417 -3.13302e-05 -0.000172606)
(0.000506224 1.28388e-05 -0.000172607)
(0.000503178 5.69104e-05 -0.000172608)
(0.000496304 0.00010055 -0.000172608)
(0.000485652 0.000143424 -0.000172607)
(0.000471304 0.000185205 -0.000172606)
(0.000453369 0.000225576 -0.000172606)
(0.000431982 0.000264231 -0.000172608)
(0.00040731 0.000300876 -0.000172608)
(0.000379536 0.000335232 -0.000172608)
(0.000348875 0.000367034 -0.000172607)
(0.000315558 0.000396044 -0.000172608)
(0.000279839 0.000422039 -0.000172608)
(0.000241991 0.000444823 -0.000172608)
(0.000202302 0.000464222 -0.000172608)
(0.000161072 0.000480087 -0.000172606)
(0.000118618 0.000492299 -0.000172605)
(7.52602e-05 0.000500763 -0.000172606)
(3.13302e-05 0.000505417 -0.000172606)
(-1.28388e-05 0.000506224 -0.000172607)
(-5.69104e-05 0.000503178 -0.000172608)
(-0.00010055 0.000496304 -0.000172608)
(-0.000143424 0.000485652 -0.000172607)
(-0.000185205 0.000471304 -0.000172606)
(-0.000225576 0.000453369 -0.000172606)
(-0.000264231 0.000431982 -0.000172608)
(-0.000300876 0.00040731 -0.000172608)
(-0.000335232 0.000379536 -0.000172608)
(-0.000338607 0.000387853 -0.000108301)
(-0.000371122 0.000356866 -0.000108301)
(-0.000400813 0.000323161 -0.000108301)
(-0.000427453 0.000286998 -0.000108301)
(-0.000450841 0.000248652 -0.000108301)
(-0.000470796 0.000208413 -0.0001083)
(-0.000487169 0.000166587 -0.000108299)
(-0.000499834 0.000123494 -0.000108299)
(-0.000508695 7.94612e-05 -0.0001083)
(-0.000513685 3.48228e-05 -0.0001083)
(-0.000514765 -1.00806e-05 -0.000108301)
(-0.000511928 -5.49078e-05 -0.000108301)
(-0.000505194 -9.93164e-05 -0.0001083)
(-0.000494616 -0.000142969 -0.0001083)
(-0.000480273 -0.000185532 -0.0001083)
(-0.000462275 -0.000226685 -0.000108301)
(-0.000440759 -0.000266113 -0.000108301)
(-0.000415889 -0.000303515 -0.000108301)
(-0.000387853 -0.000338607 -0.000108301)
(-0.000356866 -0.000371122 -0.000108301)
(-0.000323161 -0.000400813 -0.000108301)
(-0.000286998 -0.000427453 -0.000108301)
(-0.000248652 -0.000450841 -0.000108301)
(-0.000208413 -0.000470796 -0.0001083)
(-0.000166587 -0.000487169 -0.0001083)
(-0.000123494 -0.000499834 -0.000108299)
(-7.94612e-05 -0.000508695 -0.0001083)
(-3.48228e-05 -0.000513685 -0.0001083)
(1.00806e-05 -0.000514765 -0.000108301)
(5.49078e-05 -0.000511928 -0.000108301)
(9.93164e-05 -0.000505194 -0.0001083)
(0.000142969 -0.000494616 -0.0001083)
(0.000185532 -0.000480273 -0.0001083)
(0.000226685 -0.000462275 -0.000108301)
(0.000266113 -0.000440759 -0.000108301)
(0.000303515 -0.000415889 -0.000108301)
(0.000338607 -0.000387853 -0.000108301)
(0.000371122 -0.000356866 -0.000108301)
(0.000400813 -0.000323161 -0.000108301)
(0.000427453 -0.000286998 -0.000108301)
(0.000450841 -0.000248652 -0.000108301)
(0.000470796 -0.000208413 -0.0001083)
(0.000487169 -0.000166587 -0.0001083)
(0.000499834 -0.000123494 -0.000108299)
(0.000508695 -7.94612e-05 -0.0001083)
(0.000513685 -3.48228e-05 -0.0001083)
(0.000514765 1.00806e-05 -0.000108301)
(0.000511928 5.49078e-05 -0.000108301)
(0.000505194 9.93164e-05 -0.0001083)
(0.000494616 0.000142969 -0.0001083)
(0.000480273 0.000185532 -0.0001083)
(0.000462275 0.000226685 -0.000108301)
(0.000440759 0.000266113 -0.000108301)
(0.000415889 0.000303515 -0.000108301)
(0.000387853 0.000338607 -0.000108301)
(0.000356866 0.000371122 -0.000108301)
(0.000323161 0.000400813 -0.000108301)
(0.000286998 0.000427453 -0.000108301)
(0.000248652 0.000450841 -0.000108301)
(0.000208413 0.000470796 -0.0001083)
(0.000166587 0.000487169 -0.0001083)
(0.000123494 0.000499834 -0.000108299)
(7.94612e-05 0.000508695 -0.0001083)
(3.48228e-05 0.000513685 -0.0001083)
(-1.00806e-05 0.000514765 -0.000108301)
(-5.49078e-05 0.000511928 -0.000108301)
(-9.93164e-05 0.000505194 -0.0001083)
(-0.000142969 0.000494616 -0.0001083)
(-0.000185532 0.000480273 -0.0001083)
(-0.000226685 0.000462275 -0.000108301)
(-0.000266113 0.000440759 -0.000108301)
(-0.000303515 0.000415889 -0.000108301)
(0 0 0)
(0 0 0)
(0 0 0)
(0 0 0)
(0 0 0)
(0 0 0)
(0 0 0)
(0 0 0)
(0 0 0)
(0 0 0)
(0 0 0)
(0 0 0)
(0 0 0)
(0 0 0)
(0 0 0)
(0 0 0)
(0 0 0)
(0 0 0)
(0 0 0)
(0 0 0)
(0 0 0)
(0 0 0)
(0 0 0)
(0 0 0)
(0 0 0)
(0 0 0)
(0 0 0)
(0 0 0)
(0 0 0)
(0 0 0)
(0 0 0)
(0 0 0)
(0 0 0)
(0 0 0)
(0 0 0)
(0 0 0)
(0 0 0)
(0 0 0)
(0 0 0)
(0 0 0)
(0 0 0)
(0 0 0)
(0 0 0)
(0 0 0)
(0 0 0)
(0 0 0)
(0 0 0)
(0 0 0)
(0 0 0)
(0 0 0)
(0 0 0)
(0 0 0)
(0 0 0)
(0 0 0)
(0 0 0)
(0 0 0)
(0 0 0)
(0 0 0)
(0 0 0)
(0 0 0)
(0 0 0)
(0 0 0)
(0 0 0)
(0 0 0)
(0 0 0)
(0 0 0)
(0 0 0)
(0 0 0)
(0 0 0)
(0 0 0)
(0 0 0)
(0 0 0)
(-0.000320946 0.00043315 -4.37553e-05)
(-0.000357476 0.00040353 -4.37547e-05)
(-0.000391286 0.000370838 -4.37552e-05)
(-0.000422118 0.000335323 -4.37551e-05)
(-0.000449737 0.000297258 -4.37549e-05)
(-0.000473934 0.00025693 -4.37545e-05)
(-0.000494523 0.000214646 -4.37547e-05)
(-0.000511348 0.000170729 -4.37548e-05)
(-0.000524283 0.000125513 -4.37544e-05)
(-0.000533227 7.93405e-05 -4.37547e-05)
(-0.000538113 3.25648e-05 -4.37548e-05)
(-0.000538904 -1.44588e-05 -4.37546e-05)
(-0.000535593 -6.13728e-05 -4.3755e-05)
(-0.000528205 -0.000107819 -4.37552e-05)
(-0.000516798 -0.000153444 -4.37552e-05)
(-0.000501458 -0.000197902 -4.37548e-05)
(-0.000482301 -0.000240855 -4.37553e-05)
(-0.000459474 -0.000281974 -4.37552e-05)
(-0.00043315 -0.000320946 -4.37553e-05)
(-0.00040353 -0.000357476 -4.37547e-05)
(-0.000370838 -0.000391286 -4.37552e-05)
(-0.000335323 -0.000422118 -4.37551e-05)
(-0.000297258 -0.000449737 -4.37549e-05)
(-0.00025693 -0.000473934 -4.37545e-05)
(-0.000214646 -0.000494523 -4.37547e-05)
(-0.000170729 -0.000511348 -4.37548e-05)
(-0.000125513 -0.000524283 -4.37544e-05)
(-7.93405e-05 -0.000533227 -4.37547e-05)
(-3.25648e-05 -0.000538113 -4.37548e-05)
(1.44588e-05 -0.000538904 -4.37546e-05)
(6.13728e-05 -0.000535593 -4.3755e-05)
(0.000107819 -0.000528206 -4.37552e-05)
(0.000153444 -0.000516798 -4.37552e-05)
(0.000197902 -0.000501458 -4.37548e-05)
(0.000240855 -0.000482301 -4.37553e-05)
(0.000281974 -0.000459474 -4.37552e-05)
(0.000320946 -0.00043315 -4.37553e-05)
(0.000357476 -0.00040353 -4.37547e-05)
(0.000391286 -0.000370838 -4.37552e-05)
(0.000422118 -0.000335323 -4.37551e-05)
(0.000449737 -0.000297258 -4.3755e-05)
(0.000473934 -0.00025693 -4.37545e-05)
(0.000494523 -0.000214646 -4.37547e-05)
(0.000511348 -0.000170729 -4.37548e-05)
(0.000524283 -0.000125513 -4.37544e-05)
(0.000533227 -7.93405e-05 -4.37547e-05)
(0.000538113 -3.25648e-05 -4.37548e-05)
(0.000538904 1.44588e-05 -4.37546e-05)
(0.000535593 6.13728e-05 -4.3755e-05)
(0.000528206 0.000107819 -4.37552e-05)
(0.000516798 0.000153444 -4.37552e-05)
(0.000501458 0.000197902 -4.37548e-05)
(0.000482301 0.000240855 -4.37553e-05)
(0.000459474 0.000281974 -4.37552e-05)
(0.00043315 0.000320946 -4.37553e-05)
(0.00040353 0.000357476 -4.37547e-05)
(0.000370838 0.000391286 -4.37552e-05)
(0.000335323 0.000422118 -4.37551e-05)
(0.000297258 0.000449737 -4.3755e-05)
(0.00025693 0.000473934 -4.37545e-05)
(0.000214646 0.000494523 -4.37547e-05)
(0.000170729 0.000511348 -4.37548e-05)
(0.000125513 0.000524283 -4.37544e-05)
(7.93405e-05 0.000533227 -4.37547e-05)
(3.25648e-05 0.000538113 -4.37548e-05)
(-1.44588e-05 0.000538904 -4.37546e-05)
(-6.13728e-05 0.000535593 -4.3755e-05)
(-0.000107819 0.000528206 -4.37552e-05)
(-0.000153444 0.000516798 -4.37552e-05)
(-0.000197902 0.000501458 -4.37548e-05)
(-0.000240855 0.000482301 -4.37553e-05)
(-0.000281974 0.000459474 -4.37552e-05)
(0 0 0)
(0 0 0)
(0 0 0)
(0 0 0)
(0 0 0)
(0 0 0)
(0 0 0)
(0 0 0)
(0 0 0)
(0 0 0)
(0 0 0)
(0 0 0)
(0 0 0)
(0 0 0)
(0 0 0)
(0 0 0)
(0 0 0)
(0 0 0)
(0 0 0)
(0 0 0)
(0 0 0)
(0 0 0)
(0 0 0)
(0 0 0)
(0 0 0)
(0 0 0)
(0 0 0)
(0 0 0)
(0 0 0)
(0 0 0)
(0 0 0)
(0 0 0)
(0 0 0)
(0 0 0)
(0 0 0)
(0 0 0)
(0 0 0)
(0 0 0)
(0 0 0)
(0 0 0)
(0 0 0)
(0 0 0)
(0 0 0)
(0 0 0)
(0 0 0)
(0 0 0)
(0 0 0)
(0 0 0)
(0 0 0)
(0 0 0)
(0 0 0)
(0 0 0)
(0 0 0)
(0 0 0)
(0 0 0)
(0 0 0)
(0 0 0)
(0 0 0)
(0 0 0)
(0 0 0)
(0 0 0)
(0 0 0)
(0 0 0)
(0 0 0)
(0 0 0)
(0 0 0)
(0 0 0)
(0 0 0)
(0 0 0)
(0 0 0)
(0 0 0)
(0 0 0)
(-0.000314739 0.000483418 1.7226e-05)
(-0.000355674 0.000454147 1.72263e-05)
(-0.000393902 0.00042142 1.72263e-05)
(-0.000429132 0.000385486 1.72263e-05)
(-0.000461097 0.000346617 1.72259e-05)
(-0.000489551 0.000305111 1.7226e-05)
(-0.000514281 0.000261283 1.72254e-05)
(-0.000535096 0.000215467 1.72258e-05)
(-0.000551839 0.00016801 1.72265e-05)
(-0.000564382 0.000119275 1.72265e-05)
(-0.00057263 6.96309e-05 1.7226e-05)
(-0.00057652 1.94576e-05 1.72263e-05)
(-0.000576022 -3.08633e-05 1.72257e-05)
(-0.00057114 -8.09494e-05 1.72255e-05)
(-0.000561912 -0.000130419 1.72254e-05)
(-0.000548407 -0.000178896 1.72258e-05)
(-0.000530728 -0.000226012 1.72262e-05)
(-0.00050901 -0.000271409 1.72257e-05)
(-0.000483418 -0.000314739 1.7226e-05)
(-0.000454148 -0.000355674 1.72263e-05)
(-0.00042142 -0.000393902 1.72263e-05)
(-0.000385486 -0.000429132 1.72262e-05)
(-0.000346617 -0.000461097 1.72259e-05)
(-0.000305111 -0.000489551 1.7226e-05)
(-0.000261283 -0.000514281 1.72254e-05)
(-0.000215467 -0.000535096 1.72258e-05)
(-0.00016801 -0.000551839 1.72265e-05)
(-0.000119275 -0.000564382 1.72265e-05)
(-6.96309e-05 -0.00057263 1.7226e-05)
(-1.94576e-05 -0.00057652 1.72263e-05)
(3.08633e-05 -0.000576022 1.72257e-05)
(8.09494e-05 -0.00057114 1.72255e-05)
(0.000130419 -0.000561912 1.72254e-05)
(0.000178896 -0.000548407 1.72258e-05)
(0.000226012 -0.000530728 1.72262e-05)
(0.000271409 -0.00050901 1.72257e-05)
(0.000314739 -0.000483418 1.7226e-05)
(0.000355674 -0.000454147 1.72263e-05)
(0.000393902 -0.00042142 1.72263e-05)
(0.000429132 -0.000385486 1.72262e-05)
(0.000461097 -0.000346617 1.72259e-05)
(0.000489551 -0.000305111 1.7226e-05)
(0.000514281 -0.000261283 1.72254e-05)
(0.000535096 -0.000215467 1.72258e-05)
(0.000551839 -0.00016801 1.72265e-05)
(0.000564382 -0.000119275 1.72265e-05)
(0.00057263 -6.96309e-05 1.7226e-05)
(0.00057652 -1.94576e-05 1.72262e-05)
(0.000576022 3.08633e-05 1.72257e-05)
(0.00057114 8.09494e-05 1.72255e-05)
(0.000561912 0.000130419 1.72254e-05)
(0.000548407 0.000178896 1.72258e-05)
(0.000530728 0.000226012 1.72262e-05)
(0.00050901 0.000271409 1.72257e-05)
(0.000483418 0.000314739 1.7226e-05)
(0.000454147 0.000355674 1.72263e-05)
(0.00042142 0.000393902 1.72263e-05)
(0.000385486 0.000429132 1.72262e-05)
(0.000346617 0.000461097 1.72259e-05)
(0.000305111 0.000489551 1.7226e-05)
(0.000261283 0.000514281 1.72254e-05)
(0.000215467 0.000535096 1.72258e-05)
(0.00016801 0.000551839 1.72264e-05)
(0.000119275 0.000564382 1.72265e-05)
(6.96309e-05 0.00057263 1.7226e-05)
(1.94576e-05 0.00057652 1.72262e-05)
(-3.08633e-05 0.000576022 1.72257e-05)
(-8.09494e-05 0.00057114 1.72255e-05)
(-0.000130419 0.000561912 1.72254e-05)
(-0.000178896 0.000548407 1.72258e-05)
(-0.000226012 0.000530728 1.72262e-05)
(-0.000271409 0.00050901 1.72257e-05)
(0 0 0)
(0 0 0)
(0 0 0)
(0 0 0)
(0 0 0)
(0 0 0)
(0 0 0)
(0 0 0)
(0 0 0)
(0 0 0)
(0 0 0)
(0 0 0)
(0 0 0)
(0 0 0)
(0 0 0)
(0 0 0)
(0 0 0)
(0 0 0)
(0 0 0)
(0 0 0)
(0 0 0)
(0 0 0)
(0 0 0)
(0 0 0)
(0 0 0)
(0 0 0)
(0 0 0)
(0 0 0)
(0 0 0)
(0 0 0)
(0 0 0)
(0 0 0)
(0 0 0)
(0 0 0)
(0 0 0)
(0 0 0)
(0 0 0)
(0 0 0)
(0 0 0)
(0 0 0)
(0 0 0)
(0 0 0)
(0 0 0)
(0 0 0)
(0 0 0)
(0 0 0)
(0 0 0)
(0 0 0)
(0 0 0)
(0 0 0)
(0 0 0)
(0 0 0)
(0 0 0)
(0 0 0)
(0 0 0)
(0 0 0)
(0 0 0)
(0 0 0)
(0 0 0)
(0 0 0)
(0 0 0)
(0 0 0)
(0 0 0)
(0 0 0)
(0 0 0)
(0 0 0)
(0 0 0)
(0 0 0)
(0 0 0)
(0 0 0)
(0 0 0)
(0 0 0)
(-0.000652532 0.00071027 -0.000336274)
(-0.000711953 0.000650695 -0.000336274)
(-0.000765955 0.000586168 -0.000336274)
(-0.000814129 0.000517179 -0.000336274)
(-0.000856107 0.000444256 -0.000336273)
(-0.000891569 0.000367951 -0.000336272)
(-0.000920245 0.000288846 -0.000336271)
(-0.000941918 0.000207543 -0.00033627)
(-0.000956422 0.00012466 -0.000336271)
(-0.000963647 4.08287e-05 -0.000336272)
(-0.000963537 -4.33138e-05 -0.000336273)
(-0.000956096 -0.000127127 -0.000336273)
(-0.000941378 -0.000209974 -0.000336272)
(-0.000919495 -0.000291221 -0.000336273)
(-0.000890615 -0.000370252 -0.000336272)
(-0.000854955 -0.000446465 -0.000336273)
(-0.00081279 -0.000519281 -0.000336274)
(-0.000764439 -0.000588145 -0.000336274)
(-0.00071027 -0.000652532 -0.000336274)
(-0.000650695 -0.000711953 -0.000336274)
(-0.000586168 -0.000765955 -0.000336274)
(-0.000517179 -0.000814129 -0.000336274)
(-0.000444256 -0.000856107 -0.000336273)
(-0.000367951 -0.000891569 -0.000336272)
(-0.000288846 -0.000920245 -0.000336271)
(-0.000207543 -0.000941918 -0.00033627)
(-0.00012466 -0.000956422 -0.000336271)
(-4.08287e-05 -0.000963647 -0.000336272)
(4.33138e-05 -0.000963537 -0.000336273)
(0.000127127 -0.000956096 -0.000336273)
(0.000209974 -0.000941378 -0.000336272)
(0.000291221 -0.000919495 -0.000336272)
(0.000370252 -0.000890615 -0.000336272)
(0.000446465 -0.000854955 -0.000336273)
(0.000519281 -0.00081279 -0.000336274)
(0.000588145 -0.000764439 -0.000336274)
(0.000652532 -0.00071027 -0.000336274)
(0.000711953 -0.000650695 -0.000336274)
(0.000765955 -0.000586168 -0.000336274)
(0.000814129 -0.000517179 -0.000336274)
(0.000856107 -0.000444256 -0.000336273)
(0.000891569 -0.000367951 -0.000336272)
(0.000920245 -0.000288846 -0.000336271)
(0.000941918 -0.000207543 -0.000336271)
(0.000956422 -0.00012466 -0.000336271)
(0.000963647 -4.08287e-05 -0.000336272)
(0.000963537 4.33138e-05 -0.000336273)
(0.000956096 0.000127127 -0.000336273)
(0.000941378 0.000209974 -0.000336272)
(0.000919495 0.000291221 -0.000336272)
(0.000890615 0.000370252 -0.000336272)
(0.000854955 0.000446465 -0.000336273)
(0.00081279 0.000519281 -0.000336274)
(0.000764439 0.000588145 -0.000336274)
(0.00071027 0.000652532 -0.000336274)
(0.000650695 0.000711953 -0.000336274)
(0.000586168 0.000765955 -0.000336274)
(0.000517179 0.000814129 -0.000336274)
(0.000444256 0.000856107 -0.000336273)
(0.000367951 0.000891569 -0.000336272)
(0.000288846 0.000920245 -0.000336271)
(0.000207543 0.000941918 -0.000336271)
(0.00012466 0.000956422 -0.000336271)
(4.08287e-05 0.000963647 -0.000336272)
(-4.33138e-05 0.000963537 -0.000336273)
(-0.000127127 0.000956096 -0.000336273)
(-0.000209974 0.000941378 -0.000336272)
(-0.000291221 0.000919495 -0.000336272)
(-0.000370252 0.000890615 -0.000336272)
(-0.000446465 0.000854955 -0.000336273)
(-0.000519281 0.00081279 -0.000336274)
(-0.000588145 0.000764439 -0.000336274)
(-0.000643724 0.000788076 -0.000230637)
(-0.000709959 0.000728973 -0.000230636)
(-0.000770792 0.000664321 -0.000230637)
(-0.000825759 0.000594615 -0.000230636)
(-0.000874441 0.000520383 -0.000230636)
(-0.000916467 0.00044219 -0.000230636)
(-0.00095152 0.000360633 -0.000230634)
(-0.00097933 0.00027633 -0.000230635)
(-0.000999687 0.000189925 -0.000230634)
(-0.00101244 0.000102074 -0.000230635)
(-0.00101748 1.34458e-05 -0.000230635)
(-0.00101478 -7.52854e-05 -0.000230636)
(-0.00100436 -0.000163444 -0.000230636)
(-0.000986289 -0.000250356 -0.000230635)
(-0.000960715 -0.000335364 -0.000230636)
(-0.000927831 -0.00041782 -0.000230636)
(-0.000887884 -0.000497096 -0.000230637)
(-0.000841182 -0.000572589 -0.000230636)
(-0.000788076 -0.000643724 -0.000230637)
(-0.000728973 -0.000709959 -0.000230636)
(-0.000664321 -0.000770792 -0.000230637)
(-0.000594615 -0.000825759 -0.000230636)
(-0.000520383 -0.000874441 -0.000230636)
(-0.00044219 -0.000916467 -0.000230636)
(-0.000360633 -0.00095152 -0.000230634)
(-0.00027633 -0.00097933 -0.000230635)
(-0.000189925 -0.000999687 -0.000230634)
(-0.000102074 -0.00101244 -0.000230635)
(-1.34458e-05 -0.00101748 -0.000230635)
(7.52854e-05 -0.00101478 -0.000230636)
(0.000163444 -0.00100436 -0.000230636)
(0.000250356 -0.000986289 -0.000230635)
(0.000335364 -0.000960715 -0.000230636)
(0.00041782 -0.000927831 -0.000230636)
(0.000497096 -0.000887884 -0.000230637)
(0.000572589 -0.000841182 -0.000230636)
(0.000643724 -0.000788076 -0.000230637)
(0.000709959 -0.000728973 -0.000230636)
(0.000770792 -0.000664321 -0.000230637)
(0.000825759 -0.000594615 -0.000230636)
(0.000874441 -0.000520383 -0.000230636)
(0.000916467 -0.00044219 -0.000230636)
(0.00095152 -0.000360633 -0.000230634)
(0.00097933 -0.00027633 -0.000230635)
(0.000999687 -0.000189925 -0.000230634)
(0.00101244 -0.000102074 -0.000230635)
(0.00101748 -1.34458e-05 -0.000230635)
(0.00101478 7.52854e-05 -0.000230636)
(0.00100436 0.000163444 -0.000230636)
(0.000986289 0.000250356 -0.000230635)
(0.000960715 0.000335364 -0.000230636)
(0.000927831 0.00041782 -0.000230636)
(0.000887884 0.000497096 -0.000230637)
(0.000841182 0.000572589 -0.000230636)
(0.000788076 0.000643724 -0.000230637)
(0.000728973 0.000709959 -0.000230636)
(0.000664321 0.000770792 -0.000230637)
(0.000594615 0.000825759 -0.000230636)
(0.000520383 0.000874441 -0.000230636)
(0.00044219 0.000916467 -0.000230636)
(0.000360633 0.00095152 -0.000230634)
(0.00027633 0.00097933 -0.000230635)
(0.000189925 0.000999687 -0.000230634)
(0.000102074 0.00101244 -0.000230635)
(1.34458e-05 0.00101748 -0.000230635)
(-7.52854e-05 0.00101478 -0.000230636)
(-0.000163444 0.00100436 -0.000230636)
(-0.000250356 0.000986289 -0.000230635)
(-0.000335364 0.000960715 -0.000230636)
(-0.00041782 0.000927831 -0.000230636)
(-0.000497096 0.000887884 -0.000230637)
(-0.000572589 0.000841182 -0.000230636)
(-0.000647575 0.000874137 -0.000125774)
(-0.000721296 0.000814371 -0.000125774)
(-0.000789528 0.000748408 -0.000125773)
(-0.000851752 0.000676748 -0.000125774)
(-0.000907494 0.000599937 -0.000125773)
(-0.000956328 0.000518562 -0.000125773)
(-0.000997885 0.000433239 -0.000125773)
(-0.00103185 0.00034462 -0.000125773)
(-0.00105796 0.000253376 -0.000125773)
(-0.00107601 0.000160205 -0.000125772)
(-0.00108588 6.58153e-05 -0.000125773)
(-0.00108749 -2.90776e-05 -0.000125773)
(-0.00108081 -0.000123747 -0.000125773)
(-0.00106591 -0.000217476 -0.000125773)
(-0.0010429 -0.000309548 -0.000125773)
(-0.00101196 -0.000399265 -0.000125774)
(-0.000973307 -0.000485944 -0.000125774)
(-0.000927251 -0.000568924 -0.000125774)
(-0.000874137 -0.000647575 -0.000125774)
(-0.000814371 -0.000721296 -0.000125774)
(-0.000748408 -0.000789528 -0.000125773)
(-0.000676748 -0.000851752 -0.000125774)
(-0.000599937 -0.000907494 -0.000125773)
(-0.000518562 -0.000956328 -0.000125773)
(-0.000433239 -0.000997885 -0.000125773)
(-0.00034462 -0.00103185 -0.000125773)
(-0.000253376 -0.00105796 -0.000125773)
(-0.000160205 -0.00107601 -0.000125772)
(-6.58153e-05 -0.00108588 -0.000125773)
(2.90776e-05 -0.00108749 -0.000125773)
(0.000123747 -0.00108081 -0.000125773)
(0.000217476 -0.00106591 -0.000125773)
(0.000309548 -0.0010429 -0.000125773)
(0.000399265 -0.00101196 -0.000125774)
(0.000485944 -0.000973307 -0.000125774)
(0.000568924 -0.000927251 -0.000125774)
(0.000647575 -0.000874137 -0.000125774)
(0.000721296 -0.000814371 -0.000125774)
(0.000789528 -0.000748408 -0.000125773)
(0.000851752 -0.000676748 -0.000125774)
(0.000907494 -0.000599937 -0.000125774)
(0.000956328 -0.000518562 -0.000125773)
(0.000997885 -0.000433239 -0.000125773)
(0.00103185 -0.00034462 -0.000125773)
(0.00105796 -0.000253376 -0.000125773)
(0.00107601 -0.000160205 -0.000125772)
(0.00108588 -6.58153e-05 -0.000125773)
(0.00108749 2.90777e-05 -0.000125773)
(0.00108081 0.000123747 -0.000125773)
(0.00106591 0.000217476 -0.000125773)
(0.0010429 0.000309548 -0.000125773)
(0.00101196 0.000399265 -0.000125774)
(0.000973307 0.000485944 -0.000125774)
(0.000927251 0.000568925 -0.000125774)
(0.000874137 0.000647575 -0.000125774)
(0.000814371 0.000721296 -0.000125774)
(0.000748408 0.000789528 -0.000125773)
(0.000676748 0.000851752 -0.000125774)
(0.000599937 0.000907494 -0.000125774)
(0.000518562 0.000956328 -0.000125773)
(0.000433239 0.000997885 -0.000125773)
(0.00034462 0.00103185 -0.000125773)
(0.000253376 0.00105796 -0.000125773)
(0.000160205 0.00107601 -0.000125772)
(6.58153e-05 0.00108588 -0.000125773)
(-2.90776e-05 0.00108749 -0.000125773)
(-0.000123747 0.00108081 -0.000125773)
(-0.000217476 0.00106591 -0.000125773)
(-0.000309548 0.0010429 -0.000125773)
(-0.000399265 0.00101196 -0.000125774)
(-0.000485944 0.000973307 -0.000125774)
(-0.000568924 0.000927251 -0.000125774)
(-0.000663814 0.000964069 -2.72252e-05)
(-0.000745312 0.000902545 -2.72245e-05)
(-0.000821138 0.000834152 -2.72244e-05)
(-0.000890714 0.000759411 -2.72245e-05)
(-0.000953511 0.000678891 -2.72253e-05)
(-0.00100905 0.000593204 -2.72256e-05)
(-0.00105691 0.000503002 -2.72258e-05)
(-0.00109673 0.000408972 -2.72261e-05)
(-0.0011282 0.000311829 -2.72253e-05)
(-0.00115109 0.000212313 -2.72251e-05)
(-0.00116521 0.000111181 -2.7225e-05)
(-0.00117047 9.2029e-06 -2.72254e-05)
(-0.00116681 -9.2845e-05 -2.72258e-05)
(-0.00115428 -0.000194185 -2.72254e-05)
(-0.00113297 -0.000294048 -2.72253e-05)
(-0.00110303 -0.000391674 -2.72252e-05)
(-0.00106469 -0.00048632 -2.72253e-05)
(-0.00101826 -0.000577264 -2.72256e-05)
(-0.000964069 -0.000663814 -2.72252e-05)
(-0.000902545 -0.000745312 -2.72245e-05)
(-0.000834152 -0.000821138 -2.72244e-05)
(-0.000759411 -0.000890714 -2.72245e-05)
(-0.000678891 -0.000953511 -2.72253e-05)
(-0.000593204 -0.00100905 -2.72257e-05)
(-0.000503002 -0.00105691 -2.72258e-05)
(-0.000408972 -0.00109673 -2.72261e-05)
(-0.000311829 -0.0011282 -2.72253e-05)
(-0.000212313 -0.00115109 -2.72251e-05)
(-0.000111181 -0.00116521 -2.7225e-05)
(-9.20289e-06 -0.00117047 -2.72255e-05)
(9.2845e-05 -0.00116681 -2.72258e-05)
(0.000194185 -0.00115428 -2.72254e-05)
(0.000294048 -0.00113297 -2.72253e-05)
(0.000391674 -0.00110303 -2.72252e-05)
(0.00048632 -0.00106469 -2.72253e-05)
(0.000577264 -0.00101826 -2.72256e-05)
(0.000663814 -0.000964069 -2.72252e-05)
(0.000745312 -0.000902545 -2.72245e-05)
(0.000821138 -0.000834152 -2.72244e-05)
(0.000890714 -0.000759411 -2.72245e-05)
(0.000953511 -0.000678891 -2.72253e-05)
(0.00100905 -0.000593204 -2.72257e-05)
(0.00105691 -0.000503002 -2.72258e-05)
(0.00109673 -0.000408972 -2.72261e-05)
(0.0011282 -0.000311829 -2.72253e-05)
(0.00115109 -0.000212313 -2.72251e-05)
(0.00116521 -0.000111181 -2.7225e-05)
(0.00117047 -9.20288e-06 -2.72255e-05)
(0.00116681 9.28451e-05 -2.72258e-05)
(0.00115428 0.000194185 -2.72254e-05)
(0.00113297 0.000294048 -2.72254e-05)
(0.00110303 0.000391675 -2.72252e-05)
(0.00106469 0.00048632 -2.72253e-05)
(0.00101825 0.000577264 -2.72256e-05)
(0.000964069 0.000663814 -2.72252e-05)
(0.000902545 0.000745312 -2.72245e-05)
(0.000834152 0.000821138 -2.72244e-05)
(0.000759411 0.000890714 -2.72245e-05)
(0.000678891 0.000953511 -2.72253e-05)
(0.000593204 0.00100905 -2.72257e-05)
(0.000503002 0.00105691 -2.72258e-05)
(0.000408972 0.00109673 -2.72261e-05)
(0.000311829 0.0011282 -2.72253e-05)
(0.000212313 0.00115109 -2.72251e-05)
(0.000111181 0.00116521 -2.7225e-05)
(9.20289e-06 0.00117047 -2.72255e-05)
(-9.28451e-05 0.00116681 -2.72258e-05)
(-0.000194185 0.00115428 -2.72254e-05)
(-0.000294048 0.00113297 -2.72254e-05)
(-0.000391674 0.00110303 -2.72252e-05)
(-0.00048632 0.00106469 -2.72253e-05)
(-0.000577264 0.00101826 -2.72256e-05)
(-0.000900714 0.00109703 -0.000510971)
(-0.000992899 0.00101436 -0.000510972)
(-0.00107753 0.000923961 -0.000510971)
(-0.00115396 0.000826532 -0.000510971)
(-0.0012216 0.000722813 -0.00051097)
(-0.00127995 0.000613593 -0.000510968)
(-0.00132856 0.000499704 -0.000510968)
(-0.00136705 0.000382011 -0.000510968)
(-0.00139515 0.00026141 -0.000510969)
(-0.00141262 0.00013882 -0.000510968)
(-0.00141934 1.51735e-05 -0.000510969)
(-0.00141527 -0.000108587 -0.000510968)
(-0.00140042 -0.000231523 -0.000510969)
(-0.00137491 -0.000352697 -0.000510969)
(-0.00133894 -0.000471186 -0.000510969)
(-0.00129277 -0.000586089 -0.00051097)
(-0.00123677 -0.000696531 -0.000510971)
(-0.00117136 -0.000801674 -0.000510971)
(-0.00109703 -0.000900714 -0.000510971)
(-0.00101436 -0.000992899 -0.000510972)
(-0.000923961 -0.00107753 -0.000510971)
(-0.000826532 -0.00115396 -0.000510971)
(-0.000722813 -0.0012216 -0.00051097)
(-0.000613593 -0.00127995 -0.000510968)
(-0.000499704 -0.00132856 -0.000510968)
(-0.000382011 -0.00136705 -0.000510968)
(-0.00026141 -0.00139515 -0.000510969)
(-0.00013882 -0.00141262 -0.000510968)
(-1.51735e-05 -0.00141934 -0.000510969)
(0.000108587 -0.00141527 -0.000510969)
(0.000231523 -0.00140042 -0.000510969)
(0.000352697 -0.00137491 -0.000510969)
(0.000471186 -0.00133894 -0.000510968)
(0.000586089 -0.00129277 -0.00051097)
(0.000696531 -0.00123677 -0.000510971)
(0.000801674 -0.00117136 -0.000510971)
(0.000900714 -0.00109703 -0.000510971)
(0.000992899 -0.00101436 -0.000510972)
(0.00107753 -0.000923961 -0.000510971)
(0.00115396 -0.000826532 -0.000510971)
(0.0012216 -0.000722813 -0.00051097)
(0.00127995 -0.000613593 -0.000510968)
(0.00132856 -0.000499704 -0.000510968)
(0.00136706 -0.000382011 -0.000510968)
(0.00139515 -0.00026141 -0.000510969)
(0.00141262 -0.00013882 -0.000510968)
(0.00141934 -1.51735e-05 -0.000510969)
(0.00141527 0.000108587 -0.000510969)
(0.00140042 0.000231523 -0.000510969)
(0.00137491 0.000352697 -0.000510969)
(0.00133894 0.000471186 -0.000510968)
(0.00129277 0.000586089 -0.00051097)
(0.00123677 0.000696531 -0.000510971)
(0.00117136 0.000801674 -0.000510971)
(0.00109703 0.000900714 -0.000510971)
(0.00101436 0.000992899 -0.000510972)
(0.000923961 0.00107753 -0.000510971)
(0.000826532 0.00115396 -0.000510971)
(0.000722813 0.0012216 -0.00051097)
(0.000613593 0.00127995 -0.000510968)
(0.000499704 0.00132856 -0.000510968)
(0.000382011 0.00136706 -0.000510968)
(0.00026141 0.00139515 -0.000510969)
(0.00013882 0.00141262 -0.000510968)
(1.51735e-05 0.00141934 -0.000510969)
(-0.000108587 0.00141527 -0.000510969)
(-0.000231523 0.00140042 -0.000510969)
(-0.000352697 0.00137491 -0.000510969)
(-0.000471186 0.00133894 -0.000510968)
(-0.000586089 0.00129277 -0.00051097)
(-0.000696531 0.00123677 -0.000510971)
(-0.000801674 0.00117136 -0.000510971)
(-0.000912967 0.00120628 -0.000379424)
(-0.00101463 0.00112212 -0.000379424)
(-0.00110856 0.00102942 -0.000379424)
(-0.00119407 0.000928887 -0.000379424)
(-0.00127048 0.000821282 -0.000379423)
(-0.00133723 0.000707427 -0.000379423)
(-0.00139379 0.00058819 -0.000379422)
(-0.00143975 0.000464474 -0.000379422)
(-0.00147476 0.000337224 -0.000379421)
(-0.00149854 0.000207408 -0.000379423)
(-0.00151091 7.6012e-05 -0.000379422)
(-0.00151178 -5.59616e-05 -0.000379423)
(-0.00150116 -0.000187509 -0.000379422)
(-0.0014791 -0.00031763 -0.000379422)
(-0.00144579 -0.000445334 -0.000379423)
(-0.00140147 -0.000569648 -0.000379423)
(-0.00134649 -0.000689627 -0.000379423)
(-0.00128126 -0.000804358 -0.000379423)
(-0.00120628 -0.000912967 -0.000379424)
(-0.00112212 -0.00101463 -0.000379424)
(-0.00102942 -0.00110856 -0.000379424)
(-0.000928887 -0.00119407 -0.000379424)
(-0.000821282 -0.00127048 -0.000379423)
(-0.000707427 -0.00133723 -0.000379423)
(-0.00058819 -0.00139379 -0.000379422)
(-0.000464474 -0.00143975 -0.000379422)
(-0.000337224 -0.00147476 -0.000379421)
(-0.000207408 -0.00149854 -0.000379423)
(-7.6012e-05 -0.00151091 -0.000379422)
(5.59616e-05 -0.00151178 -0.000379423)
(0.000187509 -0.00150116 -0.000379422)
(0.00031763 -0.0014791 -0.000379422)
(0.000445334 -0.00144579 -0.000379422)