/*--------------------------------*- C++ -*----------------------------------*\
| =========                 |                                                 |
| \\      /  F ield         | OpenFOAM: The Open Source CFD Toolbox           |
|  \\    /   O peration     | Version:  2312                                  |
|   \\  /    A nd           | Website:  www.openfoam.com                      |
|    \\/     M anipulation  |                                                 |
\*---------------------------------------------------------------------------*/
FoamFile
{
    version     2.0;
    format      ascii;
    arch        "LSB;label=32;scalar=64";
    class       volSymmTensorField;
    location    "0.2";
    object      sigma;
}
// * * * * * * * * * * * * * * * * * * * * * * * * * * * * * * * * * * * * * //

dimensions      [1 -1 -2 0 0 0 0];

internalField   nonuniform List<symmTensor> 
3240
(
(1388.84 -546.545 50.3723 7709.05 4950.58 6973.05)
(1531.76 -1087.01 -381.306 7566.14 4936.13 6973.03)
(1766.34 -1594.4 -810.055 7331.52 4884.12 6973.06)
(2085.5 -2053.37 -1232.64 7012.44 4794.93 6973.05)
(2479.48 -2449.96 -1645.86 6618.44 4669.25 6973.03)
(2936.36 -2772.12 -2046.57 6161.55 4508.03 6973)
(3442.23 -3010.01 -2431.68 5655.65 4312.51 6973.06)
(3981.68 -3156.45 -2798.27 5116.16 4084.17 6973.02)
(4538.4 -3207 -3143.59 4559.39 3824.73 6973)
(5095.46 -3160.1 -3464.97 4002.36 3536.2 6973.02)
(5635.94 -3017.18 -3759.99 3461.95 3220.75 6973.06)
(6143.34 -2782.6 -4026.38 2954.57 2880.81 6973.08)
(6602.33 -2463.48 -4262.14 2495.58 2518.92 6973)
(6998.93 -2069.47 -4465.47 2098.98 2137.85 6973.02)
(7321.08 -1612.59 -4634.8 1776.86 1740.52 6973.05)
(7558.91 -1106.73 -4768.85 1538.92 1329.96 6973.03)
(7705.42 -567.245 -4866.62 1392.49 909.272 6973.04)
(7755.96 -10.4965 -4927.35 1341.95 481.645 6973.05)
(7709.05 546.545 -4950.58 1388.84 50.3723 6973.05)
(7566.14 1087.01 -4936.13 1531.76 -381.306 6973.03)
(7331.52 1594.4 -4884.12 1766.34 -810.055 6973.06)
(7012.44 2053.37 -4794.93 2085.5 -1232.64 6973.05)
(6618.44 2449.96 -4669.25 2479.48 -1645.86 6973.03)
(6161.55 2772.12 -4508.03 2936.36 -2046.57 6973)
(5655.65 3010.01 -4312.51 3442.23 -2431.68 6973.06)
(5116.16 3156.45 -4084.17 3981.68 -2798.27 6973.02)
(4559.39 3207 -3824.73 4538.4 -3143.59 6973)
(4002.36 3160.1 -3536.2 5095.46 -3464.97 6973.02)
(3461.95 3017.18 -3220.75 5635.94 -3759.99 6973.06)
(2954.57 2782.6 -2880.81 6143.34 -4026.38 6973.08)
(2495.58 2463.48 -2518.92 6602.33 -4262.14 6973)
(2098.98 2069.47 -2137.85 6998.93 -4465.47 6973.02)
(1776.86 1612.59 -1740.52 7321.08 -4634.8 6973.04)
(1538.92 1106.73 -1329.96 7558.91 -4768.85 6973.03)
(1392.49 567.245 -909.272 7705.42 -4866.62 6973.04)
(1341.95 10.4965 -481.645 7755.96 -4927.35 6973.05)
(1388.84 -546.545 -50.3723 7709.05 -4950.58 6973.05)
(1531.76 -1087.01 381.306 7566.14 -4936.13 6973.03)
(1766.34 -1594.4 810.055 7331.52 -4884.12 6973.06)
(2085.5 -2053.37 1232.64 7012.44 -4794.93 6973.05)
(2479.48 -2449.96 1645.86 6618.44 -4669.25 6973.03)
(2936.36 -2772.12 2046.57 6161.55 -4508.03 6973)
(3442.23 -3010.01 2431.68 5655.65 -4312.51 6973.06)
(3981.68 -3156.45 2798.27 5116.16 -4084.17 6973.02)
(4538.4 -3207 3143.59 4559.39 -3824.73 6973)
(5095.46 -3160.1 3464.97 4002.36 -3536.2 6973.02)
(5635.94 -3017.18 3759.99 3461.95 -3220.75 6973.06)
(6143.34 -2782.6 4026.38 2954.57 -2880.81 6973.08)
(6602.33 -2463.48 4262.14 2495.58 -2518.92 6973)
(6998.93 -2069.47 4465.47 2098.98 -2137.85 6973.02)
(7321.08 -1612.59 4634.8 1776.86 -1740.52 6973.05)
(7558.91 -1106.73 4768.85 1538.92 -1329.96 6973.03)
(7705.42 -567.245 4866.62 1392.49 -909.272 6973.04)
(7755.96 -10.4965 4927.35 1341.95 -481.645 6973.05)
(7709.05 546.545 4950.58 1388.84 -50.3723 6973.05)
(7566.14 1087.01 4936.13 1531.76 381.306 6973.03)
(7331.52 1594.4 4884.12 1766.34 810.055 6973.06)
(7012.44 2053.37 4794.93 2085.5 1232.64 6973.05)
(6618.44 2449.96 4669.25 2479.48 1645.86 6973.03)
(6161.55 2772.12 4508.03 2936.36 2046.57 6973)
(5655.65 3010.01 4312.51 3442.23 2431.68 6973.06)
(5116.16 3156.45 4084.17 3981.68 2798.27 6973.02)
(4559.39 3207 3824.73 4538.4 3143.59 6973)
(4002.36 3160.1 3536.2 5095.46 3464.97 6973.02)
(3461.95 3017.18 3220.75 5635.94 3759.99 6973.06)
(2954.57 2782.6 2880.81 6143.34 4026.38 6973.08)
(2495.58 2463.48 2518.92 6602.33 4262.14 6973)
(2098.98 2069.47 2137.85 6998.93 4465.47 6973.02)
(1776.86 1612.59 1740.52 7321.08 4634.8 6973.05)
(1538.92 1106.73 1329.96 7558.91 4768.85 6973.03)
(1392.49 567.245 909.272 7705.42 4866.62 6973.04)
(1341.95 10.4965 481.645 7755.96 4927.35 6973.05)
(-129.421 -910.141 309.508 11696.4 -0.933817 234.668)
(118.447 -1923.08 308.412 11448.5 26.0434 234.662)
(538.456 -2877.57 304.968 11028.6 52.8245 234.675)
(1117.83 -3744.65 299.211 10449.2 79.1825 234.675)
(1838.96 -4497.96 291.175 9728.04 104.949 234.654)
(2679.95 -5114.6 280.915 8887.03 129.935 234.643)
(3615.25 -5575.82 268.509 7951.75 153.942 234.655)
(4616.46 -5867.63 254.07 6950.59 176.758 234.679)
(5653.06 -5981.14 237.688 5913.93 198.239 234.657)
(6693.59 -5912.93 219.507 4873.38 218.204 234.647)
(7706.56 -5665.06 199.664 3860.46 236.497 234.667)
(8661.08 -5245.05 178.294 2905.92 252.997 234.659)
(9528.15 -4665.68 155.585 2038.84 267.563 234.652)
(10281.5 -3944.54 131.682 1285.54 280.102 234.659)
(10898.1 -3103.54 106.758 668.911 290.515 234.668)
(11359.3 -2168.25 81.0112 207.688 298.718 234.669)
(11651.1 -1167.1 54.6668 -84.1162 304.643 234.663)
(11764.6 -130.467 27.905 -197.64 308.249 234.661)
(11696.4 910.139 0.933774 -129.421 309.508 234.668)
(11448.5 1923.08 -26.0434 118.447 308.412 234.662)
(11028.6 2877.57 -52.8246 538.456 304.968 234.675)
(10449.2 3744.65 -79.1825 1117.83 299.211 234.674)
(9728.04 4497.96 -104.949 1838.96 291.175 234.654)
(8887.03 5114.6 -129.935 2679.95 280.915 234.643)
(7951.75 5575.82 -153.942 3615.25 268.509 234.655)
(6950.59 5867.63 -176.758 4616.46 254.07 234.679)
(5913.93 5981.14 -198.239 5653.06 237.688 234.657)
(4873.38 5912.93 -218.204 6693.59 219.507 234.647)
(3860.46 5665.06 -236.497 7706.56 199.664 234.667)
(2905.92 5245.05 -252.997 8661.08 178.294 234.659)
(2038.84 4665.68 -267.563 9528.15 155.585 234.652)
(1285.54 3944.54 -280.102 10281.5 131.682 234.659)
(668.911 3103.54 -290.515 10898.1 106.758 234.668)
(207.688 2168.25 -298.718 11359.3 81.0112 234.669)
(-84.1163 1167.1 -304.643 11651.1 54.6668 234.662)
(-197.64 130.467 -308.249 11764.6 27.905 234.661)
(-129.421 -910.139 -309.508 11696.4 0.933751 234.668)
(118.447 -1923.08 -308.412 11448.5 -26.0434 234.662)
(538.456 -2877.57 -304.968 11028.6 -52.8246 234.675)
(1117.83 -3744.65 -299.211 10449.2 -79.1825 234.674)
(1838.96 -4497.96 -291.175 9728.04 -104.949 234.654)
(2679.95 -5114.6 -280.915 8887.03 -129.935 234.644)
(3615.25 -5575.82 -268.509 7951.75 -153.942 234.656)
(4616.46 -5867.63 -254.07 6950.59 -176.758 234.679)
(5653.06 -5981.14 -237.688 5913.93 -198.239 234.658)
(6693.59 -5912.93 -219.507 4873.38 -218.204 234.647)
(7706.56 -5665.06 -199.664 3860.46 -236.497 234.667)
(8661.08 -5245.05 -178.294 2905.92 -252.997 234.659)
(9528.15 -4665.68 -155.585 2038.84 -267.563 234.652)
(10281.5 -3944.54 -131.682 1285.54 -280.102 234.659)
(10898.1 -3103.54 -106.758 668.911 -290.515 234.668)
(11359.3 -2168.25 -81.0112 207.688 -298.718 234.669)
(11651.1 -1167.1 -54.6668 -84.1163 -304.643 234.662)
(11764.6 -130.467 -27.905 -197.641 -308.249 234.661)
(11696.4 910.141 -0.933769 -129.421 -309.508 234.668)
(11448.5 1923.08 26.0434 118.447 -308.412 234.662)
(11028.6 2877.57 52.8246 538.456 -304.968 234.675)
(10449.2 3744.65 79.1825 1117.83 -299.211 234.674)
(9728.04 4497.96 104.949 1838.96 -291.175 234.654)
(8887.03 5114.6 129.935 2679.95 -280.915 234.644)
(7951.75 5575.82 153.942 3615.25 -268.509 234.656)
(6950.59 5867.63 176.758 4616.46 -254.07 234.679)
(5913.93 5981.14 198.239 5653.06 -237.688 234.658)
(4873.38 5912.93 218.204 6693.59 -219.507 234.647)
(3860.46 5665.06 236.497 7706.56 -199.664 234.667)
(2905.92 5245.05 252.997 8661.08 -178.294 234.659)
(2038.84 4665.69 267.563 9528.15 -155.586 234.652)
(1285.54 3944.54 280.102 10281.5 -131.682 234.659)
(668.911 3103.54 290.515 10898.1 -106.758 234.668)
(207.688 2168.25 298.718 11359.3 -81.0112 234.669)
(-84.1163 1167.1 304.643 11651.1 -54.6668 234.662)
(-197.641 130.467 308.249 11764.6 -27.905 234.661)
(-2412.06 -1046.17 930.664 6995.84 -7690.74 2881.68)
(-2158.94 -1847.11 1597.41 6742.69 -7580.37 2881.69)
(-1770.58 -2591.9 2251.99 6354.34 -7412.3 2881.69)
(-1258.77 -3257.97 2889.45 5842.55 -7187.82 2881.7)
(-639.091 -3825.06 3504.94 5222.82 -6908.64 2881.69)
(69.6481 -4275.9 4093.73 4514.06 -6576.86 2881.67)
(845.909 -4596.81 4651.35 3737.84 -6195.06 2881.7)
(1666.17 -4778.09 5173.61 2917.64 -5766.08 2881.71)
(2505.36 -4814.16 5656.46 2078.43 -5293.23 2881.68)
(3338.02 -4703.95 6096.24 1245.72 -4780.11 2881.66)
(4138.97 -4450.82 6489.66 444.802 -4230.6 2881.69)
(4883.79 -4062.44 6833.7 -300.052 -3648.88 2881.7)
(5549.84 -3550.66 7125.71 -966.089 -3039.41 2881.69)
(6116.93 -2930.97 7363.51 -1533.15 -2406.8 2881.72)
(6567.8 -2222.21 7545.25 -1984.01 -1755.84 2881.7)
(6888.71 -1445.94 7669.57 -2304.95 -1091.54 2881.69)
(7069.96 -625.756 7735.51 -2486.19 -418.954 2881.69)
(7106.03 213.442 7742.59 -2522.27 256.825 2881.67)
(6995.84 1046.17 7690.74 -2412.06 930.664 2881.68)
(6742.69 1847.11 7580.37 -2158.94 1597.41 2881.69)
(6354.33 2591.9 7412.3 -1770.58 2251.99 2881.69)
(5842.55 3257.97 7187.82 -1258.77 2889.45 2881.7)
(5222.82 3825.06 6908.64 -639.091 3504.94 2881.69)
(4514.06 4275.9 6576.86 69.6481 4093.73 2881.67)
(3737.84 4596.81 6195.06 845.909 4651.35 2881.71)
(2917.64 4778.09 5766.08 1666.17 5173.61 2881.71)
(2078.43 4814.16 5293.23 2505.36 5656.46 2881.68)
(1245.72 4703.95 4780.11 3338.02 6096.24 2881.66)
(444.802 4450.82 4230.6 4138.97 6489.66 2881.69)
(-300.052 4062.44 3648.88 4883.79 6833.7 2881.7)
(-966.089 3550.66 3039.41 5549.84 7125.71 2881.69)
(-1533.15 2930.97 2406.8 6116.93 7363.51 2881.72)
(-1984.01 2222.21 1755.84 6567.8 7545.25 2881.7)
(-2304.95 1445.94 1091.54 6888.71 7669.57 2881.69)
(-2486.19 625.756 418.954 7069.96 7735.51 2881.69)
(-2522.27 -213.442 -256.825 7106.03 7742.59 2881.67)
(-2412.06 -1046.17 -930.664 6995.84 7690.74 2881.68)
(-2158.94 -1847.11 -1597.41 6742.69 7580.37 2881.69)
(-1770.58 -2591.9 -2251.99 6354.33 7412.3 2881.69)
(-1258.77 -3257.97 -2889.45 5842.55 7187.82 2881.7)
(-639.091 -3825.06 -3504.94 5222.82 6908.64 2881.69)
(69.6481 -4275.9 -4093.73 4514.06 6576.86 2881.67)
(845.909 -4596.81 -4651.35 3737.84 6195.06 2881.71)
(1666.17 -4778.09 -5173.61 2917.64 5766.08 2881.71)
(2505.36 -4814.16 -5656.46 2078.43 5293.23 2881.68)
(3338.02 -4703.95 -6096.24 1245.72 4780.11 2881.66)
(4138.97 -4450.82 -6489.66 444.802 4230.6 2881.69)
(4883.79 -4062.44 -6833.7 -300.052 3648.88 2881.7)
(5549.84 -3550.66 -7125.71 -966.089 3039.41 2881.69)
(6116.93 -2930.97 -7363.51 -1533.15 2406.8 2881.72)
(6567.8 -2222.21 -7545.25 -1984.01 1755.84 2881.7)
(6888.71 -1445.94 -7669.57 -2304.95 1091.54 2881.69)
(7069.96 -625.756 -7735.51 -2486.19 418.954 2881.69)
(7106.03 213.442 -7742.59 -2522.27 -256.825 2881.67)
(6995.84 1046.17 -7690.74 -2412.06 -930.664 2881.68)
(6742.69 1847.11 -7580.37 -2158.94 -1597.41 2881.69)
(6354.33 2591.9 -7412.3 -1770.58 -2251.99 2881.69)
(5842.55 3257.97 -7187.82 -1258.77 -2889.45 2881.7)
(5222.82 3825.06 -6908.64 -639.091 -3504.94 2881.69)
(4514.06 4275.9 -6576.86 69.6481 -4093.73 2881.67)
(3737.84 4596.81 -6195.06 845.909 -4651.35 2881.71)
(2917.64 4778.09 -5766.08 1666.17 -5173.61 2881.71)
(2078.43 4814.16 -5293.23 2505.36 -5656.46 2881.68)
(1245.72 4703.95 -4780.11 3338.02 -6096.24 2881.66)
(444.802 4450.82 -4230.6 4138.97 -6489.66 2881.7)
(-300.052 4062.44 -3648.88 4883.79 -6833.7 2881.7)
(-966.089 3550.66 -3039.41 5549.84 -7125.71 2881.69)
(-1533.15 2930.97 -2406.8 6116.93 -7363.51 2881.72)
(-1984.01 2222.21 -1755.84 6567.8 -7545.25 2881.7)
(-2304.95 1445.94 -1091.54 6888.71 -7669.57 2881.69)
(-2486.19 625.756 -418.954 7069.96 -7735.51 2881.69)
(-2522.27 -213.442 256.825 7106.03 -7742.59 2881.67)
(398.253 -780.738 -202.529 5866.43 4921.92 6575.22)
(575.348 -1243.64 -630.735 5689.27 4885.53 6575.24)
(830.142 -1668.74 -1054.12 5434.46 4811.97 6575.26)
(1154.88 -2043.16 -1469.49 5109.74 4701.79 6575.22)
(1539.74 -2355.51 -1873.69 4724.93 4555.83 6575.22)
(1972.97 -2596.28 -2263.65 4291.69 4375.18 6575.22)
(2441.41 -2758.15 -2636.35 3823.22 4161.25 6575.23)
(2930.85 -2836.21 -2988.99 3333.78 3915.64 6575.24)
(3426.4 -2828.1 -3318.88 2838.2 3640.23 6575.24)
(3913.02 -2734.06 -3623.51 2351.57 3337.12 6575.24)
(4375.92 -2556.96 -3900.57 1888.67 3008.61 6575.21)
(4801.06 -2302.17 -4147.95 1463.58 2657.21 6575.23)
(5175.48 -1977.43 -4363.76 1089.16 2285.59 6575.22)
(5487.84 -1592.59 -4546.36 776.809 1896.54 6575.2)
(5728.62 -1159.35 -4694.36 536.058 1493.07 6575.24)
(5890.43 -690.902 -4806.62 374.161 1078.26 6575.24)
(5968.51 -201.493 -4882.3 296.093 655.268 6575.22)
(5960.46 294.097 -4920.84 304.21 227.226 6575.21)
(5866.43 780.738 -4921.92 398.253 -202.529 6575.22)
(5689.27 1243.64 -4885.53 575.348 -630.735 6575.24)
(5434.46 1668.74 -4811.97 830.142 -1054.12 6575.26)
(5109.74 2043.16 -4701.79 1154.88 -1469.49 6575.22)
(4724.94 2355.51 -4555.83 1539.74 -1873.69 6575.22)
(4291.69 2596.28 -4375.18 1972.97 -2263.65 6575.22)
(3823.22 2758.15 -4161.25 2441.41 -2636.35 6575.23)
(3333.78 2836.21 -3915.64 2930.85 -2988.99 6575.24)
(2838.2 2828.1 -3640.23 3426.4 -3318.88 6575.24)
(2351.57 2734.06 -3337.12 3913.02 -3623.51 6575.24)
(1888.67 2556.96 -3008.61 4375.92 -3900.57 6575.21)
(1463.58 2302.17 -2657.21 4801.06 -4147.95 6575.23)
(1089.16 1977.43 -2285.59 5175.48 -4363.76 6575.22)
(776.809 1592.59 -1896.54 5487.84 -4546.36 6575.2)
(536.058 1159.35 -1493.07 5728.62 -4694.36 6575.24)
(374.161 690.902 -1078.26 5890.43 -4806.62 6575.24)
(296.093 201.492 -655.268 5968.51 -4882.3 6575.22)
(304.21 -294.097 -227.226 5960.46 -4920.84 6575.21)
(398.253 -780.738 202.529 5866.43 -4921.92 6575.22)
(575.348 -1243.64 630.735 5689.27 -4885.53 6575.24)
(830.142 -1668.74 1054.12 5434.46 -4811.97 6575.26)
(1154.88 -2043.16 1469.49 5109.74 -4701.79 6575.22)
(1539.74 -2355.51 1873.69 4724.94 -4555.83 6575.22)
(1972.97 -2596.28 2263.65 4291.69 -4375.18 6575.22)
(2441.41 -2758.15 2636.35 3823.22 -4161.25 6575.23)
(2930.85 -2836.21 2988.99 3333.78 -3915.64 6575.24)
(3426.4 -2828.1 3318.88 2838.2 -3640.23 6575.24)
(3913.02 -2734.06 3623.51 2351.57 -3337.12 6575.24)
(4375.92 -2556.96 3900.57 1888.67 -3008.61 6575.21)
(4801.06 -2302.17 4147.95 1463.58 -2657.21 6575.23)
(5175.48 -1977.43 4363.76 1089.16 -2285.59 6575.22)
(5487.84 -1592.59 4546.36 776.809 -1896.54 6575.2)
(5728.62 -1159.35 4694.36 536.058 -1493.07 6575.24)
(5890.43 -690.902 4806.62 374.161 -1078.26 6575.24)
(5968.51 -201.492 4882.3 296.093 -655.268 6575.22)
(5960.46 294.097 4920.84 304.21 -227.226 6575.21)
(5866.43 780.738 4921.92 398.253 202.529 6575.22)
(5689.27 1243.64 4885.53 575.348 630.735 6575.24)
(5434.46 1668.74 4811.97 830.142 1054.12 6575.26)
(5109.74 2043.16 4701.79 1154.88 1469.49 6575.22)
(4724.94 2355.51 4555.83 1539.74 1873.69 6575.22)
(4291.69 2596.28 4375.18 1972.97 2263.65 6575.22)
(3823.22 2758.15 4161.25 2441.41 2636.35 6575.23)
(3333.78 2836.21 3915.64 2930.85 2988.99 6575.24)
(2838.2 2828.1 3640.23 3426.4 3318.88 6575.24)
(2351.57 2734.06 3337.12 3913.02 3623.51 6575.24)
(1888.67 2556.96 3008.61 4375.92 3900.57 6575.21)
(1463.58 2302.17 2657.21 4801.06 4147.95 6575.23)
(1089.16 1977.43 2285.59 5175.48 4363.76 6575.22)
(776.809 1592.59 1896.54 5487.84 4546.36 6575.2)
(536.058 1159.35 1493.07 5728.62 4694.36 6575.24)
(374.161 690.902 1078.26 5890.43 4806.62 6575.24)
(296.093 201.492 655.268 5968.51 4882.3 6575.22)
(304.21 -294.097 227.226 5960.46 4920.84 6575.21)
(-897.284 -1262.6 234.448 10204.6 314.51 -620.189)
(-593.698 -2207.34 206.143 9901.06 333.745 -620.187)
(-130.705 -3084.98 176.267 9438.03 350.465 -620.195)
(477.675 -3868.89 145.061 8829.68 364.474 -620.188)
(1212.96 -4535.29 112.75 8094.41 375.708 -620.193)
(2052.79 -5063.88 79.5677 7254.56 384.115 -620.202)
(2971.65 -5438.58 45.7891 6335.72 389.588 -620.192)
(3941.59 -5648.03 11.6559 5365.79 392.105 -620.185)
(4933.18 -5685.88 -22.5625 4374.2 391.629 -620.183)
(5916.27 -5550.96 -56.6098 3391.08 388.172 -620.196)
(6861.01 -5247.39 -90.2253 2446.37 381.76 -620.181)
(7738.65 -4784.38 -123.144 1568.72 372.439 -620.187)
(8522.57 -4175.99 -155.138 784.764 360.289 -620.204)
(9188.98 -3440.71 -185.938 118.387 345.392 -620.197)
(9717.55 -2600.87 -215.356 -410.206 327.876 -620.198)
(10092.2 -1682.04 -243.133 -784.893 307.866 -620.186)
(10301.7 -712.118 -269.019 -994.351 285.503 -620.194)
(10339.6 279.48 -292.88 -1032.21 260.969 -620.196)
(10204.6 1262.6 -314.51 -897.285 234.447 -620.189)
(9901.06 2207.34 -333.745 -593.698 206.143 -620.187)
(9438.03 3084.98 -350.465 -130.705 176.267 -620.195)
(8829.68 3868.89 -364.474 477.675 145.061 -620.188)
(8094.41 4535.29 -375.708 1212.96 112.75 -620.193)
(7254.56 5063.88 -384.115 2052.79 79.5677 -620.202)
(6335.72 5438.58 -389.588 2971.65 45.7891 -620.192)
(5365.79 5648.03 -392.105 3941.59 11.6559 -620.184)
(4374.2 5685.88 -391.629 4933.18 -22.5625 -620.183)
(3391.08 5550.96 -388.172 5916.27 -56.6098 -620.196)
(2446.37 5247.39 -381.76 6861.01 -90.2253 -620.181)
(1568.72 4784.38 -372.439 7738.65 -123.144 -620.187)
(784.764 4175.99 -360.29 8522.57 -155.138 -620.204)
(118.387 3440.71 -345.392 9188.98 -185.938 -620.197)
(-410.206 2600.87 -327.876 9717.55 -215.356 -620.198)
(-784.893 1682.04 -307.866 10092.2 -243.133 -620.186)
(-994.351 712.118 -285.503 10301.7 -269.019 -620.194)
(-1032.21 -279.481 -260.969 10339.6 -292.88 -620.196)
(-897.285 -1262.6 -234.447 10204.6 -314.51 -620.189)
(-593.698 -2207.34 -206.143 9901.06 -333.745 -620.187)
(-130.705 -3084.98 -176.267 9438.03 -350.465 -620.195)
(477.675 -3868.89 -145.061 8829.68 -364.474 -620.188)
(1212.96 -4535.29 -112.75 8094.41 -375.708 -620.193)
(2052.79 -5063.88 -79.5677 7254.56 -384.115 -620.202)
(2971.65 -5438.58 -45.7891 6335.72 -389.588 -620.192)
(3941.59 -5648.03 -11.656 5365.79 -392.105 -620.184)
(4933.18 -5685.88 22.5625 4374.2 -391.629 -620.183)
(5916.27 -5550.96 56.6098 3391.08 -388.172 -620.196)
(6861.01 -5247.39 90.2253 2446.37 -381.76 -620.181)
(7738.65 -4784.38 123.144 1568.72 -372.439 -620.187)
(8522.57 -4175.99 155.138 784.765 -360.29 -620.204)
(9188.98 -3440.71 185.938 118.387 -345.392 -620.197)
(9717.55 -2600.87 215.356 -410.206 -327.876 -620.198)
(10092.2 -1682.04 243.133 -784.893 -307.866 -620.186)
(10301.7 -712.118 269.019 -994.351 -285.503 -620.194)
(10339.6 279.48 292.88 -1032.21 -260.969 -620.196)
(10204.6 1262.6 314.51 -897.285 -234.447 -620.189)
(9901.06 2207.34 333.745 -593.698 -206.143 -620.187)
(9438.03 3084.98 350.465 -130.705 -176.267 -620.195)
(8829.68 3868.89 364.474 477.675 -145.061 -620.188)
(8094.41 4535.29 375.708 1212.96 -112.75 -620.193)
(7254.56 5063.88 384.115 2052.79 -79.5677 -620.202)
(6335.72 5438.58 389.588 2971.65 -45.7891 -620.192)
(5365.79 5648.03 392.105 3941.59 -11.656 -620.184)
(4374.2 5685.88 391.629 4933.18 22.5624 -620.183)
(3391.08 5550.96 388.172 5916.27 56.6098 -620.196)
(2446.37 5247.39 381.76 6861.01 90.2253 -620.181)
(1568.72 4784.38 372.439 7738.65 123.144 -620.187)
(784.765 4175.99 360.29 8522.57 155.138 -620.204)
(118.387 3440.71 345.392 9188.98 185.938 -620.196)
(-410.206 2600.87 327.876 9717.55 215.356 -620.198)
(-784.893 1682.04 307.866 10092.2 243.133 -620.186)
(-994.352 712.118 285.503 10301.7 269.019 -620.194)
(-1032.21 -279.481 260.969 10339.6 292.88 -620.196)
(-3370.74 -1324.3 969.362 5410.62 -7536 1590.38)
(-3074.07 -2066.61 1622.48 5113.95 -7422.83 1590.39)
(-2653.02 -2746.11 2263.23 4692.88 -7253.18 1590.4)
(-2120.38 -3342.19 2886.76 4160.24 -7028.32 1590.37)
(-1492.31 -3836.72 3488.34 3532.16 -6749.99 1590.37)
(-787.9 -4214.69 4063.38 2827.73 -6420.27 1590.38)
(-28.5524 -4464.57 4607.48 2068.42 -6041.7 1590.4)
(762.665 -4578.81 5116.54 1277.2 -5617.14 1590.43)
(1561.67 -4553.94 5586.62 478.196 -5149.82 1590.38)
(2344.19 -4390.68 6014.17 -304.311 -4643.33 1590.38)
(3086.54 -4094.01 6396 -1046.62 -4101.5 1590.45)
(3766.08 -3672.95 6729.13 -1726.17 -3528.43 1590.42)
(4362.14 -3140.3 7011.05 -2322.26 -2928.52 1590.41)
(4856.69 -2512.21 7239.61 -2816.81 -2306.31 1590.39)
(5234.65 -1807.8 7413.06 -3194.76 -1666.56 1590.37)
(5484.51 -1048.47 7530.1 -3444.65 -1014.13 1590.39)
(5598.74 -257.298 7589.83 -3558.88 -354.001 1590.38)
(5573.86 541.709 7591.8 -3534 308.841 1590.38)
(5410.62 1324.3 7536 -3370.74 969.362 1590.38)
(5113.95 2066.61 7422.83 -3074.07 1622.48 1590.39)
(4692.88 2746.11 7253.18 -2653.02 2263.23 1590.4)
(4160.24 3342.19 7028.32 -2120.38 2886.76 1590.37)
(3532.16 3836.72 6749.99 -1492.31 3488.34 1590.37)
(2827.73 4214.69 6420.27 -787.9 4063.38 1590.38)
(2068.42 4464.57 6041.7 -28.5524 4607.48 1590.4)
(1277.2 4578.81 5617.14 762.665 5116.54 1590.43)
(478.197 4553.94 5149.82 1561.67 5586.62 1590.38)
(-304.311 4390.68 4643.33 2344.19 6014.17 1590.38)
(-1046.62 4094.01 4101.5 3086.54 6396 1590.45)
(-1726.17 3672.95 3528.43 3766.08 6729.13 1590.42)
(-2322.26 3140.3 2928.52 4362.14 7011.05 1590.41)
(-2816.81 2512.21 2306.31 4856.69 7239.61 1590.39)
(-3194.76 1807.8 1666.56 5234.65 7413.06 1590.37)
(-3444.65 1048.47 1014.13 5484.51 7530.1 1590.39)
(-3558.88 257.298 354.001 5598.74 7589.83 1590.38)
(-3534 -541.709 -308.841 5573.86 7591.8 1590.38)
(-3370.74 -1324.3 -969.362 5410.62 7536 1590.38)
(-3074.07 -2066.61 -1622.48 5113.95 7422.83 1590.39)
(-2653.02 -2746.11 -2263.23 4692.88 7253.18 1590.4)
(-2120.38 -3342.19 -2886.76 4160.24 7028.32 1590.37)
(-1492.31 -3836.72 -3488.34 3532.16 6749.99 1590.37)
(-787.9 -4214.69 -4063.38 2827.73 6420.27 1590.38)
(-28.5524 -4464.57 -4607.48 2068.42 6041.7 1590.4)
(762.665 -4578.81 -5116.54 1277.2 5617.14 1590.43)
(1561.67 -4553.94 -5586.62 478.197 5149.82 1590.38)
(2344.19 -4390.68 -6014.17 -304.311 4643.33 1590.38)
(3086.54 -4094.01 -6396 -1046.62 4101.5 1590.45)
(3766.08 -3672.95 -6729.13 -1726.17 3528.43 1590.42)
(4362.14 -3140.3 -7011.05 -2322.26 2928.52 1590.41)
(4856.69 -2512.21 -7239.61 -2816.81 2306.31 1590.39)
(5234.65 -1807.8 -7413.06 -3194.76 1666.56 1590.37)
(5484.51 -1048.47 -7530.1 -3444.65 1014.13 1590.39)
(5598.74 -257.298 -7589.83 -3558.88 354.001 1590.38)
(5573.86 541.709 -7591.8 -3534 -308.841 1590.38)
(5410.62 1324.3 -7536 -3370.74 -969.362 1590.38)
(5113.95 2066.61 -7422.83 -3074.07 -1622.48 1590.39)
(4692.88 2746.11 -7253.18 -2653.02 -2263.23 1590.4)
(4160.24 3342.19 -7028.32 -2120.38 -2886.76 1590.37)
(3532.16 3836.72 -6749.99 -1492.31 -3488.34 1590.37)
(2827.73 4214.69 -6420.27 -787.9 -4063.38 1590.38)
(2068.42 4464.57 -6041.7 -28.5524 -4607.48 1590.4)
(1277.2 4578.81 -5617.14 762.665 -5116.54 1590.43)
(478.197 4553.94 -5149.82 1561.67 -5586.62 1590.38)
(-304.311 4390.68 -4643.33 2344.19 -6014.17 1590.38)
(-1046.62 4094.01 -4101.5 3086.54 -6396 1590.45)
(-1726.17 3672.95 -3528.43 3766.08 -6729.14 1590.42)
(-2322.26 3140.3 -2928.52 4362.14 -7011.05 1590.41)
(-2816.81 2512.21 -2306.31 4856.69 -7239.61 1590.39)
(-3194.76 1807.8 -1666.56 5234.65 -7413.06 1590.37)
(-3444.65 1048.47 -1014.13 5484.51 -7530.1 1590.39)
(-3558.88 257.298 -354.001 5598.74 -7589.83 1590.38)
(-3534 -541.708 308.84 5573.86 -7591.8 1590.38)
(303.248 -907.414 -281.755 5504.3 4845.88 6512.76)
(500.317 -1345.19 -703.021 5307.18 4802.89 6512.79)
(770.419 -1742.1 -1118.93 5037.1 4723.34 6512.78)
(1105.33 -2086.1 -1526.35 4702.17 4607.84 6512.74)
(1494.9 -2366.69 -1922.13 4312.62 4457.29 6512.75)
(1927.32 -2575.39 -2303.32 3880.24 4272.79 6512.78)
(2389.33 -2705.81 -2666.94 3418.17 4055.79 6512.79)
(2867 -2754.03 -3010.26 2940.54 3807.93 6512.78)
(3345.79 -2718.59 -3330.69 2461.73 3531.07 6512.73)
(3811.2 -2600.53 -3625.79 1996.37 3227.33 6512.75)
(4248.97 -2403.43 -3893.28 1558.54 2899.03 6512.76)
(4645.85 -2133.33 -4131.11 1161.66 2548.71 6512.79)
(4989.85 -1798.42 -4337.52 817.673 2178.96 6512.75)
(5270.43 -1408.85 -4510.93 537.057 1792.62 6512.74)
(5479.15 -976.469 -4650 328.377 1392.64 6512.75)
(5609.57 -514.409 -4753.68 197.932 982.051 6512.76)
(5657.75 -36.7637 -4821.18 149.707 564.037 6512.76)
(5622.35 442.023 -4852 185.176 141.697 6512.74)
(5504.3 907.414 -4845.88 303.248 -281.755 6512.76)
(5307.18 1345.19 -4802.89 500.316 -703.021 6512.79)
(5037.1 1742.1 -4723.34 770.419 -1118.93 6512.78)
(4702.17 2086.1 -4607.84 1105.33 -1526.35 6512.74)
(4312.62 2366.69 -4457.29 1494.9 -1922.13 6512.75)
(3880.24 2575.39 -4272.79 1927.32 -2303.32 6512.78)
(3418.16 2705.81 -4055.79 2389.33 -2666.95 6512.8)
(2940.54 2754.03 -3807.93 2867 -3010.26 6512.78)
(2461.73 2718.59 -3531.07 3345.79 -3330.69 6512.72)
(1996.37 2600.53 -3227.33 3811.2 -3625.79 6512.75)
(1558.54 2403.43 -2899.03 4248.97 -3893.28 6512.76)
(1161.66 2133.33 -2548.71 4645.85 -4131.11 6512.79)
(817.673 1798.42 -2178.96 4989.85 -4337.52 6512.75)
(537.055 1408.85 -1792.62 5270.44 -4510.93 6512.73)
(328.377 976.469 -1392.64 5479.15 -4650 6512.75)
(197.933 514.408 -982.051 5609.57 -4753.68 6512.76)
(149.708 36.7636 -564.038 5657.75 -4821.18 6512.76)
(185.176 -442.023 -141.697 5622.35 -4852 6512.74)
(303.248 -907.414 281.755 5504.3 -4845.88 6512.76)
(500.316 -1345.19 703.021 5307.18 -4802.89 6512.79)
(770.419 -1742.1 1118.93 5037.1 -4723.34 6512.78)
(1105.33 -2086.1 1526.35 4702.17 -4607.84 6512.74)
(1494.9 -2366.69 1922.13 4312.62 -4457.29 6512.75)
(1927.32 -2575.39 2303.32 3880.24 -4272.79 6512.78)
(2389.33 -2705.81 2666.95 3418.16 -4055.79 6512.8)
(2867 -2754.03 3010.26 2940.54 -3807.93 6512.78)
(3345.79 -2718.59 3330.69 2461.73 -3531.07 6512.72)
(3811.2 -2600.53 3625.79 1996.37 -3227.33 6512.75)
(4248.97 -2403.43 3893.28 1558.54 -2899.03 6512.76)
(4645.85 -2133.33 4131.11 1161.66 -2548.71 6512.79)
(4989.85 -1798.42 4337.52 817.673 -2178.96 6512.75)
(5270.44 -1408.85 4510.93 537.055 -1792.62 6512.73)
(5479.15 -976.469 4650 328.377 -1392.64 6512.75)
(5609.57 -514.408 4753.68 197.933 -982.051 6512.76)
(5657.75 -36.7636 4821.18 149.708 -564.038 6512.76)
(5622.35 442.023 4852 185.176 -141.697 6512.74)
(5504.3 907.414 4845.88 303.248 281.755 6512.76)
(5307.18 1345.19 4802.89 500.317 703.021 6512.79)
(5037.1 1742.1 4723.34 770.419 1118.93 6512.78)
(4702.17 2086.1 4607.84 1105.33 1526.35 6512.74)
(4312.62 2366.69 4457.29 1494.9 1922.13 6512.75)
(3880.24 2575.39 4272.79 1927.32 2303.32 6512.78)
(3418.16 2705.81 4055.79 2389.33 2666.95 6512.8)
(2940.54 2754.03 3807.93 2867 3010.25 6512.78)
(2461.73 2718.59 3531.07 3345.79 3330.69 6512.72)
(1996.37 2600.53 3227.33 3811.2 3625.79 6512.75)
(1558.54 2403.43 2899.03 4248.97 3893.28 6512.76)
(1161.66 2133.33 2548.71 4645.85 4131.11 6512.79)
(817.673 1798.42 2178.96 4989.85 4337.52 6512.75)
(537.055 1408.85 1792.62 5270.44 4510.93 6512.73)
(328.377 976.469 1392.64 5479.15 4650 6512.75)
(197.933 514.408 982.051 5609.57 4753.68 6512.76)
(149.708 36.7636 564.038 5657.75 4821.18 6512.76)
(185.176 -442.023 141.697 5622.35 4852 6512.74)
(-724.088 -1580.44 197.329 9747.81 295.059 -594.553)
(-370.084 -2465.66 170.858 9393.82 311.146 -594.537)
(132.217 -3275.92 143.089 8891.49 324.863 -594.548)
(767.615 -3986.66 114.236 8256.12 336.088 -594.539)
(1516.78 -4576.28 84.5133 7506.97 344.756 -594.533)
(2356.94 -5026.85 54.1312 6666.77 350.831 -594.549)
(3262.62 -5324.69 23.3648 5761.15 354.194 -594.527)
(4206.17 -5460.72 -7.59842 4817.54 354.892 -594.552)
(5159.06 -5430.84 -38.4832 3864.67 352.864 -594.547)
(6092.31 -5235.95 -69.0946 2931.4 348.164 -594.559)
(6977.51 -4881.95 -99.1931 2046.22 340.83 -594.539)
(7787.78 -4379.64 -128.512 1235.94 330.883 -594.548)
(8498.51 -3744.24 -156.883 525.184 318.433 -594.555)
(9088.16 -2995.08 -184.019 -64.4275 303.539 -594.548)
(9538.7 -2154.9 -209.783 -515.017 286.348 -594.568)
(9836.52 -1249.27 -233.951 -812.824 266.979 -594.552)
(9972.58 -305.681 -256.32 -948.848 245.572 -594.541)
(9942.71 647.21 -276.736 -918.971 222.295 -594.544)
(9747.81 1580.44 -295.059 -724.088 197.329 -594.553)
(9393.82 2465.66 -311.146 -370.084 170.858 -594.537)
(8891.49 3275.92 -324.863 132.217 143.089 -594.549)
(8256.12 3986.66 -336.088 767.615 114.236 -594.539)
(7506.97 4576.28 -344.756 1516.78 84.5133 -594.534)
(6666.77 5026.85 -350.831 2356.93 54.1313 -594.55)
(5761.15 5324.69 -354.194 3262.62 23.3649 -594.527)
(4817.54 5460.72 -354.892 4206.17 -7.59838 -594.551)
(3864.67 5430.84 -352.864 5159.06 -38.4832 -594.546)
(2931.4 5235.95 -348.164 6092.31 -69.0946 -594.559)
(2046.22 4881.95 -340.83 6977.51 -99.1931 -594.538)
(1235.94 4379.64 -330.883 7787.78 -128.512 -594.547)
(525.184 3744.24 -318.433 8498.51 -156.883 -594.556)
(-64.4284 2995.08 -303.539 9088.16 -184.019 -594.549)
(-515.017 2154.9 -286.348 9538.7 -209.783 -594.568)
(-812.824 1249.27 -266.979 9836.52 -233.951 -594.552)
(-948.848 305.681 -245.572 9972.58 -256.32 -594.541)
(-918.971 -647.21 -222.295 9942.71 -276.736 -594.544)
(-724.088 -1580.44 -197.329 9747.81 -295.059 -594.553)
(-370.084 -2465.66 -170.858 9393.82 -311.146 -594.537)
(132.217 -3275.92 -143.089 8891.49 -324.863 -594.549)
(767.615 -3986.66 -114.236 8256.12 -336.088 -594.539)
(1516.78 -4576.28 -84.5134 7506.97 -344.756 -594.534)
(2356.93 -5026.85 -54.1313 6666.77 -350.831 -594.55)
(3262.62 -5324.69 -23.3649 5761.15 -354.194 -594.527)
(4206.17 -5460.72 7.59837 4817.54 -354.892 -594.551)
(5159.06 -5430.84 38.4832 3864.67 -352.864 -594.546)
(6092.31 -5235.95 69.0946 2931.4 -348.164 -594.559)
(6977.51 -4881.95 99.1931 2046.22 -340.831 -594.538)
(7787.78 -4379.64 128.512 1235.94 -330.883 -594.547)
(8498.51 -3744.24 156.883 525.184 -318.433 -594.556)
(9088.16 -2995.08 184.019 -64.4284 -303.539 -594.549)
(9538.7 -2154.9 209.783 -515.017 -286.348 -594.568)
(9836.52 -1249.27 233.951 -812.824 -266.979 -594.552)
(9972.58 -305.681 256.32 -948.848 -245.572 -594.541)
(9942.71 647.21 276.736 -918.971 -222.295 -594.544)
(9747.81 1580.44 295.059 -724.088 -197.329 -594.553)
(9393.82 2465.66 311.146 -370.085 -170.858 -594.537)
(8891.49 3275.92 324.863 132.217 -143.089 -594.549)
(8256.12 3986.66 336.088 767.615 -114.236 -594.539)
(7506.97 4576.28 344.756 1516.78 -84.5134 -594.535)
(6666.77 5026.85 350.831 2356.93 -54.1314 -594.55)
(5761.15 5324.69 354.194 3262.62 -23.365 -594.526)