/*--------------------------------*- C++ -*----------------------------------*\
| =========                 |                                                 |
| \\      /  F ield         | OpenFOAM: The Open Source CFD Toolbox           |
|  \\    /   O peration     | Version:  2312                                  |
|   \\  /    A nd           | Website:  www.openfoam.com                      |
|    \\/     M anipulation  |                                                 |
\*---------------------------------------------------------------------------*/
FoamFile
{
    version     2.0;
    format      ascii;
    arch        "LSB;label=32;scalar=64";
    class       volVectorField;
    location    "0.2";
    object      traction;
}
// * * * * * * * * * * * * * * * * * * * * * * * * * * * * * * * * * * * * * //

dimensions      [1 -1 -2 0 0 0 0];

internalField   uniform (0 0 0);

boundaryField
{
    fixed
    {
        type            calculated;
        value           nonuniform List<vector> 
216
(
(175.705 4953.31 6989.04)
(-256.689 4949.77 6989.03)
(-687.105 4908.57 6989.07)
(-1112.28 4830.01 6989.05)
(-1529.02 4714.69 6989.03)
(-1934.13 4563.47 6989)
(-2324.51 4377.54 6989.05)
(-2697.18 4158.29 6989.02)
(-3049.34 3907.39 6989.01)
(-3378.28 3626.76 6989.02)
(-3681.52 3318.52 6989.05)
(-3956.73 2985.04 6989.07)
(-4201.83 2628.83 6989)
(-4414.97 2252.59 6989.02)
(-4594.5 1859.22 6989.04)
(-4739.06 1451.73 6989.04)
(-4847.55 1033.17 6989.04)
(-4919.15 606.739 6989.05)
(-4953.31 175.705 6989.04)
(-4949.77 -256.689 6989.03)
(-4908.57 -687.105 6989.07)
(-4830.01 -1112.28 6989.05)
(-4714.69 -1529.02 6989.03)
(-4563.47 -1934.13 6989)
(-4377.54 -2324.51 6989.05)
(-4158.29 -2697.18 6989.02)
(-3907.39 -3049.34 6989.01)
(-3626.76 -3378.28 6989.02)
(-3318.52 -3681.52 6989.05)
(-2985.04 -3956.73 6989.07)
(-2628.83 -4201.83 6989)
(-2252.59 -4414.97 6989.02)
(-1859.22 -4594.5 6989.04)
(-1451.73 -4739.06 6989.04)
(-1033.17 -4847.55 6989.04)
(-606.739 -4919.15 6989.05)
(-175.705 -4953.31 6989.04)
(256.689 -4949.77 6989.03)
(687.105 -4908.57 6989.07)
(1112.28 -4830.01 6989.05)
(1529.02 -4714.69 6989.03)
(1934.13 -4563.47 6989)
(2324.51 -4377.54 6989.05)
(2697.18 -4158.29 6989.02)
(3049.34 -3907.39 6989.01)
(3378.28 -3626.76 6989.02)
(3681.52 -3318.52 6989.05)
(3956.73 -2985.04 6989.07)
(4201.83 -2628.83 6989)
(4414.97 -2252.59 6989.02)
(4594.5 -1859.22 6989.04)
(4739.06 -1451.73 6989.04)
(4847.55 -1033.17 6989.04)
(4919.15 -606.739 6989.05)
(4953.31 -175.705 6989.04)
(4949.77 256.689 6989.03)
(4908.57 687.105 6989.07)
(4830.01 1112.28 6989.05)
(4714.69 1529.02 6989.03)
(4563.47 1934.13 6989)
(4377.54 2324.51 6989.05)
(4158.29 2697.18 6989.02)
(3907.39 3049.34 6989.01)
(3626.76 3378.28 6989.02)
(3318.52 3681.52 6989.05)
(2985.04 3956.73 6989.07)
(2628.83 4201.83 6989)
(2252.59 4414.97 6989.02)
(1859.22 4594.5 6989.04)
(1451.73 4739.06 6989.04)
(1033.17 4847.55 6989.04)
(606.739 4919.15 6989.05)
(302.645 -2.87693 247.095)
(301.743 23.5126 247.089)
(298.546 49.7235 247.101)
(293.084 75.5338 247.102)
(285.39 100.777 247.08)
(275.517 125.271 247.07)
(263.538 148.827 247.082)
(249.564 171.23 247.105)
(233.676 192.342 247.084)
(216.022 211.982 247.074)
(196.738 229.993 247.094)
(175.947 246.262 247.086)
(153.835 260.649 247.079)
(130.541 273.062 247.086)
(106.236 283.402 247.094)
(81.1089 291.587 247.095)
(55.384 297.547 247.089)
(29.2417 301.243 247.088)
(2.87694 302.645 247.095)
(-23.5126 301.743 247.088)
(-49.7235 298.546 247.101)
(-75.5338 293.084 247.102)
(-100.777 285.39 247.08)
(-125.271 275.517 247.07)
(-148.827 263.538 247.082)
(-171.231 249.563 247.106)
(-192.342 233.676 247.084)
(-211.982 216.022 247.074)
(-229.993 196.738 247.094)
(-246.262 175.947 247.086)
(-260.649 153.835 247.079)
(-273.062 130.541 247.086)
(-283.402 106.236 247.094)
(-291.587 81.1089 247.095)
(-297.547 55.3839 247.089)
(-301.243 29.2416 247.088)
(-302.645 2.8769 247.095)
(-301.743 -23.5126 247.089)
(-298.546 -49.7236 247.101)
(-293.084 -75.5338 247.102)
(-285.39 -100.777 247.08)
(-275.517 -125.271 247.07)
(-263.538 -148.827 247.082)
(-249.563 -171.231 247.106)
(-233.676 -192.342 247.084)
(-216.022 -211.982 247.074)
(-196.738 -229.993 247.094)
(-175.947 -246.262 247.086)
(-153.835 -260.649 247.079)
(-130.541 -273.062 247.086)
(-106.236 -283.402 247.094)
(-81.1089 -291.587 247.095)
(-55.3839 -297.547 247.089)
(-29.2416 -301.243 247.088)
(-2.87689 -302.645 247.095)
(23.5126 -301.743 247.088)
(49.7236 -298.546 247.101)
(75.5339 -293.084 247.102)
(100.777 -285.39 247.081)
(125.271 -275.517 247.07)
(148.827 -263.538 247.082)
(171.231 -249.563 247.106)
(192.342 -233.676 247.084)
(211.982 -216.022 247.074)
(229.993 -196.738 247.094)
(246.262 -175.947 247.086)
(260.649 -153.836 247.079)
(273.062 -130.541 247.086)
(283.402 -106.236 247.094)
(291.587 -81.1089 247.095)
(297.547 -55.3839 247.089)
(301.243 -29.2416 247.088)
(980.061 -7726.17 2897.21)
(1649.71 -7611.35 2897.2)
(2306.79 -7438.61 2897.22)
(2946.32 -7209.25 2897.21)
(3563.47 -6925.03 2897.2)
(4153.47 -6588.1 2897.19)
(4711.84 -6201.04 2897.22)
(5234.38 -5766.76 2897.22)
(5717.06 -5288.61 2897.19)
(6156.21 -4770.23 2897.16)
(6548.54 -4215.53 2897.2)
(6891.05 -3628.73 2897.21)
(7181.08 -3014.34 2897.21)
(7416.48 -2377 2897.23)
(7595.43 -1721.54 2897.21)
(7716.58 -1053 2897.22)
(7778.98 -376.465 2897.21)
(7782.19 302.945 2897.2)
(7726.17 980.061 2897.21)
(7611.35 1649.71 2897.2)
(7438.61 2306.79 2897.22)
(7209.25 2946.32 2897.21)
(6925.03 3563.47 2897.2)
(6588.1 4153.47 2897.19)
(6201.04 4711.84 2897.22)
(5766.76 5234.38 2897.22)
(5288.61 5717.06 2897.19)
(4770.23 6156.21 2897.16)
(4215.53 6548.54 2897.2)
(3628.73 6891.05 2897.21)
(3014.34 7181.08 2897.21)
(2377 7416.48 2897.23)
(1721.54 7595.43 2897.21)
(1053 7716.58 2897.22)
(376.465 7778.98 2897.21)
(-302.945 7782.19 2897.2)
(-980.061 7726.17 2897.21)
(-1649.71 7611.35 2897.2)
(-2306.79 7438.61 2897.22)
(-2946.32 7209.25 2897.21)
(-3563.47 6925.03 2897.2)
(-4153.47 6588.1 2897.19)
(-4711.84 6201.04 2897.22)
(-5234.38 5766.76 2897.22)
(-5717.06 5288.61 2897.19)
(-6156.21 4770.23 2897.16)
(-6548.54 4215.53 2897.2)
(-6891.05 3628.73 2897.21)
(-7181.08 3014.34 2897.21)
(-7416.48 2377 2897.23)
(-7595.43 1721.54 2897.21)
(-7716.58 1053 2897.22)
(-7778.98 376.465 2897.21)
(-7782.19 -302.945 2897.2)
(-7726.17 -980.061 2897.21)
(-7611.35 -1649.71 2897.2)
(-7438.61 -2306.79 2897.22)
(-7209.25 -2946.32 2897.21)
(-6925.03 -3563.47 2897.2)
(-6588.1 -4153.47 2897.19)
(-6201.04 -4711.84 2897.22)
(-5766.76 -5234.38 2897.22)
(-5288.61 -5717.06 2897.19)
(-4770.23 -6156.21 2897.17)
(-4215.53 -6548.54 2897.2)
(-3628.73 -6891.05 2897.21)
(-3014.34 -7181.08 2897.21)
(-2377 -7416.48 2897.23)
(-1721.54 -7595.43 2897.21)
(-1053 -7716.58 2897.22)
(-376.465 -7778.98 2897.21)
(302.945 -7782.19 2897.2)
)
;
    }
    inside
    {
        type            calculated;
        value           nonuniform List<vector> 
1080
(
(2636.61 307.793 20.3577)
(2599.76 536.409 20.4057)
(2543.11 760.945 20.338)
(2467.11 979.694 20.3813)
(2372.35 1191.01 20.3732)
(2259.52 1393.26 20.3982)
(2129.47 1584.87 20.31)
(1983.22 1764.43 20.3761)
(1821.93 1930.56 20.3816)
(1646.76 2082 20.4102)
(1458.99 2217.6 20.3521)
(1260.15 2336.35 20.3872)
(1051.75 2437.27 20.324)
(835.328 2519.65 20.3719)
(612.545 2582.87 20.3736)
(385.092 2626.45 20.3998)
(154.735 2650 20.3504)
(-76.8243 2653.42 20.3829)
(-307.793 2636.61 20.3578)
(-536.409 2599.76 20.4057)
(-760.945 2543.11 20.338)
(-979.694 2467.11 20.3813)
(-1191.01 2372.35 20.3732)
(-1393.26 2259.52 20.3982)
(-1584.87 2129.47 20.31)
(-1764.43 1983.22 20.3761)
(-1930.56 1821.93 20.3816)
(-2082 1646.76 20.4102)
(-2217.6 1458.99 20.3521)
(-2336.35 1260.15 20.3872)
(-2437.27 1051.75 20.324)
(-2519.65 835.328 20.3719)
(-2582.87 612.545 20.3735)
(-2626.45 385.092 20.3998)
(-2650 154.735 20.3504)
(-2653.42 -76.8243 20.3829)
(-2636.61 -307.793 20.3578)
(-2599.76 -536.409 20.4057)
(-2543.11 -760.945 20.338)
(-2467.11 -979.694 20.3813)
(-2372.35 -1191.01 20.3732)
(-2259.52 -1393.26 20.3982)
(-2129.47 -1584.87 20.31)
(-1983.22 -1764.43 20.3761)
(-1821.93 -1930.56 20.3816)
(-1646.76 -2082 20.4102)
(-1458.99 -2217.6 20.3521)
(-1260.15 -2336.35 20.3872)
(-1051.75 -2437.27 20.324)
(-835.328 -2519.65 20.3719)
(-612.545 -2582.87 20.3735)
(-385.092 -2626.45 20.3998)
(-154.735 -2650 20.3504)
(76.8242 -2653.42 20.3829)
(307.793 -2636.61 20.3579)
(536.409 -2599.76 20.4058)
(760.945 -2543.11 20.338)
(979.694 -2467.11 20.3813)
(1191.01 -2372.35 20.3732)
(1393.26 -2259.52 20.3982)
(1584.87 -2129.47 20.31)
(1764.43 -1983.22 20.3761)
(1930.56 -1821.93 20.3816)
(2082 -1646.76 20.4102)
(2217.6 -1458.99 20.3521)
(2336.35 -1260.15 20.3872)
(2437.27 -1051.75 20.324)
(2519.65 -835.328 20.3718)
(2582.87 -612.545 20.3735)
(2626.45 -385.092 20.3998)
(2650 -154.735 20.3504)
(2653.42 76.8243 20.3829)
(3805.9 431.531 719.961)
(3753.8 761.575 719.934)
(3673.14 1085.82 719.915)
(3564.54 1401.82 719.945)
(3428.8 1707.16 719.903)
(3266.96 1999.54 719.943)
(3080.25 2276.63 719.897)
(2870.09 2536.45 719.933)
(2638.09 2776.97 719.931)
(2386.04 2996.29 719.883)
(2115.81 3192.81 719.914)
(1829.48 3365.09 719.954)
(1529.25 3511.74 719.903)
(1217.35 3631.68 719.952)
(896.21 3723.96 719.919)
(568.234 3787.89 719.947)
(235.95 3823 719.934)
(-98.1422 3829.01 719.891)
(-431.531 3805.9 719.961)
(-761.575 3753.79 719.934)
(-1085.82 3673.14 719.915)
(-1401.82 3564.54 719.945)
(-1707.16 3428.8 719.903)
(-1999.54 3266.96 719.943)
(-2276.63 3080.25 719.897)
(-2536.45 2870.09 719.933)
(-2776.97 2638.09 719.931)
(-2996.29 2386.04 719.883)
(-3192.81 2115.81 719.914)
(-3365.1 1829.48 719.954)
(-3511.74 1529.25 719.903)
(-3631.68 1217.35 719.952)
(-3723.96 896.21 719.919)
(-3787.89 568.234 719.947)
(-3823 235.95 719.934)
(-3829.01 -98.1421 719.891)
(-3805.9 -431.531 719.961)
(-3753.79 -761.575 719.934)
(-3673.14 -1085.82 719.915)
(-3564.54 -1401.82 719.945)
(-3428.8 -1707.16 719.903)
(-3266.96 -1999.54 719.943)
(-3080.25 -2276.63 719.897)
(-2870.09 -2536.45 719.934)
(-2638.09 -2776.97 719.931)
(-2386.04 -2996.29 719.883)
(-2115.81 -3192.81 719.914)
(-1829.48 -3365.1 719.954)
(-1529.25 -3511.74 719.903)
(-1217.35 -3631.68 719.952)
(-896.21 -3723.96 719.919)
(-568.234 -3787.89 719.947)
(-235.95 -3823 719.934)
(98.1421 -3829.01 719.891)
(431.531 -3805.9 719.961)
(761.575 -3753.79 719.934)
(1085.82 -3673.14 719.915)
(1401.82 -3564.54 719.945)
(1707.16 -3428.8 719.903)
(1999.54 -3266.96 719.943)
(2276.63 -3080.25 719.897)
(2536.45 -2870.09 719.934)
(2776.97 -2638.09 719.931)
(2996.29 -2386.04 719.883)
(3192.81 -2115.81 719.914)
(3365.1 -1829.48 719.954)
(3511.74 -1529.25 719.903)
(3631.68 -1217.35 719.952)
(3723.96 -896.21 719.919)
(3787.89 -568.234 719.947)
(3823 -235.95 719.934)
(3829.01 98.1422 719.89)
(4176.15 1117.97 699.302)
(4062.81 1477.71 699.305)
(3918.56 1826.19 699.287)
(3744.49 2160.76 699.277)
(3541.92 2478.88 699.308)
(3312.41 2778.13 699.306)
(3057.67 3056.26 699.307)
(2779.66 3311.11 699.286)
(2480.5 3540.82 699.343)
(2162.48 3743.49 699.274)
(1827.96 3917.74 699.323)
(1479.56 4062.14 699.304)
(1119.89 4175.65 699.304)
(751.688 4257.36 699.285)
(377.746 4306.68 699.293)
(0.969828 4323.19 699.298)
(-375.814 4306.82 699.285)
(-749.74 4257.69 699.307)
(-1117.97 4176.15 699.302)
(-1477.71 4062.81 699.305)
(-1826.19 3918.56 699.287)
(-2160.76 3744.49 699.277)
(-2478.88 3541.92 699.308)
(-2778.13 3312.41 699.306)
(-3056.26 3057.67 699.307)
(-3311.11 2779.66 699.286)
(-3540.82 2480.5 699.343)
(-3743.49 2162.48 699.274)
(-3917.74 1827.96 699.323)
(-4062.14 1479.56 699.304)
(-4175.65 1119.89 699.304)
(-4257.36 751.688 699.285)
(-4306.68 377.746 699.292)
(-4323.19 0.969775 699.297)
(-4306.82 -375.814 699.285)
(-4257.69 -749.74 699.306)
(-4176.15 -1117.97 699.302)
(-4062.81 -1477.71 699.305)
(-3918.56 -1826.19 699.287)
(-3744.49 -2160.76 699.277)
(-3541.92 -2478.88 699.308)
(-3312.41 -2778.13 699.306)
(-3057.67 -3056.26 699.307)
(-2779.66 -3311.11 699.286)
(-2480.5 -3540.82 699.343)
(-2162.48 -3743.49 699.274)
(-1827.96 -3917.74 699.323)
(-1479.56 -4062.14 699.304)
(-1119.89 -4175.65 699.304)
(-751.688 -4257.36 699.285)
(-377.746 -4306.68 699.292)
(-0.969795 -4323.19 699.297)
(375.814 -4306.82 699.285)
(749.74 -4257.69 699.306)
(1117.97 -4176.15 699.302)
(1477.71 -4062.81 699.305)
(1826.19 -3918.56 699.287)
(2160.76 -3744.49 699.277)
(2478.88 -3541.92 699.308)
(2778.13 -3312.41 699.306)
(3056.26 -3057.67 699.307)
(3311.11 -2779.66 699.286)
(3540.82 -2480.5 699.343)
(3743.49 -2162.48 699.274)
(3917.74 -1827.96 699.323)
(4062.14 -1479.56 699.304)
(4175.65 -1119.89 699.304)
(4257.36 -751.688 699.285)
(4306.68 -377.746 699.292)
(4323.19 -0.969767 699.297)
(4306.82 375.814 699.285)
(4257.69 749.74 699.306)
(4637.01 1975.4 695.638)
(4447.19 2372.04 695.676)
(4223.54 2750.63 695.694)
(3967.75 3108.23 695.683)
(3681.75 3442.25 695.724)
(3367.74 3750.02 695.63)
(3028.06 4029.29 695.674)
(2665.36 4277.85 695.67)
(2282.37 4493.9 695.664)
(1882.03 4675.69 695.663)
(1467.36 4821.93 695.677)
(1041.5 4931.48 695.649)
(607.728 5003.52 695.706)
(169.381 5037.38 695.644)
(-270.314 5033 695.707)
(-707.94 4990.28 695.661)
(-1140.2 4909.58 695.678)
(-1563.79 4791.55 695.7)
(-1975.4 4637.01 695.638)
(-2372.04 4447.19 695.676)
(-2750.63 4223.54 695.694)
(-3108.23 3967.75 695.683)
(-3442.25 3681.75 695.724)
(-3750.02 3367.74 695.63)
(-4029.29 3028.06 695.674)
(-4277.85 2665.36 695.67)
(-4493.9 2282.37 695.664)
(-4675.69 1882.03 695.663)
(-4821.93 1467.36 695.677)
(-4931.48 1041.5 695.649)
(-5003.52 607.728 695.707)
(-5037.38 169.381 695.644)
(-5033 -270.314 695.706)
(-4990.28 -707.94 695.661)
(-4909.58 -1140.2 695.678)
(-4791.55 -1563.79 695.7)
(-4637.01 -1975.4 695.638)
(-4447.19 -2372.04 695.676)
(-4223.54 -2750.63 695.694)
(-3967.75 -3108.23 695.683)
(-3681.75 -3442.25 695.724)
(-3367.74 -3750.02 695.63)
(-3028.06 -4029.29 695.674)
(-2665.36 -4277.85 695.67)
(-2282.37 -4493.9 695.664)
(-1882.03 -4675.69 695.663)
(-1467.36 -4821.93 695.677)
(-1041.5 -4931.48 695.649)
(-607.728 -5003.52 695.707)
(-169.381 -5037.38 695.644)
(270.314 -5033 695.706)
(707.94 -4990.28 695.661)
(1140.2 -4909.58 695.678)
(1563.79 -4791.55 695.7)
(1975.4 -4637.01 695.638)
(2372.04 -4447.19 695.676)
(2750.63 -4223.54 695.694)
(3108.23 -3967.75 695.683)
(3442.25 -3681.75 695.723)
(3750.02 -3367.74 695.63)
(4029.29 -3028.06 695.674)
(4277.85 -2665.36 695.67)
(4493.9 -2282.37 695.664)
(4675.69 -1882.03 695.663)
(4821.93 -1467.36 695.677)
(4931.48 -1041.5 695.649)
(5003.52 -607.728 695.707)
(5037.38 -169.381 695.644)
(5033 270.314 695.706)
(4990.28 707.94 695.661)
(4909.58 1140.2 695.678)
(4791.55 1563.79 695.7)
(5044.45 2913.98 747.49)
(4771.29 3342.55 747.471)
(4461.78 3745.73 747.558)
(4118.35 4120.29 747.457)
(3743.57 4463.59 747.513)
(3340.32 4772.86 747.472)
(2911.63 5045.84 747.549)
(2460.78 5280.36 747.474)
(1991.18 5474.77 747.513)
(1506.46 5627.46 747.49)
(1010.25 5737.37 747.532)
(506.404 5803.56 747.476)
(-1.38549 5825.64 747.527)
(-509.119 5803.33 747.469)
(-1012.99 5736.88 747.528)
(-1509.07 5626.74 747.441)
(-1993.79 5473.81 747.522)
(-2463.28 5279.24 747.509)
(-2913.98 5044.45 747.49)
(-3342.55 4771.29 747.471)
(-3745.73 4461.78 747.558)
(-4120.29 4118.35 747.457)
(-4463.59 3743.57 747.513)
(-4772.86 3340.32 747.472)
(-5045.84 2911.63 747.548)
(-5280.36 2460.78 747.474)
(-5474.77 1991.18 747.513)
(-5627.46 1506.46 747.49)
(-5737.37 1010.25 747.532)
(-5803.56 506.404 747.476)
(-5825.64 -1.38547 747.527)
(-5803.33 -509.119 747.469)
(-5736.88 -1012.99 747.528)
(-5626.74 -1509.07 747.441)
(-5473.81 -1993.79 747.522)
(-5279.24 -2463.28 747.509)
(-5044.45 -2913.98 747.49)
(-4771.29 -3342.55 747.471)
(-4461.78 -3745.73 747.558)
(-4118.35 -4120.29 747.457)
(-3743.57 -4463.59 747.513)
(-3340.32 -4772.86 747.472)
(-2911.63 -5045.84 747.548)
(-2460.78 -5280.36 747.474)
(-1991.18 -5474.77 747.513)
(-1506.46 -5627.46 747.49)
(-1010.25 -5737.37 747.532)
(-506.404 -5803.56 747.476)
(1.38546 -5825.64 747.527)
(509.119 -5803.33 747.469)
(1012.99 -5736.88 747.528)
(1509.07 -5626.74 747.441)
(1993.79 -5473.81 747.522)
(2463.28 -5279.24 747.509)
(2913.98 -5044.45 747.49)
(3342.55 -4771.29 747.471)
(3745.73 -4461.78 747.558)
(4120.29 -4118.35 747.457)
(4463.59 -3743.57 747.513)
(4772.86 -3340.32 747.472)
(5045.84 -2911.63 747.549)
(5280.36 -2460.78 747.474)
(5474.77 -1991.18 747.513)
(5627.46 -1506.46 747.49)
(5737.37 -1010.25 747.532)
(5803.56 -506.404 747.476)
(5825.64 1.38546 747.527)
(5803.33 509.119 747.469)
(5736.88 1012.99 747.528)
(5626.74 1509.07 747.441)
(5473.81 1993.79 747.522)
(5279.24 2463.28 747.509)
(5400.67 3870.52 843.403)
(5042.77 4326.4 843.29)
(4646.49 4749.55 843.427)
(4214.87 5136.35 843.308)
(3751.17 5484.21 843.389)
(3258.92 5790.29 843.392)
(2741.86 6052.27 843.347)
(2203.93 6268.21 843.365)
(1649.25 6436.47 843.404)
(1082.02 6555.67 843.321)
(506.515 6625.05 843.361)
(-72.8468 6643.99 843.361)
(-651.587 6612.33 843.346)
(-1225.41 6530.38 843.347)
(-1789.97 6398.75 843.423)
(-2340.77 6218.37 843.285)
(-2873.92 5990.73 843.428)
(-3385.04 5717.43 843.308)
(-3870.52 5400.67 843.403)
(-4326.4 5042.77 843.29)
(-4749.55 4646.49 843.427)
(-5136.35 4214.87 843.308)
(-5484.21 3751.17 843.389)
(-5790.29 3258.92 843.391)
(-6052.27 2741.86 843.347)
(-6268.21 2203.93 843.365)
(-6436.47 1649.25 843.404)
(-6555.67 1082.02 843.321)
(-6625.05 506.515 843.361)
(-6643.99 -72.847 843.361)
(-6612.33 -651.587 843.346)
(-6530.38 -1225.41 843.347)
(-6398.75 -1789.97 843.423)
(-6218.37 -2340.77 843.285)
(-5990.73 -2873.92 843.428)
(-5717.43 -3385.04 843.308)
(-5400.67 -3870.52 843.403)
(-5042.77 -4326.4 843.29)
(-4646.49 -4749.55 843.427)
(-4214.87 -5136.35 843.308)
(-3751.17 -5484.21 843.389)
(-3258.92 -5790.29 843.392)
(-2741.86 -6052.27 843.347)
(-2203.93 -6268.21 843.365)
(-1649.25 -6436.47 843.404)
(-1082.02 -6555.67 843.321)
(-506.515 -6625.05 843.361)
(72.847 -6643.99 843.361)
(651.587 -6612.33 843.346)
(1225.41 -6530.38 843.347)
(1789.97 -6398.75 843.423)
(2340.77 -6218.37 843.285)
(2873.92 -5990.73 843.428)
(3385.04 -5717.43 843.308)
(3870.52 -5400.67 843.403)
(4326.4 -5042.77 843.29)
(4749.55 -4646.49 843.427)
(5136.35 -4214.87 843.308)
(5484.21 -3751.17 843.389)
(5790.29 -3258.92 843.392)
(6052.27 -2741.86 843.347)
(6268.21 -2203.93 843.365)
(6436.47 -1649.25 843.404)
(6555.67 -1082.02 843.321)
(6625.05 -506.515 843.361)
(6643.99 72.8469 843.361)
(6612.33 651.587 843.346)
(6530.38 1225.41 843.347)
(6398.75 1789.97 843.423)
(6218.37 2340.77 843.285)
(5990.73 2873.92 843.428)
(5717.43 3385.04 843.308)
(5692.76 4791.45 963.166)
(5253.49 5269.3 963.082)
(4774.26 5707.16 963.135)
(4258.67 6101.53 963.092)
(3710.69 6449.51 963.139)
(3134.47 6748.35 963.089)
(2534.38 6995.84 963.079)
(1914.97 7190.18 963.195)
(1281.04 7329.67 963.088)
(637.342 7413.42 963.137)
(-11.161 7440.72 963.046)
(-659.695 7411.48 963.154)
(-1303.13 7325.78 963.134)
(-1936.6 7184.32 963.086)
(-2555.42 6988.22 963.127)
(-3154.73 6738.91 963.106)
(-3730.1 6438.31 963.143)
(-4276.99 6088.68 963.059)
(-4791.45 5692.76 963.166)
(-5269.3 5253.49 963.082)
(-5707.16 4774.26 963.135)
(-6101.53 4258.67 963.092)
(-6449.51 3710.69 963.139)
(-6748.35 3134.47 963.089)
(-6995.84 2534.38 963.079)
(-7190.18 1914.97 963.195)
(-7329.67 1281.04 963.088)
(-7413.42 637.343 963.137)
(-7440.71 -11.1609 963.046)
(-7411.48 -659.696 963.154)
(-7325.78 -1303.13 963.134)
(-7184.32 -1936.6 963.086)
(-6988.22 -2555.42 963.127)
(-6738.91 -3154.73 963.106)
(-6438.31 -3730.1 963.143)
(-6088.68 -4276.99 963.059)
(-5692.76 -4791.45 963.166)
(-5253.49 -5269.3 963.082)
(-4774.26 -5707.16 963.135)
(-4258.67 -6101.53 963.092)
(-3710.69 -6449.51 963.139)
(-3134.47 -6748.35 963.089)
(-2534.38 -6995.84 963.079)
(-1914.97 -7190.18 963.195)
(-1281.04 -7329.67 963.088)
(-637.343 -7413.42 963.137)
(11.1609 -7440.71 963.046)
(659.696 -7411.48 963.154)
(1303.13 -7325.78 963.134)
(1936.6 -7184.32 963.086)
(2555.42 -6988.22 963.127)
(3154.73 -6738.91 963.106)
(3730.1 -6438.31 963.143)
(4276.99 -6088.68 963.059)
(4791.45 -5692.76 963.166)
(5269.3 -5253.49 963.082)
(5707.16 -4774.26 963.135)
(6101.53 -4258.67 963.092)
(6449.5 -3710.69 963.139)
(6748.35 -3134.47 963.089)
(6995.84 -2534.38 963.079)
(7190.18 -1914.97 963.195)
(7329.67 -1281.04 963.088)
(7413.42 -637.343 963.137)
(7440.71 11.1609 963.046)
(7411.48 659.696 963.154)
(7325.78 1303.13 963.134)
(7184.32 1936.6 963.086)
(6988.22 2555.42 963.127)
(6738.91 3154.73 963.106)
(6438.31 3730.1 963.143)
(6088.68 4276.99 963.059)
(5899.83 5614.87 1096.39)
(5388.01 6107.73 1096.38)
(4835.16 6554.08 1096.38)
(4245.53 6950.55 1096.42)
(3623.62 7294.13 1096.4)
(2974.14 7582.13 1096.36)
(2301.97 7812.53 1096.39)
(1612.29 7983.46 1096.43)
(910.369 8093.52 1096.32)
(201.448 8142.16 1096.46)
(-508.873 8128.67 1096.36)
(-1215.42 8053.4 1096.4)
(-1912.74 7916.86 1096.44)
(-2595.42 7720 1096.37)
(-3258.37 7464.43 1096.37)
(-3896.58 7152.03 1096.39)
(-4505.1 6785.2 1096.4)
(-5079.31 6366.74 1096.4)
(-5614.87 5899.83 1096.39)
(-6107.73 5388.01 1096.38)
(-6554.08 4835.16 1096.38)
(-6950.55 4245.53 1096.42)
(-7294.13 3623.62 1096.4)
(-7582.13 2974.14 1096.36)
(-7812.53 2301.97 1096.39)
(-7983.46 1612.29 1096.43)
(-8093.52 910.369 1096.32)
(-8142.16 201.448 1096.46)
(-8128.67 -508.873 1096.36)
(-8053.4 -1215.42 1096.4)
(-7916.86 -1912.74 1096.44)
(-7720 -2595.42 1096.37)
(-7464.42 -3258.37 1096.37)
(-7152.03 -3896.58 1096.39)
(-6785.2 -4505.1 1096.4)
(-6366.74 -5079.31 1096.4)
(-5899.83 -5614.87 1096.39)
(-5388.01 -6107.73 1096.38)
(-4835.16 -6554.08 1096.38)
(-4245.53 -6950.55 1096.42)
(-3623.62 -7294.13 1096.4)
(-2974.14 -7582.13 1096.36)
(-2301.97 -7812.53 1096.39)
(-1612.29 -7983.46 1096.43)
(-910.369 -8093.52 1096.32)
(-201.448 -8142.16 1096.46)
(508.873 -8128.67 1096.36)
(1215.42 -8053.4 1096.4)
(1912.74 -7916.86 1096.44)
(2595.42 -7720 1096.37)
(3258.37 -7464.42 1096.37)
(3896.58 -7152.03 1096.39)
(4505.1 -6785.2 1096.4)
(5079.31 -6366.74 1096.4)
(5614.87 -5899.83 1096.39)
(6107.73 -5388.01 1096.38)
(6554.08 -4835.16 1096.38)
(6950.55 -4245.53 1096.42)
(7294.13 -3623.62 1096.4)
(7582.13 -2974.14 1096.36)
(7812.53 -2301.97 1096.39)
(7983.46 -1612.29 1096.43)
(8093.52 -910.369 1096.32)
(8142.16 -201.448 1096.46)
(8128.67 508.873 1096.36)
(8053.4 1215.42 1096.4)
(7916.86 1912.74 1096.44)
(7720 2595.42 1096.37)
(7464.42 3258.37 1096.37)
(7152.03 3896.58 1096.39)
(6785.2 4505.1 1096.4)
(6366.74 5079.31 1096.4)
(5982.67 6231.8 1248.9)
(5416.76 6729.56 1248.96)
(4809.63 7176.08 1248.99)
(4165.87 7567.97 1249)
(3490.41 7902.21 1248.94)
(2788.41 8176.4 1248.99)
(2065.21 8388.27 1248.94)
(1326.26 8536.37 1249.03)
(577.287 8619.39 1248.9)
(-176.22 8637.05 1249.08)
(-928.254 8588.74 1248.92)
(-1673.33 8475.17 1248.99)
(-2405.6 8297.05 1248.93)
(-3119.63 8055.83 1248.99)
(-3809.82 7753.28 1248.93)
(-4471.07 7391.72 1248.96)
(-5098.32 6973.92 1248.99)
(-5686.77 6503.06 1249.05)
(-6231.8 5982.67 1248.9)
(-6729.56 5416.76 1248.96)
(-7176.07 4809.63 1248.99)
(-7567.97 4165.87 1249)
(-7902.21 3490.41 1248.94)
(-8176.4 2788.41 1248.99)
(-8388.27 2065.21 1248.94)
(-8536.37 1326.26 1249.03)
(-8619.39 577.287 1248.9)
(-8637.05 -176.22 1249.08)
(-8588.74 -928.254 1248.92)
(-8475.17 -1673.33 1248.99)
(-8297.05 -2405.6 1248.93)
(-8055.83 -3119.63 1248.99)
(-7753.28 -3809.82 1248.93)
(-7391.72 -4471.07 1248.96)
(-6973.92 -5098.32 1248.99)
(-6503.06 -5686.77 1249.05)
(-5982.67 -6231.8 1248.9)
(-5416.76 -6729.56 1248.96)
(-4809.63 -7176.07 1248.99)
(-4165.87 -7567.97 1249)
(-3490.41 -7902.21 1248.94)
(-2788.41 -8176.4 1248.99)
(-2065.21 -8388.27 1248.94)
(-1326.26 -8536.37 1249.03)
(-577.287 -8619.39 1248.9)
(176.22 -8637.05 1249.08)
(928.254 -8588.74 1248.92)
(1673.33 -8475.17 1248.99)
(2405.6 -8297.05 1248.93)
(3119.63 -8055.83 1248.99)
(3809.82 -7753.28 1248.93)
(4471.07 -7391.72 1248.96)
(5098.32 -6973.92 1248.99)
(5686.77 -6503.06 1249.05)
(6231.8 -5982.67 1248.9)
(6729.56 -5416.76 1248.96)
(7176.07 -4809.63 1248.99)
(7567.97 -4165.87 1249)
(7902.21 -3490.41 1248.94)
(8176.4 -2788.41 1248.99)
(8388.27 -2065.21 1248.94)
(8536.37 -1326.26 1249.03)
(8619.39 -577.287 1248.9)
(8637.05 176.22 1249.08)
(8588.74 928.254 1248.92)
(8475.17 1673.33 1248.99)
(8297.05 2405.6 1248.93)
(8055.83 3119.63 1248.99)
(7753.28 3809.82 1248.93)
(7391.72 4471.07 1248.96)
(6973.92 5098.32 1248.99)
(6503.06 5686.77 1249.05)
(5872.37 6438.55 1432.22)
(5288.86 6925.96 1432.37)
(4665.1 7360.52 1432.27)
(4005.81 7739.15 1432.37)
(3316.07 8058.75 1432.3)
(2601.07 8317.19 1432.38)
(1866.32 8512.18 1432.27)
(1117.28 8642.51 1432.37)
(359.815 8706.91 1432.27)
(-400.479 8705.24 1432.38)
(-1157.6 8637.13 1432.27)
(-1906.01 8503.42 1432.37)
(-2639.79 8304.89 1432.28)
(-3353.61 8043.25 1432.36)
(-4041.83 7720.32 1432.28)
(-4699.4 7338.71 1432.36)
(-5321.06 6901.19 1432.29)
(-5902.41 6411.19 1432.42)
(-6438.55 5872.37 1432.22)
(-6925.96 5288.86 1432.37)
(-7360.52 4665.1 1432.27)
(-7739.15 4005.81 1432.37)
(-8058.75 3316.07 1432.3)
(-8317.19 2601.07 1432.38)
(-8512.18 1866.32 1432.27)
(-8642.51 1117.28 1432.37)
(-8706.91 359.815 1432.27)
(-8705.24 -400.479 1432.38)
(-8637.13 -1157.6 1432.27)
(-8503.42 -1906.01 1432.37)
(-8304.89 -2639.79 1432.28)
(-8043.25 -3353.61 1432.36)
(-7720.32 -4041.83 1432.28)
(-7338.71 -4699.4 1432.36)
(-6901.19 -5321.06 1432.29)
(-6411.19 -5902.41 1432.42)
(-5872.37 -6438.55 1432.22)
(-5288.86 -6925.96 1432.37)
(-4665.1 -7360.52 1432.27)
(-4005.81 -7739.15 1432.37)
(-3316.07 -8058.75 1432.3)
(-2601.07 -8317.19 1432.38)
(-1866.32 -8512.18 1432.27)
(-1117.28 -8642.51 1432.37)
(-359.815 -8706.91 1432.27)
(400.479 -8705.24 1432.38)
(1157.6 -8637.13 1432.27)
(1906.01 -8503.42 1432.37)
(2639.79 -8304.89 1432.28)
(3353.61 -8043.25 1432.36)
(4041.83 -7720.32 1432.28)
(4699.4 -7338.71 1432.36)
(5321.06 -6901.19 1432.29)
(5902.41 -6411.19 1432.42)
(6438.55 -5872.37 1432.22)
(6925.96 -5288.86 1432.37)
(7360.52 -4665.1 1432.27)
(7739.15 -4005.81 1432.37)
(8058.75 -3316.07 1432.3)
(8317.19 -2601.07 1432.38)
(8512.18 -1866.32 1432.27)
(8642.51 -1117.28 1432.37)
(8706.91 -359.815 1432.27)
(8705.23 400.479 1432.38)
(8637.13 1157.6 1432.27)
(8503.42 1906.01 1432.37)
(8304.89 2639.79 1432.28)
(8043.25 3353.61 1432.36)
(7720.32 4041.83 1432.28)
(7338.71 4699.4 1432.36)
(6901.19 5321.06 1432.29)
(6411.19 5902.41 1432.42)
(5478.56 5940.49 1603.74)
(4939.96 6395.48 1603.88)
(4363.78 6801.61 1603.8)
(3754.37 7156.11 1603.88)
(3116.38 7456.01 1603.78)
(2454.65 7699.36 1603.88)
(1774.33 7883.92 1603.78)
(1080.45 8008.63 1603.86)
(378.361 8072.24 1603.74)
(-326.722 8074.6 1603.91)
(-1029.16 8015.34 1603.8)
(-1723.86 7895.15 1603.87)
(-2405.36 7714.82 1603.77)
(-3068.66 7475.85 1603.89)
(-3708.48 7179.95 1603.77)
(-4320.2 6829.45 1603.86)
(-4898.92 6426.89 1603.77)
(-5440.53 5975.48 1603.91)
(-5940.49 5478.56 1603.74)
(-6395.48 4939.96 1603.88)
(-6801.61 4363.78 1603.8)
(-7156.11 3754.37 1603.88)
(-7456.01 3116.38 1603.78)
(-7699.36 2454.65 1603.88)
(-7883.92 1774.33 1603.78)
(-8008.63 1080.45 1603.86)
(-8072.24 378.361 1603.74)
(-8074.6 -326.722 1603.91)
(-8015.34 -1029.16 1603.8)
(-7895.15 -1723.86 1603.87)
(-7714.82 -2405.36 1603.77)
(-7475.85 -3068.66 1603.89)
(-7179.95 -3708.48 1603.77)
(-6829.45 -4320.2 1603.86)
(-6426.89 -4898.92 1603.77)
(-5975.48 -5440.53 1603.91)
(-5478.56 -5940.49 1603.74)
(-4939.96 -6395.48 1603.88)
(-4363.78 -6801.61 1603.8)
(-3754.37 -7156.11 1603.88)
(-3116.38 -7456.01 1603.78)
(-2454.65 -7699.36 1603.88)
(-1774.33 -7883.92 1603.78)
(-1080.45 -8008.63 1603.86)
(-378.361 -8072.24 1603.74)
(326.722 -8074.6 1603.91)
(1029.16 -8015.34 1603.8)
(1723.86 -7895.15 1603.87)
(2405.36 -7714.82 1603.77)
(3068.66 -7475.85 1603.89)
(3708.48 -7179.95 1603.77)
(4320.2 -6829.45 1603.86)
(4898.92 -6426.89 1603.77)
(5440.53 -5975.48 1603.91)
(5940.49 -5478.56 1603.74)
(6395.48 -4939.96 1603.88)
(6801.61 -4363.78 1603.8)
(7156.11 -3754.37 1603.88)
(7456.01 -3116.38 1603.78)
(7699.36 -2454.65 1603.88)
(7883.92 -1774.33 1603.78)
(8008.63 -1080.45 1603.86)
(8072.24 -378.361 1603.74)
(8074.6 326.722 1603.91)
(8015.34 1029.16 1603.8)
(7895.15 1723.86 1603.87)
(7714.82 2405.36 1603.77)
(7475.85 3068.66 1603.89)
(7179.95 3708.48 1603.77)
(6829.45 4320.2 1603.86)
(6426.89 4898.92 1603.77)
(5975.48 5440.53 1603.91)
(4735.27 4428.05 1633.33)
(4331.36 4823.99 1633.46)
(3894.43 5183.06 1633.37)
(3427.88 5502.77 1633.44)
(2935.23 5780.57 1633.35)
(2420.25 6014.5 1633.49)
(1886.85 6202.48 1633.33)
(1339.08 6343.37 1633.44)
(781.152 6435.91 1633.34)
(217.238 6479.54 1633.45)
(-348.316 6473.76 1633.37)
(-911.242 6418.8 1633.45)
(-1467.15 6314.91 1633.32)
(-2012 6163.04 1633.44)
(-2541.51 5964.21 1633.36)
(-3051.64 5720.03 1633.44)
(-3538.47 5432.26 1633.33)
(-3998.53 5103.21 1633.46)
(-4428.05 4735.27 1633.33)
(-4823.99 4331.36 1633.46)
(-5183.06 3894.43 1633.37)
(-5502.77 3427.88 1633.44)
(-5780.57 2935.23 1633.35)
(-6014.5 2420.25 1633.49)
(-6202.48 1886.85 1633.33)
(-6343.37 1339.08 1633.44)
(-6435.91 781.152 1633.34)
(-6479.54 217.238 1633.45)
(-6473.76 -348.316 1633.37)
(-6418.8 -911.242 1633.45)
(-6314.91 -1467.15 1633.32)
(-6163.04 -2012 1633.44)
(-5964.21 -2541.51 1633.36)
(-5720.03 -3051.64 1633.44)
(-5432.26 -3538.47 1633.33)
(-5103.21 -3998.53 1633.46)
(-4735.27 -4428.05 1633.33)
(-4331.36 -4823.99 1633.46)
(-3894.43 -5183.06 1633.37)
(-3427.88 -5502.77 1633.44)
(-2935.23 -5780.57 1633.35)
(-2420.25 -6014.5 1633.49)
(-1886.85 -6202.48 1633.33)
(-1339.08 -6343.37 1633.44)
(-781.152 -6435.91 1633.34)
(-217.238 -6479.54 1633.45)
(348.316 -6473.76 1633.37)
(911.242 -6418.8 1633.45)
(1467.15 -6314.91 1633.32)
(2012 -6163.04 1633.44)
(2541.51 -5964.21 1633.36)
(3051.64 -5720.03 1633.44)
(3538.47 -5432.26 1633.33)
(3998.53 -5103.21 1633.46)
(4428.05 -4735.27 1633.33)
(4823.99 -4331.36 1633.46)
(5183.06 -3894.43 1633.37)
(5502.77 -3427.88 1633.44)
(5780.57 -2935.23 1633.35)
(6014.5 -2420.25 1633.49)
(6202.48 -1886.85 1633.33)
(6343.37 -1339.08 1633.44)
(6435.91 -781.152 1633.34)
(6479.54 -217.238 1633.45)
(6473.76 348.316 1633.37)
(6418.8 911.242 1633.45)
(6314.91 1467.15 1633.32)
(6163.04 2012 1633.44)
(5964.21 2541.51 1633.36)
(5720.03 3051.64 1633.44)
(5432.26 3538.47 1633.33)
(5103.21 3998.53 1633.46)
(3788.57 1767.65 1526.2)
(3620.08 2091.12 1526.22)
(3424.03 2398.65 1526.18)