/*--------------------------------*- C++ -*----------------------------------*\
| =========                 |                                                 |
| \\      /  F ield         | OpenFOAM: The Open Source CFD Toolbox           |
|  \\    /   O peration     | Version:  2312                                  |
|   \\  /    A nd           | Website:  www.openfoam.com                      |
|    \\/     M anipulation  |                                                 |
\*---------------------------------------------------------------------------*/
FoamFile
{
    version     2.0;
    format      ascii;
    arch        "LSB;label=32;scalar=64";
    class       volVectorField;
    location    "0.2";
    object      U;
}
// * * * * * * * * * * * * * * * * * * * * * * * * * * * * * * * * * * * * * //

dimensions      [0 1 -1 0 0 0 0];

internalField   nonuniform List<vector> 
3240
(
(-0.000740837 0.000187472 -0.000271668)
(-0.000754356 0.000122192 -0.000271667)
(-0.000762134 5.59794e-05 -0.00027167)
(-0.000764112 -1.06604e-05 -0.00027167)
(-0.000760279 -7.72169e-05 -0.000271669)
(-0.000750657 -0.000143186 -0.000271668)
(-0.000735321 -0.000208062 -0.000271664)
(-0.000714388 -0.000271356 -0.000271664)
(-0.000688019 -0.000332585 -0.000271667)
(-0.000656413 -0.000391284 -0.000271669)
(-0.000619812 -0.000447006 -0.00027167)
(-0.000578495 -0.000499328 -0.000271671)
(-0.000532775 -0.000547849 -0.000271669)
(-0.000483 -0.000592199 -0.000271667)
(-0.000429548 -0.000632037 -0.000271665)
(-0.000372828 -0.000667069 -0.000271667)
(-0.000313268 -0.000697027 -0.000271671)
(-0.000251328 -0.000721679 -0.000271668)
(-0.000187472 -0.000740837 -0.000271668)
(-0.000122192 -0.000754356 -0.000271667)
(-5.59794e-05 -0.000762134 -0.00027167)
(1.06604e-05 -0.000764112 -0.00027167)
(7.72169e-05 -0.000760279 -0.000271669)
(0.000143186 -0.000750657 -0.000271668)
(0.000208062 -0.000735321 -0.000271664)
(0.000271356 -0.000714388 -0.000271664)
(0.000332585 -0.000688019 -0.000271667)
(0.000391283 -0.000656413 -0.000271669)
(0.000447006 -0.000619812 -0.00027167)
(0.000499328 -0.000578495 -0.000271671)
(0.000547849 -0.000532775 -0.000271669)
(0.000592199 -0.000483 -0.000271667)
(0.000632037 -0.000429549 -0.000271665)
(0.000667069 -0.000372828 -0.000271667)
(0.000697027 -0.000313268 -0.000271671)
(0.000721679 -0.000251328 -0.000271668)
(0.000740837 -0.000187472 -0.000271668)
(0.000754356 -0.000122192 -0.000271667)
(0.000762134 -5.59794e-05 -0.00027167)
(0.000764112 1.06604e-05 -0.00027167)
(0.000760279 7.72169e-05 -0.000271669)
(0.000750657 0.000143186 -0.000271668)
(0.000735321 0.000208062 -0.000271664)
(0.000714388 0.000271356 -0.000271664)
(0.000688019 0.000332585 -0.000271667)
(0.000656413 0.000391283 -0.000271669)
(0.000619812 0.000447006 -0.00027167)
(0.000578495 0.000499328 -0.000271671)
(0.000532775 0.000547849 -0.000271669)
(0.000483 0.000592199 -0.000271667)
(0.000429549 0.000632037 -0.000271665)
(0.000372828 0.000667069 -0.000271667)
(0.000313268 0.000697027 -0.000271671)
(0.000251328 0.000721679 -0.000271668)
(0.000187472 0.000740837 -0.000271668)
(0.000122192 0.000754356 -0.000271667)
(5.59794e-05 0.000762134 -0.00027167)
(-1.06604e-05 0.000764112 -0.00027167)
(-7.72169e-05 0.000760279 -0.000271669)
(-0.000143186 0.000750657 -0.000271668)
(-0.000208062 0.000735321 -0.000271664)
(-0.000271356 0.000714388 -0.000271664)
(-0.000332585 0.000688019 -0.000271667)
(-0.000391283 0.000656413 -0.000271669)
(-0.000447006 0.000619812 -0.00027167)
(-0.000499328 0.000578495 -0.000271671)
(-0.000547849 0.000532775 -0.000271669)
(-0.000592199 0.000483 -0.000271667)
(-0.000632037 0.000429549 -0.000271665)
(-0.000667069 0.000372828 -0.000271667)
(-0.000697027 0.000313268 -0.000271671)
(-0.000721679 0.000251328 -0.000271668)
(-0.000609648 0.000337028 -0.000146507)
(-0.000636701 0.000282612 -0.000146507)
(-0.00065891 0.000226044 -0.000146508)
(-0.000676103 0.000167755 -0.000146508)
(-0.000688152 0.00010819 -0.000146507)
(-0.000694963 4.78019e-05 -0.000146507)
(-0.000696484 -1.295e-05 -0.000146506)
(-0.000692705 -7.36017e-05 -0.000146505)
(-0.000683655 -0.000133693 -0.000146505)
(-0.000669402 -0.000192769 -0.000146507)
(-0.000650053 -0.000250378 -0.000146508)
(-0.000625758 -0.000306083 -0.000146507)
(-0.0005967 -0.000359458 -0.000146507)
(-0.000563101 -0.000410095 -0.000146506)
(-0.000525216 -0.000457611 -0.000146506)
(-0.000483334 -0.000501645 -0.000146506)
(-0.000437772 -0.000541861 -0.000146508)
(-0.00038888 -0.000577954 -0.000146507)
(-0.000337028 -0.000609648 -0.000146507)
(-0.000282612 -0.000636701 -0.000146507)
(-0.000226044 -0.00065891 -0.000146508)
(-0.000167755 -0.000676103 -0.000146508)
(-0.00010819 -0.000688152 -0.000146507)
(-4.78019e-05 -0.000694963 -0.000146507)
(1.29499e-05 -0.000696484 -0.000146506)
(7.36017e-05 -0.000692705 -0.000146505)
(0.000133693 -0.000683655 -0.000146505)
(0.000192769 -0.000669402 -0.000146507)
(0.000250378 -0.000650053 -0.000146508)
(0.000306083 -0.000625758 -0.000146507)
(0.000359458 -0.0005967 -0.000146506)
(0.000410095 -0.000563101 -0.000146506)
(0.000457611 -0.000525216 -0.000146506)
(0.000501645 -0.000483334 -0.000146506)
(0.000541861 -0.000437772 -0.000146508)
(0.000577954 -0.00038888 -0.000146507)
(0.000609648 -0.000337028 -0.000146507)
(0.000636701 -0.000282612 -0.000146507)
(0.00065891 -0.000226044 -0.000146508)
(0.000676103 -0.000167755 -0.000146508)
(0.000688152 -0.00010819 -0.000146507)
(0.000694963 -4.7802e-05 -0.000146507)
(0.000696484 1.29499e-05 -0.000146506)
(0.000692705 7.36017e-05 -0.000146505)
(0.000683655 0.000133693 -0.000146505)
(0.000669402 0.000192769 -0.000146507)
(0.000650053 0.000250378 -0.000146508)
(0.000625758 0.000306083 -0.000146507)
(0.0005967 0.000359458 -0.000146506)
(0.000563101 0.000410095 -0.000146506)
(0.000525216 0.000457611 -0.000146506)
(0.000483334 0.000501645 -0.000146506)
(0.000437772 0.000541861 -0.000146508)
(0.00038888 0.000577954 -0.000146507)
(0.000337028 0.000609648 -0.000146507)
(0.000282612 0.000636701 -0.000146507)
(0.000226044 0.00065891 -0.000146508)
(0.000167755 0.000676103 -0.000146508)
(0.00010819 0.000688152 -0.000146507)
(4.78019e-05 0.000694963 -0.000146507)
(-1.29499e-05 0.000696484 -0.000146506)
(-7.36017e-05 0.000692705 -0.000146505)
(-0.000133693 0.000683655 -0.000146505)
(-0.000192769 0.000669402 -0.000146507)
(-0.000250378 0.000650053 -0.000146508)
(-0.000306083 0.000625758 -0.000146507)
(-0.000359458 0.0005967 -0.000146506)
(-0.000410095 0.000563101 -0.000146506)
(-0.000457611 0.000525216 -0.000146506)
(-0.000501645 0.000483334 -0.000146506)
(-0.000541861 0.000437772 -0.000146508)
(-0.000577954 0.00038888 -0.000146507)
(-0.000541096 0.000584429 -6.44786e-06)
(-0.000589973 0.000535046 -6.4476e-06)
(-0.00063436 0.000481589 -6.44696e-06)
(-0.000673919 0.000424467 -6.44767e-06)
(-0.000708352 0.000364117 -6.44823e-06)
(-0.00073739 0.000300995 -6.44813e-06)
(-0.000760816 0.000235581 -6.44746e-06)
(-0.000778454 0.000168376 -6.44817e-06)
(-0.000790169 9.98906e-05 -6.44774e-06)
(-0.000795869 3.06424e-05 -6.4484e-06)
(-0.000795509 -3.88399e-05 -6.44779e-06)
(-0.000789098 -0.000108026 -6.44718e-06)
(-0.000776679 -0.000176391 -6.44664e-06)
(-0.000758352 -0.000243412 -6.44769e-06)
(-0.00073425 -0.000308579 -6.44883e-06)
(-0.000704563 -0.000371398 -6.4484e-06)
(-0.000669511 -0.00043139 -6.44774e-06)
(-0.000629365 -0.000488101 -6.44761e-06)
(-0.000584429 -0.000541096 -6.44787e-06)
(-0.000535046 -0.000589973 -6.44762e-06)
(-0.00048159 -0.00063436 -6.44697e-06)
(-0.000424467 -0.000673919 -6.44769e-06)
(-0.000364117 -0.000708352 -6.44825e-06)
(-0.000300995 -0.00073739 -6.44816e-06)
(-0.000235581 -0.000760816 -6.44749e-06)
(-0.000168376 -0.000778454 -6.4482e-06)
(-9.98906e-05 -0.000790169 -6.44777e-06)
(-3.06425e-05 -0.000795869 -6.44843e-06)
(3.88399e-05 -0.000795509 -6.4478e-06)
(0.000108026 -0.000789098 -6.44718e-06)
(0.000176391 -0.000776679 -6.44663e-06)
(0.000243412 -0.000758352 -6.44767e-06)
(0.000308579 -0.00073425 -6.4488e-06)
(0.000371398 -0.000704563 -6.44836e-06)
(0.00043139 -0.000669511 -6.44771e-06)
(0.000488101 -0.000629365 -6.44759e-06)
(0.000541096 -0.000584429 -6.44786e-06)
(0.000589973 -0.000535046 -6.44761e-06)
(0.00063436 -0.00048159 -6.44697e-06)
(0.000673919 -0.000424467 -6.44769e-06)
(0.000708352 -0.000364117 -6.44825e-06)
(0.00073739 -0.000300995 -6.44815e-06)
(0.000760816 -0.000235581 -6.44748e-06)
(0.000778454 -0.000168376 -6.4482e-06)
(0.000790169 -9.98907e-05 -6.44776e-06)
(0.000795869 -3.06425e-05 -6.44842e-06)
(0.000795509 3.88399e-05 -6.44779e-06)
(0.000789098 0.000108026 -6.44717e-06)
(0.000776679 0.000176391 -6.44662e-06)
(0.000758352 0.000243412 -6.44766e-06)
(0.00073425 0.000308579 -6.44879e-06)
(0.000704563 0.000371398 -6.44835e-06)
(0.000669511 0.00043139 -6.4477e-06)
(0.000629365 0.000488101 -6.44757e-06)
(0.000584429 0.000541096 -6.44783e-06)
(0.000535046 0.000589973 -6.44759e-06)
(0.000481589 0.00063436 -6.44695e-06)
(0.000424467 0.000673919 -6.44767e-06)
(0.000364117 0.000708352 -6.44824e-06)
(0.000300995 0.00073739 -6.44816e-06)
(0.000235581 0.000760816 -6.44749e-06)
(0.000168376 0.000778454 -6.44822e-06)
(9.98907e-05 0.000790169 -6.44778e-06)
(3.06425e-05 0.000795869 -6.44844e-06)
(-3.88398e-05 0.000795509 -6.44781e-06)
(-0.000108026 0.000789098 -6.4472e-06)
(-0.000176391 0.000776679 -6.44665e-06)
(-0.000243412 0.000758352 -6.44768e-06)
(-0.000308579 0.00073425 -6.44881e-06)
(-0.000371398 0.000704563 -6.44838e-06)
(-0.00043139 0.000669511 -6.44772e-06)
(-0.000488101 0.000629365 -6.4476e-06)
(-0.00179609 0.000568834 -0.000804519)
(-0.00183883 0.000410129 -0.000804517)
(-0.00186758 0.000248302 -0.000804522)
(-0.00188211 8.45848e-05 -0.000804523)
(-0.00188233 -7.97753e-05 -0.000804522)
(-0.00186822 -0.000243527 -0.000804517)
(-0.00183988 -0.000405423 -0.000804511)
(-0.00179755 -0.000564233 -0.000804508)
(-0.00174153 -0.000718749 -0.000804508)
(-0.00167226 -0.000867796 -0.000804511)
(-0.00159026 -0.00101024 -0.000804517)
(-0.00149616 -0.001145 -0.00080452)
(-0.00139067 -0.00127105 -0.000804519)
(-0.0012746 -0.00138742 -0.000804516)
(-0.00114883 -0.00149322 -0.000804515)
(-0.00101431 -0.00158766 -0.000804515)
(-0.000872078 -0.00167003 -0.000804522)
(-0.000723208 -0.00173968 -0.00080452)
(-0.000568834 -0.00179609 -0.000804519)
(-0.000410129 -0.00183883 -0.000804517)
(-0.000248302 -0.00186758 -0.000804522)
(-8.45847e-05 -0.00188211 -0.000804523)
(7.97753e-05 -0.00188233 -0.000804522)
(0.000243527 -0.00186822 -0.000804517)
(0.000405423 -0.00183988 -0.000804511)
(0.000564233 -0.00179755 -0.000804508)
(0.000718749 -0.00174153 -0.000804508)
(0.000867796 -0.00167226 -0.000804511)
(0.00101024 -0.00159026 -0.000804517)
(0.001145 -0.00149616 -0.00080452)
(0.00127105 -0.00139067 -0.000804518)
(0.00138742 -0.0012746 -0.000804516)
(0.00149322 -0.00114883 -0.000804515)
(0.00158766 -0.00101431 -0.000804515)
(0.00167003 -0.000872078 -0.000804522)
(0.00173968 -0.000723208 -0.00080452)
(0.00179609 -0.000568834 -0.000804519)
(0.00183883 -0.000410129 -0.000804517)
(0.00186758 -0.000248302 -0.000804522)
(0.00188211 -8.45848e-05 -0.000804523)
(0.00188233 7.97752e-05 -0.000804522)
(0.00186822 0.000243527 -0.000804517)
(0.00183988 0.000405423 -0.000804511)
(0.00179755 0.000564233 -0.000804508)
(0.00174153 0.000718749 -0.000804508)
(0.00167226 0.000867796 -0.000804511)
(0.00159026 0.00101024 -0.000804517)
(0.00149616 0.001145 -0.00080452)
(0.00139067 0.00127105 -0.000804518)
(0.0012746 0.00138742 -0.000804515)
(0.00114883 0.00149322 -0.000804515)
(0.00101431 0.00158766 -0.000804515)
(0.000872078 0.00167003 -0.000804522)
(0.000723208 0.00173968 -0.00080452)
(0.000568834 0.00179609 -0.000804519)
(0.000410129 0.00183883 -0.000804517)
(0.000248302 0.00186758 -0.000804522)
(8.45847e-05 0.00188211 -0.000804523)
(-7.97753e-05 0.00188233 -0.000804522)
(-0.000243527 0.00186822 -0.000804517)
(-0.000405423 0.00183988 -0.000804511)
(-0.000564233 0.00179755 -0.000804508)
(-0.000718749 0.00174153 -0.000804508)
(-0.000867796 0.00167226 -0.000804511)
(-0.00101024 0.00159026 -0.000804517)
(-0.001145 0.00149616 -0.00080452)
(-0.00127105 0.00139067 -0.000804518)
(-0.00138742 0.0012746 -0.000804516)
(-0.00149322 0.00114883 -0.000804515)
(-0.00158766 0.00101431 -0.000804515)
(-0.00167003 0.000872078 -0.000804522)
(-0.00173968 0.000723208 -0.00080452)
(-0.00176874 0.0011014 -0.000448661)
(-0.001858 0.000943056 -0.00044866)
(-0.00193312 0.00077753 -0.000448662)
(-0.00199353 0.000606087 -0.000448662)
(-0.00203877 0.000430033 -0.000448661)
(-0.0020685 0.000250706 -0.000448659)
(-0.00208248 6.94733e-05 -0.000448656)
(-0.00208061 -0.000112289 -0.000448656)
(-0.0020629 -0.000293197 -0.000448655)
(-0.0020295 -0.000471875 -0.000448655)
(-0.00198065 -0.000646963 -0.000448657)
(-0.00191673 -0.000817129 -0.000448658)
(-0.00183821 -0.000981076 -0.000448659)
(-0.00174572 -0.00113755 -0.000448658)
(-0.00163993 -0.00128537 -0.000448658)
(-0.00152166 -0.00142341 -0.000448659)
(-0.00139181 -0.00155061 -0.000448661)
(-0.00125137 -0.00166602 -0.00044866)
(-0.0011014 -0.00176874 -0.000448661)
(-0.000943056 -0.001858 -0.00044866)
(-0.00077753 -0.00193312 -0.000448662)
(-0.000606087 -0.00199353 -0.000448662)
(-0.000430033 -0.00203877 -0.000448661)
(-0.000250706 -0.0020685 -0.000448659)
(-6.94734e-05 -0.00208248 -0.000448656)
(0.000112289 -0.00208061 -0.000448656)
(0.000293197 -0.0020629 -0.000448655)
(0.000471875 -0.0020295 -0.000448655)
(0.000646963 -0.00198065 -0.000448657)
(0.000817128 -0.00191673 -0.000448658)
(0.000981076 -0.00183821 -0.000448659)
(0.00113755 -0.00174572 -0.000448658)
(0.00128537 -0.00163993 -0.000448658)
(0.00142341 -0.00152166 -0.000448658)
(0.00155061 -0.00139181 -0.000448661)
(0.00166602 -0.00125137 -0.00044866)
(0.00176874 -0.0011014 -0.000448661)
(0.001858 -0.000943056 -0.00044866)
(0.00193312 -0.00077753 -0.000448662)
(0.00199353 -0.000606087 -0.000448662)
(0.00203877 -0.000430033 -0.000448661)
(0.0020685 -0.000250706 -0.000448659)
(0.00208248 -6.94735e-05 -0.000448656)
(0.00208061 0.000112289 -0.000448656)
(0.0020629 0.000293197 -0.000448655)
(0.0020295 0.000471875 -0.000448655)
(0.00198065 0.000646963 -0.000448657)
(0.00191673 0.000817128 -0.000448658)
(0.00183821 0.000981076 -0.000448659)
(0.00174572 0.00113755 -0.000448658)
(0.00163993 0.00128537 -0.000448658)
(0.00152166 0.00142341 -0.000448658)
(0.00139181 0.00155061 -0.000448661)
(0.00125137 0.00166602 -0.00044866)
(0.0011014 0.00176874 -0.000448661)
(0.000943056 0.001858 -0.00044866)
(0.00077753 0.00193312 -0.000448662)
(0.000606087 0.00199353 -0.000448662)
(0.000430033 0.00203877 -0.000448661)
(0.000250706 0.0020685 -0.000448659)
(6.94734e-05 0.00208248 -0.000448656)
(-0.000112289 0.00208061 -0.000448656)
(-0.000293197 0.0020629 -0.000448655)
(-0.000471875 0.0020295 -0.000448655)
(-0.000646963 0.00198065 -0.000448657)
(-0.000817128 0.00191673 -0.000448658)
(-0.000981076 0.00183821 -0.000448659)
(-0.00113755 0.00174572 -0.000448658)
(-0.00128537 0.00163993 -0.000448658)
(-0.00142341 0.00152166 -0.000448658)
(-0.00155061 0.00139181 -0.000448661)
(-0.00166602 0.00125137 -0.00044866)
(-0.00183417 0.00176692 -9.45515e-05)
(-0.00198119 0.00160034 -9.45504e-05)
(-0.00211313 0.00142158 -9.45494e-05)
(-0.00222899 0.001232 -9.45505e-05)
(-0.00232788 0.00103304 -9.45502e-05)
(-0.00240906 0.00082622 -9.45505e-05)
(-0.0024719 0.000613114 -9.45507e-05)
(-0.00251593 0.000395342 -9.45511e-05)
(-0.00254081 0.000174561 -9.45503e-05)
(-0.00254636 -4.75509e-05 -9.45481e-05)
(-0.00253253 -0.000269302 -9.45474e-05)
(-0.00249942 -0.000489004 -9.45486e-05)
(-0.00244729 -0.000704983 -9.45494e-05)
(-0.00237653 -0.000915594 -9.45508e-05)
(-0.00228769 -0.00111924 -9.45507e-05)
(-0.00218144 -0.00131436 -9.45498e-05)
(-0.00205858 -0.00149949 -9.45503e-05)
(-0.00192006 -0.0016732 -9.455e-05)
(-0.00176692 -0.00183417 -9.45515e-05)
(-0.00160034 -0.00198119 -9.45504e-05)
(-0.00142158 -0.00211313 -9.45494e-05)
(-0.001232 -0.00222899 -9.45505e-05)
(-0.00103304 -0.00232788 -9.45503e-05)
(-0.000826221 -0.00240906 -9.45506e-05)
(-0.000613114 -0.0024719 -9.45507e-05)
(-0.000395342 -0.00251593 -9.45511e-05)
(-0.000174561 -0.00254081 -9.45504e-05)
(4.75508e-05 -0.00254636 -9.45482e-05)
(0.000269302 -0.00253253 -9.45475e-05)
(0.000489003 -0.00249942 -9.45487e-05)
(0.000704983 -0.00244729 -9.45493e-05)
(0.000915594 -0.00237653 -9.45507e-05)
(0.00111924 -0.00228769 -9.45506e-05)
(0.00131436 -0.00218144 -9.45497e-05)
(0.00149949 -0.00205858 -9.45502e-05)
(0.0016732 -0.00192006 -9.45499e-05)
(0.00183417 -0.00176692 -9.45515e-05)
(0.00198119 -0.00160034 -9.45504e-05)
(0.00211313 -0.00142158 -9.45494e-05)
(0.00222899 -0.001232 -9.45505e-05)
(0.00232788 -0.00103304 -9.45503e-05)
(0.00240906 -0.000826221 -9.45506e-05)
(0.0024719 -0.000613114 -9.45507e-05)
(0.00251593 -0.000395342 -9.45511e-05)
(0.00254081 -0.000174561 -9.45504e-05)
(0.00254636 4.75507e-05 -9.45481e-05)
(0.00253253 0.000269302 -9.45475e-05)
(0.00249942 0.000489003 -9.45486e-05)
(0.00244729 0.000704982 -9.45493e-05)
(0.00237653 0.000915594 -9.45507e-05)
(0.00228769 0.00111924 -9.45506e-05)
(0.00218144 0.00131436 -9.45497e-05)
(0.00205858 0.00149949 -9.45501e-05)
(0.00192006 0.0016732 -9.45499e-05)
(0.00176692 0.00183417 -9.45514e-05)
(0.00160034 0.00198119 -9.45503e-05)
(0.00142158 0.00211313 -9.45493e-05)
(0.001232 0.00222899 -9.45504e-05)
(0.00103304 0.00232788 -9.45502e-05)
(0.000826221 0.00240906 -9.45506e-05)
(0.000613114 0.0024719 -9.45507e-05)
(0.000395342 0.00251593 -9.45512e-05)
(0.000174561 0.00254081 -9.45505e-05)
(-4.75507e-05 0.00254636 -9.45482e-05)
(-0.000269302 0.00253253 -9.45475e-05)
(-0.000489003 0.00249942 -9.45487e-05)
(-0.000704982 0.00244729 -9.45494e-05)
(-0.000915594 0.00237653 -9.45507e-05)
(-0.00111924 0.00228769 -9.45507e-05)
(-0.00131436 0.00218144 -9.45498e-05)
(-0.00149949 0.00205858 -9.45502e-05)
(-0.0016732 0.00192006 -9.45499e-05)
(-0.00257576 0.00110977 -0.00134999)
(-0.00266268 0.000881057 -0.00134999)
(-0.00272933 0.000645637 -0.00135)
(-0.00277522 0.000405304 -0.00134999)
(-0.00279998 0.000161885 -0.00134999)
(-0.00280344 -8.27669e-05 -0.00134999)
(-0.00278556 -0.000326786 -0.00134998)
(-0.00274648 -0.000568317 -0.00134998)
(-0.0026865 -0.000805526 -0.00134998)
(-0.00260607 -0.0010366 -0.00134998)
(-0.0025058 -0.00125979 -0.00134998)
(-0.00238647 -0.00147339 -0.00134999)
(-0.00224897 -0.00167578 -0.00134999)
(-0.00209436 -0.00186542 -0.00134999)
(-0.00192381 -0.00204085 -0.00134999)
(-0.00173861 -0.00220075 -0.00134999)
(-0.00154019 -0.00234391 -0.00134999)
(-0.00133004 -0.00246923 -0.00134999)
(-0.00110977 -0.00257576 -0.00134999)
(-0.000881057 -0.00266268 -0.00134999)
(-0.000645637 -0.00272933 -0.00135)
(-0.000405304 -0.00277522 -0.00134999)
(-0.000161884 -0.00279998 -0.00134999)
(8.27669e-05 -0.00280344 -0.00134999)
(0.000326785 -0.00278556 -0.00134998)
(0.000568317 -0.00274648 -0.00134998)
(0.000805525 -0.0026865 -0.00134998)
(0.0010366 -0.00260607 -0.00134998)
(0.00125979 -0.0025058 -0.00134998)
(0.00147339 -0.00238647 -0.00134999)
(0.00167578 -0.00224897 -0.00134999)
(0.00186542 -0.00209436 -0.00134999)
(0.00204085 -0.00192381 -0.00134999)
(0.00220075 -0.00173861 -0.00134999)
(0.00234391 -0.00154019 -0.00134999)
(0.00246923 -0.00133004 -0.00134999)
(0.00257576 -0.00110977 -0.00134999)
(0.00266268 -0.000881057 -0.00134999)
(0.00272933 -0.000645637 -0.00135)
(0.00277522 -0.000405304 -0.00134999)
(0.00279998 -0.000161885 -0.00134999)
(0.00280344 8.27668e-05 -0.00134999)
(0.00278556 0.000326785 -0.00134998)
(0.00274648 0.000568316 -0.00134998)
(0.0026865 0.000805525 -0.00134998)
(0.00260607 0.0010366 -0.00134998)
(0.0025058 0.00125979 -0.00134998)
(0.00238647 0.00147339 -0.00134999)
(0.00224897 0.00167578 -0.00134999)
(0.00209436 0.00186542 -0.00134999)
(0.00192381 0.00204085 -0.00134999)
(0.00173861 0.00220075 -0.00134999)
(0.00154019 0.00234391 -0.00134999)
(0.00133004 0.00246923 -0.00134999)
(0.00110977 0.00257576 -0.00134999)
(0.000881057 0.00266268 -0.00134999)
(0.000645637 0.00272933 -0.00135)
(0.000405304 0.00277522 -0.00134999)
(0.000161884 0.00279998 -0.00134999)
(-8.27669e-05 0.00280344 -0.00134999)
(-0.000326785 0.00278556 -0.00134998)
(-0.000568317 0.00274648 -0.00134998)
(-0.000805525 0.0026865 -0.00134998)
(-0.0010366 0.00260607 -0.00134998)
(-0.00125979 0.0025058 -0.00134998)
(-0.00147339 0.00238647 -0.00134999)
(-0.00167578 0.00224897 -0.00134999)
(-0.00186542 0.00209436 -0.00134999)
(-0.00204085 0.00192381 -0.00134999)
(-0.00220075 0.00173861 -0.00134999)
(-0.00234391 0.00154019 -0.00134999)
(-0.00246923 0.00133004 -0.00134999)
(-0.00270588 0.00197297 -0.000846301)
(-0.00286753 0.00172963 -0.000846301)
(-0.00300737 0.00147312 -0.000846302)
(-0.00312431 0.00120541 -0.000846302)
(-0.00321748 0.000928519 -0.000846301)
(-0.00328616 0.000644563 -0.000846301)
(-0.00332984 0.000355705 -0.000846297)
(-0.00334817 6.41369e-05 -0.000846297)
(-0.00334102 -0.000227919 -0.000846296)
(-0.00330844 -0.00051824 -0.000846295)
(-0.00325069 -0.000804618 -0.000846297)
(-0.00316819 -0.00108487 -0.000846297)
(-0.00306158 -0.00135687 -0.000846299)
(-0.00293167 -0.00161854 -0.000846297)
(-0.00277945 -0.0018679 -0.000846297)
(-0.00260607 -0.00210303 -0.000846299)
(-0.00241286 -0.00232216 -0.0008463)
(-0.00220129 -0.00252362 -0.0008463)
(-0.00197297 -0.00270588 -0.000846301)
(-0.00172963 -0.00286753 -0.000846301)
(-0.00147312 -0.00300737 -0.000846302)
(-0.00120541 -0.00312431 -0.000846302)
(-0.000928519 -0.00321748 -0.000846301)
(-0.000644563 -0.00328616 -0.000846301)
(-0.000355705 -0.00332984 -0.000846297)
(-6.41372e-05 -0.00334817 -0.000846297)
(0.000227918 -0.00334102 -0.000846296)
(0.00051824 -0.00330844 -0.000846296)
(0.000804618 -0.00325069 -0.000846297)
(0.00108487 -0.00316819 -0.000846297)
(0.00135687 -0.00306158 -0.000846299)
(0.00161854 -0.00293167 -0.000846296)
(0.0018679 -0.00277945 -0.000846297)
(0.00210303 -0.00260607 -0.000846298)
(0.00232216 -0.00241286 -0.0008463)
(0.00252362 -0.00220129 -0.0008463)
(0.00270588 -0.00197297 -0.000846301)
(0.00286753 -0.00172963 -0.000846301)
(0.00300737 -0.00147312 -0.000846302)
(0.00312431 -0.00120541 -0.000846302)
(0.00321748 -0.000928519 -0.000846301)
(0.00328616 -0.000644563 -0.000846301)
(0.00332984 -0.000355705 -0.000846297)
(0.00334817 -6.41373e-05 -0.000846297)
(0.00334102 0.000227918 -0.000846296)
(0.00330844 0.00051824 -0.000846295)
(0.00325069 0.000804618 -0.000846297)
(0.00316819 0.00108487 -0.000846297)
(0.00306158 0.00135687 -0.000846298)
(0.00293167 0.00161854 -0.000846296)
(0.00277945 0.0018679 -0.000846297)
(0.00260607 0.00210303 -0.000846298)
(0.00241286 0.00232216 -0.0008463)
(0.00220129 0.00252362 -0.0008463)
(0.00197297 0.00270588 -0.000846301)
(0.00172963 0.00286753 -0.000846301)
(0.00147312 0.00300737 -0.000846302)
(0.00120541 0.00312431 -0.000846302)
(0.000928519 0.00321748 -0.000846301)
(0.000644563 0.00328616 -0.000846301)
(0.000355705 0.00332984 -0.000846297)
(6.41372e-05 0.00334817 -0.000846297)
(-0.000227918 0.00334102 -0.000846296)
(-0.00051824 0.00330844 -0.000846296)
(-0.000804618 0.00325069 -0.000846297)
(-0.00108487 0.00316819 -0.000846297)
(-0.00135687 0.00306158 -0.000846299)
(-0.00161854 0.00293167 -0.000846296)
(-0.0018679 0.00277945 -0.000846297)
(-0.00210303 0.00260607 -0.000846298)
(-0.00232216 0.00241286 -0.0008463)
(-0.00252362 0.00220129 -0.0008463)
(-0.00295304 0.0028934 -0.000385906)
(-0.00319398 0.00262502 -0.000385905)
(-0.00341061 0.00233665 -0.000385905)
(-0.00360129 0.00203051 -0.000385907)
(-0.00376455 0.00170891 -0.000385907)
(-0.00389917 0.0013743 -0.000385907)
(-0.00400411 0.00102924 -0.000385907)
(-0.00407858 0.000676344 -0.000385907)
(-0.00412201 0.000318298 -0.000385907)
(-0.00413406 -4.21705e-05 -0.000385905)
(-0.00411466 -0.000402319 -0.000385905)
(-0.00406393 -0.000759405 -0.000385905)
(-0.00398228 -0.00111071 -0.000385905)
(-0.00387032 -0.00145356 -0.000385905)
(-0.00372891 -0.00178535 -0.000385905)
(-0.00355912 -0.00210355 -0.000385905)
(-0.00336223 -0.00240575 -0.000385905)
(-0.00313977 -0.00268963 -0.000385906)
(-0.0028934 -0.00295304 -0.000385906)
(-0.00262502 -0.00319398 -0.000385905)
(-0.00233665 -0.00341061 -0.000385905)
(-0.00203051 -0.00360129 -0.000385907)
(-0.00170891 -0.00376455 -0.000385908)
(-0.0013743 -0.00389917 -0.000385907)
(-0.00102924 -0.00400411 -0.000385907)
(-0.000676344 -0.00407858 -0.000385907)
(-0.000318298 -0.00412201 -0.000385907)
(4.21704e-05 -0.00413406 -0.000385905)
(0.000402318 -0.00411466 -0.000385905)
(0.000759405 -0.00406394 -0.000385905)
(0.00111071 -0.00398228 -0.000385905)
(0.00145356 -0.00387032 -0.000385905)
(0.00178535 -0.00372891 -0.000385905)
(0.00210355 -0.00355912 -0.000385905)
(0.00240575 -0.00336224 -0.000385905)
(0.00268963 -0.00313977 -0.000385906)
(0.00295304 -0.0028934 -0.000385906)
(0.00319398 -0.00262502 -0.000385905)
(0.00341061 -0.00233665 -0.000385905)
(0.00360129 -0.00203051 -0.000385906)
(0.00376455 -0.00170891 -0.000385907)
(0.00389917 -0.0013743 -0.000385907)
(0.00400411 -0.00102924 -0.000385907)
(0.00407858 -0.000676344 -0.000385907)
(0.00412201 -0.000318298 -0.000385907)
(0.00413406 4.21703e-05 -0.000385905)
(0.00411466 0.000402318 -0.000385905)
(0.00406394 0.000759405 -0.000385905)
(0.00398228 0.00111071 -0.000385905)
(0.00387032 0.00145356 -0.000385905)
(0.00372891 0.00178535 -0.000385905)
(0.00355912 0.00210355 -0.000385905)
(0.00336224 0.00240575 -0.000385905)
(0.00313977 0.00268963 -0.000385906)
(0.0028934 0.00295304 -0.000385906)
(0.00262502 0.00319398 -0.000385905)
(0.00233665 0.00341061 -0.000385905)
(0.00203051 0.00360129 -0.000385906)
(0.00170891 0.00376455 -0.000385907)
(0.0013743 0.00389917 -0.000385907)
(0.00102924 0.00400411 -0.000385907)
(0.000676344 0.00407858 -0.000385907)
(0.000318298 0.00412201 -0.000385907)
(-4.21703e-05 0.00413406 -0.000385905)
(-0.000402318 0.00411466 -0.000385905)
(-0.000759405 0.00406393 -0.000385905)
(-0.00111071 0.00398228 -0.000385905)
(-0.00145356 0.00387032 -0.000385905)
(-0.00178535 0.00372891 -0.000385905)
(-0.00210355 0.00355912 -0.000385905)
(-0.00240575 0.00336223 -0.000385905)
(-0.00268963 0.00313977 -0.000385906)
(-0.00301481 0.00190755 -0.00192605)
(-0.00316959 0.00163754 -0.00192606)
(-0.00330025 0.00135506 -0.00192606)
(-0.00340579 0.00106227 -0.00192606)
(-0.00348541 0.000761391 -0.00192606)
(-0.00353851 0.000454719 -0.00192606)
(-0.00356468 0.000144589 -0.00192605)
(-0.00356371 -0.000166643 -0.00192605)
(-0.00353563 -0.000476606 -0.00192605)
(-0.00348063 -0.000782944 -0.00192605)
(-0.00339915 -0.00108332 -0.00192605)
(-0.0032918 -0.00137546 -0.00192605)
(-0.00315939 -0.00165712 -0.00192605)
(-0.00300294 -0.00192617 -0.00192605)
(-0.00282364 -0.00218057 -0.00192605)
(-0.00262285 -0.00241837 -0.00192605)
(-0.00240209 -0.00263776 -0.00192605)
(-0.00216305 -0.00283708 -0.00192605)
(-0.00190755 -0.00301481 -0.00192605)
(-0.00163754 -0.00316959 -0.00192606)
(-0.00135506 -0.00330025 -0.00192606)
(-0.00106227 -0.00340579 -0.00192606)
(-0.000761391 -0.00348541 -0.00192606)
(-0.000454719 -0.00353851 -0.00192606)
(-0.000144589 -0.00356468 -0.00192605)
(0.000166643 -0.00356371 -0.00192605)
(0.000476606 -0.00353563 -0.00192605)
(0.000782944 -0.00348063 -0.00192605)
(0.00108332 -0.00339915 -0.00192605)
(0.00137546 -0.0032918 -0.00192605)
(0.00165712 -0.00315939 -0.00192605)
(0.00192617 -0.00300294 -0.00192605)
(0.00218057 -0.00282364 -0.00192605)
(0.00241837 -0.00262285 -0.00192605)
(0.00263776 -0.00240209 -0.00192605)
(0.00283708 -0.00216305 -0.00192605)
(0.00301481 -0.00190755 -0.00192605)
(0.00316959 -0.00163754 -0.00192606)
(0.00330025 -0.00135506 -0.00192606)
(0.00340579 -0.00106227 -0.00192606)
(0.00348541 -0.000761391 -0.00192606)
(0.00353851 -0.000454719 -0.00192606)
(0.00356468 -0.00014459 -0.00192605)
(0.00356371 0.000166643 -0.00192605)
(0.00353563 0.000476606 -0.00192605)
(0.00348063 0.000782943 -0.00192605)
(0.00339915 0.00108332 -0.00192605)
(0.0032918 0.00137545 -0.00192605)
(0.00315939 0.00165712 -0.00192605)
(0.00300294 0.00192617 -0.00192605)
(0.00282364 0.00218057 -0.00192605)
(0.00262285 0.00241837 -0.00192605)
(0.00240209 0.00263776 -0.00192605)
(0.00216305 0.00283708 -0.00192605)
(0.00190755 0.00301481 -0.00192605)
(0.00163754 0.00316959 -0.00192606)
(0.00135506 0.00330025 -0.00192606)
(0.00106227 0.00340579 -0.00192606)
(0.000761391 0.00348541 -0.00192606)
(0.000454719 0.00353851 -0.00192606)
(0.00014459 0.00356468 -0.00192605)
(-0.000166643 0.00356371 -0.00192605)
(-0.000476606 0.00353563 -0.00192605)
(-0.000782943 0.00348063 -0.00192605)
(-0.00108332 0.00339915 -0.00192605)
(-0.00137545 0.0032918 -0.00192605)
(-0.00165712 0.00315939 -0.00192605)
(-0.00192617 0.00300294 -0.00192605)
(-0.00218057 0.00282364 -0.00192605)
(-0.00241837 0.00262285 -0.00192605)
(-0.00263776 0.00240209 -0.00192605)
(-0.00283708 0.00216305 -0.00192605)
(-0.00329121 0.00291597 -0.00135942)
(-0.00353283 0.00261802 -0.00135942)
(-0.00374756 0.00230016 -0.00135942)
(-0.00393377 0.00196478 -0.00135942)
(-0.00409004 0.00161446 -0.00135942)
(-0.00421519 0.00125184 -0.00135942)
(-0.00430825 0.0008797 -0.00135942)
(-0.00436853 0.000500863 -0.00135942)
(-0.00439556 0.000118217 -0.00135942)
(-0.00438913 -0.000265331 -0.00135942)
(-0.00434931 -0.000646861 -0.00135942)
(-0.00427638 -0.00102347 -0.00135942)
(-0.00417091 -0.00139228 -0.00135942)
(-0.00403369 -0.0017505 -0.00135942)
(-0.00386577 -0.0020954 -0.00135942)
(-0.00366844 -0.00242435 -0.00135942)
(-0.00344318 -0.00273485 -0.00135942)
(-0.00319172 -0.00302454 -0.00135942)
(-0.00291597 -0.00329121 -0.00135942)
(-0.00261802 -0.00353283 -0.00135942)
(-0.00230016 -0.00374756 -0.00135942)
(-0.00196478 -0.00393377 -0.00135942)
(-0.00161446 -0.00409004 -0.00135942)
(-0.00125184 -0.00421519 -0.00135942)
(-0.0008797 -0.00430825 -0.00135942)
(-0.000500864 -0.00436853 -0.00135942)
(-0.000118217 -0.00439556 -0.00135942)
(0.000265331 -0.00438914 -0.00135942)
(0.000646861 -0.00434931 -0.00135942)
(0.00102347 -0.00427638 -0.00135942)
(0.00139228 -0.00417091 -0.00135942)
(0.0017505 -0.00403369 -0.00135942)
(0.0020954 -0.00386577 -0.00135942)
(0.00242435 -0.00366844 -0.00135942)
(0.00273485 -0.00344318 -0.00135942)
(0.00302454 -0.00319172 -0.00135942)
(0.00329121 -0.00291597 -0.00135942)
(0.00353283 -0.00261802 -0.00135942)