/*--------------------------------*- C++ -*----------------------------------*\
| =========                 |                                                 |
| \\      /  F ield         | OpenFOAM: The Open Source CFD Toolbox           |
|  \\    /   O peration     | Version:  2312                                  |
|   \\  /    A nd           | Website:  www.openfoam.com                      |
|    \\/     M anipulation  |                                                 |
\*---------------------------------------------------------------------------*/
FoamFile
{
    version     2.0;
    format      ascii;
    arch        "LSB;label=32;scalar=64";
    class       volVectorField;
    location    "0.5";
    object      D;
}
// * * * * * * * * * * * * * * * * * * * * * * * * * * * * * * * * * * * * * //

dimensions      [0 1 0 0 0 0 0];

internalField   nonuniform List<vector> 
3240
(
(-0.000370508 0.000169883 -0.000119576)
(-0.000383904 0.000136946 -0.000119575)
(-0.000394378 0.000102964 -0.000119576)
(-0.000401851 6.81985e-05 -0.000119577)
(-0.000406267 3.29152e-05 -0.000119576)
(-0.00040759 -2.61857e-06 -0.000119576)
(-0.000405811 -3.81311e-05 -0.000119574)
(-0.000400943 -7.33538e-05 -0.000119574)
(-0.000393024 -0.000108018 -0.000119575)
(-0.000382114 -0.000141861 -0.000119576)
(-0.000368296 -0.000174625 -0.000119576)
(-0.000351674 -0.000206061 -0.000119577)
(-0.000332377 -0.000235929 -0.000119576)
(-0.00031055 -0.000263999 -0.000119575)
(-0.000286359 -0.000290059 -0.000119574)
(-0.000259989 -0.000313913 -0.000119575)
(-0.00023164 -0.000335379 -0.000119577)
(-0.000201529 -0.000354292 -0.000119575)
(-0.000169883 -0.000370508 -0.000119576)
(-0.000136946 -0.000383904 -0.000119575)
(-0.000102964 -0.000394378 -0.000119576)
(-6.81985e-05 -0.000401851 -0.000119577)
(-3.29152e-05 -0.000406267 -0.000119576)
(2.61855e-06 -0.00040759 -0.000119576)
(3.81311e-05 -0.000405811 -0.000119574)
(7.33538e-05 -0.000400943 -0.000119574)
(0.000108018 -0.000393024 -0.000119575)
(0.000141861 -0.000382114 -0.000119576)
(0.000174625 -0.000368296 -0.000119576)
(0.000206061 -0.000351675 -0.000119577)
(0.000235929 -0.000332377 -0.000119576)
(0.000263999 -0.00031055 -0.000119575)
(0.000290059 -0.000286359 -0.000119574)
(0.000313913 -0.000259989 -0.000119575)
(0.000335379 -0.00023164 -0.000119577)
(0.000354292 -0.000201529 -0.000119575)
(0.000370508 -0.000169883 -0.000119576)
(0.000383904 -0.000136945 -0.000119575)
(0.000394378 -0.000102964 -0.000119576)
(0.000401851 -6.81985e-05 -0.000119577)
(0.000406267 -3.29152e-05 -0.000119576)
(0.00040759 2.61856e-06 -0.000119576)
(0.000405811 3.81311e-05 -0.000119574)
(0.000400943 7.33538e-05 -0.000119574)
(0.000393024 0.000108018 -0.000119575)
(0.000382114 0.000141861 -0.000119576)
(0.000368296 0.000174625 -0.000119576)
(0.000351675 0.000206061 -0.000119577)
(0.000332377 0.000235929 -0.000119576)
(0.00031055 0.000263999 -0.000119575)
(0.000286359 0.000290059 -0.000119574)
(0.000259989 0.000313913 -0.000119575)
(0.00023164 0.000335379 -0.000119577)
(0.000201529 0.000354292 -0.000119575)
(0.000169883 0.000370508 -0.000119576)
(0.000136946 0.000383904 -0.000119575)
(0.000102964 0.000394378 -0.000119576)
(6.81985e-05 0.000401851 -0.000119577)
(3.29152e-05 0.000406267 -0.000119576)
(-2.61857e-06 0.00040759 -0.000119576)
(-3.81311e-05 0.000405811 -0.000119574)
(-7.33538e-05 0.000400943 -0.000119574)
(-0.000108018 0.000393024 -0.000119575)
(-0.000141861 0.000382114 -0.000119576)
(-0.000174625 0.000368296 -0.000119576)
(-0.000206061 0.000351675 -0.000119577)
(-0.000235929 0.000332377 -0.000119576)
(-0.000263999 0.00031055 -0.000119575)
(-0.000290059 0.000286359 -0.000119574)
(-0.000313913 0.000259989 -0.000119575)
(-0.000335379 0.00023164 -0.000119577)
(-0.000354292 0.000201529 -0.000119575)
(-0.000311112 0.000194939 -7.83507e-05)
(-0.000326918 0.000167082 -7.83503e-05)
(-0.000340236 0.000137953 -7.83509e-05)
(-0.000350965 0.000107774 -7.83507e-05)
(-0.000359023 7.67749e-05 -7.83507e-05)
(-0.000364348 4.51921e-05 -7.83506e-05)
(-0.0003669 1.32652e-05 -7.83501e-05)
(-0.00036666 -1.87619e-05 -7.83495e-05)
(-0.00036363 -5.06459e-05 -7.83498e-05)
(-0.000357832 -8.21457e-05 -7.83506e-05)
(-0.000349311 -0.000113021 -7.83507e-05)
(-0.000338132 -0.000143036 -7.83506e-05)
(-0.000324379 -0.000171962 -7.83503e-05)
(-0.000308157 -0.000199579 -7.83501e-05)
(-0.000289589 -0.000225677 -7.83501e-05)
(-0.000268819 -0.000250057 -7.83502e-05)
(-0.000246001 -0.000272535 -7.83509e-05)
(-0.000221312 -0.000292938 -7.83506e-05)
(-0.000194939 -0.000311112 -7.83507e-05)
(-0.000167082 -0.000326918 -7.83503e-05)
(-0.000137953 -0.000340236 -7.83509e-05)
(-0.000107774 -0.000350965 -7.83507e-05)
(-7.67749e-05 -0.000359023 -7.83507e-05)
(-4.51921e-05 -0.000364348 -7.83506e-05)
(-1.32652e-05 -0.0003669 -7.83501e-05)
(1.87619e-05 -0.00036666 -7.83496e-05)
(5.06459e-05 -0.00036363 -7.83498e-05)
(8.21457e-05 -0.000357832 -7.83506e-05)
(0.000113021 -0.000349311 -7.83507e-05)
(0.000143036 -0.000338132 -7.83506e-05)
(0.000171962 -0.000324379 -7.83502e-05)
(0.000199579 -0.000308157 -7.83501e-05)
(0.000225677 -0.000289589 -7.83501e-05)
(0.000250057 -0.000268819 -7.83502e-05)
(0.000272535 -0.000246001 -7.83509e-05)
(0.000292938 -0.000221312 -7.83506e-05)
(0.000311112 -0.000194939 -7.83507e-05)
(0.000326918 -0.000167082 -7.83503e-05)
(0.000340236 -0.000137953 -7.83509e-05)
(0.000350965 -0.000107774 -7.83507e-05)
(0.000359023 -7.67749e-05 -7.83507e-05)
(0.000364348 -4.51921e-05 -7.83506e-05)
(0.0003669 -1.32652e-05 -7.83501e-05)
(0.00036666 1.87619e-05 -7.83496e-05)
(0.00036363 5.06459e-05 -7.83498e-05)
(0.000357832 8.21457e-05 -7.83506e-05)
(0.000349311 0.000113021 -7.83507e-05)
(0.000338132 0.000143036 -7.83506e-05)
(0.000324379 0.000171962 -7.83502e-05)
(0.000308157 0.000199579 -7.83501e-05)
(0.000289589 0.000225677 -7.83501e-05)
(0.000268819 0.000250057 -7.83502e-05)
(0.000246001 0.000272535 -7.83509e-05)
(0.000221312 0.000292938 -7.83506e-05)
(0.000194939 0.000311112 -7.83507e-05)
(0.000167082 0.000326918 -7.83503e-05)
(0.000137953 0.000340236 -7.83509e-05)
(0.000107774 0.000350965 -7.83507e-05)
(7.67749e-05 0.000359023 -7.83507e-05)
(4.51921e-05 0.000364348 -7.83506e-05)
(1.32652e-05 0.0003669 -7.83501e-05)
(-1.87619e-05 0.00036666 -7.83496e-05)
(-5.06459e-05 0.00036363 -7.83498e-05)
(-8.21457e-05 0.000357832 -7.83507e-05)
(-0.000113021 0.000349311 -7.83507e-05)
(-0.000143036 0.000338132 -7.83506e-05)
(-0.000171962 0.000324379 -7.83503e-05)
(-0.000199579 0.000308157 -7.83501e-05)
(-0.000225677 0.000289589 -7.83501e-05)
(-0.000250057 0.000268819 -7.83502e-05)
(-0.000272535 0.000246001 -7.83509e-05)
(-0.000292938 0.000221312 -7.83506e-05)
(-0.000267662 0.000281497 -2.79367e-05)
(-0.000291178 0.000257098 -2.79366e-05)
(-0.000312477 0.000230741 -2.79362e-05)
(-0.000331399 0.000202628 -2.79364e-05)
(-0.000347799 0.000172974 -2.79368e-05)
(-0.00036155 0.000142004 -2.79369e-05)
(-0.00037255 0.000109952 -2.79366e-05)
(-0.000380716 7.70642e-05 -2.7937e-05)
(-0.000385985 4.35903e-05 -2.79368e-05)
(-0.000388316 9.78352e-06 -2.79371e-05)
(-0.00038769 -2.40982e-05 -2.79366e-05)
(-0.000384115 -5.77963e-05 -2.79363e-05)
(-0.000377615 -9.10548e-05 -2.79359e-05)
(-0.000368243 -0.00012362 -2.79365e-05)
(-0.000356067 -0.000155243 -2.79371e-05)
(-0.000341183 -0.000185685 -2.7937e-05)
(-0.0003237 -0.000214714 -2.79367e-05)
(-0.000303755 -0.00024211 -2.79366e-05)
(-0.000281497 -0.000267662 -2.79367e-05)
(-0.000257098 -0.000291178 -2.79366e-05)
(-0.000230741 -0.000312477 -2.79362e-05)
(-0.000202628 -0.000331399 -2.79364e-05)
(-0.000172974 -0.000347799 -2.79368e-05)
(-0.000142004 -0.00036155 -2.79369e-05)
(-0.000109952 -0.00037255 -2.79366e-05)
(-7.70642e-05 -0.000380716 -2.7937e-05)
(-4.35903e-05 -0.000385985 -2.79369e-05)
(-9.78353e-06 -0.000388316 -2.79371e-05)
(2.40982e-05 -0.00038769 -2.79366e-05)
(5.77963e-05 -0.000384115 -2.79363e-05)
(9.10548e-05 -0.000377615 -2.79359e-05)
(0.00012362 -0.000368243 -2.79365e-05)
(0.000155243 -0.000356067 -2.79371e-05)
(0.000185685 -0.000341183 -2.7937e-05)
(0.000214714 -0.0003237 -2.79367e-05)
(0.00024211 -0.000303755 -2.79366e-05)
(0.000267662 -0.000281497 -2.79367e-05)
(0.000291178 -0.000257098 -2.79366e-05)
(0.000312477 -0.000230741 -2.79362e-05)
(0.000331399 -0.000202628 -2.79364e-05)
(0.000347799 -0.000172974 -2.79368e-05)
(0.00036155 -0.000142004 -2.79369e-05)
(0.00037255 -0.000109952 -2.79366e-05)
(0.000380716 -7.70642e-05 -2.7937e-05)
(0.000385985 -4.35903e-05 -2.79369e-05)
(0.000388316 -9.78353e-06 -2.79372e-05)
(0.00038769 2.40982e-05 -2.79367e-05)
(0.000384115 5.77963e-05 -2.79363e-05)
(0.000377615 9.10548e-05 -2.79359e-05)
(0.000368243 0.00012362 -2.79365e-05)
(0.000356067 0.000155243 -2.79371e-05)
(0.000341183 0.000185685 -2.7937e-05)
(0.0003237 0.000214714 -2.79367e-05)
(0.000303755 0.00024211 -2.79366e-05)
(0.000281497 0.000267662 -2.79367e-05)
(0.000257098 0.000291178 -2.79366e-05)
(0.000230741 0.000312477 -2.79362e-05)
(0.000202628 0.000331399 -2.79364e-05)
(0.000172974 0.000347799 -2.79368e-05)
(0.000142004 0.00036155 -2.79369e-05)
(0.000109952 0.00037255 -2.79366e-05)
(7.70642e-05 0.000380716 -2.7937e-05)
(4.35903e-05 0.000385985 -2.79369e-05)
(9.78354e-06 0.000388316 -2.79372e-05)
(-2.40982e-05 0.00038769 -2.79367e-05)
(-5.77962e-05 0.000384115 -2.79363e-05)
(-9.10548e-05 0.000377615 -2.79359e-05)
(-0.00012362 0.000368243 -2.79365e-05)
(-0.000155243 0.000356067 -2.79371e-05)
(-0.000185685 0.000341183 -2.7937e-05)
(-0.000214714 0.0003237 -2.79367e-05)
(-0.00024211 0.000303755 -2.79366e-05)
(-0.000915249 0.000503669 -0.000358694)
(-0.000955662 0.000421983 -0.000358693)
(-0.000988802 0.000337085 -0.000358695)
(-0.00101442 0.000249621 -0.000358696)
(-0.00103232 0.000160258 -0.000358696)
(-0.00104236 6.9676e-05 -0.000358694)
(-0.00104446 -2.14355e-05 -0.00035869)
(-0.00103862 -0.000112383 -0.000358689)
(-0.00102487 -0.000202475 -0.000358688)
(-0.00100333 -0.000291027 -0.00035869)
(-0.000974143 -0.000377365 -0.000358693)
(-0.000937546 -0.000460833 -0.000358695)
(-0.000893814 -0.000540794 -0.000358694)
(-0.00084328 -0.000616638 -0.000358693)
(-0.000786328 -0.000687787 -0.000358692)
(-0.00072339 -0.0007537 -0.000358692)
(-0.000654947 -0.000813881 -0.000358695)
(-0.000581521 -0.000867869 -0.000358695)
(-0.000503669 -0.000915249 -0.000358694)
(-0.000421983 -0.000955662 -0.000358693)
(-0.000337085 -0.000988802 -0.000358695)
(-0.000249621 -0.00101442 -0.000358696)
(-0.000160258 -0.00103232 -0.000358696)
(-6.9676e-05 -0.00104236 -0.000358694)
(2.14354e-05 -0.00104446 -0.00035869)
(0.000112383 -0.00103862 -0.000358689)
(0.000202475 -0.00102487 -0.000358688)
(0.000291027 -0.00100333 -0.00035869)
(0.000377365 -0.000974143 -0.000358693)
(0.000460833 -0.000937546 -0.000358695)
(0.000540794 -0.000893814 -0.000358694)
(0.000616638 -0.00084328 -0.000358693)
(0.000687787 -0.000786328 -0.000358692)
(0.0007537 -0.00072339 -0.000358692)
(0.000813881 -0.000654947 -0.000358695)
(0.000867869 -0.000581521 -0.000358695)
(0.000915249 -0.000503669 -0.000358694)
(0.000955662 -0.000421983 -0.000358693)
(0.000988802 -0.000337085 -0.000358695)
(0.00101442 -0.000249621 -0.000358696)
(0.00103232 -0.000160258 -0.000358696)
(0.00104236 -6.9676e-05 -0.000358694)
(0.00104446 2.14354e-05 -0.00035869)
(0.00103862 0.000112383 -0.000358689)
(0.00102487 0.000202475 -0.000358688)
(0.00100333 0.000291027 -0.00035869)
(0.000974143 0.000377365 -0.000358693)
(0.000937546 0.000460833 -0.000358695)
(0.000893814 0.000540794 -0.000358694)
(0.00084328 0.000616638 -0.000358693)
(0.000786328 0.000687787 -0.000358692)
(0.00072339 0.0007537 -0.000358692)
(0.000654947 0.000813881 -0.000358695)
(0.000581521 0.000867869 -0.000358695)
(0.000503669 0.000915249 -0.000358694)
(0.000421983 0.000955662 -0.000358693)
(0.000337085 0.000988802 -0.000358695)
(0.000249621 0.00101442 -0.000358696)
(0.000160258 0.00103232 -0.000358696)
(6.9676e-05 0.00104236 -0.000358694)
(-2.14355e-05 0.00104446 -0.00035869)
(-0.000112383 0.00103862 -0.000358689)
(-0.000202475 0.00102487 -0.000358688)
(-0.000291027 0.00100333 -0.00035869)
(-0.000377365 0.000974143 -0.000358693)
(-0.000460833 0.000937546 -0.000358695)
(-0.000540794 0.000893814 -0.000358694)
(-0.000616638 0.00084328 -0.000358693)
(-0.000687787 0.000786328 -0.000358692)
(-0.0007537 0.00072339 -0.000358692)
(-0.000813881 0.000654947 -0.000358695)
(-0.000867869 0.000581521 -0.000358695)
(-0.000897606 0.000640122 -0.000230558)
(-0.000949979 0.000559455 -0.000230558)
(-0.000995123 0.000474529 -0.000230558)
(-0.00103269 0.000385992 -0.000230559)
(-0.00106241 0.000294517 -0.000230558)
(-0.00108403 0.000200802 -0.000230557)
(-0.00109741 0.000105559 -0.000230556)
(-0.00110243 9.51291e-06 -0.000230556)
(-0.00109907 -8.66058e-05 -0.000230555)
(-0.00108734 -0.000182066 -0.000230555)
(-0.00106733 -0.000276142 -0.000230556)
(-0.0010392 -0.000368116 -0.000230557)
(-0.00100317 -0.000457289 -0.000230557)
(-0.000959493 -0.000542981 -0.000230557)
(-0.000908517 -0.000624538 -0.000230557)
(-0.000850628 -0.000701343 -0.000230557)
(-0.000786264 -0.000772812 -0.000230558)
(-0.000715917 -0.0008384 -0.000230558)
(-0.000640122 -0.000897606 -0.000230558)
(-0.000559455 -0.000949979 -0.000230558)
(-0.000474529 -0.000995123 -0.000230558)
(-0.000385992 -0.00103269 -0.000230559)
(-0.000294517 -0.00106241 -0.000230558)
(-0.000200802 -0.00108403 -0.000230557)
(-0.000105559 -0.00109741 -0.000230556)
(-9.51296e-06 -0.00110243 -0.000230556)
(8.66057e-05 -0.00109907 -0.000230555)
(0.000182066 -0.00108734 -0.000230555)
(0.000276142 -0.00106733 -0.000230556)
(0.000368116 -0.0010392 -0.000230557)
(0.000457289 -0.00100317 -0.000230557)
(0.000542981 -0.000959493 -0.000230557)
(0.000624538 -0.000908517 -0.000230557)
(0.000701343 -0.000850628 -0.000230557)
(0.000772812 -0.000786264 -0.000230558)
(0.0008384 -0.000715917 -0.000230558)
(0.000897606 -0.000640122 -0.000230558)
(0.000949979 -0.000559455 -0.000230558)
(0.000995123 -0.000474529 -0.000230558)
(0.00103269 -0.000385991 -0.000230559)
(0.00106241 -0.000294517 -0.000230558)
(0.00108403 -0.000200802 -0.000230557)
(0.00109741 -0.000105559 -0.000230556)
(0.00110243 -9.51294e-06 -0.000230556)
(0.00109907 8.66058e-05 -0.000230555)
(0.00108734 0.000182066 -0.000230555)
(0.00106733 0.000276142 -0.000230556)
(0.0010392 0.000368116 -0.000230557)
(0.00100317 0.000457289 -0.000230557)
(0.000959493 0.000542981 -0.000230557)
(0.000908517 0.000624538 -0.000230557)
(0.000850628 0.000701343 -0.000230557)
(0.000786264 0.000772812 -0.000230558)
(0.000715917 0.0008384 -0.000230558)
(0.000640122 0.000897606 -0.000230558)
(0.000559455 0.000949979 -0.000230558)
(0.000474529 0.000995123 -0.000230558)
(0.000385991 0.00103269 -0.000230559)
(0.000294517 0.00106241 -0.000230558)
(0.000200802 0.00108403 -0.000230558)
(0.000105559 0.00109741 -0.000230556)
(9.51293e-06 0.00110243 -0.000230556)
(-8.66058e-05 0.00109907 -0.000230555)
(-0.000182066 0.00108734 -0.000230555)
(-0.000276142 0.00106733 -0.000230556)
(-0.000368116 0.0010392 -0.000230557)
(-0.000457289 0.00100317 -0.000230557)
(-0.000542981 0.000959493 -0.000230557)
(-0.000624538 0.000908517 -0.000230557)
(-0.000701343 0.000850628 -0.000230557)
(-0.000772812 0.000786264 -0.000230558)
(-0.0008384 0.000715917 -0.000230558)
(-0.000909582 0.000856798 -9.55954e-05)
(-0.000980795 0.000774263 -9.55949e-05)
(-0.00104454 0.000685834 -9.55943e-05)
(-0.00110034 0.000592185 -9.55946e-05)
(-0.00114777 0.00049403 -9.55945e-05)
(-0.00118646 0.000392116 -9.55949e-05)
(-0.00121612 0.000287218 -9.55951e-05)
(-0.00123652 0.000180134 -9.55954e-05)
(-0.00124752 7.16793e-05 -9.55951e-05)
(-0.00124902 -3.73224e-05 -9.55939e-05)
(-0.00124101 -0.00014604 -9.55934e-05)
(-0.00122356 -0.000253647 -9.55938e-05)
(-0.0011968 -0.000359323 -9.55941e-05)
(-0.00116093 -0.000462263 -9.55949e-05)
(-0.00111622 -0.000561685 -9.55951e-05)
(-0.00106302 -0.000656831 -9.55948e-05)
(-0.00100173 -0.000746981 -9.55949e-05)
(-0.000932812 -0.000831446 -9.55946e-05)
(-0.000856798 -0.000909582 -9.55954e-05)
(-0.000774263 -0.000980795 -9.55949e-05)
(-0.000685834 -0.00104454 -9.55943e-05)
(-0.000592185 -0.00110034 -9.55946e-05)
(-0.00049403 -0.00114777 -9.55945e-05)
(-0.000392116 -0.00118646 -9.55949e-05)
(-0.000287218 -0.00121612 -9.55952e-05)
(-0.000180134 -0.00123652 -9.55955e-05)
(-7.16794e-05 -0.00124752 -9.55951e-05)
(3.73223e-05 -0.00124902 -9.55939e-05)
(0.00014604 -0.00124101 -9.55934e-05)
(0.000253647 -0.00122356 -9.55938e-05)
(0.000359323 -0.0011968 -9.55941e-05)
(0.000462263 -0.00116093 -9.55949e-05)
(0.000561685 -0.00111622 -9.5595e-05)
(0.000656831 -0.00106302 -9.55948e-05)
(0.000746981 -0.00100173 -9.55949e-05)
(0.000831446 -0.000932812 -9.55946e-05)
(0.000909582 -0.000856798 -9.55954e-05)
(0.000980795 -0.000774263 -9.55949e-05)
(0.00104454 -0.000685834 -9.55943e-05)
(0.00110034 -0.000592185 -9.55946e-05)
(0.00114777 -0.00049403 -9.55946e-05)
(0.00118646 -0.000392116 -9.55949e-05)
(0.00121612 -0.000287218 -9.55952e-05)
(0.00123652 -0.000180134 -9.55955e-05)
(0.00124752 -7.16793e-05 -9.55952e-05)
(0.00124902 3.73223e-05 -9.5594e-05)
(0.00124101 0.00014604 -9.55934e-05)
(0.00122356 0.000253647 -9.55938e-05)
(0.0011968 0.000359323 -9.55941e-05)
(0.00116093 0.000462263 -9.55949e-05)
(0.00111622 0.000561685 -9.55951e-05)
(0.00106302 0.000656831 -9.55948e-05)
(0.00100173 0.000746981 -9.55949e-05)
(0.000932812 0.000831446 -9.55946e-05)
(0.000856798 0.000909582 -9.55954e-05)
(0.000774263 0.000980795 -9.55949e-05)
(0.000685834 0.00104454 -9.55943e-05)
(0.000592185 0.00110034 -9.55946e-05)
(0.00049403 0.00114777 -9.55946e-05)
(0.000392116 0.00118646 -9.5595e-05)
(0.000287218 0.00121612 -9.55952e-05)
(0.000180134 0.00123652 -9.55955e-05)
(7.16793e-05 0.00124752 -9.55952e-05)
(-3.73223e-05 0.00124902 -9.5594e-05)
(-0.00014604 0.00124101 -9.55934e-05)
(-0.000253647 0.00122356 -9.55938e-05)
(-0.000359323 0.0011968 -9.55941e-05)
(-0.000462263 0.00116093 -9.55949e-05)
(-0.000561685 0.00111622 -9.55951e-05)
(-0.000656831 0.00106302 -9.55948e-05)
(-0.000746981 0.00100173 -9.55949e-05)
(-0.000831446 0.000932812 -9.55946e-05)
(-0.00133191 0.000901316 -0.00060517)
(-0.0014054 0.000781802 -0.00060517)
(-0.00146819 0.000656338 -0.000605171)
(-0.00151981 0.000525879 -0.00060517)
(-0.00155986 0.000391418 -0.000605171)
(-0.00158804 0.000253978 -0.000605168)
(-0.00160413 0.000114606 -0.000605165)
(-0.00160801 -2.56383e-05 -0.000605165)
(-0.00159966 -0.000165688 -0.000605164)
(-0.00157913 -0.000304477 -0.000605165)
(-0.00154659 -0.000440947 -0.000605165)
(-0.00150227 -0.000574063 -0.000605167)
(-0.00144652 -0.000702811 -0.000605167)
(-0.00137976 -0.00082621 -0.000605167)
(-0.0013025 -0.00094332 -0.000605167)
(-0.00121533 -0.00105325 -0.000605167)
(-0.00111891 -0.00115516 -0.000605169)
(-0.00101397 -0.00124829 -0.000605171)
(-0.000901316 -0.00133191 -0.00060517)
(-0.000781802 -0.0014054 -0.00060517)
(-0.000656338 -0.00146819 -0.000605171)
(-0.000525879 -0.00151981 -0.00060517)
(-0.000391418 -0.00155986 -0.000605171)
(-0.000253978 -0.00158804 -0.000605168)
(-0.000114606 -0.00160413 -0.000605165)
(2.56382e-05 -0.00160801 -0.000605165)
(0.000165688 -0.00159966 -0.000605165)
(0.000304477 -0.00157913 -0.000605165)
(0.000440947 -0.00154659 -0.000605165)
(0.000574063 -0.00150227 -0.000605167)
(0.000702811 -0.00144652 -0.000605167)
(0.00082621 -0.00137976 -0.000605167)
(0.00094332 -0.0013025 -0.000605167)
(0.00105325 -0.00121533 -0.000605167)
(0.00115516 -0.00111891 -0.000605169)
(0.00124829 -0.00101397 -0.000605171)
(0.00133191 -0.000901316 -0.00060517)
(0.0014054 -0.000781802 -0.00060517)
(0.00146819 -0.000656338 -0.000605171)
(0.00151981 -0.000525879 -0.000605171)
(0.00155986 -0.000391418 -0.000605171)
(0.00158804 -0.000253978 -0.000605168)
(0.00160413 -0.000114606 -0.000605165)
(0.00160801 2.56382e-05 -0.000605165)
(0.00159966 0.000165688 -0.000605165)
(0.00157913 0.000304477 -0.000605165)
(0.00154659 0.000440947 -0.000605165)
(0.00150227 0.000574063 -0.000605167)
(0.00144652 0.000702811 -0.000605167)
(0.00137976 0.00082621 -0.000605167)
(0.0013025 0.00094332 -0.000605167)
(0.00121533 0.00105325 -0.000605167)
(0.00111891 0.00115516 -0.000605169)
(0.00101397 0.00124829 -0.000605171)
(0.000901316 0.00133191 -0.00060517)
(0.000781802 0.0014054 -0.00060517)
(0.000656338 0.00146819 -0.000605171)
(0.000525879 0.00151981 -0.00060517)
(0.000391418 0.00155986 -0.000605171)
(0.000253978 0.00158804 -0.000605168)
(0.000114606 0.00160413 -0.000605165)
(-2.56382e-05 0.00160801 -0.000605165)
(-0.000165688 0.00159966 -0.000605165)
(-0.000304477 0.00157913 -0.000605165)
(-0.000440947 0.00154659 -0.000605165)
(-0.000574063 0.00150227 -0.000605167)
(-0.000702811 0.00144652 -0.000605167)
(-0.00082621 0.00137976 -0.000605167)
(-0.00094332 0.0013025 -0.000605167)
(-0.00105325 0.00121533 -0.000605167)
(-0.00115516 0.00111891 -0.000605169)
(-0.00124829 0.00101397 -0.000605171)
(-0.00137621 0.00114944 -0.000415818)
(-0.00147116 0.00102512 -0.000415818)
(-0.0015549 0.000893003 -0.000415818)
(-0.00162682 0.000754087 -0.000415818)
(-0.00168635 0.00060943 -0.000415818)
(-0.00173305 0.000460136 -0.000415817)
(-0.00176656 0.000307341 -0.000415816)
(-0.00178662 0.000152206 -0.000415816)
(-0.00179309 -4.08676e-06 -0.000415815)
(-0.00178591 -0.000160349 -0.000415815)
(-0.00176514 -0.000315391 -0.000415815)
(-0.00173093 -0.000468033 -0.000415816)
(-0.00168355 -0.000617114 -0.000415816)
(-0.00162336 -0.000761497 -0.000415815)
(-0.00155082 -0.000900084 -0.000415816)
(-0.00146647 -0.00103182 -0.000415816)
(-0.00137096 -0.00115571 -0.000415817)
(-0.00126501 -0.0012708 -0.000415817)
(-0.00114944 -0.00137621 -0.000415818)
(-0.00102512 -0.00147116 -0.000415818)
(-0.000893003 -0.0015549 -0.000415818)
(-0.000754087 -0.00162682 -0.000415818)
(-0.00060943 -0.00168635 -0.000415818)
(-0.000460136 -0.00173305 -0.000415817)
(-0.000307341 -0.00176656 -0.000415816)
(-0.000152206 -0.00178662 -0.000415816)
(4.08671e-06 -0.00179309 -0.000415815)
(0.000160349 -0.00178591 -0.000415815)
(0.000315391 -0.00176514 -0.000415815)
(0.000468033 -0.00173093 -0.000415816)
(0.000617114 -0.00168355 -0.000415816)
(0.000761497 -0.00162336 -0.000415815)
(0.000900084 -0.00155082 -0.000415816)
(0.00103182 -0.00146647 -0.000415816)
(0.00115571 -0.00137096 -0.000415817)
(0.0012708 -0.00126501 -0.000415817)
(0.00137621 -0.00114944 -0.000415818)
(0.00147116 -0.00102512 -0.000415818)
(0.0015549 -0.000893003 -0.000415818)
(0.00162682 -0.000754087 -0.000415818)
(0.00168635 -0.00060943 -0.000415818)
(0.00173305 -0.000460136 -0.000415817)
(0.00176656 -0.000307341 -0.000415816)
(0.00178662 -0.000152206 -0.000415816)
(0.00179309 4.08674e-06 -0.000415815)
(0.00178591 0.000160349 -0.000415815)
(0.00176514 0.000315391 -0.000415815)
(0.00173093 0.000468033 -0.000415816)
(0.00168355 0.000617114 -0.000415816)
(0.00162336 0.000761497 -0.000415815)
(0.00155082 0.000900084 -0.000415816)
(0.00146647 0.00103182 -0.000415816)
(0.00137096 0.00115571 -0.000415817)
(0.00126501 0.0012708 -0.000415817)
(0.00114944 0.00137621 -0.000415818)
(0.00102512 0.00147116 -0.000415818)
(0.000893003 0.0015549 -0.000415818)
(0.000754087 0.00162682 -0.000415818)
(0.00060943 0.00168635 -0.000415818)
(0.000460136 0.00173305 -0.000415817)
(0.000307341 0.00176656 -0.000415816)
(0.000152206 0.00178662 -0.000415816)
(-4.08674e-06 0.00179309 -0.000415815)
(-0.000160349 0.00178591 -0.000415815)
(-0.000315391 0.00176514 -0.000415815)
(-0.000468033 0.00173093 -0.000415816)
(-0.000617114 0.00168355 -0.000415816)
(-0.000761497 0.00162336 -0.000415815)
(-0.000900084 0.00155082 -0.000415816)
(-0.00103182 0.00146647 -0.000415816)
(-0.00115571 0.00137096 -0.000415817)
(-0.0012708 0.00126501 -0.000415817)
(-0.00146172 0.00143514 -0.000240984)
(-0.00158123 0.00130229 -0.000240984)
(-0.00168872 0.00115952 -0.000240984)
(-0.00178335 0.00100792 -0.000240984)
(-0.00186441 0.000848658 -0.000240984)
(-0.00193128 0.000682936 -0.000240984)
(-0.00198345 0.000512015 -0.000240984)
(-0.00202053 0.000337198 -0.000240984)
(-0.00204223 0.000159814 -0.000240985)
(-0.00204839 -1.87871e-05 -0.000240984)
(-0.00203896 -0.000197245 -0.000240983)
(-0.00201401 -0.000374202 -0.000240984)
(-0.00197373 -0.000548311 -0.000240984)
(-0.00191843 -0.000718245 -0.000240984)
(-0.00184853 -0.000882714 -0.000240984)
(-0.00176456 -0.00104047 -0.000240984)
(-0.00166717 -0.0011903 -0.000240984)
(-0.00155708 -0.00133107 -0.000240984)
(-0.00143514 -0.00146172 -0.000240984)
(-0.00130229 -0.00158123 -0.000240984)
(-0.00115952 -0.00168872 -0.000240984)
(-0.00100792 -0.00178335 -0.000240984)
(-0.000848658 -0.00186441 -0.000240984)
(-0.000682936 -0.00193128 -0.000240984)
(-0.000512015 -0.00198345 -0.000240984)
(-0.000337198 -0.00202053 -0.000240984)
(-0.000159814 -0.00204223 -0.000240985)
(1.8787e-05 -0.00204839 -0.000240984)
(0.000197245 -0.00203896 -0.000240984)
(0.000374202 -0.00201401 -0.000240984)
(0.000548311 -0.00197373 -0.000240984)
(0.000718246 -0.00191843 -0.000240984)
(0.000882714 -0.00184853 -0.000240984)
(0.00104047 -0.00176456 -0.000240984)
(0.0011903 -0.00166717 -0.000240984)
(0.00133107 -0.00155708 -0.000240984)
(0.00146172 -0.00143514 -0.000240984)
(0.00158123 -0.00130229 -0.000240984)
(0.00168872 -0.00115952 -0.000240984)
(0.00178335 -0.00100792 -0.000240984)
(0.00186441 -0.000848658 -0.000240984)
(0.00193128 -0.000682936 -0.000240984)
(0.00198345 -0.000512015 -0.000240984)
(0.00202053 -0.000337198 -0.000240984)
(0.00204223 -0.000159814 -0.000240985)
(0.00204839 1.87871e-05 -0.000240984)
(0.00203896 0.000197245 -0.000240984)
(0.00201401 0.000374202 -0.000240984)
(0.00197373 0.000548311 -0.000240984)
(0.00191843 0.000718246 -0.000240984)
(0.00184853 0.000882715 -0.000240984)
(0.00176456 0.00104047 -0.000240984)
(0.00166717 0.0011903 -0.000240984)
(0.00155708 0.00133107 -0.000240984)
(0.00143514 0.00146172 -0.000240984)
(0.00130229 0.00158123 -0.000240984)
(0.00115952 0.00168872 -0.000240984)
(0.00100792 0.00178335 -0.000240984)
(0.000848658 0.00186441 -0.000240984)
(0.000682936 0.00193128 -0.000240984)
(0.000512015 0.00198345 -0.000240984)
(0.000337198 0.00202053 -0.000240984)
(0.000159814 0.00204223 -0.000240985)
(-1.87871e-05 0.00204839 -0.000240984)
(-0.000197245 0.00203896 -0.000240984)
(-0.000374202 0.00201401 -0.000240984)
(-0.000548311 0.00197373 -0.000240984)
(-0.000718246 0.00191843 -0.000240984)
(-0.000882714 0.00184853 -0.000240984)
(-0.00104047 0.00176456 -0.000240984)
(-0.0011903 0.00166717 -0.000240984)
(-0.00133107 0.00155708 -0.000240984)
(-0.0015921 0.00140735 -0.000862361)
(-0.0017087 0.00126324 -0.000862363)
(-0.0018123 0.00110951 -0.000862364)
(-0.0019021 0.000947333 -0.000862364)
(-0.00197743 0.000777949 -0.000862363)
(-0.00203771 0.000602644 -0.000862362)
(-0.00208248 0.000422754 -0.000862359)
(-0.00211139 0.000239646 -0.000862359)
(-0.00212425 5.47136e-05 -0.000862359)
(-0.00212093 -0.000130635 -0.000862361)
(-0.00210148 -0.00031499 -0.00086236)
(-0.00206603 -0.000496947 -0.00086236)
(-0.00201485 -0.000675121 -0.000862359)
(-0.00194834 -0.000848158 -0.000862359)
(-0.00186701 -0.00101474 -0.000862359)
(-0.00177146 -0.0011736 -0.00086236)
(-0.00166244 -0.00132353 -0.000862361)
(-0.00154076 -0.00146338 -0.000862361)
(-0.00140735 -0.0015921 -0.000862361)
(-0.00126324 -0.0017087 -0.000862362)
(-0.00110951 -0.0018123 -0.000862364)
(-0.000947333 -0.0019021 -0.000862364)
(-0.000777949 -0.00197743 -0.000862363)
(-0.000602644 -0.00203771 -0.000862362)
(-0.000422754 -0.00208248 -0.000862359)
(-0.000239646 -0.00211139 -0.000862359)
(-5.47136e-05 -0.00212425 -0.000862359)
(0.000130635 -0.00212093 -0.000862361)
(0.00031499 -0.00210148 -0.00086236)
(0.000496947 -0.00206603 -0.00086236)
(0.000675121 -0.00201485 -0.000862359)
(0.000848158 -0.00194834 -0.000862359)
(0.00101474 -0.00186701 -0.000862359)
(0.0011736 -0.00177146 -0.000862359)
(0.00132353 -0.00166244 -0.000862361)
(0.00146338 -0.00154076 -0.000862361)
(0.0015921 -0.00140735 -0.000862361)
(0.0017087 -0.00126324 -0.000862363)
(0.0018123 -0.00110951 -0.000862364)
(0.0019021 -0.000947333 -0.000862364)
(0.00197743 -0.000777949 -0.000862363)
(0.00203771 -0.000602644 -0.000862362)
(0.00208248 -0.000422754 -0.000862359)
(0.00211139 -0.000239645 -0.000862359)
(0.00212425 -5.47136e-05 -0.000862359)
(0.00212093 0.000130635 -0.000862361)
(0.00210148 0.00031499 -0.00086236)
(0.00206603 0.000496947 -0.00086236)
(0.00201485 0.000675122 -0.000862359)
(0.00194834 0.000848158 -0.000862359)
(0.00186701 0.00101474 -0.000862359)
(0.00177146 0.0011736 -0.00086236)
(0.00166244 0.00132353 -0.000862361)
(0.00154076 0.00146338 -0.000862361)
(0.00140735 0.0015921 -0.000862361)
(0.00126324 0.0017087 -0.000862362)
(0.00110951 0.0018123 -0.000862364)
(0.000947333 0.0019021 -0.000862364)
(0.000777949 0.00197743 -0.000862363)
(0.000602644 0.00203771 -0.000862362)
(0.000422754 0.00208248 -0.000862359)
(0.000239646 0.00211139 -0.000862359)
(5.47136e-05 0.00212425 -0.000862359)
(-0.000130635 0.00212093 -0.000862361)
(-0.00031499 0.00210148 -0.00086236)
(-0.000496947 0.00206603 -0.00086236)
(-0.000675122 0.00201485 -0.000862359)
(-0.000848158 0.00194834 -0.000862359)
(-0.00101474 0.00186701 -0.000862359)
(-0.0011736 0.00177146 -0.00086236)
(-0.00132353 0.00166244 -0.000862361)
(-0.00146338 0.00154076 -0.000862361)
(-0.00169062 0.00170814 -0.000645472)
(-0.00183306 0.00155429 -0.000645472)
(-0.00196155 0.00138862 -0.000645472)
(-0.00207512 0.00121237 -0.000645473)
(-0.00217288 0.0010269 -0.000645473)
(-0.00225412 0.000833614 -0.000645472)
(-0.00231819 0.000633982 -0.000645471)
(-0.00236463 0.000429526 -0.00064547)
(-0.00239306 0.000221801 -0.00064547)
(-0.00240329 1.23882e-05 -0.000645471)
(-0.00239522 -0.00019712 -0.000645471)
(-0.00236893 -0.000405127 -0.000645471)
(-0.00232461 -0.000610051 -0.00064547)
(-0.00226259 -0.000810332 -0.00064547)
(-0.00218335 -0.00100445 -0.00064547)
(-0.0020875 -0.00119092 -0.000645471)
(-0.00197576 -0.00136832 -0.000645471)
(-0.00184899 -0.00153532 -0.000645471)
(-0.00170814 -0.00169062 -0.000645472)
(-0.00155429 -0.00183306 -0.000645472)
(-0.00138862 -0.00196155 -0.000645472)
(-0.00121237 -0.00207512 -0.000645473)
(-0.0010269 -0.00217288 -0.000645473)
(-0.000833614 -0.00225412 -0.000645472)
(-0.000633982 -0.00231819 -0.000645471)
(-0.000429526 -0.00236463 -0.00064547)