/*--------------------------------*- C++ -*----------------------------------*\
| =========                 |                                                 |
| \\      /  F ield         | OpenFOAM: The Open Source CFD Toolbox           |
|  \\    /   O peration     | Version:  2312                                  |
|   \\  /    A nd           | Website:  www.openfoam.com                      |
|    \\/     M anipulation  |                                                 |
\*---------------------------------------------------------------------------*/
FoamFile
{
    version     2.0;
    format      ascii;
    arch        "LSB;label=32;scalar=64";
    class       volVectorField;
    location    "0.5";
    object      D_0;
}
// * * * * * * * * * * * * * * * * * * * * * * * * * * * * * * * * * * * * * //

dimensions      [0 1 0 0 0 0 0];

internalField   nonuniform List<vector> 
3240
(
(-0.000365103 0.000170996 -0.000118976)
(-0.000378617 0.000138525 -0.000118975)
(-0.000389248 0.000104999 -0.000118977)
(-0.000396918 7.06724e-05 -0.000118977)
(-0.000401569 3.58097e-05 -0.000118977)
(-0.000403162 6.74358e-07 -0.000118976)
(-0.000401687 -3.44648e-05 -0.000118974)
(-0.000397154 -6.9342e-05 -0.000118974)
(-0.000389599 -0.000103691 -0.000118975)
(-0.000379079 -0.000137252 -0.000118976)
(-0.000365674 -0.000169769 -0.000118977)
(-0.000349486 -0.000200995 -0.000118977)
(-0.000330638 -0.000230691 -0.000118976)
(-0.000309275 -0.00025863 -0.000118975)
(-0.000285556 -0.000284599 -0.000118974)
(-0.000259665 -0.000308404 -0.000118976)
(-0.000231797 -0.000329863 -0.000118977)
(-0.000202166 -0.00034881 -0.000118976)
(-0.000170996 -0.000365103 -0.000118976)
(-0.000138525 -0.000378617 -0.000118975)
(-0.000104999 -0.000389248 -0.000118977)
(-7.06724e-05 -0.000396918 -0.000118977)
(-3.58097e-05 -0.000401569 -0.000118977)
(-6.74371e-07 -0.000403162 -0.000118976)
(3.44648e-05 -0.000401687 -0.000118974)
(6.9342e-05 -0.000397154 -0.000118974)
(0.000103691 -0.000389599 -0.000118975)
(0.000137252 -0.000379079 -0.000118976)
(0.000169769 -0.000365674 -0.000118977)
(0.000200995 -0.000349486 -0.000118977)
(0.000230691 -0.000330638 -0.000118976)
(0.00025863 -0.000309275 -0.000118975)
(0.000284599 -0.000285556 -0.000118974)
(0.000308404 -0.000259665 -0.000118975)
(0.000329863 -0.000231797 -0.000118977)
(0.00034881 -0.000202166 -0.000118976)
(0.000365103 -0.000170996 -0.000118976)
(0.000378617 -0.000138525 -0.000118975)
(0.000389248 -0.000104999 -0.000118977)
(0.000396918 -7.06724e-05 -0.000118977)
(0.000401569 -3.58097e-05 -0.000118977)
(0.000403162 -6.74363e-07 -0.000118976)
(0.000401687 3.44648e-05 -0.000118974)
(0.000397154 6.9342e-05 -0.000118974)
(0.000389599 0.000103691 -0.000118975)
(0.000379079 0.000137252 -0.000118976)
(0.000365674 0.000169769 -0.000118977)
(0.000349486 0.000200995 -0.000118977)
(0.000330638 0.000230691 -0.000118976)
(0.000309275 0.00025863 -0.000118975)
(0.000285556 0.000284599 -0.000118974)
(0.000259665 0.000308404 -0.000118975)
(0.000231797 0.000329863 -0.000118977)
(0.000202166 0.00034881 -0.000118976)
(0.000170996 0.000365103 -0.000118976)
(0.000138525 0.000378617 -0.000118975)
(0.000104999 0.000389248 -0.000118977)
(7.06724e-05 0.000396918 -0.000118977)
(3.58097e-05 0.000401569 -0.000118977)
(6.74358e-07 0.000403162 -0.000118976)
(-3.44648e-05 0.000401687 -0.000118974)
(-6.9342e-05 0.000397154 -0.000118974)
(-0.000103691 0.000389599 -0.000118975)
(-0.000137252 0.000379079 -0.000118976)
(-0.000169769 0.000365674 -0.000118977)
(-0.000200995 0.000349486 -0.000118977)
(-0.000230691 0.000330638 -0.000118976)
(-0.00025863 0.000309275 -0.000118975)
(-0.000284599 0.000285556 -0.000118974)
(-0.000308404 0.000259665 -0.000118975)
(-0.000329863 0.000231797 -0.000118977)
(-0.00034881 0.000202166 -0.000118976)
(-0.000305958 0.000197127 -7.69811e-05)
(-0.000321974 0.000169712 -7.69807e-05)
(-0.00033554 0.000141004 -7.69813e-05)
(-0.000346552 0.000111222 -7.69811e-05)
(-0.000354927 8.05944e-05 -7.69811e-05)
(-0.000360601 4.9354e-05 -7.69809e-05)
(-0.00036353 1.77378e-05 -7.69805e-05)
(-0.000363693 -1.40126e-05 -7.69799e-05)
(-0.000361088 -4.56562e-05 -7.69802e-05)
(-0.000355735 -7.69534e-05 -7.6981e-05)
(-0.000347674 -0.000107665 -7.69811e-05)
(-0.000336968 -0.000137558 -7.6981e-05)
(-0.000323697 -0.000166404 -7.69807e-05)
(-0.000307962 -0.000193983 -7.69805e-05)
(-0.000289883 -0.000220084 -7.69805e-05)
(-0.000269599 -0.000244512 -7.69806e-05)
(-0.000247262 -0.000267078 -7.69813e-05)
(-0.000223043 -0.000287613 -7.6981e-05)
(-0.000197127 -0.000305958 -7.69811e-05)
(-0.000169712 -0.000321974 -7.69807e-05)
(-0.000141004 -0.00033554 -7.69813e-05)
(-0.000111222 -0.000346552 -7.69811e-05)
(-8.05944e-05 -0.000354927 -7.69811e-05)
(-4.9354e-05 -0.000360601 -7.6981e-05)
(-1.77378e-05 -0.00036353 -7.69805e-05)
(1.40126e-05 -0.000363693 -7.698e-05)
(4.56562e-05 -0.000361088 -7.69802e-05)
(7.69534e-05 -0.000355735 -7.6981e-05)
(0.000107665 -0.000347674 -7.69811e-05)
(0.000137558 -0.000336968 -7.6981e-05)
(0.000166404 -0.000323697 -7.69806e-05)
(0.000193983 -0.000307962 -7.69805e-05)
(0.000220084 -0.000289883 -7.69805e-05)
(0.000244512 -0.000269599 -7.69806e-05)
(0.000267078 -0.000247262 -7.69813e-05)
(0.000287613 -0.000223043 -7.6981e-05)
(0.000305958 -0.000197127 -7.69811e-05)
(0.000321974 -0.000169712 -7.69807e-05)
(0.00033554 -0.000141003 -7.69813e-05)
(0.000346552 -0.000111222 -7.69811e-05)
(0.000354927 -8.05944e-05 -7.69811e-05)
(0.000360601 -4.9354e-05 -7.6981e-05)
(0.00036353 -1.77378e-05 -7.69805e-05)
(0.000363693 1.40126e-05 -7.698e-05)
(0.000361088 4.56562e-05 -7.69802e-05)
(0.000355735 7.69534e-05 -7.6981e-05)
(0.000347674 0.000107665 -7.69811e-05)
(0.000336968 0.000137558 -7.6981e-05)
(0.000323697 0.000166404 -7.69806e-05)
(0.000307962 0.000193983 -7.69805e-05)
(0.000289883 0.000220084 -7.69805e-05)
(0.000269599 0.000244512 -7.69806e-05)
(0.000247262 0.000267078 -7.69813e-05)
(0.000223043 0.000287613 -7.6981e-05)
(0.000197127 0.000305958 -7.69811e-05)
(0.000169712 0.000321974 -7.69807e-05)
(0.000141003 0.00033554 -7.69813e-05)
(0.000111222 0.000346552 -7.69811e-05)
(8.05944e-05 0.000354927 -7.69811e-05)
(4.9354e-05 0.000360601 -7.6981e-05)
(1.77378e-05 0.00036353 -7.69805e-05)
(-1.40126e-05 0.000363693 -7.698e-05)
(-4.56562e-05 0.000361088 -7.69802e-05)
(-7.69534e-05 0.000355735 -7.6981e-05)
(-0.000107665 0.000347674 -7.69811e-05)
(-0.000137558 0.000336968 -7.6981e-05)
(-0.000166404 0.000323697 -7.69806e-05)
(-0.000193983 0.000307962 -7.69805e-05)
(-0.000220084 0.000289883 -7.69805e-05)
(-0.000244512 0.000269599 -7.69806e-05)
(-0.000267078 0.000247262 -7.69813e-05)
(-0.000287613 0.000223043 -7.6981e-05)
(-0.000263077 0.000282059 -2.63081e-05)
(-0.000286659 0.000258057 -2.6308e-05)
(-0.000308059 0.000232091 -2.63076e-05)
(-0.000327115 0.000204358 -2.63079e-05)
(-0.000343682 0.00017507 -2.63082e-05)
(-0.000357632 0.000144451 -2.63083e-05)
(-0.00036886 0.000112731 -2.6308e-05)
(-0.000377282 8.01543e-05 -2.63084e-05)
(-0.000382833 4.69679e-05 -2.63083e-05)
(-0.00038547 1.3423e-05 -2.63085e-05)
(-0.000385173 -2.02247e-05 -2.63081e-05)
(-0.000381945 -5.3718e-05 -2.63077e-05)
(-0.000375809 -8.6803e-05 -2.63074e-05)
(-0.000366815 -0.000119227 -2.63079e-05)
(-0.000355026 -0.000150742 -2.63085e-05)
(-0.000340538 -0.000181111 -2.63085e-05)
(-0.000323456 -0.000210101 -2.63081e-05)
(-0.000303914 -0.000237493 -2.6308e-05)
(-0.000282059 -0.000263077 -2.63081e-05)
(-0.000258057 -0.000286659 -2.6308e-05)
(-0.000232091 -0.000308059 -2.63076e-05)
(-0.000204358 -0.000327115 -2.63079e-05)
(-0.00017507 -0.000343682 -2.63082e-05)
(-0.000144451 -0.000357632 -2.63083e-05)
(-0.000112731 -0.00036886 -2.6308e-05)
(-8.01543e-05 -0.000377282 -2.63084e-05)
(-4.6968e-05 -0.000382833 -2.63083e-05)
(-1.3423e-05 -0.00038547 -2.63086e-05)
(2.02247e-05 -0.000385173 -2.63081e-05)
(5.3718e-05 -0.000381945 -2.63077e-05)
(8.6803e-05 -0.000375809 -2.63074e-05)
(0.000119227 -0.000366815 -2.63079e-05)
(0.000150742 -0.000355027 -2.63085e-05)
(0.000181111 -0.000340538 -2.63084e-05)
(0.000210101 -0.000323456 -2.63081e-05)
(0.000237493 -0.000303914 -2.6308e-05)
(0.000263077 -0.000282059 -2.63081e-05)
(0.000286659 -0.000258057 -2.6308e-05)
(0.000308059 -0.000232091 -2.63077e-05)
(0.000327115 -0.000204358 -2.63079e-05)
(0.000343682 -0.00017507 -2.63083e-05)
(0.000357632 -0.000144451 -2.63083e-05)
(0.00036886 -0.000112731 -2.6308e-05)
(0.000377282 -8.01543e-05 -2.63084e-05)
(0.000382833 -4.6968e-05 -2.63083e-05)
(0.00038547 -1.3423e-05 -2.63086e-05)
(0.000385173 2.02247e-05 -2.63081e-05)
(0.000381945 5.3718e-05 -2.63077e-05)
(0.000375809 8.6803e-05 -2.63074e-05)
(0.000366815 0.000119227 -2.63079e-05)
(0.000355027 0.000150742 -2.63085e-05)
(0.000340538 0.000181111 -2.63084e-05)
(0.000323456 0.000210101 -2.63081e-05)
(0.000303914 0.000237493 -2.6308e-05)
(0.000282059 0.000263077 -2.63081e-05)
(0.000258057 0.000286659 -2.6308e-05)
(0.000232091 0.000308059 -2.63076e-05)
(0.000204358 0.000327115 -2.63079e-05)
(0.00017507 0.000343682 -2.63083e-05)
(0.000144451 0.000357632 -2.63083e-05)
(0.000112731 0.00036886 -2.63081e-05)
(8.01543e-05 0.000377282 -2.63084e-05)
(4.6968e-05 0.000382833 -2.63083e-05)
(1.3423e-05 0.00038547 -2.63086e-05)
(-2.02247e-05 0.000385173 -2.63081e-05)
(-5.3718e-05 0.000381945 -2.63077e-05)
(-8.6803e-05 0.000375809 -2.63074e-05)
(-0.000119227 0.000366815 -2.63079e-05)
(-0.000150742 0.000355027 -2.63085e-05)
(-0.000181111 0.000340538 -2.63085e-05)
(-0.000210101 0.000323456 -2.63081e-05)
(-0.000237493 0.000303914 -2.6308e-05)
(-0.000901614 0.000507935 -0.000356373)
(-0.000942451 0.000427421 -0.000356373)
(-0.000976115 0.000343654 -0.000356375)
(-0.00100235 0.000257271 -0.000356376)
(-0.00102096 0.00016893 -0.000356375)
(-0.0010318 7.93047e-05 -0.000356373)
(-0.00103479 -1.09236e-05 -0.00035637)
(-0.0010299 -0.000101068 -0.000356368)
(-0.00101717 -0.000190443 -0.000356368)
(-0.000996702 -0.000278369 -0.000356369)
(-0.000968646 -0.000364179 -0.000356372)
(-0.000933219 -0.000447217 -0.000356374)
(-0.000890691 -0.000526853 -0.000356373)
(-0.000841384 -0.000602478 -0.000356372)
(-0.000785673 -0.000673515 -0.000356372)
(-0.000723982 -0.000739426 -0.000356372)
(-0.00065678 -0.000799713 -0.000356375)
(-0.000584582 -0.000853914 -0.000356374)
(-0.000507935 -0.000901614 -0.000356373)
(-0.000427421 -0.000942451 -0.000356373)
(-0.000343654 -0.000976115 -0.000356375)
(-0.000257271 -0.00100235 -0.000356376)
(-0.00016893 -0.00102096 -0.000356375)
(-7.93047e-05 -0.0010318 -0.000356373)
(1.09236e-05 -0.00103479 -0.00035637)
(0.000101068 -0.0010299 -0.000356368)
(0.000190443 -0.00101717 -0.000356368)
(0.000278369 -0.000996702 -0.000356369)
(0.000364179 -0.000968646 -0.000356372)
(0.000447217 -0.000933219 -0.000356374)
(0.000526853 -0.000890691 -0.000356373)
(0.000602478 -0.000841384 -0.000356372)
(0.000673515 -0.000785673 -0.000356371)
(0.000739426 -0.000723982 -0.000356372)
(0.000799713 -0.00065678 -0.000356375)
(0.000853914 -0.000584582 -0.000356374)
(0.000901614 -0.000507934 -0.000356373)
(0.000942451 -0.000427421 -0.000356373)
(0.000976115 -0.000343653 -0.000356375)
(0.00100235 -0.000257271 -0.000356376)
(0.00102096 -0.00016893 -0.000356375)
(0.0010318 -7.93046e-05 -0.000356373)
(0.00103479 1.09236e-05 -0.00035637)
(0.0010299 0.000101068 -0.000356368)
(0.00101717 0.000190443 -0.000356368)
(0.000996702 0.000278369 -0.000356369)
(0.000968647 0.000364179 -0.000356372)
(0.000933219 0.000447217 -0.000356374)
(0.000890691 0.000526853 -0.000356373)
(0.000841384 0.000602478 -0.000356372)
(0.000785673 0.000673515 -0.000356372)
(0.000723982 0.000739426 -0.000356372)
(0.00065678 0.000799713 -0.000356375)
(0.000584582 0.000853914 -0.000356374)
(0.000507934 0.000901614 -0.000356373)
(0.000427421 0.000942451 -0.000356373)
(0.000343653 0.000976115 -0.000356375)
(0.000257271 0.00100235 -0.000356376)
(0.00016893 0.00102096 -0.000356375)
(7.93046e-05 0.0010318 -0.000356373)
(-1.09236e-05 0.00103479 -0.00035637)
(-0.000101068 0.0010299 -0.000356368)
(-0.000190443 0.00101717 -0.000356368)
(-0.000278369 0.000996702 -0.000356369)
(-0.000364179 0.000968647 -0.000356372)
(-0.000447217 0.000933219 -0.000356374)
(-0.000526853 0.000890691 -0.000356373)
(-0.000602478 0.000841384 -0.000356372)
(-0.000673515 0.000785673 -0.000356372)
(-0.000739426 0.000723982 -0.000356372)
(-0.000799713 0.00065678 -0.000356375)
(-0.000853914 0.000584582 -0.000356374)
(-0.000883442 0.000644263 -0.000228025)
(-0.000936231 0.000564815 -0.000228025)
(-0.000981894 0.000481067 -0.000228025)
(-0.00102009 0.000393657 -0.000228026)
(-0.00105052 0.000303253 -0.000228025)
(-0.00107295 0.000210541 -0.000228025)
(-0.00108721 0.000116227 -0.000228023)
(-0.00109321 2.1029e-05 -0.000228023)
(-0.00109088 -7.43294e-05 -0.000228022)
(-0.00108025 -0.000169123 -0.000228022)
(-0.0010614 -0.00026263 -0.000228023)
(-0.00103447 -0.000354139 -0.000228024)
(-0.00099967 -0.000442953 -0.000228024)
(-0.000957261 -0.000528394 -0.000228024)
(-0.000907565 -0.000609812 -0.000228024)
(-0.000850962 -0.00068659 -0.000228024)
(-0.000787883 -0.000758145 -0.000228025)
(-0.000718808 -0.000823929 -0.000228025)
(-0.000644263 -0.000883442 -0.000228025)
(-0.000564815 -0.000936231 -0.000228025)
(-0.000481067 -0.000981894 -0.000228025)
(-0.000393657 -0.00102009 -0.000228026)
(-0.000303253 -0.00105052 -0.000228025)
(-0.000210541 -0.00107295 -0.000228025)
(-0.000116227 -0.00108721 -0.000228023)
(-2.10291e-05 -0.00109321 -0.000228023)
(7.43293e-05 -0.00109088 -0.000228022)
(0.000169123 -0.00108025 -0.000228022)
(0.00026263 -0.0010614 -0.000228023)
(0.000354139 -0.00103447 -0.000228024)
(0.000442953 -0.00099967 -0.000228024)
(0.000528394 -0.000957261 -0.000228024)
(0.000609812 -0.000907565 -0.000228024)
(0.00068659 -0.000850962 -0.000228024)
(0.000758145 -0.000787883 -0.000228025)
(0.000823929 -0.000718808 -0.000228025)
(0.000883442 -0.000644263 -0.000228025)
(0.000936231 -0.000564815 -0.000228025)
(0.000981894 -0.000481067 -0.000228025)
(0.00102009 -0.000393657 -0.000228026)
(0.00105052 -0.000303253 -0.000228025)
(0.00107295 -0.000210541 -0.000228025)
(0.00108721 -0.000116227 -0.000228023)
(0.00109321 -2.10291e-05 -0.000228023)
(0.00109088 7.43293e-05 -0.000228023)
(0.00108025 0.000169123 -0.000228022)
(0.0010614 0.00026263 -0.000228023)
(0.00103447 0.000354139 -0.000228024)
(0.00099967 0.000442953 -0.000228024)
(0.000957261 0.000528394 -0.000228024)
(0.000907565 0.000609812 -0.000228024)
(0.000850962 0.00068659 -0.000228024)
(0.000787883 0.000758145 -0.000228025)
(0.000718808 0.000823929 -0.000228025)
(0.000644263 0.000883442 -0.000228025)
(0.000564815 0.000936231 -0.000228025)
(0.000481067 0.000981894 -0.000228025)
(0.000393657 0.00102009 -0.000228026)
(0.000303253 0.00105052 -0.000228025)
(0.000210541 0.00107295 -0.000228025)
(0.000116227 0.00108721 -0.000228023)
(2.10291e-05 0.00109321 -0.000228023)
(-7.43293e-05 0.00109088 -0.000228023)
(-0.000169123 0.00108025 -0.000228022)
(-0.00026263 0.0010614 -0.000228023)
(-0.000354139 0.00103447 -0.000228024)
(-0.000442953 0.00099967 -0.000228024)
(-0.000528394 0.000957261 -0.000228024)
(-0.000609812 0.000907565 -0.000228024)
(-0.00068659 0.000850962 -0.000228024)
(-0.000758145 0.000787883 -0.000228025)
(-0.000823929 0.000718808 -0.000228025)
(-0.000894868 0.000857784 -9.35734e-05)
(-0.000966224 0.000776528 -9.35729e-05)
(-0.00103022 0.00068936 -9.35723e-05)
(-0.00108639 0.000596946 -9.35726e-05)
(-0.00113428 0.000499989 -9.35725e-05)
(-0.00117354 0.000399228 -9.35729e-05)
(-0.00120387 0.000295429 -9.35731e-05)
(-0.00122504 0.000189381 -9.35734e-05)
(-0.00123688 8.18924e-05 -9.35731e-05)
(-0.00123931 -2.6221e-05 -9.35719e-05)
(-0.00123231 -0.000134135 -9.35714e-05)
(-0.00121593 -0.000241029 -9.35718e-05)
(-0.0011903 -0.000346088 -9.35721e-05)
(-0.0011556 -0.000448512 -9.35729e-05)
(-0.00111212 -0.000547521 -9.35731e-05)
(-0.00106016 -0.000642364 -9.35728e-05)
(-0.00100015 -0.00073232 -9.35729e-05)
(-0.000932512 -0.000816702 -9.35726e-05)
(-0.000857784 -0.000894868 -9.35734e-05)
(-0.000776528 -0.000966224 -9.35729e-05)
(-0.00068936 -0.00103022 -9.35723e-05)
(-0.000596946 -0.00108639 -9.35726e-05)
(-0.000499989 -0.00113428 -9.35726e-05)
(-0.000399228 -0.00117354 -9.35729e-05)
(-0.000295429 -0.00120387 -9.35732e-05)
(-0.000189381 -0.00122504 -9.35735e-05)
(-8.18924e-05 -0.00123688 -9.35731e-05)
(2.6221e-05 -0.00123931 -9.35719e-05)
(0.000134135 -0.00123231 -9.35714e-05)
(0.000241029 -0.00121593 -9.35718e-05)
(0.000346088 -0.0011903 -9.35721e-05)
(0.000448512 -0.0011556 -9.35729e-05)
(0.000547521 -0.00111212 -9.35731e-05)
(0.000642364 -0.00106016 -9.35728e-05)
(0.00073232 -0.00100015 -9.35729e-05)
(0.000816702 -0.000932512 -9.35726e-05)
(0.000894868 -0.000857784 -9.35734e-05)
(0.000966224 -0.000776528 -9.35729e-05)
(0.00103022 -0.00068936 -9.35723e-05)
(0.00108639 -0.000596946 -9.35726e-05)
(0.00113428 -0.000499989 -9.35726e-05)
(0.00117354 -0.000399228 -9.35729e-05)
(0.00120387 -0.000295429 -9.35732e-05)
(0.00122504 -0.000189381 -9.35735e-05)
(0.00123688 -8.18924e-05 -9.35731e-05)
(0.00123931 2.6221e-05 -9.3572e-05)
(0.00123231 0.000134135 -9.35714e-05)
(0.00121593 0.000241029 -9.35718e-05)
(0.0011903 0.000346088 -9.35721e-05)
(0.0011556 0.000448512 -9.35729e-05)
(0.00111212 0.000547521 -9.35731e-05)
(0.00106016 0.000642364 -9.35728e-05)
(0.00100015 0.00073232 -9.35729e-05)
(0.000932512 0.000816702 -9.35726e-05)
(0.000857784 0.000894868 -9.35734e-05)
(0.000776528 0.000966224 -9.35729e-05)
(0.00068936 0.00103022 -9.35723e-05)
(0.000596946 0.00108639 -9.35726e-05)
(0.000499989 0.00113428 -9.35726e-05)
(0.000399228 0.00117354 -9.35729e-05)
(0.000295429 0.00120387 -9.35732e-05)
(0.000189381 0.00122504 -9.35735e-05)
(8.18924e-05 0.00123688 -9.35732e-05)
(-2.6221e-05 0.00123931 -9.3572e-05)
(-0.000134135 0.00123231 -9.35714e-05)
(-0.000241029 0.00121593 -9.35718e-05)
(-0.000346088 0.0011903 -9.35722e-05)
(-0.000448512 0.0011556 -9.35729e-05)
(-0.000547521 0.00111212 -9.35731e-05)
(-0.000642364 0.00106017 -9.35728e-05)
(-0.00073232 0.00100015 -9.35729e-05)
(-0.000816702 0.000932512 -9.35726e-05)
(-0.00131388 0.000907584 -0.000601427)
(-0.00138798 0.000789618 -0.000601427)
(-0.00145151 0.000665643 -0.000601427)
(-0.001504 0.000536602 -0.000601427)
(-0.00154505 0.000403477 -0.000601427)
(-0.00157434 0.000267282 -0.000601425)
(-0.00159164 0.000129053 -0.000601421)
(-0.00159683 -1.01575e-05 -0.000601421)
(-0.00158987 -0.000149292 -0.000601421)
(-0.00157081 -0.00028729 -0.000601422)
(-0.00153979 -0.0004231 -0.000601421)
(-0.00149706 -0.000555692 -0.000601423)
(-0.00144293 -0.000684055 -0.000601423)
(-0.00137782 -0.000807213 -0.000601423)
(-0.00130222 -0.000924225 -0.000601423)
(-0.00121671 -0.0010342 -0.000601423)
(-0.00112195 -0.00113631 -0.000601426)
(-0.00101864 -0.00122977 -0.000601427)
(-0.000907584 -0.00131388 -0.000601427)
(-0.000789618 -0.00138798 -0.000601427)
(-0.000665643 -0.00145151 -0.000601427)
(-0.000536602 -0.001504 -0.000601427)
(-0.000403477 -0.00154505 -0.000601427)
(-0.000267282 -0.00157434 -0.000601425)
(-0.000129053 -0.00159164 -0.000601421)
(1.01574e-05 -0.00159683 -0.000601421)
(0.000149292 -0.00158987 -0.000601421)
(0.00028729 -0.00157081 -0.000601422)
(0.0004231 -0.00153979 -0.000601421)
(0.000555692 -0.00149706 -0.000601423)
(0.000684055 -0.00144293 -0.000601423)
(0.000807212 -0.00137782 -0.000601423)
(0.000924225 -0.00130222 -0.000601423)
(0.0010342 -0.00121671 -0.000601423)
(0.00113631 -0.00112195 -0.000601426)
(0.00122977 -0.00101864 -0.000601427)
(0.00131388 -0.000907584 -0.000601427)
(0.00138798 -0.000789618 -0.000601427)
(0.00145151 -0.000665643 -0.000601427)
(0.001504 -0.000536602 -0.000601427)
(0.00154505 -0.000403477 -0.000601427)
(0.00157434 -0.000267282 -0.000601425)
(0.00159164 -0.000129053 -0.000601421)
(0.00159683 1.01574e-05 -0.000601421)
(0.00158987 0.000149292 -0.000601421)
(0.00157081 0.00028729 -0.000601422)
(0.00153979 0.0004231 -0.000601421)
(0.00149706 0.000555692 -0.000601423)
(0.00144293 0.000684055 -0.000601423)
(0.00137782 0.000807213 -0.000601423)
(0.00130222 0.000924225 -0.000601423)
(0.00121671 0.0010342 -0.000601423)
(0.00112195 0.00113631 -0.000601426)
(0.00101864 0.00122977 -0.000601427)
(0.000907584 0.00131388 -0.000601427)
(0.000789618 0.00138798 -0.000601427)
(0.000665643 0.00145151 -0.000601427)
(0.000536602 0.001504 -0.000601427)
(0.000403477 0.00154505 -0.000601427)
(0.000267282 0.00157434 -0.000601425)
(0.000129053 0.00159164 -0.000601421)
(-1.01574e-05 0.00159683 -0.000601422)
(-0.000149292 0.00158987 -0.000601421)
(-0.00028729 0.00157081 -0.000601422)
(-0.0004231 0.00153979 -0.000601421)
(-0.000555692 0.00149706 -0.000601423)
(-0.000684055 0.00144293 -0.000601423)
(-0.000807213 0.00137782 -0.000601423)
(-0.000924225 0.00130222 -0.000601423)
(-0.0010342 0.00121671 -0.000601423)
(-0.00113631 0.00112195 -0.000601426)
(-0.00122977 0.00101864 -0.000601427)
(-0.00135646 0.00115335 -0.000412802)
(-0.00145181 0.00103074 -0.000412802)
(-0.00153612 0.00090028 -0.000412803)
(-0.00160874 0.000762973 -0.000412803)
(-0.00166912 0.000619857 -0.000412802)
(-0.00171679 0.000472025 -0.000412802)
(-0.0017514 0.000320602 -0.0004128)
(-0.00177268 0.000166738 -0.0004128)
(-0.00178046 1.16047e-05 -0.0004128)
(-0.0017747 -0.000143617 -0.0004128)
(-0.00175543 -0.000297746 -0.0004128)
(-0.0017228 -0.000449609 -0.0004128)
(-0.00167706 -0.000598051 -0.000412801)
(-0.00161855 -0.00074194 -0.0004128)
(-0.00154773 -0.000880183 -0.000412801)
(-0.00146512 -0.00101173 -0.000412801)
(-0.00137137 -0.00113557 -0.000412802)
(-0.00126718 -0.00125077 -0.000412802)
(-0.00115335 -0.00135646 -0.000412802)
(-0.00103074 -0.00145181 -0.000412802)
(-0.00090028 -0.00153612 -0.000412803)
(-0.000762972 -0.00160874 -0.000412803)
(-0.000619857 -0.00166912 -0.000412802)
(-0.000472025 -0.00171679 -0.000412802)
(-0.000320602 -0.0017514 -0.0004128)
(-0.000166738 -0.00177268 -0.0004128)
(-1.16047e-05 -0.00178046 -0.0004128)
(0.000143617 -0.0017747 -0.0004128)
(0.000297746 -0.00175543 -0.0004128)
(0.000449609 -0.0017228 -0.0004128)
(0.000598051 -0.00167706 -0.000412801)
(0.00074194 -0.00161855 -0.0004128)
(0.000880183 -0.00154773 -0.000412801)
(0.00101173 -0.00146512 -0.000412801)
(0.00113557 -0.00137137 -0.000412802)
(0.00125077 -0.00126718 -0.000412802)
(0.00135646 -0.00115335 -0.000412802)
(0.00145181 -0.00103074 -0.000412802)
(0.00153612 -0.00090028 -0.000412803)
(0.00160874 -0.000762972 -0.000412803)
(0.00166912 -0.000619857 -0.000412802)
(0.00171679 -0.000472025 -0.000412802)
(0.0017514 -0.000320602 -0.0004128)
(0.00177268 -0.000166738 -0.0004128)
(0.00178046 -1.16047e-05 -0.0004128)
(0.0017747 0.000143617 -0.0004128)
(0.00175543 0.000297746 -0.0004128)
(0.0017228 0.000449609 -0.0004128)
(0.00167706 0.000598051 -0.000412801)
(0.00161855 0.00074194 -0.0004128)
(0.00154773 0.000880183 -0.000412801)
(0.00146512 0.00101173 -0.000412801)
(0.00137137 0.00113557 -0.000412802)
(0.00126718 0.00125077 -0.000412802)
(0.00115335 0.00135646 -0.000412802)
(0.00103074 0.00145181 -0.000412802)
(0.00090028 0.00153612 -0.000412803)
(0.000762972 0.00160874 -0.000412803)
(0.000619857 0.00166912 -0.000412802)
(0.000472025 0.00171679 -0.000412802)
(0.000320602 0.0017514 -0.0004128)
(0.000166738 0.00177268 -0.0004128)
(1.16047e-05 0.00178046 -0.0004128)
(-0.000143617 0.0017747 -0.0004128)
(-0.000297746 0.00175543 -0.0004128)
(-0.000449609 0.0017228 -0.0004128)
(-0.000598051 0.00167706 -0.000412801)
(-0.00074194 0.00161855 -0.0004128)
(-0.000880183 0.00154773 -0.000412801)
(-0.00101173 0.00146512 -0.000412801)
(-0.00113557 0.00137137 -0.000412802)
(-0.00125077 0.00126718 -0.000412802)
(-0.00143983 0.00143538 -0.000238612)
(-0.00155945 0.00130443 -0.000238612)
(-0.00166721 0.00116355 -0.000238612)
(-0.00176227 0.00101381 -0.000238612)
(-0.00184392 0.000856365 -0.000238613)
(-0.00191155 0.000692399 -0.000238612)
(-0.00196462 0.000523162 -0.000238613)
(-0.00200274 0.000349944 -0.000238613)
(-0.00202562 0.000174062 -0.000238613)
(-0.00203308 -3.1447e-06 -0.000238612)
(-0.00202507 -0.000180328 -0.000238612)
(-0.00200165 -0.000356139 -0.000238612)
(-0.00196299 -0.000529239 -0.000238612)
(-0.00190939 -0.00069831 -0.000238612)
(-0.00184127 -0.000862068 -0.000238612)
(-0.00175913 -0.00101926 -0.000238612)
(-0.0016636 -0.0011687 -0.000238612)
(-0.00155541 -0.00130925 -0.000238612)
(-0.00143538 -0.00143983 -0.000238612)
(-0.00130443 -0.00155945 -0.000238612)
(-0.00116355 -0.00166721 -0.000238612)
(-0.00101381 -0.00176227 -0.000238612)
(-0.000856365 -0.00184392 -0.000238613)
(-0.000692399 -0.00191155 -0.000238612)
(-0.000523162 -0.00196462 -0.000238613)
(-0.000349944 -0.00200274 -0.000238613)
(-0.000174062 -0.00202562 -0.000238613)
(3.14466e-06 -0.00203308 -0.000238612)
(0.000180328 -0.00202507 -0.000238612)
(0.000356139 -0.00200165 -0.000238612)
(0.000529239 -0.00196299 -0.000238612)
(0.00069831 -0.00190939 -0.000238612)
(0.000862068 -0.00184127 -0.000238612)
(0.00101926 -0.00175913 -0.000238612)
(0.0011687 -0.0016636 -0.000238612)
(0.00130925 -0.00155541 -0.000238612)
(0.00143983 -0.00143538 -0.000238612)
(0.00155945 -0.00130443 -0.000238612)
(0.00166721 -0.00116355 -0.000238612)
(0.00176227 -0.00101381 -0.000238612)
(0.00184392 -0.000856365 -0.000238613)
(0.00191155 -0.000692399 -0.000238613)
(0.00196462 -0.000523162 -0.000238613)
(0.00200274 -0.000349944 -0.000238613)
(0.00202562 -0.000174062 -0.000238613)
(0.00203308 3.14468e-06 -0.000238612)
(0.00202507 0.000180328 -0.000238612)
(0.00200165 0.000356139 -0.000238612)
(0.00196299 0.000529239 -0.000238612)
(0.00190939 0.00069831 -0.000238612)
(0.00184127 0.000862068 -0.000238612)
(0.00175913 0.00101926 -0.000238612)
(0.0016636 0.0011687 -0.000238612)
(0.00155541 0.00130925 -0.000238612)
(0.00143538 0.00143983 -0.000238612)
(0.00130443 0.00155945 -0.000238612)
(0.00116355 0.00166721 -0.000238612)
(0.00101381 0.00176227 -0.000238612)
(0.000856365 0.00184392 -0.000238613)
(0.000692399 0.00191155 -0.000238613)
(0.000523162 0.00196462 -0.000238613)
(0.000349944 0.00200274 -0.000238613)
(0.000174062 0.00202562 -0.000238613)
(-3.14466e-06 0.00203308 -0.000238612)
(-0.000180328 0.00202507 -0.000238612)
(-0.000356139 0.00200165 -0.000238612)
(-0.000529239 0.00196299 -0.000238612)
(-0.00069831 0.00190939 -0.000238612)
(-0.000862068 0.00184127 -0.000238612)
(-0.00101926 0.00175913 -0.000238612)
(-0.0011687 0.0016636 -0.000238612)
(-0.00130925 0.00155541 -0.000238612)
(-0.00157411 0.00141288 -0.000857519)
(-0.00169126 0.00127031 -0.00085752)
(-0.00179554 0.00111808 -0.000857522)
(-0.00188616 0.000957331 -0.000857521)
(-0.00196241 0.000789298 -0.000857521)
(-0.00202374 0.000615259 -0.00085752)
(-0.00206966 0.000436538 -0.000857517)
(-0.00209983 0.000254494 -0.000857517)
(-0.00211402 7.05133e-05 -0.000857517)
(-0.00211212 -0.000114005 -0.000857519)
(-0.00209415 -0.000297655 -0.000857518)
(-0.00206024 -0.000479039 -0.000857518)
(-0.00201065 -0.000656777 -0.000857517)
(-0.00194575 -0.000829517 -0.000857517)
(-0.00186605 -0.000995945 -0.000857517)
(-0.00177215 -0.00115479 -0.000857517)
(-0.00166476 -0.00130485 -0.000857519)
(-0.0015447 -0.00144498 -0.000857519)
(-0.00141288 -0.00157411 -0.000857519)
(-0.00127031 -0.00169126 -0.00085752)
(-0.00111808 -0.00179554 -0.000857522)
(-0.000957331 -0.00188615 -0.000857521)
(-0.000789298 -0.00196241 -0.000857521)
(-0.000615259 -0.00202374 -0.00085752)
(-0.000436538 -0.00206966 -0.000857517)
(-0.000254494 -0.00209983 -0.000857517)
(-7.05133e-05 -0.00211402 -0.000857517)
(0.000114005 -0.00211212 -0.000857519)
(0.000297655 -0.00209415 -0.000857518)
(0.000479039 -0.00206024 -0.000857518)
(0.000656777 -0.00201065 -0.000857517)
(0.000829517 -0.00194575 -0.000857517)
(0.000995945 -0.00186605 -0.000857517)
(0.00115479 -0.00177215 -0.000857517)
(0.00130485 -0.00166476 -0.000857519)
(0.00144498 -0.0015447 -0.000857519)
(0.00157411 -0.00141288 -0.000857519)
(0.00169126 -0.00127031 -0.00085752)
(0.00179554 -0.00111808 -0.000857522)
(0.00188615 -0.000957331 -0.000857521)
(0.00196241 -0.000789298 -0.000857521)
(0.00202374 -0.000615259 -0.00085752)
(0.00206966 -0.000436538 -0.000857517)
(0.00209983 -0.000254494 -0.000857517)
(0.00211402 -7.05133e-05 -0.000857517)
(0.00211212 0.000114005 -0.000857519)
(0.00209415 0.000297655 -0.000857518)
(0.00206024 0.000479039 -0.000857518)
(0.00201065 0.000656777 -0.000857517)
(0.00194575 0.000829518 -0.000857517)
(0.00186605 0.000995945 -0.000857517)
(0.00177215 0.00115479 -0.000857517)
(0.00166476 0.00130485 -0.000857519)
(0.0015447 0.00144498 -0.000857519)
(0.00141288 0.00157411 -0.000857519)
(0.00127031 0.00169126 -0.00085752)
(0.00111808 0.00179554 -0.000857522)
(0.000957331 0.00188616 -0.000857521)
(0.000789298 0.00196241 -0.000857521)
(0.000615259 0.00202374 -0.00085752)
(0.000436538 0.00206966 -0.000857517)
(0.000254494 0.00209983 -0.000857517)
(7.05133e-05 0.00211402 -0.000857517)
(-0.000114005 0.00211212 -0.000857519)
(-0.000297655 0.00209415 -0.000857518)
(-0.000479039 0.00206024 -0.000857518)
(-0.000656777 0.00201065 -0.000857517)
(-0.000829517 0.00194575 -0.000857517)
(-0.000995945 0.00186605 -0.000857517)
(-0.00115479 0.00177215 -0.000857517)
(-0.00130485 0.00166476 -0.000857519)
(-0.00144498 0.0015447 -0.000857519)
(-0.00167001 0.00171002 -0.000641492)
(-0.00181269 0.00155796 -0.000641493)
(-0.00194158 0.00139405 -0.000641493)
(-0.00205569 0.00121952 -0.000641494)
(-0.00215416 0.00103572 -0.000641494)
(-0.00223623 0.000844027 -0.000641492)
(-0.00230128 0.000645915 -0.000641491)
(-0.00234882 0.000442887 -0.000641491)
(-0.00237848 0.00023649 -0.00064149)
(-0.00239004 2.82915e-05 -0.000641491)
(-0.00238341 -0.000180122 -0.000641491)
(-0.00235865 -0.000387165 -0.000641491)
(-0.00231593 -0.000591261 -0.000641491)
(-0.00225558 -0.000790858 -0.000641491)
(-0.00217807 -0.000984435 -0.000641491)
(-0.00208398 -0.00117052 -0.000641491)
(-0.00197403 -0.0013477 -0.000641492)
(-0.00184906 -0.00151462 -0.000641492)
(-0.00171002 -0.00167001 -0.000641492)
(-0.00155796 -0.00181269 -0.000641493)
(-0.00139405 -0.00194158 -0.000641493)
(-0.00121952 -0.00205569 -0.000641494)
(-0.00103572 -0.00215416 -0.000641494)
(-0.000844027 -0.00223623 -0.000641492)
(-0.000645915 -0.00230128 -0.000641491)
(-0.000442887 -0.00234882 -0.000641491)
(-0.00023649 -0.00237848 -0.00064149)