/*--------------------------------*- C++ -*----------------------------------*\
| =========                 |                                                 |
| \\      /  F ield         | OpenFOAM: The Open Source CFD Toolbox           |
|  \\    /   O peration     | Version:  2312                                  |
|   \\  /    A nd           | Website:  www.openfoam.com                      |
|    \\/     M anipulation  |                                                 |
\*---------------------------------------------------------------------------*/
FoamFile
{
    version     2.0;
    format      ascii;
    arch        "LSB;label=32;scalar=64";
    class       volVectorField;
    location    "0.5";
    object      D_0_0_0;
}
// * * * * * * * * * * * * * * * * * * * * * * * * * * * * * * * * * * * * * //

dimensions      [0 1 0 0 0 0 0];

internalField   nonuniform List<vector> 
3240
(
(-0.000354228 0.000173306 -0.000117598)
(-0.000367984 0.000141774 -0.000117597)
(-0.00037894 0.000109162 -0.000117598)
(-0.000387011 7.57186e-05 -0.000117599)
(-0.00039214 4.17001e-05 -0.000117598)
(-0.000394282 7.36416e-06 -0.000117597)
(-0.000393424 -2.70266e-05 -0.000117596)
(-0.000389571 -6.1212e-05 -0.000117596)
(-0.000382753 -9.49313e-05 -0.000117597)
(-0.000373023 -0.000127929 -0.000117598)
(-0.000360453 -0.000159954 -0.000117598)
(-0.000345141 -0.000190762 -0.000117599)
(-0.000327202 -0.000220118 -0.000117598)
(-0.000306772 -0.000247798 -0.000117597)
(-0.000284008 -0.00027359 -0.000117596)
(-0.000259082 -0.000297302 -0.000117597)
(-0.000232184 -0.000318752 -0.000117599)
(-0.00020352 -0.000337776 -0.000117597)
(-0.000173306 -0.000354228 -0.000117598)
(-0.000141774 -0.000367984 -0.000117597)
(-0.000109162 -0.00037894 -0.000117598)
(-7.57186e-05 -0.000387011 -0.000117599)
(-4.17001e-05 -0.00039214 -0.000117598)
(-7.36418e-06 -0.000394282 -0.000117597)
(2.70266e-05 -0.000393424 -0.000117596)
(6.1212e-05 -0.000389571 -0.000117596)
(9.49313e-05 -0.000382753 -0.000117597)
(0.000127929 -0.000373023 -0.000117598)
(0.000159954 -0.000360453 -0.000117598)
(0.000190762 -0.000345141 -0.000117599)
(0.000220118 -0.000327202 -0.000117598)
(0.000247798 -0.000306772 -0.000117597)
(0.00027359 -0.000284008 -0.000117596)
(0.000297302 -0.000259082 -0.000117597)
(0.000318752 -0.000232184 -0.000117599)
(0.000337776 -0.00020352 -0.000117597)
(0.000354228 -0.000173306 -0.000117598)
(0.000367984 -0.000141774 -0.000117597)
(0.00037894 -0.000109162 -0.000117598)
(0.000387011 -7.57186e-05 -0.000117599)
(0.00039214 -4.17001e-05 -0.000117598)
(0.000394282 -7.36417e-06 -0.000117597)
(0.000393424 2.70266e-05 -0.000117596)
(0.000389571 6.1212e-05 -0.000117596)
(0.000382753 9.49313e-05 -0.000117597)
(0.000373023 0.000127929 -0.000117598)
(0.000360453 0.000159954 -0.000117598)
(0.000345141 0.000190762 -0.000117599)
(0.000327202 0.000220118 -0.000117598)
(0.000306772 0.000247798 -0.000117597)
(0.000284008 0.00027359 -0.000117596)
(0.000259082 0.000297302 -0.000117597)
(0.000232184 0.000318752 -0.000117599)
(0.00020352 0.000337776 -0.000117597)
(0.000173306 0.000354228 -0.000117598)
(0.000141774 0.000367984 -0.000117597)
(0.000109162 0.00037894 -0.000117598)
(7.57186e-05 0.000387011 -0.000117599)
(4.17001e-05 0.00039214 -0.000117598)
(7.36417e-06 0.000394282 -0.000117598)
(-2.70266e-05 0.000393424 -0.000117596)
(-6.1212e-05 0.000389571 -0.000117596)
(-9.49314e-05 0.000382753 -0.000117597)
(-0.000127929 0.000373023 -0.000117598)
(-0.000159954 0.000360453 -0.000117598)
(-0.000190762 0.000345141 -0.000117599)
(-0.000220118 0.000327202 -0.000117598)
(-0.000247798 0.000306772 -0.000117597)
(-0.00027359 0.000284008 -0.000117596)
(-0.000297302 0.000259082 -0.000117597)
(-0.000318752 0.000232184 -0.000117599)
(-0.000337776 0.00020352 -0.000117597)
(-0.000295705 0.000201311 -7.42099e-05)
(-0.000312125 0.000174773 -7.42095e-05)
(-0.00032617 0.000146904 -7.42101e-05)
(-0.000337732 0.000117917 -7.42099e-05)
(-0.000346724 8.80325e-05 -7.42099e-05)
(-0.000353078 5.74788e-05 -7.42097e-05)
(-0.000356744 2.64874e-05 -7.42093e-05)
(-0.000357694 -4.70492e-06 -7.42088e-05)
(-0.000355924 -3.58611e-05 -7.4209e-05)
(-0.000351444 -6.67455e-05 -7.42098e-05)
(-0.000344289 -9.71223e-05 -7.42099e-05)
(-0.000334515 -0.00012676 -7.42098e-05)
(-0.000322194 -0.000155433 -7.42095e-05)
(-0.000307421 -0.000182923 -7.42093e-05)
(-0.000290308 -0.000209019 -7.42093e-05)
(-0.000270986 -0.000233526 -7.42094e-05)
(-0.000249602 -0.000256255 -7.42101e-05)
(-0.000226318 -0.000277035 -7.42098e-05)
(-0.000201311 -0.000295705 -7.42099e-05)
(-0.000174773 -0.000312125 -7.42095e-05)
(-0.000146904 -0.00032617 -7.42101e-05)
(-0.000117917 -0.000337732 -7.42099e-05)
(-8.80325e-05 -0.000346724 -7.42099e-05)
(-5.74788e-05 -0.000353078 -7.42097e-05)
(-2.64874e-05 -0.000356744 -7.42093e-05)
(4.7049e-06 -0.000357694 -7.42088e-05)
(3.58611e-05 -0.000355924 -7.4209e-05)
(6.67455e-05 -0.000351444 -7.42098e-05)
(9.71223e-05 -0.000344289 -7.42099e-05)
(0.00012676 -0.000334515 -7.42098e-05)
(0.000155433 -0.000322194 -7.42094e-05)
(0.000182923 -0.000307421 -7.42093e-05)
(0.000209019 -0.000290308 -7.42093e-05)
(0.000233526 -0.000270986 -7.42094e-05)
(0.000256255 -0.000249602 -7.42101e-05)
(0.000277035 -0.000226318 -7.42098e-05)
(0.000295705 -0.000201311 -7.42099e-05)
(0.000312125 -0.000174773 -7.42095e-05)
(0.00032617 -0.000146904 -7.42101e-05)
(0.000337732 -0.000117917 -7.42099e-05)
(0.000346724 -8.80325e-05 -7.42099e-05)
(0.000353078 -5.74788e-05 -7.42097e-05)
(0.000356744 -2.64874e-05 -7.42093e-05)
(0.000357694 4.7049e-06 -7.42088e-05)
(0.000355924 3.58611e-05 -7.4209e-05)
(0.000351444 6.67455e-05 -7.42098e-05)
(0.000344289 9.71223e-05 -7.42099e-05)
(0.000334515 0.00012676 -7.42098e-05)
(0.000322194 0.000155433 -7.42094e-05)
(0.000307421 0.000182923 -7.42093e-05)
(0.000290308 0.000209019 -7.42093e-05)
(0.000270986 0.000233526 -7.42094e-05)
(0.000249602 0.000256255 -7.42101e-05)
(0.000226318 0.000277035 -7.42098e-05)
(0.000201311 0.000295705 -7.42099e-05)
(0.000174773 0.000312125 -7.42095e-05)
(0.000146904 0.00032617 -7.42101e-05)
(0.000117917 0.000337732 -7.42099e-05)
(8.80325e-05 0.000346724 -7.42099e-05)
(5.74788e-05 0.000353078 -7.42097e-05)
(2.64874e-05 0.000356744 -7.42093e-05)
(-4.7049e-06 0.000357694 -7.42088e-05)
(-3.58611e-05 0.000355924 -7.4209e-05)
(-6.67455e-05 0.000351444 -7.42098e-05)
(-9.71223e-05 0.000344289 -7.42099e-05)
(-0.00012676 0.000334515 -7.42098e-05)
(-0.000155433 0.000322194 -7.42095e-05)
(-0.000182923 0.000307421 -7.42093e-05)
(-0.000209019 0.000290308 -7.42093e-05)
(-0.000233526 0.000270986 -7.42094e-05)
(-0.000256255 0.000249602 -7.42101e-05)
(-0.000277035 0.000226318 -7.42098e-05)
(-0.000254041 0.000282886 -2.31354e-05)
(-0.000277729 0.000259668 -2.31353e-05)
(-0.000299304 0.000234474 -2.31349e-05)
(-0.000318601 0.000207495 -2.31352e-05)
(-0.000335474 0.000178938 -2.31355e-05)
(-0.000349792 0.000149019 -2.31356e-05)
(-0.000361448 0.000117965 -2.31353e-05)
(-0.000370354 8.60143e-05 -2.31356e-05)
(-0.000376443 5.34094e-05 -2.31355e-05)
(-0.000379666 2.03969e-05 -2.31358e-05)
(-0.000379998 -1.27713e-05 -2.31354e-05)
(-0.000377439 -4.5842e-05 -2.3135e-05)
(-0.000372007 -7.85642e-05 -2.31347e-05)
(-0.000363745 -0.000110688 -2.31353e-05)
(-0.000352713 -0.000141969 -2.31358e-05)
(-0.000338998 -0.000172169 -2.31357e-05)
(-0.000322702 -0.000201059 -2.31354e-05)
(-0.000303951 -0.000228419 -2.31353e-05)
(-0.000282886 -0.000254041 -2.31354e-05)
(-0.000259668 -0.000277729 -2.31353e-05)
(-0.000234474 -0.000299304 -2.3135e-05)
(-0.000207495 -0.000318601 -2.31352e-05)
(-0.000178938 -0.000335474 -2.31355e-05)
(-0.000149019 -0.000349792 -2.31356e-05)
(-0.000117965 -0.000361448 -2.31353e-05)
(-8.60143e-05 -0.000370354 -2.31357e-05)
(-5.34095e-05 -0.000376443 -2.31355e-05)
(-2.03969e-05 -0.000379666 -2.31358e-05)
(1.27713e-05 -0.000379998 -2.31354e-05)
(4.5842e-05 -0.000377439 -2.3135e-05)
(7.85642e-05 -0.000372007 -2.31347e-05)
(0.000110688 -0.000363745 -2.31352e-05)
(0.000141969 -0.000352713 -2.31358e-05)
(0.000172169 -0.000338998 -2.31357e-05)
(0.000201059 -0.000322702 -2.31354e-05)
(0.000228419 -0.000303951 -2.31353e-05)
(0.000254041 -0.000282886 -2.31354e-05)
(0.000277729 -0.000259668 -2.31353e-05)
(0.000299304 -0.000234474 -2.3135e-05)
(0.000318601 -0.000207495 -2.31352e-05)
(0.000335474 -0.000178938 -2.31355e-05)
(0.000349792 -0.000149019 -2.31356e-05)
(0.000361448 -0.000117965 -2.31353e-05)
(0.000370354 -8.60143e-05 -2.31357e-05)
(0.000376443 -5.34095e-05 -2.31355e-05)
(0.000379666 -2.03969e-05 -2.31358e-05)
(0.000379998 1.27713e-05 -2.31354e-05)
(0.000377439 4.5842e-05 -2.3135e-05)
(0.000372007 7.85642e-05 -2.31347e-05)
(0.000363745 0.000110688 -2.31352e-05)
(0.000352713 0.000141969 -2.31358e-05)
(0.000338998 0.000172169 -2.31357e-05)
(0.000322702 0.000201059 -2.31354e-05)
(0.000303951 0.000228419 -2.31353e-05)
(0.000282886 0.000254041 -2.31354e-05)
(0.000259668 0.000277729 -2.31353e-05)
(0.000234474 0.000299304 -2.3135e-05)
(0.000207495 0.000318601 -2.31352e-05)
(0.000178938 0.000335474 -2.31355e-05)
(0.000149019 0.000349792 -2.31356e-05)
(0.000117965 0.000361448 -2.31353e-05)
(8.60143e-05 0.000370354 -2.31357e-05)
(5.34095e-05 0.000376443 -2.31355e-05)
(2.03969e-05 0.000379666 -2.31358e-05)
(-1.27713e-05 0.000379998 -2.31354e-05)
(-4.5842e-05 0.000377439 -2.3135e-05)
(-7.85642e-05 0.000372007 -2.31347e-05)
(-0.000110688 0.000363745 -2.31353e-05)
(-0.000141969 0.000352713 -2.31358e-05)
(-0.000172169 0.000338998 -2.31357e-05)
(-0.000201059 0.000322702 -2.31354e-05)
(-0.000228419 0.000303951 -2.31353e-05)
(-0.00087435 0.000516539 -0.000351229)
(-0.00091604 0.000438369 -0.000351228)
(-0.00095076 0.000356862 -0.00035123)
(-0.000978245 0.000272639 -0.000351231)
(-0.000998286 0.000186341 -0.000351231)
(-0.00101073 9.86259e-05 -0.000351229)
(-0.00101548 1.01607e-05 -0.000351225)
(-0.0010125 -7.8381e-05 -0.000351224)
(-0.00100182 -0.000166326 -0.000351223)
(-0.000983507 -0.000253006 -0.000351225)
(-0.000957713 -0.000337762 -0.000351228)
(-0.00092463 -0.000419948 -0.000351229)
(-0.000884511 -0.000498939 -0.000351229)
(-0.00083766 -0.000574131 -0.000351228)
(-0.000784434 -0.000644952 -0.000351227)
(-0.000725237 -0.000710864 -0.000351227)
(-0.00066052 -0.000771368 -0.00035123)
(-0.000590778 -0.000826003 -0.00035123)
(-0.000516539 -0.00087435 -0.000351229)
(-0.000438369 -0.00091604 -0.000351228)
(-0.000356862 -0.00095076 -0.00035123)
(-0.000272639 -0.000978245 -0.000351231)
(-0.000186341 -0.000998286 -0.000351231)
(-9.86259e-05 -0.00101073 -0.000351229)
(-1.01608e-05 -0.00101548 -0.000351225)
(7.83809e-05 -0.0010125 -0.000351224)
(0.000166326 -0.00100182 -0.000351224)
(0.000253006 -0.000983507 -0.000351225)
(0.000337762 -0.000957713 -0.000351228)
(0.000419948 -0.00092463 -0.000351229)
(0.000498939 -0.000884511 -0.000351229)
(0.000574131 -0.00083766 -0.000351227)
(0.000644952 -0.000784434 -0.000351227)
(0.000710864 -0.000725237 -0.000351227)
(0.000771368 -0.00066052 -0.00035123)
(0.000826003 -0.000590778 -0.00035123)
(0.00087435 -0.000516539 -0.000351229)
(0.00091604 -0.000438369 -0.000351228)
(0.00095076 -0.000356862 -0.00035123)
(0.000978245 -0.000272639 -0.000351231)
(0.000998286 -0.000186341 -0.000351231)
(0.00101073 -9.86259e-05 -0.000351229)
(0.00101548 -1.01608e-05 -0.000351225)
(0.0010125 7.83809e-05 -0.000351224)
(0.00100182 0.000166326 -0.000351224)
(0.000983507 0.000253006 -0.000351225)
(0.000957713 0.000337762 -0.000351228)
(0.00092463 0.000419948 -0.000351229)
(0.000884511 0.000498939 -0.000351229)
(0.00083766 0.000574131 -0.000351227)
(0.000784434 0.000644952 -0.000351227)
(0.000725237 0.000710864 -0.000351227)
(0.00066052 0.000771368 -0.00035123)
(0.000590778 0.000826003 -0.00035123)
(0.000516539 0.00087435 -0.000351229)
(0.000438369 0.00091604 -0.000351228)
(0.000356862 0.00095076 -0.00035123)
(0.000272639 0.000978245 -0.000351231)
(0.000186341 0.000998286 -0.000351231)
(9.86259e-05 0.00101073 -0.000351229)
(1.01607e-05 0.00101548 -0.000351225)
(-7.83809e-05 0.0010125 -0.000351224)
(-0.000166326 0.00100182 -0.000351224)
(-0.000253006 0.000983507 -0.000351225)
(-0.000337762 0.000957713 -0.000351228)
(-0.000419948 0.00092463 -0.000351229)
(-0.000498939 0.000884511 -0.000351229)
(-0.000574131 0.00083766 -0.000351227)
(-0.000644952 0.000784434 -0.000351227)
(-0.000710864 0.000725237 -0.000351227)
(-0.000771368 0.00066052 -0.00035123)
(-0.000826003 0.000590778 -0.00035123)
(-0.000855242 0.000652115 -0.000222711)
(-0.000908822 0.000575095 -0.00022271)
(-0.000955485 0.000493696 -0.000222711)
(-0.000994879 0.000408541 -0.000222711)
(-0.0010267 0.000320277 -0.00022271)
(-0.00105071 0.000229576 -0.00022271)
(-0.00106672 0.000137128 -0.000222708)
(-0.00107461 4.36363e-05 -0.000222708)
(-0.00107432 -5.01873e-05 -0.000222708)
(-0.00106586 -0.00014363 -0.000222708)
(-0.00104929 -0.00023598 -0.000222708)
(-0.00102473 -0.000326534 -0.000222709)
(-0.00099237 -0.000414604 -0.000222709)
(-0.000952459 -0.000499517 -0.000222709)
(-0.000905298 -0.000580627 -0.000222709)
(-0.000851248 -0.000657318 -0.000222709)
(-0.000790719 -0.000729009 -0.00022271)
(-0.000724173 -0.000795152 -0.00022271)
(-0.000652115 -0.000855242 -0.000222711)
(-0.000575095 -0.000908822 -0.00022271)
(-0.000493696 -0.000955485 -0.000222711)
(-0.000408541 -0.000994878 -0.000222711)
(-0.000320277 -0.0010267 -0.00022271)
(-0.000229576 -0.00105071 -0.00022271)
(-0.000137128 -0.00106672 -0.000222708)
(-4.36364e-05 -0.00107461 -0.000222708)
(5.01873e-05 -0.00107432 -0.000222708)
(0.00014363 -0.00106586 -0.000222708)
(0.00023598 -0.00104929 -0.000222708)
(0.000326534 -0.00102473 -0.000222709)
(0.000414604 -0.00099237 -0.000222709)
(0.000499517 -0.000952459 -0.000222709)
(0.000580627 -0.000905298 -0.000222709)
(0.000657318 -0.000851248 -0.000222709)
(0.000729009 -0.000790719 -0.00022271)
(0.000795152 -0.000724173 -0.00022271)
(0.000855242 -0.000652115 -0.000222711)
(0.000908822 -0.000575095 -0.00022271)
(0.000955485 -0.000493696 -0.000222711)
(0.000994878 -0.000408541 -0.000222711)
(0.0010267 -0.000320277 -0.00022271)
(0.00105071 -0.000229576 -0.00022271)
(0.00106672 -0.000137128 -0.000222709)
(0.00107461 -4.36364e-05 -0.000222708)
(0.00107432 5.01873e-05 -0.000222708)
(0.00106586 0.00014363 -0.000222708)
(0.00104929 0.00023598 -0.000222708)
(0.00102473 0.000326534 -0.000222709)
(0.00099237 0.000414604 -0.000222709)
(0.000952459 0.000499517 -0.000222709)
(0.000905298 0.000580627 -0.000222709)
(0.000851248 0.000657318 -0.000222709)
(0.000790719 0.000729009 -0.00022271)
(0.000724173 0.000795152 -0.00022271)
(0.000652115 0.000855242 -0.000222711)
(0.000575095 0.000908822 -0.00022271)
(0.000493696 0.000955485 -0.000222711)
(0.000408541 0.000994878 -0.000222711)
(0.000320277 0.0010267 -0.00022271)
(0.000229576 0.00105071 -0.00022271)
(0.000137128 0.00106672 -0.000222709)
(4.36364e-05 0.00107461 -0.000222708)
(-5.01873e-05 0.00107432 -0.000222708)
(-0.00014363 0.00106586 -0.000222708)
(-0.00023598 0.00104929 -0.000222708)
(-0.000326534 0.00102473 -0.000222709)
(-0.000414604 0.00099237 -0.000222709)
(-0.000499517 0.000952459 -0.000222709)
(-0.000580627 0.000905298 -0.000222709)
(-0.000657318 0.000851248 -0.000222709)
(-0.000729009 0.000790719 -0.00022271)
(-0.000795152 0.000724173 -0.00022271)
(-0.000865637 0.000858991 -8.94611e-05)
(-0.000937209 0.000780278 -8.94606e-05)
(-0.00100165 0.000695625 -8.946e-05)
(-0.00105846 0.000605678 -8.94603e-05)
(-0.00110722 0.000511121 -8.94602e-05)
(-0.00114756 0.000412676 -8.94605e-05)
(-0.00117916 0.00031109 -8.94608e-05)
(-0.00120178 0.000207136 -8.9461e-05)
(-0.00121526 0.000101607 -8.94607e-05)
(-0.0012195 -4.69788e-06 -8.94596e-05)
(-0.00121445 -0.000110967 -8.94591e-05)
(-0.00120015 -0.000216392 -8.94595e-05)
(-0.00117673 -0.000320169 -8.94599e-05)
(-0.00114435 -0.000421509 -8.94606e-05)
(-0.00110325 -0.00051964 -8.94608e-05)
(-0.00105377 -0.000613816 -8.94605e-05)
(-0.000996258 -0.000703323 -8.94606e-05)
(-0.000931167 -0.000787477 -8.94603e-05)
(-0.000858991 -0.000865637 -8.94611e-05)
(-0.000780278 -0.000937209 -8.94606e-05)
(-0.000695625 -0.00100165 -8.946e-05)
(-0.000605678 -0.00105846 -8.94603e-05)
(-0.000511121 -0.00110722 -8.94602e-05)
(-0.000412676 -0.00114756 -8.94606e-05)
(-0.00031109 -0.00117916 -8.94608e-05)
(-0.000207136 -0.00120178 -8.94611e-05)
(-0.000101607 -0.00121526 -8.94607e-05)
(4.69784e-06 -0.0012195 -8.94596e-05)
(0.000110967 -0.00121445 -8.94591e-05)
(0.000216392 -0.00120015 -8.94595e-05)
(0.000320169 -0.00117673 -8.94599e-05)
(0.000421509 -0.00114435 -8.94606e-05)
(0.00051964 -0.00110325 -8.94607e-05)
(0.000613816 -0.00105377 -8.94605e-05)
(0.000703323 -0.000996258 -8.94606e-05)
(0.000787477 -0.000931167 -8.94603e-05)
(0.000865637 -0.000858991 -8.9461e-05)
(0.000937209 -0.000780278 -8.94606e-05)
(0.00100165 -0.000695625 -8.946e-05)
(0.00105846 -0.000605678 -8.94603e-05)
(0.00110722 -0.000511121 -8.94603e-05)
(0.00114756 -0.000412676 -8.94606e-05)
(0.00117916 -0.00031109 -8.94608e-05)
(0.00120178 -0.000207136 -8.94611e-05)
(0.00121526 -0.000101607 -8.94607e-05)
(0.0012195 4.69785e-06 -8.94596e-05)
(0.00121445 0.000110967 -8.94591e-05)
(0.00120015 0.000216392 -8.94596e-05)
(0.00117673 0.000320169 -8.94599e-05)
(0.00114435 0.000421509 -8.94606e-05)
(0.00110325 0.00051964 -8.94608e-05)
(0.00105377 0.000613816 -8.94605e-05)
(0.000996258 0.000703323 -8.94606e-05)
(0.000931167 0.000787477 -8.94603e-05)
(0.000858991 0.000865637 -8.9461e-05)
(0.000780278 0.000937209 -8.94605e-05)
(0.000695624 0.00100165 -8.946e-05)
(0.000605678 0.00105846 -8.94603e-05)
(0.000511121 0.00110722 -8.94603e-05)
(0.000412676 0.00114756 -8.94606e-05)
(0.00031109 0.00117916 -8.94608e-05)
(0.000207136 0.00120178 -8.94611e-05)
(0.000101607 0.00121526 -8.94608e-05)
(-4.69784e-06 0.0012195 -8.94596e-05)
(-0.000110967 0.00121445 -8.94592e-05)
(-0.000216392 0.00120015 -8.94596e-05)
(-0.000320169 0.00117673 -8.94599e-05)
(-0.000421509 0.00114435 -8.94606e-05)
(-0.00051964 0.00110325 -8.94608e-05)
(-0.000613816 0.00105377 -8.94605e-05)
(-0.000703323 0.000996258 -8.94606e-05)
(-0.000787477 0.000931167 -8.94603e-05)
(-0.00127777 0.000919996 -0.000593137)
(-0.00135309 0.00080513 -0.000593137)
(-0.00141811 0.000684136 -0.000593137)
(-0.00147234 0.000557936 -0.000593137)
(-0.00151537 0.000427489 -0.000593137)
(-0.00154686 0.000293789 -0.000593135)
(-0.00156658 0.000157854 -0.000593132)
(-0.00157438 2.07176e-05 -0.000593132)
(-0.00157019 -0.000116577 -0.000593131)
(-0.00155406 -0.000252985 -0.000593132)
(-0.0015261 -0.000387466 -0.000593132)
(-0.00148652 -0.000518999 -0.000593133)
(-0.00143563 -0.000646584 -0.000593133)
(-0.00137381 -0.000769247 -0.000593133)
(-0.00130154 -0.000886055 -0.000593133)
(-0.00121936 -0.000996119 -0.000593133)
(-0.0011279 -0.0010986 -0.000593136)
(-0.00102786 -0.00119273 -0.000593137)
(-0.000919996 -0.00127777 -0.000593137)
(-0.00080513 -0.00135309 -0.000593137)
(-0.000684136 -0.00141811 -0.000593137)
(-0.000557936 -0.00147234 -0.000593137)
(-0.000427489 -0.00151537 -0.000593137)
(-0.000293789 -0.00154686 -0.000593135)
(-0.000157854 -0.00156658 -0.000593132)
(-2.07177e-05 -0.00157438 -0.000593132)
(0.000116577 -0.00157019 -0.000593131)
(0.000252984 -0.00155406 -0.000593132)
(0.000387466 -0.0015261 -0.000593132)
(0.000518999 -0.00148652 -0.000593133)
(0.000646584 -0.00143563 -0.000593133)
(0.000769247 -0.00137381 -0.000593133)
(0.000886055 -0.00130154 -0.000593133)
(0.000996119 -0.00121936 -0.000593133)
(0.0010986 -0.0011279 -0.000593136)
(0.00119273 -0.00102786 -0.000593137)
(0.00127777 -0.000919996 -0.000593137)
(0.00135309 -0.00080513 -0.000593137)
(0.00141811 -0.000684136 -0.000593137)
(0.00147234 -0.000557936 -0.000593137)
(0.00151537 -0.000427489 -0.000593137)
(0.00154686 -0.000293789 -0.000593135)
(0.00156658 -0.000157854 -0.000593132)
(0.00157438 -2.07177e-05 -0.000593132)
(0.00157019 0.000116577 -0.000593131)
(0.00155406 0.000252984 -0.000593132)
(0.0015261 0.000387466 -0.000593132)
(0.00148652 0.000518999 -0.000593133)
(0.00143563 0.000646584 -0.000593133)
(0.00137381 0.000769247 -0.000593133)
(0.00130154 0.000886055 -0.000593133)
(0.00121936 0.000996119 -0.000593133)
(0.0011279 0.0010986 -0.000593136)
(0.00102786 0.00119273 -0.000593137)
(0.000919996 0.00127777 -0.000593137)
(0.00080513 0.00135309 -0.000593137)
(0.000684136 0.00141811 -0.000593137)
(0.000557936 0.00147234 -0.000593137)
(0.000427489 0.00151537 -0.000593137)
(0.000293789 0.00154686 -0.000593135)
(0.000157854 0.00156658 -0.000593132)
(2.07177e-05 0.00157438 -0.000593132)
(-0.000116577 0.00157019 -0.000593131)
(-0.000252984 0.00155406 -0.000593132)
(-0.000387466 0.0015261 -0.000593132)
(-0.000518999 0.00148652 -0.000593133)
(-0.000646584 0.00143563 -0.000593133)
(-0.000769247 0.00137381 -0.000593133)
(-0.000886055 0.00130154 -0.000593133)
(-0.000996119 0.00121936 -0.000593133)
(-0.0010986 0.0011279 -0.000593136)
(-0.00119273 0.00102786 -0.000593137)
(-0.00131699 0.00116057 -0.000406207)
(-0.00141313 0.00104137 -0.000406207)
(-0.00149852 0.000914249 -0.000406207)
(-0.0015725 0.000780166 -0.000406207)
(-0.00163451 0.000640144 -0.000406207)
(-0.00168408 0.000495251 -0.000406206)
(-0.00172084 0.000346591 -0.000406205)
(-0.0017445 0.000195291 -0.000406205)
(-0.00175488 4.25056e-05 -0.000406204)
(-0.00175191 -0.000110604 -0.000406204)
(-0.0017356 -0.000262871 -0.000406205)
(-0.00170608 -0.000413139 -0.000406205)
(-0.00166358 -0.000560263 -0.000406205)
(-0.00160842 -0.000703121 -0.000406205)
(-0.00154102 -0.000840629 -0.000406205)
(-0.00146189 -0.000971739 -0.000406206)
(-0.00137164 -0.00109545 -0.000406206)
(-0.00127094 -0.00121083 -0.000406206)
(-0.00116057 -0.00131699 -0.000406207)
(-0.00104137 -0.00141313 -0.000406207)
(-0.000914249 -0.00149852 -0.000406207)
(-0.000780166 -0.0015725 -0.000406207)
(-0.000640144 -0.00163451 -0.000406207)
(-0.000495251 -0.00168408 -0.000406206)
(-0.000346591 -0.00172084 -0.000406205)
(-0.000195291 -0.0017445 -0.000406205)
(-4.25057e-05 -0.00175488 -0.000406204)
(0.000110604 -0.00175191 -0.000406204)
(0.000262871 -0.0017356 -0.000406205)
(0.000413139 -0.00170608 -0.000406205)
(0.000560263 -0.00166358 -0.000406205)
(0.000703121 -0.00160842 -0.000406205)
(0.000840629 -0.00154102 -0.000406205)
(0.000971739 -0.00146189 -0.000406205)
(0.00109545 -0.00137164 -0.000406206)
(0.00121083 -0.00127094 -0.000406206)
(0.00131699 -0.00116057 -0.000406207)
(0.00141313 -0.00104137 -0.000406207)
(0.00149852 -0.000914249 -0.000406207)
(0.0015725 -0.000780166 -0.000406207)
(0.00163451 -0.000640144 -0.000406207)
(0.00168408 -0.000495251 -0.000406206)
(0.00172084 -0.000346591 -0.000406205)
(0.0017445 -0.000195291 -0.000406205)
(0.00175488 -4.25057e-05 -0.000406204)
(0.00175191 0.000110604 -0.000406204)
(0.0017356 0.000262871 -0.000406205)
(0.00170608 0.000413139 -0.000406205)
(0.00166358 0.000560263 -0.000406205)
(0.00160842 0.000703121 -0.000406205)
(0.00154102 0.000840629 -0.000406205)
(0.00146189 0.000971739 -0.000406205)
(0.00137164 0.00109545 -0.000406206)
(0.00127094 0.00121083 -0.000406206)
(0.00116057 0.00131699 -0.000406207)
(0.00104137 0.00141313 -0.000406207)
(0.000914248 0.00149852 -0.000406207)
(0.000780166 0.0015725 -0.000406207)
(0.000640144 0.00163451 -0.000406207)
(0.000495251 0.00168408 -0.000406207)
(0.000346591 0.00172084 -0.000406205)
(0.000195291 0.0017445 -0.000406205)
(4.25056e-05 0.00175488 -0.000406204)
(-0.000110604 0.00175191 -0.000406204)
(-0.000262871 0.0017356 -0.000406205)
(-0.000413139 0.00170608 -0.000406205)
(-0.000560263 0.00166358 -0.000406205)
(-0.000703121 0.00160842 -0.000406205)
(-0.000840629 0.00154102 -0.000406205)
(-0.000971739 0.00146189 -0.000406205)
(-0.00109545 0.00137164 -0.000406206)
(-0.00121083 0.00127094 -0.000406206)
(-0.00139615 0.00143487 -0.000233509)
(-0.00151589 0.00130773 -0.000233509)
(-0.0016241 0.00117063 -0.000233509)
(-0.00171995 0.00102463 -0.000233509)
(-0.0018027 0.000870825 -0.00023351)
(-0.00187174 0.000710397 -0.00023351)
(-0.00192653 0.000544561 -0.00023351)
(-0.00196667 0.000374581 -0.00023351)
(-0.00199183 0.000201749 -0.00023351)
(-0.00200183 2.73816e-05 -0.000233509)
(-0.0019966 -0.000147194 -0.000233509)
(-0.00197618 -0.00032065 -0.000233509)
(-0.00194071 -0.000491665 -0.000233509)
(-0.00189047 -0.000658938 -0.000233509)
(-0.00182585 -0.000821196 -0.000233509)
(-0.00174733 -0.000977204 -0.000233509)
(-0.00165551 -0.00112578 -0.000233509)
(-0.00155109 -0.00126578 -0.000233509)
(-0.00143487 -0.00139615 -0.000233509)
(-0.00130773 -0.00151589 -0.000233509)
(-0.00117063 -0.0016241 -0.000233509)
(-0.00102463 -0.00171995 -0.000233509)
(-0.000870825 -0.0018027 -0.00023351)
(-0.000710397 -0.00187174 -0.00023351)
(-0.000544561 -0.00192653 -0.00023351)
(-0.000374581 -0.00196667 -0.00023351)
(-0.000201749 -0.00199183 -0.00023351)
(-2.73816e-05 -0.00200183 -0.000233509)
(0.000147194 -0.0019966 -0.000233509)
(0.00032065 -0.00197618 -0.000233509)
(0.000491665 -0.00194071 -0.000233509)
(0.000658938 -0.00189047 -0.000233509)
(0.000821196 -0.00182585 -0.000233509)
(0.000977204 -0.00174733 -0.000233509)
(0.00112578 -0.00165551 -0.000233509)
(0.00126578 -0.00155109 -0.000233509)
(0.00139615 -0.00143487 -0.000233509)
(0.00151589 -0.00130773 -0.000233509)
(0.0016241 -0.00117063 -0.000233509)
(0.00171995 -0.00102463 -0.000233509)
(0.0018027 -0.000870825 -0.00023351)
(0.00187174 -0.000710397 -0.00023351)
(0.00192653 -0.000544561 -0.00023351)
(0.00196667 -0.000374581 -0.00023351)
(0.00199183 -0.000201749 -0.00023351)
(0.00200183 -2.73816e-05 -0.000233509)
(0.0019966 0.000147194 -0.000233509)
(0.00197618 0.00032065 -0.000233509)
(0.00194071 0.000491665 -0.000233509)
(0.00189047 0.000658938 -0.000233509)
(0.00182585 0.000821196 -0.000233509)
(0.00174733 0.000977204 -0.000233509)
(0.00165551 0.00112578 -0.000233509)
(0.00155109 0.00126578 -0.000233509)
(0.00143487 0.00139615 -0.000233509)
(0.00130773 0.00151589 -0.000233509)
(0.00117063 0.0016241 -0.000233509)
(0.00102463 0.00171995 -0.000233509)
(0.000870825 0.0018027 -0.00023351)
(0.000710397 0.00187174 -0.00023351)
(0.000544561 0.00192653 -0.00023351)
(0.000374581 0.00196667 -0.00023351)
(0.000201749 0.00199183 -0.00023351)
(2.73816e-05 0.00200183 -0.000233509)
(-0.000147194 0.0019966 -0.000233509)
(-0.00032065 0.00197618 -0.000233509)
(-0.000491665 0.00194071 -0.000233509)
(-0.000658938 0.00189047 -0.000233509)
(-0.000821196 0.00182585 -0.000233509)
(-0.000977204 0.00174733 -0.000233509)
(-0.00112578 0.00165551 -0.000233509)
(-0.00126578 0.00155109 -0.000233509)
(-0.00153794 0.00142356 -0.000846776)
(-0.00165616 0.0012841 -0.000846778)
(-0.00176177 0.00113487 -0.000846779)
(-0.00185398 0.000977001 -0.000846779)
(-0.00193208 0.000811697 -0.000846778)
(-0.00199547 0.000640217 -0.000846777)
(-0.00204367 0.000463865 -0.000846775)
(-0.00207632 0.000283982 -0.000846774)
(-0.00209317 0.000101938 -0.000846774)
(-0.00209409 -8.08826e-05 -0.000846776)
(-0.00207908 -0.000263088 -0.000846775)
(-0.00204824 -0.000443289 -0.000846775)
(-0.00200181 -0.000620118 -0.000846775)
(-0.00194014 -0.000792227 -0.000846774)
(-0.00186371 -0.000958307 -0.000846775)
(-0.0017731 -0.00111709 -0.000846775)
(-0.00166899 -0.00126738 -0.000846776)
(-0.00155218 -0.00140802 -0.000846776)
(-0.00142356 -0.00153794 -0.000846776)
(-0.0012841 -0.00165616 -0.000846778)
(-0.00113487 -0.00176177 -0.000846779)
(-0.000977001 -0.00185398 -0.000846779)
(-0.000811697 -0.00193208 -0.000846778)
(-0.000640217 -0.00199547 -0.000846777)
(-0.000463865 -0.00204367 -0.000846775)
(-0.000283982 -0.00207632 -0.000846774)
(-0.000101938 -0.00209317 -0.000846774)
(8.08825e-05 -0.00209409 -0.000846776)
(0.000263088 -0.00207908 -0.000846775)
(0.000443289 -0.00204824 -0.000846775)
(0.000620118 -0.00200181 -0.000846775)
(0.000792227 -0.00194014 -0.000846774)
(0.000958307 -0.00186371 -0.000846774)
(0.00111709 -0.0017731 -0.000846775)
(0.00126738 -0.00166899 -0.000846776)
(0.00140802 -0.00155218 -0.000846776)
(0.00153794 -0.00142356 -0.000846776)
(0.00165616 -0.0012841 -0.000846778)
(0.00176177 -0.00113487 -0.000846779)
(0.00185398 -0.000977001 -0.000846779)
(0.00193208 -0.000811697 -0.000846778)
(0.00199547 -0.000640217 -0.000846777)
(0.00204367 -0.000463865 -0.000846775)
(0.00207632 -0.000283982 -0.000846774)
(0.00209317 -0.000101938 -0.000846774)
(0.00209409 8.08826e-05 -0.000846776)
(0.00207908 0.000263088 -0.000846775)
(0.00204824 0.000443289 -0.000846775)
(0.00200181 0.000620118 -0.000846775)
(0.00194014 0.000792227 -0.000846774)
(0.00186371 0.000958307 -0.000846775)
(0.0017731 0.00111709 -0.000846775)
(0.00166899 0.00126738 -0.000846776)
(0.00155218 0.00140802 -0.000846776)
(0.00142356 0.00153794 -0.000846776)
(0.0012841 0.00165616 -0.000846778)
(0.00113487 0.00176177 -0.000846779)
(0.000977001 0.00185398 -0.000846779)
(0.000811697 0.00193208 -0.000846778)
(0.000640217 0.00199547 -0.000846777)
(0.000463865 0.00204367 -0.000846775)
(0.000283982 0.00207632 -0.000846774)
(0.000101938 0.00209317 -0.000846775)
(-8.08826e-05 0.00209409 -0.000846777)
(-0.000263088 0.00207908 -0.000846775)
(-0.000443289 0.00204824 -0.000846775)
(-0.000620118 0.00200181 -0.000846775)
(-0.000792227 0.00194014 -0.000846774)
(-0.000958307 0.00186371 -0.000846775)
(-0.00111709 0.0017731 -0.000846775)
(-0.00126738 0.00166899 -0.000846776)
(-0.00140802 0.00155218 -0.000846776)
(-0.00162861 0.00171306 -0.000632702)
(-0.00177171 0.0015646 -0.000632703)
(-0.00190134 0.00140423 -0.000632703)
(-0.00201649 0.00123317 -0.000632704)
(-0.00211629 0.00105273 -0.000632704)
(-0.00219999 0.000864277 -0.000632702)
(-0.00226694 0.000669246 -0.000632701)
(-0.00231665 0.000469123 -0.000632701)
(-0.00234872 0.000265429 -0.000632701)
(-0.00236291 5.97149e-05 -0.000632701)
(-0.00235913 -0.000146454 -0.000632701)
(-0.00233739 -0.000351508 -0.000632701)
(-0.00229786 -0.000553887 -0.000632701)
(-0.00224084 -0.000752051 -0.000632701)
(-0.00216676 -0.000944491 -0.000632701)
(-0.0020762 -0.00112974 -0.000632701)
(-0.00196984 -0.0013064 -0.000632702)
(-0.00184848 -0.00147311 -0.000632702)
(-0.00171306 -0.00162861 -0.000632702)
(-0.0015646 -0.00177171 -0.000632703)
(-0.00140423 -0.00190134 -0.000632703)
(-0.00123317 -0.00201649 -0.000632704)
(-0.00105273 -0.00211629 -0.000632704)
(-0.000864277 -0.00219999 -0.000632702)
(-0.000669246 -0.00226694 -0.000632701)