/*--------------------------------*- C++ -*----------------------------------*\
| =========                 |                                                 |
| \\      /  F ield         | OpenFOAM: The Open Source CFD Toolbox           |
|  \\    /   O peration     | Version:  2312                                  |
|   \\  /    A nd           | Website:  www.openfoam.com                      |
|    \\/     M anipulation  |                                                 |
\*---------------------------------------------------------------------------*/
FoamFile
{
    version     2.0;
    format      ascii;
    arch        "LSB;label=32;scalar=64";
    class       volVectorField;
    location    "0.5";
    object      D_0_0;
}
// * * * * * * * * * * * * * * * * * * * * * * * * * * * * * * * * * * * * * //

dimensions      [0 1 0 0 0 0 0];

internalField   nonuniform List<vector> 
3240
(
(-0.000359677 0.000172138 -0.000118317)
(-0.00037331 0.000140136 -0.000118316)
(-0.000384103 0.000107066 -0.000118318)
(-0.000391972 7.31803e-05 -0.000118318)
(-0.00039686 3.87391e-05 -0.000118317)
(-0.000398727 4.00297e-06 -0.000118317)
(-0.000397558 -3.07623e-05 -0.000118315)
(-0.000393364 -6.52938e-05 -0.000118315)
(-0.000386176 -9.93282e-05 -0.000118316)
(-0.00037605 -0.000132607 -0.000118317)
(-0.000363061 -0.000164878 -0.000118318)
(-0.000347309 -0.000195895 -0.000118318)
(-0.000328914 -0.000225421 -0.000118317)
(-0.000308017 -0.00025323 -0.000118316)
(-0.000284774 -0.000279109 -0.000118315)
(-0.000259364 -0.000302867 -0.000118316)
(-0.00023198 -0.00032432 -0.000118318)
(-0.000202831 -0.000343305 -0.000118317)
(-0.000172138 -0.000359677 -0.000118317)
(-0.000140136 -0.00037331 -0.000118316)
(-0.000107066 -0.000384103 -0.000118318)
(-7.31803e-05 -0.000391972 -0.000118318)
(-3.87391e-05 -0.00039686 -0.000118317)
(-4.00298e-06 -0.000398727 -0.000118317)
(3.07623e-05 -0.000397558 -0.000118315)
(6.52938e-05 -0.000393364 -0.000118315)
(9.93282e-05 -0.000386177 -0.000118316)
(0.000132607 -0.00037605 -0.000118317)
(0.000164878 -0.000363061 -0.000118318)
(0.000195895 -0.000347309 -0.000118318)
(0.000225421 -0.000328915 -0.000118317)
(0.00025323 -0.000308017 -0.000118316)
(0.000279109 -0.000284774 -0.000118315)
(0.000302867 -0.000259364 -0.000118316)
(0.00032432 -0.00023198 -0.000118318)
(0.000343305 -0.000202831 -0.000118317)
(0.000359677 -0.000172138 -0.000118317)
(0.00037331 -0.000140136 -0.000118316)
(0.000384103 -0.000107066 -0.000118318)
(0.000391972 -7.31803e-05 -0.000118318)
(0.00039686 -3.87391e-05 -0.000118317)
(0.000398727 -4.00297e-06 -0.000118317)
(0.000397558 3.07623e-05 -0.000118315)
(0.000393364 6.52938e-05 -0.000118315)
(0.000386177 9.93282e-05 -0.000118316)
(0.00037605 0.000132608 -0.000118317)
(0.000363061 0.000164878 -0.000118318)
(0.000347309 0.000195895 -0.000118318)
(0.000328915 0.000225421 -0.000118317)
(0.000308017 0.00025323 -0.000118316)
(0.000284774 0.000279109 -0.000118315)
(0.000259364 0.000302867 -0.000118316)
(0.00023198 0.00032432 -0.000118318)
(0.000202831 0.000343305 -0.000118317)
(0.000172138 0.000359677 -0.000118317)
(0.000140136 0.00037331 -0.000118316)
(0.000107066 0.000384103 -0.000118318)
(7.31803e-05 0.000391972 -0.000118318)
(3.87391e-05 0.00039686 -0.000118317)
(4.00297e-06 0.000398727 -0.000118317)
(-3.07623e-05 0.000397558 -0.000118315)
(-6.52939e-05 0.000393364 -0.000118315)
(-9.93283e-05 0.000386177 -0.000118316)
(-0.000132608 0.00037605 -0.000118317)
(-0.000164878 0.000363061 -0.000118318)
(-0.000195895 0.000347309 -0.000118318)
(-0.000225421 0.000328915 -0.000118317)
(-0.00025323 0.000308017 -0.000118316)
(-0.000279109 0.000284774 -0.000118315)
(-0.000302867 0.000259364 -0.000118316)
(-0.00032432 0.00023198 -0.000118318)
(-0.000343305 0.000202831 -0.000118317)
(-0.000300822 0.000199253 -7.56005e-05)
(-0.000317044 0.000172276 -7.56002e-05)
(-0.000330852 0.000143988 -7.56007e-05)
(-0.000342142 0.000114604 -7.56005e-05)
(-0.000350829 8.43479e-05 -7.56005e-05)
(-0.000356846 5.34504e-05 -7.56004e-05)
(-0.000360146 2.21459e-05 -7.55999e-05)
(-0.000360706 -9.32632e-06 -7.55994e-05)
(-0.000358521 -4.07274e-05 -7.55996e-05)
(-0.000353607 -7.18195e-05 -7.56004e-05)
(-0.000346002 -0.000102366 -7.56005e-05)
(-0.000335763 -0.000132133 -7.56004e-05)
(-0.00032297 -0.000160894 -7.56001e-05)
(-0.000307718 -0.00018843 -7.55999e-05)
(-0.000290124 -0.000214532 -7.56e-05)
(-0.000270322 -0.000239002 -7.56001e-05)
(-0.000248463 -0.000261652 -7.56007e-05)
(-0.000224713 -0.000282312 -7.56004e-05)
(-0.000199253 -0.000300822 -7.56005e-05)
(-0.000172276 -0.000317044 -7.56002e-05)
(-0.000143988 -0.000330852 -7.56007e-05)
(-0.000114604 -0.000342142 -7.56005e-05)
(-8.43479e-05 -0.000350829 -7.56005e-05)
(-5.34504e-05 -0.000356846 -7.56004e-05)
(-2.2146e-05 -0.000360146 -7.55999e-05)
(9.3263e-06 -0.000360706 -7.55994e-05)
(4.07273e-05 -0.000358521 -7.55996e-05)
(7.18195e-05 -0.000353607 -7.56004e-05)
(0.000102366 -0.000346002 -7.56005e-05)
(0.000132133 -0.000335764 -7.56004e-05)
(0.000160894 -0.00032297 -7.56001e-05)
(0.00018843 -0.000307718 -7.55999e-05)
(0.000214532 -0.000290124 -7.55999e-05)
(0.000239002 -0.000270322 -7.56e-05)
(0.000261652 -0.000248463 -7.56007e-05)
(0.000282312 -0.000224713 -7.56004e-05)
(0.000300822 -0.000199252 -7.56005e-05)
(0.000317044 -0.000172276 -7.56002e-05)
(0.000330852 -0.000143988 -7.56007e-05)
(0.000342142 -0.000114604 -7.56005e-05)
(0.000350829 -8.43479e-05 -7.56005e-05)
(0.000356846 -5.34504e-05 -7.56004e-05)
(0.000360146 -2.2146e-05 -7.55999e-05)
(0.000360706 9.3263e-06 -7.55994e-05)
(0.000358521 4.07273e-05 -7.55996e-05)
(0.000353607 7.18195e-05 -7.56005e-05)
(0.000346002 0.000102366 -7.56005e-05)
(0.000335764 0.000132133 -7.56004e-05)
(0.00032297 0.000160894 -7.56001e-05)
(0.000307718 0.00018843 -7.55999e-05)
(0.000290124 0.000214532 -7.55999e-05)
(0.000270322 0.000239002 -7.56e-05)
(0.000248463 0.000261652 -7.56007e-05)
(0.000224713 0.000282312 -7.56004e-05)
(0.000199252 0.000300822 -7.56005e-05)
(0.000172276 0.000317044 -7.56002e-05)
(0.000143988 0.000330852 -7.56007e-05)
(0.000114604 0.000342142 -7.56005e-05)
(8.43479e-05 0.000350829 -7.56005e-05)
(5.34504e-05 0.000356846 -7.56004e-05)
(2.2146e-05 0.000360146 -7.55999e-05)
(-9.3263e-06 0.000360706 -7.55994e-05)
(-4.07274e-05 0.000358521 -7.55996e-05)
(-7.18195e-05 0.000353607 -7.56005e-05)
(-0.000102366 0.000346002 -7.56006e-05)
(-0.000132133 0.000335764 -7.56004e-05)
(-0.000160894 0.00032297 -7.56001e-05)
(-0.00018843 0.000307718 -7.55999e-05)
(-0.000214532 0.000290124 -7.55999e-05)
(-0.000239002 0.000270322 -7.56e-05)
(-0.000261652 0.000248463 -7.56007e-05)
(-0.000282312 0.000224713 -7.56004e-05)
(-0.000258538 0.000282523 -2.4707e-05)
(-0.000282177 0.000258915 -2.47069e-05)
(-0.000303669 0.000233336 -2.47065e-05)
(-0.00032285 0.000205981 -2.47067e-05)
(-0.000339575 0.000177059 -2.47071e-05)
(-0.000353714 0.000146789 -2.47071e-05)
(-0.00036516 0.000115402 -2.47069e-05)
(-0.000373829 8.3138e-05 -2.47072e-05)
(-0.000379654 5.02412e-05 -2.47071e-05)
(-0.000382589 1.69609e-05 -2.47074e-05)
(-0.00038261 -1.64491e-05 -2.47069e-05)
(-0.000379721 -4.97334e-05 -2.47066e-05)
(-0.000373941 -8.26397e-05 -2.47063e-05)
(-0.000365316 -0.000114917 -2.47068e-05)
(-0.00035391 -0.000146318 -2.47074e-05)
(-0.000339811 -0.000176606 -2.47073e-05)
(-0.000323125 -0.00020555 -2.4707e-05)
(-0.000303981 -0.00023293 -2.47069e-05)
(-0.000282523 -0.000258538 -2.4707e-05)
(-0.000258915 -0.000282177 -2.47069e-05)
(-0.000233336 -0.000303669 -2.47065e-05)
(-0.000205981 -0.00032285 -2.47067e-05)
(-0.000177059 -0.000339575 -2.47071e-05)
(-0.000146789 -0.000353714 -2.47072e-05)
(-0.000115402 -0.00036516 -2.47069e-05)
(-8.3138e-05 -0.000373829 -2.47073e-05)
(-5.02412e-05 -0.000379654 -2.47071e-05)
(-1.69609e-05 -0.000382589 -2.47074e-05)
(1.6449e-05 -0.00038261 -2.47069e-05)
(4.97334e-05 -0.000379721 -2.47066e-05)
(8.26397e-05 -0.000373941 -2.47063e-05)
(0.000114917 -0.000365317 -2.47068e-05)
(0.000146318 -0.00035391 -2.47074e-05)
(0.000176606 -0.000339811 -2.47073e-05)
(0.00020555 -0.000323125 -2.47069e-05)
(0.00023293 -0.000303981 -2.47069e-05)
(0.000258538 -0.000282523 -2.4707e-05)
(0.000282177 -0.000258915 -2.47069e-05)
(0.000303669 -0.000233336 -2.47065e-05)
(0.00032285 -0.000205981 -2.47068e-05)
(0.000339575 -0.000177059 -2.47071e-05)
(0.000353714 -0.000146789 -2.47072e-05)
(0.00036516 -0.000115402 -2.47069e-05)
(0.000373829 -8.3138e-05 -2.47073e-05)
(0.000379654 -5.02412e-05 -2.47071e-05)
(0.000382589 -1.69609e-05 -2.47074e-05)
(0.00038261 1.6449e-05 -2.47069e-05)
(0.000379721 4.97334e-05 -2.47066e-05)
(0.000373941 8.26397e-05 -2.47063e-05)
(0.000365317 0.000114917 -2.47068e-05)
(0.00035391 0.000146318 -2.47074e-05)
(0.000339811 0.000176606 -2.47073e-05)
(0.000323125 0.00020555 -2.47069e-05)
(0.000303981 0.00023293 -2.47069e-05)
(0.000282523 0.000258538 -2.4707e-05)
(0.000258915 0.000282177 -2.47069e-05)
(0.000233336 0.000303669 -2.47065e-05)
(0.000205981 0.00032285 -2.47068e-05)
(0.000177059 0.000339575 -2.47071e-05)
(0.000146789 0.000353714 -2.47072e-05)
(0.000115402 0.00036516 -2.47069e-05)
(8.3138e-05 0.000373829 -2.47073e-05)
(5.02412e-05 0.000379654 -2.47071e-05)
(1.69609e-05 0.000382588 -2.47074e-05)
(-1.6449e-05 0.00038261 -2.4707e-05)
(-4.97334e-05 0.000379721 -2.47066e-05)
(-8.26397e-05 0.000373941 -2.47063e-05)
(-0.000114917 0.000365317 -2.47068e-05)
(-0.000146318 0.00035391 -2.47074e-05)
(-0.000176606 0.000339811 -2.47073e-05)
(-0.00020555 0.000323125 -2.4707e-05)
(-0.00023293 0.000303981 -2.47069e-05)
(-0.000887982 0.000512228 -0.000353885)
(-0.000929245 0.000432886 -0.000353884)
(-0.000963436 0.000350249 -0.000353886)
(-0.000990297 0.000264946 -0.000353887)
(-0.00100962 0.000177627 -0.000353887)
(-0.00102126 8.89572e-05 -0.000353885)
(-0.00102513 -3.89205e-07 -0.000353881)
(-0.0010212 -8.97318e-05 -0.00035388)
(-0.00100949 -0.000178392 -0.000353879)
(-0.000990098 -0.000265694 -0.000353881)
(-0.000963173 -0.000350976 -0.000353884)
(-0.000928918 -0.000433588 -0.000353885)
(-0.000887593 -0.000512901 -0.000353885)
(-0.000839514 -0.000588309 -0.000353884)
(-0.000785046 -0.000659237 -0.000353883)
(-0.000724601 -0.000725148 -0.000353883)
(-0.000658642 -0.000785542 -0.000353886)
(-0.000587671 -0.00083996 -0.000353886)
(-0.000512228 -0.000887982 -0.000353885)
(-0.000432886 -0.000929245 -0.000353884)
(-0.000350249 -0.000963436 -0.000353886)
(-0.000264946 -0.000990297 -0.000353887)
(-0.000177627 -0.00100962 -0.000353887)
(-8.89572e-05 -0.00102126 -0.000353885)
(3.89148e-07 -0.00102513 -0.000353881)
(8.97317e-05 -0.0010212 -0.00035388)
(0.000178392 -0.00100949 -0.000353879)
(0.000265694 -0.000990098 -0.000353881)
(0.000350976 -0.000963173 -0.000353884)
(0.000433588 -0.000928918 -0.000353885)
(0.000512901 -0.000887593 -0.000353885)
(0.000588309 -0.000839514 -0.000353883)
(0.000659237 -0.000785046 -0.000353883)
(0.000725147 -0.000724601 -0.000353883)
(0.000785542 -0.000658642 -0.000353886)
(0.00083996 -0.000587671 -0.000353886)
(0.000887982 -0.000512228 -0.000353885)
(0.000929245 -0.000432886 -0.000353884)
(0.000963436 -0.000350249 -0.000353886)
(0.000990297 -0.000264946 -0.000353887)
(0.00100962 -0.000177627 -0.000353887)
(0.00102126 -8.89572e-05 -0.000353885)
(0.00102513 3.89162e-07 -0.000353881)
(0.0010212 8.97317e-05 -0.00035388)
(0.00100949 0.000178392 -0.000353879)
(0.000990098 0.000265694 -0.000353881)
(0.000963173 0.000350976 -0.000353884)
(0.000928918 0.000433588 -0.000353885)
(0.000887593 0.000512901 -0.000353885)
(0.000839514 0.000588309 -0.000353883)
(0.000785046 0.000659237 -0.000353883)
(0.000724601 0.000725147 -0.000353883)
(0.000658642 0.000785542 -0.000353886)
(0.000587671 0.00083996 -0.000353886)
(0.000512228 0.000887982 -0.000353885)
(0.000432886 0.000929245 -0.000353884)
(0.000350249 0.000963436 -0.000353886)
(0.000264946 0.000990297 -0.000353887)
(0.000177627 0.00100962 -0.000353887)
(8.89572e-05 0.00102126 -0.000353885)
(-3.8918e-07 0.00102513 -0.000353881)
(-8.97318e-05 0.0010212 -0.00035388)
(-0.000178392 0.00100949 -0.000353879)
(-0.000265694 0.000990098 -0.000353881)
(-0.000350976 0.000963173 -0.000353884)
(-0.000433588 0.000928918 -0.000353885)
(-0.000512901 0.000887593 -0.000353885)
(-0.000588309 0.000839514 -0.000353883)
(-0.000659237 0.000785046 -0.000353883)
(-0.000725147 0.000724601 -0.000353883)
(-0.000785542 0.000658642 -0.000353886)
(-0.00083996 0.000587671 -0.000353886)
(-0.000869323 0.000648264 -0.000225409)
(-0.000922513 0.000570031 -0.000225408)
(-0.000968684 0.000487459 -0.000225409)
(-0.00100748 0.000401177 -0.000225409)
(-0.00103862 0.000311842 -0.000225408)
(-0.00106184 0.000220135 -0.000225408)
(-0.00107699 0.000126752 -0.000225407)
(-0.00108394 3.24054e-05 -0.000225406)
(-0.00108264 -6.21882e-05 -0.000225406)
(-0.0010731 -0.000156309 -0.000225406)
(-0.00105539 -0.000249242 -0.000225406)
(-0.00102965 -0.000340278 -0.000225407)
(-0.000996075 -0.000428724 -0.000225407)
(-0.00095492 -0.000513906 -0.000225407)
(-0.000906495 -0.000595176 -0.000225407)
(-0.000851172 -0.000671916 -0.000225407)
(-0.000789372 -0.000743545 -0.000225408)
(-0.000721564 -0.000809515 -0.000225408)
(-0.000648264 -0.000869323 -0.000225409)
(-0.000570031 -0.000922513 -0.000225408)
(-0.000487459 -0.000968683 -0.000225409)
(-0.000401177 -0.00100748 -0.000225409)
(-0.000311842 -0.00103862 -0.000225408)
(-0.000220135 -0.00106184 -0.000225408)
(-0.000126753 -0.00107699 -0.000225407)
(-3.24055e-05 -0.00108394 -0.000225406)
(6.21882e-05 -0.00108264 -0.000225406)
(0.000156309 -0.0010731 -0.000225406)
(0.000249242 -0.00105539 -0.000225406)
(0.000340277 -0.00102965 -0.000225407)
(0.000428724 -0.000996075 -0.000225407)
(0.000513906 -0.00095492 -0.000225407)
(0.000595176 -0.000906495 -0.000225407)
(0.000671916 -0.000851172 -0.000225407)
(0.000743545 -0.000789372 -0.000225408)
(0.000809515 -0.000721564 -0.000225408)
(0.000869323 -0.000648264 -0.000225409)
(0.000922513 -0.000570031 -0.000225408)
(0.000968683 -0.000487459 -0.000225409)
(0.00100748 -0.000401177 -0.000225409)
(0.00103862 -0.000311842 -0.000225408)
(0.00106184 -0.000220135 -0.000225408)
(0.00107699 -0.000126753 -0.000225407)
(0.00108394 -3.24055e-05 -0.000225406)
(0.00108264 6.21882e-05 -0.000225406)
(0.0010731 0.000156309 -0.000225406)
(0.00105539 0.000249242 -0.000225406)
(0.00102965 0.000340277 -0.000225407)
(0.000996075 0.000428724 -0.000225407)
(0.00095492 0.000513906 -0.000225407)
(0.000906495 0.000595176 -0.000225407)
(0.000851172 0.000671916 -0.000225407)
(0.000789372 0.000743545 -0.000225408)
(0.000721564 0.000809515 -0.000225408)
(0.000648264 0.000869323 -0.000225409)
(0.000570031 0.000922513 -0.000225408)
(0.000487459 0.000968683 -0.000225409)
(0.000401177 0.00100748 -0.000225409)
(0.000311842 0.00103862 -0.000225408)
(0.000220135 0.00106184 -0.000225408)
(0.000126752 0.00107699 -0.000225407)
(3.24055e-05 0.00108394 -0.000225406)
(-6.21882e-05 0.00108264 -0.000225406)
(-0.000156309 0.0010731 -0.000225406)
(-0.000249242 0.00105539 -0.000225406)
(-0.000340277 0.00102965 -0.000225407)
(-0.000428724 0.000996075 -0.000225407)
(-0.000513906 0.00095492 -0.000225407)
(-0.000595176 0.000906495 -0.000225407)
(-0.000671916 0.000851172 -0.000225407)
(-0.000743545 0.000789372 -0.000225408)
(-0.000809515 0.000721564 -0.000225408)
(-0.000880222 0.000858518 -9.15271e-05)
(-0.000951697 0.000778536 -9.15266e-05)
(-0.00101593 0.000692626 -9.1526e-05)
(-0.00107243 0.000601446 -9.15263e-05)
(-0.00112077 0.000505689 -9.15262e-05)
(-0.00116058 0.000406084 -9.15266e-05)
(-0.00119155 0.000303388 -9.15268e-05)
(-0.00121346 0.000198384 -9.15271e-05)
(-0.00122613 9.18695e-05 -9.15267e-05)
(-0.00122947 -1.53452e-05 -9.15256e-05)
(-0.00122346 -0.000122443 -9.15251e-05)
(-0.00120813 -0.00022861 -9.15255e-05)
(-0.00118361 -0.000333036 -9.15259e-05)
(-0.00115008 -0.000434927 -9.15266e-05)
(-0.0011078 -0.000533507 -9.15268e-05)
(-0.00105708 -0.000628027 -9.15265e-05)
(-0.000998325 -0.000717769 -9.15266e-05)
(-0.000931968 -0.000802047 -9.15263e-05)
(-0.000858518 -0.000880222 -9.15271e-05)
(-0.000778536 -0.000951697 -9.15266e-05)
(-0.000692626 -0.00101593 -9.1526e-05)
(-0.000601446 -0.00107243 -9.15263e-05)
(-0.000505689 -0.00112077 -9.15263e-05)
(-0.000406084 -0.00116058 -9.15266e-05)
(-0.000303388 -0.00119155 -9.15268e-05)
(-0.000198384 -0.00121346 -9.15271e-05)
(-9.18695e-05 -0.00122613 -9.15268e-05)
(1.53452e-05 -0.00122947 -9.15256e-05)
(0.000122443 -0.00122346 -9.15251e-05)
(0.00022861 -0.00120813 -9.15255e-05)
(0.000333036 -0.00118361 -9.15259e-05)
(0.000434927 -0.00115008 -9.15266e-05)
(0.000533507 -0.0011078 -9.15268e-05)
(0.000628027 -0.00105708 -9.15265e-05)
(0.000717769 -0.000998325 -9.15266e-05)
(0.000802047 -0.000931968 -9.15263e-05)
(0.000880222 -0.000858518 -9.15271e-05)
(0.000951697 -0.000778536 -9.15266e-05)
(0.00101593 -0.000692626 -9.1526e-05)
(0.00107243 -0.000601446 -9.15263e-05)
(0.00112077 -0.000505689 -9.15263e-05)
(0.00116058 -0.000406084 -9.15266e-05)
(0.00119155 -0.000303388 -9.15269e-05)
(0.00121346 -0.000198384 -9.15271e-05)
(0.00122613 -9.18695e-05 -9.15268e-05)
(0.00122947 1.53452e-05 -9.15256e-05)
(0.00122346 0.000122443 -9.15251e-05)
(0.00120813 0.00022861 -9.15255e-05)
(0.00118361 0.000333036 -9.15259e-05)
(0.00115008 0.000434927 -9.15266e-05)
(0.0011078 0.000533507 -9.15268e-05)
(0.00105708 0.000628027 -9.15265e-05)
(0.000998325 0.000717769 -9.15266e-05)
(0.000931968 0.000802047 -9.15263e-05)
(0.000858518 0.000880222 -9.15271e-05)
(0.000778536 0.000951697 -9.15266e-05)
(0.000692626 0.00101593 -9.1526e-05)
(0.000601446 0.00107243 -9.15263e-05)
(0.000505689 0.00112077 -9.15263e-05)
(0.000406084 0.00116058 -9.15266e-05)
(0.000303388 0.00119155 -9.15269e-05)
(0.000198384 0.00121346 -9.15272e-05)
(9.18695e-05 0.00122613 -9.15268e-05)
(-1.53452e-05 0.00122947 -9.15257e-05)
(-0.000122443 0.00122346 -9.15252e-05)
(-0.00022861 0.00120813 -9.15256e-05)
(-0.000333036 0.00118361 -9.15259e-05)
(-0.000434927 0.00115008 -9.15266e-05)
(-0.000533507 0.0011078 -9.15268e-05)
(-0.000628027 0.00105708 -9.15265e-05)
(-0.000717769 0.000998325 -9.15266e-05)
(-0.000802047 0.000931968 -9.15263e-05)
(-0.00129583 0.000913815 -0.000597415)
(-0.00137054 0.000797398 -0.000597415)
(-0.00143482 0.000674913 -0.000597416)
(-0.00148819 0.000547292 -0.000597415)
(-0.00153022 0.000415505 -0.000597416)
(-0.00156062 0.000280556 -0.000597413)
(-0.00157913 0.000143472 -0.00059741)
(-0.00158562 5.29708e-06 -0.00059741)
(-0.00158005 -0.000132919 -0.00059741)
(-0.00156246 -0.000270124 -0.00059741)
(-0.00153297 -0.000405272 -0.00059741)
(-0.00149181 -0.000537336 -0.000597412)
(-0.0014393 -0.000665312 -0.000597412)
(-0.00137584 -0.000788225 -0.000597412)
(-0.00130191 -0.000905137 -0.000597412)
(-0.00121806 -0.00101516 -0.000597412)
(-0.00112495 -0.00111746 -0.000597415)
(-0.00102328 -0.00121125 -0.000597416)
(-0.000913815 -0.00129583 -0.000597415)
(-0.000797398 -0.00137054 -0.000597415)
(-0.000674913 -0.00143482 -0.000597416)
(-0.000547292 -0.00148819 -0.000597415)
(-0.000415505 -0.00153022 -0.000597416)
(-0.000280555 -0.00156062 -0.000597413)
(-0.000143472 -0.00157913 -0.00059741)
(-5.29724e-06 -0.00158562 -0.00059741)
(0.000132919 -0.00158005 -0.00059741)
(0.000270124 -0.00156246 -0.00059741)
(0.000405272 -0.00153297 -0.00059741)
(0.000537336 -0.00149181 -0.000597412)
(0.000665312 -0.0014393 -0.000597412)
(0.000788225 -0.00137584 -0.000597412)
(0.000905137 -0.00130191 -0.000597412)
(0.00101516 -0.00121806 -0.000597412)
(0.00111746 -0.00112495 -0.000597414)
(0.00121125 -0.00102328 -0.000597416)
(0.00129583 -0.000913815 -0.000597415)
(0.00137054 -0.000797398 -0.000597415)
(0.00143482 -0.000674913 -0.000597416)
(0.00148819 -0.000547292 -0.000597415)
(0.00153022 -0.000415505 -0.000597416)
(0.00156062 -0.000280555 -0.000597413)
(0.00157913 -0.000143472 -0.00059741)
(0.00158562 -5.29722e-06 -0.00059741)
(0.00158005 0.000132919 -0.00059741)
(0.00156246 0.000270124 -0.00059741)
(0.00153297 0.000405272 -0.00059741)
(0.00149181 0.000537336 -0.000597412)
(0.0014393 0.000665312 -0.000597412)
(0.00137584 0.000788225 -0.000597412)
(0.00130191 0.000905137 -0.000597412)
(0.00121806 0.00101516 -0.000597412)
(0.00112495 0.00111746 -0.000597414)
(0.00102328 0.00121125 -0.000597415)
(0.000913815 0.00129583 -0.000597415)
(0.000797398 0.00137054 -0.000597415)
(0.000674913 0.00143482 -0.000597416)
(0.000547292 0.00148819 -0.000597415)
(0.000415505 0.00153022 -0.000597416)
(0.000280555 0.00156062 -0.000597413)
(0.000143472 0.00157913 -0.00059741)
(5.29721e-06 0.00158562 -0.00059741)
(-0.000132919 0.00158005 -0.00059741)
(-0.000270124 0.00156246 -0.00059741)
(-0.000405272 0.00153297 -0.00059741)
(-0.000537336 0.00149181 -0.000597412)
(-0.000665312 0.0014393 -0.000597412)
(-0.000788225 0.00137584 -0.000597412)
(-0.000905137 0.00130191 -0.000597412)
(-0.00101516 0.00121806 -0.000597412)
(-0.00111746 0.00112495 -0.000597414)
(-0.00121125 0.00102328 -0.000597416)
(-0.00133672 0.00115706 -0.000409598)
(-0.00143248 0.00103616 -0.000409598)
(-0.00151733 0.000907367 -0.000409598)
(-0.00159064 0.00077167 -0.000409598)
(-0.00165184 0.0006301 -0.000409598)
(-0.00170047 0.000483734 -0.000409598)
(-0.00173616 0.000333689 -0.000409596)
(-0.00175864 0.000181102 -0.000409596)
(-0.00176773 2.71381e-05 -0.000409595)
(-0.00176337 -0.000127033 -0.000409595)
(-0.00174559 -0.000280237 -0.000409596)
(-0.00171452 -0.00043131 -0.000409596)
(-0.00167041 -0.0005791 -0.000409596)
(-0.00161358 -0.000722481 -0.000409596)
(-0.00154447 -0.000860365 -0.000409596)
(-0.00146361 -0.0009917 -0.000409597)
(-0.0013716 -0.00111549 -0.000409597)
(-0.00126916 -0.00123079 -0.000409597)
(-0.00115706 -0.00133672 -0.000409598)
(-0.00103616 -0.00143248 -0.000409598)
(-0.000907367 -0.00151733 -0.000409598)
(-0.00077167 -0.00159064 -0.000409598)
(-0.0006301 -0.00165184 -0.000409598)
(-0.000483734 -0.00170047 -0.000409598)
(-0.000333689 -0.00173616 -0.000409596)
(-0.000181103 -0.00175864 -0.000409596)
(-2.71381e-05 -0.00176773 -0.000409595)
(0.000127033 -0.00176337 -0.000409595)
(0.000280237 -0.00174559 -0.000409596)
(0.00043131 -0.00171452 -0.000409596)
(0.0005791 -0.00167041 -0.000409596)
(0.000722481 -0.00161358 -0.000409596)
(0.000860365 -0.00154447 -0.000409596)
(0.0009917 -0.00146361 -0.000409597)
(0.00111549 -0.0013716 -0.000409597)
(0.00123079 -0.00126916 -0.000409597)
(0.00133672 -0.00115706 -0.000409598)
(0.00143248 -0.00103616 -0.000409598)
(0.00151733 -0.000907367 -0.000409598)
(0.00159064 -0.00077167 -0.000409598)
(0.00165184 -0.0006301 -0.000409598)
(0.00170047 -0.000483734 -0.000409598)
(0.00173616 -0.000333689 -0.000409596)
(0.00175864 -0.000181103 -0.000409596)
(0.00176773 -2.71381e-05 -0.000409595)
(0.00176337 0.000127033 -0.000409595)
(0.00174559 0.000280237 -0.000409596)
(0.00171452 0.00043131 -0.000409596)
(0.00167041 0.0005791 -0.000409596)
(0.00161358 0.000722481 -0.000409596)
(0.00154447 0.000860365 -0.000409596)
(0.00146361 0.0009917 -0.000409597)
(0.0013716 0.00111549 -0.000409597)
(0.00126916 0.00123079 -0.000409597)
(0.00115706 0.00133672 -0.000409598)
(0.00103616 0.00143248 -0.000409598)
(0.000907367 0.00151733 -0.000409598)
(0.00077167 0.00159064 -0.000409598)
(0.0006301 0.00165184 -0.000409598)
(0.000483734 0.00170047 -0.000409598)
(0.000333689 0.00173616 -0.000409596)
(0.000181103 0.00175864 -0.000409596)
(2.71381e-05 0.00176773 -0.000409595)
(-0.000127033 0.00176337 -0.000409595)
(-0.000280237 0.00174559 -0.000409596)
(-0.00043131 0.00171452 -0.000409596)
(-0.0005791 0.00167041 -0.000409596)
(-0.000722481 0.00161358 -0.000409596)
(-0.000860365 0.00154447 -0.000409596)
(-0.0009917 0.00146361 -0.000409597)
(-0.00111549 0.0013716 -0.000409597)
(-0.00123079 0.00126916 -0.000409597)
(-0.00141798 0.00143529 -0.000236119)
(-0.00153767 0.00130625 -0.000236119)
(-0.00164567 0.00116726 -0.000236119)
(-0.00174114 0.00101939 -0.000236119)
(-0.00182336 0.000863759 -0.00023612)
(-0.0018917 0.000701557 -0.000236119)
(-0.00194565 0.000534015 -0.000236119)
(-0.00198479 0.000362409 -0.000236119)
(-0.00200882 0.000188043 -0.00023612)
(-0.00201757 1.22472e-05 -0.000236119)
(-0.00201096 -0.000163643 -0.000236119)
(-0.00198904 -0.000338287 -0.000236119)
(-0.00195199 -0.000510356 -0.000236119)
(-0.00190008 -0.000678541 -0.000236119)
(-0.00183371 -0.000841562 -0.000236119)
(-0.00175339 -0.000998178 -0.000236119)
(-0.00165972 -0.0011472 -0.000236119)
(-0.00155342 -0.00128749 -0.000236119)
(-0.00143529 -0.00141798 -0.000236119)
(-0.00130625 -0.00153767 -0.000236119)
(-0.00116726 -0.00164567 -0.000236119)
(-0.00101939 -0.00174114 -0.000236119)
(-0.000863759 -0.00182336 -0.00023612)
(-0.000701557 -0.0018917 -0.000236119)
(-0.000534015 -0.00194565 -0.00023612)
(-0.000362409 -0.00198479 -0.000236119)
(-0.000188043 -0.00200882 -0.00023612)
(-1.22472e-05 -0.00201757 -0.000236119)
(0.000163643 -0.00201096 -0.000236119)
(0.000338287 -0.00198904 -0.000236119)
(0.000510357 -0.00195199 -0.000236119)
(0.000678541 -0.00190008 -0.000236119)
(0.000841562 -0.00183371 -0.000236119)
(0.000998178 -0.00175339 -0.000236119)
(0.0011472 -0.00165972 -0.000236119)
(0.00128749 -0.00155342 -0.000236119)
(0.00141798 -0.00143529 -0.000236119)
(0.00153767 -0.00130625 -0.000236119)
(0.00164567 -0.00116726 -0.000236119)
(0.00174114 -0.00101939 -0.000236119)
(0.00182336 -0.000863759 -0.00023612)
(0.0018917 -0.000701557 -0.000236119)
(0.00194565 -0.000534015 -0.00023612)
(0.00198479 -0.000362409 -0.000236119)
(0.00200882 -0.000188043 -0.00023612)
(0.00201757 -1.22472e-05 -0.000236119)
(0.00201096 0.000163643 -0.000236119)
(0.00198904 0.000338287 -0.000236119)
(0.00195199 0.000510357 -0.000236119)
(0.00190008 0.000678541 -0.000236119)
(0.00183371 0.000841562 -0.000236119)
(0.00175339 0.000998178 -0.000236119)
(0.00165972 0.0011472 -0.000236119)
(0.00155342 0.00128749 -0.000236119)
(0.00143529 0.00141798 -0.000236119)
(0.00130625 0.00153767 -0.000236119)
(0.00116726 0.00164567 -0.000236119)
(0.00101939 0.00174114 -0.000236119)
(0.000863759 0.00182336 -0.00023612)
(0.000701557 0.0018917 -0.000236119)
(0.000534015 0.00194565 -0.00023612)
(0.000362409 0.00198479 -0.000236119)
(0.000188043 0.00200882 -0.00023612)
(1.22472e-05 0.00201757 -0.000236119)
(-0.000163643 0.00201096 -0.000236119)
(-0.000338287 0.00198904 -0.000236119)
(-0.000510356 0.00195199 -0.000236119)
(-0.000678541 0.00190008 -0.000236119)
(-0.000841562 0.00183371 -0.000236119)
(-0.000998178 0.00175339 -0.000236119)
(-0.0011472 0.00165972 -0.000236119)
(-0.00128749 0.00155342 -0.000236119)
(-0.00155606 0.00141829 -0.000852325)
(-0.00167375 0.00127727 -0.000852326)
(-0.0017787 0.00112654 -0.000852328)
(-0.00187012 0.000967225 -0.000852327)
(-0.0019473 0.000800552 -0.000852326)
(-0.00200966 0.000627787 -0.000852326)
(-0.00205673 0.000450245 -0.000852323)
(-0.00208815 0.000269276 -0.000852322)
(-0.00210367 8.62571e-05 -0.000852323)
(-0.00210318 -9.74184e-05 -0.000852325)
(-0.00208669 -0.000280353 -0.000852324)
(-0.00205432 -0.000461152 -0.000852324)
(-0.00200631 -0.000638442 -0.000852323)
(-0.00194303 -0.000810874 -0.000852323)
(-0.00186496 -0.000977135 -0.000852323)
(-0.0017727 -0.00113596 -0.000852323)
(-0.00166695 -0.00128614 -0.000852324)
(-0.00154851 -0.00142653 -0.000852325)
(-0.00141829 -0.00155606 -0.000852325)
(-0.00127727 -0.00167375 -0.000852326)
(-0.00112654 -0.0017787 -0.000852328)
(-0.000967225 -0.00187012 -0.000852327)
(-0.000800552 -0.0019473 -0.000852326)
(-0.000627787 -0.00200966 -0.000852326)
(-0.000450245 -0.00205673 -0.000852323)
(-0.000269276 -0.00208815 -0.000852322)
(-8.62572e-05 -0.00210367 -0.000852323)
(9.74183e-05 -0.00210318 -0.000852325)
(0.000280353 -0.00208669 -0.000852324)
(0.000461152 -0.00205432 -0.000852324)
(0.000638442 -0.00200631 -0.000852323)
(0.000810874 -0.00194303 -0.000852323)
(0.000977135 -0.00186496 -0.000852323)
(0.00113596 -0.0017727 -0.000852323)
(0.00128614 -0.00166695 -0.000852324)
(0.00142653 -0.00154851 -0.000852325)
(0.00155606 -0.00141829 -0.000852325)
(0.00167375 -0.00127727 -0.000852326)
(0.0017787 -0.00112654 -0.000852328)
(0.00187012 -0.000967225 -0.000852327)
(0.0019473 -0.000800552 -0.000852326)
(0.00200966 -0.000627787 -0.000852326)
(0.00205673 -0.000450245 -0.000852323)
(0.00208815 -0.000269276 -0.000852322)
(0.00210367 -8.62571e-05 -0.000852323)
(0.00210318 9.74184e-05 -0.000852325)
(0.00208669 0.000280353 -0.000852324)
(0.00205432 0.000461152 -0.000852324)
(0.00200631 0.000638442 -0.000852323)
(0.00194303 0.000810874 -0.000852323)
(0.00186496 0.000977135 -0.000852323)
(0.0017727 0.00113596 -0.000852323)
(0.00166695 0.00128614 -0.000852324)
(0.00154851 0.00142653 -0.000852325)
(0.00141829 0.00155606 -0.000852325)
(0.00127727 0.00167375 -0.000852326)
(0.00112654 0.0017787 -0.000852328)
(0.000967225 0.00187012 -0.000852327)
(0.000800552 0.0019473 -0.000852326)
(0.000627787 0.00200966 -0.000852326)
(0.000450245 0.00205673 -0.000852323)
(0.000269276 0.00208815 -0.000852322)
(8.62572e-05 0.00210367 -0.000852323)
(-9.74183e-05 0.00210318 -0.000852325)
(-0.000280353 0.00208669 -0.000852324)
(-0.000461152 0.00205432 -0.000852324)
(-0.000638442 0.00200631 -0.000852323)
(-0.000810874 0.00194303 -0.000852323)
(-0.000977135 0.00186496 -0.000852323)
(-0.00113596 0.0017727 -0.000852323)
(-0.00128614 0.00166695 -0.000852324)
(-0.00142653 0.00154851 -0.000852325)
(-0.00164934 0.00171167 -0.000637235)
(-0.00179225 0.0015614 -0.000637236)
(-0.00192151 0.00139926 -0.000637236)
(-0.00203615 0.00122646 -0.000637237)
(-0.0021353 0.00104433 -0.000637237)
(-0.00221819 0.000854254 -0.000637235)
(-0.0022842 0.000657674 -0.000637234)
(-0.00233283 0.00045609 -0.000637234)
(-0.00236371 0.000251036 -0.000637234)
(-0.00237659 4.40698e-05 -0.000637234)
(-0.00237139 -0.000163232 -0.000637235)
(-0.00234814 -0.000369291 -0.000637234)
(-0.00230702 -0.000572539 -0.000637234)
(-0.00224834 -0.00077143 -0.000637234)
(-0.00217255 -0.00096445 -0.000637234)
(-0.00208022 -0.00115013 -0.000637235)
(-0.00197207 -0.00132706 -0.000637235)
(-0.0018489 -0.00149389 -0.000637235)
(-0.00171167 -0.00164934 -0.000637235)
(-0.0015614 -0.00179225 -0.000637236)
(-0.00139926 -0.00192151 -0.000637236)
(-0.00122646 -0.00203615 -0.000637237)
(-0.00104433 -0.0021353 -0.000637237)
(-0.000854254 -0.00221819 -0.000637235)
(-0.000657674 -0.0022842 -0.000637234)