/*--------------------------------*- C++ -*----------------------------------*\
| =========                 |                                                 |
| \\      /  F ield         | OpenFOAM: The Open Source CFD Toolbox           |
|  \\    /   O peration     | Version:  2312                                  |
|   \\  /    A nd           | Website:  www.openfoam.com                      |
|    \\/     M anipulation  |                                                 |
\*---------------------------------------------------------------------------*/
FoamFile
{
    version     2.0;
    format      ascii;
    arch        "LSB;label=32;scalar=64";
    class       volTensorField;
    location    "0.5";
    object      F;
}
// * * * * * * * * * * * * * * * * * * * * * * * * * * * * * * * * * * * * * //

dimensions      [0 0 0 0 0 0 0];

internalField   nonuniform List<tensor> 
3240
(
(0.940873 -0.0208991 0.276372 -0.0228656 0.959051 -0.17407 -0.0413346 -0.00180419 1.12016)
(0.944812 -0.0221445 0.290491 -0.0241106 0.955113 -0.14932 -0.0410193 -0.00540076 1.12016)
(0.948907 -0.022688 0.302399 -0.0246539 0.951017 -0.123433 -0.0403936 -0.00895649 1.12016)
(0.953033 -0.0225128 0.312006 -0.0244783 0.946891 -0.0966079 -0.0394602 -0.0124418 1.12016)
(0.957066 -0.0216228 0.319239 -0.0235884 0.942858 -0.069047 -0.0382254 -0.0158325 1.12016)
(0.960883 -0.0200451 0.324043 -0.0220121 0.939042 -0.0409609 -0.0367 -0.0191029 1.12016)
(0.964368 -0.0178291 0.32638 -0.0197956 0.935557 -0.0125627 -0.0348938 -0.0222283 1.12016)
(0.967416 -0.0150415 0.326233 -0.0170081 0.932509 0.0159305 -0.0328229 -0.0251866 1.12016)
(0.969934 -0.011767 0.323604 -0.0137335 0.929991 0.0443027 -0.030503 -0.0279527 1.12015)
(0.971845 -0.00810508 0.318511 -0.0100709 0.92808 0.0723375 -0.0279512 -0.030505 1.12015)
(0.973091 -0.00416694 0.310993 -0.00613201 0.926834 0.0998221 -0.0251867 -0.032825 1.12016)
(0.973635 -7.23603e-05 0.30111 -0.00203757 0.92629 0.126547 -0.0222312 -0.0348954 1.12016)
(0.973458 0.00405327 0.288934 0.00208813 0.926467 0.152309 -0.0191056 -0.0366992 1.12016)
(0.972568 0.00808673 0.27456 0.00611967 0.927357 0.176912 -0.0158341 -0.0382241 1.12016)
(0.97099 0.0119037 0.258097 0.00993685 0.928935 0.200169 -0.0124411 -0.0394579 1.12016)
(0.968774 0.01539 0.239669 0.0134238 0.931151 0.221901 -0.0089534 -0.0403935 1.12016)
(0.965987 0.0184379 0.219417 0.0164723 0.933937 0.241945 -0.00540025 -0.0410212 1.12016)
(0.962713 0.0209546 0.197494 0.0189893 0.937212 0.260149 -0.0018054 -0.0413345 1.12016)
(0.959051 0.0228657 0.17407 0.0208991 0.940873 0.276372 0.00180418 -0.0413346 1.12016)
(0.955113 0.0241106 0.14932 0.0221445 0.944812 0.290491 0.00540076 -0.0410193 1.12016)
(0.951017 0.0246539 0.123433 0.022688 0.948907 0.302399 0.00895649 -0.0403936 1.12016)
(0.946891 0.0244783 0.0966079 0.0225128 0.953033 0.312006 0.0124418 -0.0394602 1.12016)
(0.942858 0.0235884 0.069047 0.0216228 0.957066 0.319239 0.0158325 -0.0382254 1.12016)
(0.939042 0.0220121 0.0409609 0.0200452 0.960883 0.324043 0.0191029 -0.0367 1.12016)
(0.935557 0.0197956 0.0125627 0.0178291 0.964368 0.32638 0.0222283 -0.0348938 1.12016)
(0.932509 0.0170081 -0.0159305 0.0150415 0.967416 0.326233 0.0251866 -0.0328229 1.12016)
(0.929991 0.0137335 -0.0443027 0.011767 0.969934 0.323604 0.0279527 -0.030503 1.12015)
(0.92808 0.0100709 -0.0723374 0.00810509 0.971845 0.318511 0.030505 -0.0279512 1.12015)
(0.926834 0.00613201 -0.0998221 0.00416694 0.973091 0.310994 0.032825 -0.0251867 1.12016)
(0.92629 0.00203758 -0.126547 7.23607e-05 0.973635 0.30111 0.0348954 -0.0222312 1.12016)
(0.926467 -0.00208812 -0.152309 -0.00405328 0.973458 0.288934 0.0366992 -0.0191056 1.12016)
(0.927357 -0.00611967 -0.176912 -0.00808673 0.972568 0.27456 0.038224 -0.0158341 1.12016)
(0.928935 -0.00993686 -0.200169 -0.0119037 0.97099 0.258097 0.0394579 -0.0124411 1.12016)
(0.931151 -0.0134238 -0.221901 -0.01539 0.968774 0.239669 0.0403935 -0.00895338 1.12016)
(0.933937 -0.0164724 -0.241945 -0.0184379 0.965987 0.219416 0.0410212 -0.00540023 1.12016)
(0.937212 -0.0189893 -0.260149 -0.0209547 0.962713 0.197494 0.0413345 -0.00180539 1.12016)
(0.940873 -0.0208991 -0.276372 -0.0228657 0.959051 0.17407 0.0413346 0.00180419 1.12016)
(0.944812 -0.0221445 -0.290491 -0.0241106 0.955113 0.14932 0.0410193 0.00540076 1.12016)
(0.948907 -0.022688 -0.302399 -0.0246539 0.951017 0.123433 0.0403936 0.00895649 1.12016)
(0.953033 -0.0225128 -0.312006 -0.0244783 0.946891 0.0966079 0.0394602 0.0124418 1.12016)
(0.957066 -0.0216228 -0.319239 -0.0235884 0.942858 0.069047 0.0382254 0.0158325 1.12016)
(0.960883 -0.0200452 -0.324043 -0.0220121 0.939042 0.0409609 0.0367 0.0191029 1.12016)
(0.964368 -0.0178291 -0.32638 -0.0197956 0.935557 0.0125627 0.0348938 0.0222283 1.12016)
(0.967416 -0.0150415 -0.326233 -0.0170081 0.932509 -0.0159305 0.0328229 0.0251866 1.12016)
(0.969934 -0.011767 -0.323604 -0.0137335 0.929991 -0.0443027 0.030503 0.0279527 1.12015)
(0.971845 -0.00810509 -0.318511 -0.0100709 0.92808 -0.0723375 0.0279512 0.030505 1.12015)
(0.973091 -0.00416695 -0.310994 -0.00613202 0.926834 -0.0998221 0.0251867 0.032825 1.12016)
(0.973635 -7.23643e-05 -0.30111 -0.00203758 0.92629 -0.126547 0.0222312 0.0348954 1.12016)
(0.973458 0.00405327 -0.288934 0.00208812 0.926467 -0.152309 0.0191056 0.0366992 1.12016)
(0.972568 0.00808673 -0.27456 0.00611967 0.927357 -0.176912 0.0158341 0.038224 1.12016)
(0.97099 0.0119037 -0.258097 0.00993686 0.928935 -0.200169 0.0124411 0.0394579 1.12016)
(0.968774 0.01539 -0.239669 0.0134238 0.931151 -0.221901 0.00895339 0.0403935 1.12016)
(0.965987 0.0184379 -0.219416 0.0164724 0.933937 -0.241945 0.00540023 0.0410212 1.12016)
(0.962713 0.0209546 -0.197494 0.0189893 0.937212 -0.260149 0.00180539 0.0413345 1.12016)
(0.959051 0.0228656 -0.17407 0.0208991 0.940873 -0.276372 -0.00180419 0.0413346 1.12016)
(0.955113 0.0241106 -0.14932 0.0221445 0.944812 -0.290491 -0.00540076 0.0410193 1.12016)
(0.951017 0.0246539 -0.123433 0.022688 0.948907 -0.302399 -0.00895649 0.0403936 1.12016)
(0.946891 0.0244783 -0.0966079 0.0225128 0.953033 -0.312006 -0.0124418 0.0394602 1.12016)
(0.942858 0.0235884 -0.069047 0.0216228 0.957066 -0.319239 -0.0158325 0.0382254 1.12016)
(0.939042 0.0220121 -0.0409609 0.0200452 0.960883 -0.324043 -0.0191029 0.0367 1.12016)
(0.935557 0.0197956 -0.0125627 0.0178291 0.964368 -0.32638 -0.0222283 0.0348938 1.12016)
(0.932509 0.0170081 0.0159305 0.0150415 0.967416 -0.326233 -0.0251866 0.0328229 1.12016)
(0.929991 0.0137335 0.0443027 0.011767 0.969934 -0.323604 -0.0279527 0.030503 1.12015)
(0.92808 0.0100709 0.0723375 0.00810509 0.971845 -0.318511 -0.030505 0.0279512 1.12015)
(0.926834 0.00613202 0.0998221 0.00416695 0.973091 -0.310994 -0.032825 0.0251867 1.12016)
(0.92629 0.00203758 0.126547 7.2364e-05 0.973635 -0.30111 -0.0348954 0.0222312 1.12016)
(0.926467 -0.00208811 0.152309 -0.00405327 0.973458 -0.288934 -0.0366992 0.0191056 1.12016)
(0.927357 -0.00611967 0.176912 -0.00808673 0.972568 -0.27456 -0.038224 0.0158341 1.12016)
(0.928935 -0.00993686 0.200169 -0.0119037 0.97099 -0.258097 -0.0394579 0.0124411 1.12016)
(0.931151 -0.0134238 0.221901 -0.01539 0.968774 -0.239669 -0.0403935 0.00895339 1.12016)
(0.933937 -0.0164724 0.241945 -0.0184379 0.965987 -0.219417 -0.0410212 0.00540023 1.12016)
(0.937212 -0.0189893 0.260149 -0.0209546 0.962713 -0.197494 -0.0413345 0.00180539 1.12016)
(0.948826 -0.0257819 0.299292 -0.052703 0.960118 -0.234243 -0.0457597 -0.00199769 1.07525)
(0.955727 -0.0261659 0.318568 -0.0530869 0.953218 -0.207267 -0.0454109 -0.00597854 1.07525)
(0.962589 -0.0253466 0.33542 -0.0522671 0.946355 -0.178713 -0.0447181 -0.00991415 1.07525)
(0.969205 -0.0233479 0.349719 -0.0502686 0.93974 -0.148799 -0.0436841 -0.0137736 1.07525)
(0.975372 -0.0202302 0.361358 -0.0471516 0.933572 -0.117753 -0.0423171 -0.0175282 1.07525)
(0.980904 -0.0160889 0.370245 -0.0430108 0.928039 -0.0858102 -0.0406281 -0.0211491 1.07525)
(0.985634 -0.0110503 0.376315 -0.0379714 0.923311 -0.0532151 -0.0386295 -0.0246089 1.07525)
(0.989417 -0.00526659 0.379521 -0.0321882 0.919528 -0.0202146 -0.0363373 -0.0278823 1.07525)
(0.992138 0.00108619 0.379839 -0.0258351 0.916807 0.0129397 -0.0337688 -0.0309444 1.07525)
(0.993715 0.0078147 0.377267 -0.0191056 0.91523 0.0459956 -0.0309437 -0.0337701 1.07525)
(0.9941 0.014715 0.371822 -0.0122049 0.914845 0.0787016 -0.0278835 -0.0363385 1.07525)
(0.993279 0.0215777 0.363548 -0.00534285 0.915665 0.110809 -0.0246107 -0.0386305 1.07525)
(0.99128 0.0281927 0.352506 0.00127194 0.917664 0.142072 -0.02115 -0.0406283 1.07525)
(0.988163 0.0343606 0.338783 0.00743878 0.920782 0.172255 -0.0175282 -0.0423166 1.07525)
(0.984021 0.0398931 0.32248 0.0129714 0.924923 0.201126 -0.0137731 -0.0436824 1.07525)
(0.978982 0.0446231 0.303724 0.0177015 0.929962 0.228466 -0.00991311 -0.0447172 1.07525)
(0.973199 0.0484058 0.282656 0.0214849 0.935745 0.254069 -0.00597831 -0.0454121 1.07525)
(0.966847 0.0511265 0.259437 0.0242059 0.942097 0.277737 -0.00199802 -0.0457596 1.07525)
(0.960118 0.0527031 0.234243 0.0257819 0.948826 0.299292 0.00199769 -0.0457596 1.07525)
(0.953218 0.0530869 0.207267 0.0261659 0.955727 0.318568 0.00597854 -0.0454109 1.07525)
(0.946355 0.0522671 0.178713 0.0253465 0.962589 0.33542 0.00991415 -0.0447181 1.07525)
(0.93974 0.0502686 0.148799 0.0233479 0.969205 0.349719 0.0137736 -0.0436841 1.07525)
(0.933572 0.0471516 0.117753 0.0202302 0.975372 0.361358 0.0175282 -0.0423171 1.07525)
(0.928039 0.0430108 0.0858102 0.0160889 0.980904 0.370245 0.0211491 -0.0406281 1.07525)
(0.923311 0.0379714 0.0532151 0.0110503 0.985634 0.376315 0.0246089 -0.0386295 1.07525)
(0.919528 0.0321882 0.0202146 0.0052666 0.989417 0.379521 0.0278823 -0.0363373 1.07525)
(0.916807 0.0258351 -0.0129397 -0.00108619 0.992138 0.379839 0.0309444 -0.0337688 1.07525)
(0.91523 0.0191056 -0.0459956 -0.00781469 0.993715 0.377267 0.0337701 -0.0309437 1.07525)
(0.914845 0.0122049 -0.0787016 -0.014715 0.9941 0.371822 0.0363385 -0.0278835 1.07525)
(0.915665 0.00534285 -0.110809 -0.0215777 0.993279 0.363548 0.0386305 -0.0246108 1.07525)
(0.917664 -0.00127195 -0.142072 -0.0281927 0.99128 0.352506 0.0406283 -0.02115 1.07525)
(0.920782 -0.00743878 -0.172255 -0.0343606 0.988163 0.338783 0.0423166 -0.0175282 1.07525)
(0.924923 -0.0129714 -0.201126 -0.0398931 0.984021 0.32248 0.0436824 -0.0137731 1.07525)
(0.929962 -0.0177015 -0.228466 -0.0446231 0.978982 0.303724 0.0447172 -0.00991309 1.07525)
(0.935745 -0.0214849 -0.254069 -0.0484058 0.973199 0.282656 0.0454121 -0.0059783 1.07525)
(0.942097 -0.0242059 -0.277737 -0.0511265 0.966847 0.259437 0.0457596 -0.00199801 1.07525)
(0.948826 -0.0257819 -0.299292 -0.0527031 0.960118 0.234243 0.0457597 0.00199769 1.07525)
(0.955727 -0.0261659 -0.318568 -0.0530869 0.953218 0.207267 0.0454109 0.00597855 1.07525)
(0.962589 -0.0253465 -0.33542 -0.0522671 0.946355 0.178713 0.0447181 0.00991415 1.07525)
(0.969205 -0.0233479 -0.349719 -0.0502686 0.93974 0.148799 0.0436841 0.0137736 1.07525)
(0.975372 -0.0202302 -0.361358 -0.0471516 0.933572 0.117753 0.0423171 0.0175282 1.07525)
(0.980904 -0.0160889 -0.370245 -0.0430108 0.928039 0.0858102 0.0406281 0.0211491 1.07525)
(0.985634 -0.0110503 -0.376315 -0.0379714 0.923311 0.0532151 0.0386295 0.0246089 1.07525)
(0.989417 -0.0052666 -0.379521 -0.0321882 0.919528 0.0202146 0.0363373 0.0278823 1.07525)
(0.992138 0.00108618 -0.379839 -0.0258351 0.916807 -0.0129397 0.0337688 0.0309444 1.07525)
(0.993715 0.00781469 -0.377267 -0.0191056 0.91523 -0.0459956 0.0309437 0.0337701 1.07525)
(0.9941 0.014715 -0.371822 -0.0122049 0.914845 -0.0787016 0.0278835 0.0363385 1.07525)
(0.993279 0.0215777 -0.363548 -0.00534285 0.915665 -0.110809 0.0246108 0.0386305 1.07525)
(0.99128 0.0281927 -0.352506 0.00127195 0.917664 -0.142072 0.02115 0.0406282 1.07525)
(0.988163 0.0343606 -0.338783 0.00743878 0.920782 -0.172255 0.0175282 0.0423166 1.07525)
(0.984021 0.0398931 -0.32248 0.0129714 0.924923 -0.201126 0.0137731 0.0436824 1.07525)
(0.978982 0.0446231 -0.303724 0.0177015 0.929962 -0.228466 0.0099131 0.0447172 1.07525)
(0.973199 0.0484058 -0.282656 0.0214849 0.935745 -0.254069 0.0059783 0.0454121 1.07525)
(0.966847 0.0511265 -0.259437 0.0242059 0.942097 -0.277737 0.00199802 0.0457596 1.07525)
(0.960118 0.052703 -0.234243 0.0257819 0.948826 -0.299292 -0.00199769 0.0457597 1.07525)
(0.953218 0.0530869 -0.207267 0.0261659 0.955727 -0.318568 -0.00597855 0.0454109 1.07525)
(0.946355 0.0522671 -0.178713 0.0253466 0.962589 -0.33542 -0.00991416 0.0447181 1.07525)
(0.93974 0.0502686 -0.148799 0.0233479 0.969205 -0.349719 -0.0137736 0.0436841 1.07525)
(0.933572 0.0471516 -0.117753 0.0202302 0.975372 -0.361358 -0.0175282 0.0423171 1.07525)
(0.928039 0.0430108 -0.0858102 0.0160889 0.980904 -0.370245 -0.0211491 0.0406281 1.07525)
(0.923311 0.0379714 -0.0532151 0.0110503 0.985634 -0.376315 -0.0246089 0.0386295 1.07525)
(0.919528 0.0321882 -0.0202146 0.00526661 0.989417 -0.379521 -0.0278823 0.0363373 1.07525)
(0.916807 0.0258351 0.0129397 -0.00108618 0.992138 -0.379839 -0.0309444 0.0337688 1.07525)
(0.91523 0.0191056 0.0459956 -0.00781468 0.993715 -0.377267 -0.0337701 0.0309437 1.07525)
(0.914845 0.0122049 0.0787016 -0.014715 0.9941 -0.371822 -0.0363385 0.0278835 1.07525)
(0.915665 0.00534286 0.110809 -0.0215777 0.993279 -0.363548 -0.0386305 0.0246108 1.07525)
(0.917664 -0.00127195 0.142072 -0.0281927 0.99128 -0.352506 -0.0406282 0.02115 1.07525)
(0.920782 -0.00743878 0.172255 -0.0343606 0.988163 -0.338783 -0.0423166 0.0175282 1.07525)
(0.924923 -0.0129714 0.201126 -0.0398931 0.984021 -0.32248 -0.0436824 0.0137731 1.07525)
(0.929962 -0.0177015 0.228466 -0.0446231 0.978982 -0.303724 -0.0447172 0.00991309 1.07525)
(0.935745 -0.0214849 0.254069 -0.0484058 0.973199 -0.282656 -0.0454121 0.0059783 1.07525)
(0.942097 -0.0242059 0.277737 -0.0511265 0.966847 -0.259437 -0.0457596 0.00199802 1.07525)
(0.957929 -0.0404804 0.329874 -0.0844549 0.959568 -0.305155 -0.0503528 -0.00219849 1.03129)
(0.968789 -0.0396735 0.355214 -0.0836483 0.948708 -0.275243 -0.0499694 -0.0065782 1.03129)
(0.979344 -0.0369937 0.377852 -0.080968 0.938153 -0.243237 -0.0492068 -0.0109087 1.03129)
(0.989273 -0.0325218 0.397613 -0.0764958 0.928224 -0.209379 -0.0480684 -0.0151563 1.03129)
(0.998274 -0.0263929 0.414348 -0.0703678 0.919223 -0.173928 -0.0465642 -0.019288 1.03129)
(1.00607 -0.0187937 0.427931 -0.0627693 0.911422 -0.137154 -0.0447058 -0.0232724 1.03129)
(1.01244 -0.00995633 0.438256 -0.0539316 0.90506 -0.0993354 -0.042507 -0.02708 1.03129)
(1.01717 -0.00014854 0.445246 -0.0441236 0.900329 -0.0607608 -0.0399845 -0.0306813 1.03129)
(1.02012 0.0103323 0.448847 -0.0336422 0.897372 -0.021724 -0.0371586 -0.0340497 1.03129)
(1.02122 0.021167 0.449033 -0.0228063 0.89628 0.0174785 -0.0340502 -0.037159 1.03129)
(1.02041 0.0320267 0.445801 -0.011946 0.897087 0.0565481 -0.0306826 -0.0399854 1.03129)
(1.01773 0.0425826 0.439176 -0.00139145 0.899768 0.0951872 -0.0270809 -0.0425075 1.03129)
(1.01326 0.0525116 0.429209 0.00853704 0.90424 0.133102 -0.0232726 -0.0447063 1.03129)
(1.00713 0.0615128 0.415975 0.0175378 0.910369 0.170003 -0.0192867 -0.0465644 1.03129)
(0.99953 0.0693135 0.399575 0.0253382 0.917968 0.20561 -0.0151551 -0.0480675 1.03129)
(0.990692 0.0756766 0.380135 0.0317009 0.926805 0.239653 -0.0109088 -0.0492053 1.03129)
(0.980884 0.0804076 0.357801 0.0364328 0.936613 0.271873 -0.00657902 -0.0499698 1.03129)
(0.970403 0.0833636 0.332744 0.0393893 0.947094 0.302023 -0.00219843 -0.0503528 1.03129)
(0.959568 0.0844549 0.305155 0.0404804 0.957929 0.329874 0.00219849 -0.0503528 1.03129)
(0.948708 0.0836483 0.275243 0.0396735 0.968789 0.355214 0.00657821 -0.0499694 1.03129)
(0.938153 0.080968 0.243237 0.0369937 0.979344 0.377852 0.0109087 -0.0492068 1.03129)
(0.928224 0.0764958 0.209379 0.0325218 0.989273 0.397613 0.0151563 -0.0480684 1.03129)
(0.919223 0.0703678 0.173928 0.0263929 0.998274 0.414348 0.019288 -0.0465642 1.03129)
(0.911422 0.0627693 0.137154 0.0187937 1.00607 0.427931 0.0232724 -0.0447058 1.03129)
(0.90506 0.0539316 0.0993354 0.00995634 1.01244 0.438256 0.02708 -0.042507 1.03129)
(0.900329 0.0441236 0.0607608 0.000148554 1.01717 0.445246 0.0306813 -0.0399845 1.03129)
(0.897372 0.0336422 0.021724 -0.0103323 1.02012 0.448847 0.0340497 -0.0371586 1.03129)
(0.89628 0.0228063 -0.0174785 -0.021167 1.02122 0.449033 0.037159 -0.0340502 1.03129)
(0.897087 0.011946 -0.0565481 -0.0320267 1.02041 0.445801 0.0399853 -0.0306826 1.03129)
(0.899768 0.00139144 -0.0951872 -0.0425826 1.01773 0.439176 0.0425075 -0.0270809 1.03129)
(0.90424 -0.00853705 -0.133102 -0.0525116 1.01326 0.429209 0.0447063 -0.0232726 1.03129)
(0.910369 -0.0175378 -0.170003 -0.0615128 1.00713 0.415975 0.0465644 -0.0192867 1.03129)
(0.917968 -0.0253382 -0.20561 -0.0693135 0.99953 0.399575 0.0480675 -0.0151551 1.03129)
(0.926805 -0.0317009 -0.239653 -0.0756766 0.990692 0.380135 0.0492053 -0.0109088 1.03129)
(0.936613 -0.0364328 -0.271873 -0.0804076 0.980884 0.357801 0.0499698 -0.00657901 1.03129)
(0.947094 -0.0393893 -0.302023 -0.0833636 0.970403 0.332744 0.0503528 -0.00219843 1.03129)
(0.957929 -0.0404804 -0.329874 -0.0844549 0.959568 0.305155 0.0503528 0.00219849 1.03129)
(0.968789 -0.0396735 -0.355214 -0.0836483 0.948708 0.275243 0.0499694 0.00657821 1.03129)
(0.979344 -0.0369937 -0.377852 -0.080968 0.938153 0.243237 0.0492068 0.0109087 1.03129)
(0.989273 -0.0325218 -0.397613 -0.0764959 0.928224 0.209379 0.0480684 0.0151563 1.03129)
(0.998274 -0.0263929 -0.414348 -0.0703678 0.919223 0.173928 0.0465642 0.019288 1.03129)
(1.00607 -0.0187937 -0.427931 -0.0627693 0.911422 0.137154 0.0447058 0.0232724 1.03129)
(1.01244 -0.00995634 -0.438256 -0.0539316 0.90506 0.0993354 0.042507 0.02708 1.03129)
(1.01717 -0.000148558 -0.445246 -0.0441236 0.900329 0.0607608 0.0399845 0.0306813 1.03129)
(1.02012 0.0103323 -0.448847 -0.0336422 0.897372 0.021724 0.0371586 0.0340497 1.03129)
(1.02122 0.021167 -0.449033 -0.0228063 0.89628 -0.0174785 0.0340502 0.037159 1.03129)
(1.02041 0.0320267 -0.445801 -0.011946 0.897087 -0.0565481 0.0306826 0.0399853 1.03129)
(1.01773 0.0425826 -0.439176 -0.00139144 0.899767 -0.0951872 0.0270809 0.0425075 1.03129)
(1.01326 0.0525116 -0.429209 0.00853705 0.90424 -0.133102 0.0232726 0.0447063 1.03129)
(1.00713 0.0615128 -0.415975 0.0175378 0.910369 -0.170003 0.0192867 0.0465644 1.03129)
(0.99953 0.0693135 -0.399575 0.0253382 0.917968 -0.20561 0.0151551 0.0480675 1.03129)
(0.990692 0.0756766 -0.380135 0.0317009 0.926805 -0.239653 0.0109088 0.0492053 1.03129)
(0.980884 0.0804076 -0.357801 0.0364328 0.936613 -0.271873 0.00657901 0.0499698 1.03129)
(0.970403 0.0833636 -0.332744 0.0393893 0.947094 -0.302023 0.00219843 0.0503528 1.03129)
(0.959568 0.0844549 -0.305155 0.0404804 0.957929 -0.329874 -0.00219849 0.0503528 1.03129)
(0.948708 0.0836483 -0.275243 0.0396735 0.968789 -0.355214 -0.00657821 0.0499694 1.03129)
(0.938153 0.080968 -0.243237 0.0369937 0.979344 -0.377852 -0.0109087 0.0492068 1.03129)
(0.928224 0.0764958 -0.209379 0.0325218 0.989273 -0.397613 -0.0151563 0.0480684 1.03129)
(0.919223 0.0703678 -0.173928 0.0263929 0.998274 -0.414348 -0.019288 0.0465642 1.03129)
(0.911422 0.0627693 -0.137154 0.0187937 1.00607 -0.427931 -0.0232724 0.0447058 1.03129)
(0.90506 0.0539316 -0.0993354 0.00995634 1.01244 -0.438256 -0.02708 0.042507 1.03129)
(0.900329 0.0441236 -0.0607608 0.00014856 1.01717 -0.445246 -0.0306813 0.0399845 1.03129)
(0.897372 0.0336422 -0.021724 -0.0103323 1.02012 -0.448847 -0.0340497 0.0371586 1.03129)
(0.89628 0.0228063 0.0174785 -0.021167 1.02122 -0.449033 -0.037159 0.0340502 1.03129)
(0.897087 0.011946 0.0565481 -0.0320267 1.02041 -0.445801 -0.0399853 0.0306826 1.03129)
(0.899767 0.00139144 0.0951872 -0.0425826 1.01773 -0.439176 -0.0425075 0.0270809 1.03129)
(0.90424 -0.00853705 0.133102 -0.0525116 1.01326 -0.429209 -0.0447063 0.0232726 1.03129)
(0.910369 -0.0175378 0.170003 -0.0615128 1.00713 -0.415975 -0.0465643 0.0192867 1.03129)
(0.917968 -0.0253382 0.20561 -0.0693135 0.99953 -0.399575 -0.0480675 0.0151551 1.03129)
(0.926805 -0.0317009 0.239653 -0.0756766 0.990692 -0.380135 -0.0492053 0.0109088 1.03129)
(0.936613 -0.0364328 0.271873 -0.0804076 0.980884 -0.357801 -0.0499698 0.00657902 1.03129)
(0.947094 -0.0393893 0.302023 -0.0833636 0.970403 -0.332744 -0.0503528 0.00219843 1.03129)
(0.984207 -0.0541387 0.246902 -0.132201 0.897101 -0.196071 -0.126991 -0.00554358 1.11872)
(0.999725 -0.0451591 0.263052 -0.123222 0.881583 -0.173806 -0.126024 -0.0165924 1.11872)
(1.01345 -0.0336237 0.277199 -0.111686 0.86786 -0.150218 -0.1241 -0.0275142 1.11872)
(1.02496 -0.0198812 0.289236 -0.0979417 0.856349 -0.125487 -0.121231 -0.0382242 1.11872)
(1.03391 -0.00434744 0.299072 -0.0824086 0.8474 -0.0998012 -0.117439 -0.0486432 1.11872)
(1.04002 0.0125051 0.306633 -0.0655569 0.841286 -0.0733556 -0.112752 -0.0586912 1.11872)
(1.04312 0.0301632 0.311859 -0.0478991 0.83819 -0.0463515 -0.107206 -0.068294 1.11872)
(1.0431 0.0480903 0.314712 -0.0299712 0.838208 -0.0189947 -0.100843 -0.0773784 1.11872)
(1.03997 0.065743 0.315171 -0.0123184 0.841338 0.00850706 -0.0937144 -0.0858745 1.11872)
(1.03382 0.0825847 0.31323 0.00452366 0.847486 0.0359437 -0.0858731 -0.093718 1.11872)
(1.02485 0.0981032 0.308905 0.0200423 0.856463 0.0631061 -0.0773796 -0.100848 1.11872)
(1.01331 0.111826 0.30223 0.0337651 0.867999 0.0897884 -0.0682981 -0.107208 1.11872)
(0.999566 0.123335 0.293254 0.0452748 0.881743 0.115788 -0.0586955 -0.112751 1.11872)
(0.984031 0.132284 0.282046 0.0542216 0.897277 0.140906 -0.0486449 -0.117436 1.11872)
(0.967179 0.138399 0.268692 0.0603358 0.91413 0.164952 -0.0382236 -0.121228 1.11872)
(0.94952 0.141495 0.253293 0.0634338 0.931789 0.187742 -0.0275101 -0.124099 1.11872)
(0.931593 0.141479 0.235966 0.0634189 0.949716 0.209104 -0.0165902 -0.126027 1.11872)
(0.913941 0.138349 0.216844 0.0602884 0.967367 0.228874 -0.00554541 -0.126993 1.11872)
(0.897101 0.132201 0.196071 0.0541387 0.984207 0.246902 0.00554357 -0.126991 1.11872)
(0.881583 0.123222 0.173806 0.0451591 0.999725 0.263052 0.0165924 -0.126024 1.11872)
(0.86786 0.111686 0.150218 0.0336237 1.01345 0.277199 0.0275142 -0.1241 1.11872)
(0.856349 0.0979417 0.125487 0.0198812 1.02496 0.289236 0.0382242 -0.121231 1.11872)
(0.8474 0.0824086 0.0998012 0.00434746 1.03391 0.299072 0.0486432 -0.117439 1.11872)
(0.841286 0.0655569 0.0733556 -0.0125051 1.04002 0.306633 0.0586912 -0.112752 1.11872)
(0.83819 0.0478991 0.0463515 -0.0301632 1.04312 0.311859 0.0682941 -0.107206 1.11872)
(0.838208 0.0299712 0.0189947 -0.0480902 1.0431 0.314712 0.0773784 -0.100843 1.11872)
(0.841338 0.0123184 -0.00850703 -0.065743 1.03997 0.315171 0.0858745 -0.0937144 1.11872)
(0.847486 -0.00452367 -0.0359437 -0.0825847 1.03382 0.31323 0.093718 -0.0858731 1.11872)
(0.856463 -0.0200423 -0.0631061 -0.0981032 1.02485 0.308905 0.100848 -0.0773796 1.11872)
(0.867999 -0.0337651 -0.0897884 -0.111826 1.01331 0.30223 0.107208 -0.0682981 1.11872)
(0.881743 -0.0452748 -0.115788 -0.123335 0.999566 0.293254 0.112751 -0.0586955 1.11872)
(0.897277 -0.0542216 -0.140906 -0.132284 0.984031 0.282046 0.117436 -0.0486448 1.11872)
(0.91413 -0.0603358 -0.164952 -0.138399 0.967179 0.268692 0.121228 -0.0382235 1.11872)
(0.931789 -0.0634338 -0.187742 -0.141495 0.94952 0.253293 0.124099 -0.02751 1.11872)
(0.949716 -0.0634189 -0.209104 -0.141479 0.931593 0.235966 0.126027 -0.0165902 1.11872)
(0.967367 -0.0602884 -0.228874 -0.138349 0.913941 0.216844 0.126993 -0.00554539 1.11872)
(0.984207 -0.0541387 -0.246902 -0.132201 0.897101 0.196071 0.126991 0.00554358 1.11872)
(0.999725 -0.0451591 -0.263052 -0.123222 0.881583 0.173806 0.126024 0.0165924 1.11872)
(1.01345 -0.0336237 -0.277199 -0.111686 0.86786 0.150218 0.1241 0.0275142 1.11872)
(1.02496 -0.0198812 -0.289236 -0.0979417 0.856349 0.125487 0.121231 0.0382242 1.11872)
(1.03391 -0.00434746 -0.299072 -0.0824086 0.8474 0.0998012 0.117439 0.0486432 1.11872)
(1.04002 0.012505 -0.306633 -0.0655569 0.841286 0.0733556 0.112752 0.0586912 1.11872)
(1.04312 0.0301632 -0.311859 -0.0478991 0.83819 0.0463515 0.107206 0.0682941 1.11872)
(1.0431 0.0480902 -0.314712 -0.0299712 0.838208 0.0189947 0.100843 0.0773784 1.11872)
(1.03997 0.065743 -0.315171 -0.0123184 0.841338 -0.00850704 0.0937144 0.0858745 1.11872)
(1.03382 0.0825847 -0.31323 0.00452367 0.847486 -0.0359437 0.0858731 0.093718 1.11872)
(1.02485 0.0981032 -0.308905 0.0200423 0.856463 -0.0631061 0.0773796 0.100848 1.11872)
(1.01331 0.111826 -0.30223 0.0337651 0.867999 -0.0897884 0.0682981 0.107208 1.11872)
(0.999566 0.123335 -0.293254 0.0452748 0.881743 -0.115788 0.0586955 0.112751 1.11872)
(0.984031 0.132284 -0.282046 0.0542216 0.897277 -0.140906 0.0486448 0.117436 1.11872)
(0.967179 0.138399 -0.268692 0.0603358 0.91413 -0.164952 0.0382235 0.121228 1.11872)
(0.94952 0.141495 -0.253293 0.0634338 0.931789 -0.187742 0.02751 0.124099 1.11872)
(0.931593 0.141479 -0.235966 0.0634189 0.949716 -0.209104 0.0165902 0.126027 1.11872)
(0.913941 0.138349 -0.216844 0.0602884 0.967367 -0.228874 0.0055454 0.126993 1.11872)
(0.897101 0.132201 -0.196071 0.0541387 0.984207 -0.246902 -0.00554358 0.126991 1.11872)
(0.881583 0.123222 -0.173806 0.0451591 0.999725 -0.263052 -0.0165925 0.126024 1.11872)
(0.86786 0.111686 -0.150218 0.0336237 1.01345 -0.277199 -0.0275142 0.1241 1.11872)
(0.856349 0.0979417 -0.125487 0.0198812 1.02496 -0.289236 -0.0382243 0.121231 1.11872)
(0.8474 0.0824086 -0.0998012 0.00434746 1.03391 -0.299072 -0.0486432 0.117439 1.11872)
(0.841286 0.0655569 -0.0733556 -0.012505 1.04002 -0.306633 -0.0586913 0.112752 1.11872)
(0.83819 0.0478991 -0.0463515 -0.0301632 1.04312 -0.311859 -0.0682941 0.107206 1.11872)
(0.838208 0.0299712 -0.0189947 -0.0480902 1.0431 -0.314712 -0.0773784 0.100843 1.11872)
(0.841338 0.0123184 0.00850703 -0.065743 1.03997 -0.315171 -0.0858745 0.0937144 1.11872)
(0.847486 -0.00452366 0.0359437 -0.0825847 1.03382 -0.31323 -0.0937179 0.0858731 1.11872)
(0.856463 -0.0200423 0.0631061 -0.0981031 1.02485 -0.308905 -0.100848 0.0773796 1.11872)
(0.867999 -0.0337651 0.0897884 -0.111826 1.01331 -0.30223 -0.107208 0.0682981 1.11872)
(0.881743 -0.0452748 0.115788 -0.123335 0.999566 -0.293254 -0.112751 0.0586955 1.11872)
(0.897277 -0.0542216 0.140906 -0.132284 0.984031 -0.282046 -0.117436 0.0486448 1.11872)
(0.91413 -0.0603358 0.164952 -0.138399 0.967179 -0.268692 -0.121228 0.0382235 1.11872)
(0.931789 -0.0634338 0.187742 -0.141495 0.94952 -0.253293 -0.124099 0.02751 1.11872)
(0.949716 -0.0634189 0.209104 -0.141479 0.931593 -0.235966 -0.126027 0.0165902 1.11872)
(0.967367 -0.0602884 0.228874 -0.138349 0.913941 -0.216844 -0.126993 0.0055454 1.11872)
(1.00066 -0.0759517 0.276111 -0.171474 0.885969 -0.257216 -0.130758 -0.00570898 1.08114)
(1.02127 -0.0641138 0.297478 -0.159637 0.865357 -0.232173 -0.129763 -0.0170837 1.08114)
(1.03951 -0.0488782 0.316581 -0.1444 0.847114 -0.205363 -0.127781 -0.028329 1.08114)
(1.05483 -0.0307063 0.333275 -0.126228 0.831794 -0.17699 -0.124826 -0.0393574 1.08114)
(1.06676 -0.0101489 0.347432 -0.105671 0.819863 -0.147269 -0.120922 -0.0500865 1.08114)
(1.07494 0.0121682 0.358946 -0.0833547 0.811684 -0.116428 -0.116095 -0.0604337 1.08114)
(1.07912 0.0355662 0.367727 -0.0599566 0.807503 -0.0847011 -0.110384 -0.0703214 1.08114)
(1.07918 0.0593338 0.37371 -0.0361875 0.807449 -0.0523291 -0.103834 -0.0796741 1.08114)
(1.07511 0.0827506 0.376849 -0.01277 0.811523 -0.0195587 -0.096495 -0.0884209 1.08114)
(1.06703 0.105105 0.37712 0.00958523 0.819601 0.0133603 -0.0884218 -0.096496 1.08114)
(1.05519 0.125718 0.37452 0.0301976 0.831439 0.0461773 -0.0796756 -0.103837 1.08114)
(1.03995 0.143961 0.36907 0.0484404 0.846675 0.0786431 -0.0703232 -0.110387 1.08114)
(1.02178 0.159281 0.360811 0.0637592 0.864848 0.11051 -0.0604351 -0.116095 1.08114)
(1.00122 0.171212 0.349807 0.0756886 0.885405 0.141537 -0.0500866 -0.12092 1.08114)
(0.978906 0.179392 0.33614 0.0838686 0.907722 0.171486 -0.0393568 -0.124824 1.08114)
(0.955508 0.183572 0.319915 0.0880508 0.931121 0.20013 -0.0283272 -0.127779 1.08114)
(0.93174 0.183627 0.301255 0.0881061 0.954889 0.227251 -0.0170833 -0.129764 1.08114)
(0.908323 0.179553 0.280302 0.0840316 0.978305 0.252642 -0.00570893 -0.130759 1.08114)
(0.885969 0.171474 0.257216 0.0759517 1.00066 0.276111 0.00570898 -0.130758 1.08114)
(0.865357 0.159637 0.232173 0.0641138 1.02127 0.297478 0.0170837 -0.129763 1.08114)
(0.847114 0.1444 0.205363 0.0488782 1.03951 0.316581 0.028329 -0.127781 1.08114)
(0.831794 0.126228 0.17699 0.0307063 1.05483 0.333275 0.0393574 -0.124826 1.08114)
(0.819863 0.105671 0.147269 0.0101489 1.06676 0.347432 0.0500865 -0.120922 1.08114)
(0.811684 0.0833547 0.116428 -0.0121682 1.07494 0.358946 0.0604337 -0.116095 1.08114)
(0.807503 0.0599566 0.0847011 -0.0355661 1.07912 0.367727 0.0703214 -0.110384 1.08114)
(0.807449 0.0361875 0.0523291 -0.0593338 1.07918 0.37371 0.0796741 -0.103834 1.08114)
(0.811523 0.01277 0.0195587 -0.0827506 1.07511 0.376849 0.0884209 -0.096495 1.08114)
(0.819601 -0.00958524 -0.0133602 -0.105105 1.06703 0.37712 0.096496 -0.0884218 1.08114)
(0.831439 -0.0301976 -0.0461773 -0.125718 1.05519 0.37452 0.103837 -0.0796756 1.08114)
(0.846675 -0.0484404 -0.0786431 -0.143961 1.03995 0.36907 0.110387 -0.0703232 1.08114)
(0.864848 -0.0637593 -0.11051 -0.159281 1.02178 0.360811 0.116095 -0.0604351 1.08114)
(0.885405 -0.0756886 -0.141537 -0.171212 1.00122 0.349807 0.120919 -0.0500865 1.08114)
(0.907722 -0.0838686 -0.171486 -0.179392 0.978906 0.33614 0.124824 -0.0393568 1.08114)
(0.931121 -0.0880508 -0.20013 -0.183572 0.955508 0.319915 0.127779 -0.0283272 1.08114)
(0.954889 -0.0881061 -0.227251 -0.183627 0.93174 0.301255 0.129764 -0.0170833 1.08114)
(0.978305 -0.0840316 -0.252642 -0.179553 0.908323 0.280302 0.130759 -0.00570891 1.08114)
(1.00066 -0.0759517 -0.276111 -0.171474 0.885969 0.257216 0.130758 0.00570899 1.08114)
(1.02127 -0.0641138 -0.297478 -0.159637 0.865357 0.232173 0.129763 0.0170837 1.08114)
(1.03951 -0.0488782 -0.316581 -0.1444 0.847114 0.205363 0.127781 0.028329 1.08114)
(1.05483 -0.0307063 -0.333275 -0.126228 0.831794 0.17699 0.124826 0.0393574 1.08114)
(1.06676 -0.0101489 -0.347432 -0.105671 0.819863 0.147269 0.120922 0.0500865 1.08114)
(1.07494 0.0121682 -0.358946 -0.0833547 0.811684 0.116428 0.116095 0.0604337 1.08114)