/*--------------------------------*- C++ -*----------------------------------*\
| =========                 |                                                 |
| \\      /  F ield         | OpenFOAM: The Open Source CFD Toolbox           |
|  \\    /   O peration     | Version:  2312                                  |
|   \\  /    A nd           | Website:  www.openfoam.com                      |
|    \\/     M anipulation  |                                                 |
\*---------------------------------------------------------------------------*/
FoamFile
{
    version     2.0;
    format      ascii;
    arch        "LSB;label=32;scalar=64";
    class       volSymmTensorField;
    location    "0.5";
    object      sigma;
}
// * * * * * * * * * * * * * * * * * * * * * * * * * * * * * * * * * * * * * //

dimensions      [1 -1 -2 0 0 0 0];

internalField   nonuniform List<symmTensor> 
3240
(
(1986.5 -1141.69 323.332 17879.7 13942.9 16297)
(2305.47 -2504.3 -893.139 17560.7 13918 16297)
(2856.2 -3790.73 -2102.74 17009.9 13787.2 16297)
(3622 -4962.02 -3296.34 16244.3 13551.5 16297)
(4579.53 -5982.58 -4464.9 15286.8 13212.6 16297)
(5699.77 -6821.39 -5599.52 14166.5 12773.2 16296.9)
(6948.57 -7452.82 -6691.47 12917.6 12236.5 16297)
(8287.97 -7857.84 -7732.44 11578.1 11606.8 16296.9)
(9677.44 -8024.13 -8714.63 10188.5 10888.7 16296.9)
(11074.7 -7946.6 -9630.47 8791.32 10087.7 16296.9)
(12437.4 -7627.61 -10473 7428.83 9209.97 16297)
(13723.8 -7076.89 -11235.9 6142.44 8262.19 16297.1)
(14895.2 -6311.18 -11913.2 4971.13 7251.47 16296.9)
(15915.8 -5353.6 -12499.9 3950.54 6185.52 16296.9)
(16754.5 -4233.38 -12991.4 3111.81 5072.54 16297)
(17385.8 -2984.57 -13384.1 2480.23 3920.99 16297)
(17791 -1645.09 -13674.9 2075.27 2739.58 16297)
(17957.3 -255.553 -13861.6 1908.99 1537.28 16297)
(17879.7 1141.69 -13942.9 1986.5 323.332 16297)
(17560.7 2504.3 -13918 2305.47 -893.139 16297)
(17009.9 3790.73 -13787.2 2856.2 -2102.74 16297)
(16244.3 4962.02 -13551.5 3622 -3296.34 16297)
(15286.8 5982.58 -13212.6 4579.53 -4464.9 16297)
(14166.5 6821.39 -12773.2 5699.77 -5599.52 16296.9)
(12917.6 7452.82 -12236.5 6948.57 -6691.47 16297)
(11578.1 7857.84 -11606.8 8287.97 -7732.44 16296.9)
(10188.5 8024.13 -10888.7 9677.44 -8714.63 16296.9)
(8791.32 7946.6 -10087.7 11074.7 -9630.47 16296.9)
(7428.83 7627.61 -9209.97 12437.4 -10473 16297)
(6142.44 7076.89 -8262.19 13723.8 -11235.9 16297.1)
(4971.13 6311.18 -7251.47 14895.2 -11913.2 16296.9)
(3950.54 5353.6 -6185.52 15915.8 -12499.9 16296.9)
(3111.8 4233.38 -5072.54 16754.5 -12991.4 16297)
(2480.23 2984.57 -3920.99 17385.8 -13384.1 16297)
(2075.27 1645.09 -2739.58 17791 -13674.9 16297)
(1908.99 255.553 -1537.28 17957.3 -13861.6 16297)
(1986.5 -1141.69 -323.332 17879.7 -13942.9 16297)
(2305.47 -2504.3 893.139 17560.7 -13918 16297)
(2856.2 -3790.73 2102.74 17009.9 -13787.2 16297)
(3622 -4962.02 3296.34 16244.3 -13551.5 16297)
(4579.53 -5982.58 4464.9 15286.8 -13212.6 16297)
(5699.77 -6821.39 5599.52 14166.5 -12773.2 16296.9)
(6948.57 -7452.82 6691.47 12917.6 -12236.5 16297)
(8287.97 -7857.84 7732.44 11578.1 -11606.8 16296.9)
(9677.44 -8024.13 8714.63 10188.5 -10888.7 16296.9)
(11074.7 -7946.6 9630.47 8791.32 -10087.7 16296.9)
(12437.4 -7627.61 10473 7428.83 -9209.97 16297)
(13723.8 -7076.89 11235.9 6142.44 -8262.19 16297.1)
(14895.2 -6311.18 11913.2 4971.13 -7251.47 16296.9)
(15915.8 -5353.6 12499.9 3950.54 -6185.52 16296.9)
(16754.5 -4233.38 12991.4 3111.8 -5072.54 16297)
(17385.8 -2984.57 13384.1 2480.23 -3920.99 16297)
(17791 -1645.09 13674.9 2075.27 -2739.58 16297)
(17957.3 -255.553 13861.6 1908.99 -1537.28 16297)
(17879.7 1141.69 13942.9 1986.5 -323.332 16297)
(17560.7 2504.3 13918 2305.47 893.139 16297)
(17009.9 3790.73 13787.2 2856.2 2102.74 16297)
(16244.3 4962.02 13551.5 3622 3296.34 16297)
(15286.8 5982.58 13212.6 4579.53 4464.9 16297)
(14166.5 6821.39 12773.2 5699.77 5599.52 16296.9)
(12917.6 7452.82 12236.5 6948.58 6691.47 16297)
(11578.1 7857.84 11606.8 8287.97 7732.44 16296.9)
(10188.5 8024.13 10888.7 9677.44 8714.63 16296.9)
(8791.32 7946.6 10087.7 11074.7 9630.47 16296.9)
(7428.83 7627.61 9209.97 12437.4 10473 16297)
(6142.44 7076.89 8262.19 13723.8 11235.9 16297.1)
(4971.13 6311.18 7251.47 14895.2 11913.2 16296.9)
(3950.54 5353.6 6185.52 15915.8 12499.9 16296.9)
(3111.8 4233.38 5072.54 16754.5 12991.4 16297)
(2480.23 2984.57 3920.99 17385.8 13384.1 16297)
(2075.27 1645.09 2739.58 17791 13674.9 16297)
(1908.99 255.553 1537.28 17957.3 13861.6 16297)
(-869.352 -2112.95 769.269 28237.8 1361.77 -222.134)
(-281.361 -4608.04 647.657 27649.7 1423.63 -222.152)
(731.001 -6963.09 521.115 26637.4 1474.66 -222.118)
(2136.92 -9106.61 390.625 25231.6 1514.41 -222.12)
(3893.68 -10973.5 257.158 23474.7 1542.67 -222.174)
(5947.95 -12506.9 121.711 21420.4 1559.23 -222.193)
(8237.3 -13660.2 -14.6774 19131.1 1563.95 -222.159)
(10692.2 -14398.6 -150.929 16676.3 1556.72 -222.101)
(13237.9 -14699.4 -286.054 14130.5 1537.67 -222.155)
(15797 -14553.6 -418.978 11571.3 1506.9 -222.183)
(18292.2 -13965.6 -548.692 9076.24 1464.62 -222.143)
(20647.3 -12953.2 -674.253 6721.09 1411.22 -222.161)
(22790.8 -11547.3 -794.633 4577.56 1347.06 -222.178)
(24657.7 -9790.51 -908.991 2710.74 1272.67 -222.164)
(26191.1 -7736.21 -1016.48 1177.35 1188.61 -222.14)
(27344.5 -5446.88 -1116.26 23.9727 1095.5 -222.134)
(28082.7 -2992.12 -1207.49 -714.34 994.051 -222.149)
(28383.6 -446.38 -1289.54 -1015.18 885.03 -222.158)
(28237.8 2112.95 -1361.77 -869.352 769.269 -222.134)
(27649.7 4608.04 -1423.63 -281.361 647.657 -222.152)
(26637.4 6963.09 -1474.66 731.001 521.115 -222.118)
(25231.6 9106.61 -1514.41 2136.92 390.625 -222.12)
(23474.7 10973.5 -1542.67 3893.68 257.158 -222.174)
(21420.4 12506.9 -1559.23 5947.95 121.711 -222.192)
(19131.1 13660.2 -1563.95 8237.3 -14.6774 -222.158)
(16676.3 14398.6 -1556.72 10692.2 -150.929 -222.101)
(14130.5 14699.4 -1537.67 13237.9 -286.054 -222.154)
(11571.3 14553.6 -1506.9 15797 -418.978 -222.183)
(9076.24 13965.6 -1464.62 18292.2 -548.692 -222.143)
(6721.09 12953.2 -1411.22 20647.3 -674.252 -222.161)
(4577.56 11547.3 -1347.06 22790.8 -794.633 -222.179)
(2710.74 9790.51 -1272.67 24657.7 -908.991 -222.165)
(1177.35 7736.21 -1188.61 26191.1 -1016.48 -222.14)
(23.9725 5446.88 -1095.5 27344.5 -1116.26 -222.135)
(-714.34 2992.12 -994.051 28082.7 -1207.49 -222.149)
(-1015.18 446.38 -885.03 28383.6 -1289.54 -222.158)
(-869.352 -2112.95 -769.269 28237.8 -1361.77 -222.134)
(-281.361 -4608.04 -647.657 27649.7 -1423.63 -222.152)
(731.001 -6963.09 -521.115 26637.4 -1474.66 -222.118)
(2136.92 -9106.61 -390.625 25231.6 -1514.41 -222.12)
(3893.68 -10973.5 -257.158 23474.7 -1542.67 -222.174)
(5947.95 -12506.9 -121.711 21420.4 -1559.23 -222.192)
(8237.3 -13660.2 14.6774 19131.1 -1563.95 -222.158)
(10692.2 -14398.6 150.929 16676.3 -1556.72 -222.101)
(13237.9 -14699.4 286.054 14130.5 -1537.67 -222.154)
(15797 -14553.6 418.977 11571.3 -1506.9 -222.183)
(18292.2 -13965.6 548.692 9076.24 -1464.62 -222.143)
(20647.3 -12953.2 674.252 6721.09 -1411.22 -222.161)
(22790.8 -11547.3 794.633 4577.56 -1347.06 -222.178)
(24657.7 -9790.51 908.991 2710.74 -1272.67 -222.165)
(26191.1 -7736.21 1016.48 1177.35 -1188.61 -222.14)
(27344.5 -5446.88 1116.26 23.9725 -1095.5 -222.135)
(28082.7 -2992.12 1207.49 -714.34 -994.051 -222.15)
(28383.6 -446.38 1289.54 -1015.18 -885.03 -222.158)
(28237.8 2112.95 1361.77 -869.352 -769.269 -222.134)
(27649.7 4608.04 1423.63 -281.361 -647.657 -222.152)
(26637.4 6963.09 1474.66 731.001 -521.115 -222.118)
(25231.6 9106.61 1514.41 2136.92 -390.625 -222.12)
(23474.7 10973.5 1542.67 3893.68 -257.158 -222.174)
(21420.4 12506.9 1559.23 5947.95 -121.711 -222.192)
(19131.1 13660.2 1563.95 8237.3 14.6773 -222.157)
(16676.3 14398.6 1556.72 10692.2 150.929 -222.1)
(14130.5 14699.4 1537.67 13237.9 286.054 -222.154)
(11571.3 14553.6 1506.9 15797 418.977 -222.183)
(9076.24 13965.6 1464.62 18292.2 548.692 -222.142)
(6721.09 12953.2 1411.22 20647.3 674.253 -222.161)
(4577.56 11547.3 1347.06 22790.8 794.631 -222.179)
(2710.74 9790.51 1272.67 24657.7 908.991 -222.164)
(1177.35 7736.21 1188.61 26191.1 1016.48 -222.14)
(23.9726 5446.88 1095.5 27344.5 1116.26 -222.134)
(-714.34 2992.12 994.051 28082.7 1207.49 -222.149)
(-1015.18 446.38 885.03 28383.6 1289.54 -222.158)
(-5384.06 -3228.61 2883.85 16367.5 -18043.5 6507.67)
(-4658.19 -5068.1 4445.46 15641.6 -17723.5 6507.69)
(-3623.94 -6753.57 5973.21 14607.4 -17268.6 6507.71)
(-2312.68 -8233.91 7455.56 13296.2 -16682.3 6507.72)
(-764.324 -9464.08 8881.19 11747.7 -15969 6507.69)
(974.13 -10406.7 10239.2 10009.2 -15134.2 6507.65)
(2849.85 -11033 11519.2 8133.56 -14184.3 6507.73)
(4806.01 -11324.2 12711.7 6177.57 -13126.3 6507.77)
(6782.81 -11271.2 13807.3 4200.74 -11968.4 6507.7)
(8720.27 -10875.8 14797.8 2263.18 -10719.5 6507.64)
(10559.8 -10149.9 15675.8 423.701 -9389.04 6507.72)
(12245.3 -9115.62 16434.5 -1261.93 -7987.03 6507.7)
(13725.6 -7804.42 17068.1 -2742.2 -6524.31 6507.68)
(14955.8 -6256.05 17571.8 -3972.33 -5011.9 6507.74)
(15898.4 -4517.54 17941.7 -4914.92 -3461.3 6507.71)
(16524.8 -2641.79 18175.1 -5541.3 -1884.39 6507.7)
(16815.9 -685.828 18270.2 -5832.41 -293.183 6507.7)
(16762.9 1290.98 18226.2 -5779.49 1300.26 6507.65)
(16367.5 3228.61 18043.5 -5384.06 2883.85 6507.67)
(15641.6 5068.1 17723.5 -4658.19 4445.46 6507.69)
(14607.4 6753.57 17268.6 -3623.94 5973.21 6507.71)
(13296.2 8233.91 16682.3 -2312.68 7455.56 6507.72)
(11747.7 9464.08 15969 -764.324 8881.19 6507.69)
(10009.2 10406.7 15134.2 974.13 10239.2 6507.65)
(8133.56 11033 14184.3 2849.85 11519.2 6507.74)
(6177.57 11324.2 13126.3 4806.01 12711.7 6507.77)
(4200.74 11271.2 11968.4 6782.81 13807.3 6507.7)
(2263.18 10875.8 10719.5 8720.27 14797.8 6507.64)
(423.701 10149.9 9389.04 10559.8 15675.8 6507.72)
(-1261.93 9115.62 7987.03 12245.3 16434.5 6507.7)
(-2742.2 7804.42 6524.31 13725.6 17068.1 6507.68)
(-3972.33 6256.05 5011.9 14955.8 17571.8 6507.74)
(-4914.92 4517.54 3461.3 15898.4 17941.7 6507.71)
(-5541.3 2641.79 1884.39 16524.7 18175.1 6507.7)
(-5832.41 685.828 293.183 16815.9 18270.2 6507.7)
(-5779.49 -1290.97 -1300.26 16762.9 18226.2 6507.65)
(-5384.06 -3228.61 -2883.85 16367.5 18043.5 6507.67)
(-4658.19 -5068.1 -4445.46 15641.6 17723.5 6507.69)
(-3623.94 -6753.57 -5973.21 14607.4 17268.6 6507.71)
(-2312.68 -8233.91 -7455.56 13296.2 16682.3 6507.72)
(-764.324 -9464.08 -8881.19 11747.7 15969 6507.69)
(974.13 -10406.7 -10239.2 10009.2 15134.2 6507.65)
(2849.85 -11033 -11519.2 8133.56 14184.3 6507.74)
(4806.02 -11324.2 -12711.7 6177.57 13126.3 6507.77)
(6782.81 -11271.2 -13807.3 4200.74 11968.4 6507.7)
(8720.27 -10875.8 -14797.8 2263.18 10719.5 6507.64)
(10559.8 -10149.9 -15675.8 423.701 9389.04 6507.72)
(12245.3 -9115.62 -16434.5 -1261.93 7987.03 6507.7)
(13725.6 -7804.42 -17068.1 -2742.2 6524.31 6507.68)
(14955.8 -6256.05 -17571.8 -3972.33 5011.9 6507.74)
(15898.4 -4517.54 -17941.7 -4914.92 3461.3 6507.71)
(16524.7 -2641.79 -18175.1 -5541.3 1884.39 6507.7)
(16815.9 -685.828 -18270.2 -5832.41 293.183 6507.7)
(16762.9 1290.97 -18226.2 -5779.49 -1300.26 6507.65)
(16367.5 3228.61 -18043.5 -5384.06 -2883.85 6507.67)
(15641.6 5068.1 -17723.5 -4658.19 -4445.46 6507.69)
(14607.4 6753.57 -17268.6 -3623.94 -5973.21 6507.71)
(13296.2 8233.91 -16682.3 -2312.68 -7455.56 6507.72)
(11747.7 9464.08 -15969 -764.324 -8881.19 6507.69)
(10009.2 10406.7 -15134.2 974.13 -10239.2 6507.65)
(8133.56 11033 -14184.3 2849.85 -11519.2 6507.74)
(6177.57 11324.2 -13126.3 4806.02 -12711.7 6507.77)
(4200.74 11271.2 -11968.4 6782.81 -13807.3 6507.7)
(2263.18 10875.8 -10719.5 8720.27 -14797.8 6507.64)
(423.702 10149.9 -9389.04 10559.8 -15675.8 6507.72)
(-1261.93 9115.62 -7987.03 12245.3 -16434.5 6507.7)
(-2742.2 7804.42 -6524.31 13725.6 -17068.1 6507.68)
(-3972.33 6256.05 -5011.9 14955.8 -17571.8 6507.74)
(-4914.92 4517.54 -3461.3 15898.4 -17941.7 6507.71)
(-5541.3 2641.79 -1884.39 16524.8 -18175.1 6507.7)
(-5832.41 685.828 -293.183 16815.9 -18270.2 6507.7)
(-5779.49 -1290.98 1300.26 16762.9 -18226.2 6507.65)
(637.422 -1672.78 -336.445 14675.3 13788.2 16374.3)
(1034.48 -2866.19 -1536.89 14278.1 13706.4 16374.4)
(1632.76 -3972.46 -2725.59 13679.7 13520.3 16374.4)
(2414.06 -4958.08 -3893.57 12898.5 13231.3 16374.3)
(3354.73 -5793.09 -5031.96 11958 12841.6 16374.3)
(4426.07 -6452.07 -6132.08 10886.6 12354.2 16374.3)
(5595.51 -6914.95 -7185.47 9717.13 11772.7 16374.4)
(6827.58 -7167.75 -8184.17 8485.05 11101.7 16374.4)
(8084.81 -7202.74 -9120.59 7227.75 10346.1 16374.4)
(9328.98 -7018.89 -9987.59 5983.5 9511.84 16374.4)
(10522.4 -6621.81 -10778.6 4790.08 8605.17 16374.3)
(11628.7 -6023.53 -11487.6 3683.85 7633.03 16374.3)
(12614.4 -5242.23 -12109.1 2698.24 6602.79 16374.3)
(13449.5 -4301.6 -12638.5 1863.23 5522.23 16374.3)
(14108.4 -3230.24 -13071.7 1204.3 4399.66 16374.4)
(14571.2 -2060.8 -13405.4 741.327 3243.69 16374.4)
(14824 -828.81 -13637.1 488.535 2063.06 16374.3)
(14859.2 428.51 -13765.1 453.562 866.581 16374.3)
(14675.3 1672.78 -13788.2 637.422 -336.445 16374.3)
(14278.1 2866.19 -13706.4 1034.48 -1536.89 16374.4)
(13679.7 3972.46 -13520.3 1632.76 -2725.59 16374.4)
(12898.5 4958.08 -13231.3 2414.06 -3893.57 16374.3)
(11958 5793.09 -12841.6 3354.73 -5031.96 16374.3)
(10886.6 6452.07 -12354.2 4426.07 -6132.08 16374.3)
(9717.13 6914.96 -11772.7 5595.51 -7185.47 16374.4)
(8485.05 7167.75 -11101.7 6827.58 -8184.17 16374.4)
(7227.75 7202.74 -10346.1 8084.81 -9120.59 16374.4)
(5983.5 7018.89 -9511.84 9328.98 -9987.59 16374.4)
(4790.09 6621.81 -8605.17 10522.4 -10778.6 16374.3)
(3683.85 6023.53 -7633.03 11628.7 -11487.6 16374.3)
(2698.24 5242.23 -6602.79 12614.4 -12109.1 16374.3)
(1863.23 4301.6 -5522.23 13449.5 -12638.5 16374.3)
(1204.3 3230.24 -4399.66 14108.4 -13071.7 16374.4)
(741.327 2060.8 -3243.69 14571.2 -13405.4 16374.4)
(488.535 828.81 -2063.06 14824 -13637.1 16374.3)
(453.562 -428.51 -866.581 14859.2 -13765.1 16374.3)
(637.422 -1672.78 336.445 14675.3 -13788.2 16374.3)
(1034.48 -2866.19 1536.89 14278.1 -13706.4 16374.4)
(1632.76 -3972.46 2725.59 13679.7 -13520.3 16374.4)
(2414.06 -4958.08 3893.57 12898.5 -13231.3 16374.3)
(3354.73 -5793.09 5031.96 11958 -12841.6 16374.3)
(4426.07 -6452.07 6132.08 10886.6 -12354.2 16374.3)
(5595.51 -6914.96 7185.47 9717.13 -11772.7 16374.4)
(6827.58 -7167.75 8184.17 8485.05 -11101.7 16374.4)
(8084.81 -7202.74 9120.59 7227.75 -10346.1 16374.4)
(9328.98 -7018.89 9987.59 5983.5 -9511.84 16374.4)
(10522.4 -6621.81 10778.6 4790.09 -8605.17 16374.3)
(11628.7 -6023.53 11487.6 3683.85 -7633.03 16374.3)
(12614.4 -5242.23 12109.1 2698.24 -6602.79 16374.3)
(13449.5 -4301.6 12638.5 1863.23 -5522.23 16374.3)
(14108.4 -3230.24 13071.7 1204.3 -4399.66 16374.4)
(14571.2 -2060.8 13405.4 741.327 -3243.69 16374.4)
(14824 -828.81 13637.1 488.536 -2063.06 16374.3)
(14859.2 428.51 13765.1 453.563 -866.581 16374.3)
(14675.3 1672.78 13788.2 637.422 336.445 16374.3)
(14278.1 2866.19 13706.4 1034.48 1536.89 16374.4)
(13679.7 3972.46 13520.3 1632.76 2725.59 16374.4)
(12898.5 4958.08 13231.3 2414.06 3893.57 16374.3)
(11958 5793.09 12841.6 3354.73 5031.96 16374.3)
(10886.6 6452.07 12354.2 4426.07 6132.08 16374.3)
(9717.13 6914.96 11772.7 5595.51 7185.47 16374.4)
(8485.05 7167.75 11101.7 6827.58 8184.17 16374.4)
(7227.75 7202.74 10346.1 8084.8 9120.59 16374.4)
(5983.5 7018.89 9511.84 9328.98 9987.59 16374.4)
(4790.09 6621.81 8605.17 10522.4 10778.6 16374.3)
(3683.85 6023.53 7633.03 11628.7 11487.6 16374.3)
(2698.24 5242.23 6602.79 12614.4 12109.1 16374.3)
(1863.23 4301.6 5522.23 13449.5 12638.5 16374.3)
(1204.3 3230.24 4399.66 14108.4 13071.7 16374.4)
(741.327 2060.8 3243.69 14571.2 13405.4 16374.4)
(488.535 828.81 2063.06 14824 13637.1 16374.3)
(453.563 -428.51 866.581 14859.2 13765.1 16374.3)
(-2162.51 -2948.04 639.835 25626.3 2041.37 -1786.17)
(-1439.49 -5316.02 459.481 24903.3 2089.37 -1786.17)
(-316.337 -7522.37 275.624 23780 2121.52 -1786.19)
(1172.93 -9500.19 89.6978 22290.8 2137.42 -1786.18)
(2983.09 -11189.5 -96.9193 20480.7 2137.05 -1786.19)
(5059.07 -12538.7 -282.829 18404.7 2120.49 -1786.2)
(7337.79 -13507 -466.559 16126 2087.77 -1786.18)
(9749.97 -14064.8 -646.752 13713.9 2039.19 -1786.16)
(12222.4 -14195.3 -822.016 11241.4 1975.06 -1786.16)
(14679.9 -13894.4 -991.027 8783.86 1895.9 -1786.2)
(17047.9 -13171.4 -1152.49 6415.94 1802.31 -1786.17)
(19254.2 -12048.2 -1305.16 4209.54 1695 -1786.19)
(21232.1 -10558.9 -1447.93 2231.63 1574.79 -1786.22)
(22921.4 -8748.79 -1579.65 542.419 1442.59 -1786.2)
(24270.6 -6672.79 -1699.43 -806.843 1299.43 -1786.19)
(25238.8 -4394.13 -1806.26 -1775.03 1146.4 -1786.17)
(25796.6 -1981.99 -1899.25 -2332.86 984.607 -1786.2)
(25927.1 490.459 -1977.84 -2463.37 815.324 -1786.2)
(25626.3 2948.04 -2041.37 -2162.51 639.835 -1786.17)
(24903.3 5316.02 -2089.37 -1439.49 459.481 -1786.17)
(23780 7522.37 -2121.52 -316.337 275.624 -1786.19)
(22290.8 9500.19 -2137.42 1172.93 89.6977 -1786.18)
(20480.7 11189.5 -2137.05 2983.09 -96.9193 -1786.19)
(18404.7 12538.7 -2120.49 5059.07 -282.829 -1786.2)
(16126 13507 -2087.77 7337.79 -466.559 -1786.18)
(13713.9 14064.8 -2039.19 9749.97 -646.752 -1786.16)
(11241.4 14195.3 -1975.06 12222.4 -822.016 -1786.16)
(8783.86 13894.4 -1895.9 14679.9 -991.027 -1786.2)
(6415.94 13171.4 -1802.31 17047.9 -1152.49 -1786.17)
(4209.54 12048.2 -1695 19254.2 -1305.16 -1786.19)
(2231.63 10558.9 -1574.79 21232.1 -1447.93 -1786.22)
(542.419 8748.79 -1442.59 22921.4 -1579.65 -1786.2)
(-806.843 6672.78 -1299.43 24270.6 -1699.43 -1786.19)
(-1775.03 4394.13 -1146.4 25238.8 -1806.26 -1786.17)
(-2332.86 1981.99 -984.607 25796.6 -1899.25 -1786.2)
(-2463.37 -490.459 -815.324 25927.1 -1977.84 -1786.2)
(-2162.51 -2948.04 -639.835 25626.3 -2041.37 -1786.17)
(-1439.49 -5316.02 -459.481 24903.3 -2089.37 -1786.17)
(-316.337 -7522.37 -275.624 23780 -2121.52 -1786.19)
(1172.93 -9500.19 -89.6977 22290.8 -2137.42 -1786.18)
(2983.09 -11189.5 96.9193 20480.7 -2137.05 -1786.19)
(5059.07 -12538.7 282.829 18404.7 -2120.49 -1786.2)
(7337.79 -13507 466.559 16126 -2087.77 -1786.18)
(9749.97 -14064.8 646.752 13713.9 -2039.19 -1786.16)
(12222.4 -14195.3 822.015 11241.4 -1975.06 -1786.16)
(14679.9 -13894.4 991.027 8783.86 -1895.9 -1786.2)
(17047.9 -13171.4 1152.49 6415.94 -1802.31 -1786.17)
(19254.2 -12048.2 1305.16 4209.54 -1695 -1786.19)
(21232.1 -10558.9 1447.93 2231.63 -1574.79 -1786.22)
(22921.4 -8748.79 1579.65 542.419 -1442.59 -1786.2)
(24270.6 -6672.78 1699.43 -806.843 -1299.43 -1786.19)
(25238.8 -4394.13 1806.26 -1775.03 -1146.4 -1786.17)
(25796.6 -1981.99 1899.25 -2332.86 -984.607 -1786.2)
(25927.1 490.459 1977.84 -2463.37 -815.324 -1786.2)
(25626.3 2948.04 2041.37 -2162.52 -639.835 -1786.17)
(24903.3 5316.02 2089.37 -1439.49 -459.481 -1786.17)
(23780 7522.37 2121.52 -316.337 -275.624 -1786.19)
(22290.8 9500.19 2137.42 1172.93 -89.6977 -1786.18)
(20480.7 11189.5 2137.05 2983.09 96.9193 -1786.19)
(18404.7 12538.7 2120.49 5059.07 282.829 -1786.2)
(16126 13507 2087.77 7337.79 466.559 -1786.18)
(13713.9 14064.8 2039.19 9749.97 646.752 -1786.16)
(11241.4 14195.3 1975.06 12222.4 822.015 -1786.16)
(8783.86 13894.4 1895.9 14679.9 991.027 -1786.19)
(6415.94 13171.4 1802.31 17047.9 1152.49 -1786.17)
(4209.54 12048.2 1695 19254.2 1305.16 -1786.19)
(2231.63 10558.9 1574.79 21232.1 1447.93 -1786.22)
(542.419 8748.79 1442.59 22921.4 1579.65 -1786.2)
(-806.843 6672.78 1299.43 24270.6 1699.43 -1786.19)
(-1775.03 4394.13 1146.4 25238.8 1806.26 -1786.17)
(-2332.86 1981.99 984.607 25796.6 1899.25 -1786.2)
(-2463.37 -490.459 815.324 25927.1 1977.84 -1786.2)
(-7275.86 -4152.17 3230.75 12982 -17845 3190.54)
(-6400.95 -5847.94 4773.73 12107.1 -17495.5 3190.55)
(-5244.9 -7366 6280.37 10951 -17012.9 3190.58)
(-3842.83 -8660.28 7739.2 9548.97 -16400.7 3190.48)
(-2237.28 -9691.45 9139.18 7943.38 -15663.8 3190.51)
(-477.018 -10428.2 10469.6 6183.09 -14807.7 3190.53)
(1384.44 -10848 11720.4 4321.72 -13838.9 3190.59)
(3290.56 -10938.2 12882 2415.63 -12764.7 3190.66)
(5183.29 -10696.1 13945.4 522.882 -11593.4 3190.53)
(7005.14 -10128.9 14902.7 -1298.97 -10333.9 3190.52)
(8701.04 -9254.03 15746.7 -2994.76 -8995.69 3190.68)
(10219.2 -8097.96 16470.8 -4512.94 -7589 3190.59)
(11513.4 -6695.85 17069.6 -5807.24 -6124.61 3190.58)
(12544.6 -5090.26 17538.4 -6838.45 -4613.55 3190.54)
(13281.3 -3330.03 17873.8 -7575.09 -3067.43 3190.51)
(13701.1 -1468.6 18073.1 -7994.91 -1497.97 3190.56)
(13791.2 437.379 18134.9 -8085.12 82.8567 3190.52)
(13549.1 2330.12 18058.6 -7843 1663.09 3190.53)
(12982 4152.17 17845 -7275.86 3230.75 3190.54)
(12107.1 5847.94 17495.5 -6400.95 4773.73 3190.55)
(10951 7366 17012.9 -5244.9 6280.37 3190.58)
(9548.97 8660.28 16400.7 -3842.83 7739.2 3190.49)
(7943.38 9691.45 15663.8 -2237.28 9139.18 3190.51)
(6183.1 10428.2 14807.7 -477.018 10469.6 3190.53)
(4321.72 10848 13838.9 1384.44 11720.4 3190.59)
(2415.63 10938.2 12764.7 3290.57 12882 3190.66)
(522.882 10696.1 11593.4 5183.29 13945.4 3190.53)
(-1298.97 10128.9 10333.9 7005.14 14902.7 3190.52)
(-2994.76 9254.03 8995.69 8701.05 15746.7 3190.68)
(-4512.94 8097.96 7589 10219.2 16470.8 3190.59)
(-5807.24 6695.85 6124.61 11513.4 17069.6 3190.58)
(-6838.45 5090.25 4613.55 12544.6 17538.4 3190.54)
(-7575.09 3330.03 3067.43 13281.3 17873.8 3190.51)
(-7994.91 1468.6 1497.97 13701.1 18073.1 3190.56)
(-8085.12 -437.379 -82.8567 13791.2 18134.9 3190.52)
(-7843 -2330.12 -1663.09 13549.1 18058.6 3190.53)
(-7275.86 -4152.17 -3230.75 12982 17845 3190.54)
(-6400.95 -5847.94 -4773.73 12107.1 17495.5 3190.55)
(-5244.9 -7366 -6280.37 10951 17012.9 3190.58)
(-3842.83 -8660.28 -7739.2 9548.97 16400.7 3190.49)
(-2237.28 -9691.45 -9139.18 7943.38 15663.8 3190.51)
(-477.018 -10428.2 -10469.6 6183.1 14807.7 3190.53)
(1384.44 -10848 -11720.4 4321.72 13838.9 3190.59)
(3290.57 -10938.2 -12882 2415.63 12764.7 3190.66)
(5183.29 -10696.1 -13945.4 522.882 11593.4 3190.53)
(7005.14 -10128.9 -14902.7 -1298.97 10333.9 3190.52)
(8701.05 -9254.03 -15746.7 -2994.76 8995.69 3190.68)
(10219.2 -8097.96 -16470.8 -4512.94 7589 3190.59)
(11513.4 -6695.85 -17069.6 -5807.24 6124.61 3190.58)
(12544.6 -5090.25 -17538.4 -6838.45 4613.55 3190.54)
(13281.3 -3330.03 -17873.8 -7575.09 3067.43 3190.51)
(13701.1 -1468.6 -18073.1 -7994.91 1497.97 3190.56)
(13791.2 437.379 -18134.9 -8085.12 -82.8568 3190.52)
(13549.1 2330.12 -18058.6 -7843 -1663.09 3190.53)
(12982 4152.17 -17845 -7275.86 -3230.75 3190.54)
(12107.1 5847.94 -17495.5 -6400.95 -4773.73 3190.55)
(10951 7366 -17012.9 -5244.9 -6280.37 3190.58)
(9548.97 8660.28 -16400.7 -3842.83 -7739.2 3190.49)
(7943.38 9691.45 -15663.8 -2237.28 -9139.18 3190.51)
(6183.1 10428.2 -14807.7 -477.018 -10469.6 3190.53)
(4321.72 10848 -13838.9 1384.44 -11720.4 3190.59)
(2415.63 10938.2 -12764.7 3290.57 -12882 3190.66)
(522.882 10696.1 -11593.4 5183.29 -13945.4 3190.53)
(-1298.97 10128.9 -10333.9 7005.14 -14902.7 3190.52)
(-2994.76 9254.03 -8995.69 8701.05 -15746.7 3190.68)
(-4512.94 8097.96 -7589 10219.2 -16470.8 3190.59)
(-5807.24 6695.85 -6124.61 11513.4 -17069.6 3190.58)
(-6838.45 5090.25 -4613.55 12544.6 -17538.4 3190.54)
(-7575.09 3330.03 -3067.43 13281.3 -17873.8 3190.51)
(-7994.91 1468.6 -1497.97 13701.1 -18073.1 3190.56)
(-8085.12 -437.379 82.857 13791.2 -18134.9 3190.52)
(-7843 -2330.12 1663.09 13549.1 -18058.6 3190.53)
(600.866 -2120.06 -806.912 14181.2 13525.1 16203)
(1072.14 -3266.92 -1982.6 13709.8 13403.3 16203.1)
(1735.42 -4314.53 -3143.2 13046.6 13179.5 16203.1)
(2570.53 -5231.1 -4279.93 12211.4 12855.4 16203)
(3552.12 -5988.68 -5384.05 11229.9 12433.5 16203)
(4650.49 -6564.34 -6447.28 10131.7 11916.9 16203.1)
(5831.95 -6940.47 -7461.33 8950.08 11309.6 16203.1)
(7060.79 -7105.76 -8418.57 7721.29 10616.3 16203.1)
(8299.72 -7055.19 -9311.83 6482.34 9842.19 16202.9)
(9511.16 -6790.22 -10134.2 5271.04 8993.12 16203)
(10658 -6318.86 -10879.5 4124.04 8075.61 16203)
(11705.5 -5655.57 -11541.9 3076.47 7096.75 16203)
(12622.1 -4820.47 -12116.5 2159.94 6063.79 16203)
(13379.6 -3838.86 -12598.9 1402.31 4984.69 16203)
(13955.4 -2740.6 -12985.4 826.716 3867.63 16203)
(14331.5 -1559.04 -13273.1 450.522 2721.14 16203)
(14496.6 -330.23 -13459.7 285.197 1554.04 16203)
(14446.2 908.676 -13543.9 335.843 375.03 16202.9)
(14181.2 2120.06 -13525.1 600.866 -806.912 16203)
(13709.8 3266.92 -13403.3 1072.14 -1982.6 16203.1)
(13046.6 4314.53 -13179.5 1735.42 -3143.2 16203.1)
(12211.4 5231.1 -12855.4 2570.53 -4279.93 16203)
(11229.9 5988.68 -12433.5 3552.12 -5384.05 16203)
(10131.7 6564.34 -11916.9 4650.5 -6447.28 16203.1)
(8950.07 6940.47 -11309.6 5831.96 -7461.34 16203.1)
(7721.29 7105.76 -10616.3 7060.79 -8418.57 16203.1)
(6482.34 7055.19 -9842.19 8299.71 -9311.82 16202.9)
(5271.04 6790.22 -8993.12 9511.16 -10134.2 16203)
(4124.04 6318.86 -8075.61 10658 -10879.5 16203)
(3076.47 5655.57 -7096.75 11705.5 -11541.9 16203.1)
(2159.94 4820.47 -6063.79 12622.1 -12116.5 16203)
(1402.31 3838.86 -4984.68 13379.7 -12598.9 16202.9)
(826.715 2740.6 -3867.63 13955.4 -12985.4 16203)
(450.524 1559.04 -2721.14 14331.5 -13273.1 16203)
(285.198 330.23 -1554.04 14496.6 -13459.7 16203)
(335.843 -908.677 -375.03 14446.2 -13543.9 16202.9)
(600.866 -2120.06 806.912 14181.2 -13525.1 16203)
(1072.14 -3266.92 1982.6 13709.8 -13403.3 16203.1)
(1735.42 -4314.53 3143.2 13046.6 -13179.5 16203.1)
(2570.53 -5231.1 4279.93 12211.4 -12855.4 16203)
(3552.12 -5988.68 5384.05 11229.9 -12433.5 16203)
(4650.5 -6564.34 6447.28 10131.7 -11916.9 16203.1)
(5831.96 -6940.47 7461.34 8950.07 -11309.6 16203.1)
(7060.79 -7105.76 8418.57 7721.29 -10616.3 16203.1)
(8299.71 -7055.19 9311.82 6482.34 -9842.19 16202.9)
(9511.16 -6790.22 10134.2 5271.04 -8993.12 16203)
(10658 -6318.86 10879.5 4124.04 -8075.61 16203)
(11705.5 -5655.57 11541.9 3076.47 -7096.75 16203.1)
(12622.1 -4820.47 12116.5 2159.94 -6063.79 16203)
(13379.7 -3838.86 12598.9 1402.31 -4984.68 16202.9)
(13955.4 -2740.6 12985.4 826.715 -3867.63 16203)
(14331.5 -1559.04 13273.1 450.524 -2721.14 16203)
(14496.6 -330.23 13459.7 285.198 -1554.04 16203)
(14446.2 908.676 13543.9 335.844 -375.03 16202.9)
(14181.2 2120.06 13525.1 600.866 806.912 16203)
(13709.8 3266.92 13403.3 1072.14 1982.6 16203.1)
(13046.6 4314.53 13179.5 1735.42 3143.2 16203.1)
(12211.4 5231.1 12855.4 2570.53 4279.93 16203)
(11229.9 5988.68 12433.5 3552.12 5384.05 16203)
(10131.7 6564.34 11916.9 4650.5 6447.28 16203.1)
(8950.07 6940.47 11309.6 5831.96 7461.34 16203.1)
(7721.29 7105.76 10616.3 7060.79 8418.57 16203.1)
(6482.34 7055.19 9842.19 8299.71 9311.82 16202.9)
(5271.04 6790.22 8993.12 9511.16 10134.2 16203)
(4124.04 6318.86 8075.61 10658 10879.5 16203)
(3076.47 5655.57 7096.75 11705.5 11541.9 16203.1)
(2159.94 4820.47 6063.79 12622.1 12116.5 16203)
(1402.31 3838.86 4984.68 13379.7 12598.9 16202.9)
(826.715 2740.6 3867.63 13955.4 12985.4 16203)
(450.524 1559.04 2721.14 14331.5 13273.1 16203)
(285.198 330.23 1554.04 14496.6 13459.7 16203)
(335.843 -908.677 375.03 14446.2 13543.9 16202.9)
(-1964.32 -4119.42 449.408 24336.9 1841.91 -2426.57)
(-1049.16 -6340.45 287.157 23421.8 1874.1 -2426.52)
(237.675 -8368.76 122.724 22134.9 1892.02 -2426.56)
(1857.23 -10142.8 -42.629 20515.4 1895.49 -2426.54)
(3760.28 -11608.7 -207.662 18612.4 1884.54 -2426.52)
(5888.89 -12721.9 -371.154 16483.7 1859.32 -2426.54)
(8178.61 -13448.5 -531.742 14194.2 1819.85 -2426.5)
(10559.5 -13766.5 -688.339 11813.1 1766.6 -2426.56)
(12959.5 -13666.2 -839.645 9413.13 1699.85 -2426.56)
(15305.8 -13150.6 -984.616 7066.85 1620.19 -2426.57)
(17526.7 -12235.5 -1122.12 4845.89 1528.25 -2426.54)
(19555.1 -10948.6 -1251.02 2817.55 1424.62 -2426.57)
(21329.1 -9329.06 -1370.48 1043.46 1310.19 -2426.58)
(22795 -7426.03 -1479.41 -422.408 1185.73 -2426.56)
(23908.1 -5297.38 -1577.14 -1535.62 1052.29 -2426.61)
(24634.7 -3007.78 -1662.88 -2262.2 910.842 -2426.58)
(24952.8 -626.803 -1735.91 -2580.14 762.44 -2426.56)
(24852.5 1773.24 -1795.73 -2479.84 608.236 -2426.56)
(24336.9 4119.42 -1841.91 -1964.32 449.408 -2426.57)
(23421.8 6340.45 -1874.1 -1049.16 287.157 -2426.52)
(22134.9 8368.76 -1892.02 237.675 122.724 -2426.56)
(20515.4 10142.8 -1895.49 1857.23 -42.6291 -2426.54)
(18612.4 11608.7 -1884.54 3760.28 -207.662 -2426.52)
(16483.7 12721.9 -1859.32 5888.89 -371.154 -2426.54)
(14194.2 13448.5 -1819.85 8178.61 -531.742 -2426.5)
(11813.1 13766.5 -1766.6 10559.5 -688.339 -2426.56)
(9413.13 13666.2 -1699.85 12959.5 -839.645 -2426.56)
(7066.86 13150.6 -1620.19 15305.8 -984.616 -2426.57)
(4845.89 12235.5 -1528.25 17526.7 -1122.12 -2426.54)
(2817.55 10948.6 -1424.62 19555.1 -1251.02 -2426.57)
(1043.46 9329.06 -1310.19 21329.1 -1370.48 -2426.59)
(-422.41 7426.03 -1185.73 22795 -1479.41 -2426.56)
(-1535.62 5297.38 -1052.29 23908.1 -1577.14 -2426.61)
(-2262.2 3007.78 -910.842 24634.7 -1662.88 -2426.58)
(-2580.14 626.802 -762.44 24952.8 -1735.91 -2426.56)
(-2479.84 -1773.24 -608.236 24852.5 -1795.73 -2426.56)
(-1964.32 -4119.42 -449.408 24336.9 -1841.91 -2426.57)
(-1049.16 -6340.45 -287.157 23421.8 -1874.1 -2426.52)
(237.675 -8368.76 -122.724 22134.9 -1892.02 -2426.56)
(1857.23 -10142.8 42.629 20515.4 -1895.49 -2426.54)
(3760.28 -11608.7 207.662 18612.4 -1884.54 -2426.52)
(5888.89 -12721.9 371.154 16483.7 -1859.32 -2426.54)
(8178.61 -13448.5 531.742 14194.2 -1819.85 -2426.5)
(10559.5 -13766.5 688.339 11813.1 -1766.6 -2426.56)
(12959.5 -13666.2 839.645 9413.13 -1699.85 -2426.56)
(15305.8 -13150.6 984.616 7066.86 -1620.19 -2426.57)
(17526.7 -12235.5 1122.12 4845.89 -1528.25 -2426.54)
(19555.1 -10948.6 1251.02 2817.55 -1424.62 -2426.57)
(21329.1 -9329.06 1370.48 1043.46 -1310.19 -2426.58)
(22795 -7426.03 1479.41 -422.41 -1185.73 -2426.56)
(23908.1 -5297.38 1577.14 -1535.62 -1052.29 -2426.61)
(24634.7 -3007.78 1662.88 -2262.2 -910.842 -2426.58)
(24952.8 -626.802 1735.91 -2580.14 -762.44 -2426.56)
(24852.5 1773.24 1795.73 -2479.84 -608.236 -2426.56)
(24336.9 4119.42 1841.91 -1964.32 -449.408 -2426.57)
(23421.8 6340.45 1874.1 -1049.16 -287.157 -2426.53)
(22134.9 8368.76 1892.02 237.674 -122.724 -2426.56)
(20515.4 10142.8 1895.49 1857.23 42.6291 -2426.54)
(18612.4 11608.7 1884.54 3760.28 207.662 -2426.52)
(16483.7 12721.9 1859.32 5888.89 371.154 -2426.54)
(14194.2 13448.5 1819.85 8178.61 531.742 -2426.5)
(11813.1 13766.5 1766.6 10559.5 688.339 -2426.56)
(9413.13 13666.2 1699.85 12959.5 839.645 -2426.56)
(7066.86 13150.6 1620.19 15305.8 984.616 -2426.57)