/*--------------------------------*- C++ -*----------------------------------*\
| =========                 |                                                 |
| \\      /  F ield         | OpenFOAM: The Open Source CFD Toolbox           |
|  \\    /   O peration     | Version:  2312                                  |
|   \\  /    A nd           | Website:  www.openfoam.com                      |
|    \\/     M anipulation  |                                                 |
\*---------------------------------------------------------------------------*/
FoamFile
{
    version     2.0;
    format      ascii;
    arch        "LSB;label=32;scalar=64";
    class       volVectorField;
    location    "0.5";
    object      traction;
}
// * * * * * * * * * * * * * * * * * * * * * * * * * * * * * * * * * * * * * //

dimensions      [1 -1 -2 0 0 0 0];

internalField   uniform (0 0 0);

boundaryField
{
    fixed
    {
        type            calculated;
        value           nonuniform List<vector> 
216
(
(595.454 13953.1 16352)
(-622.947 13951.9 16351.9)
(-1836.55 13844.5 16352)
(-3036.13 13631.8 16352)
(-4212.67 13315.3 16351.9)
(-5357.2 12897.4 16351.9)
(-6460.91 12381.4 16352)
(-7515.41 11771.2 16351.9)
(-8512.76 11071.4 16351.9)
(-9445.3 10287.4 16351.9)
(-10306 9425.01 16352)
(-11088.2 8490.95 16352)
(-11786 7492.23 16351.9)
(-12394.1 6436.45 16351.9)
(-12908 5331.73 16352)
(-13323.6 4186.48 16352)
(-13637.7 3009.35 16352)
(-13848.1 1809.26 16352)
(-13953.1 595.454 16352)
(-13951.9 -622.947 16351.9)
(-13844.5 -1836.55 16352)
(-13631.8 -3036.13 16352)
(-13315.3 -4212.67 16351.9)
(-12897.4 -5357.2 16351.9)
(-12381.4 -6460.91 16352)
(-11771.2 -7515.41 16351.9)
(-11071.4 -8512.76 16351.9)
(-10287.4 -9445.3 16351.9)
(-9425.01 -10306 16352)
(-8490.95 -11088.2 16352)
(-7492.23 -11786 16351.9)
(-6436.45 -12394.1 16351.9)
(-5331.73 -12908 16352)
(-4186.48 -13323.6 16352)
(-3009.35 -13637.7 16352)
(-1809.26 -13848.1 16352)
(-595.454 -13953.1 16352)
(622.947 -13951.9 16351.9)
(1836.55 -13844.5 16352)
(3036.13 -13631.8 16352)
(4212.67 -13315.3 16351.9)
(5357.2 -12897.4 16351.9)
(6460.91 -12381.4 16352)
(7515.41 -11771.2 16351.9)
(8512.76 -11071.4 16351.9)
(9445.3 -10287.4 16351.9)
(10306 -9425.01 16352)
(11088.2 -8490.95 16352)
(11786 -7492.23 16351.9)
(12394.1 -6436.45 16351.9)
(12908 -5331.73 16352)
(13323.6 -4186.48 16352)
(13637.7 -3009.35 16352)
(13848.1 -1809.26 16352)
(13953.1 -595.454 16352)
(13951.9 622.947 16351.9)
(13844.5 1836.55 16352)
(13631.8 3036.13 16352)
(13315.3 4212.67 16351.9)
(12897.4 5357.2 16351.9)
(12381.4 6460.91 16352)
(11771.2 7515.41 16351.9)
(11071.4 8512.76 16351.9)
(10287.4 9445.3 16351.9)
(9425.01 10306 16352)
(8490.95 11088.2 16352)
(7492.23 11786 16351.9)
(6436.45 12394.1 16351.9)
(5331.73 12908 16352)
(4186.48 13323.6 16352)
(3009.35 13637.7 16352)
(1809.26 13848.1 16352)
(722.585 1357.42 -178.963)
(601.526 1415.25 -178.98)
(475.891 1462.3 -178.945)
(346.652 1498.15 -178.947)
(214.769 1522.63 -179.002)
(81.2389 1535.56 -179.022)
(-52.9294 1536.84 -178.989)
(-186.676 1526.39 -178.932)
(-319.045 1504.35 -178.983)
(-448.945 1470.84 -179.01)
(-575.385 1426.08 -178.97)
(-697.476 1370.49 -178.989)
(-814.219 1304.46 -179.007)
(-924.793 1228.53 -178.992)
(-1028.37 1143.26 -178.969)
(-1124.16 1049.29 -178.963)
(-1211.34 947.322 -178.976)
(-1289.29 838.143 -178.987)
(-1357.42 722.585 -178.963)
(-1415.25 601.526 -178.98)
(-1462.3 475.891 -178.945)
(-1498.15 346.652 -178.947)
(-1522.63 214.769 -179.002)
(-1535.56 81.2388 -179.022)
(-1536.84 -52.9294 -178.988)
(-1526.39 -186.678 -178.931)
(-1504.35 -319.044 -178.983)
(-1470.83 -448.945 -179.01)
(-1426.08 -575.385 -178.97)
(-1370.49 -697.476 -178.989)
(-1304.46 -814.218 -179.007)
(-1228.53 -924.793 -178.993)
(-1143.26 -1028.37 -178.97)
(-1049.29 -1124.16 -178.963)
(-947.322 -1211.34 -178.976)
(-838.143 -1289.29 -178.987)
(-722.585 -1357.42 -178.963)
(-601.526 -1415.25 -178.98)
(-475.891 -1462.3 -178.945)
(-346.652 -1498.15 -178.947)
(-214.769 -1522.63 -179.002)
(-81.2388 -1535.56 -179.022)
(52.9294 -1536.84 -178.988)
(186.678 -1526.39 -178.93)
(319.044 -1504.35 -178.982)
(448.945 -1470.83 -179.01)
(575.385 -1426.08 -178.97)
(697.476 -1370.49 -178.989)
(814.218 -1304.46 -179.007)
(924.793 -1228.53 -178.993)
(1028.37 -1143.26 -178.97)
(1124.16 -1049.29 -178.963)
(1211.34 -947.322 -178.977)
(1289.29 -838.143 -178.987)
(1357.42 -722.584 -178.963)
(1415.25 -601.526 -178.98)
(1462.3 -475.891 -178.945)
(1498.15 -346.652 -178.947)
(1522.63 -214.769 -179.002)
(1535.56 -81.2388 -179.021)
(1536.84 52.9294 -178.988)
(1526.39 186.678 -178.93)
(1504.35 319.044 -178.982)
(1470.83 448.945 -179.01)
(1426.08 575.385 -178.97)
(1370.49 697.476 -178.989)
(1304.46 814.218 -179.006)
(1228.53 924.793 -178.992)
(1143.26 1028.37 -178.969)
(1049.29 1124.16 -178.963)
(947.322 1211.34 -178.977)
(838.143 1289.29 -178.987)
(2948.65 -18203.2 6583.58)
(4523.92 -17876.9 6583.58)
(6064.74 -17414.6 6583.62)
(7559.43 -16819.7 6583.58)
(8996.67 -16096.9 6583.56)
(10365.4 -15251.5 6583.55)
(11655.2 -14290.1 6583.61)
(12856.3 -13219.9 6583.64)
(13959.6 -12049.1 6583.57)
(14956.5 -10786.6 6583.5)
(15839.7 -9442 6583.59)
(16602.4 -8025.52 6583.6)
(17238.7 -6548.01 6583.58)
(17743.8 -5020.63 6583.61)
(18113.9 -3454.99 6583.58)
(18346.1 -1863.12 6583.62)
(18438.6 -257.103 6583.59)
(18390.9 1350.9 6583.55)
(18203.2 2948.65 6583.58)
(17876.9 4523.92 6583.58)
(17414.6 6064.74 6583.62)
(16819.7 7559.43 6583.58)
(16096.9 8996.67 6583.56)
(15251.5 10365.4 6583.55)
(14290.1 11655.2 6583.62)
(13219.9 12856.3 6583.64)
(12049.1 13959.6 6583.57)
(10786.6 14956.5 6583.51)
(9442 15839.7 6583.59)
(8025.52 16602.4 6583.6)
(6548.01 17238.7 6583.58)
(5020.63 17743.8 6583.61)
(3454.99 18113.9 6583.58)
(1863.12 18346.1 6583.62)
(257.103 18438.6 6583.59)
(-1350.9 18390.9 6583.55)
(-2948.65 18203.2 6583.58)
(-4523.92 17876.9 6583.58)
(-6064.74 17414.6 6583.62)
(-7559.43 16819.7 6583.58)
(-8996.67 16096.9 6583.56)
(-10365.4 15251.5 6583.55)
(-11655.2 14290.1 6583.62)
(-12856.3 13219.9 6583.64)
(-13959.6 12049.1 6583.57)
(-14956.5 10786.6 6583.51)
(-15839.7 9442 6583.59)
(-16602.4 8025.52 6583.6)
(-17238.7 6548.01 6583.58)
(-17743.8 5020.63 6583.61)
(-18113.9 3454.99 6583.58)
(-18346.1 1863.12 6583.62)
(-18438.6 257.103 6583.59)
(-18390.9 -1350.9 6583.55)
(-18203.2 -2948.65 6583.58)
(-17876.9 -4523.92 6583.58)
(-17414.6 -6064.74 6583.62)
(-16819.7 -7559.43 6583.58)
(-16096.9 -8996.67 6583.56)
(-15251.5 -10365.4 6583.55)
(-14290.1 -11655.2 6583.62)
(-13219.9 -12856.3 6583.64)
(-12049.1 -13959.6 6583.57)
(-10786.6 -14956.5 6583.51)
(-9442 -15839.7 6583.59)
(-8025.52 -16602.4 6583.6)
(-6548.01 -17238.7 6583.58)
(-5020.63 -17743.8 6583.61)
(-3454.99 -18113.9 6583.58)
(-1863.12 -18346.1 6583.62)
(-257.103 -18438.6 6583.59)
(1350.9 -18390.9 6583.55)
)
;
    }
    inside
    {
        type            calculated;
        value           nonuniform List<vector> 
1080
(
(6524.88 -885.773 1990.47)
(6577.27 -313.729 1990.58)
(6579.54 260.663 1990.44)
(6531.79 833.136 1990.54)
(6434.36 1399.3 1990.51)
(6287.93 1954.83 1990.55)
(6093.57 2495.34 1990.37)
(5852.87 3016.96 1990.5)
(5567.72 3515.56 1990.52)
(5240.17 3987.41 1990.6)
(4872.62 4428.92 1990.49)
(4468.05 4836.87 1990.54)
(4029.55 5207.81 1990.4)
(3560.32 5539.2 1990.5)
(3063.99 5828.43 1990.5)
(2544.32 6073.34 1990.55)
(2005.37 6271.92 1990.46)
(1451.08 6422.87 1990.53)
(885.773 6524.88 1990.47)
(313.729 6577.27 1990.58)
(-260.663 6579.54 1990.44)
(-833.136 6531.79 1990.54)
(-1399.3 6434.36 1990.51)
(-1954.83 6287.93 1990.55)
(-2495.34 6093.57 1990.37)
(-3016.96 5852.87 1990.5)
(-3515.56 5567.72 1990.52)
(-3987.41 5240.17 1990.6)
(-4428.92 4872.62 1990.49)
(-4836.87 4468.05 1990.54)
(-5207.81 4029.55 1990.4)
(-5539.2 3560.32 1990.5)
(-5828.43 3063.99 1990.5)
(-6073.34 2544.32 1990.55)
(-6271.92 2005.37 1990.46)
(-6422.87 1451.08 1990.53)
(-6524.88 885.773 1990.47)
(-6577.27 313.729 1990.58)
(-6579.54 -260.663 1990.44)
(-6531.79 -833.136 1990.54)
(-6434.36 -1399.3 1990.51)
(-6287.93 -1954.83 1990.55)
(-6093.57 -2495.34 1990.37)
(-5852.87 -3016.96 1990.5)
(-5567.72 -3515.56 1990.52)
(-5240.17 -3987.41 1990.6)
(-4872.62 -4428.92 1990.49)
(-4468.05 -4836.87 1990.54)
(-4029.55 -5207.81 1990.4)
(-3560.32 -5539.2 1990.5)
(-3063.99 -5828.43 1990.5)
(-2544.32 -6073.34 1990.55)
(-2005.37 -6271.92 1990.46)
(-1451.08 -6422.87 1990.53)
(-885.773 -6524.88 1990.47)
(-313.729 -6577.27 1990.58)
(260.663 -6579.54 1990.44)
(833.136 -6531.79 1990.54)
(1399.3 -6434.36 1990.51)
(1954.83 -6287.93 1990.55)
(2495.34 -6093.57 1990.37)
(3016.96 -5852.87 1990.5)
(3515.56 -5567.72 1990.52)
(3987.41 -5240.17 1990.6)
(4428.92 -4872.62 1990.49)
(4836.87 -4468.05 1990.54)
(5207.81 -4029.55 1990.4)
(5539.2 -3560.32 1990.5)
(5828.43 -3063.99 1990.5)
(6073.34 -2544.32 1990.55)
(6271.92 -2005.37 1990.46)
(6422.87 -1451.08 1990.53)
(8975.48 203.905 2838.62)
(8923.52 985.333 2838.55)
(8803.69 1759.26 2838.52)
(8616.9 2519.85 2838.59)
(8364.5 3261.27 2838.48)
(8048.41 3977.99 2838.57)
(7671.06 4664.23 2838.45)
(7235.31 5315.11 2838.54)
(6744.52 5925.56 2838.55)
(6202.43 6490.73 2838.45)
(5613.1 7006.54 2838.52)
(4981.08 7469.18 2838.61)
(4311.2 7874.87 2838.48)
(3608.43 8220.73 2838.58)
(2878.25 8503.91 2838.5)
(2126.12 8722.39 2838.58)
(1357.87 8874.47 2838.56)
(579.258 8959.05 2838.46)
(-203.904 8975.48 2838.62)
(-985.333 8923.52 2838.55)
(-1759.26 8803.69 2838.52)
(-2519.85 8616.9 2838.59)
(-3261.27 8364.5 2838.48)
(-3977.99 8048.41 2838.57)
(-4664.23 7671.06 2838.45)
(-5315.11 7235.31 2838.54)
(-5925.56 6744.52 2838.55)
(-6490.73 6202.43 2838.45)
(-7006.54 5613.1 2838.52)
(-7469.18 4981.07 2838.61)
(-7874.87 4311.2 2838.48)
(-8220.73 3608.43 2838.58)
(-8503.91 2878.25 2838.5)
(-8722.39 2126.12 2838.58)
(-8874.47 1357.87 2838.56)
(-8959.05 579.259 2838.46)
(-8975.48 -203.904 2838.62)
(-8923.52 -985.332 2838.55)
(-8803.69 -1759.26 2838.52)
(-8616.9 -2519.85 2838.59)
(-8364.5 -3261.27 2838.48)
(-8048.41 -3977.99 2838.57)
(-7671.06 -4664.23 2838.45)
(-7235.31 -5315.11 2838.54)
(-6744.52 -5925.56 2838.55)
(-6202.43 -6490.73 2838.45)
(-5613.1 -7006.54 2838.52)
(-4981.07 -7469.18 2838.61)
(-4311.2 -7874.87 2838.48)
(-3608.43 -8220.73 2838.58)
(-2878.25 -8503.91 2838.5)
(-2126.12 -8722.39 2838.58)
(-1357.87 -8874.47 2838.56)
(-579.259 -8959.05 2838.46)
(203.904 -8975.48 2838.62)
(985.332 -8923.52 2838.55)
(1759.26 -8803.69 2838.52)
(2519.85 -8616.9 2838.59)
(3261.27 -8364.5 2838.48)
(3977.99 -8048.41 2838.57)
(4664.23 -7671.06 2838.45)
(5315.11 -7235.31 2838.54)
(5925.56 -6744.52 2838.55)
(6490.73 -6202.43 2838.45)
(7006.54 -5613.1 2838.52)
(7469.18 -4981.07 2838.61)
(7874.87 -4311.2 2838.48)
(8220.73 -3608.43 2838.58)
(8503.91 -2878.25 2838.5)
(8722.39 -2126.12 2838.58)
(8874.47 -1357.87 2838.56)
(8959.05 -579.258 2838.46)
(10579.1 3739.88 2093.34)
(10212.9 4647.74 2093.35)
(9768.91 5520.16 2093.3)
(9250.64 6350.56 2093.28)
(8661.98 7132.64 2093.35)
(8007.39 7860.38 2093.34)
(7291.84 8528.42 2093.33)
(6520.78 9131.43 2093.28)
(5700.11 9665.14 2093.43)
(4836.11 10125 2093.26)
(3935.15 10508.1 2093.38)
(3004.39 10811 2093.34)
(2050.7 11031.8 2093.33)
(1081.41 11168.5 2093.29)
(103.817 11220.3 2093.31)
(-874.455 11186.6 2093.33)
(-1846.06 11067.8 2093.3)
(-2803.64 10864.8 2093.35)
(-3739.88 10579.1 2093.34)
(-4647.74 10212.9 2093.35)
(-5520.16 9768.91 2093.3)
(-6350.56 9250.64 2093.28)
(-7132.64 8661.98 2093.35)
(-7860.38 8007.39 2093.34)
(-8528.42 7291.84 2093.33)
(-9131.43 6520.78 2093.28)
(-9665.14 5700.11 2093.44)
(-10125 4836.11 2093.26)
(-10508.1 3935.15 2093.38)
(-10811 3004.39 2093.34)
(-11031.8 2050.7 2093.33)
(-11168.5 1081.41 2093.29)
(-11220.3 103.817 2093.31)
(-11186.6 -874.456 2093.33)
(-11067.8 -1846.06 2093.3)
(-10864.8 -2803.64 2093.35)
(-10579.1 -3739.88 2093.34)
(-10212.9 -4647.74 2093.35)
(-9768.91 -5520.16 2093.3)
(-9250.64 -6350.56 2093.28)
(-8661.98 -7132.64 2093.35)
(-8007.39 -7860.38 2093.34)
(-7291.84 -8528.42 2093.33)
(-6520.78 -9131.43 2093.28)
(-5700.11 -9665.14 2093.44)
(-4836.11 -10125 2093.26)
(-3935.15 -10508.1 2093.38)
(-3004.39 -10811 2093.34)
(-2050.7 -11031.8 2093.33)
(-1081.41 -11168.5 2093.29)
(-103.817 -11220.3 2093.31)
(874.456 -11186.6 2093.33)
(1846.06 -11067.8 2093.3)
(2803.64 -10864.8 2093.35)
(3739.88 -10579.1 2093.34)
(4647.74 -10212.9 2093.35)
(5520.16 -9768.91 2093.3)
(6350.56 -9250.64 2093.28)
(7132.64 -8661.98 2093.35)
(7860.38 -8007.39 2093.34)
(8528.42 -7291.84 2093.33)
(9131.43 -6520.78 2093.28)
(9665.14 -5700.11 2093.44)
(10125 -4836.11 2093.26)
(10508.1 -3935.15 2093.38)
(10811 -3004.39 2093.34)
(11031.8 -2050.7 2093.33)
(11168.5 -1081.41 2093.29)
(11220.3 -103.817 2093.31)
(11186.6 874.456 2093.33)
(11067.8 1846.06 2093.3)
(10864.8 2803.64 2093.35)
(11816.4 7922.18 2054.73)
(11080.9 8921.96 2054.83)
(10261.2 9853.85 2054.87)
(9363.35 10710.6 2054.83)
(8394.21 11486 2054.96)
(7361.25 12173.8 2054.71)
(6272.16 12769.1 2054.82)
(5135.38 13267.1 2054.8)
(3959.51 13664.3 2054.79)
(2753.55 13957.3 2054.8)
(1526.62 14144.2 2054.84)
(288.045 14223.4 2054.77)
(-952.742 14194.5 2054.92)
(-2186.1 14057.3 2054.73)
(-3403.02 13813.4 2054.9)
(-4593.96 13464.2 2054.79)
(-5750.03 13012.5 2054.83)
(-6862.33 12461.9 2054.9)
(-7922.18 11816.4 2054.73)
(-8921.96 11080.9 2054.83)
(-9853.84 10261.2 2054.87)
(-10710.6 9363.35 2054.83)
(-11486 8394.21 2054.96)
(-12173.8 7361.25 2054.71)
(-12769.1 6272.16 2054.82)
(-13267.1 5135.38 2054.8)
(-13664.3 3959.51 2054.79)
(-13957.3 2753.55 2054.8)
(-14144.2 1526.62 2054.84)
(-14223.4 288.045 2054.77)
(-14194.5 -952.743 2054.92)
(-14057.3 -2186.1 2054.72)
(-13813.4 -3403.02 2054.89)
(-13464.2 -4593.96 2054.79)
(-13012.5 -5750.03 2054.83)
(-12461.9 -6862.33 2054.9)
(-11816.4 -7922.18 2054.73)
(-11080.9 -8921.96 2054.83)
(-10261.2 -9853.84 2054.87)
(-9363.35 -10710.6 2054.83)
(-8394.21 -11486 2054.96)
(-7361.25 -12173.8 2054.71)
(-6272.16 -12769.1 2054.82)
(-5135.38 -13267.1 2054.8)
(-3959.51 -13664.3 2054.79)
(-2753.55 -13957.3 2054.8)
(-1526.62 -14144.2 2054.84)
(-288.045 -14223.4 2054.77)
(952.743 -14194.5 2054.92)
(2186.1 -14057.3 2054.72)
(3403.02 -13813.4 2054.89)
(4593.96 -13464.2 2054.79)
(5750.03 -13012.5 2054.83)
(6862.33 -12461.9 2054.9)
(7922.18 -11816.4 2054.73)
(8921.96 -11080.9 2054.83)
(9853.85 -10261.2 2054.87)
(10710.6 -9363.35 2054.83)
(11486 -8394.21 2054.95)
(12173.8 -7361.25 2054.71)
(12769.1 -6272.16 2054.82)
(13267.1 -5135.38 2054.8)
(13664.3 -3959.51 2054.79)
(13957.3 -2753.55 2054.8)
(14144.2 -1526.62 2054.84)
(14223.4 -288.045 2054.77)
(14194.5 952.743 2054.92)
(14057.3 2186.1 2054.72)
(13813.4 3403.02 2054.89)
(13464.2 4593.96 2054.79)
(13012.5 5750.03 2054.83)
(12461.9 6862.33 2054.9)
(12523.7 11885.6 2581.99)
(11440.1 12931.9 2581.94)
(10269.4 13879.9 2582.17)
(9020.66 14721.9 2581.9)
(7703.2 15452.2 2582.06)
(6327.22 16064.8 2581.94)
(4903.01 16555.1 2582.13)
(3441.49 16919.3 2581.93)
(1953.71 17155 2582.03)
(451.158 17259.9 2581.97)
(-1054.9 17233.6 2582.1)
(-2552.75 17076 2581.94)
(-4031.46 16788.7 2582.09)
(-5479.34 16373.3 2581.93)
(-6885.58 15833.5 2582.08)
(-8239.15 15173.1 2581.85)
(-9530.38 14397.3 2582.07)
(-10748.9 13511.9 2582.04)
(-11885.6 12523.7 2581.99)
(-12931.9 11440.1 2581.94)
(-13879.9 10269.4 2582.17)
(-14721.9 9020.66 2581.9)
(-15452.2 7703.2 2582.06)
(-16064.8 6327.22 2581.94)
(-16555.1 4903.01 2582.13)
(-16919.3 3441.49 2581.93)
(-17155 1953.71 2582.03)
(-17259.9 451.158 2581.97)
(-17233.6 -1054.9 2582.1)
(-17076 -2552.75 2581.94)
(-16788.7 -4031.46 2582.09)
(-16373.3 -5479.34 2581.93)
(-15833.5 -6885.58 2582.08)
(-15173.1 -8239.15 2581.85)
(-14397.3 -9530.38 2582.07)
(-13511.9 -10748.9 2582.04)
(-12523.7 -11885.6 2581.99)
(-11440.1 -12931.9 2581.94)
(-10269.4 -13879.9 2582.17)
(-9020.66 -14721.9 2581.9)
(-7703.2 -15452.2 2582.06)
(-6327.22 -16064.8 2581.94)
(-4903.01 -16555.1 2582.13)
(-3441.49 -16919.3 2581.93)
(-1953.71 -17155 2582.03)
(-451.158 -17259.9 2581.97)
(1054.9 -17233.6 2582.1)
(2552.75 -17076 2581.94)
(4031.46 -16788.7 2582.09)
(5479.34 -16373.3 2581.93)
(6885.58 -15833.5 2582.08)
(8239.15 -15173.1 2581.85)
(9530.38 -14397.3 2582.07)
(10748.9 -13511.9 2582.04)
(11885.6 -12523.7 2581.99)
(12931.9 -11440.1 2581.94)
(13879.9 -10269.4 2582.17)
(14721.9 -9020.66 2581.9)
(15452.2 -7703.2 2582.06)
(16064.8 -6327.22 2581.94)
(16555.1 -4903.01 2582.13)
(16919.3 -3441.49 2581.93)
(17155 -1953.71 2582.03)
(17259.9 -451.158 2581.97)
(17233.6 1054.9 2582.1)
(17076 2552.75 2581.94)
(16788.7 4031.46 2582.09)
(16373.3 5479.34 2581.93)
(15833.5 6885.58 2582.08)
(15173.1 8239.15 2581.85)
(14397.3 9530.38 2582.07)
(13511.9 10748.9 2582.04)
(12788.1 15062.6 3344.05)
(11426.6 16119.6 3343.76)
(9978.17 17054.4 3344.11)
(8453.85 17858.9 3343.8)
(6865.15 18527.9 3344.01)
(5224.22 19055.8 3344.02)
(3543.51 19438.5 3343.91)
(1835.83 19673.4 3343.95)
(114.238 19758.6 3344.05)
(-1608.22 19693.3 3343.84)
(-3318.53 19478.2 3343.94)
(-5003.61 19114.9 3343.93)
(-6650.43 18606 3343.9)
(-8246.75 17955.6 3343.9)
(-9780.44 17168.5 3344.09)
(-11239.4 16250.7 3343.74)
(-12613.2 15209.4 3344.11)
(-13890.6 14052.2 3343.8)
(-15062.6 12788.1 3344.05)
(-16119.6 11426.6 3343.76)
(-17054.4 9978.17 3344.11)
(-17858.9 8453.85 3343.8)
(-18527.9 6865.15 3344.01)
(-19055.8 5224.22 3344.02)
(-19438.5 3543.51 3343.91)
(-19673.4 1835.83 3343.95)
(-19758.6 114.238 3344.05)
(-19693.3 -1608.22 3343.84)
(-19478.2 -3318.53 3343.94)
(-19114.9 -5003.61 3343.93)
(-18606 -6650.43 3343.9)
(-17955.6 -8246.75 3343.9)
(-17168.5 -9780.44 3344.09)
(-16250.7 -11239.4 3343.74)
(-15209.4 -12613.2 3344.11)
(-14052.2 -13890.6 3343.8)
(-12788.1 -15062.6 3344.05)
(-11426.6 -16119.6 3343.76)
(-9978.17 -17054.4 3344.11)
(-8453.85 -17858.9 3343.8)
(-6865.15 -18527.9 3344.01)
(-5224.22 -19055.8 3344.02)
(-3543.51 -19438.5 3343.91)
(-1835.83 -19673.4 3343.95)
(-114.238 -19758.6 3344.05)
(1608.22 -19693.3 3343.84)
(3318.53 -19478.2 3343.94)
(5003.61 -19114.9 3343.93)
(6650.43 -18606 3343.9)
(8246.75 -17955.6 3343.9)
(9780.44 -17168.5 3344.09)
(11239.4 -16250.7 3343.74)
(12613.2 -15209.4 3344.11)
(13890.6 -14052.2 3343.8)
(15062.6 -12788.1 3344.05)
(16119.6 -11426.6 3343.76)
(17054.4 -9978.17 3344.11)
(17858.9 -8453.85 3343.8)
(18527.9 -6865.15 3344.01)
(19055.8 -5224.22 3344.02)
(19438.5 -3543.51 3343.91)
(19673.4 -1835.83 3343.95)
(19758.6 -114.238 3344.05)
(19693.3 1608.22 3343.84)
(19478.2 3318.53 3343.94)
(19114.9 5003.61 3343.93)
(18606 6650.43 3343.9)
(17955.6 8246.75 3343.9)
(17168.5 9780.44 3344.09)
(16250.7 11239.4 3343.74)
(15209.4 12613.2 3344.11)
(14052.2 13890.6 3343.8)
(12882.7 17457.5 4142.12)
(11312.1 18513.7 4141.92)
(9655.54 19429.2 4142.05)
(7925.41 20196.8 4141.94)
(6135.01 20810.7 4142.05)
(4297.9 21266.2 4141.95)
(2428.03 21559.9 4141.93)
(539.668 21689.5 4142.2)
(-1352.69 21653.9 4141.94)
(-3234.82 21453.7 4142.05)
(-5092.24 21090 4141.83)
(-6911.13 20566 4142.08)
(-8677.22 19885.4 4142.03)
(-10377.2 19053.5 4141.93)
(-11998.5 18076.6 4142.04)
(-13528.2 16962.1 4142)
(-14955.2 15718.4 4142.08)
(-16268.1 14355.2 4141.86)
(-17457.5 12882.7 4142.12)
(-18513.7 11312.1 4141.92)
(-19429.2 9655.54 4142.05)
(-20196.8 7925.41 4141.94)
(-20810.7 6135.01 4142.05)
(-21266.2 4297.9 4141.95)
(-21559.9 2428.03 4141.93)
(-21689.5 539.669 4142.2)
(-21653.9 -1352.68 4141.94)
(-21453.7 -3234.81 4142.05)
(-21090 -5092.24 4141.83)
(-20566 -6911.13 4142.08)
(-19885.4 -8677.22 4142.03)
(-19053.5 -10377.2 4141.93)
(-18076.6 -11998.5 4142.04)
(-16962.1 -13528.2 4142)
(-15718.5 -14955.2 4142.08)
(-14355.2 -16268.1 4141.86)
(-12882.7 -17457.5 4142.12)
(-11312.1 -18513.7 4141.92)
(-9655.55 -19429.2 4142.05)
(-7925.41 -20196.8 4141.94)
(-6135.01 -20810.7 4142.05)
(-4297.9 -21266.2 4141.95)
(-2428.03 -21559.9 4141.93)
(-539.669 -21689.5 4142.2)
(1352.68 -21653.9 4141.94)
(3234.81 -21453.7 4142.05)
(5092.24 -21090 4141.83)
(6911.13 -20566 4142.08)
(8677.22 -19885.4 4142.03)
(10377.2 -19053.5 4141.93)
(11998.5 -18076.6 4142.04)
(13528.2 -16962.1 4142)
(14955.2 -15718.5 4142.08)
(16268.1 -14355.2 4141.86)
(17457.5 -12882.7 4142.12)
(18513.7 -11312.1 4141.92)
(19429.2 -9655.54 4142.05)
(20196.8 -7925.41 4141.94)
(20810.7 -6135 4142.05)
(21266.2 -4297.9 4141.95)
(21559.9 -2428.04 4141.93)
(21689.6 -539.67 4142.2)
(21653.9 1352.68 4141.94)
(21453.7 3234.81 4142.06)
(21090 5092.24 4141.83)
(20566 6911.13 4142.08)
(19885.4 8677.22 4142.03)
(19053.5 10377.2 4141.93)
(18076.6 11998.5 4142.04)
(16962.1 13528.2 4142)
(15718.5 14955.2 4142.08)
(14355.2 16268.1 4141.86)
(13047.2 19300.2 4912.48)
(11315.4 20364 4912.45)
(9497.5 21272.7 4912.45)
(7607.34 22019.5 4912.53)
(5659.31 22598.7 4912.5)
(3668.22 23005.9 4912.4)
(1649.12 23238.1 4912.49)
(-382.51 23293.4 4912.57)
(-2411.18 23171.3 4912.33)
(-4421.64 22873.2 4912.63)
(-6398.16 22400.6 4912.42)
(-8326.2 21757.8 4912.5)
(-10190.9 20949.4 4912.59)
(-11977.9 19981.4 4912.43)
(-13673.8 18861.5 4912.43)
(-15265.8 17597.9 4912.49)
(-16741.5 16200.4 4912.5)
(-18089.7 14679.7 4912.5)
(-19300.2 13047.2 4912.48)
(-20364 11315.4 4912.45)
(-21272.7 9497.5 4912.45)
(-22019.5 7607.34 4912.53)
(-22598.7 5659.31 4912.5)
(-23005.9 3668.22 4912.4)
(-23238.1 1649.12 4912.49)
(-23293.4 -382.51 4912.57)
(-23171.3 -2411.18 4912.33)
(-22873.2 -4421.64 4912.63)
(-22400.6 -6398.16 4912.42)
(-21757.8 -8326.19 4912.5)
(-20949.4 -10190.9 4912.59)
(-19981.4 -11977.9 4912.43)
(-18861.5 -13673.8 4912.43)
(-17597.9 -15265.8 4912.49)
(-16200.4 -16741.5 4912.5)
(-14679.7 -18089.7 4912.5)
(-13047.2 -19300.2 4912.48)
(-11315.4 -20364 4912.45)
(-9497.5 -21272.7 4912.45)
(-7607.34 -22019.5 4912.53)
(-5659.31 -22598.7 4912.5)
(-3668.22 -23005.9 4912.4)
(-1649.12 -23238.1 4912.49)
(382.51 -23293.4 4912.57)
(2411.18 -23171.3 4912.33)
(4421.64 -22873.2 4912.63)
(6398.16 -22400.6 4912.42)
(8326.19 -21757.8 4912.5)
(10190.9 -20949.4 4912.59)
(11977.9 -19981.4 4912.43)
(13673.8 -18861.5 4912.43)
(15265.8 -17597.9 4912.49)
(16741.5 -16200.4 4912.5)
(18089.7 -14679.7 4912.5)
(19300.2 -13047.2 4912.48)
(20364 -11315.4 4912.45)
(21272.7 -9497.5 4912.45)
(22019.5 -7607.34 4912.53)
(22598.7 -5659.32 4912.5)
(23005.9 -3668.22 4912.4)
(23238.1 -1649.12 4912.49)
(23293.4 382.51 4912.57)
(23171.3 2411.18 4912.33)
(22873.2 4421.64 4912.63)
(22400.6 6398.16 4912.43)
(21757.8 8326.2 4912.5)
(20949.4 10190.9 4912.59)
(19981.4 11977.9 4912.43)
(18861.5 13673.8 4912.43)
(17597.9 15265.8 4912.49)
(16200.4 16741.5 4912.5)
(14679.7 18089.7 4912.5)
(13310.4 20676.8 5608.13)
(11457.6 21758.4 5608.25)
(9517.64 22674.1 5608.32)
(7505.17 23417.4 5608.35)
(5435.62 23982.4 5608.19)
(3324.76 24364.9 5608.31)
(1188.64 24561.9 5608.2)
(-956.595 24572 5608.4)
(-3094.45 24395.1 5608.11)
(-5208.98 24032.8 5608.52)
(-7283.63 23487.2 5608.19)
(-9303.06 22763 5608.32)
(-11251.5 21865.5 5608.18)
(-13114.6 20801.7 5608.3)
(-14877.5 19579.5 5608.2)
(-16527.5 18208.4 5608.23)
(-18051.5 16698.7 5608.32)
(-19438.2 15061.8 5608.45)
(-20676.8 13310.4 5608.13)
(-21758.4 11457.6 5608.25)
(-22674.1 9517.64 5608.32)
(-23417.4 7505.17 5608.35)
(-23982.4 5435.62 5608.19)
(-24364.9 3324.76 5608.31)
(-24561.9 1188.64 5608.2)
(-24572 -956.595 5608.4)
(-24395.1 -3094.45 5608.11)
(-24032.8 -5208.98 5608.52)
(-23487.2 -7283.63 5608.19)
(-22763 -9303.06 5608.32)
(-21865.5 -11251.5 5608.18)
(-20801.7 -13114.6 5608.3)
(-19579.5 -14877.5 5608.19)
(-18208.4 -16527.5 5608.23)
(-16698.7 -18051.5 5608.32)
(-15061.8 -19438.2 5608.45)
(-13310.4 -20676.8 5608.13)
(-11457.6 -21758.4 5608.25)
(-9517.64 -22674.1 5608.32)
(-7505.17 -23417.4 5608.35)
(-5435.62 -23982.4 5608.19)
(-3324.76 -24364.9 5608.31)
(-1188.64 -24561.9 5608.2)
(956.595 -24572 5608.4)
(3094.45 -24395.1 5608.11)
(5208.98 -24032.8 5608.52)
(7283.63 -23487.2 5608.19)
(9303.06 -22763 5608.32)
(11251.5 -21865.5 5608.18)
(13114.6 -20801.7 5608.3)
(14877.5 -19579.5 5608.19)
(16527.5 -18208.4 5608.23)
(18051.5 -16698.7 5608.32)
(19438.2 -15061.8 5608.45)
(20676.8 -13310.4 5608.13)
(21758.4 -11457.6 5608.25)
(22674.1 -9517.64 5608.32)
(23417.4 -7505.17 5608.35)
(23982.4 -5435.62 5608.19)
(24364.9 -3324.76 5608.31)
(24561.9 -1188.64 5608.2)
(24572 956.594 5608.4)
(24395.1 3094.45 5608.11)
(24032.8 5208.98 5608.52)
(23487.2 7283.63 5608.19)
(22763 9303.06 5608.32)
(21865.5 11251.5 5608.18)
(20801.7 13114.6 5608.3)
(19579.5 14877.5 5608.19)
(18208.4 16527.5 5608.23)
(16698.7 18051.5 5608.32)
(15061.8 19438.2 5608.45)
(13464.3 21145.6 6188.43)
(11570.1 22238.8 6188.75)
(9587.79 23162.5 6188.54)
(7532.52 23910.1 6188.74)
(5420 24475.4 6188.58)
(3266.18 24854.8 6188.74)
(1087.54 25044.9 6188.51)
(-1099.49 25044.4 6188.75)
(-3278.03 24853.2 6188.52)
(-5431.76 24473 6188.77)
(-7543.92 23906.4 6188.53)
(-9598.89 23158 6188.74)
(-11580.6 22233.2 6188.53)
(-13474.3 21139.3 6188.72)
(-15265.4 19884.5 6188.55)
(-16940.5 18478.4 6188.71)
(-18486.4 16931.6 6188.55)
(-19891.9 15256 6188.84)
(-21145.6 13464.3 6188.43)
(-22238.8 11570.1 6188.75)
(-23162.5 9587.79 6188.54)
(-23910.1 7532.52 6188.74)
(-24475.4 5420 6188.58)
(-24854.8 3266.18 6188.74)
(-25044.9 1087.54 6188.51)
(-25044.4 -1099.49 6188.75)
(-24853.2 -3278.03 6188.52)
(-24473 -5431.76 6188.77)
(-23906.4 -7543.92 6188.53)
(-23158 -9598.89 6188.74)
(-22233.2 -11580.6 6188.53)
(-21139.3 -13474.3 6188.72)
(-19884.5 -15265.4 6188.55)
(-18478.4 -16940.5 6188.71)
(-16931.6 -18486.4 6188.55)
(-15256 -19891.9 6188.84)
(-13464.3 -21145.6 6188.43)
(-11570.1 -22238.8 6188.75)
(-9587.79 -23162.5 6188.54)
(-7532.52 -23910.1 6188.74)
(-5420 -24475.4 6188.58)
(-3266.18 -24854.8 6188.74)
(-1087.54 -25044.9 6188.51)
(1099.49 -25044.4 6188.75)
(3278.03 -24853.2 6188.52)
(5431.76 -24473 6188.77)
(7543.92 -23906.4 6188.53)
(9598.89 -23158 6188.74)
(11580.6 -22233.2 6188.53)
(13474.3 -21139.3 6188.72)
(15265.4 -19884.5 6188.55)
(16940.5 -18478.4 6188.71)
(18486.4 -16931.6 6188.55)
(19891.9 -15256 6188.84)
(21145.6 -13464.3 6188.42)
(22238.8 -11570.1 6188.75)
(23162.5 -9587.79 6188.54)
(23910.1 -7532.52 6188.74)
(24475.4 -5420 6188.58)
(24854.8 -3266.18 6188.74)
(25044.9 -1087.54 6188.51)
(25044.4 1099.49 6188.75)
(24853.2 3278.03 6188.52)
(24473 5431.76 6188.77)
(23906.4 7543.92 6188.53)
(23158 9598.89 6188.74)
(22233.2 11580.6 6188.53)
(21139.3 13474.3 6188.72)
(19884.5 15265.4 6188.55)
(18478.4 16940.5 6188.71)
(16931.6 18486.4 6188.55)
(15256 19891.9 6188.84)
(13035.8 19396.1 6378.16)
(11295.6 20458.6 6378.45)
(9469.64 21365.1 6378.26)
(7571.49 22109.2 6378.43)
(5615.73 22684.8 6378.23)
(3617.18 23088.1 6378.42)
(1591.29 23315.4 6378.22)
(-446.891 23365.5 6378.38)
(-2481.6 23237.6 6378.16)
(-4497.61 22933 6378.5)
(-6479.11 22453.6 6378.27)
(-8411.47 21803.5 6378.41)
(-10279.7 20987.4 6378.21)
(-12069.8 20011.6 6378.46)
(-13767.9 18883.5 6378.22)
(-15361.4 17611.8 6378.39)
(-16837.8 16205.8 6378.22)
(-18186.4 14676.6 6378.5)
(-19396.1 13035.8 6378.16)
(-20458.6 11295.6 6378.45)
(-21365.1 9469.64 6378.26)
(-22109.2 7571.49 6378.43)
(-22684.8 5615.73 6378.23)
(-23088.1 3617.18 6378.42)
(-23315.4 1591.29 6378.22)
(-23365.5 -446.891 6378.38)
(-23237.6 -2481.6 6378.16)
(-22933 -4497.61 6378.5)
(-22453.6 -6479.1 6378.27)
(-21803.5 -8411.47 6378.41)
(-20987.4 -10279.7 6378.21)
(-20011.6 -12069.8 6378.46)
(-18883.5 -13767.9 6378.22)
(-17611.8 -15361.4 6378.39)
(-16205.8 -16837.8 6378.22)
(-14676.6 -18186.4 6378.5)
(-13035.8 -19396.1 6378.16)
(-11295.6 -20458.6 6378.45)
(-9469.64 -21365.1 6378.26)
(-7571.49 -22109.2 6378.43)
(-5615.73 -22684.8 6378.23)
(-3617.18 -23088.1 6378.42)
(-1591.29 -23315.4 6378.22)
(446.89 -23365.5 6378.38)
(2481.6 -23237.6 6378.16)
(4497.61 -22933 6378.5)
(6479.1 -22453.6 6378.27)
(8411.47 -21803.5 6378.41)
(10279.7 -20987.4 6378.21)
(12069.8 -20011.6 6378.46)
(13767.9 -18883.5 6378.22)
(15361.4 -17611.8 6378.39)
(16837.8 -16205.8 6378.22)
(18186.4 -14676.6 6378.5)
(19396.1 -13035.8 6378.16)
(20458.6 -11295.6 6378.45)
(21365.1 -9469.64 6378.26)
(22109.2 -7571.49 6378.43)
(22684.8 -5615.73 6378.23)
(23088.1 -3617.18 6378.42)
(23315.4 -1591.29 6378.22)
(23365.5 446.89 6378.38)
(23237.6 2481.6 6378.16)
(22933 4497.61 6378.5)
(22453.6 6479.1 6378.27)
(21803.5 8411.47 6378.41)
(20987.4 10279.7 6378.21)
(20011.6 12069.8 6378.46)
(18883.5 13767.9 6378.22)
(17611.8 15361.4 6378.39)
(16205.8 16837.8 6378.22)
(14676.6 18186.4 6378.5)
(11729.3 13610.8 5706.5)
(10498.5 14581.5 5706.71)
(9187.67 15440.9 5706.53)
(7806.92 16182.9 5706.69)
(6366.8 16801.7 5706.52)
(4878.19 17292.9 5706.75)
(3352.48 17652.1 5706.49)
(1801.18 17877.2 5706.68)
(236.301 17966.1 5706.49)
(-1330.47 17918.4 5706.68)
(-2887.1 17734.2 5706.55)
(-4421.79 17415.1 5706.7)
(-5922.72 16963.4 5706.46)
(-7378.64 16382.6 5706.71)
(-8778.48 15677.2 5706.55)
(-10111.4 14852.5 5706.68)
(-11367.3 13914.6 5706.47)
(-12536.8 12870.9 5706.74)
(-13610.8 11729.3 5706.5)
(-14581.5 10498.5 5706.71)
(-15440.9 9187.67 5706.53)
(-16182.9 7806.92 5706.69)
(-16801.7 6366.8 5706.53)
(-17292.9 4878.19 5706.76)
(-17652.1 3352.48 5706.49)
(-17877.2 1801.18 5706.68)
(-17966.1 236.301 5706.49)
(-17918.4 -1330.47 5706.68)
(-17734.2 -2887.1 5706.55)
(-17415.1 -4421.79 5706.7)
(-16963.4 -5922.72 5706.46)
(-16382.6 -7378.64 5706.71)
(-15677.2 -8778.48 5706.55)
(-14852.5 -10111.4 5706.68)
(-13914.6 -11367.3 5706.47)
(-12870.9 -12536.8 5706.74)
(-11729.3 -13610.8 5706.5)
(-10498.5 -14581.5 5706.71)
(-9187.67 -15440.9 5706.53)
(-7806.92 -16182.9 5706.69)
(-6366.8 -16801.7 5706.53)
(-4878.19 -17292.9 5706.76)
(-3352.48 -17652.1 5706.49)
(-1801.18 -17877.2 5706.68)
(-236.301 -17966.1 5706.49)
(1330.47 -17918.4 5706.68)
(2887.1 -17734.2 5706.55)
(4421.79 -17415.1 5706.7)
(5922.72 -16963.4 5706.46)
(7378.64 -16382.6 5706.71)
(8778.48 -15677.2 5706.55)
(10111.4 -14852.5 5706.68)
(11367.3 -13914.6 5706.47)
(12536.8 -12870.9 5706.74)
(13610.8 -11729.3 5706.5)
(14581.5 -10498.5 5706.71)
(15440.9 -9187.67 5706.53)
(16182.9 -7806.92 5706.69)
(16801.7 -6366.8 5706.53)
(17292.9 -4878.19 5706.76)
(17652.1 -3352.48 5706.49)
(17877.2 -1801.18 5706.68)
(17966.1 -236.301 5706.49)
(17918.4 1330.47 5706.68)
(17734.2 2887.1 5706.55)
(17415.1 4421.79 5706.7)
(16963.4 5922.72 5706.46)
(16382.6 7378.64 5706.71)
(15677.2 8778.48 5706.55)
(14852.5 10111.4 5706.68)
(13914.6 11367.3 5706.47)
(12870.9 12536.8 5706.74)
(10561.9 3964.69 5076.84)
(10176.1 4870.15 5076.88)
(9712.85 5738.51 5076.79)
(9175.9 6563.17 5076.95)
(8568.89 7338.2 5076.79)