# Probe 0 (0.02 0.003 0.007)
# Time        0            
0.055         -0.407332    
0.06          -0.304735    
