/*--------------------------------*- C++ -*----------------------------------*\
| =========                 |                                                 |
| \\      /  F ield         | OpenFOAM: The Open Source CFD Toolbox           |
|  \\    /   O peration     | Version:  2312                                  |
|   \\  /    A nd           | Website:  www.openfoam.com                      |
|    \\/     M anipulation  |                                                 |
\*---------------------------------------------------------------------------*/
FoamFile
{
    version     2.0;
    format      ascii;
    arch        "LSB;label=32;scalar=64";
    class       volVectorField;
    location    "0.7";
    object      D;
}
// * * * * * * * * * * * * * * * * * * * * * * * * * * * * * * * * * * * * * //

dimensions      [0 1 0 0 0 0 0];

internalField   nonuniform List<vector> 
1620
(
(-0.000245787 0.000235597 -0.000120916)
(-0.000282964 0.000189337 -0.000120916)
(-0.000311543 0.000137324 -0.000120916)
(-0.000330657 8.11399e-05 -0.000120916)
(-0.000339723 2.24898e-05 -0.000120916)
(-0.000338467 -3.68444e-05 -0.000120916)
(-0.000326927 -9.5059e-05 -0.000120915)
(-0.000305453 -0.000150385 -0.000120915)
(-0.000274699 -0.000201142 -0.000120916)
(-0.000235597 -0.000245787 -0.000120916)
(-0.000189337 -0.000282964 -0.000120916)
(-0.000137324 -0.000311543 -0.000120916)
(-8.11399e-05 -0.000330657 -0.000120916)
(-2.24898e-05 -0.000339723 -0.000120916)
(3.68444e-05 -0.000338467 -0.000120916)
(9.5059e-05 -0.000326927 -0.000120915)
(0.000150385 -0.000305453 -0.000120915)
(0.000201142 -0.000274699 -0.000120916)
(0.000245787 -0.000235597 -0.000120916)
(0.000282964 -0.000189337 -0.000120916)
(0.000311543 -0.000137324 -0.000120916)
(0.000330657 -8.11399e-05 -0.000120916)
(0.000339723 -2.24898e-05 -0.000120916)
(0.000338467 3.68444e-05 -0.000120916)
(0.000326927 9.5059e-05 -0.000120915)
(0.000305453 0.000150385 -0.000120915)
(0.000274699 0.000201142 -0.000120916)
(0.000235597 0.000245787 -0.000120916)
(0.000189337 0.000282964 -0.000120916)
(0.000137324 0.000311543 -0.000120916)
(8.11399e-05 0.000330657 -0.000120916)
(2.24898e-05 0.000339723 -0.000120916)
(-3.68444e-05 0.000338467 -0.000120916)
(-9.5059e-05 0.000326927 -0.000120915)
(-0.000150385 0.000305453 -0.000120915)
(-0.000201142 0.000274699 -0.000120916)
(-0.000166123 0.000305283 -8.14613e-05)
(-0.000216611 0.000271798 -8.14614e-05)
(-0.000260517 0.000230054 -8.14614e-05)
(-0.000296508 0.000181321 -8.14612e-05)
(-0.00032349 0.000127078 -8.14613e-05)
(-0.000340642 6.89741e-05 -8.14613e-05)
(-0.000347444 8.77437e-06 -8.14612e-05)
(-0.00034369 -5.16919e-05 -8.14612e-05)
(-0.000329492 -0.000110588 -8.14613e-05)
(-0.000305283 -0.000166123 -8.14613e-05)
(-0.000271798 -0.000216611 -8.14614e-05)
(-0.000230054 -0.000260517 -8.14614e-05)
(-0.000181321 -0.000296508 -8.14612e-05)
(-0.000127078 -0.00032349 -8.14613e-05)
(-6.89741e-05 -0.000340642 -8.14613e-05)
(-8.77435e-06 -0.000347444 -8.14612e-05)
(5.16919e-05 -0.00034369 -8.14612e-05)
(0.000110588 -0.000329492 -8.14613e-05)
(0.000166123 -0.000305283 -8.14613e-05)
(0.000216611 -0.000271798 -8.14614e-05)
(0.000260518 -0.000230054 -8.14614e-05)
(0.000296508 -0.000181321 -8.14612e-05)
(0.00032349 -0.000127078 -8.14613e-05)
(0.000340642 -6.89741e-05 -8.14613e-05)
(0.000347444 -8.77435e-06 -8.14612e-05)
(0.00034369 5.16919e-05 -8.14612e-05)
(0.000329492 0.000110588 -8.14613e-05)
(0.000305283 0.000166123 -8.14613e-05)
(0.000271798 0.000216611 -8.14614e-05)
(0.000230054 0.000260518 -8.14613e-05)
(0.000181321 0.000296508 -8.14612e-05)
(0.000127078 0.00032349 -8.14613e-05)
(6.89741e-05 0.000340642 -8.14612e-05)
(8.77437e-06 0.000347444 -8.14612e-05)
(-5.16919e-05 0.00034369 -8.14612e-05)
(-0.000110588 0.000329492 -8.14613e-05)
(-0.00011504 0.000374098 -4.19909e-05)
(-0.000178254 0.000348438 -4.19909e-05)
(-0.000236051 0.000312192 -4.19911e-05)
(-0.000286676 0.000266459 -4.19909e-05)
(-0.000328592 0.00021263 -4.19911e-05)
(-0.000360522 0.00015234 -4.19909e-05)
(-0.000381499 8.74217e-05 -4.19911e-05)
(-0.000390884 1.98469e-05 -4.19911e-05)
(-0.000388391 -4.83307e-05 -4.19909e-05)
(-0.000374098 -0.00011504 -4.19909e-05)
(-0.000348438 -0.000178254 -4.19909e-05)
(-0.000312192 -0.000236051 -4.19911e-05)
(-0.000266459 -0.000286676 -4.19909e-05)
(-0.00021263 -0.000328592 -4.19911e-05)
(-0.00015234 -0.000360522 -4.19909e-05)
(-8.74217e-05 -0.000381499 -4.19911e-05)
(-1.98469e-05 -0.000390884 -4.19911e-05)
(4.83308e-05 -0.000388391 -4.19909e-05)
(0.00011504 -0.000374098 -4.19909e-05)
(0.000178254 -0.000348438 -4.19909e-05)
(0.000236051 -0.000312192 -4.19911e-05)
(0.000286676 -0.000266459 -4.19909e-05)
(0.000328592 -0.00021263 -4.19911e-05)
(0.000360522 -0.00015234 -4.19909e-05)
(0.000381499 -8.74217e-05 -4.19911e-05)
(0.000390884 -1.98469e-05 -4.19911e-05)
(0.000388391 4.83308e-05 -4.19909e-05)
(0.000374098 0.00011504 -4.19909e-05)
(0.000348438 0.000178254 -4.19909e-05)
(0.000312192 0.000236051 -4.19911e-05)
(0.000266459 0.000286676 -4.19909e-05)
(0.00021263 0.000328592 -4.1991e-05)
(0.00015234 0.000360522 -4.19909e-05)
(8.74217e-05 0.000381499 -4.1991e-05)
(1.98469e-05 0.000390884 -4.19911e-05)
(-4.83308e-05 0.000388391 -4.19909e-05)
(-0.00056365 0.00073056 -0.000406032)
(-0.000681947 0.000621584 -0.000406033)
(-0.000779524 0.000493722 -0.000406033)
(-0.000853416 0.000350859 -0.000406031)
(-0.000901376 0.000197335 -0.00040603)
(-0.000921949 3.78153e-05 -0.000406031)
(-0.00091451 -0.000122854 -0.000406031)
(-0.000879282 -0.000279791 -0.000406031)
(-0.000817338 -0.000428226 -0.000406032)
(-0.00073056 -0.00056365 -0.000406032)
(-0.000621584 -0.000681947 -0.000406033)
(-0.000493722 -0.000779524 -0.000406033)
(-0.000350859 -0.000853416 -0.000406031)
(-0.000197335 -0.000901376 -0.00040603)
(-3.78152e-05 -0.000921949 -0.000406031)
(0.000122854 -0.00091451 -0.000406031)
(0.000279791 -0.000879282 -0.000406031)
(0.000428226 -0.000817338 -0.000406032)
(0.00056365 -0.00073056 -0.000406032)
(0.000681947 -0.000621584 -0.000406033)
(0.000779524 -0.000493722 -0.000406033)
(0.000853416 -0.000350859 -0.000406031)
(0.000901376 -0.000197335 -0.00040603)
(0.000921949 -3.78152e-05 -0.000406031)
(0.00091451 0.000122854 -0.000406031)
(0.000879282 0.000279791 -0.000406031)
(0.000817338 0.000428226 -0.000406032)
(0.00073056 0.00056365 -0.000406032)
(0.000621584 0.000681947 -0.000406033)
(0.000493722 0.000779524 -0.000406033)
(0.000350859 0.000853416 -0.000406031)
(0.000197335 0.000901376 -0.00040603)
(3.78153e-05 0.000921949 -0.000406031)
(-0.000122854 0.00091451 -0.000406031)
(-0.000279791 0.000879283 -0.000406031)
(-0.000428226 0.000817338 -0.000406032)
(-0.000501295 0.000909729 -0.000294933)
(-0.000651651 0.000808858 -0.000294933)
(-0.000782208 0.000683412 -0.000294933)
(-0.000888998 0.000537202 -0.000294933)
(-0.000968777 0.000374668 -0.000294933)
(-0.00101912 0.000200749 -0.000294933)
(-0.0010385 2.07308e-05 -0.000294933)
(-0.00102632 -0.000159917 -0.000294933)
(-0.000982957 -0.000335706 -0.000294933)
(-0.000909729 -0.000501295 -0.000294933)
(-0.000808858 -0.000651651 -0.000294933)
(-0.000683412 -0.000782208 -0.000294933)
(-0.000537202 -0.000888998 -0.000294933)
(-0.000374668 -0.000968777 -0.000294933)
(-0.000200749 -0.00101912 -0.000294933)
(-2.07308e-05 -0.0010385 -0.000294933)
(0.000159917 -0.00102632 -0.000294933)
(0.000335706 -0.000982957 -0.000294933)
(0.000501295 -0.000909729 -0.000294933)
(0.000651651 -0.000808858 -0.000294933)
(0.000782208 -0.000683412 -0.000294933)
(0.000888998 -0.000537202 -0.000294933)
(0.000968777 -0.000374668 -0.000294933)
(0.00101912 -0.000200749 -0.000294933)
(0.0010385 -2.07308e-05 -0.000294933)
(0.00102632 0.000159917 -0.000294933)
(0.000982957 0.000335706 -0.000294933)
(0.000909729 0.000501295 -0.000294933)
(0.000808858 0.000651651 -0.000294933)
(0.000683412 0.000782208 -0.000294933)
(0.000537202 0.000888998 -0.000294933)
(0.000374668 0.000968777 -0.000294933)
(0.000200749 0.00101912 -0.000294933)
(2.07308e-05 0.0010385 -0.000294933)
(-0.000159917 0.00102632 -0.000294933)
(-0.000335706 0.000982957 -0.000294933)
(-0.000476544 0.00108489 -0.00018597)
(-0.000657692 0.000985652 -0.00018597)
(-0.000818856 0.000856471 -0.00018597)
(-0.00095514 0.000701266 -0.00018597)
(-0.0010624 0.000524754 -0.00018597)
(-0.00113739 0.000332297 -0.00018597)
(-0.00117781 0.000129743 -0.00018597)
(-0.00118245 -7.67518e-05 -0.00018597)
(-0.00115115 -0.000280916 -0.00018597)
(-0.00108488 -0.000476544 -0.00018597)
(-0.000985652 -0.000657692 -0.00018597)
(-0.000856471 -0.000818856 -0.00018597)
(-0.000701266 -0.00095514 -0.00018597)
(-0.000524754 -0.0010624 -0.00018597)
(-0.000332297 -0.00113739 -0.00018597)
(-0.000129743 -0.00117781 -0.00018597)
(7.67519e-05 -0.00118245 -0.00018597)
(0.000280916 -0.00115115 -0.00018597)
(0.000476544 -0.00108488 -0.00018597)
(0.000657692 -0.000985652 -0.00018597)
(0.000818856 -0.000856471 -0.00018597)
(0.00095514 -0.000701266 -0.00018597)
(0.0010624 -0.000524754 -0.00018597)
(0.00113739 -0.000332297 -0.00018597)
(0.00117781 -0.000129743 -0.00018597)
(0.00118245 7.67519e-05 -0.00018597)
(0.00115115 0.000280916 -0.00018597)
(0.00108488 0.000476544 -0.00018597)
(0.000985652 0.000657692 -0.00018597)
(0.000856471 0.000818856 -0.00018597)
(0.000701266 0.00095514 -0.00018597)
(0.000524754 0.0010624 -0.00018597)
(0.000332297 0.00113739 -0.00018597)
(0.000129743 0.00117781 -0.00018597)
(-7.67519e-05 0.00118245 -0.00018597)
(-0.000280916 0.00115115 -0.00018597)
(-0.000865116 0.00125722 -0.000761884)
(-0.00107029 0.0010879 -0.000761884)
(-0.00124294 0.000885515 -0.000761884)
(-0.00137782 0.000656228 -0.000761883)
(-0.00147084 0.000407003 -0.000761882)
(-0.00151917 0.000145411 -0.000761882)
(-0.00152134 -0.0001206 -0.000761882)
(-0.00147729 -0.000382947 -0.000761883)
(-0.00138835 -0.000633658 -0.000761884)
(-0.00125722 -0.000865116 -0.000761884)
(-0.00108789 -0.00107029 -0.000761884)
(-0.000885514 -0.00124294 -0.000761884)
(-0.000656228 -0.00137782 -0.000761883)
(-0.000407003 -0.00147084 -0.000761882)
(-0.000145411 -0.00151917 -0.000761882)
(0.0001206 -0.00152134 -0.000761882)
(0.000382947 -0.00147729 -0.000761883)
(0.000633658 -0.00138835 -0.000761884)
(0.000865116 -0.00125722 -0.000761885)
(0.00107029 -0.00108789 -0.000761885)
(0.00124294 -0.000885514 -0.000761884)
(0.00137782 -0.000656228 -0.000761883)
(0.00147084 -0.000407003 -0.000761882)
(0.00151917 -0.000145411 -0.000761882)
(0.00152134 0.0001206 -0.000761882)
(0.00147729 0.000382947 -0.000761883)
(0.00138835 0.000633658 -0.000761884)
(0.00125722 0.000865116 -0.000761884)
(0.00108789 0.00107029 -0.000761884)
(0.000885514 0.00124294 -0.000761884)
(0.000656228 0.00137782 -0.000761883)
(0.000407003 0.00147084 -0.000761882)
(0.000145411 0.00151917 -0.000761882)
(-0.0001206 0.00152134 -0.000761882)
(-0.000382947 0.00147729 -0.000761883)
(-0.000633658 0.00138835 -0.000761884)
(-0.000829659 0.00151168 -0.000594655)
(-0.00107955 0.00134464 -0.000594656)
(-0.00129665 0.00113675 -0.000594656)
(-0.00147434 0.000894324 -0.000594655)
(-0.00160724 0.00062472 -0.000594654)
(-0.00169131 0.000336134 -0.000594655)
(-0.00172398 3.73346e-05 -0.000594655)
(-0.00170427 -0.0002626 -0.000594655)
(-0.00163278 -0.000554554 -0.000594655)
(-0.00151168 -0.000829659 -0.000594656)
(-0.00134464 -0.00107955 -0.000594656)
(-0.00113675 -0.00129665 -0.000594656)
(-0.000894324 -0.00147434 -0.000594655)
(-0.00062472 -0.00160724 -0.000594654)
(-0.000336134 -0.00169131 -0.000594655)
(-3.73345e-05 -0.00172398 -0.000594655)
(0.0002626 -0.00170427 -0.000594655)
(0.000554554 -0.00163278 -0.000594655)
(0.000829659 -0.00151168 -0.000594656)
(0.00107955 -0.00134464 -0.000594656)
(0.00129665 -0.00113675 -0.000594656)
(0.00147434 -0.000894324 -0.000594655)
(0.00160724 -0.00062472 -0.000594654)
(0.00169131 -0.000336134 -0.000594655)
(0.00172398 -3.73345e-05 -0.000594655)
(0.00170427 0.0002626 -0.000594655)
(0.00163278 0.000554554 -0.000594655)
(0.00151168 0.000829659 -0.000594655)
(0.00134464 0.00107955 -0.000594656)
(0.00113675 0.00129665 -0.000594656)
(0.000894324 0.00147434 -0.000594655)
(0.00062472 0.00160724 -0.000594654)
(0.000336134 0.00169131 -0.000594655)
(3.73346e-05 0.00172398 -0.000594655)
(-0.0002626 0.00170427 -0.000594655)
(-0.000554554 0.00163278 -0.000594655)
(-0.000838421 0.00175177 -0.000432511)
(-0.00112988 0.00157957 -0.00043251)
(-0.001387 0.00135937 -0.000432511)
(-0.00160198 0.00109787 -0.000432511)
(-0.00176829 0.000803011 -0.000432511)
(-0.00188086 0.000483751 -0.000432511)
(-0.00193629 0.000149793 -0.000432511)
(-0.00193288 -0.000188716 -0.000432511)
(-0.00187075 -0.000521491 -0.000432511)
(-0.00175177 -0.000838421 -0.000432511)
(-0.00157957 -0.00112988 -0.00043251)
(-0.00135937 -0.001387 -0.000432511)
(-0.00109787 -0.00160198 -0.000432511)
(-0.00080301 -0.00176829 -0.000432511)
(-0.00048375 -0.00188086 -0.000432511)
(-0.000149793 -0.00193629 -0.000432511)
(0.000188716 -0.00193288 -0.000432511)
(0.000521491 -0.00187075 -0.000432511)
(0.000838421 -0.00175177 -0.000432511)
(0.00112988 -0.00157957 -0.00043251)
(0.001387 -0.00135937 -0.000432511)
(0.00160198 -0.00109787 -0.000432511)
(0.00176829 -0.00080301 -0.000432511)
(0.00188086 -0.00048375 -0.000432511)
(0.00193629 -0.000149793 -0.000432511)
(0.00193288 0.000188716 -0.000432511)
(0.00187075 0.000521491 -0.000432511)
(0.00175177 0.000838422 -0.000432511)
(0.00157957 0.00112988 -0.00043251)
(0.00135937 0.001387 -0.000432511)
(0.00109787 0.00160198 -0.000432511)
(0.000803011 0.00176829 -0.000432511)
(0.000483751 0.00188086 -0.000432511)
(0.000149793 0.00193629 -0.000432511)
(-0.000188716 0.00193288 -0.000432511)
(-0.000521491 0.00187075 -0.000432511)
(-0.00114924 0.00182389 -0.00116158)
(-0.0014485 0.00159662 -0.00116158)
(-0.00170374 0.00132083 -0.00116158)
(-0.00190722 0.00100491 -0.00116158)
(-0.00205274 0.000658463 -0.00116158)
(-0.0021359 0.000292004 -0.00116158)
(-0.00215415 -8.33266e-05 -0.00116158)
(-0.00210696 -0.000456126 -0.00116158)
(-0.00199574 -0.000815066 -0.00116158)
(-0.00182389 -0.00114924 -0.00116158)
(-0.00159661 -0.0014485 -0.00116158)
(-0.00132083 -0.00170374 -0.00116158)
(-0.00100491 -0.00190722 -0.00116158)
(-0.000658463 -0.00205274 -0.00116158)
(-0.000292004 -0.0021359 -0.00116158)
(8.33268e-05 -0.00215415 -0.00116158)
(0.000456126 -0.00210696 -0.00116158)
(0.000815066 -0.00199574 -0.00116158)
(0.00114924 -0.00182389 -0.00116158)
(0.0014485 -0.00159661 -0.00116158)
(0.00170374 -0.00132083 -0.00116158)
(0.00190722 -0.00100491 -0.00116158)
(0.00205274 -0.000658463 -0.00116158)
(0.0021359 -0.000292004 -0.00116158)
(0.00215415 8.33268e-05 -0.00116158)
(0.00210696 0.000456126 -0.00116158)
(0.00199574 0.000815066 -0.00116158)
(0.00182389 0.00114924 -0.00116158)
(0.00159662 0.0014485 -0.00116158)
(0.00132083 0.00170374 -0.00116158)
(0.00100491 0.00190722 -0.00116158)
(0.000658463 0.00205274 -0.00116158)
(0.000292004 0.0021359 -0.00116158)
(-8.33267e-05 0.00215415 -0.00116158)
(-0.000456126 0.00210696 -0.00116158)
(-0.000815066 0.00199574 -0.00116158)
(-0.00114631 0.00210196 -0.000954879)
(-0.00149389 0.00187097 -0.000954879)
(-0.00179609 0.00158314 -0.000954879)
(-0.00204371 0.0012472 -0.000954879)
(-0.00222923 0.000873365 -0.000954879)
(-0.00234703 0.000472994 -0.000954878)
(-0.0023935 5.82516e-05 -0.000954878)
(-0.00236726 -0.000358261 -0.000954878)
(-0.00226908 -0.000763889 -0.000954879)
(-0.00210196 -0.00114631 -0.000954879)
(-0.00187097 -0.00149389 -0.000954879)
(-0.00158314 -0.00179609 -0.000954879)
(-0.0012472 -0.00204371 -0.000954879)
(-0.000873365 -0.00222923 -0.000954879)
(-0.000472994 -0.00234703 -0.000954879)
(-5.82515e-05 -0.0023935 -0.000954878)
(0.000358261 -0.00236726 -0.000954879)
(0.000763889 -0.00226908 -0.000954879)
(0.00114631 -0.00210196 -0.000954879)
(0.00149389 -0.00187097 -0.000954879)
(0.00179609 -0.00158314 -0.000954879)
(0.00204371 -0.0012472 -0.000954879)
(0.00222923 -0.000873365 -0.000954879)
(0.00234703 -0.000472994 -0.000954878)
(0.0023935 -5.82515e-05 -0.000954878)
(0.00236726 0.000358261 -0.000954878)
(0.00226908 0.000763889 -0.000954879)
(0.00210196 0.00114631 -0.000954879)
(0.00187097 0.00149389 -0.000954879)
(0.00158314 0.00179609 -0.000954879)
(0.0012472 0.00204371 -0.000954879)
(0.000873365 0.00222923 -0.000954879)
(0.000472994 0.00234703 -0.000954878)
(5.82516e-05 0.0023935 -0.000954878)
(-0.000358261 0.00236726 -0.000954878)
(-0.000763889 0.00226908 -0.000954879)
(-0.00119186 0.0023527 -0.000757357)
(-0.0015823 0.00210999 -0.000757357)
(-0.00192465 0.00180317 -0.000757357)
(-0.00220853 0.00144156 -0.000757357)
(-0.0024253 0.00103616 -0.000757357)
(-0.00256838 0.000599266 -0.000757357)
(-0.00263342 0.000144166 -0.000757357)
(-0.00261845 -0.000315314 -0.000757357)
(-0.00252392 -0.000765213 -0.000757357)
(-0.00235269 -0.00119186 -0.000757357)
(-0.00210999 -0.0015823 -0.000757357)
(-0.00180317 -0.00192465 -0.000757357)
(-0.00144156 -0.00220853 -0.000757357)
(-0.00103616 -0.0024253 -0.000757357)
(-0.000599266 -0.00256838 -0.000757357)
(-0.000144166 -0.00263342 -0.000757357)
(0.000315314 -0.00261845 -0.000757357)
(0.000765213 -0.00252392 -0.000757357)
(0.00119186 -0.00235269 -0.000757357)
(0.0015823 -0.00210999 -0.000757357)
(0.00192465 -0.00180317 -0.000757357)
(0.00220853 -0.00144156 -0.000757357)
(0.0024253 -0.00103616 -0.000757357)
(0.00256838 -0.000599266 -0.000757357)
(0.00263342 -0.000144166 -0.000757357)
(0.00261845 0.000315314 -0.000757357)
(0.00252392 0.000765213 -0.000757357)
(0.0023527 0.00119186 -0.000757357)
(0.00210999 0.0015823 -0.000757357)
(0.00180317 0.00192465 -0.000757357)
(0.00144156 0.00220853 -0.000757357)
(0.00103616 0.0024253 -0.000757357)
(0.000599266 0.00256838 -0.000757357)
(0.000144166 0.00263342 -0.000757357)
(-0.000315314 0.00261845 -0.000757357)
(-0.000765213 0.00252392 -0.000757357)
(-0.00142958 0.00241796 -0.00158902)
(-0.00182774 0.00213298 -0.00158902)
(-0.00217036 0.00178319 -0.00158902)
(-0.00244703 0.00137922 -0.00158902)
(-0.00264936 0.000933348 -0.00158902)
(-0.00277118 0.000459112 -0.00158902)
(-0.0028088 -2.90728e-05 -0.00158902)
(-0.00276108 -0.000516376 -0.00158902)
(-0.00262947 -0.000987988 -0.00158902)
(-0.00241796 -0.00142958 -0.00158902)
(-0.00213298 -0.00182774 -0.00158902)
(-0.00178319 -0.00217036 -0.00158902)
(-0.00137922 -0.00244703 -0.00158902)
(-0.000933348 -0.00264936 -0.00158902)
(-0.000459112 -0.00277118 -0.00158902)
(2.9073e-05 -0.0028088 -0.00158902)
(0.000516376 -0.00276108 -0.00158902)
(0.000987988 -0.00262947 -0.00158902)
(0.00142958 -0.00241796 -0.00158902)
(0.00182774 -0.00213298 -0.00158902)
(0.00217036 -0.00178319 -0.00158902)
(0.00244703 -0.00137922 -0.00158902)
(0.00264936 -0.000933348 -0.00158902)
(0.00277118 -0.000459112 -0.00158902)
(0.0028088 2.9073e-05 -0.00158902)
(0.00276108 0.000516376 -0.00158902)
(0.00262947 0.000987988 -0.00158902)
(0.00241796 0.00142958 -0.00158902)
(0.00213298 0.00182774 -0.00158902)
(0.00178319 0.00217036 -0.00158902)
(0.00137922 0.00244703 -0.00158902)
(0.000933348 0.00264936 -0.00158902)
(0.000459112 0.00277118 -0.00158902)
(-2.90728e-05 0.0028088 -0.00158902)
(-0.000516376 0.00276108 -0.00158902)
(-0.000987988 0.00262947 -0.00158902)
(-0.00145421 0.00267113 -0.001357)
(-0.00189596 0.00237803 -0.001357)
(-0.00228009 0.00201267 -0.001357)
(-0.00259495 0.00158616 -0.001357)
(-0.00283096 0.00111146 -0.001357)
(-0.00298095 0.000602978 -0.001357)
(-0.00304037 7.61798e-05 -0.001357)
(-0.00300741 -0.000452933 -0.001357)
(-0.00288307 -0.000968284 -0.001357)
(-0.00267113 -0.00145421 -0.001357)
(-0.00237803 -0.00189596 -0.001357)
(-0.00201267 -0.00228009 -0.001357)
(-0.00158616 -0.00259495 -0.001357)
(-0.00111146 -0.00283096 -0.001357)
(-0.000602978 -0.00298095 -0.001357)
(-7.61797e-05 -0.00304037 -0.001357)
(0.000452933 -0.00300741 -0.001357)
(0.000968284 -0.00288307 -0.001357)
(0.00145421 -0.00267113 -0.001357)
(0.00189596 -0.00237803 -0.001357)
(0.0022801 -0.00201267 -0.001357)
(0.00259495 -0.00158616 -0.001357)
(0.00283096 -0.00111146 -0.001357)
(0.00298096 -0.000602978 -0.001357)
(0.00304037 -7.61797e-05 -0.001357)
(0.00300741 0.000452933 -0.001357)
(0.00288307 0.000968284 -0.001357)
(0.00267113 0.00145421 -0.001357)
(0.00237803 0.00189596 -0.001357)
(0.00201267 0.0022801 -0.001357)
(0.00158616 0.00259495 -0.001357)
(0.00111146 0.00283096 -0.001357)
(0.000602978 0.00298096 -0.001357)
(7.61798e-05 0.00304037 -0.001357)
(-0.000452933 0.00300741 -0.001357)
(-0.000968284 0.00288307 -0.001357)
(-0.00152802 0.00288506 -0.00113828)
(-0.00200579 0.00257589 -0.00113828)
(-0.00242262 0.00218846 -0.00113828)
(-0.00276583 0.00173453 -0.00113828)
(-0.00302501 0.0012279 -0.00113828)
(-0.00319227 0.000683956 -0.00113828)
(-0.00326254 0.000119232 -0.00113828)
(-0.00323368 -0.000449115 -0.00113828)
(-0.00310657 -0.00100382 -0.00113828)
(-0.00288506 -0.00152802 -0.00113828)
(-0.00257589 -0.00200579 -0.00113828)
(-0.00218846 -0.00242262 -0.00113828)
(-0.00173453 -0.00276583 -0.00113828)
(-0.0012279 -0.00302501 -0.00113828)
(-0.000683956 -0.00319227 -0.00113828)
(-0.000119232 -0.00326254 -0.00113828)
(0.000449115 -0.00323368 -0.00113828)
(0.00100382 -0.00310657 -0.00113828)
(0.00152802 -0.00288506 -0.00113828)
(0.00200579 -0.00257589 -0.00113828)
(0.00242262 -0.00218846 -0.00113828)
(0.00276583 -0.00173453 -0.00113828)
(0.00302501 -0.0012279 -0.00113828)
(0.00319227 -0.000683956 -0.00113828)
(0.00326254 -0.000119232 -0.00113828)
(0.00323368 0.000449115 -0.00113828)
(0.00310657 0.00100382 -0.00113828)
(0.00288506 0.00152802 -0.00113828)
(0.00257589 0.00200579 -0.00113828)
(0.00218846 0.00242262 -0.00113828)
(0.00173453 0.00276583 -0.00113828)
(0.0012279 0.00302501 -0.00113828)
(0.000683956 0.00319227 -0.00113828)
(0.000119232 0.00326255 -0.00113828)
(-0.000449115 0.00323368 -0.00113828)
(-0.00100382 0.00310657 -0.00113828)
(-0.0017194 0.00301227 -0.0020381)
(-0.00221635 0.00266794 -0.0020381)
(-0.00264596 0.00224254 -0.0020381)
(-0.00299518 0.001749 -0.0020381)
(-0.00325338 0.00120232 -0.0020381)
(-0.00341274 0.000619113 -0.0020381)
(-0.0034684 1.7091e-05 -0.0020381)
(-0.00341868 -0.000585451 -0.0020381)
(-0.00326508 -0.0011702 -0.0020381)
(-0.00301227 -0.0017194 -0.0020381)
(-0.00266794 -0.00221635 -0.0020381)
(-0.00224254 -0.00264596 -0.0020381)
(-0.001749 -0.00299518 -0.0020381)
(-0.00120232 -0.00325338 -0.0020381)
(-0.000619113 -0.00341274 -0.0020381)
(-1.70908e-05 -0.0034684 -0.0020381)
(0.000585451 -0.00341868 -0.0020381)
(0.0011702 -0.00326508 -0.0020381)
(0.0017194 -0.00301227 -0.0020381)
(0.00221635 -0.00266794 -0.0020381)
(0.00264596 -0.00224254 -0.0020381)
(0.00299518 -0.001749 -0.0020381)
(0.00325338 -0.00120232 -0.0020381)
(0.00341274 -0.000619113 -0.0020381)
(0.0034684 -1.70908e-05 -0.0020381)
(0.00341868 0.000585451 -0.0020381)
(0.00326508 0.0011702 -0.0020381)
(0.00301227 0.0017194 -0.0020381)
(0.00266794 0.00221635 -0.0020381)
(0.00224254 0.00264596 -0.0020381)
(0.001749 0.00299518 -0.0020381)
(0.00120232 0.00325339 -0.0020381)
(0.000619113 0.00341274 -0.0020381)
(1.7091e-05 0.0034684 -0.0020381)
(-0.000585451 0.00341868 -0.0020381)
(-0.0011702 0.00326508 -0.0020381)
(-0.00175915 0.00320526 -0.00178785)
(-0.00228901 0.00285109 -0.00178785)
(-0.00274932 0.0024103 -0.00178785)
(-0.0031261 0.00189627 -0.00178785)
(-0.00340789 0.00132462 -0.00178785)
(-0.00358613 0.000712718 -0.00178785)
(-0.00365541 7.91654e-05 -0.00178785)
(-0.00361363 -0.000556793 -0.00178785)
(-0.00346204 -0.00117584 -0.00178785)
(-0.00320526 -0.00175915 -0.00178785)
(-0.00285109 -0.00228901 -0.00178785)
(-0.0024103 -0.00274932 -0.00178785)
(-0.00189627 -0.0031261 -0.00178785)
(-0.00132462 -0.00340789 -0.00178785)
(-0.000712718 -0.00358613 -0.00178785)
(-7.91652e-05 -0.00365541 -0.00178785)
(0.000556793 -0.00361363 -0.00178785)
(0.00117584 -0.00346204 -0.00178785)
(0.00175915 -0.00320526 -0.00178785)
(0.00228901 -0.00285109 -0.00178785)
(0.00274932 -0.0024103 -0.00178785)
(0.0031261 -0.00189627 -0.00178785)
(0.00340789 -0.00132462 -0.00178785)
(0.00358613 -0.000712718 -0.00178785)
(0.00365541 -7.91652e-05 -0.00178785)
(0.00361363 0.000556793 -0.00178785)
(0.00346204 0.00117584 -0.00178785)
(0.00320526 0.00175915 -0.00178785)
(0.00285109 0.00228901 -0.00178785)
(0.0024103 0.00274932 -0.00178785)
(0.00189627 0.0031261 -0.00178785)
(0.00132462 0.00340789 -0.00178785)
(0.000712718 0.00358613 -0.00178785)
(7.91654e-05 0.00365541 -0.00178785)
(-0.000556793 0.00361363 -0.00178785)
(-0.00117584 0.00346204 -0.00178785)
(-0.00184561 0.00334997 -0.00155456)
(-0.00239929 0.00297859 -0.00155456)
(-0.00288006 0.00251671 -0.00155456)
(-0.00327333 0.00197835 -0.00155456)
(-0.00356714 0.00137989 -0.00155456)
(-0.00375256 0.0007395 -0.00155456)
(-0.00382396 7.6641e-05 -0.00155456)
(-0.00377918 -0.000588549 -0.00155456)
(-0.00361956 -0.00123586 -0.00155456)
(-0.00334997 -0.00184561 -0.00155456)
(-0.00297859 -0.00239929 -0.00155456)
(-0.0025167 -0.00288006 -0.00155456)
(-0.00197835 -0.00327333 -0.00155456)
(-0.00137989 -0.00356714 -0.00155456)
(-0.0007395 -0.00375256 -0.00155456)
(-7.66408e-05 -0.00382396 -0.00155456)
(0.000588549 -0.00377918 -0.00155456)
(0.00123586 -0.00361956 -0.00155456)
(0.00184561 -0.00334997 -0.00155456)
(0.00239929 -0.00297859 -0.00155456)
(0.00288006 -0.0025167 -0.00155456)
(0.00327333 -0.00197835 -0.00155456)
(0.00356714 -0.00137989 -0.00155456)
(0.00375256 -0.0007395 -0.00155456)
(0.00382396 -7.66408e-05 -0.00155456)
(0.00377918 0.000588549 -0.00155456)
(0.00361956 0.00123586 -0.00155456)
(0.00334997 0.00184561 -0.00155456)
(0.00297859 0.00239929 -0.00155456)
(0.00251671 0.00288006 -0.00155456)
(0.00197835 0.00327333 -0.00155456)
(0.00137989 0.00356714 -0.00155456)
(0.0007395 0.00375256 -0.00155456)
(7.6641e-05 0.00382396 -0.00155456)
(-0.000588549 0.00377918 -0.00155456)
(-0.00123586 0.00361956 -0.00155456)
(-0.0020264 0.00357083 -0.0025072)
(-0.00261568 0.0031647 -0.0025072)
(-0.00312549 0.00266241 -0.0025072)
(-0.00354033 0.00207923 -0.0025072)
(-0.0038476 0.00143286 -0.0025072)
(-0.00403796 0.000742969 -0.0025072)
(-0.00410563 3.04975e-05 -0.0025072)
(-0.00404855 -0.000682901 -0.0025072)
(-0.00386846 -0.00137555 -0.0025072)
(-0.00357083 -0.0020264 -0.0025072)
(-0.0031647 -0.00261568 -0.0025072)
(-0.00266241 -0.00312549 -0.0025072)
(-0.00207923 -0.00354033 -0.0025072)
(-0.00143286 -0.0038476 -0.0025072)
(-0.000742968 -0.00403796 -0.0025072)
(-3.04973e-05 -0.00410563 -0.0025072)
(0.000682902 -0.00404855 -0.0025072)
(0.00137555 -0.00386846 -0.0025072)
(0.0020264 -0.00357083 -0.0025072)
(0.00261568 -0.0031647 -0.0025072)
(0.00312549 -0.00266241 -0.0025072)
(0.00354033 -0.00207923 -0.0025072)
(0.0038476 -0.00143286 -0.0025072)
(0.00403796 -0.000742968 -0.0025072)
(0.00410563 -3.04973e-05 -0.0025072)
(0.00404855 0.000682902 -0.0025072)
(0.00386846 0.00137555 -0.0025072)
(0.00357083 0.0020264 -0.0025072)
(0.0031647 0.00261568 -0.0025072)
(0.00266241 0.00312549 -0.0025072)
(0.00207923 0.00354033 -0.0025072)
(0.00143286 0.0038476 -0.0025072)
(0.000742969 0.00403796 -0.0025072)
(3.04975e-05 0.00410563 -0.0025072)
(-0.000682901 0.00404855 -0.0025072)
(-0.00137555 0.00386846 -0.0025072)
(-0.00206529 0.00368233 -0.00223933)
(-0.00267334 0.00326776 -0.00223933)
(-0.00320017 0.00275389 -0.00223933)
(-0.00362976 0.00215635 -0.00223933)
(-0.00394906 0.00149329 -0.00223933)
(-0.00414837 0.000784859 -0.00223933)
(-0.00422164 5.2577e-05 -0.00223933)
(-0.00416663 -0.000681301 -0.00223933)
(-0.00398502 -0.00139448 -0.00223933)
(-0.00368233 -0.00206529 -0.00223933)
(-0.00326776 -0.00267334 -0.00223933)
(-0.00275389 -0.00320017 -0.00223933)
(-0.00215635 -0.00362976 -0.00223933)
(-0.00149329 -0.00394906 -0.00223933)
(-0.000784859 -0.00414837 -0.00223933)
(-5.25768e-05 -0.00422164 -0.00223933)
(0.000681301 -0.00416663 -0.00223933)
(0.00139448 -0.00398502 -0.00223933)
(0.00206529 -0.00368233 -0.00223933)
(0.00267334 -0.00326776 -0.00223933)
(0.00320017 -0.00275389 -0.00223933)
(0.00362976 -0.00215635 -0.00223933)
(0.00394906 -0.00149329 -0.00223933)
(0.00414837 -0.000784859 -0.00223933)
(0.00422164 -5.25768e-05 -0.00223933)
(0.00416663 0.000681301 -0.00223933)
(0.00398502 0.00139448 -0.00223933)
(0.00368233 0.00206529 -0.00223933)
(0.00326776 0.00267334 -0.00223933)
(0.00275389 0.00320017 -0.00223933)
(0.00215635 0.00362976 -0.00223933)
(0.00149329 0.00394906 -0.00223933)
(0.000784859 0.00414837 -0.00223933)
(5.25771e-05 0.00422164 -0.00223933)
(-0.000681301 0.00416663 -0.00223933)
(-0.00139448 0.00398502 -0.00223933)
(-0.00214587 0.00374083 -0.00199144)
(-0.00276286 0.00331138 -0.00199144)
(-0.0032959 0.0027813 -0.00199144)
(-0.00372879 0.00216672 -0.00199144)
(-0.00404839 0.00148631 -0.00199144)
(-0.00424498 0.000760734 -0.00199144)
(-0.00431259 1.20429e-05 -0.00199144)
(-0.00424916 -0.000737014 -0.00199144)
(-0.00405663 -0.00146368 -0.00199144)
(-0.00374083 -0.00214587 -0.00199144)
(-0.00331138 -0.00276286 -0.00199144)
(-0.0027813 -0.0032959 -0.00199144)
(-0.00216672 -0.00372879 -0.00199144)
(-0.00148631 -0.00404839 -0.00199144)
(-0.000760733 -0.00424498 -0.00199144)
(-1.20426e-05 -0.00431259 -0.00199144)
(0.000737014 -0.00424916 -0.00199144)
(0.00146368 -0.00405663 -0.00199144)
(0.00214587 -0.00374083 -0.00199144)
(0.00276286 -0.00331138 -0.00199144)
(0.0032959 -0.0027813 -0.00199144)
(0.00372879 -0.00216672 -0.00199144)
(0.00404839 -0.00148631 -0.00199144)
(0.00424498 -0.000760734 -0.00199144)
(0.00431259 -1.20427e-05 -0.00199144)
(0.00424916 0.000737014 -0.00199144)
(0.00405663 0.00146368 -0.00199144)
(0.00374083 0.00214587 -0.00199144)
(0.00331138 0.00276286 -0.00199144)
(0.0027813 0.0032959 -0.00199144)
(0.00216672 0.00372879 -0.00199144)
(0.00148631 0.00404839 -0.00199144)
(0.000760734 0.00424498 -0.00199144)
(1.20429e-05 0.00431259 -0.00199144)
(-0.000737014 0.00424916 -0.00199144)
(-0.00146368 0.00405663 -0.00199144)
(-0.00234678 0.00405066 -0.00299258)
(-0.00301451 0.0035816 -0.00299258)
(-0.00359066 0.00300373 -0.00299258)
(-0.0040577 0.00233458 -0.00299258)
(-0.00440145 0.0015945 -0.00299258)
(-0.00461146 0.000805975 -0.00299258)
(-0.00468136 -7.04147e-06 -0.00299258)
(-0.00460902 -0.000819845 -0.00299258)
(-0.00439663 -0.00160774 -0.00299258)
(-0.00405066 -0.00234678 -0.00299258)
(-0.0035816 -0.00301451 -0.00299258)
(-0.00300373 -0.00359066 -0.00299258)