/*--------------------------------*- C++ -*----------------------------------*\
| =========                 |                                                 |
| \\      /  F ield         | OpenFOAM: The Open Source CFD Toolbox           |
|  \\    /   O peration     | Version:  2312                                  |
|   \\  /    A nd           | Website:  www.openfoam.com                      |
|    \\/     M anipulation  |                                                 |
\*---------------------------------------------------------------------------*/
FoamFile
{
    version     2.0;
    format      ascii;
    arch        "LSB;label=32;scalar=64";
    class       volVectorField;
    location    "0.7";
    object      D_0_0;
}
// * * * * * * * * * * * * * * * * * * * * * * * * * * * * * * * * * * * * * //

dimensions      [0 1 0 0 0 0 0];

internalField   nonuniform List<vector> 
1620
(
(-0.000243667 0.000238419 -0.000118517)
(-0.000281366 0.000192484 -0.000118518)
(-0.000310516 0.000140701 -0.000118517)
(-0.000330232 8.46439e-05 -0.000118517)
(-0.000339913 2.60144e-05 -0.000118517)
(-0.000339266 -3.34063e-05 -0.000118517)
(-0.000328311 -9.18118e-05 -0.000118517)
(-0.00030738 -0.000147427 -0.000118517)
(-0.000277109 -0.000198564 -0.000118517)
(-0.000238419 -0.000243667 -0.000118517)
(-0.000192484 -0.000281366 -0.000118518)
(-0.000140701 -0.000310516 -0.000118517)
(-8.46439e-05 -0.000330232 -0.000118517)
(-2.60144e-05 -0.000339913 -0.000118517)
(3.34063e-05 -0.000339266 -0.000118517)
(9.18119e-05 -0.000328311 -0.000118517)
(0.000147427 -0.00030738 -0.000118517)
(0.000198564 -0.000277109 -0.000118517)
(0.000243667 -0.000238419 -0.000118517)
(0.000281366 -0.000192484 -0.000118518)
(0.000310516 -0.000140701 -0.000118517)
(0.000330232 -8.46439e-05 -0.000118517)
(0.000339913 -2.60144e-05 -0.000118517)
(0.000339266 3.34063e-05 -0.000118517)
(0.000328311 9.18119e-05 -0.000118517)
(0.00030738 0.000147427 -0.000118517)
(0.000277109 0.000198564 -0.000118517)
(0.000238419 0.000243667 -0.000118517)
(0.000192484 0.000281366 -0.000118518)
(0.000140701 0.000310516 -0.000118517)
(8.46439e-05 0.000330232 -0.000118517)
(2.60144e-05 0.000339913 -0.000118517)
(-3.34063e-05 0.000339266 -0.000118517)
(-9.18118e-05 0.000328311 -0.000118517)
(-0.000147427 0.00030738 -0.000118517)
(-0.000198564 0.000277109 -0.000118517)
(-0.000165475 0.00030608 -7.97904e-05)
(-0.000216111 0.000272695 -7.97905e-05)
(-0.000260181 0.000231025 -7.97905e-05)
(-0.000296345 0.000182335 -7.97903e-05)
(-0.000323506 0.000128106 -7.97904e-05)
(-0.000340836 6.99833e-05 -7.97904e-05)
(-0.00034781 9.73463e-06 -7.97903e-05)
(-0.000344217 -5.08098e-05 -7.97903e-05)
(-0.000330164 -0.000109811 -7.97904e-05)
(-0.00030608 -0.000165475 -7.97904e-05)
(-0.000272695 -0.000216111 -7.97905e-05)
(-0.000231025 -0.000260181 -7.97905e-05)
(-0.000182335 -0.000296345 -7.97903e-05)
(-0.000128106 -0.000323506 -7.97904e-05)
(-6.99833e-05 -0.000340836 -7.97904e-05)
(-9.73462e-06 -0.00034781 -7.97903e-05)
(5.08098e-05 -0.000344217 -7.97903e-05)
(0.000109811 -0.000330164 -7.97904e-05)
(0.000165475 -0.00030608 -7.97904e-05)
(0.000216111 -0.000272695 -7.97905e-05)
(0.000260181 -0.000231025 -7.97905e-05)
(0.000296345 -0.000182335 -7.97903e-05)
(0.000323506 -0.000128106 -7.97904e-05)
(0.000340836 -6.99833e-05 -7.97904e-05)
(0.00034781 -9.73461e-06 -7.97903e-05)
(0.000344217 5.08098e-05 -7.97903e-05)
(0.000330164 0.000109811 -7.97904e-05)
(0.00030608 0.000165475 -7.97904e-05)
(0.000272695 0.000216111 -7.97905e-05)
(0.000231025 0.000260181 -7.97904e-05)
(0.000182335 0.000296345 -7.97903e-05)
(0.000128106 0.000323506 -7.97904e-05)
(6.99833e-05 0.000340836 -7.97904e-05)
(9.73463e-06 0.00034781 -7.97903e-05)
(-5.08098e-05 0.000344217 -7.97903e-05)
(-0.000109811 0.000330164 -7.97904e-05)
(-0.000115429 0.000372741 -4.10673e-05)
(-0.000178402 0.000347034 -4.10673e-05)
(-0.000235953 0.000310783 -4.10675e-05)
(-0.000286335 0.000265089 -4.10674e-05)
(-0.000328018 0.00021134 -4.10675e-05)
(-0.000359733 0.00015117 -4.10674e-05)
(-0.000380519 8.64058e-05 -4.10675e-05)
(-0.000389742 1.90167e-05 -4.10676e-05)
(-0.000387123 -4.89501e-05 -4.10674e-05)
(-0.000372741 -0.000115429 -4.10674e-05)
(-0.000347034 -0.000178402 -4.10673e-05)
(-0.000310783 -0.000235953 -4.10676e-05)
(-0.000265089 -0.000286335 -4.10674e-05)
(-0.00021134 -0.000328018 -4.10675e-05)
(-0.00015117 -0.000359733 -4.10674e-05)
(-8.64058e-05 -0.000380519 -4.10675e-05)
(-1.90167e-05 -0.000389742 -4.10676e-05)
(4.89501e-05 -0.000387123 -4.10674e-05)
(0.000115429 -0.000372741 -4.10674e-05)
(0.000178402 -0.000347034 -4.10674e-05)
(0.000235953 -0.000310783 -4.10676e-05)
(0.000286335 -0.000265089 -4.10674e-05)
(0.000328018 -0.00021134 -4.10675e-05)
(0.000359733 -0.00015117 -4.10674e-05)
(0.000380519 -8.64058e-05 -4.10675e-05)
(0.000389742 -1.90167e-05 -4.10676e-05)
(0.000387123 4.89501e-05 -4.10674e-05)
(0.000372741 0.000115429 -4.10673e-05)
(0.000347034 0.000178402 -4.10673e-05)
(0.000310783 0.000235953 -4.10675e-05)
(0.000265089 0.000286335 -4.10674e-05)
(0.00021134 0.000328018 -4.10675e-05)
(0.00015117 0.000359733 -4.10673e-05)
(8.64058e-05 0.000380519 -4.10675e-05)
(1.90167e-05 0.000389742 -4.10676e-05)
(-4.89501e-05 0.000387123 -4.10674e-05)
(-0.000560621 0.00073813 -0.000398352)
(-0.000680279 0.000629565 -0.000398353)
(-0.000779267 0.000501872 -0.000398353)
(-0.000854578 0.00035893 -0.000398351)
(-0.000903922 0.000205082 -0.00039835)
(-0.000925801 4.50019e-05 -0.000398351)
(-0.000919551 -0.000116446 -0.000398351)
(-0.00088536 -0.000274355 -0.000398351)
(-0.000824267 -0.000423929 -0.000398352)
(-0.00073813 -0.000560621 -0.000398352)
(-0.000629565 -0.000680279 -0.000398353)
(-0.000501872 -0.000779267 -0.000398353)
(-0.00035893 -0.000854578 -0.000398351)
(-0.000205082 -0.000903922 -0.00039835)
(-4.50018e-05 -0.000925801 -0.000398351)
(0.000116446 -0.000919551 -0.000398351)
(0.000274355 -0.00088536 -0.000398351)
(0.000423929 -0.000824267 -0.000398352)
(0.000560621 -0.00073813 -0.000398352)
(0.000680279 -0.000629565 -0.000398353)
(0.000779267 -0.000501872 -0.000398353)
(0.000854578 -0.00035893 -0.000398351)
(0.000903922 -0.000205082 -0.00039835)
(0.000925801 -4.50018e-05 -0.000398351)
(0.000919551 0.000116446 -0.000398351)
(0.00088536 0.000274355 -0.000398351)
(0.000824267 0.000423929 -0.000398352)
(0.00073813 0.000560621 -0.000398352)
(0.000629565 0.000680279 -0.000398353)
(0.000501872 0.000779267 -0.000398352)
(0.00035893 0.000854578 -0.000398351)
(0.000205082 0.000903922 -0.00039835)
(4.50019e-05 0.000925801 -0.000398351)
(-0.000116446 0.000919551 -0.000398351)
(-0.000274355 0.000885361 -0.000398351)
(-0.000423929 0.000824267 -0.000398352)
(-0.00049931 0.00091194 -0.000289396)
(-0.000650081 0.00081138 -0.000289396)
(-0.0007811 0.000686169 -0.000289396)
(-0.000888385 0.000540109 -0.000289396)
(-0.000968678 0.000377637 -0.000289396)
(-0.00101954 0.00020369 -0.000289396)
(-0.00103942 2.35549e-05 -0.000289396)
(-0.00102772 -0.000157296 -0.000289396)
(-0.00098479 -0.000333368 -0.000289396)
(-0.00091194 -0.00049931 -0.000289396)
(-0.00081138 -0.000650081 -0.000289396)
(-0.000686169 -0.0007811 -0.000289396)
(-0.000540109 -0.000888385 -0.000289396)
(-0.000377637 -0.000968678 -0.000289396)
(-0.00020369 -0.00101954 -0.000289396)
(-2.35548e-05 -0.00103942 -0.000289396)
(0.000157296 -0.00102772 -0.000289396)
(0.000333368 -0.00098479 -0.000289396)
(0.00049931 -0.00091194 -0.000289396)
(0.000650081 -0.00081138 -0.000289396)
(0.0007811 -0.000686169 -0.000289396)
(0.000888385 -0.000540109 -0.000289396)
(0.000968678 -0.000377637 -0.000289396)
(0.00101954 -0.00020369 -0.000289396)
(0.00103942 -2.35548e-05 -0.000289396)
(0.00102772 0.000157296 -0.000289396)
(0.00098479 0.000333368 -0.000289396)
(0.00091194 0.00049931 -0.000289396)
(0.00081138 0.000650081 -0.000289396)
(0.000686169 0.0007811 -0.000289396)
(0.000540109 0.000888385 -0.000289396)
(0.000377637 0.000968678 -0.000289396)
(0.00020369 0.00101954 -0.000289396)
(2.35548e-05 0.00103942 -0.000289396)
(-0.000157296 0.00102772 -0.000289396)
(-0.000333368 0.00098479 -0.000289396)
(-0.000474901 0.00108162 -0.000182558)
(-0.000655507 0.00098272 -0.000182558)
(-0.000816195 0.000853963 -0.000182558)
(-0.000952084 0.000699258 -0.000182558)
(-0.00105904 0.000523307 -0.000182558)
(-0.00113383 0.000331456 -0.000182558)
(-0.00117416 0.000129533 -0.000182558)
(-0.00117881 -7.63256e-05 -0.000182558)
(-0.00114765 -0.000279865 -0.000182558)
(-0.00108162 -0.000474901 -0.000182558)
(-0.00098272 -0.000655507 -0.000182558)
(-0.000853963 -0.000816195 -0.000182558)
(-0.000699258 -0.000952084 -0.000182558)
(-0.000523307 -0.00105904 -0.000182558)
(-0.000331456 -0.00113383 -0.000182558)
(-0.000129533 -0.00117416 -0.000182558)
(7.63256e-05 -0.00117881 -0.000182558)
(0.000279865 -0.00114765 -0.000182558)
(0.000474901 -0.00108162 -0.000182558)
(0.000655507 -0.00098272 -0.000182558)
(0.000816195 -0.000853963 -0.000182558)
(0.000952084 -0.000699258 -0.000182558)
(0.00105904 -0.000523307 -0.000182558)
(0.00113383 -0.000331455 -0.000182558)
(0.00117416 -0.000129532 -0.000182558)
(0.00117881 7.63256e-05 -0.000182558)
(0.00114765 0.000279865 -0.000182558)
(0.00108162 0.000474901 -0.000182558)
(0.00098272 0.000655507 -0.000182558)
(0.000853963 0.000816195 -0.000182558)
(0.000699258 0.000952084 -0.000182558)
(0.000523307 0.00105904 -0.000182558)
(0.000331456 0.00113383 -0.000182558)
(0.000129533 0.00117416 -0.000182558)
(-7.63256e-05 0.00117881 -0.000182558)
(-0.000279865 0.00114765 -0.000182558)
(-0.000861711 0.00126757 -0.000748752)
(-0.00106873 0.00109868 -0.000748752)
(-0.00124328 0.000896403 -0.000748752)
(-0.00138005 0.000666892 -0.000748751)
(-0.00147489 0.000417119 -0.00074875)
(-0.00152491 0.000154671 -0.00074875)
(-0.0015286 -0.000112477 -0.00074875)
(-0.00148585 -0.000376208 -0.000748751)
(-0.00139795 -0.000628508 -0.000748752)
(-0.00126757 -0.00086171 -0.000748752)
(-0.00109868 -0.00106873 -0.000748752)
(-0.000896403 -0.00124328 -0.000748752)
(-0.000666892 -0.00138005 -0.000748751)
(-0.000417119 -0.00147489 -0.00074875)
(-0.000154671 -0.00152491 -0.00074875)
(0.000112477 -0.0015286 -0.00074875)
(0.000376208 -0.00148585 -0.000748751)
(0.000628508 -0.00139795 -0.000748752)
(0.000861711 -0.00126757 -0.000748752)
(0.00106873 -0.00109868 -0.000748752)
(0.00124328 -0.000896403 -0.000748752)
(0.00138005 -0.000666892 -0.000748751)
(0.00147489 -0.000417119 -0.00074875)
(0.00152491 -0.000154671 -0.00074875)
(0.0015286 0.000112477 -0.00074875)
(0.00148585 0.000376208 -0.000748751)
(0.00139795 0.000628508 -0.000748752)
(0.00126757 0.000861711 -0.000748752)
(0.00109868 0.00106873 -0.000748752)
(0.000896403 0.00124328 -0.000748752)
(0.000666892 0.00138005 -0.000748751)
(0.000417119 0.00147489 -0.00074875)
(0.000154671 0.00152491 -0.00074875)
(-0.000112477 0.0015286 -0.00074875)
(-0.000376208 0.00148585 -0.00074875)
(-0.000628508 0.00139795 -0.000748752)
(-0.000826405 0.00151461 -0.00058459)
(-0.00107686 0.00134809 -0.000584591)
(-0.00129459 0.00114062 -0.00058459)
(-0.00147299 0.000898487 -0.00058459)
(-0.00160663 0.000629056 -0.000584589)
(-0.00169146 0.000340509 -0.000584589)
(-0.00172489 4.16169e-05 -0.00058459)
(-0.00170591 -0.00025854 -0.00058459)
(-0.0016351 -0.000550841 -0.00058459)
(-0.00151461 -0.000826405 -0.00058459)
(-0.00134809 -0.00107686 -0.000584591)
(-0.00114062 -0.00129459 -0.00058459)
(-0.000898487 -0.00147299 -0.00058459)
(-0.000629055 -0.00160663 -0.000584589)
(-0.000340509 -0.00169146 -0.00058459)
(-4.16168e-05 -0.00172489 -0.00058459)
(0.00025854 -0.00170591 -0.00058459)
(0.000550841 -0.0016351 -0.00058459)
(0.000826405 -0.00151461 -0.00058459)
(0.00107686 -0.00134809 -0.000584591)
(0.00129459 -0.00114062 -0.000584591)
(0.00147299 -0.000898487 -0.00058459)
(0.00160663 -0.000629055 -0.000584589)
(0.00169146 -0.000340509 -0.000584589)
(0.00172489 -4.16168e-05 -0.00058459)
(0.00170591 0.00025854 -0.00058459)
(0.0016351 0.000550841 -0.00058459)
(0.00151461 0.000826405 -0.00058459)
(0.00134809 0.00107686 -0.00058459)
(0.00114062 0.00129459 -0.00058459)
(0.000898487 0.00147299 -0.00058459)
(0.000629055 0.00160663 -0.000584589)
(0.000340509 0.00169146 -0.000584589)
(4.16169e-05 0.00172489 -0.000584589)
(-0.00025854 0.00170591 -0.00058459)
(-0.000550841 0.0016351 -0.00058459)
(-0.000834348 0.00174747 -0.000425406)
(-0.00112512 0.00157604 -0.000425406)
(-0.0013817 0.00135672 -0.000425406)
(-0.0015963 0.00109618 -0.000425407)
(-0.0017624 0.000802333 -0.000425407)
(-0.00187495 0.000484105 -0.000425407)
(-0.00193053 0.000151169 -0.000425407)
(-0.00192745 -0.00018636 -0.000425406)
(-0.00186581 -0.000518227 -0.000425406)
(-0.00174747 -0.000834348 -0.000425406)
(-0.00157604 -0.00112512 -0.000425406)
(-0.00135672 -0.0013817 -0.000425406)
(-0.00109618 -0.0015963 -0.000425407)
(-0.000802333 -0.0017624 -0.000425407)
(-0.000484105 -0.00187495 -0.000425407)
(-0.000151169 -0.00193053 -0.000425407)
(0.00018636 -0.00192745 -0.000425406)
(0.000518227 -0.00186581 -0.000425406)
(0.000834348 -0.00174747 -0.000425406)
(0.00112512 -0.00157604 -0.000425406)
(0.0013817 -0.00135672 -0.000425406)
(0.0015963 -0.00109618 -0.000425407)
(0.0017624 -0.000802333 -0.000425407)
(0.00187495 -0.000484105 -0.000425407)
(0.00193053 -0.000151169 -0.000425407)
(0.00192745 0.00018636 -0.000425406)
(0.00186581 0.000518227 -0.000425406)
(0.00174747 0.000834348 -0.000425406)
(0.00157604 0.00112512 -0.000425406)
(0.00135672 0.0013817 -0.000425406)
(0.00109618 0.0015963 -0.000425407)
(0.000802333 0.0017624 -0.000425407)
(0.000484105 0.00187495 -0.000425407)
(0.000151169 0.00193053 -0.000425407)
(-0.00018636 0.00192745 -0.000425406)
(-0.000518227 0.00186581 -0.000425406)
(-0.0011459 0.00183432 -0.00114367)
(-0.00144702 0.00160747 -0.00114367)
(-0.00170417 0.00133178 -0.00114367)
(-0.00190954 0.00101562 -0.00114367)
(-0.00205689 0.000668603 -0.00114367)
(-0.00214175 0.00030127 -0.00114367)
(-0.00216152 -7.52171e-05 -0.00114367)
(-0.00211562 -0.000449419 -0.00114367)
(-0.00200544 -0.000809966 -0.00114367)
(-0.00183432 -0.0011459 -0.00114367)
(-0.00160747 -0.00144702 -0.00114367)
(-0.00133178 -0.00170417 -0.00114367)
(-0.00101562 -0.00190954 -0.00114367)
(-0.000668603 -0.00205689 -0.00114367)
(-0.00030127 -0.00214175 -0.00114367)
(7.52173e-05 -0.00216152 -0.00114367)
(0.00044942 -0.00211562 -0.00114367)
(0.000809966 -0.00200544 -0.00114367)
(0.0011459 -0.00183432 -0.00114367)
(0.00144702 -0.00160747 -0.00114367)
(0.00170417 -0.00133178 -0.00114367)
(0.00190954 -0.00101562 -0.00114367)
(0.00205689 -0.000668603 -0.00114367)
(0.00214175 -0.00030127 -0.00114367)
(0.00216152 7.52173e-05 -0.00114367)
(0.00211562 0.00044942 -0.00114367)
(0.00200544 0.000809966 -0.00114367)
(0.00183432 0.0011459 -0.00114367)
(0.00160747 0.00144702 -0.00114367)
(0.00133178 0.00170417 -0.00114367)
(0.00101562 0.00190954 -0.00114367)
(0.000668603 0.00205689 -0.00114367)
(0.00030127 0.00214175 -0.00114367)
(-7.52172e-05 0.00216152 -0.00114367)
(-0.00044942 0.00211562 -0.00114367)
(-0.000809966 0.00200544 -0.00114367)
(-0.00114206 0.00210455 -0.000940424)
(-0.00149016 0.00187426 -0.000940424)
(-0.00179298 0.00158702 -0.000940424)
(-0.00204133 0.00125156 -0.000940423)
(-0.00222765 0.000878075 -0.000940423)
(-0.00234628 0.000477909 -0.000940423)
(-0.00239362 6.32208e-05 -0.000940423)
(-0.00236824 -0.000353388 -0.000940423)
(-0.00227089 -0.00075926 -0.000940423)
(-0.00210455 -0.00114206 -0.000940424)
(-0.00187426 -0.00149016 -0.000940424)
(-0.00158702 -0.00179298 -0.000940424)
(-0.00125156 -0.00204133 -0.000940423)
(-0.000878075 -0.00222765 -0.000940423)
(-0.000477908 -0.00234628 -0.000940423)
(-6.32207e-05 -0.00239362 -0.000940423)
(0.000353388 -0.00236824 -0.000940423)
(0.00075926 -0.00227089 -0.000940423)
(0.00114206 -0.00210455 -0.000940424)
(0.00149016 -0.00187426 -0.000940424)
(0.00179298 -0.00158702 -0.000940424)
(0.00204133 -0.00125156 -0.000940423)
(0.00222765 -0.000878075 -0.000940423)
(0.00234628 -0.000477908 -0.000940423)
(0.00239362 -6.32207e-05 -0.000940423)
(0.00236824 0.000353388 -0.000940423)
(0.00227089 0.00075926 -0.000940423)
(0.00210455 0.00114206 -0.000940424)
(0.00187426 0.00149016 -0.000940424)
(0.00158702 0.00179298 -0.000940424)
(0.00125156 0.00204133 -0.000940423)
(0.000878075 0.00222765 -0.000940423)
(0.000477909 0.00234628 -0.000940423)
(6.32208e-05 0.00239362 -0.000940423)
(-0.000353388 0.00236824 -0.000940423)
(-0.00075926 0.00227089 -0.000940423)
(-0.00118562 0.00234803 -0.000746093)
(-0.00157534 0.00210648 -0.000746094)
(-0.00191719 0.00180092 -0.000746094)
(-0.00220079 0.00144064 -0.000746094)
(-0.00241752 0.00103659 -0.000746093)
(-0.00256079 0.000601049 -0.000746094)
(-0.00262626 0.00014724 -0.000746094)
(-0.00261193 -0.000311043 -0.000746094)
(-0.00251824 -0.000759875 -0.000746094)
(-0.00234803 -0.00118562 -0.000746094)
(-0.00210648 -0.00157534 -0.000746094)
(-0.00180092 -0.00191719 -0.000746094)
(-0.00144064 -0.00220079 -0.000746094)
(-0.00103659 -0.00241752 -0.000746094)
(-0.000601049 -0.00256079 -0.000746094)
(-0.00014724 -0.00262626 -0.000746094)
(0.000311043 -0.00261193 -0.000746094)
(0.000759875 -0.00251824 -0.000746094)
(0.00118562 -0.00234803 -0.000746094)
(0.00157534 -0.00210648 -0.000746094)
(0.00191719 -0.00180092 -0.000746094)
(0.00220079 -0.00144064 -0.000746094)
(0.00241752 -0.00103659 -0.000746094)
(0.00256079 -0.000601049 -0.000746094)
(0.00262626 -0.00014724 -0.000746094)
(0.00261193 0.000311043 -0.000746094)
(0.00251824 0.000759875 -0.000746094)
(0.00234803 0.00118562 -0.000746093)
(0.00210648 0.00157534 -0.000746094)
(0.00180092 0.00191719 -0.000746094)
(0.00144064 0.00220079 -0.000746093)
(0.00103659 0.00241752 -0.000746093)
(0.000601049 0.00256079 -0.000746094)
(0.00014724 0.00262626 -0.000746094)
(-0.000311043 0.00261193 -0.000746094)
(-0.000759875 0.00251824 -0.000746094)
(-0.00142648 0.00242601 -0.00156722)
(-0.00182608 0.00214144 -0.00156722)
(-0.00217019 0.00179182 -0.00156722)
(-0.00244837 0.00138774 -0.00156722)
(-0.00265215 0.000941507 -0.00156722)
(-0.00277535 0.000466662 -0.00156722)
(-0.00281422 -2.23626e-05 -0.00156722)
(-0.00276758 -0.000510708 -0.00156722)
(-0.00263686 -0.000983535 -0.00156722)
(-0.00242601 -0.00142648 -0.00156722)
(-0.00214144 -0.00182608 -0.00156722)
(-0.00179182 -0.00217019 -0.00156722)
(-0.00138774 -0.00244837 -0.00156722)
(-0.000941507 -0.00265215 -0.00156722)
(-0.000466661 -0.00277535 -0.00156722)
(2.23627e-05 -0.00281422 -0.00156722)
(0.000510708 -0.00276758 -0.00156722)
(0.000983535 -0.00263686 -0.00156722)
(0.00142648 -0.00242601 -0.00156722)
(0.00182608 -0.00214144 -0.00156722)
(0.00217019 -0.00179182 -0.00156722)
(0.00244837 -0.00138774 -0.00156722)
(0.00265215 -0.000941507 -0.00156722)
(0.00277535 -0.000466661 -0.00156722)
(0.00281422 2.23628e-05 -0.00156722)
(0.00276758 0.000510708 -0.00156722)
(0.00263686 0.000983535 -0.00156722)
(0.00242601 0.00142648 -0.00156722)
(0.00214144 0.00182608 -0.00156722)
(0.00179182 0.00217019 -0.00156722)
(0.00138774 0.00244837 -0.00156722)
(0.000941507 0.00265215 -0.00156722)
(0.000466662 0.00277535 -0.00156722)
(-2.23626e-05 0.00281422 -0.00156722)
(-0.000510708 0.00276758 -0.00156722)
(-0.000983535 0.00263686 -0.00156722)
(-0.00144931 0.00267201 -0.0013387)
(-0.00189129 0.00237975 -0.0013387)
(-0.00227579 0.00201518 -0.0013387)
(-0.00259115 0.00158938 -0.0013387)
(-0.00282778 0.00111528 -0.0013387)
(-0.00297848 0.0006073 -0.0013387)
(-0.00303869 8.08651e-05 -0.0013387)
(-0.00300657 -0.000448026 -0.0013387)
(-0.00288309 -0.000963305 -0.00133869)
(-0.00267201 -0.00144931 -0.0013387)
(-0.00237975 -0.00189129 -0.0013387)
(-0.00201518 -0.00227579 -0.0013387)
(-0.00158938 -0.00259115 -0.0013387)
(-0.00111528 -0.00282778 -0.0013387)
(-0.0006073 -0.00297848 -0.0013387)
(-8.0865e-05 -0.00303869 -0.0013387)
(0.000448026 -0.00300657 -0.0013387)
(0.000963305 -0.00288309 -0.0013387)
(0.00144931 -0.00267201 -0.0013387)
(0.00189129 -0.00237975 -0.0013387)
(0.00227579 -0.00201518 -0.0013387)
(0.00259115 -0.00158938 -0.0013387)
(0.00282778 -0.00111528 -0.0013387)
(0.00297848 -0.0006073 -0.0013387)
(0.00303869 -8.0865e-05 -0.0013387)
(0.00300657 0.000448026 -0.0013387)
(0.00288309 0.000963305 -0.00133869)
(0.00267201 0.00144931 -0.0013387)
(0.00237975 0.00189129 -0.0013387)
(0.00201518 0.00227579 -0.0013387)
(0.00158938 0.00259115 -0.0013387)
(0.00111528 0.00282778 -0.0013387)
(0.0006073 0.00297848 -0.00133869)
(8.08651e-05 0.00303869 -0.00133869)
(-0.000448026 0.00300657 -0.0013387)
(-0.000963305 0.00288309 -0.00133869)
(-0.00152025 0.00287975 -0.00112302)
(-0.00199722 0.00257202 -0.00112302)
(-0.0024135 0.00218613 -0.00112302)
(-0.00275645 0.00173382 -0.00112302)
(-0.00301565 0.00122882 -0.00112302)
(-0.00318321 0.000686495 -0.00112302)
(-0.00325406 0.000123305 -0.00112302)
(-0.00322604 -0.000443631 -0.00112302)
(-0.00309999 -0.000997087 -0.00112302)
(-0.00287975 -0.00152025 -0.00112302)
(-0.00257202 -0.00199722 -0.00112302)
(-0.00218613 -0.0024135 -0.00112302)
(-0.00173382 -0.00275645 -0.00112302)
(-0.00122882 -0.00301565 -0.00112302)
(-0.000686494 -0.00318321 -0.00112302)
(-0.000123305 -0.00325406 -0.00112302)
(0.000443631 -0.00322604 -0.00112302)
(0.000997087 -0.00309999 -0.00112302)
(0.00152025 -0.00287975 -0.00112302)
(0.00199722 -0.00257202 -0.00112302)
(0.0024135 -0.00218613 -0.00112302)
(0.00275645 -0.00173382 -0.00112302)
(0.00301565 -0.00122882 -0.00112302)
(0.00318321 -0.000686494 -0.00112302)
(0.00325406 -0.000123305 -0.00112302)
(0.00322604 0.000443631 -0.00112302)
(0.00309999 0.000997087 -0.00112302)
(0.00287975 0.00152025 -0.00112302)
(0.00257202 0.00199722 -0.00112302)
(0.00218613 0.0024135 -0.00112302)
(0.00173382 0.00275645 -0.00112302)
(0.00122882 0.00301565 -0.00112302)
(0.000686495 0.00318321 -0.00112302)
(0.000123305 0.00325406 -0.00112302)
(-0.000443631 0.00322604 -0.00112302)
(-0.000997087 0.00309999 -0.00112302)
(-0.00171638 0.0030161 -0.00201296)
(-0.00221404 0.00267223 -0.00201296)
(-0.00264443 0.00224717 -0.00201296)
(-0.00299447 0.00175383 -0.00201296)
(-0.00325353 0.0012072 -0.00201296)
(-0.00341373 0.00062389 -0.00201296)
(-0.0034702 2.1624e-05 -0.00201296)
(-0.00342124 -0.0005813 -0.00201296)
(-0.00326832 -0.00116656 -0.00201296)
(-0.0030161 -0.00171638 -0.00201296)
(-0.00267223 -0.00221404 -0.00201296)
(-0.00224717 -0.00264443 -0.00201296)
(-0.00175383 -0.00299447 -0.00201296)
(-0.0012072 -0.00325353 -0.00201296)
(-0.00062389 -0.00341373 -0.00201296)
(-2.16238e-05 -0.0034702 -0.00201296)
(0.0005813 -0.00342124 -0.00201296)
(0.00116656 -0.00326832 -0.00201296)
(0.00171638 -0.0030161 -0.00201296)
(0.00221404 -0.00267223 -0.00201296)
(0.00264443 -0.00224717 -0.00201296)
(0.00299447 -0.00175383 -0.00201296)
(0.00325353 -0.0012072 -0.00201296)
(0.00341373 -0.00062389 -0.00201296)
(0.0034702 -2.16238e-05 -0.00201296)
(0.00342124 0.0005813 -0.00201296)
(0.00326832 0.00116656 -0.00201296)
(0.0030161 0.00171638 -0.00201296)
(0.00267223 0.00221404 -0.00201296)
(0.00224717 0.00264443 -0.00201296)
(0.00175383 0.00299447 -0.00201296)
(0.0012072 0.00325353 -0.00201296)
(0.00062389 0.00341373 -0.00201296)
(2.1624e-05 0.0034702 -0.00201296)
(-0.0005813 0.00342124 -0.00201296)
(-0.00116656 0.00326832 -0.00201296)
(-0.00175377 0.00320306 -0.00176618)
(-0.00228333 0.00284986 -0.00176618)
(-0.00274351 0.00241007 -0.00176618)
(-0.00312034 0.00189705 -0.00176618)
(-0.00340235 0.00132639 -0.00176618)
(-0.00358099 0.000715427 -0.00176618)
(-0.00365082 8.27258e-05 -0.00176618)
(-0.00360972 -0.000552489 -0.00176618)
(-0.00345894 -0.00117092 -0.00176618)
(-0.00320306 -0.00175377 -0.00176618)
(-0.00284986 -0.00228333 -0.00176618)
(-0.00241007 -0.00274351 -0.00176618)
(-0.00189705 -0.00312034 -0.00176618)
(-0.00132639 -0.00340235 -0.00176618)
(-0.000715426 -0.00358099 -0.00176618)
(-8.27256e-05 -0.00365082 -0.00176618)
(0.000552489 -0.00360972 -0.00176618)
(0.00117092 -0.00345894 -0.00176618)
(0.00175377 -0.00320306 -0.00176618)
(0.00228333 -0.00284986 -0.00176618)
(0.00274351 -0.00241007 -0.00176618)
(0.00312034 -0.00189705 -0.00176618)
(0.00340235 -0.00132639 -0.00176618)
(0.00358099 -0.000715426 -0.00176618)
(0.00365082 -8.27256e-05 -0.00176618)
(0.00360972 0.000552489 -0.00176618)
(0.00345894 0.00117092 -0.00176618)
(0.00320306 0.00175377 -0.00176618)
(0.00284986 0.00228333 -0.00176618)
(0.00241007 0.00274351 -0.00176618)
(0.00189705 0.00312034 -0.00176618)
(0.00132639 0.00340235 -0.00176618)
(0.000715427 0.00358099 -0.00176618)
(8.27258e-05 0.00365082 -0.00176618)
(-0.000552489 0.00360972 -0.00176618)
(-0.00117092 0.00345894 -0.00176618)
(-0.0018369 0.00334302 -0.00153573)
(-0.0023895 0.00297326 -0.00153573)
(-0.0028695 0.00251316 -0.00153573)
(-0.00326231 0.0019767 -0.00153573)
(-0.003556 0.00138017 -0.00153573)
(-0.00374164 0.000741711 -0.00153573)
(-0.00381359 8.07148e-05 -0.00153573)
(-0.00376967 -0.000582736 -0.00153573)
(-0.00361121 -0.00122848 -0.00153573)
(-0.00334302 -0.0018369 -0.00153573)
(-0.00297326 -0.0023895 -0.00153573)
(-0.00251316 -0.0028695 -0.00153573)
(-0.0019767 -0.00326231 -0.00153573)
(-0.00138017 -0.003556 -0.00153573)
(-0.00074171 -0.00374164 -0.00153573)
(-8.07146e-05 -0.00381359 -0.00153573)
(0.000582736 -0.00376967 -0.00153573)
(0.00122848 -0.00361121 -0.00153573)
(0.0018369 -0.00334302 -0.00153573)
(0.0023895 -0.00297326 -0.00153573)
(0.0028695 -0.00251316 -0.00153573)
(0.00326231 -0.0019767 -0.00153573)
(0.003556 -0.00138017 -0.00153573)
(0.00374164 -0.00074171 -0.00153573)
(0.00381359 -8.07146e-05 -0.00153573)
(0.00376967 0.000582736 -0.00153573)
(0.00361121 0.00122848 -0.00153573)
(0.00334302 0.0018369 -0.00153573)
(0.00297326 0.0023895 -0.00153573)
(0.00251316 0.0028695 -0.00153573)
(0.0019767 0.00326231 -0.00153573)
(0.00138017 0.003556 -0.00153573)
(0.000741711 0.00374164 -0.00153573)
(8.07148e-05 0.00381359 -0.00153573)
(-0.000582736 0.00376967 -0.00153573)
(-0.00122848 0.00361121 -0.00153573)
(-0.00202286 0.00356936 -0.00247879)
(-0.00261194 0.00316387 -0.00247879)
(-0.00312166 0.00266225 -0.0024788)
(-0.00353653 0.00207973 -0.0024788)
(-0.00384394 0.00143402 -0.0024788)
(-0.00403456 0.000744744 -0.00247879)
(-0.00410259 3.28362e-05 -0.00247879)
(-0.00404596 -0.00068007 -0.00247879)
(-0.0038664 -0.00137231 -0.00247879)
(-0.00356936 -0.00202286 -0.00247879)
(-0.00316387 -0.00261194 -0.00247879)
(-0.00266225 -0.00312166 -0.0024788)
(-0.00207973 -0.00353653 -0.0024788)
(-0.00143402 -0.00384394 -0.0024788)
(-0.000744744 -0.00403456 -0.00247879)
(-3.28359e-05 -0.00410259 -0.00247879)
(0.000680071 -0.00404596 -0.00247879)
(0.00137231 -0.0038664 -0.00247879)
(0.00202286 -0.00356936 -0.00247879)
(0.00261194 -0.00316387 -0.00247879)
(0.00312166 -0.00266225 -0.0024788)
(0.00353653 -0.00207973 -0.0024788)
(0.00384394 -0.00143402 -0.0024788)
(0.00403456 -0.000744744 -0.00247879)
(0.00410259 -3.2836e-05 -0.00247879)
(0.00404596 0.000680071 -0.00247879)
(0.0038664 0.00137231 -0.00247879)
(0.00356936 0.00202286 -0.00247879)
(0.00316387 0.00261194 -0.00247879)
(0.00266225 0.00312166 -0.0024788)
(0.00207973 0.00353653 -0.0024788)
(0.00143402 0.00384394 -0.0024788)
(0.000744744 0.00403456 -0.00247879)
(3.28362e-05 0.00410259 -0.00247879)
(-0.00068007 0.00404596 -0.00247879)
(-0.00137231 0.0038664 -0.00247879)
(-0.00205923 0.00367604 -0.00221451)
(-0.00266628 0.00326261 -0.00221451)
(-0.00319232 0.00275005 -0.00221451)
(-0.00362137 0.00215393 -0.00221451)
(-0.00394037 0.00149236 -0.00221451)
(-0.00413966 0.000785454 -0.00221451)
(-0.00421316 5.46763e-05 -0.00221451)
(-0.00415865 -0.000677762 -0.00221451)
(-0.00397778 -0.00138961 -0.00221451)
(-0.00367604 -0.00205923 -0.00221451)
(-0.00326261 -0.00266628 -0.00221451)
(-0.00275005 -0.00319232 -0.00221451)
(-0.00215393 -0.00362137 -0.00221451)
(-0.00149236 -0.00394037 -0.00221451)
(-0.000785454 -0.00413966 -0.00221451)
(-5.4676e-05 -0.00421316 -0.00221451)
(0.000677762 -0.00415865 -0.00221451)
(0.00138961 -0.00397778 -0.00221451)
(0.00205923 -0.00367604 -0.00221451)
(0.00266628 -0.00326261 -0.00221451)
(0.00319232 -0.00275005 -0.00221451)
(0.00362137 -0.00215393 -0.00221451)
(0.00394037 -0.00149236 -0.00221451)
(0.00413966 -0.000785454 -0.00221451)
(0.00421316 -5.4676e-05 -0.00221451)
(0.00415865 0.000677762 -0.00221451)
(0.00397778 0.00138961 -0.00221451)
(0.00367604 0.00205923 -0.00221451)
(0.00326261 0.00266628 -0.00221451)
(0.00275005 0.00319232 -0.00221451)
(0.00215393 0.00362137 -0.00221451)
(0.00149236 0.00394037 -0.00221451)
(0.000785454 0.00413966 -0.00221451)
(5.46763e-05 0.00421316 -0.00221451)
(-0.000677762 0.00415865 -0.00221451)
(-0.00138961 0.00397778 -0.00221451)
(-0.00213645 0.00373121 -0.00196943)
(-0.0027519 0.00330353 -0.00196943)
(-0.00328375 0.00277548 -0.00196943)
(-0.00371582 0.0021631 -0.00196943)
(-0.00403498 0.00148499 -0.00196943)
(-0.00423155 0.000761764 -0.00196943)
(-0.00429954 1.53895e-05 -0.00196943)
(-0.0042369 -0.000731452 -0.00196943)
(-0.00404551 -0.00145607 -0.00196943)
(-0.00373121 -0.00213645 -0.00196943)
(-0.00330353 -0.0027519 -0.00196943)
(-0.00277548 -0.00328375 -0.00196943)
(-0.0021631 -0.00371582 -0.00196943)
(-0.00148499 -0.00403498 -0.00196943)
(-0.000761763 -0.00423155 -0.00196943)
(-1.53892e-05 -0.00429954 -0.00196943)
(0.000731452 -0.0042369 -0.00196943)
(0.00145607 -0.00404551 -0.00196943)
(0.00213645 -0.00373121 -0.00196943)
(0.00275191 -0.00330353 -0.00196943)
(0.00328375 -0.00277548 -0.00196943)
(0.00371582 -0.0021631 -0.00196943)
(0.00403498 -0.00148499 -0.00196943)
(0.00423155 -0.000761763 -0.00196943)
(0.00429954 -1.53892e-05 -0.00196943)
(0.0042369 0.000731452 -0.00196943)
(0.00404551 0.00145607 -0.00196943)
(0.00373121 0.00213645 -0.00196943)
(0.00330353 0.00275191 -0.00196943)
(0.00277548 0.00328375 -0.00196943)
(0.0021631 0.00371582 -0.00196943)
(0.00148499 0.00403498 -0.00196943)
(0.000761764 0.00423155 -0.00196943)
(1.53894e-05 0.00429954 -0.00196943)
(-0.000731452 0.0042369 -0.00196943)
(-0.00145607 0.00404551 -0.00196943)
(-0.00234166 0.00404373 -0.00296056)
(-0.00300827 0.00357567 -0.00296056)
(-0.00358348 0.00299897 -0.00296056)
(-0.0040498 0.00233114 -0.00296056)
(-0.00439308 0.00159248 -0.00296056)
(-0.00460287 0.00080544 -0.00296056)
(-0.0046728 -6.07609e-06 -0.00296056)
(-0.00460076 -0.000817408 -0.00296056)
(-0.00438892 -0.0016039 -0.00296056)