/*--------------------------------*- C++ -*----------------------------------*\
| =========                 |                                                 |
| \\      /  F ield         | OpenFOAM: The Open Source CFD Toolbox           |
|  \\    /   O peration     | Version:  2312                                  |
|   \\  /    A nd           | Website:  www.openfoam.com                      |
|    \\/     M anipulation  |                                                 |
\*---------------------------------------------------------------------------*/
FoamFile
{
    version     2.0;
    format      ascii;
    arch        "LSB;label=32;scalar=64";
    class       volScalarField;
    location    "0.7";
    object      sigmaHyd;
}
// * * * * * * * * * * * * * * * * * * * * * * * * * * * * * * * * * * * * * //

dimensions      [1 -1 -2 0 0 0 0];

internalField   nonuniform List<scalar> 
1620
(
23410.9
23411
23410.9
23410.7
23410.7
23410.8
23410.8
23410.9
23410.9
23410.9
23411
23410.9
23410.7
23410.7
23410.8
23410.8
23410.9
23410.9
23410.9
23411
23410.9
23410.7
23410.7
23410.8
23410.8
23410.9
23410.9
23410.9
23411
23410.9
23410.7
23410.7
23410.8
23410.8
23410.9
23410.9
12479.9
12479.9
12479.8
12479.9
12479.8
12479.8
12479.9
12479.9
12479.8
12479.9
12479.9
12479.8
12479.9
12479.8
12479.8
12479.9
12479.9
12479.8
12479.9
12479.9
12479.8
12479.9
12479.8
12479.8
12479.9
12479.9
12479.8
12479.9
12479.9
12479.8
12479.9
12479.8
12479.8
12479.9
12479.9
12479.8
865.482
865.474
865.319
865.302
865.429
865.427
865.461
865.358
865.439
865.486
865.477
865.322
865.304
865.431
865.429
865.463
865.36
865.441
865.487
865.478
865.322
865.304
865.431
865.428
865.461
865.357
865.438
865.484
865.475
865.319
865.301
865.427
865.424
865.458
865.354
865.435
8029.33
8029.34
8029.48
8029.25
8029.29
8029.36
8029.22
8029.38
8029.35
8029.33
8029.34
8029.48
8029.25
8029.29
8029.36
8029.22
8029.38
8029.35
8029.33
8029.34
8029.48
8029.25
8029.29
8029.36
8029.22
8029.38
8029.35
8029.33
8029.34
8029.48
8029.25
8029.29
8029.36
8029.22
8029.38
8029.35
-3219.33
-3219.32
-3219.42
-3219.17
-3219.22
-3219.4
-3219.19
-3219.42
-3219.33
-3219.33
-3219.32
-3219.42
-3219.17
-3219.22
-3219.4
-3219.19
-3219.42
-3219.32
-3219.33
-3219.32
-3219.42
-3219.17
-3219.22
-3219.4
-3219.19
-3219.42
-3219.33
-3219.33
-3219.32
-3219.42
-3219.17
-3219.22
-3219.4
-3219.2
-3219.42
-3219.32
-18863.6
-18863.7
-18863.6
-18863.8
-18863.6
-18863.4
-18863.5
-18863.5
-18863.5
-18863.6
-18863.7
-18863.6
-18863.8
-18863.6
-18863.4
-18863.5
-18863.5
-18863.5
-18863.6
-18863.7
-18863.6
-18863.8
-18863.6
-18863.4
-18863.5
-18863.5
-18863.5
-18863.6
-18863.7
-18863.6
-18863.8
-18863.6
-18863.4
-18863.5
-18863.5
-18863.5
8875.37
8875.1
8875.34
8875.13
8875.3
8875.38
8875.08
8875.23
8875.09
8875.37
8875.1
8875.34
8875.14
8875.3
8875.38
8875.08
8875.23
8875.09
8875.37
8875.1
8875.34
8875.14
8875.3
8875.38
8875.08
8875.23
8875.09
8875.37
8875.1
8875.34
8875.14
8875.3
8875.38
8875.08
8875.23
8875.09
-2557.96
-2557.73
-2557.96
-2557.73
-2557.78
-2558
-2557.8
-2558
-2557.74
-2557.96
-2557.73
-2557.96
-2557.73
-2557.78
-2558
-2557.8
-2558
-2557.74
-2557.96
-2557.73
-2557.96
-2557.73
-2557.78
-2558
-2557.8
-2558
-2557.74
-2557.96
-2557.73
-2557.96
-2557.73
-2557.78
-2558
-2557.8
-2558
-2557.74
-21789.3
-21789.5
-21789.2
-21789.3
-21789.4
-21789.3
-21789.5
-21789.2
-21789.3
-21789.3
-21789.5
-21789.2
-21789.3
-21789.4
-21789.3
-21789.5
-21789.2
-21789.3
-21789.3
-21789.5
-21789.2
-21789.3
-21789.4
-21789.3
-21789.5
-21789.2
-21789.3
-21789.3
-21789.5
-21789.2
-21789.3
-21789.4
-21789.3
-21789.5
-21789.2
-21789.3
9343.15
9343.17
9343.1
9343.22
9343.21
9343.24
9343.25
9343.08
9343.17
9343.15
9343.17
9343.1
9343.22
9343.21
9343.24
9343.25
9343.08
9343.17
9343.15
9343.17
9343.1
9343.22
9343.21
9343.24
9343.25
9343.08
9343.17
9343.15
9343.17
9343.1
9343.22
9343.21
9343.24
9343.25
9343.08
9343.17
-2677.91
-2677.98
-2677.95
-2677.83
-2677.97
-2677.9
-2677.96
-2677.95
-2677.91
-2677.91
-2677.98
-2677.94
-2677.83
-2677.97
-2677.9
-2677.96
-2677.95
-2677.91
-2677.91
-2677.98
-2677.94
-2677.83
-2677.97
-2677.9
-2677.96
-2677.95
-2677.91
-2677.91
-2677.98
-2677.94
-2677.83
-2677.97
-2677.9
-2677.96
-2677.95
-2677.91
-24853.8
-24853.9
-24853.8
-24853.9
-24854
-24853.8
-24854
-24853.8
-24853.8
-24853.8
-24853.9
-24853.8
-24853.9
-24854
-24853.8
-24854
-24853.8
-24853.8
-24853.8
-24853.9
-24853.8
-24853.9
-24854
-24853.8
-24854
-24853.8
-24853.8
-24853.8
-24853.9
-24853.8
-24853.9
-24854
-24853.8
-24854
-24853.8
-24853.8
9427.41
9427.55
9427.35
9427.59
9427.45
9427.38
9427.65
9427.3
9427.52
9427.41
9427.55
9427.35
9427.59
9427.45
9427.38
9427.65
9427.3
9427.52
9427.41
9427.55
9427.35
9427.59
9427.45
9427.38
9427.65
9427.3
9427.52
9427.41
9427.55
9427.35
9427.59
9427.45
9427.38
9427.65
9427.3
9427.52
-3020.81
-3021.13
-3020.8
-3021.03
-3020.97
-3020.8
-3021.05
-3020.86
-3020.94
-3020.81
-3021.13
-3020.79
-3021.03
-3020.97
-3020.8
-3021.05
-3020.86
-3020.94
-3020.81
-3021.13
-3020.79
-3021.03
-3020.97
-3020.8
-3021.05
-3020.86
-3020.94
-3020.81
-3021.13
-3020.79
-3021.03
-3020.97
-3020.8
-3021.05
-3020.86
-3020.94
-26696.9
-26696.7
-26696.8
-26696.8
-26696.7
-26696.8
-26696.7
-26696.9
-26696.7
-26696.9
-26696.7
-26696.8
-26696.8
-26696.7
-26696.8
-26696.7
-26696.9
-26696.7
-26696.9
-26696.7
-26696.8
-26696.8
-26696.7
-26696.8
-26696.7
-26696.9
-26696.7
-26696.9
-26696.7
-26696.8
-26696.8
-26696.7
-26696.8
-26696.7
-26696.9
-26696.7
8864.99
8865.16
8865
8865.14
8865.04
8865
8865.08
8864.94
8865.17
8864.99
8865.16
8865
8865.14
8865.04
8865
8865.08
8864.94
8865.17
8864.99
8865.16
8865
8865.14
8865.04
8865
8865.08
8864.94
8865.17
8864.99
8865.16
8865
8865.14
8865.04
8865
8865.08
8864.94
8865.17
-3943.26
-3943.45
-3943.32
-3943.37
-3943.34
-3943.35
-3943.47
-3943.13
-3943.48
-3943.26
-3943.45
-3943.32
-3943.37
-3943.34
-3943.35
-3943.46
-3943.13
-3943.48
-3943.26
-3943.45
-3943.32
-3943.37
-3943.34
-3943.35
-3943.46
-3943.13
-3943.48
-3943.26
-3943.45
-3943.32
-3943.37
-3943.34
-3943.35
-3943.46
-3943.13
-3943.48
-27838.5
-27838.3
-27838.6
-27838.4
-27838.6
-27838.7
-27838.5
-27838.6
-27838.5
-27838.5
-27838.3
-27838.6
-27838.4
-27838.6
-27838.7
-27838.5
-27838.6
-27838.5
-27838.5
-27838.3
-27838.6
-27838.4
-27838.6
-27838.7
-27838.5
-27838.6
-27838.5
-27838.5
-27838.3
-27838.6
-27838.4
-27838.6
-27838.7
-27838.5
-27838.6
-27838.5
7470.22
7470.38
7470
7470.45
7470.12
7470.09
7470.37
7470.03
7470.29
7470.22
7470.38
7470
7470.45
7470.12
7470.09
7470.37
7470.03
7470.29
7470.22
7470.38
7470
7470.45
7470.12
7470.09
7470.37
7470.03
7470.29
7470.22
7470.38
7470
7470.45
7470.12
7470.09
7470.37
7470.03
7470.29
-5369.48
-5370.08
-5369.54
-5369.88
-5369.87
-5369.49
-5369.83
-5369.66
-5369.89
-5369.48
-5370.08
-5369.54
-5369.88
-5369.87
-5369.49
-5369.83
-5369.65
-5369.89
-5369.48
-5370.07
-5369.54
-5369.88
-5369.87
-5369.49
-5369.83
-5369.65
-5369.89
-5369.48
-5370.08
-5369.54
-5369.88
-5369.87
-5369.49
-5369.83
-5369.65
-5369.89
-28509.9
-28509.6
-28509.8
-28509.7
-28509.7
-28509.8
-28509.7
-28509.9
-28509.4
-28509.9
-28509.6
-28509.8
-28509.7
-28509.7
-28509.8
-28509.7
-28509.9
-28509.4
-28509.9
-28509.6
-28509.8
-28509.7
-28509.7
-28509.8
-28509.7
-28509.9
-28509.4
-28509.9
-28509.6
-28509.8
-28509.7
-28509.7
-28509.8
-28509.7
-28509.9
-28509.4
4873.41
4873.31
4873.19
4873.33
4873.2
4873.23
4873.33
4873.2
4873.16
4873.41
4873.31
4873.19
4873.33
4873.2
4873.23
4873.33
4873.2
4873.16
4873.41
4873.31
4873.19
4873.33
4873.2
4873.23
4873.33
4873.2
4873.16
4873.41
4873.31
4873.19
4873.33
4873.2
4873.23
4873.33
4873.2
4873.16
-7156.03
-7156.09
-7155.81
-7156.14
-7155.89
-7155.78
-7155.95
-7156
-7155.77
-7156.03
-7156.09
-7155.81
-7156.14
-7155.89
-7155.78
-7155.95
-7156
-7155.77
-7156.03
-7156.09
-7155.81
-7156.14
-7155.89
-7155.78
-7155.95
-7156
-7155.77
-7156.03
-7156.09
-7155.81
-7156.14
-7155.89
-7155.78
-7155.95
-7156
-7155.77
-28666.6
-28666.4
-28666.5
-28666.5
-28666.5
-28666.7
-28666.6
-28666.6
-28666.6
-28666.6
-28666.4
-28666.5
-28666.5
-28666.5
-28666.7
-28666.6
-28666.6
-28666.6
-28666.6
-28666.4
-28666.5
-28666.5
-28666.5
-28666.7
-28666.6
-28666.6
-28666.6
-28666.6
-28666.4
-28666.5
-28666.5
-28666.5
-28666.7
-28666.6
-28666.6
-28666.6
498.082
498.145
498.101
498.096
498.086
498.093
498.033
498.106
498.172
498.081
498.144
498.1
498.096
498.086
498.093
498.034
498.107
498.172
498.082
498.145
498.101
498.096
498.087
498.093
498.034
498.106
498.171
498.081
498.144
498.1
498.095
498.086
498.093
498.034
498.107
498.172
-9113.3
-9113.13
-9113.25
-9113.08
-9113.08
-9113.31
-9112.97
-9113.22
-9113.19
-9113.3
-9113.13
-9113.25
-9113.08
-9113.08
-9113.31
-9112.97
-9113.22
-9113.19
-9113.3
-9113.13
-9113.25
-9113.08
-9113.08
-9113.31
-9112.97
-9113.22
-9113.19
-9113.3
-9113.13
-9113.25
-9113.08
-9113.08
-9113.31
-9112.97
-9113.22
-9113.19
-27874.2
-27874.5
-27874.3
-27874.6
-27874.6
-27874.5
-27874.4
-27874.5
-27874.7
-27874.2
-27874.5
-27874.3
-27874.6
-27874.6
-27874.5
-27874.4
-27874.5
-27874.7
-27874.2
-27874.5
-27874.3
-27874.6
-27874.6
-27874.5
-27874.4
-27874.5
-27874.7
-27874.2
-27874.5
-27874.3
-27874.6
-27874.6
-27874.5
-27874.4
-27874.5
-27874.7
-6087.39
-6087.48
-6087.42
-6087.29
-6087.34
-6087.47
-6087.43
-6087.25
-6087.39
-6087.39
-6087.48
-6087.42
-6087.29
-6087.34
-6087.47
-6087.43
-6087.25
-6087.39
-6087.39
-6087.48
-6087.42
-6087.29
-6087.34
-6087.47
-6087.43
-6087.25
-6087.39
-6087.39
-6087.48
-6087.42
-6087.29
-6087.34
-6087.47
-6087.43
-6087.25
-6087.39
-10796.9
-10796.7
-10796.9
-10796.9
-10796.9
-10797
-10796.8
-10796.9
-10797
-10796.9
-10796.7
-10796.9
-10796.9
-10796.9
-10797
-10796.8
-10796.9
-10797
-10796.9
-10796.7
-10796.9
-10796.9
-10796.9
-10797
-10796.8
-10796.9
-10797
-10796.9
-10796.7
-10796.9
-10796.9
-10796.9
-10797
-10796.8
-10796.9
-10797
-25028.6
-25028.7
-25028.7
-25028.7
-25028.7
-25028.6
-25028.7
-25028.6
-25028.8
-25028.6
-25028.7
-25028.7
-25028.7
-25028.7
-25028.6
-25028.7
-25028.6
-25028.8
-25028.6
-25028.7
-25028.7
-25028.7
-25028.7
-25028.6
-25028.7
-25028.6
-25028.8
-25028.6
-25028.7
-25028.7
-25028.7
-25028.7
-25028.6
-25028.7
-25028.6
-25028.8
-14071.8
-14071.9
-14071.8
-14071.7
-14071.7
-14071.7
-14071.7
-14071.8
-14071.9
-14071.8
-14071.9
-14071.8
-14071.7
-14071.7
-14071.7
-14071.7
-14071.8
-14071.9
-14071.8
-14071.9
-14071.8
-14071.7
-14071.7
-14071.7
-14071.7
-14071.8
-14071.9
-14071.8
-14071.9
-14071.8
-14071.7
-14071.7
-14071.7
-14071.7
-14071.8
-14071.9
-11323.7
-11323.3
-11323.6
-11323.6
-11323.6
-11323.6
-11323.6
-11323.8
-11323.5
-11323.7
-11323.3
-11323.6
-11323.6
-11323.6
-11323.6
-11323.6
-11323.8
-11323.5
-11323.7
-11323.3
-11323.6
-11323.6
-11323.6
-11323.6
-11323.6
-11323.8
-11323.5
-11323.7
-11323.3
-11323.6
-11323.6
-11323.6
-11323.6
-11323.6
-11323.8
-11323.5
-18375.8
-18376
-18375.8
-18375.9
-18375.9
-18376
-18376.1
-18375.7
-18376
-18375.8
-18376
-18375.8
-18375.9
-18375.9
-18376
-18376.1
-18375.7
-18376
-18375.8
-18376
-18375.8
-18375.9
-18375.9
-18376
-18376.1
-18375.7
-18376
-18375.8
-18376
-18375.8
-18375.9
-18375.9
-18376
-18376.1
-18375.7
-18376
-20874.3
-20874.3
-20874.1
-20874.2
-20874
-20874.1
-20874
-20874.1
-20874.6
-20874.3
-20874.3
-20874.1
-20874.2
-20874
-20874.1
-20874
-20874.1
-20874.6
-20874.3
-20874.3
-20874.1
-20874.2
-20874
-20874.1
-20874
-20874.1
-20874.6
-20874.3
-20874.3
-20874.1
-20874.2
-20874
-20874.1
-20874
-20874.1
-20874.6
-10137.3
-10137.1
-10137.2
-10137.4
-10137.3
-10137.4
-10137.4
-10137.6
-10137.3
-10137.3
-10137.1
-10137.2
-10137.4
-10137.3
-10137.4
-10137.4
-10137.6
-10137.3
-10137.3
-10137.1
-10137.2
-10137.4
-10137.3
-10137.4
-10137.4
-10137.6
-10137.3
-10137.3
-10137.1
-10137.2
-10137.4
-10137.3
-10137.4
-10137.4
-10137.6
-10137.3
-5944.6
-5944.84
-5944.68
-5944.79
-5944.79
-5944.95
-5944.7
-5944.52
-5944.49
-5944.6
-5944.84
-5944.68
-5944.8
-5944.8
-5944.95
-5944.71
-5944.52
-5944.49
-5944.6
-5944.84
-5944.68
-5944.8
-5944.8
-5944.95
-5944.71
-5944.52
-5944.49
-5944.6
-5944.84
-5944.68
-5944.79
-5944.79
-5944.95
-5944.71
-5944.52
-5944.49
-23330.1
-23330
-23329.9
-23329.8
-23329.8
-23329.5
-23329.9
-23329.9
-23330.5
-23330.1
-23330
-23329.9
-23329.8
-23329.8
-23329.5
-23329.9
-23329.9
-23330.5
-23330.1
-23330
-23329.9
-23329.8
-23329.8
-23329.5
-23329.9
-23329.9
-23330.5
-23330.1
-23330
-23329.9
-23329.8
-23329.8
-23329.5
-23329.9
-23329.9
-23330.4
-7763.66
-7763.58
-7763.72
-7763.96
-7763.36
-7763.92
-7763.71
-7763.94
-7763.48
-7763.66
-7763.58
-7763.71
-7763.95
-7763.35
-7763.92
-7763.71
-7763.94
-7763.48
-7763.66
-7763.58
-7763.72
-7763.96
-7763.36
-7763.93
-7763.71
-7763.94
-7763.48
-7763.66
-7763.58
-7763.72
-7763.96
-7763.35
-7763.92
-7763.71
-7763.94
-7763.49
14320.5
14320.1
14320.3
14320.2
14320.1
14320.6
14320.3
14321
14320.6
14320.5
14320.1
14320.3
14320.2
14320.1
14320.6
14320.3
14321
14320.5
14320.5
14320.1
14320.3
14320.2
14320.1
14320.6
14320.3
14321
14320.6
14320.5
14320.1
14320.3
14320.2
14320.1
14320.6
14320.3
14321
14320.5
-20990.9
-20990.1
-20987.8
-20988.5
-20991.8
-20989.4
-20987.6
-20990
-20991.7
-20990.9
-20990.1
-20987.8
-20988.5
-20991.8
-20989.4
-20987.6
-20990
-20991.7
-20990.9
-20990.1
-20987.8
-20988.5
-20991.9
-20989.4
-20987.6
-20990
-20991.7
-20990.9
-20990.1
-20987.8
-20988.5
-20991.9
-20989.4
-20987.6
-20990
-20991.6
-8953.65
-8954.04
-8953.89
-8954.39
-8953.54
-8954.73
-8954.06
-8954.04
-8953.85
-8953.64
-8954.03
-8953.88
-8954.39
-8953.54
-8954.73
-8954.06
-8954.04
-8953.86
-8953.64
-8954.03
-8953.89
-8954.39
-8953.55
-8954.74
-8954.07
-8954.05
-8953.86
-8953.64
-8954.02
-8953.88
-8954.39
-8953.54
-8954.73
-8954.06
-8954.04
-8953.86
42299.1
42298.9
42298.8
42299.4
42299.2
42299.3
42299.9
42299.6
42299.4
42299.1
42298.9
42298.8
42299.4
42299.2
42299.3
42299.9
42299.5
42299.4
42299.1
42298.9
42298.8
42299.4
42299.2
42299.3
42299.9
42299.6
42299.4
42299.1
42298.9
42298.8
42299.4
42299.2
42299.3
42299.9
42299.5
42299.4
7146.35
7150.51
7128.15
7134.7
7154.79
7139.01
7127.03
7143.58
7140.48
7146.43
7150.64
7128.25
7134.75
7154.84
7139.06
7127.06
7143.63
7140.53
7146.45
7150.68
7128.26
7134.74
7154.85
7139.05
7127.05
7143.6
7140.49
7146.42
7150.65
7128.24
7134.73
7154.83
7139.04
7127.06
7143.59
7140.46
6976.81
6974.74
6976.59
6972.75
6982.17
6970.67
6979.41
6976.59
6978.38
6976.82
6974.73
6976.56
6972.72
6982.15
6970.66
6979.4
6976.6
6978.4
6976.82
6974.74
6976.57
6972.73
6982.16
6970.67
6979.42
6976.61
6978.4
6976.85
6974.76
6976.59
6972.73
6982.15
6970.67
6979.4
6976.58
6978.37
58594
58594.3
58589.5
58602.8
58581.3
58606.5
58585.5
58598.1
58593
58594
58594.3
58589.5
58602.7
58581.3
58606.5
58585.5
58598.1
58593
58594
58594.3
58589.5
58602.8
58581.3
58606.5
58585.5
58598.1
58593
58594
58594.3
58589.5
58602.7
58581.3
58606.5
58585.5
58598.1
58593
)
;

boundaryField
{
    fixed
    {
        type            zeroGradient;
    }
    inside
    {
        type            zeroGradient;
    }
    outside
    {
        type            zeroGradient;
    }
}


// ************************************************************************* //
