/*--------------------------------*- C++ -*----------------------------------*\
| =========                 |                                                 |
| \\      /  F ield         | OpenFOAM: The Open Source CFD Toolbox           |
|  \\    /   O peration     | Version:  2312                                  |
|   \\  /    A nd           | Website:  www.openfoam.com                      |
|    \\/     M anipulation  |                                                 |
\*---------------------------------------------------------------------------*/
FoamFile
{
    version     2.0;
    format      ascii;
    arch        "LSB;label=32;scalar=64";
    class       volVectorField;
    location    "0.7";
    object      D_0_0;
}
// * * * * * * * * * * * * * * * * * * * * * * * * * * * * * * * * * * * * * //

dimensions      [0 1 0 0 0 0 0];

internalField   nonuniform List<vector> 
1620
(
(0.000119314 0.0003046 4.65241e-05)
(6.46083e-05 0.000320691 4.65238e-05)
(7.93961e-06 0.000327038 4.6524e-05)
(-4.89704e-05 0.000323449 4.65245e-05)
(-0.000104393 0.000310032 4.65246e-05)
(-0.000156643 0.000287194 4.65243e-05)
(-0.000204134 0.00025563 4.65245e-05)
(-0.000245423 0.000216298 4.65245e-05)
(-0.000279254 0.000170395 4.65241e-05)
(-0.0003046 0.000119314 4.6524e-05)
(-0.000320691 6.46083e-05 4.65238e-05)
(-0.000327038 7.93959e-06 4.6524e-05)
(-0.000323449 -4.89705e-05 4.65245e-05)
(-0.000310032 -0.000104393 4.65246e-05)
(-0.000287194 -0.000156644 4.65243e-05)
(-0.00025563 -0.000204134 4.65245e-05)
(-0.000216298 -0.000245423 4.65245e-05)
(-0.000170395 -0.000279254 4.65241e-05)
(-0.000119314 -0.0003046 4.6524e-05)
(-6.46083e-05 -0.000320691 4.65238e-05)
(-7.93957e-06 -0.000327038 4.6524e-05)
(4.89705e-05 -0.000323449 4.65245e-05)
(0.000104393 -0.000310032 4.65246e-05)
(0.000156644 -0.000287194 4.65243e-05)
(0.000204134 -0.00025563 4.65245e-05)
(0.000245423 -0.000216298 4.65245e-05)
(0.000279254 -0.000170395 4.65241e-05)
(0.0003046 -0.000119314 4.65241e-05)
(0.000320691 -6.46083e-05 4.65238e-05)
(0.000327038 -7.93959e-06 4.6524e-05)
(0.000323449 4.89705e-05 4.65245e-05)
(0.000310032 0.000104393 4.65246e-05)
(0.000287194 0.000156644 4.65243e-05)
(0.00025563 0.000204134 4.65245e-05)
(0.000216298 0.000245423 4.65245e-05)
(0.000170395 0.000279254 4.65241e-05)
(5.54725e-05 0.000335372 7.36751e-05)
(-3.60695e-06 0.00033991 7.3675e-05)
(-6.25765e-05 0.000334119 7.36751e-05)
(-0.000119645 0.000318177 7.36753e-05)
(-0.000173078 0.000292567 7.36755e-05)
(-0.000221253 0.000258067 7.36753e-05)
(-0.000262704 0.000215727 7.36752e-05)
(-0.000296174 0.000166831 7.36752e-05)
(-0.000320644 0.000112866 7.3675e-05)
(-0.000335372 5.54725e-05 7.36751e-05)
(-0.00033991 -3.60697e-06 7.3675e-05)
(-0.000334119 -6.25765e-05 7.36751e-05)
(-0.000318177 -0.000119645 7.36753e-05)
(-0.000292567 -0.000173078 7.36755e-05)
(-0.000258067 -0.000221253 7.36753e-05)
(-0.000215727 -0.000262704 7.36752e-05)
(-0.000166831 -0.000296174 7.36752e-05)
(-0.000112866 -0.000320644 7.3675e-05)
(-5.54725e-05 -0.000335372 7.3675e-05)
(3.60699e-06 -0.00033991 7.3675e-05)
(6.25765e-05 -0.000334119 7.36751e-05)
(0.000119645 -0.000318177 7.36753e-05)
(0.000173078 -0.000292567 7.36755e-05)
(0.000221253 -0.000258067 7.36753e-05)
(0.000262704 -0.000215727 7.36752e-05)
(0.000296174 -0.000166831 7.36752e-05)
(0.000320644 -0.000112866 7.3675e-05)
(0.000335372 -5.54725e-05 7.36751e-05)
(0.00033991 3.60697e-06 7.3675e-05)
(0.000334119 6.25765e-05 7.36751e-05)
(0.000318177 0.000119645 7.36753e-05)
(0.000292567 0.000173078 7.36755e-05)
(0.000258067 0.000221253 7.36753e-05)
(0.000215727 0.000262704 7.36752e-05)
(0.000166831 0.000296174 7.36752e-05)
(0.000112866 0.000320644 7.3675e-05)
(-3.91943e-05 0.000354585 8.82778e-05)
(-0.000100172 0.000342393 8.8278e-05)
(-0.000158106 0.000319796 8.82779e-05)
(-0.000211236 0.000287483 8.82779e-05)
(-0.000257948 0.000246435 8.82781e-05)
(-0.000296822 0.000197898 8.8278e-05)
(-0.000326677 0.000143349 8.8278e-05)
(-0.000346606 8.44445e-05 8.82777e-05)
(-0.000356004 2.29741e-05 8.82777e-05)
(-0.000354585 -3.91943e-05 8.82778e-05)
(-0.000342393 -0.000100172 8.8278e-05)
(-0.000319796 -0.000158106 8.82779e-05)
(-0.000287483 -0.000211236 8.82779e-05)
(-0.000246435 -0.000257948 8.82781e-05)
(-0.000197898 -0.000296822 8.8278e-05)
(-0.000143349 -0.000326677 8.8278e-05)
(-8.44445e-05 -0.000346606 8.82777e-05)
(-2.29741e-05 -0.000356004 8.82777e-05)
(3.91943e-05 -0.000354585 8.82778e-05)
(0.000100172 -0.000342393 8.8278e-05)
(0.000158106 -0.000319796 8.82779e-05)
(0.000211236 -0.000287483 8.82779e-05)
(0.000257948 -0.000246435 8.82781e-05)
(0.000296822 -0.000197898 8.8278e-05)
(0.000326677 -0.000143349 8.8278e-05)
(0.000346606 -8.44445e-05 8.82777e-05)
(0.000356004 -2.29741e-05 8.82777e-05)
(0.000354585 3.91943e-05 8.82778e-05)
(0.000342393 0.000100172 8.8278e-05)
(0.000319796 0.000158106 8.82779e-05)
(0.000287483 0.000211236 8.82779e-05)
(0.000246435 0.000257948 8.82781e-05)
(0.000197898 0.000296822 8.8278e-05)
(0.000143349 0.000326677 8.8278e-05)
(8.44445e-05 0.000346606 8.82777e-05)
(2.29741e-05 0.000356004 8.82777e-05)
(0.000227699 0.0009052 0.00018806)
(6.70535e-05 0.000930988 0.000188059)
(-9.56293e-05 0.000928488 0.00018806)
(-0.000255406 0.000897776 0.000188061)
(-0.000407423 0.000839786 0.000188062)
(-0.000547061 0.00075628 0.000188061)
(-0.000670077 0.000649794 0.000188061)
(-0.000772733 0.000523564 0.000188061)
(-0.000851908 0.000381426 0.00018806)
(-0.0009052 0.000227699 0.00018806)
(-0.000930988 6.70534e-05 0.000188059)
(-0.000928488 -9.56294e-05 0.00018806)
(-0.000897776 -0.000255406 0.000188061)
(-0.000839786 -0.000407423 0.000188062)
(-0.00075628 -0.000547061 0.000188061)
(-0.000649794 -0.000670077 0.000188061)
(-0.000523564 -0.000772733 0.000188061)
(-0.000381426 -0.000851909 0.00018806)
(-0.000227699 -0.0009052 0.00018806)
(-6.70534e-05 -0.000930988 0.000188059)
(9.56294e-05 -0.000928488 0.00018806)
(0.000255407 -0.000897776 0.000188061)
(0.000407423 -0.000839786 0.000188062)
(0.000547061 -0.00075628 0.000188061)
(0.000670077 -0.000649794 0.000188061)
(0.000772733 -0.000523564 0.000188061)
(0.000851909 -0.000381426 0.00018806)
(0.0009052 -0.000227699 0.00018806)
(0.000930988 -6.70534e-05 0.000188059)
(0.000928488 9.56294e-05 0.00018806)
(0.000897776 0.000255406 0.000188061)
(0.000839786 0.000407423 0.000188062)
(0.00075628 0.000547061 0.000188061)
(0.000649794 0.000670077 0.000188061)
(0.000523564 0.000772733 0.000188061)
(0.000381426 0.000851909 0.00018806)
(0.000118695 0.00098571 0.000263486)
(-5.42741e-05 0.000991346 0.000263485)
(-0.000225595 0.000966861 0.000263486)
(-0.000390061 0.000912999 0.000263487)
(-0.000542676 0.000831395 0.000263487)
(-0.000678802 0.000724529 0.000263487)
(-0.000794302 0.000595649 0.000263486)
(-0.000885668 0.00044867 0.000263486)
(-0.000950124 0.000288059 0.000263486)
(-0.00098571 0.000118695 0.000263486)
(-0.000991346 -5.42741e-05 0.000263485)
(-0.000966861 -0.000225595 0.000263486)
(-0.000912999 -0.000390061 0.000263487)
(-0.000831395 -0.000542676 0.000263487)
(-0.000724529 -0.000678802 0.000263487)
(-0.000595649 -0.000794302 0.000263486)
(-0.00044867 -0.000885668 0.000263486)
(-0.000288059 -0.000950124 0.000263486)
(-0.000118695 -0.00098571 0.000263486)
(5.42742e-05 -0.000991346 0.000263485)
(0.000225595 -0.000966861 0.000263486)
(0.000390061 -0.000912999 0.000263487)
(0.000542676 -0.000831395 0.000263487)
(0.000678802 -0.000724529 0.000263487)
(0.000794302 -0.000595649 0.000263486)
(0.000885668 -0.00044867 0.000263486)
(0.000950124 -0.000288059 0.000263486)
(0.00098571 -0.000118695 0.000263486)
(0.000991346 5.42741e-05 0.000263485)
(0.000966861 0.000225595 0.000263486)
(0.000912999 0.000390061 0.000263487)
(0.000831395 0.000542676 0.000263487)
(0.000724529 0.000678802 0.000263487)
(0.000595649 0.000794302 0.000263486)
(0.00044867 0.000885668 0.000263486)
(0.000288059 0.000950124 0.000263486)
(-2.61531e-05 0.00105254 0.000320737)
(-0.000208527 0.00103201 0.000320737)
(-0.000384565 0.00098012 0.000320737)
(-0.000548918 0.00089845 0.000320737)
(-0.000696593 0.000789482 0.000320737)
(-0.000823102 0.000656525 0.000320737)
(-0.000924602 0.00050362 0.000320737)
(-0.000998008 0.000335414 0.000320737)
(-0.00104109 0.000157016 0.000320737)
(-0.00105254 -2.61531e-05 0.000320737)
(-0.00103201 -0.000208527 0.000320737)
(-0.00098012 -0.000384565 0.000320737)
(-0.00089845 -0.000548918 0.000320737)
(-0.000789482 -0.000696593 0.000320737)
(-0.000656525 -0.000823102 0.000320737)
(-0.00050362 -0.000924602 0.000320737)
(-0.000335414 -0.000998008 0.000320737)
(-0.000157016 -0.00104109 0.000320737)
(2.61532e-05 -0.00105254 0.000320737)
(0.000208527 -0.00103201 0.000320737)
(0.000384565 -0.00098012 0.000320737)
(0.000548918 -0.00089845 0.000320737)
(0.000696593 -0.000789482 0.000320737)
(0.000823102 -0.000656525 0.000320737)
(0.000924602 -0.00050362 0.000320737)
(0.000998008 -0.000335414 0.000320737)
(0.00104109 -0.000157016 0.000320737)
(0.00105254 2.61531e-05 0.000320737)
(0.00103201 0.000208527 0.000320737)
(0.00098012 0.000384565 0.000320737)
(0.00089845 0.000548918 0.000320737)
(0.000789482 0.000696593 0.000320737)
(0.000656525 0.000823102 0.000320737)
(0.000503621 0.000924602 0.000320737)
(0.000335414 0.000998008 0.000320737)
(0.000157016 0.00104109 0.000320737)
(0.000279118 0.00151097 0.000422997)
(1.25011e-05 0.00153648 0.000422997)
(-0.000254496 0.00151531 0.000422997)
(-0.000513761 0.0014481 0.000422998)
(-0.000757414 0.00133688 0.000422999)
(-0.000978054 0.00118505 0.000422999)
(-0.00116898 0.000997208 0.000422999)
(-0.00132438 0.000779067 0.000422998)
(-0.00143955 0.000537255 0.000422997)
(-0.00151097 0.000279118 0.000422997)
(-0.00153648 1.2501e-05 0.000422997)
(-0.00151531 -0.000254496 0.000422997)
(-0.0014481 -0.000513761 0.000422998)
(-0.00133688 -0.000757414 0.000422999)
(-0.00118505 -0.000978054 0.000422999)
(-0.000997208 -0.00116898 0.000422999)
(-0.000779067 -0.00132438 0.000422998)
(-0.000537255 -0.00143955 0.000422997)
(-0.000279118 -0.00151097 0.000422997)
(-1.25009e-05 -0.00153648 0.000422997)
(0.000254496 -0.00151531 0.000422997)
(0.000513761 -0.0014481 0.000422998)
(0.000757414 -0.00133688 0.000422999)
(0.000978054 -0.00118505 0.000422999)
(0.00116898 -0.000997208 0.000422999)
(0.00132438 -0.000779067 0.000422998)
(0.00143955 -0.000537255 0.000422997)
(0.00151097 -0.000279118 0.000422997)
(0.00153648 -1.2501e-05 0.000422997)
(0.00151531 0.000254496 0.000422997)
(0.0014481 0.000513761 0.000422998)
(0.00133688 0.000757414 0.000422999)
(0.00118505 0.000978054 0.000422999)
(0.000997208 0.00116898 0.000422999)
(0.000779067 0.00132438 0.000422998)
(0.000537255 0.00143955 0.000422997)
(0.000131005 0.0016116 0.000522677)
(-0.000150836 0.00160986 0.000522677)
(-0.000428094 0.00155921 0.000522677)
(-0.000692344 0.00146119 0.000522678)
(-0.000935559 0.00131877 0.000522678)
(-0.00115035 0.00113627 0.000522678)
(-0.00133018 0.000919254 0.000522678)
(-0.0014696 0.000674304 0.000522678)
(-0.00156437 0.000408866 0.000522677)
(-0.0016116 0.000131005 0.000522677)
(-0.00160986 -0.000150836 0.000522677)
(-0.00155921 -0.000428094 0.000522677)
(-0.00146119 -0.000692344 0.000522678)
(-0.00131877 -0.000935559 0.000522678)
(-0.00113627 -0.00115035 0.000522678)
(-0.000919254 -0.00133018 0.000522678)
(-0.000674304 -0.0014696 0.000522678)
(-0.000408866 -0.00156437 0.000522677)
(-0.000131005 -0.0016116 0.000522677)
(0.000150836 -0.00160986 0.000522677)
(0.000428094 -0.00155921 0.000522677)
(0.000692344 -0.00146119 0.000522678)
(0.000935559 -0.00131877 0.000522678)
(0.00115035 -0.00113627 0.000522678)
(0.00133018 -0.000919254 0.000522678)
(0.0014696 -0.000674304 0.000522678)
(0.00156437 -0.000408866 0.000522677)
(0.0016116 -0.000131005 0.000522677)
(0.00160986 0.000150836 0.000522677)
(0.00155921 0.000428094 0.000522677)
(0.00146119 0.000692344 0.000522678)
(0.00131877 0.000935559 0.000522678)
(0.00113627 0.00115035 0.000522678)
(0.000919254 0.00133018 0.000522678)
(0.000674304 0.0014696 0.000522678)
(0.000408866 0.00156437 0.000522677)
(-4.85933e-05 0.00169588 0.000604677)
(-0.000342342 0.00166168 0.000604677)
(-0.000625688 0.00157699 0.000604677)
(-0.000890024 0.00144438 0.000604677)
(-0.00112732 0.00126789 0.000604677)
(-0.00133036 0.00105287 0.000604678)
(-0.00149297 0.000805859 0.000604677)
(-0.00161023 0.000534364 0.000604677)
(-0.00167856 0.000246632 0.000604677)
(-0.00169588 -4.85934e-05 0.000604677)
(-0.00166168 -0.000342342 0.000604677)
(-0.00157699 -0.000625688 0.000604677)
(-0.00144438 -0.000890024 0.000604677)
(-0.00126789 -0.00112732 0.000604677)
(-0.00105287 -0.00133036 0.000604677)
(-0.000805859 -0.00149297 0.000604677)
(-0.000534364 -0.00161023 0.000604677)
(-0.000246632 -0.00167856 0.000604677)
(4.85935e-05 -0.00169588 0.000604677)
(0.000342342 -0.00166168 0.000604677)
(0.000625688 -0.00157699 0.000604677)
(0.000890024 -0.00144438 0.000604677)
(0.00112732 -0.00126789 0.000604677)
(0.00133036 -0.00105287 0.000604677)
(0.00149297 -0.000805859 0.000604677)
(0.00161023 -0.000534364 0.000604677)
(0.00167856 -0.000246632 0.000604677)
(0.00169588 4.85934e-05 0.000604677)
(0.00166168 0.000342342 0.000604677)
(0.00157699 0.000625688 0.000604677)
(0.00144438 0.000890024 0.000604677)
(0.00126789 0.00112732 0.000604677)
(0.00105287 0.00133036 0.000604678)
(0.000805859 0.00149297 0.000604677)
(0.000534364 0.00161023 0.000604677)
(0.000246632 0.00167856 0.000604677)
(0.000247004 0.00210411 0.000703314)
(-0.000122124 0.00211504 0.000703314)
(-0.000487541 0.0020617 0.000703314)
(-0.000838144 0.00194572 0.000703315)
(-0.00116328 0.00177061 0.000703316)
(-0.00145307 0.00154171 0.000703317)
(-0.00169871 0.00126597 0.000703316)
(-0.00189274 0.000951756 0.000703316)
(-0.00202925 0.000608626 0.000703315)
(-0.00210411 0.000247003 0.000703314)
(-0.00211504 -0.000122124 0.000703314)
(-0.0020617 -0.000487541 0.000703314)
(-0.00194572 -0.000838144 0.000703315)
(-0.00177061 -0.00116328 0.000703316)
(-0.00154171 -0.00145307 0.000703316)
(-0.00126597 -0.00169871 0.000703316)
(-0.000951755 -0.00189274 0.000703316)
(-0.000608626 -0.00202925 0.000703315)
(-0.000247003 -0.00210411 0.000703314)
(0.000122124 -0.00211504 0.000703314)
(0.000487542 -0.0020617 0.000703314)
(0.000838144 -0.00194572 0.000703315)
(0.00116328 -0.00177061 0.000703316)
(0.00145307 -0.00154171 0.000703317)
(0.00169871 -0.00126597 0.000703316)
(0.00189274 -0.000951756 0.000703316)
(0.00202925 -0.000608626 0.000703315)
(0.00210411 -0.000247003 0.000703314)
(0.00211504 0.000122124 0.000703314)
(0.0020617 0.000487541 0.000703314)
(0.00194572 0.000838144 0.000703315)
(0.00177061 0.00116328 0.000703316)
(0.00154171 0.00145307 0.000703317)
(0.00126597 0.00169871 0.000703316)
(0.000951756 0.00189274 0.000703316)
(0.000608626 0.00202925 0.000703315)
(8.23181e-05 0.00219383 0.000810713)
(-0.000299888 0.0021748 0.000810713)
(-0.000672982 0.00208969 0.000810713)
(-0.00102563 0.00194108 0.000810713)
(-0.00134711 0.00173349 0.000810714)
(-0.00162766 0.00147323 0.000810714)
(-0.00185876 0.00116821 0.000810714)
(-0.00203337 0.00082769 0.000810714)
(-0.00214621 0.000462023 0.000810713)
(-0.00219383 8.2318e-05 0.000810713)
(-0.0021748 -0.000299888 0.000810713)
(-0.00208969 -0.000672982 0.000810713)
(-0.00194108 -0.00102563 0.000810713)
(-0.00173349 -0.00134711 0.000810713)
(-0.00147323 -0.00162766 0.000810714)
(-0.00116821 -0.00185876 0.000810714)
(-0.00082769 -0.00203337 0.000810714)
(-0.000462023 -0.00214621 0.000810713)
(-8.23179e-05 -0.00219383 0.000810713)
(0.000299888 -0.0021748 0.000810713)
(0.000672982 -0.00208969 0.000810713)
(0.00102563 -0.00194108 0.000810713)
(0.00134711 -0.00173349 0.000810713)
(0.00162766 -0.00147323 0.000810714)
(0.00185876 -0.00116821 0.000810714)
(0.00203337 -0.00082769 0.000810714)
(0.00214621 -0.000462023 0.000810713)
(0.00219384 -8.2318e-05 0.000810713)
(0.0021748 0.000299888 0.000810713)
(0.00208969 0.000672982 0.000810713)
(0.00194108 0.00102563 0.000810713)
(0.00173349 0.00134711 0.000810714)
(0.00147323 0.00162766 0.000810714)
(0.00116821 0.00185876 0.000810714)
(0.00082769 0.00203337 0.000810714)
(0.000462023 0.00214621 0.000810713)
(-0.000109342 0.00226703 0.000900815)
(-0.000501346 0.0022136 0.000900815)
(-0.000878117 0.00209292 0.000900815)
(-0.00122821 0.00190864 0.000900815)
(-0.00154098 0.00166636 0.000900815)
(-0.00180693 0.00137346 0.000900815)
(-0.00201798 0.00103882 0.000900815)
(-0.00216771 0.000672623 0.000900815)
(-0.00225158 0.000285985 0.000900815)
(-0.00226703 -0.000109342 0.000900815)
(-0.0022136 -0.000501346 0.000900815)
(-0.00209292 -0.000878117 0.000900815)
(-0.00190864 -0.00122821 0.000900815)
(-0.00166636 -0.00154098 0.000900814)
(-0.00137346 -0.00180693 0.000900815)
(-0.00103882 -0.00201798 0.000900815)
(-0.000672623 -0.00216771 0.000900815)
(-0.000285985 -0.00225158 0.000900815)
(0.000109342 -0.00226703 0.000900815)
(0.000501346 -0.0022136 0.000900815)
(0.000878117 -0.00209292 0.000900815)
(0.00122821 -0.00190864 0.000900815)
(0.00154098 -0.00166636 0.000900814)
(0.00180693 -0.00137346 0.000900815)
(0.00201798 -0.00103882 0.000900815)
(0.00216771 -0.000672623 0.000900815)
(0.00225158 -0.000285985 0.000900815)
(0.00226703 0.000109342 0.000900815)
(0.0022136 0.000501346 0.000900815)
(0.00209292 0.000878117 0.000900815)
(0.00190864 0.00122821 0.000900815)
(0.00166636 0.00154098 0.000900815)
(0.00137346 0.00180693 0.000900815)
(0.00103882 0.00201798 0.000900815)
(0.000672623 0.00216771 0.000900815)
(0.000285985 0.00225158 0.000900815)
(0.000142776 0.00265744 0.00100375)
(-0.000320853 0.00264186 0.00100375)
(-0.000774733 0.00254601 0.00100375)
(-0.00120507 0.0023728 0.00100375)
(-0.0015988 0.00212749 0.00100375)
(-0.00194394 0.00181754 0.00100375)
(-0.00223002 0.00145237 0.00100375)
(-0.00244835 0.00104306 0.00100375)
(-0.00259228 0.000602067 0.00100375)
(-0.00265744 0.000142776 0.00100375)
(-0.00264186 -0.000320853 0.00100375)
(-0.00254601 -0.000774734 0.00100375)
(-0.0023728 -0.00120507 0.00100375)
(-0.00212749 -0.0015988 0.00100375)
(-0.00181754 -0.00194394 0.00100375)
(-0.00145237 -0.00223002 0.00100375)
(-0.00104306 -0.00244835 0.00100375)
(-0.000602067 -0.00259228 0.00100375)
(-0.000142776 -0.00265744 0.00100375)
(0.000320853 -0.00264186 0.00100375)
(0.000774734 -0.00254601 0.00100375)
(0.00120507 -0.0023728 0.00100375)
(0.0015988 -0.00212749 0.00100375)
(0.00194394 -0.00181754 0.00100375)
(0.00223002 -0.00145237 0.00100375)
(0.00244835 -0.00104306 0.00100375)
(0.00259228 -0.000602067 0.00100375)
(0.00265744 -0.000142776 0.00100375)
(0.00264186 0.000320853 0.00100375)
(0.00254601 0.000774734 0.00100375)
(0.0023728 0.00120507 0.00100375)
(0.00212749 0.0015988 0.00100375)
(0.00181754 0.00194394 0.00100375)
(0.00145237 0.00223002 0.00100375)
(0.00104306 0.00244835 0.00100375)
(0.000602067 0.00259228 0.00100375)
(-2.24554e-05 0.00271411 0.00110764)
(-0.000493414 0.00266898 0.00110764)
(-0.000949381 0.00254275 0.00110764)
(-0.0013765 0.00233926 0.00110764)
(-0.0017618 0.00206469 0.00110764)
(-0.00209356 0.00172739 0.00110764)
(-0.00236171 0.00133761 0.00110764)
(-0.00255811 0.000907179 0.00110764)
(-0.00267677 0.000449186 0.00110764)
(-0.00271411 -2.24555e-05 0.00110764)
(-0.00266898 -0.000493414 0.00110764)
(-0.00254275 -0.000949381 0.00110764)
(-0.00233926 -0.0013765 0.00110764)
(-0.00206469 -0.0017618 0.00110764)
(-0.00172739 -0.00209356 0.00110764)
(-0.00133761 -0.00236171 0.00110764)
(-0.000907179 -0.00255811 0.00110764)
(-0.000449186 -0.00267677 0.00110764)
(2.24557e-05 -0.00271411 0.00110764)
(0.000493415 -0.00266898 0.00110764)
(0.000949381 -0.00254275 0.00110764)
(0.0013765 -0.00233926 0.00110764)
(0.0017618 -0.00206469 0.00110764)
(0.00209356 -0.00172739 0.00110764)
(0.00236171 -0.00133761 0.00110764)
(0.00255811 -0.000907179 0.00110764)
(0.00267677 -0.000449186 0.00110764)
(0.00271411 2.24556e-05 0.00110764)
(0.00266898 0.000493414 0.00110764)
(0.00254275 0.000949381 0.00110764)
(0.00233926 0.0013765 0.00110764)
(0.00206469 0.0017618 0.00110764)
(0.00172739 0.00209356 0.00110764)
(0.00133761 0.00236171 0.00110764)
(0.000907179 0.00255811 0.00110764)
(0.000449186 0.00267677 0.00110764)
(-0.000210435 0.00275578 0.00119461)
(-0.000685774 0.00267737 0.0011946)
(-0.00114028 0.00251761 0.00119461)
(-0.00156013 0.00228136 0.0011946)
(-0.00193258 0.00197578 0.00119461)
(-0.00224631 0.00161018 0.0011946)
(-0.00249179 0.00119565 0.00119461)
(-0.00266156 0.000744788 0.00119461)
(-0.00275045 0.000271299 0.00119461)
(-0.00275578 -0.000210435 0.00119461)
(-0.00267737 -0.000685774 0.0011946)
(-0.00251761 -0.00114028 0.0011946)
(-0.00228136 -0.00156013 0.0011946)
(-0.00197578 -0.00193258 0.0011946)
(-0.00161018 -0.00224631 0.0011946)
(-0.00119565 -0.00249179 0.0011946)
(-0.000744788 -0.00266156 0.0011946)
(-0.000271298 -0.00275045 0.00119461)
(0.000210435 -0.00275578 0.00119461)
(0.000685774 -0.00267737 0.0011946)
(0.00114028 -0.00251761 0.00119461)
(0.00156013 -0.00228136 0.0011946)
(0.00193258 -0.00197578 0.00119461)
(0.00224631 -0.00161018 0.0011946)
(0.00249179 -0.00119565 0.00119461)
(0.00266156 -0.000744788 0.00119461)
(0.00275045 -0.000271298 0.00119461)
(0.00275578 0.000210435 0.00119461)
(0.00267737 0.000685774 0.0011946)
(0.00251761 0.00114028 0.00119461)
(0.00228136 0.00156013 0.0011946)
(0.00197578 0.00193258 0.00119461)
(0.00161018 0.00224631 0.0011946)
(0.00119565 0.00249179 0.00119461)
(0.000744788 0.00266156 0.00119461)
(0.000271299 0.00275045 0.00119461)
(-1.169e-05 0.00314341 0.00131232)
(-0.00055736 0.00309363 0.00131232)
(-0.00108609 0.00294984 0.00131232)
(-0.00158183 0.00271643 0.00131232)
(-0.0020295 0.00240048 0.00131232)
(-0.0024155 0.00201159 0.00131232)
(-0.00272812 0.00156158 0.00131232)
(-0.00295784 0.00106412 0.00131232)
(-0.00309768 0.000534335 0.00131232)
(-0.00314341 -1.16902e-05 0.00131232)
(-0.00309363 -0.00055736 0.00131232)
(-0.00294984 -0.00108609 0.00131232)
(-0.00271643 -0.00158183 0.00131232)
(-0.00240048 -0.0020295 0.00131232)
(-0.00201159 -0.0024155 0.00131232)
(-0.00156158 -0.00272812 0.00131232)
(-0.00106412 -0.00295784 0.00131232)
(-0.000534335 -0.00309768 0.00131232)
(1.16904e-05 -0.00314341 0.00131232)
(0.00055736 -0.00309363 0.00131232)
(0.00108609 -0.00294984 0.00131232)
(0.00158183 -0.00271643 0.00131232)
(0.0020295 -0.00240048 0.00131232)
(0.0024155 -0.00201159 0.00131232)
(0.00272812 -0.00156158 0.00131232)
(0.00295784 -0.00106412 0.00131232)
(0.00309768 -0.000534335 0.00131232)
(0.00314341 1.16902e-05 0.00131232)
(0.00309363 0.00055736 0.00131232)
(0.00294984 0.00108609 0.00131232)
(0.00271643 0.00158183 0.00131232)
(0.00240048 0.0020295 0.00131232)
(0.00201159 0.0024155 0.00131232)
(0.00156158 0.00272812 0.00131232)
(0.00106412 0.00295784 0.00131232)
(0.000534335 0.00309768 0.00131232)
(-0.000169556 0.00315386 0.00140494)
(-0.000714643 0.0030765 0.00140494)
(-0.00123801 0.00290567 0.00140494)
(-0.00172377 0.00264655 0.00140494)
(-0.00215715 0.00230701 0.00140494)
(-0.00252498 0.00189738 0.00140494)
(-0.0028161 0.00143009 0.00140494)
(-0.00302165 0.000919354 0.00140494)
(-0.00313539 0.000380682 0.00140494)
(-0.00315386 -0.000169556 0.00140494)
(-0.0030765 -0.000714643 0.00140494)
(-0.00290567 -0.00123801 0.00140494)
(-0.00264655 -0.00172377 0.00140494)
(-0.00230701 -0.00215715 0.00140494)
(-0.00189738 -0.00252498 0.00140494)
(-0.00143009 -0.0028161 0.00140494)
(-0.000919354 -0.00302165 0.00140494)
(-0.000380682 -0.00313539 0.00140494)
(0.000169556 -0.00315386 0.00140494)
(0.000714643 -0.0030765 0.00140494)
(0.00123801 -0.00290567 0.00140494)
(0.00172377 -0.00264655 0.00140494)
(0.00215715 -0.00230701 0.00140494)
(0.00252498 -0.00189738 0.00140494)
(0.0028161 -0.00143009 0.00140494)
(0.00302165 -0.000919354 0.00140494)
(0.00313539 -0.000380682 0.00140494)
(0.00315386 0.000169556 0.00140494)
(0.0030765 0.000714643 0.00140494)
(0.00290567 0.00123801 0.00140494)
(0.00264655 0.00172377 0.00140494)
(0.00230701 0.00215715 0.00140494)
(0.00189738 0.00252498 0.00140494)
(0.00143009 0.0028161 0.00140494)
(0.000919354 0.00302165 0.00140494)
(0.000380682 0.00313539 0.00140494)
(-0.000345616 0.0031523 0.00148066)
(-0.000887758 0.0030444 0.00148066)
(-0.00140292 0.00284399 0.00148066)
(-0.00187546 0.00255717 0.00148066)
(-0.00229102 0.00219265 0.00148066)
(-0.00263696 0.0017615 0.00148066)
(-0.00290278 0.00127684 0.00148066)
(-0.0030804 0.000753378 0.00148066)
(-0.00316443 0.000207026 0.00148066)
(-0.0031523 -0.000345617 0.00148066)
(-0.0030444 -0.000887758 0.00148066)
(-0.00284399 -0.00140293 0.00148066)
(-0.00255717 -0.00187546 0.00148066)
(-0.00219265 -0.00229102 0.00148066)
(-0.0017615 -0.00263696 0.00148066)
(-0.00127684 -0.00290278 0.00148066)
(-0.000753378 -0.0030804 0.00148066)
(-0.000207026 -0.00316443 0.00148066)
(0.000345617 -0.0031523 0.00148066)
(0.000887758 -0.0030444 0.00148066)
(0.00140293 -0.00284399 0.00148066)
(0.00187546 -0.00255717 0.00148066)
(0.00229102 -0.00219265 0.00148066)
(0.00263696 -0.0017615 0.00148066)
(0.00290278 -0.00127684 0.00148066)
(0.0030804 -0.000753378 0.00148066)
(0.00316443 -0.000207026 0.00148066)
(0.0031523 0.000345617 0.00148066)
(0.0030444 0.000887758 0.00148066)
(0.00284399 0.00140293 0.00148066)
(0.00255717 0.00187546 0.00148066)
(0.00219265 0.00229102 0.00148066)
(0.0017615 0.00263696 0.00148066)
(0.00127684 0.00290278 0.00148066)
(0.000753378 0.0030804 0.00148066)
(0.000207026 0.00316443 0.00148066)
(-0.00018985 0.00353893 0.00162992)
(-0.000801495 0.0034522 0.00162992)
(-0.00138879 0.00326058 0.00162992)
(-0.00193388 0.00296988 0.00162992)
(-0.00242021 0.00258894 0.00162992)
(-0.00283301 0.00212935 0.00162992)
(-0.00315973 0.00160505 0.00162992)
(-0.00339044 0.00103198 0.00162992)
(-0.00351813 0.000427562 0.00162992)
(-0.00353893 -0.00018985 0.00162992)
(-0.0034522 -0.000801495 0.00162992)
(-0.00326058 -0.00138879 0.00162992)
(-0.00296988 -0.00193388 0.00162992)
(-0.00258894 -0.00242021 0.00162992)
(-0.00212935 -0.00283301 0.00162992)
(-0.00160505 -0.00315973 0.00162992)
(-0.00103198 -0.00339044 0.00162992)
(-0.000427561 -0.00351813 0.00162992)
(0.000189851 -0.00353893 0.00162992)
(0.000801495 -0.0034522 0.00162992)
(0.00138879 -0.00326058 0.00162992)
(0.00193388 -0.00296988 0.00162992)
(0.00242021 -0.00258894 0.00162992)
(0.00283301 -0.00212935 0.00162992)
(0.00315973 -0.00160505 0.00162992)
(0.00339044 -0.00103198 0.00162992)
(0.00351813 -0.000427561 0.00162992)
(0.00353893 0.00018985 0.00162992)
(0.0034522 0.000801495 0.00162992)
(0.00326058 0.00138879 0.00162992)
(0.00296988 0.00193388 0.00162992)
(0.00258894 0.00242021 0.00162992)
(0.00212935 0.00283301 0.00162992)
(0.00160505 0.00315973 0.00162992)
(0.00103198 0.00339044 0.00162992)
(0.000427562 0.00351813 0.00162992)
(-0.000338756 0.00349512 0.00170462)
(-0.000940531 0.0033832 0.00170462)
(-0.00151373 0.00316848 0.00170462)
(-0.00204093 0.00285748 0.00170462)
(-0.00250612 0.00245967 0.00170462)
(-0.00289516 0.00198712 0.00170462)
(-0.00319624 0.00145419 0.00170462)
(-0.0034002 0.000877074 0.00170462)
(-0.00350084 0.00027331 0.00170462)
(-0.00349512 -0.000338756 0.00170462)
(-0.0033832 -0.000940531 0.00170462)
(-0.00316848 -0.00151373 0.00170462)
(-0.00285748 -0.00204093 0.00170462)
(-0.00245967 -0.00250612 0.00170462)
(-0.00198712 -0.00289516 0.00170462)
(-0.00145419 -0.00319624 0.00170462)
(-0.000877074 -0.0034002 0.00170462)
(-0.00027331 -0.00350084 0.00170462)
(0.000338757 -0.00349512 0.00170462)
(0.000940531 -0.0033832 0.00170462)
(0.00151373 -0.00316848 0.00170462)
(0.00204093 -0.00285748 0.00170462)
(0.00250612 -0.00245967 0.00170462)
(0.00289516 -0.00198712 0.00170462)
(0.00319624 -0.00145419 0.00170462)
(0.0034002 -0.000877074 0.00170462)
(0.00350084 -0.00027331 0.00170462)
(0.00349512 0.000338756 0.00170462)
(0.0033832 0.000940531 0.00170462)
(0.00316848 0.00151373 0.00170462)
(0.00285748 0.00204093 0.00170462)
(0.00245967 0.00250612 0.00170462)
(0.00198712 0.00289516 0.00170462)
(0.00145419 0.00319624 0.00170462)
(0.000877075 0.0034002 0.00170462)
(0.00027331 0.00350084 0.00170462)
(-0.00050048 0.00344416 0.00176183)
(-0.00109095 0.00330493 0.00176183)
(-0.00164827 0.00306528 0.00176183)
(-0.00215551 0.00273249 0.00176183)
(-0.00259725 0.00231668 0.00176183)
(-0.00296008 0.00183048 0.00176183)
(-0.00323297 0.00128865 0.00176183)
(-0.00340763 0.000707677 0.00176183)
(-0.00347875 0.000105197 0.00176183)
(-0.00344416 -0.000500481 0.00176183)
(-0.00330493 -0.00109095 0.00176183)
(-0.00306528 -0.00164827 0.00176183)
(-0.00273249 -0.00215551 0.00176183)
(-0.00231668 -0.00259725 0.00176183)
(-0.00183048 -0.00296008 0.00176183)
(-0.00128865 -0.00323297 0.00176183)
(-0.000707676 -0.00340763 0.00176183)
(-0.000105197 -0.00347875 0.00176183)
(0.000500481 -0.00344416 0.00176183)
(0.00109095 -0.00330493 0.00176183)
(0.00164827 -0.00306528 0.00176183)
(0.00215551 -0.00273249 0.00176183)
(0.00259725 -0.00231668 0.00176183)
(0.00296008 -0.00183048 0.00176183)
(0.00323297 -0.00128865 0.00176183)
(0.00340763 -0.000707676 0.00176183)
(0.00347875 -0.000105197 0.00176183)
(0.00344416 0.000500481 0.00176183)
(0.00330493 0.00109095 0.00176183)
(0.00306528 0.00164827 0.00176183)
(0.00273249 0.00215551 0.00176183)
(0.00231668 0.00259725 0.00176183)
(0.00183048 0.00296008 0.00176183)
(0.00128865 0.00323297 0.00176183)
(0.000707677 0.00340763 0.00176183)
(0.000105197 0.00347875 0.00176183)
(-0.000363047 0.00382484 0.00196596)
(-0.00102171 0.00370369 0.00196596)
(-0.00164932 0.00347 0.00196596)
(-0.00222683 0.00313088 0.00196596)
(-0.00273667 0.00269663 0.00196595)
(-0.00316335 0.00218045 0.00196596)
(-0.00349393 0.00159801 0.00196596)
(-0.00371834 0.000967017 0.00196596)
(-0.00382977 0.000306642 0.00196596)
(-0.00382484 -0.000363047 0.00196596)
(-0.00370369 -0.00102171 0.00196596)
(-0.00347 -0.00164932 0.00196596)
(-0.00313088 -0.00222683 0.00196595)
(-0.00269663 -0.00273667 0.00196595)
(-0.00218045 -0.00316335 0.00196595)
(-0.00159801 -0.00349393 0.00196596)
(-0.000967016 -0.00371834 0.00196596)
(-0.000306642 -0.00382977 0.00196596)
(0.000363047 -0.00382484 0.00196596)
(0.00102171 -0.00370369 0.00196596)
(0.00164932 -0.00347 0.00196596)
(0.00222683 -0.00313088 0.00196595)
(0.00273667 -0.00269663 0.00196595)
(0.00316336 -0.00218045 0.00196596)
(0.00349393 -0.00159801 0.00196596)
(0.00371834 -0.000967016 0.00196596)