/*--------------------------------*- C++ -*----------------------------------*\
| =========                 |                                                 |
| \\      /  F ield         | OpenFOAM: The Open Source CFD Toolbox           |
|  \\    /   O peration     | Version:  2312                                  |
|   \\  /    A nd           | Website:  www.openfoam.com                      |
|    \\/     M anipulation  |                                                 |
\*---------------------------------------------------------------------------*/
FoamFile
{
    version     2.0;
    format      ascii;
    arch        "LSB;label=32;scalar=64";
    class       volVectorField;
    location    "0.1";
    object      D_0_0_0;
}
// * * * * * * * * * * * * * * * * * * * * * * * * * * * * * * * * * * * * * //

dimensions      [0 1 0 0 0 0 0];

internalField   nonuniform List<vector> 
1620
(
(2.68592e-05 9.55246e-05 8.44967e-06)
(9.86346e-06 9.87373e-05 8.44967e-06)
(-7.43188e-06 9.89501e-05 8.4497e-06)
(-2.45015e-05 9.61564e-05 8.44973e-06)
(-4.08266e-05 9.04409e-05 8.44974e-06)
(-5.59113e-05 8.19775e-05 8.44973e-06)
(-6.9297e-05 7.1023e-05 8.44973e-06)
(-8.05772e-05 5.79106e-05 8.4497e-06)
(-8.94093e-05 4.30388e-05 8.44967e-06)
(-9.55246e-05 2.68592e-05 8.44967e-06)
(-9.87373e-05 9.86345e-06 8.44967e-06)
(-9.89501e-05 -7.43189e-06 8.4497e-06)
(-9.61564e-05 -2.45015e-05 8.44973e-06)
(-9.04409e-05 -4.08267e-05 8.44974e-06)
(-8.19774e-05 -5.59113e-05 8.44973e-06)
(-7.1023e-05 -6.9297e-05 8.44973e-06)
(-5.79106e-05 -8.05772e-05 8.4497e-06)
(-4.30388e-05 -8.94093e-05 8.44967e-06)
(-2.68592e-05 -9.55246e-05 8.44967e-06)
(-9.86345e-06 -9.87373e-05 8.44967e-06)
(7.43189e-06 -9.89501e-05 8.4497e-06)
(2.45015e-05 -9.61564e-05 8.44973e-06)
(4.08267e-05 -9.04409e-05 8.44974e-06)
(5.59113e-05 -8.19775e-05 8.44973e-06)
(6.9297e-05 -7.1023e-05 8.44973e-06)
(8.05772e-05 -5.79106e-05 8.4497e-06)
(8.94093e-05 -4.30388e-05 8.44967e-06)
(9.55246e-05 -2.68592e-05 8.44967e-06)
(9.87373e-05 -9.86345e-06 8.44967e-06)
(9.89501e-05 7.43188e-06 8.44971e-06)
(9.61564e-05 2.45015e-05 8.44973e-06)
(9.04409e-05 4.08266e-05 8.44974e-06)
(8.19775e-05 5.59113e-05 8.44973e-06)
(7.1023e-05 6.9297e-05 8.44973e-06)
(5.79106e-05 8.05772e-05 8.4497e-06)
(4.30388e-05 8.94093e-05 8.44967e-06)
(1.5457e-05 9.04704e-05 1.02091e-05)
(-4.87817e-07 9.178e-05 1.02091e-05)
(-1.64178e-05 9.03009e-05 1.02092e-05)
(-3.18489e-05 8.60781e-05 1.02092e-05)
(-4.63125e-05 7.924e-05 1.02092e-05)
(-5.93687e-05 6.9994e-05 1.02092e-05)
(-7.0621e-05 5.86213e-05 1.02092e-05)
(-7.97277e-05 4.54675e-05 1.02091e-05)
(-8.64118e-05 3.09322e-05 1.02091e-05)
(-9.04704e-05 1.5457e-05 1.02091e-05)
(-9.178e-05 -4.87822e-07 1.02091e-05)
(-9.03009e-05 -1.64178e-05 1.02092e-05)
(-8.60781e-05 -3.18489e-05 1.02092e-05)
(-7.924e-05 -4.63125e-05 1.02092e-05)
(-6.9994e-05 -5.93687e-05 1.02092e-05)
(-5.86213e-05 -7.0621e-05 1.02092e-05)
(-4.54675e-05 -7.97277e-05 1.02091e-05)
(-3.09322e-05 -8.64118e-05 1.02091e-05)
(-1.5457e-05 -9.04704e-05 1.02091e-05)
(4.87825e-07 -9.178e-05 1.02091e-05)
(1.64178e-05 -9.03009e-05 1.02092e-05)
(3.18489e-05 -8.60781e-05 1.02092e-05)
(4.63125e-05 -7.924e-05 1.02092e-05)
(5.93687e-05 -6.9994e-05 1.02092e-05)
(7.0621e-05 -5.86213e-05 1.02092e-05)
(7.97277e-05 -4.54675e-05 1.02091e-05)
(8.64118e-05 -3.09322e-05 1.02091e-05)
(9.04704e-05 -1.5457e-05 1.02091e-05)
(9.178e-05 4.87818e-07 1.02091e-05)
(9.03009e-05 1.64178e-05 1.02092e-05)
(8.60781e-05 3.18489e-05 1.02092e-05)
(7.924e-05 4.63125e-05 1.02092e-05)
(6.9994e-05 5.93687e-05 1.02092e-05)
(5.86213e-05 7.0621e-05 1.02092e-05)
(4.54675e-05 7.97277e-05 1.02091e-05)
(3.09322e-05 8.64118e-05 1.02091e-05)
(2.32649e-06 8.55054e-05 8.8476e-06)
(-1.25567e-05 8.46105e-05 8.84763e-06)
(-2.70584e-05 8.11446e-05 8.84762e-06)
(-4.07379e-05 7.52131e-05 8.84761e-06)
(-5.31797e-05 6.69966e-05 8.84765e-06)
(-6.40055e-05 5.6744e-05 8.84761e-06)
(-7.28867e-05 4.47675e-05 8.84762e-06)
(-7.95531e-05 3.14308e-05 8.84759e-06)
(-8.38024e-05 1.7139e-05 8.84759e-06)
(-8.55054e-05 2.32649e-06 8.8476e-06)
(-8.46105e-05 -1.25567e-05 8.84763e-06)
(-8.11446e-05 -2.70584e-05 8.84762e-06)
(-7.52131e-05 -4.07379e-05 8.84761e-06)
(-6.69966e-05 -5.31797e-05 8.84765e-06)
(-5.6744e-05 -6.40055e-05 8.84761e-06)
(-4.47675e-05 -7.28867e-05 8.84762e-06)
(-3.14307e-05 -7.95531e-05 8.84759e-06)
(-1.7139e-05 -8.38024e-05 8.84759e-06)
(-2.32649e-06 -8.55054e-05 8.8476e-06)
(1.25567e-05 -8.46105e-05 8.84763e-06)
(2.70584e-05 -8.11446e-05 8.84762e-06)
(4.07379e-05 -7.52131e-05 8.84761e-06)
(5.31797e-05 -6.69966e-05 8.84765e-06)
(6.40055e-05 -5.6744e-05 8.84761e-06)
(7.28867e-05 -4.47675e-05 8.84762e-06)
(7.95531e-05 -3.14308e-05 8.84759e-06)
(8.38024e-05 -1.7139e-05 8.84759e-06)
(8.55054e-05 -2.32649e-06 8.8476e-06)
(8.46105e-05 1.25567e-05 8.84763e-06)
(8.11446e-05 2.70584e-05 8.84762e-06)
(7.52131e-05 4.07379e-05 8.84761e-06)
(6.69966e-05 5.31797e-05 8.84765e-06)
(5.6744e-05 6.40055e-05 8.84761e-06)
(4.47675e-05 7.28867e-05 8.84762e-06)
(3.14308e-05 7.95531e-05 8.84759e-06)
(1.7139e-05 8.38024e-05 8.84759e-06)
(5.39366e-05 0.000289306 4.36384e-05)
(2.87969e-06 0.000294277 4.36384e-05)
(-4.82647e-05 0.000290307 4.36385e-05)
(-9.79426e-05 0.000277515 4.36386e-05)
(-0.000144645 0.000256291 4.36386e-05)
(-0.000186952 0.000227281 4.36386e-05)
(-0.000223578 0.000191364 4.36386e-05)
(-0.000253412 0.000149633 4.36385e-05)
(-0.000275545 0.000103355 4.36384e-05)
(-0.000289306 5.39366e-05 4.36384e-05)
(-0.000294277 2.87967e-06 4.36384e-05)
(-0.000290307 -4.82647e-05 4.36385e-05)
(-0.000277515 -9.79426e-05 4.36386e-05)
(-0.000256291 -0.000144645 4.36386e-05)
(-0.000227281 -0.000186952 4.36386e-05)
(-0.000191364 -0.000223578 4.36386e-05)
(-0.000149633 -0.000253412 4.36385e-05)
(-0.000103355 -0.000275545 4.36384e-05)
(-5.39366e-05 -0.000289306 4.36384e-05)
(-2.87966e-06 -0.000294277 4.36384e-05)
(4.82647e-05 -0.000290307 4.36385e-05)
(9.79426e-05 -0.000277515 4.36386e-05)
(0.000144645 -0.000256291 4.36386e-05)
(0.000186952 -0.000227281 4.36386e-05)
(0.000223578 -0.000191364 4.36386e-05)
(0.000253412 -0.000149633 4.36385e-05)
(0.000275545 -0.000103355 4.36384e-05)
(0.000289306 -5.39366e-05 4.36384e-05)
(0.000294277 -2.87969e-06 4.36384e-05)
(0.000290307 4.82647e-05 4.36385e-05)
(0.000277515 9.79426e-05 4.36386e-05)
(0.000256291 0.000144645 4.36386e-05)
(0.000227281 0.000186952 4.36386e-05)
(0.000191364 0.000223578 4.36386e-05)
(0.000149633 0.000253412 4.36385e-05)
(0.000103355 0.000275545 4.36384e-05)
(4.07882e-05 0.000269159 4.62279e-05)
(-6.57031e-06 0.000272152 4.62279e-05)
(-5.37293e-05 0.000266877 4.6228e-05)
(-9.92556e-05 0.000253493 4.62281e-05)
(-0.000141766 0.000232406 4.62281e-05)
(-0.000179969 0.000204258 4.62281e-05)
(-0.000212704 0.000169903 4.6228e-05)
(-0.000238976 0.000130386 4.6228e-05)
(-0.000257987 8.69075e-05 4.62279e-05)
(-0.000269159 4.07882e-05 4.62279e-05)
(-0.000272152 -6.57032e-06 4.62279e-05)
(-0.000266877 -5.37293e-05 4.6228e-05)
(-0.000253493 -9.92556e-05 4.62281e-05)
(-0.000232406 -0.000141766 4.62281e-05)
(-0.000204258 -0.00017997 4.62281e-05)
(-0.000169903 -0.000212704 4.6228e-05)
(-0.000130386 -0.000238976 4.62279e-05)
(-8.69075e-05 -0.000257987 4.62279e-05)
(-4.07882e-05 -0.000269159 4.62279e-05)
(6.57033e-06 -0.000272152 4.62279e-05)
(5.37293e-05 -0.000266877 4.6228e-05)
(9.92556e-05 -0.000253493 4.62281e-05)
(0.000141766 -0.000232406 4.62281e-05)
(0.00017997 -0.000204258 4.62281e-05)
(0.000212704 -0.000169903 4.6228e-05)
(0.000238976 -0.000130386 4.6228e-05)
(0.000257987 -8.69075e-05 4.62279e-05)
(0.000269159 -4.07882e-05 4.62279e-05)
(0.000272152 6.57031e-06 4.62279e-05)
(0.000266877 5.37293e-05 4.6228e-05)
(0.000253493 9.92556e-05 4.62281e-05)
(0.000232406 0.000141766 4.62281e-05)
(0.000204258 0.000179969 4.62281e-05)
(0.000169903 0.000212704 4.6228e-05)
(0.000130386 0.000238976 4.6228e-05)
(8.69075e-05 0.000257987 4.62279e-05)
(2.57239e-05 0.000248597 4.76233e-05)
(-1.78353e-05 0.000249287 4.76233e-05)
(-6.08524e-05 0.000242403 4.76233e-05)
(-0.000102021 0.000228153 4.76233e-05)
(-0.000140089 0.000206971 4.76233e-05)
(-0.000173901 0.0001795 4.76233e-05)
(-0.000202429 0.000146576 4.76233e-05)
(-0.000224806 0.000109198 4.76233e-05)
(-0.000240353 6.85015e-05 4.76233e-05)
(-0.000248597 2.57239e-05 4.76233e-05)
(-0.000249287 -1.78353e-05 4.76233e-05)
(-0.000242403 -6.08524e-05 4.76233e-05)
(-0.000228153 -0.000102021 4.76233e-05)
(-0.000206971 -0.000140089 4.76233e-05)
(-0.0001795 -0.000173901 4.76233e-05)
(-0.000146576 -0.000202429 4.76233e-05)
(-0.000109198 -0.000224806 4.76233e-05)
(-6.85015e-05 -0.000240353 4.76233e-05)
(-2.57239e-05 -0.000248597 4.76233e-05)
(1.78353e-05 -0.000249287 4.76233e-05)
(6.08524e-05 -0.000242403 4.76233e-05)
(0.000102021 -0.000228153 4.76233e-05)
(0.000140089 -0.000206971 4.76233e-05)
(0.000173901 -0.0001795 4.76233e-05)
(0.000202429 -0.000146576 4.76233e-05)
(0.000224806 -0.000109198 4.76233e-05)
(0.000240353 -6.85015e-05 4.76233e-05)
(0.000248597 -2.57239e-05 4.76233e-05)
(0.000249287 1.78353e-05 4.76233e-05)
(0.000242403 6.08524e-05 4.76233e-05)
(0.000228153 0.000102021 4.76233e-05)
(0.000206971 0.000140089 4.76233e-05)
(0.0001795 0.000173901 4.76233e-05)
(0.000146576 0.000202429 4.76233e-05)
(0.000109198 0.000224806 4.76233e-05)
(6.85015e-05 0.000240353 4.76233e-05)
(7.42335e-05 0.000478685 9.73233e-05)
(-1.00171e-05 0.000484304 9.73233e-05)
(-9.39633e-05 0.000475206 9.73234e-05)
(-0.000175055 0.00045167 9.73235e-05)
(-0.000250827 0.000414411 9.73236e-05)
(-0.000318978 0.000364559 9.73236e-05)
(-0.000377437 0.000303631 9.73235e-05)
(-0.000424428 0.000233477 9.73234e-05)
(-0.000458522 0.000156228 9.73233e-05)
(-0.000478685 7.42335e-05 9.73233e-05)
(-0.000484304 -1.00171e-05 9.73233e-05)
(-0.000475206 -9.39633e-05 9.73234e-05)
(-0.00045167 -0.000175055 9.73235e-05)
(-0.000414411 -0.000250827 9.73236e-05)
(-0.000364559 -0.000318978 9.73236e-05)
(-0.000303631 -0.000377437 9.73235e-05)
(-0.000233477 -0.000424428 9.73234e-05)
(-0.000156228 -0.000458523 9.73233e-05)
(-7.42334e-05 -0.000478685 9.73233e-05)
(1.00171e-05 -0.000484304 9.73233e-05)
(9.39633e-05 -0.000475207 9.73234e-05)
(0.000175055 -0.00045167 9.73235e-05)
(0.000250827 -0.000414411 9.73236e-05)
(0.000318978 -0.000364559 9.73236e-05)
(0.000377437 -0.000303631 9.73235e-05)
(0.000424428 -0.000233477 9.73234e-05)
(0.000458523 -0.000156228 9.73233e-05)
(0.000478685 -7.42335e-05 9.73233e-05)
(0.000484304 1.00171e-05 9.73233e-05)
(0.000475207 9.39633e-05 9.73234e-05)
(0.00045167 0.000175055 9.73235e-05)
(0.000414411 0.000250827 9.73236e-05)
(0.000364559 0.000318978 9.73236e-05)
(0.000303631 0.000377437 9.73235e-05)
(0.000233477 0.000424428 9.73234e-05)
(0.000156228 0.000458523 9.73233e-05)
(5.86535e-05 0.000442014 0.000100818)
(-1.89924e-05 0.000445484 0.000100818)
(-9.60613e-05 0.000435418 0.000100818)
(-0.000170211 0.000412122 0.000100818)
(-0.00023919 0.000376304 0.000100818)
(-0.0003009 0.000329052 0.000100818)
(-0.000353468 0.000271802 0.000100818)
(-0.000395296 0.000206294 0.000100818)
(-0.000425114 0.000134517 0.000100818)
(-0.000442014 5.86535e-05 0.000100818)
(-0.000445484 -1.89924e-05 0.000100818)
(-0.000435418 -9.60613e-05 0.000100818)
(-0.000412122 -0.000170211 0.000100818)
(-0.000376304 -0.00023919 0.000100818)
(-0.000329052 -0.0003009 0.000100818)
(-0.000271802 -0.000353468 0.000100818)
(-0.000206294 -0.000395296 0.000100818)
(-0.000134517 -0.000425114 0.000100818)
(-5.86535e-05 -0.000442014 0.000100818)
(1.89924e-05 -0.000445484 0.000100818)
(9.60613e-05 -0.000435418 0.000100818)
(0.000170211 -0.000412122 0.000100818)
(0.00023919 -0.000376304 0.000100818)
(0.0003009 -0.000329052 0.000100818)
(0.000353468 -0.000271802 0.000100818)
(0.000395297 -0.000206294 0.000100818)
(0.000425114 -0.000134517 0.000100818)
(0.000442014 -5.86535e-05 0.000100818)
(0.000445484 1.89924e-05 0.000100818)
(0.000435418 9.60613e-05 0.000100818)
(0.000412122 0.000170211 0.000100818)
(0.000376304 0.00023919 0.000100818)
(0.000329052 0.0003009 0.000100818)
(0.000271802 0.000353468 0.000100818)
(0.000206294 0.000395296 0.000100818)
(0.000134517 0.000425114 0.000100818)
(4.1179e-05 0.000404704 0.000103563)
(-2.97227e-05 0.000405706 0.000103563)
(-9.97212e-05 0.000394382 0.000103563)
(-0.00016669 0.000371074 0.000103563)
(-0.000228594 0.000336491 0.000103563)
(-0.000283552 0.000291684 0.000103563)
(-0.000329894 0.000238014 0.000103563)
(-0.000366213 0.000177113 0.000103563)
(-0.000391405 0.00011083 0.000103563)
(-0.000404704 4.1179e-05 0.000103563)
(-0.000405706 -2.97227e-05 0.000103563)
(-0.000394382 -9.97212e-05 0.000103563)
(-0.000371074 -0.00016669 0.000103563)
(-0.000336491 -0.000228594 0.000103563)
(-0.000291684 -0.000283552 0.000103563)
(-0.000238014 -0.000329895 0.000103563)
(-0.000177113 -0.000366213 0.000103563)
(-0.00011083 -0.000391405 0.000103563)
(-4.1179e-05 -0.000404704 0.000103563)
(2.97227e-05 -0.000405706 0.000103563)
(9.97212e-05 -0.000394382 0.000103563)
(0.00016669 -0.000371074 0.000103563)
(0.000228594 -0.000336491 0.000103563)
(0.000283552 -0.000291684 0.000103563)
(0.000329895 -0.000238014 0.000103563)
(0.000366213 -0.000177113 0.000103563)
(0.000391405 -0.00011083 0.000103563)
(0.000404704 -4.1179e-05 0.000103563)
(0.000405706 2.97227e-05 0.000103563)
(0.000394382 9.97212e-05 0.000103563)
(0.000371074 0.00016669 0.000103563)
(0.000336491 0.000228594 0.000103563)
(0.000291684 0.000283552 0.000103563)
(0.000238014 0.000329895 0.000103563)
(0.000177113 0.000366213 0.000103563)
(0.00011083 0.000391405 0.000103563)
(8.27807e-05 0.000660085 0.000164478)
(-3.30995e-05 0.000664432 0.000164478)
(-0.000147974 0.00064859 0.000164478)
(-0.000258352 0.000613041 0.000164478)
(-0.000360881 0.000558865 0.000164478)
(-0.000452444 0.000487708 0.000164478)
(-0.00053026 0.000401733 0.000164478)
(-0.000591964 0.000303551 0.000164478)
(-0.000635682 0.000196146 0.000164478)
(-0.000660085 8.27807e-05 0.000164478)
(-0.000664432 -3.30995e-05 0.000164478)
(-0.00064859 -0.000147974 0.000164478)
(-0.000613041 -0.000258352 0.000164478)
(-0.000558865 -0.000360881 0.000164478)
(-0.000487708 -0.000452444 0.000164478)
(-0.000401733 -0.00053026 0.000164478)
(-0.000303551 -0.000591964 0.000164478)
(-0.000196146 -0.000635682 0.000164478)
(-8.27806e-05 -0.000660085 0.000164478)
(3.30996e-05 -0.000664432 0.000164478)
(0.000147974 -0.00064859 0.000164478)
(0.000258352 -0.000613041 0.000164478)
(0.000360881 -0.000558865 0.000164478)
(0.000452444 -0.000487708 0.000164478)
(0.00053026 -0.000401733 0.000164478)
(0.000591964 -0.000303551 0.000164478)
(0.000635682 -0.000196146 0.000164478)
(0.000660085 -8.27807e-05 0.000164478)
(0.000664432 3.30995e-05 0.000164478)
(0.00064859 0.000147974 0.000164478)
(0.000613041 0.000258352 0.000164478)
(0.000558865 0.000360881 0.000164478)
(0.000487708 0.000452444 0.000164478)
(0.000401733 0.00053026 0.000164478)
(0.000303551 0.000591964 0.000164478)
(0.000196146 0.000635682 0.000164478)
(6.63533e-05 0.000605723 0.000168453)
(-3.98376e-05 0.000608043 0.000168453)
(-0.000144818 0.000591888 0.000168453)
(-0.000245398 0.000557749 0.000168453)
(-0.000338522 0.000506662 0.000168453)
(-0.00042136 0.000440181 0.000168453)
(-0.000491395 0.000360325 0.000168453)
(-0.000546499 0.000269521 0.000168453)
(-0.000584999 0.000170528 0.000168453)
(-0.000605723 6.63533e-05 0.000168453)
(-0.000608043 -3.98376e-05 0.000168453)
(-0.000591888 -0.000144818 0.000168453)
(-0.000557749 -0.000245398 0.000168453)
(-0.000506662 -0.000338522 0.000168453)
(-0.000440181 -0.00042136 0.000168453)
(-0.000360325 -0.000491395 0.000168453)
(-0.000269521 -0.0005465 0.000168453)
(-0.000170528 -0.000584999 0.000168453)
(-6.63532e-05 -0.000605723 0.000168453)
(3.98376e-05 -0.000608043 0.000168453)
(0.000144818 -0.000591888 0.000168453)
(0.000245398 -0.000557749 0.000168453)
(0.000338522 -0.000506662 0.000168453)
(0.00042136 -0.000440181 0.000168453)
(0.000491395 -0.000360325 0.000168453)
(0.0005465 -0.000269521 0.000168453)
(0.000584999 -0.000170528 0.000168453)
(0.000605724 -6.63533e-05 0.000168453)
(0.000608043 3.98376e-05 0.000168453)
(0.000591888 0.000144818 0.000168453)
(0.000557749 0.000245398 0.000168453)
(0.000506662 0.000338522 0.000168453)
(0.000440181 0.00042136 0.000168453)
(0.000360325 0.000491395 0.000168453)
(0.000269521 0.000546499 0.000168453)
(0.000170528 0.000584999 0.000168453)
(4.80492e-05 0.000550704 0.000171776)
(-4.83095e-05 0.000550681 0.000171776)
(-0.0001432 0.000533926 0.000171776)
(-0.00023374 0.000500948 0.000171776)
(-0.000317178 0.000452749 0.000171776)
(-0.000390978 0.000390794 0.000171776)
(-0.000452899 0.000316964 0.000171776)
(-0.000501059 0.000233504 0.000171776)
(-0.000533994 0.000142948 0.000171776)
(-0.000550704 4.80492e-05 0.000171776)
(-0.000550681 -4.83095e-05 0.000171776)
(-0.000533926 -0.0001432 0.000171776)
(-0.000500948 -0.00023374 0.000171776)
(-0.000452749 -0.000317178 0.000171776)
(-0.000390794 -0.000390978 0.000171776)
(-0.000316964 -0.000452899 0.000171776)
(-0.000233503 -0.000501059 0.000171776)
(-0.000142948 -0.000533994 0.000171776)
(-4.80492e-05 -0.000550704 0.000171776)
(4.83095e-05 -0.000550681 0.000171776)
(0.0001432 -0.000533926 0.000171776)
(0.00023374 -0.000500948 0.000171776)
(0.000317178 -0.000452749 0.000171776)
(0.000390978 -0.000390794 0.000171776)
(0.000452899 -0.000316964 0.000171776)
(0.000501059 -0.000233504 0.000171776)
(0.000533994 -0.000142948 0.000171776)
(0.000550704 -4.80492e-05 0.000171776)
(0.000550681 4.83095e-05 0.000171776)
(0.000533926 0.0001432 0.000171776)
(0.000500948 0.00023374 0.000171776)
(0.000452749 0.000317178 0.000171776)
(0.000390794 0.000390978 0.000171776)
(0.000316964 0.000452899 0.000171776)
(0.000233504 0.000501059 0.000171776)
(0.000142948 0.000533994 0.000171776)
(7.87793e-05 0.000830212 0.000241938)
(-6.65822e-05 0.000831279 0.000241938)
(-0.000209921 0.000807088 0.000241938)
(-0.000346881 0.000758374 0.000241938)
(-0.000473301 0.000686618 0.000241938)
(-0.00058534 0.000593998 0.000241938)
(-0.000679594 0.000483331 0.000241938)
(-0.000753199 0.000357977 0.000241938)
(-0.000803919 0.000221747 0.000241938)
(-0.000830212 7.87793e-05 0.000241938)
(-0.000831279 -6.65822e-05 0.000241938)
(-0.000807088 -0.000209921 0.000241938)
(-0.000758374 -0.000346881 0.000241938)
(-0.000686618 -0.000473301 0.000241938)
(-0.000593998 -0.00058534 0.000241938)
(-0.000483331 -0.000679594 0.000241938)
(-0.000357977 -0.000753199 0.000241938)
(-0.000221747 -0.000803919 0.000241938)
(-7.87792e-05 -0.000830212 0.000241938)
(6.65823e-05 -0.000831279 0.000241938)
(0.000209921 -0.000807088 0.000241938)
(0.000346881 -0.000758374 0.000241938)
(0.000473301 -0.000686618 0.000241938)
(0.00058534 -0.000593998 0.000241938)
(0.000679594 -0.000483331 0.000241938)
(0.000753199 -0.000357978 0.000241938)
(0.000803919 -0.000221747 0.000241938)
(0.000830212 -7.87793e-05 0.000241938)
(0.000831279 6.65822e-05 0.000241938)
(0.000807088 0.000209921 0.000241938)
(0.000758374 0.000346881 0.000241938)
(0.000686618 0.000473301 0.000241938)
(0.000593998 0.00058534 0.000241938)
(0.000483331 0.000679594 0.000241938)
(0.000357978 0.000753199 0.000241938)
(0.000221747 0.000803919 0.000241938)
(6.31014e-05 0.000757108 0.000245762)
(-6.93279e-05 0.000756564 0.000245762)
(-0.00019965 0.000733031 0.000245762)
(-0.000323907 0.000687226 0.000245762)
(-0.000438321 0.00062054 0.000245762)
(-0.000539418 0.000534998 0.000245762)
(-0.000624124 0.000433202 0.000245762)
(-0.000689867 0.000318242 0.000245762)
(-0.000734649 0.000193613 0.000245762)
(-0.000757108 6.31013e-05 0.000245762)
(-0.000756564 -6.93279e-05 0.000245762)
(-0.000733031 -0.00019965 0.000245762)
(-0.000687226 -0.000323907 0.000245762)
(-0.00062054 -0.000438321 0.000245762)
(-0.000534998 -0.000539418 0.000245762)
(-0.000433202 -0.000624124 0.000245762)
(-0.000318242 -0.000689867 0.000245762)
(-0.000193613 -0.000734649 0.000245762)
(-6.31013e-05 -0.000757108 0.000245762)
(6.9328e-05 -0.000756564 0.000245762)
(0.00019965 -0.000733031 0.000245762)
(0.000323907 -0.000687226 0.000245762)
(0.000438321 -0.00062054 0.000245762)
(0.000539418 -0.000534999 0.000245762)
(0.000624124 -0.000433202 0.000245762)
(0.000689867 -0.000318243 0.000245762)
(0.000734649 -0.000193613 0.000245762)
(0.000757108 -6.31014e-05 0.000245762)
(0.000756564 6.93279e-05 0.000245762)
(0.000733031 0.00019965 0.000245762)
(0.000687226 0.000323907 0.000245762)
(0.00062054 0.000438321 0.000245762)
(0.000534999 0.000539418 0.000245762)
(0.000433202 0.000624124 0.000245762)
(0.000318243 0.000689867 0.000245762)
(0.000193613 0.000734649 0.000245762)
(4.55801e-05 0.000683444 0.000248933)
(-7.37911e-05 0.000680975 0.000248933)
(-0.00019092 0.000657816 0.000248933)
(-0.000302248 0.000614669 0.000248933)
(-0.000404392 0.000552846 0.000248933)
(-0.000494249 0.000474225 0.000248933)
(-0.000569089 0.000381195 0.000248933)
(-0.000626637 0.000276583 0.000248933)
(-0.000665145 0.000163566 0.000248933)
(-0.000683443 4.558e-05 0.000248933)
(-0.000680975 -7.37911e-05 0.000248933)
(-0.000657816 -0.00019092 0.000248933)
(-0.000614669 -0.000302248 0.000248933)
(-0.000552846 -0.000404392 0.000248933)
(-0.000474225 -0.000494249 0.000248933)
(-0.000381195 -0.000569089 0.000248933)
(-0.000276583 -0.000626637 0.000248933)
(-0.000163566 -0.000665146 0.000248933)
(-4.558e-05 -0.000683444 0.000248933)
(7.37912e-05 -0.000680975 0.000248933)
(0.00019092 -0.000657816 0.000248933)
(0.000302248 -0.000614669 0.000248933)
(0.000404392 -0.000552846 0.000248933)
(0.000494249 -0.000474225 0.000248933)
(0.000569089 -0.000381195 0.000248933)
(0.000626637 -0.000276583 0.000248933)
(0.000665146 -0.000163566 0.000248933)
(0.000683444 -4.55801e-05 0.000248933)
(0.000680975 7.37911e-05 0.000248933)
(0.000657816 0.00019092 0.000248933)
(0.000614669 0.000302248 0.000248933)
(0.000552846 0.000404392 0.000248933)
(0.000474225 0.000494249 0.000248933)
(0.000381195 0.000569089 0.000248933)
(0.000276583 0.000626637 0.000248933)
(0.000163566 0.000665145 0.000248933)
(6.2765e-05 0.000985675 0.000327161)
(-0.000109349 0.0009816 0.000327161)
(-0.000278141 0.000947699 0.000327161)
(-0.000438481 0.000885003 0.000327161)
(-0.000585499 0.000795416 0.000327161)
(-0.000714726 0.000681661 0.000327161)
(-0.000822237 0.000547194 0.000327161)
(-0.000904765 0.000396101 0.000327161)
(-0.000959801 0.000232972 0.000327161)
(-0.000985675 6.27649e-05 0.000327161)
(-0.0009816 -0.000109349 0.000327161)
(-0.000947699 -0.000278141 0.000327161)
(-0.000885003 -0.000438481 0.000327161)
(-0.000795416 -0.000585499 0.000327161)
(-0.000681661 -0.000714726 0.000327161)
(-0.000547194 -0.000822237 0.000327161)
(-0.000396101 -0.000904765 0.000327161)
(-0.000232972 -0.000959801 0.000327161)
(-6.27649e-05 -0.000985675 0.000327161)
(0.000109349 -0.0009816 0.000327161)
(0.000278141 -0.000947699 0.000327161)
(0.000438481 -0.000885003 0.000327161)
(0.000585499 -0.000795416 0.000327161)
(0.000714726 -0.000681661 0.000327161)
(0.000822237 -0.000547194 0.000327161)
(0.000904765 -0.000396101 0.000327161)
(0.000959801 -0.000232972 0.000327161)
(0.000985675 -6.2765e-05 0.000327161)
(0.0009816 0.000109349 0.000327161)
(0.000947699 0.000278141 0.000327161)
(0.000885003 0.000438481 0.000327161)
(0.000795416 0.000585499 0.000327161)
(0.000681661 0.000714726 0.000327161)
(0.000547194 0.000822237 0.000327161)
(0.000396101 0.000904765 0.000327161)
(0.000232972 0.000959801 0.000327161)
(4.93863e-05 0.000892881 0.000330035)
(-0.000106411 0.000887892 0.000330035)
(-0.000258975 0.000855925 0.000330035)
(-0.000403671 0.000797951 0.000330035)
(-0.0005361 0.000715731 0.000330035)
(-0.000652241 0.000611765 0.000330035)
(-0.000748564 0.00048921 0.000330035)
(-0.000822142 0.000351791 0.000330035)
(-0.00087074 0.000203683 0.000330035)
(-0.000892881 4.93863e-05 0.000330035)
(-0.000887892 -0.000106411 0.000330035)
(-0.000855925 -0.000258975 0.000330035)
(-0.000797951 -0.000403671 0.000330035)
(-0.000715731 -0.0005361 0.000330035)
(-0.000611765 -0.000652241 0.000330035)
(-0.00048921 -0.000748564 0.000330035)
(-0.000351791 -0.000822142 0.000330035)
(-0.000203683 -0.00087074 0.000330035)
(-4.93862e-05 -0.000892881 0.000330035)
(0.000106411 -0.000887892 0.000330035)
(0.000258975 -0.000855925 0.000330035)
(0.000403671 -0.000797951 0.000330035)
(0.0005361 -0.000715731 0.000330035)
(0.000652241 -0.000611765 0.000330035)
(0.000748564 -0.00048921 0.000330035)
(0.000822142 -0.000351792 0.000330035)
(0.00087074 -0.000203683 0.000330035)
(0.000892881 -4.93863e-05 0.000330035)
(0.000887892 0.000106411 0.000330035)
(0.000855925 0.000258975 0.000330035)
(0.000797951 0.000403671 0.000330035)
(0.000715731 0.0005361 0.000330035)
(0.000611765 0.000652241 0.000330035)
(0.00048921 0.000748564 0.000330035)
(0.000351792 0.000822142 0.000330035)
(0.000203683 0.00087074 0.000330035)
(3.42237e-05 0.000799708 0.000332247)
(-0.000105164 0.000793502 0.000332247)
(-0.000241357 0.000763185 0.000332247)
(-0.000370215 0.00070968 0.000332247)
(-0.000487826 0.000634611 0.000332247)
(-0.000590613 0.00054026 0.000332247)
(-0.000675456 0.000429493 0.000332247)
(-0.000739775 0.000305676 0.000332247)
(-0.000781616 0.000172572 0.000332247)
(-0.000799708 3.42237e-05 0.000332247)
(-0.000793502 -0.000105164 0.000332247)
(-0.000763185 -0.000241357 0.000332247)
(-0.00070968 -0.000370215 0.000332247)
(-0.000634611 -0.000487826 0.000332247)
(-0.000540259 -0.000590613 0.000332247)
(-0.000429493 -0.000675456 0.000332247)
(-0.000305676 -0.000739775 0.000332247)
(-0.000172572 -0.000781616 0.000332247)
(-3.42237e-05 -0.000799709 0.000332247)
(0.000105164 -0.000793502 0.000332247)
(0.000241357 -0.000763185 0.000332247)
(0.000370216 -0.00070968 0.000332247)
(0.000487826 -0.000634611 0.000332247)
(0.000590613 -0.00054026 0.000332247)
(0.000675456 -0.000429493 0.000332247)
(0.000739775 -0.000305676 0.000332247)
(0.000781616 -0.000172572 0.000332247)
(0.000799709 -3.42237e-05 0.000332247)
(0.000793502 0.000105164 0.000332247)
(0.000763185 0.000241357 0.000332247)
(0.00070968 0.000370215 0.000332247)
(0.000634611 0.000487826 0.000332247)
(0.00054026 0.000590613 0.000332247)
(0.000429493 0.000675456 0.000332247)
(0.000305676 0.000739775 0.000332247)
(0.000172572 0.000781616 0.000332247)
(3.6301e-05 0.00112281 0.00041841)
(-0.000159225 0.00111206 0.00041841)
(-0.000349912 0.00106751 0.00041841)
(-0.000529968 0.000990533 0.00041841)
(-0.00069392 0.000883457 0.00041841)
(-0.000836789 0.000749537 0.00041841)
(-0.000954232 0.000592843 0.00041841)
(-0.00104268 0.000418135 0.00041841)
(-0.00109945 0.000230723 0.00041841)
(-0.00112281 3.63009e-05 0.00041841)
(-0.00111206 -0.000159225 0.00041841)
(-0.00106751 -0.000349912 0.00041841)
(-0.000990533 -0.000529968 0.00041841)
(-0.000883457 -0.00069392 0.00041841)
(-0.000749537 -0.000836789 0.00041841)
(-0.000592843 -0.000954232 0.00041841)
(-0.000418135 -0.00104268 0.00041841)
(-0.000230723 -0.00109945 0.00041841)
(-3.63009e-05 -0.00112281 0.00041841)
(0.000159225 -0.00111206 0.00041841)
(0.000349912 -0.00106751 0.00041841)
(0.000529968 -0.000990533 0.00041841)
(0.00069392 -0.000883457 0.00041841)
(0.000836789 -0.000749537 0.00041841)
(0.000954232 -0.000592843 0.00041841)
(0.00104268 -0.000418135 0.00041841)
(0.00109945 -0.000230723 0.00041841)
(0.00112281 -3.6301e-05 0.00041841)
(0.00111206 0.000159224 0.00041841)
(0.00106751 0.000349912 0.00041841)
(0.000990533 0.000529968 0.00041841)
(0.000883457 0.00069392 0.00041841)
(0.000749537 0.000836789 0.00041841)
(0.000592843 0.000954232 0.00041841)
(0.000418135 0.00104268 0.00041841)
(0.000230723 0.00109945 0.00041841)
(2.67234e-05 0.00100945 0.000419406)
(-0.000148973 0.00099876 0.000419406)
(-0.000320142 0.000957717 0.000419406)
(-0.000481584 0.000887575 0.000419406)
(-0.000628394 0.000790465 0.000419406)
(-0.000756109 0.000669337 0.000419406)
(-0.000860852 0.000527871 0.000419406)
(-0.000939437 0.000370366 0.000419406)
(-0.000989478 0.000201607 0.000419406)
(-0.00100945 2.67234e-05 0.000419406)
(-0.00099876 -0.000148973 0.000419406)
(-0.000957717 -0.000320142 0.000419406)
(-0.000887575 -0.000481585 0.000419406)
(-0.000790465 -0.000628394 0.000419406)
(-0.000669336 -0.000756109 0.000419406)
(-0.00052787 -0.000860852 0.000419406)
(-0.000370366 -0.000939437 0.000419406)
(-0.000201607 -0.000989478 0.000419406)
(-2.67233e-05 -0.00100945 0.000419406)
(0.000148973 -0.00099876 0.000419406)
(0.000320142 -0.000957717 0.000419406)
(0.000481585 -0.000887575 0.000419406)
(0.000628394 -0.000790465 0.000419406)
(0.000756109 -0.000669337 0.000419406)
(0.000860852 -0.000527871 0.000419406)
(0.000939437 -0.000370366 0.000419406)
(0.000989478 -0.000201607 0.000419406)
(0.00100945 -2.67234e-05 0.000419406)
(0.00099876 0.000148973 0.000419406)
(0.000957717 0.000320142 0.000419406)
(0.000887575 0.000481584 0.000419406)
(0.000790465 0.000628394 0.000419406)
(0.000669337 0.000756109 0.000419406)
(0.000527871 0.000860852 0.000419406)
(0.000370366 0.000939437 0.000419406)
(0.000201607 0.000989478 0.000419406)
(1.54545e-05 0.000895984 0.000419743)
(-0.000140366 0.000885055 0.000419743)
(-0.000291922 0.000847235 0.000419743)
(-0.000434608 0.000783672 0.000419743)
(-0.000564088 0.000696297 0.000419743)
(-0.000676429 0.000587766 0.000419743)
(-0.000768217 0.000461376 0.000419743)
(-0.000836663 0.000320967 0.000419743)
(-0.000879688 0.000170806 0.000419743)
(-0.000895984 1.54544e-05 0.000419743)
(-0.000885055 -0.000140366 0.000419743)
(-0.000847235 -0.000291922 0.000419743)
(-0.000783672 -0.000434608 0.000419743)
(-0.000696297 -0.000564088 0.000419743)
(-0.000587766 -0.000676429 0.000419743)
(-0.000461376 -0.000768217 0.000419743)
(-0.000320967 -0.000836663 0.000419743)
(-0.000170806 -0.000879688 0.000419743)
(-1.54544e-05 -0.000895984 0.000419743)
(0.000140366 -0.000885055 0.000419743)
(0.000291922 -0.000847235 0.000419743)
(0.000434608 -0.000783672 0.000419743)
(0.000564088 -0.000696297 0.000419743)
(0.000676429 -0.000587766 0.000419743)
(0.000768217 -0.000461376 0.000419743)
(0.000836663 -0.000320967 0.000419743)
(0.000879688 -0.000170806 0.000419743)
(0.000895984 -1.54545e-05 0.000419743)
(0.000885055 0.000140366 0.000419743)
(0.000847235 0.000291922 0.000419743)
(0.000783672 0.000434608 0.000419743)
(0.000696297 0.000564088 0.000419743)