/*--------------------------------*- C++ -*----------------------------------*\
| =========                 |                                                 |
| \\      /  F ield         | OpenFOAM: The Open Source CFD Toolbox           |
|  \\    /   O peration     | Version:  2312                                  |
|   \\  /    A nd           | Website:  www.openfoam.com                      |
|    \\/     M anipulation  |                                                 |
\*---------------------------------------------------------------------------*/
FoamFile
{
    version     2.0;
    format      ascii;
    arch        "LSB;label=32;scalar=64";
    class       volVectorField;
    location    "0.1";
    object      D_0_0;
}
// * * * * * * * * * * * * * * * * * * * * * * * * * * * * * * * * * * * * * //

dimensions      [0 1 0 0 0 0 0];

internalField   nonuniform List<vector> 
1620
(
(3.05508e-05 0.000106663 9.56796e-06)
(1.15649e-05 0.000110347 9.56796e-06)
(-7.7724e-06 0.000110679 9.568e-06)
(-2.68736e-05 0.000107648 9.56803e-06)
(-4.51583e-05 0.000101346 9.56804e-06)
(-6.20708e-05 9.1965e-05 9.56802e-06)
(-7.70973e-05 7.97892e-05 9.56803e-06)
(-8.97812e-05 6.51892e-05 9.568e-06)
(-9.97373e-05 4.86085e-05 9.56796e-06)
(-0.000106663 3.05508e-05 9.56796e-06)
(-0.000110347 1.15648e-05 9.56796e-06)
(-0.000110679 -7.77241e-06 9.568e-06)
(-0.000107648 -2.68736e-05 9.56803e-06)
(-0.000101346 -4.51583e-05 9.56803e-06)
(-9.1965e-05 -6.20708e-05 9.56802e-06)
(-7.97892e-05 -7.70973e-05 9.56803e-06)
(-6.51892e-05 -8.97812e-05 9.56799e-06)
(-4.86085e-05 -9.97373e-05 9.56796e-06)
(-3.05508e-05 -0.000106663 9.56796e-06)
(-1.15648e-05 -0.000110347 9.56796e-06)
(7.77241e-06 -0.000110679 9.568e-06)
(2.68736e-05 -0.000107648 9.56803e-06)
(4.51583e-05 -0.000101346 9.56803e-06)
(6.20708e-05 -9.1965e-05 9.56802e-06)
(7.70973e-05 -7.97892e-05 9.56803e-06)
(8.97812e-05 -6.51892e-05 9.568e-06)
(9.97373e-05 -4.86085e-05 9.56796e-06)
(0.000106663 -3.05508e-05 9.56796e-06)
(0.000110347 -1.15649e-05 9.56796e-06)
(0.000110679 7.7724e-06 9.568e-06)
(0.000107648 2.68736e-05 9.56803e-06)
(0.000101346 4.51583e-05 9.56804e-06)
(9.1965e-05 6.20708e-05 9.56803e-06)
(7.97892e-05 7.70973e-05 9.56803e-06)
(6.51892e-05 8.97812e-05 9.568e-06)
(4.86085e-05 9.97373e-05 9.56796e-06)
(1.73975e-05 0.000101556 1.1697e-05)
(-5.0178e-07 0.000103034 1.1697e-05)
(-1.83857e-05 0.000101381 1.1697e-05)
(-3.5711e-05 9.66485e-05 1.1697e-05)
(-5.19515e-05 8.89792e-05 1.1697e-05)
(-6.66132e-05 7.86059e-05 1.1697e-05)
(-7.92509e-05 6.58445e-05 1.1697e-05)
(-8.94808e-05 5.10824e-05 1.1697e-05)
(-9.69918e-05 3.47681e-05 1.16969e-05)
(-0.000101556 1.73975e-05 1.1697e-05)
(-0.000103034 -5.01787e-07 1.1697e-05)
(-0.000101381 -1.83857e-05 1.1697e-05)
(-9.66485e-05 -3.57111e-05 1.1697e-05)
(-8.89792e-05 -5.19515e-05 1.1697e-05)
(-7.86059e-05 -6.66132e-05 1.1697e-05)
(-6.58445e-05 -7.92509e-05 1.1697e-05)
(-5.10824e-05 -8.94808e-05 1.1697e-05)
(-3.47681e-05 -9.69918e-05 1.16969e-05)
(-1.73975e-05 -0.000101556 1.1697e-05)
(5.0179e-07 -0.000103034 1.1697e-05)
(1.83857e-05 -0.000101381 1.1697e-05)
(3.57111e-05 -9.66485e-05 1.1697e-05)
(5.19515e-05 -8.89792e-05 1.1697e-05)
(6.66132e-05 -7.86059e-05 1.1697e-05)
(7.92509e-05 -6.58445e-05 1.1697e-05)
(8.94808e-05 -5.10824e-05 1.1697e-05)
(9.69918e-05 -3.47681e-05 1.16969e-05)
(0.000101556 -1.73975e-05 1.1697e-05)
(0.000103034 5.01782e-07 1.1697e-05)
(0.000101381 1.83857e-05 1.1697e-05)
(9.66485e-05 3.5711e-05 1.1697e-05)
(8.89792e-05 5.19515e-05 1.1697e-05)
(7.86059e-05 6.66132e-05 1.1697e-05)
(6.58445e-05 7.92509e-05 1.1697e-05)
(5.10824e-05 8.94808e-05 1.1697e-05)
(3.47681e-05 9.69918e-05 1.16969e-05)
(2.12636e-06 9.65094e-05 1.02105e-05)
(-1.46646e-05 9.54126e-05 1.02106e-05)
(-3.10101e-05 9.14166e-05 1.02106e-05)
(-4.64132e-05 8.46428e-05 1.02105e-05)
(-6.04063e-05 7.52975e-05 1.02106e-05)
(-7.25637e-05 6.36639e-05 1.02106e-05)
(-8.25165e-05 5.00962e-05 1.02106e-05)
(-8.99619e-05 3.50063e-05 1.02105e-05)
(-9.46739e-05 1.88527e-05 1.02105e-05)
(-9.65094e-05 2.12636e-06 1.02105e-05)
(-9.54126e-05 -1.46646e-05 1.02106e-05)
(-9.14166e-05 -3.10101e-05 1.02106e-05)
(-8.46428e-05 -4.64132e-05 1.02105e-05)
(-7.52975e-05 -6.04063e-05 1.02106e-05)
(-6.36639e-05 -7.25637e-05 1.02106e-05)
(-5.00962e-05 -8.25165e-05 1.02106e-05)
(-3.50063e-05 -8.99619e-05 1.02105e-05)
(-1.88527e-05 -9.46739e-05 1.02105e-05)
(-2.12635e-06 -9.65094e-05 1.02105e-05)
(1.46646e-05 -9.54126e-05 1.02106e-05)
(3.10101e-05 -9.14166e-05 1.02106e-05)
(4.64132e-05 -8.46428e-05 1.02105e-05)
(6.04063e-05 -7.52975e-05 1.02106e-05)
(7.25637e-05 -6.36639e-05 1.02106e-05)
(8.25165e-05 -5.00962e-05 1.02106e-05)
(8.99619e-05 -3.50063e-05 1.02105e-05)
(9.46739e-05 -1.88527e-05 1.02105e-05)
(9.65094e-05 -2.12636e-06 1.02105e-05)
(9.54126e-05 1.46646e-05 1.02106e-05)
(9.14166e-05 3.10101e-05 1.02106e-05)
(8.46428e-05 4.64132e-05 1.02105e-05)
(7.52975e-05 6.04063e-05 1.02106e-05)
(6.36639e-05 7.25637e-05 1.02106e-05)
(5.00962e-05 8.25165e-05 1.02106e-05)
(3.50063e-05 8.99619e-05 1.02105e-05)
(1.88527e-05 9.46739e-05 1.02105e-05)
(6.11729e-05 0.000323158 4.96655e-05)
(4.12772e-06 0.000328872 4.96655e-05)
(-5.30429e-05 0.000324592 4.96656e-05)
(-0.000108602 0.00031045 4.96657e-05)
(-0.000160861 0.000286875 4.96658e-05)
(-0.000208232 0.000254583 4.96657e-05)
(-0.000249277 0.000214557 4.96657e-05)
(-0.000282747 0.00016801 4.96656e-05)
(-0.000307626 0.000116359 4.96655e-05)
(-0.000323158 6.11729e-05 4.96655e-05)
(-0.000328872 4.1277e-06 4.96655e-05)
(-0.000324592 -5.30429e-05 4.96656e-05)
(-0.00031045 -0.000108602 4.96657e-05)
(-0.000286875 -0.000160861 4.96658e-05)
(-0.000254583 -0.000208232 4.96657e-05)
(-0.000214557 -0.000249277 4.96657e-05)
(-0.00016801 -0.000282747 4.96656e-05)
(-0.000116359 -0.000307626 4.96655e-05)
(-6.11728e-05 -0.000323158 4.96655e-05)
(-4.12769e-06 -0.000328872 4.96655e-05)
(5.30429e-05 -0.000324592 4.96656e-05)
(0.000108602 -0.00031045 4.96657e-05)
(0.000160861 -0.000286875 4.96658e-05)
(0.000208232 -0.000254583 4.96657e-05)
(0.000249277 -0.000214557 4.96657e-05)
(0.000282747 -0.00016801 4.96656e-05)
(0.000307626 -0.000116359 4.96655e-05)
(0.000323158 -6.11729e-05 4.96655e-05)
(0.000328872 -4.12772e-06 4.96655e-05)
(0.000324592 5.30429e-05 4.96656e-05)
(0.00031045 0.000108602 4.96657e-05)
(0.000286875 0.000160861 4.96658e-05)
(0.000254583 0.000208232 4.96657e-05)
(0.000214557 0.000249277 4.96657e-05)
(0.000168011 0.000282747 4.96656e-05)
(0.000116359 0.000307626 4.96655e-05)
(4.57259e-05 0.00030209 5.29595e-05)
(-7.4261e-06 0.000305441 5.29595e-05)
(-6.03525e-05 0.000299511 5.29596e-05)
(-0.000111445 0.000284481 5.29597e-05)
(-0.000159152 0.000260807 5.29597e-05)
(-0.000202022 0.000229208 5.29597e-05)
(-0.000238755 0.000190645 5.29596e-05)
(-0.000268232 0.000146289 5.29595e-05)
(-0.00028956 9.74885e-05 5.29595e-05)
(-0.00030209 4.57259e-05 5.29595e-05)
(-0.000305441 -7.42612e-06 5.29595e-05)
(-0.000299511 -6.03525e-05 5.29596e-05)
(-0.000284481 -0.000111445 5.29597e-05)
(-0.000260807 -0.000159152 5.29597e-05)
(-0.000229208 -0.000202022 5.29597e-05)
(-0.000190645 -0.000238755 5.29596e-05)
(-0.000146289 -0.000268232 5.29595e-05)
(-9.74885e-05 -0.00028956 5.29595e-05)
(-4.57258e-05 -0.00030209 5.29595e-05)
(7.42613e-06 -0.000305441 5.29595e-05)
(6.03525e-05 -0.000299511 5.29596e-05)
(0.000111445 -0.000284481 5.29597e-05)
(0.000159152 -0.000260807 5.29597e-05)
(0.000202022 -0.000229208 5.29597e-05)
(0.000238755 -0.000190645 5.29596e-05)
(0.000268232 -0.000146289 5.29595e-05)
(0.00028956 -9.74886e-05 5.29595e-05)
(0.00030209 -4.57259e-05 5.29595e-05)
(0.000305441 7.4261e-06 5.29595e-05)
(0.000299511 6.03525e-05 5.29596e-05)
(0.000284481 0.000111445 5.29597e-05)
(0.000260807 0.000159152 5.29597e-05)
(0.000229208 0.000202022 5.29597e-05)
(0.000190645 0.000238755 5.29596e-05)
(0.000146289 0.000268232 5.29595e-05)
(9.74886e-05 0.00028956 5.29595e-05)
(2.79167e-05 0.000280488 5.48261e-05)
(-2.12136e-05 0.000281074 5.48261e-05)
(-6.96992e-05 0.00027312 5.48261e-05)
(-0.000116067 0.000256868 5.48261e-05)
(-0.000158908 0.000232811 5.48261e-05)
(-0.000196921 0.000201679 5.48261e-05)
(-0.000228951 0.00016442 5.48261e-05)
(-0.000254024 0.000122166 5.48261e-05)
(-0.000271379 7.61988e-05 5.48261e-05)
(-0.000280488 2.79167e-05 5.48261e-05)
(-0.000281074 -2.12136e-05 5.48261e-05)
(-0.00027312 -6.96992e-05 5.48261e-05)
(-0.000256868 -0.000116067 5.48261e-05)
(-0.000232811 -0.000158908 5.48261e-05)
(-0.000201679 -0.000196921 5.48261e-05)
(-0.00016442 -0.000228951 5.48261e-05)
(-0.000122166 -0.000254024 5.48261e-05)
(-7.61988e-05 -0.000271379 5.48261e-05)
(-2.79167e-05 -0.000280488 5.48261e-05)
(2.12136e-05 -0.000281074 5.48261e-05)
(6.96993e-05 -0.00027312 5.48261e-05)
(0.000116067 -0.000256868 5.48261e-05)
(0.000158908 -0.000232811 5.48261e-05)
(0.000196921 -0.000201679 5.48261e-05)
(0.000228951 -0.00016442 5.48261e-05)
(0.000254024 -0.000122166 5.48261e-05)
(0.000271379 -7.61988e-05 5.48261e-05)
(0.000280488 -2.79167e-05 5.48261e-05)
(0.000281074 2.12136e-05 5.48261e-05)
(0.00027312 6.96992e-05 5.48261e-05)
(0.000256868 0.000116067 5.48261e-05)
(0.000232811 0.000158908 5.48261e-05)
(0.000201679 0.000196921 5.48261e-05)
(0.00016442 0.000228951 5.48261e-05)
(0.000122166 0.000254024 5.48261e-05)
(7.61988e-05 0.000271379 5.48261e-05)
(8.39994e-05 0.000534715 0.000111087)
(-1.0129e-05 0.000541178 0.000111087)
(-0.00010395 0.000531198 0.000111087)
(-0.000194612 0.000505077 0.000111087)
(-0.000279361 0.000463609 0.000111087)
(-0.000355622 0.000408056 0.000111087)
(-0.000421077 0.000340103 0.000111087)
(-0.000473738 0.000261817 0.000111087)
(-0.000512005 0.000175575 0.000111087)
(-0.000534715 8.39994e-05 0.000111087)
(-0.000541178 -1.01291e-05 0.000111087)
(-0.000531197 -0.00010395 0.000111087)
(-0.000505077 -0.000194612 0.000111087)
(-0.000463609 -0.000279361 0.000111087)
(-0.000408056 -0.000355622 0.000111087)
(-0.000340103 -0.000421077 0.000111087)
(-0.000261817 -0.000473738 0.000111087)
(-0.000175575 -0.000512005 0.000111087)
(-8.39993e-05 -0.000534715 0.000111087)
(1.01291e-05 -0.000541178 0.000111087)
(0.00010395 -0.000531198 0.000111087)
(0.000194612 -0.000505077 0.000111087)
(0.000279361 -0.000463609 0.000111087)
(0.000355622 -0.000408056 0.000111087)
(0.000421077 -0.000340103 0.000111087)
(0.000473738 -0.000261817 0.000111087)
(0.000512005 -0.000175575 0.000111087)
(0.000534715 -8.39994e-05 0.000111087)
(0.000541178 1.0129e-05 0.000111087)
(0.000531198 0.00010395 0.000111087)
(0.000505077 0.000194612 0.000111087)
(0.000463609 0.000279361 0.000111087)
(0.000408056 0.000355622 0.000111087)
(0.000340103 0.000421077 0.000111087)
(0.000261817 0.000473738 0.000111087)
(0.000175576 0.000512005 0.000111087)
(6.54952e-05 0.000495967 0.000115538)
(-2.16235e-05 0.000499805 0.000115538)
(-0.000108085 0.000488457 0.000115538)
(-0.000191263 0.000462268 0.000115538)
(-0.000268629 0.000422032 0.000115538)
(-0.000337833 0.000368974 0.000115538)
(-0.000396772 0.000304704 0.000115538)
(-0.000443656 0.000231176 0.000115538)
(-0.000477059 0.000150624 0.000115538)
(-0.000495967 6.54951e-05 0.000115538)
(-0.000499805 -2.16235e-05 0.000115538)
(-0.000488457 -0.000108085 0.000115538)
(-0.000462268 -0.000191263 0.000115538)
(-0.000422032 -0.000268629 0.000115538)
(-0.000368974 -0.000337833 0.000115538)
(-0.000304704 -0.000396772 0.000115538)
(-0.000231176 -0.000443656 0.000115538)
(-0.000150624 -0.000477059 0.000115538)
(-6.54951e-05 -0.000495967 0.000115538)
(2.16235e-05 -0.000499805 0.000115538)
(0.000108085 -0.000488457 0.000115538)
(0.000191263 -0.000462268 0.000115538)
(0.000268629 -0.000422032 0.000115538)
(0.000337833 -0.000368974 0.000115538)
(0.000396772 -0.000304704 0.000115538)
(0.000443656 -0.000231176 0.000115538)
(0.000477059 -0.000150624 0.000115538)
(0.000495967 -6.54951e-05 0.000115538)
(0.000499805 2.16235e-05 0.000115538)
(0.000488457 0.000108085 0.000115538)
(0.000462268 0.000191263 0.000115538)
(0.000422032 0.000268629 0.000115538)
(0.000368974 0.000337833 0.000115538)
(0.000304704 0.000396772 0.000115538)
(0.000231176 0.000443656 0.000115538)
(0.000150624 0.000477059 0.000115538)
(4.46801e-05 0.000456418 0.000119063)
(-3.52549e-05 0.000457243 0.000119063)
(-0.000114118 0.000444174 0.000119063)
(-0.000189515 0.00041761 0.000119063)
(-0.000259153 0.000378357 0.000119063)
(-0.000320917 0.000327607 0.000119063)
(-0.000372929 0.000266903 0.000119063)
(-0.000413611 0.00019809 0.000119063)
(-0.000441725 0.000123258 0.000119063)
(-0.000456418 4.468e-05 0.000119063)
(-0.000457243 -3.52549e-05 0.000119063)
(-0.000444174 -0.000114118 0.000119063)
(-0.00041761 -0.000189515 0.000119063)
(-0.000378357 -0.000259153 0.000119063)
(-0.000327607 -0.000320917 0.000119063)
(-0.000266903 -0.000372929 0.000119063)
(-0.00019809 -0.000413611 0.000119063)
(-0.000123257 -0.000441725 0.000119063)
(-4.468e-05 -0.000456418 0.000119063)
(3.52549e-05 -0.000457243 0.000119063)
(0.000114118 -0.000444174 0.000119063)
(0.000189515 -0.00041761 0.000119063)
(0.000259153 -0.000378357 0.000119063)
(0.000320917 -0.000327607 0.000119063)
(0.000372929 -0.000266903 0.000119063)
(0.000413611 -0.00019809 0.000119063)
(0.000441725 -0.000123258 0.000119063)
(0.000456418 -4.46801e-05 0.000119063)
(0.000457243 3.52549e-05 0.000119063)
(0.000444174 0.000114118 0.000119063)
(0.00041761 0.000189515 0.000119063)
(0.000378357 0.000259153 0.000119063)
(0.000327607 0.000320917 0.000119063)
(0.000266903 0.000372929 0.000119063)
(0.00019809 0.000413611 0.000119063)
(0.000123258 0.000441725 0.000119063)
(9.33414e-05 0.000737196 0.000188048)
(-3.60893e-05 0.000742205 0.000188048)
(-0.000164424 0.000724662 0.000188048)
(-0.000287762 0.000685101 0.000188049)
(-0.000402356 0.000624723 0.000188049)
(-0.000504726 0.000545364 0.000188049)
(-0.000591759 0.000449434 0.000188049)
(-0.000660812 0.000339848 0.000188049)
(-0.000709787 0.000219936 0.000188048)
(-0.000737196 9.33414e-05 0.000188048)
(-0.000742205 -3.60893e-05 0.000188048)
(-0.000724662 -0.000164424 0.000188048)
(-0.000685101 -0.000287762 0.000188049)
(-0.000624723 -0.000402356 0.000188049)
(-0.000545364 -0.000504726 0.000188049)
(-0.000449434 -0.000591759 0.000188049)
(-0.000339848 -0.000660813 0.000188048)
(-0.000219936 -0.000709787 0.000188048)
(-9.33414e-05 -0.000737196 0.000188048)
(3.60893e-05 -0.000742205 0.000188048)
(0.000164424 -0.000724662 0.000188048)
(0.000287762 -0.000685101 0.000188049)
(0.000402356 -0.000624723 0.000188049)
(0.000504726 -0.000545364 0.000188049)
(0.000591759 -0.000449434 0.000188049)
(0.000660813 -0.000339848 0.000188049)
(0.000709787 -0.000219936 0.000188048)
(0.000737196 -9.33414e-05 0.000188048)
(0.000742205 3.60893e-05 0.000188048)
(0.000724662 0.000164424 0.000188048)
(0.000685101 0.000287762 0.000188049)
(0.000624723 0.000402356 0.000188049)
(0.000545364 0.000504726 0.000188049)
(0.000449434 0.000591759 0.000188049)
(0.000339848 0.000660812 0.000188049)
(0.000219936 0.000709787 0.000188048)
(7.36532e-05 0.000679337 0.000193085)
(-4.54315e-05 0.000681806 0.000193085)
(-0.000163136 0.000663559 0.000193085)
(-0.000275883 0.00062515 0.000193085)
(-0.000380248 0.000567746 0.000193085)
(-0.000473059 0.000493091 0.000193085)
(-0.000551496 0.000403454 0.000193085)
(-0.000613177 0.000301558 0.000193085)
(-0.000656227 0.0001905 0.000193085)
(-0.000679337 7.36531e-05 0.000193085)
(-0.000681806 -4.54315e-05 0.000193085)
(-0.000663559 -0.000163136 0.000193085)
(-0.00062515 -0.000275883 0.000193085)
(-0.000567746 -0.000380248 0.000193085)
(-0.000493091 -0.000473059 0.000193085)
(-0.000403454 -0.000551496 0.000193085)
(-0.000301558 -0.000613177 0.000193085)
(-0.0001905 -0.000656227 0.000193085)
(-7.36531e-05 -0.000679337 0.000193085)
(4.54315e-05 -0.000681806 0.000193085)
(0.000163136 -0.000663559 0.000193085)
(0.000275883 -0.00062515 0.000193085)
(0.000380248 -0.000567746 0.000193085)
(0.000473059 -0.000493091 0.000193085)
(0.000551496 -0.000403454 0.000193085)
(0.000613177 -0.000301558 0.000193085)
(0.000656227 -0.0001905 0.000193085)
(0.000679337 -7.36532e-05 0.000193085)
(0.000681806 4.54315e-05 0.000193085)
(0.000663559 0.000163136 0.000193085)
(0.00062515 0.000275883 0.000193085)
(0.000567746 0.000380248 0.000193085)
(0.000493091 0.000473059 0.000193085)
(0.000403454 0.000551496 0.000193085)
(0.000301558 0.000613177 0.000193085)
(0.0001905 0.000656227 0.000193085)
(5.1708e-05 0.000620651 0.000197303)
(-5.68525e-05 0.000620201 0.000197303)
(-0.000163685 0.000600906 0.000197303)
(-0.000265545 0.000563353 0.000197303)
(-0.000359336 0.000508683 0.000197303)
(-0.000442208 0.000438557 0.000197303)
(-0.000511645 0.000355106 0.000197303)
(-0.000565536 0.000260865 0.000197303)
(-0.000602243 0.000158697 0.000197303)
(-0.000620651 5.17079e-05 0.000197303)
(-0.000620201 -5.68525e-05 0.000197303)
(-0.000600906 -0.000163685 0.000197303)
(-0.000563353 -0.000265545 0.000197303)
(-0.000508683 -0.000359336 0.000197303)
(-0.000438557 -0.000442208 0.000197303)
(-0.000355106 -0.000511645 0.000197303)
(-0.000260865 -0.000565536 0.000197303)
(-0.000158697 -0.000602243 0.000197303)
(-5.17079e-05 -0.000620651 0.000197303)
(5.68525e-05 -0.000620201 0.000197303)
(0.000163685 -0.000600906 0.000197303)
(0.000265545 -0.000563353 0.000197303)
(0.000359336 -0.000508683 0.000197303)
(0.000442208 -0.000438557 0.000197303)
(0.000511645 -0.000355106 0.000197303)
(0.000565536 -0.000260865 0.000197303)
(0.000602243 -0.000158697 0.000197303)
(0.000620651 -5.1708e-05 0.000197303)
(0.000620201 5.68525e-05 0.000197303)
(0.000600906 0.000163685 0.000197303)
(0.000563353 0.000265545 0.000197303)
(0.000508683 0.000359336 0.000197303)
(0.000438557 0.000442208 0.000197303)
(0.000355106 0.000511645 0.000197303)
(0.000260865 0.000565536 0.000197303)
(0.000158697 0.000602243 0.000197303)
(8.83321e-05 0.000926767 0.000276923)
(-7.39412e-05 0.000928026 0.000276923)
(-0.000233968 0.000901087 0.000276923)
(-0.000386885 0.00084677 0.000276923)
(-0.000528048 0.000766724 0.000276923)
(-0.000653165 0.000663381 0.000276923)
(-0.000758437 0.000539881 0.000276923)
(-0.000840664 0.000399978 0.000276923)
(-0.000897348 0.000247922 0.000276923)
(-0.000926767 8.83321e-05 0.000276923)
(-0.000928026 -7.39412e-05 0.000276923)
(-0.000901087 -0.000233968 0.000276923)
(-0.00084677 -0.000386885 0.000276923)
(-0.000766724 -0.000528048 0.000276923)
(-0.000663381 -0.000653166 0.000276923)
(-0.000539881 -0.000758437 0.000276923)
(-0.000399978 -0.000840664 0.000276923)
(-0.000247922 -0.000897348 0.000276923)
(-8.8332e-05 -0.000926767 0.000276923)
(7.39412e-05 -0.000928026 0.000276923)
(0.000233968 -0.000901088 0.000276923)
(0.000386885 -0.00084677 0.000276923)
(0.000528048 -0.000766724 0.000276923)
(0.000653166 -0.000663381 0.000276923)
(0.000758437 -0.000539882 0.000276923)
(0.000840664 -0.000399978 0.000276923)
(0.000897348 -0.000247922 0.000276923)
(0.000926767 -8.83321e-05 0.000276923)
(0.000928026 7.39412e-05 0.000276923)
(0.000901088 0.000233968 0.000276923)
(0.00084677 0.000386885 0.000276923)
(0.000766724 0.000528048 0.000276923)
(0.000663381 0.000653165 0.000276923)
(0.000539882 0.000758437 0.000276923)
(0.000399978 0.000840664 0.000276923)
(0.000247922 0.000897348 0.000276923)
(6.934e-05 0.000848516 0.000281755)
(-7.90568e-05 0.000847666 0.000281755)
(-0.000225051 0.00082106 0.000281755)
(-0.000364208 0.000769506 0.000281755)
(-0.000492298 0.000694572 0.000281755)
(-0.00060543 0.000598533 0.000281755)
(-0.000700166 0.000484308 0.000281755)
(-0.000773628 0.000355368 0.000281755)
(-0.000823584 0.00021563 0.000281755)
(-0.000848516 6.93399e-05 0.000281755)
(-0.000847666 -7.90568e-05 0.000281755)
(-0.00082106 -0.000225051 0.000281755)
(-0.000769506 -0.000364208 0.000281755)
(-0.000694572 -0.000492298 0.000281755)
(-0.000598533 -0.00060543 0.000281755)
(-0.000484308 -0.000700166 0.000281755)
(-0.000355368 -0.000773628 0.000281755)
(-0.00021563 -0.000823584 0.000281755)
(-6.93399e-05 -0.000848516 0.000281755)
(7.90569e-05 -0.000847666 0.000281755)
(0.000225051 -0.00082106 0.000281755)
(0.000364208 -0.000769506 0.000281755)
(0.000492298 -0.000694572 0.000281755)
(0.00060543 -0.000598533 0.000281755)
(0.000700166 -0.000484308 0.000281755)
(0.000773628 -0.000355368 0.000281755)
(0.000823584 -0.00021563 0.000281755)
(0.000848516 -6.934e-05 0.000281755)
(0.000847666 7.90568e-05 0.000281755)
(0.00082106 0.000225051 0.000281755)
(0.000769507 0.000364208 0.000281755)
(0.000694572 0.000492298 0.000281755)
(0.000598533 0.00060543 0.000281755)
(0.000484308 0.000700166 0.000281755)
(0.000355368 0.000773628 0.000281755)
(0.00021563 0.000823584 0.000281755)
(4.816e-05 0.000769546 0.000285764)
(-8.62019e-05 0.000766218 0.000285764)
(-0.000217945 0.000739609 0.000285764)
(-0.000343065 0.000690526 0.000285764)
(-0.000457762 0.000620463 0.000285764)
(-0.000558549 0.000531548 0.000285764)
(-0.000642366 0.000426481 0.000285764)
(-0.000706665 0.000308456 0.000285764)
(-0.000749492 0.000181059 0.000285764)
(-0.000769546 4.816e-05 0.000285764)
(-0.000766218 -8.62019e-05 0.000285764)
(-0.000739608 -0.000217945 0.000285764)
(-0.000690526 -0.000343065 0.000285764)
(-0.000620463 -0.000457762 0.000285764)
(-0.000531547 -0.000558549 0.000285764)
(-0.000426481 -0.000642366 0.000285764)
(-0.000308456 -0.000706665 0.000285764)
(-0.000181059 -0.000749492 0.000285764)
(-4.816e-05 -0.000769546 0.000285764)
(8.6202e-05 -0.000766218 0.000285764)
(0.000217945 -0.000739609 0.000285764)
(0.000343065 -0.000690526 0.000285764)
(0.000457762 -0.000620463 0.000285764)
(0.000558549 -0.000531548 0.000285764)
(0.000642366 -0.000426481 0.000285764)
(0.000706665 -0.000308456 0.000285764)
(0.000749492 -0.000181059 0.000285764)
(0.000769546 -4.816e-05 0.000285764)
(0.000766218 8.62019e-05 0.000285764)
(0.000739609 0.000217945 0.000285764)
(0.000690526 0.000343065 0.000285764)
(0.000620463 0.000457762 0.000285764)
(0.000531548 0.000558549 0.000285764)
(0.000426481 0.000642366 0.000285764)
(0.000308456 0.000706665 0.000285764)
(0.000181059 0.000749492 0.000285764)
(6.96467e-05 0.0010995 0.000374817)
(-0.000122337 0.00109489 0.000374817)
(-0.000310604 0.00105701 0.000374817)
(-0.000489433 0.000987017 0.000374817)
(-0.000653391 0.000887032 0.000374817)
(-0.000797496 0.000760096 0.000374817)
(-0.000917369 0.000610065 0.000374817)
(-0.00100937 0.000441497 0.000374817)
(-0.0010707 0.000259514 0.000374817)
(-0.0010995 6.96466e-05 0.000374817)
(-0.00109489 -0.000122337 0.000374817)
(-0.00105701 -0.000310604 0.000374817)
(-0.000987016 -0.000489433 0.000374817)
(-0.000887032 -0.000653391 0.000374817)
(-0.000760096 -0.000797496 0.000374817)
(-0.000610065 -0.000917369 0.000374817)
(-0.000441497 -0.00100937 0.000374817)
(-0.000259514 -0.0010707 0.000374817)
(-6.96466e-05 -0.0010995 0.000374817)
(0.000122337 -0.00109489 0.000374817)
(0.000310604 -0.00105701 0.000374817)
(0.000489433 -0.000987017 0.000374817)
(0.000653391 -0.000887032 0.000374817)
(0.000797496 -0.000760096 0.000374817)
(0.000917369 -0.000610065 0.000374817)
(0.00100937 -0.000441497 0.000374817)
(0.0010707 -0.000259515 0.000374817)
(0.0010995 -6.96467e-05 0.000374817)
(0.00109489 0.000122337 0.000374817)
(0.00105701 0.000310604 0.000374817)
(0.000987017 0.000489433 0.000374817)
(0.000887032 0.000653391 0.000374817)
(0.000760096 0.000797496 0.000374817)
(0.000610065 0.000917369 0.000374817)
(0.000441497 0.00100937 0.000374817)
(0.000259515 0.0010707 0.000374817)
(5.31615e-05 0.000999721 0.000378479)
(-0.000121246 0.000993765 0.000378479)
(-0.000291969 0.000957613 0.000378479)
(-0.000453821 0.000892365 0.000378479)
(-0.000601884 0.000800002 0.000378479)
(-0.000731659 0.000683332 0.000378479)
(-0.000839203 0.0005459 0.000378479)
(-0.000921248 0.00039188 0.000378479)
(-0.000975301 0.000225954 0.000378479)
(-0.000999721 5.31614e-05 0.000378479)
(-0.000993765 -0.000121246 0.000378479)
(-0.000957613 -0.000291969 0.000378479)
(-0.000892365 -0.000453821 0.000378479)
(-0.000800002 -0.000601884 0.000378479)
(-0.000683332 -0.000731659 0.000378479)
(-0.0005459 -0.000839203 0.000378479)
(-0.00039188 -0.000921248 0.000378479)
(-0.000225953 -0.000975301 0.000378479)
(-5.31614e-05 -0.000999721 0.000378479)
(0.000121246 -0.000993765 0.000378479)
(0.000291969 -0.000957613 0.000378479)
(0.000453821 -0.000892365 0.000378479)
(0.000601884 -0.000800002 0.000378479)
(0.000731659 -0.000683332 0.000378479)
(0.000839203 -0.0005459 0.000378479)
(0.000921248 -0.00039188 0.000378479)
(0.000975301 -0.000225954 0.000378479)
(0.000999721 -5.31615e-05 0.000378479)
(0.000993765 0.000121246 0.000378479)
(0.000957613 0.000291969 0.000378479)
(0.000892365 0.000453821 0.000378479)
(0.000800002 0.000601884 0.000378479)
(0.000683332 0.000731659 0.000378479)
(0.0005459 0.000839203 0.000378479)
(0.000391881 0.000921248 0.000378479)
(0.000225954 0.000975301 0.000378479)
(3.45854e-05 0.000899439 0.000381302)
(-0.000122126 0.00089178 0.000381302)
(-0.000275127 0.000857025 0.000381302)
(-0.000419767 0.000796229 0.000381302)
(-0.000551654 0.000711241 0.000381302)
(-0.000666779 0.000604642 0.000381302)
(-0.000761643 0.000479671 0.000381302)
(-0.000833367 0.000340126 0.000381302)
(-0.000879768 0.000190246 0.000381302)
(-0.000899439 3.45853e-05 0.000381302)
(-0.00089178 -0.000122126 0.000381302)
(-0.000857024 -0.000275127 0.000381302)
(-0.000796229 -0.000419767 0.000381302)
(-0.000711241 -0.000551654 0.000381302)
(-0.000604642 -0.000666779 0.000381302)
(-0.000479671 -0.000761644 0.000381302)
(-0.000340126 -0.000833367 0.000381302)
(-0.000190246 -0.000879768 0.000381302)
(-3.45853e-05 -0.000899439 0.000381302)
(0.000122126 -0.00089178 0.000381302)
(0.000275127 -0.000857025 0.000381302)
(0.000419767 -0.000796229 0.000381302)
(0.000551654 -0.000711241 0.000381302)
(0.000666779 -0.000604642 0.000381302)
(0.000761644 -0.000479671 0.000381302)
(0.000833367 -0.000340126 0.000381302)
(0.000879768 -0.000190246 0.000381302)
(0.000899439 -3.45854e-05 0.000381302)
(0.00089178 0.000122126 0.000381302)
(0.000857025 0.000275127 0.000381302)
(0.000796229 0.000419767 0.000381302)
(0.000711241 0.000551654 0.000381302)
(0.000604642 0.000666779 0.000381302)
(0.000479671 0.000761643 0.000381302)
(0.000340126 0.000833367 0.000381302)
(0.000190246 0.000879768 0.000381302)
(3.91441e-05 0.00125118 0.000479787)
(-0.000178716 0.00123897 0.000479787)
(-0.000391146 0.00118911 0.000479787)
(-0.000591691 0.00110313 0.000479787)
(-0.000774258 0.000983623 0.000479786)
(-0.0009333 0.00083423 0.000479787)
(-0.00106398 0.000659491 0.000479787)
(-0.00116234 0.000464713 0.000479787)
(-0.00122538 0.000255815 0.000479787)
(-0.00125118 3.9144e-05 0.000479787)
(-0.00123897 -0.000178716 0.000479787)
(-0.00118911 -0.000391146 0.000479787)
(-0.00110313 -0.000591691 0.000479787)
(-0.000983622 -0.000774258 0.000479786)
(-0.00083423 -0.0009333 0.000479787)
(-0.000659491 -0.00106398 0.000479787)
(-0.000464713 -0.00116234 0.000479787)
(-0.000255814 -0.00122538 0.000479787)
(-3.9144e-05 -0.00125118 0.000479787)
(0.000178716 -0.00123897 0.000479787)
(0.000391146 -0.00118911 0.000479787)
(0.000591691 -0.00110313 0.000479787)
(0.000774258 -0.000983623 0.000479786)
(0.0009333 -0.00083423 0.000479787)
(0.00106398 -0.000659491 0.000479787)
(0.00116234 -0.000464713 0.000479787)
(0.00122538 -0.000255815 0.000479787)
(0.00125118 -3.91441e-05 0.000479787)
(0.00123897 0.000178716 0.000479787)
(0.00118912 0.000391146 0.000479787)
(0.00110313 0.000591691 0.000479787)
(0.000983623 0.000774258 0.000479786)
(0.00083423 0.0009333 0.000479787)
(0.000659491 0.00106398 0.000479787)
(0.000464713 0.00116234 0.000479787)
(0.000255815 0.00122538 0.000479787)
(2.69063e-05 0.00112887 0.000481173)
(-0.00016953 0.0011164 0.000481173)
(-0.000360814 0.00107 0.000481173)
(-0.000541136 0.000991086 0.000481173)
(-0.000705015 0.000882063 0.000481173)
(-0.000847472 0.000746238 0.000481173)
(-0.00096418 0.000587738 0.000481173)
(-0.00105159 0.000411381 0.000481173)
(-0.00110705 0.000222524 0.000481173)
(-0.00112887 2.69062e-05 0.000481173)
(-0.0011164 -0.00016953 0.000481173)
(-0.00107 -0.000360814 0.000481173)
(-0.000991086 -0.000541136 0.000481173)
(-0.000882063 -0.000705015 0.000481173)
(-0.000746238 -0.000847472 0.000481173)
(-0.000587738 -0.00096418 0.000481173)
(-0.000411381 -0.00105159 0.000481173)
(-0.000222524 -0.00110705 0.000481173)
(-2.69062e-05 -0.00112887 0.000481173)
(0.00016953 -0.0011164 0.000481173)
(0.000360814 -0.00107 0.000481173)
(0.000541136 -0.000991087 0.000481173)
(0.000705015 -0.000882063 0.000481173)
(0.000847472 -0.000746238 0.000481173)
(0.00096418 -0.000587739 0.000481173)
(0.00105159 -0.000411381 0.000481173)
(0.00110705 -0.000222524 0.000481173)
(0.00112887 -2.69063e-05 0.000481173)
(0.0011164 0.00016953 0.000481173)
(0.00107 0.000360814 0.000481173)
(0.000991087 0.000541136 0.000481173)
(0.000882063 0.000705015 0.000481173)
(0.000746238 0.000847472 0.000481173)
(0.000587739 0.00096418 0.000481173)
(0.000411381 0.00105159 0.000481173)
(0.000222524 0.00110705 0.000481173)
(1.27133e-05 0.00100637 0.000481718)
(-0.000162234 0.000993287 0.000481718)
(-0.000332252 0.000950025 0.000481718)
(-0.000492174 0.000877897 0.000481718)
(-0.000637142 0.000779095 0.000481718)
(-0.000762751 0.00065662 0.000481718)
(-0.000865184 0.000514194 0.000481718)
(-0.000941329 0.000356145 0.000481718)
(-0.000988872 0.000187274 0.000481718)
(-0.00100637 1.27132e-05 0.000481718)
(-0.000993287 -0.000162234 0.000481718)
(-0.000950025 -0.000332252 0.000481718)
(-0.000877897 -0.000492174 0.000481718)
(-0.000779095 -0.000637142 0.000481718)
(-0.00065662 -0.000762751 0.000481718)
(-0.000514194 -0.000865184 0.000481718)
(-0.000356145 -0.000941329 0.000481718)
(-0.000187274 -0.000988872 0.000481718)
(-1.27132e-05 -0.00100637 0.000481718)
(0.000162234 -0.000993287 0.000481718)
(0.000332252 -0.000950025 0.000481718)
(0.000492174 -0.000877897 0.000481718)
(0.000637142 -0.000779095 0.000481718)
(0.000762751 -0.00065662 0.000481718)
(0.000865184 -0.000514195 0.000481718)
(0.000941329 -0.000356145 0.000481718)
(0.000988872 -0.000187275 0.000481718)
(0.00100637 -1.27133e-05 0.000481718)
(0.000993287 0.000162234 0.000481718)
(0.000950025 0.000332252 0.000481718)
(0.000877897 0.000492174 0.000481718)
(0.000779095 0.000637142 0.000481718)
(0.00065662 0.000762751 0.000481718)