/*--------------------------------*- C++ -*----------------------------------*\
| =========                 |                                                 |
| \\      /  F ield         | OpenFOAM: The Open Source CFD Toolbox           |
|  \\    /   O peration     | Version:  2312                                  |
|   \\  /    A nd           | Website:  www.openfoam.com                      |
|    \\/     M anipulation  |                                                 |
\*---------------------------------------------------------------------------*/
FoamFile
{
    version     2.0;
    format      ascii;
    arch        "LSB;label=32;scalar=64";
    class       pointVectorField;
    location    "0.1";
    object      pointD;
}
// * * * * * * * * * * * * * * * * * * * * * * * * * * * * * * * * * * * * * //

dimensions      [0 1 0 0 0 0 0];

internalField   nonuniform List<vector> 
2164
(
(0 0 0)
(0 0 0)
(0 0 0)
(0 0 0)
(0 0 0)
(0 0 0)
(0 0 0)
(0 0 0)
(0 0 0)
(0 0 0)
(0 0 0)
(0 0 0)
(0 0 0)
(0 0 0)
(0 0 0)
(0 0 0)
(0 0 0)
(0 0 0)
(0 0 0)
(0 0 0)
(0 0 0)
(0 0 0)
(0 0 0)
(0 0 0)
(0 0 0)
(0 0 0)
(0 0 0)
(0 0 0)
(0 0 0)
(0 0 0)
(0 0 0)
(0 0 0)
(0 0 0)
(0 0 0)
(0 0 0)
(0 0 0)
(3.94166e-05 0.000274565 2.94467e-05)
(-8.85985e-06 0.000277239 2.94467e-05)
(-5.68672e-05 0.000271488 2.94469e-05)
(-0.000103147 0.000257489 2.9447e-05)
(-0.000146292 0.000235666 2.9447e-05)
(-0.000184992 0.000206682 2.94469e-05)
(-0.000218072 0.000171418 2.94469e-05)
(-0.000244526 0.000130947 2.94467e-05)
(-0.000263549 8.64956e-05 2.94467e-05)
(-0.000274565 3.94166e-05 2.94467e-05)
(-0.000277239 -8.85987e-06 2.94467e-05)
(-0.000271488 -5.68672e-05 2.94469e-05)
(-0.000257489 -0.000103147 2.9447e-05)
(-0.000235666 -0.000146292 2.9447e-05)
(-0.000206682 -0.000184992 2.94469e-05)
(-0.000171418 -0.000218072 2.94469e-05)
(-0.000130947 -0.000244526 2.94467e-05)
(-8.64956e-05 -0.000263549 2.94467e-05)
(-3.94166e-05 -0.000274565 2.94467e-05)
(8.85987e-06 -0.000277239 2.94467e-05)
(5.68672e-05 -0.000271488 2.94469e-05)
(0.000103147 -0.000257489 2.9447e-05)
(0.000146292 -0.000235666 2.9447e-05)
(0.000184992 -0.000206682 2.94469e-05)
(0.000218072 -0.000171418 2.94469e-05)
(0.000244526 -0.000130947 2.94467e-05)
(0.000263549 -8.64956e-05 2.94467e-05)
(0.000274565 -3.94166e-05 2.94467e-05)
(0.000277239 8.85985e-06 2.94467e-05)
(0.000271488 5.68672e-05 2.94469e-05)
(0.000257489 0.000103147 2.9447e-05)
(0.000235666 0.000146292 2.9447e-05)
(0.000206682 0.000184992 2.94469e-05)
(0.000171418 0.000218072 2.94469e-05)
(0.000130947 0.000244526 2.94467e-05)
(8.64956e-05 0.000263549 2.94467e-05)
(2.32691e-05 0.000260012 3.40911e-05)
(-2.22351e-05 0.000260103 3.40911e-05)
(-6.70634e-05 0.00025229 3.40912e-05)
(-0.000109854 0.000236812 3.40913e-05)
(-0.000149308 0.000214138 3.40913e-05)
(-0.000184224 0.000184958 3.40912e-05)
(-0.000213543 0.000150158 3.40912e-05)
(-0.000236373 0.000110795 3.40911e-05)
(-0.000252022 6.80663e-05 3.40911e-05)
(-0.000260012 2.32691e-05 3.40911e-05)
(-0.000260103 -2.22351e-05 3.40911e-05)
(-0.00025229 -6.70634e-05 3.40912e-05)
(-0.000236812 -0.000109854 3.40913e-05)
(-0.000214138 -0.000149308 3.40913e-05)
(-0.000184958 -0.000184224 3.40912e-05)
(-0.000150158 -0.000213543 3.40912e-05)
(-0.000110795 -0.000236373 3.40911e-05)
(-6.80663e-05 -0.000252022 3.40911e-05)
(-2.32691e-05 -0.000260012 3.40911e-05)
(2.22351e-05 -0.000260103 3.40911e-05)
(6.70634e-05 -0.00025229 3.40912e-05)
(0.000109854 -0.000236812 3.40913e-05)
(0.000149308 -0.000214138 3.40913e-05)
(0.000184224 -0.000184958 3.40912e-05)
(0.000213543 -0.000150158 3.40912e-05)
(0.000236373 -0.000110795 3.40911e-05)
(0.000252022 -6.80663e-05 3.40911e-05)
(0.000260012 -2.32691e-05 3.40911e-05)
(0.000260103 2.22351e-05 3.40911e-05)
(0.000252291 6.70634e-05 3.40912e-05)
(0.000236812 0.000109854 3.40913e-05)
(0.000214138 0.000149308 3.40913e-05)
(0.000184958 0.000184224 3.40912e-05)
(0.000150158 0.000213543 3.40912e-05)
(0.000110795 0.000236373 3.40911e-05)
(6.80663e-05 0.000252022 3.40911e-05)
(0 0 0)
(0 0 0)
(0 0 0)
(0 0 0)
(0 0 0)
(0 0 0)
(0 0 0)
(0 0 0)
(0 0 0)
(0 0 0)
(0 0 0)
(0 0 0)
(0 0 0)
(0 0 0)
(0 0 0)
(0 0 0)
(0 0 0)
(0 0 0)
(0 0 0)
(0 0 0)
(0 0 0)
(0 0 0)
(0 0 0)
(0 0 0)
(0 0 0)
(0 0 0)
(0 0 0)
(0 0 0)
(0 0 0)
(0 0 0)
(0 0 0)
(0 0 0)
(0 0 0)
(0 0 0)
(0 0 0)
(0 0 0)
(5.13031e-06 0.000245047 3.6697e-05)
(-3.74996e-05 0.000242215 3.66971e-05)
(-7.89901e-05 0.000232024 3.66971e-05)
(-0.00011808 0.000214782 3.66971e-05)
(-0.000153583 0.000191015 3.66971e-05)
(-0.000184419 0.000161443 3.66971e-05)
(-0.000209652 0.000126967 3.6697e-05)
(-0.000228514 8.86319e-05 3.6697e-05)
(-0.000240433 4.76044e-05 3.6697e-05)
(-0.000245047 5.13029e-06 3.6697e-05)
(-0.000242215 -3.74996e-05 3.66971e-05)
(-0.000232024 -7.89901e-05 3.66971e-05)
(-0.000214782 -0.00011808 3.66971e-05)
(-0.000191015 -0.000153583 3.66971e-05)
(-0.000161443 -0.000184419 3.66971e-05)
(-0.000126967 -0.000209652 3.6697e-05)
(-8.86319e-05 -0.000228514 3.6697e-05)
(-4.76044e-05 -0.000240433 3.6697e-05)
(-5.13029e-06 -0.000245047 3.6697e-05)
(3.74996e-05 -0.000242215 3.66971e-05)
(7.89901e-05 -0.000232024 3.66971e-05)
(0.00011808 -0.000214782 3.66971e-05)
(0.000153583 -0.000191015 3.66971e-05)
(0.000184419 -0.000161443 3.66971e-05)
(0.000209652 -0.000126967 3.6697e-05)
(0.000228514 -8.86319e-05 3.6697e-05)
(0.000240433 -4.76044e-05 3.6697e-05)
(0.000245047 -5.13031e-06 3.6697e-05)
(0.000242215 3.74996e-05 3.66971e-05)
(0.000232024 7.89901e-05 3.66971e-05)
(0.000214782 0.00011808 3.66971e-05)
(0.000191015 0.000153583 3.66971e-05)
(0.000161443 0.000184419 3.66971e-05)
(0.000126967 0.000209652 3.6697e-05)
(8.86319e-05 0.000228514 3.6697e-05)
(4.76045e-05 0.000240433 3.6697e-05)
(0 0 0)
(0 0 0)
(0 0 0)
(0 0 0)
(0 0 0)
(0 0 0)
(0 0 0)
(0 0 0)
(0 0 0)
(0 0 0)
(0 0 0)
(0 0 0)
(0 0 0)
(0 0 0)
(0 0 0)
(0 0 0)
(0 0 0)
(0 0 0)
(0 0 0)
(0 0 0)
(0 0 0)
(0 0 0)
(0 0 0)
(0 0 0)
(0 0 0)
(0 0 0)
(0 0 0)
(0 0 0)
(0 0 0)
(0 0 0)
(0 0 0)
(0 0 0)
(0 0 0)
(0 0 0)
(0 0 0)
(0 0 0)
(-1.47902e-05 0.000229159 3.73491e-05)
(-5.43584e-05 0.000223109 3.73491e-05)
(-9.22751e-05 0.000210281 3.73491e-05)
(-0.000127388 0.000191062 3.73491e-05)
(-0.00015863 0.000166039 3.73491e-05)
(-0.000185053 0.00013597 3.73491e-05)
(-0.000205853 0.000101771 3.73491e-05)
(-0.000220397 6.44786e-05 3.73491e-05)
(-0.000228246 2.52276e-05 3.73491e-05)
(-0.000229159 -1.47902e-05 3.73491e-05)
(-0.000223109 -5.43584e-05 3.73491e-05)
(-0.000210281 -9.22751e-05 3.73491e-05)
(-0.000191062 -0.000127388 3.73491e-05)
(-0.000166039 -0.00015863 3.73491e-05)
(-0.00013597 -0.000185053 3.73491e-05)
(-0.000101771 -0.000205853 3.73491e-05)
(-6.44786e-05 -0.000220397 3.73491e-05)
(-2.52276e-05 -0.000228246 3.73491e-05)
(1.47902e-05 -0.000229159 3.73491e-05)
(5.43584e-05 -0.000223109 3.73491e-05)
(9.22751e-05 -0.000210281 3.73491e-05)
(0.000127388 -0.000191062 3.73491e-05)
(0.00015863 -0.000166039 3.73491e-05)
(0.000185053 -0.00013597 3.73491e-05)
(0.000205853 -0.000101771 3.73491e-05)
(0.000220397 -6.44786e-05 3.73491e-05)
(0.000228246 -2.52276e-05 3.73491e-05)
(0.000229159 1.47902e-05 3.73491e-05)
(0.000223109 5.43584e-05 3.73491e-05)
(0.000210281 9.22751e-05 3.73491e-05)
(0.000191062 0.000127388 3.73491e-05)
(0.000166039 0.00015863 3.73491e-05)
(0.00013597 0.000185053 3.73491e-05)
(0.000101771 0.000205853 3.73491e-05)
(6.44786e-05 0.000220397 3.73491e-05)
(2.52276e-05 0.000228246 3.73491e-05)
(0 0 0)
(0 0 0)
(0 0 0)
(0 0 0)
(0 0 0)
(0 0 0)
(0 0 0)
(0 0 0)
(0 0 0)
(0 0 0)
(0 0 0)
(0 0 0)
(0 0 0)
(0 0 0)
(0 0 0)
(0 0 0)
(0 0 0)
(0 0 0)
(0 0 0)
(0 0 0)
(0 0 0)
(0 0 0)
(0 0 0)
(0 0 0)
(0 0 0)
(0 0 0)
(0 0 0)
(0 0 0)
(0 0 0)
(0 0 0)
(0 0 0)
(0 0 0)
(0 0 0)
(0 0 0)
(0 0 0)
(0 0 0)
(4.90547e-05 0.00054937 8.74291e-05)
(-4.70877e-05 0.000549543 8.74292e-05)
(-0.000141799 0.000533017 8.74295e-05)
(-0.000232202 0.000500296 8.74297e-05)
(-0.00031555 0.000452374 8.74297e-05)
(-0.00038931 0.000390707 8.74297e-05)
(-0.000451241 0.000317168 8.74295e-05)
(-0.000499462 0.000233992 8.74292e-05)
(-0.000532506 0.000143706 8.74291e-05)
(-0.00054937 4.90547e-05 8.74291e-05)
(-0.000549543 -4.70877e-05 8.74292e-05)
(-0.000533017 -0.000141799 8.74295e-05)
(-0.000500296 -0.000232202 8.74297e-05)
(-0.000452374 -0.00031555 8.74297e-05)
(-0.000390707 -0.00038931 8.74296e-05)
(-0.000317168 -0.000451241 8.74295e-05)
(-0.000233992 -0.000499462 8.74292e-05)
(-0.000143706 -0.000532506 8.74291e-05)
(-4.90547e-05 -0.00054937 8.74291e-05)
(4.70877e-05 -0.000549543 8.74292e-05)
(0.000141799 -0.000533017 8.74295e-05)
(0.000232202 -0.000500296 8.74297e-05)
(0.00031555 -0.000452374 8.74297e-05)
(0.00038931 -0.000390707 8.74296e-05)
(0.000451241 -0.000317168 8.74295e-05)
(0.000499462 -0.000233992 8.74293e-05)
(0.000532506 -0.000143707 8.74291e-05)
(0.00054937 -4.90547e-05 8.74291e-05)
(0.000549543 4.70877e-05 8.74292e-05)
(0.000533017 0.000141799 8.74295e-05)
(0.000500296 0.000232202 8.74297e-05)
(0.000452374 0.00031555 8.74298e-05)
(0.000390707 0.00038931 8.74297e-05)
(0.000317168 0.000451241 8.74295e-05)
(0.000233992 0.000499462 8.74293e-05)
(0.000143707 0.000532506 8.74291e-05)
(3.04652e-05 0.000515887 9.38478e-05)
(-5.95807e-05 0.00051334 9.38479e-05)
(-0.000147816 0.000495195 9.3848e-05)
(-0.00023156 0.000462004 9.38481e-05)
(-0.000308268 0.000414775 9.38482e-05)
(-0.00037561 0.000354944 9.38481e-05)
(-0.000431539 0.000284327 9.3848e-05)
(-0.000474356 0.000205071 9.38478e-05)
(-0.000502759 0.000119585 9.38478e-05)
(-0.000515887 3.04652e-05 9.38478e-05)
(-0.00051334 -5.95807e-05 9.38479e-05)
(-0.000495195 -0.000147816 9.3848e-05)
(-0.000462004 -0.00023156 9.38481e-05)
(-0.000414775 -0.000308268 9.38482e-05)
(-0.000354944 -0.00037561 9.3848e-05)
(-0.000284327 -0.000431539 9.3848e-05)
(-0.000205071 -0.000474356 9.38478e-05)
(-0.000119585 -0.000502759 9.38478e-05)
(-3.04651e-05 -0.000515887 9.38478e-05)
(5.95808e-05 -0.00051334 9.38479e-05)
(0.000147816 -0.000495195 9.3848e-05)
(0.00023156 -0.000462004 9.38481e-05)
(0.000308268 -0.000414775 9.38482e-05)
(0.00037561 -0.000354944 9.38481e-05)
(0.000431539 -0.000284327 9.3848e-05)
(0.000474356 -0.000205071 9.38478e-05)
(0.000502759 -0.000119585 9.38478e-05)
(0.000515887 -3.04652e-05 9.38478e-05)
(0.00051334 5.95807e-05 9.38479e-05)
(0.000495195 0.000147816 9.3848e-05)
(0.000462004 0.00023156 9.38481e-05)
(0.000414775 0.000308268 9.38482e-05)
(0.000354944 0.00037561 9.38481e-05)
(0.000284327 0.000431539 9.3848e-05)
(0.000205071 0.000474356 9.38478e-05)
(0.000119585 0.000502759 9.38478e-05)
(9.71561e-06 0.000481693 9.92407e-05)
(-7.40766e-05 0.000476062 9.92407e-05)
(-0.000155619 0.000455967 9.92408e-05)
(-0.000232432 0.000422016 9.92408e-05)
(-0.000302184 0.000375243 9.92408e-05)
(-0.000362753 0.000317069 9.92408e-05)
(-0.000412301 0.00024926 9.92407e-05)
(-0.00044932 0.000173879 9.92406e-05)
(-0.000472688 9.32133e-05 9.92406e-05)
(-0.000481693 9.71557e-06 9.92407e-05)
(-0.000476062 -7.40766e-05 9.92407e-05)
(-0.000455967 -0.000155619 9.92408e-05)
(-0.000422016 -0.000232432 9.92408e-05)
(-0.000375243 -0.000302184 9.92408e-05)
(-0.000317069 -0.000362753 9.92408e-05)
(-0.00024926 -0.000412301 9.92407e-05)
(-0.000173879 -0.00044932 9.92406e-05)
(-9.32133e-05 -0.000472688 9.92406e-05)
(-9.71556e-06 -0.000481693 9.92407e-05)
(7.40766e-05 -0.000476062 9.92407e-05)
(0.000155619 -0.000455967 9.92408e-05)
(0.000232432 -0.000422017 9.92408e-05)
(0.000302184 -0.000375243 9.92408e-05)
(0.000362753 -0.000317069 9.92408e-05)
(0.000412301 -0.00024926 9.92407e-05)
(0.00044932 -0.000173879 9.92406e-05)
(0.000472688 -9.32133e-05 9.92406e-05)
(0.000481693 -9.7156e-06 9.92407e-05)
(0.000476062 7.40766e-05 9.92407e-05)
(0.000455967 0.000155619 9.92408e-05)
(0.000422017 0.000232432 9.92408e-05)
(0.000375243 0.000302184 9.92408e-05)
(0.000317069 0.000362753 9.92408e-05)
(0.00024926 0.000412301 9.92407e-05)
(0.000173879 0.00044932 9.92406e-05)
(9.32133e-05 0.000472688 9.92406e-05)
(-1.26417e-05 0.000445994 0.000103612)
(-8.98956e-05 0.000437023 0.000103612)
(-0.000164418 0.000414774 0.000103612)
(-0.000233945 0.000379922 0.000103612)
(-0.000296363 0.000333526 0.000103612)
(-0.000349777 0.000276996 0.000103612)
(-0.000392562 0.000212049 0.000103612)
(-0.00042342 0.00014066 0.000103612)
(-0.000441413 6.49967e-05 0.000103612)
(-0.000445994 -1.26417e-05 0.000103612)
(-0.000437023 -8.98957e-05 0.000103612)
(-0.000414774 -0.000164418 0.000103612)
(-0.000379922 -0.000233945 0.000103612)
(-0.000333526 -0.000296363 0.000103612)
(-0.000276996 -0.000349777 0.000103612)
(-0.000212049 -0.000392562 0.000103612)
(-0.00014066 -0.00042342 0.000103612)
(-6.49967e-05 -0.000441413 0.000103612)
(1.26417e-05 -0.000445994 0.000103612)
(8.98957e-05 -0.000437023 0.000103612)
(0.000164418 -0.000414774 0.000103612)
(0.000233945 -0.000379922 0.000103612)
(0.000296363 -0.000333526 0.000103612)
(0.000349777 -0.000276996 0.000103612)
(0.000392562 -0.000212049 0.000103612)
(0.00042342 -0.00014066 0.000103612)
(0.000441413 -6.49967e-05 0.000103612)
(0.000445994 1.26417e-05 0.000103612)
(0.000437023 8.98957e-05 0.000103612)
(0.000414774 0.000164418 0.000103612)
(0.000379922 0.000233945 0.000103612)
(0.000333526 0.000296363 0.000103612)
(0.000276996 0.000349777 0.000103612)
(0.000212049 0.000392562 0.000103612)
(0.00014066 0.00042342 0.000103612)
(6.49967e-05 0.000441413 0.000103612)
(4.49724e-05 0.000814999 0.000172151)
(-9.72339e-05 0.000810426 0.000172151)
(-0.000236486 0.000781229 0.000172152)
(-0.000368552 0.000728295 0.000172152)
(-0.00048942 0.000653232 0.000172152)
(-0.000595417 0.000558322 0.000172152)
(-0.000683323 0.000446446 0.000172152)
(-0.000750467 0.000321005 0.000172151)
(-0.000794807 0.000185812 0.000172151)
(-0.000814999 4.49724e-05 0.000172151)
(-0.000810426 -9.7234e-05 0.000172151)
(-0.000781229 -0.000236486 0.000172152)
(-0.000728295 -0.000368552 0.000172152)
(-0.000653232 -0.00048942 0.000172152)
(-0.000558321 -0.000595417 0.000172152)
(-0.000446446 -0.000683323 0.000172152)
(-0.000321005 -0.000750467 0.000172151)
(-0.000185812 -0.000794808 0.000172151)
(-4.49723e-05 -0.000814999 0.000172151)
(9.7234e-05 -0.000810426 0.000172151)
(0.000236486 -0.000781229 0.000172152)
(0.000368552 -0.000728295 0.000172152)
(0.00048942 -0.000653232 0.000172152)
(0.000595417 -0.000558322 0.000172152)
(0.000683323 -0.000446446 0.000172152)
(0.000750467 -0.000321005 0.000172151)
(0.000794808 -0.000185812 0.000172151)
(0.000814999 -4.49724e-05 0.000172151)
(0.000810426 9.72339e-05 0.000172151)
(0.000781229 0.000236486 0.000172152)
(0.000728295 0.000368552 0.000172152)
(0.000653232 0.00048942 0.000172152)
(0.000558322 0.000595417 0.000172152)
(0.000446446 0.000683323 0.000172152)
(0.000321006 0.000750467 0.000172151)
(0.000185812 0.000794807 0.000172151)
(2.48818e-05 0.00076031 0.000179946)
(-0.000107523 0.00075308 0.000179946)
(-0.00023666 0.000722968 0.000179946)
(-0.000358607 0.000670889 0.000179946)
(-0.000469657 0.000598425 0.000179946)
(-0.000566437 0.000507779 0.000179946)
(-0.000646007 0.000401703 0.000179946)
(-0.000705947 0.000283423 0.000179946)
(-0.000744438 0.00015653 0.000179946)
(-0.00076031 2.48818e-05 0.000179946)
(-0.00075308 -0.000107523 0.000179946)
(-0.000722968 -0.00023666 0.000179946)
(-0.000670889 -0.000358607 0.000179946)
(-0.000598425 -0.000469657 0.000179946)
(-0.000507779 -0.000566437 0.000179946)
(-0.000401703 -0.000646007 0.000179946)
(-0.000283423 -0.000705948 0.000179946)
(-0.00015653 -0.000744438 0.000179946)
(-2.48818e-05 -0.00076031 0.000179946)
(0.000107523 -0.00075308 0.000179946)
(0.00023666 -0.000722968 0.000179946)
(0.000358607 -0.000670889 0.000179946)
(0.000469657 -0.000598425 0.000179946)
(0.000566437 -0.000507779 0.000179946)
(0.000646007 -0.000401703 0.000179946)
(0.000705948 -0.000283423 0.000179946)
(0.000744438 -0.00015653 0.000179946)
(0.00076031 -2.48818e-05 0.000179946)
(0.00075308 0.000107523 0.000179946)
(0.000722968 0.00023666 0.000179946)
(0.000670889 0.000358607 0.000179946)
(0.000598425 0.000469657 0.000179946)
(0.000507779 0.000566437 0.000179946)
(0.000401703 0.000646007 0.000179946)
(0.000283423 0.000705947 0.000179946)
(0.00015653 0.000744438 0.000179946)
(2.62158e-06 0.000704905 0.000186827)
(-0.000119824 0.000694651 0.000186827)
(-0.000238628 0.000663291 0.000186827)
(-0.000350182 0.000611777 0.000186827)
(-0.000451096 0.000541674 0.000186827)
(-0.000538304 0.000455112 0.000186827)
(-0.000609155 0.000354723 0.000186827)
(-0.000661498 0.000243555 0.000186827)
(-0.000693741 0.000124987 0.000186827)
(-0.000704905 2.62153e-06 0.000186827)
(-0.000694651 -0.000119824 0.000186827)
(-0.000663291 -0.000238628 0.000186827)
(-0.000611777 -0.000350182 0.000186827)
(-0.000541674 -0.000451096 0.000186827)
(-0.000455112 -0.000538304 0.000186827)
(-0.000354723 -0.000609155 0.000186827)
(-0.000243555 -0.000661498 0.000186827)
(-0.000124987 -0.000693741 0.000186827)
(-2.6215e-06 -0.000704905 0.000186827)
(0.000119824 -0.000694651 0.000186827)
(0.000238628 -0.000663291 0.000186827)
(0.000350182 -0.000611777 0.000186827)
(0.000451096 -0.000541674 0.000186827)
(0.000538304 -0.000455112 0.000186827)
(0.000609155 -0.000354723 0.000186827)
(0.000661498 -0.000243555 0.000186827)
(0.000693741 -0.000124987 0.000186827)
(0.000704905 -2.62156e-06 0.000186827)
(0.000694651 0.000119824 0.000186827)
(0.000663291 0.000238628 0.000186827)
(0.000611777 0.000350182 0.000186827)
(0.000541674 0.000451096 0.000186827)
(0.000455112 0.000538304 0.000186827)
(0.000354723 0.000609155 0.000186827)
(0.000243555 0.000661498 0.000186827)
(0.000124987 0.000693741 0.000186827)
(-2.09052e-05 0.000647743 0.000192771)
(-0.000133066 0.000634272 0.000192771)
(-0.000241185 0.000601529 0.000192771)
(-0.000341975 0.000550509 0.000192771)
(-0.000432375 0.000482762 0.000192771)
(-0.000509637 0.000400347 0.000192771)
(-0.000571414 0.000305767 0.000192771)
(-0.000615829 0.000201897 0.000192771)
(-0.000641532 9.18919e-05 0.000192771)
(-0.000647743 -2.09052e-05 0.000192771)
(-0.000634272 -0.000133067 0.000192771)
(-0.000601529 -0.000241185 0.000192771)
(-0.000550509 -0.000341975 0.000192771)
(-0.000482762 -0.000432375 0.000192771)
(-0.000400347 -0.000509637 0.000192771)
(-0.000305767 -0.000571414 0.000192771)
(-0.000201897 -0.000615829 0.000192771)
(-9.18919e-05 -0.000641532 0.000192771)
(2.09053e-05 -0.000647743 0.000192771)
(0.000133067 -0.000634272 0.000192771)
(0.000241185 -0.000601529 0.000192771)
(0.000341975 -0.000550509 0.000192771)
(0.000432375 -0.000482763 0.000192771)
(0.000509637 -0.000400347 0.000192771)
(0.000571414 -0.000305767 0.000192771)
(0.000615829 -0.000201897 0.000192771)
(0.000641532 -9.1892e-05 0.000192771)
(0.000647743 2.09052e-05 0.000192771)
(0.000634272 0.000133066 0.000192771)
(0.000601529 0.000241185 0.000192771)
(0.000550509 0.000341975 0.000192771)
(0.000482763 0.000432375 0.000192771)
(0.000400347 0.000509637 0.000192771)
(0.000305767 0.000571414 0.000192771)
(0.000201897 0.000615829 0.000192771)
(9.1892e-05 0.000641532 0.000192771)
(2.28445e-05 0.00106568 0.000273935)
(-0.000162556 0.00105345 0.000273935)
(-0.000343016 0.00100922 0.000273936)
(-0.000513054 0.000934324 0.000273936)
(-0.000667502 0.000831038 0.000273936)
(-0.00080167 0.000702503 0.000273936)
(-0.000911479 0.000552621 0.000273936)
(-0.000993594 0.000385948 0.000273935)
(-0.00104552 0.000207549 0.000273935)
(-0.00106568 2.28444e-05 0.000273935)
(-0.00105345 -0.000162556 0.000273935)
(-0.00100922 -0.000343016 0.000273935)
(-0.000934324 -0.000513054 0.000273936)
(-0.000831038 -0.000667503 0.000273936)
(-0.000702503 -0.00080167 0.000273936)
(-0.000552621 -0.000911479 0.000273936)
(-0.000385948 -0.000993594 0.000273935)
(-0.000207549 -0.00104552 0.000273935)
(-2.28444e-05 -0.00106568 0.000273935)
(0.000162556 -0.00105345 0.000273935)
(0.000343016 -0.00100922 0.000273935)
(0.000513054 -0.000934324 0.000273936)
(0.000667503 -0.000831038 0.000273936)
(0.00080167 -0.000702503 0.000273936)
(0.000911479 -0.000552621 0.000273936)
(0.000993594 -0.000385948 0.000273935)
(0.00104552 -0.000207549 0.000273935)
(0.00106568 -2.28445e-05 0.000273935)
(0.00105345 0.000162556 0.000273935)
(0.00100922 0.000343016 0.000273936)
(0.000934324 0.000513054 0.000273936)
(0.000831038 0.000667502 0.000273936)
(0.000702503 0.00080167 0.000273936)
(0.000552621 0.000911479 0.000273936)
(0.000385949 0.000993594 0.000273936)
(0.000207549 0.00104552 0.000273935)
(4.08796e-06 0.000988004 0.000282087)
(-0.000167539 0.000973704 0.000282087)
(-0.000334076 0.000929818 0.000282087)
(-0.000490461 0.000857681 0.000282087)
(-0.000631945 0.000759483 0.000282087)
(-0.000754227 0.000638208 0.000282087)
(-0.000853592 0.000497543 0.000282087)
(-0.000927022 0.000341759 0.000282087)
(-0.000972284 0.000175591 0.000282087)
(-0.000988004 4.08789e-06 0.000282087)
(-0.000973704 -0.00016754 0.000282087)
(-0.000929818 -0.000334076 0.000282087)
(-0.000857681 -0.000490461 0.000282087)
(-0.000759483 -0.000631945 0.000282087)
(-0.000638208 -0.000754227 0.000282087)
(-0.000497543 -0.000853592 0.000282087)
(-0.000341759 -0.000927022 0.000282087)
(-0.000175591 -0.000972284 0.000282087)
(-4.08786e-06 -0.000988004 0.000282087)
(0.00016754 -0.000973704 0.000282087)
(0.000334076 -0.000929818 0.000282087)
(0.000490461 -0.000857681 0.000282087)
(0.000631945 -0.000759483 0.000282087)
(0.000754227 -0.000638208 0.000282087)
(0.000853592 -0.000497543 0.000282087)
(0.000927022 -0.000341759 0.000282087)
(0.000972284 -0.000175591 0.000282087)
(0.000988004 -4.08795e-06 0.000282087)
(0.000973704 0.000167539 0.000282087)
(0.000929818 0.000334076 0.000282087)
(0.000857681 0.000490461 0.000282087)
(0.000759483 0.000631945 0.000282087)
(0.000638208 0.000754227 0.000282087)
(0.000497543 0.000853592 0.000282087)
(0.000341759 0.000927022 0.000282087)
(0.000175591 0.000972284 0.000282087)
(-1.66878e-05 0.000909831 0.000289314)
(-0.000174424 0.00089311 0.000289314)
(-0.000326862 0.000849253 0.000289314)
(-0.000469367 0.000779592 0.000289314)
(-0.00059761 0.000686244 0.000289314)
(-0.000707696 0.000572045 0.000289314)
(-0.00079628 0.000440463 0.000289314)
(-0.000860668 0.0002955 0.000289314)
(-0.000898905 0.000141556 0.000289314)
(-0.000909831 -1.66878e-05 0.000289314)
(-0.00089311 -0.000174424 0.000289314)
(-0.000849253 -0.000326862 0.000289314)
(-0.000779592 -0.000469367 0.000289314)
(-0.000686244 -0.00059761 0.000289314)
(-0.000572045 -0.000707696 0.000289314)
(-0.000440463 -0.00079628 0.000289314)
(-0.0002955 -0.000860668 0.000289314)
(-0.000141556 -0.000898906 0.000289314)
(1.66879e-05 -0.000909831 0.000289314)
(0.000174424 -0.00089311 0.000289314)
(0.000326862 -0.000849253 0.000289314)
(0.000469367 -0.000779592 0.000289314)
(0.00059761 -0.000686244 0.000289314)
(0.000707696 -0.000572045 0.000289314)
(0.00079628 -0.000440463 0.000289314)
(0.000860668 -0.0002955 0.000289314)
(0.000898906 -0.000141556 0.000289314)
(0.000909831 1.66878e-05 0.000289314)
(0.00089311 0.000174424 0.000289314)
(0.000849253 0.000326862 0.000289314)
(0.000779592 0.000469367 0.000289314)
(0.000686244 0.00059761 0.000289314)
(0.000572045 0.000707696 0.000289314)
(0.000440463 0.00079628 0.000289314)
(0.0002955 0.000860668 0.000289314)
(0.000141556 0.000898905 0.000289314)
(-3.86057e-05 0.000829828 0.000295511)
(-0.000182117 0.000810517 0.000295511)
(-0.000320095 0.00076658 0.000295511)
(-0.000448348 0.000699349 0.000295511)
(-0.000562976 0.00061087 0.000295511)
(-0.0006605 0.000503829 0.000295511)
(-0.000737954 0.00038148 0.000295511)
(-0.000792987 0.000247541 0.000295511)
(-0.000823924 0.000106079 0.000295511)
(-0.000829828 -3.86057e-05 0.000295511)
(-0.000810517 -0.000182117 0.000295511)
(-0.000766579 -0.000320095 0.000295511)
(-0.000699349 -0.000448348 0.000295511)
(-0.00061087 -0.000562976 0.000295511)
(-0.000503829 -0.0006605 0.00029551)
(-0.00038148 -0.000737954 0.000295511)
(-0.000247541 -0.000792987 0.000295511)
(-0.000106079 -0.000823925 0.000295511)
(3.86058e-05 -0.000829828 0.000295511)
(0.000182117 -0.000810517 0.000295511)
(0.000320095 -0.00076658 0.000295511)
(0.000448348 -0.000699349 0.000295511)
(0.000562976 -0.00061087 0.000295511)
(0.0006605 -0.000503829 0.000295511)
(0.000737954 -0.00038148 0.000295511)
(0.000792987 -0.000247541 0.000295511)
(0.000823925 -0.000106079 0.000295511)
(0.000829828 3.86057e-05 0.000295511)
(0.000810517 0.000182117 0.000295511)
(0.00076658 0.000320095 0.000295511)
(0.000699349 0.000448348 0.000295511)
(0.00061087 0.000562976 0.000295511)
(0.000503829 0.0006605 0.000295511)
(0.00038148 0.000737954 0.000295511)
(0.000247541 0.000792987 0.000295511)
(0.000106079 0.000823925 0.000295511)
(-1.6197e-05 0.00129622 0.000389133)
(-0.000241038 0.00127372 0.000389133)
(-0.000458554 0.00121251 0.000389133)
(-0.000662138 0.00111446 0.000389133)
(-0.000845603 0.000982553 0.000389133)
(-0.00100338 0.000820787 0.000389133)
(-0.00113066 0.000634084 0.000389133)
(-0.00122359 0.000428114 0.000389133)
(-0.00127934 0.000209135 0.000389133)
(-0.00129622 -1.61971e-05 0.000389133)
(-0.00127372 -0.000241038 0.000389133)
(-0.00121251 -0.000458554 0.000389133)
(-0.00111446 -0.000662138 0.000389133)
(-0.000982553 -0.000845603 0.000389133)
(-0.000820787 -0.00100338 0.000389133)
(-0.000634084 -0.00113066 0.000389133)
(-0.000428114 -0.00122359 0.000389133)
(-0.000209135 -0.00127934 0.000389133)
(1.61971e-05 -0.00129622 0.000389133)
(0.000241038 -0.00127372 0.000389133)
(0.000458554 -0.00121251 0.000389133)
(0.000662138 -0.00111446 0.000389133)
(0.000845603 -0.000982553 0.000389133)
(0.00100338 -0.000820788 0.000389133)
(0.00113066 -0.000634084 0.000389133)
(0.00122359 -0.000428114 0.000389133)
(0.00127934 -0.000209136 0.000389133)
(0.00129622 1.6197e-05 0.000389133)
(0.00127372 0.000241038 0.000389133)
(0.00121251 0.000458554 0.000389133)
(0.00111446 0.000662138 0.000389133)
(0.000982553 0.000845603 0.000389133)
(0.000820788 0.00100338 0.000389133)
(0.000634084 0.00113066 0.000389133)
(0.000428114 0.00122359 0.000389133)
(0.000209136 0.00127934 0.000389133)
(-3.1076e-05 0.00119405 0.000396419)
(-0.000237949 0.00117052 0.000396419)
(-0.000437592 0.00111141 0.000396419)
(-0.000623938 0.00101854 0.000396419)
(-0.000791327 0.000894722 0.000396419)
(-0.000934671 0.000743717 0.000396419)
(-0.00104962 0.000570114 0.000396419)
(-0.00113267 0.000379189 0.000396419)
(-0.00118131 0.000176741 0.000396419)
(-0.00119405 -3.10761e-05 0.000396419)
(-0.00117052 -0.000237949 0.000396419)
(-0.00111141 -0.000437592 0.000396419)
(-0.00101854 -0.000623938 0.000396419)
(-0.000894722 -0.000791327 0.000396419)
(-0.000743717 -0.000934672 0.000396419)
(-0.000570114 -0.00104962 0.000396419)
(-0.000379189 -0.00113267 0.000396419)
(-0.000176741 -0.00118131 0.000396419)
(3.10761e-05 -0.00119405 0.000396419)
(0.000237949 -0.00117052 0.000396419)
(0.000437592 -0.00111141 0.000396419)
(0.000623938 -0.00101854 0.000396419)
(0.000791327 -0.000894722 0.000396419)
(0.000934672 -0.000743717 0.000396419)
(0.00104962 -0.000570114 0.000396419)
(0.00113267 -0.000379189 0.000396419)
(0.00118131 -0.000176741 0.000396419)
(0.00119405 3.1076e-05 0.000396419)
(0.00117052 0.000237949 0.000396419)
(0.00111141 0.000437592 0.000396419)
(0.00101854 0.000623938 0.000396419)
(0.000894722 0.000791327 0.000396419)
(0.000743717 0.000934672 0.000396419)
(0.000570114 0.00104962 0.000396419)
(0.000379189 0.00113267 0.000396419)
(0.000176741 0.00118131 0.000396419)
(-4.78368e-05 0.00109172 0.000402749)
(-0.000236684 0.00106683 0.000402749)
(-0.000418341 0.00100952 0.000402749)
(-0.000587286 0.000921538 0.000402749)
(-0.000738388 0.000805556 0.000402749)
(-0.000867053 0.000665098 0.000402749)
(-0.000969374 0.000504431 0.000402749)
(-0.00104224 0.000328439 0.000402749)
(-0.00108344 0.000142465 0.000402749)
(-0.00109172 -4.78369e-05 0.000402749)
(-0.00106683 -0.000236684 0.000402749)
(-0.00100952 -0.000418341 0.000402749)
(-0.000921538 -0.000587286 0.000402749)
(-0.000805556 -0.000738388 0.000402749)
(-0.000665098 -0.000867053 0.000402749)
(-0.000504431 -0.000969374 0.000402749)
(-0.000328439 -0.00104224 0.000402749)
(-0.000142465 -0.00108344 0.000402749)
(4.78369e-05 -0.00109172 0.000402749)
(0.000236684 -0.00106683 0.000402749)
(0.000418341 -0.00100952 0.000402749)
(0.000587286 -0.000921538 0.000402749)
(0.000738388 -0.000805556 0.000402749)
(0.000867053 -0.000665099 0.000402749)
(0.000969374 -0.000504431 0.000402749)
(0.00104224 -0.000328439 0.000402749)
(0.00108344 -0.000142465 0.000402749)
(0.00109172 4.78368e-05 0.000402749)
(0.00106683 0.000236684 0.000402749)
(0.00100952 0.000418341 0.000402749)
(0.000921538 0.000587286 0.000402749)
(0.000805556 0.000738388 0.000402749)
(0.000665099 0.000867053 0.000402749)
(0.000504431 0.000969374 0.000402749)
(0.000328439 0.00104224 0.000402749)
(0.000142465 0.00108344 0.000402749)
(-6.56118e-05 0.000987634 0.000407908)
(-0.000236117 0.000961236 0.000407908)
(-0.000399446 0.000905631 0.000407909)
(-0.000550638 0.000822511 0.000407908)
(-0.000685101 0.000714397 0.000407908)
(-0.000798745 0.000584578 0.000407908)
(-0.000888122 0.000436996 0.000407908)
(-0.000950513 0.000276136 0.000407908)
(-0.000984023 0.000106885 0.000407909)
(-0.000987634 -6.56119e-05 0.000407908)
(-0.000961236 -0.000236117 0.000407908)
(-0.000905631 -0.000399447 0.000407909)
(-0.00082251 -0.000550638 0.000407908)
(-0.000714397 -0.000685101 0.000407908)
(-0.000584578 -0.000798745 0.000407908)
(-0.000436996 -0.000888122 0.000407908)
(-0.000276135 -0.000950513 0.000407908)
(-0.000106885 -0.000984023 0.000407909)
(6.56119e-05 -0.000987634 0.000407908)
(0.000236117 -0.000961236 0.000407908)
(0.000399447 -0.000905631 0.000407909)
(0.000550638 -0.000822511 0.000407908)
(0.000685101 -0.000714397 0.000407908)
(0.000798746 -0.000584578 0.000407908)
(0.000888122 -0.000436996 0.000407908)
(0.000950513 -0.000276136 0.000407908)
(0.000984023 -0.000106886 0.000407909)
(0.000987634 6.56118e-05 0.000407908)
(0.000961237 0.000236117 0.000407908)
(0.000905631 0.000399446 0.000407909)
(0.000822511 0.000550638 0.000407908)
(0.000714397 0.000685101 0.000407908)
(0.000584578 0.000798745 0.000407908)
(0.000436996 0.000888122 0.000407908)
(0.000276136 0.000950513 0.000407908)
(0.000106886 0.000984023 0.000407909)
(-6.97471e-05 0.00150147 0.000515048)
(-0.000329415 0.00146655 0.000515048)
(-0.000579073 0.00138706 0.000515048)