/*--------------------------------*- C++ -*----------------------------------*\
| =========                 |                                                 |
| \\      /  F ield         | OpenFOAM: The Open Source CFD Toolbox           |
|  \\    /   O peration     | Version:  2312                                  |
|   \\  /    A nd           | Website:  www.openfoam.com                      |
|    \\/     M anipulation  |                                                 |
\*---------------------------------------------------------------------------*/
FoamFile
{
    version     2.0;
    format      ascii;
    arch        "LSB;label=32;scalar=64";
    class       volVectorField;
    location    "0.1";
    object      traction;
}
// * * * * * * * * * * * * * * * * * * * * * * * * * * * * * * * * * * * * * //

dimensions      [1 -1 -2 0 0 0 0];

internalField   uniform (0 0 0);

boundaryField
{
    fixed
    {
        type            calculated;
        value           nonuniform List<vector> 
108
(
(-21.7369 -540.23 -4060.71)
(72.4031 -535.798 -4060.7)
(164.344 -515.085 -4060.7)
(251.291 -478.721 -4060.72)
(330.602 -427.813 -4060.73)
(399.868 -363.905 -4060.72)
(456.984 -288.94 -4060.72)
(500.216 -205.196 -4060.72)
(528.248 -115.217 -4060.72)
(540.23 -21.7369 -4060.71)
(535.798 72.4031 -4060.7)
(515.085 164.344 -4060.7)
(478.721 251.291 -4060.72)
(427.813 330.602 -4060.73)
(363.905 399.868 -4060.72)
(288.94 456.984 -4060.72)
(205.196 500.216 -4060.72)
(115.217 528.248 -4060.72)
(21.7369 540.23 -4060.71)
(-72.4031 535.798 -4060.7)
(-164.344 515.085 -4060.7)
(-251.291 478.721 -4060.72)
(-330.602 427.813 -4060.73)
(-399.868 363.905 -4060.72)
(-456.984 288.94 -4060.72)
(-500.216 205.196 -4060.72)
(-528.248 115.217 -4060.72)
(-540.23 21.7369 -4060.71)
(-535.798 -72.4031 -4060.7)
(-515.085 -164.344 -4060.7)
(-478.721 -251.291 -4060.72)
(-427.813 -330.602 -4060.73)
(-363.905 -399.868 -4060.72)
(-288.94 -456.984 -4060.72)
(-205.196 -500.216 -4060.72)
(-115.217 -528.248 -4060.72)
(-7.0393 -499.337 -4884.04)
(79.7765 -492.973 -4884.03)
(164.169 -471.631 -4884.02)
(243.573 -435.958 -4884.03)
(315.575 -387.039 -4884.04)
(377.989 -326.36 -4884.04)
(428.919 -255.765 -4884.02)
(466.816 -177.398 -4884.04)
(490.529 -93.6412 -4884.05)
(499.337 -7.03928 -4884.04)
(492.973 79.7766 -4884.03)
(471.631 164.169 -4884.02)
(435.958 243.573 -4884.03)
(387.039 315.575 -4884.04)
(326.36 377.989 -4884.04)
(255.765 428.919 -4884.02)
(177.398 466.816 -4884.04)
(93.6412 490.529 -4884.05)
(7.03927 499.337 -4884.04)
(-79.7766 492.973 -4884.03)
(-164.169 471.631 -4884.02)
(-243.573 435.958 -4884.03)
(-315.575 387.039 -4884.04)
(-377.989 326.36 -4884.04)
(-428.919 255.765 -4884.02)
(-466.816 177.398 -4884.04)
(-490.529 93.6412 -4884.05)
(-499.337 7.03929 -4884.04)
(-492.973 -79.7766 -4884.03)
(-471.631 -164.169 -4884.02)
(-435.958 -243.573 -4884.03)
(-387.039 -315.575 -4884.04)
(-326.36 -377.989 -4884.04)
(-255.765 -428.919 -4884.02)
(-177.398 -466.816 -4884.04)
(-93.6412 -490.529 -4884.05)
(16.3749 -454.309 -8003.93)
(95.0157 -444.564 -8003.92)
(170.771 -421.31 -8003.95)
(241.336 -385.255 -8003.93)
(304.568 -337.495 -8003.94)
(358.546 -279.48 -8003.92)
(401.631 -212.973 -8003.92)
(432.511 -139.994 -8003.95)
(450.25 -62.7635 -8003.94)
(454.309 16.3749 -8003.93)
(444.564 95.0157 -8003.92)
(421.31 170.771 -8003.95)
(385.255 241.336 -8003.93)
(337.495 304.568 -8003.94)
(279.48 358.546 -8003.92)
(212.973 401.631 -8003.92)
(139.994 432.511 -8003.95)
(62.7635 450.25 -8003.94)
(-16.3749 454.309 -8003.93)
(-95.0157 444.564 -8003.92)
(-170.771 421.31 -8003.95)
(-241.336 385.255 -8003.93)
(-304.568 337.495 -8003.94)
(-358.546 279.48 -8003.92)
(-401.631 212.973 -8003.92)
(-432.511 139.994 -8003.95)
(-450.25 62.7635 -8003.94)
(-454.309 -16.3749 -8003.93)
(-444.564 -95.0157 -8003.92)
(-421.31 -170.771 -8003.95)
(-385.255 -241.336 -8003.93)
(-337.495 -304.568 -8003.94)
(-279.48 -358.546 -8003.92)
(-212.973 -401.631 -8003.92)
(-139.994 -432.511 -8003.95)
(-62.7635 -450.25 -8003.94)
)
;
    }
    inside
    {
        type            calculated;
        value           nonuniform List<vector> 
540
(
(7734.12 804.788 1080.3)
(7476.88 2135.55 1080.27)
(6992.46 3401.5 1080.29)
(6295.55 4564.03 1080.28)
(5407.38 5587.91 1080.27)
(4354.89 6441.98 1080.28)
(3170.11 7100.33 1080.27)
(1888.96 7542.97 1080.29)
(550.457 7756.38 1080.3)
(-804.788 7734.12 1080.3)
(-2135.55 7476.88 1080.27)
(-3401.5 6992.45 1080.29)
(-4564.03 6295.55 1080.28)
(-5587.91 5407.38 1080.27)
(-6441.98 4354.89 1080.28)
(-7100.33 3170.11 1080.27)
(-7542.97 1888.96 1080.29)
(-7756.38 550.457 1080.3)
(-7734.12 -804.788 1080.3)
(-7476.88 -2135.55 1080.27)
(-6992.45 -3401.5 1080.29)
(-6295.55 -4564.03 1080.28)
(-5407.38 -5587.91 1080.27)
(-4354.89 -6441.98 1080.28)
(-3170.11 -7100.33 1080.27)
(-1888.96 -7542.97 1080.29)
(-550.457 -7756.38 1080.3)
(804.788 -7734.12 1080.3)
(2135.55 -7476.88 1080.27)
(3401.5 -6992.46 1080.29)
(4564.03 -6295.55 1080.28)
(5587.91 -5407.38 1080.27)
(6441.98 -4354.89 1080.28)
(7100.33 -3170.11 1080.27)
(7542.97 -1888.96 1080.29)
(7756.38 -550.457 1080.3)
(2762.37 227.915 293.269)
(2680.82 704.152 293.259)
(2517.81 1158.96 293.265)
(2278.29 1578.56 293.274)
(1969.56 1950.19 293.273)
(1600.98 2262.55 293.271)
(1183.78 2506.23 293.266)
(730.612 2673.72 293.262)
(255.205 2759.97 293.26)
(-227.915 2762.37 293.269)
(-704.152 2680.82 293.259)
(-1158.96 2517.81 293.265)
(-1578.56 2278.29 293.274)
(-1950.19 1969.56 293.273)
(-2262.55 1600.98 293.271)
(-2506.23 1183.78 293.266)
(-2673.72 730.612 293.262)
(-2759.97 255.205 293.26)
(-2762.37 -227.915 293.269)
(-2680.82 -704.152 293.259)
(-2517.81 -1158.96 293.265)
(-2278.29 -1578.56 293.274)
(-1969.56 -1950.19 293.273)
(-1600.98 -2262.55 293.271)
(-1183.78 -2506.23 293.266)
(-730.612 -2673.72 293.262)
(-255.205 -2759.97 293.26)
(227.916 -2762.37 293.269)
(704.152 -2680.82 293.259)
(1158.96 -2517.81 293.265)
(1578.56 -2278.29 293.274)
(1950.19 -1969.56 293.273)
(2262.55 -1600.98 293.271)
(2506.23 -1183.78 293.266)
(2673.72 -730.612 293.262)
(2759.97 -255.205 293.26)
(2753.73 170.786 144.169)
(2682.23 646.376 144.178)
(2529.23 1102.31 144.167)
(2299.4 1524.77 144.157)
(1999.71 1900.9 144.16)
(1639.24 2219.27 144.159)
(1228.96 2470.2 144.168)
(781.339 2646.05 144.18)
(309.983 2741.54 144.167)
(-170.786 2753.73 144.169)
(-646.376 2682.23 144.178)
(-1102.31 2529.23 144.167)
(-1524.77 2299.4 144.157)
(-1900.9 1999.71 144.16)
(-2219.27 1639.24 144.159)
(-2470.2 1228.96 144.168)
(-2646.05 781.339 144.18)
(-2741.54 309.983 144.167)
(-2753.73 -170.786 144.169)
(-2682.23 -646.376 144.178)
(-2529.23 -1102.31 144.167)
(-2299.4 -1524.77 144.157)
(-1999.71 -1900.9 144.16)
(-1639.24 -2219.27 144.159)
(-1228.96 -2470.2 144.168)
(-781.339 -2646.05 144.18)
(-309.983 -2741.54 144.167)
(170.786 -2753.73 144.169)
(646.376 -2682.23 144.178)
(1102.31 -2529.23 144.167)
(1524.77 -2299.4 144.157)
(1900.9 -1999.71 144.16)
(2219.27 -1639.24 144.159)
(2470.2 -1228.96 144.168)
(2646.05 -781.339 144.18)
(2741.54 -309.983 144.167)
(2600.91 85.9468 -13.2688)
(2546.49 536.281 -13.274)
(2414.66 970.318 -13.2699)
(2209.5 1374.89 -13.2648)
(1937.17 1737.66 -13.2689)
(1606 2047.66 -13.2659)
(1226.03 2295.44 -13.2706)
(808.809 2473.46 -13.276)
(367.017 2576.32 -13.2643)
(-85.9467 2600.91 -13.2689)
(-536.281 2546.49 -13.274)
(-970.318 2414.66 -13.2699)
(-1374.89 2209.5 -13.2649)
(-1737.66 1937.17 -13.2689)
(-2047.66 1606 -13.2659)
(-2295.44 1226.03 -13.2706)
(-2473.46 808.809 -13.2761)
(-2576.32 367.017 -13.2644)
(-2600.91 -85.9467 -13.2689)
(-2546.49 -536.281 -13.274)
(-2414.66 -970.318 -13.2699)
(-2209.5 -1374.89 -13.2649)
(-1937.17 -1737.66 -13.2689)
(-1606 -2047.66 -13.2659)
(-1226.03 -2295.44 -13.2706)
(-808.809 -2473.46 -13.276)
(-367.017 -2576.32 -13.2643)
(85.9468 -2600.91 -13.2688)
(536.281 -2546.49 -13.274)
(970.318 -2414.66 -13.2699)
(1374.89 -2209.5 -13.2648)
(1737.66 -1937.17 -13.2689)
(2047.66 -1606 -13.2659)
(2295.44 -1226.03 -13.2706)
(2473.46 -808.809 -13.276)
(2576.32 -367.017 -13.2643)
(2573.89 17.0275 -176.114)
(2531.82 463.698 -176.102)
(2412.84 896.323 -176.11)
(2220.53 1301.67 -176.11)
(1960.77 1667.5 -176.108)
(1641.42 1982.64 -176.111)
(1272.21 2237.56 -176.109)
(864.318 2424.49 -176.107)
(430.196 2537.74 -176.108)
(-17.0275 2573.89 -176.114)
(-463.698 2531.82 -176.102)
(-896.323 2412.84 -176.11)
(-1301.67 2220.53 -176.11)
(-1667.5 1960.77 -176.108)
(-1982.64 1641.42 -176.111)
(-2237.56 1272.21 -176.109)
(-2424.49 864.318 -176.107)
(-2537.74 430.196 -176.108)
(-2573.89 -17.0275 -176.114)
(-2531.82 -463.698 -176.102)
(-2412.84 -896.323 -176.11)
(-2220.53 -1301.67 -176.11)
(-1960.77 -1667.5 -176.108)
(-1641.42 -1982.64 -176.111)
(-1272.21 -2237.56 -176.109)
(-864.318 -2424.49 -176.107)
(-430.196 -2537.74 -176.108)
(17.0275 -2573.89 -176.114)
(463.698 -2531.82 -176.102)
(896.323 -2412.84 -176.11)
(1301.67 -2220.53 -176.11)
(1667.5 -1960.77 -176.108)
(1982.64 -1641.42 -176.111)
(2237.56 -1272.21 -176.109)
(2424.49 -864.318 -176.107)
(2537.74 -430.196 -176.108)
(2542.81 -60.7208 -346.47)
(2514.72 381.748 -346.474)
(2410.24 812.63 -346.476)
(2232.5 1218.82 -346.483)
(1986.94 1587.97 -346.484)
(1681.02 1908.9 -346.485)
(1323.99 2171.78 -346.48)
(926.757 2368.71 -346.48)
(501.361 2493.65 -346.469)
(60.7209 2542.81 -346.47)
(-381.748 2514.72 -346.474)
(-812.63 2410.24 -346.476)
(-1218.82 2232.5 -346.483)
(-1587.97 1986.94 -346.484)
(-1908.89 1681.02 -346.485)
(-2171.78 1323.99 -346.48)
(-2368.71 926.757 -346.48)
(-2493.65 501.361 -346.469)
(-2542.81 60.7209 -346.47)
(-2514.72 -381.748 -346.474)
(-2410.24 -812.63 -346.476)
(-2232.5 -1218.82 -346.483)
(-1986.94 -1587.97 -346.484)
(-1681.02 -1908.9 -346.485)
(-1323.99 -2171.78 -346.48)
(-926.757 -2368.71 -346.48)
(-501.361 -2493.65 -346.469)
(-60.7208 -2542.81 -346.47)
(381.748 -2514.72 -346.474)
(812.63 -2410.24 -346.476)
(1218.82 -2232.5 -346.483)
(1587.97 -1986.94 -346.484)
(1908.9 -1681.02 -346.485)
(2171.78 -1323.99 -346.48)
(2368.71 -926.757 -346.48)
(2493.65 -501.361 -346.469)
(2490.5 -156.417 -520.769)
(2479.8 278.419 -520.764)
(2393.8 704.819 -520.758)
(2235.03 1109.77 -520.747)
(2008.37 1481.03 -520.752)
(1720.68 1807.28 -520.75)
(1380.71 2078.61 -520.756)
(998.785 2286.8 -520.769)
(586.514 2425.47 -520.766)
(156.417 2490.5 -520.769)
(-278.419 2479.8 -520.764)
(-704.819 2393.8 -520.758)
(-1109.77 2235.03 -520.747)
(-1481.03 2008.37 -520.752)
(-1807.28 1720.68 -520.75)
(-2078.61 1380.71 -520.756)
(-2286.8 998.785 -520.769)
(-2425.47 586.514 -520.766)
(-2490.5 156.417 -520.769)
(-2479.8 -278.419 -520.764)
(-2393.8 -704.819 -520.758)
(-2235.03 -1109.77 -520.747)
(-2008.37 -1481.03 -520.752)
(-1720.68 -1807.28 -520.75)
(-1380.71 -2078.61 -520.756)
(-998.785 -2286.8 -520.769)
(-586.514 -2425.47 -520.766)
(-156.417 -2490.5 -520.769)
(278.419 -2479.8 -520.764)
(704.819 -2393.8 -520.758)
(1109.77 -2235.03 -520.747)
(1481.03 -2008.37 -520.752)
(1807.28 -1720.68 -520.75)
(2078.61 -1380.71 -520.756)
(2286.8 -998.785 -520.769)
(2425.47 -586.514 -520.766)
(2397.64 -282.347 -691.98)
(2410.23 138.272 -691.975)
(2349.6 554.71 -691.989)
(2217.58 954.273 -691.985)
(2018.18 1324.87 -691.987)
(1757.46 1655.21 -691.991)
(1443.35 1935.24 -691.99)
(1085.36 2156.47 -691.981)
(694.413 2312.17 -691.977)
(282.347 2397.64 -691.98)
(-138.272 2410.23 -691.975)
(-554.71 2349.6 -691.989)
(-954.273 2217.58 -691.985)
(-1324.87 2018.18 -691.987)
(-1655.21 1757.46 -691.991)
(-1935.24 1443.35 -691.99)
(-2156.47 1085.36 -691.981)
(-2312.17 694.413 -691.977)
(-2397.64 282.347 -691.98)
(-2410.23 -138.272 -691.975)
(-2349.6 -554.71 -691.989)
(-2217.58 -954.273 -691.985)
(-2018.18 -1324.87 -691.987)
(-1757.46 -1655.21 -691.991)
(-1443.35 -1935.24 -691.99)
(-1085.36 -2156.47 -691.981)
(-694.413 -2312.17 -691.977)
(-282.347 -2397.64 -691.98)
(138.272 -2410.23 -691.975)
(554.71 -2349.6 -691.989)
(954.273 -2217.58 -691.985)
(1324.87 -2018.18 -691.987)
(1655.21 -1757.46 -691.991)
(1935.24 -1443.35 -691.99)
(2156.47 -1085.36 -691.981)
(2312.17 -694.413 -691.977)
(2246.89 -450.984 -849.55)
(2291.08 -53.9852 -849.539)
(2265.64 344.686 -849.539)
(2171.37 732.875 -849.546)
(2011.12 1098.8 -849.553)
(1789.77 1431.32 -849.548)
(1514.03 1720.36 -849.537)
(1192.28 1957.14 -849.538)
(834.334 2134.45 -849.549)
(450.984 2246.89 -849.55)
(53.9851 2291.09 -849.539)
(-344.686 2265.64 -849.539)
(-732.875 2171.37 -849.546)
(-1098.8 2011.12 -849.553)
(-1431.32 1789.77 -849.548)
(-1720.36 1514.03 -849.537)
(-1957.14 1192.28 -849.538)
(-2134.45 834.334 -849.549)
(-2246.89 450.984 -849.55)
(-2291.08 53.9851 -849.539)
(-2265.64 -344.686 -849.539)
(-2171.37 -732.875 -849.546)
(-2011.12 -1098.8 -849.553)
(-1789.77 -1431.32 -849.548)
(-1514.03 -1720.36 -849.537)
(-1192.28 -1957.14 -849.538)
(-834.334 -2134.45 -849.549)
(-450.984 -2246.89 -849.55)
(-53.9851 -2291.09 -849.539)
(344.686 -2265.64 -849.539)
(732.875 -2171.37 -849.546)
(1098.8 -2011.12 -849.553)
(1431.33 -1789.77 -849.548)
(1720.36 -1514.03 -849.537)
(1957.14 -1192.28 -849.538)
(2134.45 -834.334 -849.549)
(2025.72 -669.122 -980.153)
(2111.15 -307.2 -980.161)
(2132.42 64.0584 -980.152)
(2088.9 433.394 -980.153)
(1981.91 789.529 -980.141)
(1814.7 1121.68 -980.146)
(1592.34 1419.75 -980.148)
(1321.62 1674.7 -980.157)
(1010.74 1878.76 -980.153)
(669.122 2025.71 -980.153)
(307.2 2111.15 -980.161)
(-64.0583 2132.42 -980.152)
(-433.394 2088.9 -980.153)
(-789.529 1981.91 -980.141)
(-1121.68 1814.7 -980.146)
(-1419.75 1592.34 -980.148)
(-1674.7 1321.62 -980.157)
(-1878.76 1010.74 -980.153)
(-2025.71 669.122 -980.153)
(-2111.15 307.2 -980.161)
(-2132.42 -64.0582 -980.152)
(-2088.9 -433.394 -980.153)
(-1981.91 -789.529 -980.141)
(-1814.7 -1121.68 -980.147)
(-1592.34 -1419.75 -980.148)
(-1321.62 -1674.7 -980.157)
(-1010.74 -1878.76 -980.153)
(-669.122 -2025.72 -980.153)
(-307.2 -2111.15 -980.161)
(64.0583 -2132.42 -980.152)
(433.394 -2088.9 -980.153)
(789.529 -1981.91 -980.141)
(1121.69 -1814.7 -980.147)
(1419.75 -1592.34 -980.148)
(1674.7 -1321.62 -980.157)
(1878.76 -1010.74 -980.153)
(1742.97 -922.582 -1078.58)
(1876.7 -605.911 -1078.58)
(1953.41 -270.811 -1078.59)
(1970.76 72.5284 -1078.6)
(1928.23 413.638 -1078.6)
(1827.11 742.176 -1078.59)
(1670.47 1048.17 -1078.59)
(1463.08 1322.32 -1078.59)
(1211.24 1556.28 -1078.58)
(922.582 1742.97 -1078.58)
(605.911 1876.7 -1078.58)
(270.811 1953.41 -1078.59)
(-72.5282 1970.76 -1078.6)
(-413.638 1928.23 -1078.6)
(-742.176 1827.11 -1078.59)
(-1048.17 1670.47 -1078.59)
(-1322.32 1463.08 -1078.59)
(-1556.28 1211.24 -1078.58)
(-1742.97 922.582 -1078.58)
(-1876.7 605.911 -1078.58)
(-1953.41 270.811 -1078.59)
(-1970.76 -72.5282 -1078.6)
(-1928.23 -413.638 -1078.6)
(-1827.11 -742.176 -1078.59)
(-1670.47 -1048.17 -1078.59)
(-1463.08 -1322.32 -1078.59)
(-1211.24 -1556.28 -1078.58)
(-922.582 -1742.97 -1078.58)
(-605.911 -1876.7 -1078.58)
(-270.811 -1953.41 -1078.59)
(72.5281 -1970.76 -1078.6)
(413.638 -1928.23 -1078.6)
(742.176 -1827.11 -1078.59)
(1048.17 -1670.47 -1078.59)
(1322.32 -1463.08 -1078.59)
(1556.28 -1211.24 -1078.58)
(1451.6 -1150.51 -1178.01)
(1629.35 -880.929 -1178.03)
(1757.59 -584.618 -1178.04)
(1832.41 -270.502 -1178.05)
(1851.55 51.785 -1178.04)
(1814.43 372.512 -1178.05)
(1722.16 681.903 -1178.02)
(1577.61 970.578 -1178.02)
(1385.08 1229.77 -1178.01)
(1150.51 1451.6 -1178.01)
(880.929 1629.35 -1178.02)
(584.618 1757.59 -1178.04)
(270.502 1832.41 -1178.05)
(-51.7853 1851.55 -1178.04)
(-372.513 1814.43 -1178.05)
(-681.904 1722.16 -1178.02)
(-970.578 1577.61 -1178.02)
(-1229.77 1385.08 -1178.01)
(-1451.6 1150.51 -1178.01)
(-1629.35 880.929 -1178.02)
(-1757.59 584.618 -1178.03)
(-1832.41 270.502 -1178.05)
(-1851.55 -51.7855 -1178.04)
(-1814.43 -372.513 -1178.05)
(-1722.16 -681.904 -1178.02)
(-1577.61 -970.579 -1178.02)
(-1385.08 -1229.77 -1178.01)
(-1150.51 -1451.6 -1178.01)
(-880.929 -1629.35 -1178.02)
(-584.619 -1757.59 -1178.03)
(-270.502 -1832.41 -1178.05)
(51.7853 -1851.55 -1178.04)
(372.513 -1814.43 -1178.05)
(681.904 -1722.16 -1178.02)
(970.58 -1577.61 -1178.02)
(1229.77 -1385.08 -1178.01)
(1346.28 -1177.35 -1527.08)
(1530.3 -925.66 -1527.11)
(1667.82 -645.849 -1527.14)
(1754.64 -346.393 -1527.15)
(1788.13 -36.4594 -1527.14)
(1767.31 274.59 -1527.14)
(1692.75 577.267 -1527.1)
(1566.8 862.425 -1527.08)
(1393.24 1121.36 -1527.05)
(1177.35 1346.28 -1527.07)
(925.661 1530.29 -1527.1)
(645.85 1667.81 -1527.14)
(346.393 1754.64 -1527.15)
(36.4587 1788.13 -1527.15)
(-274.591 1767.31 -1527.14)
(-577.268 1692.75 -1527.1)
(-862.425 1566.8 -1527.08)
(-1121.36 1393.24 -1527.05)
(-1346.28 1177.35 -1527.07)
(-1530.29 925.661 -1527.1)
(-1667.81 645.85 -1527.14)
(-1754.64 346.393 -1527.15)
(-1788.13 36.4587 -1527.15)
(-1767.31 -274.591 -1527.14)
(-1692.75 -577.268 -1527.1)
(-1566.8 -862.426 -1527.08)
(-1393.24 -1121.36 -1527.05)
(-1177.35 -1346.28 -1527.07)
(-925.661 -1530.29 -1527.1)
(-645.85 -1667.81 -1527.13)
(-346.393 -1754.64 -1527.15)
(-36.4593 -1788.13 -1527.14)
(274.591 -1767.31 -1527.14)
(577.269 -1692.75 -1527.1)
(862.427 -1566.8 -1527.08)
(1121.36 -1393.24 -1527.05)
(1432.16 -831.096 -2668.13)
(1554.74 -569.813 -2668.17)
(1630.08 -291.126 -2668.21)
(1655.87 -3.64691 -2668.21)
(1631.35 283.927 -2668.19)
(1557.27 562.908 -2668.22)
(1435.87 824.737 -2668.16)
(1270.81 1061.54 -2668.14)
(1067.22 1266.05 -2668.1)
(831.096 1432.15 -2668.13)
(569.813 1554.74 -2668.17)
(291.126 1630.08 -2668.21)
(3.64666 1655.87 -2668.21)
(-283.928 1631.35 -2668.19)
(-562.909 1557.27 -2668.22)
(-824.738 1435.87 -2668.16)
(-1061.54 1270.81 -2668.14)
(-1266.05 1067.22 -2668.1)
(-1432.15 831.096 -2668.13)
(-1554.74 569.813 -2668.17)
(-1630.08 291.126 -2668.21)
(-1655.87 3.64648 -2668.21)
(-1631.35 -283.928 -2668.19)
(-1557.27 -562.909 -2668.22)
(-1435.87 -824.738 -2668.16)
(-1270.81 -1061.54 -2668.14)
(-1067.22 -1266.05 -2668.1)
(-831.096 -1432.15 -2668.13)
(-569.814 -1554.74 -2668.17)
(-291.127 -1630.07 -2668.21)
(-3.64756 -1655.87 -2668.21)
(283.927 -1631.35 -2668.19)
(562.909 -1557.27 -2668.22)
(824.738 -1435.87 -2668.16)
(1061.54 -1270.81 -2668.14)
(1266.06 -1067.22 -2668.1)
(2032.39 179.751 -10851.2)
(1970.24 529.955 -10851)
(1848.35 864.031 -10851.3)
(1670.21 1171.92 -10851.3)
(1441.32 1444.07 -10851)
(1168.7 1672.46 -10851.3)
(860.481 1849.99 -10851.2)
(526.21 1971.28 -10851.1)
(175.863 2032.71 -10851.2)
(-179.751 2032.39 -10851.2)
(-529.955 1970.24 -10851)
(-864.03 1848.35 -10851.3)
(-1171.92 1670.21 -10851.3)
(-1444.07 1441.32 -10851)
(-1672.46 1168.7 -10851.3)
(-1849.99 860.481 -10851.2)
(-1971.28 526.21 -10851.1)
(-2032.71 175.863 -10851.2)
(-2032.39 -179.751 -10851.2)
(-1970.25 -529.955 -10851)
(-1848.35 -864.03 -10851.3)
(-1670.21 -1171.92 -10851.3)
(-1441.32 -1444.07 -10851)
(-1168.7 -1672.46 -10851.3)
(-860.48 -1849.99 -10851.2)
(-526.21 -1971.28 -10851.1)
(-175.863 -2032.71 -10851.2)
(179.751 -2032.39 -10851.2)
(529.955 -1970.24 -10851)
(864.03 -1848.35 -10851.3)
(1171.92 -1670.21 -10851.3)
(1444.07 -1441.32 -10851)
(1672.46 -1168.7 -10851.3)
(1849.99 -860.48 -10851.2)
(1971.28 -526.209 -10851.1)
(2032.71 -175.863 -10851.2)
)
;
    }
    outside
    {
        type            calculated;
        value           nonuniform List<vector> 
540
(
(-3875.26 -401.643 -618.355)
(-3746.63 -1068.46 -618.36)
(-3504.17 -1702.83 -618.353)
(-3155.25 -2285.48 -618.363)
(-2710.46 -2798.65 -618.375)
(-2183.31 -3226.79 -618.367)
(-1589.81 -3556.9 -618.354)
(-947.995 -3778.93 -618.356)
(-277.4 -3886.13 -618.357)
(401.643 -3875.26 -618.355)
(1068.46 -3746.63 -618.36)
(1702.83 -3504.17 -618.352)
(2285.48 -3155.25 -618.363)
(2798.65 -2710.46 -618.375)
(3226.79 -2183.31 -618.367)
(3556.9 -1589.81 -618.354)
(3778.93 -947.995 -618.356)
(3886.13 -277.4 -618.357)
(3875.26 401.643 -618.355)
(3746.63 1068.46 -618.36)
(3504.17 1702.83 -618.352)
(3155.25 2285.48 -618.363)
(2710.46 2798.65 -618.375)
(2183.31 3226.79 -618.367)
(1589.81 3556.9 -618.354)
(947.995 3778.93 -618.356)
(277.4 3886.13 -618.357)
(-401.643 3875.26 -618.355)
(-1068.46 3746.63 -618.36)
(-1702.83 3504.17 -618.353)
(-2285.48 3155.25 -618.363)
(-2798.65 2710.46 -618.375)
(-3226.79 2183.31 -618.368)
(-3556.9 1589.81 -618.355)
(-3778.93 947.995 -618.356)
(-3886.13 277.4 -618.357)
(327.331 172.992 -54.0484)
(292.29 227.241 -54.0526)
(248.412 274.543 -54.0499)
(196.987 313.48 -54.0476)
(139.544 342.959 -54.0486)
(77.844 362.001 -54.0501)
(13.8189 369.963 -54.0511)
(-50.6211 366.751 -54.0495)
(-113.583 352.409 -54.0515)
(-172.992 327.331 -54.0484)
(-227.241 292.29 -54.0525)
(-274.543 248.412 -54.0499)
(-313.48 196.987 -54.0476)
(-342.959 139.544 -54.0485)
(-362.001 77.844 -54.0501)
(-369.963 13.8189 -54.0511)
(-366.751 -50.6211 -54.0495)
(-352.409 -113.583 -54.0515)
(-327.331 -172.992 -54.0484)
(-292.29 -227.241 -54.0525)
(-248.412 -274.543 -54.0499)
(-196.987 -313.48 -54.0476)
(-139.544 -342.959 -54.0486)
(-77.844 -362.001 -54.0501)
(-13.8189 -369.963 -54.0511)
(50.6211 -366.751 -54.0495)
(113.583 -352.409 -54.0515)
(172.992 -327.331 -54.0484)
(227.241 -292.29 -54.0526)
(274.543 -248.412 -54.0499)
(313.48 -196.987 -54.0476)
(342.959 -139.544 -54.0486)
(362.001 -77.844 -54.0502)
(369.963 -13.8189 -54.0511)
(366.751 50.6211 -54.0495)
(352.409 113.583 -54.0516)
(157.597 290.002 -66.7744)
(104.839 312.977 -66.7753)
(48.8921 326.435 -66.7762)
(-8.53451 329.953 -66.7751)
(-65.6915 323.47 -66.7743)
(-120.863 307.148 -66.7743)
(-172.359 281.471 -66.7741)
(-218.622 247.293 -66.7745)
(-258.256 205.548 -66.7768)
(-290.002 157.597 -66.7743)
(-312.977 104.839 -66.7753)
(-326.435 48.8921 -66.7762)
(-329.953 -8.53451 -66.7751)
(-323.47 -65.6915 -66.7743)
(-307.148 -120.863 -66.7743)
(-281.471 -172.359 -66.7741)
(-247.293 -218.622 -66.7744)
(-205.548 -258.256 -66.7768)
(-157.597 -290.002 -66.7743)
(-104.839 -312.977 -66.7753)
(-48.8921 -326.435 -66.7762)
(8.53451 -329.953 -66.7751)
(65.6915 -323.47 -66.7743)
(120.863 -307.148 -66.7743)
(172.359 -281.471 -66.7741)
(218.622 -247.293 -66.7745)
(258.256 -205.548 -66.7768)
(290.002 -157.597 -66.7744)
(312.977 -104.839 -66.7753)
(326.435 -48.8921 -66.7762)
(329.953 8.53454 -66.7751)
(323.47 65.6915 -66.7743)
(307.148 120.863 -66.7743)
(281.471 172.359 -66.7741)
(247.293 218.622 -66.7745)
(205.548 258.256 -66.7768)
(219.95 437.977 -56.1739)
(140.539 469.545 -56.1759)
(56.8764 486.79 -56.1747)
(-28.513 489.271 -56.1745)
(-113.038 476.894 -56.1747)
(-194.138 450.017 -56.1743)
(-269.327 409.485 -56.1743)
(-336.321 356.46 -56.1724)
(-393.143 292.669 -56.1755)
(-437.977 219.95 -56.1739)
(-469.545 140.539 -56.1759)
(-486.79 56.8764 -56.1747)
(-489.271 -28.513 -56.1745)
(-476.894 -113.038 -56.1747)
(-450.017 -194.138 -56.1743)
(-409.485 -269.327 -56.1743)
(-356.46 -336.321 -56.1724)
(-292.669 -393.143 -56.1755)
(-219.95 -437.977 -56.1739)
(-140.539 -469.545 -56.1759)
(-56.8764 -486.79 -56.1747)
(28.513 -489.271 -56.1745)
(113.038 -476.894 -56.1747)
(194.138 -450.017 -56.1743)
(269.327 -409.485 -56.1743)
(336.321 -356.46 -56.1724)
(393.142 -292.669 -56.1755)
(437.977 -219.95 -56.1739)
(469.545 -140.539 -56.1759)
(486.79 -56.8764 -56.1747)
(489.271 28.5131 -56.1745)
(476.894 113.038 -56.1747)
(450.017 194.138 -56.1743)
(409.485 269.327 -56.1743)
(356.46 336.321 -56.1724)
(292.669 393.143 -56.1755)
(175.047 568.028 -39.9169)
(73.7618 589.835 -39.9215)
(-29.7931 593.638 -39.9172)
(-132.412 579.445 -39.9174)
(-231.035 547.657 -39.9178)
(-322.637 499.232 -39.9189)
(-404.412 435.637 -39.9202)
(-473.889 358.756 -39.9155)
(-529.02 271.024 -39.9186)
(-568.028 175.047 -39.9169)
(-589.835 73.7617 -39.9215)
(-593.638 -29.7932 -39.9172)
(-579.445 -132.412 -39.9174)
(-547.657 -231.035 -39.9178)
(-499.232 -322.637 -39.9189)
(-435.637 -404.412 -39.9202)
(-358.756 -473.889 -39.9154)
(-271.024 -529.02 -39.9186)
(-175.047 -568.028 -39.9169)
(-73.7617 -589.835 -39.9215)
(29.7932 -593.638 -39.9172)
(132.412 -579.445 -39.9174)
(231.035 -547.657 -39.9178)
(322.637 -499.232 -39.9189)
(404.412 -435.637 -39.9202)
(473.889 -358.756 -39.9155)
(529.02 -271.024 -39.9186)
(568.028 -175.047 -39.9169)
(589.835 -73.7617 -39.9215)
(593.638 29.7932 -39.9172)
(579.445 132.412 -39.9174)
(547.657 231.035 -39.9178)
(499.232 322.637 -39.9189)
(435.637 404.412 -39.9202)
(358.756 473.889 -39.9155)
(271.024 529.02 -39.9186)
(112.693 695.549 -14.1753)
(-9.79598 704.568 -14.1784)
(-132.007 692.162 -14.1768)
(-250.178 658.723 -14.177)
(-360.771 605.266 -14.1758)
(-460.396 533.424 -14.1763)
(-546.016 445.373 -14.1764)
(-615.067 343.777 -14.1743)
(-665.435 231.766 -14.1774)
(-695.549 112.693 -14.1753)
(-704.568 -9.79603 -14.1784)
(-692.162 -132.007 -14.1768)
(-658.723 -250.178 -14.177)
(-605.266 -360.771 -14.1758)
(-533.424 -460.396 -14.1763)
(-445.373 -546.016 -14.1764)
(-343.777 -615.067 -14.1742)
(-231.766 -665.435 -14.1774)
(-112.693 -695.549 -14.1753)
(9.79603 -704.568 -14.1784)
(132.007 -692.162 -14.1768)
(250.178 -658.723 -14.177)
(360.771 -605.266 -14.1758)
(460.396 -533.424 -14.1763)
(546.016 -445.373 -14.1764)
(615.067 -343.777 -14.1743)
(665.435 -231.766 -14.1774)
(695.549 -112.693 -14.1753)
(704.568 9.79604 -14.1784)
(692.162 132.007 -14.1768)
(658.723 250.178 -14.177)
(605.266 360.771 -14.1758)
(533.424 460.396 -14.1763)
(445.373 546.016 -14.1764)
(343.777 615.067 -14.1743)
(231.766 665.435 -14.1774)
(26.2214 820.719 24.8436)
(-116.685 812.803 24.8427)
(-256.084 780.197 24.8465)
(-387.651 723.902 24.8396)
(-507.464 645.566 24.8441)
(-611.852 547.61 24.8488)
(-697.643 433.073 24.8426)
(-762.27 305.329 24.8475)
(-803.704 168.336 24.8441)
(-820.719 26.2213 24.8436)
(-812.803 -116.685 24.8428)
(-780.197 -256.084 24.8465)
(-723.902 -387.651 24.8396)
(-645.566 -507.464 24.8441)
(-547.61 -611.852 24.8488)
(-433.073 -697.643 24.8426)
(-305.329 -762.27 24.8475)
(-168.336 -803.704 24.8441)
(-26.2213 -820.719 24.8436)
(116.685 -812.803 24.8428)
(256.084 -780.197 24.8465)
(387.651 -723.902 24.8396)
(507.464 -645.566 24.8441)
(611.852 -547.61 24.8488)
(697.643 -433.073 24.8426)
(762.269 -305.329 24.8474)
(803.704 -168.336 24.844)
(820.719 -26.2213 24.8436)
(812.803 116.685 24.8427)
(780.197 256.084 24.8465)
(723.902 387.651 24.8396)
(645.566 507.464 24.8441)
(547.61 611.852 24.8488)
(433.073 697.643 24.8426)
(305.329 762.27 24.8474)
(168.336 803.704 24.844)
(-90.2905 943.332 84.4014)
(-252.733 913.315 84.403)
(-407.497 855.569 84.4027)
(-549.871 771.824 84.3973)
(-675.541 664.592 84.4019)
(-780.67 537.184 84.4023)
(-862.1 393.46 84.4036)
(-917.343 237.783 84.4039)
(-944.695 74.8735 84.4064)
(-943.332 -90.2906 84.4015)
(-913.315 -252.733 84.403)
(-855.569 -407.497 84.4028)
(-771.824 -549.871 84.3973)
(-664.592 -675.541 84.4019)
(-537.184 -780.67 84.4023)
(-393.46 -862.1 84.4036)
(-237.783 -917.343 84.4039)
(-74.8735 -944.695 84.4064)
(90.2906 -943.332 84.4015)
(252.733 -913.315 84.403)
(407.497 -855.569 84.4027)
(549.871 -771.824 84.3973)
(675.541 -664.592 84.4019)
(780.67 -537.184 84.4023)
(862.099 -393.46 84.4036)
(917.343 -237.783 84.4039)
(944.695 -74.8736 84.4064)
(943.332 90.2905 84.4014)
(913.315 252.733 84.403)
(855.569 407.497 84.4027)
(771.824 549.871 84.3973)
(664.592 675.541 84.4019)
(537.184 780.67 84.4023)
(393.46 862.099 84.4036)
(237.783 917.343 84.4039)
(74.8736 944.695 84.4064)
(-245.201 1060.07 177.893)
(-425.548 1001.41 177.89)
(-592.979 912.315 177.887)
(-742.385 795.478 177.887)
(-869.245 654.474 177.89)
(-969.69 493.587 177.892)
(-1040.66 317.698 177.892)
(-1080.03 132.172 177.888)
(-1086.59 -57.373 177.885)
(-1060.07 -245.201 177.893)
(-1001.41 -425.548 177.89)
(-912.315 -592.98 177.887)
(-795.478 -742.385 177.887)
(-654.474 -869.245 177.89)
(-493.587 -969.69 177.892)
(-317.698 -1040.66 177.892)
(-132.172 -1080.03 177.888)
(57.373 -1086.59 177.885)
(245.201 -1060.07 177.893)
(425.548 -1001.41 177.89)
(592.98 -912.315 177.887)
(742.385 -795.478 177.887)
(869.245 -654.474 177.89)
(969.69 -493.587 177.891)
(1040.66 -317.698 177.892)
(1080.03 -132.172 177.888)
(1086.59 57.3729 177.885)
(1060.07 245.201 177.893)
(1001.41 425.548 177.89)
(912.315 592.98 177.887)
(795.478 742.385 177.887)
(654.474 869.245 177.89)
(493.587 969.69 177.891)
(317.698 1040.66 177.892)
(132.172 1080.03 177.888)
(-57.3728 1086.59 177.885)
(-439.663 1163.4 325.785)
(-635.014 1069.38 325.792)
(-811.053 942.867 325.784)
(-962.448 787.717 325.774)
(-1084.62 608.616 325.78)
(-1173.83 411.025 325.783)
(-1227.37 200.944 325.785)
(-1243.62 -15.2292 325.779)
(-1222.08 -230.958 325.785)
(-1163.4 -439.663 325.786)
(-1069.38 -635.014 325.792)
(-942.867 -811.053 325.784)
(-787.717 -962.448 325.774)
(-608.616 -1084.62 325.78)
(-411.025 -1173.83 325.783)
(-200.944 -1227.37 325.785)
(15.2292 -1243.62 325.779)
(230.958 -1222.08 325.785)
(439.663 -1163.4 325.786)
(635.014 -1069.38 325.792)
(811.053 -942.867 325.784)
(962.448 -787.717 325.774)
(1084.62 -608.616 325.78)
(1173.83 -411.025 325.783)
(1227.37 -200.944 325.784)
(1243.62 15.2291 325.779)
(1222.08 230.958 325.785)
(1163.4 439.663 325.786)
(1069.38 635.014 325.792)
(942.867 811.053 325.784)
(787.717 962.448 325.774)
(608.616 1084.62 325.78)
(411.025 1173.83 325.783)
(200.944 1227.37 325.784)
(-15.229 1243.62 325.779)
(-230.958 1222.07 325.785)
(-651.014 1241.5 551.058)
(-856.703 1109.59 551.056)
(-1036.35 943.942 551.051)
(-1184.53 749.663 551.047)
(-1296.71 532.582 551.048)
(-1369.49 299.321 551.049)
(-1400.68 56.9777 551.045)
(-1389.26 -187.152 551.06)
(-1335.66 -425.545 551.056)
(-1241.5 -651.014 551.058)
(-1109.59 -856.703 551.056)
(-943.942 -1036.35 551.051)
(-749.663 -1184.53 551.047)
(-532.582 -1296.71 551.048)
(-299.321 -1369.49 551.049)
(-56.9777 -1400.68 551.045)
(187.152 -1389.26 551.06)
(425.545 -1335.66 551.056)
(651.014 -1241.5 551.058)
(856.703 -1109.59 551.056)
(1036.35 -943.942 551.051)
(1184.53 -749.663 551.047)
(1296.71 -532.582 551.048)
(1369.49 -299.321 551.049)
(1400.68 -56.9778 551.045)
(1389.26 187.152 551.06)
(1335.66 425.545 551.055)
(1241.5 651.014 551.058)
(1109.59 856.703 551.056)
(943.942 1036.35 551.051)
(749.663 1184.53 551.047)
(532.582 1296.71 551.048)
(299.321 1369.49 551.049)
(56.9778 1400.68 551.045)
(-187.152 1389.26 551.06)
(-425.544 1335.66 551.055)
(-798.465 1284.19 848.64)
(-1009.31 1126 848.622)
(-1189.49 933.648 848.605)
(-1333.56 712.914 848.617)
(-1437.09 470.514 848.609)
(-1496.96 213.81 848.611)