/*--------------------------------*- C++ -*----------------------------------*\
| =========                 |                                                 |
| \\      /  F ield         | OpenFOAM: The Open Source CFD Toolbox           |
|  \\    /   O peration     | Version:  2312                                  |
|   \\  /    A nd           | Website:  www.openfoam.com                      |
|    \\/     M anipulation  |                                                 |
\*---------------------------------------------------------------------------*/
FoamFile
{
    version     2.0;
    format      ascii;
    arch        "LSB;label=32;scalar=64";
    class       volVectorField;
    location    "0";
    object      e_mu;
}
// * * * * * * * * * * * * * * * * * * * * * * * * * * * * * * * * * * * * * //

dimensions      [0 0 0 0 0 0 0];

internalField   nonuniform List<vector> 
1620
(
(-0.00174949 2.20384e-06 -0.999998)
(-0.00169626 6.33646e-06 -0.999999)
(-0.00159151 9.71107e-06 -0.999999)
(-0.0014381 1.19111e-05 -0.999999)
(-0.00124165 1.26722e-05 -0.999999)
(-0.00100762 1.19102e-05 -0.999999)
(-0.000742301 9.70978e-06 -1)
(-0.00045443 6.33533e-06 -1)
(-0.000153241 2.20339e-06 -1)
(0.000153241 -2.20339e-06 -1)
(0.00045443 -6.33533e-06 -1)
(0.0007423 -9.70978e-06 -1)
(0.00100762 -1.19102e-05 -0.999999)
(0.00124165 -1.26722e-05 -0.999999)
(0.0014381 -1.19111e-05 -0.999999)
(0.00159151 -9.71107e-06 -0.999999)
(0.00169626 -6.33646e-06 -0.999999)
(0.00174949 -2.20384e-06 -0.999998)
(0.00174949 2.20384e-06 -0.999998)
(0.00169626 6.33646e-06 -0.999999)
(0.00159151 9.71107e-06 -0.999999)
(0.0014381 1.19111e-05 -0.999999)
(0.00124165 1.26722e-05 -0.999999)
(0.00100762 1.19102e-05 -0.999999)
(0.0007423 9.70978e-06 -1)
(0.00045443 6.33533e-06 -1)
(0.000153241 2.20339e-06 -1)
(-0.000153241 -2.20339e-06 -1)
(-0.00045443 -6.33533e-06 -1)
(-0.0007423 -9.70978e-06 -1)
(-0.00100762 -1.19102e-05 -0.999999)
(-0.00124165 -1.26722e-05 -0.999999)
(-0.0014381 -1.19111e-05 -0.999999)
(-0.00159151 -9.71107e-06 -0.999999)
(-0.00169626 -6.33646e-06 -0.999999)
(-0.00174949 -2.20384e-06 -0.999998)
(-0.00185772 2.86721e-06 -0.999998)
(-0.00180121 8.25363e-06 -0.999998)
(-0.00168991 1.26488e-05 -0.999999)
(-0.00152719 1.55154e-05 -0.999999)
(-0.00131847 1.65091e-05 -0.999999)
(-0.0010697 1.55137e-05 -0.999999)
(-0.000788056 1.26463e-05 -1)
(-0.000482431 8.25139e-06 -1)
(-0.000162491 2.86634e-06 -1)
(0.000162491 -2.86634e-06 -1)
(0.000482431 -8.25139e-06 -1)
(0.000788056 -1.26463e-05 -1)
(0.0010697 -1.55137e-05 -0.999999)
(0.00131847 -1.65091e-05 -0.999999)
(0.00152719 -1.55154e-05 -0.999999)
(0.00168991 -1.26488e-05 -0.999999)
(0.00180121 -8.25362e-06 -0.999998)
(0.00185772 -2.86722e-06 -0.999998)
(0.00185772 2.86722e-06 -0.999998)
(0.00180121 8.25362e-06 -0.999998)
(0.00168991 1.26488e-05 -0.999999)
(0.00152719 1.55154e-05 -0.999999)
(0.00131847 1.65091e-05 -0.999999)
(0.0010697 1.55137e-05 -0.999999)
(0.000788056 1.26463e-05 -1)
(0.000482431 8.25139e-06 -1)
(0.000162491 2.86634e-06 -1)
(-0.000162491 -2.86634e-06 -1)
(-0.000482431 -8.25139e-06 -1)
(-0.000788056 -1.26463e-05 -1)
(-0.0010697 -1.55137e-05 -0.999999)
(-0.00131847 -1.65091e-05 -0.999999)
(-0.00152719 -1.55154e-05 -0.999999)
(-0.00168991 -1.26488e-05 -0.999999)
(-0.00180121 -8.25362e-06 -0.999998)
(-0.00185772 -2.86723e-06 -0.999998)
(-0.00262551 6.90223e-06 -0.999997)
(-0.00254562 1.98702e-05 -0.999997)
(-0.00238816 3.04533e-05 -0.999997)
(-0.00215816 3.73499e-05 -0.999998)
(-0.00186278 3.97398e-05 -0.999998)
(-0.0015109 3.73383e-05 -0.999999)
(-0.00111312 3.04355e-05 -0.999999)
(-0.000681295 1.98546e-05 -1)
(-0.000229445 6.89607e-06 -1)
(0.000229445 -6.89607e-06 -1)
(0.000681295 -1.98546e-05 -1)
(0.00111312 -3.04355e-05 -0.999999)
(0.0015109 -3.73383e-05 -0.999999)
(0.00186278 -3.97398e-05 -0.999998)
(0.00215816 -3.73499e-05 -0.999998)
(0.00238816 -3.04533e-05 -0.999997)
(0.00254562 -1.98702e-05 -0.999997)
(0.00262551 -6.90223e-06 -0.999997)
(0.00262551 6.90223e-06 -0.999997)
(0.00254562 1.98702e-05 -0.999997)
(0.00238816 3.04533e-05 -0.999997)
(0.00215816 3.73499e-05 -0.999998)
(0.00186278 3.97398e-05 -0.999998)
(0.0015109 3.73383e-05 -0.999999)
(0.00111312 3.04355e-05 -0.999999)
(0.000681295 1.98546e-05 -1)
(0.000229445 6.89607e-06 -1)
(-0.000229445 -6.89607e-06 -1)
(-0.000681295 -1.98546e-05 -1)
(-0.00111312 -3.04355e-05 -0.999999)
(-0.0015109 -3.73383e-05 -0.999999)
(-0.00186278 -3.97398e-05 -0.999998)
(-0.00215816 -3.73499e-05 -0.999998)
(-0.00238816 -3.04533e-05 -0.999997)
(-0.00254562 -1.98702e-05 -0.999997)
(-0.00262551 -6.90223e-06 -0.999997)
(-0.0028119 5.65007e-06 -0.999996)
(-0.00272637 1.61887e-05 -0.999996)
(-0.0025579 2.48038e-05 -0.999997)
(-0.00231082 3.04304e-05 -0.999997)
(-0.0019956 3.23729e-05 -0.999998)
(-0.00161982 3.04249e-05 -0.999999)
(-0.00119269 2.47955e-05 -0.999999)
(-0.000730286 1.61814e-05 -1)
(-0.000247119 5.64715e-06 -1)
(0.000247119 -5.64716e-06 -1)
(0.000730286 -1.61814e-05 -1)
(0.00119269 -2.47955e-05 -0.999999)
(0.00161982 -3.04249e-05 -0.999999)
(0.0019956 -3.23729e-05 -0.999998)
(0.00231082 -3.04304e-05 -0.999997)
(0.0025579 -2.48038e-05 -0.999997)
(0.00272637 -1.61887e-05 -0.999996)
(0.0028119 -5.65006e-06 -0.999996)
(0.0028119 5.65006e-06 -0.999996)
(0.00272637 1.61887e-05 -0.999996)
(0.0025579 2.48038e-05 -0.999997)
(0.00231082 3.04304e-05 -0.999997)
(0.0019956 3.23729e-05 -0.999998)
(0.00161982 3.04249e-05 -0.999999)
(0.00119269 2.47955e-05 -0.999999)
(0.000730286 1.61814e-05 -1)
(0.000247119 5.64716e-06 -1)
(-0.000247119 -5.64716e-06 -1)
(-0.000730286 -1.61814e-05 -1)
(-0.00119269 -2.47955e-05 -0.999999)
(-0.00161982 -3.04249e-05 -0.999999)
(-0.0019956 -3.23729e-05 -0.999998)
(-0.00231082 -3.04304e-05 -0.999997)
(-0.0025579 -2.48038e-05 -0.999997)
(-0.00272637 -1.61887e-05 -0.999996)
(-0.0028119 -5.65004e-06 -0.999996)
(-0.00399736 1.32023e-05 -0.999992)
(-0.00387562 3.79434e-05 -0.999992)
(-0.00363572 5.81269e-05 -0.999993)
(-0.00328533 7.12894e-05 -0.999995)
(-0.00283549 7.58478e-05 -0.999996)
(-0.00229961 7.12547e-05 -0.999997)
(-0.00169395 5.80738e-05 -0.999999)
(-0.00103715 3.78967e-05 -0.999999)
(-0.000349853 1.31838e-05 -1)
(0.000349853 -1.31838e-05 -1)
(0.00103715 -3.78967e-05 -0.999999)
(0.00169395 -5.80738e-05 -0.999999)
(0.00229961 -7.12547e-05 -0.999997)
(0.00283549 -7.58478e-05 -0.999996)
(0.00328533 -7.12894e-05 -0.999995)
(0.00363572 -5.81269e-05 -0.999993)
(0.00387562 -3.79434e-05 -0.999992)
(0.00399736 -1.32023e-05 -0.999992)
(0.00399736 1.32023e-05 -0.999992)
(0.00387562 3.79434e-05 -0.999992)
(0.00363572 5.81269e-05 -0.999993)
(0.00328533 7.12894e-05 -0.999995)
(0.00283549 7.58478e-05 -0.999996)
(0.00229961 7.12547e-05 -0.999997)
(0.00169395 5.80738e-05 -0.999999)
(0.00103715 3.78967e-05 -0.999999)
(0.000349853 1.31838e-05 -1)
(-0.000349853 -1.31838e-05 -1)
(-0.00103715 -3.78967e-05 -0.999999)
(-0.00169395 -5.80738e-05 -0.999999)
(-0.00229961 -7.12547e-05 -0.999997)
(-0.00283549 -7.58478e-05 -0.999996)
(-0.00328533 -7.12894e-05 -0.999995)
(-0.00363572 -5.81269e-05 -0.999993)
(-0.00387562 -3.79434e-05 -0.999992)
(-0.00399736 -1.32023e-05 -0.999992)
(-0.00455268 2.07153e-05 -0.99999)
(-0.00441365 5.95734e-05 -0.99999)
(-0.00414019 9.12408e-05 -0.999991)
(-0.00374028 0.000111904 -0.999993)
(-0.00322729 0.000119028 -0.999995)
(-0.00261678 0.0001118 -0.999997)
(-0.00192672 9.10822e-05 -0.999998)
(-0.0011797 5.94339e-05 -0.999999)
(-0.000397624 2.06601e-05 -1)
(0.000397624 -2.06601e-05 -1)
(0.0011797 -5.94339e-05 -0.999999)
(0.00192672 -9.10822e-05 -0.999998)
(0.00261678 -0.0001118 -0.999997)
(0.00322729 -0.000119028 -0.999995)
(0.00374028 -0.000111904 -0.999993)
(0.00414019 -9.12408e-05 -0.999991)
(0.00441365 -5.95734e-05 -0.99999)
(0.00455268 -2.07153e-05 -0.99999)
(0.00455268 2.07153e-05 -0.99999)
(0.00441365 5.95734e-05 -0.99999)
(0.00414019 9.12408e-05 -0.999991)
(0.00374028 0.000111904 -0.999993)
(0.00322729 0.000119028 -0.999995)
(0.00261678 0.0001118 -0.999997)
(0.00192672 9.10822e-05 -0.999998)
(0.0011797 5.94339e-05 -0.999999)
(0.000397624 2.06601e-05 -1)
(-0.000397624 -2.06601e-05 -1)
(-0.0011797 -5.94339e-05 -0.999999)
(-0.00192672 -9.10822e-05 -0.999998)
(-0.00261678 -0.0001118 -0.999997)
(-0.00322729 -0.000119028 -0.999995)
(-0.00374028 -0.000111904 -0.999993)
(-0.00414019 -9.12408e-05 -0.999991)
(-0.00441365 -5.95734e-05 -0.99999)
(-0.00455268 -2.07152e-05 -0.99999)
(-0.000312645 7.44264e-08 -1)
(-0.000303032 2.05991e-07 -1)
(-0.000281082 3.21375e-07 -1)
(-0.000257444 3.77022e-07 -1)
(-0.000222262 4.01436e-07 -1)
(-0.000180225 3.77035e-07 -1)
(-0.000140713 3.21406e-07 -1)
(-8.36529e-05 2.06e-07 -1)
(-2.92879e-05 7.44113e-08 -1)
(2.92894e-05 -7.4415e-08 -1)
(8.36539e-05 -2.06002e-07 -1)
(0.000140713 -3.21405e-07 -1)
(0.000180222 -3.77032e-07 -1)
(0.000222258 -4.01436e-07 -1)
(0.000257437 -3.77033e-07 -1)
(0.000281073 -3.21406e-07 -1)
(0.000303031 -2.06003e-07 -1)
(0.000312646 -7.44143e-08 -1)
(0.000312646 7.44143e-08 -1)
(0.000303031 2.06003e-07 -1)
(0.000281073 3.21406e-07 -1)
(0.000257437 3.77033e-07 -1)
(0.000222258 4.01436e-07 -1)
(0.000180222 3.77032e-07 -1)
(0.000140713 3.21405e-07 -1)
(8.36538e-05 2.06002e-07 -1)
(2.9289e-05 7.44141e-08 -1)
(-2.92885e-05 -7.44127e-08 -1)
(-8.36529e-05 -2.06e-07 -1)
(-0.000140712 -3.21403e-07 -1)
(-0.000180223 -3.77033e-07 -1)
(-0.000222263 -4.01436e-07 -1)
(-0.000257442 -3.77025e-07 -1)
(-0.000281076 -3.21395e-07 -1)
(-0.000303033 -2.05981e-07 -1)
(-0.000312646 -7.43939e-08 -1)
(-5.34544e-05 4.55438e-09 -1)
(-5.22373e-05 7.0027e-09 -1)
(-4.83348e-05 1.1052e-08 -1)
(-4.71734e-05 1.19853e-08 -1)
(-3.82656e-05 1.37834e-08 -1)
(-2.69942e-05 1.19875e-08 -1)
(-2.42989e-05 1.10563e-08 -1)
(-1.42354e-05 7.00117e-09 -1)
(-9.05343e-06 4.55624e-09 -1)
(9.05485e-06 -4.55695e-09 -1)
(1.42366e-05 -7.00171e-09 -1)
(2.42988e-05 -1.10562e-08 -1)
(2.6992e-05 -1.19869e-08 -1)
(3.82623e-05 -1.37834e-08 -1)
(4.71693e-05 -1.19869e-08 -1)
(4.83292e-05 -1.10562e-08 -1)
(5.2238e-05 -7.00167e-09 -1)
(5.3454e-05 -4.55673e-09 -1)
(5.3454e-05 4.55673e-09 -1)
(5.2238e-05 7.00167e-09 -1)
(4.83292e-05 1.10562e-08 -1)
(4.71693e-05 1.19869e-08 -1)
(3.82623e-05 1.37834e-08 -1)
(2.6992e-05 1.19869e-08 -1)
(2.42987e-05 1.10562e-08 -1)
(1.42365e-05 7.00167e-09 -1)
(9.05459e-06 4.55682e-09 -1)
(-9.05373e-06 -4.55639e-09 -1)
(-1.42351e-05 -7.00106e-09 -1)
(-2.42978e-05 -1.10559e-08 -1)
(-2.69941e-05 -1.19875e-08 -1)
(-3.82687e-05 -1.37834e-08 -1)
(-4.71746e-05 -1.19849e-08 -1)
(-4.83309e-05 -1.10548e-08 -1)
(-5.22409e-05 -6.99661e-09 -1)
(-5.34534e-05 -4.55945e-09 -1)
(-0.000507788 2.65261e-07 -1)
(-0.000492496 7.42033e-07 -1)
(-0.00046262 1.12969e-06 -1)
(-0.000417672 1.39133e-06 -1)
(-0.000360463 1.48101e-06 -1)
(-0.000292252 1.39132e-06 -1)
(-0.000214238 1.12968e-06 -1)
(-0.000132186 7.42032e-07 -1)
(-4.58325e-05 2.6527e-07 -1)
(4.58331e-05 -2.65274e-07 -1)
(0.000132187 -7.42035e-07 -1)
(0.000214239 -1.12968e-06 -1)
(0.000292251 -1.39132e-06 -1)
(0.000360461 -1.48101e-06 -1)
(0.000417671 -1.39134e-06 -1)
(0.000462619 -1.12971e-06 -1)
(0.000492495 -7.42056e-07 -1)
(0.000507788 -2.65281e-07 -1)
(0.000507788 2.65281e-07 -1)
(0.000492495 7.42056e-07 -1)
(0.000462619 1.12971e-06 -1)
(0.000417671 1.39134e-06 -1)
(0.000360461 1.48101e-06 -1)
(0.000292251 1.39132e-06 -1)
(0.000214239 1.12968e-06 -1)
(0.000132187 7.42034e-07 -1)
(4.58331e-05 2.65273e-07 -1)
(-4.58324e-05 -2.6527e-07 -1)
(-0.000132186 -7.4203e-07 -1)
(-0.000214238 -1.12968e-06 -1)
(-0.000292253 -1.39133e-06 -1)
(-0.000360466 -1.48101e-06 -1)
(-0.000417671 -1.39134e-06 -1)
(-0.000462617 -1.12972e-06 -1)
(-0.000492497 -7.42025e-07 -1)
(-0.000507788 -2.65251e-07 -1)
(0.00519273 1.91492e-05 -0.999987)
(0.00503451 5.51996e-05 -0.999987)
(0.00472206 8.46617e-05 -0.999989)
(0.00426662 0.000103788 -0.999991)
(0.00368268 0.000110418 -0.999993)
(0.00298689 0.000103724 -0.999996)
(0.00220088 8.45649e-05 -0.999998)
(0.00134565 5.51145e-05 -0.999999)
(0.000452547 1.91156e-05 -1)
(-0.000452547 -1.91156e-05 -1)
(-0.00134565 -5.51145e-05 -0.999999)
(-0.00220088 -8.45649e-05 -0.999998)
(-0.00298689 -0.000103724 -0.999996)
(-0.00368268 -0.000110418 -0.999993)
(-0.00426662 -0.000103788 -0.999991)
(-0.00472206 -8.46618e-05 -0.999989)
(-0.00503451 -5.51997e-05 -0.999987)
(-0.00519273 -1.91492e-05 -0.999987)
(-0.00519273 1.91492e-05 -0.999987)
(-0.00503451 5.51997e-05 -0.999987)
(-0.00472206 8.46618e-05 -0.999989)
(-0.00426662 0.000103788 -0.999991)
(-0.00368268 0.000110418 -0.999993)
(-0.00298689 0.000103724 -0.999996)
(-0.00220088 8.45649e-05 -0.999998)
(-0.00134565 5.51145e-05 -0.999999)
(-0.000452547 1.91156e-05 -1)
(0.000452547 -1.91156e-05 -1)
(0.00134565 -5.51145e-05 -0.999999)
(0.00220088 -8.45649e-05 -0.999998)
(0.00298689 -0.000103724 -0.999996)
(0.00368268 -0.000110418 -0.999993)
(0.00426662 -0.000103788 -0.999991)
(0.00472206 -8.46617e-05 -0.999989)
(0.00503451 -5.51996e-05 -0.999987)
(0.00519273 -1.91492e-05 -0.999987)
(0.00483003 1.91983e-05 -0.999988)
(0.00468259 5.52939e-05 -0.999989)
(0.00439238 8.47151e-05 -0.99999)
(0.00396868 0.000103875 -0.999992)
(0.00342496 0.000110504 -0.999994)
(0.00277743 0.000103802 -0.999996)
(0.00204599 8.46026e-05 -0.999998)
(0.00125237 5.5195e-05 -0.999999)
(0.000421505 1.91593e-05 -1)
(-0.000421505 -1.91593e-05 -1)
(-0.00125237 -5.5195e-05 -0.999999)
(-0.00204599 -8.46026e-05 -0.999998)
(-0.00277743 -0.000103802 -0.999996)
(-0.00342496 -0.000110504 -0.999994)
(-0.00396868 -0.000103875 -0.999992)
(-0.00439237 -8.47151e-05 -0.99999)
(-0.00468259 -5.52939e-05 -0.999989)
(-0.00483003 -1.91983e-05 -0.999988)
(-0.00483003 1.91983e-05 -0.999988)
(-0.00468259 5.52939e-05 -0.999989)
(-0.00439237 8.47151e-05 -0.99999)
(-0.00396868 0.000103875 -0.999992)
(-0.00342496 0.000110504 -0.999994)
(-0.00277743 0.000103802 -0.999996)
(-0.00204599 8.46026e-05 -0.999998)
(-0.00125237 5.5195e-05 -0.999999)
(-0.000421505 1.91593e-05 -1)
(0.000421505 -1.91593e-05 -1)
(0.00125237 -5.5195e-05 -0.999999)
(0.00204599 -8.46026e-05 -0.999998)
(0.00277743 -0.000103802 -0.999996)
(0.00342496 -0.000110504 -0.999994)
(0.00396868 -0.000103875 -0.999992)
(0.00439237 -8.47151e-05 -0.99999)
(0.00468259 -5.52939e-05 -0.999989)
(0.00483003 -1.91984e-05 -0.999988)
(0.00351166 1.22767e-05 -0.999994)
(0.00340455 3.53764e-05 -0.999994)
(0.00319388 5.41863e-05 -0.999995)
(0.00288589 6.64535e-05 -0.999996)
(0.00249063 7.06952e-05 -0.999997)
(0.00201998 6.64171e-05 -0.999998)
(0.00148791 5.41305e-05 -0.999999)
(0.000911135 3.53274e-05 -1)
(0.000306517 1.22573e-05 -1)
(-0.000306517 -1.22573e-05 -1)
(-0.000911135 -3.53274e-05 -1)
(-0.00148791 -5.41305e-05 -0.999999)
(-0.00201998 -6.64171e-05 -0.999998)
(-0.00249063 -7.06952e-05 -0.999997)
(-0.00288589 -6.64535e-05 -0.999996)
(-0.00319388 -5.41863e-05 -0.999995)
(-0.00340455 -3.53765e-05 -0.999994)
(-0.00351166 -1.22767e-05 -0.999994)
(-0.00351166 1.22767e-05 -0.999994)
(-0.00340455 3.53765e-05 -0.999994)
(-0.00319388 5.41863e-05 -0.999995)
(-0.00288589 6.64535e-05 -0.999996)
(-0.00249063 7.06952e-05 -0.999997)
(-0.00201998 6.64171e-05 -0.999998)
(-0.00148791 5.41305e-05 -0.999999)
(-0.000911135 3.53274e-05 -1)
(-0.000306517 1.22573e-05 -1)
(0.000306517 -1.22573e-05 -1)
(0.000911134 -3.53274e-05 -1)
(0.00148791 -5.41305e-05 -0.999999)
(0.00201998 -6.64171e-05 -0.999998)
(0.00249063 -7.06952e-05 -0.999997)
(0.00288589 -6.64535e-05 -0.999996)
(0.00319388 -5.41864e-05 -0.999995)
(0.00340455 -3.53764e-05 -0.999994)
(0.00351166 -1.22766e-05 -0.999994)
(0.0113244 9.13162e-05 -0.999936)
(0.0109749 0.000262893 -0.99994)
(0.0102877 0.00040246 -0.999947)
(0.00928601 0.000493035 -0.999957)
(0.0080046 0.000523911 -0.999968)
(0.00648398 0.00049161 -0.999979)
(0.0047714 0.000400275 -0.999989)
(0.00291884 0.000260973 -0.999996)
(0.000982078 9.05579e-05 -1)
(-0.000982078 -9.05579e-05 -1)
(-0.00291884 -0.000260973 -0.999996)
(-0.0047714 -0.000400275 -0.999989)
(-0.00648398 -0.00049161 -0.999979)
(-0.0080046 -0.000523911 -0.999968)
(-0.00928601 -0.000493035 -0.999957)
(-0.0102877 -0.00040246 -0.999947)
(-0.0109749 -0.000262893 -0.99994)
(-0.0113244 -9.13162e-05 -0.999936)
(-0.0113244 9.13162e-05 -0.999936)
(-0.0109749 0.000262893 -0.99994)
(-0.0102877 0.00040246 -0.999947)
(-0.00928601 0.000493035 -0.999957)
(-0.0080046 0.000523911 -0.999968)
(-0.00648398 0.00049161 -0.999979)
(-0.0047714 0.000400275 -0.999989)
(-0.00291884 0.000260973 -0.999996)
(-0.000982078 9.05579e-05 -1)
(0.000982078 -9.05579e-05 -1)
(0.00291884 -0.000260973 -0.999996)
(0.0047714 -0.000400275 -0.999989)
(0.00648398 -0.00049161 -0.999979)
(0.0080046 -0.000523911 -0.999968)
(0.00928601 -0.000493035 -0.999957)
(0.0102877 -0.00040246 -0.999947)
(0.0109749 -0.000262893 -0.99994)
(0.0113244 -9.13161e-05 -0.999936)
(0.0100342 8.28357e-05 -0.99995)
(0.00972414 0.00023844 -0.999953)
(0.0091149 0.000364955 -0.999958)
(0.00822702 0.000447092 -0.999966)
(0.00709116 0.000475043 -0.999975)
(0.00574376 0.000445736 -0.999983)
(0.00422621 0.000362877 -0.999991)
(0.0025856 0.000236612 -0.999997)
(0.000870044 8.2114e-05 -1)
(-0.000870044 -8.2114e-05 -1)
(-0.0025856 -0.000236612 -0.999997)
(-0.00422621 -0.000362877 -0.999991)
(-0.00574376 -0.000445736 -0.999983)
(-0.00709116 -0.000475043 -0.999975)
(-0.00822702 -0.000447092 -0.999966)
(-0.0091149 -0.000364955 -0.999958)
(-0.00972414 -0.00023844 -0.999953)
(-0.0100342 -8.28357e-05 -0.99995)
(-0.0100342 8.28357e-05 -0.99995)
(-0.00972414 0.00023844 -0.999953)
(-0.0091149 0.000364955 -0.999958)
(-0.00822702 0.000447092 -0.999966)
(-0.00709116 0.000475043 -0.999975)
(-0.00574376 0.000445736 -0.999983)
(-0.00422621 0.000362877 -0.999991)
(-0.0025856 0.000236612 -0.999997)
(-0.000870044 8.2114e-05 -1)
(0.000870044 -8.2114e-05 -1)
(0.0025856 -0.000236612 -0.999997)
(0.00422621 -0.000362877 -0.999991)
(0.00574376 -0.000445736 -0.999983)
(0.00709116 -0.000475043 -0.999975)
(0.00822702 -0.000447092 -0.999966)
(0.0091149 -0.000364955 -0.999958)
(0.00972414 -0.00023844 -0.999953)
(0.0100342 -8.28357e-05 -0.99995)
(0.00750227 5.59952e-05 -0.999972)
(0.00727112 0.000161226 -0.999974)
(0.00681675 0.000246819 -0.999977)
(0.00615449 0.000302429 -0.999981)
(0.00530606 0.000321431 -0.999986)
(0.00429881 0.000301677 -0.999991)
(0.00316404 0.000245666 -0.999995)
(0.00193607 0.000160212 -0.999998)
(0.000651419 5.5595e-05 -1)
(-0.000651419 -5.5595e-05 -1)
(-0.00193607 -0.000160212 -0.999998)
(-0.00316404 -0.000245666 -0.999995)
(-0.00429881 -0.000301677 -0.999991)
(-0.00530606 -0.000321431 -0.999986)
(-0.00615449 -0.000302429 -0.999981)
(-0.00681675 -0.000246819 -0.999977)
(-0.00727112 -0.000161226 -0.999974)
(-0.00750227 -5.59952e-05 -0.999972)
(-0.00750227 5.59952e-05 -0.999972)
(-0.00727112 0.000161226 -0.999974)
(-0.00681675 0.000246819 -0.999977)
(-0.00615449 0.000302429 -0.999981)
(-0.00530606 0.000321431 -0.999986)
(-0.00429881 0.000301677 -0.999991)
(-0.00316404 0.000245666 -0.999995)
(-0.00193607 0.000160212 -0.999998)
(-0.000651419 5.5595e-05 -1)
(0.000651419 -5.5595e-05 -1)
(0.00193607 -0.000160212 -0.999998)
(0.00316404 -0.000245666 -0.999995)
(0.00429881 -0.000301677 -0.999991)
(0.00530606 -0.000321431 -0.999986)
(0.00615449 -0.000302429 -0.999981)
(0.00681675 -0.000246819 -0.999977)
(0.00727112 -0.000161226 -0.999974)
(0.00750227 -5.59952e-05 -0.999972)
(0.0179141 0.000228815 -0.99984)
(0.017348 0.000658054 -0.999849)
(0.0162388 0.00100577 -0.999868)
(0.0146304 0.00122982 -0.999892)
(0.0125834 0.00130402 -0.99992)
(0.0101704 0.00122098 -0.999948)
(0.00747009 0.000992225 -0.999972)
(0.00456436 0.000646144 -0.999989)
(0.00153504 0.000224112 -0.999999)
(-0.00153504 -0.000224112 -0.999999)
(-0.00456436 -0.000646144 -0.999989)
(-0.00747009 -0.000992225 -0.999972)
(-0.0101704 -0.00122098 -0.999948)
(-0.0125834 -0.00130402 -0.99992)
(-0.0146304 -0.00122982 -0.999892)
(-0.0162388 -0.00100577 -0.999868)
(-0.017348 -0.000658054 -0.999849)
(-0.0179141 -0.000228815 -0.99984)
(-0.0179141 0.000228815 -0.99984)
(-0.017348 0.000658054 -0.999849)
(-0.0162388 0.00100577 -0.999868)
(-0.0146304 0.00122982 -0.999892)
(-0.0125834 0.00130402 -0.99992)
(-0.0101704 0.00122098 -0.999948)
(-0.00747009 0.000992225 -0.999972)
(-0.00456436 0.000646144 -0.999989)
(-0.00153504 0.000224112 -0.999999)
(0.00153504 -0.000224112 -0.999999)
(0.00456436 -0.000646144 -0.999989)
(0.00747009 -0.000992225 -0.999972)
(0.0101704 -0.00122098 -0.999948)
(0.0125834 -0.00130402 -0.99992)
(0.0146304 -0.00122982 -0.999892)
(0.0162388 -0.00100577 -0.999868)
(0.017348 -0.000658054 -0.999849)
(0.0179141 -0.000228815 -0.99984)
(0.0156112 0.000200355 -0.999878)
(0.0151175 0.000576233 -0.999886)
(0.0141505 0.000880704 -0.999899)
(0.0127485 0.00107685 -0.999918)
(0.0109645 0.00114176 -0.999939)
(0.00886168 0.00106902 -0.99996)
(0.00650871 0.00086871 -0.999978)
(0.00397675 0.000565685 -0.999992)
(0.0013373 0.000196189 -0.999999)
(-0.0013373 -0.000196189 -0.999999)
(-0.00397675 -0.000565685 -0.999992)
(-0.00650871 -0.00086871 -0.999978)
(-0.00886168 -0.00106902 -0.99996)
(-0.0109645 -0.00114176 -0.999939)
(-0.0127485 -0.00107685 -0.999918)
(-0.0141505 -0.000880704 -0.999899)
(-0.0151175 -0.000576233 -0.999886)
(-0.0156112 -0.000200355 -0.999878)
(-0.0156112 0.000200355 -0.999878)
(-0.0151175 0.000576233 -0.999886)
(-0.0141505 0.000880704 -0.999899)
(-0.0127485 0.00107685 -0.999918)
(-0.0109645 0.00114176 -0.999939)
(-0.00886168 0.00106902 -0.99996)
(-0.00650871 0.00086871 -0.999978)
(-0.00397675 0.000565685 -0.999992)
(-0.0013373 0.000196189 -0.999999)
(0.0013373 -0.000196189 -0.999999)
(0.00397675 -0.000565685 -0.999992)
(0.00650871 -0.00086871 -0.999978)
(0.00886168 -0.00106902 -0.99996)
(0.0109645 -0.00114176 -0.999939)
(0.0127485 -0.00107685 -0.999918)
(0.0141505 -0.000880704 -0.999899)
(0.0151175 -0.000576233 -0.999886)
(0.0156112 -0.000200355 -0.999878)
(0.0115568 0.000132751 -0.999933)
(0.0111942 0.000381899 -0.999937)
(0.0104829 0.000583977 -0.999945)
(0.00945043 0.000714471 -0.999955)
(0.00813385 0.00075809 -0.999967)
(0.00657858 0.000710291 -0.999978)
(0.004835 0.000577573 -0.999988)
(0.00295538 0.000376267 -0.999996)
(0.000994072 0.000130527 -0.999999)
(-0.000994072 -0.000130527 -0.999999)
(-0.00295538 -0.000376267 -0.999996)
(-0.004835 -0.000577573 -0.999988)
(-0.00657858 -0.000710291 -0.999978)
(-0.00813385 -0.00075809 -0.999967)
(-0.00945043 -0.000714471 -0.999955)
(-0.0104829 -0.000583977 -0.999945)
(-0.0111942 -0.0003819 -0.999937)
(-0.0115568 -0.000132751 -0.999933)
(-0.0115568 0.000132751 -0.999933)
(-0.0111942 0.0003819 -0.999937)
(-0.0104829 0.000583977 -0.999945)
(-0.00945043 0.000714471 -0.999955)
(-0.00813385 0.00075809 -0.999967)
(-0.00657858 0.000710291 -0.999978)
(-0.004835 0.000577573 -0.999988)
(-0.00295538 0.000376267 -0.999996)
(-0.000994072 0.000130527 -0.999999)
(0.000994072 -0.000130527 -0.999999)
(0.00295538 -0.000376267 -0.999996)
(0.004835 -0.000577573 -0.999988)
(0.00657858 -0.000710291 -0.999978)
(0.00813385 -0.00075809 -0.999967)
(0.00945043 -0.000714471 -0.999955)
(0.0104829 -0.000583977 -0.999945)
(0.0111942 -0.000381899 -0.999937)
(0.0115568 -0.000132751 -0.999933)
(0.0251006 0.000449572 -0.999685)
(0.0242777 0.0012913 -0.999704)
(0.0226734 0.00196911 -0.999741)
(0.0203659 0.00240046 -0.99979)
(0.0174566 0.0025366 -0.999844)
(0.0140611 0.002367 -0.999898)
(0.0102974 0.00191785 -0.999945)
(0.00627822 0.00124621 -0.99998)
(0.00210908 0.000431762 -0.999998)
(-0.00210908 -0.000431762 -0.999998)
(-0.00627822 -0.00124621 -0.99998)
(-0.0102974 -0.00191785 -0.999945)
(-0.0140611 -0.002367 -0.999898)
(-0.0174566 -0.0025366 -0.999844)
(-0.0203659 -0.00240046 -0.99979)
(-0.0226734 -0.00196911 -0.999741)
(-0.0242777 -0.0012913 -0.999704)
(-0.0251006 -0.000449572 -0.999685)
(-0.0251006 0.000449572 -0.999685)
(-0.0242777 0.0012913 -0.999704)
(-0.0226734 0.00196911 -0.999741)
(-0.0203659 0.00240046 -0.99979)
(-0.0174566 0.0025366 -0.999844)
(-0.0140611 0.002367 -0.999898)
(-0.0102974 0.00191785 -0.999945)
(-0.00627822 0.00124621 -0.99998)
(-0.00210908 0.000431762 -0.999998)
(0.00210908 -0.000431762 -0.999998)
(0.00627822 -0.00124621 -0.99998)
(0.0102974 -0.00191785 -0.999945)
(0.0140611 -0.002367 -0.999898)
(0.0174566 -0.0025366 -0.999844)
(0.0203659 -0.00240046 -0.99979)
(0.0226734 -0.00196911 -0.999741)
(0.0242777 -0.0012913 -0.999704)
(0.0251006 -0.000449572 -0.999685)
(0.0218043 0.000390308 -0.999762)
(0.0210893 0.00112112 -0.999777)
(0.0196957 0.0017096 -0.999805)
(0.017691 0.00208408 -0.999841)
(0.0151638 0.00220225 -0.999883)
(0.0122145 0.00205501 -0.999923)
(0.00894498 0.00166505 -0.999959)
(0.00545361 0.00108194 -0.999985)
(0.00183198 0.000374834 -0.999998)
(-0.00183198 -0.000374834 -0.999998)
(-0.00545361 -0.00108194 -0.999985)
(-0.00894498 -0.00166505 -0.999959)
(-0.0122145 -0.00205501 -0.999923)
(-0.0151638 -0.00220225 -0.999883)
(-0.017691 -0.00208408 -0.999841)
(-0.0196957 -0.0017096 -0.999805)
(-0.0210894 -0.00112112 -0.999777)
(-0.0218043 -0.000390308 -0.999762)
(-0.0218043 0.000390308 -0.999762)
(-0.0210894 0.00112112 -0.999777)
(-0.0196957 0.0017096 -0.999805)
(-0.017691 0.00208408 -0.999841)
(-0.0151638 0.00220225 -0.999883)
(-0.0122145 0.00205501 -0.999923)
(-0.00894498 0.00166505 -0.999959)
(-0.00545361 0.00108194 -0.999985)
(-0.00183198 0.000374834 -0.999998)
(0.00183198 -0.000374834 -0.999998)
(0.00545361 -0.00108194 -0.999985)
(0.00894498 -0.00166505 -0.999959)
(0.0122145 -0.00205501 -0.999923)
(0.0151638 -0.00220225 -0.999883)
(0.017691 -0.00208408 -0.999841)
(0.0196957 -0.0017096 -0.999805)
(0.0210894 -0.00112112 -0.999777)
(0.0218043 -0.000390308 -0.999762)
(0.0158325 0.00024881 -0.999875)
(0.0153221 0.000715012 -0.999882)
(0.0143246 0.00109148 -0.999897)
(0.0128847 0.00133244 -0.999916)
(0.0110617 0.00141023 -0.999938)
(0.00892415 0.001318 -0.999959)
(0.0065443 0.00106936 -0.999978)
(0.00399391 0.000695552 -0.999992)
(0.00134248 0.000241124 -0.999999)
(-0.00134248 -0.000241124 -0.999999)
(-0.00399391 -0.000695552 -0.999992)
(-0.0065443 -0.00106936 -0.999978)
(-0.00892415 -0.001318 -0.999959)
(-0.0110617 -0.00141023 -0.999938)
(-0.0128847 -0.00133244 -0.999916)
(-0.0143246 -0.00109148 -0.999897)
(-0.0153221 -0.000715012 -0.999882)
(-0.0158325 -0.00024881 -0.999875)
(-0.0158325 0.00024881 -0.999875)
(-0.0153221 0.000715012 -0.999882)
(-0.0143246 0.00109148 -0.999897)
(-0.0128847 0.00133244 -0.999916)
(-0.0110617 0.00141023 -0.999938)
(-0.00892415 0.001318 -0.999959)
(-0.0065443 0.00106936 -0.999978)
(-0.00399391 0.000695552 -0.999992)
(-0.00134248 0.000241124 -0.999999)
(0.00134248 -0.000241124 -0.999999)
(0.00399391 -0.000695552 -0.999992)
(0.0065443 -0.00106936 -0.999978)
(0.00892415 -0.001318 -0.999959)
(0.0110617 -0.00141023 -0.999938)
(0.0128847 -0.00133244 -0.999916)
(0.0143246 -0.00109148 -0.999897)
(0.0153221 -0.000715012 -0.999882)
(0.0158325 -0.00024881 -0.999875)
(0.0331659 0.000785382 -0.99945)
(0.0320193 0.00225149 -0.999485)
(0.0298006 0.00342151 -0.99955)
(0.0266454 0.00415206 -0.999636)
(0.0227228 0.00436516 -0.999732)
(0.0182118 0.00405296 -0.999826)
(0.0132791 0.00326962 -0.999906)
(0.00807048 0.00211786 -0.999965)
(0.00270687 0.000732592 -0.999996)
(-0.00270687 -0.000732592 -0.999996)
(-0.00807048 -0.00211786 -0.999965)
(-0.0132791 -0.00326962 -0.999906)
(-0.0182118 -0.00405296 -0.999826)
(-0.0227228 -0.00436516 -0.999732)
(-0.0266454 -0.00415206 -0.999636)
(-0.0298006 -0.00342151 -0.99955)
(-0.0320193 -0.00225149 -0.999485)
(-0.0331659 -0.000785382 -0.99945)
(-0.0331659 0.000785382 -0.99945)
(-0.0320193 0.00225149 -0.999485)
(-0.0298006 0.00342151 -0.99955)
(-0.0266454 0.00415206 -0.999636)
(-0.0227228 0.00436516 -0.999732)
(-0.0182118 0.00405296 -0.999826)
(-0.0132791 0.00326962 -0.999906)
(-0.00807048 0.00211786 -0.999965)
(-0.00270687 0.000732592 -0.999996)
(0.00270687 -0.000732592 -0.999996)
(0.00807048 -0.00211786 -0.999965)
(0.0132791 -0.00326962 -0.999906)
(0.0182118 -0.00405296 -0.999826)
(0.0227228 -0.00436516 -0.999732)
(0.0266454 -0.00415206 -0.999636)
(0.0298006 -0.00342151 -0.99955)
(0.0320193 -0.00225149 -0.999485)
(0.0331659 -0.000785382 -0.99945)
(0.0289532 0.000686639 -0.999581)
(0.0279514 0.00196837 -0.999607)
(0.0260136 0.00299119 -0.999657)
(0.023258 0.00362965 -0.999723)
(0.0198331 0.00381572 -0.999796)
(0.0158949 0.00354262 -0.999867)
(0.0115892 0.00285779 -0.999929)
(0.00704309 0.00185101 -0.999973)
(0.00236223 0.000640273 -0.999997)
(-0.00236223 -0.000640273 -0.999997)
(-0.00704309 -0.00185101 -0.999973)
(-0.0115892 -0.00285779 -0.999929)
(-0.0158949 -0.00354262 -0.999867)
(-0.0198331 -0.00381572 -0.999796)
(-0.023258 -0.00362965 -0.999723)
(-0.0260136 -0.00299119 -0.999657)
(-0.0279514 -0.00196837 -0.999607)
(-0.0289532 -0.000686639 -0.999581)
(-0.0289532 0.000686639 -0.999581)
(-0.0279514 0.00196837 -0.999607)
(-0.0260136 0.00299119 -0.999657)
(-0.023258 0.00362965 -0.999723)
(-0.0198331 0.00381572 -0.999796)
(-0.0158949 0.00354262 -0.999867)
(-0.0115892 0.00285779 -0.999929)
(-0.00704309 0.00185101 -0.999973)
(-0.00236223 0.000640273 -0.999997)
(0.00236223 -0.000640273 -0.999997)
(0.00704309 -0.00185101 -0.999973)
(0.0115892 -0.00285779 -0.999929)
(0.0158949 -0.00354262 -0.999867)
(0.0198331 -0.00381572 -0.999796)
(0.023258 -0.00362965 -0.999723)
(0.0260136 -0.00299119 -0.999657)
(0.0279514 -0.00196837 -0.999607)
(0.0289532 -0.000686639 -0.999581)
(0.0205544 0.000418513 -0.999789)
(0.0198658 0.00120117 -0.999802)
(0.0185277 0.0018292 -0.999827)
(0.0166116 0.00222586 -0.99986)
(0.0142096 0.00234728 -0.999896)
(0.0114229 0.00218594 -0.999932)
(0.00835058 0.00176803 -0.999964)
(0.00508465 0.00114736 -0.999986)
(0.00170701 0.000397259 -0.999998)
(-0.00170701 -0.000397259 -0.999998)
(-0.00508465 -0.00114736 -0.999986)
(-0.00835058 -0.00176803 -0.999964)
(-0.0114229 -0.00218594 -0.999932)
(-0.0142096 -0.00234728 -0.999896)
(-0.0166116 -0.00222586 -0.99986)
(-0.0185277 -0.0018292 -0.999827)
(-0.0198658 -0.00120117 -0.999802)
(-0.0205544 -0.000418513 -0.999789)
(-0.0205544 0.000418513 -0.999789)
(-0.0198658 0.00120117 -0.999802)
(-0.0185277 0.0018292 -0.999827)
(-0.0166116 0.00222586 -0.99986)
(-0.0142096 0.00234728 -0.999896)
(-0.0114229 0.00218594 -0.999932)
(-0.00835058 0.00176803 -0.999964)
(-0.00508465 0.00114736 -0.999986)
(-0.00170701 0.000397259 -0.999998)
(0.00170701 -0.000397259 -0.999998)