/*--------------------------------*- C++ -*----------------------------------*\
| =========                 |                                                 |
| \\      /  F ield         | OpenFOAM: The Open Source CFD Toolbox           |
|  \\    /   O peration     | Version:  2312                                  |
|   \\  /    A nd           | Website:  www.openfoam.com                      |
|    \\/     M anipulation  |                                                 |
\*---------------------------------------------------------------------------*/
FoamFile
{
    version     2.0;
    format      ascii;
    arch        "LSB;label=32;scalar=64";
    class       volVectorField;
    location    "0";
    object      e_thetha;
}
// * * * * * * * * * * * * * * * * * * * * * * * * * * * * * * * * * * * * * //

dimensions      [0 0 0 0 0 0 0];

internalField   nonuniform List<vector> 
1620
(
(-0.00125971 -0.999999 0)
(-0.00373553 -0.999993 0)
(-0.00610168 -0.999981 0)
(-0.00828222 -0.999966 0)
(-0.0102053 -0.999948 0)
(-0.0118193 -0.99993 0)
(-0.0130795 -0.999914 0)
(-0.0139399 -0.999903 0)
(-0.0143771 -0.999897 0)
(-0.0143771 -0.999897 0)
(-0.0139399 -0.999903 0)
(-0.0130795 -0.999914 0)
(-0.0118193 -0.99993 0)
(-0.0102053 -0.999948 0)
(-0.00828223 -0.999966 0)
(-0.00610168 -0.999981 0)
(-0.00373553 -0.999993 0)
(-0.0012597 -0.999999 0)
(0.0012597 -0.999999 0)
(0.00373553 -0.999993 0)
(0.00610168 -0.999981 0)
(0.00828223 -0.999966 0)
(0.0102053 -0.999948 0)
(0.0118193 -0.99993 0)
(0.0130795 -0.999914 0)
(0.0139399 -0.999903 0)
(0.0143771 -0.999897 0)
(0.0143771 -0.999897 0)
(0.0139399 -0.999903 0)
(0.0130795 -0.999914 0)
(0.0118193 -0.99993 0)
(0.0102053 -0.999948 0)
(0.00828223 -0.999966 0)
(0.00610168 -0.999981 0)
(0.00373553 -0.999993 0)
(0.0012597 -0.999999 0)
(-0.0015434 -0.999999 0)
(-0.00458221 -0.99999 0)
(-0.00748468 -0.999972 0)
(-0.0101589 -0.999948 0)
(-0.0125204 -0.999922 0)
(-0.0145014 -0.999895 0)
(-0.0160453 -0.999871 0)
(-0.0171013 -0.999854 0)
(-0.0176373 -0.999844 0)
(-0.0176373 -0.999844 0)
(-0.0171013 -0.999854 0)
(-0.0160453 -0.999871 0)
(-0.0145014 -0.999895 0)
(-0.0125204 -0.999922 0)
(-0.0101589 -0.999948 0)
(-0.00748469 -0.999972 0)
(-0.00458221 -0.99999 0)
(-0.0015434 -0.999999 0)
(0.0015434 -0.999999 0)
(0.00458221 -0.99999 0)
(0.00748469 -0.999972 0)
(0.0101589 -0.999948 0)
(0.0125204 -0.999922 0)
(0.0145014 -0.999895 0)
(0.0160453 -0.999871 0)
(0.0171013 -0.999854 0)
(0.0176373 -0.999844 0)
(0.0176373 -0.999844 0)
(0.0171013 -0.999854 0)
(0.0160453 -0.999871 0)
(0.0145014 -0.999895 0)
(0.0125204 -0.999922 0)
(0.0101589 -0.999948 0)
(0.00748468 -0.999972 0)
(0.0045822 -0.99999 0)
(0.00154341 -0.999999 0)
(-0.0026289 -0.999997 0)
(-0.00780539 -0.99997 0)
(-0.0127507 -0.999919 0)
(-0.0173038 -0.99985 0)
(-0.0213287 -0.999773 0)
(-0.0247051 -0.999695 0)
(-0.0273324 -0.999626 0)
(-0.0291301 -0.999576 0)
(-0.0300418 -0.999549 0)
(-0.0300418 -0.999549 0)
(-0.0291301 -0.999576 0)
(-0.0273324 -0.999626 0)
(-0.0247051 -0.999695 0)
(-0.0213287 -0.999773 0)
(-0.0173038 -0.99985 0)
(-0.0127507 -0.999919 0)
(-0.00780539 -0.99997 0)
(-0.0026289 -0.999997 0)
(0.0026289 -0.999997 0)
(0.00780539 -0.99997 0)
(0.0127507 -0.999919 0)
(0.0173038 -0.99985 0)
(0.0213287 -0.999773 0)
(0.0247051 -0.999695 0)
(0.0273324 -0.999626 0)
(0.0291301 -0.999576 0)
(0.0300418 -0.999549 0)
(0.0300418 -0.999549 0)
(0.0291301 -0.999576 0)
(0.0273324 -0.999626 0)
(0.0247051 -0.999695 0)
(0.0213287 -0.999773 0)
(0.0173038 -0.99985 0)
(0.0127507 -0.999919 0)
(0.00780539 -0.99997 0)
(0.0026289 -0.999997 0)
(-0.00200934 -0.999998 0)
(-0.0059377 -0.999982 0)
(-0.0096965 -0.999953 0)
(-0.0131675 -0.999913 0)
(-0.01622 -0.999868 0)
(-0.0187796 -0.999824 0)
(-0.0207851 -0.999784 0)
(-0.0221521 -0.999755 0)
(-0.022846 -0.999739 0)
(-0.022846 -0.999739 0)
(-0.0221521 -0.999755 0)
(-0.0207851 -0.999784 0)
(-0.0187796 -0.999824 0)
(-0.01622 -0.999868 0)
(-0.0131675 -0.999913 0)
(-0.00969651 -0.999953 0)
(-0.0059377 -0.999982 0)
(-0.00200933 -0.999998 0)
(0.00200933 -0.999998 0)
(0.0059377 -0.999982 0)
(0.00969651 -0.999953 0)
(0.0131675 -0.999913 0)
(0.01622 -0.999868 0)
(0.0187796 -0.999824 0)
(0.0207851 -0.999784 0)
(0.0221521 -0.999755 0)
(0.022846 -0.999739 0)
(0.022846 -0.999739 0)
(0.0221521 -0.999755 0)
(0.0207851 -0.999784 0)
(0.0187796 -0.999824 0)
(0.01622 -0.999868 0)
(0.0131675 -0.999913 0)
(0.00969651 -0.999953 0)
(0.0059377 -0.999982 0)
(0.00200933 -0.999998 0)
(-0.00330274 -0.999995 0)
(-0.00978983 -0.999952 0)
(-0.0159857 -0.999872 0)
(-0.0216942 -0.999765 0)
(-0.0267399 -0.999642 0)
(-0.0309707 -0.99952 0)
(-0.0342629 -0.999413 0)
(-0.0365149 -0.999333 0)
(-0.0376572 -0.999291 0)
(-0.0376572 -0.999291 0)
(-0.0365149 -0.999333 0)
(-0.0342629 -0.999413 0)
(-0.0309707 -0.99952 0)
(-0.0267399 -0.999642 0)
(-0.0216942 -0.999765 0)
(-0.0159857 -0.999872 0)
(-0.00978982 -0.999952 0)
(-0.00330274 -0.999995 0)
(0.00330274 -0.999995 0)
(0.00978982 -0.999952 0)
(0.0159857 -0.999872 0)
(0.0216942 -0.999765 0)
(0.0267399 -0.999642 0)
(0.0309707 -0.99952 0)
(0.0342629 -0.999413 0)
(0.0365149 -0.999333 0)
(0.0376572 -0.999291 0)
(0.0376572 -0.999291 0)
(0.0365149 -0.999333 0)
(0.0342629 -0.999413 0)
(0.0309707 -0.99952 0)
(0.0267399 -0.999642 0)
(0.0216942 -0.999765 0)
(0.0159857 -0.999872 0)
(0.00978982 -0.999952 0)
(0.00330274 -0.999995 0)
(-0.00455008 -0.99999 0)
(-0.0134963 -0.999909 0)
(-0.0220325 -0.999757 0)
(-0.0299052 -0.999553 0)
(-0.0368567 -0.999321 0)
(-0.0426855 -0.999089 0)
(-0.0472204 -0.998884 0)
(-0.0503166 -0.998733 0)
(-0.051889 -0.998653 0)
(-0.051889 -0.998653 0)
(-0.0503166 -0.998733 0)
(-0.0472204 -0.998884 0)
(-0.0426855 -0.999089 0)
(-0.0368567 -0.999321 0)
(-0.0299052 -0.999553 0)
(-0.0220325 -0.999757 0)
(-0.0134963 -0.999909 0)
(-0.00455008 -0.99999 0)
(0.00455008 -0.99999 0)
(0.0134963 -0.999909 0)
(0.0220325 -0.999757 0)
(0.0299052 -0.999553 0)
(0.0368567 -0.999321 0)
(0.0426855 -0.999089 0)
(0.0472204 -0.998884 0)
(0.0503166 -0.998733 0)
(0.051889 -0.998653 0)
(0.051889 -0.998653 0)
(0.0503166 -0.998733 0)
(0.0472204 -0.998884 0)
(0.0426855 -0.999089 0)
(0.0368567 -0.999321 0)
(0.0299052 -0.999553 0)
(0.0220325 -0.999757 0)
(0.0134963 -0.999909 0)
(0.00455008 -0.99999 0)
(-0.000238054 -1 0)
(-0.000679764 -1 0)
(-0.00114335 -0.999999 0)
(-0.00146448 -0.999999 0)
(-0.00180614 -0.999998 0)
(-0.00209202 -0.999998 0)
(-0.00228411 -0.999997 0)
(-0.00246255 -0.999997 0)
(-0.00254068 -0.999997 0)
(-0.00254067 -0.999997 0)
(-0.00246254 -0.999997 0)
(-0.00228411 -0.999997 0)
(-0.00209204 -0.999998 0)
(-0.00180616 -0.999998 0)
(-0.00146456 -0.999999 0)
(-0.00114349 -0.999999 0)
(-0.000679808 -1 0)
(-0.000238015 -1 0)
(0.000238015 -1 0)
(0.000679808 -1 0)
(0.00114349 -0.999999 0)
(0.00146456 -0.999999 0)
(0.00180616 -0.999998 0)
(0.00209204 -0.999998 0)
(0.00228411 -0.999997 0)
(0.00246254 -0.999997 0)
(0.00254067 -0.999997 0)
(0.00254068 -0.999997 0)
(0.00246255 -0.999997 0)
(0.00228411 -0.999997 0)
(0.00209203 -0.999998 0)
(0.00180613 -0.999998 0)
(0.0014645 -0.999999 0)
(0.00114344 -0.999999 0)
(0.000679731 -1 0)
(0.000237949 -1 0)
(-8.52012e-05 -1 0)
(-0.000134055 -1 0)
(-0.000228655 -1 0)
(-0.00025407 -1 0)
(-0.000360204 -1 0)
(-0.000444076 -1 0)
(-0.00045501 -1 0)
(-0.000491815 -1 0)
(-0.000503261 -1 0)
(-0.00050326 -1 0)
(-0.000491812 -1 0)
(-0.000455011 -1 0)
(-0.000444091 -1 0)
(-0.000360234 -1 0)
(-0.000254125 -1 0)
(-0.000228769 -1 0)
(-0.000134034 -1 0)
(-8.52458e-05 -1 0)
(8.52458e-05 -1 0)
(0.000134034 -1 0)
(0.000228769 -1 0)
(0.000254125 -1 0)
(0.000360234 -1 0)
(0.000444091 -1 0)
(0.000455011 -1 0)
(0.000491812 -1 0)
(0.00050326 -1 0)
(0.000503261 -1 0)
(0.000491815 -1 0)
(0.000455015 -1 0)
(0.000444077 -1 0)
(0.000360174 -1 0)
(0.000254054 -1 0)
(0.000228732 -1 0)
(0.00013393 -1 0)
(8.52978e-05 -1 0)
(-0.000522385 -1 0)
(-0.00150668 -0.999999 0)
(-0.00244194 -0.999997 0)
(-0.00333114 -0.999994 0)
(-0.00410859 -0.999992 0)
(-0.00476064 -0.999989 0)
(-0.00527293 -0.999986 0)
(-0.00561343 -0.999984 0)
(-0.00578772 -0.999983 0)
(-0.00578772 -0.999983 0)
(-0.00561343 -0.999984 0)
(-0.00527293 -0.999986 0)
(-0.00476065 -0.999989 0)
(-0.00410861 -0.999992 0)
(-0.00333117 -0.999994 0)
(-0.00244197 -0.999997 0)
(-0.00150673 -0.999999 0)
(-0.000522426 -1 0)
(0.000522426 -1 0)
(0.00150673 -0.999999 0)
(0.00244197 -0.999997 0)
(0.00333117 -0.999994 0)
(0.00410861 -0.999992 0)
(0.00476065 -0.999989 0)
(0.00527293 -0.999986 0)
(0.00561343 -0.999984 0)
(0.00578772 -0.999983 0)
(0.00578772 -0.999983 0)
(0.00561344 -0.999984 0)
(0.00527294 -0.999986 0)
(0.00476063 -0.999989 0)
(0.00410856 -0.999992 0)
(0.00333115 -0.999994 0)
(0.002442 -0.999997 0)
(0.00150666 -0.999999 0)
(0.000522366 -1 0)
(-0.00368768 0.999993 0)
(-0.0109636 0.99994 0)
(-0.0179261 0.999839 0)
(-0.0243183 0.999704 0)
(-0.0299695 0.999551 0)
(-0.0347056 0.999398 0)
(-0.0383948 0.999263 0)
(-0.0409231 0.999162 0)
(-0.0422025 0.999109 0)
(-0.0422025 0.999109 0)
(-0.0409231 0.999162 0)
(-0.0383948 0.999263 0)
(-0.0347056 0.999398 0)
(-0.0299695 0.999551 0)
(-0.0243183 0.999704 0)
(-0.0179261 0.999839 0)
(-0.0109636 0.99994 0)
(-0.00368767 0.999993 0)
(0.00368767 0.999993 0)
(0.0109636 0.99994 0)
(0.0179261 0.999839 0)
(0.0243183 0.999704 0)
(0.0299695 0.999551 0)
(0.0347056 0.999398 0)
(0.0383948 0.999263 0)
(0.0409231 0.999162 0)
(0.0422025 0.999109 0)
(0.0422025 0.999109 0)
(0.0409231 0.999162 0)
(0.0383948 0.999263 0)
(0.0347056 0.999398 0)
(0.0299695 0.999551 0)
(0.0243183 0.999704 0)
(0.0179261 0.999839 0)
(0.0109636 0.99994 0)
(0.00368767 0.999993 0)
(-0.00397475 0.999992 0)
(-0.0118076 0.99993 0)
(-0.0192833 0.999814 0)
(-0.0261648 0.999658 0)
(-0.0322477 0.99948 0)
(-0.0373473 0.999302 0)
(-0.0413151 0.999146 0)
(-0.0440296 0.99903 0)
(-0.0454076 0.998969 0)
(-0.0454076 0.998969 0)
(-0.0440296 0.99903 0)
(-0.0413151 0.999146 0)
(-0.0373473 0.999302 0)
(-0.0322477 0.99948 0)
(-0.0261648 0.999658 0)
(-0.0192833 0.999814 0)
(-0.0118076 0.99993 0)
(-0.00397476 0.999992 0)
(0.00397476 0.999992 0)
(0.0118076 0.99993 0)
(0.0192833 0.999814 0)
(0.0261648 0.999658 0)
(0.0322477 0.99948 0)
(0.0373473 0.999302 0)
(0.0413151 0.999146 0)
(0.0440296 0.99903 0)
(0.0454076 0.998969 0)
(0.0454076 0.998969 0)
(0.0440296 0.99903 0)
(0.0413151 0.999146 0)
(0.0373473 0.999302 0)
(0.0322477 0.99948 0)
(0.0261648 0.999658 0)
(0.0192833 0.999814 0)
(0.0118076 0.99993 0)
(0.00397476 0.999992 0)
(-0.00349595 0.999994 0)
(-0.0103904 0.999946 0)
(-0.0169632 0.999856 0)
(-0.0230209 0.999735 0)
(-0.028373 0.999597 0)
(-0.0328622 0.99946 0)
(-0.0363562 0.999339 0)
(-0.0387438 0.999249 0)
(-0.0399571 0.999201 0)
(-0.0399571 0.999201 0)
(-0.0387438 0.999249 0)
(-0.0363562 0.999339 0)
(-0.0328622 0.99946 0)
(-0.028373 0.999597 0)
(-0.0230209 0.999735 0)
(-0.0169632 0.999856 0)
(-0.0103904 0.999946 0)
(-0.00349595 0.999994 0)
(0.00349595 0.999994 0)
(0.0103904 0.999946 0)
(0.0169632 0.999856 0)
(0.0230209 0.999735 0)
(0.028373 0.999597 0)
(0.0328622 0.99946 0)
(0.0363562 0.999339 0)
(0.0387438 0.999249 0)
(0.0399571 0.999201 0)
(0.0399571 0.999201 0)
(0.0387438 0.999249 0)
(0.0363562 0.999339 0)
(0.0328622 0.99946 0)
(0.028373 0.999597 0)
(0.0230209 0.999735 0)
(0.0169632 0.999856 0)
(0.0103904 0.999946 0)
(0.00349594 0.999994 0)
(-0.00806339 0.999967 0)
(-0.0239471 0.999713 0)
(-0.0390907 0.999236 0)
(-0.0530197 0.998593 0)
(-0.0653115 0.997865 0)
(-0.0756022 0.997138 0)
(-0.0835969 0.9965 0)
(-0.0890546 0.996027 0)
(-0.0918209 0.995776 0)
(-0.0918209 0.995776 0)
(-0.0890546 0.996027 0)
(-0.0835969 0.9965 0)
(-0.0756022 0.997138 0)
(-0.0653115 0.997865 0)
(-0.0530197 0.998593 0)
(-0.0390907 0.999236 0)
(-0.0239471 0.999713 0)
(-0.00806339 0.999967 0)
(0.00806339 0.999967 0)
(0.0239471 0.999713 0)
(0.0390907 0.999236 0)
(0.0530197 0.998593 0)
(0.0653115 0.997865 0)
(0.0756022 0.997138 0)
(0.0835969 0.9965 0)
(0.0890546 0.996027 0)
(0.0918209 0.995776 0)
(0.0918209 0.995776 0)
(0.0890546 0.996027 0)
(0.0835969 0.9965 0)
(0.0756022 0.997138 0)
(0.0653115 0.997865 0)
(0.0530197 0.998593 0)
(0.0390907 0.999236 0)
(0.0239471 0.999713 0)
(0.00806339 0.999967 0)
(-0.00825507 0.999966 0)
(-0.0245131 0.9997 0)
(-0.0400074 0.999199 0)
(-0.0542642 0.998527 0)
(-0.0668411 0.997764 0)
(-0.0773708 0.997002 0)
(-0.0855487 0.996334 0)
(-0.0911307 0.995839 0)
(-0.0939616 0.995576 0)
(-0.0939616 0.995576 0)
(-0.0911307 0.995839 0)
(-0.0855487 0.996334 0)
(-0.0773708 0.997002 0)
(-0.0668411 0.997764 0)
(-0.0542642 0.998527 0)
(-0.0400074 0.999199 0)
(-0.0245131 0.9997 0)
(-0.00825507 0.999966 0)
(0.00825507 0.999966 0)
(0.0245131 0.9997 0)
(0.0400074 0.999199 0)
(0.0542642 0.998527 0)
(0.0668411 0.997764 0)
(0.0773708 0.997002 0)
(0.0855487 0.996334 0)
(0.0911307 0.995839 0)
(0.0939616 0.995576 0)
(0.0939616 0.995576 0)
(0.0911307 0.995839 0)
(0.0855487 0.996334 0)
(0.0773708 0.997002 0)
(0.0668411 0.997764 0)
(0.0542642 0.998527 0)
(0.0400074 0.999199 0)
(0.0245131 0.9997 0)
(0.00825507 0.999966 0)
(-0.00746356 0.999972 0)
(-0.022168 0.999754 0)
(-0.036184 0.999345 0)
(-0.0490804 0.998795 0)
(-0.0604673 0.99817 0)
(-0.0700047 0.997547 0)
(-0.0774101 0.996999 0)
(-0.0824689 0.996594 0)
(-0.0850354 0.996378 0)
(-0.0850354 0.996378 0)
(-0.0824689 0.996594 0)
(-0.0774101 0.996999 0)
(-0.0700047 0.997547 0)
(-0.0604673 0.99817 0)
(-0.0490804 0.998795 0)
(-0.036184 0.999345 0)
(-0.022168 0.999754 0)
(-0.00746356 0.999972 0)
(0.00746356 0.999972 0)
(0.022168 0.999754 0)
(0.036184 0.999345 0)
(0.0490804 0.998795 0)
(0.0604673 0.99817 0)
(0.0700047 0.997547 0)
(0.0774101 0.996999 0)
(0.0824689 0.996594 0)
(0.0850354 0.996378 0)
(0.0850354 0.996378 0)
(0.0824689 0.996594 0)
(0.0774101 0.996999 0)
(0.0700047 0.997547 0)
(0.0604673 0.99817 0)
(0.0490804 0.998795 0)
(0.036184 0.999345 0)
(0.022168 0.999754 0)
(0.00746356 0.999972 0)
(-0.0127719 0.999918 0)
(-0.0379054 0.999281 0)
(-0.0618177 0.998087 0)
(-0.0837638 0.996486 0)
(-0.103078 0.994673 0)
(-0.119197 0.992871 0)
(-0.13167 0.991294 0)
(-0.140165 0.990128 0)
(-0.144466 0.98951 0)
(-0.144466 0.98951 0)
(-0.140165 0.990128 0)
(-0.13167 0.991294 0)
(-0.119197 0.992871 0)
(-0.103078 0.994673 0)
(-0.0837638 0.996486 0)
(-0.0618177 0.998087 0)
(-0.0379054 0.999281 0)
(-0.0127719 0.999918 0)
(0.0127719 0.999918 0)
(0.0379054 0.999281 0)
(0.0618177 0.998087 0)
(0.0837638 0.996486 0)
(0.103078 0.994673 0)
(0.119197 0.992871 0)
(0.13167 0.991294 0)
(0.140165 0.990128 0)
(0.144466 0.98951 0)
(0.144466 0.98951 0)
(0.140165 0.990128 0)
(0.13167 0.991294 0)
(0.119197 0.992871 0)
(0.103078 0.994673 0)
(0.0837638 0.996486 0)
(0.0618177 0.998087 0)
(0.0379054 0.999281 0)
(0.0127719 0.999918 0)
(-0.012833 0.999918 0)
(-0.0380892 0.999274 0)
(-0.0621183 0.998069 0)
(-0.0841686 0.996452 0)
(-0.103572 0.994622 0)
(-0.119766 0.992802 0)
(-0.132296 0.99121 0)
(-0.140831 0.990034 0)
(-0.145152 0.989409 0)
(-0.145152 0.989409 0)
(-0.140831 0.990034 0)
(-0.132296 0.99121 0)
(-0.119766 0.992802 0)
(-0.103572 0.994622 0)
(-0.0841686 0.996452 0)
(-0.0621183 0.998069 0)
(-0.0380892 0.999274 0)
(-0.012833 0.999918 0)
(0.012833 0.999918 0)
(0.0380892 0.999274 0)
(0.0621183 0.998069 0)
(0.0841686 0.996452 0)
(0.103572 0.994622 0)
(0.119766 0.992802 0)
(0.132296 0.99121 0)
(0.140831 0.990034 0)
(0.145152 0.989409 0)
(0.145152 0.989409 0)
(0.140831 0.990034 0)
(0.132296 0.99121 0)
(0.119766 0.992802 0)
(0.103572 0.994622 0)
(0.0841686 0.996452 0)
(0.0621183 0.998069 0)
(0.0380892 0.999274 0)
(0.012833 0.999918 0)
(-0.0114861 0.999934 0)
(-0.0340961 0.999419 0)
(-0.0556212 0.998452 0)
(-0.0753869 0.997154 0)
(-0.0927997 0.995685 0)
(-0.107346 0.994222 0)
(-0.118613 0.992941 0)
(-0.126296 0.991993 0)
(-0.130187 0.991489 0)
(-0.130187 0.991489 0)
(-0.126296 0.991993 0)
(-0.118613 0.992941 0)
(-0.107346 0.994222 0)
(-0.0927997 0.995685 0)
(-0.0753869 0.997154 0)
(-0.0556212 0.998452 0)
(-0.0340961 0.999419 0)
(-0.0114861 0.999934 0)
(0.0114861 0.999934 0)
(0.0340961 0.999419 0)
(0.0556212 0.998452 0)
(0.0753869 0.997154 0)
(0.0927997 0.995685 0)
(0.107346 0.994222 0)
(0.118613 0.992941 0)
(0.126296 0.991993 0)
(0.130187 0.991489 0)
(0.130187 0.991489 0)
(0.126296 0.991993 0)
(0.118613 0.992941 0)
(0.107346 0.994222 0)
(0.0927997 0.995685 0)
(0.0753869 0.997154 0)
(0.0556212 0.998452 0)
(0.0340961 0.999419 0)
(0.0114861 0.999934 0)
(-0.0179079 0.99984 0)
(-0.0531138 0.998588 0)
(-0.086521 0.99625 0)
(-0.117057 0.993125 0)
(-0.143799 0.989607 0)
(-0.166001 0.986126 0)
(-0.183097 0.983095 0)
(-0.194698 0.980863 0)
(-0.200557 0.979682 0)
(-0.200557 0.979682 0)
(-0.194698 0.980863 0)
(-0.183097 0.983095 0)
(-0.166001 0.986126 0)
(-0.143799 0.989607 0)
(-0.117057 0.993125 0)
(-0.086521 0.99625 0)
(-0.0531138 0.998588 0)
(-0.0179079 0.99984 0)
(0.0179079 0.99984 0)
(0.0531138 0.998588 0)
(0.086521 0.99625 0)
(0.117057 0.993125 0)
(0.143799 0.989607 0)
(0.166001 0.986126 0)
(0.183097 0.983095 0)
(0.194698 0.980863 0)
(0.200557 0.979682 0)
(0.200557 0.979682 0)
(0.194698 0.980863 0)
(0.183097 0.983095 0)
(0.166001 0.986126 0)
(0.143799 0.989607 0)
(0.117057 0.993125 0)
(0.086521 0.99625 0)
(0.0531138 0.998588 0)
(0.0179079 0.99984 0)
(-0.0178977 0.99984 0)
(-0.0530856 0.99859 0)
(-0.0864756 0.996254 0)
(-0.116996 0.993132 0)
(-0.143723 0.989618 0)
(-0.165912 0.986141 0)
(-0.183 0.983113 0)
(-0.194597 0.980883 0)
(-0.200453 0.979703 0)
(-0.200453 0.979703 0)
(-0.194597 0.980883 0)
(-0.183 0.983113 0)
(-0.165912 0.986141 0)
(-0.143723 0.989618 0)
(-0.116996 0.993132 0)
(-0.0864756 0.996254 0)
(-0.0530856 0.99859 0)
(-0.0178977 0.99984 0)
(0.0178977 0.99984 0)
(0.0530856 0.99859 0)
(0.0864756 0.996254 0)
(0.116996 0.993132 0)
(0.143723 0.989618 0)
(0.165912 0.986141 0)
(0.183 0.983113 0)
(0.194597 0.980883 0)
(0.200453 0.979703 0)
(0.200453 0.979703 0)
(0.194597 0.980883 0)
(0.183 0.983113 0)
(0.165912 0.986141 0)
(0.143723 0.989618 0)
(0.116996 0.993132 0)
(0.0864756 0.996254 0)
(0.0530856 0.99859 0)
(0.0178977 0.99984 0)
(-0.0157132 0.999877 0)
(-0.0466148 0.998913 0)
(-0.0759763 0.99711 0)
(-0.102864 0.994695 0)
(-0.126464 0.991971 0)
(-0.146104 0.989269 0)
(-0.161264 0.986911 0)
(-0.171571 0.985172 0)
(-0.176781 0.98425 0)
(-0.176781 0.98425 0)
(-0.171571 0.985172 0)
(-0.161264 0.986911 0)
(-0.146104 0.989269 0)
(-0.126464 0.991971 0)
(-0.102864 0.994695 0)
(-0.0759763 0.99711 0)
(-0.0466148 0.998913 0)
(-0.0157132 0.999877 0)
(0.0157132 0.999877 0)
(0.0466148 0.998913 0)
(0.0759763 0.99711 0)
(0.102864 0.994695 0)
(0.126464 0.991971 0)
(0.146104 0.989269 0)
(0.161264 0.986911 0)
(0.171571 0.985172 0)
(0.176781 0.98425 0)
(0.176781 0.98425 0)
(0.171571 0.985172 0)
(0.161264 0.986911 0)
(0.146104 0.989269 0)
(0.126464 0.991971 0)
(0.102864 0.994695 0)
(0.0759763 0.99711 0)
(0.0466148 0.998913 0)
(0.0157132 0.999877 0)
(-0.0236738 0.99972 0)
(-0.0701434 0.997537 0)
(-0.114064 0.993473 0)
(-0.153969 0.988076 0)
(-0.188655 0.982043 0)
(-0.217232 0.97612 0)
(-0.239082 0.970999 0)
(-0.253827 0.96725 0)
(-0.261244 0.965273 0)
(-0.261244 0.965273 0)
(-0.253827 0.96725 0)
(-0.239082 0.970999 0)
(-0.217232 0.97612 0)
(-0.188655 0.982043 0)
(-0.153969 0.988076 0)
(-0.114064 0.993473 0)
(-0.0701434 0.997537 0)
(-0.0236738 0.99972 0)
(0.0236738 0.99972 0)
(0.0701434 0.997537 0)
(0.114064 0.993473 0)
(0.153969 0.988076 0)
(0.188655 0.982043 0)
(0.217232 0.97612 0)
(0.239082 0.970999 0)
(0.253827 0.96725 0)
(0.261244 0.965273 0)
(0.261244 0.965273 0)
(0.253827 0.96725 0)
(0.239082 0.970999 0)
(0.217232 0.97612 0)
(0.188655 0.982043 0)
(0.153969 0.988076 0)
(0.114064 0.993473 0)
(0.0701434 0.997537 0)
(0.0236738 0.99972 0)
(-0.0237089 0.999719 0)
(-0.070247 0.99753 0)
(-0.114233 0.993454 0)
(-0.154194 0.988041 0)
(-0.188927 0.981991 0)
(-0.217539 0.976052 0)
(-0.239418 0.970916 0)
(-0.25418 0.967157 0)
(-0.261607 0.965174 0)
(-0.261607 0.965174 0)
(-0.25418 0.967157 0)
(-0.239418 0.970916 0)
(-0.217539 0.976052 0)
(-0.188927 0.981991 0)
(-0.154194 0.988041 0)
(-0.114233 0.993454 0)
(-0.070247 0.99753 0)
(-0.0237089 0.999719 0)
(0.0237089 0.999719 0)
(0.070247 0.99753 0)
(0.114233 0.993454 0)
(0.154194 0.988041 0)
(0.188927 0.981991 0)
(0.217539 0.976052 0)
(0.239418 0.970916 0)
(0.25418 0.967157 0)
(0.261607 0.965174 0)
(0.261607 0.965174 0)
(0.25418 0.967157 0)
(0.239418 0.970916 0)
(0.217539 0.976052 0)
(0.188927 0.981991 0)
(0.154194 0.988041 0)
(0.114233 0.993454 0)
(0.070247 0.99753 0)
(0.0237089 0.999719 0)
(-0.020357 0.999793 0)
(-0.0603539 0.998177 0)
(-0.0982501 0.995162 0)
(-0.132808 0.991142 0)
(-0.162981 0.986629 0)
(-0.187954 0.982178 0)
(-0.207133 0.978313 0)
(-0.220117 0.975473 0)
(-0.226666 0.973973 0)
(-0.226666 0.973973 0)
(-0.220117 0.975473 0)
(-0.207133 0.978313 0)
(-0.187954 0.982178 0)
(-0.162981 0.986629 0)
(-0.132808 0.991142 0)
(-0.0982501 0.995162 0)
(-0.0603539 0.998177 0)
(-0.020357 0.999793 0)
(0.020357 0.999793 0)
(0.0603539 0.998177 0)
(0.0982501 0.995162 0)
(0.132808 0.991142 0)
(0.162981 0.986629 0)
(0.187954 0.982178 0)
(0.207133 0.978313 0)
(0.220117 0.975473 0)
(0.226666 0.973973 0)
(0.226666 0.973973 0)
(0.220117 0.975473 0)
(0.207133 0.978313 0)
(0.187954 0.982178 0)
(0.162981 0.986629 0)
(0.132808 0.991142 0)
(0.0982501 0.995162 0)
(0.0603539 0.998177 0)
(0.020357 0.999793 0)
(-0.0304584 0.999536 0)
(-0.0901141 0.995931 0)
(-0.146157 0.989261 0)
(-0.196607 0.980482 0)
(-0.239978 0.970778 0)
(-0.275305 0.961357 0)
(-0.302042 0.953295 0)
(-0.319934 0.94744 0)
(-0.328889 0.944368 0)
(-0.328889 0.944368 0)
(-0.319934 0.94744 0)
(-0.302042 0.953295 0)
(-0.275305 0.961357 0)
(-0.239978 0.970778 0)
(-0.196607 0.980482 0)
(-0.146157 0.989261 0)
(-0.0901141 0.995931 0)
(-0.0304584 0.999536 0)
(0.0304584 0.999536 0)
(0.0901141 0.995931 0)
(0.146157 0.989261 0)
(0.196607 0.980482 0)
(0.239978 0.970778 0)
(0.275305 0.961357 0)
(0.302042 0.953295 0)
(0.319934 0.94744 0)
(0.328889 0.944368 0)
(0.328889 0.944368 0)
(0.319934 0.94744 0)
(0.302042 0.953295 0)
(0.275305 0.961357 0)
(0.239978 0.970778 0)
(0.196607 0.980482 0)
(0.146157 0.989261 0)
(0.0901141 0.995931 0)
(0.0304584 0.999536 0)
(-0.0306093 0.999531 0)
(-0.0905624 0.995891 0)
(-0.146877 0.989155 0)
(-0.197555 0.980292 0)
(-0.241113 0.970497 0)
(-0.276582 0.96099 0)
(-0.30342 0.952857 0)
(-0.321375 0.946952 0)
(-0.330362 0.943854 0)
(-0.330362 0.943854 0)
(-0.321375 0.946952 0)
(-0.30342 0.952857 0)
(-0.276582 0.96099 0)
(-0.241113 0.970497 0)
(-0.197555 0.980292 0)
(-0.146877 0.989155 0)
(-0.0905624 0.995891 0)
(-0.0306093 0.999531 0)
(0.0306093 0.999531 0)
(0.0905624 0.995891 0)
(0.146877 0.989155 0)
(0.197555 0.980292 0)
(0.241113 0.970497 0)
(0.276582 0.96099 0)
(0.30342 0.952857 0)
(0.321375 0.946952 0)
(0.330362 0.943854 0)
(0.330362 0.943854 0)
(0.321375 0.946952 0)
(0.30342 0.952857 0)
(0.276582 0.96099 0)
(0.241113 0.970497 0)
(0.197555 0.980292 0)
(0.146877 0.989155 0)
(0.0905624 0.995891 0)
(0.0306093 0.999531 0)
(-0.0257334 0.999669 0)
(-0.0762233 0.997091 0)
(-0.123864 0.992299 0)
(-0.167034 0.985951 0)
(-0.204441 0.978879 0)
(-0.235161 0.971957 0)
(-0.258583 0.965989 0)
(-0.274349 0.96163 0)
(-0.282272 0.959334 0)
(-0.282272 0.959334 0)
(-0.274349 0.96163 0)
(-0.258583 0.965989 0)
(-0.235161 0.971957 0)
(-0.204441 0.978879 0)
(-0.167034 0.985951 0)
(-0.123864 0.992299 0)
(-0.0762233 0.997091 0)
(-0.0257334 0.999669 0)
(0.0257334 0.999669 0)
(0.0762233 0.997091 0)
(0.123864 0.992299 0)
(0.167034 0.985951 0)
(0.204441 0.978879 0)
(0.235161 0.971957 0)
(0.258583 0.965989 0)
(0.274349 0.96163 0)
(0.282272 0.959334 0)
(0.282272 0.959334 0)
(0.274349 0.96163 0)
(0.258583 0.965989 0)
(0.235161 0.971957 0)
(0.204441 0.978879 0)
(0.167034 0.985951 0)
(0.123864 0.992299 0)
(0.0762233 0.997091 0)
(0.0257334 0.999669 0)
(-0.039078 0.999236 0)
(-0.115357 0.993324 0)
(-0.186312 0.982491 0)
(-0.249248 0.96844 0)
(-0.302427 0.953172 0)
(-0.344994 0.938605 0)
(-0.376709 0.926332 0)
(-0.397673 0.917527 0)
(-0.408088 0.912943 0)
(-0.408088 0.912943 0)
(-0.397673 0.917527 0)
(-0.376709 0.926332 0)
(-0.344994 0.938605 0)
(-0.302427 0.953172 0)
(-0.249248 0.96844 0)
(-0.186312 0.982491 0)
(-0.115357 0.993324 0)
(-0.039078 0.999236 0)
(0.039078 0.999236 0)
(0.115357 0.993324 0)
(0.186312 0.982491 0)
(0.249248 0.96844 0)
(0.302427 0.953172 0)
(0.344994 0.938605 0)
(0.376709 0.926332 0)
(0.397673 0.917527 0)
(0.408088 0.912943 0)
(0.408088 0.912943 0)
(0.397673 0.917527 0)
(0.376709 0.926332 0)
(0.344994 0.938605 0)
(0.302427 0.953172 0)
(0.249248 0.96844 0)
(0.186312 0.982491 0)
(0.115357 0.993324 0)
(0.039078 0.999236 0)
(-0.0391181 0.999235 0)
(-0.115477 0.99331 0)
(-0.1865 0.982455 0)
(-0.24949 0.968377 0)
(-0.302714 0.953082 0)
(-0.345311 0.938488 0)
(-0.377046 0.926194 0)
(-0.398022 0.917376 0)
(-0.408442 0.912784 0)
(-0.408442 0.912784 0)
(-0.398022 0.917376 0)
(-0.377046 0.926194 0)
(-0.345311 0.938488 0)
(-0.302714 0.953082 0)
(-0.24949 0.968377 0)
(-0.1865 0.982455 0)
(-0.115477 0.99331 0)
(-0.0391181 0.999235 0)
(0.0391181 0.999235 0)
(0.115477 0.99331 0)
(0.1865 0.982455 0)
(0.24949 0.968377 0)
(0.302714 0.953082 0)
(0.345311 0.938488 0)
(0.377046 0.926194 0)
(0.398022 0.917376 0)
(0.408442 0.912784 0)
(0.408442 0.912784 0)
(0.398022 0.917376 0)
(0.377046 0.926194 0)
(0.345311 0.938488 0)
(0.302714 0.953082 0)
(0.24949 0.968377 0)
(0.1865 0.982455 0)
(0.115477 0.99331 0)
(0.0391181 0.999235 0)
(-0.0323644 0.999476 0)
(-0.0957214 0.995408 0)
(-0.155122 0.987895 0)
(-0.208429 0.978037 0)
(-0.254099 0.967178 0)
(-0.291165 0.956673 0)
(-0.319127 0.947712 0)
(-0.337791 0.941221 0)
(-0.347118 0.937821 0)
(-0.347118 0.937821 0)
(-0.337791 0.941221 0)
(-0.319127 0.947712 0)
(-0.291165 0.956673 0)
(-0.254099 0.967178 0)
(-0.208429 0.978037 0)
(-0.155122 0.987895 0)
(-0.0957214 0.995408 0)
(-0.0323644 0.999476 0)
(0.0323644 0.999476 0)
(0.0957214 0.995408 0)
(0.155122 0.987895 0)
(0.208429 0.978037 0)
(0.254099 0.967178 0)
(0.291165 0.956673 0)
(0.319127 0.947712 0)
(0.337791 0.941221 0)
(0.347118 0.937821 0)
(0.347118 0.937821 0)
(0.337791 0.941221 0)
(0.319127 0.947712 0)
(0.291165 0.956673 0)
(0.254099 0.967178 0)
(0.208429 0.978037 0)
(0.155122 0.987895 0)
(0.0957214 0.995408 0)
(0.0323644 0.999476 0)
(-0.0514554 0.998675 0)
(-0.151253 0.988495 0)
(-0.242411 0.970174 0)
(-0.321148 0.947029 0)
(-0.385706 0.922622 0)
(-0.435872 0.900009 0)
(-0.472297 0.88144 0)
(-0.495905 0.868377 0)
(-0.507491 0.861657 0)
(-0.507491 0.861657 0)
(-0.495905 0.868377 0)
(-0.472297 0.88144 0)
(-0.435872 0.900009 0)
(-0.385706 0.922622 0)
(-0.321148 0.947029 0)
(-0.242411 0.970174 0)
(-0.151253 0.988495 0)
(-0.0514554 0.998675 0)
(0.0514554 0.998675 0)
(0.151253 0.988495 0)
(0.242411 0.970174 0)
(0.321148 0.947029 0)
(0.385706 0.922622 0)
(0.435872 0.900009 0)
(0.472297 0.88144 0)
(0.495905 0.868377 0)
(0.507491 0.861657 0)
(0.507491 0.861657 0)
(0.495905 0.868377 0)
(0.472297 0.88144 0)
(0.435872 0.900009 0)
(0.385706 0.922622 0)
(0.321148 0.947029 0)
(0.242411 0.970174 0)
(0.151253 0.988495 0)
(0.0514554 0.998675 0)
(-0.050202 0.998739 0)
(-0.147633 0.989042 0)
(-0.236807 0.971557 0)
(-0.314065 0.949402 0)
(-0.377621 0.92596 0)
(-0.427164 0.904174 0)
(-0.463237 0.886235 0)
(-0.486665 0.873589 0)
(-0.498174 0.867077 0)
(-0.498174 0.867077 0)
(-0.486665 0.873589 0)
(-0.463237 0.886235 0)
(-0.427164 0.904174 0)
(-0.377621 0.92596 0)
(-0.314065 0.949402 0)
(-0.236807 0.971557 0)
(-0.147633 0.989042 0)
(-0.050202 0.998739 0)
(0.050202 0.998739 0)
(0.147633 0.989042 0)
(0.236807 0.971557 0)
(0.314065 0.949402 0)
(0.377621 0.92596 0)
(0.427164 0.904174 0)
(0.463237 0.886235 0)
(0.486665 0.873589 0)
(0.498174 0.867077 0)
(0.498174 0.867077 0)
(0.486665 0.873589 0)
(0.463237 0.886235 0)
(0.427164 0.904174 0)
(0.377621 0.92596 0)
(0.314065 0.949402 0)
(0.236807 0.971557 0)
(0.147633 0.989042 0)
(0.050202 0.998739 0)
(-0.0412065 0.999151 0)
(-0.121565 0.992583 0)
(-0.196102 0.980584 0)
(-0.261941 0.965084 0)
(-0.317313 0.948321 0)
(-0.361422 0.932402 0)
(-0.394149 0.919047 0)
(-0.415712 0.909496 0)
(-0.426399 0.904535 0)
(-0.426399 0.904535 0)
(-0.415712 0.909496 0)
(-0.394149 0.919047 0)
(-0.361422 0.932402 0)
(-0.317313 0.948321 0)
(-0.261941 0.965084 0)
(-0.196102 0.980584 0)
(-0.121565 0.992583 0)
(-0.0412065 0.999151 0)
(0.0412065 0.999151 0)
(0.121565 0.992583 0)
(0.196102 0.980584 0)
(0.261941 0.965084 0)
(0.317313 0.948321 0)
(0.361422 0.932402 0)
(0.394149 0.919047 0)
(0.415712 0.909496 0)
(0.426399 0.904535 0)
(0.426399 0.904535 0)
(0.415712 0.909496 0)
(0.394149 0.919047 0)
(0.361422 0.932402 0)
(0.317313 0.948321 0)
(0.261941 0.965084 0)
(0.196102 0.980584 0)
(0.121565 0.992583 0)
(0.0412065 0.999151 0)
(-0.0726356 0.997359 0)
(-0.211402 0.977399 0)
(-0.33302 0.94292 0)
(-0.432236 0.901761 0)
(-0.508734 0.860924 0)
(-0.564875 0.825177 0)
(-0.603762 0.797164 0)
(-0.628106 0.778127 0)
(-0.639806 0.768536 0)
(-0.639806 0.768536 0)
(-0.628106 0.778127 0)
(-0.603762 0.797164 0)
(-0.564875 0.825177 0)
(-0.508734 0.860924 0)
(-0.432236 0.901761 0)
(-0.33302 0.94292 0)
(-0.211402 0.977399 0)
(-0.0726356 0.997359 0)
(0.0726355 0.997359 0)
(0.211402 0.977399 0)
(0.33302 0.94292 0)
(0.432236 0.901761 0)
(0.508734 0.860924 0)
(0.564875 0.825177 0)
(0.603762 0.797164 0)
(0.628106 0.778127 0)
(0.639806 0.768536 0)
(0.639806 0.768536 0)
(0.628106 0.778127 0)
(0.603762 0.797164 0)
(0.564875 0.825177 0)
(0.508734 0.860924 0)
(0.432236 0.901761 0)
(0.33302 0.94292 0)
(0.211402 0.977399 0)
(0.0726355 0.997359 0)
(-0.0660366 0.997817 0)
(-0.192846 0.981229 0)
(-0.305569 0.95217 0)
(-0.399318 0.916813 0)
(-0.473065 0.881028 0)
(-0.528183 0.84913 0)
(-0.566927 0.823768 0)
(-0.591442 0.806347 0)
(-0.603296 0.797518 0)
(-0.603296 0.797518 0)
(-0.591442 0.806347 0)
(-0.566927 0.823768 0)
(-0.528183 0.84913 0)
(-0.473065 0.881028 0)
(-0.399318 0.916813 0)
(-0.305569 0.95217 0)
(-0.192846 0.981229 0)
(-0.0660366 0.997817 0)
(0.0660366 0.997817 0)
(0.192846 0.981229 0)
(0.305569 0.95217 0)
(0.399318 0.916813 0)
(0.473065 0.881028 0)
(0.528183 0.84913 0)
(0.566927 0.823768 0)
(0.591442 0.806347 0)
(0.603296 0.797518 0)
(0.603296 0.797518 0)
(0.591442 0.806347 0)
(0.566927 0.823768 0)
(0.528183 0.84913 0)
(0.473065 0.881028 0)
(0.399318 0.916813 0)
(0.305569 0.95217 0)
(0.192846 0.981229 0)
(0.0660366 0.997817 0)
(-0.0542453 0.998528 0)
(-0.159265 0.987236 0)
(-0.254735 0.967011 0)