/*--------------------------------*- C++ -*----------------------------------*\
| =========                 |                                                 |
| \\      /  F ield         | OpenFOAM: The Open Source CFD Toolbox           |
|  \\    /   O peration     | Version:  2312                                  |
|   \\  /    A nd           | Website:  www.openfoam.com                      |
|    \\/     M anipulation  |                                                 |
\*---------------------------------------------------------------------------*/
FoamFile
{
    version     2.0;
    format      ascii;
    arch        "LSB;label=32;scalar=64";
    class       volVectorField;
    location    "0";
    object      el;
}
// * * * * * * * * * * * * * * * * * * * * * * * * * * * * * * * * * * * * * //

dimensions      [0 0 0 0 0 0 0];

internalField   nonuniform List<vector> 
1620
(
(-0.0871565 0.996195 -6.78062e-20)
(-0.258819 0.965926 -1.23176e-19)
(-0.422619 0.906307 -9.20045e-19)
(-0.573578 0.819151 3.73192e-19)
(-0.707107 0.707107 2.11109e-19)
(-0.819151 0.573578 6.03301e-19)
(-0.906307 0.422619 2.89738e-19)
(-0.965926 0.258819 -1.52603e-19)
(-0.996195 0.0871565 -3.50184e-20)
(-0.996195 -0.0871565 -7.39945e-20)
(-0.965926 -0.258819 -5.03146e-19)
(-0.906307 -0.422619 -1.55738e-20)
(-0.819151 -0.573578 3.28962e-20)
(-0.707107 -0.707107 2.40169e-19)
(-0.573578 -0.819151 -4.81939e-20)
(-0.422619 -0.906307 -4.8193e-19)
(-0.258819 -0.965926 2.9402e-19)
(-0.0871565 -0.996195 -1.52506e-19)
(0.0871565 -0.996195 6.34844e-20)
(0.258819 -0.965926 -5.73573e-19)
(0.422619 -0.906307 4.67819e-19)
(0.573578 -0.819151 -1.30071e-18)
(0.707107 -0.707107 -4.53183e-19)
(0.819151 -0.573578 4.42816e-19)
(0.906307 -0.422619 3.02775e-19)
(0.965926 -0.258819 2.2083e-19)
(0.996195 -0.0871565 -3.81189e-20)
(0.996195 0.0871565 -1.76558e-19)
(0.965926 0.258819 -2.05782e-19)
(0.906307 0.422619 1.87316e-20)
(0.819151 0.573578 3.84598e-19)
(0.707107 0.707107 -1.01737e-18)
(0.573578 0.819151 -9.73194e-19)
(0.422619 0.906307 2.17119e-19)
(0.258819 0.965926 -3.9136e-19)
(0.0871565 0.996195 9.05356e-24)
(-0.0871557 0.996195 -2.3206e-19)
(-0.258819 0.965926 1.22451e-19)
(-0.422619 0.906307 -5.73562e-19)
(-0.573578 0.819151 -7.33551e-19)
(-0.707107 0.707107 3.06018e-19)
(-0.819151 0.573578 1.71104e-19)
(-0.906307 0.422619 -4.27126e-19)
(-0.965926 0.258819 -8.23187e-19)
(-0.996195 0.0871557 1.24406e-19)
(-0.996195 -0.0871557 -8.92383e-20)
(-0.965926 -0.258819 8.92438e-19)
(-0.906307 -0.422619 2.0451e-18)
(-0.819151 -0.573578 -8.34527e-19)
(-0.707107 -0.707107 1.54056e-19)
(-0.573578 -0.819151 8.66429e-19)
(-0.422619 -0.906307 -1.22454e-18)
(-0.258819 -0.965926 -5.45973e-19)
(-0.0871557 -0.996195 1.27856e-19)
(0.0871557 -0.996195 7.44297e-20)
(0.258819 -0.965926 -5.4131e-19)
(0.422619 -0.906307 -3.44722e-20)
(0.573578 -0.819151 -1.64621e-18)
(0.707107 -0.707107 1.44974e-18)
(0.819151 -0.573578 -1.74038e-18)
(0.906307 -0.422619 1.25731e-19)
(0.965926 -0.258819 -3.24251e-19)
(0.996195 -0.0871557 1.11551e-20)
(0.996195 0.0871557 -1.58245e-19)
(0.965926 0.258819 5.33107e-20)
(0.906307 0.422619 -1.93072e-19)
(0.819151 0.573578 7.11852e-19)
(0.707107 0.707107 -1.31941e-18)
(0.573578 0.819151 -1.60192e-19)
(0.422619 0.906307 -8.77644e-19)
(0.258819 0.965926 -5.7211e-20)
(0.0871557 0.996195 7.18449e-21)
(-0.0871553 0.996195 -9.69936e-21)
(-0.258817 0.965926 6.03297e-19)
(-0.422619 0.906307 3.66868e-19)
(-0.573577 0.819151 -6.98768e-19)
(-0.707107 0.707107 1.9966e-18)
(-0.819151 0.573577 3.64858e-19)
(-0.906307 0.422619 1.22444e-19)
(-0.965926 0.258817 -5.15042e-19)
(-0.996195 0.0871553 1.93716e-19)
(-0.996195 -0.0871553 2.2179e-19)
(-0.965926 -0.258817 -3.9256e-19)
(-0.906307 -0.422619 4.97138e-19)
(-0.819151 -0.573577 2.55724e-18)
(-0.707107 -0.707107 1.07418e-18)
(-0.573577 -0.819151 -1.66315e-18)
(-0.422619 -0.906307 9.75142e-19)
(-0.258817 -0.965926 -2.27825e-19)
(-0.0871553 -0.996195 2.81534e-19)
(0.0871553 -0.996195 -3.5901e-19)
(0.258817 -0.965926 -2.17474e-19)
(0.422619 -0.906307 3.15064e-19)
(0.573577 -0.819151 -2.18168e-18)
(0.707107 -0.707107 9.60553e-19)
(0.819151 -0.573577 1.64521e-18)
(0.906307 -0.422619 -1.50347e-18)
(0.965926 -0.258817 7.25128e-19)
(0.996195 -0.0871553 2.37375e-19)
(0.996195 0.0871553 -2.47277e-19)
(0.965926 0.258817 1.17361e-18)
(0.906307 0.422619 -4.5697e-20)
(0.819151 0.573577 -7.87141e-19)
(0.707107 0.707107 -2.48406e-18)
(0.573577 0.819151 7.00459e-19)
(0.422619 0.906307 1.78504e-19)
(0.258817 0.965926 4.60597e-19)
(0.0871553 0.996195 1.72405e-19)
(-0.0871578 0.996195 -3.05103e-19)
(-0.258819 0.965926 6.28693e-19)
(-0.422619 0.906308 -1.53463e-18)
(-0.573579 0.81915 -1.33411e-18)
(-0.707107 0.707107 1.8515e-18)
(-0.81915 0.573579 -9.39278e-19)
(-0.906308 0.422619 1.0098e-18)
(-0.965926 0.258819 4.68656e-20)
(-0.996195 0.0871578 -1.80674e-19)
(-0.996195 -0.0871578 6.71821e-20)
(-0.965926 -0.258819 -5.17188e-20)
(-0.906308 -0.422619 6.86589e-19)
(-0.81915 -0.573579 -1.38728e-18)
(-0.707107 -0.707107 1.33e-18)
(-0.573579 -0.81915 -2.23384e-18)
(-0.422619 -0.906308 -7.94971e-19)
(-0.258819 -0.965926 5.92297e-19)
(-0.0871578 -0.996195 -6.73247e-20)
(0.0871578 -0.996195 4.68749e-20)
(0.258819 -0.965926 -1.69956e-19)
(0.422619 -0.906308 2.47687e-18)
(0.573579 -0.81915 1.29299e-18)
(0.707107 -0.707107 -1.94609e-18)
(0.81915 -0.573579 4.90782e-19)
(0.906308 -0.422619 -7.62348e-19)
(0.965926 -0.258819 -1.90848e-19)
(0.996195 -0.0871578 -5.47849e-19)
(0.996195 0.0871578 3.21845e-19)
(0.965926 0.258819 -1.1876e-18)
(0.906308 0.422619 -2.86569e-19)
(0.81915 0.573579 -2.41386e-18)
(0.707107 0.707107 -1.36519e-18)
(0.573579 0.81915 -1.55358e-18)
(0.422619 0.906308 -6.50425e-19)
(0.258819 0.965926 -6.17338e-19)
(0.0871578 0.996195 2.05947e-20)
(-0.087157 0.996195 -2.3098e-20)
(-0.258819 0.965926 9.21602e-19)
(-0.422618 0.906308 1.40561e-18)
(-0.573577 0.819152 2.03323e-18)
(-0.707107 0.707107 -3.38987e-18)
(-0.819152 0.573577 -1.50218e-18)
(-0.906308 0.422618 -1.52619e-18)
(-0.965926 0.258819 -6.15035e-20)
(-0.996195 0.087157 7.49275e-20)
(-0.996195 -0.087157 -7.28723e-19)
(-0.965926 -0.258819 -9.36315e-19)
(-0.906308 -0.422618 2.63754e-18)
(-0.819152 -0.573577 -8.87585e-19)
(-0.707107 -0.707107 -2.41802e-19)
(-0.573577 -0.819152 2.18739e-19)
(-0.422618 -0.906308 1.91524e-18)
(-0.258819 -0.965926 8.70218e-19)
(-0.087157 -0.996195 -1.35502e-19)
(0.087157 -0.996195 3.72268e-20)
(0.258819 -0.965926 -1.90983e-18)
(0.422618 -0.906308 5.50276e-19)
(0.573577 -0.819152 -3.58272e-19)
(0.707107 -0.707107 1.49068e-19)
(0.819152 -0.573577 5.98765e-19)
(0.906308 -0.422618 -3.483e-18)
(0.965926 -0.258819 1.53504e-18)
(0.996195 -0.087157 1.26186e-19)
(0.996195 0.087157 -5.80525e-20)
(0.965926 0.258819 4.39725e-19)
(0.906308 0.422618 -7.57958e-19)
(0.819152 0.573577 -2.03145e-18)
(0.707107 0.707107 5.16938e-19)
(0.573577 0.819152 1.00087e-18)
(0.422618 0.906308 -2.75927e-18)
(0.258819 0.965926 1.75478e-18)
(0.087157 0.996195 -2.26223e-19)
(-0.0871568 0.996195 -1.97152e-19)
(-0.258819 0.965926 1.15585e-18)
(-0.422617 0.906308 -1.62619e-18)
(-0.573577 0.819152 -1.82052e-18)
(-0.707107 0.707107 7.68814e-19)
(-0.819152 0.573577 -2.01672e-18)
(-0.906308 0.422617 1.54393e-18)
(-0.965926 0.258819 4.06004e-20)
(-0.996195 0.0871568 5.46268e-19)
(-0.996195 -0.0871568 -4.93726e-19)
(-0.965926 -0.258819 9.23534e-19)
(-0.906308 -0.422617 1.50286e-18)
(-0.819152 -0.573577 -1.632e-18)
(-0.707107 -0.707107 -3.47676e-18)
(-0.573577 -0.819152 -4.9485e-18)
(-0.422617 -0.906308 -1.0157e-18)
(-0.258819 -0.965926 -1.2305e-18)
(-0.0871568 -0.996195 -2.01684e-19)
(0.0871568 -0.996195 4.92421e-19)
(0.258819 -0.965926 2.71779e-19)
(0.422617 -0.906308 -4.52058e-18)
(0.573577 -0.819152 -2.39366e-18)
(0.707107 -0.707107 8.19296e-19)
(0.819152 -0.573577 -9.7477e-19)
(0.906308 -0.422617 -5.20612e-19)
(0.965926 -0.258819 1.02354e-19)
(0.996195 -0.0871568 -3.66575e-19)
(0.996195 0.0871568 5.20775e-19)
(0.965926 0.258819 -1.00962e-18)
(0.906308 0.422617 6.97429e-19)
(0.819152 0.573577 2.34605e-18)
(0.707107 0.707107 -5.24545e-18)
(0.573577 0.819152 -1.27371e-18)
(0.422617 0.906308 -5.0381e-20)
(0.258819 0.965926 6.74997e-19)
(0.0871568 0.996195 -8.20331e-19)
(-0.0871559 0.996195 2.29093e-21)
(-0.258819 0.965926 4.86495e-20)
(-0.422619 0.906307 -5.92111e-21)
(-0.573577 0.819152 -1.49938e-19)
(-0.707107 0.707107 5.47525e-21)
(-0.819152 0.573577 -1.02934e-19)
(-0.906307 0.422619 -8.61608e-20)
(-0.965926 0.258819 -4.402e-20)
(-0.996195 0.0871559 1.58635e-20)
(-0.996195 -0.0871559 -1.38924e-20)
(-0.965926 -0.258819 3.28265e-20)
(-0.906307 -0.422619 -4.17623e-22)
(-0.819152 -0.573577 2.24865e-19)
(-0.707107 -0.707107 1.09699e-19)
(-0.573577 -0.819152 -6.40031e-20)
(-0.422619 -0.906307 5.59189e-20)
(-0.258819 -0.965926 -1.03681e-19)
(-0.0871559 -0.996195 1.42078e-20)
(0.0871559 -0.996195 5.39821e-21)
(0.258819 -0.965926 9.03181e-20)
(0.422619 -0.906307 9.9621e-20)
(0.573577 -0.819152 -1.77617e-19)
(0.707107 -0.707107 -1.89925e-20)
(0.819152 -0.573577 5.43032e-20)
(0.906307 -0.422619 -1.5381e-19)
(0.965926 -0.258819 -7.21452e-20)
(0.996195 -0.0871559 4.92124e-21)
(0.996195 0.0871559 -1.41104e-20)
(0.965926 0.258819 -4.34573e-20)
(0.906307 0.422619 2.2497e-20)
(0.819152 0.573577 -3.78241e-20)
(0.707107 0.707107 1.24597e-19)
(0.573577 0.819152 -3.27653e-20)
(0.422619 0.906307 2.87017e-19)
(0.258819 0.965926 -4.78886e-20)
(0.0871559 0.996195 3.06817e-21)
(-0.0871566 0.996195 -4.13485e-21)
(-0.258819 0.965926 2.36375e-20)
(-0.422619 0.906308 -2.12928e-21)
(-0.573575 0.819153 -5.02618e-20)
(-0.707107 0.707107 3.55053e-20)
(-0.819153 0.573575 1.32493e-20)
(-0.906308 0.422619 -1.57896e-20)
(-0.965926 0.258819 -1.64396e-20)
(-0.996195 0.0871566 -6.80508e-21)
(-0.996195 -0.0871566 1.9033e-21)
(-0.965926 -0.258819 1.83345e-20)
(-0.906308 -0.422619 -9.22378e-21)
(-0.819153 -0.573575 1.08523e-20)
(-0.707107 -0.707107 6.01969e-21)
(-0.573575 -0.819153 -3.88876e-20)
(-0.422619 -0.906308 -1.09977e-20)
(-0.258819 -0.965926 1.68635e-20)
(-0.0871566 -0.996195 2.31079e-21)
(0.0871566 -0.996195 6.34182e-21)
(0.258819 -0.965926 -1.04409e-20)
(0.422619 -0.906308 2.32454e-20)
(0.573575 -0.819153 4.55552e-20)
(0.707107 -0.707107 3.09763e-21)
(0.819153 -0.573575 2.91823e-20)
(0.906308 -0.422619 1.42174e-20)
(0.965926 -0.258819 7.37814e-22)
(0.996195 -0.0871566 -1.52003e-21)
(0.996195 0.0871566 -4.76656e-21)
(0.965926 0.258819 5.85669e-21)
(0.906308 0.422619 1.40753e-20)
(0.819153 0.573575 -4.96329e-20)
(0.707107 0.707107 3.76999e-20)
(0.573575 0.819153 -3.67658e-20)
(0.422619 0.906308 -2.55973e-20)
(0.258819 0.965926 -2.3408e-20)
(0.0871566 0.996195 6.09351e-21)
(-0.0871562 0.996195 4.34567e-21)
(-0.258819 0.965926 -2.72055e-19)
(-0.422618 0.906308 4.8818e-20)
(-0.573576 0.819152 -2.42723e-19)
(-0.707107 0.707107 -2.42375e-19)
(-0.819152 0.573576 4.60301e-19)
(-0.906308 0.422618 2.0826e-20)
(-0.965926 0.258819 1.64702e-19)
(-0.996195 0.0871562 -9.07742e-20)
(-0.996195 -0.0871562 5.51165e-20)
(-0.965926 -0.258819 -1.89494e-19)
(-0.906308 -0.422618 2.00517e-19)
(-0.819152 -0.573576 1.21913e-19)
(-0.707107 -0.707107 4.11576e-19)
(-0.573576 -0.819152 1.53981e-19)
(-0.422618 -0.906308 -5.45823e-20)
(-0.258819 -0.965926 1.17366e-19)
(-0.0871562 -0.996195 1.02864e-19)
(0.0871562 -0.996195 2.60392e-21)
(0.258819 -0.965926 3.75716e-20)
(0.422618 -0.906308 -4.49409e-20)
(0.573576 -0.819152 2.91358e-19)
(0.707107 -0.707107 -1.78103e-19)
(0.819152 -0.573576 8.61288e-20)
(0.906308 -0.422618 -4.18479e-19)
(0.965926 -0.258819 -3.81791e-20)
(0.996195 -0.0871562 -6.97644e-20)
(0.996195 0.0871562 3.31234e-20)
(0.965926 0.258819 1.2348e-19)
(0.906308 0.422618 -3.99371e-19)
(0.819152 0.573576 2.0604e-20)
(0.707107 0.707107 6.29731e-19)
(0.573576 0.819152 -2.81979e-19)
(0.422618 0.906308 6.8461e-19)
(0.258819 0.965926 2.14501e-19)
(0.0871562 0.996195 2.13722e-20)
(-0.0871546 0.996195 -3.85279e-19)
(-0.258818 0.965926 8.04967e-19)
(-0.42262 0.906307 1.68523e-18)
(-0.573577 0.819151 6.48975e-19)
(-0.707107 0.707107 1.0964e-18)
(-0.819151 0.573577 3.50041e-18)
(-0.906307 0.42262 -2.46285e-19)
(-0.965926 0.258818 -4.1316e-19)
(-0.996195 0.0871546 7.50179e-20)
(-0.996195 -0.0871546 1.73901e-20)
(-0.965926 -0.258818 1.23367e-18)
(-0.906307 -0.42262 3.5177e-19)
(-0.819151 -0.573577 2.37681e-18)
(-0.707107 -0.707107 -2.01616e-19)
(-0.573577 -0.819151 -3.76531e-19)
(-0.42262 -0.906307 -3.64822e-19)
(-0.258818 -0.965926 -1.21051e-18)
(-0.0871546 -0.996195 -1.33301e-19)
(0.0871546 -0.996195 -6.0029e-19)
(0.258818 -0.965926 -3.87867e-20)
(0.42262 -0.906307 2.54925e-19)
(0.573577 -0.819151 1.9345e-18)
(0.707107 -0.707107 -3.13315e-18)
(0.819151 -0.573577 2.76442e-18)
(0.906307 -0.42262 -2.3655e-18)
(0.965926 -0.258818 1.54154e-18)
(0.996195 -0.0871546 -2.59012e-19)
(0.996195 0.0871546 3.0759e-19)
(0.965926 0.258818 8.46061e-20)
(0.906307 0.42262 -1.11954e-18)
(0.819151 0.573577 4.51119e-18)
(0.707107 0.707107 -8.32326e-19)
(0.573577 0.819151 9.7517e-19)
(0.42262 0.906307 -1.90402e-18)
(0.258818 0.965926 8.70894e-19)
(0.0871546 0.996195 9.83003e-20)
(-0.0871555 0.996195 4.52871e-19)
(-0.258819 0.965926 1.90801e-18)
(-0.422619 0.906307 -2.47144e-19)
(-0.573577 0.819152 3.16952e-18)
(-0.707107 0.707107 4.61861e-18)
(-0.819152 0.573577 2.66862e-18)
(-0.906307 0.422619 1.00698e-18)
(-0.965926 0.258819 -3.72656e-19)
(-0.996195 0.0871555 -8.57681e-20)
(-0.996195 -0.0871555 2.12832e-19)
(-0.965926 -0.258819 5.29118e-19)
(-0.906307 -0.422619 2.97082e-18)
(-0.819152 -0.573577 -1.433e-18)
(-0.707107 -0.707107 1.23909e-18)
(-0.573577 -0.819152 4.38285e-18)
(-0.422619 -0.906307 -2.54174e-18)
(-0.258819 -0.965926 -5.02567e-19)
(-0.0871555 -0.996195 1.36288e-19)
(0.0871555 -0.996195 -3.41373e-19)
(0.258819 -0.965926 1.40033e-18)
(0.422619 -0.906307 6.12651e-19)
(0.573577 -0.819152 -1.56678e-18)
(0.707107 -0.707107 -3.73259e-18)
(0.819152 -0.573577 1.50917e-18)
(0.906307 -0.422619 -2.87424e-18)
(0.965926 -0.258819 1.51053e-18)
(0.996195 -0.0871555 -7.97396e-19)
(0.996195 0.0871555 -2.16741e-19)
(0.965926 0.258819 -7.62764e-19)
(0.906307 0.422619 3.46051e-18)
(0.819152 0.573577 -7.38817e-19)
(0.707107 0.707107 -2.85429e-18)
(0.573577 0.819152 -3.01578e-18)
(0.422619 0.906307 -3.93098e-18)
(0.258819 0.965926 -2.729e-19)
(0.0871555 0.996195 -1.33082e-19)
(-0.0871553 0.996195 -1.94468e-19)
(-0.258819 0.965926 8.8274e-19)
(-0.422618 0.906308 -2.89907e-18)
(-0.573577 0.819152 -3.74221e-18)
(-0.707107 0.707107 1.53981e-18)
(-0.819152 0.573577 9.67043e-19)
(-0.906308 0.422618 4.73526e-18)
(-0.965926 0.258819 9.09654e-19)
(-0.996195 0.0871553 1.32505e-19)
(-0.996195 -0.0871553 -4.13794e-19)
(-0.965926 -0.258819 2.04455e-18)
(-0.906308 -0.422618 -1.15125e-18)
(-0.819152 -0.573577 3.54134e-18)
(-0.707107 -0.707107 -7.34179e-19)
(-0.573577 -0.819152 -3.20927e-18)
(-0.422618 -0.906308 2.68633e-18)
(-0.258819 -0.965926 1.89856e-18)
(-0.0871553 -0.996195 3.03469e-21)
(0.0871553 -0.996195 2.79727e-19)
(0.258819 -0.965926 -4.31316e-19)
(0.422618 -0.906308 -1.13136e-18)
(0.573577 -0.819152 3.24321e-18)
(0.707107 -0.707107 2.481e-19)
(0.819152 -0.573577 -1.40517e-18)
(0.906308 -0.422618 -7.5625e-19)
(0.965926 -0.258819 -1.72056e-18)
(0.996195 -0.0871553 4.3915e-19)
(0.996195 0.0871553 2.70499e-19)
(0.965926 0.258819 -7.12616e-19)
(0.906308 0.422618 -1.17792e-18)
(0.819152 0.573577 1.55372e-18)
(0.707107 0.707107 -1.51858e-18)
(0.573577 0.819152 -4.98383e-19)
(0.422618 0.906308 -6.91722e-19)
(0.258819 0.965926 -6.00579e-19)
(0.0871553 0.996195 1.40655e-19)
(-0.0871547 0.996195 1.12036e-18)
(-0.258818 0.965926 -1.72096e-19)
(-0.422619 0.906308 -5.64123e-18)
(-0.573577 0.819151 2.89885e-19)
(-0.707107 0.707107 4.36124e-19)
(-0.819151 0.573577 2.34368e-18)
(-0.906308 0.422619 -1.53113e-18)
(-0.965926 0.258818 -2.32702e-18)
(-0.996195 0.0871547 1.6409e-18)
(-0.996195 -0.0871547 -9.64908e-19)
(-0.965926 -0.258818 1.27552e-18)
(-0.906308 -0.422619 1.72869e-18)
(-0.819151 -0.573577 -4.6905e-18)
(-0.707107 -0.707107 -3.5751e-19)
(-0.573577 -0.819151 2.04119e-18)
(-0.422619 -0.906308 1.16282e-18)
(-0.258818 -0.965926 -1.96994e-18)
(-0.0871547 -0.996195 -4.11883e-22)
(0.0871547 -0.996195 1.11449e-18)
(0.258818 -0.965926 -1.35218e-18)
(0.422619 -0.906308 -8.61513e-18)
(0.573577 -0.819151 1.05741e-18)
(0.707107 -0.707107 -5.67226e-18)
(0.819151 -0.573577 1.15579e-18)
(0.906308 -0.422619 -5.24176e-19)
(0.965926 -0.258818 -1.38624e-19)
(0.996195 -0.0871547 6.08982e-19)
(0.996195 0.0871547 4.4155e-19)
(0.965926 0.258818 -1.29053e-18)
(0.906308 0.422619 -2.67419e-18)
(0.819151 0.573577 8.18347e-18)
(0.707107 0.707107 -9.29e-18)
(0.573577 0.819151 5.83052e-18)
(0.422619 0.906308 -4.71274e-18)
(0.258818 0.965926 -7.48415e-19)
(0.0871547 0.996195 -2.64864e-19)
(-0.0871553 0.996195 -6.81001e-19)
(-0.258819 0.965926 -2.59684e-18)
(-0.422618 0.906308 -1.33843e-18)
(-0.573578 0.819151 4.22669e-18)
(-0.707107 0.707107 -2.69478e-18)
(-0.819151 0.573578 8.71256e-19)
(-0.906308 0.422618 -3.97364e-18)
(-0.965926 0.258819 2.23779e-18)
(-0.996195 0.0871553 1.96897e-18)
(-0.996195 -0.0871553 1.35603e-19)
(-0.965926 -0.258819 4.05219e-18)
(-0.906308 -0.422618 -3.66534e-18)
(-0.819151 -0.573578 9.74583e-19)
(-0.707107 -0.707107 -3.17227e-19)
(-0.573578 -0.819151 2.51167e-18)
(-0.422618 -0.906308 8.89893e-18)
(-0.258819 -0.965926 -3.29807e-19)
(-0.0871553 -0.996195 -1.0138e-20)
(0.0871553 -0.996195 -1.82681e-18)
(0.258819 -0.965926 1.46709e-18)
(0.422618 -0.906308 1.63043e-18)
(0.573578 -0.819151 7.16331e-18)
(0.707107 -0.707107 -4.25363e-18)
(0.819151 -0.573578 -3.91265e-18)
(0.906308 -0.422618 3.58997e-18)
(0.965926 -0.258819 3.42265e-19)
(0.996195 -0.0871553 9.91216e-19)
(0.996195 0.0871553 1.33651e-19)
(0.965926 0.258819 -1.36412e-18)
(0.906308 0.422618 -7.70687e-19)
(0.819151 0.573578 -1.12128e-18)
(0.707107 0.707107 -7.58134e-19)
(0.573578 0.819151 -1.3184e-18)
(0.422618 0.906308 -2.31305e-18)
(0.258819 0.965926 -4.56467e-18)
(0.0871553 0.996195 1.35637e-18)
(-0.0871548 0.996195 -2.47037e-19)
(-0.258819 0.965926 2.84412e-18)
(-0.422619 0.906307 4.95029e-18)
(-0.573577 0.819152 -3.44573e-20)
(-0.707107 0.707107 -6.46536e-19)
(-0.819152 0.573577 8.47946e-20)
(-0.906307 0.422619 8.57134e-20)
(-0.965926 0.258819 -3.50254e-18)
(-0.996195 0.0871548 -3.12436e-19)
(-0.996195 -0.0871548 -7.2757e-19)
(-0.965926 -0.258819 -3.82807e-19)
(-0.906307 -0.422619 -2.04726e-18)
(-0.819152 -0.573577 -2.01917e-18)
(-0.707107 -0.707107 -3.11468e-18)
(-0.573577 -0.819152 -3.00564e-18)
(-0.422619 -0.906307 -2.4214e-18)
(-0.258819 -0.965926 -4.48004e-18)
(-0.0871548 -0.996195 -1.36902e-18)
(0.0871548 -0.996195 -8.48437e-19)
(0.258819 -0.965926 -2.04158e-18)
(0.422619 -0.906307 1.27378e-18)
(0.573577 -0.819152 3.67032e-18)
(0.707107 -0.707107 -1.44605e-18)
(0.819152 -0.573577 -8.14387e-19)
(0.906307 -0.422619 -3.10732e-20)
(0.965926 -0.258819 1.68239e-18)
(0.996195 -0.0871548 -5.28988e-19)
(0.996195 0.0871548 2.19965e-19)
(0.965926 0.258819 -6.66061e-19)
(0.906307 0.422619 -4.86406e-18)
(0.819152 0.573577 -2.70633e-18)
(0.707107 0.707107 -1.1996e-18)
(0.573577 0.819152 1.1232e-18)
(0.422619 0.906307 -2.70856e-18)
(0.258819 0.965926 -1.61154e-18)
(0.0871548 0.996195 -3.89047e-20)
(-0.0871557 0.996195 1.25458e-18)
(-0.258819 0.965926 3.7281e-18)
(-0.422618 0.906308 6.05363e-18)
(-0.573576 0.819153 2.94382e-21)
(-0.707107 0.707107 6.85114e-19)
(-0.819153 0.573576 1.28559e-17)
(-0.906308 0.422618 2.23707e-18)
(-0.965926 0.258819 -4.20061e-18)
(-0.996195 0.0871557 -1.8658e-18)
(-0.996195 -0.0871557 1.19966e-18)
(-0.965926 -0.258819 1.77484e-18)
(-0.906308 -0.422618 -7.86461e-18)
(-0.819153 -0.573576 1.06449e-17)
(-0.707107 -0.707107 -2.13467e-18)
(-0.573576 -0.819153 -2.5958e-18)
(-0.422618 -0.906308 -7.81287e-18)
(-0.258819 -0.965926 -5.69712e-19)
(-0.0871557 -0.996195 8.53788e-19)
(0.0871557 -0.996195 -1.62378e-18)
(0.258819 -0.965926 7.81436e-18)
(0.422618 -0.906308 -7.82e-18)
(0.573576 -0.819153 -4.05172e-18)
(0.707107 -0.707107 -6.57937e-18)
(0.819153 -0.573576 -1.46225e-18)
(0.906308 -0.422618 7.91287e-18)
(0.965926 -0.258819 -2.2013e-18)
(0.996195 -0.0871557 2.21742e-18)
(0.996195 0.0871557 3.622e-19)
(0.965926 0.258819 3.65158e-18)
(0.906308 0.422618 4.31384e-18)
(0.819153 0.573576 3.84019e-18)
(0.707107 0.707107 -5.68125e-18)
(0.573576 0.819153 6.59429e-18)
(0.422618 0.906308 -8.26753e-18)
(0.258819 0.965926 -1.12346e-18)
(0.0871557 0.996195 1.20203e-18)
(-0.0871553 0.996195 7.16245e-19)
(-0.25882 0.965926 -4.76888e-18)
(-0.422619 0.906308 4.95766e-18)
(-0.573576 0.819152 3.24461e-18)
(-0.707107 0.707107 -1.90864e-19)
(-0.819152 0.573576 1.38025e-18)
(-0.906308 0.422619 8.0915e-18)
(-0.965926 0.25882 3.40069e-19)
(-0.996195 0.0871553 -1.77941e-18)
(-0.996195 -0.0871553 7.45058e-19)
(-0.965926 -0.25882 2.59737e-18)
(-0.906308 -0.422619 -3.56897e-18)
(-0.819152 -0.573576 4.69823e-18)
(-0.707107 -0.707107 8.74829e-19)
(-0.573576 -0.819152 7.34529e-18)
(-0.422619 -0.906308 -4.81065e-18)
(-0.25882 -0.965926 -3.54104e-18)
(-0.0871553 -0.996195 1.69804e-18)
(0.0871553 -0.996195 4.23845e-19)
(0.25882 -0.965926 1.60118e-18)
(0.422619 -0.906308 3.7074e-18)
(0.573576 -0.819152 3.39812e-18)
(0.707107 -0.707107 -8.7229e-18)
(0.819152 -0.573576 3.65642e-18)
(0.906308 -0.422619 -3.16576e-18)
(0.965926 -0.25882 -3.68339e-18)
(0.996195 -0.0871553 -1.61937e-18)
(0.996195 0.0871553 7.65842e-19)
(0.965926 0.25882 3.11971e-18)
(0.906308 0.422619 6.06241e-18)
(0.819152 0.573576 -3.74117e-18)
(0.707107 0.707107 2.0767e-18)
(0.573576 0.819152 8.30782e-18)
(0.422619 0.906308 4.05612e-18)
(0.25882 0.965926 3.36628e-18)
(0.0871553 0.996195 1.50048e-18)
(-0.0871553 0.996195 -1.48376e-18)
(-0.25882 0.965926 1.83145e-18)
(-0.42262 0.906307 3.13531e-18)
(-0.573577 0.819152 1.0203e-18)
(-0.707107 0.707107 -3.23453e-18)
(-0.819152 0.573577 -5.29536e-18)
(-0.906307 0.42262 4.88941e-18)
(-0.965926 0.25882 -3.00892e-18)
(-0.996195 0.0871553 6.53214e-19)
(-0.996195 -0.0871553 -2.13732e-18)
(-0.965926 -0.25882 2.92252e-18)
(-0.906307 -0.42262 3.18303e-18)
(-0.819152 -0.573577 4.04959e-18)
(-0.707107 -0.707107 4.1723e-18)
(-0.573577 -0.819152 5.79991e-18)
(-0.42262 -0.906307 -5.03314e-18)
(-0.25882 -0.965926 -6.24658e-18)
(-0.0871553 -0.996195 -2.912e-20)
(0.0871553 -0.996195 -3.80108e-19)
(0.25882 -0.965926 -2.21827e-18)
(0.42262 -0.906307 1.47504e-18)
(0.573577 -0.819152 -1.21335e-18)
(0.707107 -0.707107 -1.3425e-18)
(0.819152 -0.573577 2.19741e-18)
(0.906307 -0.42262 5.53612e-19)
(0.965926 -0.25882 -2.96736e-18)
(0.996195 -0.0871553 -1.42825e-18)
(0.996195 0.0871553 -7.07641e-19)
(0.965926 0.25882 2.75314e-18)
(0.906307 0.42262 1.54002e-18)
(0.819152 0.573577 -5.48931e-18)
(0.707107 0.707107 -1.16751e-17)
(0.573577 0.819152 -9.07984e-19)
(0.42262 0.906307 1.81082e-18)
(0.25882 0.965926 -2.94186e-18)
(0.0871553 0.996195 -1.42754e-19)
(-0.0871559 0.996195 -4.85623e-19)
(-0.25882 0.965926 -3.26863e-19)
(-0.422618 0.906308 1.74953e-18)
(-0.573575 0.819153 -4.05078e-18)
(-0.707107 0.707107 2.97797e-18)
(-0.819153 0.573575 7.46222e-18)
(-0.906308 0.422618 -1.23001e-18)
(-0.965926 0.25882 3.85328e-18)
(-0.996195 0.0871559 1.77328e-18)
(-0.996195 -0.0871559 -1.11563e-18)
(-0.965926 -0.25882 -5.4642e-19)
(-0.906308 -0.422618 8.31598e-18)
(-0.819153 -0.573575 3.07527e-18)
(-0.707107 -0.707107 4.27567e-18)
(-0.573575 -0.819153 -2.01136e-17)
(-0.422618 -0.906308 -5.77454e-18)
(-0.25882 -0.965926 2.93057e-18)
(-0.0871559 -0.996195 5.37445e-19)
(0.0871559 -0.996195 -6.48288e-19)
(0.25882 -0.965926 -1.64285e-18)
(0.422618 -0.906308 1.01001e-17)
(0.573575 -0.819153 -9.04863e-18)
(0.707107 -0.707107 -2.09574e-18)
(0.819153 -0.573575 -2.6027e-21)
(0.906308 -0.422618 7.98996e-18)
(0.965926 -0.25882 4.97082e-19)
(0.996195 -0.0871559 1.2848e-20)
(0.996195 0.0871559 5.19458e-19)
(0.965926 0.25882 -3.64467e-21)
(0.906308 0.422618 -1.1399e-17)
(0.819153 0.573575 1.20578e-17)
(0.707107 0.707107 -6.76134e-18)
(0.573575 0.819153 -1.19811e-17)
(0.422618 0.906308 -5.31244e-18)
(0.25882 0.965926 -3.8621e-18)
(0.0871559 0.996195 5.77002e-19)
(-0.0871555 0.996195 3.10335e-18)
(-0.25882 0.965925 1.94113e-18)
(-0.422619 0.906308 -1.15115e-17)
(-0.573576 0.819152 -5.47175e-18)
(-0.707107 0.707107 8.9615e-18)
(-0.819152 0.573576 2.77325e-18)
(-0.906308 0.422619 7.9635e-18)
(-0.965925 0.25882 2.39487e-18)
(-0.996195 0.0871555 -1.6375e-18)
(-0.996195 -0.0871555 6.27152e-19)
(-0.965925 -0.25882 2.09083e-18)
(-0.906308 -0.422619 1.63384e-17)
(-0.819152 -0.573576 4.95807e-18)
(-0.707107 -0.707107 -1.65012e-17)
(-0.573576 -0.819152 -1.61144e-17)
(-0.422619 -0.906308 5.96501e-18)
(-0.25882 -0.965925 -1.5568e-19)
(-0.0871555 -0.996195 -4.862e-19)
(0.0871555 -0.996195 -9.27207e-20)
(0.25882 -0.965925 -3.23427e-18)
(0.422619 -0.906308 1.28877e-19)
(0.573576 -0.819152 -1.44259e-18)
(0.707107 -0.707107 -2.99403e-18)
(0.819152 -0.573576 3.13485e-18)
(0.906308 -0.422619 -1.02583e-18)
(0.965925 -0.25882 1.27756e-18)
(0.996195 -0.0871555 3.54635e-18)
(0.996195 0.0871555 2.46362e-18)
(0.965925 0.25882 -3.95302e-18)
(0.906308 0.422619 2.17263e-18)
(0.819152 0.573576 7.65795e-18)
(0.707107 0.707107 2.96963e-18)
(0.573576 0.819152 -5.20442e-18)
(0.422619 0.906308 1.86428e-18)
(0.25882 0.965925 1.78716e-18)
(0.0871555 0.996195 -3.02509e-18)
(-0.0871568 0.996195 1.09066e-18)
(-0.25882 0.965926 -7.82403e-18)
(-0.422619 0.906308 5.96516e-18)
(-0.573576 0.819152 -3.33385e-18)
(-0.707107 0.707107 7.16217e-18)
(-0.819152 0.573576 -5.91338e-18)
(-0.906308 0.422619 1.19329e-17)
(-0.965926 0.25882 1.88535e-18)
(-0.996195 0.0871568 -8.15927e-19)
(-0.996195 -0.0871568 -9.34184e-19)
(-0.965926 -0.25882 6.52939e-18)
(-0.906308 -0.422619 -5.76804e-18)
(-0.819152 -0.573576 -1.51801e-17)
(-0.707107 -0.707107 -2.22269e-17)
(-0.573576 -0.819152 -5.03037e-18)
(-0.422619 -0.906308 -2.07104e-18)
(-0.25882 -0.965926 -2.51796e-18)
(-0.0871568 -0.996195 -1.72993e-18)
(0.0871568 -0.996195 8.23784e-19)
(0.25882 -0.965926 -8.5094e-18)
(0.422619 -0.906308 9.00197e-18)
(0.573576 -0.819152 -8.56614e-18)
(0.707107 -0.707107 -1.26137e-17)
(0.819152 -0.573576 -1.0848e-17)
(0.906308 -0.422619 8.55065e-18)
(0.965926 -0.25882 4.88737e-19)
(0.996195 -0.0871568 -1.86793e-18)
(0.996195 0.0871568 1.00896e-18)
(0.965926 0.25882 -1.15662e-17)
(0.906308 0.422619 2.38398e-19)
(0.819152 0.573576 -2.07164e-17)
(0.707107 0.707107 -1.79323e-17)
(0.573576 0.819152 -6.09884e-18)
(0.422619 0.906308 -2.22935e-18)
(0.25882 0.965926 -3.24505e-18)
(0.0871568 0.996195 6.79471e-19)
(-0.0871571 0.996195 9.68952e-19)
(-0.25882 0.965926 2.11009e-18)
(-0.422617 0.906308 -6.31532e-18)
(-0.573576 0.819153 1.71304e-17)
(-0.707107 0.707107 1.78005e-17)
(-0.819153 0.573576 -9.42733e-18)
(-0.906308 0.422617 -5.42497e-18)
(-0.965926 0.25882 3.17488e-18)
(-0.996195 0.0871571 -6.97692e-19)
(-0.996195 -0.0871571 -2.77131e-18)
(-0.965926 -0.25882 9.71621e-18)
(-0.906308 -0.422617 4.84641e-19)
(-0.819153 -0.573576 4.61371e-18)
(-0.707107 -0.707107 -8.04512e-19)
(-0.573576 -0.819153 1.44503e-17)
(-0.422617 -0.906308 1.67329e-17)
(-0.25882 -0.965926 1.64916e-18)
(-0.0871571 -0.996195 -1.26724e-18)
(0.0871571 -0.996195 -2.22446e-18)
(0.25882 -0.965926 1.49836e-18)
(0.422617 -0.906308 8.46291e-19)
(0.573576 -0.819153 1.11528e-17)
(0.707107 -0.707107 1.89986e-17)
(0.819153 -0.573576 7.12457e-18)
(0.906308 -0.422617 -6.75534e-19)
(0.965926 -0.25882 -1.31409e-17)
(0.996195 -0.0871571 -4.77806e-18)
(0.996195 0.0871571 2.32939e-19)
(0.965926 0.25882 -1.64666e-17)
(0.906308 0.422617 -8.0504e-19)
(0.819153 0.573576 -1.56284e-17)
(0.707107 0.707107 2.8732e-18)
(0.573576 0.819153 2.7485e-17)
(0.422617 0.906308 -1.65103e-17)
(0.25882 0.965926 8.76205e-18)
(0.0871571 0.996195 1.38852e-18)
(-0.0871571 0.996195 5.88292e-18)
(-0.25882 0.965926 1.39043e-18)
(-0.422617 0.906308 -8.37755e-18)
(-0.573577 0.819152 3.07825e-18)
(-0.707107 0.707107 2.73349e-17)
(-0.819152 0.573577 1.28618e-17)
(-0.906308 0.422618 -8.62085e-18)
(-0.965926 0.25882 2.38487e-18)
(-0.996195 0.0871571 -2.22274e-18)
(-0.996195 -0.0871571 -1.34158e-18)
(-0.965926 -0.25882 1.02604e-17)
(-0.906308 -0.422618 6.89902e-18)
(-0.819152 -0.573577 -7.94518e-18)
(-0.707107 -0.707107 -2.50728e-17)
(-0.573577 -0.819152 9.10293e-18)
(-0.422618 -0.906308 -1.18692e-17)
(-0.25882 -0.965926 1.43293e-18)
(-0.0871571 -0.996195 -1.05539e-18)
(0.0871571 -0.996195 2.4634e-18)
(0.25882 -0.965926 -9.01241e-18)
(0.422618 -0.906308 -1.32147e-17)
(0.573577 -0.819152 -9.88825e-18)
(0.707107 -0.707107 -2.22131e-17)
(0.819152 -0.573577 1.43354e-17)
(0.906308 -0.422618 -7.52242e-18)
(0.965926 -0.25882 -3.28173e-18)
(0.996195 -0.0871571 2.85669e-18)
(0.996195 0.0871571 4.41497e-18)
(0.965926 0.25882 8.19706e-18)
(0.906308 0.422617 5.02793e-18)
(0.819152 0.573577 -9.77989e-18)
(0.707107 0.707107 -2.23005e-17)
(0.573577 0.819152 1.16319e-18)
(0.422617 0.906308 3.39932e-18)
(0.25882 0.965926 -5.25859e-18)
(0.0871571 0.996195 -3.76878e-18)
(-0.0871562 0.996195 -1.30834e-18)
(-0.25882 0.965926 -5.38933e-18)
(-0.422617 0.906308 2.57969e-18)
(-0.573576 0.819152 9.68456e-18)
(-0.707107 0.707107 -9.10125e-18)
(-0.819152 0.573576 -6.17646e-18)
(-0.906308 0.422617 -1.21876e-17)
(-0.965926 0.25882 4.32857e-18)
(-0.996195 0.0871562 2.74594e-19)
(-0.996195 -0.0871562 4.31964e-18)
(-0.965926 -0.25882 5.83439e-18)
(-0.906308 -0.422617 5.28712e-18)
(-0.819152 -0.573576 -7.16412e-18)
(-0.707107 -0.707107 1.44766e-17)
(-0.573576 -0.819152 -1.43701e-18)
(-0.422617 -0.906308 -2.86388e-18)
(-0.25882 -0.965926 -8.34876e-19)
(-0.0871562 -0.996195 -1.36662e-18)
(0.0871562 -0.996195 -6.2576e-19)
(0.25882 -0.965926 3.54345e-18)
(0.422617 -0.906308 7.44022e-20)
(0.573576 -0.819152 8.3341e-18)
(0.707107 -0.707107 4.93368e-20)
(0.819152 -0.573576 -6.11876e-18)
(0.906308 -0.422617 1.2415e-17)
(0.965926 -0.25882 3.36e-18)
(0.996195 -0.0871562 1.55191e-18)
(0.996195 0.0871562 2.70087e-18)
(0.965926 0.25882 -1.83524e-19)
(0.906308 0.422617 9.4122e-18)
(0.819152 0.573576 1.44259e-17)
(0.707107 0.707107 1.94387e-18)
(0.573576 0.819152 -8.87261e-18)
(0.422617 0.906308 2.91118e-18)
(0.25882 0.965926 2.91354e-18)
(0.0871562 0.996195 4.51556e-18)
(-0.0871582 0.996194 -2.25413e-18)
(-0.258819 0.965926 -2.32644e-18)
(-0.422618 0.906308 -3.80019e-18)
(-0.573577 0.819152 -1.15207e-17)
(-0.707107 0.707107 1.35248e-17)