/*--------------------------------*- C++ -*----------------------------------*\
| =========                 |                                                 |
| \\      /  F ield         | OpenFOAM: The Open Source CFD Toolbox           |
|  \\    /   O peration     | Version:  2312                                  |
|   \\  /    A nd           | Website:  www.openfoam.com                      |
|    \\/     M anipulation  |                                                 |
\*---------------------------------------------------------------------------*/
FoamFile
{
    version     2.0;
    format      ascii;
    arch        "LSB;label=32;scalar=64";
    class       surfaceVectorField;
    location    "0";
    object      etf;
}
// * * * * * * * * * * * * * * * * * * * * * * * * * * * * * * * * * * * * * //

dimensions      [0 0 0 0 0 0 0];

internalField   nonuniform List<vector> 
4212
(
(0.984704 0.17363 0.014487)
(0.999895 5.78439e-10 0.0144873)
(0.996065 0.0871447 0.0161246)
(0.996025 0.0871423 0.0184271)
(0.939594 0.341985 0.0144871)
(0.9658 0.258785 0.0161241)
(0.965762 0.258775 0.0184264)
(0.865934 0.499948 0.0144871)
(0.90619 0.422564 0.0161245)
(0.906154 0.422547 0.018427)
(0.765964 0.642721 0.0144868)
(0.819045 0.573503 0.0161243)
(0.819012 0.573481 0.0184264)
(0.642721 0.765964 0.0144868)
(0.707015 0.707015 0.0161247)
(0.706987 0.706987 0.0184275)
(0.499948 0.865934 0.0144871)
(0.573503 0.819045 0.0161243)
(0.573481 0.819012 0.0184264)
(0.341985 0.939594 0.0144871)
(0.422564 0.90619 0.0161245)
(0.422547 0.906154 0.018427)
(0.17363 0.984704 0.014487)
(0.258785 0.9658 0.0161241)
(0.258775 0.965762 0.0184264)
(-5.19888e-11 0.999895 0.0144873)
(0.0871447 0.996065 0.0161246)
(0.0871423 0.996025 0.0184271)
(-0.17363 0.984704 0.014487)
(-0.0871447 0.996065 0.0161246)
(-0.0871423 0.996025 0.0184271)
(-0.341985 0.939594 0.0144871)
(-0.258785 0.9658 0.0161241)
(-0.258775 0.965762 0.0184264)
(-0.499948 0.865934 0.0144871)
(-0.422564 0.90619 0.0161245)
(-0.422547 0.906154 0.018427)
(-0.642721 0.765964 0.0144868)
(-0.573503 0.819045 0.0161243)
(-0.573481 0.819012 0.0184264)
(-0.765964 0.642721 0.0144868)
(-0.707015 0.707015 0.0161247)
(-0.706987 0.706987 0.0184275)
(-0.865934 0.499948 0.0144871)
(-0.819045 0.573503 0.0161243)
(-0.819012 0.573481 0.0184264)
(-0.939594 0.341985 0.0144871)
(-0.90619 0.422564 0.0161245)
(-0.906154 0.422547 0.018427)
(-0.984704 0.17363 0.014487)
(-0.9658 0.258785 0.0161241)
(-0.965762 0.258775 0.0184264)
(-0.999895 5.57318e-15 0.0144873)
(-0.996065 0.0871447 0.0161246)
(-0.996025 0.0871423 0.0184271)
(-0.984704 -0.17363 0.014487)
(-0.996065 -0.0871447 0.0161246)
(-0.996025 -0.0871423 0.0184271)
(-0.939594 -0.341985 0.0144871)
(-0.9658 -0.258785 0.0161241)
(-0.965762 -0.258775 0.0184264)
(-0.865934 -0.499948 0.0144871)
(-0.90619 -0.422564 0.0161245)
(-0.906154 -0.422547 0.018427)
(-0.765964 -0.642721 0.0144868)
(-0.819045 -0.573503 0.0161243)
(-0.819012 -0.573481 0.0184264)
(-0.642721 -0.765964 0.0144868)
(-0.707015 -0.707015 0.0161247)
(-0.706987 -0.706987 0.0184275)
(-0.499948 -0.865934 0.0144871)
(-0.573503 -0.819045 0.0161243)
(-0.573481 -0.819012 0.0184264)
(-0.341985 -0.939594 0.0144871)
(-0.422564 -0.90619 0.0161245)
(-0.422547 -0.906154 0.018427)
(-0.17363 -0.984704 0.014487)
(-0.258785 -0.9658 0.0161241)
(-0.258775 -0.965762 0.0184264)
(-1.0077e-11 -0.999895 0.0144873)
(-0.0871447 -0.996065 0.0161246)
(-0.0871423 -0.996025 0.0184271)
(0.17363 -0.984704 0.014487)
(0.0871447 -0.996065 0.0161246)
(0.0871423 -0.996025 0.0184271)
(0.341985 -0.939594 0.0144871)
(0.258785 -0.9658 0.0161241)
(0.258775 -0.965762 0.0184264)
(0.499948 -0.865934 0.0144871)
(0.422564 -0.90619 0.0161245)
(0.422547 -0.906154 0.018427)
(0.642721 -0.765964 0.0144868)
(0.573503 -0.819045 0.0161243)
(0.573481 -0.819012 0.0184264)
(0.765964 -0.642721 0.0144868)
(0.707015 -0.707015 0.0161247)
(0.706987 -0.706987 0.0184275)
(0.865934 -0.499948 0.0144871)
(0.819045 -0.573503 0.0161243)
(0.819012 -0.573481 0.0184264)
(0.939594 -0.341985 0.0144871)
(0.90619 -0.422564 0.0161245)
(0.906154 -0.422547 0.018427)
(0.984704 -0.17363 0.014487)
(0.9658 -0.258785 0.0161241)
(0.965762 -0.258775 0.0184264)
(0.996065 -0.0871447 0.0161246)
(0.996025 -0.0871423 0.0184271)
(0.984652 0.173621 0.017772)
(0.999842 -1.97058e-09 0.0177722)
(0.995894 0.0871291 0.0245755)
(0.995806 0.0871223 0.0279201)
(0.939544 0.341967 0.0177719)
(0.965634 0.25874 0.0245751)
(0.965549 0.258718 0.0279198)
(0.865888 0.499922 0.017772)
(0.906034 0.422491 0.0245753)
(0.905954 0.422454 0.0279197)
(0.765923 0.642687 0.0177724)
(0.818904 0.573404 0.0245753)
(0.818832 0.573353 0.02792)
(0.642687 0.765923 0.0177724)
(0.706893 0.706893 0.0245758)
(0.706831 0.706831 0.027921)
(0.499922 0.865888 0.017772)
(0.573404 0.818904 0.0245753)
(0.573353 0.818832 0.02792)
(0.341967 0.939544 0.0177719)
(0.422491 0.906034 0.0245753)
(0.422454 0.905954 0.0279197)
(0.173621 0.984652 0.017772)
(0.25874 0.965634 0.0245751)
(0.258718 0.965549 0.0279198)
(-1.26875e-10 0.999842 0.0177722)
(0.0871291 0.995894 0.0245755)
(0.0871223 0.995806 0.0279201)
(-0.173621 0.984652 0.017772)
(-0.0871291 0.995894 0.0245755)
(-0.0871223 0.995806 0.0279201)
(-0.341967 0.939544 0.0177719)
(-0.25874 0.965634 0.0245751)
(-0.258718 0.965549 0.0279198)
(-0.499922 0.865888 0.017772)
(-0.422491 0.906034 0.0245753)
(-0.422454 0.905954 0.0279197)
(-0.642687 0.765923 0.0177724)
(-0.573404 0.818904 0.0245753)
(-0.573353 0.818832 0.02792)
(-0.765923 0.642687 0.0177724)
(-0.706893 0.706893 0.0245758)
(-0.706831 0.706831 0.027921)
(-0.865888 0.499922 0.017772)
(-0.818904 0.573404 0.0245753)
(-0.818832 0.573353 0.02792)
(-0.939544 0.341967 0.0177719)
(-0.906034 0.422491 0.0245753)
(-0.905954 0.422454 0.0279197)
(-0.984652 0.173621 0.017772)
(-0.965634 0.25874 0.0245751)
(-0.965549 0.258718 0.0279198)
(-0.999842 1.4966e-14 0.0177722)
(-0.995894 0.0871291 0.0245755)
(-0.995806 0.0871223 0.0279201)
(-0.984652 -0.173621 0.017772)
(-0.995894 -0.0871291 0.0245755)
(-0.995806 -0.0871223 0.0279201)
(-0.939544 -0.341967 0.0177719)
(-0.965634 -0.25874 0.0245751)
(-0.965549 -0.258718 0.0279198)
(-0.865888 -0.499922 0.017772)
(-0.906034 -0.422491 0.0245753)
(-0.905954 -0.422454 0.0279197)
(-0.765923 -0.642687 0.0177724)
(-0.818904 -0.573404 0.0245753)
(-0.818832 -0.573353 0.02792)
(-0.642687 -0.765923 0.0177724)
(-0.706893 -0.706893 0.0245758)
(-0.706831 -0.706831 0.027921)
(-0.499922 -0.865888 0.017772)
(-0.573404 -0.818904 0.0245753)
(-0.573353 -0.818832 0.02792)
(-0.341967 -0.939544 0.0177719)
(-0.422491 -0.906034 0.0245753)
(-0.422454 -0.905954 0.0279197)
(-0.173621 -0.984652 0.017772)
(-0.25874 -0.965634 0.0245751)
(-0.258718 -0.965549 0.0279198)
(-3.54317e-11 -0.999842 0.0177722)
(-0.0871291 -0.995894 0.0245755)
(-0.0871223 -0.995806 0.0279201)
(0.173621 -0.984652 0.017772)
(0.0871291 -0.995894 0.0245755)
(0.0871223 -0.995806 0.0279201)
(0.341967 -0.939544 0.0177719)
(0.25874 -0.965634 0.0245751)
(0.258718 -0.965549 0.0279198)
(0.499922 -0.865888 0.017772)
(0.422491 -0.906034 0.0245753)
(0.422454 -0.905954 0.0279197)
(0.642687 -0.765923 0.0177724)
(0.573404 -0.818904 0.0245753)
(0.573353 -0.818832 0.02792)
(0.765923 -0.642687 0.0177724)
(0.706893 -0.706893 0.0245758)
(0.706831 -0.706831 0.027921)
(0.865888 -0.499922 0.017772)
(0.818904 -0.573404 0.0245753)
(0.818832 -0.573353 0.02792)
(0.939544 -0.341967 0.0177719)
(0.906034 -0.422491 0.0245753)
(0.905954 -0.422454 0.0279197)
(0.984652 -0.173621 0.017772)
(0.965634 -0.25874 0.0245751)
(0.965549 -0.258718 0.0279198)
(0.995894 -0.0871291 0.0245755)
(0.995806 -0.0871223 0.0279201)
(0.984357 0.173567 0.0302713)
(0.999542 -3.59187e-10 0.0302715)
(0.995344 0.0870817 0.0413119)
(0.939262 0.341863 0.0302712)
(0.965102 0.258597 0.0413113)
(0.865628 0.499772 0.0302713)
(0.905534 0.422257 0.0413117)
(0.765693 0.642494 0.0302714)
(0.818452 0.573087 0.0413121)
(0.642494 0.765693 0.0302714)
(0.706503 0.706503 0.0413124)
(0.499772 0.865628 0.0302713)
(0.573087 0.818452 0.0413121)
(0.341863 0.939262 0.0302712)
(0.422257 0.905534 0.0413117)
(0.173567 0.984357 0.0302713)
(0.258597 0.965102 0.0413113)
(-7.45044e-11 0.999542 0.0302715)
(0.0870817 0.995344 0.0413119)
(-0.173567 0.984357 0.0302713)
(-0.0870817 0.995344 0.0413119)
(-0.341863 0.939262 0.0302712)
(-0.258597 0.965102 0.0413113)
(-0.499772 0.865628 0.0302713)
(-0.422257 0.905534 0.0413117)
(-0.642494 0.765693 0.0302714)
(-0.573087 0.818452 0.0413121)
(-0.765693 0.642494 0.0302714)
(-0.706503 0.706503 0.0413124)
(-0.865628 0.499772 0.0302713)
(-0.818452 0.573087 0.0413121)
(-0.939262 0.341863 0.0302712)
(-0.905534 0.422257 0.0413117)
(-0.984357 0.173567 0.0302713)
(-0.965102 0.258597 0.0413113)
(-0.999542 2.41002e-15 0.0302715)
(-0.995344 0.0870817 0.0413119)
(-0.984357 -0.173567 0.0302713)
(-0.995344 -0.0870817 0.0413119)
(-0.939262 -0.341863 0.0302712)
(-0.965102 -0.258597 0.0413113)
(-0.865628 -0.499772 0.0302713)
(-0.905534 -0.422257 0.0413117)
(-0.765693 -0.642494 0.0302714)
(-0.818452 -0.573087 0.0413121)
(-0.642494 -0.765693 0.0302714)
(-0.706503 -0.706503 0.0413124)
(-0.499772 -0.865628 0.0302713)
(-0.573087 -0.818452 0.0413121)
(-0.341863 -0.939262 0.0302712)
(-0.422257 -0.905534 0.0413117)
(-0.173567 -0.984357 0.0302713)
(-0.258597 -0.965102 0.0413113)
(-3.88622e-11 -0.999542 0.0302715)
(-0.0870817 -0.995344 0.0413119)
(0.173567 -0.984357 0.0302713)
(0.0870817 -0.995344 0.0413119)
(0.341863 -0.939262 0.0302712)
(0.258597 -0.965102 0.0413113)
(0.499772 -0.865628 0.0302713)
(0.422257 -0.905534 0.0413117)
(0.642494 -0.765693 0.0302714)
(0.573087 -0.818452 0.0413121)
(0.765693 -0.642494 0.0302714)
(0.706503 -0.706503 0.0413124)
(0.865628 -0.499772 0.0302713)
(0.818452 -0.573087 0.0413121)
(0.939262 -0.341863 0.0302712)
(0.905534 -0.422257 0.0413117)
(0.984357 -0.173567 0.0302713)
(0.965102 -0.258597 0.0413113)
(0.995344 -0.0870817 0.0413119)
(0.984547 0.173603 0.0230213)
(0.999735 1.04392e-09 0.0230217)
(0.99571 0.087115 0.0311774)
(0.996113 0.0871497 0.0127745)
(0.939443 0.34193 0.0230211)
(0.965456 0.258693 0.031177)
(0.965847 0.258798 0.0127756)
(0.865795 0.499868 0.0230211)
(0.905867 0.422413 0.0311768)
(0.906234 0.422584 0.0127752)
(0.765841 0.642618 0.0230219)
(0.818753 0.573299 0.0311769)
(0.819084 0.573531 0.012775)
(0.642618 0.765841 0.0230219)
(0.706763 0.706763 0.0311787)
(0.707049 0.707049 0.0127764)
(0.499868 0.865795 0.0230211)
(0.573299 0.818753 0.0311769)
(0.573531 0.819084 0.012775)
(0.34193 0.939443 0.0230211)
(0.422413 0.905867 0.0311768)
(0.422584 0.906234 0.0127752)
(0.173603 0.984547 0.0230213)
(0.258693 0.965456 0.031177)
(0.258798 0.965847 0.0127756)
(-6.96937e-11 0.999735 0.0230217)
(0.087115 0.99571 0.0311774)
(0.0871497 0.996113 0.0127745)
(-0.173603 0.984547 0.0230213)
(-0.087115 0.99571 0.0311774)
(-0.0871497 0.996113 0.0127745)
(-0.34193 0.939443 0.0230211)
(-0.258693 0.965456 0.031177)
(-0.258798 0.965847 0.0127756)
(-0.499868 0.865795 0.0230211)
(-0.422413 0.905867 0.0311768)
(-0.422584 0.906234 0.0127752)
(-0.642618 0.765841 0.0230219)
(-0.573299 0.818753 0.0311769)
(-0.573531 0.819084 0.012775)
(-0.765841 0.642618 0.0230219)
(-0.706763 0.706763 0.0311787)
(-0.707049 0.707049 0.0127764)
(-0.865795 0.499868 0.0230211)
(-0.818753 0.573299 0.0311769)
(-0.819084 0.573531 0.012775)
(-0.939443 0.34193 0.0230211)
(-0.905867 0.422413 0.0311768)
(-0.906234 0.422584 0.0127752)
(-0.984547 0.173603 0.0230213)
(-0.965456 0.258693 0.031177)
(-0.965847 0.258798 0.0127756)
(-0.999735 5.92975e-15 0.0230217)
(-0.99571 0.087115 0.0311774)
(-0.996113 0.0871497 0.0127745)
(-0.984547 -0.173603 0.0230213)
(-0.99571 -0.087115 0.0311774)
(-0.996113 -0.0871497 0.0127745)
(-0.939443 -0.34193 0.0230211)
(-0.965456 -0.258693 0.031177)
(-0.965847 -0.258798 0.0127756)
(-0.865795 -0.499868 0.0230211)
(-0.905867 -0.422413 0.0311768)
(-0.906234 -0.422584 0.0127752)
(-0.765841 -0.642618 0.0230219)
(-0.818753 -0.573299 0.0311769)
(-0.819084 -0.573531 0.012775)
(-0.642618 -0.765841 0.0230219)
(-0.706763 -0.706763 0.0311787)
(-0.707049 -0.707049 0.0127764)
(-0.499868 -0.865795 0.0230211)
(-0.573299 -0.818753 0.0311769)
(-0.573531 -0.819084 0.012775)
(-0.34193 -0.939443 0.0230211)
(-0.422413 -0.905867 0.0311768)
(-0.422584 -0.906234 0.0127752)
(-0.173603 -0.984547 0.0230213)
(-0.258693 -0.965456 0.031177)
(-0.258798 -0.965847 0.0127756)
(-1.98446e-11 -0.999735 0.0230217)
(-0.087115 -0.99571 0.0311774)
(-0.0871497 -0.996113 0.0127745)
(0.173603 -0.984547 0.0230213)
(0.087115 -0.99571 0.0311774)
(0.0871497 -0.996113 0.0127745)
(0.34193 -0.939443 0.0230211)
(0.258693 -0.965456 0.031177)
(0.258798 -0.965847 0.0127756)
(0.499868 -0.865795 0.0230211)
(0.422413 -0.905867 0.0311768)
(0.422584 -0.906234 0.0127752)
(0.642618 -0.765841 0.0230219)
(0.573299 -0.818753 0.0311769)
(0.573531 -0.819084 0.012775)
(0.765841 -0.642618 0.0230219)
(0.706763 -0.706763 0.0311787)
(0.707049 -0.707049 0.0127764)
(0.865795 -0.499868 0.0230211)
(0.818753 -0.573299 0.0311769)
(0.819084 -0.573531 0.012775)
(0.939443 -0.34193 0.0230211)
(0.905867 -0.422413 0.0311768)
(0.906234 -0.422584 0.0127752)
(0.984547 -0.173603 0.0230213)
(0.965456 -0.258693 0.031177)
(0.965847 -0.258798 0.0127756)
(0.99571 -0.087115 0.0311774)
(0.996113 -0.0871497 0.0127745)
(0.984098 0.173524 0.0379454)
(0.99928 2.84908e-10 0.0379455)
(0.995155 0.0870659 0.0456757)
(0.996013 0.0871409 0.0191194)
(0.939016 0.341774 0.037945)
(0.964918 0.258549 0.0456752)
(0.965749 0.258772 0.0191197)
(0.865402 0.49964 0.037945)
(0.905362 0.422177 0.0456753)
(0.906142 0.422541 0.0191192)
(0.765493 0.642325 0.0379459)
(0.818297 0.572978 0.0456759)
(0.819003 0.573471 0.0191196)
(0.642325 0.765493 0.0379459)
(0.706369 0.706369 0.0456767)
(0.706978 0.706978 0.0191203)
(0.49964 0.865402 0.037945)
(0.572978 0.818297 0.0456759)
(0.573471 0.819003 0.0191196)
(0.341774 0.939016 0.037945)
(0.422177 0.905362 0.0456753)
(0.422541 0.906142 0.0191192)
(0.173524 0.984098 0.0379454)
(0.258549 0.964918 0.0456752)
(0.258772 0.965749 0.0191197)
(-1.34373e-10 0.99928 0.0379455)
(0.0870659 0.995155 0.0456757)
(0.0871409 0.996013 0.0191194)
(-0.173524 0.984098 0.0379454)
(-0.0870659 0.995155 0.0456757)
(-0.0871409 0.996013 0.0191194)
(-0.341774 0.939016 0.037945)
(-0.258549 0.964918 0.0456752)
(-0.258772 0.965749 0.0191197)
(-0.49964 0.865402 0.037945)
(-0.422177 0.905362 0.0456753)
(-0.422541 0.906142 0.0191192)
(-0.642325 0.765493 0.0379459)
(-0.572978 0.818297 0.0456759)
(-0.573471 0.819003 0.0191196)
(-0.765493 0.642325 0.0379459)
(-0.706369 0.706369 0.0456767)
(-0.706978 0.706978 0.0191203)
(-0.865402 0.49964 0.037945)
(-0.818297 0.572978 0.0456759)
(-0.819003 0.573471 0.0191196)
(-0.939016 0.341774 0.037945)
(-0.905362 0.422177 0.0456753)
(-0.906142 0.422541 0.0191192)
(-0.984098 0.173524 0.0379454)
(-0.964918 0.258549 0.0456752)
(-0.965749 0.258772 0.0191197)
(-0.99928 3.11599e-14 0.0379455)
(-0.995155 0.0870659 0.0456757)
(-0.996013 0.0871409 0.0191194)
(-0.984098 -0.173524 0.0379454)
(-0.995155 -0.0870659 0.0456757)
(-0.996013 -0.0871409 0.0191194)
(-0.939016 -0.341774 0.037945)
(-0.964918 -0.258549 0.0456752)
(-0.965749 -0.258772 0.0191197)
(-0.865402 -0.49964 0.037945)
(-0.905362 -0.422177 0.0456753)
(-0.906142 -0.422541 0.0191192)
(-0.765493 -0.642325 0.0379459)
(-0.818297 -0.572978 0.0456759)
(-0.819003 -0.573471 0.0191196)
(-0.642325 -0.765493 0.0379459)
(-0.706369 -0.706369 0.0456767)
(-0.706978 -0.706978 0.0191203)
(-0.49964 -0.865402 0.037945)
(-0.572978 -0.818297 0.0456759)
(-0.573471 -0.819003 0.0191196)
(-0.341774 -0.939016 0.037945)
(-0.422177 -0.905362 0.0456753)
(-0.422541 -0.906142 0.0191192)
(-0.173524 -0.984098 0.0379454)
(-0.258549 -0.964918 0.0456752)
(-0.258772 -0.965749 0.0191197)
(-5.88438e-11 -0.99928 0.0379455)
(-0.0870659 -0.995155 0.0456757)
(-0.0871409 -0.996013 0.0191194)
(0.173524 -0.984098 0.0379454)
(0.0870659 -0.995155 0.0456757)
(0.0871409 -0.996013 0.0191194)
(0.341774 -0.939016 0.037945)
(0.258549 -0.964918 0.0456752)
(0.258772 -0.965749 0.0191197)
(0.49964 -0.865402 0.037945)
(0.422177 -0.905362 0.0456753)
(0.422541 -0.906142 0.0191192)
(0.642325 -0.765493 0.0379459)
(0.572978 -0.818297 0.0456759)
(0.573471 -0.819003 0.0191196)
(0.765493 -0.642325 0.0379459)
(0.706369 -0.706369 0.0456767)
(0.706978 -0.706978 0.0191203)
(0.865402 -0.49964 0.037945)
(0.818297 -0.572978 0.0456759)
(0.819003 -0.573471 0.0191196)
(0.939016 -0.341774 0.037945)
(0.905362 -0.422177 0.0456753)
(0.906142 -0.422541 0.0191192)
(0.984098 -0.173524 0.0379454)
(0.964918 -0.258549 0.0456752)
(0.965749 -0.258772 0.0191197)
(0.995155 -0.0870659 0.0456757)
(0.996013 -0.0871409 0.0191194)
(0.983461 0.173411 0.0522851)
(0.998632 3.94271e-10 0.0522855)
(0.995785 0.0871206 0.0286824)
(0.938408 0.341551 0.052285)
(0.965528 0.258712 0.0286825)
(0.864841 0.499316 0.0522856)
(0.905935 0.422443 0.0286821)
(0.764996 0.641909 0.0522861)
(0.818815 0.57334 0.0286822)
(0.641909 0.764996 0.0522861)
(0.706816 0.706816 0.0286824)
(0.499316 0.864841 0.0522856)
(0.57334 0.818815 0.0286822)
(0.341551 0.938408 0.052285)
(0.422443 0.905935 0.0286821)
(0.173411 0.983461 0.0522851)
(0.258712 0.965528 0.0286825)
(-7.39679e-11 0.998632 0.0522855)
(0.0871206 0.995785 0.0286824)
(-0.173411 0.983461 0.0522851)
(-0.0871206 0.995785 0.0286824)
(-0.341551 0.938408 0.052285)
(-0.258712 0.965528 0.0286825)
(-0.499316 0.864841 0.0522856)
(-0.422443 0.905935 0.0286821)
(-0.641909 0.764996 0.0522861)
(-0.57334 0.818815 0.0286822)
(-0.764996 0.641909 0.0522861)
(-0.706816 0.706816 0.0286824)
(-0.864841 0.499316 0.0522856)
(-0.818815 0.57334 0.0286822)
(-0.938408 0.341551 0.052285)
(-0.905935 0.422443 0.0286821)
(-0.983461 0.173411 0.0522851)
(-0.965528 0.258712 0.0286825)
(-0.998632 2.79124e-14 0.0522855)
(-0.995785 0.0871206 0.0286824)
(-0.983461 -0.173411 0.0522851)
(-0.995785 -0.0871206 0.0286824)
(-0.938408 -0.341551 0.052285)
(-0.965528 -0.258712 0.0286825)
(-0.864841 -0.499316 0.0522856)
(-0.905935 -0.422443 0.0286821)
(-0.764996 -0.641909 0.0522861)
(-0.818815 -0.57334 0.0286822)
(-0.641909 -0.764996 0.0522861)
(-0.706816 -0.706816 0.0286824)
(-0.499316 -0.864841 0.0522856)
(-0.57334 -0.818815 0.0286822)
(-0.341551 -0.938408 0.052285)
(-0.422443 -0.905935 0.0286821)
(-0.173411 -0.983461 0.0522851)
(-0.258712 -0.965528 0.0286825)
(-6.1406e-11 -0.998632 0.0522855)
(-0.0871206 -0.995785 0.0286824)
(0.173411 -0.983461 0.0522851)
(0.0871206 -0.995785 0.0286824)
(0.341551 -0.938408 0.052285)
(0.258712 -0.965528 0.0286825)
(0.499316 -0.864841 0.0522856)
(0.422443 -0.905935 0.0286821)
(0.641909 -0.764996 0.0522861)
(0.57334 -0.818815 0.0286822)
(0.764996 -0.641909 0.0522861)
(0.706816 -0.706816 0.0286824)
(0.864841 -0.499316 0.0522856)
(0.818815 -0.57334 0.0286822)
(0.938408 -0.341551 0.052285)
(0.905935 -0.422443 0.0286821)
(0.983461 -0.173411 0.0522851)
(0.965528 -0.258712 0.0286825)
(0.995785 -0.0871206 0.0286824)
(0.984805 0.173648 0.00256292)
(0.999997 8.35967e-10 0.0025615)
(0.996194 0.0871562 0.00141608)
(0.995994 0.0871377 -0.0200618)
(0.939689 0.34202 0.00256373)
(0.965925 0.258819 0.00141787)
(0.965732 0.258766 -0.0200599)
(0.866022 0.499999 0.0025633)
(0.906307 0.422618 0.00141696)
(0.906125 0.422534 -0.0200609)
(0.766042 0.642786 0.00256377)
(0.819152 0.573575 0.00141738)
(0.818987 0.573462 -0.0200599)
(0.642786 0.766042 0.00256377)
(0.707106 0.707106 0.00141759)
(0.706964 0.706964 -0.0200613)
(0.499999 0.866022 0.0025633)
(0.573575 0.819152 0.00141738)
(0.573462 0.818987 -0.0200599)
(0.34202 0.939689 0.00256373)
(0.422618 0.906307 0.00141696)
(0.422534 0.906125 -0.0200609)
(0.173648 0.984805 0.00256292)
(0.258819 0.965925 0.00141787)
(0.258766 0.965732 -0.0200599)
(-7.07168e-11 0.999997 0.0025615)
(0.0871562 0.996194 0.00141608)
(0.0871377 0.995994 -0.0200618)
(-0.173648 0.984805 0.00256292)
(-0.0871562 0.996194 0.00141608)
(-0.0871377 0.995994 -0.0200618)
(-0.34202 0.939689 0.00256373)
(-0.258819 0.965925 0.00141787)
(-0.258766 0.965732 -0.0200599)
(-0.499999 0.866022 0.0025633)
(-0.422618 0.906307 0.00141696)
(-0.422534 0.906125 -0.0200609)
(-0.642786 0.766042 0.00256377)
(-0.573575 0.819152 0.00141738)
(-0.573462 0.818987 -0.0200599)
(-0.766042 0.642786 0.00256377)
(-0.707106 0.707106 0.00141759)
(-0.706964 0.706964 -0.0200613)
(-0.866022 0.499999 0.0025633)
(-0.819152 0.573575 0.00141738)
(-0.818987 0.573462 -0.0200599)
(-0.939689 0.34202 0.00256373)
(-0.906307 0.422618 0.00141696)
(-0.906125 0.422534 -0.0200609)
(-0.984805 0.173648 0.00256292)
(-0.965925 0.258819 0.00141787)
(-0.965732 0.258766 -0.0200599)
(-0.999997 5.71285e-14 0.0025615)
(-0.996194 0.0871562 0.00141608)
(-0.995994 0.0871377 -0.0200618)
(-0.984805 -0.173648 0.00256292)
(-0.996194 -0.0871562 0.00141608)
(-0.995994 -0.0871377 -0.0200618)
(-0.939689 -0.34202 0.00256373)
(-0.965925 -0.258819 0.00141787)
(-0.965732 -0.258766 -0.0200599)
(-0.866022 -0.499999 0.0025633)
(-0.906307 -0.422618 0.00141696)
(-0.906125 -0.422534 -0.0200609)
(-0.766042 -0.642786 0.00256377)
(-0.819152 -0.573575 0.00141738)
(-0.818987 -0.573462 -0.0200599)
(-0.642786 -0.766042 0.00256377)
(-0.707106 -0.707106 0.00141759)
(-0.706964 -0.706964 -0.0200613)
(-0.499999 -0.866022 0.0025633)
(-0.573575 -0.819152 0.00141738)
(-0.573462 -0.818987 -0.0200599)
(-0.34202 -0.939689 0.00256373)
(-0.422618 -0.906307 0.00141696)
(-0.422534 -0.906125 -0.0200609)
(-0.173648 -0.984805 0.00256292)
(-0.258819 -0.965925 0.00141787)
(-0.258766 -0.965732 -0.0200599)
(-2.72442e-11 -0.999997 0.0025615)
(-0.0871562 -0.996194 0.00141608)
(-0.0871377 -0.995994 -0.0200618)
(0.173648 -0.984805 0.00256292)
(0.0871562 -0.996194 0.00141608)
(0.0871377 -0.995994 -0.0200618)
(0.34202 -0.939689 0.00256373)
(0.258819 -0.965925 0.00141787)
(0.258766 -0.965732 -0.0200599)
(0.499999 -0.866022 0.0025633)
(0.422618 -0.906307 0.00141696)
(0.422534 -0.906125 -0.0200609)
(0.642786 -0.766042 0.00256377)
(0.573575 -0.819152 0.00141738)
(0.573462 -0.818987 -0.0200599)
(0.766042 -0.642786 0.00256377)
(0.707106 -0.707106 0.00141759)
(0.706964 -0.706964 -0.0200613)
(0.866022 -0.499999 0.0025633)
(0.819152 -0.573575 0.00141738)
(0.818987 -0.573462 -0.0200599)
(0.939689 -0.34202 0.00256373)
(0.906307 -0.422618 0.00141696)
(0.906125 -0.422534 -0.0200609)
(0.984805 -0.173648 0.00256292)
(0.965925 -0.258819 0.00141787)
(0.965732 -0.258766 -0.0200599)
(0.996194 -0.0871562 0.00141608)
(0.995994 -0.0871377 -0.0200618)
(0.984808 0.173649 0.000511204)
(1 -9.64224e-10 0.000510718)
(0.996189 0.0871559 0.00345122)
(0.995939 0.0871337 -0.0226465)
(0.939692 0.34202 0.000511349)
(0.96592 0.258818 0.00345215)
(0.965678 0.258753 -0.0226455)
(0.866026 0.5 0.000511245)
(0.906302 0.422616 0.00345117)
(0.906075 0.42251 -0.022646)
(0.766045 0.642787 0.000511439)
(0.819148 0.573572 0.00345107)
(0.818942 0.573429 -0.0226457)
(0.642787 0.766045 0.000511439)
(0.707103 0.707103 0.00345107)
(0.706925 0.706925 -0.0226466)
(0.5 0.866026 0.000511245)
(0.573572 0.819148 0.00345107)
(0.573429 0.818942 -0.0226457)
(0.34202 0.939692 0.000511349)
(0.422616 0.906302 0.00345117)
(0.42251 0.906075 -0.022646)
(0.173649 0.984808 0.000511205)
(0.258818 0.96592 0.00345215)
(0.258753 0.965678 -0.0226455)
(-1.35809e-10 1 0.000510719)
(0.0871559 0.996189 0.00345122)
(0.0871337 0.995939 -0.0226465)
(-0.173649 0.984808 0.000511205)
(-0.0871559 0.996189 0.00345122)
(-0.0871337 0.995939 -0.0226465)
(-0.34202 0.939692 0.000511349)
(-0.258818 0.96592 0.00345215)
(-0.258753 0.965678 -0.0226455)
(-0.5 0.866026 0.000511245)
(-0.422616 0.906302 0.00345117)
(-0.42251 0.906075 -0.022646)
(-0.642787 0.766045 0.000511439)
(-0.573572 0.819148 0.00345107)
(-0.573429 0.818942 -0.0226457)
(-0.766045 0.642787 0.000511439)
(-0.707103 0.707103 0.00345107)
(-0.706925 0.706925 -0.0226466)
(-0.866026 0.5 0.000511245)
(-0.819148 0.573572 0.00345107)
(-0.818942 0.573429 -0.0226457)
(-0.939692 0.34202 0.000511349)
(-0.906302 0.422616 0.00345117)
(-0.906075 0.42251 -0.022646)
(-0.984808 0.173649 0.000511205)
(-0.96592 0.258818 0.00345215)
(-0.965678 0.258753 -0.0226455)
(-1 1.49574e-13 0.000510719)
(-0.996189 0.0871559 0.00345122)
(-0.995939 0.0871337 -0.0226465)
(-0.984808 -0.173649 0.000511205)
(-0.996189 -0.0871559 0.00345122)
(-0.995939 -0.0871337 -0.0226465)
(-0.939692 -0.34202 0.000511349)
(-0.96592 -0.258818 0.00345215)
(-0.965678 -0.258753 -0.0226455)
(-0.866026 -0.5 0.000511245)
(-0.906302 -0.422616 0.00345117)
(-0.906075 -0.42251 -0.022646)
(-0.766045 -0.642787 0.000511439)
(-0.819148 -0.573572 0.00345107)
(-0.818942 -0.573429 -0.0226457)
(-0.642787 -0.766045 0.000511439)
(-0.707103 -0.707103 0.00345107)
(-0.706925 -0.706925 -0.0226466)
(-0.5 -0.866026 0.000511245)
(-0.573572 -0.819148 0.00345107)
(-0.573429 -0.818942 -0.0226457)
(-0.34202 -0.939692 0.000511349)
(-0.422616 -0.906302 0.00345117)
(-0.42251 -0.906075 -0.022646)
(-0.173649 -0.984808 0.000511205)
(-0.258818 -0.96592 0.00345215)
(-0.258753 -0.965678 -0.0226455)
(-8.07666e-11 -1 0.000510719)
(-0.0871559 -0.996189 0.00345122)
(-0.0871337 -0.995939 -0.0226465)
(0.173649 -0.984808 0.000511205)
(0.0871559 -0.996189 0.00345122)
(0.0871337 -0.995939 -0.0226465)
(0.34202 -0.939692 0.000511349)
(0.258818 -0.96592 0.00345215)
(0.258753 -0.965678 -0.0226455)
(0.5 -0.866026 0.000511245)
(0.422616 -0.906302 0.00345117)
(0.42251 -0.906075 -0.022646)
(0.642787 -0.766045 0.000511439)
(0.573572 -0.819148 0.00345107)
(0.573429 -0.818942 -0.0226457)
(0.766045 -0.642787 0.000511439)
(0.707103 -0.707103 0.00345107)
(0.706925 -0.706925 -0.0226466)
(0.866026 -0.5 0.000511245)
(0.819148 -0.573572 0.00345107)
(0.818942 -0.573429 -0.0226457)
(0.939692 -0.34202 0.000511348)
(0.906302 -0.422616 0.00345117)
(0.906075 -0.42251 -0.022646)
(0.984808 -0.173649 0.000511204)
(0.96592 -0.258818 0.00345215)
(0.965678 -0.258753 -0.0226455)
(0.996189 -0.0871559 0.00345122)
(0.995939 -0.0871337 -0.0226465)
(0.984791 0.173646 0.00583387)
(0.999983 5.03375e-11 0.00583343)
(0.996042 0.0871424 -0.0174796)
(0.939677 0.342014 0.0058337)
(0.965778 0.25878 -0.0174789)
(0.866011 0.499991 0.00583281)
(0.906169 0.422554 -0.0174798)
(0.766032 0.642776 0.00583256)
(0.819027 0.573489 -0.0174799)
(0.642776 0.766032 0.00583256)
(0.706999 0.706999 -0.01748)
(0.499991 0.866011 0.00583281)
(0.573489 0.819027 -0.0174799)
(0.342014 0.939677 0.0058337)
(0.422554 0.906169 -0.0174798)
(0.173646 0.984791 0.00583387)
(0.25878 0.965778 -0.0174789)
(-7.32134e-11 0.999983 0.00583343)
(0.0871424 0.996042 -0.0174796)
(-0.173646 0.984791 0.00583387)
(-0.0871424 0.996042 -0.0174796)
(-0.342014 0.939677 0.0058337)
(-0.25878 0.965778 -0.0174789)
(-0.499991 0.866011 0.00583281)
(-0.422554 0.906169 -0.0174798)
(-0.642776 0.766032 0.00583256)
(-0.573489 0.819027 -0.0174799)
(-0.766032 0.642776 0.00583256)
(-0.706999 0.706999 -0.01748)
(-0.866011 0.499991 0.00583281)
(-0.819027 0.573489 -0.0174799)
(-0.939677 0.342014 0.0058337)
(-0.906169 0.422554 -0.0174798)
(-0.984791 0.173646 0.00583387)
(-0.965778 0.25878 -0.0174789)
(-0.999983 1.16946e-13 0.00583343)
(-0.996042 0.0871424 -0.0174796)
(-0.984791 -0.173646 0.00583387)
(-0.996042 -0.0871424 -0.0174796)
(-0.939677 -0.342014 0.0058337)
(-0.965778 -0.25878 -0.0174789)
(-0.866011 -0.499991 0.00583281)
(-0.906169 -0.422554 -0.0174798)
(-0.766032 -0.642776 0.00583256)
(-0.819027 -0.573489 -0.0174799)
(-0.642776 -0.766032 0.00583256)
(-0.706999 -0.706999 -0.01748)
(-0.499991 -0.866011 0.00583281)
(-0.573489 -0.819027 -0.0174799)
(-0.342014 -0.939677 0.0058337)
(-0.422554 -0.906169 -0.0174798)
(-0.173646 -0.984791 0.00583387)
(-0.25878 -0.965778 -0.0174789)
(-8.31539e-11 -0.999983 0.00583343)
(-0.0871424 -0.996042 -0.0174796)
(0.173646 -0.984791 0.00583387)
(0.0871424 -0.996042 -0.0174796)
(0.342014 -0.939677 0.0058337)
(0.25878 -0.965778 -0.0174789)
(0.499991 -0.866011 0.00583281)
(0.422554 -0.906169 -0.0174798)
(0.642776 -0.766032 0.00583256)
(0.573489 -0.819027 -0.0174799)
(0.766032 -0.642776 0.00583256)
(0.706999 -0.706999 -0.01748)
(0.866011 -0.499991 0.00583281)
(0.819027 -0.573489 -0.0174799)
(0.939677 -0.342014 0.0058337)
(0.906169 -0.422554 -0.0174798)
(0.984791 -0.173646 0.00583387)
(0.965778 -0.25878 -0.0174789)
(0.996042 -0.0871424 -0.0174796)
(0.983917 0.17349 -0.0425236)
(0.999095 6.69262e-10 -0.0425242)
(0.995224 0.0870701 -0.0441444)
(0.99392 0.0869556 -0.0675423)
(0.938843 0.341711 -0.0425234)
(0.964984 0.258566 -0.0441433)
(0.96372 0.258227 -0.0675421)
(0.865241 0.499549 -0.0425231)
(0.905424 0.422207 -0.0441439)
(0.904238 0.421654 -0.0675428)
(0.765351 0.642207 -0.042524)
(0.818353 0.573018 -0.0441432)
(0.817281 0.572268 -0.0675408)
(0.642207 0.765351 -0.042524)
(0.706417 0.706417 -0.0441456)
(0.705492 0.705492 -0.0675428)
(0.499549 0.865241 -0.0425231)
(0.573018 0.818353 -0.0441432)
(0.572268 0.817281 -0.0675408)
(0.341711 0.938843 -0.0425234)
(0.422207 0.905424 -0.0441439)
(0.421654 0.904238 -0.0675428)
(0.17349 0.983917 -0.0425236)
(0.258566 0.964984 -0.0441433)
(0.258227 0.96372 -0.0675421)
(-7.06615e-11 0.999095 -0.0425242)
(0.0870701 0.995224 -0.0441444)
(0.0869556 0.99392 -0.0675423)
(-0.17349 0.983917 -0.0425236)
(-0.0870701 0.995224 -0.0441444)
(-0.0869556 0.99392 -0.0675423)
(-0.341711 0.938843 -0.0425234)
(-0.258566 0.964984 -0.0441433)
(-0.258227 0.96372 -0.0675421)
(-0.499549 0.865241 -0.0425231)
(-0.422207 0.905424 -0.0441439)
(-0.421654 0.904238 -0.0675428)
(-0.642207 0.765351 -0.042524)
(-0.573018 0.818353 -0.0441432)
(-0.572268 0.817281 -0.0675408)
(-0.765351 0.642207 -0.042524)
(-0.706417 0.706417 -0.0441456)
(-0.705492 0.705492 -0.0675428)
(-0.865241 0.499549 -0.0425231)
(-0.818353 0.573018 -0.0441432)
(-0.817281 0.572268 -0.0675408)
(-0.938843 0.341711 -0.0425234)
(-0.905424 0.422207 -0.0441439)
(-0.904238 0.421654 -0.0675428)
(-0.983917 0.17349 -0.0425236)
(-0.964984 0.258566 -0.0441433)
(-0.96372 0.258227 -0.0675421)
(-0.999095 2.54065e-13 -0.0425242)
(-0.995224 0.0870701 -0.0441444)
(-0.99392 0.0869556 -0.0675423)
(-0.983917 -0.17349 -0.0425236)
(-0.995224 -0.0870701 -0.0441444)
(-0.99392 -0.0869556 -0.0675423)
(-0.938843 -0.341711 -0.0425234)
(-0.964984 -0.258566 -0.0441433)
(-0.96372 -0.258227 -0.0675421)
(-0.865241 -0.499549 -0.0425231)
(-0.905424 -0.422207 -0.0441439)
(-0.904238 -0.421654 -0.0675428)
(-0.765351 -0.642207 -0.042524)