/*--------------------------------*- C++ -*----------------------------------*\
| =========                 |                                                 |
| \\      /  F ield         | OpenFOAM: The Open Source CFD Toolbox           |
|  \\    /   O peration     | Version:  2312                                  |
|   \\  /    A nd           | Website:  www.openfoam.com                      |
|    \\/     M anipulation  |                                                 |
\*---------------------------------------------------------------------------*/
FoamFile
{
    version     2.0;
    format      ascii;
    arch        "LSB;label=32;scalar=64";
    class       volVectorField;
    location    "0";
    object      f0;
}
// * * * * * * * * * * * * * * * * * * * * * * * * * * * * * * * * * * * * * //

dimensions      [0 0 0 0 0 0 0];

internalField   nonuniform List<vector> 
1620
(
(0.00452588 0.112816 -0.993606)
(-0.0681313 0.307202 -0.949202)
(-0.189179 0.435749 -0.879963)
(-0.32923 0.490491 -0.806862)
(-0.466393 0.481539 -0.742023)
(-0.587745 0.423689 -0.689233)
(-0.687469 0.330869 -0.646461)
(-0.770568 0.215436 -0.599843)
(-0.912175 0.0856122 -0.400758)
(0.855441 0.0822506 -0.511327)
(0.708725 0.200011 -0.676539)
(0.623175 0.302081 -0.721387)
(0.524892 0.380946 -0.761163)
(0.408831 0.425312 -0.807444)
(0.281669 0.423924 -0.860785)
(0.156716 0.367388 -0.91677)
(0.0533409 0.25294 -0.96601)
(-0.00640772 0.0916655 -0.995769)
(-0.00672057 -0.088142 -0.996085)
(0.0524747 -0.249757 -0.966886)
(0.155457 -0.364732 -0.918043)
(0.280173 -0.421826 -0.862303)
(0.407214 -0.423729 -0.809093)
(0.523297 -0.379858 -0.762803)
(0.622154 -0.301622 -0.72246)
(0.712062 -0.200849 -0.672775)
(0.898866 -0.0848704 -0.429926)
(-0.87342 -0.0833664 -0.479779)
(-0.762715 -0.213491 -0.610481)
(-0.684179 -0.329401 -0.650688)
(-0.585628 -0.422254 -0.691911)
(-0.464732 -0.479921 -0.74411)
(-0.327816 -0.488516 -0.808634)
(-0.187994 -0.433257 -0.881446)
(-0.0672902 -0.304121 -0.950254)
(0.00483848 -0.109308 -0.993996)
(-0.05475 0.757876 -0.650097)
(-0.243773 0.928855 -0.278931)
(-0.413066 0.893255 -0.177404)
(-0.566452 0.813114 -0.134085)
(-0.701298 0.70409 -0.111528)
(-0.814151 0.572209 -0.0986662)
(-0.901884 0.42233 -0.0907929)
(-0.962164 0.259343 -0.0835598)
(-0.99482 0.0879415 -0.0509764)
(0.994078 0.0881013 -0.0636167)
(0.961988 0.259333 -0.0855921)
(0.901751 0.422297 -0.0922582)
(0.814002 0.57214 -0.100279)
(0.701119 0.70396 -0.113456)
(0.566226 0.812867 -0.136512)
(0.412761 0.892737 -0.180692)
(0.243304 0.927452 -0.283964)
(0.0540684 0.751575 -0.657428)
(0.0539288 -0.750281 -0.658916)
(0.243274 -0.927361 -0.284288)
(0.412751 -0.89272 -0.180797)
(0.566224 -0.812864 -0.136537)
(0.701122 -0.703963 -0.11342)
(0.814015 -0.572146 -0.100146)
(0.901787 -0.422306 -0.0918546)
(0.962134 -0.259341 -0.0839053)
(0.994926 -0.0879141 -0.0489141)
(-0.993974 -0.0881202 -0.0651941)
(-0.962017 -0.259334 -0.0852576)
(-0.90184 -0.422319 -0.0912779)
(-0.814129 -0.572199 -0.0989009)
(-0.701283 -0.70408 -0.111689)
(-0.566438 -0.813099 -0.134235)
(-0.413049 -0.893225 -0.177597)
(-0.243737 -0.928749 -0.279315)
(-0.0546115 -0.756598 -0.651596)
(-0.039084 0.102664 0.993948)
(-0.106829 0.287752 0.951728)
(-0.221206 0.411251 0.884274)
(-0.354863 0.464107 0.811589)
(-0.486544 0.454714 0.745996)
(-0.602985 0.396725 0.692112)
(-0.69727 0.303526 0.649374)
(-0.771382 0.187698 0.608062)
(-0.912849 0.067669 0.402652)
(0.874064 0.0618772 0.481854)
(0.802589 0.19747 0.5629)
(0.732534 0.321615 0.599965)
(0.637548 0.422695 0.644097)
(0.518585 0.488648 0.701636)
(0.382069 0.504938 0.77399)
(0.240524 0.454581 0.857615)
(0.116012 0.323497 0.93909)
(0.0402864 0.116972 0.992318)
(0.0407013 -0.121927 0.991704)
(0.117101 -0.327749 0.93748)
(0.242006 -0.457915 0.855422)
(0.383781 -0.507516 0.771453)
(0.520548 -0.490736 0.698719)
(0.640014 -0.424557 0.640416)
(0.736347 -0.323584 0.59421)
(0.811943 -0.200434 0.548248)
(0.937764 -0.0717529 0.33978)
(-0.848045 -0.0582423 0.526713)
(-0.769367 -0.187072 0.610801)
(-0.698861 -0.304338 0.64728)
(-0.604892 -0.398152 0.689623)
(-0.488416 -0.45669 0.743562)
(-0.356627 -0.466746 0.809299)
(-0.222755 -0.414716 0.882264)
(-0.107949 -0.292101 0.950276)
(-0.0395024 -0.107634 0.993405)
(0.0136473 0.105717 -0.994303)
(-0.0543519 0.287594 -0.956209)
(-0.169237 0.41154 -0.895541)
(-0.304405 0.467914 -0.829695)
(-0.438681 0.463656 -0.769794)
(-0.558824 0.411458 -0.720013)
(-0.658761 0.324368 -0.678837)
(-0.744909 0.2146 -0.63171)
(-0.910389 0.0889556 -0.404078)
(0.82088 0.0848247 -0.564766)
(0.66928 0.196351 -0.716596)
(0.58293 0.291026 -0.758615)
(0.485937 0.362529 -0.79526)
(0.373221 0.400374 -0.836903)
(0.25165 0.394732 -0.883662)
(0.134262 0.338478 -0.931347)
(0.0388573 0.231179 -0.972135)
(-0.0155843 0.0841127 -0.996334)
(-0.0160951 -0.0783949 -0.996792)
(0.0374177 -0.225921 -0.973427)
(0.132108 -0.333965 -0.933282)
(0.249005 -0.391049 -0.886046)
(0.370263 -0.397503 -0.839581)
(0.482908 -0.360486 -0.798029)
(0.580775 -0.290073 -0.76063)
(0.674715 -0.197677 -0.711114)
(0.900193 -0.0885773 -0.426388)
(-0.840344 -0.0858471 -0.535212)
(-0.730899 -0.211256 -0.648967)
(-0.652834 -0.321779 -0.68576)
(-0.555002 -0.408905 -0.72441)
(-0.435707 -0.460793 -0.773195)
(-0.301918 -0.464477 -0.832531)
(-0.167205 -0.407308 -0.897854)
(-0.0529493 -0.2825 -0.957805)
(0.0141589 -0.100023 -0.994884)
(-0.0365837 0.719263 -0.693774)
(-0.234306 0.920251 -0.31343)
(-0.406835 0.890638 -0.203098)
(-0.561661 0.81245 -0.156401)
(-0.697278 0.704385 -0.132835)
(-0.810599 0.573137 -0.120181)
(-0.898682 0.423781 -0.113048)
(-0.959502 0.261227 -0.105435)
(-0.994637 0.0890203 -0.0526607)
(0.991988 0.0901495 -0.0884983)
(0.959032 0.261262 -0.109548)
(0.898426 0.423751 -0.115178)
(0.810323 0.573049 -0.122443)
(0.696939 0.704194 -0.135599)
(0.561225 0.812061 -0.159948)
(0.406238 0.889792 -0.207947)
(0.233402 0.917951 -0.320763)
(0.035438 0.710213 -0.703094)
(0.0349352 -0.706219 -0.707131)
(0.233275 -0.917627 -0.321782)
(0.406195 -0.889731 -0.208291)
(0.561214 -0.812051 -0.16004)
(0.696951 -0.704201 -0.135501)
(0.810371 -0.573064 -0.122047)
(0.898572 -0.423768 -0.113965)
(0.959611 -0.261218 -0.104462)
(0.995026 -0.088771 -0.0451983)
(-0.991547 -0.0902887 -0.0931821)
(-0.958957 -0.261267 -0.11019)
(-0.898521 -0.423762 -0.114389)
(-0.810519 -0.573112 -0.120836)
(-0.697222 -0.704353 -0.133297)
(-0.561607 -0.812402 -0.156844)
(-0.406763 -0.890538 -0.203682)
(-0.234163 -0.919889 -0.314599)
(-0.0360874 -0.715352 -0.697832)
(-0.0606247 0.098516 0.993287)
(-0.126324 0.279649 0.951756)
(-0.23783 0.400839 0.88474)
(-0.368664 0.452677 0.811893)
(-0.497916 0.442919 0.745588)
(-0.612328 0.384781 0.690651)
(-0.704915 0.291493 0.646628)
(-0.778787 0.176166 0.602043)
(-0.950077 0.0671687 0.304701)
(0.869402 0.0503284 0.491535)
(0.808411 0.186466 0.558302)
(0.740168 0.31083 0.596268)
(0.646578 0.411853 0.642117)
(0.529321 0.477596 0.701228)
(0.395061 0.493759 0.77468)
(0.256398 0.443881 0.858621)
(0.135078 0.314791 0.9395)
(0.0617659 0.112491 0.991731)
(0.0624421 -0.120832 0.990707)
(0.136863 -0.321998 0.936796)
(0.258848 -0.449596 0.854904)
(0.397921 -0.498239 0.770335)
(0.532638 -0.481286 0.696175)
(0.650798 -0.415219 0.635653)
(0.746798 -0.314513 0.585981)
(0.825069 -0.192389 0.531269)
(0.973634 -0.0738833 0.215819)
(-0.840069 -0.0451935 0.540594)
(-0.775678 -0.175101 0.606353)
(-0.707795 -0.293058 0.642762)
(-0.615619 -0.387364 0.686266)
(-0.501085 -0.446399 0.741378)
(-0.371613 -0.457244 0.80798)
(-0.240395 -0.40676 0.881338)
(-0.128164 -0.287008 0.949316)
(-0.0613091 -0.106882 0.99238)
(-0.00613644 0.0992727 -0.995041)
(-0.071146 0.274984 -0.958813)
(-0.182003 0.395745 -0.900145)
(-0.31343 0.451344 -0.835494)
(-0.444745 0.447548 -0.775824)
(-0.562583 0.396187 -0.725629)
(-0.660351 0.309855 -0.684051)
(-0.742214 0.200567 -0.639446)
(-0.881798 0.0783387 -0.465075)
(0.844981 0.0752826 -0.52947)
(0.669551 0.181311 -0.720297)
(0.583469 0.274231 -0.764435)
(0.488927 0.344848 -0.801268)
(0.379274 0.382318 -0.842606)
(0.261285 0.37711 -0.888548)
(0.147848 0.322708 -0.93488)
(0.0561786 0.219275 -0.974044)
(0.00427949 0.0781031 -0.996936)
(0.00422483 -0.0774798 -0.996985)
(0.0560236 -0.218698 -0.974183)
(0.147614 -0.322208 -0.935089)
(0.260995 -0.376696 -0.888809)
(0.378944 -0.381989 -0.842904)
(0.488581 -0.344607 -0.801582)
(0.583205 -0.274108 -0.764681)
(0.670072 -0.181449 -0.719777)
(0.853745 -0.0760126 -0.515114)
(-0.873924 -0.0776876 -0.479813)
(-0.740627 -0.200147 -0.641415)
(-0.65968 -0.309544 -0.684839)
(-0.562153 -0.395888 -0.726125)
(-0.444414 -0.447218 -0.776203)
(-0.313157 -0.450955 -0.835806)
(-0.181783 -0.395273 -0.900397)
(-0.0709954 -0.274424 -0.958985)
(-0.00608196 -0.0986517 -0.995103)
(-0.0490031 0.564911 -0.823696)
(-0.232284 0.867763 -0.439353)
(-0.404734 0.8683 -0.286784)
(-0.560052 0.800031 -0.215156)
(-0.696067 0.696193 -0.175517)
(-0.809672 0.567031 -0.151347)
(-0.897942 0.418794 -0.135322)
(-0.958764 0.256964 -0.121411)
(-0.992919 0.0869114 -0.0809846)
(0.992764 0.0868989 -0.0828691)
(0.958393 0.256866 -0.124512)
(0.897492 0.418586 -0.138902)
(0.809157 0.566673 -0.155389)
(0.695467 0.695597 -0.180196)
(0.559325 0.798997 -0.220818)
(0.403799 0.866303 -0.294051)
(0.231028 0.863092 -0.449108)
(0.0480823 0.554427 -0.830842)
(0.0480768 -0.554365 -0.830884)
(0.231025 -0.863083 -0.449127)
(0.403798 -0.866301 -0.294059)
(0.559324 -0.798996 -0.220821)
(0.695467 -0.695597 -0.180197)
(0.809158 -0.566674 -0.155386)
(0.897494 -0.418587 -0.138889)
(0.9584 -0.256868 -0.12445)
(0.992812 -0.0869027 -0.0822989)
(-0.992873 -0.0869077 -0.0815513)
(-0.958756 -0.256962 -0.121482)
(-0.897939 -0.418792 -0.135344)
(-0.809671 -0.56703 -0.151358)
(-0.696066 -0.696192 -0.175526)
(-0.560051 -0.800029 -0.215165)
(-0.404733 -0.868297 -0.286795)
(-0.232282 -0.867754 -0.439373)
(-0.0489978 -0.56485 -0.823738)
(-0.0157778 0.114107 0.993343)
(-0.0897354 0.313669 0.945283)
(-0.212298 0.443301 0.870869)
(-0.352974 0.496064 0.793303)
(-0.489693 0.483732 0.725399)
(-0.609568 0.422064 0.671035)
(-0.706177 0.325263 0.628902)
(-0.780659 0.205626 0.590161)
(-0.890183 0.0752601 0.449344)
(0.895631 0.0758012 0.438291)
(0.810286 0.213833 0.54563)
(0.7382 0.340494 0.582343)
(0.641509 0.444755 0.625027)
(0.520035 0.514432 0.681853)
(0.37949 0.534317 0.75531)
(0.23176 0.485421 0.843003)
(0.099303 0.349683 0.93159)
(0.0170595 0.128879 0.991514)
(0.0171451 -0.129866 0.991383)
(0.0995222 -0.350509 0.931257)
(0.232049 -0.486045 0.842564)
(0.379813 -0.534783 0.754818)
(0.520396 -0.514797 0.681302)
(0.641953 -0.445071 0.624346)
(0.738878 -0.340817 0.581294)
(0.811937 -0.214291 0.54299)
(0.907201 -0.0769575 0.413598)
(-0.87827 -0.0740834 0.472391)
(-0.780166 -0.20549 0.590859)
(-0.706419 -0.325378 0.628571)
(-0.609897 -0.422298 0.670589)
(-0.490031 -0.484074 0.724942)
(-0.353305 -0.496541 0.792857)
(-0.2126 -0.443953 0.870464)
(-0.0899607 -0.314517 0.94498)
(-0.0158638 -0.115097 0.993228)
(-0.0499321 0.0866734 -0.994985)
(-0.10934 0.250482 -0.961927)
(-0.21243 0.364597 -0.906611)
(-0.336366 0.417999 -0.843881)
(-0.461499 0.414463 -0.784372)
(-0.574392 0.364251 -0.733073)
(-0.667607 0.279019 -0.690253)
(-0.741768 0.170281 -0.648679)
(-0.837837 0.0501626 -0.543611)
(0.922771 0.0645612 -0.379902)
(0.675407 0.149273 -0.722179)
(0.588697 0.238379 -0.772406)
(0.499631 0.307939 -0.809655)
(0.396508 0.345504 -0.850534)
(0.285804 0.341997 -0.895184)
(0.180055 0.291884 -0.939353)
(0.0954256 0.196264 -0.975897)
(0.0482245 0.0663549 -0.99663)
(0.049059 -0.0762582 -0.99588)
(0.0978118 -0.20552 -0.973753)
(0.183718 -0.30007 -0.936059)
(0.29046 -0.348957 -0.89099)
(0.401942 -0.351233 -0.845623)
(0.505568 -0.312376 -0.804253)
(0.593809 -0.240985 -0.76767)
(0.668635 -0.147165 -0.728882)
(0.784259 -0.0422668 -0.618992)
(-0.960698 -0.0726456 -0.267921)
(-0.769677 -0.179337 -0.612728)
(-0.679161 -0.285056 -0.676375)
(-0.581609 -0.369744 -0.724583)
(-0.466923 -0.420267 -0.778048)
(-0.340741 -0.424623 -0.838804)
(-0.215876 -0.372388 -0.902621)
(-0.111643 -0.259513 -0.959265)
(-0.0507553 -0.0965453 -0.994034)
(-0.0795136 0.44077 -0.894091)
(-0.239746 0.797023 -0.554325)
(-0.40759 0.833902 -0.372127)
(-0.561469 0.779844 -0.27676)
(-0.696811 0.682598 -0.220262)
(-0.810029 0.556974 -0.183396)
(-0.898041 0.410848 -0.157249)
(-0.958581 0.250444 -0.135645)
(-0.991438 0.0820878 -0.101554)
(0.994748 0.0843748 -0.0579464)
(0.958389 0.250317 -0.137228)
(0.897373 0.410273 -0.162475)
(0.809248 0.556091 -0.189422)
(0.695934 0.681287 -0.226987)
(0.560454 0.777777 -0.284526)
(0.406367 0.830272 -0.381463)
(0.238325 0.789812 -0.565153)
(0.0788676 0.430826 -0.898982)
(0.0792074 -0.436044 -0.896433)
(0.238581 -0.791107 -0.563231)
(0.406501 -0.830666 -0.380463)
(0.56053 -0.77793 -0.283958)
(0.695974 -0.681346 -0.226688)
(0.809245 -0.556088 -0.189442)
(0.897262 -0.410179 -0.163321)
(0.95775 -0.249904 -0.14235)
(0.990538 -0.081607 -0.110336)
(-0.995329 -0.0849818 -0.045804)
(-0.959453 -0.251029 -0.1282)
(-0.898332 -0.411102 -0.1549)
(-0.810189 -0.557156 -0.182129)
(-0.696933 -0.682782 -0.219299)
(-0.561592 -0.780096 -0.275799)
(-0.407749 -0.834376 -0.370888)
(-0.240007 -0.798356 -0.55229)
(-0.0798477 -0.445951 -0.891489)
(0.0284528 0.131187 0.990949)
(-0.0548429 0.349726 0.935245)
(-0.189115 0.486572 0.852926)
(-0.339446 0.538741 0.77106)
(-0.482965 0.52284 0.702412)
(-0.607495 0.457203 0.64955)
(-0.707338 0.356863 0.610181)
(-0.782773 0.233712 0.576754)
(-0.862497 0.0954838 0.496972)
(0.944298 0.0953074 0.314989)
(0.81367 0.240026 0.529461)
(0.736837 0.368692 0.566689)
(0.637415 0.476015 0.605897)
(0.512341 0.549793 0.659724)
(0.366142 0.574154 0.732316)
(0.209616 0.527708 0.823156)
(0.0654106 0.386778 0.91985)
(-0.0269859 0.146953 0.988775)
(-0.0276629 -0.139691 0.989809)
(0.0637358 -0.380924 0.922407)
(0.207516 -0.523511 0.826362)
(0.363894 -0.571185 0.735751)
(0.509918 -0.54758 0.66343)
(0.634515 -0.474202 0.610347)
(0.73249 -0.366963 0.573408)
(0.802927 -0.237858 0.546563)
(0.865348 -0.0955321 0.491981)
(-0.948306 -0.095165 0.302753)
(-0.787835 -0.234762 0.569389)
(-0.706245 -0.356421 0.611704)
(-0.605496 -0.455938 0.6523)
(-0.480742 -0.52079 0.705454)
(-0.337153 -0.535685 0.774189)
(-0.186922 -0.482153 0.855914)
(-0.053127 -0.343685 0.937581)
(0.0291281 -0.123892 0.991868)
(-0.0986456 0.0735625 -0.9924)
(-0.152368 0.224418 -0.962507)
(-0.247268 0.330795 -0.910732)
(-0.362998 0.381204 -0.850245)
(-0.48113 0.377563 -0.791176)
(-0.58836 0.328486 -0.73887)
(-0.676623 0.244582 -0.694522)
(-0.744128 0.136726 -0.653895)
(-0.811908 0.0168113 -0.583544)
(-0.994551 -0.0809018 0.0657488)
(0.685385 0.114739 -0.719084)
(0.593817 0.197233 -0.780052)
(0.511475 0.265804 -0.817155)
(0.41613 0.303946 -0.857002)
(0.313769 0.302887 -0.899894)
(0.216509 0.258083 -0.94155)
(0.139403 0.171465 -0.975278)
(0.0970648 0.0539934 -0.993812)
(0.0987277 -0.0745911 -0.992315)
(0.144205 -0.190932 -0.970953)
(0.224013 -0.275656 -0.93479)
(0.323541 -0.318264 -0.891083)
(0.427896 -0.317103 -0.846375)
(0.524922 -0.276599 -0.804953)
(0.606573 -0.204381 -0.768308)
(0.671523 -0.109709 -0.732817)
(0.745733 -0.0033384 -0.666236)
(0.989539 0.0965335 -0.107205)
(-0.812048 -0.163913 -0.560099)
(-0.703251 -0.260366 -0.661549)
(-0.604381 -0.34188 -0.719612)
(-0.492811 -0.39106 -0.777309)
(-0.37216 -0.396034 -0.839437)
(-0.254299 -0.347683 -0.902468)
(-0.156963 -0.243496 -0.957117)
(-0.100266 -0.0941065 -0.9905)
(-0.118951 0.34933 -0.929419)
(-0.255793 0.717459 -0.647937)
(-0.415287 0.789135 -0.452551)
(-0.565738 0.752125 -0.338008)
(-0.699237 0.663617 -0.265858)
(-0.81131 0.543047 -0.216509)
(-0.898568 0.400186 -0.180073)
(-0.958563 0.242123 -0.150115)
(-0.990443 0.0756868 -0.1153)
(-0.99622 -0.085976 0.0124233)
(0.958707 0.242276 -0.148942)
(0.897638 0.399009 -0.187184)
(0.810217 0.541329 -0.224748)
(0.69805 0.661238 -0.274753)
(0.564424 0.748626 -0.347829)
(0.413813 0.78351 -0.463541)
(0.254328 0.708008 -0.658818)
(0.118487 0.340343 -0.932806)
(0.118986 -0.350018 -0.929155)
(0.254876 -0.711519 -0.654812)
(0.414156 -0.78481 -0.46103)
(0.564647 -0.749214 -0.346196)
(0.698199 -0.661533 -0.273665)
(0.810285 -0.541434 -0.224249)
(0.897492 -0.398828 -0.188265)
(0.957328 -0.240849 -0.159732)
(0.988861 -0.0742457 -0.128999)
(0.996011 0.0883356 -0.0125802)
(-0.96076 -0.244606 -0.130797)
(-0.899306 -0.401149 -0.174152)
(-0.811718 -0.543703 -0.213309)
(-0.699551 -0.664257 -0.263421)
(-0.566049 -0.752965 -0.335608)
(-0.41567 -0.790616 -0.449606)
(-0.25634 -0.721035 -0.643738)
(-0.119439 -0.358971 -0.925675)
(0.0716249 0.150528 0.986008)
(-0.0225813 0.389102 0.920918)
(-0.169478 0.531662 0.829827)
(-0.329281 0.58139 0.744016)
(-0.478884 0.560722 0.675471)
(-0.607242 0.49056 0.624986)
(-0.70956 0.386564 0.589146)
(-0.785827 0.260317 0.56099)
(-0.852135 0.118389 0.509755)
(0.993698 0.0923938 0.0634606)
(0.820479 0.264784 0.506659)
(0.736963 0.395469 0.548169)
(0.635173 0.505801 0.583712)
(0.507177 0.58397 0.633837)
(0.356053 0.613746 0.704658)
(0.191082 0.571544 0.798013)
(0.0343552 0.427268 0.903472)
(-0.0699128 0.167521 0.983386)
(-0.071584 -0.150937 0.985948)
(0.0303962 -0.414501 0.909541)
(0.186389 -0.562938 0.805208)
(0.351265 -0.608004 0.711999)
(0.502202 -0.579921 0.641471)
(0.629366 -0.502669 0.59264)
(0.728287 -0.392693 0.561596)
(0.797424 -0.261885 0.543629)
(0.844473 -0.118794 0.522258)
(-0.995205 -0.0825565 -0.0524624)
(-0.802151 -0.262504 0.536325)
(-0.708643 -0.38626 0.590447)
(-0.603638 -0.488563 0.630022)
(-0.474455 -0.557037 0.681618)
(-0.324429 -0.575463 0.750725)
(-0.164572 -0.522514 0.836597)
(-0.0185301 -0.375831 0.926503)
(0.0732802 -0.133849 0.988289)
(-0.150457 0.0604537 -0.986766)
(-0.198643 0.197796 -0.959905)
(-0.285276 0.295609 -0.91172)
(-0.392404 0.342272 -0.853738)
(-0.502962 0.338101 -0.795435)
(-0.603967 0.290088 -0.742342)
(-0.686967 0.20773 -0.696365)
(-0.748601 0.101167 -0.655257)
(-0.799152 -0.0184766 -0.600845)
(-0.9551 -0.123201 -0.269454)
(0.706747 0.082768 -0.702608)
(0.597932 0.151541 -0.787092)
(0.523603 0.219342 -0.823243)
(0.437255 0.25874 -0.861314)
(0.344097 0.260965 -0.901939)
(0.255853 0.222433 -0.940778)
(0.18647 0.145752 -0.971589)
(0.148974 0.0414779 -0.987971)
(0.151371 -0.0725021 -0.985814)
(0.193461 -0.175401 -0.965302)
(0.266981 -0.249767 -0.930773)
(0.358965 -0.285614 -0.888577)
(0.45577 -0.280703 -0.844677)
(0.545788 -0.238448 -0.80328)
(0.620742 -0.165533 -0.766341)
(0.677337 -0.0703827 -0.732299)
(0.727396 0.0371659 -0.68521)
(0.893433 0.140913 -0.426523)
(-0.872932 -0.164202 -0.459376)
(-0.732405 -0.238393 -0.63777)
(-0.629929 -0.31399 -0.710352)
(-0.521214 -0.360931 -0.773346)
(-0.406285 -0.366349 -0.837091)
(-0.295638 -0.322117 -0.899355)
(-0.205265 -0.226973 -0.952024)
(-0.152763 -0.0914131 -0.984026)
(-0.164311 0.279838 -0.945882)
(-0.279816 0.634155 -0.720798)
(-0.428082 0.734577 -0.526444)
(-0.573083 0.716175 -0.398334)
(-0.70346 0.6384 -0.312393)
(-0.813539 0.524505 -0.251095)
(-0.899479 0.386226 -0.204373)
(-0.958606 0.231607 -0.165626)
(-0.989666 0.0679157 -0.126284)
(-0.995141 -0.09218 -0.034614)
(0.959611 0.233117 -0.157489)
(0.898206 0.38411 -0.213741)
(0.812042 0.521502 -0.261961)
(0.701892 0.634475 -0.323711)
(0.57143 0.710759 -0.410231)
(0.42637 0.726625 -0.538725)
(0.278364 0.622852 -0.731142)
(0.163959 0.271705 -0.948311)
(0.164532 -0.285062 -0.944282)
(0.279196 -0.62928 -0.725298)
(0.426992 -0.729487 -0.534347)
(0.571885 -0.712231 -0.407031)
(0.70224 -0.63533 -0.321271)
(0.812279 -0.521969 -0.260292)
(0.89811 -0.383954 -0.214427)
(0.956991 -0.229334 -0.177693)
(0.987505 -0.0651854 -0.143474)
(0.992937 0.0969748 -0.0683534)
(-0.962968 -0.239003 -0.12478)
(-0.900916 -0.388757 -0.192922)
(-0.814323 -0.526138 -0.245065)
(-0.704055 -0.639936 -0.307877)
(-0.573656 -0.718102 -0.394015)
(-0.428744 -0.737729 -0.521474)
(-0.280631 -0.640672 -0.714693)
(-0.164865 -0.293172 -0.941738)
(0.114256 0.173395 0.978202)
(0.0067792 0.433589 0.901085)
(-0.153988 0.579763 0.800102)
(-0.323039 0.624712 0.710902)
(-0.477913 0.597872 0.643543)
(-0.609224 0.52256 0.596471)
(-0.713257 0.41477 0.565005)
(-0.790037 0.285707 0.542415)
(-0.849478 0.141569 0.508276)
(-0.976292 -0.0578152 0.208593)
(0.833519 0.287704 0.47167)
(0.738898 0.421062 0.526058)
(0.635028 0.534407 0.557807)
(0.504858 0.617325 0.603348)
(0.349662 0.653613 0.671213)
(0.176708 0.617897 0.766145)
(0.00646688 0.472855 0.881117)
(-0.112206 0.191934 0.974972)
(-0.115228 -0.164449 0.979632)
(-0.000299581 -0.452917 0.891553)
(0.169209 -0.605421 0.77771)
(0.342413 -0.645829 0.682391)
(0.49761 -0.61216 0.614528)
(0.626747 -0.530667 0.570597)
(0.726334 -0.418045 0.545598)
(0.794768 -0.286004 0.535299)
(0.834568 -0.143393 0.531917)
(0.926551 0.0314657 0.374852)
(-0.828996 -0.287581 0.479648)
(-0.714517 -0.415091 0.563174)
(-0.604886 -0.520515 0.602641)
(-0.471738 -0.59332 0.652253)
(-0.315765 -0.616671 0.721116)
(-0.146136 -0.566356 0.811101)
(0.0137067 -0.412671 0.910777)
(0.117228 -0.145709 0.982358)
(-0.205766 0.0472349 -0.977461)
(-0.248528 0.170439 -0.953512)
(-0.326787 0.25881 -0.90897)
(-0.424885 0.300914 -0.85377)
(-0.527235 0.295729 -0.796598)
(-0.62137 0.248691 -0.743002)
(-0.698671 0.168116 -0.69541)
(-0.754761 0.0633266 -0.652937)
(-0.794055 -0.0553956 -0.605316)
(-0.881381 -0.168176 -0.441457)
(0.763958 0.0681918 -0.641652)
(0.600354 0.10004 -0.793453)
(0.535643 0.167422 -0.827681)
(0.459905 0.209103 -0.862997)
(0.377002 0.215701 -0.900746)
(0.298394 0.184569 -0.936427)
(0.23699 0.118886 -0.96421)
(0.204353 0.0286837 -0.978477)
(0.207404 -0.0699948 -0.975748)
(0.24598 -0.158818 -0.956175)
(0.312984 -0.222192 -0.923402)
(0.397041 -0.250714 -0.882894)
(0.485789 -0.241669 -0.840003)
(0.568291 -0.197536 -0.798765)
(0.636262 -0.124044 -0.761435)
(0.685229 -0.0287771 -0.727759)
(0.719729 0.0793074 -0.68971)
(0.800532 0.187457 -0.569217)
(-0.946764 -0.200019 -0.252252)
(-0.768993 -0.222722 -0.599203)
(-0.658933 -0.286956 -0.695315)
(-0.552511 -0.330084 -0.76536)
(-0.443456 -0.335555 -0.831113)
(-0.340252 -0.295616 -0.892659)
(-0.256938 -0.209887 -0.943361)
(-0.208656 -0.0884795 -0.973978)
(-0.215552 0.223938 -0.950468)
(-0.31198 0.548963 -0.775441)
(-0.446724 0.669682 -0.593265)
(-0.584103 0.670255 -0.457802)
(-0.709839 0.605136 -0.36047)
(-0.816881 0.499786 -0.287958)
(-0.9008 0.367705 -0.230981)
(-0.958641 0.217947 -0.183046)
(-0.988852 0.0582616 -0.137029)
(-0.992867 -0.10019 -0.0646348)
(0.962059 0.224956 -0.15439)
(0.899044 0.364124 -0.243174)
(0.814792 0.494746 -0.302225)
(0.707746 0.59891 -0.374703)
(0.582021 0.662228 -0.471917)
(0.444754 0.658997 -0.606562)
(0.310552 0.536061 -0.784981)
(0.215267 0.216436 -0.952269)
(0.215885 -0.233143 -0.948176)
(0.31166 -0.546024 -0.777641)
(0.445739 -0.664277 -0.600043)
(0.58283 -0.665295 -0.466575)
(0.708434 -0.600914 -0.370167)
(0.81536 -0.496084 -0.298476)
(0.8991 -0.364234 -0.242803)
(0.956602 -0.214348 -0.197402)
(0.986105 -0.0538737 -0.157146)
(0.98892 0.107604 -0.102268)
(-0.966284 -0.238057 -0.0980987)
(-0.903435 -0.373634 -0.210245)
(-0.818264 -0.503336 -0.277664)
(-0.71086 -0.60832 -0.353023)
(-0.585046 -0.674042 -0.450986)
(-0.447732 -0.675369 -0.586014)
(-0.313049 -0.559036 -0.767775)
(-0.216142 -0.240635 -0.946244)
(0.157262 0.202156 0.966645)
(0.0327226 0.486188 0.873241)
(-0.143614 0.632641 0.761013)
(-0.321532 0.669636 0.66948)
(-0.48065 0.634884 0.604895)
(-0.613898 0.553691 0.562633)
(-0.718824 0.441948 0.536632)
(-0.795658 0.310302 0.520233)
(-0.850949 0.164716 0.498752)
(-0.935169 -0.0177932 0.353756)
(0.859404 0.306646 0.409137)
(0.743075 0.445792 0.499109)
(0.637251 0.562219 0.527087)
(0.50579 0.650312 0.566808)
(0.347602 0.694458 0.630001)
(0.167373 0.668193 0.724917)
(-0.0176351 0.52636 0.850079)
(-0.154716 0.222726 0.962526)
(-0.159704 -0.181767 0.970286)
(-0.0279712 -0.498987 0.866158)
(0.156851 -0.65261 0.741281)
(0.33805 -0.685485 0.644851)
(0.496625 -0.644779 0.581054)
(0.626961 -0.558538 0.543097)
(0.726756 -0.443277 0.52472)
(0.79465 -0.310317 0.521761)
(0.830895 -0.168662 0.530251)
(0.864499 -0.0152925 0.502402)
(-0.880926 -0.30378 0.362888)
(-0.725395 -0.443054 0.526788)
(-0.610019 -0.552216 0.568273)
(-0.473381 -0.630281 0.61535)
(-0.312103 -0.66041 0.682971)
(-0.132575 -0.615684 0.77676)
(0.0433359 -0.457107 0.888355)
(0.162135 -0.160799 0.973579)
(-0.265696 0.0336541 -0.963469)
(-0.303065 0.141886 -0.942348)
(-0.37273 0.219779 -0.901537)
(-0.461239 0.256383 -0.849427)
(-0.554597 0.249613 -0.793798)
(-0.641054 0.203429 -0.740045)
(-0.712037 0.12491 -0.690942)
(-0.762534 0.0224686 -0.646558)
(-0.79365 -0.0944637 -0.600996)
(-0.837478 -0.21077 -0.504188)
(0.898058 0.121746 -0.422694)
(0.600639 0.0407278 -0.798482)
(0.547144 0.107816 -0.830066)
(0.484384 0.153468 -0.86129)
(0.41317 0.165956 -0.895404)
(0.345033 0.143674 -0.927529)
(0.292004 0.0903259 -0.952142)
(0.264324 0.0153403 -0.964312)
(0.267971 -0.0670697 -0.96109)
(0.302865 -0.140921 -0.942557)
(0.363028 -0.192447 -0.911688)
(0.438637 -0.2129 -0.873081)
(0.518664 -0.199215 -0.831445)
(0.592959 -0.152998 -0.790564)
(0.65343 -0.0790226 -0.752851)
(0.69492 0.0159984 -0.718909)
(0.718022 0.12396 -0.684893)
(0.750197 0.234261 -0.618325)
(-0.952714 -0.284958 0.10552)
(-0.817122 -0.221491 -0.532216)
(-0.692816 -0.26234 -0.671702)
(-0.58763 -0.298716 -0.75197)
(-0.484578 -0.303449 -0.820428)
(-0.389125 -0.267904 -0.881368)
(-0.313066 -0.192054 -0.93011)
(-0.269087 -0.0853236 -0.959329)
(-0.273682 0.176695 -0.945451)
(-0.353048 0.462791 -0.813131)
(-0.472417 0.593754 -0.651366)
(-0.599766 0.612049 -0.515438)
(-0.718978 0.561213 -0.410013)
(-0.821629 0.466516 -0.327549)
(-0.902597 0.342658 -0.260582)
(-0.958579 0.199622 -0.203169)
(-0.987764 0.0456929 -0.149115)
(-0.990691 -0.108963 -0.0816036)
(0.966936 0.22559 -0.118928)
(0.90016 0.33686 -0.276112)
(0.818572 0.458046 -0.346604)
(0.716083 0.551394 -0.428007)
(0.597084 0.600333 -0.532063)
(0.470125 0.579743 -0.665493)
(0.351617 0.448327 -0.821808)
(0.273434 0.169557 -0.946828)
(0.274099 -0.189758 -0.942794)
(0.353024 -0.462536 -0.813287)
(0.471594 -0.588615 -0.656606)
(0.598443 -0.606165 -0.523861)
(0.717366 -0.555645 -0.420292)
(0.819786 -0.461315 -0.339322)
(0.900471 -0.337572 -0.274221)
(0.955992 -0.194213 -0.219912)
(0.984291 -0.0390915 -0.172173)
(0.985366 0.119427 -0.121622)
(-0.967714 -0.249772 -0.0338222)
(-0.907481 -0.356403 -0.222385)
(-0.824045 -0.473885 -0.310456)
(-0.72068 -0.56741 -0.398329)
(-0.601252 -0.618947 -0.505372)
(-0.47387 -0.603156 -0.6416)
(-0.35438 -0.477137 -0.804211)
(-0.274307 -0.196895 -0.941269)
(0.201461 0.241605 0.949232)
(0.053315 0.552074 0.832089)
(-0.14071 0.692745 0.707322)
(-0.326553 0.717134 0.615696)
(-0.488364 0.672205 0.556454)
(-0.622186 0.584264 0.521076)
(-0.726964 0.468413 0.502109)
(-0.803208 0.334442 0.492955)
(-0.855453 0.188003 0.482551)
(-0.911314 0.0167381 0.411371)
(0.910499 0.310121 0.273525)
(0.75053 0.469778 0.464773)
(0.642478 0.589498 0.489606)
(0.51091 0.683256 0.521663)
(0.351325 0.736946 0.577478)
(0.165191 0.72429 0.669414)
(-0.0358788 0.592494 0.804776)
(-0.198111 0.265002 0.943677)
(-0.206284 -0.206084 0.956544)
(-0.0509283 -0.557714 0.828469)
(0.151524 -0.70687 0.690923)
(0.339831 -0.727894 0.595555)
(0.500382 -0.678195 0.538209)
(0.630781 -0.586555 0.508005)
(0.730054 -0.468638 0.497393)
(0.797233 -0.335064 0.502147)
(0.831646 -0.194714 0.520049)
(0.84096 -0.0527113 0.538524)
(-0.958524 -0.274972 0.0749855)
(-0.744697 -0.469519 0.474318)
(-0.62066 -0.583847 0.523359)
(-0.481075 -0.668467 0.567202)
(-0.315556 -0.707989 0.631804)
(-0.126346 -0.673528 0.728283)
(0.0688777 -0.514448 0.854751)
(0.209392 -0.18188 0.960768)
(-0.332566 0.0191943 -0.942885)
(-0.36441 0.111129 -0.924584)
(-0.425003 0.177114 -0.887695)
(-0.503051 0.206997 -0.839102)
(-0.58629 0.19791 -0.785554)
(-0.663916 0.152433 -0.732106)
(-0.727632 0.0763428 -0.681706)
(-0.772101 -0.0229708 -0.635085)
(-0.796508 -0.136978 -0.588907)
(-0.81672 -0.253386 -0.518424)
(-0.963438 -0.26685 -0.0240313)
(0.601032 -0.0278356 -0.79874)
(0.556987 0.0358899 -0.829746)
(0.511197 0.0885359 -0.854891)
(0.453928 0.109286 -0.884311)
(0.397591 0.0979587 -0.912319)
(0.353648 0.0588945 -0.933523)
(0.331201 0.000886832 -0.94356)
(0.335415 -0.0636649 -0.939917)
(0.366345 -0.121076 -0.922568)
(0.419113 -0.159407 -0.893831)
(0.485448 -0.170678 -0.857443)
(0.555734 -0.151598 -0.817421)
(0.620764 -0.10297 -0.777206)
(0.672828 -0.028592 -0.739246)
(0.706449 0.0657584 -0.704702)
(0.719989 0.172871 -0.67211)
(0.725109 0.28365 -0.627503)
(0.833125 0.371525 -0.409721)
(-0.879974 -0.255989 -0.400144)
(-0.734238 -0.243694 -0.633646)
(-0.628343 -0.267112 -0.730641)
(-0.53143 -0.26947 -0.803099)
(-0.44425 -0.238294 -0.863631)
(-0.375853 -0.173017 -0.910384)
(-0.336393 -0.0819281 -0.938151)
(-0.340065 0.135454 -0.930595)
(-0.404157 0.37702 -0.833375)
(-0.506765 0.507256 -0.697051)
(-0.62148 0.539709 -0.567871)
(-0.731834 0.503813 -0.458902)
(-0.828306 0.421825 -0.368745)
(-0.905053 0.308566 -0.292689)
(-0.958372 0.174627 -0.225894)
(-0.9862 0.0287801 -0.163037)
(-0.988514 -0.119237 -0.0928627)
(-0.969347 -0.23897 0.0570879)
(0.902077 0.300592 -0.309678)
(0.82352 0.407244 -0.394926)
(0.727626 0.48816 -0.481934)
(0.617908 0.522652 -0.587388)
(0.504033 0.489081 -0.711864)
(0.402671 0.360796 -0.841239)
(0.339831 0.128398 -0.931681)
(0.340566 -0.152703 -0.927737)
(0.404434 -0.380202 -0.831793)
(0.506171 -0.503162 -0.700442)
(0.620149 -0.533158 -0.575463)
(0.729989 -0.496732 -0.469439)
(0.826046 -0.414698 -0.381672)
(0.902343 -0.301273 -0.308241)
(0.955017 -0.166678 -0.245276)
(0.981714 -0.0190885 -0.189403)
(0.981686 0.133738 -0.135671)
(0.961441 0.27211 -0.0398419)
(-0.91422 -0.342131 -0.217135)
(-0.83261 -0.437105 -0.340146)
(-0.734672 -0.51556 -0.440972)
(-0.623785 -0.551742 -0.5536)
(-0.508802 -0.522003 -0.684568)
(-0.405788 -0.396595 -0.823437)
(-0.340742 -0.159766 -0.926482)
(0.24652 0.302491 0.920721)
(0.0628727 0.639626 0.766111)
(-0.150335 0.76233 0.629486)
(-0.341457 0.767228 0.542926)
(-0.503224 0.709369 0.493519)
(-0.635524 0.613852 0.46829)
(-0.738662 0.493933 0.458703)
(-0.813374 0.358125 0.458442)
(-0.862838 0.211595 0.459062)
(-0.902371 0.0480326 0.428275)
(-0.96574 -0.259501 -0.00239217)
(0.763633 0.492247 0.4178)
(0.651724 0.615929 0.442592)