/*--------------------------------*- C++ -*----------------------------------*\
| =========                 |                                                 |
| \\      /  F ield         | OpenFOAM: The Open Source CFD Toolbox           |
|  \\    /   O peration     | Version:  2312                                  |
|   \\  /    A nd           | Website:  www.openfoam.com                      |
|    \\/     M anipulation  |                                                 |
\*---------------------------------------------------------------------------*/
FoamFile
{
    version     2.0;
    format      ascii;
    arch        "LSB;label=32;scalar=64";
    class       volVectorField;
    location    "0";
    object      f0;
}
// * * * * * * * * * * * * * * * * * * * * * * * * * * * * * * * * * * * * * //

dimensions      [0 0 0 0 0 0 0];

internalField   nonuniform List<vector> 
1620
(
(0.639286 -0.76859 -0.0241477)
(0.64555 -0.720186 0.254162)
(0.652036 -0.619673 0.43687)
(0.656468 -0.524866 0.541817)
(0.659201 -0.450493 0.602088)
(0.660863 -0.395064 0.63811)
(0.661864 -0.354485 0.660512)
(0.662437 -0.325383 0.674761)
(0.662698 -0.305525 0.683729)
(0.662698 -0.293675 0.688902)
(0.662437 -0.289469 0.69093)
(0.661864 -0.293436 0.689805)
(0.660863 -0.307216 0.684747)
(0.659201 -0.334101 0.67367)
(0.656468 -0.379996 0.651654)
(0.652036 -0.454399 0.606936)
(0.64555 -0.566836 0.511823)
(0.639286 -0.699925 0.318463)
(0.639286 -0.76859 0.0241476)
(0.64555 -0.720186 -0.254162)
(0.652036 -0.619673 -0.43687)
(0.656468 -0.524866 -0.541817)
(0.659201 -0.450493 -0.602088)
(0.660863 -0.395064 -0.63811)
(0.661864 -0.354485 -0.660512)
(0.662437 -0.325383 -0.674761)
(0.662698 -0.305525 -0.683729)
(0.662698 -0.293675 -0.688902)
(0.662437 -0.289469 -0.69093)
(0.661864 -0.293436 -0.689805)
(0.660863 -0.307216 -0.684747)
(0.659201 -0.334101 -0.67367)
(0.656468 -0.379996 -0.651654)
(0.652036 -0.454399 -0.606936)
(0.64555 -0.566836 -0.511823)
(0.639286 -0.699925 -0.318463)
(0.0907053 -0.983507 0.156483)
(0.0911843 -0.887117 0.452449)
(0.0917226 -0.760889 0.642367)
(0.0921213 -0.652469 0.752196)
(0.0923802 -0.57134 0.815498)
(0.0925391 -0.51384 0.85288)
(0.0926355 -0.474802 0.875204)
(0.0926932 -0.450318 0.888044)
(0.0927194 -0.437962 0.894199)
(0.0927194 -0.436583 0.894873)
(0.0926932 -0.446147 0.890147)
(0.0926355 -0.467742 0.878997)
(0.0925391 -0.503756 0.858875)
(0.0923802 -0.558142 0.824587)
(0.0921213 -0.636365 0.765867)
(0.0917226 -0.74309 0.662876)
(0.0911843 -0.871329 0.482153)
(0.0907053 -0.976729 0.194354)
(0.0907053 -0.983507 -0.156483)
(0.0911843 -0.887117 -0.452449)
(0.0917226 -0.760889 -0.642367)
(0.0921213 -0.652469 -0.752196)
(0.0923802 -0.57134 -0.815498)
(0.0925391 -0.51384 -0.85288)
(0.0926355 -0.474802 -0.875204)
(0.0926932 -0.450318 -0.888044)
(0.0927194 -0.437962 -0.894199)
(0.0927194 -0.436583 -0.894873)
(0.0926932 -0.446147 -0.890147)
(0.0926355 -0.467742 -0.878997)
(0.0925391 -0.503756 -0.858875)
(0.0923802 -0.558142 -0.824587)
(0.0921213 -0.636365 -0.765867)
(0.0917226 -0.74309 -0.662876)
(0.0911843 -0.871329 -0.482153)
(0.0907053 -0.976729 -0.194354)
(-0.57779 -0.787389 0.214888)
(-0.579221 -0.700928 0.416175)
(-0.580978 -0.604609 0.544898)
(-0.582378 -0.525608 0.620139)
(-0.58334 -0.468342 0.663604)
(-0.583971 -0.429571 0.688801)
(-0.584368 -0.405394 0.702972)
(-0.5846 -0.392944 0.709815)
(-0.584708 -0.390502 0.711073)
(-0.584708 -0.397333 0.707279)
(-0.5846 -0.413549 0.698011)
(-0.584368 -0.440074 0.681798)
(-0.583971 -0.478626 0.655663)
(-0.58334 -0.531551 0.61414)
(-0.582378 -0.600872 0.547529)
(-0.580978 -0.684804 0.439896)
(-0.579221 -0.768723 0.271233)
(-0.57779 -0.815321 0.0375501)
(-0.57779 -0.787389 -0.214888)
(-0.579221 -0.700928 -0.416175)
(-0.580978 -0.604609 -0.544898)
(-0.582378 -0.525608 -0.620139)
(-0.58334 -0.468342 -0.663604)
(-0.583971 -0.429571 -0.688801)
(-0.584368 -0.405394 -0.702972)
(-0.5846 -0.392944 -0.709815)
(-0.584708 -0.390502 -0.711073)
(-0.584708 -0.397333 -0.707279)
(-0.5846 -0.413549 -0.698011)
(-0.584368 -0.440074 -0.681798)
(-0.583971 -0.478626 -0.655663)
(-0.58334 -0.531551 -0.61414)
(-0.582378 -0.600872 -0.547529)
(-0.580978 -0.684804 -0.439896)
(-0.579221 -0.768723 -0.271233)
(-0.57779 -0.815321 -0.0375501)
(0.623418 -0.780982 -0.0376455)
(0.661941 -0.639354 0.391229)
(0.682635 -0.472698 0.557284)
(0.691793 -0.363023 0.624209)
(0.69624 -0.29149 0.655959)
(0.698611 -0.242514 0.673149)
(0.699934 -0.207463 0.683412)
(0.700659 -0.18159 0.690001)
(0.70098 -0.162218 0.694487)
(0.70098 -0.147839 0.697689)
(0.700659 -0.137702 0.700082)
(0.699934 -0.131681 0.701964)
(0.698611 -0.130357 0.703527)
(0.69624 -0.135503 0.704903)
(0.691793 -0.151526 0.706019)
(0.682635 -0.190268 0.705554)
(0.661941 -0.28891 0.691639)
(0.623418 -0.546547 0.559138)
(0.623418 -0.780982 0.0376455)
(0.661941 -0.639354 -0.391229)
(0.682635 -0.472698 -0.557284)
(0.691793 -0.363023 -0.624209)
(0.69624 -0.29149 -0.655959)
(0.698611 -0.242514 -0.673149)
(0.699934 -0.207463 -0.683412)
(0.700659 -0.18159 -0.690001)
(0.70098 -0.162218 -0.694487)
(0.70098 -0.147839 -0.697689)
(0.700659 -0.137702 -0.700082)
(0.699934 -0.131681 -0.701964)
(0.698611 -0.130357 -0.703527)
(0.69624 -0.135503 -0.704903)
(0.691793 -0.151526 -0.706019)
(0.682635 -0.190268 -0.705554)
(0.661941 -0.28891 -0.691639)
(0.623418 -0.546547 -0.559138)
(0.11367 -0.951642 0.285407)
(0.117774 -0.711652 0.69259)
(0.120192 -0.523398 0.843569)
(0.121316 -0.410046 0.903961)
(0.121873 -0.340586 0.932281)
(0.122174 -0.296442 0.947204)
(0.122341 -0.268085 0.955596)
(0.122436 -0.250559 0.960328)
(0.122474 -0.241297 0.962692)
(0.122474 -0.239157 0.963226)
(0.122436 -0.244031 0.962008)
(0.122341 -0.256828 0.958682)
(0.122174 -0.279822 0.952246)
(0.121873 -0.317572 0.940369)
(0.121316 -0.379098 0.91737)
(0.120192 -0.482765 0.867463)
(0.117774 -0.663134 0.739177)
(0.11367 -0.921453 0.371489)
(0.11367 -0.951642 -0.285407)
(0.117774 -0.711652 -0.69259)
(0.120192 -0.523398 -0.843569)
(0.121316 -0.410046 -0.903961)
(0.121873 -0.340586 -0.932281)
(0.122174 -0.296442 -0.947204)
(0.122341 -0.268085 -0.955596)
(0.122436 -0.250559 -0.960328)
(0.122474 -0.241297 -0.962692)
(0.122474 -0.239157 -0.963226)
(0.122436 -0.244031 -0.962008)
(0.122341 -0.256828 -0.958682)
(0.122174 -0.279822 -0.952246)
(0.121873 -0.317572 -0.940369)
(0.121316 -0.379098 -0.91737)
(0.120192 -0.482765 -0.867463)
(0.117774 -0.663134 -0.739177)
(0.11367 -0.921453 -0.371489)
(-0.552313 -0.733251 0.396602)
(-0.562308 -0.519153 0.643653)
(-0.568957 -0.380693 0.728945)
(-0.572262 -0.303814 0.761717)
(-0.573958 -0.260136 0.776468)
(-0.57489 -0.235191 0.783701)
(-0.575418 -0.222018 0.787148)
(-0.575709 -0.217189 0.788282)
(-0.57584 -0.219104 0.787656)
(-0.57584 -0.227275 0.785337)
(-0.575709 -0.24209 0.780994)
(-0.575418 -0.264871 0.773782)
(-0.57489 -0.298227 0.761946)
(-0.573958 -0.346858 0.741796)
(-0.572262 -0.419046 0.704923)
(-0.568957 -0.528418 0.630129)
(-0.562308 -0.686851 0.460484)
(-0.552313 -0.829279 0.085127)
(-0.552313 -0.733251 -0.396602)
(-0.562308 -0.519153 -0.643653)
(-0.568957 -0.380693 -0.728945)
(-0.572262 -0.303814 -0.761717)
(-0.573958 -0.260136 -0.776468)
(-0.57489 -0.235191 -0.783701)
(-0.575418 -0.222018 -0.787148)
(-0.575709 -0.217189 -0.788282)
(-0.57584 -0.219104 -0.787656)
(-0.57584 -0.227275 -0.785337)
(-0.575709 -0.24209 -0.780994)
(-0.575418 -0.264871 -0.773782)
(-0.57489 -0.298227 -0.761946)
(-0.573958 -0.346858 -0.741796)
(-0.572262 -0.419046 -0.704923)
(-0.568957 -0.528418 -0.630129)
(-0.562308 -0.686851 -0.460484)
(-0.552313 -0.829279 -0.085127)
(0.410757 -0.687482 0.598871)
(0.637416 -0.335534 0.693626)
(0.678011 -0.205592 0.705714)
(0.690616 -0.14112 0.70932)
(0.695942 -0.101695 0.710861)
(0.698604 -0.07407 0.711664)
(0.700038 -0.0527188 0.712156)
(0.700809 -0.034888 0.712495)
(0.701149 -0.0189752 0.712763)
(0.701149 -0.00388201 0.713004)
(0.700809 0.0113145 0.713259)
(0.700038 0.0275952 0.713572)
(0.698604 0.0462743 0.714011)
(0.695942 0.0694968 0.714727)
(0.690616 0.101432 0.716073)
(0.678011 0.151744 0.719218)
(0.637416 0.247712 0.729616)
(0.410757 0.430469 0.803726)
(0.410757 -0.687482 -0.598871)
(0.637416 -0.335534 -0.693626)
(0.678011 -0.205592 -0.705714)
(0.690616 -0.14112 -0.70932)
(0.695942 -0.101695 -0.710861)
(0.698604 -0.07407 -0.711664)
(0.700038 -0.0527188 -0.712156)
(0.700809 -0.034888 -0.712495)
(0.701149 -0.0189752 -0.712763)
(0.701149 -0.00388201 -0.713004)
(0.700809 0.0113145 -0.713259)
(0.700038 0.0275952 -0.713572)
(0.698604 0.0462743 -0.714011)
(0.695942 0.0694968 -0.714727)
(0.690616 0.101432 -0.716073)
(0.678011 0.151744 -0.719218)
(0.637416 0.247712 -0.729616)
(0.410757 0.430469 -0.803726)
(0.0825817 -0.32414 0.942398)
(0.118864 -0.125909 0.984895)
(0.124623 -0.0768516 0.989223)
(0.126364 -0.0549229 0.990462)
(0.127091 -0.0425168 0.990979)
(0.127456 -0.0345346 0.991243)
(0.127651 -0.0289717 0.991396)
(0.127756 -0.0248892 0.991493)
(0.127801 -0.0217966 0.99156)
(0.127801 -0.0194224 0.99161)
(0.127756 -0.0176206 0.991649)
(0.127651 -0.0163334 0.991685)
(0.127456 -0.0155881 0.991722)
(0.127091 -0.015542 0.991769)
(0.126364 -0.016636 0.991844)
(0.124623 -0.0202143 0.991998)
(0.118864 -0.0322716 0.992386)
(0.0825817 -0.134337 0.987489)
(0.0825817 -0.32414 -0.942398)
(0.118864 -0.125909 -0.984895)
(0.124623 -0.0768516 -0.989223)
(0.126364 -0.0549229 -0.990462)
(0.127091 -0.0425168 -0.990979)
(0.127456 -0.0345346 -0.991243)
(0.127651 -0.0289717 -0.991396)
(0.127756 -0.0248892 -0.991493)
(0.127801 -0.0217966 -0.99156)
(0.127801 -0.0194224 -0.99161)
(0.127756 -0.0176206 -0.991649)
(0.127651 -0.0163334 -0.991685)
(0.127456 -0.0155881 -0.991722)
(0.127091 -0.015542 -0.991769)
(0.126364 -0.016636 -0.991844)
(0.124623 -0.0202143 -0.991998)
(0.118864 -0.0322716 -0.992386)
(0.0825817 -0.134337 -0.987489)
(-0.4135 0.130443 0.901112)
(-0.544047 0.0895278 0.834264)
(-0.562334 0.0521212 0.825266)
(-0.56773 0.0317109 0.822604)
(-0.569973 0.018071 0.821465)
(-0.571084 0.00753636 0.820857)
(-0.571681 -0.00149789 0.820474)
(-0.572001 -0.00989529 0.820193)
(-0.572143 -0.0182344 0.819951)
(-0.572143 -0.027011 0.819709)
(-0.572001 -0.036767 0.819428)
(-0.571681 -0.048231 0.819057)
(-0.571084 -0.0625503 0.818505)
(-0.569973 -0.08179 0.817583)
(-0.56773 -0.110233 0.815801)
(-0.562334 -0.158589 0.81156)
(-0.544047 -0.26277 0.796847)
(-0.4135 -0.623837 0.663208)
(-0.4135 0.130443 -0.901112)
(-0.544047 0.0895278 -0.834264)
(-0.562334 0.0521212 -0.825266)
(-0.56773 0.0317109 -0.822604)
(-0.569973 0.018071 -0.821465)
(-0.571084 0.00753636 -0.820857)
(-0.571681 -0.00149789 -0.820474)
(-0.572001 -0.00989529 -0.820193)
(-0.572143 -0.0182344 -0.819951)
(-0.572143 -0.027011 -0.819709)
(-0.572001 -0.036767 -0.819428)
(-0.571681 -0.048231 -0.819057)
(-0.571084 -0.0625503 -0.818505)
(-0.569973 -0.08179 -0.817583)
(-0.56773 -0.110233 -0.815801)
(-0.562334 -0.158589 -0.81156)
(-0.544047 -0.26277 -0.796847)
(-0.4135 -0.623837 -0.663208)
(0.601303 0.501462 0.622069)
(0.654427 0.225715 0.721649)
(0.678575 0.142717 0.720533)
(0.688454 0.114659 0.716159)
(0.693091 0.105046 0.713155)
(0.695521 0.103853 0.710961)
(0.696866 0.107639 0.709078)
(0.697598 0.115128 0.707179)
(0.697925 0.125992 0.705001)
(0.697925 0.140486 0.702256)
(0.697598 0.159398 0.698533)
(0.696866 0.184219 0.693139)
(0.695521 0.217565 0.684774)
(0.693091 0.264137 0.670713)
(0.688454 0.33281 0.644413)
(0.678575 0.441072 0.58736)
(0.654427 0.617895 0.435811)
(0.601303 0.798736 -0.0213466)
(0.601303 0.501462 -0.622069)
(0.654427 0.225715 -0.721649)
(0.678575 0.142717 -0.720533)
(0.688454 0.114659 -0.716159)
(0.693091 0.105046 -0.713155)
(0.695521 0.103853 -0.710961)
(0.696866 0.107639 -0.709078)
(0.697598 0.115128 -0.707179)
(0.697925 0.125992 -0.705001)
(0.697925 0.140486 -0.702256)
(0.697598 0.159398 -0.698533)
(0.696866 0.184219 -0.693139)
(0.695521 0.217565 -0.684774)
(0.693091 0.264137 -0.670713)
(0.688454 0.33281 -0.644413)
(0.678575 0.441072 -0.58736)
(0.654427 0.617895 -0.435811)
(0.601303 0.798736 0.0213466)
(0.117008 0.889603 0.441493)
(0.123807 0.58287 0.803078)
(0.12703 0.406988 0.904558)
(0.128374 0.314497 0.940538)
(0.12901 0.261789 0.956464)
(0.129344 0.230191 0.964511)
(0.129528 0.211299 0.968801)
(0.12963 0.201045 0.970967)
(0.129675 0.197459 0.971697)
(0.129675 0.199774 0.971223)
(0.12963 0.208113 0.969477)
(0.129528 0.223519 0.966055)
(0.129344 0.248319 0.960004)
(0.12901 0.287106 0.949171)
(0.128374 0.349098 0.928251)
(0.12703 0.453971 0.881915)
(0.123807 0.643514 0.755355)
(0.117008 0.933595 0.338688)
(0.117008 0.889603 -0.441493)
(0.123807 0.58287 -0.803078)
(0.12703 0.406988 -0.904558)
(0.128374 0.314497 -0.940538)
(0.12901 0.261789 -0.956464)
(0.129344 0.230191 -0.964511)
(0.129528 0.211299 -0.968801)
(0.12963 0.201045 -0.970967)
(0.129675 0.197459 -0.971697)
(0.129675 0.199774 -0.971223)
(0.12963 0.208113 -0.969477)
(0.129528 0.223519 -0.966055)
(0.129344 0.248319 -0.960004)
(0.12901 0.287106 -0.949171)
(0.128374 0.349098 -0.928251)
(0.12703 0.453971 -0.881915)
(0.123807 0.643514 -0.755355)
(0.117008 0.933595 -0.338688)
(-0.534404 0.836915 0.118264)
(-0.552492 0.639005 0.535187)
(-0.561605 0.46455 0.684685)
(-0.565508 0.357826 0.743076)
(-0.567375 0.291075 0.770299)
(-0.568365 0.247117 0.784789)
(-0.568915 0.217122 0.793218)
(-0.569215 0.196439 0.798377)
(-0.569349 0.182566 0.801568)
(-0.569349 0.17423 0.803421)
(-0.569215 0.170988 0.804212)
(-0.568915 0.173153 0.803961)
(-0.568365 0.18198 0.802399)
(-0.567375 0.200325 0.798721)
(-0.565508 0.234381 0.790738)
(-0.561605 0.298592 0.771649)
(-0.552492 0.429931 0.714082)
(-0.534404 0.693036 0.483853)
(-0.534404 0.836915 -0.118264)
(-0.552492 0.639005 -0.535187)
(-0.561605 0.46455 -0.684685)
(-0.565508 0.357826 -0.743076)
(-0.567375 0.291075 -0.770299)
(-0.568365 0.247117 -0.784789)
(-0.568915 0.217122 -0.793218)
(-0.569215 0.196439 -0.798377)
(-0.569349 0.182566 -0.801568)
(-0.569349 0.17423 -0.803421)
(-0.569215 0.170988 -0.804212)
(-0.568915 0.173153 -0.803961)
(-0.568365 0.18198 -0.802399)
(-0.567375 0.200325 -0.798721)
(-0.565508 0.234381 -0.790738)
(-0.561605 0.298592 -0.771649)
(-0.552492 0.429931 -0.714082)
(-0.534404 0.693036 -0.483853)
(0.665523 0.659548 0.349393)
(0.67418 0.51065 0.53359)
(0.682496 0.397348 0.613444)
(0.68783 0.328152 0.647461)
(0.690995 0.28794 0.663036)
(0.692871 0.265755 0.670302)
(0.693988 0.255542 0.673111)
(0.69462 0.254152 0.672986)
(0.694908 0.260101 0.67041)
(0.694908 0.272984 0.665268)
(0.69462 0.293249 0.656892)
(0.693988 0.322208 0.643865)
(0.692871 0.362211 0.623485)
(0.690995 0.41691 0.590519)
(0.68783 0.491145 0.534477)
(0.682496 0.588078 0.434008)
(0.67418 0.694611 0.250993)
(0.665523 0.745226 -0.0414544)
(0.665523 0.659548 -0.349393)
(0.67418 0.51065 -0.53359)
(0.682496 0.397348 -0.613444)
(0.68783 0.328152 -0.647461)
(0.690995 0.28794 -0.663036)
(0.692871 0.265755 -0.670302)
(0.693988 0.255542 -0.673111)
(0.69462 0.254152 -0.672986)
(0.694908 0.260101 -0.67041)
(0.694908 0.272984 -0.665268)
(0.69462 0.293249 -0.656892)
(0.693988 0.322208 -0.643865)
(0.692871 0.362211 -0.623485)
(0.690995 0.41691 -0.590519)
(0.68783 0.491145 -0.534477)
(0.682496 0.588078 -0.434008)
(0.67418 0.694611 -0.250993)
(0.665523 0.745226 0.0414544)
(0.128587 0.965437 0.226709)
(0.129587 0.836271 0.532783)
(0.130607 0.693339 0.708677)
(0.131296 0.582918 0.801853)
(0.131721 0.505885 0.852485)
(0.131974 0.454044 0.881151)
(0.132128 0.420538 0.897602)
(0.132217 0.40094 0.906513)
(0.132257 0.39273 0.910094)
(0.132257 0.394802 0.909197)
(0.132217 0.407222 0.903708)
(0.132128 0.431222 0.892519)
(0.131974 0.469432 0.87305)
(0.131721 0.526303 0.840033)
(0.131296 0.608394 0.782699)
(0.130607 0.72252 0.678901)
(0.129587 0.863508 0.487402)
(0.128587 0.977703 0.166017)
(0.128587 0.965437 -0.226709)
(0.129587 0.836271 -0.532783)
(0.130607 0.693339 -0.708677)
(0.131296 0.582918 -0.801853)
(0.131721 0.505885 -0.852485)
(0.131974 0.454044 -0.881151)
(0.132128 0.420538 -0.897602)
(0.132217 0.40094 -0.906513)
(0.132257 0.39273 -0.910094)
(0.132257 0.394802 -0.909197)
(0.132217 0.407222 -0.903708)
(0.132128 0.431222 -0.892519)
(0.131974 0.469432 -0.87305)
(0.131721 0.526303 -0.840033)
(0.131296 0.608394 -0.782699)
(0.130607 0.72252 -0.678901)
(0.129587 0.863508 -0.487402)
(0.128587 0.977703 -0.166017)
(-0.556958 0.829051 0.0497312)
(-0.559237 0.765213 0.318909)
(-0.561726 0.661287 0.497155)
(-0.563509 0.566032 0.601719)
(-0.564642 0.492054 0.662618)
(-0.565347 0.437739 0.699119)
(-0.565775 0.39907 0.721555)
(-0.566023 0.372735 0.735314)
(-0.566135 0.356573 0.7432)
(-0.566135 0.349462 0.746571)
(-0.566023 0.35121 0.745834)
(-0.565775 0.362583 0.740562)
(-0.565347 0.385492 0.729232)
(-0.564642 0.423386 0.708465)
(-0.563509 0.481681 0.671149)
(-0.561726 0.567067 0.602411)
(-0.559237 0.680413 0.473595)
(-0.556958 0.792162 0.249554)
(-0.556958 0.829051 -0.0497312)
(-0.559237 0.765213 -0.318909)
(-0.561726 0.661287 -0.497155)
(-0.563509 0.566032 -0.601719)
(-0.564642 0.492054 -0.662618)
(-0.565347 0.437739 -0.699119)
(-0.565775 0.39907 -0.721555)
(-0.566023 0.372735 -0.735314)
(-0.566135 0.356573 -0.7432)
(-0.566135 0.349462 -0.746571)
(-0.566023 0.35121 -0.745834)
(-0.565775 0.362583 -0.740562)
(-0.565347 0.385492 -0.729232)
(-0.564642 0.423386 -0.708465)
(-0.563509 0.481681 -0.671149)
(-0.561726 0.567067 -0.602411)
(-0.559237 0.680413 -0.473595)
(-0.556958 0.792162 -0.249554)
(0.679642 0.695585 0.232912)
(0.681979 0.618449 0.390417)
(0.685066 0.537557 0.491648)
(0.687719 0.472461 0.551201)
(0.689658 0.426229 0.585406)
(0.690973 0.396132 0.604678)
(0.691828 0.378909 0.614656)
(0.692335 0.372166 0.618195)
(0.692571 0.374471 0.616536)
(0.692571 0.385221 0.609877)
(0.692335 0.404507 0.597534)
(0.691828 0.433018 0.577814)
(0.690973 0.471903 0.547598)
(0.689658 0.522335 0.501536)
(0.687719 0.584214 0.430971)
(0.685066 0.652704 0.323516)
(0.681979 0.711917 0.167567)
(0.679642 0.732882 -0.0311586)
(0.679642 0.695585 -0.232912)
(0.681979 0.618449 -0.390417)
(0.685066 0.537557 -0.491648)
(0.687719 0.472461 -0.551201)
(0.689658 0.426229 -0.585406)
(0.690973 0.396132 -0.604678)
(0.691828 0.378909 -0.614656)
(0.692335 0.372166 -0.618195)
(0.692571 0.374471 -0.616536)
(0.692571 0.385221 -0.609877)
(0.692335 0.404507 -0.597534)
(0.691828 0.433018 -0.577814)
(0.690973 0.471903 -0.547598)
(0.689658 0.522335 -0.501536)
(0.687719 0.584214 -0.430971)
(0.685066 0.652704 -0.323516)
(0.681979 0.711917 -0.167567)
(0.679642 0.732882 0.0311586)
(0.134937 0.979585 0.149017)
(0.135212 0.916893 0.375532)
(0.135591 0.828664 0.543076)
(0.13593 0.743278 0.655027)
(0.136187 0.673143 0.726864)
(0.136366 0.620494 0.772264)
(0.136486 0.583904 0.800267)
(0.136556 0.561373 0.816218)
(0.13659 0.551375 0.823)
(0.13659 0.553128 0.821823)
(0.136556 0.566638 0.812572)
(0.136486 0.592675 0.793793)
(0.136366 0.632688 0.762305)
(0.136187 0.688442 0.712391)
(0.13593 0.760788 0.634606)
(0.135591 0.846323 0.515124)
(0.135212 0.93088 0.339381)
(0.134937 0.985065 0.106953)
(0.134937 0.979585 -0.149017)
(0.135212 0.916893 -0.375532)
(0.135591 0.828664 -0.543076)
(0.13593 0.743278 -0.655027)
(0.136187 0.673143 -0.726864)
(0.136366 0.620494 -0.772264)
(0.136486 0.583904 -0.800267)
(0.136556 0.561373 -0.816218)
(0.13659 0.551375 -0.823)
(0.13659 0.553128 -0.821823)
(0.136556 0.566638 -0.812572)
(0.136486 0.592675 -0.793793)
(0.136366 0.632688 -0.762305)
(0.136187 0.688442 -0.712391)
(0.13593 0.760788 -0.634606)
(0.135591 0.846323 -0.515124)
(0.135212 0.93088 -0.339381)
(0.134937 0.985065 -0.106953)
(-0.558208 0.829091 0.0318174)
(-0.558802 0.800174 0.217857)
(-0.559653 0.742753 0.367568)
(-0.560458 0.677952 0.475676)
(-0.561091 0.618863 0.549714)
(-0.561546 0.570531 0.599299)
(-0.561852 0.533827 0.631942)
(-0.562039 0.508161 0.652598)
(-0.562127 0.492752 0.664235)
(-0.562127 0.487132 0.668368)
(-0.562039 0.491327 0.665364)
(-0.561852 0.505926 0.654493)
(-0.561546 0.532064 0.633698)
(-0.561091 0.571212 0.599077)
(-0.560458 0.624389 0.544082)
(-0.559653 0.689982 0.459035)
(-0.558802 0.759423 0.333193)
(-0.558208 0.81341 0.163609)
(-0.558208 0.829091 -0.0318174)
(-0.558802 0.800174 -0.217857)
(-0.559653 0.742753 -0.367568)
(-0.560458 0.677952 -0.475676)
(-0.561091 0.618863 -0.549714)
(-0.561546 0.570531 -0.599299)
(-0.561852 0.533827 -0.631942)
(-0.562039 0.508161 -0.652598)
(-0.562127 0.492752 -0.664235)
(-0.562127 0.487132 -0.668368)
(-0.562039 0.491327 -0.665364)
(-0.561852 0.505926 -0.654493)
(-0.561546 0.532064 -0.633698)
(-0.561091 0.571212 -0.599077)
(-0.560458 0.624389 -0.544082)
(-0.559653 0.689982 -0.459035)
(-0.558802 0.759423 -0.333193)
(-0.558208 0.81341 -0.163609)
(0.684305 0.709068 0.170146)
(0.685189 0.665308 0.296447)
(0.686543 0.61233 0.392058)
(0.687922 0.562664 0.458445)
(0.68909 0.522485 0.50216)
(0.689975 0.493385 0.529627)
(0.690597 0.474928 0.545452)
(0.690986 0.466177 0.552466)
(0.691171 0.466318 0.552115)
(0.691171 0.474864 0.544782)
(0.690986 0.491656 0.529918)
(0.690597 0.516748 0.50601)
(0.689975 0.550138 0.470406)
(0.68909 0.591184 0.419114)
(0.687922 0.637512 0.346903)
(0.686543 0.683296 0.248525)
(0.685189 0.718006 0.122409)
(0.684305 0.728816 -0.0235351)
(0.684305 0.709068 -0.170146)
(0.685189 0.665308 -0.296447)
(0.686543 0.61233 -0.392058)
(0.687922 0.562664 -0.458445)
(0.68909 0.522485 -0.50216)
(0.689975 0.493385 -0.529627)
(0.690597 0.474928 -0.545452)
(0.690986 0.466177 -0.552466)
(0.691171 0.466318 -0.552115)
(0.691171 0.474864 -0.544782)
(0.690986 0.491656 -0.529918)
(0.690597 0.516748 -0.50601)
(0.689975 0.550138 -0.470406)
(0.68909 0.591184 -0.419114)
(0.687922 0.637512 -0.346903)
(0.686543 0.683296 -0.248525)
(0.685189 0.718006 -0.122409)
(0.684305 0.728816 0.0235351)
(0.142811 0.983723 0.109063)
(0.142924 0.9489 0.281355)
(0.143099 0.894505 0.423537)
(0.143282 0.835042 0.531201)
(0.143442 0.780637 0.608301)
(0.143567 0.736233 0.661324)
(0.143656 0.703452 0.696073)
(0.143712 0.6824 0.716713)
(0.143738 0.672734 0.725788)
(0.143738 0.674174 0.724451)
(0.143712 0.686682 0.712611)
(0.143656 0.710447 0.688932)
(0.143567 0.745653 0.650684)
(0.143442 0.791916 0.593543)
(0.143282 0.847157 0.511659)
(0.143099 0.905802 0.398804)
(0.142924 0.957156 0.251844)
(0.142811 0.986784 0.0765597)
(0.142811 0.983723 -0.109063)
(0.142924 0.9489 -0.281355)
(0.143099 0.894505 -0.423537)
(0.143282 0.835042 -0.531201)
(0.143442 0.780637 -0.608301)
(0.143567 0.736233 -0.661324)
(0.143656 0.703452 -0.696073)
(0.143712 0.6824 -0.716713)
(0.143738 0.672734 -0.725788)
(0.143738 0.674174 -0.724451)
(0.143712 0.686682 -0.712611)
(0.143656 0.710447 -0.688932)
(0.143567 0.745653 -0.650684)
(0.143442 0.791916 -0.593543)
(0.143282 0.847157 -0.511659)
(0.143099 0.905802 -0.398804)
(0.142924 0.957156 -0.251844)
(0.142811 0.986784 -0.0765597)
(-0.555 0.83152 0.0234355)
(-0.555228 0.815787 0.161904)
(-0.555598 0.78193 0.28266)
(-0.556001 0.739514 0.379449)
(-0.556363 0.696847 0.452619)
(-0.556652 0.659108 0.505683)
(-0.556861 0.628836 0.542651)
(-0.556997 0.607019 0.566817)
(-0.557064 0.593947 0.580437)
(-0.557064 0.589717 0.584734)
(-0.556997 0.594471 0.579964)
(-0.556861 0.608454 0.565411)
(-0.556652 0.631897 0.5393)
(-0.556363 0.664658 0.498688)
(-0.556001 0.705466 0.439524)
(-0.555598 0.750725 0.357383)
(-0.555228 0.793351 0.24963)
(-0.555 0.823283 0.119079)
(-0.555 0.83152 -0.0234355)
(-0.555228 0.815787 -0.161904)
(-0.555598 0.78193 -0.28266)
(-0.556001 0.739514 -0.379449)
(-0.556363 0.696847 -0.452619)
(-0.556652 0.659108 -0.505683)
(-0.556861 0.628836 -0.542651)
(-0.556997 0.607019 -0.566817)
(-0.557064 0.593947 -0.580437)
(-0.557064 0.589717 -0.584734)
(-0.556997 0.594471 -0.579964)
(-0.556861 0.608454 -0.565411)
(-0.556652 0.631897 -0.5393)
(-0.556363 0.664658 -0.498688)
(-0.556001 0.705466 -0.439524)
(-0.555598 0.750725 -0.357383)
(-0.555228 0.793351 -0.24963)
(-0.555 0.823283 -0.119079)
(0.686926 0.714923 0.13045)
(0.687338 0.688437 0.231563)
(0.688016 0.653907 0.314705)
(0.688782 0.618529 0.378155)
(0.689496 0.587372 0.42378)
(0.690086 0.563067 0.454683)
(0.690526 0.546573 0.473742)
(0.690814 0.537997 0.483048)
(0.690953 0.537123 0.483821)
(0.690953 0.543666 0.476457)
(0.690814 0.557345 0.46059)
(0.690526 0.577795 0.435117)
(0.690086 0.604327 0.398208)
(0.689496 0.635512 0.347447)
(0.688782 0.668591 0.280294)
(0.688016 0.698943 0.195224)
(0.687338 0.720279 0.093623)
(0.686926 0.726494 -0.0184037)
(0.686926 0.714923 -0.13045)
(0.687338 0.688437 -0.231563)
(0.688016 0.653907 -0.314705)
(0.688782 0.618529 -0.378155)
(0.689496 0.587372 -0.42378)
(0.690086 0.563067 -0.454683)
(0.690526 0.546573 -0.473742)
(0.690814 0.537997 -0.483048)
(0.690953 0.537123 -0.483821)
(0.690953 0.543666 -0.476457)
(0.690814 0.557345 -0.46059)
(0.690526 0.577795 -0.435117)
(0.690086 0.604327 -0.398208)
(0.689496 0.635512 -0.347447)
(0.688782 0.668591 -0.280294)
(0.688016 0.698943 -0.195224)
(0.687338 0.720279 -0.093623)
(0.686926 0.726494 0.0184037)
(0.154652 0.984356 0.0844182)
(0.154712 0.963377 0.219016)
(0.154806 0.928893 0.336441)
(0.154917 0.88852 0.431894)
(0.155022 0.848956 0.505214)
(0.155111 0.814702 0.55875)
(0.155178 0.78823 0.595495)
(0.155224 0.770669 0.618041)
(0.155243 0.762431 0.628171)
(0.155243 0.763602 0.626746)
(0.155224 0.774126 0.613706)
(0.155178 0.793783 0.588072)
(0.155111 0.82199 0.547972)
(0.155022 0.857381 0.490781)
(0.154917 0.897184 0.413595)
(0.154806 0.936596 0.31436)
(0.154712 0.968768 0.193787)
(0.154652 0.986302 0.0573615)
(0.154652 0.984356 -0.0844182)
(0.154712 0.963377 -0.219016)
(0.154806 0.928893 -0.336441)
(0.154917 0.88852 -0.431894)
(0.155022 0.848956 -0.505214)
(0.155111 0.814702 -0.55875)
(0.155178 0.78823 -0.595495)
(0.155224 0.770669 -0.618041)
(0.155243 0.762431 -0.628171)
(0.155243 0.763602 -0.626746)
(0.155224 0.774126 -0.613706)
(0.155178 0.793783 -0.588072)
(0.155111 0.82199 -0.547972)
(0.155022 0.857381 -0.490781)
(0.154917 0.897184 -0.413595)
(0.154806 0.936596 -0.31436)
(0.154712 0.968768 -0.193787)
(0.154652 0.986302 -0.0573615)
(-0.549268 0.835442 0.0184848)
(-0.549377 0.825998 0.126141)
(-0.549565 0.804905 0.223844)
(-0.549786 0.776943 0.30675)
(-0.550001 0.747085 0.373312)
(-0.550186 0.719245 0.424243)
(-0.550328 0.695988 0.461237)
(-0.550424 0.6788 0.486071)
(-0.550472 0.668467 0.500132)
(-0.550472 0.665387 0.504223)
(-0.550424 0.669736 0.498485)
(-0.550328 0.681501 0.482385)
(-0.550186 0.700375 0.45472)
(-0.550001 0.725486 0.413726)
(-0.549786 0.754985 0.357397)
(-0.549565 0.785618 0.284225)
(-0.549377 0.812641 0.194423)
(-0.549268 0.830647 0.0912712)
(-0.549268 0.835442 -0.0184848)
(-0.549377 0.825998 -0.126141)
(-0.549565 0.804905 -0.223844)
(-0.549786 0.776943 -0.30675)
(-0.550001 0.747085 -0.373312)
(-0.550186 0.719245 -0.424243)
(-0.550328 0.695988 -0.461237)
(-0.550424 0.6788 -0.486071)
(-0.550472 0.668467 -0.500132)
(-0.550472 0.665387 -0.504223)
(-0.550424 0.669736 -0.498485)
(-0.550328 0.681501 -0.482385)
(-0.550186 0.700375 -0.45472)
(-0.550001 0.725486 -0.413726)
(-0.549786 0.754985 -0.357397)
(-0.549565 0.785618 -0.284225)
(-0.549377 0.812641 -0.194423)
(-0.549268 0.830647 -0.0912712)
(0.69004 0.716477 0.102496)
(0.690257 0.699885 0.18359)
(0.690628 0.677336 0.253472)
(0.691077 0.652944 0.309961)
(0.691523 0.630225 0.353005)
(0.691913 0.611558 0.383734)
(0.692217 0.59828 0.403604)
(0.692426 0.59098 0.413871)
(0.692527 0.589813 0.415363)
(0.692527 0.594661 0.408392)
(0.692426 0.605216 0.392759)
(0.692217 0.620932 0.367803)
(0.691913 0.640867 0.332483)
(0.691523 0.663486 0.285627)
(0.691077 0.686423 0.226353)
(0.690628 0.706449 0.154796)
(0.690257 0.719878 0.0729419)
(0.69004 0.723618 -0.0148733)
(0.69004 0.716477 -0.102496)
(0.690257 0.699885 -0.18359)
(0.690628 0.677336 -0.253472)
(0.691077 0.652944 -0.309961)
(0.691523 0.630225 -0.353005)
(0.691913 0.611558 -0.383734)
(0.692217 0.59828 -0.403604)
(0.692426 0.59098 -0.413871)
(0.692527 0.589813 -0.415363)
(0.692527 0.594661 -0.408392)
(0.692426 0.605216 -0.392759)
(0.692217 0.620932 -0.367803)
(0.691913 0.640867 -0.332483)
(0.691523 0.663486 -0.285627)
(0.691077 0.686423 -0.226353)
(0.690628 0.706449 -0.154796)
(0.690257 0.719878 -0.0729419)
(0.69004 0.723618 0.0148733)
(0.17228 0.982741 0.0673813)
(0.172315 0.969547 0.174027)
(0.172373 0.947293 0.270042)
(0.172449 0.920165 0.351508)
(0.172521 0.892385 0.416997)
(0.172587 0.867335 0.466845)
(0.172636 0.847324 0.502233)
(0.172672 0.833734 0.524473)
(0.17269 0.82728 0.534589)
(0.17269 0.828234 0.533111)
(0.172672 0.836527 0.520007)
(0.172636 0.851752 0.494688)
(0.172587 0.873031 0.456103)
(0.172521 0.898804 0.402974)
(0.172449 0.926574 0.334248)
(0.172373 0.952822 0.249835)
(0.172315 0.973319 0.151518)
(0.17228 0.984083 0.0435956)
(0.17228 0.982741 -0.0673813)
(0.172315 0.969547 -0.174027)
(0.172373 0.947293 -0.270042)
(0.172449 0.920165 -0.351508)
(0.172521 0.892385 -0.416997)
(0.172587 0.867335 -0.466845)
(0.172636 0.847324 -0.502233)
(0.172672 0.833734 -0.524473)
(0.17269 0.82728 -0.534589)
(0.17269 0.828234 -0.533111)
(0.172672 0.836527 -0.520007)
(0.172636 0.851752 -0.494688)
(0.172587 0.873031 -0.456103)
(0.172521 0.898804 -0.402974)
(0.172449 0.926574 -0.334248)
(0.172373 0.952822 -0.249835)
(0.172315 0.973319 -0.151518)
(0.17228 0.984083 -0.0435956)
(-0.541109 0.840816 0.0151462)
(-0.541167 0.834852 0.100801)
(-0.541272 0.82129 0.180296)
(-0.541399 0.802715 0.25007)
(-0.54153 0.782124 0.308263)
(-0.54165 0.762231 0.354428)
(-0.541747 0.745124 0.388972)
(-0.541812 0.73224 0.412631)
(-0.541846 0.724466 0.426089)
(-0.541846 0.722287 0.429771)
(-0.541812 0.725869 0.423738)
(-0.541747 0.735067 0.40766)
(-0.54165 0.749367 0.380873)
(-0.54153 0.767736 0.342528)
(-0.541399 0.788468 0.2919)
(-0.541272 0.809099 0.228874)
(-0.541167 0.82659 0.154555)
(-0.541109 0.837887 0.0717363)
(-0.541109 0.840816 -0.0151462)
(-0.541167 0.834852 -0.100801)
(-0.541272 0.82129 -0.180296)
(-0.541399 0.802715 -0.25007)
(-0.54153 0.782124 -0.308263)
(-0.54165 0.762231 -0.354428)
(-0.541747 0.745124 -0.388972)
(-0.541812 0.73224 -0.412631)
(-0.541846 0.724466 -0.426089)
(-0.541846 0.722287 -0.429771)
(-0.541812 0.725869 -0.423738)
(-0.541747 0.735067 -0.40766)
(-0.54165 0.749367 -0.380873)
(-0.54153 0.767736 -0.342528)
(-0.541399 0.788468 -0.2919)
(-0.541272 0.809099 -0.228874)