/*--------------------------------*- C++ -*----------------------------------*\
| =========                 |                                                 |
| \\      /  F ield         | OpenFOAM: The Open Source CFD Toolbox           |
|  \\    /   O peration     | Version:  2312                                  |
|   \\  /    A nd           | Website:  www.openfoam.com                      |
|    \\/     M anipulation  |                                                 |
\*---------------------------------------------------------------------------*/
FoamFile
{
    version     2.0;
    format      ascii;
    arch        "LSB;label=32;scalar=64";
    class       surfaceVectorField;
    location    "0";
    object      f0f;
}
// * * * * * * * * * * * * * * * * * * * * * * * * * * * * * * * * * * * * * //

dimensions      [0 0 0 0 0 0 0];

internalField   nonuniform List<vector> 
4212
(
(0.139493 -0.735815 -0.66266)
(0.00960114 -0.748859 -0.66266)
(0.0864832 -0.916032 -0.391671)
(0.0762588 -0.727427 -0.681934)
(0.265147 -0.700413 -0.66266)
(0.244236 -0.887098 -0.391671)
(0.201415 -0.703133 -0.681935)
(0.382744 -0.643729 -0.662661)
(0.394569 -0.831209 -0.391672)
(0.320454 -0.657476 -0.681934)
(0.488711 -0.567486 -0.662662)
(0.532913 -0.750064 -0.391674)
(0.429755 -0.591839 -0.681937)
(0.579829 -0.474002 -0.662662)
(0.655063 -0.64613 -0.391674)
(0.525997 -0.508222 -0.681937)
(0.65333 -0.366115 -0.662661)
(0.757309 -0.522565 -0.391674)
(0.606256 -0.409165 -0.681937)
(0.706981 -0.247104 -0.66266)
(0.836548 -0.38312 -0.391672)
(0.668099 -0.297673 -0.681934)
(0.739149 -0.120583 -0.66266)
(0.890367 -0.232034 -0.391671)
(0.709639 -0.177136 -0.681935)
(0.748859 0.00960114 -0.66266)
(0.917133 -0.0738985 -0.391671)
(0.729618 -0.0512181 -0.681934)
(0.735815 0.139493 -0.66266)
(0.916032 0.0864832 -0.391671)
(0.727427 0.0762588 -0.681934)
(0.700413 0.265147 -0.66266)
(0.887098 0.244236 -0.391671)
(0.703133 0.201415 -0.681935)
(0.643729 0.382744 -0.662661)
(0.831209 0.394569 -0.391672)
(0.657476 0.320454 -0.681934)
(0.567486 0.488711 -0.662662)
(0.750064 0.532913 -0.391674)
(0.591839 0.429755 -0.681937)
(0.474002 0.579829 -0.662662)
(0.64613 0.655063 -0.391674)
(0.508222 0.525997 -0.681937)
(0.366115 0.65333 -0.662661)
(0.522565 0.757309 -0.391674)
(0.409165 0.606256 -0.681937)
(0.247104 0.706981 -0.66266)
(0.38312 0.836548 -0.391672)
(0.297673 0.668099 -0.681934)
(0.120583 0.739149 -0.66266)
(0.232034 0.890367 -0.391671)
(0.177136 0.709639 -0.681935)
(-0.00960114 0.748859 -0.66266)
(0.0738985 0.917133 -0.391671)
(0.0512181 0.729618 -0.681934)
(-0.139493 0.735815 -0.66266)
(-0.0864832 0.916032 -0.391671)
(-0.0762588 0.727427 -0.681934)
(-0.265147 0.700413 -0.66266)
(-0.244236 0.887098 -0.391671)
(-0.201415 0.703133 -0.681935)
(-0.382744 0.643729 -0.662661)
(-0.394569 0.831209 -0.391672)
(-0.320454 0.657476 -0.681934)
(-0.488711 0.567486 -0.662662)
(-0.532913 0.750064 -0.391674)
(-0.429755 0.591839 -0.681937)
(-0.579829 0.474002 -0.662662)
(-0.655063 0.64613 -0.391674)
(-0.525997 0.508222 -0.681937)
(-0.65333 0.366115 -0.662661)
(-0.757309 0.522565 -0.391674)
(-0.606256 0.409165 -0.681937)
(-0.706981 0.247104 -0.66266)
(-0.836548 0.38312 -0.391672)
(-0.668099 0.297673 -0.681934)
(-0.739149 0.120583 -0.66266)
(-0.890367 0.232034 -0.391671)
(-0.709639 0.177136 -0.681935)
(-0.748859 -0.00960114 -0.66266)
(-0.917133 0.0738985 -0.391671)
(-0.729618 0.0512181 -0.681934)
(-0.735815 -0.139493 -0.66266)
(-0.916032 -0.0864832 -0.391671)
(-0.727427 -0.0762588 -0.681934)
(-0.700413 -0.265147 -0.66266)
(-0.887098 -0.244236 -0.391671)
(-0.703133 -0.201415 -0.681935)
(-0.643729 -0.382744 -0.662661)
(-0.831209 -0.394569 -0.391672)
(-0.657476 -0.320454 -0.681934)
(-0.567486 -0.488711 -0.662662)
(-0.750064 -0.532913 -0.391674)
(-0.591839 -0.429755 -0.681937)
(-0.474002 -0.579829 -0.662662)
(-0.64613 -0.655063 -0.391674)
(-0.508222 -0.525997 -0.681937)
(-0.366115 -0.65333 -0.662661)
(-0.522565 -0.757309 -0.391674)
(-0.409165 -0.606256 -0.681937)
(-0.247104 -0.706981 -0.66266)
(-0.38312 -0.836548 -0.391672)
(-0.297673 -0.668099 -0.681934)
(-0.120583 -0.739149 -0.66266)
(-0.232034 -0.890367 -0.391671)
(-0.177136 -0.709639 -0.681935)
(-0.0738985 -0.917133 -0.391671)
(-0.0512181 -0.729618 -0.681934)
(0.174523 -0.980279 -0.092708)
(0.00164789 -0.995692 -0.092708)
(0.0772898 -0.959669 0.270299)
(0.0896437 -0.990145 -0.107592)
(0.342096 -0.935081 -0.0927077)
(0.24276 -0.931668 0.2703)
(0.260218 -0.959537 -0.107593)
(0.499274 -0.86147 -0.0927088)
(0.400856 -0.875358 0.270301)
(0.422887 -0.899772 -0.107592)
(0.641281 -0.761684 -0.0927113)
(0.546771 -0.792452 0.270298)
(0.572706 -0.812669 -0.107594)
(0.763803 -0.638756 -0.0927113)
(0.676072 -0.685469 0.270295)
(0.705124 -0.700874 -0.107595)
(0.863118 -0.49642 -0.0927088)
(0.78483 -0.557657 0.270298)
(0.816116 -0.567783 -0.107594)
(0.936208 -0.338999 -0.0927077)
(0.869742 -0.4129 0.270301)
(0.902312 -0.41744 -0.107592)
(0.980851 -0.171277 -0.092708)
(0.928229 -0.255596 0.2703)
(0.961092 -0.254412 -0.107593)
(0.995692 0.00164789 -0.092708)
(0.958511 -0.0905287 0.270299)
(0.990669 -0.0836563 -0.107592)
(0.980279 0.174523 -0.092708)
(0.959669 0.0772898 0.270299)
(0.990145 0.0896437 -0.107592)
(0.935081 0.342096 -0.0927077)
(0.931668 0.24276 0.2703)
(0.959537 0.260218 -0.107593)
(0.86147 0.499274 -0.0927088)
(0.875358 0.400856 0.270301)
(0.899772 0.422887 -0.107592)
(0.761684 0.641281 -0.0927113)
(0.792452 0.546771 0.270298)
(0.812669 0.572706 -0.107594)
(0.638756 0.763803 -0.0927113)
(0.685469 0.676072 0.270295)
(0.700874 0.705124 -0.107595)
(0.49642 0.863118 -0.0927088)
(0.557657 0.78483 0.270298)
(0.567783 0.816116 -0.107594)
(0.338999 0.936208 -0.0927077)
(0.4129 0.869742 0.270301)
(0.41744 0.902312 -0.107592)
(0.171277 0.980851 -0.092708)
(0.255596 0.928229 0.2703)
(0.254412 0.961092 -0.107593)
(-0.00164789 0.995692 -0.092708)
(0.0905287 0.958511 0.270299)
(0.0836563 0.990669 -0.107592)
(-0.174523 0.980279 -0.092708)
(-0.0772898 0.959669 0.270299)
(-0.0896437 0.990145 -0.107592)
(-0.342096 0.935081 -0.0927077)
(-0.24276 0.931668 0.2703)
(-0.260218 0.959537 -0.107593)
(-0.499274 0.86147 -0.0927088)
(-0.400856 0.875358 0.270301)
(-0.422887 0.899772 -0.107592)
(-0.641281 0.761684 -0.0927113)
(-0.546771 0.792452 0.270298)
(-0.572706 0.812669 -0.107594)
(-0.763803 0.638756 -0.0927113)
(-0.676072 0.685469 0.270295)
(-0.705124 0.700874 -0.107595)
(-0.863118 0.49642 -0.0927088)
(-0.78483 0.557657 0.270298)
(-0.816116 0.567783 -0.107594)
(-0.936208 0.338999 -0.0927077)
(-0.869742 0.4129 0.270301)
(-0.902312 0.41744 -0.107592)
(-0.980851 0.171277 -0.092708)
(-0.928229 0.255596 0.2703)
(-0.961092 0.254412 -0.107593)
(-0.995692 -0.00164789 -0.092708)
(-0.958511 0.0905287 0.270299)
(-0.990669 0.0836563 -0.107592)
(-0.980279 -0.174523 -0.092708)
(-0.959669 -0.0772898 0.270299)
(-0.990145 -0.0896437 -0.107592)
(-0.935081 -0.342096 -0.0927077)
(-0.931668 -0.24276 0.2703)
(-0.959537 -0.260218 -0.107593)
(-0.86147 -0.499274 -0.0927088)
(-0.875358 -0.400856 0.270301)
(-0.899772 -0.422887 -0.107592)
(-0.761684 -0.641281 -0.0927113)
(-0.792452 -0.546771 0.270298)
(-0.812669 -0.572706 -0.107594)
(-0.638756 -0.763803 -0.0927113)
(-0.685469 -0.676072 0.270295)
(-0.700874 -0.705124 -0.107595)
(-0.49642 -0.863118 -0.0927088)
(-0.557657 -0.78483 0.270298)
(-0.567783 -0.816116 -0.107594)
(-0.338999 -0.936208 -0.0927077)
(-0.4129 -0.869742 0.270301)
(-0.41744 -0.902312 -0.107592)
(-0.171277 -0.980851 -0.092708)
(-0.255596 -0.928229 0.2703)
(-0.254412 -0.961092 -0.107593)
(-0.0905287 -0.958511 0.270299)
(-0.0836563 -0.990669 -0.107592)
(0.123437 -0.801984 0.584453)
(-0.0177004 -0.811235 0.584453)
(0.047101 -0.813413 0.579776)
(0.260825 -0.768365 0.584453)
(0.187632 -0.792877 0.579776)
(0.390289 -0.711399 0.584453)
(0.322464 -0.748249 0.579777)
(0.507893 -0.632819 0.584452)
(0.447497 -0.680886 0.579777)
(0.610064 -0.535012 0.584452)
(0.558934 -0.592836 0.579775)
(0.693699 -0.420947 0.584453)
(0.653386 -0.486771 0.579777)
(0.756257 -0.294091 0.584453)
(0.727987 -0.365916 0.579777)
(0.795837 -0.1583 0.584453)
(0.780468 -0.233942 0.579776)
(0.811235 -0.0177004 0.584453)
(0.809234 -0.0948628 0.579776)
(0.801984 0.123437 0.584453)
(0.813413 0.047101 0.579776)
(0.768365 0.260825 0.584453)
(0.792877 0.187632 0.579776)
(0.711399 0.390289 0.584453)
(0.748249 0.322464 0.579777)
(0.632819 0.507893 0.584452)
(0.680886 0.447497 0.579777)
(0.535012 0.610064 0.584452)
(0.592836 0.558934 0.579775)
(0.420947 0.693699 0.584453)
(0.486771 0.653386 0.579777)
(0.294091 0.756257 0.584453)
(0.365916 0.727987 0.579777)
(0.1583 0.795837 0.584453)
(0.233942 0.780468 0.579776)
(0.0177004 0.811235 0.584453)
(0.0948628 0.809234 0.579776)
(-0.123437 0.801984 0.584453)
(-0.047101 0.813413 0.579776)
(-0.260825 0.768365 0.584453)
(-0.187632 0.792877 0.579776)
(-0.390289 0.711399 0.584453)
(-0.322464 0.748249 0.579777)
(-0.507893 0.632819 0.584452)
(-0.447497 0.680886 0.579777)
(-0.610064 0.535012 0.584452)
(-0.558934 0.592836 0.579775)
(-0.693699 0.420947 0.584453)
(-0.653386 0.486771 0.579777)
(-0.756257 0.294091 0.584453)
(-0.727987 0.365916 0.579777)
(-0.795837 0.1583 0.584453)
(-0.780468 0.233942 0.579776)
(-0.811235 0.0177004 0.584453)
(-0.809234 0.0948628 0.579776)
(-0.801984 -0.123437 0.584453)
(-0.813413 -0.047101 0.579776)
(-0.768365 -0.260825 0.584453)
(-0.792877 -0.187632 0.579776)
(-0.711399 -0.390289 0.584453)
(-0.748249 -0.322464 0.579777)
(-0.632819 -0.507893 0.584452)
(-0.680886 -0.447497 0.579777)
(-0.535012 -0.610064 0.584452)
(-0.592836 -0.558934 0.579775)
(-0.420947 -0.693699 0.584453)
(-0.486771 -0.653386 0.579777)
(-0.294091 -0.756257 0.584453)
(-0.365916 -0.727987 0.579777)
(-0.1583 -0.795837 0.584453)
(-0.233942 -0.780468 0.579776)
(-0.0948628 -0.809234 0.579776)
(0.139729 -0.699505 -0.700834)
(0.0161386 -0.713142 -0.700833)
(0.0920609 -0.899028 -0.428105)
(0.0710701 -0.709565 -0.701047)
(0.259074 -0.664614 -0.700835)
(0.246775 -0.869383 -0.428107)
(0.193205 -0.686442 -0.701048)
(0.370547 -0.609528 -0.700835)
(0.393993 -0.813323 -0.428107)
(0.309469 -0.642465 -0.701047)
(0.470761 -0.535922 -0.700837)
(0.529239 -0.732549 -0.42811)
(0.41633 -0.578963 -0.70105)
(0.55667 -0.446034 -0.700837)
(0.648405 -0.629519 -0.428108)
(0.510542 -0.497874 -0.701048)
(0.625666 -0.342595 -0.700835)
(0.747867 -0.507362 -0.42811)
(0.589238 -0.401656 -0.70105)
(0.675653 -0.228744 -0.700835)
(0.82461 -0.369788 -0.428107)
(0.650035 -0.293234 -0.701047)
(0.70511 -0.107943 -0.700834)
(0.876295 -0.220978 -0.428107)
(0.691079 -0.175901 -0.701048)
(0.713142 0.0161386 -0.700833)
(0.901356 -0.0654551 -0.428105)
(0.711126 -0.0532257 -0.701047)
(0.699505 0.139729 -0.700834)
(0.899028 0.0920609 -0.428105)
(0.709565 0.0710701 -0.701047)
(0.664614 0.259074 -0.700835)
(0.869383 0.246775 -0.428107)
(0.686442 0.193205 -0.701048)
(0.609528 0.370547 -0.700835)
(0.813323 0.393993 -0.428107)
(0.642465 0.309469 -0.701047)
(0.535922 0.470761 -0.700837)
(0.732549 0.529239 -0.42811)
(0.578963 0.41633 -0.70105)
(0.446034 0.55667 -0.700837)
(0.629519 0.648405 -0.428108)
(0.497874 0.510542 -0.701048)
(0.342595 0.625666 -0.700835)
(0.507362 0.747867 -0.42811)
(0.401656 0.589238 -0.70105)
(0.228744 0.675653 -0.700835)
(0.369788 0.82461 -0.428107)
(0.293234 0.650035 -0.701047)
(0.107943 0.70511 -0.700834)
(0.220978 0.876295 -0.428107)
(0.175901 0.691079 -0.701048)
(-0.0161386 0.713142 -0.700833)
(0.0654551 0.901356 -0.428105)
(0.0532257 0.711126 -0.701047)
(-0.139729 0.699505 -0.700834)
(-0.0920609 0.899028 -0.428105)
(-0.0710701 0.709565 -0.701047)
(-0.259074 0.664614 -0.700835)
(-0.246775 0.869383 -0.428107)
(-0.193205 0.686442 -0.701048)
(-0.370547 0.609528 -0.700835)
(-0.393993 0.813323 -0.428107)
(-0.309469 0.642465 -0.701047)
(-0.470761 0.535922 -0.700837)
(-0.529239 0.732549 -0.42811)
(-0.41633 0.578963 -0.70105)
(-0.55667 0.446034 -0.700837)
(-0.648405 0.629519 -0.428108)
(-0.510542 0.497874 -0.701048)
(-0.625666 0.342595 -0.700835)
(-0.747867 0.507362 -0.42811)
(-0.589238 0.401656 -0.70105)
(-0.675653 0.228744 -0.700835)
(-0.82461 0.369788 -0.428107)
(-0.650035 0.293234 -0.701047)
(-0.70511 0.107943 -0.700834)
(-0.876295 0.220978 -0.428107)
(-0.691079 0.175901 -0.701048)
(-0.713142 -0.0161386 -0.700833)
(-0.901356 0.0654551 -0.428105)
(-0.711126 0.0532257 -0.701047)
(-0.699505 -0.139729 -0.700834)
(-0.899028 -0.0920609 -0.428105)
(-0.709565 -0.0710701 -0.701047)
(-0.664614 -0.259074 -0.700835)
(-0.869383 -0.246775 -0.428107)
(-0.686442 -0.193205 -0.701048)
(-0.609528 -0.370547 -0.700835)
(-0.813323 -0.393993 -0.428107)
(-0.642465 -0.309469 -0.701047)
(-0.535922 -0.470761 -0.700837)
(-0.732549 -0.529239 -0.42811)
(-0.578963 -0.41633 -0.70105)
(-0.446034 -0.55667 -0.700837)
(-0.629519 -0.648405 -0.428108)
(-0.497874 -0.510542 -0.701048)
(-0.342595 -0.625666 -0.700835)
(-0.507362 -0.747867 -0.42811)
(-0.401656 -0.589238 -0.70105)
(-0.228744 -0.675653 -0.700835)
(-0.369788 -0.82461 -0.428107)
(-0.293234 -0.650035 -0.701047)
(-0.107943 -0.70511 -0.700834)
(-0.220978 -0.876295 -0.428107)
(-0.175901 -0.691079 -0.701048)
(-0.0654551 -0.901356 -0.428105)
(-0.0532257 -0.711126 -0.701047)
(0.176918 -0.976586 -0.122392)
(0.00464753 -0.992471 -0.122391)
(0.0728974 -0.965122 0.251446)
(0.0888553 -0.988153 -0.125132)
(0.343812 -0.931028 -0.122393)
(0.239381 -0.937802 0.251444)
(0.259095 -0.957711 -0.125134)
(0.500261 -0.857181 -0.122393)
(0.398591 -0.881987 0.251446)
(0.421464 -0.89817 -0.125133)
(0.641508 -0.757289 -0.122394)
(0.545691 -0.799372 0.251446)
(0.571026 -0.811339 -0.125134)
(0.763264 -0.634388 -0.122394)
(0.676211 -0.69247 0.251445)
(0.703239 -0.699855 -0.125133)
(0.861829 -0.492211 -0.122393)
(0.786183 -0.564527 0.251446)
(0.814084 -0.567106 -0.125134)
(0.934207 -0.335078 -0.122393)
(0.872269 -0.41943 0.251446)
(0.900193 -0.417127 -0.125133)
(0.9782 -0.167764 -0.122392)
(0.931851 -0.261591 0.251444)
(0.95895 -0.254472 -0.125134)
(0.992471 0.00464753 -0.122391)
(0.963118 -0.0958039 0.251446)
(0.98857 -0.0840877 -0.125132)
(0.976586 0.176918 -0.122392)
(0.965122 0.0728974 0.251446)
(0.988153 0.0888553 -0.125132)
(0.931028 0.343812 -0.122393)
(0.937802 0.239381 0.251444)
(0.957711 0.259095 -0.125134)
(0.857181 0.500261 -0.122393)
(0.881987 0.398591 0.251446)
(0.89817 0.421464 -0.125133)
(0.757289 0.641508 -0.122394)
(0.799372 0.545691 0.251446)
(0.811339 0.571026 -0.125134)
(0.634388 0.763264 -0.122394)
(0.69247 0.676211 0.251445)
(0.699855 0.703239 -0.125133)
(0.492211 0.861829 -0.122393)
(0.564527 0.786183 0.251446)
(0.567106 0.814084 -0.125134)
(0.335078 0.934207 -0.122393)
(0.41943 0.872269 0.251446)
(0.417127 0.900193 -0.125133)
(0.167764 0.9782 -0.122392)
(0.261591 0.931851 0.251444)
(0.254472 0.95895 -0.125134)
(-0.00464753 0.992471 -0.122391)
(0.0958039 0.963118 0.251446)
(0.0840877 0.98857 -0.125132)
(-0.176918 0.976586 -0.122392)
(-0.0728974 0.965122 0.251446)
(-0.0888553 0.988153 -0.125132)
(-0.343812 0.931028 -0.122393)
(-0.239381 0.937802 0.251444)
(-0.259095 0.957711 -0.125134)
(-0.500261 0.857181 -0.122393)
(-0.398591 0.881987 0.251446)
(-0.421464 0.89817 -0.125133)
(-0.641508 0.757289 -0.122394)
(-0.545691 0.799372 0.251446)
(-0.571026 0.811339 -0.125134)
(-0.763264 0.634388 -0.122394)
(-0.676211 0.69247 0.251445)
(-0.703239 0.699855 -0.125133)
(-0.861829 0.492211 -0.122393)
(-0.786183 0.564527 0.251446)
(-0.814084 0.567106 -0.125134)
(-0.934207 0.335078 -0.122393)
(-0.872269 0.41943 0.251446)
(-0.900193 0.417127 -0.125133)
(-0.9782 0.167764 -0.122392)
(-0.931851 0.261591 0.251444)
(-0.95895 0.254472 -0.125134)
(-0.992471 -0.00464753 -0.122391)
(-0.963118 0.0958039 0.251446)
(-0.98857 0.0840877 -0.125132)
(-0.976586 -0.176918 -0.122392)
(-0.965122 -0.0728974 0.251446)
(-0.988153 -0.0888553 -0.125132)
(-0.931028 -0.343812 -0.122393)
(-0.937802 -0.239381 0.251444)
(-0.957711 -0.259095 -0.125134)
(-0.857181 -0.500261 -0.122393)
(-0.881987 -0.398591 0.251446)
(-0.89817 -0.421464 -0.125133)
(-0.757289 -0.641508 -0.122394)
(-0.799372 -0.545691 0.251446)
(-0.811339 -0.571026 -0.125134)
(-0.634388 -0.763264 -0.122394)
(-0.69247 -0.676211 0.251445)
(-0.699855 -0.703239 -0.125133)
(-0.492211 -0.861829 -0.122393)
(-0.564527 -0.786183 0.251446)
(-0.567106 -0.814084 -0.125134)
(-0.335078 -0.934207 -0.122393)
(-0.41943 -0.872269 0.251446)
(-0.417127 -0.900193 -0.125133)
(-0.167764 -0.9782 -0.122392)
(-0.261591 -0.931851 0.251444)
(-0.254472 -0.95895 -0.125134)
(-0.0958039 -0.963118 0.251446)
(-0.0840877 -0.98857 -0.125132)
(0.112315 -0.81036 0.575067)
(-0.0301089 -0.817552 0.575068)
(0.0549682 -0.817179 0.573757)
(0.251326 -0.778545 0.575067)
(0.196034 -0.79522 0.573756)
(0.3827 -0.723075 0.575068)
(0.331144 -0.749098 0.573756)
(0.502447 -0.645635 0.575067)
(0.456193 -0.680214 0.573757)
(0.606927 -0.548577 0.575067)
(0.567381 -0.590664 0.573756)
(0.692966 -0.434851 0.575068)
(0.661328 -0.483165 0.573757)
(0.75795 -0.307911 0.575067)
(0.735182 -0.360986 0.573756)
(0.799903 -0.171618 0.575067)
(0.786698 -0.227839 0.573756)
(0.817552 -0.0301089 0.575068)
(0.814309 -0.0877698 0.573757)
(0.81036 0.112315 0.575067)
(0.817179 0.0549682 0.573757)
(0.778545 0.251326 0.575067)
(0.79522 0.196034 0.573756)
(0.723075 0.3827 0.575068)
(0.749098 0.331144 0.573756)
(0.645635 0.502447 0.575067)
(0.680214 0.456193 0.573757)
(0.548577 0.606927 0.575067)
(0.590664 0.567381 0.573756)
(0.434851 0.692966 0.575068)
(0.483165 0.661328 0.573757)
(0.307911 0.75795 0.575067)
(0.360986 0.735182 0.573756)
(0.171618 0.799903 0.575067)
(0.227839 0.786698 0.573756)
(0.0301089 0.817552 0.575068)
(0.0877698 0.814309 0.573757)
(-0.112315 0.81036 0.575067)
(-0.0549682 0.817179 0.573757)
(-0.251326 0.778545 0.575067)
(-0.196034 0.79522 0.573756)
(-0.3827 0.723075 0.575068)
(-0.331144 0.749098 0.573756)
(-0.502447 0.645635 0.575067)
(-0.456193 0.680214 0.573757)
(-0.606927 0.548577 0.575067)
(-0.567381 0.590664 0.573756)
(-0.692966 0.434851 0.575068)
(-0.661328 0.483165 0.573757)
(-0.75795 0.307911 0.575067)
(-0.735182 0.360986 0.573756)
(-0.799903 0.171618 0.575067)
(-0.786698 0.227839 0.573756)
(-0.817552 0.0301089 0.575068)
(-0.814309 0.0877698 0.573757)
(-0.81036 -0.112315 0.575067)
(-0.817179 -0.0549682 0.573757)
(-0.778545 -0.251326 0.575067)
(-0.79522 -0.196034 0.573756)
(-0.723075 -0.3827 0.575068)
(-0.749098 -0.331144 0.573756)
(-0.645635 -0.502447 0.575067)
(-0.680214 -0.456193 0.573757)
(-0.548577 -0.606927 0.575067)
(-0.590664 -0.567381 0.573756)
(-0.434851 -0.692966 0.575068)
(-0.483165 -0.661328 0.573757)
(-0.307911 -0.75795 0.575067)
(-0.360986 -0.735182 0.573756)
(-0.171618 -0.799903 0.575067)
(-0.227839 -0.786698 0.573756)
(-0.0877698 -0.814309 0.573757)
(0.125577 -0.701831 -0.701187)
(0.0017961 -0.712975 -0.701187)
(0.0792848 -0.899234 -0.430224)
(0.0482963 -0.713064 -0.699434)
(0.245541 -0.669362 -0.701187)
(0.234231 -0.871804 -0.430225)
(0.171386 -0.693844 -0.699433)
(0.358044 -0.616555 -0.701188)
(0.382059 -0.817885 -0.430226)
(0.289268 -0.653542 -0.699433)
(0.459669 -0.545014 -0.701188)
(0.518278 -0.739115 -0.430228)
(0.398359 -0.593381 -0.699435)
(0.547325 -0.456914 -0.701188)
(0.638752 -0.637889 -0.430225)
(0.495347 -0.515194 -0.699433)
(0.618352 -0.354931 -0.701188)
(0.739815 -0.517279 -0.430228)
(0.577283 -0.42135 -0.699435)
(0.670592 -0.242163 -0.701187)
(0.818401 -0.380954 -0.430226)
(0.64168 -0.314706 -0.699433)
(0.702455 -0.122037 -0.701187)
(0.87212 -0.233052 -0.430225)
(0.68658 -0.198496 -0.699433)
(0.712975 0.0017961 -0.701187)
(0.89934 -0.078071 -0.430224)
(0.710617 -0.0762589 -0.699434)
(0.701831 0.125577 -0.701187)
(0.899234 0.0792848 -0.430224)
(0.713064 0.0482963 -0.699434)
(0.669362 0.245541 -0.701187)
(0.871804 0.234231 -0.430225)
(0.693844 0.171386 -0.699433)
(0.616555 0.358044 -0.701188)
(0.817885 0.382059 -0.430226)
(0.653542 0.289268 -0.699433)
(0.545014 0.459669 -0.701188)
(0.739115 0.518278 -0.430228)
(0.593381 0.398359 -0.699435)
(0.456914 0.547325 -0.701188)
(0.637889 0.638752 -0.430225)
(0.515194 0.495347 -0.699433)
(0.354931 0.618352 -0.701188)
(0.517279 0.739815 -0.430228)
(0.42135 0.577283 -0.699435)
(0.242163 0.670592 -0.701187)
(0.380954 0.818401 -0.430226)
(0.314706 0.64168 -0.699433)
(0.122037 0.702455 -0.701187)
(0.233052 0.87212 -0.430225)
(0.198496 0.68658 -0.699433)
(-0.0017961 0.712975 -0.701187)
(0.078071 0.89934 -0.430224)
(0.0762589 0.710617 -0.699434)
(-0.125577 0.701831 -0.701187)
(-0.0792848 0.899234 -0.430224)
(-0.0482963 0.713064 -0.699434)
(-0.245541 0.669362 -0.701187)
(-0.234231 0.871804 -0.430225)
(-0.171386 0.693844 -0.699433)
(-0.358044 0.616555 -0.701188)
(-0.382059 0.817885 -0.430226)
(-0.289268 0.653542 -0.699433)
(-0.459669 0.545014 -0.701188)
(-0.518278 0.739115 -0.430228)
(-0.398359 0.593381 -0.699435)
(-0.547325 0.456914 -0.701188)
(-0.638752 0.637889 -0.430225)
(-0.495347 0.515194 -0.699433)
(-0.618352 0.354931 -0.701188)
(-0.739815 0.517279 -0.430228)
(-0.577283 0.42135 -0.699435)
(-0.670592 0.242163 -0.701187)
(-0.818401 0.380954 -0.430226)
(-0.64168 0.314706 -0.699433)
(-0.702455 0.122037 -0.701187)
(-0.87212 0.233052 -0.430225)
(-0.68658 0.198496 -0.699433)
(-0.712975 -0.0017961 -0.701187)
(-0.89934 0.078071 -0.430224)
(-0.710617 0.0762589 -0.699434)
(-0.701831 -0.125577 -0.701187)
(-0.899234 -0.0792848 -0.430224)
(-0.713064 -0.0482963 -0.699434)
(-0.669362 -0.245541 -0.701187)
(-0.871804 -0.234231 -0.430225)
(-0.693844 -0.171386 -0.699433)
(-0.616555 -0.358044 -0.701188)
(-0.817885 -0.382059 -0.430226)
(-0.653542 -0.289268 -0.699433)
(-0.545014 -0.459669 -0.701188)
(-0.739115 -0.518278 -0.430228)
(-0.593381 -0.398359 -0.699435)
(-0.456914 -0.547325 -0.701188)
(-0.637889 -0.638752 -0.430225)
(-0.515194 -0.495347 -0.699433)
(-0.354931 -0.618352 -0.701188)
(-0.517279 -0.739815 -0.430228)
(-0.42135 -0.577283 -0.699435)
(-0.242163 -0.670592 -0.701187)
(-0.380954 -0.818401 -0.430226)
(-0.314706 -0.64168 -0.699433)
(-0.122037 -0.702455 -0.701187)
(-0.233052 -0.87212 -0.430225)
(-0.198496 -0.68658 -0.699433)
(-0.078071 -0.89934 -0.430224)
(-0.0762589 -0.710617 -0.699434)
(0.172289 -0.97672 -0.127807)
(6.52719e-05 -0.991799 -0.127806)
(0.0835879 -0.965216 0.247731)
(0.083526 -0.988158 -0.128717)
(0.339277 -0.931964 -0.127808)
(0.249925 -0.936038 0.24773)
(0.253849 -0.958641 -0.128717)
(0.495956 -0.858891 -0.127808)
(0.40867 -0.878418 0.247731)
(0.416459 -0.899997 -0.128717)
(0.637566 -0.759721 -0.127807)
(0.554996 -0.794109 0.247731)
(0.566414 -0.814007 -0.128718)
(0.759805 -0.637466 -0.127807)
(0.68446 -0.685669 0.247732)
(0.69916 -0.703283 -0.128716)
(0.858956 -0.495843 -0.127808)
(0.793128 -0.556397 0.247731)
(0.810662 -0.571191 -0.128718)
(0.932009 -0.339154 -0.127808)
(0.877696 -0.410219 0.247731)
(0.897532 -0.421744 -0.128717)
(0.976743 -0.17216 -0.127807)
(0.935595 -0.251577 0.24773)
(0.957132 -0.259481 -0.128717)
(0.991799 6.52731e-05 -0.127806)
(0.965067 -0.0852913 0.247731)
(0.987649 -0.0893353 -0.128717)
(0.97672 0.172289 -0.127807)
(0.965216 0.0835879 0.247731)
(0.988158 0.083526 -0.128717)
(0.931964 0.339277 -0.127808)
(0.936038 0.249925 0.24773)
(0.958641 0.253849 -0.128717)
(0.858891 0.495956 -0.127808)
(0.878418 0.40867 0.247731)
(0.899997 0.416459 -0.128717)
(0.759721 0.637566 -0.127807)
(0.794109 0.554996 0.247731)
(0.814007 0.566414 -0.128718)
(0.637466 0.759805 -0.127807)
(0.685669 0.68446 0.247732)
(0.703283 0.69916 -0.128716)
(0.495843 0.858956 -0.127808)
(0.556397 0.793128 0.247731)
(0.571191 0.810662 -0.128718)
(0.339154 0.932009 -0.127808)
(0.410219 0.877696 0.247731)
(0.421744 0.897532 -0.128717)
(0.17216 0.976743 -0.127807)
(0.251577 0.935595 0.24773)
(0.259481 0.957132 -0.128717)
(-6.5273e-05 0.991799 -0.127806)
(0.0852913 0.965067 0.247731)
(0.0893353 0.987649 -0.128717)
(-0.172289 0.97672 -0.127807)
(-0.0835879 0.965216 0.247731)
(-0.083526 0.988158 -0.128717)
(-0.339277 0.931964 -0.127808)
(-0.249925 0.936038 0.24773)
(-0.253849 0.958641 -0.128717)
(-0.495956 0.858891 -0.127808)
(-0.40867 0.878418 0.247731)
(-0.416459 0.899997 -0.128717)
(-0.637566 0.759721 -0.127807)
(-0.554996 0.794109 0.247731)
(-0.566414 0.814007 -0.128718)
(-0.759805 0.637466 -0.127807)
(-0.68446 0.685669 0.247732)
(-0.69916 0.703283 -0.128716)
(-0.858956 0.495843 -0.127808)
(-0.793128 0.556397 0.247731)
(-0.810662 0.571191 -0.128718)
(-0.932009 0.339154 -0.127808)
(-0.877696 0.410219 0.247731)
(-0.897532 0.421744 -0.128717)
(-0.976743 0.17216 -0.127807)
(-0.935595 0.251577 0.24773)
(-0.957132 0.259481 -0.128717)
(-0.991799 -6.52729e-05 -0.127806)
(-0.965067 0.0852913 0.247731)
(-0.987649 0.0893353 -0.128717)
(-0.97672 -0.172289 -0.127807)
(-0.965216 -0.0835879 0.247731)
(-0.988158 -0.083526 -0.128717)
(-0.931964 -0.339277 -0.127808)
(-0.936038 -0.249925 0.24773)
(-0.958641 -0.253849 -0.128717)
(-0.858891 -0.495956 -0.127808)
(-0.878418 -0.40867 0.247731)
(-0.899997 -0.416459 -0.128717)
(-0.759721 -0.637566 -0.127807)
(-0.794109 -0.554996 0.247731)
(-0.814007 -0.566414 -0.128718)
(-0.637466 -0.759805 -0.127807)
(-0.685669 -0.68446 0.247732)
(-0.703283 -0.69916 -0.128716)
(-0.495843 -0.858956 -0.127808)
(-0.556397 -0.793128 0.247731)
(-0.571191 -0.810662 -0.128718)
(-0.339154 -0.932009 -0.127808)
(-0.410219 -0.877696 0.247731)
(-0.421744 -0.897532 -0.128717)
(-0.17216 -0.976743 -0.127807)
(-0.251577 -0.935595 0.24773)
(-0.259481 -0.957132 -0.128717)
(-0.0852913 -0.965067 0.247731)
(-0.0893353 -0.987649 -0.128717)
(0.13913 -0.808262 0.57215)
(-0.00333765 -0.820142 0.57215)
(0.0815043 -0.817132 0.57066)
(0.277369 -0.771824 0.572149)
(0.222159 -0.790565 0.57066)
(0.407181 -0.711933 0.572149)
(0.356065 -0.739977 0.57066)
(0.524621 -0.630411 0.572149)
(0.479151 -0.666904 0.57066)
(0.626121 -0.529734 0.572149)
(0.587679 -0.573569 0.570659)
(0.708596 -0.412961 0.57215)
(0.678349 -0.462806 0.57066)
(0.76954 -0.283642 0.572149)
(0.748409 -0.337981 0.57066)
(0.807103 -0.145704 0.57215)
(0.795729 -0.202887 0.57066)
(0.820142 -0.00333765 0.57215)
(0.818871 -0.0616274 0.57066)
(0.808262 0.13913 0.57215)
(0.817132 0.0815043 0.57066)
(0.771824 0.277369 0.572149)
(0.790565 0.222159 0.57066)
(0.711933 0.407181 0.57215)
(0.739977 0.356065 0.57066)
(0.630411 0.524621 0.572149)
(0.666904 0.479151 0.57066)
(0.529734 0.626121 0.572149)
(0.573569 0.587679 0.570659)
(0.412961 0.708596 0.57215)
(0.462806 0.678349 0.57066)
(0.283642 0.76954 0.572149)
(0.337981 0.748409 0.57066)
(0.145704 0.807103 0.57215)
(0.202887 0.795729 0.57066)
(0.00333765 0.820142 0.57215)
(0.0616274 0.818871 0.57066)
(-0.13913 0.808262 0.57215)
(-0.0815043 0.817132 0.57066)
(-0.277369 0.771824 0.572149)
(-0.222159 0.790565 0.57066)
(-0.407181 0.711933 0.57215)
(-0.356065 0.739977 0.57066)
(-0.524621 0.630411 0.572149)
(-0.479151 0.666904 0.57066)
(-0.626121 0.529734 0.572149)
(-0.587679 0.573569 0.570659)
(-0.708596 0.412961 0.57215)
(-0.678349 0.462806 0.57066)
(-0.76954 0.283642 0.572149)
(-0.748409 0.337981 0.57066)
(-0.807103 0.145704 0.57215)
(-0.795729 0.202887 0.57066)
(-0.820142 0.00333765 0.57215)
(-0.818871 0.0616274 0.57066)
(-0.808262 -0.13913 0.57215)
(-0.817132 -0.0815043 0.57066)
(-0.771824 -0.277369 0.572149)
(-0.790565 -0.222159 0.57066)
(-0.711933 -0.407181 0.57215)
(-0.739977 -0.356065 0.57066)
(-0.630411 -0.524621 0.572149)
(-0.666904 -0.479151 0.57066)
(-0.529734 -0.626121 0.572149)
(-0.573569 -0.587679 0.570659)
(-0.412961 -0.708596 0.572149)
(-0.462806 -0.678349 0.57066)
(-0.283642 -0.76954 0.572149)
(-0.337981 -0.748409 0.57066)
(-0.145704 -0.807103 0.57215)
(-0.202887 -0.795729 0.57066)
(-0.0616274 -0.818871 0.57066)
(0.0951253 -0.710408 -0.697332)
(-0.0296804 -0.716132 -0.697333)
(0.0599043 -0.901752 -0.428083)
(0.015682 -0.718976 -0.694858)
(0.217043 -0.683097 -0.697331)
(0.215582 -0.87765 -0.428082)
(0.140293 -0.705332 -0.694856)
(0.332365 -0.635029 -0.697332)
(0.364711 -0.826881 -0.428082)
(0.260643 -0.670254 -0.694856)
(0.437586 -0.567668 -0.697332)
(0.502756 -0.750987 -0.428083)
(0.373072 -0.61481 -0.694857)
(0.529512 -0.483058 -0.697332)
(0.625524 -0.652276 -0.428083)
(0.474163 -0.540687 -0.694857)
(0.60535 -0.383771 -0.697332)
(0.729288 -0.533745 -0.428083)
(0.56085 -0.450136 -0.694857)
(0.662795 -0.272822 -0.697331)
(0.810893 -0.398998 -0.428082)
(0.630494 -0.345908 -0.694856)
(0.7001 -0.153583 -0.697332)
(0.867859 -0.252124 -0.428082)
(0.680982 -0.231167 -0.694856)
(0.716132 -0.0296804 -0.697333)
(0.898455 -0.0975921 -0.428083)
(0.710777 -0.109404 -0.694858)
(0.710408 0.0951253 -0.697332)
(0.901752 0.0599043 -0.428083)
(0.718976 0.015682 -0.694858)
(0.683097 0.217043 -0.697331)
(0.87765 0.215582 -0.428082)
(0.705332 0.140293 -0.694856)
(0.635029 0.332365 -0.697332)
(0.826881 0.364711 -0.428082)
(0.670254 0.260643 -0.694856)
(0.567668 0.437586 -0.697332)
(0.750987 0.502756 -0.428083)
(0.61481 0.373072 -0.694857)
(0.483058 0.529512 -0.697332)
(0.652276 0.625524 -0.428083)
(0.540687 0.474163 -0.694857)
(0.383771 0.60535 -0.697332)
(0.533745 0.729288 -0.428083)
(0.450136 0.56085 -0.694857)
(0.272822 0.662795 -0.697331)
(0.398998 0.810893 -0.428082)
(0.345908 0.630494 -0.694856)
(0.153583 0.7001 -0.697332)
(0.252124 0.867859 -0.428082)
(0.231167 0.680982 -0.694856)
(0.0296804 0.716132 -0.697333)
(0.0975921 0.898455 -0.428083)
(0.109404 0.710777 -0.694858)
(-0.0951253 0.710408 -0.697332)
(-0.0599043 0.901752 -0.428083)
(-0.015682 0.718976 -0.694858)
(-0.217043 0.683097 -0.697331)
(-0.215582 0.87765 -0.428082)
(-0.140293 0.705332 -0.694856)
(-0.332365 0.635029 -0.697332)
(-0.364711 0.826881 -0.428082)
(-0.260643 0.670254 -0.694856)
(-0.437586 0.567668 -0.697332)
(-0.502756 0.750987 -0.428083)
(-0.373072 0.61481 -0.694857)
(-0.529512 0.483058 -0.697332)
(-0.625524 0.652276 -0.428083)
(-0.474163 0.540687 -0.694857)
(-0.60535 0.383771 -0.697332)
(-0.729288 0.533745 -0.428083)
(-0.56085 0.450136 -0.694857)
(-0.662795 0.272822 -0.697331)
(-0.810893 0.398998 -0.428082)
(-0.630494 0.345908 -0.694856)
(-0.7001 0.153583 -0.697332)
(-0.867859 0.252124 -0.428082)
(-0.680982 0.231167 -0.694856)
(-0.716132 0.0296804 -0.697333)
(-0.898455 0.0975921 -0.428083)
(-0.710777 0.109404 -0.694858)
(-0.710408 -0.0951253 -0.697332)
(-0.901752 -0.0599043 -0.428083)
(-0.718976 -0.015682 -0.694858)
(-0.683097 -0.217043 -0.697331)
(-0.87765 -0.215582 -0.428082)
(-0.705332 -0.140293 -0.694856)