/*--------------------------------*- C++ -*----------------------------------*\
| =========                 |                                                 |
| \\      /  F ield         | OpenFOAM: The Open Source CFD Toolbox           |
|  \\    /   O peration     | Version:  2312                                  |
|   \\  /    A nd           | Website:  www.openfoam.com                      |
|    \\/     M anipulation  |                                                 |
\*---------------------------------------------------------------------------*/
FoamFile
{
    version     2.0;
    format      ascii;
    arch        "LSB;label=32;scalar=64";
    class       volScalarField;
    location    "0";
    object      mu;
}
// * * * * * * * * * * * * * * * * * * * * * * * * * * * * * * * * * * * * * //

dimensions      [0 0 0 0 0 0 0];

internalField   nonuniform List<scalar> 
1620
(
1.57581
1.57566
1.57536
1.57492
1.57436
1.57369
1.57292
1.5721
1.57124
1.57036
1.56949
1.56867
1.56791
1.56724
1.56667
1.56623
1.56593
1.56578
1.56578
1.56593
1.56623
1.56667
1.56724
1.56791
1.56867
1.56949
1.57036
1.57124
1.5721
1.57292
1.57369
1.57436
1.57492
1.57536
1.57566
1.57581
1.57652
1.57635
1.576
1.5755
1.57486
1.57409
1.57323
1.57228
1.5713
1.5703
1.56931
1.56837
1.5675
1.56673
1.56609
1.56559
1.56525
1.56507
1.56507
1.56525
1.56559
1.56609
1.56673
1.5675
1.56837
1.56931
1.5703
1.5713
1.57228
1.57323
1.57409
1.57486
1.5755
1.576
1.57635
1.57652
1.57968
1.57941
1.57888
1.5781
1.5771
1.57591
1.57456
1.5731
1.57157
1.57002
1.56849
1.56703
1.56568
1.56449
1.56349
1.56272
1.56218
1.56191
1.56191
1.56218
1.56272
1.56349
1.56449
1.56568
1.56703
1.56849
1.57002
1.57157
1.5731
1.57456
1.57591
1.5771
1.5781
1.57888
1.57941
1.57968
1.57881
1.57857
1.57809
1.57738
1.57649
1.57541
1.5742
1.57288
1.5715
1.57009
1.56871
1.5674
1.56618
1.56511
1.56421
1.5635
1.56302
1.56278
1.56278
1.56302
1.5635
1.56421
1.56511
1.56618
1.5674
1.56871
1.57009
1.5715
1.57288
1.5742
1.57541
1.57649
1.57738
1.57809
1.57857
1.57881
1.58307
1.5827
1.58196
1.58089
1.57951
1.57786
1.576
1.57398
1.57187
1.56972
1.56761
1.56559
1.56373
1.56209
1.56071
1.55963
1.5589
1.55852
1.55852
1.5589
1.55963
1.56071
1.56209
1.56373
1.56559
1.56761
1.56972
1.57187
1.57398
1.576
1.57786
1.57951
1.58089
1.58196
1.5827
1.58307
1.58618
1.58571
1.58479
1.58344
1.58171
1.57964
1.57731
1.57479
1.57214
1.56945
1.56681
1.56428
1.56195
1.55989
1.55816
1.55681
1.55589
1.55542
1.55542
1.55589
1.55681
1.55816
1.55989
1.56195
1.56428
1.56681
1.56945
1.57214
1.57479
1.57731
1.57964
1.58171
1.58344
1.58479
1.58571
1.58618
1.57169
1.57166
1.5716
1.57153
1.57143
1.57131
1.5712
1.57103
1.57088
1.57071
1.57056
1.5704
1.57028
1.57016
1.57006
1.57
1.56993
1.56991
1.56991
1.56993
1.57
1.57006
1.57016
1.57028
1.5704
1.57056
1.57071
1.57088
1.57103
1.5712
1.57131
1.57143
1.57153
1.5716
1.57166
1.57169
1.57096
1.57096
1.57094
1.57094
1.57091
1.57088
1.57087
1.57084
1.57082
1.57077
1.57075
1.57072
1.57071
1.57068
1.57065
1.57065
1.57064
1.57063
1.57063
1.57064
1.57065
1.57065
1.57068
1.57071
1.57072
1.57075
1.57077
1.57082
1.57084
1.57087
1.57088
1.57091
1.57094
1.57094
1.57096
1.57096
1.57251
1.57246
1.57236
1.57221
1.57201
1.57178
1.57152
1.57124
1.57095
1.57064
1.57035
1.57007
1.56981
1.56958
1.56939
1.56923
1.56913
1.56908
1.56908
1.56913
1.56923
1.56939
1.56958
1.56981
1.57007
1.57035
1.57064
1.57095
1.57124
1.57152
1.57178
1.57201
1.57221
1.57236
1.57246
1.57251
1.58561
1.58516
1.58427
1.58297
1.5813
1.57932
1.57708
1.57464
1.57209
1.5695
1.56696
1.56451
1.56227
1.56029
1.55862
1.55733
1.55644
1.55599
1.55599
1.55644
1.55733
1.55862
1.56029
1.56227
1.56451
1.56696
1.5695
1.57209
1.57464
1.57708
1.57932
1.5813
1.58297
1.58427
1.58516
1.58561
1.58561
1.58516
1.58427
1.58297
1.58131
1.57932
1.57708
1.57464
1.57209
1.5695
1.56695
1.56451
1.56227
1.56028
1.55862
1.55732
1.55643
1.55598
1.55598
1.55643
1.55732
1.55862
1.56028
1.56227
1.56451
1.56695
1.5695
1.57209
1.57464
1.57708
1.57932
1.58131
1.58297
1.58427
1.58516
1.58561
1.58265
1.58229
1.58158
1.58054
1.5792
1.57762
1.57582
1.57387
1.57183
1.56976
1.56772
1.56577
1.56398
1.56239
1.56106
1.56002
1.55931
1.55895
1.55895
1.55931
1.56002
1.56106
1.56239
1.56398
1.56577
1.56772
1.56976
1.57183
1.57387
1.57582
1.57762
1.5792
1.58054
1.58158
1.58229
1.58265
1.6031
1.60211
1.60017
1.59732
1.59368
1.58935
1.58446
1.57916
1.57361
1.56798
1.56243
1.55713
1.55224
1.54791
1.54427
1.54143
1.53948
1.53849
1.53849
1.53948
1.54143
1.54427
1.54791
1.55224
1.55713
1.56243
1.56798
1.57361
1.57916
1.58446
1.58935
1.59368
1.59732
1.60017
1.60211
1.6031
1.60156
1.60062
1.59877
1.59606
1.59259
1.58846
1.5838
1.57876
1.57348
1.56812
1.56283
1.55779
1.55313
1.549
1.54553
1.54283
1.54097
1.54003
1.54003
1.54097
1.54283
1.54553
1.549
1.55313
1.55779
1.56283
1.56812
1.57348
1.57876
1.5838
1.58846
1.59259
1.59606
1.59877
1.60062
1.60156
1.59609
1.59532
1.5938
1.59158
1.58872
1.58533
1.5815
1.57735
1.573
1.56859
1.56424
1.56009
1.55626
1.55287
1.55002
1.54779
1.54627
1.5455
1.5455
1.54627
1.54779
1.55002
1.55287
1.55626
1.56009
1.56424
1.56859
1.573
1.57735
1.5815
1.58533
1.58872
1.59158
1.5938
1.59532
1.59609
1.6219
1.62032
1.61721
1.61268
1.60689
1.60003
1.5923
1.58395
1.57522
1.56637
1.55764
1.54929
1.54156
1.5347
1.52891
1.52438
1.52128
1.5197
1.5197
1.52128
1.52438
1.52891
1.5347
1.54156
1.54929
1.55764
1.56637
1.57522
1.58395
1.5923
1.60003
1.60689
1.61268
1.61721
1.62032
1.6219
1.61862
1.61714
1.61423
1.60999
1.60457
1.59815
1.59092
1.58311
1.57494
1.56665
1.55849
1.55067
1.54344
1.53702
1.5316
1.52736
1.52445
1.52297
1.52297
1.52445
1.52736
1.5316
1.53702
1.54344
1.55067
1.55849
1.56665
1.57494
1.58311
1.59092
1.59815
1.60457
1.60999
1.61423
1.61714
1.61862
1.60973
1.60853
1.60617
1.60273
1.59832
1.59309
1.58721
1.58084
1.57418
1.56742
1.56076
1.55439
1.5485
1.54327
1.53886
1.53542
1.53306
1.53186
1.53186
1.53306
1.53542
1.53886
1.54327
1.5485
1.55439
1.56076
1.56742
1.57418
1.58084
1.58721
1.59309
1.59832
1.60273
1.60617
1.60853
1.60973
1.64237
1.64011
1.6357
1.62929
1.62112
1.61149
1.60069
1.58907
1.57694
1.56465
1.55252
1.5409
1.53011
1.52047
1.51231
1.5059
1.50148
1.49922
1.49922
1.50148
1.5059
1.51231
1.52047
1.53011
1.5409
1.55252
1.56465
1.57694
1.58907
1.60069
1.61149
1.62112
1.62929
1.6357
1.64011
1.64237
1.6375
1.6354
1.63128
1.6253
1.61769
1.60871
1.59865
1.58782
1.57652
1.56507
1.55377
1.54294
1.53288
1.5239
1.51629
1.51031
1.5062
1.50409
1.50409
1.5062
1.51031
1.51629
1.5239
1.53288
1.54294
1.55377
1.56507
1.57652
1.58782
1.59865
1.60871
1.61769
1.6253
1.63128
1.6354
1.6375
1.62408
1.62241
1.61914
1.61439
1.60833
1.60117
1.59312
1.58445
1.57539
1.5662
1.55715
1.54847
1.54043
1.53326
1.5272
1.52245
1.51918
1.51752
1.51752
1.51918
1.52245
1.5272
1.53326
1.54043
1.54847
1.55715
1.5662
1.57539
1.58445
1.59312
1.60117
1.60833
1.61439
1.61914
1.62241
1.62408
1.66528
1.66223
1.65627
1.64766
1.63678
1.62402
1.60982
1.59461
1.5788
1.56279
1.54698
1.53177
1.51757
1.50481
1.49393
1.48533
1.47936
1.47631
1.47631
1.47936
1.48533
1.49393
1.50481
1.51757
1.53177
1.54698
1.56279
1.5788
1.59461
1.60982
1.62402
1.63678
1.64766
1.65627
1.66223
1.66528
1.65917
1.65631
1.65073
1.64268
1.6325
1.62056
1.60729
1.59306
1.57828
1.56331
1.54853
1.53431
1.52103
1.5091
1.49891
1.49086
1.48528
1.48242
1.48242
1.48528
1.49086
1.49891
1.5091
1.52103
1.53431
1.54853
1.56331
1.57828
1.59306
1.60729
1.62056
1.6325
1.64268
1.65073
1.65631
1.65917
1.63986
1.63766
1.63335
1.62712
1.61921
1.6099
1.5995
1.58833
1.57669
1.5649
1.55326
1.54209
1.53169
1.52238
1.51447
1.50824
1.50394
1.50174
1.50174
1.50394
1.50824
1.51447
1.52238
1.53169
1.54209
1.55326
1.5649
1.57669
1.58833
1.5995
1.6099
1.61921
1.62712
1.63335
1.63766
1.63986
1.69215
1.68808
1.68017
1.66885
1.65467
1.63823
1.6201
1.60082
1.58088
1.56071
1.54077
1.52149
1.50336
1.48692
1.47274
1.46142
1.45351
1.44944
1.44944
1.45351
1.46142
1.47274
1.48692
1.50336
1.52149
1.54077
1.56071
1.58088
1.60082
1.6201
1.63823
1.65467
1.66885
1.68017
1.68808
1.69215
1.68494
1.6811
1.67365
1.66299
1.64964
1.63417
1.61713
1.59901
1.58027
1.56133
1.54259
1.52447
1.50742
1.49195
1.47861
1.46795
1.46049
1.45665
1.45665
1.46049
1.46795
1.47861
1.49195
1.50742
1.52447
1.54259
1.56133
1.58027
1.59901
1.61713
1.63417
1.64964
1.66299
1.67365
1.6811
1.68494
1.65814
1.65528
1.64971
1.64169
1.63158
1.61978
1.60668
1.59268
1.57815
1.56344
1.54891
1.53491
1.52181
1.51001
1.4999
1.49188
1.48631
1.48345
1.48345
1.48631
1.49188
1.4999
1.51001
1.52181
1.53491
1.54891
1.56344
1.57815
1.59268
1.60668
1.61978
1.63158
1.64169
1.64971
1.65528
1.65814
1.72613
1.7206
1.70997
1.69495
1.67643
1.65529
1.6323
1.60814
1.58331
1.55828
1.53346
1.50929
1.48631
1.46516
1.44664
1.43163
1.42099
1.41546
1.41546
1.42099
1.43163
1.44664
1.46516
1.48631
1.50929
1.53346
1.55828
1.58331
1.60814
1.6323
1.65529
1.67643
1.69495
1.70997
1.7206
1.72613
1.7167
1.7115
1.70149
1.68737
1.66996
1.65009
1.62852
1.60583
1.58254
1.55905
1.53576
1.51308
1.4915
1.47163
1.45423
1.4401
1.43009
1.42489
1.42489
1.43009
1.4401
1.45423
1.47163
1.4915
1.51308
1.53576
1.55905
1.58254
1.60583
1.62852
1.65009
1.66996
1.68737
1.70149
1.7115
1.7167
1.68068
1.67694
1.66968
1.65934
1.64643
1.63153
1.61515
1.59778
1.57985
1.56174
1.54381
1.52644
1.51007
1.49516
1.48225
1.47191
1.46466
1.46091
1.46091
1.46466
1.47191
1.48225
1.49516
1.51007
1.52644
1.54381
1.56174
1.57985
1.59778
1.61515
1.63153
1.64643
1.65934
1.66968
1.67694
1.68068
1.77446
1.76647
1.75134
1.73047
1.70541
1.67755
1.64797
1.61742
1.58638
1.55521
1.52418
1.49362
1.46404
1.43618
1.41113
1.39025
1.37512
1.36713
1.36713
1.37512
1.39025
1.41113
1.43618
1.46404
1.49362
1.52418
1.55521
1.58638
1.61742
1.64797
1.67755
1.70541
1.73047
1.75134
1.76647
1.77446
1.75787
1.75058
1.73677
1.71769
1.69472
1.66914
1.64193
1.61378
1.58517
1.55642
1.52781
1.49966
1.47245
1.44687
1.42391
1.40482
1.39101
1.38373
1.38373
1.39101
1.40482
1.42391
1.44687
1.47245
1.49966
1.52781
1.55642
1.58517
1.61378
1.64193
1.66914
1.69472
1.71769
1.73677
1.75058
1.75787
1.71064
1.70556
1.69582
1.68213
1.66535
1.64629
1.62567
1.60407
1.58194
1.55965
1.53752
1.51592
1.49531
1.47625
1.45946
1.44577
1.43603
1.43095
1.43095
1.43603
1.44577
1.45946
1.47625
1.49531
1.51592
1.53752
1.55965
1.58194
1.60407
1.62567
1.64629
1.66535
1.68213
1.69582
1.70556
1.71064
1.85528
1.84181
1.81719
1.78486
1.74808
1.7092
1.66963
1.63
1.59051
1.55109
1.51159
1.47197
1.43239
1.39351
1.35673
1.3244
1.29978
1.28632
1.28632
1.29978
1.3244
1.35673
1.39351
1.43239
1.47197
1.51159
1.55109
1.59051
1.63
1.66963
1.7092
1.74808
1.78486
1.81719
1.84181
1.85528
1.81579
1.80482
1.78454
1.75749
1.72623
1.69269
1.65814
1.62324
1.58828
1.55332
1.51835
1.48345
1.4489
1.41536
1.3841
1.35706
1.33677
1.3258
1.3258
1.33677
1.35706
1.3841
1.41536
1.4489
1.48345
1.51835
1.55332
1.58828
1.62324
1.65814
1.69269
1.72623
1.75749
1.78454
1.80482
1.81579
1.75443
1.74699
1.73299
1.71383
1.69102
1.66589
1.63939
1.61217
1.58462
1.55697
1.52942
1.5022
1.47571
1.45057
1.42777
1.4086
1.3946
1.38717
1.38717
1.3946
1.4086
1.42777
1.45057
1.47571
1.5022
1.52942
1.55697
1.58462
1.61217
1.63939
1.66589
1.69102
1.71383
1.73299
1.74699
1.75443
2.02035
1.9885
1.93574
1.8746
1.813
1.75425
1.69895
1.6465
1.59582
1.54577
1.4951
1.44264
1.38734
1.32859
1.26699
1.20585
1.15309
1.12124
1.12124
1.15309
1.20585
1.26699
1.32859
1.38734
1.44264
1.4951
1.54577
1.59582
1.6465
1.69895
1.75425
1.813
1.8746
1.93574
1.9885
2.02035
1.90832
1.88908
1.85532
1.81333
1.76813
1.72262
1.67803
1.63458
1.59196
1.54964
1.50702
1.46356
1.41897
1.37346
1.32826
1.28627
1.25251
1.23327
1.23327
1.25251
1.28627
1.32826
1.37346
1.41897
1.46356
1.50702
1.54964
1.59196
1.63458
1.67803
1.72262
1.76813
1.81333
1.85532
1.88908
1.90832
1.82721
1.81447
1.7914
1.76151
1.728
1.69304
1.65782
1.62282
1.5881
1.55349
1.51877
1.48377
1.44855
1.41359
1.38008
1.3502
1.32713
1.31438
1.31438
1.32713
1.3502
1.38008
1.41359
1.44855
1.48377
1.51877
1.55349
1.5881
1.62282
1.65782
1.69304
1.728
1.76151
1.7914
1.81447
1.82721
2.4609
2.3111
2.14126
2.00152
1.89182
1.80335
1.72866
1.66248
1.60089
1.5407
1.47912
1.41293
1.33824
1.24977
1.14007
1.00033
0.830489
0.680693
0.680693
0.830489
1.00033
1.14007
1.24977
1.33824
1.41293
1.47912
1.5407
1.60089
1.66248
1.72866
1.80335
1.89182
2.00152
2.14126
2.3111
2.4609
2.08227
2.03711
1.96736
1.89269
1.82239
1.75867
1.70079
1.64713
1.59597
1.54563
1.49447
1.44081
1.38292
1.3192
1.2489
1.17423
1.10449
1.05932
1.05932
1.10449
1.17423
1.2489
1.3192
1.38292
1.44081
1.49447
1.54563
1.59597
1.64713
1.70079
1.75867
1.82239
1.89269
1.96736
2.03711
2.08227
1.96928
1.93936
1.89063
1.83527
1.7805
1.72899
1.681
1.63577
1.59226
1.54933
1.50582
1.4606
1.4126
1.36109
1.30632
1.25096
1.20223
1.17231
1.17231
1.20223
1.25096
1.30632
1.36109
1.4126
1.4606
1.50582
1.54933
1.59226
1.63577
1.681
1.72899
1.7805
1.83527
1.89063
1.93936
1.96928
0.313199
0.659783
0.920489
1.09856
1.22652
1.32459
1.40471
1.47467
1.53936
1.60224
1.66692
1.73688
1.817
1.91507
2.04303
2.2211
2.48181
2.82839
2.82839
2.48181
2.2211
2.04303
1.91507
1.817
1.73688
1.66692
1.60224
1.53936
1.47467
1.40471
1.32459
1.22652
1.09856
0.920491
0.659781
0.313197
2.29577
2.19575
2.06826
1.95423
1.86008
1.78187
1.71473
1.65458
1.59832
1.54328
1.48701
1.42687
1.35972
1.28151
1.18736
1.07333
0.945845
0.845825
0.845825
0.945845
1.07333
1.18736
1.28151
1.35972
1.42687
1.48701
1.54328
1.59832
1.65458
1.71473
1.78187
1.86008
1.95423
2.06826
2.19575
2.29577
2.17065
2.09628
1.99617
1.9025
1.82288
1.75558
1.69713
1.64447
1.59501
1.54658
1.49713
1.44446
1.38601
1.31871
1.23909
1.14542
1.04532
0.970943
0.970943
1.04532
1.14542
1.23909
1.31871
1.38601
1.44446
1.49713
1.54658
1.59501
1.64447
1.69713
1.75558
1.82288
1.9025
1.99617
2.09628
2.17065
)
;

boundaryField
{
    fixed
    {
        type            calculated;
        value           nonuniform List<scalar> 
108
(
1.00969
1.06211
1.14141
1.22451
1.30141
1.37029
1.43236
1.48961
1.54404
1.59755
1.65198
1.70923
1.7713
1.84018
1.91708
2.00018
2.07948
2.1319
2.1319
2.07948
2.00018
1.91708
1.84018
1.7713
1.70923
1.65198
1.59755
1.54404
1.48961
1.43236
1.37029
1.30141
1.22451
1.14141
1.06211
1.00969
1.08917
1.13019
1.19434
1.26397
1.33023
1.39077
1.44606
1.49749
1.54661
1.59498
1.64411
1.69553
1.75083
1.81136
1.87763
1.94725
2.0114
2.05242
2.05242
2.0114
1.94725
1.87763
1.81136
1.75083
1.69553
1.64411
1.59498
1.54661
1.49749
1.44606
1.39077
1.33023
1.26397
1.19434
1.13019
1.08917
1.17389
1.20419
1.2533
1.30876
1.36334
1.41447
1.46198
1.50666
1.54961
1.59198
1.63493
1.67961
1.72712
1.77825
1.83284
1.88829
1.9374
1.9677
1.9677
1.9374
1.88829
1.83284
1.77825
1.72712
1.67961
1.63493
1.59198
1.54961
1.50666
1.46198
1.41447
1.36334
1.30876
1.2533
1.20419
1.17389
)
;
    }
    inside
    {
        type            calculated;
        value           nonuniform List<scalar> 
540
(
1.13941
1.1786
1.23856
1.30209
1.36134
1.41469
1.46293
1.5075
1.54993
1.59166
1.63409
1.67867
1.7269
1.78025
1.83951
1.90303
1.96299
2.00219
2.00219
1.96299
1.90303
1.83951
1.78025
1.7269
1.67867
1.63409
1.59166
1.54993
1.5075
1.46293
1.41469
1.36134
1.30209
1.23856
1.1786
1.13941
0.852039
0.979133
1.12039
1.23367
1.32094
1.39043
1.4486
1.49992
1.54756
1.59404
1.64167
1.69299
1.75116
1.82065
1.90792
2.0212
2.16246
2.28955
2.28955
2.16246
2.0212
1.90792
1.82065
1.75116
1.69299
1.64167
1.59404
1.54756
1.49992
1.4486
1.39043
1.32094
1.23367
1.12039
0.979133
0.852039
0.323547
0.771146
1.03479
1.19366
1.30011
1.37883
1.44206
1.49654
1.54651
1.59508
1.64505
1.69953
1.76276
1.84148
1.94793
2.1068
2.37045
2.81805
2.81805
2.37045
2.1068
1.94793
1.84148
1.76276
1.69953
1.64505
1.59508
1.54651
1.49654
1.44206
1.37883
1.30011
1.19366
1.03479
0.771146
0.323547
0.731022
0.913715
1.0897
1.21845
1.31278
1.38581
1.44598
1.49856
1.54713
1.59446
1.64304
1.69562
1.75578
1.82881
1.92314
2.0519
2.22788
2.41057
2.41057
2.22788
2.0519
1.92314
1.82881
1.75578
1.69562
1.64304
1.59446
1.54713
1.49856
1.44598
1.38581
1.31278
1.21845
1.0897
0.913715
0.731022
1.06951
1.12448
1.20267
1.27961
1.34739
1.40605
1.45773
1.50472
1.54906
1.59254
1.63687
1.68386
1.73554
1.7942
1.86198
1.93892
2.01711
2.07208
2.07208
2.01711
1.93892
1.86198
1.7942
1.73554
1.68386
1.63687
1.59254
1.54906
1.50472
1.45773
1.40605
1.34739
1.27961
1.20267
1.12448
1.06951
1.22866
1.2525
1.29221
1.33849
1.38534
1.43019
1.47251
1.51272
1.55159
1.59
1.62887
1.66908
1.7114
1.75625
1.8031
1.84938
1.88909
1.91294
1.91294
1.88909
1.84938
1.8031
1.75625
1.7114
1.66908
1.62887
1.59
1.55159
1.51272
1.47251
1.43019
1.38534
1.33849
1.29221
1.2525
1.22866
1.3177
1.33098
1.35474
1.38504
1.41847
1.45286
1.48711
1.52087
1.55421
1.58739
1.62072
1.65449
1.68874
1.72312
1.75656
1.78685
1.81061
1.82389
1.82389
1.81061
1.78685
1.75656
1.72312
1.68874
1.65449
1.62072
1.58739
1.55421
1.52087
1.48711
1.45286
1.41847
1.38504
1.35474
1.33098
1.3177
1.37511
1.38368
1.39958
1.42091
1.44574
1.47254
1.50029
1.52842
1.55666
1.58493
1.61318
1.64131
1.66906
1.69585
1.72068
1.74201
1.75791
1.76648
1.76648
1.75791
1.74201
1.72068
1.69585
1.66906
1.64131
1.61318
1.58493
1.55666
1.52842
1.50029
1.47254
1.44574
1.42091
1.39958
1.38368
1.37511
1.4161
1.4221
1.43349
1.44925
1.46822
1.48937
1.51189
1.53519
1.55889
1.5827
1.6064
1.6297
1.65222
1.67337
1.69234
1.7081
1.71949
1.7255
1.7255
1.71949
1.7081
1.69234
1.67337
1.65222
1.6297
1.6064
1.5827
1.55889
1.53519
1.51189
1.48937
1.46822
1.44925
1.43349
1.4221
1.4161
1.44771
1.45211
1.46057
1.4725
1.48721
1.50397
1.52216
1.54128
1.5609
1.58069
1.60031
1.61943
1.63763
1.65439
1.66909
1.68102
1.68948
1.69388
1.69388
1.68948
1.68102
1.66909
1.65439
1.63763
1.61943
1.60031
1.58069
1.5609
1.54128
1.52216
1.50397
1.48721
1.4725
1.46057
1.45211
1.44771
1.47372
1.47699
1.48335
1.49243
1.50379
1.51695
1.53144
1.54684
1.56275
1.57884
1.59476
1.61015
1.62464
1.6378
1.64917
1.65825
1.6646
1.66787
1.66787
1.6646
1.65825
1.64917
1.6378
1.62464
1.61015
1.59476
1.57884
1.56275
1.54684
1.53144
1.51695
1.50379
1.49243
1.48335
1.47699
1.47372
1.4964
1.49881
1.50351
1.51029
1.51886
1.52891
1.54008
1.55205
1.5645
1.5771
1.58954
1.60151
1.61269
1.62273
1.6313
1.63808
1.64278
1.64519
1.64519
1.64278
1.63808
1.6313
1.62273
1.61269
1.60151
1.58954
1.5771
1.5645
1.55205
1.54008
1.52891
1.51886
1.51029
1.50351
1.49881
1.4964
1.51734
1.51902
1.52231
1.52709
1.53318
1.54037
1.54844
1.55713
1.5662
1.57539
1.58446
1.59315
1.60122
1.60841
1.61451
1.61928
1.62258
1.62425
1.62425
1.62258
1.61928
1.61451
1.60841
1.60122
1.59315
1.58446
1.57539
1.5662
1.55713
1.54844
1.54037
1.53318
1.52709
1.52231
1.51902
1.51734
1.53762
1.53864
1.54065
1.54358
1.54733
1.55178
1.5568
1.56223
1.56791
1.57368
1.57936
1.58479
1.58981
1.59427
1.59802
1.60094
1.60295
1.60397
1.60397
1.60295
1.60094
1.59802
1.59427
1.58981
1.58479
1.57936
1.57368
1.56791
1.56223
1.5568
1.55178
1.54733
1.54358
1.54065
1.53864
1.53762
1.55632
1.55676
1.55763
1.5589
1.56053
1.56247
1.56466
1.56704
1.56953
1.57206
1.57455
1.57693
1.57912
1.58106
1.58269
1.58396
1.58483
1.58527
1.58527
1.58483
1.58396
1.58269
1.58106
1.57912
1.57693
1.57455
1.57206
1.56953
1.56704
1.56466
1.56247
1.56053
1.5589
1.55763
1.55676
1.55632
)
;
    }
    outside
    {
        type            calculated;
        value           nonuniform List<scalar> 
540
(
0.865692
0.950242
1.06547
1.17479
1.2688
1.34894
1.41889
1.48214
1.54165
1.59995
1.65945
1.72271
1.79265
1.87279
1.9668
2.07612
2.19135
2.2759
2.2759
2.19135
2.07612
1.9668
1.87279
1.79265
1.72271
1.65945
1.59995
1.54165
1.48214
1.41889
1.34894
1.2688
1.17479
1.06547
0.950242
0.865692
0.565632
0.763901
0.965206
1.12031
1.23789
1.33084
1.40836
1.47662
1.53992
1.60167
1.66497
1.73323
1.81076
1.9037
2.02128
2.17639
2.37769
2.57596
2.57596
2.37769
2.17639
2.02128
1.9037
1.81076
1.73323
1.66497
1.60167
1.53992
1.47662
1.40836
1.33084
1.23789
1.12031
0.965206
0.763901
0.565632
0.240881
0.639465
0.912514
1.0951
1.22457
1.32336
1.40412
1.47442
1.53924
1.60235
1.66717
1.73747
1.81823
1.91702
2.04649
2.22908
2.50213
2.90071
2.90071
2.50213
2.22908
2.04649
1.91702
1.81823
1.73747
1.66717
1.60235
1.53924
1.47442
1.40412
1.32336
1.22457
1.0951
0.912514
0.639465
0.240881
0.511892
0.737285
0.953006
1.11427
1.23464
1.329
1.40731
1.47607
1.53975
1.60184
1.66552
1.73428
1.8126
1.90695
2.02732
2.18859
2.40431
2.6297
2.6297
2.40431
2.18859
2.02732
1.90695
1.8126
1.73428
1.66552
1.60184
1.53975
1.47607
1.40731
1.329
1.23464
1.11427
0.953006
0.737285
0.511892
0.830184
0.925095
1.05039
1.16604
1.26364
1.34584
1.41706
1.48117
1.54134
1.60025
1.66042
1.72453
1.79575
1.87796
1.97556
2.0912
2.2165
2.31141
2.31141
2.2165
2.0912
1.97556
1.87796
1.79575
1.72453
1.66042
1.60025
1.54134
1.48117
1.41706
1.34584
1.26364
1.16604
1.05039
0.925095
0.830184
1.03231
1.07809
1.14969
1.22743
1.30149
1.3692
1.43109
1.48868
1.54371
1.59789
1.65292
1.71051
1.77239
1.84011
1.91416
1.9919
2.0635
2.10928
2.10928
2.0635
1.9919
1.91416
1.84011
1.77239
1.71051
1.65292
1.59789
1.54371
1.48868
1.43109
1.3692
1.30149
1.22743
1.14969
1.07809
1.03231
1.16213
1.18781
1.23178
1.28481
1.34023
1.39468
1.44704
1.49743
1.54649
1.5951
1.64416
1.69455
1.74692
1.80136
1.85678
1.90982
1.95379
1.97946
1.97946
1.95379
1.90982
1.85678
1.80136
1.74692
1.69455
1.64416
1.5951
1.54649
1.49743
1.44704
1.39468
1.34023
1.28481
1.23178
1.18781
1.16213
1.25154
1.26768
1.29677
1.33428
1.37614
1.41963
1.46328
1.50656
1.54944
1.59215
1.63503
1.67831
1.72197
1.76545
1.80731
1.84482
1.87392
1.89005
1.89005
1.87392
1.84482
1.80731
1.76545
1.72197
1.67831
1.63503
1.59215
1.54944
1.50656
1.46328
1.41963
1.37614
1.33428
1.29677
1.26768
1.25154
1.31757
1.32851
1.34887
1.37628
1.40829
1.44297
1.47899
1.51558
1.55238
1.58922
1.62601
1.66261
1.69862
1.7333
1.76532
1.79272
1.81308
1.82402
1.82402
1.81308
1.79272
1.76532
1.7333
1.69862
1.66261
1.62601
1.58922
1.55238
1.51558
1.47899
1.44297
1.40829
1.37628
1.34887
1.32851
1.31757
1.36944
1.3772
1.39194
1.41236
1.437
1.46453
1.49388
1.52429
1.55524
1.58635
1.6173
1.64772
1.67707
1.70459
1.72923
1.74965
1.7644
1.77216
1.77216
1.7644
1.74965
1.72923
1.70459
1.67707
1.64772
1.6173
1.58635
1.55524
1.52429
1.49388
1.46453
1.437
1.41236
1.39194
1.3772
1.36944
1.41248
1.4181
1.4289
1.44417
1.46303
1.48457
1.50801
1.53267
1.55802
1.58358
1.60892
1.63358
1.65702
1.67856
1.69742
1.71269
1.7235
1.72911
1.72911
1.7235
1.71269
1.69742
1.67856
1.65702
1.63358
1.60892
1.58358
1.55802
1.53267
1.50801
1.48457
1.46303
1.44417
1.4289
1.4181
1.41248
1.45012
1.45414
1.46196
1.47317
1.48723
1.50357
1.52162
1.54084
1.56074
1.58086
1.60076
1.61997
1.63802
1.65436
1.66843
1.67963
1.68745
1.69148
1.69148
1.68745
1.67963
1.66843
1.65436
1.63802
1.61997
1.60076
1.58086
1.56074
1.54084
1.52162
1.50357
1.48723
1.47317
1.46196
1.45414
1.45012
1.48469
1.48744
1.49281
1.50058
1.51045
1.52206
1.53502
1.54895
1.56345
1.57814
1.59264
1.60657
1.61953
1.63114
1.64101
1.64878
1.65415
1.6569
1.6569
1.65415
1.64878
1.64101
1.63114
1.61953
1.60657
1.59264
1.57814
1.56345
1.54895
1.53502
1.52206
1.51045
1.50058
1.49281
1.48744
1.48469
1.51777
1.51941
1.52264
1.52733
1.53334
1.54046
1.54848
1.55714
1.5662
1.57539
1.58445
1.59311
1.60113
1.60825
1.61426
1.61896
1.62218
1.62382
1.62382
1.62218
1.61896
1.61426
1.60825
1.60113
1.59311
1.58445
1.57539
1.5662
1.55714
1.54848
1.54046
1.53334
1.52733
1.52264
1.51941
1.51777
1.54781
1.54851
1.54989
1.5519
1.55449
1.55758
1.56106
1.56483
1.56879
1.5728
1.57676
1.58053
1.58402
1.5871
1.58969
1.5917
1.59308
1.59378
1.59378
1.59308
1.5917
1.58969
1.5871
1.58402
1.58053
1.57676
1.5728
1.56879
1.56483
1.56106
1.55758
1.55449
1.5519
1.54989
1.54851
1.54781
)
;
    }
}


// ************************************************************************* //
