/*--------------------------------*- C++ -*----------------------------------*\
| =========                 |                                                 |
| \\      /  F ield         | OpenFOAM: The Open Source CFD Toolbox           |
|  \\    /   O peration     | Version:  2312                                  |
|   \\  /    A nd           | Website:  www.openfoam.com                      |
|    \\/     M anipulation  |                                                 |
\*---------------------------------------------------------------------------*/
FoamFile
{
    version     2.0;
    format      ascii;
    arch        "LSB;label=32;scalar=64";
    class       volVectorField;
    location    "0";
    object      s_d;
}
// * * * * * * * * * * * * * * * * * * * * * * * * * * * * * * * * * * * * * //

dimensions      [0 0 0 0 0 0 0];

internalField   nonuniform List<vector> 
1620
(
(-0.748434 -0.661924 0.0412603)
(-0.74846 -0.659256 0.0720388)
(-0.748508 -0.655458 0.100547)
(-0.748571 -0.650986 0.125933)
(-0.748644 -0.646365 0.147461)
(-0.748717 -0.64215 0.164517)
(-0.748783 -0.638849 0.176624)
(-0.74883 -0.63687 0.18344)
(-0.748856 -0.636457 0.184764)
(-0.748856 -0.637668 0.18054)
(-0.74883 -0.640359 0.170863)
(-0.748783 -0.644199 0.155984)
(-0.748717 -0.648722 0.136317)
(-0.748644 -0.653369 0.112433)
(-0.748571 -0.657577 0.0850504)
(-0.748508 -0.660839 0.0550181)
(-0.74846 -0.662771 0.0232818)
(-0.748434 -0.663146 -0.00915267)
(-0.748434 -0.661924 -0.0412603)
(-0.74846 -0.659256 -0.0720388)
(-0.748508 -0.655458 -0.100547)
(-0.748571 -0.650986 -0.125933)
(-0.748644 -0.646365 -0.147461)
(-0.748717 -0.64215 -0.164517)
(-0.748783 -0.638849 -0.176624)
(-0.74883 -0.63687 -0.18344)
(-0.748856 -0.636457 -0.184764)
(-0.748856 -0.637668 -0.18054)
(-0.74883 -0.640359 -0.170863)
(-0.748783 -0.644199 -0.155984)
(-0.748717 -0.648722 -0.136317)
(-0.748644 -0.653369 -0.112433)
(-0.748571 -0.657577 -0.0850504)
(-0.748508 -0.660839 -0.0550181)
(-0.74846 -0.662771 -0.0232818)
(-0.748434 -0.663146 0.00915267)
(-0.995285 -0.0920209 0.0306437)
(-0.99531 -0.0905475 0.0340482)
(-0.995356 -0.0891296 0.0363651)
(-0.995418 -0.0879412 0.0375538)
(-0.995487 -0.0871201 0.0376135)
(-0.995558 -0.0867601 0.0365741)
(-0.995619 -0.0869067 0.0344886)
(-0.995665 -0.0875458 0.0314245)
(-0.995689 -0.0885982 0.027459)
(-0.995689 -0.0899396 0.0226827)
(-0.995665 -0.0914098 0.0172048)
(-0.995619 -0.0928316 0.0111588)
(-0.995558 -0.0940362 0.00470895)
(-0.995487 -0.094873 -0.00195266)
(-0.995418 -0.0952356 -0.00860856)
(-0.995356 -0.0950827 -0.015026)
(-0.99531 -0.0944363 -0.020974)
(-0.995285 -0.0933721 -0.02624)
(-0.995285 -0.0920209 -0.0306437)
(-0.99531 -0.0905474 -0.0340482)
(-0.995356 -0.0891296 -0.0363651)
(-0.995418 -0.0879412 -0.0375538)
(-0.995487 -0.0871201 -0.0376135)
(-0.995558 -0.0867601 -0.0365741)
(-0.995619 -0.0869067 -0.0344886)
(-0.995665 -0.0875458 -0.0314245)
(-0.995689 -0.0885982 -0.027459)
(-0.995689 -0.0899396 -0.0226827)
(-0.995665 -0.0914098 -0.0172048)
(-0.995619 -0.0928316 -0.0111588)
(-0.995558 -0.0940362 -0.00470895)
(-0.995487 -0.094873 0.00195266)
(-0.995418 -0.0952356 0.00860856)
(-0.995356 -0.0950827 0.015026)
(-0.99531 -0.0944363 0.020974)
(-0.995285 -0.0933721 0.02624)
(-0.811011 0.585007 0.00529)
(-0.811024 0.584583 -0.0224203)
(-0.811049 0.582883 -0.0494602)
(-0.811084 0.580105 -0.0749801)
(-0.811124 0.576575 -0.0981814)
(-0.811161 0.572724 -0.118348)
(-0.811194 0.569012 -0.134867)
(-0.811219 0.565897 -0.147252)
(-0.811233 0.563763 -0.155152)
(-0.811233 0.562872 -0.158355)
(-0.811219 0.56333 -0.156786)
(-0.811194 0.565077 -0.150507)
(-0.811161 0.567892 -0.139705)
(-0.811124 0.571428 -0.124695)
(-0.811084 0.575263 -0.105907)
(-0.811049 0.578933 -0.0838835)
(-0.811024 0.582002 -0.0592706)
(-0.811011 0.584111 -0.0328041)
(-0.811011 0.585007 -0.00529)
(-0.811024 0.584583 0.0224203)
(-0.811049 0.582883 0.0494602)
(-0.811084 0.580105 0.0749801)
(-0.811124 0.576575 0.0981814)
(-0.811161 0.572724 0.118348)
(-0.811194 0.569012 0.134867)
(-0.811219 0.565897 0.147252)
(-0.811233 0.563763 0.155152)
(-0.811233 0.562872 0.158355)
(-0.811219 0.56333 0.156786)
(-0.811194 0.565077 0.150507)
(-0.811161 0.567892 0.139705)
(-0.811124 0.571428 0.124695)
(-0.811084 0.575263 0.105907)
(-0.811049 0.578933 0.0838835)
(-0.811024 0.582002 0.0592706)
(-0.811011 0.584111 0.0328041)
(-0.712722 -0.700211 0.0416141)
(-0.712745 -0.697452 0.0745308)
(-0.712794 -0.693454 0.105098)
(-0.712855 -0.6887 0.132401)
(-0.712928 -0.683746 0.155644)
(-0.713 -0.679189 0.174162)
(-0.713067 -0.675576 0.187436)
(-0.713112 -0.673357 0.195092)
(-0.713139 -0.672801 0.196905)
(-0.713139 -0.673987 0.192805)
(-0.713112 -0.676775 0.182884)
(-0.713067 -0.680818 0.167401)
(-0.713 -0.685627 0.146784)
(-0.712928 -0.690608 0.121631)
(-0.712855 -0.695158 0.0926981)
(-0.712794 -0.698726 0.0608778)
(-0.712745 -0.700897 0.0271707)
(-0.712722 -0.701408 -0.00735695)
(-0.712722 -0.700211 -0.0416141)
(-0.712745 -0.697452 -0.0745308)
(-0.712794 -0.693454 -0.105098)
(-0.712855 -0.6887 -0.132401)
(-0.712928 -0.683746 -0.155644)
(-0.713 -0.679189 -0.174162)
(-0.713067 -0.675576 -0.187436)
(-0.713112 -0.673357 -0.195092)
(-0.713139 -0.672801 -0.196905)
(-0.713139 -0.673987 -0.192805)
(-0.713112 -0.676775 -0.182884)
(-0.713067 -0.680818 -0.167401)
(-0.713 -0.685627 -0.146784)
(-0.712928 -0.690608 -0.121631)
(-0.712855 -0.695158 -0.0926981)
(-0.712794 -0.698726 -0.0608778)
(-0.712745 -0.700897 -0.0271707)
(-0.712722 -0.701408 0.00735695)
(-0.992049 -0.121747 0.031874)
(-0.992074 -0.120166 0.0367269)
(-0.992122 -0.118579 0.0404069)
(-0.992186 -0.117184 0.0428329)
(-0.992259 -0.116142 0.0439676)
(-0.992332 -0.11558 0.0438118)
(-0.992395 -0.11556 0.0423921)
(-0.992442 -0.116092 0.0397573)
(-0.992468 -0.117105 0.0359705)
(-0.992468 -0.118487 0.0311182)
(-0.992442 -0.120072 0.02531)
(-0.992395 -0.121664 0.0186859)
(-0.992332 -0.123076 0.0114267)
(-0.992259 -0.124129 0.00374785)
(-0.992186 -0.124699 -0.00410117)
(-0.992122 -0.124712 -0.011852)
(-0.992074 -0.124173 -0.0192313)
(-0.992049 -0.12314 -0.0259812)
(-0.992049 -0.121747 -0.031874)
(-0.992074 -0.120166 -0.0367269)
(-0.992122 -0.118579 -0.0404069)
(-0.992186 -0.117184 -0.0428329)
(-0.992259 -0.116142 -0.0439676)
(-0.992332 -0.11558 -0.0438118)
(-0.992395 -0.11556 -0.0423921)
(-0.992442 -0.116092 -0.0397573)
(-0.992468 -0.117105 -0.0359705)
(-0.992468 -0.118487 -0.0311182)
(-0.992442 -0.120072 -0.02531)
(-0.992395 -0.121664 -0.0186859)
(-0.992332 -0.123076 -0.0114267)
(-0.992259 -0.124129 -0.00374785)
(-0.992186 -0.124699 0.00410117)
(-0.992122 -0.124712 0.011852)
(-0.992074 -0.124173 0.0192313)
(-0.992049 -0.12314 0.0259812)
(-0.817316 0.57616 0.00580898)
(-0.817331 0.575749 -0.0219962)
(-0.817357 0.574031 -0.0491449)
(-0.817393 0.571207 -0.0747831)
(-0.817434 0.567606 -0.0981067)
(-0.817474 0.563666 -0.118394)
(-0.81751 0.559862 -0.13503)
(-0.817536 0.556661 -0.147524)
(-0.81755 0.554459 -0.155524)
(-0.81755 0.553525 -0.158815)
(-0.817536 0.553971 -0.157323)
(-0.81751 0.555738 -0.151107)
(-0.817474 0.558603 -0.140355)
(-0.817434 0.562212 -0.125376)
(-0.817393 0.566133 -0.1066)
(-0.817357 0.569891 -0.0845664)
(-0.817331 0.573044 -0.0599213)
(-0.817316 0.57522 -0.0333996)
(-0.817316 0.57616 -0.00580898)
(-0.817331 0.575749 0.0219962)
(-0.817357 0.574031 0.0491449)
(-0.817393 0.571207 0.0747831)
(-0.817434 0.567606 0.0981067)
(-0.817474 0.563666 0.118394)
(-0.81751 0.559862 0.13503)
(-0.817536 0.556661 0.147524)
(-0.81755 0.554459 0.155524)
(-0.81755 0.553525 0.158815)
(-0.817536 0.553971 0.157323)
(-0.81751 0.555738 0.151107)
(-0.817474 0.558603 0.140355)
(-0.817434 0.562212 0.125376)
(-0.817393 0.566133 0.1066)
(-0.817357 0.569891 0.0845664)
(-0.817331 0.573044 0.0599213)
(-0.817316 0.57522 0.0333996)
(-0.71255 -0.700372 0.0418524)
(-0.712575 -0.69758 0.0749657)
(-0.712623 -0.693536 0.105715)
(-0.712686 -0.688725 0.13318)
(-0.712763 -0.68371 0.156559)
(-0.712833 -0.679101 0.175188)
(-0.712899 -0.675446 0.188542)
(-0.712946 -0.673198 0.196244)
(-0.712972 -0.672636 0.198071)
(-0.712972 -0.673836 0.19395)
(-0.712946 -0.676654 0.183975)
(-0.712899 -0.680746 0.168403)
(-0.712833 -0.685612 0.147667)
(-0.712763 -0.690649 0.122366)
(-0.712686 -0.695256 0.0932628)
(-0.712623 -0.698868 0.061253)
(-0.712575 -0.701063 0.0273442)
(-0.71255 -0.701583 -0.00739026)
(-0.71255 -0.700372 -0.0418524)
(-0.712575 -0.69758 -0.0749657)
(-0.712623 -0.693536 -0.105715)
(-0.712686 -0.688725 -0.13318)
(-0.712763 -0.68371 -0.156559)
(-0.712833 -0.679101 -0.175188)
(-0.712899 -0.675446 -0.188542)
(-0.712946 -0.673198 -0.196244)
(-0.712972 -0.672636 -0.198071)
(-0.712972 -0.673836 -0.19395)
(-0.712946 -0.676654 -0.183975)
(-0.712899 -0.680746 -0.168403)
(-0.712833 -0.685612 -0.147667)
(-0.712763 -0.690649 -0.122366)
(-0.712686 -0.695256 -0.0932628)
(-0.712623 -0.698868 -0.061253)
(-0.712575 -0.701063 -0.0273442)
(-0.71255 -0.701583 0.00739026)
(-0.991372 -0.127065 0.0321942)
(-0.991397 -0.125451 0.0373258)
(-0.991446 -0.123825 0.0412652)
(-0.991511 -0.122382 0.0439234)
(-0.991585 -0.12129 0.0452567)
(-0.991658 -0.120689 0.0452618)
(-0.991723 -0.12064 0.0439599)
(-0.99177 -0.121153 0.0413958)
(-0.991796 -0.122167 0.0376321)
(-0.991796 -0.123564 0.0327527)
(-0.99177 -0.125179 0.0268675)
(-0.991723 -0.126813 0.0201193)
(-0.991658 -0.128271 0.0126908)
(-0.991585 -0.12937 0.00480263)
(-0.991511 -0.129984 -0.00328797)
(-0.991446 -0.130029 -0.0113063)
(-0.991397 -0.129504 -0.01897)
(-0.991372 -0.128473 -0.0260116)
(-0.991372 -0.127065 -0.0321942)
(-0.991397 -0.125451 -0.0373258)
(-0.991446 -0.123825 -0.0412652)
(-0.991511 -0.122382 -0.0439234)
(-0.991585 -0.12129 -0.0452567)
(-0.991658 -0.120689 -0.0452618)
(-0.991723 -0.12064 -0.0439599)
(-0.99177 -0.121153 -0.0413958)
(-0.991796 -0.122167 -0.0376321)
(-0.991796 -0.123564 -0.0327527)
(-0.99177 -0.125179 -0.0268675)
(-0.991723 -0.126813 -0.0201193)
(-0.991658 -0.128271 -0.0126908)
(-0.991585 -0.12937 -0.00480263)
(-0.991511 -0.129984 0.00328797)
(-0.991446 -0.130029 0.0113063)
(-0.991397 -0.129504 0.01897)
(-0.991372 -0.128473 0.0260116)
(-0.819903 0.572471 0.00602277)
(-0.819918 0.572067 -0.021789)
(-0.819945 0.570346 -0.0489511)
(-0.819981 0.567508 -0.0746085)
(-0.820022 0.563886 -0.0979561)
(-0.820063 0.559918 -0.118271)
(-0.8201 0.556083 -0.134936)
(-0.820127 0.552854 -0.147462)
(-0.820141 0.550628 -0.155495)
(-0.820141 0.549678 -0.15882)
(-0.820127 0.550118 -0.157363)
(-0.8201 0.551888 -0.151181)
(-0.820063 0.554767 -0.140462)
(-0.820022 0.558399 -0.125514)
(-0.819981 0.562346 -0.106766)
(-0.819945 0.566134 -0.0847549)
(-0.819918 0.569316 -0.0601257)
(-0.819903 0.571515 -0.0336126)
(-0.819903 0.572471 -0.00602277)
(-0.819918 0.572067 0.021789)
(-0.819945 0.570346 0.0489511)
(-0.819981 0.567508 0.0746085)
(-0.820022 0.563886 0.0979561)
(-0.820063 0.559918 0.118271)
(-0.8201 0.556083 0.134936)
(-0.820127 0.552854 0.147462)
(-0.820141 0.550628 0.155495)
(-0.820141 0.549678 0.15882)
(-0.820127 0.550118 0.157363)
(-0.8201 0.551888 0.151181)
(-0.820063 0.554767 0.140462)
(-0.820022 0.558399 0.125514)
(-0.819981 0.562346 0.106766)
(-0.819945 0.566134 0.0847549)
(-0.819918 0.569316 0.0601257)
(-0.819903 0.571515 0.0336126)
(-0.715709 -0.697152 0.0417112)
(-0.715736 -0.69438 0.07455)
(-0.715784 -0.690376 0.105038)
(-0.715847 -0.685616 0.132264)
(-0.715921 -0.68066 0.155433)
(-0.715993 -0.676104 0.173885)
(-0.716059 -0.672497 0.187102)
(-0.716106 -0.670284 0.194711)
(-0.716129 -0.669739 0.19649)
(-0.716129 -0.670935 0.192369)
(-0.716106 -0.673727 0.182439)
(-0.716059 -0.677779 0.16696)
(-0.715993 -0.682592 0.14636)
(-0.715921 -0.687575 0.121237)
(-0.715847 -0.692123 0.0923453)
(-0.715784 -0.695689 0.060577)
(-0.715736 -0.697851 0.0269306)
(-0.715709 -0.698358 -0.00752827)
(-0.715709 -0.697152 -0.0417112)
(-0.715736 -0.69438 -0.07455)
(-0.715784 -0.690376 -0.105038)
(-0.715847 -0.685616 -0.132264)
(-0.715921 -0.68066 -0.155433)
(-0.715993 -0.676104 -0.173885)
(-0.716059 -0.672497 -0.187102)
(-0.716106 -0.670284 -0.194711)
(-0.716129 -0.669739 -0.19649)
(-0.716129 -0.670935 -0.192369)
(-0.716106 -0.673727 -0.182439)
(-0.716059 -0.677779 -0.16696)
(-0.715993 -0.682592 -0.14636)
(-0.715921 -0.687575 -0.121237)
(-0.715847 -0.692123 -0.0923453)
(-0.715784 -0.695689 -0.060577)
(-0.715736 -0.697851 -0.0269306)
(-0.715709 -0.698358 0.00752827)
(-0.991132 -0.128945 0.0320964)
(-0.991158 -0.12734 0.0372933)
(-0.991206 -0.12572 0.0412998)
(-0.99127 -0.12428 0.0440243)
(-0.991343 -0.12319 0.0454214)
(-0.991416 -0.122578 0.0454831)
(-0.99148 -0.122518 0.0442306)
(-0.991528 -0.123019 0.0417071)
(-0.991553 -0.124021 0.0379741)
(-0.991553 -0.125407 0.0331143)
(-0.991528 -0.127009 0.0272375)
(-0.99148 -0.128636 0.0204876)
(-0.991416 -0.130092 0.0130473)
(-0.991343 -0.131196 0.00513821)
(-0.99127 -0.131813 -0.00298429)
(-0.991206 -0.131868 -0.0110428)
(-0.991158 -0.131356 -0.0187549)
(-0.991132 -0.13034 -0.0258521)
(-0.991132 -0.128945 -0.0320964)
(-0.991158 -0.12734 -0.0372933)
(-0.991206 -0.12572 -0.0412998)
(-0.99127 -0.12428 -0.0440243)
(-0.991343 -0.12319 -0.0454214)
(-0.991416 -0.122578 -0.0454831)
(-0.99148 -0.122518 -0.0442306)
(-0.991528 -0.123019 -0.0417071)
(-0.991553 -0.124021 -0.0379741)
(-0.991553 -0.125407 -0.0331143)
(-0.991528 -0.127009 -0.0272375)
(-0.99148 -0.128636 -0.0204876)
(-0.991416 -0.130092 -0.0130473)
(-0.991343 -0.131196 -0.00513821)
(-0.99127 -0.131813 0.00298429)
(-0.991206 -0.131868 0.0110428)
(-0.991158 -0.131356 0.0187549)
(-0.991132 -0.13034 0.0258521)
(-0.821847 0.569676 0.00612568)
(-0.821861 0.569285 -0.0214184)
(-0.821888 0.567596 -0.0483242)
(-0.821924 0.564803 -0.0737447)
(-0.821966 0.561236 -0.096882)
(-0.822006 0.557326 -0.11702)
(-0.822042 0.553544 -0.133548)
(-0.822069 0.550357 -0.145979)
(-0.822083 0.548156 -0.153961)
(-0.822083 0.547213 -0.157282)
(-0.822069 0.547638 -0.155867)
(-0.822042 0.549377 -0.149772)
(-0.822006 0.552209 -0.139182)
(-0.821966 0.555784 -0.124401)
(-0.821924 0.559675 -0.105854)
(-0.821888 0.563411 -0.0840721)
(-0.821861 0.566552 -0.0596935)
(-0.821847 0.568726 -0.0334451)
(-0.821847 0.569676 -0.00612568)
(-0.821861 0.569285 0.0214184)
(-0.821888 0.567596 0.0483242)
(-0.821924 0.564803 0.0737447)
(-0.821966 0.561236 0.096882)
(-0.822006 0.557326 0.11702)
(-0.822042 0.553544 0.133548)
(-0.822069 0.550357 0.145979)
(-0.822083 0.548156 0.153961)
(-0.822083 0.547213 0.157282)
(-0.822069 0.547638 0.155867)
(-0.822042 0.549377 0.149772)
(-0.822006 0.552209 0.139182)
(-0.821966 0.555784 0.124401)
(-0.821924 0.559675 0.105854)
(-0.821888 0.563411 0.0840721)
(-0.821861 0.566552 0.0596935)
(-0.821847 0.568726 0.0334451)
(-0.718652 -0.694152 0.041153)
(-0.718678 -0.691458 0.0734042)
(-0.718724 -0.687572 0.103343)
(-0.718788 -0.682953 0.130074)
(-0.718857 -0.678153 0.152817)
(-0.71893 -0.67374 0.170922)
(-0.718992 -0.670253 0.183881)
(-0.719038 -0.668115 0.191326)
(-0.719062 -0.667597 0.19304)
(-0.719062 -0.668764 0.188957)
(-0.719038 -0.671478 0.179166)
(-0.718992 -0.67541 0.163926)
(-0.71893 -0.680075 0.143659)
(-0.718857 -0.684905 0.118954)
(-0.718788 -0.689307 0.0905524)
(-0.718724 -0.692759 0.0593323)
(-0.718678 -0.694847 0.0262735)
(-0.718652 -0.695329 -0.00757767)
(-0.718652 -0.694152 -0.041153)
(-0.718678 -0.691458 -0.0734042)
(-0.718724 -0.687572 -0.103343)
(-0.718788 -0.682953 -0.130074)
(-0.718857 -0.678153 -0.152817)
(-0.71893 -0.67374 -0.170922)
(-0.718992 -0.670253 -0.183881)
(-0.719038 -0.668115 -0.191326)
(-0.719062 -0.667597 -0.19304)
(-0.719062 -0.668764 -0.188957)
(-0.719038 -0.671478 -0.179166)
(-0.718992 -0.67541 -0.163926)
(-0.71893 -0.680075 -0.143659)
(-0.718857 -0.684905 -0.118954)
(-0.718788 -0.689307 -0.0905524)
(-0.718724 -0.692759 -0.0593323)
(-0.718678 -0.694847 -0.0262735)
(-0.718652 -0.695329 0.00757767)
(-0.990804 -0.131547 0.0316807)
(-0.990828 -0.129985 0.0369214)
(-0.990875 -0.128402 0.0409853)
(-0.990938 -0.126989 0.0437777)
(-0.991008 -0.125917 0.0452499)
(-0.991079 -0.125306 0.0453893)
(-0.991141 -0.125235 0.044215)
(-0.991187 -0.125711 0.0417668)
(-0.991212 -0.126678 0.0381044)
(-0.991212 -0.128022 0.0333104)
(-0.991187 -0.129583 0.0274943)
(-0.991141 -0.131172 0.020799)
(-0.991079 -0.132597 0.013407)
(-0.991008 -0.133686 0.00553891)
(-0.990938 -0.134299 -0.00255285)
(-0.990875 -0.134367 -0.0105923)
(-0.990828 -0.133882 -0.0182999)
(-0.990804 -0.132901 -0.0254085)
(-0.990804 -0.131547 -0.0316807)
(-0.990828 -0.129985 -0.0369214)
(-0.990875 -0.128402 -0.0409853)
(-0.990938 -0.126989 -0.0437777)
(-0.991008 -0.125917 -0.0452499)
(-0.991079 -0.125306 -0.0453893)
(-0.991141 -0.125235 -0.044215)
(-0.991187 -0.125711 -0.0417668)
(-0.991212 -0.126678 -0.0381044)
(-0.991212 -0.128022 -0.0333104)
(-0.991187 -0.129583 -0.0274943)
(-0.991141 -0.131172 -0.020799)
(-0.991079 -0.132597 -0.013407)
(-0.991008 -0.133686 -0.00553891)
(-0.990938 -0.134299 0.00255285)
(-0.990875 -0.134367 0.0105923)
(-0.990828 -0.133882 0.0182999)
(-0.990804 -0.132901 0.0254085)
(-0.824071 0.566452 0.00617762)
(-0.824084 0.566086 -0.020777)
(-0.824111 0.564466 -0.0471123)
(-0.824146 0.561783 -0.0720001)
(-0.824186 0.558352 -0.0946601)
(-0.824226 0.554587 -0.114391)
(-0.824261 0.550944 -0.130593)
(-0.824287 0.547871 -0.142791)
(-0.824301 0.545744 -0.150636)
(-0.824301 0.544826 -0.153921)
(-0.824287 0.545228 -0.15257)
(-0.824261 0.546892 -0.146636)
(-0.824226 0.549613 -0.1363)
(-0.824186 0.553053 -0.121859)
(-0.824146 0.556798 -0.103728)
(-0.824111 0.560398 -0.0824293)
(-0.824084 0.563429 -0.0585852)
(-0.824071 0.56553 -0.0329074)
(-0.824071 0.566452 -0.00617762)
(-0.824084 0.566086 0.020777)
(-0.824111 0.564466 0.0471123)
(-0.824146 0.561783 0.0720001)
(-0.824186 0.558352 0.0946601)
(-0.824226 0.554587 0.114391)
(-0.824261 0.550944 0.130593)
(-0.824287 0.547871 0.142791)
(-0.824301 0.545744 0.150636)
(-0.824301 0.544826 0.153921)
(-0.824287 0.545228 0.15257)
(-0.824261 0.546892 0.146636)
(-0.824226 0.549613 0.1363)
(-0.824186 0.553053 0.121859)
(-0.824146 0.556798 0.103728)
(-0.824111 0.560398 0.0824293)
(-0.824084 0.563429 0.0585852)
(-0.824071 0.56553 0.0329074)
(-0.720928 -0.691845 0.0401658)
(-0.720951 -0.689284 0.0715332)
(-0.720995 -0.685592 0.100651)
(-0.721057 -0.681203 0.126647)
(-0.721124 -0.676646 0.148763)
(-0.721193 -0.672461 0.166363)
(-0.72125 -0.669159 0.178953)
(-0.721295 -0.667138 0.186174)
(-0.721319 -0.666652 0.187814)
(-0.721319 -0.667767 0.18381)
(-0.721295 -0.67035 0.174254)
(-0.72125 -0.674085 0.159398)
(-0.721193 -0.678512 0.139654)
(-0.721124 -0.683094 0.115599)
(-0.721057 -0.687271 0.0879562)
(-0.720995 -0.690544 0.0575785)
(-0.720951 -0.69252 0.0254179)
(-0.720928 -0.69297 -0.00750946)
(-0.720928 -0.691845 -0.0401658)
(-0.720951 -0.689284 -0.0715332)
(-0.720995 -0.685592 -0.100651)
(-0.721057 -0.681203 -0.126647)
(-0.721124 -0.676646 -0.148763)
(-0.721193 -0.672461 -0.166363)
(-0.72125 -0.669159 -0.178953)
(-0.721295 -0.667138 -0.186174)
(-0.721319 -0.666652 -0.187814)
(-0.721319 -0.667767 -0.18381)
(-0.721295 -0.67035 -0.174254)
(-0.72125 -0.674085 -0.159398)
(-0.721193 -0.678512 -0.139654)
(-0.721124 -0.683094 -0.115599)
(-0.721057 -0.687271 -0.0879562)
(-0.720995 -0.690544 -0.0575785)
(-0.720951 -0.69252 -0.0254179)
(-0.720928 -0.69297 0.00750946)
(-0.990236 -0.135915 0.0309677)
(-0.99026 -0.134423 0.0362716)
(-0.990304 -0.132906 0.0404227)
(-0.990364 -0.131542 0.0433208)
(-0.990431 -0.130497 0.0449113)
(-0.990498 -0.129893 0.0451768)
(-0.990557 -0.129805 0.0441297)
(-0.990601 -0.130239 0.0418054)
(-0.990624 -0.131148 0.0382623)
(-0.990624 -0.132424 0.033581)
(-0.990601 -0.133914 0.0278703)
(-0.990557 -0.135441 0.0212731)
(-0.990498 -0.136814 0.013969)
(-0.990431 -0.13787 0.00617678)
(-0.990364 -0.138479 -0.0018537)
(-0.990304 -0.138568 -0.00985177)
(-0.99026 -0.138122 -0.0175417)
(-0.990236 -0.1372 -0.0246591)
(-0.990236 -0.135915 -0.0309677)
(-0.99026 -0.134423 -0.0362716)
(-0.990304 -0.132906 -0.0404227)
(-0.990364 -0.131542 -0.0433208)
(-0.990431 -0.130497 -0.0449113)
(-0.990498 -0.129893 -0.0451768)
(-0.990557 -0.129805 -0.0441297)
(-0.990601 -0.130239 -0.0418054)
(-0.990624 -0.131148 -0.0382623)
(-0.990624 -0.132424 -0.033581)
(-0.990601 -0.133914 -0.0278703)
(-0.990557 -0.135441 -0.0212731)
(-0.990498 -0.136814 -0.013969)
(-0.990431 -0.13787 -0.00617678)
(-0.990364 -0.138479 0.0018537)
(-0.990304 -0.138568 0.00985177)
(-0.99026 -0.138122 0.0175417)
(-0.990236 -0.1372 0.0246591)
(-0.826823 0.562429 0.00619087)
(-0.826836 0.562093 -0.0198484)
(-0.826861 0.560579 -0.0452957)
(-0.826894 0.558065 -0.0693522)
(-0.826932 0.554846 -0.0912648)
(-0.82697 0.55131 -0.110355)
(-0.827004 0.547885 -0.126044)
(-0.827028 0.544992 -0.137869)
(-0.827042 0.542986 -0.145493)
(-0.827042 0.542114 -0.14871)
(-0.827028 0.54248 -0.147446)
(-0.827004 0.544032 -0.141751)
(-0.82697 0.54658 -0.131799)
(-0.826932 0.549808 -0.117876)
(-0.826894 0.553326 -0.100382)
(-0.826861 0.556713 -0.0798243)
(-0.826836 0.559568 -0.0568036)
(-0.826823 0.561551 -0.0320076)
(-0.826823 0.562429 -0.00619087)
(-0.826836 0.562093 0.0198484)
(-0.826861 0.560579 0.0452957)
(-0.826894 0.558065 0.0693522)
(-0.826932 0.554846 0.0912648)
(-0.82697 0.55131 0.110355)
(-0.827004 0.547885 0.126044)
(-0.827028 0.544992 0.137869)
(-0.827042 0.542986 0.145493)
(-0.827042 0.542114 0.14871)
(-0.827028 0.54248 0.147446)
(-0.827004 0.544032 0.141751)
(-0.82697 0.54658 0.131799)
(-0.826932 0.549808 0.117876)
(-0.826894 0.553326 0.100382)
(-0.826861 0.556713 0.0798243)
(-0.826836 0.559568 0.0568036)
(-0.826823 0.561551 0.0320076)
(-0.722302 -0.690492 0.0387313)
(-0.722324 -0.688113 0.068917)
(-0.722365 -0.684684 0.0969404)
(-0.722423 -0.680611 0.121962)
(-0.722485 -0.676384 0.143248)
(-0.722549 -0.672505 0.160187)
(-0.722602 -0.669447 0.172298)
(-0.722644 -0.667578 0.179235)
(-0.722667 -0.667133 0.180794)
(-0.722667 -0.668172 0.176916)
(-0.722644 -0.670571 0.167692)
(-0.722602 -0.674036 0.153368)
(-0.722549 -0.678141 0.134344)
(-0.722485 -0.682389 0.111177)
(-0.722423 -0.686261 0.0845639)
(-0.722365 -0.689296 0.055326)
(-0.722324 -0.691125 0.024377)
(-0.722302 -0.691539 -0.00730744)
(-0.722302 -0.690492 -0.0387313)
(-0.722324 -0.688113 -0.068917)
(-0.722365 -0.684684 -0.0969404)
(-0.722423 -0.680611 -0.121962)
(-0.722485 -0.676384 -0.143248)
(-0.722549 -0.672505 -0.160187)
(-0.722602 -0.669447 -0.172298)
(-0.722644 -0.667578 -0.179235)
(-0.722667 -0.667133 -0.180794)
(-0.722667 -0.668172 -0.176916)
(-0.722644 -0.670571 -0.167692)
(-0.722602 -0.674036 -0.153368)
(-0.722549 -0.678141 -0.134344)
(-0.722485 -0.682389 -0.111177)
(-0.722423 -0.686261 -0.0845639)
(-0.722365 -0.689296 -0.055326)
(-0.722324 -0.691125 -0.024377)
(-0.722302 -0.691539 0.00730744)
(-0.989253 -0.143111 0.0299649)
(-0.989275 -0.141718 0.035383)
(-0.989315 -0.140287 0.0396805)
(-0.989371 -0.13899 0.04275)
(-0.989433 -0.137983 0.044528)
(-0.989496 -0.137385 0.0449878)
(-0.98955 -0.137269 0.0441341)
(-0.989591 -0.137646 0.0419964)
(-0.989613 -0.138473 0.0386281)
(-0.989613 -0.139655 0.0341086)
(-0.989591 -0.141051 0.0285455)
(-0.98955 -0.142489 0.0220794)
(-0.989496 -0.143795 0.0148889)
(-0.989433 -0.144812 0.00718926)
(-0.989371 -0.145414 -0.000774345)
(-0.989315 -0.145529 -0.00873606)
(-0.989275 -0.145142 -0.0164248)
(-0.989253 -0.1443 -0.0235796)
(-0.989253 -0.143111 -0.0299649)
(-0.989275 -0.141718 -0.035383)
(-0.989315 -0.140287 -0.0396805)
(-0.989371 -0.13899 -0.04275)
(-0.989433 -0.137983 -0.044528)
(-0.989496 -0.137385 -0.0449878)
(-0.98955 -0.137269 -0.0441341)
(-0.989591 -0.137646 -0.0419964)
(-0.989613 -0.138473 -0.0386281)
(-0.989613 -0.139655 -0.0341086)
(-0.989591 -0.141051 -0.0285455)
(-0.98955 -0.142489 -0.0220794)
(-0.989496 -0.143795 -0.0148889)
(-0.989433 -0.144812 -0.00718926)
(-0.989371 -0.145414 0.000774345)
(-0.989315 -0.145529 0.00873606)
(-0.989275 -0.145142 0.0164248)
(-0.989253 -0.1443 0.0235796)
(-0.830259 0.557344 0.00616721)
(-0.830272 0.557047 -0.0186289)
(-0.830295 0.555673 -0.0428692)
(-0.830326 0.553381 -0.0657944)
(-0.830361 0.550441 -0.0866879)
(-0.830397 0.547208 -0.104904)
(-0.830428 0.544073 -0.119889)
(-0.830451 0.541422 -0.131201)
(-0.830463 0.539579 -0.138516)
(-0.830463 0.538768 -0.141634)
(-0.830451 0.539088 -0.140482)
(-0.830428 0.540496 -0.135105)
(-0.830397 0.542816 -0.125666)
(-0.830361 0.545763 -0.11244)
(-0.830326 0.548981 -0.0958084)
(-0.830295 0.552083 -0.0762521)
(-0.830272 0.554703 -0.0543462)
(-0.830259 0.556529 -0.0307453)
(-0.830259 0.557344 -0.00616721)
(-0.830272 0.557047 0.0186289)
(-0.830295 0.555673 0.0428692)
(-0.830326 0.553381 0.0657944)
(-0.830361 0.550441 0.0866879)
(-0.830397 0.547208 0.104904)
(-0.830428 0.544073 0.119889)
(-0.830451 0.541422 0.131201)
(-0.830463 0.539579 0.138516)
(-0.830463 0.538768 0.141634)
(-0.830451 0.539088 0.140482)
(-0.830428 0.540496 0.135105)
(-0.830397 0.542816 0.125666)
(-0.830361 0.545763 0.11244)
(-0.830326 0.548981 0.0958084)
(-0.830295 0.552083 0.0762521)
(-0.830272 0.554703 0.0543462)
(-0.830259 0.556529 0.0307453)
(-0.722551 -0.690336 0.0368213)
(-0.722569 -0.688188 0.0655129)
(-0.722607 -0.685089 0.0921553)
(-0.722658 -0.681411 0.115949)
(-0.722716 -0.677594 0.136194)
(-0.722773 -0.674094 0.152306)
(-0.722822 -0.671335 0.163823)
(-0.722858 -0.669652 0.170416)
(-0.72288 -0.669252 0.171889)
(-0.72288 -0.670192 0.168188)
(-0.722858 -0.672359 0.159402)
(-0.722822 -0.675485 0.145767)
(-0.722773 -0.679191 0.12767)
(-0.722716 -0.683024 0.105641)
(-0.722658 -0.68652 0.0803445)
(-0.722607 -0.689258 0.0525582)
(-0.722569 -0.690911 0.0231496)
(-0.722551 -0.691283 -0.0069582)
(-0.722551 -0.690336 -0.0368213)
(-0.722569 -0.688188 -0.0655129)
(-0.722607 -0.685089 -0.0921553)
(-0.722658 -0.681411 -0.115949)
(-0.722716 -0.677594 -0.136194)
(-0.722773 -0.674094 -0.152306)
(-0.722822 -0.671335 -0.163823)
(-0.722858 -0.669652 -0.170416)
(-0.72288 -0.669252 -0.171889)
(-0.72288 -0.670192 -0.168188)
(-0.722858 -0.672359 -0.159402)
(-0.722822 -0.675485 -0.145767)
(-0.722773 -0.679191 -0.12767)
(-0.722716 -0.683024 -0.105641)
(-0.722658 -0.68652 -0.0803445)
(-0.722607 -0.689258 -0.0525582)
(-0.722569 -0.690911 -0.0231496)
(-0.722551 -0.691283 0.0069582)
(-0.987549 -0.154677 0.0286717)
(-0.987568 -0.153405 0.0342887)
(-0.987605 -0.15208 0.0388245)
(-0.987655 -0.150864 0.0421614)
(-0.987711 -0.149901 0.0442229)
(-0.987768 -0.149308 0.0449702)
(-0.987817 -0.149152 0.044396)
(-0.987853 -0.149457 0.0425222)
(-0.987873 -0.150181 0.0393949)
(-0.987873 -0.151245 0.0350905)
(-0.987853 -0.152521 0.0297146)
(-0.987817 -0.153849 0.0234051)
(-0.987768 -0.155075 0.0163397)
(-0.987711 -0.156045 0.00872883)
(-0.987655 -0.156643 0.000813871)
(-0.987605 -0.156795 -0.00714507)
(-0.987568 -0.156485 -0.0148808)
(-0.987549 -0.155747 -0.0221351)
(-0.987549 -0.154677 -0.0286717)
(-0.987568 -0.153405 -0.0342887)
(-0.987605 -0.15208 -0.0388245)
(-0.987655 -0.150864 -0.0421614)
(-0.987711 -0.149901 -0.0442229)
(-0.987768 -0.149308 -0.0449702)
(-0.987817 -0.149152 -0.044396)
(-0.987853 -0.149457 -0.0425222)
(-0.987873 -0.150181 -0.0393949)
(-0.987873 -0.151245 -0.0350905)
(-0.987853 -0.152521 -0.0297146)
(-0.987817 -0.153849 -0.0234051)
(-0.987768 -0.155075 -0.0163397)
(-0.987711 -0.156045 -0.00872883)
(-0.987655 -0.156643 -0.000813871)
(-0.987605 -0.156795 0.00714507)
(-0.987568 -0.156485 0.0148808)
(-0.987549 -0.155747 0.0221351)
(-0.834664 0.550726 0.0061099)
(-0.834675 0.550477 -0.0171014)
(-0.834696 0.54927 -0.0398023)
(-0.834724 0.547247 -0.0612832)
(-0.834756 0.544648 -0.0808746)
(-0.834788 0.541784 -0.0979715)
(-0.834817 0.539004 -0.112055)
(-0.834838 0.536646 -0.122707)
(-0.834848 0.535001 -0.129621)
(-0.834848 0.534269 -0.132608)
(-0.834838 0.534537 -0.131593)
(-0.834817 0.53577 -0.126616)
(-0.834788 0.537815 -0.11783)
(-0.834756 0.54042 -0.10549)
(-0.834724 0.543271 -0.0899536)
(-0.834696 0.546027 -0.0716733)
(-0.834675 0.548358 -0.0511875)
(-0.834664 0.54999 -0.0291093)
(-0.834664 0.550726 -0.0061099)
(-0.834675 0.550477 0.0171014)
(-0.834696 0.54927 0.0398023)
(-0.834724 0.547247 0.0612832)
(-0.834756 0.544648 0.0808746)
(-0.834788 0.541784 0.0979715)
(-0.834817 0.539004 0.112055)
(-0.834838 0.536646 0.122707)
(-0.834848 0.535001 0.129621)
(-0.834848 0.534269 0.132608)
(-0.834838 0.534537 0.131593)
(-0.834817 0.53577 0.126616)
(-0.834788 0.537815 0.11783)
(-0.834756 0.54042 0.10549)
(-0.834724 0.543271 0.0899536)
(-0.834696 0.546027 0.0716733)
(-0.834675 0.548358 0.0511875)
(-0.834664 0.54999 0.0291093)
(-0.72109 -0.691987 0.0343916)
(-0.721105 -0.690112 0.0612593)
(-0.721139 -0.687404 0.0862179)
(-0.721182 -0.684194 0.108517)
(-0.721232 -0.680859 0.127498)
(-0.721281 -0.677802 0.142609)
(-0.721326 -0.675391 0.153414)
(-0.721357 -0.673922 0.159601)
(-0.721377 -0.673572 0.160985)
(-0.721377 -0.674391 0.157518)
(-0.721357 -0.676282 0.149286)
(-0.721326 -0.679008 0.136513)
(-0.721281 -0.682244 0.119567)
(-0.721232 -0.685591 0.0989433)
(-0.721182 -0.688645 0.0752664)
(-0.721139 -0.691036 0.0492629)
(-0.721105 -0.692485 0.0217422)
(-0.72109 -0.692811 -0.00643602)
(-0.72109 -0.691987 -0.0343916)
(-0.721105 -0.690112 -0.0612593)
(-0.721139 -0.687404 -0.0862179)
(-0.721182 -0.684194 -0.108517)
(-0.721232 -0.680859 -0.127498)
(-0.721281 -0.677802 -0.142609)
(-0.721326 -0.675391 -0.153414)
(-0.721357 -0.673922 -0.159601)
(-0.721377 -0.673572 -0.160985)
(-0.721377 -0.674391 -0.157518)
(-0.721357 -0.676282 -0.149286)
(-0.721326 -0.679008 -0.136513)
(-0.721281 -0.682244 -0.119567)
(-0.721232 -0.685591 -0.0989433)
(-0.721182 -0.688645 -0.0752664)
(-0.721139 -0.691036 -0.0492629)
(-0.721105 -0.692485 -0.0217422)
(-0.72109 -0.692811 0.00643602)
(-0.984691 -0.172195 0.0270616)
(-0.984708 -0.171064 0.0329679)
(-0.984741 -0.169865 0.0378404)
(-0.984783 -0.168747 0.0415472)
(-0.984833 -0.167837 0.0439952)
(-0.984881 -0.167248 0.04513)
(-0.984925 -0.167045 0.0449292)
(-0.984957 -0.167261 0.0434035)
(-0.984974 -0.167866 0.040591)
(-0.984974 -0.16879 0.0365615)
(-0.984957 -0.169921 0.0314169)
(-0.984925 -0.171123 0.025294)
(-0.984881 -0.172253 0.018367)
(-0.984833 -0.173168 0.0108416)
(-0.984783 -0.173762 0.00295508)
(-0.984741 -0.173956 -0.0050377)
(-0.984708 -0.173735 -0.0128728)
(-0.984691 -0.173123 -0.0202936)
(-0.984691 -0.172195 -0.0270616)
(-0.984708 -0.171064 -0.0329679)
(-0.984741 -0.169865 -0.0378404)