/*--------------------------------*- C++ -*----------------------------------*\
| =========                 |                                                 |
| \\      /  F ield         | OpenFOAM: The Open Source CFD Toolbox           |
|  \\    /   O peration     | Version:  2312                                  |
|   \\  /    A nd           | Website:  www.openfoam.com                      |
|    \\/     M anipulation  |                                                 |
\*---------------------------------------------------------------------------*/
FoamFile
{
    version     2.0;
    format      ascii;
    arch        "LSB;label=32;scalar=64";
    class       volScalarField;
    location    "0";
    object      thetha;
}
// * * * * * * * * * * * * * * * * * * * * * * * * * * * * * * * * * * * * * //

dimensions      [0 0 0 0 0 0 0];

internalField   nonuniform List<scalar> 
1620
(
1.57206
1.57453
1.5769
1.57908
1.581
1.58262
1.58388
1.58474
1.58517
1.58517
1.58474
1.58388
1.58262
1.581
1.57908
1.5769
1.57453
1.57206
1.56954
1.56706
1.56469
1.56251
1.56059
1.55898
1.55772
1.55686
1.55642
1.55642
1.55686
1.55772
1.55898
1.56059
1.56251
1.56469
1.56706
1.56954
1.57234
1.57538
1.57828
1.58096
1.58332
1.5853
1.58684
1.5879
1.58843
1.58843
1.5879
1.58684
1.5853
1.58332
1.58096
1.57828
1.57538
1.57234
1.56925
1.56621
1.56331
1.56064
1.55828
1.55629
1.55475
1.55369
1.55316
1.55316
1.55369
1.55475
1.55629
1.55828
1.56064
1.56331
1.56621
1.56925
1.57343
1.5786
1.58355
1.5881
1.59213
1.5955
1.59813
1.59993
1.60084
1.60084
1.59993
1.59813
1.5955
1.59213
1.5881
1.58355
1.5786
1.57343
1.56817
1.56299
1.55805
1.55349
1.54947
1.54609
1.54346
1.54166
1.54075
1.54075
1.54166
1.54346
1.54609
1.54947
1.55349
1.55805
1.56299
1.56817
1.57281
1.57673
1.58049
1.58396
1.58702
1.58958
1.59158
1.59295
1.59364
1.59364
1.59295
1.59158
1.58958
1.58702
1.58396
1.58049
1.57673
1.57281
1.56879
1.56486
1.5611
1.55763
1.55458
1.55202
1.55001
1.54864
1.54795
1.54795
1.54864
1.55001
1.55202
1.55458
1.55763
1.5611
1.56486
1.56879
1.5741
1.58059
1.58678
1.59249
1.59754
1.60177
1.60507
1.60732
1.60846
1.60846
1.60732
1.60507
1.60177
1.59754
1.59249
1.58678
1.58059
1.5741
1.56749
1.56101
1.55481
1.5491
1.54405
1.53982
1.53653
1.53427
1.53313
1.53313
1.53427
1.53653
1.53982
1.54405
1.5491
1.55481
1.56101
1.56749
1.57535
1.58429
1.59283
1.60071
1.60766
1.61349
1.61803
1.62113
1.62271
1.62271
1.62113
1.61803
1.61349
1.60766
1.60071
1.59283
1.58429
1.57535
1.56625
1.5573
1.54876
1.54089
1.53393
1.5281
1.52356
1.52046
1.51888
1.51888
1.52046
1.52356
1.5281
1.53393
1.54089
1.54876
1.5573
1.56625
1.57103
1.57148
1.57194
1.57226
1.5726
1.57289
1.57308
1.57326
1.57334
1.57334
1.57326
1.57308
1.57289
1.5726
1.57226
1.57194
1.57148
1.57103
1.57056
1.57012
1.56965
1.56933
1.56899
1.5687
1.56851
1.56833
1.56826
1.56826
1.56833
1.56851
1.5687
1.56899
1.56933
1.56965
1.57012
1.57056
1.57088
1.57093
1.57102
1.57105
1.57116
1.57124
1.57125
1.57129
1.5713
1.5713
1.57129
1.57125
1.57124
1.57116
1.57105
1.57103
1.57093
1.57088
1.57071
1.57066
1.57057
1.57054
1.57044
1.57035
1.57034
1.5703
1.57029
1.57029
1.5703
1.57034
1.57035
1.57044
1.57054
1.57057
1.57066
1.57071
1.57132
1.5723
1.57324
1.57413
1.5749
1.57556
1.57607
1.57641
1.57658
1.57658
1.57641
1.57607
1.57556
1.5749
1.57413
1.57324
1.5723
1.57132
1.57027
1.56929
1.56835
1.56747
1.56669
1.56604
1.56552
1.56518
1.56501
1.56501
1.56518
1.56552
1.56604
1.56669
1.56747
1.56835
1.56929
1.57027
4.7087
4.70143
4.69446
4.68807
4.68242
4.67768
4.67398
4.67145
4.67017
4.67017
4.67145
4.67398
4.67768
4.68242
4.68807
4.69446
4.70143
4.7087
4.71608
4.72335
4.73032
4.73671
4.74236
4.7471
4.75079
4.75332
4.7546
4.7546
4.75332
4.75079
4.7471
4.74236
4.73671
4.73032
4.72335
4.71608
4.70841
4.70058
4.6931
4.68622
4.68014
4.67503
4.67106
4.66835
4.66697
4.66697
4.66835
4.67106
4.67503
4.68014
4.68622
4.6931
4.70058
4.70841
4.71636
4.7242
4.73167
4.73856
4.74464
4.74974
4.75372
4.75643
4.75781
4.75781
4.75643
4.75372
4.74974
4.74464
4.73856
4.73167
4.7242
4.71636
4.70889
4.702
4.69542
4.68937
4.68401
4.67952
4.67602
4.67364
4.67242
4.67242
4.67364
4.67602
4.67952
4.68401
4.68937
4.69542
4.702
4.70889
4.71588
4.72278
4.72935
4.73541
4.74077
4.74526
4.74875
4.75114
4.75236
4.75236
4.75114
4.74875
4.74526
4.74077
4.73541
4.72935
4.72278
4.71588
4.70433
4.68844
4.67329
4.65934
4.64703
4.63671
4.62869
4.62322
4.62044
4.62044
4.62322
4.62869
4.63671
4.64703
4.65934
4.67329
4.68844
4.70433
4.72045
4.73634
4.75149
4.76543
4.77775
4.78806
4.79608
4.80156
4.80434
4.80434
4.80156
4.79608
4.78806
4.77775
4.76543
4.75149
4.73634
4.72045
4.70413
4.68787
4.67237
4.6581
4.6455
4.63494
4.62674
4.62113
4.61829
4.61829
4.62113
4.62674
4.63494
4.6455
4.6581
4.67237
4.68787
4.70413
4.72064
4.7369
4.75241
4.76668
4.77928
4.78984
4.79804
4.80365
4.80649
4.80649
4.80365
4.79804
4.78984
4.77928
4.76668
4.75241
4.7369
4.72064
4.70493
4.69022
4.6762
4.66329
4.65188
4.64233
4.6349
4.62983
4.62725
4.62725
4.62983
4.6349
4.64233
4.65188
4.66329
4.6762
4.69022
4.70493
4.71985
4.73456
4.74858
4.76149
4.77289
4.78245
4.78988
4.79495
4.79753
4.79753
4.79495
4.78988
4.78245
4.77289
4.76149
4.74858
4.73456
4.71985
4.69962
4.67447
4.65053
4.62853
4.60913
4.59291
4.58034
4.57176
4.56742
4.56742
4.57176
4.58034
4.59291
4.60913
4.62853
4.65053
4.67447
4.69962
4.72516
4.7503
4.77425
4.79625
4.81565
4.83187
4.84444
4.85302
4.85736
4.85736
4.85302
4.84444
4.83187
4.81565
4.79625
4.77425
4.7503
4.72516
4.69956
4.67429
4.65023
4.62812
4.60863
4.59234
4.5797
4.57109
4.56672
4.56672
4.57109
4.5797
4.59234
4.60863
4.62812
4.65023
4.67429
4.69956
4.72522
4.75049
4.77455
4.79666
4.81615
4.83244
4.84507
4.85369
4.85806
4.85806
4.85369
4.84507
4.83244
4.81615
4.79666
4.77455
4.75049
4.72522
4.7009
4.67829
4.65674
4.63693
4.61946
4.60484
4.5935
4.58575
4.58183
4.58183
4.58575
4.5935
4.60484
4.61946
4.63693
4.65674
4.67829
4.7009
4.72388
4.74649
4.76804
4.78785
4.80532
4.81994
4.83128
4.83902
4.84295
4.84295
4.83902
4.83128
4.81994
4.80532
4.78785
4.76804
4.74649
4.72388
4.69448
4.65925
4.62576
4.59506
4.56809
4.54562
4.52825
4.51644
4.51046
4.51046
4.51644
4.52825
4.54562
4.56809
4.59506
4.62576
4.65925
4.69448
4.7303
4.76553
4.79902
4.82971
4.85669
4.87916
4.89652
4.90834
4.91432
4.91432
4.90834
4.89652
4.87916
4.85669
4.82971
4.79902
4.76553
4.7303
4.69449
4.65928
4.62581
4.59512
4.56817
4.54571
4.52835
4.51654
4.51057
4.51057
4.51654
4.52835
4.54571
4.56817
4.59512
4.62581
4.65928
4.69449
4.73029
4.7655
4.79897
4.82965
4.85661
4.87907
4.89643
4.90824
4.91421
4.91421
4.90824
4.89643
4.87907
4.85661
4.82965
4.79897
4.7655
4.73029
4.69668
4.66576
4.63634
4.60934
4.58559
4.56576
4.55042
4.53997
4.53467
4.53467
4.53997
4.55042
4.56576
4.58559
4.60934
4.63634
4.66576
4.69668
4.7281
4.75902
4.78844
4.81544
4.83919
4.85902
4.87436
4.88481
4.8901
4.8901
4.88481
4.87436
4.85902
4.83919
4.81544
4.78844
4.75902
4.7281
4.68871
4.64219
4.59808
4.55781
4.5226
4.49341
4.47097
4.45575
4.44808
4.44808
4.45575
4.47097
4.49341
4.5226
4.55781
4.59808
4.64219
4.68871
4.73606
4.78259
4.8267
4.86697
4.90218
4.93137
4.95381
4.96902
4.9767
4.9767
4.96902
4.95381
4.93137
4.90218
4.86697
4.8267
4.78259
4.73606
4.68868
4.64208
4.59791
4.55758
4.52232
4.4931
4.47062
4.45539
4.4477
4.4477
4.45539
4.47062
4.4931
4.52232
4.55758
4.59791
4.64208
4.68868
4.7361
4.78269
4.82687
4.8672
4.90246
4.93168
4.95416
4.96939
4.97708
4.97708
4.96939
4.95416
4.93168
4.90246
4.8672
4.82687
4.78269
4.7361
4.69203
4.652
4.61398
4.57919
4.54868
4.52331
4.50375
4.49045
4.48374
4.48374
4.49045
4.50375
4.52331
4.54868
4.57919
4.61398
4.652
4.69203
4.73275
4.77278
4.8108
4.84559
4.8761
4.90147
4.92103
4.93432
4.94104
4.94104
4.93432
4.92103
4.90147
4.8761
4.84559
4.8108
4.77278
4.73275
4.68193
4.62215
4.56571
4.51449
4.47005
4.43348
4.40556
4.38673
4.37726
4.37726
4.38673
4.40556
4.43348
4.47005
4.51449
4.56571
4.62215
4.68193
4.74285
4.80263
4.85907
4.91029
4.95473
4.9913
5.01922
5.03805
5.04752
5.04752
5.03805
5.01922
4.9913
4.95473
4.91029
4.85907
4.80263
4.74285
4.68177
4.6217
4.56498
4.51353
4.46888
4.43215
4.40411
4.38521
4.3757
4.3757
4.38521
4.40411
4.43215
4.46888
4.51353
4.56498
4.6217
4.68177
4.743
4.80308
4.8598
4.91125
4.9559
4.99262
5.02067
5.03957
5.04908
5.04908
5.03957
5.02067
4.99262
4.9559
4.91125
4.8598
4.80308
4.743
4.68665
4.63609
4.58821
4.54457
4.5065
4.47501
4.45083
4.43448
4.42623
4.42623
4.43448
4.45083
4.47501
4.5065
4.54457
4.58821
4.63609
4.68665
4.73813
4.78869
4.83657
4.88021
4.91828
4.94977
4.97394
4.9903
4.99855
4.99855
4.9903
4.97394
4.94977
4.91828
4.88021
4.83657
4.78869
4.73813
4.6733
4.59677
4.52498
4.46049
4.40515
4.36016
4.32615
4.30341
4.29203
4.29203
4.30341
4.32615
4.36016
4.40515
4.46049
4.52498
4.59677
4.6733
4.75148
4.828
4.8998
4.96429
5.01963
5.06462
5.09863
5.12137
5.13275
5.13275
5.12137
5.09863
5.06462
5.01963
4.96429
4.8998
4.828
4.75148
4.67326
4.59665
4.52479
4.46024
4.40485
4.35982
4.32578
4.30303
4.29164
4.29164
4.30303
4.32578
4.35982
4.40485
4.46024
4.52479
4.59665
4.67326
4.75152
4.82812
4.89999
4.96454
5.01993
5.06496
5.09899
5.12175
5.13314
5.13314
5.12175
5.09899
5.06496
5.01993
4.96454
4.89999
4.82812
4.75152
4.68002
4.61652
4.55664
4.50242
4.45547
4.41694
4.38758
4.36782
4.35789
4.35789
4.36782
4.38758
4.41694
4.45547
4.50242
4.55664
4.61652
4.68002
4.74476
4.80826
4.86814
4.92236
4.9693
5.00783
5.0372
5.05696
5.06689
5.06689
5.05696
5.0372
5.00783
4.9693
4.92236
4.86814
4.80826
4.74476
4.66091
4.56055
4.46754
4.38545
4.31642
4.26138
4.22049
4.19351
4.18012
4.18012
4.19351
4.22049
4.26138
4.31642
4.38545
4.46754
4.56055
4.66091
4.76387
4.86422
4.95724
5.03933
5.10836
5.1634
5.20428
5.23127
5.24466
5.24466
5.23127
5.20428
5.1634
5.10836
5.03933
4.95724
4.86422
4.76387
4.66217
4.56421
4.47331
4.39292
4.32516
4.27104
4.23075
4.20412
4.1909
4.1909
4.20412
4.23075
4.27104
4.32516
4.39292
4.47331
4.56421
4.66217
4.76261
4.86056
4.95147
5.03186
5.09961
5.15374
5.19403
5.22066
5.23388
5.23388
5.22066
5.19403
5.15374
5.09961
5.03186
4.95147
4.86056
4.76261
4.67117
4.59052
4.51501
4.44736
4.38949
4.3426
4.30725
4.28366
4.27188
4.27188
4.28366
4.30725
4.3426
4.38949
4.44736
4.51501
4.59052
4.67117
4.75361
4.83426
4.90977
4.97742
5.03528
5.08218
5.11753
5.14111
5.1529
5.1529
5.14111
5.11753
5.08218
5.03528
4.97742
4.90977
4.83426
4.75361
4.63969
4.49938
4.37288
4.26542
4.17868
4.11211
4.06418
4.03327
4.01814
4.01814
4.03327
4.06418
4.11211
4.17868
4.26542
4.37288
4.49938
4.63969
4.78509
4.9254
5.05189
5.15936
5.2461
5.31267
5.3606
5.39151
5.40663
5.40663
5.39151
5.3606
5.31267
5.2461
5.15936
5.05189
4.9254
4.78509
4.6463
4.51833
4.40185
4.30162
4.21962
4.15593
4.10962
4.07954
4.06476
4.06476
4.07954
4.10962
4.15593
4.21962
4.30162
4.40185
4.51833
4.6463
4.77847
4.90645
5.02292
5.12316
5.20516
5.26885
5.31516
5.34524
5.36002
5.36002
5.34524
5.31516
5.26885
5.20516
5.12316
5.02292
4.90645
4.77847
4.65812
4.55244
4.45482
4.36903
4.29725
4.24031
4.19817
4.17045
4.15671
4.15671
4.17045
4.19817
4.24031
4.29725
4.36903
4.45482
4.55244
4.65812
4.76666
4.87233
4.96996
5.05575
5.12752
5.18447
5.22661
5.25433
5.26807
5.26807
5.25433
5.22661
5.18447
5.12752
5.05575
4.96996
4.87233
4.76666
4.59286
4.36978
4.18503
4.04354
3.93996
3.86656
3.81677
3.78592
3.77117
3.77117
3.78592
3.81677
3.86656
3.93996
4.04354
4.18503
4.36978
4.59286
4.83191
5.055
5.23975
5.38123
5.48482
5.55822
5.60801
5.63886
5.65361
5.65361
5.63886
5.60801
5.55822
5.48482
5.38123
5.23975
5.055
4.83191
4.61995
4.44374
4.28991
4.16456
4.0675
3.99563
3.94529
3.91344
3.89803
3.89803
3.91344
3.94529
3.99563
4.0675
4.16456
4.28991
4.44374
4.61995
4.80483
4.98104
5.13486
5.26022
5.35727
5.42915
5.47949
5.51134
5.52675
5.52675
5.51134
5.47949
5.42915
5.35727
5.26022
5.13486
4.98104
4.80483
4.63591
4.48864
4.35662
4.2453
4.15616
4.08822
4.03957
4.00831
3.99306
3.99306
4.00831
4.03957
4.08822
4.15616
4.2453
4.35662
4.48864
4.63591
4.78887
4.93614
5.06816
5.17948
5.26862
5.33656
5.38521
5.41646
5.43172
5.43172
5.41646
5.38521
5.33656
5.26862
5.17948
5.06816
4.93614
4.78887
4.40442
3.95578
3.71709
3.58747
3.51149
3.4646
3.43537
3.41817
3.41017
3.41017
3.41817
3.43537
3.4646
3.51149
3.58747
3.71709
3.95578
4.40441
5.02036
5.469
5.70768
5.83731
5.91328
5.96018
5.98941
6.00661
6.01461
6.01461
6.00661
5.98941
5.96018
5.91328
5.83731
5.70768
5.469
5.02036
4.56477
4.29655
4.08766
3.93779
3.83369
3.76264
3.71563
3.68698
3.67339
3.67339
3.68698
3.71563
3.76264
3.83369
3.93779
4.08766
4.29655
4.56477
4.86001
5.12823
5.33712
5.48699
5.59109
5.66214
5.70914
5.7378
5.75139
5.75139
5.7378
5.70914
5.66214
5.59109
5.48699
5.33712
5.12823
4.86001
4.58967
4.36129
4.17337
4.03053
3.92664
3.85336
3.8038
3.77317
3.75854
3.75854
3.77317
3.8038
3.85336
3.92664
4.03053
4.17337
4.36129
4.58967
4.83511
5.06349
5.2514
5.39424
5.49814
5.57141
5.62097
5.65161
5.66624
5.66624
5.65161
5.62097
5.57141
5.49814
5.39424
5.2514
5.06349
4.83511
5.55854
5.99397
6.1026
6.1495
6.1746
6.18934
6.19823
6.20355
6.20591
6.20591
6.20355
6.19823
6.18934
6.1746
6.1495
6.1026
5.99397
5.55854
3.86624
3.43081
3.32218
3.27528
3.25018
3.23544
3.22655
3.22122
3.21887
3.21887
3.22122
3.22655
3.23544
3.25018
3.27528
3.32218
3.43081
3.86624
4.47911
4.09796
3.85641
3.71061
3.62011
3.56264
3.52617
3.50454
3.49441
3.49441
3.50454
3.52617
3.56264
3.62011
3.71061
3.85641
4.09796
4.47912
4.94566
5.32682
5.56837
5.71417
5.80466
5.86213
5.8986
5.92024
5.93037
5.93037
5.92024
5.8986
5.86213
5.80466
5.71417
5.56837
5.32682
4.94566
4.51263
4.17109
3.93626
3.78542
3.68851
3.62546
3.58506
3.56086
3.54951
3.54951
3.56086
3.58506
3.62546
3.68851
3.78542
3.93626
4.17109
4.51263
4.91214
5.25369
5.48851
5.63936
5.73626
5.79932
5.83972
5.86391
5.87527
5.87527
5.86391
5.83972
5.79932
5.73626
5.63936
5.48851
5.25369
4.91214
)
;

boundaryField
{
    fixed
    {
        type            calculated;
        value           nonuniform List<scalar> 
108
(
1.4125
1.12813
0.912078
0.760755
0.657517
0.587901
0.5422
0.51447
0.501358
0.501358
0.51447
0.5422
0.587901
0.657517
0.760755
0.912078
1.12813
1.4125
1.72909
2.01346
2.22951
2.38084
2.48408
2.55369
2.59939
2.62712
2.64023
2.64023
2.62712
2.59939
2.55369
2.48408
2.38084
2.22951
2.01346
1.72909
1.42941
1.1709
0.966701
0.818076
0.713701
0.64192
0.594193
0.565005
0.551145
0.551145
0.565005
0.594193
0.64192
0.713701
0.818076
0.966701
1.1709
1.42941
1.71218
1.97069
2.17489
2.32352
2.42789
2.49967
2.5474
2.57659
2.59045
2.59045
2.57659
2.5474
2.49967
2.42789
2.32352
2.17489
1.97069
1.71218
1.44641
1.21526
1.02575
0.882262
0.778229
0.705033
0.655612
0.625095
0.610526
0.610526
0.625095
0.655612
0.705033
0.778229
0.882262
1.02575
1.21526
1.44641
1.69519
1.92633
2.11584
2.25933
2.36336
2.43656
2.48598
2.5165
2.53107
2.53107
2.5165
2.48598
2.43656
2.36336
2.25933
2.11584
1.92633
1.69519
)
;
    }
    inside
    {
        type            calculated;
        value           nonuniform List<scalar> 
540
(
1.42531
1.16038
0.953058
0.803576
0.699362
0.628054
0.580797
0.551956
0.538277
0.538277
0.551956
0.580797
0.628054
0.699362
0.803576
0.953058
1.16038
1.42531
1.71629
1.98121
2.18854
2.33802
2.44223
2.51354
2.5608
2.58964
2.60332
2.60332
2.58964
2.5608
2.51354
2.44223
2.33802
2.18854
1.98121
1.71629
1.29164
0.86559
0.623663
0.487438
0.406096
0.355419
0.323687
0.304961
0.296235
0.296235
0.304961
0.323687
0.355419
0.406096
0.487438
0.623663
0.86559
1.29164
1.84996
2.276
2.51793
2.65415
2.7355
2.78617
2.81791
2.83663
2.84536
2.84536
2.83663
2.81791
2.78617
2.7355
2.65415
2.51793
2.276
1.84996
0.350346
0.122438
0.0752179
0.0554694
0.0450105
0.0388604
0.0351265
0.0329603
0.0319594
0.0319594
0.0329603
0.0351265
0.0388604
0.0450105
0.0554694
0.0752179
0.122438
0.350346
2.79125
3.01915
3.06637
3.08612
3.09658
3.10273
3.10647
3.10863
3.10963
3.10963
3.10863
3.10647
3.10273
3.09658
3.08612
3.06637
3.01915
2.79125
5.07126
5.55164
5.78052
5.89831
5.96572
6.00681
6.03223
6.04713
6.05405
6.05405
6.04713
6.03223
6.00681
5.96572
5.89831
5.78052
5.55164
5.07126
4.35352
3.87314
3.64426
3.52647
3.45906
3.41797
3.39255
3.37765
3.37073
3.37073
3.37765
3.39255
3.41797
3.45906
3.52647
3.64426
3.87314
4.35352
4.88585
5.19217
5.41667
5.56879
5.67015
5.73747
5.78124
5.80764
5.82009
5.82009
5.80764
5.78124
5.73747
5.67015
5.56879
5.41667
5.19217
4.88585
4.53893
4.23261
4.00811
3.85599
3.75463
3.68731
3.64354
3.61713
3.60469
3.60469
3.61713
3.64354
3.68731
3.75463
3.85599
4.00811
4.23261
4.53893
4.8248
5.03584
5.21322
5.35133
5.45389
5.52736
5.57759
5.60886
5.62386
5.62386
5.60886
5.57759
5.52736
5.45389
5.35133
5.21322
5.03584
4.8248
4.59998
4.38894
4.21156
4.07345
3.97089
3.89742
3.84719
3.81592
3.80092
3.80092
3.81592
3.84719
3.89742
3.97089
4.07345
4.21156
4.38894
4.59998
4.79394
4.9505
5.08973
5.20589
5.29793
5.36743
5.41684
5.44842
5.46379
5.46379
5.44842
5.41684
5.36743
5.29793
5.20589
5.08973
4.9505
4.79394
4.63084
4.47427
4.33505
4.21889
4.12685
4.05734
4.00794
3.97636
3.96098
3.96098
3.97636
4.00794
4.05734
4.12685
4.21889
4.33505
4.47427
4.63084
4.77486
4.89605
5.00689
5.10291
5.18202
5.24388
5.2891
5.31858
5.3331
5.3331
5.31858
5.2891
5.24388
5.18202
5.10291
5.00689
4.89605
4.77486
4.64992
4.52872
4.41789
4.32187
4.24276
4.1809
4.13568
4.1062
4.09168
4.09168
4.1062
4.13568
4.1809
4.24276
4.32187
4.41789
4.52872
4.64992
4.76153
4.8574
4.94647
5.02538
5.09201
5.14533
5.18509
5.21139
5.22446
5.22446
5.21139
5.18509
5.14533
5.09201
5.02538
4.94647
4.8574
4.76153
4.66325
4.56738
4.47831
4.3994
4.33277
4.27944
4.23969
4.21339
4.20032
4.20032
4.21339
4.23969
4.27944
4.33277
4.3994
4.47831
4.56738
4.66325
4.75136
4.82767
4.89927
4.96359
5.01879
5.06368
5.09762
5.12031
5.13167
5.13167
5.12031
5.09762
5.06368
5.01879
4.96359
4.89927
4.82767
4.75136
4.67341
4.5971
4.52551
4.46119
4.40599
4.36109
4.32716
4.30447
4.29311
4.29311
4.30447
4.32716
4.36109
4.40599
4.46119
4.52551
4.5971
4.67341
4.74307
4.80327
4.8601
4.91166
4.95639
4.99318
5.02128
5.04021
5.04973
5.04973
5.04021
5.02128
4.99318
4.95639
4.91166
4.8601
4.80327
4.74307
4.68171
4.62151
4.56467
4.51312
4.46839
4.4316
4.4035
4.38457
4.37505
4.37505
4.38457
4.4035
4.4316
4.46839
4.51312
4.56467
4.62151
4.68171
4.73586
4.782
4.82576
4.8657
4.90063
4.92959
4.95187
4.96697
4.97459
4.97459
4.96697
4.95187
4.92959
4.90063
4.8657
4.82576
4.782
4.73586
4.68891
4.64277
4.59902
4.55908
4.52415
4.49519
4.47291
4.45781
4.45019
4.45019
4.45781
4.47291
4.49519
4.52415
4.55908
4.59902
4.64277
4.68891
4.72924
4.7624
4.79394
4.82286
4.8483
4.8695
4.8859
4.89706
4.90271
4.90271
4.89706
4.8859
4.8695
4.8483
4.82286
4.79394
4.7624
4.72924
4.69554
4.66238
4.63084
4.60191
4.57648
4.55528
4.53888
4.52771
4.52206
4.52206
4.52771
4.53888
4.55528
4.57648
4.60191
4.63084
4.66238
4.69554
4.72284
4.74342
4.76303
4.78107
4.797
4.81032
4.82066
4.82773
4.83131
4.83131
4.82773
4.82066
4.81032
4.797
4.78107
4.76303
4.74342
4.72284
4.70194
4.68136
4.66174
4.6437
4.62778
4.61446
4.60411
4.59705
4.59347
4.59347
4.59705
4.60411
4.61446
4.62778
4.6437
4.66174
4.68136
4.70194
4.71695
4.72593
4.73449
4.74238
4.74936
4.75521
4.75976
4.76287
4.76445
4.76445
4.76287
4.75976
4.75521
4.74936
4.74238
4.73449
4.72593
4.71695
4.70783
4.69885
4.69029
4.6824
4.67542
4.66957
4.66502
4.66191
4.66033
4.66033
4.66191
4.66502
4.66957
4.67542
4.6824
4.69029
4.69885
4.70783
)
;
    }
    outside
    {
        type            calculated;
        value           nonuniform List<scalar> 
540
(
1.36295
1.01129
0.774217
0.624363
0.528911
0.46725
0.427828
0.404283
0.393242
0.393242
0.404283
0.427828
0.46725
0.528911
0.624363
0.774217
1.01129
1.36295
1.77864
2.13031
2.36738
2.51723
2.61268
2.67434
2.71376
2.73731
2.74835
2.74835
2.73731
2.71376
2.67434
2.61268
2.51723
2.36738
2.13031
1.77864
1.17889
0.683706
0.46285
0.352331
0.289842
0.251975
0.228621
0.214954
0.208614
0.208614
0.214954
0.228621
0.251975
0.289842
0.352331
0.46285
0.683706
1.17889
1.9627
2.45789
2.67874
2.78926
2.85175
2.88962
2.91297
2.92664
2.93298
2.93298
2.92664
2.91297
2.88962
2.85175
2.78926
2.67874
2.45789
1.9627
0.161134
0.0546805
0.0335081
0.0246935
0.0200317
0.0172924
0.0156297
0.0146652
0.0142197
0.0142197
0.0146652
0.0156297
0.0172924
0.0200317
0.0246935
0.0335081
0.0546805
0.161134
2.98046
3.08691
3.10808
3.1169
3.12156
3.1243
3.12596
3.12693
3.12737
3.12737
3.12693
3.12596
3.1243
3.12156
3.1169
3.10808
3.08691
2.98046
5.15861
5.66985
5.87618
5.97564
6.03103
6.06434
6.08481
6.09677
6.10231
6.10231
6.09677
6.08481
6.06434
6.03103
5.97564
5.87618
5.66985
5.15861
4.26617
3.75493
3.5486
3.44914
3.39375
3.36043
3.33996
3.32801
3.32247
3.32247
3.32801
3.33996
3.36043
3.39375
3.44914
3.5486
3.75493
4.26617
4.93591
5.30618
5.54641
5.69396
5.78634
5.84543
5.88298
5.90533
5.91579
5.91579
5.90533
5.88298
5.84543
5.78634
5.69396
5.54641
5.30618
4.93591
4.48886
4.1186
3.87837
3.73082
3.63843
3.57935
3.5418
3.51944
3.50898
3.50898
3.51944
3.5418
3.57935
3.63843
3.73082
3.87837
4.1186
4.48886
4.85775
5.12246
5.32969
5.47914
5.58336
5.65469
5.70196
5.73081
5.7445
5.7445
5.73081
5.70196
5.65469
5.58336
5.47914
5.32969
5.12246
4.85775
4.56703
4.30232
4.09509
3.94563
3.84141
3.77009
3.72282
3.69397
3.68028
3.68028
3.69397
3.72282
3.77009
3.84141
3.94563
4.09509
4.30232
4.56703
4.81758
5.01622
5.18557
5.31965
5.42071
5.49395
5.54444
5.57604
5.59124
5.59124
5.57604
5.54444
5.49395
5.42071
5.31965
5.18557
5.01622
4.81758
4.60719
4.40855
4.23921
4.10513
4.00407
3.93083
3.88034
3.84874
3.83354
3.83354
3.84874
3.88034
3.93083
4.00407
4.10513
4.23921
4.40855
4.60719
4.79263
4.94678
5.08416
5.19911
5.29043
5.35956
5.40879
5.4403
5.45565
5.45565
5.4403
5.40879
5.35956
5.29043
5.19911
5.08416
4.94678
4.79263
4.63215
4.47799
4.34062
4.22567
4.13435
4.06522
4.01599
3.98448
3.96913
3.96913
3.98448
4.01599
4.06522
4.13435
4.22567
4.34062
4.47799
4.63215
4.77518
4.89696
5.00829
5.10469
5.18406
5.24608
5.2914
5.32094
5.33549
5.33549
5.32094
5.2914
5.24608
5.18406
5.10469
5.00829
4.89696
4.77518
4.6496
4.52782
4.41648
4.32009
4.24072
4.17869
4.13337
4.10384
4.08929
4.08929
4.10384
4.13337
4.17869
4.24072
4.32009
4.41648
4.52782
4.6496
4.7619
4.8585
4.94821
5.02764
5.09466
5.14827
5.18821
5.21462
5.22775
5.22775
5.21462
5.18821
5.14827
5.09466
5.02764
4.94821
4.8585
4.7619
4.66287
4.56628
4.47657
4.39714
4.33012
4.27651
4.23657
4.21015
4.19703
4.19703
4.21015
4.23657
4.27651
4.33012
4.39714
4.47657
4.56628
4.66287
4.75111
4.82692
4.89807
4.96201
5.01691
5.06157
5.09534
5.11792
5.12923
5.12923
5.11792
5.09534
5.06157
5.01691
4.96201
4.89807
4.82692
4.75111
4.67367
4.59785
4.52671
4.46276
4.40787
4.36321
4.32944
4.30685
4.29555
4.29555
4.30685
4.32944
4.36321
4.40787
4.46276
4.52671
4.59785
4.67367
4.7418
4.79952
4.85408
4.90362
4.94667
4.98213
5.00925
5.02754
5.03675
5.03675
5.02754
5.00925
4.98213
4.94667
4.90362
4.85408
4.79952
4.7418
4.68298
4.62525
4.5707
4.52116
4.47811
4.44265
4.41553
4.39724
4.38803
4.38803
4.39724
4.41553
4.44265
4.47811
4.52116
4.5707
4.62525
4.68298
4.73332
4.77447
4.81355
4.84929
4.88062
4.90666
4.92673
4.94036
4.94725
4.94725
4.94036
4.92673
4.90666
4.88062
4.84929
4.81355
4.77447
4.73332
4.69146
4.6503
4.61123
4.57548
4.54415
4.51812
4.49805
4.48442
4.47753
4.47753
4.48442
4.49805
4.51812
4.54415
4.57548
4.61123
4.6503
4.69146
4.72526
4.75059
4.77472
4.79689
4.81643
4.83277
4.84543
4.85407
4.85845
4.85845
4.85407
4.84543
4.83277
4.81643
4.79689
4.77472
4.75059
4.72526
4.69952
4.67419
4.65006
4.62789
4.60835
4.59201
4.57934
4.5707
4.56633
4.56633
4.5707
4.57934
4.59201
4.60835
4.62789
4.65006
4.67419
4.69952
4.71796
4.72894
4.73942
4.74906
4.75759
4.76474
4.7703
4.7741
4.77603
4.77603
4.7741
4.7703
4.76474
4.75759
4.74906
4.73942
4.72894
4.71796
4.70681
4.69583
4.68536
4.67572
4.66719
4.66004
4.65448
4.65068
4.64875
4.64875
4.65068
4.65448
4.66004
4.66719
4.67572
4.68536
4.69583
4.70681
)
;
    }
}


// ************************************************************************* //
