/*--------------------------------*- C++ -*----------------------------------*\
| =========                 |                                                 |
| \\      /  F ield         | OpenFOAM: The Open Source CFD Toolbox           |
|  \\    /   O peration     | Version:  2312                                  |
|   \\  /    A nd           | Website:  www.openfoam.com                      |
|    \\/     M anipulation  |                                                 |
\*---------------------------------------------------------------------------*/
FoamFile
{
    version     2.0;
    format      ascii;
    arch        "LSB;label=32;scalar=64";
    class       volVectorField;
    location    "0.5";
    object      D_0;
}
// * * * * * * * * * * * * * * * * * * * * * * * * * * * * * * * * * * * * * //

dimensions      [0 1 0 0 0 0 0];

internalField   nonuniform List<vector> 
1620
(
(0.00010417 0.00025647 5.82532e-06)
(5.8052e-05 0.000270662 5.82523e-06)
(1.01704e-05 0.000276631 5.82534e-06)
(-3.80204e-05 0.000274195 5.82553e-06)
(-8.50562e-05 0.000263427 5.82552e-06)
(-0.000129508 0.000244655 5.82545e-06)
(-0.000170024 0.000218449 5.8257e-06)
(-0.000205374 0.000185606 5.82563e-06)
(-0.000234484 0.000147123 5.82536e-06)
(-0.00025647 0.00010417 5.82531e-06)
(-0.000270662 5.8052e-05 5.82522e-06)
(-0.000276631 1.01704e-05 5.82534e-06)
(-0.000274195 -3.80204e-05 5.82552e-06)
(-0.000263427 -8.50562e-05 5.82551e-06)
(-0.000244655 -0.000129508 5.82544e-06)
(-0.000218449 -0.000170024 5.82569e-06)
(-0.000185606 -0.000205374 5.82563e-06)
(-0.000147123 -0.000234484 5.82535e-06)
(-0.00010417 -0.00025647 5.82531e-06)
(-5.8052e-05 -0.000270662 5.82522e-06)
(-1.01704e-05 -0.000276631 5.82534e-06)
(3.80204e-05 -0.000274195 5.82552e-06)
(8.50563e-05 -0.000263427 5.82552e-06)
(0.000129508 -0.000244655 5.82545e-06)
(0.000170024 -0.000218449 5.8257e-06)
(0.000205374 -0.000185606 5.82563e-06)
(0.000234484 -0.000147123 5.82536e-06)
(0.00025647 -0.00010417 5.82532e-06)
(0.000270662 -5.8052e-05 5.82523e-06)
(0.000276631 -1.01704e-05 5.82535e-06)
(0.000274195 3.80204e-05 5.82553e-06)
(0.000263427 8.50562e-05 5.82552e-06)
(0.000244655 0.000129508 5.82545e-06)
(0.000218449 0.000170024 5.8257e-06)
(0.000185606 0.000205374 5.82564e-06)
(0.000147123 0.000234484 5.82536e-06)
(5.01266e-05 0.000291594 3.7291e-05)
(-1.26968e-06 0.000295869 3.7291e-05)
(-5.26271e-05 0.000291153 3.72911e-05)
(-0.000102386 0.000277591 3.72911e-05)
(-0.000149034 0.000255595 3.72911e-05)
(-0.000191153 0.000225832 3.72911e-05)
(-0.000227464 0.000189208 3.72911e-05)
(-0.000256864 0.000146835 3.72911e-05)
(-0.00027846 9.99998e-05 3.72909e-05)
(-0.000291594 5.01266e-05 3.7291e-05)
(-0.000295869 -1.2697e-06 3.7291e-05)
(-0.000291153 -5.26271e-05 3.72911e-05)
(-0.000277591 -0.000102386 3.72911e-05)
(-0.000255595 -0.000149034 3.72911e-05)
(-0.000225832 -0.000191153 3.72911e-05)
(-0.000189208 -0.000227464 3.72911e-05)
(-0.000146835 -0.000256864 3.72911e-05)
(-9.99998e-05 -0.00027846 3.72909e-05)
(-5.01266e-05 -0.000291594 3.7291e-05)
(1.26972e-06 -0.000295869 3.7291e-05)
(5.26272e-05 -0.000291153 3.72911e-05)
(0.000102386 -0.000277591 3.72911e-05)
(0.000149034 -0.000255595 3.72911e-05)
(0.000191153 -0.000225832 3.72911e-05)
(0.000227464 -0.000189208 3.72911e-05)
(0.000256864 -0.000146835 3.72911e-05)
(0.00027846 -9.99998e-05 3.72909e-05)
(0.000291594 -5.01266e-05 3.7291e-05)
(0.000295869 1.2697e-06 3.7291e-05)
(0.000291153 5.26271e-05 3.72911e-05)
(0.000277591 0.000102386 3.72911e-05)
(0.000255595 0.000149034 3.72911e-05)
(0.000225832 0.000191153 3.72911e-05)
(0.000189208 0.000227464 3.72912e-05)
(0.000146835 0.000256864 3.72911e-05)
(9.99998e-05 0.00027846 3.72909e-05)
(-2.47213e-05 0.000323622 4.11026e-05)
(-8.05422e-05 0.000314413 4.11027e-05)
(-0.000133916 0.000295651 4.11027e-05)
(-0.00018322 0.000267904 4.11026e-05)
(-0.000226958 0.000232019 4.11028e-05)
(-0.0002638 0.000189083 4.11027e-05)
(-0.000292626 0.000140402 4.11027e-05)
(-0.000312561 8.74547e-05 4.11025e-05)
(-0.000322998 3.18506e-05 4.11025e-05)
(-0.000323622 -2.47213e-05 4.11026e-05)
(-0.000314413 -8.05422e-05 4.11027e-05)
(-0.000295651 -0.000133916 4.11027e-05)
(-0.000267904 -0.00018322 4.11026e-05)
(-0.000232019 -0.000226958 4.11028e-05)
(-0.000189083 -0.0002638 4.11027e-05)
(-0.000140402 -0.000292626 4.11027e-05)
(-8.74547e-05 -0.000312561 4.11025e-05)
(-3.18506e-05 -0.000322998 4.11025e-05)
(2.47214e-05 -0.000323622 4.11026e-05)
(8.05422e-05 -0.000314413 4.11027e-05)
(0.000133916 -0.000295651 4.11027e-05)
(0.000183221 -0.000267904 4.11026e-05)
(0.000226958 -0.000232019 4.11028e-05)
(0.0002638 -0.000189083 4.11027e-05)
(0.000292626 -0.000140402 4.11027e-05)
(0.000312561 -8.74547e-05 4.11025e-05)
(0.000322998 -3.18506e-05 4.11025e-05)
(0.000323622 2.47213e-05 4.11026e-05)
(0.000314413 8.05422e-05 4.11027e-05)
(0.000295651 0.000133916 4.11027e-05)
(0.000267904 0.000183221 4.11026e-05)
(0.000232019 0.000226958 4.11028e-05)
(0.000189083 0.0002638 4.11027e-05)
(0.000140402 0.000292626 4.11027e-05)
(8.74548e-05 0.000312561 4.11025e-05)
(3.18506e-05 0.000322998 4.11025e-05)
(0.000201085 0.00080934 0.000129735)
(5.74902e-05 0.000831962 0.000129735)
(-8.78517e-05 0.000829306 0.000129735)
(-0.000230524 0.000801452 0.000129736)
(-0.000366192 0.000749246 0.000129736)
(-0.000490734 0.000674275 0.000129736)
(-0.000600366 0.000578816 0.000129736)
(-0.000691755 0.000465769 0.000129736)
(-0.000762126 0.000338571 0.000129735)
(-0.00080934 0.000201085 0.000129735)
(-0.000831962 5.74901e-05 0.000129735)
(-0.000829306 -8.78517e-05 0.000129735)
(-0.000801452 -0.000230524 0.000129736)
(-0.000749246 -0.000366192 0.000129736)
(-0.000674274 -0.000490734 0.000129736)
(-0.000578816 -0.000600366 0.000129736)
(-0.000465769 -0.000691755 0.000129736)
(-0.000338571 -0.000762126 0.000129735)
(-0.000201085 -0.00080934 0.000129735)
(-5.74901e-05 -0.000831962 0.000129735)
(8.78518e-05 -0.000829306 0.000129735)
(0.000230524 -0.000801452 0.000129736)
(0.000366192 -0.000749246 0.000129736)
(0.000490734 -0.000674275 0.000129736)
(0.000600366 -0.000578816 0.000129736)
(0.000691756 -0.000465769 0.000129736)
(0.000762126 -0.000338571 0.000129735)
(0.00080934 -0.000201085 0.000129735)
(0.000831962 -5.74902e-05 0.000129735)
(0.000829306 8.78517e-05 0.000129735)
(0.000801452 0.000230524 0.000129736)
(0.000749246 0.000366192 0.000129736)
(0.000674275 0.000490734 0.000129736)
(0.000578816 0.000600366 0.000129736)
(0.000465769 0.000691755 0.000129736)
(0.000338571 0.000762126 0.000129735)
(0.000114465 0.00086702 0.000187078)
(-3.78301e-05 0.000873724 0.000187078)
(-0.000188976 0.000853882 0.000187078)
(-0.00033438 0.000808095 0.000187079)
(-0.000469624 0.000737753 0.000187079)
(-0.000590599 0.000644995 0.000187079)
(-0.000693628 0.00053264 0.000187078)
(-0.000775582 0.0004041 0.000187078)
(-0.000833971 0.000263282 0.000187078)
(-0.00086702 0.000114465 0.000187078)
(-0.000873724 -3.78301e-05 0.000187078)
(-0.000853882 -0.000188976 0.000187078)
(-0.000808095 -0.00033438 0.000187079)
(-0.000737753 -0.000469624 0.000187079)
(-0.000644995 -0.000590599 0.000187079)
(-0.00053264 -0.000693628 0.000187078)
(-0.0004041 -0.000775582 0.000187078)
(-0.000263282 -0.000833971 0.000187078)
(-0.000114465 -0.00086702 0.000187078)
(3.78302e-05 -0.000873724 0.000187078)
(0.000188976 -0.000853882 0.000187078)
(0.00033438 -0.000808095 0.000187079)
(0.000469624 -0.000737753 0.000187079)
(0.000590599 -0.000644995 0.000187079)
(0.000693628 -0.00053264 0.000187078)
(0.000775582 -0.0004041 0.000187078)
(0.000833971 -0.000263282 0.000187078)
(0.00086702 -0.000114465 0.000187078)
(0.000873724 3.78301e-05 0.000187078)
(0.000853882 0.000188976 0.000187078)
(0.000808095 0.00033438 0.000187079)
(0.000737753 0.000469624 0.000187079)
(0.000644996 0.000590599 0.000187079)
(0.00053264 0.000693628 0.000187078)
(0.0004041 0.000775582 0.000187078)
(0.000263282 0.000833971 0.000187078)
(3.18114e-06 0.000915984 0.000228523)
(-0.000155926 0.00090262 0.000228523)
(-0.000310295 0.000861831 0.000228523)
(-0.000455236 0.000794856 0.000228523)
(-0.000586345 0.000703729 0.000228523)
(-0.000699638 0.000591219 0.000228523)
(-0.000791674 0.000460746 0.000228523)
(-0.000859655 0.000316274 0.000228523)
(-0.000901515 0.000162192 0.000228523)
(-0.000915984 3.18109e-06 0.000228523)
(-0.00090262 -0.000155926 0.000228523)
(-0.000861831 -0.000310295 0.000228523)
(-0.000794856 -0.000455236 0.000228523)
(-0.000703729 -0.000586345 0.000228523)
(-0.000591219 -0.000699638 0.000228523)
(-0.000460746 -0.000791674 0.000228523)
(-0.000316274 -0.000859655 0.000228523)
(-0.000162192 -0.000901515 0.000228523)
(-3.18105e-06 -0.000915984 0.000228523)
(0.000155926 -0.00090262 0.000228523)
(0.000310295 -0.000861831 0.000228523)
(0.000455236 -0.000794856 0.000228523)
(0.000586345 -0.000703729 0.000228523)
(0.000699639 -0.000591219 0.000228523)
(0.000791674 -0.000460746 0.000228523)
(0.000859655 -0.000316274 0.000228523)
(0.000901515 -0.000162192 0.000228523)
(0.000915984 -3.18108e-06 0.000228523)
(0.00090262 0.000155926 0.000228523)
(0.000861831 0.000310295 0.000228523)
(0.000794856 0.000455236 0.000228523)
(0.000703729 0.000586345 0.000228523)
(0.000591219 0.000699638 0.000228523)
(0.000460747 0.000791674 0.000228523)
(0.000316274 0.000859655 0.000228523)
(0.000162192 0.000901515 0.000228523)
(0.000257541 0.00136162 0.000336074)
(1.71848e-05 0.00138566 0.000336074)
(-0.000223693 0.00136759 0.000336074)
(-0.000457774 0.00130797 0.000336075)
(-0.000677946 0.00120861 0.000336076)
(-0.000877518 0.00107252 0.000336076)
(-0.00105043 0.000903848 0.000336076)
(-0.00119142 0.000707712 0.000336075)
(-0.00129622 0.000490071 0.000336074)
(-0.00136162 0.00025754 0.000336074)
(-0.00138566 1.71847e-05 0.000336074)
(-0.00136759 -0.000223693 0.000336074)
(-0.00130797 -0.000457775 0.000336075)
(-0.00120861 -0.000677946 0.000336076)
(-0.00107252 -0.000877519 0.000336076)
(-0.000903848 -0.00105043 0.000336076)
(-0.000707711 -0.00119142 0.000336075)
(-0.000490071 -0.00129622 0.000336074)
(-0.00025754 -0.00136162 0.000336074)
(-1.71846e-05 -0.00138566 0.000336074)
(0.000223693 -0.00136759 0.000336074)
(0.000457775 -0.00130797 0.000336075)
(0.000677946 -0.00120861 0.000336076)
(0.000877519 -0.00107252 0.000336076)
(0.00105043 -0.000903848 0.000336076)
(0.00119142 -0.000707712 0.000336075)
(0.00129622 -0.000490071 0.000336074)
(0.00136162 -0.00025754 0.000336074)
(0.00138566 -1.71847e-05 0.000336074)
(0.00136759 0.000223693 0.000336074)
(0.00130797 0.000457775 0.000336075)
(0.00120861 0.000677946 0.000336076)
(0.00107252 0.000877519 0.000336076)
(0.000903849 0.00105043 0.000336076)
(0.000707712 0.00119142 0.000336075)
(0.000490071 0.00129622 0.000336074)
(0.000138538 0.00142165 0.000408619)
(-0.000110432 0.00142411 0.00040862)
(-0.000356047 0.00138329 0.00040862)
(-0.000590844 0.00130045 0.00040862)
(-0.000807689 0.0011781 0.00040862)
(-0.000999992 0.00101994 0.00040862)
(-0.00116191 0.000830801 0.00040862)
(-0.00128853 0.000616415 0.00040862)
(-0.00137599 0.0003833 0.00040862)
(-0.00142165 0.000138538 0.000408619)
(-0.00142411 -0.000110432 0.00040862)
(-0.00138329 -0.000356047 0.00040862)
(-0.00130045 -0.000590844 0.00040862)
(-0.0011781 -0.000807689 0.00040862)
(-0.00101994 -0.000999992 0.00040862)
(-0.000830801 -0.00116191 0.00040862)
(-0.000616415 -0.00128853 0.00040862)
(-0.0003833 -0.00137599 0.00040862)
(-0.000138538 -0.00142165 0.000408619)
(0.000110432 -0.00142411 0.00040862)
(0.000356047 -0.00138329 0.00040862)
(0.000590844 -0.00130045 0.00040862)
(0.000807689 -0.0011781 0.00040862)
(0.000999992 -0.00101994 0.00040862)
(0.00116191 -0.000830801 0.00040862)
(0.00128853 -0.000616415 0.00040862)
(0.00137599 -0.0003833 0.00040862)
(0.00142165 -0.000138538 0.000408619)
(0.00142411 0.000110432 0.00040862)
(0.00138329 0.000356047 0.00040862)
(0.00130045 0.000590844 0.00040862)
(0.0011781 0.000807689 0.00040862)
(0.00101994 0.000999992 0.00040862)
(0.000830801 0.00116191 0.00040862)
(0.000616415 0.00128853 0.00040862)
(0.0003833 0.00137599 0.00040862)
(-2.17388e-06 0.00147065 0.000468186)
(-0.000257516 0.00144793 0.000468186)
(-0.000505033 0.00138121 0.000468186)
(-0.000737206 0.00127253 0.000468186)
(-0.000946979 0.00112519 0.000468186)
(-0.00112798 0.00094365 0.000468186)
(-0.0012747 0.000733442 0.000468186)
(-0.0013827 0.000500949 0.000468186)
(-0.00144868 0.000253235 0.000468186)
(-0.00147065 -2.17396e-06 0.000468186)
(-0.00144793 -0.000257516 0.000468186)
(-0.00138121 -0.000505033 0.000468186)
(-0.00127253 -0.000737206 0.000468186)
(-0.00112519 -0.000946979 0.000468186)
(-0.00094365 -0.00112798 0.000468186)
(-0.000733442 -0.00127471 0.000468186)
(-0.000500949 -0.0013827 0.000468186)
(-0.000253235 -0.00144868 0.000468186)
(2.17403e-06 -0.00147065 0.000468186)
(0.000257516 -0.00144793 0.000468186)
(0.000505033 -0.00138121 0.000468186)
(0.000737206 -0.00127253 0.000468186)
(0.000946979 -0.00112519 0.000468186)
(0.00112798 -0.00094365 0.000468186)
(0.00127471 -0.000733442 0.000468186)
(0.0013827 -0.000500949 0.000468186)
(0.00144868 -0.000253235 0.000468186)
(0.00147065 2.17397e-06 0.000468186)
(0.00144793 0.000257516 0.000468186)
(0.00138121 0.000505033 0.000468186)
(0.00127253 0.000737206 0.000468186)
(0.00112519 0.000946979 0.000468186)
(0.00094365 0.00112798 0.000468186)
(0.000733442 0.00127471 0.000468186)
(0.000500949 0.0013827 0.000468186)
(0.000253235 0.00144868 0.000468186)
(0.000250622 0.00189843 0.000592614)
(-8.28438e-05 0.00191311 0.000592614)
(-0.000413793 0.00186966 0.000592614)
(-0.000732168 0.0017694 0.000592615)
(-0.0010283 0.00161538 0.000592616)
(-0.00129318 0.00141227 0.000592616)
(-0.00151877 0.00116626 0.000592616)
(-0.00169822 0.000884808 0.000592616)
(-0.00182606 0.000576473 0.000592615)
(-0.00189843 0.000250622 0.000592614)
(-0.00191311 -8.2844e-05 0.000592614)
(-0.00186966 -0.000413793 0.000592614)
(-0.0017694 -0.000732168 0.000592615)
(-0.00161538 -0.0010283 0.000592616)
(-0.00141227 -0.00129318 0.000592616)
(-0.00116626 -0.00151877 0.000592616)
(-0.000884808 -0.00169822 0.000592615)
(-0.000576473 -0.00182606 0.000592615)
(-0.000250622 -0.00189843 0.000592614)
(8.28441e-05 -0.00191311 0.000592614)
(0.000413793 -0.00186966 0.000592614)
(0.000732168 -0.0017694 0.000592615)
(0.0010283 -0.00161538 0.000592616)
(0.00129318 -0.00141227 0.000592616)
(0.00151877 -0.00116626 0.000592616)
(0.00169822 -0.000884808 0.000592616)
(0.00182606 -0.000576473 0.000592615)
(0.00189843 -0.000250622 0.000592614)
(0.00191311 8.28439e-05 0.000592614)
(0.00186966 0.000413793 0.000592614)
(0.0017694 0.000732168 0.000592615)
(0.00161538 0.0010283 0.000592616)
(0.00141227 0.00129318 0.000592616)
(0.00116626 0.00151877 0.000592616)
(0.000884808 0.00169822 0.000592616)
(0.000576473 0.00182606 0.000592615)
(0.000114 0.00194005 0.000669427)
(-0.000224618 0.00193037 0.000669426)
(-0.000556412 0.00186204 0.000669427)
(-0.000871298 0.00173713 0.000669427)
(-0.00115971 0.00155944 0.000669427)
(-0.00141289 0.00133437 0.000669427)
(-0.00162313 0.00106875 0.000669427)
(-0.00178406 0.000770662 0.000669427)
(-0.00189078 0.000449154 0.000669427)
(-0.00194005 0.000114 0.000669427)
(-0.00193037 -0.000224619 0.000669426)
(-0.00186204 -0.000556412 0.000669427)
(-0.00173713 -0.000871298 0.000669427)
(-0.00155944 -0.00115971 0.000669427)
(-0.00133437 -0.00141289 0.000669427)
(-0.00106875 -0.00162313 0.000669427)
(-0.000770661 -0.00178406 0.000669427)
(-0.000449154 -0.00189078 0.000669427)
(-0.000114 -0.00194005 0.000669427)
(0.000224619 -0.00193037 0.000669426)
(0.000556412 -0.00186204 0.000669427)
(0.000871298 -0.00173713 0.000669427)
(0.00115971 -0.00155944 0.000669427)
(0.00141289 -0.00133437 0.000669427)
(0.00162313 -0.00106875 0.000669427)
(0.00178406 -0.000770662 0.000669427)
(0.00189078 -0.000449154 0.000669427)
(0.00194005 -0.000114 0.000669427)
(0.00193037 0.000224619 0.000669426)
(0.00186204 0.000556412 0.000669427)
(0.00173713 0.000871298 0.000669427)
(0.00155944 0.00115971 0.000669427)
(0.00133437 0.00141289 0.000669427)
(0.00106875 0.00162313 0.000669427)
(0.000770662 0.00178406 0.000669427)
(0.000449154 0.00189078 0.000669427)
(-4.1172e-05 0.00197059 0.000734246)
(-0.000382735 0.0019335 0.000734246)
(-0.000712669 0.00183767 0.000734246)
(-0.00102095 0.00168599 0.000734246)
(-0.00129821 0.00148309 0.000734245)
(-0.00153602 0.00123513 0.000734246)
(-0.00172716 0.000949638 0.000734246)
(-0.00186583 0.000635292 0.000734246)
(-0.0019478 0.000301643 0.000734246)
(-0.00197059 -4.11721e-05 0.000734246)
(-0.0019335 -0.000382735 0.000734245)
(-0.00183767 -0.000712669 0.000734246)
(-0.00168599 -0.00102095 0.000734246)
(-0.00148309 -0.00129821 0.000734245)
(-0.00123513 -0.00153602 0.000734246)
(-0.000949638 -0.00172716 0.000734246)
(-0.000635292 -0.00186583 0.000734246)
(-0.000301642 -0.0019478 0.000734246)
(4.11722e-05 -0.00197059 0.000734246)
(0.000382736 -0.0019335 0.000734245)
(0.000712669 -0.00183767 0.000734246)
(0.00102095 -0.00168599 0.000734246)
(0.00129821 -0.00148309 0.000734245)
(0.00153602 -0.00123513 0.000734246)
(0.00172716 -0.000949638 0.000734246)
(0.00186583 -0.000635292 0.000734246)
(0.0019478 -0.000301643 0.000734246)
(0.00197059 4.11721e-05 0.000734246)
(0.0019335 0.000382735 0.000734246)
(0.00183767 0.000712669 0.000734246)
(0.00168599 0.00102095 0.000734246)
(0.00148309 0.00129821 0.000734245)
(0.00123513 0.00153602 0.000734246)
(0.000949638 0.00172716 0.000734246)
(0.000635292 0.00186583 0.000734246)
(0.000301643 0.0019478 0.000734246)
(0.000185598 0.00240002 0.000880491)
(-0.000233981 0.00239579 0.00088049)
(-0.00064645 0.00231876 0.00088049)
(-0.00103928 0.00217128 0.000880491)
(-0.00140053 0.00195782 0.000880491)
(-0.00171922 0.00168488 0.000880491)
(-0.00198568 0.00136074 0.000880491)
(-0.0021918 0.00099526 0.000880491)
(-0.00233133 0.000599537 0.000880491)
(-0.00240002 0.000185598 0.000880491)
(-0.00239579 -0.000233981 0.00088049)
(-0.00231876 -0.00064645 0.00088049)
(-0.00217128 -0.00103928 0.000880491)
(-0.00195782 -0.00140053 0.000880491)
(-0.00168488 -0.00171922 0.000880491)
(-0.00136074 -0.00198568 0.000880491)
(-0.00099526 -0.0021918 0.000880491)
(-0.000599537 -0.00233133 0.000880491)
(-0.000185597 -0.00240002 0.000880491)
(0.000233981 -0.00239579 0.00088049)
(0.000646451 -0.00231876 0.00088049)
(0.00103928 -0.00217128 0.000880491)
(0.00140053 -0.00195782 0.000880491)
(0.00171922 -0.00168488 0.000880491)
(0.00198568 -0.00136074 0.000880491)
(0.0021918 -0.00099526 0.000880491)
(0.00233133 -0.000599537 0.000880491)
(0.00240002 -0.000185598 0.000880491)
(0.00239579 0.000233981 0.00088049)
(0.00231876 0.00064645 0.00088049)
(0.00217128 0.00103928 0.000880491)
(0.00195782 0.00140053 0.000880491)
(0.00168488 0.00171922 0.000880492)
(0.00136074 0.00198568 0.000880491)
(0.00099526 0.0021918 0.000880491)
(0.000599537 0.00233133 0.000880491)
(4.36538e-05 0.00240671 0.000952941)
(-0.00037493 0.00237772 0.00095294)
(-0.000782121 0.0022765 0.000952941)
(-0.00116555 0.0021061 0.000952941)
(-0.00151356 0.00187171 0.000952941)
(-0.00181558 0.00158044 0.000952941)
(-0.00206244 0.00124116 0.000952941)
(-0.00224663 0.000864164 0.000952941)
(-0.00236256 0.000460911 0.000952941)
(-0.00240671 4.36536e-05 0.00095294)
(-0.00237772 -0.00037493 0.00095294)
(-0.0022765 -0.000782121 0.00095294)
(-0.0021061 -0.00116555 0.000952941)
(-0.00187171 -0.00151356 0.000952941)
(-0.00158044 -0.00181558 0.000952941)
(-0.00124116 -0.00206244 0.000952941)
(-0.000864164 -0.00224663 0.000952941)
(-0.000460911 -0.00236256 0.000952941)
(-4.36535e-05 -0.00240671 0.00095294)
(0.00037493 -0.00237772 0.00095294)
(0.000782121 -0.0022765 0.00095294)
(0.00116555 -0.0021061 0.000952941)
(0.00151356 -0.00187171 0.000952941)
(0.00181558 -0.00158044 0.000952941)
(0.00206244 -0.00124116 0.000952941)
(0.00224663 -0.000864164 0.000952941)
(0.00236256 -0.000460911 0.000952941)
(0.00240671 -4.36536e-05 0.000952941)
(0.00237772 0.00037493 0.00095294)
(0.0022765 0.000782121 0.000952941)
(0.0021061 0.00116555 0.000952941)
(0.00187171 0.00151356 0.000952941)
(0.00158044 0.00181558 0.000952941)
(0.00124116 0.00206244 0.000952941)
(0.000864164 0.00224663 0.000952941)
(0.000460911 0.00236256 0.000952941)
(-0.000113846 0.00240351 0.00101366)
(-0.000529482 0.00234723 0.00101366)
(-0.00092903 0.00221963 0.00101366)
(-0.00130035 0.00202458 0.00101366)
(-0.00163216 0.00176802 0.00101366)
(-0.00191437 0.00145774 0.00101366)
(-0.00213842 0.00110316 0.00101366)
(-0.0022975 0.00071507 0.00101366)
(-0.00238677 0.00030525 0.00101366)
(-0.00240351 -0.000113846 0.00101366)
(-0.00234723 -0.000529482 0.00101366)
(-0.00221963 -0.00092903 0.00101366)
(-0.00202458 -0.00130035 0.00101366)
(-0.00176802 -0.00163216 0.00101366)
(-0.00145774 -0.00191437 0.00101366)
(-0.00110316 -0.00213842 0.00101366)
(-0.00071507 -0.0022975 0.00101366)
(-0.000305249 -0.00238677 0.00101366)
(0.000113846 -0.00240351 0.00101366)
(0.000529482 -0.00234723 0.00101366)
(0.00092903 -0.00221963 0.00101366)
(0.00130035 -0.00202458 0.00101366)
(0.00163216 -0.00176802 0.00101366)
(0.00191437 -0.00145774 0.00101366)
(0.00213842 -0.00110316 0.00101366)
(0.0022975 -0.00071507 0.00101366)
(0.00238677 -0.00030525 0.00101366)
(0.00240351 0.000113846 0.00101366)
(0.00234723 0.000529482 0.00101366)
(0.00221963 0.00092903 0.00101366)
(0.00202458 0.00130035 0.00101366)
(0.00176802 0.00163216 0.00101366)
(0.00145774 0.00191437 0.00101366)
(0.00110316 0.00213842 0.00101366)
(0.00071507 0.0022975 0.00101366)
(0.00030525 0.00238677 0.00101366)
(7.64968e-05 0.00284559 0.00118886)
(-0.000418797 0.00281565 0.00118886)
(-0.000901367 0.00270015 0.00118886)
(-0.00135655 0.00250261 0.00118886)
(-0.00177051 0.00222902 0.00118886)
(-0.00213068 0.00188771 0.00118886)
(-0.00242611 0.00148905 0.00118886)
(-0.00264782 0.00104513 0.00118886)
(-0.00278908 0.000569467 0.00118886)
(-0.00284559 7.64966e-05 0.00118886)
(-0.00281565 -0.000418797 0.00118886)
(-0.00270015 -0.000901367 0.00118886)
(-0.00250261 -0.00135655 0.00118886)
(-0.00222902 -0.00177051 0.00118886)
(-0.00188771 -0.00213068 0.00118886)
(-0.00148905 -0.00242611 0.00118886)
(-0.00104513 -0.00264782 0.00118886)
(-0.000569467 -0.00278908 0.00118886)
(-7.64964e-05 -0.00284559 0.00118886)
(0.000418798 -0.00281565 0.00118886)
(0.000901367 -0.00270015 0.00118886)
(0.00135655 -0.00250261 0.00118886)
(0.00177051 -0.00222902 0.00118886)
(0.00213068 -0.00188771 0.00118886)
(0.00242611 -0.00148905 0.00118886)
(0.00264782 -0.00104513 0.00118886)
(0.00278908 -0.000569467 0.00118886)
(0.00284559 -7.64966e-05 0.00118886)
(0.00281565 0.000418797 0.00118886)
(0.00270015 0.000901367 0.00118886)
(0.00250261 0.00135655 0.00118886)
(0.00222902 0.00177051 0.00118886)
(0.00188771 0.00213068 0.00118886)
(0.00148905 0.00242611 0.00118886)
(0.00104513 0.00264782 0.00118886)
(0.000569467 0.00278908 0.00118886)
(-6.27167e-05 0.0028059 0.00125022)
(-0.000549003 0.00275238 0.00125022)
(-0.00101861 0.00261523 0.00125022)
(-0.00145726 0.00239862 0.00125022)
(-0.00185164 0.00210913 0.00125022)
(-0.00218975 0.00175555 0.00125022)
(-0.00246133 0.00134863 0.00125022)
(-0.00265813 0.000900739 0.00125022)
(-0.00277416 0.000425475 0.00125022)
(-0.0028059 -6.27169e-05 0.00125022)
(-0.00275238 -0.000549003 0.00125022)
(-0.00261523 -0.00101861 0.00125022)
(-0.00239862 -0.00145726 0.00125022)
(-0.00210913 -0.00185164 0.00125022)
(-0.00175555 -0.00218975 0.00125022)
(-0.00134863 -0.00246133 0.00125022)
(-0.000900739 -0.00265813 0.00125022)
(-0.000425474 -0.00277416 0.00125022)
(6.27171e-05 -0.0028059 0.00125022)
(0.000549003 -0.00275238 0.00125022)
(0.00101861 -0.00261523 0.00125022)
(0.00145726 -0.00239862 0.00125022)
(0.00185164 -0.00210913 0.00125022)
(0.00218975 -0.00175555 0.00125022)
(0.00246133 -0.00134863 0.00125022)
(0.00265813 -0.000900739 0.00125022)
(0.00277416 -0.000425475 0.00125022)
(0.0028059 6.27169e-05 0.00125022)
(0.00275238 0.000549003 0.00125022)
(0.00261523 0.00101861 0.00125022)
(0.00239862 0.00145726 0.00125022)
(0.00210913 0.00185164 0.00125022)
(0.00175555 0.00218975 0.00125022)
(0.00134863 0.00246133 0.00125022)
(0.000900739 0.00265813 0.00125022)
(0.000425475 0.00277416 0.00125022)
(-0.000214372 0.00275859 0.00129975)
(-0.00069014 0.00267946 0.00129975)
(-0.00114494 0.00251891 0.00129975)
(-0.00156495 0.00228182 0.00129975)
(-0.00193741 0.00197541 0.00129975)
(-0.002251 0.00160897 0.00129975)
(-0.00249619 0.00119364 0.00129975)
(-0.00266555 0.00074205 0.00129975)
(-0.00275391 0.000267909 0.00129975)
(-0.00275859 -0.000214372 0.00129975)
(-0.00267946 -0.00069014 0.00129975)
(-0.00251891 -0.00114494 0.00129975)
(-0.00228182 -0.00156495 0.00129975)
(-0.00197541 -0.00193741 0.00129975)
(-0.00160897 -0.002251 0.00129975)
(-0.00119364 -0.00249619 0.00129975)
(-0.00074205 -0.00266555 0.00129975)
(-0.000267909 -0.00275391 0.00129975)
(0.000214373 -0.00275859 0.00129975)
(0.000690141 -0.00267946 0.00129975)
(0.00114494 -0.00251891 0.00129975)
(0.00156495 -0.00228182 0.00129975)
(0.00193741 -0.00197541 0.00129975)
(0.002251 -0.00160897 0.00129975)
(0.00249619 -0.00119364 0.00129975)
(0.00266555 -0.00074205 0.00129975)
(0.00275391 -0.000267909 0.00129975)
(0.00275859 0.000214372 0.00129975)
(0.00267946 0.00069014 0.00129975)
(0.00251891 0.00114494 0.00129975)
(0.00228182 0.00156495 0.00129975)
(0.00197541 0.00193741 0.00129975)
(0.00160897 0.002251 0.00129975)
(0.00119364 0.00249619 0.00129975)
(0.00074205 0.00266555 0.00129975)
(0.000267909 0.00275391 0.00129975)
(-5.79821e-05 0.00321614 0.00151553)
(-0.000615578 0.00315721 0.00151553)
(-0.00115447 0.00300236 0.00151553)
(-0.00165829 0.00275627 0.00151553)
(-0.00211171 0.00242644 0.00151552)
(-0.00250098 0.00202288 0.00151553)
(-0.00281425 0.00155786 0.00151553)
(-0.00304202 0.0010455 0.00151553)
(-0.00317735 0.000501375 0.00151553)
(-0.00321614 -5.79824e-05 0.00151553)
(-0.00315721 -0.000615579 0.00151553)
(-0.00300235 -0.00115447 0.00151553)
(-0.00275627 -0.00165829 0.00151553)
(-0.00242644 -0.00211171 0.00151552)
(-0.00202288 -0.00250098 0.00151553)
(-0.00155786 -0.00281425 0.00151553)
(-0.0010455 -0.00304202 0.00151553)
(-0.000501374 -0.00317735 0.00151553)
(5.79826e-05 -0.00321614 0.00151553)
(0.000615579 -0.00315721 0.00151553)
(0.00115447 -0.00300235 0.00151553)
(0.00165829 -0.00275627 0.00151553)
(0.00211171 -0.00242644 0.00151552)
(0.00250098 -0.00202288 0.00151553)
(0.00281425 -0.00155786 0.00151553)
(0.00304202 -0.0010455 0.00151553)
(0.00317735 -0.000501375 0.00151553)
(0.00321614 5.79824e-05 0.00151553)
(0.00315721 0.000615579 0.00151553)
(0.00300236 0.00115447 0.00151553)
(0.00275627 0.00165829 0.00151553)
(0.00242644 0.00211171 0.00151552)
(0.00202288 0.00250098 0.00151553)
(0.00155786 0.00281425 0.00151553)
(0.0010455 0.00304202 0.00151553)
(0.000501375 0.00317735 0.00151553)
(-0.000190228 0.0031223 0.0015599)
(-0.000729521 0.00304184 0.0015599)
(-0.00124665 0.00286895 0.0015599)
(-0.00172589 0.00260888 0.0015599)
(-0.0021527 0.00226955 0.0015599)
(-0.0025141 0.00186126 0.0015599)
(-0.00279911 0.00139641 0.0015599)
(-0.00299907 0.000889136 0.0015599)
(-0.0031079 0.000354844 0.0015599)
(-0.0031223 -0.000190228 0.0015599)
(-0.00304184 -0.000729521 0.0015599)
(-0.00286895 -0.00124665 0.0015599)
(-0.00260888 -0.0017259 0.0015599)
(-0.00226955 -0.0021527 0.0015599)
(-0.00186126 -0.0025141 0.0015599)
(-0.00139641 -0.00279911 0.0015599)
(-0.000889136 -0.00299907 0.0015599)
(-0.000354844 -0.0031079 0.0015599)
(0.000190228 -0.0031223 0.0015599)
(0.000729521 -0.00304184 0.0015599)
(0.00124665 -0.00286895 0.0015599)
(0.0017259 -0.00260888 0.0015599)
(0.0021527 -0.00226955 0.0015599)
(0.0025141 -0.00186126 0.0015599)
(0.00279911 -0.00139641 0.0015599)
(0.00299907 -0.000889136 0.0015599)
(0.0031079 -0.000354844 0.0015599)
(0.00312231 0.000190228 0.0015599)
(0.00304184 0.000729521 0.0015599)
(0.00286895 0.00124665 0.0015599)
(0.00260888 0.0017259 0.0015599)
(0.00226955 0.0021527 0.0015599)
(0.00186126 0.0025141 0.0015599)
(0.00139641 0.00279911 0.0015599)
(0.000889136 0.00299907 0.0015599)
(0.000354844 0.0031079 0.0015599)
(-0.000331377 0.00302438 0.00159201)
(-0.00085152 0.00292089 0.00159201)
(-0.00134579 0.00272865 0.00159201)
(-0.00179917 0.0024535 0.00159201)
(-0.00219788 0.0021038 0.00159201)
(-0.00252981 0.00169018 0.00159201)
(-0.00278487 0.00122521 0.00159201)
(-0.00295532 0.000723006 0.00159201)
(-0.00303597 0.000198835 0.00159201)
(-0.00302438 -0.000331377 0.00159201)
(-0.00292089 -0.00085152 0.00159201)
(-0.00272865 -0.00134579 0.00159201)
(-0.0024535 -0.00179917 0.00159201)
(-0.0021038 -0.00219788 0.00159201)
(-0.00169018 -0.00252981 0.00159201)
(-0.00122521 -0.00278487 0.00159201)
(-0.000723005 -0.00295532 0.00159201)
(-0.000198835 -0.00303597 0.00159201)
(0.000331378 -0.00302438 0.00159201)
(0.00085152 -0.00292089 0.00159201)
(0.00134579 -0.00272865 0.00159201)
(0.00179917 -0.0024535 0.00159201)
(0.00219788 -0.0021038 0.00159201)
(0.00252981 -0.00169018 0.00159201)
(0.00278487 -0.00122521 0.00159201)
(0.00295532 -0.000723006 0.00159201)
(0.00303597 -0.000198835 0.00159201)
(0.00302438 0.000331377 0.00159201)
(0.00292089 0.00085152 0.00159201)
(0.00272865 0.00134579 0.00159201)
(0.0024535 0.00179917 0.00159201)
(0.0021038 0.00219788 0.00159201)
(0.00169018 0.00252981 0.00159201)
(0.00122521 0.00278487 0.00159201)
(0.000723006 0.00295532 0.00159201)
(0.000198836 0.00303597 0.00159201)
(-0.000196784 0.0034944 0.00186415)
(-0.00080059 0.00340714 0.00186415)
(-0.00138007 0.00321636 0.00186415)
(-0.00191762 0.00292784 0.00186415)
(-0.0023969 0.00255037 0.00186415)
(-0.00280335 0.00209541 0.00186415)
(-0.00312463 0.00157678 0.00186415)
(-0.00335096 0.00101024 0.00186415)
(-0.00347548 0.000412999 0.00186415)
(-0.0034944 -0.000196785 0.00186415)
(-0.00340714 -0.000800591 0.00186415)
(-0.00321636 -0.00138007 0.00186415)
(-0.00292784 -0.00191762 0.00186415)
(-0.00255037 -0.0023969 0.00186415)
(-0.00209541 -0.00280335 0.00186415)
(-0.00157678 -0.00312463 0.00186415)
(-0.00101024 -0.00335096 0.00186415)
(-0.000412999 -0.00347548 0.00186415)
(0.000196785 -0.0034944 0.00186415)
(0.000800591 -0.00340714 0.00186415)
(0.00138007 -0.00321636 0.00186415)
(0.00191762 -0.00292784 0.00186415)
(0.0023969 -0.00255037 0.00186415)
(0.00280335 -0.00209541 0.00186415)
(0.00312463 -0.00157678 0.00186415)