/*--------------------------------*- C++ -*----------------------------------*\
| =========                 |                                                 |
| \\      /  F ield         | OpenFOAM: The Open Source CFD Toolbox           |
|  \\    /   O peration     | Version:  2312                                  |
|   \\  /    A nd           | Website:  www.openfoam.com                      |
|    \\/     M anipulation  |                                                 |
\*---------------------------------------------------------------------------*/
FoamFile
{
    version     2.0;
    format      ascii;
    arch        "LSB;label=32;scalar=64";
    class       volVectorField;
    location    "0.5";
    object      D_0_0_0;
}
// * * * * * * * * * * * * * * * * * * * * * * * * * * * * * * * * * * * * * //

dimensions      [0 1 0 0 0 0 0];

internalField   nonuniform List<vector> 
1620
(
(0.000102378 0.000254188 7.11361e-06)
(5.6683e-05 0.000268103 7.11353e-06)
(9.26641e-06 0.000273873 7.11364e-06)
(-3.84318e-05 0.000271322 7.11382e-06)
(-8.49626e-05 0.000260527 7.11381e-06)
(-0.000128912 0.000241815 7.11374e-06)
(-0.000168944 0.000215756 7.11398e-06)
(-0.000203843 0.000183141 7.11391e-06)
(-0.000232548 0.000144961 7.11365e-06)
(-0.000254188 0.000102378 7.11361e-06)
(-0.000268103 5.66829e-05 7.11352e-06)
(-0.000273873 9.26639e-06 7.11364e-06)
(-0.000271322 -3.84318e-05 7.11382e-06)
(-0.000260527 -8.49626e-05 7.11381e-06)
(-0.000241815 -0.000128912 7.11374e-06)
(-0.000215756 -0.000168944 7.11397e-06)
(-0.000183141 -0.000203843 7.11391e-06)
(-0.000144961 -0.000232548 7.11365e-06)
(-0.000102378 -0.000254188 7.1136e-06)
(-5.66829e-05 -0.000268103 7.11352e-06)
(-9.26637e-06 -0.000273873 7.11364e-06)
(3.84319e-05 -0.000271322 7.11382e-06)
(8.49626e-05 -0.000260527 7.11381e-06)
(0.000128912 -0.000241815 7.11374e-06)
(0.000168944 -0.000215756 7.11398e-06)
(0.000203843 -0.000183141 7.11391e-06)
(0.000232548 -0.000144961 7.11365e-06)
(0.000254188 -0.000102378 7.11361e-06)
(0.000268103 -5.66829e-05 7.11353e-06)
(0.000273873 -9.26639e-06 7.11364e-06)
(0.000271322 3.84318e-05 7.11382e-06)
(0.000260527 8.49626e-05 7.11382e-06)
(0.000241815 0.000128912 7.11375e-06)
(0.000215756 0.000168944 7.11398e-06)
(0.000183141 0.000203843 7.11392e-06)
(0.000144961 0.000232548 7.11365e-06)
(4.94701e-05 0.00028707 3.68607e-05)
(-1.1306e-06 0.000291299 3.68607e-05)
(-5.16967e-05 0.000286677 3.68608e-05)
(-0.000100692 0.000273345 3.68609e-05)
(-0.000146628 0.000251707 3.68609e-05)
(-0.000188109 0.000222421 3.68609e-05)
(-0.000223874 0.000186377 3.68609e-05)
(-0.000252837 0.00014467 3.68608e-05)
(-0.000274118 9.85676e-05 3.68607e-05)
(-0.00028707 4.94701e-05 3.68607e-05)
(-0.000291299 -1.13063e-06 3.68607e-05)
(-0.000286677 -5.16967e-05 3.68608e-05)
(-0.000273345 -0.000100692 3.68609e-05)
(-0.000251707 -0.000146628 3.68609e-05)
(-0.000222421 -0.000188109 3.68609e-05)
(-0.000186377 -0.000223874 3.68609e-05)
(-0.00014467 -0.000252838 3.68608e-05)
(-9.85676e-05 -0.000274118 3.68607e-05)
(-4.94701e-05 -0.00028707 3.68607e-05)
(1.13064e-06 -0.000291299 3.68607e-05)
(5.16967e-05 -0.000286677 3.68608e-05)
(0.000100692 -0.000273345 3.68609e-05)
(0.000146628 -0.000251707 3.68609e-05)
(0.000188109 -0.000222421 3.68609e-05)
(0.000223874 -0.000186377 3.68609e-05)
(0.000252838 -0.00014467 3.68608e-05)
(0.000274118 -9.85676e-05 3.68607e-05)
(0.00028707 -4.94701e-05 3.68607e-05)
(0.000291299 1.13062e-06 3.68607e-05)
(0.000286677 5.16967e-05 3.68608e-05)
(0.000273345 0.000100692 3.68609e-05)
(0.000251707 0.000146628 3.68609e-05)
(0.000222421 0.000188109 3.68609e-05)
(0.000186377 0.000223874 3.68609e-05)
(0.00014467 0.000252838 3.68608e-05)
(9.85676e-05 0.000274118 3.68607e-05)
(-2.33711e-05 0.000317025 4.02018e-05)
(-7.80669e-05 0.000308151 4.0202e-05)
(-0.000130391 0.000289914 4.02019e-05)
(-0.000178753 0.000262867 4.02019e-05)
(-0.000221684 0.000227834 4.02021e-05)
(-0.000257878 0.000185877 4.02019e-05)
(-0.000286238 0.000138273 4.0202e-05)
(-0.0003059 8.64674e-05 4.02017e-05)
(-0.000316267 3.20348e-05 4.02018e-05)
(-0.000317025 -2.33711e-05 4.02018e-05)
(-0.000308151 -7.80669e-05 4.0202e-05)
(-0.000289913 -0.000130391 4.02019e-05)
(-0.000262867 -0.000178753 4.02019e-05)
(-0.000227834 -0.000221684 4.02021e-05)
(-0.000185877 -0.000257878 4.02019e-05)
(-0.000138273 -0.000286238 4.0202e-05)
(-8.64673e-05 -0.0003059 4.02017e-05)
(-3.20348e-05 -0.000316267 4.02017e-05)
(2.33711e-05 -0.000317025 4.02018e-05)
(7.80669e-05 -0.000308151 4.0202e-05)
(0.000130391 -0.000289914 4.02019e-05)
(0.000178753 -0.000262867 4.02019e-05)
(0.000221684 -0.000227834 4.02021e-05)
(0.000257878 -0.000185877 4.02019e-05)
(0.000286238 -0.000138273 4.0202e-05)
(0.0003059 -8.64674e-05 4.02017e-05)
(0.000316267 -3.20348e-05 4.02018e-05)
(0.000317025 2.33711e-05 4.02018e-05)
(0.000308151 7.80669e-05 4.0202e-05)
(0.000289914 0.000130391 4.02019e-05)
(0.000262867 0.000178753 4.02019e-05)
(0.000227834 0.000221684 4.02021e-05)
(0.000185877 0.000257878 4.02019e-05)
(0.000138273 0.000286238 4.0202e-05)
(8.64674e-05 0.0003059 4.02017e-05)
(3.20348e-05 0.000316267 4.02018e-05)
(0.000197954 0.000800304 0.00012962)
(5.59758e-05 0.00082252 0.00012962)
(-8.77034e-05 0.000819744 0.00012962)
(-0.000228718 0.000792061 0.000129621)
(-0.000362783 0.000740311 0.000129621)
(-0.000485825 0.000666068 0.000129621)
(-0.000594106 0.000571586 0.000129621)
(-0.000684335 0.000459737 0.00012962)
(-0.000753771 0.000333918 0.00012962)
(-0.000800303 0.000197954 0.00012962)
(-0.00082252 5.59757e-05 0.000129619)
(-0.000819744 -8.77035e-05 0.00012962)
(-0.000792061 -0.000228718 0.000129621)
(-0.000740311 -0.000362783 0.000129621)
(-0.000666068 -0.000485825 0.000129621)
(-0.000571586 -0.000594106 0.000129621)
(-0.000459736 -0.000684335 0.00012962)
(-0.000333918 -0.000753771 0.00012962)
(-0.000197954 -0.000800304 0.00012962)
(-5.59757e-05 -0.00082252 0.000129619)
(8.77035e-05 -0.000819744 0.00012962)
(0.000228718 -0.000792061 0.000129621)
(0.000362783 -0.000740311 0.000129621)
(0.000485825 -0.000666068 0.000129621)
(0.000594106 -0.000571586 0.000129621)
(0.000684335 -0.000459737 0.00012962)
(0.000753771 -0.000333918 0.00012962)
(0.000800304 -0.000197954 0.00012962)
(0.00082252 -5.59757e-05 0.00012962)
(0.000819744 8.77035e-05 0.00012962)
(0.000792061 0.000228718 0.000129621)
(0.000740311 0.000362783 0.000129621)
(0.000666068 0.000485825 0.000129621)
(0.000571586 0.000594106 0.000129621)
(0.000459737 0.000684335 0.00012962)
(0.000333918 0.000753771 0.00012962)
(0.000113733 0.000853523 0.000183937)
(-3.62071e-05 0.000860305 0.000183937)
(-0.000185047 0.000840948 0.000183937)
(-0.000328265 0.00079604 0.000183938)
(-0.000461509 0.000726943 0.000183938)
(-0.00058073 0.000635759 0.000183938)
(-0.000682305 0.000525257 0.000183937)
(-0.000763149 0.000398796 0.000183937)
(-0.000820806 0.000260218 0.000183937)
(-0.000853523 0.000113733 0.000183937)
(-0.000860305 -3.62071e-05 0.000183937)
(-0.000840948 -0.000185047 0.000183937)
(-0.00079604 -0.000328265 0.000183938)
(-0.000726943 -0.000461509 0.000183938)
(-0.000635759 -0.00058073 0.000183938)
(-0.000525257 -0.000682305 0.000183937)
(-0.000398796 -0.000763149 0.000183937)
(-0.000260218 -0.000820806 0.000183937)
(-0.000113733 -0.000853523 0.000183937)
(3.62072e-05 -0.000860305 0.000183937)
(0.000185047 -0.000840948 0.000183937)
(0.000328265 -0.00079604 0.000183938)
(0.000461509 -0.000726943 0.000183938)
(0.00058073 -0.000635759 0.000183938)
(0.000682305 -0.000525257 0.000183937)
(0.000763149 -0.000398796 0.000183937)
(0.000820806 -0.000260218 0.000183937)
(0.000853523 -0.000113733 0.000183937)
(0.000860305 3.62071e-05 0.000183937)
(0.000840948 0.000185047 0.000183937)
(0.00079604 0.000328265 0.000183938)
(0.000726943 0.000461509 0.000183938)
(0.000635759 0.00058073 0.000183938)
(0.000525257 0.000682305 0.000183937)
(0.000398796 0.000763149 0.000183937)
(0.000260218 0.000820806 0.000183937)
(5.91597e-06 0.00089846 0.000223157)
(-0.00015019 0.000885837 0.000223158)
(-0.000301731 0.000846299 0.000223158)
(-0.000444105 0.000781047 0.000223157)
(-0.000572986 0.000692063 0.000223158)
(-0.000684456 0.00058205 0.000223158)
(-0.00077513 0.000454353 0.000223157)
(-0.000842252 0.00031285 0.000223157)
(-0.000883782 0.000161842 0.000223157)
(-0.00089846 5.91592e-06 0.000223157)
(-0.000885837 -0.00015019 0.000223158)
(-0.000846299 -0.000301731 0.000223158)
(-0.000781047 -0.000444106 0.000223157)
(-0.000692062 -0.000572986 0.000223157)
(-0.00058205 -0.000684456 0.000223158)
(-0.000454353 -0.00077513 0.000223157)
(-0.00031285 -0.000842252 0.000223157)
(-0.000161842 -0.000883782 0.000223157)
(-5.91588e-06 -0.00089846 0.000223157)
(0.00015019 -0.000885837 0.000223158)
(0.000301731 -0.000846299 0.000223158)
(0.000444106 -0.000781047 0.000223157)
(0.000572986 -0.000692063 0.000223157)
(0.000684456 -0.00058205 0.000223158)
(0.00077513 -0.000454353 0.000223157)
(0.000842252 -0.00031285 0.000223157)
(0.000883782 -0.000161842 0.000223157)
(0.00089846 -5.91591e-06 0.000223157)
(0.000885837 0.00015019 0.000223158)
(0.000846299 0.000301731 0.000223158)
(0.000781047 0.000444106 0.000223157)
(0.000692063 0.000572986 0.000223158)
(0.00058205 0.000684456 0.000223158)
(0.000454353 0.00077513 0.000223157)
(0.00031285 0.000842252 0.000223157)
(0.000161842 0.000883782 0.000223157)
(0.000254662 0.00134522 0.000333119)
(1.71979e-05 0.00136901 0.000333119)
(-0.000220788 0.00135119 0.00033312)
(-0.000452067 0.00129233 0.000333121)
(-0.000669608 0.00119419 0.000333121)
(-0.000866804 0.00105977 0.000333121)
(-0.00103766 0.000893154 0.000333121)
(-0.00117699 0.000699397 0.00033312)
(-0.00128056 0.000484388 0.00033312)
(-0.00134522 0.000254662 0.000333119)
(-0.00136901 1.71978e-05 0.000333119)
(-0.00135119 -0.000220789 0.00033312)
(-0.00129233 -0.000452067 0.000333121)
(-0.00119419 -0.000669608 0.000333121)
(-0.00105977 -0.000866804 0.000333121)
(-0.000893154 -0.00103766 0.000333121)
(-0.000699397 -0.00117699 0.00033312)
(-0.000484388 -0.00128056 0.00033312)
(-0.000254662 -0.00134522 0.000333119)
(-1.71977e-05 -0.00136901 0.000333119)
(0.000220789 -0.00135119 0.00033312)
(0.000452067 -0.00129233 0.000333121)
(0.000669608 -0.00119419 0.000333121)
(0.000866804 -0.00105977 0.000333121)
(0.00103766 -0.000893154 0.000333121)
(0.00117699 -0.000699397 0.00033312)
(0.00128056 -0.000484388 0.00033312)
(0.00134522 -0.000254662 0.000333119)
(0.00136901 -1.71978e-05 0.000333119)
(0.00135119 0.000220789 0.00033312)
(0.00129233 0.000452067 0.000333121)
(0.00119419 0.000669608 0.000333121)
(0.00105977 0.000866804 0.000333121)
(0.000893154 0.00103766 0.000333121)
(0.000699397 0.00117699 0.00033312)
(0.000484388 0.00128056 0.00033312)
(0.000139039 0.0013995 0.000401952)
(-0.000106092 0.00140238 0.000401952)
(-0.000348001 0.00136265 0.000401952)
(-0.000579335 0.00128152 0.000401952)
(-0.000793067 0.00116145 0.000401952)
(-0.000982702 0.00100609 0.000401952)
(-0.00114248 0.00082016 0.000401952)
(-0.00126754 0.00060931 0.000401952)
(-0.00135409 0.000379947 0.000401952)
(-0.0013995 0.000139039 0.000401952)
(-0.00140238 -0.000106093 0.000401952)
(-0.00136265 -0.000348001 0.000401952)
(-0.00128152 -0.000579335 0.000401952)
(-0.00116145 -0.000793067 0.000401952)
(-0.00100609 -0.000982702 0.000401952)
(-0.00082016 -0.00114248 0.000401952)
(-0.00060931 -0.00126754 0.000401952)
(-0.000379947 -0.00135409 0.000401952)
(-0.000139039 -0.0013995 0.000401952)
(0.000106093 -0.00140238 0.000401952)
(0.000348001 -0.00136265 0.000401952)
(0.000579335 -0.00128152 0.000401952)
(0.000793067 -0.00116145 0.000401952)
(0.000982702 -0.00100609 0.000401952)
(0.00114248 -0.00082016 0.000401952)
(0.00126754 -0.00060931 0.000401952)
(0.00135409 -0.000379947 0.000401952)
(0.0013995 -0.000139039 0.000401952)
(0.00140238 0.000106093 0.000401952)
(0.00136265 0.000348001 0.000401952)
(0.00128152 0.000579335 0.000401952)
(0.00116145 0.000793067 0.000401952)
(0.00100609 0.000982702 0.000401952)
(0.00082016 0.00114248 0.000401952)
(0.00060931 0.00126754 0.000401952)
(0.000379947 0.00135409 0.000401952)
(2.6348e-06 0.00144328 0.000458474)
(-0.000248027 0.00142181 0.000458474)
(-0.000491153 0.00135714 0.000458474)
(-0.000719356 0.00125123 0.000458474)
(-0.000925701 0.00110731 0.000458474)
(-0.00110392 0.000929739 0.000458474)
(-0.0012486 0.00072392 0.000458474)
(-0.00135533 0.000496106 0.000458474)
(-0.00142089 0.000253217 0.000458474)
(-0.00144328 2.63472e-06 0.000458474)
(-0.00142181 -0.000248027 0.000458474)
(-0.00135714 -0.000491153 0.000458474)
(-0.00125123 -0.000719356 0.000458474)
(-0.00110731 -0.000925701 0.000458474)
(-0.000929739 -0.00110392 0.000458474)
(-0.00072392 -0.0012486 0.000458474)
(-0.000496106 -0.00135533 0.000458474)
(-0.000253217 -0.00142089 0.000458474)
(-2.63466e-06 -0.00144328 0.000458474)
(0.000248028 -0.00142181 0.000458474)
(0.000491153 -0.00135714 0.000458474)
(0.000719356 -0.00125123 0.000458474)
(0.000925701 -0.00110731 0.000458474)
(0.00110392 -0.000929739 0.000458474)
(0.0012486 -0.00072392 0.000458474)
(0.00135533 -0.000496106 0.000458474)
(0.00142089 -0.000253217 0.000458474)
(0.00144328 -2.63471e-06 0.000458474)
(0.00142181 0.000248027 0.000458474)
(0.00135714 0.000491153 0.000458474)
(0.00125123 0.000719356 0.000458474)
(0.00110731 0.000925701 0.000458474)
(0.000929739 0.00110392 0.000458474)
(0.000723921 0.0012486 0.000458474)
(0.000496106 0.00135533 0.000458474)
(0.000253217 0.00142089 0.000458474)
(0.000250117 0.00187441 0.000586595)
(-7.91717e-05 0.00188937 0.000586595)
(-0.000406055 0.00184692 0.000586595)
(-0.000720599 0.00174835 0.000586596)
(-0.00101325 0.00159666 0.000586596)
(-0.00127511 0.00139645 0.000586597)
(-0.00149823 0.00115381 0.000586596)
(-0.00167583 0.00087612 0.000586596)
(-0.0018025 0.000571805 0.000586595)
(-0.00187441 0.000250116 0.000586595)
(-0.00188937 -7.91718e-05 0.000586595)
(-0.00184692 -0.000406055 0.000586595)
(-0.00174835 -0.000720599 0.000586596)
(-0.00159666 -0.00101325 0.000586596)
(-0.00139645 -0.00127511 0.000586597)
(-0.00115381 -0.00149823 0.000586596)
(-0.00087612 -0.00167583 0.000586596)
(-0.000571805 -0.0018025 0.000586595)
(-0.000250116 -0.00187441 0.000586595)
(7.91719e-05 -0.00188937 0.000586595)
(0.000406055 -0.00184692 0.000586595)
(0.000720599 -0.00174835 0.000586596)
(0.00101325 -0.00159666 0.000586596)
(0.00127511 -0.00139645 0.000586597)
(0.00149823 -0.00115381 0.000586596)
(0.00167583 -0.00087612 0.000586596)
(0.0018025 -0.000571805 0.000586595)
(0.00187441 -0.000250116 0.000586595)
(0.00188937 7.91718e-05 0.000586595)
(0.00184692 0.000406055 0.000586595)
(0.00174835 0.000720599 0.000586596)
(0.00159666 0.00101325 0.000586596)
(0.00139645 0.00127511 0.000586597)
(0.00115381 0.00149823 0.000586596)
(0.00087612 0.00167583 0.000586596)
(0.000571805 0.0018025 0.000586595)
(0.000117154 0.00190989 0.000659507)
(-0.000216275 0.00190122 0.000659506)
(-0.000543132 0.00183478 0.000659507)
(-0.000853486 0.00171259 0.000659507)
(-0.00113791 0.00153837 0.000659507)
(-0.00138775 0.0013174 0.000659507)
(-0.00159544 0.0010564 0.000659507)
(-0.00175464 0.00076331 0.000659507)
(-0.00186053 0.000447023 0.000659507)
(-0.00190989 0.000117154 0.000659507)
(-0.00190122 -0.000216275 0.000659506)
(-0.00183478 -0.000543132 0.000659507)
(-0.00171259 -0.000853486 0.000659507)
(-0.00153837 -0.00113791 0.000659507)
(-0.0013174 -0.00138775 0.000659507)
(-0.0010564 -0.00159544 0.000659507)
(-0.00076331 -0.00175464 0.000659507)
(-0.000447023 -0.00186053 0.000659507)
(-0.000117154 -0.00190989 0.000659507)
(0.000216275 -0.00190122 0.000659506)
(0.000543132 -0.00183478 0.000659507)
(0.000853486 -0.00171259 0.000659507)
(0.00113791 -0.00153837 0.000659507)
(0.00138775 -0.0013174 0.000659507)
(0.00159544 -0.0010564 0.000659507)
(0.00175464 -0.00076331 0.000659507)
(0.00186053 -0.000447023 0.000659507)
(0.00190989 -0.000117154 0.000659507)
(0.00190122 0.000216275 0.000659506)
(0.00183478 0.000543132 0.000659507)
(0.00171259 0.000853486 0.000659507)
(0.00153837 0.00113791 0.000659507)
(0.0013174 0.00138775 0.000659507)
(0.0010564 0.00159544 0.000659507)
(0.00076331 0.00175464 0.000659507)
(0.000447024 0.00186053 0.000659507)
(-3.35684e-05 0.0019348 0.000721029)
(-0.000369033 0.00189958 0.000721029)
(-0.000693285 0.00180664 0.000721029)
(-0.000996471 0.0016588 0.000721029)
(-0.00126938 0.00146057 0.000721029)
(-0.00150372 0.00121795 0.000721029)
(-0.00169237 0.00093833 0.000721029)
(-0.0018296 0.000630198 0.000721029)
(-0.00191124 0.000302916 0.000721029)
(-0.0019348 -3.35685e-05 0.000721029)
(-0.00189958 -0.000369033 0.000721029)
(-0.00180664 -0.000693285 0.000721029)
(-0.0016588 -0.000996472 0.000721029)
(-0.00146057 -0.00126938 0.000721028)
(-0.00121795 -0.00150372 0.000721029)
(-0.00093833 -0.00169237 0.000721029)
(-0.000630198 -0.0018296 0.000721029)
(-0.000302916 -0.00191124 0.000721029)
(3.35686e-05 -0.0019348 0.000721029)
(0.000369033 -0.00189958 0.000721029)
(0.000693285 -0.00180664 0.000721029)
(0.000996472 -0.0016588 0.000721029)
(0.00126938 -0.00146057 0.000721028)
(0.00150372 -0.00121795 0.000721029)
(0.00169237 -0.00093833 0.000721029)
(0.0018296 -0.000630198 0.000721029)
(0.00191124 -0.000302916 0.000721029)
(0.0019348 3.35685e-05 0.000721029)
(0.00189958 0.000369033 0.000721029)
(0.00180664 0.000693285 0.000721029)
(0.0016588 0.000996472 0.000721029)
(0.00146057 0.00126938 0.000721029)
(0.00121795 0.00150372 0.000721029)
(0.00093833 0.00169237 0.000721029)
(0.000630198 0.0018296 0.000721029)
(0.000302917 0.00191124 0.000721029)
(0.000189049 0.00236887 0.000871891)
(-0.000225173 0.00236571 0.00087189)
(-0.000632555 0.00229067 0.00087189)
(-0.00102071 0.00214603 0.00087189)
(-0.00137786 0.00193618 0.000871891)
(-0.00169314 0.0016675 0.000871891)
(-0.00195698 0.00134816 0.000871891)
(-0.00216135 0.000987851 0.000871891)
(-0.00230006 0.000597528 0.000871891)
(-0.00236887 0.000189049 0.00087189)
(-0.00236571 -0.000225173 0.00087189)
(-0.00229067 -0.000632555 0.00087189)
(-0.00214603 -0.00102071 0.00087189)
(-0.00193618 -0.00137786 0.000871891)
(-0.0016675 -0.00169314 0.000871891)
(-0.00134816 -0.00195698 0.000871891)
(-0.00098785 -0.00216135 0.000871891)
(-0.000597528 -0.00230006 0.000871891)
(-0.000189049 -0.00236887 0.00087189)
(0.000225174 -0.00236571 0.00087189)
(0.000632555 -0.00229067 0.00087189)
(0.00102071 -0.00214603 0.00087189)
(0.00137786 -0.00193618 0.000871891)
(0.00169314 -0.0016675 0.000871891)
(0.00195698 -0.00134816 0.000871891)
(0.00216135 -0.000987851 0.000871891)
(0.00230006 -0.000597528 0.000871891)
(0.00236887 -0.000189049 0.000871891)
(0.00236571 0.000225173 0.00087189)
(0.00229067 0.000632555 0.00087189)
(0.00214603 0.00102071 0.000871891)
(0.00193618 0.00137786 0.000871891)
(0.0016675 0.00169314 0.000871891)
(0.00134816 0.00195698 0.000871891)
(0.000987851 0.00216135 0.000871891)
(0.000597528 0.00230006 0.000871891)
(5.06023e-05 0.00236955 0.000940546)
(-0.000361635 0.00234234 0.000940546)
(-0.000762884 0.00224396 0.000940546)
(-0.00114095 0.00207739 0.000940546)
(-0.00148435 0.00184771 0.000940547)
(-0.00178265 0.00156188 0.000940547)
(-0.00202679 0.0012286 0.000940547)
(-0.00220934 0.000857986 0.000940546)
(-0.00232477 0.000461302 0.000940546)
(-0.00236955 5.06021e-05 0.000940546)
(-0.00234234 -0.000361635 0.000940546)
(-0.00224396 -0.000762884 0.000940546)
(-0.00207739 -0.00114095 0.000940546)
(-0.00184771 -0.00148435 0.000940547)
(-0.00156188 -0.00178265 0.000940547)
(-0.0012286 -0.00202679 0.000940547)
(-0.000857986 -0.00220934 0.000940546)
(-0.000461302 -0.00232477 0.000940546)
(-5.0602e-05 -0.00236955 0.000940546)
(0.000361635 -0.00234234 0.000940546)
(0.000762884 -0.00224396 0.000940546)
(0.00114095 -0.00207739 0.000940546)
(0.00148435 -0.00184771 0.000940547)
(0.00178265 -0.00156188 0.000940547)
(0.00202679 -0.0012286 0.000940547)
(0.00220934 -0.000857986 0.000940546)
(0.00232477 -0.000461302 0.000940546)
(0.00236955 -5.06021e-05 0.000940546)
(0.00234234 0.000361635 0.000940546)
(0.00224396 0.000762884 0.000940546)
(0.00207739 0.00114095 0.000940546)
(0.00184771 0.00148435 0.000940547)
(0.00156188 0.00178265 0.000940547)
(0.0012286 0.00202679 0.000940547)
(0.000857986 0.00220934 0.000940546)
(0.000461302 0.00232477 0.000940546)
(-0.000102741 0.00236082 0.000998043)
(-0.000511132 0.00230711 0.000998043)
(-0.000903993 0.0021833 0.000998043)
(-0.00126939 0.00199316 0.000998043)
(-0.00159621 0.00174245 0.000998043)
(-0.00187453 0.0014388 0.000998043)
(-0.0020959 0.00109143 0.000998043)
(-0.00225358 0.000710902 0.000998043)
(-0.00234279 0.000308772 0.000998043)
(-0.00236082 -0.000102742 0.000998043)
(-0.00230711 -0.000511132 0.000998043)
(-0.0021833 -0.000903993 0.000998043)
(-0.00199316 -0.00126939 0.000998043)
(-0.00174245 -0.00159621 0.000998043)
(-0.0014388 -0.00187453 0.000998043)
(-0.00109143 -0.0020959 0.000998043)
(-0.000710902 -0.00225358 0.000998043)
(-0.000308771 -0.00234279 0.000998043)
(0.000102742 -0.00236082 0.000998043)
(0.000511132 -0.00230711 0.000998043)
(0.000903993 -0.0021833 0.000998043)
(0.00126939 -0.00199316 0.000998043)
(0.00159621 -0.00174245 0.000998043)
(0.00187453 -0.0014388 0.000998043)
(0.0020959 -0.00109143 0.000998043)
(0.00225358 -0.000710902 0.000998043)
(0.00234279 -0.000308771 0.000998043)
(0.00236082 0.000102742 0.000998043)
(0.00230711 0.000511132 0.000998043)
(0.0021833 0.000903993 0.000998043)
(0.00199316 0.00126939 0.000998043)
(0.00174245 0.00159621 0.000998043)
(0.0014388 0.00187453 0.000998043)
(0.00109143 0.0020959 0.000998043)
(0.000710902 0.00225358 0.000998043)
(0.000308772 0.00234279 0.000998043)
(8.46692e-05 0.00280851 0.00117842)
(-0.00040431 0.00278055 0.00117842)
(-0.000881004 0.0026681 0.00117842)
(-0.00133093 0.00247458 0.00117842)
(-0.00174041 0.00220587 0.00117842)
(-0.00209702 0.00187014 0.00117842)
(-0.00238991 0.00147758 0.00117842)
(-0.00261018 0.00104013 0.00117842)
(-0.00275114 0.000571076 0.00117842)
(-0.00280851 8.4669e-05 0.00117842)
(-0.00278055 -0.00040431 0.00117842)
(-0.0026681 -0.000881004 0.00117842)
(-0.00247458 -0.00133093 0.00117842)
(-0.00220587 -0.00174041 0.00117842)
(-0.00187014 -0.00209702 0.00117842)
(-0.00147758 -0.00238991 0.00117842)
(-0.00104013 -0.00261018 0.00117842)
(-0.000571076 -0.00275114 0.00117842)
(-8.46688e-05 -0.00280851 0.00117842)
(0.00040431 -0.00278055 0.00117842)
(0.000881005 -0.0026681 0.00117842)
(0.00133093 -0.00247458 0.00117842)
(0.00174041 -0.00220587 0.00117842)
(0.00209702 -0.00187014 0.00117842)
(0.00238991 -0.00147758 0.00117842)
(0.00261018 -0.00104013 0.00117842)
(0.00275114 -0.000571076 0.00117842)
(0.00280851 -8.4669e-05 0.00117842)
(0.00278055 0.00040431 0.00117842)
(0.0026681 0.000881004 0.00117842)
(0.00247458 0.00133093 0.00117842)
(0.00220587 0.00174041 0.00117842)
(0.00187014 0.00209702 0.00117842)
(0.00147758 0.00238991 0.00117842)
(0.00104013 0.00261018 0.00117842)
(0.000571076 0.00275114 0.00117842)
(-5.13213e-05 0.00276316 0.00123624)
(-0.00053036 0.00271227 0.00123624)
(-0.000993283 0.00257897 0.00123624)
(-0.00142603 0.00236731 0.00123624)
(-0.00181544 0.00208372 0.00123624)
(-0.00214969 0.00173681 0.00123624)
(-0.00241863 0.00133714 0.00123624)
(-0.00261407 0.000896832 0.00123624)
(-0.00273009 0.000429276 0.00123624)
(-0.00276316 -5.13215e-05 0.00123624)
(-0.00271227 -0.00053036 0.00123624)
(-0.00257897 -0.000993284 0.00123624)
(-0.00236731 -0.00142603 0.00123624)
(-0.00208372 -0.00181544 0.00123624)
(-0.00173681 -0.00214969 0.00123624)
(-0.00133714 -0.00241863 0.00123624)
(-0.000896831 -0.00261408 0.00123624)
(-0.000429276 -0.0027301 0.00123624)
(5.13217e-05 -0.00276316 0.00123624)
(0.000530361 -0.00271227 0.00123624)
(0.000993284 -0.00257897 0.00123624)
(0.00142603 -0.00236731 0.00123624)
(0.00181544 -0.00208372 0.00123624)
(0.00214969 -0.00173681 0.00123624)
(0.00241863 -0.00133714 0.00123624)
(0.00261408 -0.000896832 0.00123624)
(0.0027301 -0.000429276 0.00123624)
(0.00276316 5.13215e-05 0.00123624)
(0.00271227 0.00053036 0.00123624)
(0.00257897 0.000993284 0.00123624)
(0.00236731 0.00142603 0.00123624)
(0.00208372 0.00181544 0.00123624)
(0.00173681 0.00214969 0.00123624)
(0.00133714 0.00241863 0.00123624)
(0.000896832 0.00261408 0.00123624)
(0.000429277 0.0027301 0.00123624)
(-0.00019924 0.00271059 0.00128281)
(-0.000666902 0.00263481 0.00128281)
(-0.0011143 0.00247897 0.00128281)
(-0.00152784 0.00224782 0.00128281)
(-0.00189496 0.00194836 0.00128281)
(-0.0022045 0.0015897 0.00128281)
(-0.00244706 0.00118275 0.00128281)
(-0.00261526 0.000739851 0.00128281)
(-0.002704 0.000274475 0.00128281)
(-0.00271059 -0.00019924 0.00128281)
(-0.00263481 -0.000666903 0.00128281)
(-0.00247897 -0.0011143 0.00128281)
(-0.00224782 -0.00152784 0.00128281)
(-0.00194836 -0.00189496 0.00128281)
(-0.0015897 -0.0022045 0.00128281)
(-0.00118275 -0.00244706 0.00128281)
(-0.000739851 -0.00261526 0.00128281)
(-0.000274475 -0.002704 0.00128281)
(0.000199241 -0.00271059 0.00128281)
(0.000666903 -0.00263481 0.00128281)
(0.0011143 -0.00247897 0.00128281)
(0.00152784 -0.00224782 0.00128281)
(0.00189496 -0.00194836 0.00128281)
(0.0022045 -0.0015897 0.00128281)
(0.00244706 -0.00118275 0.00128281)
(0.00261526 -0.000739851 0.00128281)
(0.002704 -0.000274475 0.00128281)
(0.00271059 0.00019924 0.00128281)
(0.00263481 0.000666903 0.00128281)
(0.00247897 0.0011143 0.00128281)
(0.00224782 0.00152784 0.00128281)
(0.00194836 0.00189496 0.00128281)
(0.0015897 0.0022045 0.00128281)
(0.00118275 0.00244706 0.00128281)
(0.000739851 0.00261526 0.00128281)
(0.000274475 0.002704 0.00128281)
(-4.52005e-05 0.00317484 0.00150381)
(-0.000595818 0.00311876 0.00150381)
(-0.00112833 0.00296791 0.00150381)
(-0.00162656 0.00272689 0.00150381)
(-0.00207537 0.00240301 0.00150381)
(-0.00246112 0.00200612 0.00150381)
(-0.00277209 0.00154827 0.00150381)
(-0.00299883 0.00104338 0.00150381)
(-0.00313445 0.00050679 0.00150381)
(-0.00317484 -4.52007e-05 0.00150381)
(-0.00311876 -0.000595819 0.00150381)
(-0.00296791 -0.00112833 0.00150381)
(-0.00272689 -0.00162656 0.00150381)
(-0.00240301 -0.00207537 0.00150381)
(-0.00200612 -0.00246112 0.00150381)
(-0.00154827 -0.00277209 0.00150381)
(-0.00104338 -0.00299883 0.00150381)
(-0.00050679 -0.00313445 0.00150381)
(4.5201e-05 -0.00317484 0.00150381)
(0.000595819 -0.00311876 0.00150381)
(0.00112833 -0.00296791 0.00150381)
(0.00162656 -0.00272689 0.00150381)
(0.00207537 -0.00240301 0.00150381)
(0.00246112 -0.00200612 0.00150381)
(0.00277209 -0.00154827 0.00150381)
(0.00299883 -0.00104338 0.00150381)
(0.00313445 -0.00050679 0.00150381)
(0.00317484 4.52007e-05 0.00150381)
(0.00311876 0.000595819 0.00150381)
(0.00296791 0.00112833 0.00150381)
(0.00272689 0.00162656 0.00150381)
(0.00240301 0.00207537 0.00150381)
(0.00200612 0.00246112 0.00150381)
(0.00154827 0.00277209 0.00150381)
(0.00104338 0.00299883 0.00150381)
(0.00050679 0.00313445 0.00150381)
(-0.000174351 0.00307579 0.00154502)
(-0.000705808 0.00299879 0.00154502)
(-0.00121582 0.00283067 0.00154502)
(-0.00168889 0.00257654 0.00154502)
(-0.00211064 0.00224412 0.00154502)
(-0.00246826 0.00184352 0.00154502)
(-0.00275089 0.0013869 0.00154502)
(-0.00294993 0.000888146 0.00154502)
(-0.00305934 0.000362402 0.00154502)
(-0.00307579 -0.000174351 0.00154502)
(-0.00299879 -0.000705808 0.00154502)
(-0.00283067 -0.00121582 0.00154502)
(-0.00257654 -0.00168889 0.00154502)
(-0.00224412 -0.00211064 0.00154502)
(-0.00184352 -0.00246826 0.00154502)
(-0.0013869 -0.00275089 0.00154502)
(-0.000888146 -0.00294993 0.00154502)
(-0.000362402 -0.00305934 0.00154502)
(0.000174351 -0.00307579 0.00154502)
(0.000705808 -0.00299879 0.00154502)
(0.00121582 -0.00283067 0.00154502)
(0.00168889 -0.00257654 0.00154502)
(0.00211064 -0.00224412 0.00154502)
(0.00246826 -0.00184352 0.00154502)
(0.00275089 -0.0013869 0.00154502)
(0.00294993 -0.000888146 0.00154502)
(0.00305934 -0.000362402 0.00154502)
(0.00307579 0.000174351 0.00154502)
(0.00299879 0.000705808 0.00154502)
(0.00283067 0.00121582 0.00154502)
(0.00257654 0.00168889 0.00154502)
(0.00224412 0.00211064 0.00154502)
(0.00184352 0.00246826 0.00154502)
(0.0013869 0.00275089 0.00154502)
(0.000888146 0.00294993 0.00154502)
(0.000362402 0.00305934 0.00154502)
(-0.000312069 0.00297288 0.00157455)
(-0.000823563 0.00287352 0.00157455)
(-0.00131003 0.00268686 0.00157455)
(-0.0017567 0.00241855 0.00157455)
(-0.00214999 0.00207676 0.00157455)
(-0.00247795 0.00167187 0.00157455)
(-0.00273062 0.00121618 0.00157455)
(-0.00290032 0.000723535 0.00157455)
(-0.0029819 0.000208907 0.00157455)
(-0.00297288 -0.00031207 0.00157455)
(-0.00287352 -0.000823563 0.00157455)
(-0.00268686 -0.00131003 0.00157455)
(-0.00241855 -0.0017567 0.00157455)
(-0.00207676 -0.00214999 0.00157455)
(-0.00167187 -0.00247795 0.00157455)
(-0.00121618 -0.00273062 0.00157455)
(-0.000723535 -0.00290032 0.00157455)
(-0.000208907 -0.0029819 0.00157455)
(0.00031207 -0.00297288 0.00157455)
(0.000823563 -0.00287352 0.00157455)
(0.00131003 -0.00268686 0.00157455)
(0.0017567 -0.00241855 0.00157455)
(0.00214999 -0.00207676 0.00157455)
(0.00247795 -0.00167187 0.00157455)
(0.00273062 -0.00121618 0.00157455)
(0.00290032 -0.000723535 0.00157455)
(0.0029819 -0.000208907 0.00157455)
(0.00297288 0.00031207 0.00157455)
(0.00287352 0.000823563 0.00157455)
(0.00268686 0.00131003 0.00157455)
(0.00241855 0.0017567 0.00157455)
(0.00207676 0.00214999 0.00157455)
(0.00167187 0.00247795 0.00157455)
(0.00121618 0.00273062 0.00157455)
(0.000723535 0.00290032 0.00157455)
(0.000208907 0.0029819 0.00157455)
(-0.000180352 0.00345091 0.00185127)
(-0.000776856 0.00336717 0.00185127)
(-0.00134976 0.00318111 0.00185126)
(-0.00188164 0.0028984 0.00185126)
(-0.00235636 0.00252762 0.00185126)
(-0.00275948 0.00208004 0.00185126)
(-0.00307875 0.00156927 0.00185126)
(-0.00330448 0.0010108 0.00185127)
(-0.0034298 0.000421631 0.00185127)
(-0.00345091 -0.000180352 0.00185127)
(-0.00336717 -0.000776856 0.00185127)
(-0.00318111 -0.00134976 0.00185126)
(-0.0028984 -0.00188165 0.00185126)
(-0.00252762 -0.00235636 0.00185126)
(-0.00208004 -0.00275948 0.00185126)
(-0.00156927 -0.00307875 0.00185126)
(-0.0010108 -0.00330448 0.00185127)
(-0.00042163 -0.0034298 0.00185127)
(0.000180352 -0.00345091 0.00185127)
(0.000776857 -0.00336717 0.00185127)
(0.00134976 -0.00318111 0.00185126)
(0.00188165 -0.0028984 0.00185126)