/*--------------------------------*- C++ -*----------------------------------*\
| =========                 |                                                 |
| \\      /  F ield         | OpenFOAM: The Open Source CFD Toolbox           |
|  \\    /   O peration     | Version:  2312                                  |
|   \\  /    A nd           | Website:  www.openfoam.com                      |
|    \\/     M anipulation  |                                                 |
\*---------------------------------------------------------------------------*/
FoamFile
{
    version     2.0;
    format      ascii;
    arch        "LSB;label=32;scalar=64";
    class       volTensorField;
    location    "0.5";
    object      F;
}
// * * * * * * * * * * * * * * * * * * * * * * * * * * * * * * * * * * * * * //

dimensions      [0 0 0 0 0 0 0];

internalField   nonuniform List<tensor> 
1620
(
(1.05681 -0.0229592 -0.046126 -0.0362039 1.00822 -0.289575 -0.0319828 -0.00279819 0.933285)
(1.06546 -0.0128659 0.00485871 -0.0261107 0.99957 -0.293185 -0.0310112 -0.00830941 0.933285)
(1.07014 -0.000421956 0.0556959 -0.0136669 0.994892 -0.287887 -0.0290972 -0.0135682 0.933285)
(1.07028 0.0128716 0.104841 -0.000373172 0.994752 -0.273842 -0.026299 -0.0184147 0.933285)
(1.06587 0.0254114 0.1508 0.0121667 0.999167 -0.251476 -0.0227017 -0.0227018 0.933285)
(1.05743 0.0356849 0.192178 0.0224404 1.0076 -0.22147 -0.0184149 -0.026299 0.933285)
(1.04599 0.042453 0.227716 0.0292086 1.01905 -0.184734 -0.0135682 -0.0290969 0.933285)
(1.03292 0.0448994 0.256335 0.031655 1.03211 -0.142385 -0.00830922 -0.0310109 0.933285)
(1.01981 0.0427291 0.277165 0.0294846 1.04523 -0.0957094 -0.00279803 -0.0319828 0.933285)
(1.00822 0.0362039 0.289575 0.0229592 1.05681 -0.046126 0.00279819 -0.0319828 0.933285)
(0.99957 0.0261107 0.293185 0.0128659 1.06546 0.00485873 0.00830941 -0.0310112 0.933285)
(0.994892 0.0136669 0.287887 0.000421958 1.07014 0.055696 0.0135682 -0.0290972 0.933285)
(0.994752 0.000373174 0.273842 -0.0128716 1.07028 0.104841 0.0184147 -0.026299 0.933285)
(0.999167 -0.0121667 0.251476 -0.0254114 1.06587 0.1508 0.0227018 -0.0227017 0.933285)
(1.0076 -0.0224404 0.22147 -0.0356849 1.05743 0.192178 0.026299 -0.0184149 0.933285)
(1.01905 -0.0292086 0.184734 -0.042453 1.04599 0.227716 0.0290969 -0.0135682 0.933285)
(1.03211 -0.031655 0.142385 -0.0448994 1.03292 0.256335 0.0310109 -0.00830922 0.933285)
(1.04523 -0.0294846 0.0957094 -0.0427291 1.01981 0.277165 0.0319828 -0.00279804 0.933285)
(1.05681 -0.0229592 0.046126 -0.0362039 1.00822 0.289575 0.0319828 0.00279818 0.933285)
(1.06546 -0.0128659 -0.00485874 -0.0261107 0.99957 0.293185 0.0310112 0.0083094 0.933285)
(1.07014 -0.000421957 -0.055696 -0.0136669 0.994892 0.287887 0.0290972 0.0135682 0.933285)
(1.07028 0.0128716 -0.104841 -0.000373172 0.994752 0.273842 0.026299 0.0184147 0.933285)
(1.06587 0.0254114 -0.1508 0.0121667 0.999167 0.251476 0.0227017 0.0227018 0.933285)
(1.05743 0.0356849 -0.192178 0.0224404 1.0076 0.22147 0.0184149 0.026299 0.933285)
(1.04599 0.042453 -0.227716 0.0292086 1.01905 0.184734 0.0135682 0.0290969 0.933285)
(1.03292 0.0448994 -0.256335 0.031655 1.03211 0.142385 0.00830922 0.0310109 0.933285)
(1.01981 0.0427291 -0.277165 0.0294846 1.04523 0.0957094 0.00279804 0.0319828 0.933285)
(1.00822 0.0362039 -0.289575 0.0229592 1.05681 0.046126 -0.00279818 0.0319828 0.933285)
(0.99957 0.0261107 -0.293185 0.0128659 1.06546 -0.00485873 -0.0083094 0.0310112 0.933285)
(0.994892 0.0136669 -0.287887 0.000421955 1.07014 -0.055696 -0.0135682 0.0290972 0.933285)
(0.994752 0.00037317 -0.273842 -0.0128716 1.07028 -0.104841 -0.0184147 0.026299 0.933285)
(0.999167 -0.0121667 -0.251476 -0.0254114 1.06587 -0.1508 -0.0227018 0.0227017 0.933285)
(1.0076 -0.0224404 -0.22147 -0.0356849 1.05743 -0.192178 -0.026299 0.0184149 0.933285)
(1.01905 -0.0292086 -0.184734 -0.042453 1.04599 -0.227716 -0.0290969 0.0135682 0.933285)
(1.03211 -0.031655 -0.142385 -0.0448994 1.03292 -0.256335 -0.0310109 0.00830922 0.933285)
(1.04523 -0.0294846 -0.0957094 -0.0427291 1.01981 -0.277165 -0.0319828 0.00279803 0.933285)
(1.06784 -0.0297563 -0.028394 -0.034645 1.0031 -0.302382 -0.0186017 -0.00162744 0.92043)
(1.0769 -0.0167425 0.0245454 -0.0216314 0.994036 -0.302719 -0.0180366 -0.0048328 0.92043)
(1.08096 -0.00141452 0.0767391 -0.00630345 0.989972 -0.293858 -0.0169233 -0.00789136 0.92043)
(1.07954 0.0143787 0.126601 0.00948995 0.991396 -0.276068 -0.0152958 -0.0107103 0.92043)
(1.0728 0.0287327 0.172616 0.0238439 0.998136 -0.24989 -0.0132037 -0.0132037 0.92043)
(1.06156 0.0399159 0.213387 0.0350271 1.00938 -0.216119 -0.0107104 -0.0152958 0.92043)
(1.04717 0.0465794 0.247674 0.0416907 1.02377 -0.175781 -0.00789132 -0.0169231 0.92043)
(1.03137 0.0479194 0.274435 0.0430308 1.03957 -0.130102 -0.00483268 -0.0180363 0.92043)
(1.01606 0.0437747 0.292858 0.038886 1.05487 -0.0804707 -0.00162742 -0.0186016 0.92043)
(1.0031 0.034645 0.302382 0.0297563 1.06784 -0.028394 0.00162744 -0.0186017 0.92043)
(0.994036 0.0216314 0.302719 0.0167425 1.0769 0.0245454 0.0048328 -0.0180366 0.92043)
(0.989972 0.00630346 0.293858 0.00141453 1.08096 0.0767392 0.00789136 -0.0169233 0.92043)
(0.991396 -0.00948995 0.276068 -0.0143787 1.07954 0.126601 0.0107103 -0.0152958 0.92043)
(0.998136 -0.0238439 0.24989 -0.0287327 1.0728 0.172616 0.0132037 -0.0132037 0.92043)
(1.00938 -0.0350271 0.216119 -0.0399159 1.06156 0.213387 0.0152958 -0.0107104 0.92043)
(1.02377 -0.0416907 0.175781 -0.0465794 1.04717 0.247674 0.0169231 -0.00789132 0.92043)
(1.03957 -0.0430308 0.130102 -0.0479194 1.03137 0.274435 0.0180363 -0.00483268 0.92043)
(1.05487 -0.038886 0.0804707 -0.0437747 1.01606 0.292858 0.0186016 -0.00162742 0.92043)
(1.06784 -0.0297563 0.028394 -0.034645 1.0031 0.302382 0.0186017 0.00162743 0.92043)
(1.0769 -0.0167425 -0.0245454 -0.0216314 0.994036 0.302719 0.0180366 0.0048328 0.92043)
(1.08096 -0.00141452 -0.0767392 -0.00630345 0.989972 0.293858 0.0169233 0.00789136 0.92043)
(1.07954 0.0143787 -0.126601 0.00948995 0.991396 0.276068 0.0152958 0.0107103 0.92043)
(1.0728 0.0287327 -0.172616 0.0238439 0.998136 0.24989 0.0132037 0.0132037 0.92043)
(1.06156 0.0399159 -0.213387 0.0350271 1.00938 0.216119 0.0107104 0.0152958 0.92043)
(1.04717 0.0465794 -0.247674 0.0416907 1.02377 0.175781 0.00789132 0.0169231 0.92043)
(1.03137 0.0479194 -0.274435 0.0430308 1.03957 0.130102 0.00483268 0.0180363 0.92043)
(1.01606 0.0437747 -0.292858 0.038886 1.05487 0.0804707 0.00162742 0.0186016 0.92043)
(1.0031 0.034645 -0.302382 0.0297563 1.06784 0.028394 -0.00162743 0.0186017 0.92043)
(0.994036 0.0216314 -0.302719 0.0167425 1.0769 -0.0245454 -0.0048328 0.0180366 0.92043)
(0.989972 0.00630345 -0.293858 0.00141452 1.08096 -0.0767392 -0.00789136 0.0169233 0.92043)
(0.991396 -0.00948995 -0.276068 -0.0143787 1.07954 -0.126601 -0.0107103 0.0152958 0.92043)
(0.998136 -0.0238439 -0.24989 -0.0287327 1.0728 -0.172616 -0.0132037 0.0132037 0.92043)
(1.00938 -0.0350271 -0.216119 -0.0399159 1.06156 -0.213387 -0.0152958 0.0107104 0.92043)
(1.02377 -0.0416907 -0.175781 -0.0465794 1.04717 -0.247674 -0.0169231 0.00789132 0.92043)
(1.03957 -0.0430308 -0.130102 -0.0479194 1.03137 -0.274435 -0.0180363 0.00483268 0.92043)
(1.05487 -0.038886 -0.0804708 -0.0437747 1.01606 -0.292858 -0.0186016 0.00162742 0.92043)
(1.07917 -0.0381994 -0.00840314 -0.0318607 0.993708 -0.312671 -0.00397233 -0.000347474 0.901285)
(1.08857 -0.0214719 0.0460192 -0.0151333 0.984304 -0.30938 -0.00385167 -0.00103207 0.901285)
(1.09169 -0.00253666 0.0990432 0.00380194 0.981188 -0.296689 -0.00361368 -0.00168511 0.901285)
(1.08814 0.0163221 0.149058 0.0226606 0.984736 -0.274983 -0.00326623 -0.00228699 0.901285)
(1.07836 0.03283 0.194544 0.0391686 0.994521 -0.244921 -0.00281959 -0.00281954 0.901285)
(1.06352 0.0449957 0.234118 0.0513346 1.00936 -0.207418 -0.00228706 -0.00326629 0.901285)
(1.04541 0.0513521 0.266579 0.0576908 1.02747 -0.163613 -0.00168498 -0.00361372 0.901285)
(1.02622 0.0511323 0.29094 0.057471 1.04666 -0.114836 -0.00103194 -0.0038514 0.901285)
(1.00827 0.044363 0.306461 0.0507017 1.06461 -0.0625702 -0.000347591 -0.00397229 0.901285)
(0.993708 0.0318607 0.312671 0.0381994 1.07917 -0.00840313 0.000347474 -0.00397233 0.901285)
(0.984304 0.0151333 0.30938 0.0214719 1.08857 0.0460192 0.00103207 -0.00385167 0.901285)
(0.981188 -0.00380194 0.296689 0.00253667 1.09169 0.0990432 0.00168511 -0.00361368 0.901285)
(0.984736 -0.0226605 0.274983 -0.0163221 1.08814 0.149058 0.00228699 -0.00326623 0.901285)
(0.994521 -0.0391686 0.244921 -0.03283 1.07836 0.194544 0.00281955 -0.00281959 0.901285)
(1.00936 -0.0513346 0.207418 -0.0449957 1.06352 0.234118 0.00326629 -0.00228707 0.901285)
(1.02747 -0.0576908 0.163613 -0.0513521 1.04541 0.266579 0.00361372 -0.00168498 0.901285)
(1.04666 -0.057471 0.114836 -0.0511323 1.02622 0.29094 0.0038514 -0.00103194 0.901285)
(1.06461 -0.0507017 0.0625702 -0.044363 1.00827 0.306461 0.00397229 -0.000347591 0.901285)
(1.07917 -0.0381994 0.00840311 -0.0318607 0.993708 0.312671 0.00397233 0.000347474 0.901285)
(1.08857 -0.0214719 -0.0460192 -0.0151333 0.984304 0.30938 0.00385167 0.00103207 0.901285)
(1.09169 -0.00253667 -0.0990432 0.00380194 0.981188 0.296689 0.00361368 0.00168511 0.901285)
(1.08814 0.0163221 -0.149058 0.0226605 0.984736 0.274983 0.00326623 0.00228699 0.901285)
(1.07836 0.03283 -0.194544 0.0391686 0.994521 0.244921 0.00281959 0.00281954 0.901285)
(1.06352 0.0449957 -0.234118 0.0513346 1.00936 0.207418 0.00228707 0.00326629 0.901285)
(1.04541 0.0513521 -0.266579 0.0576908 1.02747 0.163613 0.00168498 0.00361372 0.901285)
(1.02622 0.0511323 -0.29094 0.057471 1.04666 0.114836 0.00103194 0.0038514 0.901285)
(1.00827 0.044363 -0.306461 0.0507017 1.06461 0.0625702 0.000347592 0.00397229 0.901285)
(0.993708 0.0318607 -0.312671 0.0381994 1.07917 0.00840312 -0.000347473 0.00397233 0.901285)
(0.984304 0.0151333 -0.30938 0.0214719 1.08857 -0.0460192 -0.00103207 0.00385167 0.901285)
(0.981188 -0.00380195 -0.296689 0.00253666 1.09169 -0.0990432 -0.00168511 0.00361368 0.901285)
(0.984736 -0.0226606 -0.274983 -0.0163221 1.08814 -0.149058 -0.00228699 0.00326623 0.901285)
(0.994521 -0.0391686 -0.244921 -0.03283 1.07836 -0.194544 -0.00281954 0.00281959 0.901285)
(1.00936 -0.0513346 -0.207418 -0.0449957 1.06352 -0.234118 -0.00326629 0.00228706 0.901285)
(1.02747 -0.0576908 -0.163613 -0.0513521 1.04541 -0.266579 -0.00361372 0.00168498 0.901285)
(1.04666 -0.057471 -0.114836 -0.0511323 1.02622 -0.29094 -0.0038514 0.00103194 0.901285)
(1.06461 -0.0507017 -0.0625703 -0.044363 1.00827 -0.306461 -0.00397229 0.000347591 0.901285)
(1.09478 -0.078551 -0.0350527 -0.0611864 1.01627 -0.290109 -0.0590608 -0.0051673 0.910967)
(1.11631 -0.0609113 0.0158567 -0.0435469 0.994739 -0.291788 -0.0572665 -0.0153445 0.910967)
(1.13051 -0.0369721 0.0662844 -0.0196078 0.980542 -0.284602 -0.0537322 -0.0250553 0.910967)
(1.13566 -0.00962074 0.114698 0.00774369 0.975388 -0.268768 -0.0485646 -0.0340047 0.910967)
(1.13115 0.0178439 0.159626 0.0352085 0.9799 -0.244768 -0.0419214 -0.0419214 0.910967)
(1.11751 0.042109 0.199705 0.0594739 0.993533 -0.21333 -0.034005 -0.0485645 0.910967)
(1.0964 0.0602478 0.233715 0.0776128 1.01464 -0.175411 -0.0250552 -0.0537315 0.910967)
(1.07036 0.0700727 0.260624 0.0874378 1.04068 -0.132162 -0.0153441 -0.057266 0.910967)
(1.04253 0.0703987 0.279615 0.0877636 1.06851 -0.0848971 -0.00516695 -0.0590607 0.910967)
(1.01627 0.0611864 0.290109 0.078551 1.09478 -0.0350527 0.0051673 -0.0590608 0.910967)
(0.994739 0.0435469 0.291788 0.0609113 1.11631 0.0158568 0.0153445 -0.0572665 0.910967)
(0.980542 0.0196078 0.284602 0.0369721 1.13051 0.0662844 0.0250553 -0.0537322 0.910967)
(0.975388 -0.00774369 0.268768 0.00962074 1.13566 0.114698 0.0340047 -0.0485646 0.910967)
(0.9799 -0.0352085 0.244768 -0.0178439 1.13115 0.159626 0.0419214 -0.0419214 0.910967)
(0.993533 -0.0594739 0.21333 -0.042109 1.11751 0.199705 0.0485645 -0.034005 0.910967)
(1.01464 -0.0776128 0.175411 -0.0602478 1.0964 0.233715 0.0537315 -0.0250552 0.910967)
(1.04068 -0.0874378 0.132162 -0.0700727 1.07036 0.260624 0.057266 -0.0153441 0.910967)
(1.06851 -0.0877636 0.084897 -0.0703987 1.04253 0.279615 0.0590607 -0.00516695 0.910967)
(1.09478 -0.078551 0.0350527 -0.0611864 1.01627 0.290109 0.0590608 0.00516729 0.910967)
(1.11631 -0.0609113 -0.0158568 -0.0435469 0.994739 0.291788 0.0572665 0.0153445 0.910967)
(1.13051 -0.0369721 -0.0662844 -0.0196078 0.980542 0.284602 0.0537322 0.0250553 0.910967)
(1.13566 -0.00962074 -0.114698 0.00774369 0.975388 0.268768 0.0485646 0.0340047 0.910967)
(1.13115 0.0178439 -0.159626 0.0352085 0.9799 0.244768 0.0419214 0.0419214 0.910967)
(1.11751 0.042109 -0.199705 0.0594739 0.993533 0.21333 0.034005 0.0485645 0.910967)
(1.0964 0.0602478 -0.233715 0.0776128 1.01464 0.175411 0.0250552 0.0537315 0.910967)
(1.07036 0.0700727 -0.260624 0.0874378 1.04068 0.132162 0.0153441 0.057266 0.910967)
(1.04253 0.0703987 -0.279615 0.0877636 1.06851 0.084897 0.00516695 0.0590607 0.910967)
(1.01627 0.0611864 -0.290109 0.078551 1.09478 0.0350527 -0.00516729 0.0590608 0.910967)
(0.994739 0.0435469 -0.291788 0.0609113 1.11631 -0.0158568 -0.0153445 0.0572665 0.910967)
(0.980542 0.0196078 -0.284602 0.0369721 1.13051 -0.0662844 -0.0250553 0.0537322 0.910967)
(0.975388 -0.0077437 -0.268768 0.00962074 1.13566 -0.114698 -0.0340047 0.0485646 0.910967)
(0.9799 -0.0352085 -0.244768 -0.0178439 1.13115 -0.159626 -0.0419214 0.0419214 0.910967)
(0.993533 -0.0594739 -0.21333 -0.042109 1.11751 -0.199705 -0.0485645 0.034005 0.910967)
(1.01464 -0.0776128 -0.175411 -0.0602478 1.0964 -0.233715 -0.0537315 0.0250552 0.910967)
(1.04068 -0.0874378 -0.132162 -0.0700727 1.07036 -0.260624 -0.057266 0.0153441 0.910967)
(1.06851 -0.0877636 -0.0848971 -0.0703987 1.04253 -0.279615 -0.0590607 0.00516695 0.910967)
(1.1087 -0.0947743 -0.017567 -0.0574394 1.00868 -0.298686 -0.0515486 -0.00450995 0.899735)
(1.13171 -0.0730799 0.0345662 -0.0357453 0.985665 -0.297199 -0.0499826 -0.0133927 0.899735)
(1.14592 -0.0448225 0.0856491 -0.00748802 0.971459 -0.286681 -0.0468976 -0.0218684 0.899735)
(1.1496 -0.0134108 0.134129 0.0239241 0.967774 -0.267453 -0.0423873 -0.0296796 0.899735)
(1.14232 0.0173672 0.178534 0.0547023 0.975054 -0.240099 -0.0365892 -0.0365891 0.899735)
(1.12496 0.0437989 0.217515 0.081134 0.992423 -0.205449 -0.0296797 -0.0423872 0.899735)
(1.09959 0.062696 0.249886 0.100031 1.01778 -0.164557 -0.0218682 -0.0468971 0.899735)
(1.0693 0.0717796 0.274665 0.109115 1.04808 -0.118664 -0.0133924 -0.0499821 0.899735)
(1.03773 0.069954 0.291098 0.107289 1.07965 -0.0691664 -0.00450982 -0.0515485 0.899735)
(1.00868 0.0574394 0.298686 0.0947743 1.1087 -0.017567 0.00450995 -0.0515486 0.899735)
(0.985665 0.0357453 0.297199 0.0730799 1.13171 0.0345662 0.0133927 -0.0499826 0.899735)
(0.971459 0.00748802 0.286681 0.0448225 1.14592 0.0856491 0.0218684 -0.0468976 0.899735)
(0.967774 -0.0239241 0.267453 0.0134108 1.1496 0.134129 0.0296796 -0.0423873 0.899735)
(0.975054 -0.0547023 0.240099 -0.0173672 1.14232 0.178534 0.0365891 -0.0365892 0.899735)
(0.992423 -0.081134 0.205449 -0.0437989 1.12496 0.217515 0.0423872 -0.0296797 0.899735)
(1.01778 -0.100031 0.164557 -0.062696 1.09959 0.249886 0.0468971 -0.0218683 0.899735)
(1.04808 -0.109115 0.118664 -0.0717796 1.0693 0.274665 0.0499821 -0.0133924 0.899735)
(1.07965 -0.107289 0.0691664 -0.069954 1.03773 0.291098 0.0515485 -0.00450982 0.899735)
(1.1087 -0.0947743 0.017567 -0.0574394 1.00868 0.298686 0.0515486 0.00450995 0.899735)
(1.13171 -0.0730799 -0.0345662 -0.0357453 0.985665 0.297199 0.0499826 0.0133927 0.899735)
(1.14592 -0.0448225 -0.0856491 -0.00748801 0.971459 0.286681 0.0468976 0.0218684 0.899735)
(1.1496 -0.0134108 -0.134129 0.0239241 0.967774 0.267453 0.0423873 0.0296796 0.899735)
(1.14232 0.0173672 -0.178534 0.0547023 0.975054 0.240099 0.0365892 0.0365891 0.899735)
(1.12496 0.0437989 -0.217515 0.081134 0.992423 0.205449 0.0296797 0.0423872 0.899735)
(1.09959 0.062696 -0.249886 0.100031 1.01778 0.164557 0.0218683 0.0468971 0.899735)
(1.0693 0.0717796 -0.274665 0.109115 1.04808 0.118664 0.0133924 0.0499821 0.899735)
(1.03773 0.069954 -0.291098 0.107289 1.07965 0.0691664 0.00450983 0.0515485 0.899735)
(1.00868 0.0574394 -0.298686 0.0947743 1.1087 0.017567 -0.00450995 0.0515486 0.899735)
(0.985665 0.0357453 -0.297199 0.0730799 1.13171 -0.0345662 -0.0133927 0.0499826 0.899735)
(0.971459 0.00748801 -0.286681 0.0448225 1.14592 -0.0856491 -0.0218684 0.0468976 0.899735)
(0.967774 -0.0239241 -0.267453 0.0134108 1.1496 -0.134129 -0.0296796 0.0423873 0.899735)
(0.975054 -0.0547023 -0.240099 -0.0173672 1.14232 -0.178534 -0.0365891 0.0365892 0.899735)
(0.992423 -0.081134 -0.205449 -0.0437989 1.12496 -0.217515 -0.0423872 0.0296797 0.899735)
(1.01778 -0.100031 -0.164557 -0.062696 1.09959 -0.249886 -0.0468971 0.0218683 0.899735)
(1.04808 -0.109115 -0.118664 -0.0717796 1.0693 -0.274665 -0.0499821 0.0133924 0.899735)
(1.07965 -0.107289 -0.0691664 -0.069954 1.03773 -0.291098 -0.0515485 0.00450982 0.899735)
(1.12318 -0.114358 0.000571245 -0.0511276 0.995773 -0.305531 -0.043359 -0.00379337 0.884407)
(1.14764 -0.0875798 0.0536174 -0.0243501 0.971315 -0.30079 -0.0420417 -0.0112649 0.884407)
(1.16146 -0.0540518 0.105034 0.00917807 0.957491 -0.28691 -0.0394467 -0.0183942 0.884407)
(1.16299 -0.0178175 0.15326 0.0454124 0.955967 -0.264312 -0.035653 -0.0249644 0.884407)
(1.15202 0.0167525 0.196829 0.0799827 0.966929 -0.233684 -0.0307762 -0.0307761 0.884407)
(1.1299 0.0454886 0.234417 0.108719 0.989053 -0.195954 -0.0249643 -0.0356529 0.884407)
(1.09928 0.0649249 0.264883 0.128155 1.01967 -0.152271 -0.0183939 -0.0394464 0.884407)
(1.06386 0.072717 0.287301 0.135947 1.05509 -0.103961 -0.0112649 -0.0420413 0.884407)
(1.02791 0.0679253 0.300989 0.131156 1.09104 -0.0524923 -0.00379343 -0.043359 0.884407)
(0.995773 0.0511276 0.305531 0.114358 1.12318 0.000571262 0.00379337 -0.043359 0.884407)
(0.971315 0.0243501 0.30079 0.0875798 1.14764 0.0536174 0.0112649 -0.0420417 0.884407)
(0.957491 -0.00917807 0.28691 0.0540518 1.16146 0.105034 0.0183942 -0.0394467 0.884407)
(0.955967 -0.0454124 0.264312 0.0178175 1.16299 0.15326 0.0249644 -0.035653 0.884407)
(0.966929 -0.0799827 0.233683 -0.0167525 1.15202 0.196829 0.0307761 -0.0307762 0.884407)
(0.989053 -0.108719 0.195954 -0.0454886 1.1299 0.234417 0.0356529 -0.0249643 0.884407)
(1.01967 -0.128155 0.152271 -0.0649249 1.09928 0.264883 0.0394464 -0.0183939 0.884407)
(1.05509 -0.135947 0.103961 -0.072717 1.06386 0.287301 0.0420413 -0.0112649 0.884407)
(1.09104 -0.131156 0.0524923 -0.0679253 1.02791 0.300989 0.043359 -0.00379343 0.884407)
(1.12318 -0.114358 -0.000571276 -0.0511276 0.995773 0.305531 0.043359 0.00379337 0.884407)
(1.14764 -0.0875798 -0.0536174 -0.0243501 0.971315 0.30079 0.0420417 0.0112649 0.884407)
(1.16146 -0.0540518 -0.105034 0.00917807 0.957491 0.28691 0.0394467 0.0183942 0.884407)
(1.16299 -0.0178175 -0.15326 0.0454124 0.955967 0.264312 0.035653 0.0249644 0.884407)
(1.15202 0.0167525 -0.196829 0.0799827 0.966929 0.233683 0.0307762 0.0307761 0.884407)
(1.1299 0.0454886 -0.234417 0.108719 0.989053 0.195954 0.0249644 0.0356529 0.884407)
(1.09928 0.0649249 -0.264883 0.128155 1.01967 0.152271 0.018394 0.0394464 0.884407)
(1.06386 0.072717 -0.287301 0.135947 1.05509 0.103961 0.0112649 0.0420413 0.884407)
(1.02791 0.0679253 -0.300989 0.131156 1.09104 0.0524923 0.00379343 0.043359 0.884407)
(0.995773 0.0511276 -0.305531 0.114358 1.12318 -0.000571263 -0.00379336 0.043359 0.884407)
(0.971315 0.0243501 -0.30079 0.0875798 1.14764 -0.0536174 -0.0112649 0.0420417 0.884407)
(0.957491 -0.00917808 -0.28691 0.0540518 1.16146 -0.105034 -0.0183942 0.0394467 0.884407)
(0.955967 -0.0454124 -0.264312 0.0178175 1.16299 -0.15326 -0.0249644 0.035653 0.884407)
(0.966929 -0.0799827 -0.233684 -0.0167525 1.15202 -0.196829 -0.0307761 0.0307762 0.884407)
(0.989053 -0.108719 -0.195954 -0.0454886 1.1299 -0.234417 -0.0356529 0.0249643 0.884407)
(1.01967 -0.128155 -0.152271 -0.0649249 1.09928 -0.264883 -0.0394464 0.0183939 0.884407)
(1.05509 -0.135947 -0.103961 -0.072717 1.06386 -0.287301 -0.0420413 0.0112649 0.884407)
(1.09104 -0.131156 -0.0524923 -0.0679253 1.02791 -0.300989 -0.043359 0.00379343 0.884407)
(1.13224 -0.133768 -0.0119514 -0.0698174 1.02136 -0.283942 -0.0767496 -0.00671477 0.879151)
(1.16371 -0.108669 0.0375362 -0.0447186 0.989892 -0.281704 -0.0744176 -0.01994 0.879151)
(1.1847 -0.0743194 0.0858832 -0.0103694 0.968902 -0.270906 -0.0698245 -0.0325592 0.879151)
(1.19267 -0.0348626 0.131621 0.0290873 0.960926 -0.251877 -0.0631094 -0.0441891 0.879151)
(1.18667 0.00494227 0.173359 0.0688924 0.966927 -0.225194 -0.0544768 -0.0544766 0.879151)
(1.16742 0.0402945 0.20983 0.104245 0.98618 -0.19167 -0.0441893 -0.0631089 0.879151)
(1.13724 0.0669298 0.239925 0.13088 1.01636 -0.152321 -0.0325591 -0.0698237 0.879151)
(1.09976 0.0816358 0.26273 0.145587 1.05383 -0.108344 -0.0199395 -0.074417 0.879151)
(1.05952 0.0826388 0.277553 0.146589 1.09408 -0.0610759 -0.00671429 -0.0767495 0.879151)
(1.02136 0.0698174 0.283942 0.133768 1.13224 -0.0119514 0.00671477 -0.0767496 0.879151)
(0.989892 0.0447186 0.281704 0.108669 1.16371 0.0375362 0.01994 -0.0744176 0.879151)
(0.968902 0.0103694 0.270906 0.0743194 1.1847 0.0858832 0.0325592 -0.0698245 0.879151)
(0.960926 -0.0290873 0.251877 0.0348626 1.19267 0.131621 0.0441891 -0.0631094 0.879151)
(0.966927 -0.0688924 0.225194 -0.00494227 1.18667 0.173359 0.0544766 -0.0544768 0.879151)
(0.98618 -0.104245 0.19167 -0.0402945 1.16742 0.20983 0.0631089 -0.0441893 0.879151)
(1.01636 -0.13088 0.152321 -0.0669298 1.13724 0.239925 0.0698237 -0.0325591 0.879151)
(1.05383 -0.145587 0.108344 -0.0816358 1.09976 0.26273 0.074417 -0.0199395 0.879151)
(1.09408 -0.146589 0.0610759 -0.0826388 1.05952 0.277553 0.0767495 -0.00671429 0.879151)
(1.13224 -0.133768 0.0119514 -0.0698174 1.02136 0.283942 0.0767496 0.00671476 0.879151)
(1.16371 -0.108669 -0.0375362 -0.0447186 0.989892 0.281704 0.0744176 0.01994 0.879151)
(1.1847 -0.0743194 -0.0858833 -0.0103694 0.968902 0.270906 0.0698245 0.0325592 0.879151)
(1.19267 -0.0348626 -0.131621 0.0290873 0.960926 0.251877 0.0631094 0.0441891 0.879151)
(1.18667 0.00494227 -0.173359 0.0688924 0.966927 0.225194 0.0544768 0.0544765 0.879151)
(1.16742 0.0402945 -0.20983 0.104245 0.98618 0.19167 0.0441893 0.0631089 0.879151)
(1.13724 0.0669298 -0.239925 0.13088 1.01636 0.152321 0.0325591 0.0698237 0.879151)
(1.09976 0.0816358 -0.26273 0.145587 1.05383 0.108344 0.0199395 0.074417 0.879151)
(1.05952 0.0826388 -0.277553 0.146589 1.09408 0.0610759 0.00671429 0.0767495 0.879151)
(1.02136 0.0698174 -0.283942 0.133768 1.13224 0.0119514 -0.00671476 0.0767496 0.879151)
(0.989892 0.0447186 -0.281704 0.108669 1.16371 -0.0375362 -0.01994 0.0744176 0.879151)
(0.968902 0.0103694 -0.270906 0.0743194 1.1847 -0.0858832 -0.0325592 0.0698245 0.879151)
(0.960926 -0.0290873 -0.251877 0.0348626 1.19267 -0.131621 -0.0441891 0.0631094 0.879151)
(0.966927 -0.0688924 -0.225194 -0.00494227 1.18667 -0.173359 -0.0544766 0.0544768 0.879151)
(0.98618 -0.104245 -0.19167 -0.0402945 1.16742 -0.20983 -0.0631089 0.0441893 0.879151)
(1.01636 -0.13088 -0.152321 -0.0669298 1.13724 -0.239925 -0.0698237 0.0325591 0.879151)
(1.05383 -0.145587 -0.108345 -0.0816358 1.09976 -0.26273 -0.074417 0.0199395 0.879151)
(1.09408 -0.146589 -0.0610759 -0.0826388 1.05952 -0.277553 -0.0767495 0.00671429 0.879151)
(1.1458 -0.157179 0.00122448 -0.0653187 1.01069 -0.284197 -0.0713097 -0.00623883 0.871977)
(1.17977 -0.127365 0.0505562 -0.0355046 0.97671 -0.279667 -0.069143 -0.0185267 0.871977)
(1.2015 -0.087728 0.0983517 0.00413184 0.954981 -0.266639 -0.0648753 -0.0302517 0.871977)
(1.20836 -0.0430502 0.143159 0.0488098 0.948118 -0.24551 -0.0586362 -0.0410572 0.871977)
(1.19953 0.00128053 0.183616 0.0931406 0.956951 -0.21692 -0.0506156 -0.0506154 0.871977)
(1.17607 0.0399168 0.218494 0.131777 0.980412 -0.18174 -0.0410572 -0.0586359 0.871977)
(1.14081 0.0681986 0.246734 0.160059 1.01567 -0.141038 -0.0302514 -0.0648747 0.871977)
(1.098 0.0827149 0.267476 0.174575 1.05848 -0.0960504 -0.0185264 -0.0691424 0.871977)
(1.05281 0.0817147 0.280092 0.173575 1.10367 -0.0481444 -0.00623859 -0.0713095 0.871977)
(1.01069 0.0653187 0.284197 0.157179 1.1458 0.0012245 0.00623884 -0.0713097 0.871977)
(0.97671 0.0355046 0.279667 0.127365 1.17977 0.0505562 0.0185267 -0.0691429 0.871977)
(0.954981 -0.00413184 0.266639 0.0877281 1.2015 0.0983517 0.0302517 -0.0648753 0.871977)
(0.948118 -0.0488098 0.24551 0.0430502 1.20836 0.143159 0.0410572 -0.0586362 0.871977)
(0.95695 -0.0931406 0.21692 -0.00128052 1.19953 0.183616 0.0506154 -0.0506156 0.871977)
(0.980412 -0.131777 0.18174 -0.0399168 1.17607 0.218494 0.0586358 -0.0410572 0.871977)
(1.01567 -0.160059 0.141038 -0.0681985 1.14081 0.246734 0.0648747 -0.0302514 0.871977)
(1.05848 -0.174575 0.0960504 -0.0827149 1.098 0.267476 0.0691424 -0.0185264 0.871977)
(1.10367 -0.173575 0.0481444 -0.0817147 1.05281 0.280092 0.0713095 -0.00623859 0.871977)
(1.1458 -0.157179 -0.00122451 -0.0653187 1.01069 0.284197 0.0713097 0.00623883 0.871977)
(1.17977 -0.127365 -0.0505562 -0.0355046 0.97671 0.279667 0.069143 0.0185267 0.871977)
(1.2015 -0.0877281 -0.0983517 0.00413184 0.954981 0.266639 0.0648753 0.0302516 0.871977)
(1.20836 -0.0430502 -0.143159 0.0488098 0.948118 0.24551 0.0586362 0.0410572 0.871977)
(1.19953 0.00128052 -0.183616 0.0931406 0.956951 0.21692 0.0506156 0.0506154 0.871977)
(1.17607 0.0399168 -0.218494 0.131777 0.980412 0.18174 0.0410572 0.0586358 0.871977)
(1.14081 0.0681985 -0.246734 0.160059 1.01567 0.141038 0.0302514 0.0648746 0.871977)
(1.098 0.0827149 -0.267476 0.174575 1.05848 0.0960504 0.0185264 0.0691424 0.871977)
(1.05281 0.0817147 -0.280092 0.173575 1.10367 0.0481444 0.00623859 0.0713095 0.871977)
(1.01069 0.0653187 -0.284197 0.157179 1.1458 -0.0012245 -0.00623883 0.0713097 0.871977)
(0.97671 0.0355045 -0.279667 0.127365 1.17977 -0.0505562 -0.0185267 0.069143 0.871977)
(0.954981 -0.00413185 -0.266639 0.087728 1.2015 -0.0983517 -0.0302517 0.0648753 0.871977)
(0.948118 -0.0488098 -0.24551 0.0430502 1.20836 -0.143159 -0.0410572 0.0586362 0.871977)
(0.956951 -0.0931406 -0.21692 -0.00128053 1.19953 -0.183616 -0.0506154 0.0506156 0.871977)
(0.980412 -0.131777 -0.18174 -0.0399168 1.17607 -0.218494 -0.0586359 0.0410572 0.871977)
(1.01567 -0.160059 -0.141038 -0.0681985 1.14081 -0.246734 -0.0648747 0.0302514 0.871977)
(1.05848 -0.174575 -0.0960505 -0.0827149 1.098 -0.267476 -0.0691424 0.0185264 0.871977)
(1.10367 -0.173575 -0.0481444 -0.0817147 1.05281 -0.280092 -0.0713095 0.00623859 0.871977)
(1.15975 -0.185447 0.0133766 -0.057241 0.994378 -0.284032 -0.0649517 -0.00568253 0.863429)
(1.19627 -0.149849 0.062495 -0.0216428 0.957862 -0.277394 -0.0629782 -0.0168749 0.863429)
(1.2184 -0.103908 0.109714 0.0242979 0.935724 -0.262328 -0.059091 -0.0275546 0.863429)
(1.22349 -0.0531664 0.1536 0.0750396 0.930634 -0.239291 -0.0534082 -0.0373968 0.863429)
(1.21092 -0.00374368 0.192819 0.124462 0.943205 -0.208983 -0.0461027 -0.0461027 0.863429)
(1.18221 0.0383987 0.226179 0.166605 0.971922 -0.172325 -0.0373966 -0.0534079 0.863429)
(1.14081 0.0681778 0.252667 0.196384 1.01332 -0.130432 -0.0275543 -0.0590904 0.863429)
(1.09172 0.0820018 0.271478 0.210208 1.06241 -0.0845749 -0.0168748 -0.0629777 0.863429)
(1.04087 0.0782036 0.28204 0.20641 1.11326 -0.0361483 -0.0056825 -0.0649516 0.863429)
(0.994378 0.057241 0.284032 0.185447 1.15975 0.0133766 0.00568253 -0.0649517 0.863429)
(0.957862 0.0216428 0.277394 0.149849 1.19627 0.062495 0.0168749 -0.0629782 0.863429)
(0.935724 -0.0242979 0.262328 0.103908 1.2184 0.109715 0.0275546 -0.059091 0.863429)
(0.930634 -0.0750396 0.239291 0.0531664 1.22349 0.1536 0.0373968 -0.0534082 0.863429)
(0.943205 -0.124462 0.208983 0.00374369 1.21092 0.192819 0.0461027 -0.0461027 0.863429)
(0.971922 -0.166605 0.172325 -0.0383987 1.18221 0.226179 0.0534079 -0.0373966 0.863429)
(1.01332 -0.196384 0.130432 -0.0681778 1.14081 0.252667 0.0590904 -0.0275543 0.863429)
(1.06241 -0.210208 0.0845748 -0.0820018 1.09172 0.271478 0.0629777 -0.0168748 0.863429)
(1.11326 -0.20641 0.0361482 -0.0782036 1.04087 0.28204 0.0649516 -0.0056825 0.863429)
(1.15975 -0.185447 -0.0133767 -0.057241 0.994378 0.284032 0.0649517 0.00568252 0.863429)
(1.19627 -0.149849 -0.0624951 -0.0216428 0.957862 0.277394 0.0629782 0.0168749 0.863429)
(1.2184 -0.103908 -0.109715 0.0242979 0.935724 0.262328 0.059091 0.0275545 0.863429)
(1.22349 -0.0531664 -0.1536 0.0750396 0.930634 0.239291 0.0534082 0.0373967 0.863429)
(1.21092 -0.00374369 -0.192819 0.124462 0.943205 0.208983 0.0461027 0.0461027 0.863429)
(1.18221 0.0383987 -0.226179 0.166605 0.971922 0.172325 0.0373966 0.0534079 0.863429)
(1.14081 0.0681778 -0.252667 0.196384 1.01332 0.130432 0.0275543 0.0590904 0.863429)
(1.09172 0.0820018 -0.271478 0.210208 1.06241 0.0845749 0.0168748 0.0629777 0.863429)
(1.04087 0.0782035 -0.28204 0.20641 1.11326 0.0361483 0.00568251 0.0649516 0.863429)
(0.994378 0.057241 -0.284032 0.185447 1.15975 -0.0133766 -0.00568252 0.0649517 0.863429)
(0.957862 0.0216428 -0.277394 0.149849 1.19627 -0.062495 -0.0168749 0.0629782 0.863429)
(0.935724 -0.0242979 -0.262328 0.103908 1.2184 -0.109715 -0.0275546 0.059091 0.863429)
(0.930634 -0.0750396 -0.239291 0.0531664 1.22349 -0.1536 -0.0373968 0.0534082 0.863429)
(0.943205 -0.124462 -0.208983 0.00374368 1.21092 -0.192819 -0.0461027 0.0461027 0.863429)
(0.971922 -0.166605 -0.172325 -0.0383987 1.18221 -0.226179 -0.0534079 0.0373966 0.863429)
(1.01332 -0.196384 -0.130432 -0.0681778 1.14081 -0.252667 -0.0590904 0.0275543 0.863429)
(1.06241 -0.210208 -0.0845749 -0.0820018 1.09172 -0.271478 -0.0629777 0.0168748 0.863429)
(1.11326 -0.20641 -0.0361483 -0.0782036 1.04087 -0.28204 -0.0649516 0.0056825 0.863429)
(1.15621 -0.189867 0.0133327 -0.060704 1.02141 -0.269233 -0.0866302 -0.00757937 0.861612)
(1.195 -0.159258 0.0598821 -0.030095 0.982622 -0.262828 -0.0839981 -0.0225072 0.861612)
(1.22098 -0.117229 0.104612 0.0119334 0.956645 -0.248437 -0.0788136 -0.0367512 0.861612)
(1.23101 -0.0688505 0.146163 0.0603119 0.946608 -0.226496 -0.0712344 -0.0498785 0.861612)
(1.2239 -0.0199571 0.183273 0.109206 0.953724 -0.197674 -0.0614907 -0.0614903 0.861612)