/*--------------------------------*- C++ -*----------------------------------*\
| =========                 |                                                 |
| \\      /  F ield         | OpenFOAM: The Open Source CFD Toolbox           |
|  \\    /   O peration     | Version:  2312                                  |
|   \\  /    A nd           | Website:  www.openfoam.com                      |
|    \\/     M anipulation  |                                                 |
\*---------------------------------------------------------------------------*/
FoamFile
{
    version     2.0;
    format      ascii;
    arch        "LSB;label=32;scalar=64";
    class       pointVectorField;
    location    "0.5";
    object      pointD;
}
// * * * * * * * * * * * * * * * * * * * * * * * * * * * * * * * * * * * * * //

dimensions      [0 1 0 0 0 0 0];

internalField   nonuniform List<vector> 
2164
(
(0 0 0)
(0 0 0)
(0 0 0)
(0 0 0)
(0 0 0)
(0 0 0)
(0 0 0)
(0 0 0)
(0 0 0)
(0 0 0)
(0 0 0)
(0 0 0)
(0 0 0)
(0 0 0)
(0 0 0)
(0 0 0)
(0 0 0)
(0 0 0)
(0 0 0)
(0 0 0)
(0 0 0)
(0 0 0)
(0 0 0)
(0 0 0)
(0 0 0)
(0 0 0)
(0 0 0)
(0 0 0)
(0 0 0)
(0 0 0)
(0 0 0)
(0 0 0)
(0 0 0)
(0 0 0)
(0 0 0)
(0 0 0)
(0.000149538 0.000527593 3.34397e-05)
(5.56505e-05 0.000545545 3.34399e-05)
(-3.99277e-05 0.000546921 3.34405e-05)
(-0.000134292 0.000531679 3.34409e-05)
(-0.000224577 0.000500282 3.34408e-05)
(-0.000308038 0.000453684 3.3441e-05)
(-0.00038214 0.000393301 3.3441e-05)
(-0.00044463 0.000320968 3.34403e-05)
(-0.000493611 0.000238882 3.34401e-05)
(-0.000527593 0.000149538 3.34397e-05)
(-0.000545545 5.56504e-05 3.34399e-05)
(-0.000546921 -3.99277e-05 3.34405e-05)
(-0.000531679 -0.000134292 3.34409e-05)
(-0.000500282 -0.000224577 3.34408e-05)
(-0.000453684 -0.000308038 3.3441e-05)
(-0.0003933 -0.00038214 3.3441e-05)
(-0.000320968 -0.00044463 3.34403e-05)
(-0.000238882 -0.000493611 3.34401e-05)
(-0.000149538 -0.000527593 3.34397e-05)
(-5.56504e-05 -0.000545545 3.34399e-05)
(3.99278e-05 -0.000546921 3.34405e-05)
(0.000134292 -0.000531679 3.34409e-05)
(0.000224577 -0.000500282 3.34408e-05)
(0.000308038 -0.000453684 3.3441e-05)
(0.00038214 -0.000393301 3.3441e-05)
(0.00044463 -0.000320968 3.34403e-05)
(0.000493611 -0.000238882 3.34402e-05)
(0.000527593 -0.000149538 3.34397e-05)
(0.000545545 -5.56504e-05 3.34399e-05)
(0.000546921 3.99277e-05 3.34405e-05)
(0.000531679 0.000134292 3.3441e-05)
(0.000500282 0.000224577 3.34408e-05)
(0.000453684 0.000308038 3.3441e-05)
(0.000393301 0.00038214 3.3441e-05)
(0.000320968 0.00044463 3.34403e-05)
(0.000238882 0.000493611 3.34402e-05)
(7.71514e-05 0.00057204 8.28225e-05)
(-2.33542e-05 0.000576747 8.28224e-05)
(-0.00012315 0.00056393 8.28228e-05)
(-0.000219204 0.000533978 8.28233e-05)
(-0.000308599 0.000487801 8.28232e-05)
(-0.000388616 0.000426802 8.2823e-05)
(-0.000456825 0.000352836 8.28229e-05)
(-0.000511155 0.000268148 8.28228e-05)
(-0.000549952 0.000175313 8.28225e-05)
(-0.00057204 7.71514e-05 8.28225e-05)
(-0.000576747 -2.33542e-05 8.28224e-05)
(-0.00056393 -0.00012315 8.28228e-05)
(-0.000533978 -0.000219204 8.28233e-05)
(-0.000487801 -0.000308599 8.28232e-05)
(-0.000426802 -0.000388616 8.2823e-05)
(-0.000352836 -0.000456825 8.28229e-05)
(-0.000268148 -0.000511155 8.28227e-05)
(-0.000175313 -0.000549953 8.28225e-05)
(-7.71513e-05 -0.00057204 8.28225e-05)
(2.33542e-05 -0.000576747 8.28224e-05)
(0.00012315 -0.00056393 8.28228e-05)
(0.000219204 -0.000533978 8.28233e-05)
(0.000308599 -0.000487801 8.28232e-05)
(0.000388616 -0.000426802 8.2823e-05)
(0.000456825 -0.000352836 8.28229e-05)
(0.000511155 -0.000268148 8.28228e-05)
(0.000549953 -0.000175313 8.28225e-05)
(0.00057204 -7.71514e-05 8.28225e-05)
(0.000576747 2.33542e-05 8.28224e-05)
(0.00056393 0.00012315 8.28228e-05)
(0.000533978 0.000219204 8.28233e-05)
(0.000487801 0.000308599 8.28233e-05)
(0.000426802 0.000388616 8.28231e-05)
(0.000352836 0.000456825 8.28229e-05)
(0.000268148 0.000511155 8.28228e-05)
(0.000175313 0.000549953 8.28225e-05)
(0 0 0)
(0 0 0)
(0 0 0)
(0 0 0)
(0 0 0)
(0 0 0)
(0 0 0)
(0 0 0)
(0 0 0)
(0 0 0)
(0 0 0)
(0 0 0)
(0 0 0)
(0 0 0)
(0 0 0)
(0 0 0)
(0 0 0)
(0 0 0)
(0 0 0)
(0 0 0)
(0 0 0)
(0 0 0)
(0 0 0)
(0 0 0)
(0 0 0)
(0 0 0)
(0 0 0)
(0 0 0)
(0 0 0)
(0 0 0)
(0 0 0)
(0 0 0)
(0 0 0)
(0 0 0)
(0 0 0)
(0 0 0)
(-1.02924e-05 0.000613283 0.000119629)
(-0.000116631 0.000602179 0.000119629)
(-0.000219427 0.000572777 0.000119629)
(-0.000315554 0.000525973 0.000119629)
(-0.000402094 0.000463187 0.000119629)
(-0.000476418 0.000386326 0.00011963)
(-0.000536264 0.000297729 0.000119629)
(-0.000579818 0.000200083 0.000119629)
(-0.000605753 9.63598e-05 0.000119629)
(-0.000613283 -1.02925e-05 0.000119629)
(-0.000602179 -0.000116631 0.000119629)
(-0.000572777 -0.000219427 0.000119629)
(-0.000525973 -0.000315554 0.000119629)
(-0.000463187 -0.000402094 0.000119629)
(-0.000386326 -0.000476418 0.00011963)
(-0.000297729 -0.000536264 0.000119629)
(-0.000200083 -0.000579818 0.000119629)
(-9.63597e-05 -0.000605753 0.000119629)
(1.02925e-05 -0.000613283 0.000119629)
(0.000116631 -0.000602179 0.000119629)
(0.000219427 -0.000572777 0.000119629)
(0.000315554 -0.000525973 0.000119629)
(0.000402094 -0.000463187 0.000119629)
(0.000476418 -0.000386326 0.00011963)
(0.000536264 -0.000297729 0.000119629)
(0.000579818 -0.000200083 0.000119629)
(0.000605753 -9.63598e-05 0.000119629)
(0.000613283 1.02925e-05 0.000119629)
(0.000602179 0.000116631 0.000119629)
(0.000572778 0.000219427 0.000119629)
(0.000525973 0.000315554 0.000119629)
(0.000463187 0.000402094 0.000119629)
(0.000386326 0.000476418 0.00011963)
(0.000297729 0.000536264 0.000119629)
(0.000200083 0.000579818 0.000119629)
(9.63598e-05 0.000605753 0.000119629)
(0 0 0)
(0 0 0)
(0 0 0)
(0 0 0)
(0 0 0)
(0 0 0)
(0 0 0)
(0 0 0)
(0 0 0)
(0 0 0)
(0 0 0)
(0 0 0)
(0 0 0)
(0 0 0)
(0 0 0)
(0 0 0)
(0 0 0)
(0 0 0)
(0 0 0)
(0 0 0)
(0 0 0)
(0 0 0)
(0 0 0)
(0 0 0)
(0 0 0)
(0 0 0)
(0 0 0)
(0 0 0)
(0 0 0)
(0 0 0)
(0 0 0)
(0 0 0)
(0 0 0)
(0 0 0)
(0 0 0)
(0 0 0)
(-0.000110822 0.000646159 0.000141634)
(-0.000221342 0.000617099 0.000141634)
(-0.000325138 0.000569288 0.000141634)
(-0.000419054 0.000504179 0.000141634)
(-0.000500237 0.000423752 0.000141634)
(-0.000566221 0.000330448 0.000141634)
(-0.000615001 0.000227105 0.000141633)
(-0.000645094 0.000116861 0.000141633)
(-0.000655586 3.06647e-06 0.000141633)
(-0.000646159 -0.000110822 0.000141634)
(-0.000617099 -0.000221342 0.000141634)
(-0.000569288 -0.000325138 0.000141634)
(-0.000504179 -0.000419054 0.000141634)
(-0.000423752 -0.000500237 0.000141634)
(-0.000330448 -0.000566221 0.000141634)
(-0.000227105 -0.000615001 0.000141633)
(-0.000116861 -0.000645094 0.000141633)
(-3.06644e-06 -0.000655586 0.000141633)
(0.000110822 -0.000646159 0.000141634)
(0.000221342 -0.000617099 0.000141634)
(0.000325138 -0.000569288 0.000141634)
(0.000419054 -0.000504179 0.000141634)
(0.000500237 -0.000423752 0.000141634)
(0.000566221 -0.000330448 0.000141634)
(0.000615001 -0.000227105 0.000141633)
(0.000645094 -0.000116861 0.000141633)
(0.000655586 -3.06646e-06 0.000141633)
(0.000646159 0.000110822 0.000141634)
(0.000617099 0.000221342 0.000141634)
(0.000569288 0.000325138 0.000141634)
(0.000504179 0.000419054 0.000141634)
(0.000423752 0.000500237 0.000141634)
(0.000330448 0.000566221 0.000141634)
(0.000227105 0.000615001 0.000141633)
(0.000116861 0.000645094 0.000141633)
(3.06649e-06 0.000655586 0.000141633)
(0 0 0)
(0 0 0)
(0 0 0)
(0 0 0)
(0 0 0)
(0 0 0)
(0 0 0)
(0 0 0)
(0 0 0)
(0 0 0)
(0 0 0)
(0 0 0)
(0 0 0)
(0 0 0)
(0 0 0)
(0 0 0)
(0 0 0)
(0 0 0)
(0 0 0)
(0 0 0)
(0 0 0)
(0 0 0)
(0 0 0)
(0 0 0)
(0 0 0)
(0 0 0)
(0 0 0)
(0 0 0)
(0 0 0)
(0 0 0)
(0 0 0)
(0 0 0)
(0 0 0)
(0 0 0)
(0 0 0)
(0 0 0)
(0.000201596 0.00108941 0.000183691)
(9.35997e-06 0.00110786 0.000183691)
(-0.000183161 0.00109266 0.000183692)
(-0.000370115 0.00104425 0.000183693)
(-0.000545825 0.000964117 0.000183693)
(-0.000704949 0.000854689 0.000183693)
(-0.000842655 0.000719291 0.000183692)
(-0.000954757 0.000562037 0.000183692)
(-0.00103785 0.000387706 0.000183691)
(-0.00108941 0.000201596 0.000183691)
(-0.00110786 9.35988e-06 0.000183691)
(-0.00109266 -0.000183161 0.000183692)
(-0.00104425 -0.000370115 0.000183693)
(-0.000964117 -0.000545825 0.000183693)
(-0.000854689 -0.000704949 0.000183693)
(-0.000719291 -0.000842655 0.000183692)
(-0.000562037 -0.000954757 0.000183692)
(-0.000387706 -0.00103785 0.000183691)
(-0.000201596 -0.00108941 0.000183691)
(-9.35982e-06 -0.00110786 0.000183691)
(0.000183161 -0.00109266 0.000183692)
(0.000370115 -0.00104425 0.000183693)
(0.000545825 -0.000964117 0.000183693)
(0.000704949 -0.000854689 0.000183693)
(0.000842655 -0.000719291 0.000183692)
(0.000954757 -0.000562037 0.000183692)
(0.00103785 -0.000387706 0.000183691)
(0.00108941 -0.000201596 0.000183691)
(0.00110786 -9.35989e-06 0.000183691)
(0.00109266 0.000183161 0.000183692)
(0.00104425 0.000370115 0.000183693)
(0.000964117 0.000545825 0.000183693)
(0.000854689 0.000704949 0.000183693)
(0.000719291 0.000842655 0.000183692)
(0.000562037 0.000954757 0.000183692)
(0.000387706 0.00103785 0.000183691)
(9.37568e-05 0.0011453 0.000254018)
(-0.000106547 0.00114418 0.000254018)
(-0.000303611 0.00110829 0.000254018)
(-0.000491452 0.00103873 0.000254019)
(-0.00066436 0.000937614 0.00025402)
(-0.000817081 0.000808005 0.000254019)
(-0.000944978 0.000653844 0.000254019)
(-0.00104416 0.000479816 0.000254018)
(-0.00111162 0.00029121 0.000254018)
(-0.0011453 9.37567e-05 0.000254018)
(-0.00114418 -0.000106547 0.000254018)
(-0.00110829 -0.000303611 0.000254018)
(-0.00103873 -0.000491452 0.000254019)
(-0.000937614 -0.00066436 0.00025402)
(-0.000808005 -0.000817081 0.000254019)
(-0.000653844 -0.000944978 0.000254019)
(-0.000479816 -0.00104416 0.000254018)
(-0.00029121 -0.00111162 0.000254018)
(-9.37566e-05 -0.0011453 0.000254018)
(0.000106547 -0.00114418 0.000254018)
(0.000303611 -0.00110829 0.000254018)
(0.000491452 -0.00103873 0.000254019)
(0.00066436 -0.000937614 0.00025402)
(0.000817081 -0.000808005 0.000254019)
(0.000944978 -0.000653844 0.000254019)
(0.00104416 -0.000479816 0.000254018)
(0.00111162 -0.00029121 0.000254018)
(0.0011453 -9.37567e-05 0.000254018)
(0.00114418 0.000106547 0.000254018)
(0.00110829 0.000303611 0.000254018)
(0.00103873 0.000491452 0.000254019)
(0.000937614 0.00066436 0.00025402)
(0.000808005 0.000817081 0.000254019)
(0.000653844 0.000944978 0.000254019)
(0.000479816 0.00104416 0.000254018)
(0.00029121 0.00111162 0.000254018)
(-3.03701e-05 0.00119682 0.000316933)
(-0.000237732 0.00117336 0.000316933)
(-0.000437872 0.00111425 0.000316934)
(-0.000624709 0.00102129 0.000316934)
(-0.000792564 0.000897294 0.000316934)
(-0.000936336 0.000746034 0.000316934)
(-0.00105166 0.000572107 0.000316933)
(-0.00113503 0.000380798 0.000316933)
(-0.00118391 0.000177917 0.000316933)
(-0.00119682 -3.03702e-05 0.000316933)
(-0.00117336 -0.000237732 0.000316933)
(-0.00111425 -0.000437873 0.000316934)
(-0.00102129 -0.000624709 0.000316934)
(-0.000897293 -0.000792564 0.000316934)
(-0.000746034 -0.000936336 0.000316934)
(-0.000572107 -0.00105166 0.000316933)
(-0.000380798 -0.00113503 0.000316933)
(-0.000177917 -0.00118391 0.000316933)
(3.03703e-05 -0.00119682 0.000316933)
(0.000237732 -0.00117336 0.000316933)
(0.000437873 -0.00111425 0.000316934)
(0.000624709 -0.00102129 0.000316934)
(0.000792564 -0.000897294 0.000316934)
(0.000936336 -0.000746034 0.000316934)
(0.00105166 -0.000572107 0.000316933)
(0.00113503 -0.000380798 0.000316933)
(0.00118391 -0.000177917 0.000316933)
(0.00119682 3.03702e-05 0.000316933)
(0.00117336 0.000237732 0.000316933)
(0.00111425 0.000437873 0.000316934)
(0.00102129 0.000624709 0.000316934)
(0.000897294 0.000792564 0.000316934)
(0.000746034 0.000936336 0.000316934)
(0.000572107 0.00105166 0.000316934)
(0.000380798 0.00113503 0.000316933)
(0.000177917 0.00118391 0.000316933)
(-0.000165805 0.00123492 0.000368695)
(-0.000377728 0.00118737 0.000368695)
(-0.000578172 0.00110374 0.000368694)
(-0.00076105 0.000986571 0.000368694)
(-0.000920804 0.000839427 0.000368694)
(-0.00105258 0.000666778 0.000368694)
(-0.00115237 0.00047387 0.000368694)
(-0.00121715 0.000266562 0.000368694)
(-0.00124495 5.11564e-05 0.000368694)
(-0.00123492 -0.000165806 0.000368695)
(-0.00118737 -0.000377728 0.000368695)
(-0.00110374 -0.000578172 0.000368694)
(-0.000986571 -0.00076105 0.000368694)
(-0.000839427 -0.000920804 0.000368694)
(-0.000666778 -0.00105258 0.000368694)
(-0.00047387 -0.00115237 0.000368694)
(-0.000266562 -0.00121715 0.000368694)
(-5.11564e-05 -0.00124495 0.000368694)
(0.000165806 -0.00123492 0.000368695)
(0.000377728 -0.00118737 0.000368695)
(0.000578172 -0.00110374 0.000368694)
(0.00076105 -0.000986571 0.000368694)
(0.000920804 -0.000839427 0.000368694)
(0.00105258 -0.000666778 0.000368694)
(0.00115237 -0.00047387 0.000368694)
(0.00121715 -0.000266562 0.000368694)
(0.00124495 -5.11564e-05 0.000368694)
(0.00123492 0.000165806 0.000368695)
(0.00118737 0.000377728 0.000368695)
(0.00110374 0.000578172 0.000368694)
(0.000986571 0.00076105 0.000368694)
(0.000839427 0.000920804 0.000368694)
(0.000666778 0.00105258 0.000368694)
(0.00047387 0.00115237 0.000368694)
(0.000266562 0.00121715 0.000368694)
(5.11565e-05 0.00124495 0.000368694)
(0.000191436 0.00165014 0.000418322)
(-9.80169e-05 0.00165832 0.000418323)
(-0.000384493 0.0016161 0.000418324)
(-0.000659283 0.00152478 0.000418325)
(-0.000914044 0.00138713 0.000418325)
(-0.00114103 0.00120734 0.000418325)
(-0.00133335 0.000990859 0.000418324)
(-0.00148515 0.000744272 0.000418323)
(-0.00159183 0.000475071 0.000418322)
(-0.00165014 0.000191436 0.000418322)
(-0.00165832 -9.8017e-05 0.000418322)
(-0.0016161 -0.000384493 0.000418324)
(-0.00152478 -0.000659284 0.000418325)
(-0.00138713 -0.000914044 0.000418325)
(-0.00120734 -0.00114103 0.000418325)
(-0.000990859 -0.00133335 0.000418324)
(-0.000744272 -0.00148515 0.000418323)
(-0.000475071 -0.00159183 0.000418322)
(-0.000191436 -0.00165014 0.000418322)
(9.80171e-05 -0.00165832 0.000418322)
(0.000384493 -0.0016161 0.000418324)
(0.000659284 -0.00152478 0.000418325)
(0.000914044 -0.00138713 0.000418325)
(0.00114103 -0.00120734 0.000418325)
(0.00133335 -0.000990859 0.000418325)
(0.00148515 -0.000744272 0.000418324)
(0.00159183 -0.000475071 0.000418323)
(0.00165014 -0.000191436 0.000418322)
(0.00165832 9.8017e-05 0.000418323)
(0.0016161 0.000384493 0.000418324)
(0.00152478 0.000659284 0.000418325)
(0.00138713 0.000914044 0.000418325)
(0.00120734 0.00114103 0.000418325)
(0.000990859 0.00133335 0.000418325)
(0.000744272 0.00148515 0.000418324)
(0.000475071 0.00159183 0.000418323)
(5.76891e-05 0.00169558 0.000498391)
(-0.000237622 0.00167984 0.000498391)
(-0.000525713 0.00161306 0.000498391)
(-0.000797831 0.00149726 0.000498392)
(-0.00104571 0.00133597 0.000498392)
(-0.00126181 0.00113409 0.000498392)
(-0.00143957 0.000897752 0.000498392)
(-0.00157359 0.000634134 0.000498392)
(-0.00165981 0.000351247 0.000498392)
(-0.00169558 5.7689e-05 0.000498391)
(-0.00167984 -0.000237622 0.000498391)
(-0.00161306 -0.000525713 0.000498391)
(-0.00149726 -0.000797831 0.000498392)
(-0.00133597 -0.00104571 0.000498392)
(-0.00113409 -0.00126181 0.000498392)
(-0.000897752 -0.00143957 0.000498392)
(-0.000634134 -0.00157359 0.000498392)
(-0.000351247 -0.00165981 0.000498391)
(-5.76889e-05 -0.00169558 0.000498391)
(0.000237623 -0.00167984 0.000498391)
(0.000525713 -0.00161306 0.000498391)
(0.000797831 -0.00149726 0.000498392)
(0.00104571 -0.00133597 0.000498392)
(0.00126181 -0.00113409 0.000498392)
(0.00143957 -0.000897752 0.000498393)
(0.00157359 -0.000634134 0.000498392)
(0.00165981 -0.000351247 0.000498392)
(0.00169558 -5.7689e-05 0.000498391)
(0.00167984 0.000237622 0.000498391)
(0.00161306 0.000525713 0.000498391)
(0.00149726 0.000797831 0.000498392)
(0.00133597 0.00104571 0.000498392)
(0.00113409 0.00126181 0.000498392)
(0.000897752 0.00143957 0.000498393)
(0.000634134 0.00157359 0.000498392)
(0.000351247 0.00165981 0.000498392)
(-9.06279e-05 0.00173651 0.000571549)
(-0.000390793 0.00169439 0.000571549)
(-0.000679082 0.00160079 0.00057155)
(-0.000946739 0.00145855 0.00057155)
(-0.00118563 0.00127199 0.00057155)
(-0.0013885 0.00104678 0.00057155)
(-0.00154917 0.000789768 0.00057155)
(-0.00166278 0.000508757 0.00057155)
(-0.00172586 0.00021229 0.000571549)
(-0.00173651 -9.0628e-05 0.000571549)
(-0.00169439 -0.000390793 0.000571549)
(-0.00160079 -0.000679083 0.000571549)
(-0.00145855 -0.000946739 0.000571549)
(-0.00127199 -0.00118563 0.00057155)
(-0.00104678 -0.0013885 0.00057155)
(-0.000789768 -0.00154917 0.00057155)
(-0.000508757 -0.00166278 0.00057155)
(-0.00021229 -0.00172586 0.000571549)
(9.06281e-05 -0.00173651 0.000571549)
(0.000390793 -0.00169439 0.000571549)
(0.000679083 -0.00160079 0.000571549)
(0.000946739 -0.00145855 0.000571549)
(0.00118563 -0.00127199 0.00057155)
(0.0013885 -0.00104678 0.00057155)
(0.00154917 -0.000789768 0.00057155)
(0.00166278 -0.000508757 0.00057155)
(0.00172586 -0.00021229 0.000571549)
(0.00173651 9.0628e-05 0.000571549)
(0.00169439 0.000390793 0.000571549)
(0.00160079 0.000679082 0.00057155)
(0.00145855 0.000946739 0.00057155)
(0.00127199 0.00118563 0.00057155)
(0.00104678 0.0013885 0.00057155)
(0.000789768 0.00154917 0.00057155)
(0.000508757 0.00166278 0.00057155)
(0.00021229 0.00172586 0.000571549)
(-0.00024686 0.00176248 0.000634548)
(-0.00054916 0.00169284 0.000634548)
(-0.000834776 0.00157176 0.000634548)
(-0.00109503 0.00140292 0.000634548)
(-0.00132201 0.00119146 0.000634548)
(-0.00150882 0.000943796 0.000634548)
(-0.00164978 0.000667454 0.000634547)
(-0.00174062 0.000370833 0.000634548)
(-0.00177857 6.29416e-05 0.000634548)
(-0.00176248 -0.000246861 0.000634548)
(-0.00169284 -0.00054916 0.000634548)
(-0.00157176 -0.000834776 0.000634548)
(-0.00140292 -0.00109503 0.000634548)
(-0.00119146 -0.00132201 0.000634548)
(-0.000943795 -0.00150882 0.000634548)
(-0.000667454 -0.00164978 0.000634547)
(-0.000370833 -0.00174062 0.000634548)
(-6.29415e-05 -0.00177857 0.000634548)
(0.000246861 -0.00176248 0.000634548)
(0.00054916 -0.00169284 0.000634548)
(0.000834776 -0.00157176 0.000634548)
(0.00109503 -0.00140292 0.000634548)
(0.00132201 -0.00119146 0.000634548)
(0.00150882 -0.000943796 0.000634548)
(0.00164978 -0.000667454 0.000634547)
(0.00174062 -0.000370833 0.000634548)
(0.00177857 -6.29416e-05 0.000634548)
(0.00176248 0.000246861 0.000634548)
(0.00169284 0.00054916 0.000634548)
(0.00157176 0.000834776 0.000634548)
(0.00140292 0.00109503 0.000634548)
(0.00119146 0.00132201 0.000634548)
(0.000943796 0.00150882 0.000634548)
(0.000667454 0.00164978 0.000634547)
(0.000370833 0.00174062 0.000634548)
(6.29417e-05 0.00177857 0.000634548)
(0.000109396 0.00218913 0.000695923)
(-0.000272408 0.00217487 0.000695923)
(-0.00064593 0.00209453 0.000695924)
(-0.000999826 0.00195054 0.000695924)
(-0.00132334 0.00174729 0.000695925)
(-0.00160665 0.00149095 0.000695925)
(-0.00184114 0.0011893 0.000695925)
(-0.00201969 0.000851524 0.000695924)
(-0.00213688 0.000487871 0.000695924)
(-0.00218913 0.000109396 0.000695923)
(-0.00217487 -0.000272408 0.000695923)
(-0.00209452 -0.00064593 0.000695924)
(-0.00195054 -0.000999826 0.000695924)
(-0.00174729 -0.00132334 0.000695925)
(-0.00149095 -0.00160665 0.000695925)
(-0.0011893 -0.00184114 0.000695925)
(-0.000851523 -0.00201969 0.000695924)
(-0.00048787 -0.00213688 0.000695924)
(-0.000109395 -0.00218913 0.000695923)
(0.000272408 -0.00217487 0.000695923)
(0.00064593 -0.00209453 0.000695924)
(0.000999826 -0.00195054 0.000695924)
(0.00132334 -0.00174729 0.000695925)
(0.00160665 -0.00149095 0.000695925)
(0.00184114 -0.0011893 0.000695925)
(0.00201969 -0.000851524 0.000695924)
(0.00213688 -0.000487871 0.000695924)
(0.00218913 -0.000109396 0.000695923)
(0.00217487 0.000272408 0.000695924)
(0.00209453 0.00064593 0.000695924)
(0.00195054 0.000999826 0.000695924)
(0.00174729 0.00132334 0.000695925)
(0.00149095 0.00160665 0.000695925)
(0.0011893 0.00184114 0.000695925)
(0.000851524 0.00201969 0.000695924)
(0.000487871 0.00213688 0.000695924)
(-3.34447e-05 0.00220572 0.000775716)
(-0.000415956 0.00216641 0.000775716)
(-0.000785829 0.00206126 0.000775716)
(-0.00113182 0.00189349 0.000775716)
(-0.00144343 0.00166818 0.000775717)
(-0.00171118 0.00139219 0.000775717)
(-0.00192693 0.0010739 0.000775717)
(-0.00208414 0.000722973 0.000775717)
(-0.00217802 0.000350083 0.000775716)
(-0.00220572 -3.34449e-05 0.000775716)
(-0.00216641 -0.000415956 0.000775715)
(-0.00206126 -0.000785829 0.000775716)
(-0.00189349 -0.00113182 0.000775716)
(-0.00166818 -0.00144343 0.000775717)
(-0.00139219 -0.00171118 0.000775717)
(-0.0010739 -0.00192693 0.000775717)
(-0.000722973 -0.00208414 0.000775717)
(-0.000350083 -0.00217802 0.000775716)
(3.3445e-05 -0.00220572 0.000775716)
(0.000415957 -0.00216641 0.000775715)
(0.000785829 -0.00206126 0.000775716)
(0.00113182 -0.00189349 0.000775716)
(0.00144343 -0.00166818 0.000775717)
(0.00171118 -0.00139219 0.000775717)
(0.00192693 -0.0010739 0.000775717)
(0.00208414 -0.000722973 0.000775717)
(0.00217802 -0.000350083 0.000775716)
(0.00220572 3.34449e-05 0.000775716)
(0.00216641 0.000415956 0.000775716)
(0.00206126 0.000785829 0.000775716)
(0.00189349 0.00113182 0.000775716)
(0.00166818 0.00144343 0.000775717)
(0.00139219 0.00171118 0.000775717)
(0.0010739 0.00192693 0.000775717)
(0.000722974 0.00208414 0.000775717)
(0.000350083 0.00217802 0.000775716)
(-0.000188502 0.00221847 0.000848541)
(-0.00057087 0.00215203 0.000848541)
(-0.000935894 0.0020202 0.000848542)
(-0.00127248 0.001827 0.000848542)
(-0.0015704 0.00157828 0.000848542)
(-0.00182061 0.0012816 0.000848542)
(-0.0020155 0.000945986 0.000848542)
(-0.00214915 0.000581628 0.000848541)
(-0.00221749 0.000199594 0.000848542)
(-0.00221847 -0.000188502 0.000848541)
(-0.00215203 -0.00057087 0.000848541)
(-0.0020202 -0.000935894 0.000848541)
(-0.001827 -0.00127248 0.000848542)
(-0.00157828 -0.0015704 0.000848542)
(-0.0012816 -0.00182061 0.000848542)
(-0.000945986 -0.0020155 0.000848542)
(-0.000581628 -0.00214915 0.000848541)
(-0.000199594 -0.00221749 0.000848542)
(0.000188502 -0.00221847 0.000848541)
(0.00057087 -0.00215203 0.000848541)
(0.000935894 -0.0020202 0.000848541)
(0.00127248 -0.001827 0.000848542)
(0.0015704 -0.00157828 0.000848542)
(0.00182061 -0.0012816 0.000848542)
(0.0020155 -0.000945986 0.000848542)
(0.00214915 -0.000581628 0.000848542)
(0.00221749 -0.000199594 0.000848542)
(0.00221847 0.000188502 0.000848541)
(0.00215203 0.00057087 0.000848541)
(0.0020202 0.000935894 0.000848542)
(0.001827 0.00127248 0.000848542)
(0.00157828 0.0015704 0.000848542)
(0.0012816 0.00182061 0.000848542)
(0.000945986 0.0020155 0.000848542)
(0.000581628 0.00214915 0.000848542)
(0.000199595 0.00221749 0.000848542)
(-0.000349518 0.00221647 0.000911608)
(-0.000729095 0.00212211 0.000911609)
(-0.00108652 0.00196326 0.000911608)
(-0.00141093 0.00174476 0.000911608)
(-0.00169247 0.00147325 0.000911608)
(-0.00192258 0.00115697 0.000911608)
(-0.00209428 0.000805544 0.000911609)
(-0.00220234 0.000429639 0.000911608)
(-0.00224349 4.06778e-05 0.000911609)
(-0.00221647 -0.000349518 0.000911608)
(-0.00212211 -0.000729095 0.000911609)
(-0.00196326 -0.00108652 0.000911608)
(-0.00174476 -0.00141093 0.000911608)
(-0.00147325 -0.00169247 0.000911608)
(-0.00115697 -0.00192258 0.000911608)
(-0.000805544 -0.00209428 0.000911608)
(-0.000429639 -0.00220234 0.000911608)
(-4.06776e-05 -0.00224349 0.000911609)
(0.000349518 -0.00221647 0.000911608)
(0.000729095 -0.00212211 0.000911609)
(0.00108652 -0.00196326 0.000911608)
(0.00141093 -0.00174476 0.000911608)
(0.00169247 -0.00147325 0.000911608)
(0.00192258 -0.00115697 0.000911608)
(0.00209428 -0.000805544 0.000911609)
(0.00220234 -0.000429639 0.000911608)
(0.00224349 -4.06777e-05 0.000911609)
(0.00221647 0.000349518 0.000911608)
(0.00212211 0.000729095 0.000911609)
(0.00196326 0.00108652 0.000911608)
(0.00174476 0.00141093 0.000911608)
(0.00147325 0.00169247 0.000911608)
(0.00115697 0.00192258 0.000911608)
(0.000805544 0.00209428 0.000911609)
(0.000429639 0.00220234 0.000911608)
(4.06779e-05 0.00224349 0.000911609)
(-2.78069e-05 0.0026837 0.00100083)
(-0.000493405 0.0026381 0.00100083)
(-0.000944009 0.00251235 0.00100083)
(-0.00136593 0.00231025 0.00100084)
(-0.00174635 0.00203796 0.00100084)
(-0.00207371 0.00170375 0.00100084)
(-0.00233806 0.00131777 0.00100084)
(-0.00253137 0.000891749 0.00100084)
(-0.00264776 0.000438635 0.00100084)
(-0.0026837 -2.78071e-05 0.00100083)
(-0.0026381 -0.000493406 0.00100083)
(-0.00251235 -0.00094401 0.00100083)
(-0.00231025 -0.00136593 0.00100084)
(-0.00203796 -0.00174635 0.00100084)
(-0.00170375 -0.00207371 0.00100084)
(-0.00131777 -0.00233806 0.00100084)
(-0.000891749 -0.00253137 0.00100084)
(-0.000438635 -0.00264776 0.00100084)
(2.78073e-05 -0.0026837 0.00100083)
(0.000493406 -0.0026381 0.00100083)
(0.00094401 -0.00251235 0.00100083)
(0.00136593 -0.00231025 0.00100084)
(0.00174635 -0.00203796 0.00100084)
(0.00207371 -0.00170375 0.00100084)
(0.00233806 -0.00131777 0.00100084)
(0.00253137 -0.000891749 0.00100084)
(0.00264776 -0.000438635 0.00100084)
(0.0026837 2.78071e-05 0.00100083)
(0.0026381 0.000493406 0.00100083)
(0.00251235 0.00094401 0.00100083)
(0.00231025 0.00136593 0.00100084)
(0.00203796 0.00174635 0.00100084)
(0.00170375 0.00207371 0.00100084)
(0.00131777 0.00233806 0.00100084)
(0.00089175 0.00253137 0.00100084)
(0.000438635 0.00264776 0.00100084)
(-0.000167928 0.00265797 0.0010727)
(-0.000626927 0.00258843 0.0010727)
(-0.00106688 0.00244024 0.0010727)
(-0.00147441 0.0022179 0.0010727)
(-0.00183715 0.00192818 0.0010727)
(-0.00214406 0.00157987 0.0010727)
(-0.00238583 0.00118356 0.0010727)
(-0.00255511 0.000751279 0.0010727)
(-0.00264675 0.000296174 0.0010727)
(-0.00265797 -0.000167928 0.0010727)
(-0.00258843 -0.000626927 0.0010727)
(-0.00244024 -0.00106688 0.0010727)
(-0.0022179 -0.00147441 0.0010727)
(-0.00192818 -0.00183715 0.0010727)
(-0.00157987 -0.00214406 0.0010727)
(-0.00118355 -0.00238583 0.0010727)
(-0.000751279 -0.00255511 0.0010727)
(-0.000296174 -0.00264675 0.0010727)
(0.000167929 -0.00265797 0.0010727)
(0.000626928 -0.00258843 0.0010727)
(0.00106688 -0.00244024 0.0010727)
(0.00147441 -0.0022179 0.0010727)
(0.00183715 -0.00192818 0.0010727)
(0.00214406 -0.00157987 0.0010727)
(0.00238583 -0.00118356 0.0010727)
(0.00255511 -0.000751279 0.0010727)
(0.00264675 -0.000296174 0.0010727)
(0.00265797 0.000167928 0.0010727)
(0.00258843 0.000626927 0.0010727)
(0.00244024 0.00106688 0.0010727)
(0.0022179 0.00147441 0.0010727)
(0.00192818 0.00183715 0.0010727)
(0.00157987 0.00214406 0.0010727)
(0.00118356 0.00238583 0.0010727)
(0.000751279 0.00255511 0.0010727)
(0.000296175 0.00264675 0.0010727)
(-0.000318089 0.00262981 0.00113737)
(-0.000769917 0.00253462 0.00113737)
(-0.00119835 0.00236242 0.00113737)
(-0.00159038 0.00211844 0.00113737)
(-0.00193408 0.00181009 0.00113737)
(-0.00221901 0.00144674 0.00113737)
(-0.00243653 0.00103943 0.00113737)
(-0.00258001 0.000600544 0.00113737)
(-0.00264509 0.000143405 0.00113737)
(-0.00262981 -0.00031809 0.00113737)
(-0.00253462 -0.000769917 0.00113737)
(-0.00236242 -0.00119835 0.00113737)
(-0.00211844 -0.00159038 0.00113737)
(-0.00181009 -0.00193408 0.00113737)
(-0.00144674 -0.00221901 0.00113737)
(-0.00103943 -0.00243653 0.00113737)
(-0.000600544 -0.00258001 0.00113737)
(-0.000143405 -0.00264509 0.00113737)
(0.00031809 -0.00262981 0.00113737)
(0.000769917 -0.00253462 0.00113737)
(0.00119835 -0.00236242 0.00113737)
(0.00159038 -0.00211844 0.00113737)
(0.00193408 -0.00181009 0.00113737)
(0.00221901 -0.00144674 0.00113737)
(0.00243653 -0.00103943 0.00113737)
(0.00258001 -0.000600544 0.00113737)
(0.00264509 -0.000143405 0.00113737)
(0.00262981 0.00031809 0.00113737)
(0.00253462 0.000769917 0.00113737)
(0.00236242 0.00119835 0.00113737)
(0.00211844 0.00159038 0.00113737)
(0.00181009 0.00193408 0.00113737)
(0.00144674 0.00221901 0.00113737)
(0.00103943 0.00243653 0.00113737)
(0.000600544 0.00258001 0.00113737)
(0.000143406 0.00264509 0.00113737)
(-0.000472472 0.00258816 0.00119236)
(-0.000914725 0.0024668 0.00119236)
(-0.00132918 0.00227048 0.00119236)
(-0.00170325 0.00200518 0.00119236)
(-0.00202557 0.00167895 0.00119236)
(-0.00228635 0.00130171 0.00119236)
(-0.00247765 0.00088491 0.00119236)
(-0.00259367 0.000441225 0.00119236)
(-0.00263089 -1.58653e-05 0.00119236)
(-0.00258816 -0.000472472 0.00119236)
(-0.0024668 -0.000914726 0.00119236)
(-0.00227048 -0.00132919 0.00119236)
(-0.00200518 -0.00170325 0.00119236)
(-0.00167895 -0.00202557 0.00119236)
(-0.00130171 -0.00228635 0.00119236)
(-0.00088491 -0.00247765 0.00119236)
(-0.000441225 -0.00259367 0.00119236)
(1.58655e-05 -0.00263089 0.00119236)
(0.000472472 -0.00258816 0.00119236)
(0.000914726 -0.0024668 0.00119236)
(0.00132919 -0.00227048 0.00119236)
(0.00170325 -0.00200518 0.00119236)
(0.00202557 -0.00167895 0.00119236)
(0.00228635 -0.00130171 0.00119236)
(0.00247765 -0.00088491 0.00119236)
(0.00259367 -0.000441225 0.00119236)
(0.00263089 1.58654e-05 0.00119236)
(0.00258816 0.000472472 0.00119236)
(0.0024668 0.000914726 0.00119236)
(0.00227048 0.00132919 0.00119236)
(0.00200518 0.00170325 0.00119236)
(0.00167895 0.00202557 0.00119236)
(0.00130171 0.00228635 0.00119236)
(0.00088491 0.00247765 0.00119236)
(0.000441225 0.00259367 0.00119236)
(-1.58652e-05 0.00263089 0.00119236)
(-0.000198538 0.0031128 0.00132613)
(-0.000736054 0.00303103 0.00132613)
(-0.0012512 0.00285717 0.00132613)
(-0.00172834 0.00259649 0.00132613)
(-0.00215295 0.00225692 0.00132613)
(-0.00251216 0.00184878 0.00132613)
(-0.00279503 0.00138446 0.00132613)
(-0.00299297 0.000878074 0.00132613)
(-0.00309998 0.000345009 0.00132613)
(-0.0031128 -0.000198538 0.00132613)
(-0.00303103 -0.000736054 0.00132613)
(-0.00285717 -0.0012512 0.00132613)
(-0.00259649 -0.00172834 0.00132613)
(-0.00225692 -0.00215295 0.00132613)
(-0.00184878 -0.00251216 0.00132613)
(-0.00138446 -0.00279503 0.00132613)
(-0.000878073 -0.00299297 0.00132613)
(-0.000345008 -0.00309998 0.00132613)
(0.000198538 -0.0031128 0.00132613)
(0.000736054 -0.00303103 0.00132613)
(0.0012512 -0.00285717 0.00132613)
(0.00172834 -0.00259649 0.00132613)
(0.00215295 -0.00225692 0.00132613)
(0.00251216 -0.00184878 0.00132613)