/*--------------------------------*- C++ -*----------------------------------*\
| =========                 |                                                 |
| \\      /  F ield         | OpenFOAM: The Open Source CFD Toolbox           |
|  \\    /   O peration     | Version:  2312                                  |
|   \\  /    A nd           | Website:  www.openfoam.com                      |
|    \\/     M anipulation  |                                                 |
\*---------------------------------------------------------------------------*/
FoamFile
{
    version     2.0;
    format      ascii;
    arch        "LSB;label=32;scalar=64";
    class       volScalarField;
    location    "0.5";
    object      sigmaHyd;
}
// * * * * * * * * * * * * * * * * * * * * * * * * * * * * * * * * * * * * * //

dimensions      [1 -1 -2 0 0 0 0];

internalField   nonuniform List<scalar> 
1620
(
-8959.08
-8959.04
-8959.04
-8959.18
-8959.2
-8959.15
-8959.13
-8959.12
-8959.09
-8959.08
-8959.04
-8959.04
-8959.18
-8959.19
-8959.15
-8959.12
-8959.12
-8959.09
-8959.08
-8959.04
-8959.04
-8959.18
-8959.2
-8959.15
-8959.13
-8959.12
-8959.1
-8959.08
-8959.04
-8959.04
-8959.18
-8959.2
-8959.15
-8959.13
-8959.12
-8959.1
-16391.3
-16391.3
-16391.2
-16391.3
-16391.3
-16391.3
-16391.2
-16391.3
-16391.3
-16391.3
-16391.3
-16391.2
-16391.3
-16391.3
-16391.3
-16391.2
-16391.3
-16391.3
-16391.3
-16391.3
-16391.2
-16391.3
-16391.3
-16391.3
-16391.2
-16391.3
-16391.3
-16391.3
-16391.3
-16391.2
-16391.3
-16391.3
-16391.3
-16391.2
-16391.3
-16391.3
-35401.2
-35401.3
-35401.4
-35401.3
-35401.3
-35401.2
-35401.3
-35401.3
-35401.3
-35401.2
-35401.3
-35401.4
-35401.3
-35401.3
-35401.2
-35401.3
-35401.3
-35401.3
-35401.2
-35401.3
-35401.4
-35401.3
-35401.3
-35401.2
-35401.3
-35401.3
-35401.3
-35401.2
-35401.3
-35401.4
-35401.3
-35401.3
-35401.2
-35401.3
-35401.3
-35401.3
4043.1
4043.04
4043.14
4043.13
4043.18
4043.18
4043
4043.07
4043.13
4043.1
4043.04
4043.14
4043.13
4043.18
4043.18
4043
4043.07
4043.13
4043.1
4043.04
4043.14
4043.13
4043.18
4043.18
4043
4043.07
4043.13
4043.1
4043.04
4043.14
4043.13
4043.18
4043.18
4043
4043.07
4043.13
-2578.65
-2578.58
-2578.69
-2578.7
-2578.71
-2578.81
-2578.6
-2578.62
-2578.65
-2578.65
-2578.58
-2578.69
-2578.7
-2578.71
-2578.81
-2578.6
-2578.62
-2578.65
-2578.65
-2578.58
-2578.69
-2578.7
-2578.71
-2578.81
-2578.6
-2578.62
-2578.65
-2578.65
-2578.58
-2578.69
-2578.7
-2578.71
-2578.81
-2578.6
-2578.62
-2578.65
-18994.8
-18994.8
-18994.8
-18994.7
-18994.6
-18994.5
-18994.7
-18994.7
-18994.8
-18994.8
-18994.8
-18994.8
-18994.7
-18994.6
-18994.5
-18994.7
-18994.7
-18994.8
-18994.8
-18994.8
-18994.8
-18994.7
-18994.6
-18994.5
-18994.7
-18994.7
-18994.8
-18994.8
-18994.8
-18994.8
-18994.7
-18994.6
-18994.5
-18994.7
-18994.7
-18994.8
2441.34
2441.28
2441.33
2441.28
2441.37
2441.38
2441.23
2441.35
2441.23
2441.34
2441.28
2441.33
2441.28
2441.37
2441.38
2441.23
2441.35
2441.23
2441.34
2441.28
2441.33
2441.28
2441.37
2441.38
2441.23
2441.35
2441.23
2441.34
2441.28
2441.33
2441.28
2441.37
2441.38
2441.23
2441.35
2441.23
-4307.52
-4307.49
-4307.52
-4307.39
-4307.41
-4307.52
-4307.43
-4307.61
-4307.44
-4307.52
-4307.49
-4307.52
-4307.39
-4307.41
-4307.52
-4307.43
-4307.61
-4307.44
-4307.52
-4307.49
-4307.52
-4307.39
-4307.41
-4307.52
-4307.43
-4307.61
-4307.44
-4307.52
-4307.49
-4307.52
-4307.39
-4307.41
-4307.52
-4307.43
-4307.61
-4307.44
-18020.4
-18020.4
-18020.3
-18020.4
-18020.5
-18020.5
-18020.5
-18020.3
-18020.4
-18020.4
-18020.4
-18020.3
-18020.4
-18020.5
-18020.5
-18020.5
-18020.3
-18020.4
-18020.4
-18020.4
-18020.3
-18020.4
-18020.5
-18020.5
-18020.5
-18020.3
-18020.4
-18020.4
-18020.4
-18020.3
-18020.4
-18020.5
-18020.5
-18020.5
-18020.3
-18020.4
2000.1
2000.09
2000.05
2000.11
2000.13
2000.11
2000.18
2000.04
2000.12
2000.1
2000.09
2000.05
2000.11
2000.13
2000.11
2000.18
2000.04
2000.12
2000.1
2000.09
2000.05
2000.11
2000.13
2000.11
2000.18
2000.04
2000.12
2000.1
2000.09
2000.05
2000.11
2000.13
2000.11
2000.18
2000.04
2000.12
-4342.17
-4342.17
-4342.2
-4342.13
-4342.21
-4342.15
-4342.2
-4342.16
-4342.18
-4342.17
-4342.17
-4342.2
-4342.13
-4342.21
-4342.15
-4342.2
-4342.16
-4342.18
-4342.17
-4342.17
-4342.2
-4342.13
-4342.21
-4342.15
-4342.2
-4342.16
-4342.18
-4342.17
-4342.17
-4342.2
-4342.13
-4342.21
-4342.15
-4342.2
-4342.16
-4342.18
-16729.5
-16729.5
-16729.5
-16729.5
-16729.5
-16729.5
-16729.6
-16729.5
-16729.5
-16729.5
-16729.5
-16729.5
-16729.5
-16729.5
-16729.5
-16729.6
-16729.5
-16729.5
-16729.5
-16729.5
-16729.5
-16729.5
-16729.5
-16729.5
-16729.6
-16729.5
-16729.5
-16729.5
-16729.5
-16729.5
-16729.5
-16729.5
-16729.5
-16729.6
-16729.5
-16729.5
1231.85
1231.95
1231.8
1231.88
1231.83
1231.85
1231.99
1231.8
1231.87
1231.85
1231.95
1231.8
1231.88
1231.83
1231.85
1231.99
1231.8
1231.87
1231.85
1231.95
1231.8
1231.88
1231.83
1231.85
1231.99
1231.8
1231.87
1231.85
1231.95
1231.8
1231.88
1231.83
1231.85
1231.99
1231.8
1231.87
-4632.69
-4632.84
-4632.7
-4632.8
-4632.77
-4632.72
-4632.82
-4632.69
-4632.75
-4632.69
-4632.84
-4632.7
-4632.8
-4632.77
-4632.71
-4632.82
-4632.69
-4632.75
-4632.69
-4632.84
-4632.7
-4632.8
-4632.77
-4632.71
-4632.82
-4632.69
-4632.75
-4632.69
-4632.84
-4632.7
-4632.8
-4632.77
-4632.72
-4632.82
-4632.69
-4632.75
-15863.1
-15862.9
-15863
-15863
-15863
-15863
-15863
-15863.1
-15863
-15863.1
-15862.9
-15863
-15863
-15863
-15863
-15863
-15863.1
-15863
-15863.1
-15862.9
-15863
-15863
-15863
-15863
-15863
-15863.1
-15863
-15863.1
-15862.9
-15863
-15863
-15863
-15863
-15863
-15863.1
-15863
373.124
373.194
373.103
373.184
373.127
373.128
373.16
373.066
373.168
373.124
373.193
373.103
373.184
373.128
373.128
373.16
373.066
373.168
373.125
373.194
373.104
373.184
373.128
373.129
373.161
373.066
373.168
373.125
373.194
373.104
373.184
373.128
373.129
373.16
373.066
373.168
-4930.05
-4930.18
-4930.07
-4930.11
-4930.1
-4930.11
-4930.12
-4930
-4930.15
-4930.05
-4930.18
-4930.07
-4930.11
-4930.1
-4930.11
-4930.12
-4930
-4930.15
-4930.05
-4930.18
-4930.07
-4930.11
-4930.1
-4930.11
-4930.12
-4930
-4930.15
-4930.05
-4930.18
-4930.07
-4930.11
-4930.1
-4930.11
-4930.12
-4930
-4930.15
-14931
-14930.9
-14931
-14931
-14931
-14931.1
-14931
-14931.1
-14931
-14931
-14930.9
-14931
-14931
-14931
-14931.1
-14931
-14931.1
-14931
-14931
-14930.9
-14931
-14931
-14931
-14931.1
-14931
-14931.1
-14931
-14931
-14930.9
-14931
-14931
-14931
-14931.1
-14931
-14931.1
-14931
-730.949
-730.893
-731.068
-730.839
-730.958
-731.071
-730.904
-731.052
-730.962
-730.95
-730.893
-731.068
-730.839
-730.958
-731.071
-730.904
-731.052
-730.961
-730.949
-730.893
-731.067
-730.839
-730.957
-731.071
-730.904
-731.051
-730.961
-730.949
-730.892
-731.067
-730.839
-730.957
-731.071
-730.904
-731.052
-730.962
-5274.92
-5275.14
-5274.96
-5275.11
-5275.03
-5274.91
-5275.08
-5274.94
-5275.11
-5274.92
-5275.14
-5274.96
-5275.11
-5275.03
-5274.91
-5275.08
-5274.94
-5275.11
-5274.92
-5275.13
-5274.96
-5275.11
-5275.03
-5274.91
-5275.08
-5274.94
-5275.11
-5274.92
-5275.14
-5274.96
-5275.11
-5275.03
-5274.91
-5275.08
-5274.94
-5275.11
-13775.3
-13775.1
-13775.3
-13775.2
-13775.2
-13775.3
-13775.2
-13775.3
-13775.1
-13775.3
-13775.1
-13775.3
-13775.2
-13775.2
-13775.3
-13775.2
-13775.3
-13775.1
-13775.3
-13775.1
-13775.3
-13775.2
-13775.2
-13775.3
-13775.2
-13775.3
-13775.1
-13775.3
-13775.1
-13775.3
-13775.2
-13775.2
-13775.3
-13775.2
-13775.3
-13775.1
-2139.48
-2139.55
-2139.58
-2139.47
-2139.58
-2139.58
-2139.56
-2139.59
-2139.6
-2139.48
-2139.55
-2139.58
-2139.47
-2139.58
-2139.58
-2139.56
-2139.59
-2139.6
-2139.48
-2139.55
-2139.58
-2139.46
-2139.58
-2139.58
-2139.56
-2139.59
-2139.6
-2139.48
-2139.55
-2139.58
-2139.46
-2139.58
-2139.58
-2139.56
-2139.59
-2139.6
-5630.57
-5630.57
-5630.47
-5630.62
-5630.54
-5630.45
-5630.55
-5630.54
-5630.44
-5630.57
-5630.57
-5630.47
-5630.62
-5630.54
-5630.45
-5630.55
-5630.54
-5630.44
-5630.57
-5630.57
-5630.47
-5630.62
-5630.54
-5630.45
-5630.55
-5630.54
-5630.44
-5630.57
-5630.57
-5630.47
-5630.62
-5630.54
-5630.45
-5630.55
-5630.54
-5630.44
-12205.2
-12205.1
-12205.1
-12205.1
-12205.1
-12205.2
-12205.2
-12205.2
-12205.1
-12205.2
-12205.1
-12205.1
-12205.1
-12205.1
-12205.2
-12205.2
-12205.2
-12205.1
-12205.2
-12205.1
-12205.1
-12205.1
-12205.1
-12205.2
-12205.2
-12205.2
-12205.1
-12205.2
-12205.1
-12205.1
-12205.1
-12205.1
-12205.2
-12205.2
-12205.2
-12205.1
-3822.42
-3822.39
-3822.34
-3822.36
-3822.41
-3822.43
-3822.44
-3822.39
-3822.33
-3822.42
-3822.39
-3822.34
-3822.36
-3822.41
-3822.43
-3822.44
-3822.39
-3822.33
-3822.42
-3822.39
-3822.34
-3822.36
-3822.41
-3822.43
-3822.44
-3822.39
-3822.33
-3822.42
-3822.39
-3822.34
-3822.36
-3822.41
-3822.43
-3822.44
-3822.39
-3822.33
-5927.44
-5927.42
-5927.45
-5927.33
-5927.4
-5927.44
-5927.35
-5927.45
-5927.43
-5927.44
-5927.42
-5927.45
-5927.33
-5927.4
-5927.44
-5927.35
-5927.45
-5927.43
-5927.44
-5927.42
-5927.45
-5927.33
-5927.4
-5927.44
-5927.35
-5927.45
-5927.43
-5927.44
-5927.42
-5927.45
-5927.33
-5927.4
-5927.44
-5927.35
-5927.45
-5927.43
-10067.8
-10067.9
-10067.8
-10067.9
-10067.9
-10067.9
-10067.8
-10067.8
-10067.9
-10067.8
-10067.9
-10067.8
-10067.9
-10067.9
-10067.9
-10067.8
-10067.8
-10067.9
-10067.8
-10067.9
-10067.8
-10067.9
-10067.9
-10067.9
-10067.8
-10067.8
-10067.9
-10067.8
-10067.9
-10067.8
-10067.9
-10067.9
-10067.9
-10067.8
-10067.8
-10067.9
-5583.81
-5583.87
-5583.8
-5583.7
-5583.77
-5583.81
-5583.85
-5583.74
-5583.76
-5583.81
-5583.87
-5583.8
-5583.7
-5583.77
-5583.81
-5583.85
-5583.74
-5583.76
-5583.81
-5583.87
-5583.8
-5583.7
-5583.77
-5583.81
-5583.84
-5583.74
-5583.76
-5583.81
-5583.87
-5583.8
-5583.7
-5583.77
-5583.81
-5583.84
-5583.74
-5583.76
-6045.2
-6045.16
-6045.25
-6045.29
-6045.21
-6045.3
-6045.2
-6045.23
-6045.29
-6045.2
-6045.16
-6045.25
-6045.28
-6045.21
-6045.3
-6045.2
-6045.23
-6045.29
-6045.2
-6045.16
-6045.25
-6045.28
-6045.21
-6045.3
-6045.2
-6045.23
-6045.29
-6045.2
-6045.16
-6045.25
-6045.29
-6045.21
-6045.3
-6045.2
-6045.23
-6045.29
-7361.11
-7361.2
-7361.15
-7361.23
-7361.13
-7361.1
-7361.07
-7361.15
-7361.21
-7361.11
-7361.2
-7361.15
-7361.22
-7361.13
-7361.1
-7361.07
-7361.15
-7361.21
-7361.11
-7361.2
-7361.15
-7361.23
-7361.13
-7361.1
-7361.08
-7361.16
-7361.21
-7361.11
-7361.2
-7361.15
-7361.23
-7361.13
-7361.1
-7361.08
-7361.16
-7361.21
-6932.13
-6932.16
-6932.05
-6932.07
-6932.09
-6932.1
-6932.06
-6932.17
-6932.17
-6932.13
-6932.16
-6932.05
-6932.07
-6932.09
-6932.1
-6932.06
-6932.17
-6932.16
-6932.13
-6932.16
-6932.05
-6932.07
-6932.09
-6932.1
-6932.06
-6932.17
-6932.17
-6932.13
-6932.16
-6932.06
-6932.07
-6932.09
-6932.1
-6932.06
-6932.17
-6932.16
-5783.5
-5783.37
-5783.48
-5783.46
-5783.49
-5783.44
-5783.46
-5783.56
-5783.45
-5783.5
-5783.37
-5783.47
-5783.46
-5783.49
-5783.44
-5783.46
-5783.56
-5783.45
-5783.5
-5783.37
-5783.47
-5783.46
-5783.49
-5783.44
-5783.46
-5783.56
-5783.45
-5783.5
-5783.37
-5783.48
-5783.46
-5783.49
-5783.44
-5783.46
-5783.56
-5783.45
-4420.88
-4420.99
-4420.92
-4421.01
-4420.97
-4420.96
-4421.01
-4420.91
-4420.94
-4420.88
-4420.99
-4420.92
-4421.01
-4420.97
-4420.96
-4421.01
-4420.91
-4420.95
-4420.88
-4420.99
-4420.92
-4421.01
-4420.98
-4420.96
-4421.01
-4420.91
-4420.95
-4420.88
-4420.99
-4420.92
-4421.02
-4420.98
-4420.96
-4421.01
-4420.91
-4420.95
-6856.66
-6856.52
-6856.43
-6856.54
-6856.49
-6856.5
-6856.46
-6856.59
-6856.8
-6856.66
-6856.52
-6856.43
-6856.54
-6856.49
-6856.5
-6856.45
-6856.59
-6856.8
-6856.66
-6856.52
-6856.43
-6856.54
-6856.49
-6856.5
-6856.46
-6856.59
-6856.8
-6856.66
-6856.52
-6856.43
-6856.54
-6856.49
-6856.5
-6856.46
-6856.59
-6856.8
-4729.77
-4729.7
-4729.76
-4729.82
-4729.76
-4729.8
-4729.8
-4729.83
-4729.79
-4729.77
-4729.7
-4729.76
-4729.82
-4729.76
-4729.8
-4729.8
-4729.83
-4729.79
-4729.77
-4729.7
-4729.76
-4729.82
-4729.76
-4729.8
-4729.8
-4729.83
-4729.79
-4729.77
-4729.7
-4729.76
-4729.82
-4729.76
-4729.8
-4729.8
-4729.83
-4729.79
-1996.79
-1996.92
-1996.89
-1996.94
-1996.91
-1996.94
-1996.83
-1996.74
-1996.73
-1996.78
-1996.92
-1996.89
-1996.94
-1996.91
-1996.94
-1996.83
-1996.74
-1996.73
-1996.78
-1996.92
-1996.9
-1996.94
-1996.91
-1996.94
-1996.83
-1996.74
-1996.73
-1996.78
-1996.92
-1996.9
-1996.94
-1996.91
-1996.94
-1996.83
-1996.74
-1996.74
-3688.45
-3688.2
-3688.18
-3688.3
-3688.12
-3688.1
-3688.3
-3688.46
-3688.65
-3688.45
-3688.2
-3688.18
-3688.3
-3688.12
-3688.09
-3688.29
-3688.46
-3688.65
-3688.45
-3688.2
-3688.18
-3688.3
-3688.12
-3688.09
-3688.3
-3688.46
-3688.65
-3688.45
-3688.2
-3688.18
-3688.3
-3688.12
-3688.09
-3688.29
-3688.45
-3688.64
-2381.92
-2381.85
-2381.87
-2381.85
-2381.91
-2381.84
-2381.85
-2381.89
-2381.89
-2381.92
-2381.85
-2381.87
-2381.85
-2381.92
-2381.84
-2381.85
-2381.89
-2381.89
-2381.92
-2381.85
-2381.87
-2381.85
-2381.92
-2381.84
-2381.85
-2381.89
-2381.89
-2381.92
-2381.86
-2381.87
-2381.85
-2381.92
-2381.84
-2381.85
-2381.89
-2381.89
-2010.59
-2010.88
-2010.87
-2010.93
-2010.87
-2010.85
-2010.76
-2010.52
-2010.5
-2010.58
-2010.87
-2010.87
-2010.93
-2010.88
-2010.86
-2010.77
-2010.52
-2010.5
-2010.58
-2010.87
-2010.87
-2010.93
-2010.88
-2010.86
-2010.77
-2010.52
-2010.5
-2010.58
-2010.87
-2010.86
-2010.93
-2010.87
-2010.86
-2010.77
-2010.53
-2010.51
481.763
482.76
485.353
484.014
481.141
483.563
485.465
482.729
481.341
481.734
482.731
485.331
484.004
481.14
483.562
485.461
482.719
481.33
481.723
482.722
485.326
484
481.133
483.555
485.453
482.715
481.328
481.721
482.718
485.318
483.989
481.125
483.55
485.455
482.734
481.363
3482.23
3481.93
3481.38
3481.91
3481.98
3481.75
3481.36
3481.99
3482.14
3482.24
3481.94
3481.39
3481.91
3481.98
3481.75
3481.37
3481.99
3482.14
3482.24
3481.94
3481.39
3481.91
3481.99
3481.76
3481.37
3481.99
3482.15
3482.24
3481.94
3481.39
3481.92
3481.99
3481.76
3481.37
3481.99
3482.14
-5267.71
-5268.02
-5268.14
-5268.04
-5267.97
-5268.08
-5267.94
-5267.55
-5267.59
-5267.71
-5268.02
-5268.14
-5268.05
-5267.97
-5268.08
-5267.95
-5267.55
-5267.59
-5267.71
-5268.02
-5268.14
-5268.05
-5267.97
-5268.08
-5267.94
-5267.55
-5267.58
-5267.7
-5268.01
-5268.14
-5268.04
-5267.97
-5268.08
-5267.95
-5267.56
-5267.6
27667.4
27672.5
27645.6
27652.1
27677.7
27660.3
27643.3
27662.8
27661.9
27667.5
27672.6
27645.7
27652.1
27677.7
27660.3
27643.3
27662.9
27661.9
27667.5
27672.6
27645.7
27652.1
27677.7
27660.3
27643.3
27662.8
27661.9
27667.5
27672.6
27645.7
27652.1
27677.7
27660.3
27643.3
27662.8
27661.8
17040.9
17038.8
17038.4
17038.6
17041.3
17037.5
17038.9
17040
17041
17040.9
17038.8
17038.4
17038.6
17041.3
17037.5
17038.9
17040
17041
17040.9
17038.8
17038.4
17038.6
17041.3
17037.5
17038.9
17040
17041
17040.9
17038.8
17038.4
17038.6
17041.3
17037.5
17038.9
17039.9
17041
-42495.1
-42494.3
-42496.5
-42494.7
-42495.9
-42494.7
-42496.2
-42494.3
-42495.2
-42495.1
-42494.3
-42496.5
-42494.7
-42495.9
-42494.7
-42496.2
-42494.3
-42495.2
-42495.1
-42494.3
-42496.5
-42494.7
-42495.9
-42494.7
-42496.2
-42494.3
-42495.2
-42495.1
-42494.3
-42496.5
-42494.7
-42495.9
-42494.7
-42496.2
-42494.3
-42495.2
)
;

boundaryField
{
    fixed
    {
        type            zeroGradient;
    }
    inside
    {
        type            zeroGradient;
    }
    outside
    {
        type            zeroGradient;
    }
}


// ************************************************************************* //
