/*--------------------------------*- C++ -*----------------------------------*\
| =========                 |                                                 |
| \\      /  F ield         | OpenFOAM: The Open Source CFD Toolbox           |
|  \\    /   O peration     | Version:  2312                                  |
|   \\  /    A nd           | Website:  www.openfoam.com                      |
|    \\/     M anipulation  |                                                 |
\*---------------------------------------------------------------------------*/
FoamFile
{
    version     2.0;
    format      ascii;
    arch        "LSB;label=32;scalar=64";
    class       volSymmTensorField;
    location    "0.5";
    object      sigma;
}
// * * * * * * * * * * * * * * * * * * * * * * * * * * * * * * * * * * * * * //

dimensions      [1 -1 -2 0 0 0 0];

internalField   nonuniform List<symmTensor> 
1620
(
(-8297.6 -811.897 -1652.46 -2127.79 11016.9 13548.1)
(-7833.83 -1818.03 -3540.41 -2591.49 10562.6 13548.2)
(-7053.94 -2604.9 -5320.83 -3371.34 9787.36 13548.2)
(-6052.15 -3077.51 -6939.5 -4373.52 8714.66 13548.1)
(-4949 -3178.97 -8347.33 -5476.72 7377.24 13548.1)
(-3877.59 -2897.02 -9501.56 -6548.01 5815.7 13548.2)
(-2967.15 -2265.67 -10367.2 -7458.3 4077.42 13548.1)
(-2327.69 -1361 -10917.7 -8097.77 2215.24 13548.1)
(-2036.15 -292.175 -11136.5 -8389.25 285.736 13548.1)
(-2127.79 811.897 -11016.9 -8297.6 -1652.46 13548.1)
(-2591.49 1818.03 -10562.6 -7833.83 -3540.41 13548.2)
(-3371.34 2604.9 -9787.36 -7053.94 -5320.83 13548.2)
(-4373.52 3077.51 -8714.66 -6052.15 -6939.5 13548.1)
(-5476.72 3178.97 -7377.24 -4949 -8347.33 13548.1)
(-6548.01 2897.02 -5815.7 -3877.59 -9501.56 13548.2)
(-7458.3 2265.67 -4077.42 -2967.14 -10367.2 13548.1)
(-8097.77 1361 -2215.24 -2327.69 -10917.7 13548.1)
(-8389.25 292.175 -285.736 -2036.15 -11136.5 13548.1)
(-8297.6 -811.897 1652.46 -2127.79 -11016.9 13548.1)
(-7833.83 -1818.03 3540.41 -2591.49 -10562.6 13548.2)
(-7053.94 -2604.9 5320.83 -3371.34 -9787.36 13548.2)
(-6052.15 -3077.51 6939.5 -4373.52 -8714.66 13548.1)
(-4949 -3178.97 8347.33 -5476.72 -7377.24 13548.1)
(-3877.59 -2897.02 9501.56 -6548.01 -5815.7 13548.2)
(-2967.15 -2265.67 10367.2 -7458.3 -4077.42 13548.1)
(-2327.7 -1361 10917.7 -8097.77 -2215.24 13548.1)
(-2036.15 -292.175 11136.5 -8389.25 -285.736 13548.1)
(-2127.79 811.897 11016.9 -8297.6 1652.46 13548.1)
(-2591.49 1818.03 10562.6 -7833.83 3540.41 13548.2)
(-3371.34 2604.9 9787.36 -7053.94 5320.83 13548.2)
(-4373.52 3077.51 8714.66 -6052.15 6939.5 13548.1)
(-5476.72 3178.97 7377.24 -4949 8347.33 13548.1)
(-6548.01 2897.02 5815.7 -3877.59 9501.56 13548.2)
(-7458.3 2265.67 4077.42 -2967.15 10367.2 13548.1)
(-8097.77 1361 2215.24 -2327.7 10917.7 13548.1)
(-8389.25 292.175 285.736 -2036.15 11136.5 13548.1)
(-15961.8 -2956.5 -375.863 13158.7 2826.29 -16370.8)
(-14072.5 -7758.07 -860.933 11269.4 2718.09 -16370.8)
(-10654.8 -11624 -1319.85 7851.9 2527.29 -16370.7)
(-6121.17 -14087.8 -1738.73 3318.13 2259.8 -16370.7)
(-1018.36 -14852.4 -2104.78 -1784.83 1923.61 -16370.8)
(4038.34 -13825.6 -2406.76 -6841.46 1528.85 -16370.8)
(8439.03 -11131.3 -2635.57 -11241.9 1087.64 -16370.7)
(11652.6 -7094.3 -2784.4 -14455.7 613.453 -16370.8)
(13291.7 -2201.68 -2848.63 -16094.9 120.628 -16370.9)
(13158.7 2956.5 -2826.29 -15961.8 -375.863 -16370.8)
(11269.4 7758.07 -2718.09 -14072.4 -860.933 -16370.8)
(7851.9 11624 -2527.29 -10654.8 -1319.85 -16370.7)
(3318.14 14087.8 -2259.8 -6121.16 -1738.73 -16370.7)
(-1784.83 14852.4 -1923.61 -1018.36 -2104.78 -16370.8)
(-6841.46 13825.6 -1528.85 4038.34 -2406.76 -16370.8)
(-11241.9 11131.3 -1087.64 8439.03 -2635.57 -16370.7)
(-14455.7 7094.3 -613.453 11652.6 -2784.4 -16370.8)
(-16094.9 2201.68 -120.628 13291.7 -2848.63 -16370.9)
(-15961.8 -2956.5 375.863 13158.7 -2826.29 -16370.8)
(-14072.4 -7758.07 860.932 11269.4 -2718.09 -16370.8)
(-10654.8 -11624 1319.85 7851.9 -2527.29 -16370.7)
(-6121.16 -14087.8 1738.73 3318.14 -2259.8 -16370.7)
(-1018.36 -14852.4 2104.78 -1784.83 -1923.61 -16370.8)
(4038.34 -13825.6 2406.76 -6841.46 -1528.85 -16370.8)
(8439.03 -11131.3 2635.57 -11241.9 -1087.64 -16370.7)
(11652.6 -7094.3 2784.4 -14455.7 -613.453 -16370.8)
(13291.7 -2201.68 2848.63 -16094.9 -120.628 -16370.9)
(13158.7 2956.5 2826.29 -15961.8 375.863 -16370.8)
(11269.4 7758.07 2718.09 -14072.5 860.932 -16370.8)
(7851.9 11624 2527.29 -10654.8 1319.85 -16370.7)
(3318.13 14087.8 2259.8 -6121.17 1738.73 -16370.7)
(-1784.83 14852.4 1923.61 -1018.36 2104.78 -16370.8)
(-6841.46 13825.6 1528.85 4038.34 2406.76 -16370.8)
(-11241.9 11131.3 1087.64 8439.03 2635.57 -16370.7)
(-14455.7 7094.3 613.453 11652.6 2784.4 -16370.8)
(-16094.9 2201.68 120.628 13291.7 2848.63 -16370.9)
(-35865.9 -859.11 812.656 -23888.6 -15959.9 -16449.2)
(-35210.9 -2855.52 3571.71 -24543.6 -15576.3 -16449.3)
(-33912.7 -4507.52 6222.26 -25842.1 -14719.4 -16449.4)
(-32127.5 -5615.85 8683.76 -27627 -13415.3 -16449.3)
(-30071.1 -6046.87 10881.4 -29683.4 -11703.6 -16449.4)
(-27991.3 -5748.45 12748.3 -31763.2 -9636.3 -16449.3)
(-26139 -4756.72 14228 -33615.6 -7276.16 -16449.3)
(-24737.6 -3191.25 15275.4 -35017.1 -4694.91 -16449.4)
(-23956 -1240.92 15858.5 -35798.6 -1971.09 -16449.3)
(-23888.6 859.11 15959.9 -35865.9 812.656 -16449.2)
(-24543.6 2855.52 15576.3 -35210.9 3571.71 -16449.3)
(-25842.1 4507.52 14719.4 -33912.7 6222.26 -16449.4)
(-27627 5615.85 13415.3 -32127.5 8683.76 -16449.3)
(-29683.4 6046.87 11703.6 -30071.1 10881.4 -16449.4)
(-31763.2 5748.45 9636.3 -27991.3 12748.3 -16449.3)
(-33615.6 4756.72 7276.16 -26139 14228 -16449.2)
(-35017.1 3191.25 4694.91 -24737.5 15275.4 -16449.4)
(-35798.6 1240.92 1971.09 -23956 15858.5 -16449.3)
(-35865.8 -859.11 -812.656 -23888.6 15959.9 -16449.2)
(-35210.9 -2855.52 -3571.71 -24543.6 15576.3 -16449.3)
(-33912.7 -4507.52 -6222.26 -25842.1 14719.4 -16449.4)
(-32127.5 -5615.86 -8683.76 -27627 13415.3 -16449.3)
(-30071.1 -6046.87 -10881.4 -29683.4 11703.6 -16449.4)
(-27991.3 -5748.45 -12748.3 -31763.2 9636.3 -16449.3)
(-26139 -4756.72 -14228 -33615.6 7276.16 -16449.3)
(-24737.6 -3191.25 -15275.4 -35017.1 4694.91 -16449.4)
(-23956 -1240.92 -15858.5 -35798.6 1971.09 -16449.3)
(-23888.6 859.11 -15959.9 -35865.9 -812.656 -16449.2)
(-24543.6 2855.52 -15576.3 -35210.9 -3571.71 -16449.3)
(-25842.1 4507.52 -14719.4 -33912.7 -6222.26 -16449.4)
(-27627 5615.86 -13415.3 -32127.5 -8683.76 -16449.3)
(-29683.4 6046.87 -11703.6 -30071.1 -10881.4 -16449.4)
(-31763.2 5748.45 -9636.3 -27991.3 -12748.3 -16449.3)
(-33615.6 4756.72 -7276.16 -26139 -14228 -16449.3)
(-35017.1 3191.25 -4694.91 -24737.6 -15275.4 -16449.4)
(-35798.6 1240.92 -1971.09 -23956 -15858.5 -16449.3)
(4992.6 -1039.14 -1850.17 9130.53 9566.06 28006.2)
(5472.69 -1684.06 -3483.13 8650.22 9099.39 28006.2)
(6144.62 -2125.92 -5010.35 7978.57 8356.36 28006.2)
(6926.96 -2311.28 -6385.23 7196.06 7359.26 28006.4)
(7725.66 -2217.91 -7566.18 6397.49 6138.66 28006.4)
(8444.13 -1857.03 -8517.13 5679 4731.61 28006.4)
(8995.85 -1272.21 -9209.51 5127.07 3180.77 28006.1)
(9314.33 -533.879 -9621.88 4808.67 1533.22 28006.2)
(9361.2 268.826 -9742.01 4762 -160.886 28006.2)
(9130.53 1039.14 -9566.06 4992.6 -1850.17 28006.2)
(8650.22 1684.06 -9099.39 5472.69 -3483.13 28006.2)
(7978.57 2125.92 -8356.36 6144.62 -5010.35 28006.2)
(7196.06 2311.28 -7359.26 6926.96 -6385.23 28006.4)
(6397.49 2217.91 -6138.66 7725.66 -7566.18 28006.4)
(5679 1857.03 -4731.61 8444.13 -8517.13 28006.4)
(5127.07 1272.21 -3180.77 8995.85 -9209.51 28006.1)
(4808.67 533.879 -1533.22 9314.33 -9621.88 28006.2)
(4762 -268.826 160.886 9361.2 -9742.01 28006.2)
(4992.6 -1039.14 1850.17 9130.53 -9566.06 28006.2)
(5472.69 -1684.06 3483.13 8650.22 -9099.39 28006.2)
(6144.62 -2125.92 5010.35 7978.57 -8356.36 28006.2)
(6926.96 -2311.28 6385.23 7196.06 -7359.26 28006.4)
(7725.66 -2217.91 7566.18 6397.49 -6138.66 28006.4)
(8444.13 -1857.03 8517.13 5679 -4731.61 28006.4)
(8995.85 -1272.21 9209.51 5127.07 -3180.77 28006.1)
(9314.33 -533.879 9621.88 4808.67 -1533.22 28006.2)
(9361.2 268.826 9742.01 4762 160.886 28006.2)
(9130.53 1039.14 9566.06 4992.6 1850.17 28006.2)
(8650.22 1684.06 9099.39 5472.69 3483.13 28006.2)
(7978.57 2125.92 8356.36 6144.62 5010.35 28006.2)
(7196.06 2311.28 7359.26 6926.96 6385.23 28006.4)
(6397.49 2217.91 6138.66 7725.66 7566.18 28006.4)
(5679 1857.03 4731.61 8444.13 8517.13 28006.4)
(5127.07 1272.21 3180.77 8995.85 9209.51 28006.1)
(4808.67 533.879 1533.22 9314.33 9621.88 28006.2)
(4762 -268.826 -160.887 9361.2 9742.01 28006.2)
(-1760.15 -3748.66 -542.349 26549.2 4082.05 -2524.97)
(375.654 -8363.71 -1242.98 24413.5 3925.97 -2524.85)
(3960.95 -11970 -1905.81 20828 3650.43 -2524.98)
(8563.52 -14132.6 -2510.79 16225.3 3264.1 -2524.96)
(13628.2 -14590.5 -3039.43 11160.7 2778.5 -2524.98)
(18543.9 -13288.6 -3475.76 6244.74 2208.51 -2525.07)
(22718.3 -10384 -3806.38 2070.82 1571.37 -2524.9)
(25647.2 -6226.8 -4021.47 -858.129 886.533 -2524.89)
(26977.6 -1318.66 -4114.21 -2188.62 174.743 -2524.96)
(26549.2 3748.66 -4082.05 -1760.15 -542.349 -2524.97)
(24413.5 8363.71 -3925.97 375.654 -1242.98 -2524.85)
(20828 11970 -3650.43 3960.95 -1905.81 -2524.98)
(16225.3 14132.6 -3264.1 8563.52 -2510.79 -2524.96)
(11160.7 14590.5 -2778.5 13628.2 -3039.43 -2524.98)
(6244.74 13288.6 -2208.51 18543.9 -3475.76 -2525.07)
(2070.82 10384 -1571.37 22718.3 -3806.38 -2524.9)
(-858.129 6226.8 -886.533 25647.2 -4021.47 -2524.89)
(-2188.62 1318.66 -174.743 26977.6 -4114.21 -2524.96)
(-1760.15 -3748.66 542.349 26549.2 -4082.05 -2524.97)
(375.654 -8363.71 1242.98 24413.5 -3925.97 -2524.85)
(3960.95 -11970 1905.81 20828 -3650.43 -2524.98)
(8563.52 -14132.6 2510.79 16225.3 -3264.1 -2524.96)
(13628.2 -14590.5 3039.43 11160.7 -2778.5 -2524.98)
(18543.9 -13288.6 3475.76 6244.74 -2208.51 -2525.07)
(22718.3 -10384 3806.38 2070.82 -1571.37 -2524.9)
(25647.2 -6226.8 4021.47 -858.129 -886.533 -2524.89)
(26977.6 -1318.66 4114.21 -2188.62 -174.743 -2524.96)
(26549.2 3748.66 4082.05 -1760.15 542.349 -2524.97)
(24413.5 8363.71 3925.97 375.654 1242.98 -2524.85)
(20828 11970 3650.43 3960.95 1905.81 -2524.98)
(16225.3 14132.6 3264.1 8563.52 2510.79 -2524.96)
(11160.7 14590.5 2778.5 13628.2 3039.43 -2524.98)
(6244.74 13288.6 2208.51 18543.9 3475.76 -2525.07)
(2070.82 10384 1571.37 22718.3 3806.38 -2524.9)
(-858.129 6226.8 886.533 25647.2 4021.47 -2524.89)
(-2188.62 1318.66 174.743 26977.6 4114.21 -2524.96)
(-19114 -1171.85 556.923 -6971.86 -16071.1 -898.477)
(-18347.1 -3177.6 3339.16 -7738.76 -15730.2 -898.525)
(-16940.4 -4800.08 6019.94 -9145.43 -14911.4 -898.472)
(-15063.6 -5843.6 8517.82 -11022.2 -13639.5 -898.429)
(-12943 -6182.34 10756.9 -13142.6 -11953.2 -898.399)
(-10834.4 -5775.34 12669.1 -15250.9 -9903.69 -898.208)
(-8992.46 -4671.78 14196.4 -17093.2 -7553.23 -898.437)
(-7638.86 -3004.72 15292.4 -18446.8 -4973.28 -898.471)
(-6937.18 -975.275 15923.6 -19148.6 -2242.28 -898.467)
(-6971.85 1171.85 16071.1 -19114 556.923 -898.476)
(-7738.76 3177.6 15730.2 -18347.1 3339.16 -898.524)
(-9145.43 4800.08 14911.4 -16940.4 6019.94 -898.471)
(-11022.2 5843.6 13639.5 -15063.6 8517.82 -898.428)
(-13142.6 6182.34 11953.2 -12943 10756.9 -898.398)
(-15250.9 5775.34 9903.69 -10834.4 12669.1 -898.207)
(-17093.2 4671.78 7553.23 -8992.46 14196.4 -898.436)
(-18446.8 3004.72 4973.28 -7638.86 15292.4 -898.47)
(-19148.6 975.275 2242.28 -6937.18 15923.6 -898.466)
(-19114 -1171.85 -556.923 -6971.85 16071.1 -898.476)
(-18347.1 -3177.6 -3339.16 -7738.76 15730.2 -898.524)
(-16940.4 -4800.08 -6019.94 -9145.43 14911.4 -898.471)
(-15063.6 -5843.6 -8517.82 -11022.2 13639.5 -898.428)
(-12943 -6182.34 -10756.9 -13142.6 11953.2 -898.398)
(-10834.4 -5775.34 -12669.1 -15250.9 9903.69 -898.207)
(-8992.46 -4671.78 -14196.4 -17093.2 7553.23 -898.436)
(-7638.86 -3004.72 -15292.4 -18446.8 4973.28 -898.471)
(-6937.18 -975.275 -15923.6 -19148.6 2242.28 -898.467)
(-6971.85 1171.85 -16071.1 -19114 -556.923 -898.477)
(-7738.76 3177.6 -15730.2 -18347.1 -3339.16 -898.525)
(-9145.43 4800.08 -14911.4 -16940.4 -6019.94 -898.472)
(-11022.2 5843.6 -13639.5 -15063.6 -8517.82 -898.429)
(-13142.6 6182.34 -11953.2 -12943 -10756.9 -898.399)
(-15250.9 5775.34 -9903.69 -10834.4 -12669.1 -898.208)
(-17093.2 4671.78 -7553.23 -8992.46 -14196.4 -898.437)
(-18446.8 3004.72 -4973.28 -7638.86 -15292.4 -898.472)
(-19148.6 975.275 -2242.28 -6937.18 -15923.6 -898.468)
(3835.84 -1250.35 -1352.6 7621.38 9628.61 25866.8)
(4377.58 -1822.34 -3004.11 7079.49 9247.42 25866.8)
(5082.38 -2174.48 -4564.24 6374.8 8585.28 25866.8)
(5864.98 -2264.32 -5985.67 5592.01 7662.23 25866.9)
(6631.36 -2081.16 -7225.36 4825.96 6506.51 25866.8)
(7288.62 -1646.84 -8245.32 4168.56 5152.91 25866.9)
(7757.72 -1013.99 -9014.92 3699.26 3642.88 25866.7)
(7982.27 -258.793 -9510.54 3474.95 2022.09 25866.8)
(7934.77 527.581 -9717.2 3522.23 339.947 25866.7)
(7621.38 1250.35 -9628.61 3835.84 -1352.6 25866.8)
(7079.49 1822.34 -9247.42 4377.58 -3004.11 25866.8)
(6374.8 2174.48 -8585.28 5082.38 -4564.24 25866.8)
(5592.01 2264.32 -7662.23 5864.97 -5985.67 25866.9)
(4825.96 2081.16 -6506.51 6631.36 -7225.36 25866.8)
(4168.56 1646.84 -5152.91 7288.62 -8245.32 25866.9)
(3699.26 1013.99 -3642.88 7757.72 -9014.92 25866.7)
(3474.95 258.793 -2022.09 7982.27 -9510.54 25866.8)
(3522.23 -527.581 -339.947 7934.77 -9717.2 25866.7)
(3835.84 -1250.35 1352.6 7621.38 -9628.61 25866.8)
(4377.58 -1822.34 3004.11 7079.49 -9247.42 25866.8)
(5082.38 -2174.48 4564.24 6374.8 -8585.28 25866.8)
(5864.97 -2264.32 5985.67 5592.01 -7662.23 25866.9)
(6631.36 -2081.16 7225.36 4825.96 -6506.51 25866.8)
(7288.62 -1646.84 8245.32 4168.56 -5152.91 25866.9)
(7757.72 -1013.99 9014.92 3699.26 -3642.88 25866.7)
(7982.27 -258.793 9510.54 3474.95 -2022.09 25866.8)
(7934.77 527.581 9717.2 3522.23 -339.947 25866.7)
(7621.38 1250.35 9628.61 3835.84 1352.6 25866.8)
(7079.49 1822.34 9247.42 4377.58 3004.11 25866.8)
(6374.8 2174.48 8585.28 5082.38 4564.24 25866.8)
(5592.01 2264.32 7662.23 5864.98 5985.67 25866.9)
(4825.96 2081.16 6506.51 6631.36 7225.36 25866.8)
(4168.56 1646.84 5152.91 7288.62 8245.32 25866.9)
(3699.26 1013.99 3642.88 7757.72 9014.92 25866.7)
(3474.95 258.793 2022.09 7982.27 9510.54 25866.8)
(3522.23 -527.581 339.947 7934.77 9717.2 25866.7)
(-3005.42 -4392.39 -542.627 24759 4367.1 -4676.13)
(-665.915 -8875.44 -1292.73 22419.5 4206.58 -4676.07)
(3065.77 -12288 -2003.56 18687.8 3918.19 -4676.09)
(7739.66 -14218.5 -2653.52 14014.1 3510.78 -4675.95)
(12791.9 -14434 -3222.75 8961.87 2996.56 -4676.03)
(17613 -12908.5 -3694.26 4140.49 2391.49 -4676.08)
(21621.8 -9826.14 -4053.38 131.863 1713.65 -4676.01)
(24334.4 -5558.54 -4289.37 -2581.05 983.751 -4676.19)
(25424.1 -620.545 -4394.98 -3670.41 223.966 -4676.05)
(24759 4392.39 -4367.1 -3005.42 -542.627 -4676.13)
(22419.5 8875.44 -4206.58 -665.915 -1292.73 -4676.07)
(18687.8 12288 -3918.19 3065.77 -2003.56 -4676.09)
(14014.1 14218.5 -3510.78 7739.66 -2653.52 -4675.95)
(8961.87 14434 -2996.56 12791.9 -3222.75 -4676.03)
(4140.49 12908.5 -2391.49 17613 -3694.26 -4676.08)
(131.864 9826.14 -1713.65 21621.8 -4053.38 -4676.01)
(-2581.05 5558.54 -983.751 24334.4 -4289.37 -4676.19)
(-3670.41 620.545 -223.966 25424.1 -4394.98 -4676.05)
(-3005.42 -4392.39 542.627 24759 -4367.1 -4676.13)
(-665.915 -8875.44 1292.73 22419.5 -4206.58 -4676.07)
(3065.77 -12288 2003.56 18687.8 -3918.19 -4676.09)
(7739.66 -14218.5 2653.52 14014.1 -3510.78 -4675.95)
(12791.9 -14434 3222.75 8961.87 -2996.56 -4676.03)
(17613 -12908.5 3694.26 4140.49 -2391.49 -4676.08)
(21621.8 -9826.14 4053.38 131.864 -1713.65 -4676.01)
(24334.4 -5558.54 4289.37 -2581.05 -983.751 -4676.19)
(25424.1 -620.545 4394.98 -3670.41 -223.966 -4676.05)
(24759 4392.39 4367.1 -3005.42 542.627 -4676.13)
(22419.5 8875.44 4206.58 -665.915 1292.73 -4676.07)
(18687.8 12288 3918.19 3065.77 2003.56 -4676.09)
(14014.1 14218.5 3510.78 7739.66 2653.52 -4675.95)
(8961.87 14434 2996.56 12791.9 3222.75 -4676.03)
(4140.49 12908.5 2391.49 17613 3694.26 -4676.08)
(131.863 9826.14 1713.65 21621.8 4053.38 -4676.01)
(-2581.05 5558.54 983.751 24334.4 4289.37 -4676.19)
(-3670.41 620.545 223.966 25424.1 4394.98 -4676.05)
(-17420.3 -2644.9 1664.17 -6052.57 -15871.6 -588.443)
(-16172.9 -4429.37 4394.94 -7299.93 -15341.5 -588.487)
(-14390.3 -5679.62 6992.2 -9082.33 -14345.2 -588.395)
(-12287.8 -6244.81 9377 -11185 -12913.1 -588.449)
(-10118.7 -6056.8 11476.9 -13354.2 -11088.6 -588.539)
(-8144.74 -5138.2 13228.1 -15328.2 -8927.2 -588.488)
(-6603.99 -3599.91 14577.3 -16869 -6494.56 -588.558)
(-5682.1 -1627.42 15483.6 -17790.5 -3864.6 -588.379)
(-5490.69 541.392 15919.4 -17982 -1117.19 -588.397)
(-6052.57 2644.9 15871.6 -17420.3 1664.17 -588.442)
(-7299.93 4429.37 15341.5 -16172.9 4394.94 -588.486)
(-9082.32 5679.62 14345.2 -14390.3 6992.2 -588.393)
(-11185 6244.81 12913.1 -12287.8 9377 -588.448)
(-13354.2 6056.8 11088.6 -10118.7 11476.9 -588.538)
(-15328.2 5138.2 8927.2 -8144.74 13228.1 -588.487)
(-16869 3599.91 6494.56 -6603.99 14577.3 -588.557)
(-17790.5 1627.42 3864.6 -5682.1 15483.6 -588.378)
(-17982 -541.392 1117.19 -5490.69 15919.4 -588.396)
(-17420.3 -2644.9 -1664.17 -6052.57 15871.6 -588.442)
(-16172.9 -4429.37 -4394.94 -7299.93 15341.5 -588.486)
(-14390.3 -5679.62 -6992.2 -9082.32 14345.2 -588.393)
(-12287.8 -6244.81 -9377 -11185 12913.1 -588.448)
(-10118.7 -6056.8 -11476.9 -13354.2 11088.6 -588.538)
(-8144.74 -5138.2 -13228.1 -15328.2 8927.2 -588.488)
(-6603.99 -3599.91 -14577.3 -16869 6494.56 -588.558)
(-5682.1 -1627.42 -15483.6 -17790.5 3864.6 -588.379)
(-5490.69 541.392 -15919.4 -17982 1117.19 -588.397)
(-6052.57 2644.9 -15871.6 -17420.3 -1664.17 -588.443)
(-7299.93 4429.37 -15341.5 -16172.9 -4394.94 -588.487)
(-9082.33 5679.62 -14345.2 -14390.3 -6992.2 -588.395)
(-11185 6244.81 -12913.1 -12287.8 -9377 -588.449)
(-13354.2 6056.8 -11088.6 -10118.7 -11476.9 -588.539)
(-15328.2 5138.2 -8927.2 -8144.74 -13228.1 -588.489)
(-16869 3599.91 -6494.56 -6603.99 -14577.3 -588.559)
(-17790.5 1627.42 -3864.6 -5682.1 -15483.6 -588.38)
(-17982 -541.392 -1117.19 -5490.69 -15919.4 -588.397)
(3814.51 -1189.24 -248.075 7385.14 9841.07 24800.6)
(4328.93 -1728.16 -1953.24 6870.78 9648.54 24800.6)
(4996.6 -2058.63 -3599.03 6203.03 9162.79 24800.5)
(5737.12 -2140.77 -5135.45 5462.57 8398.56 24800.6)
(6461.03 -1964.72 -6515.77 4738.73 7379.28 24800.6)
(7081.06 -1551.68 -7698.2 4118.63 6135.65 24800.7)
(7522.54 -951.533 -8646.72 3677.35 4705.72 24800.6)
(7731.91 -236.562 -9332.51 3467.7 3132.69 24800.5)
(7684.24 506.922 -9734.64 3515.46 1464.55 24800.7)
(7385.14 1189.24 -9841.07 3814.51 -248.074 24800.6)
(6870.78 1728.16 -9648.54 4328.93 -1953.24 24800.6)
(6203.03 2058.63 -9162.79 4996.6 -3599.03 24800.5)
(5462.57 2140.77 -8398.56 5737.12 -5135.45 24800.6)
(4738.73 1964.72 -7379.28 6461.03 -6515.77 24800.6)
(4118.63 1551.68 -6135.65 7081.06 -7698.2 24800.7)
(3677.35 951.533 -4705.72 7522.54 -8646.72 24800.6)
(3467.7 236.562 -3132.7 7731.91 -9332.51 24800.5)
(3515.46 -506.921 -1464.56 7684.24 -9734.64 24800.7)
(3814.51 -1189.24 248.074 7385.14 -9841.07 24800.6)
(4328.93 -1728.16 1953.24 6870.78 -9648.54 24800.6)
(4996.6 -2058.63 3599.03 6203.03 -9162.79 24800.5)
(5737.12 -2140.77 5135.45 5462.57 -8398.56 24800.6)
(6461.03 -1964.72 6515.77 4738.73 -7379.28 24800.6)
(7081.06 -1551.68 7698.2 4118.63 -6135.65 24800.7)
(7522.54 -951.533 8646.72 3677.35 -4705.72 24800.6)
(7731.91 -236.562 9332.51 3467.7 -3132.7 24800.5)
(7684.24 506.922 9734.64 3515.46 -1464.55 24800.7)
(7385.14 1189.24 9841.07 3814.51 248.075 24800.6)
(6870.78 1728.16 9648.54 4328.93 1953.24 24800.6)
(6203.03 2058.63 9162.79 4996.6 3599.03 24800.5)
(5462.57 2140.77 8398.56 5737.12 5135.45 24800.6)
(4738.73 1964.72 7379.28 6461.03 6515.77 24800.6)
(4118.63 1551.68 6135.65 7081.06 7698.2 24800.7)
(3677.35 951.533 4705.72 7522.54 8646.72 24800.6)
(3467.7 236.562 3132.69 7731.91 9332.51 24800.5)
(3515.46 -506.923 1464.55 7684.24 9734.64 24800.7)
(-2489.15 -4950.25 -515.612 24625.9 4520.63 -5163.3)
(21.5507 -9288.66 -1292.77 22115.2 4362.39 -5163.31)
(3864.68 -12506.8 -2030.65 18272.1 4071.6 -5163.35)
(8576.72 -14216.3 -2706.85 13560.1 3657.17 -5163.25)
(13589.1 -14211.2 -3300.81 8547.54 3131.59 -5163.33)
(18297.7 -12492 -3794.43 3839.15 2510.83 -5163.27)
(22134.2 -9266.07 -4172.73 2.56322 1813.76 -5163.35)
(24636.1 -4922.49 -4424.32 -2499.25 1061.62 -5163.31)
(25501.4 14.7798 -4541.48 -3364.62 277.218 -5163.31)
(24625.9 4950.25 -4520.63 -2489.15 -515.612 -5163.3)
(22115.2 9288.66 -4362.39 21.5507 -1292.77 -5163.31)
(18272.1 12506.8 -4071.6 3864.68 -2030.65 -5163.35)
(13560.1 14216.3 -3657.17 8576.72 -2706.85 -5163.25)
(8547.54 14211.2 -3131.59 13589.1 -3300.81 -5163.32)
(3839.15 12492 -2510.83 18297.7 -3794.43 -5163.27)
(2.56345 9266.07 -1813.76 22134.2 -4172.73 -5163.35)
(-2499.25 4922.49 -1061.62 24636.1 -4424.32 -5163.31)
(-3364.62 -14.7796 -277.218 25501.4 -4541.48 -5163.31)
(-2489.15 -4950.25 515.612 24625.9 -4520.63 -5163.3)
(21.5506 -9288.66 1292.77 22115.2 -4362.39 -5163.31)
(3864.68 -12506.8 2030.65 18272.1 -4071.6 -5163.35)
(8576.72 -14216.3 2706.85 13560.1 -3657.17 -5163.25)
(13589.1 -14211.2 3300.81 8547.54 -3131.59 -5163.32)
(18297.7 -12492 3794.43 3839.15 -2510.83 -5163.27)
(22134.2 -9266.07 4172.73 2.56338 -1813.76 -5163.35)
(24636.1 -4922.49 4424.32 -2499.25 -1061.62 -5163.31)
(25501.4 14.7797 4541.48 -3364.62 -277.218 -5163.31)
(24625.9 4950.25 4520.63 -2489.15 515.612 -5163.3)
(22115.2 9288.66 4362.39 21.5506 1292.77 -5163.31)
(18272.1 12506.8 4071.6 3864.68 2030.65 -5163.35)
(13560.1 14216.3 3657.17 8576.72 2706.85 -5163.25)
(8547.54 14211.2 3131.59 13589.1 3300.81 -5163.33)
(3839.15 12492 2510.83 18297.7 3794.43 -5163.27)
(2.56319 9266.07 1813.76 22134.2 4172.73 -5163.35)
(-2499.25 4922.49 1061.62 24636.1 4424.32 -5163.31)
(-3364.62 -14.7798 277.218 25501.4 4541.48 -5163.31)
(-15217.6 -4086.93 2732.31 -4961.77 -15661.3 -9.00068)
(-13510.6 -5594.33 5410.35 -6668.87 -14948.9 -9.10893)
(-11390.9 -6426.96 7924.03 -8788.5 -13782.3 -9.00856)
(-9114.35 -6484.38 10196.9 -11065.2 -12196.9 -9.05026)
(-6955.34 -5759.74 12160 -13224.1 -10241 -9.09974)
(-5174.42 -4340.34 13753.5 -15005 -7973.83 -9.00703)
(-3986.44 -2397.45 14929.2 -16193.2 -5464.4 -9.09335)
(-3534.44 -165.413 15651.3 -16645 -2788.96 -9.08441)
(-3873.2 2086.62 15897.8 -16306.2 -28.7446 -9.00428)
(-4961.77 4086.93 15661.3 -15217.6 2732.31 -8.99979)
(-6668.87 5594.33 14948.9 -13510.6 5410.35 -9.10789)
(-8788.5 6426.96 13782.3 -11390.9 7924.03 -9.0075)
(-11065.2 6484.38 12196.9 -9114.35 10196.9 -9.04924)
(-13224.1 5759.74 10241 -6955.34 12160 -9.0988)
(-15005 4340.34 7973.83 -5174.42 13753.5 -9.00621)
(-16193.2 2397.45 5464.4 -3986.44 14929.2 -9.09267)
(-16645 165.413 2788.96 -3534.44 15651.3 -9.0839)
(-16306.2 -2086.62 28.7445 -3873.2 15897.8 -9.00396)
(-15217.6 -4086.93 -2732.31 -4961.77 15661.3 -8.99967)
(-13510.6 -5594.33 -5410.35 -6668.87 14948.9 -9.10799)
(-11390.9 -6426.96 -7924.03 -8788.5 13782.3 -9.00781)
(-9114.35 -6484.38 -10196.9 -11065.2 12196.9 -9.04975)
(-6955.34 -5759.74 -12160 -13224.1 10241 -9.0995)
(-5174.42 -4340.34 -13753.5 -15005 7973.83 -9.00708)
(-3986.44 -2397.45 -14929.2 -16193.2 5464.4 -9.09367)
(-3534.44 -165.413 -15651.3 -16645 2788.96 -9.085)
(-3873.2 2086.62 -15897.8 -16306.2 28.7446 -9.0051)
(-4961.77 4086.93 -15661.3 -15217.6 -2732.31 -9.00083)
(-6668.87 5594.33 -14948.9 -13510.6 -5410.35 -9.1091)
(-8788.5 6426.96 -13782.3 -11390.9 -7924.03 -9.00884)
(-11065.2 6484.38 -12196.9 -9114.35 -10196.9 -9.05065)
(-13224.1 5759.74 -10241 -6955.34 -12160 -9.10026)
(-15005 4340.34 -7973.83 -5174.42 -13753.5 -9.00769)
(-16193.2 2397.45 -5464.4 -3986.44 -14929.2 -9.09416)
(-16645 165.413 -2788.96 -3534.44 -15651.3 -9.08535)
(-16306.2 -2086.62 -28.7448 -3873.2 -15897.8 -9.0052)
(3516.03 -939.309 952.655 6729.52 10029.6 23450)
(3934.29 -1432.2 -803.444 6311.51 10042.7 23450.1)
(4495.66 -1752.35 -2535.12 5749.83 9750.58 23449.9)
(5132.93 -1861.18 -4189.86 5112.73 9162.2 23450)
(5768.77 -1745.43 -5717.1 4476.69 8295.42 23450)
(6326.87 -1419.25 -7070.82 3918.72 7176.65 23449.9)
(6739.77 -921.844 -8209.55 3506.08 5839.83 23450.1)
(6957.4 -313.258 -9098.94 3288.11 4325.52 23449.9)
(6953.9 333.142 -9711.77 3291.67 2679.76 23450)
(6729.52 939.309 -10029.6 3516.03 952.655 23450)
(6311.51 1432.2 -10042.7 3934.29 -803.444 23450.1)
(5749.83 1752.35 -9750.58 4495.66 -2535.12 23449.9)
(5112.73 1861.18 -9162.2 5132.93 -4189.86 23450)
(4476.69 1745.43 -8295.42 5768.77 -5717.1 23450)
(3918.72 1419.25 -7176.65 6326.87 -7070.82 23449.9)
(3506.08 921.844 -5839.83 6739.77 -8209.55 23450.1)
(3288.11 313.259 -4325.52 6957.4 -9098.94 23449.9)
(3291.67 -333.142 -2679.76 6953.9 -9711.77 23450)
(3516.03 -939.309 -952.655 6729.52 -10029.6 23450)
(3934.29 -1432.2 803.444 6311.51 -10042.7 23450.1)
(4495.66 -1752.35 2535.12 5749.83 -9750.58 23449.9)
(5132.93 -1861.18 4189.86 5112.73 -9162.2 23450)
(5768.77 -1745.43 5717.1 4476.69 -8295.42 23450)
(6326.87 -1419.25 7070.82 3918.72 -7176.65 23449.9)
(6739.77 -921.844 8209.55 3506.08 -5839.83 23450.1)
(6957.4 -313.259 9098.94 3288.11 -4325.52 23449.9)
(6953.9 333.142 9711.77 3291.67 -2679.76 23450)
(6729.52 939.309 10029.6 3516.03 -952.655 23450)
(6311.51 1432.2 10042.7 3934.29 803.444 23450.1)
(5749.83 1752.35 9750.58 4495.66 2535.12 23449.9)
(5112.73 1861.18 9162.2 5132.93 4189.86 23450)
(4476.69 1745.43 8295.42 5768.77 5717.1 23450)
(3918.72 1419.25 7176.65 6326.87 7070.82 23449.9)
(3506.08 921.844 5839.83 6739.77 8209.55 23450.1)
(3288.11 313.258 4325.52 6957.4 9098.94 23449.9)
(3291.67 -333.142 2679.76 6953.9 9711.77 23450)
(-2208.39 -5287.76 -492.735 24106.8 4728.97 -5796.44)
(393.491 -9469.04 -1306.43 21504.6 4571.57 -5796.58)
(4268.82 -12508.2 -2080.41 17629.5 4275.2 -5796.47)
(8949.7 -14038.7 -2791.18 12948.5 3848.99 -5796.57)
(13871.7 -13875.9 -3417.2 8026.45 3305.9 -5796.5)
(18441.4 -12039.5 -3939.27 3456.98 2662.24 -5796.48)
(22107.2 -8750.92 -4341.73 -209.073 1937.75 -5796.6)
(24427.4 -4406.86 -4612.31 -2529.02 1154.39 -5796.44)
(25121.7 468.751 -4742.69 -3223.48 335.924 -5796.51)
(24106.8 5287.76 -4728.97 -2208.39 -492.735 -5796.44)
(21504.6 9469.04 -4571.57 393.491 -1306.43 -5796.58)
(17629.5 12508.2 -4275.2 4268.82 -2080.41 -5796.47)
(12948.5 14038.7 -3848.99 8949.7 -2791.18 -5796.57)
(8026.45 13875.9 -3305.9 13871.7 -3417.2 -5796.5)
(3456.98 12039.5 -2662.24 18441.4 -3939.27 -5796.48)
(-209.073 8750.92 -1937.75 22107.2 -4341.73 -5796.6)
(-2529.01 4406.86 -1154.39 24427.4 -4612.31 -5796.44)
(-3223.48 -468.751 -335.924 25121.7 -4742.69 -5796.51)
(-2208.39 -5287.76 492.734 24106.8 -4728.97 -5796.44)
(393.491 -9469.04 1306.43 21504.6 -4571.57 -5796.58)
(4268.82 -12508.2 2080.41 17629.5 -4275.2 -5796.47)
(8949.7 -14038.7 2791.18 12948.5 -3848.99 -5796.57)
(13871.7 -13875.9 3417.2 8026.45 -3305.9 -5796.5)
(18441.4 -12039.5 3939.27 3456.98 -2662.24 -5796.48)
(22107.2 -8750.92 4341.73 -209.073 -1937.75 -5796.6)
(24427.4 -4406.86 4612.31 -2529.02 -1154.39 -5796.44)
(25121.7 468.751 4742.69 -3223.48 -335.924 -5796.51)
(24106.8 5287.76 4728.97 -2208.39 492.735 -5796.44)
(21504.6 9469.04 4571.57 393.491 1306.43 -5796.58)
(17629.5 12508.2 4275.2 4268.82 2080.41 -5796.47)
(12948.5 14038.7 3848.99 8949.7 2791.18 -5796.57)
(8026.45 13875.9 3305.9 13871.7 3417.2 -5796.5)
(3456.98 12039.5 2662.24 18441.4 3939.27 -5796.48)
(-209.073 8750.92 1937.74 22107.2 4341.73 -5796.6)
(-2529.02 4406.86 1154.39 24427.4 4612.31 -5796.45)
(-3223.48 -468.751 335.924 25121.7 4742.69 -5796.51)
(-13283.1 -5374.79 3725.56 -4384.53 -15418 78.4693)
(-11176.4 -6572.38 6346.28 -6491.1 -14536.8 78.6637)
(-8787.27 -6977.27 8774.16 -8880.31 -13213.9 78.5493)
(-6403.7 -6540.56 10935.4 -11263.9 -11489.5 78.6126)
(-4313.23 -5314.99 12764.4 -13354.3 -9416.09 78.5965)
(-2768.05 -3448.34 14205.6 -14899.5 -7056.52 78.6072)
(-1954.45 -1165.79 15215.1 -15713.2 -4482.55 78.5277)
(-1970.69 1257.4 15762.4 -15697 -1772.36 78.5347)
(-2814.48 3528.94 15830.7 -14853 991.69 78.5413)
(-4384.53 5374.79 15418 -13283.1 3725.56 78.4703)
(-6491.1 6572.38 14536.8 -11176.4 6346.28 78.6647)
(-8880.31 6977.27 13213.9 -8787.27 8774.16 78.5503)
(-11263.9 6540.56 11489.5 -6403.7 10935.4 78.6135)
(-13354.3 5314.99 9416.09 -4313.23 12764.4 78.5973)
(-14899.5 3448.34 7056.52 -2768.04 14205.6 78.6078)
(-15713.2 1165.79 4482.55 -1954.45 15215.1 78.5282)
(-15697 -1257.4 1772.36 -1970.69 15762.4 78.535)
(-14853 -3528.94 -991.691 -2814.48 15830.7 78.5415)
(-13283.1 -5374.79 -3725.56 -4384.53 15418 78.4702)
(-11176.4 -6572.38 -6346.28 -6491.1 14536.8 78.6644)
(-8787.27 -6977.27 -8774.16 -8880.31 13213.9 78.5498)
(-6403.7 -6540.56 -10935.4 -11263.9 11489.5 78.6128)
(-4313.23 -5314.99 -12764.4 -13354.3 9416.09 78.5965)
(-2768.05 -3448.34 -14205.6 -14899.5 7056.52 78.6068)
(-1954.45 -1165.79 -15215.1 -15713.2 4482.55 78.527)
(-1970.69 1257.4 -15762.4 -15697 1772.36 78.5338)
(-2814.48 3528.94 -15830.7 -14853 -991.69 78.5403)
(-4384.53 5374.79 -15418 -13283.1 -3725.56 78.469)
(-6491.11 6572.38 -14536.8 -11176.4 -6346.28 78.6633)
(-8880.31 6977.27 -13213.9 -8787.27 -8774.16 78.5488)
(-11263.9 6540.56 -11489.5 -6403.7 -10935.4 78.612)
(-13354.3 5314.99 -9416.09 -4313.23 -12764.4 78.5958)
(-14899.5 3448.34 -7056.52 -2768.05 -14205.6 78.6064)
(-15713.2 1165.79 -4482.55 -1954.45 -15215.1 78.5268)
(-15697 -1257.4 -1772.36 -1970.69 -15762.4 78.5337)
(-14853 -3528.94 991.69 -2814.48 -15830.7 78.5403)
(3206.42 -490.39 2182.93 5887.42 10174.7 22025.5)
(3455.05 -919.275 382.974 5638.9 10399.2 22025.6)
(3835.21 -1237.28 -1428.61 5258.52 10307.7 22025.6)
(4301.41 -1406.11 -3196.91 4792.58 9903.05 22025.6)
(4797.08 -1405.29 -4867.98 4296.74 9197.42 22025.6)
(5262.66 -1235 -6391.16 3831.22 8212.41 22025.5)
(5641.84 -915.688 -7720.03 3452.01 6977.84 22025.6)
(5888.94 -486.007 -8814.47 3204.78 5531.27 22025.5)
(5974.34 2.34275 -9641.07 3119.58 3916.58 22025.6)
(5887.42 490.39 -10174.7 3206.42 2182.93 22025.5)
(5638.9 919.275 -10399.2 3455.05 382.974 22025.6)
(5258.52 1237.28 -10307.7 3835.21 -1428.61 22025.6)
(4792.58 1406.11 -9903.05 4301.41 -3196.91 22025.6)
(4296.74 1405.29 -9197.42 4797.08 -4867.98 22025.6)
(3831.22 1235 -8212.41 5262.66 -6391.16 22025.5)
(3452.01 915.688 -6977.84 5641.84 -7720.03 22025.6)
(3204.78 486.008 -5531.28 5888.94 -8814.47 22025.5)
(3119.58 -2.34261 -3916.58 5974.34 -9641.07 22025.6)