/*--------------------------------*- C++ -*----------------------------------*\
| =========                 |                                                 |
| \\      /  F ield         | OpenFOAM: The Open Source CFD Toolbox           |
|  \\    /   O peration     | Version:  2312                                  |
|   \\  /    A nd           | Website:  www.openfoam.com                      |
|    \\/     M anipulation  |                                                 |
\*---------------------------------------------------------------------------*/
FoamFile
{
    version     2.0;
    format      ascii;
    arch        "LSB;label=32;scalar=64";
    class       volVectorField;
    location    "0.5";
    object      traction;
}
// * * * * * * * * * * * * * * * * * * * * * * * * * * * * * * * * * * * * * //

dimensions      [1 -1 -2 0 0 0 0];

internalField   uniform (0 0 0);

boundaryField
{
    fixed
    {
        type            calculated;
        value           nonuniform List<vector> 
108
(
(-355.429 -1279.67 -9484.88)
(-127.818 -1321.95 -9484.84)
(103.68 -1324.06 -9484.84)
(332.023 -1285.95 -9484.98)
(550.278 -1208.75 -9485)
(751.815 -1094.84 -9484.95)
(930.513 -947.647 -9484.92)
(1080.93 -771.666 -9484.91)
(1198.51 -572.243 -9484.89)
(1279.67 -355.429 -9484.88)
(1321.95 -127.818 -9484.84)
(1324.06 103.68 -9484.84)
(1285.95 332.023 -9484.98)
(1208.75 550.278 -9484.99)
(1094.84 751.815 -9484.94)
(947.647 930.513 -9484.92)
(771.666 1080.93 -9484.91)
(572.243 1198.51 -9484.89)
(355.429 1279.67 -9484.88)
(127.818 1321.95 -9484.84)
(-103.68 1324.06 -9484.84)
(-332.023 1285.95 -9484.98)
(-550.278 1208.75 -9485)
(-751.816 1094.84 -9484.95)
(-930.513 947.647 -9484.92)
(-1080.93 771.666 -9484.91)
(-1198.51 572.243 -9484.89)
(-1279.67 355.429 -9484.88)
(-1321.95 127.818 -9484.84)
(-1324.06 -103.68 -9484.84)
(-1285.95 -332.023 -9484.98)
(-1208.75 -550.278 -9485)
(-1094.84 -751.815 -9484.95)
(-947.647 -930.513 -9484.92)
(-771.666 -1080.93 -9484.92)
(-572.243 -1198.51 -9484.89)
(-278.212 -1319.64 -16961.6)
(-44.8337 -1347.9 -16961.5)
(189.911 -1335.21 -16961.5)
(418.881 -1281.94 -16961.5)
(635.121 -1189.73 -16961.6)
(832.066 -1061.37 -16961.6)
(1003.73 -900.752 -16961.5)
(1144.9 -712.771 -16961.5)
(1251.28 -503.137 -16961.6)
(1319.64 -278.212 -16961.6)
(1347.9 -44.8336 -16961.5)
(1335.21 189.912 -16961.5)
(1281.94 418.881 -16961.5)
(1189.73 635.121 -16961.6)
(1061.37 832.066 -16961.6)
(900.752 1003.73 -16961.5)
(712.771 1144.9 -16961.5)
(503.137 1251.28 -16961.6)
(278.212 1319.64 -16961.6)
(44.8336 1347.9 -16961.5)
(-189.912 1335.21 -16961.5)
(-418.881 1281.94 -16961.5)
(-635.121 1189.73 -16961.6)
(-832.066 1061.37 -16961.6)
(-1003.73 900.752 -16961.5)
(-1144.9 712.771 -16961.5)
(-1251.28 503.137 -16961.6)
(-1319.64 278.212 -16961.6)
(-1347.9 44.8336 -16961.5)
(-1335.21 -189.912 -16961.5)
(-1281.94 -418.881 -16961.5)
(-1189.73 -635.121 -16961.6)
(-1061.37 -832.066 -16961.6)
(-900.752 -1003.73 -16961.5)
(-712.771 -1144.9 -16961.6)
(-503.137 -1251.28 -16961.6)
(-22.841 -1289.96 -35994.4)
(201.502 -1274.33 -35994.4)
(419.736 -1219.97 -35994.5)
(625.204 -1128.55 -35994.4)
(811.672 -1002.85 -35994.5)
(973.484 -846.663 -35994.4)
(1105.72 -664.753 -35994.4)
(1204.35 -462.646 -35994.5)
(1266.39 -246.492 -35994.4)
(1289.96 -22.841 -35994.4)
(1274.33 201.502 -35994.4)
(1219.97 419.736 -35994.5)
(1128.55 625.204 -35994.4)
(1002.85 811.672 -35994.5)
(846.663 973.484 -35994.4)
(664.753 1105.72 -35994.4)
(462.646 1204.35 -35994.5)
(246.492 1266.39 -35994.4)
(22.8409 1289.96 -35994.4)
(-201.502 1274.33 -35994.4)
(-419.736 1219.97 -35994.5)
(-625.204 1128.55 -35994.4)
(-811.672 1002.85 -35994.5)
(-973.484 846.663 -35994.4)
(-1105.72 664.753 -35994.4)
(-1204.35 462.646 -35994.5)
(-1266.39 246.492 -35994.4)
(-1289.96 22.8409 -35994.4)
(-1274.33 -201.502 -35994.4)
(-1219.97 -419.736 -35994.5)
(-1128.55 -625.204 -35994.4)
(-1002.85 -811.672 -35994.5)
(-846.663 -973.484 -35994.4)
(-664.753 -1105.72 -35994.4)
(-462.646 -1204.35 -35994.5)
(-246.492 -1266.39 -35994.4)
)
;
    }
    inside
    {
        type            calculated;
        value           nonuniform List<vector> 
540
(
(34612.2 3873.96 6225.54)
(33413.7 9825.36 6225.33)
(31199.9 15478.5 6225.53)
(28038.1 20661.1 6225.44)
(24024.4 25216 6225.41)
(19280.7 29004.6 6225.47)
(13951.2 31912 6225.36)
(8197.66 33849.9 6225.51)
(2195.23 34759.1 6225.51)
(-3873.96 34612.2 6225.54)
(-9825.36 33413.7 6225.33)
(-15478.5 31199.9 6225.52)
(-20661.1 28038 6225.43)
(-25216 24024.4 6225.4)
(-29004.6 19280.7 6225.47)
(-31912 13951.2 6225.36)
(-33849.9 8197.66 6225.51)
(-34759.1 2195.23 6225.5)
(-34612.2 -3873.96 6225.54)
(-33413.7 -9825.36 6225.33)
(-31199.9 -15478.5 6225.52)
(-28038 -20661.1 6225.43)
(-24024.4 -25216 6225.4)
(-19280.7 -29004.6 6225.47)
(-13951.2 -31912 6225.36)
(-8197.66 -33849.9 6225.51)
(-2195.23 -34759.1 6225.51)
(3873.96 -34612.2 6225.54)
(9825.36 -33413.7 6225.33)
(15478.5 -31199.9 6225.52)
(20661.1 -28038.1 6225.44)
(25216 -24024.4 6225.41)
(29004.6 -19280.7 6225.47)
(31912 -13951.2 6225.36)
(33849.9 -8197.66 6225.51)
(34759.1 -2195.23 6225.51)
(18485.5 1617.86 2795.98)
(17923.7 4803.32 2795.88)
(16817.3 7842.7 2795.94)
(15199.9 10643.9 2796.02)
(13120.6 13121.5 2796.01)
(10642.7 15200.4 2795.99)
(7841.57 16817.8 2795.95)
(4802.11 17924 2795.92)
(1616.63 18485.6 2795.88)
(-1617.86 18485.5 2795.98)
(-4803.32 17923.7 2795.88)
(-7842.7 16817.3 2795.94)
(-10643.9 15199.9 2796.01)
(-13121.5 13120.6 2796.01)
(-15200.4 10642.7 2795.99)
(-16817.8 7841.57 2795.95)
(-17924 4802.11 2795.92)
(-18485.6 1616.63 2795.88)
(-18485.5 -1617.86 2795.98)
(-17923.7 -4803.32 2795.88)
(-16817.3 -7842.7 2795.94)
(-15199.9 -10643.9 2796.01)
(-13120.6 -13121.5 2796.01)
(-10642.7 -15200.4 2795.99)
(-7841.57 -16817.8 2795.95)
(-4802.11 -17924 2795.92)
(-1616.63 -18485.6 2795.88)
(1617.86 -18485.5 2795.98)
(4803.32 -17923.7 2795.88)
(7842.7 -16817.3 2795.94)
(10643.9 -15199.9 2796.02)
(13121.5 -13120.6 2796.01)
(15200.4 -10642.7 2795.99)
(16817.8 -7841.57 2795.95)
(17924 -4802.11 2795.92)
(18485.6 -1616.63 2795.89)
(17272.7 1453.35 1792.68)
(16757.9 4430.66 1792.75)
(15733.8 7273.24 1792.66)
(14231.9 9894.97 1792.58)
(12297.5 12216 1792.61)
(9989.34 14165.9 1792.61)
(7377.7 15685.3 1792.67)
(4541.89 16728 1792.76)
(1568.09 17262.6 1792.65)
(-1453.35 17272.7 1792.68)
(-4430.66 16757.9 1792.75)
(-7273.24 15733.8 1792.66)
(-9894.97 14231.9 1792.58)
(-12216 12297.5 1792.61)
(-14165.9 9989.34 1792.61)
(-15685.3 7377.7 1792.67)
(-16728 4541.89 1792.76)
(-17262.6 1568.09 1792.65)
(-17272.7 -1453.35 1792.68)
(-16757.9 -4430.66 1792.75)
(-15733.8 -7273.24 1792.66)
(-14231.9 -9894.97 1792.58)
(-12297.5 -12216 1792.61)
(-9989.34 -14165.9 1792.61)
(-7377.7 -15685.3 1792.67)
(-4541.89 -16728 1792.76)
(-1568.09 -17262.6 1792.65)
(1453.35 -17272.7 1792.68)
(4430.66 -16757.9 1792.75)
(7273.24 -15733.8 1792.66)
(9894.97 -14231.9 1792.58)
(12216 -12297.5 1792.61)
(14165.9 -9989.34 1792.61)
(15685.3 -7377.7 1792.67)
(16728 -4541.89 1792.76)
(17262.6 -1568.09 1792.66)
(15690.8 1141.57 629.595)
(15254.3 3848.92 629.569)
(14354.1 6439.26 629.591)
(13017.9 8834.07 629.635)
(11286.1 10960.4 629.601)
(9211.38 12753.6 629.623)
(6856.8 14159.5 629.594)
(4293.88 15135 629.548)
(1600.5 15650.7 629.642)
(-1141.57 15690.8 629.595)
(-3848.92 15254.3 629.568)
(-6439.26 14354.1 629.59)
(-8834.07 13017.9 629.634)
(-10960.4 11286.1 629.601)
(-12753.6 9211.38 629.622)
(-14159.5 6856.8 629.593)
(-15135 4293.88 629.547)
(-15650.7 1600.5 629.642)
(-15690.8 -1141.57 629.594)
(-15254.3 -3848.92 629.568)
(-14354.1 -6439.26 629.59)
(-13017.9 -8834.07 629.634)
(-11286.1 -10960.4 629.601)
(-9211.38 -12753.6 629.622)
(-6856.8 -14159.5 629.594)
(-4293.88 -15135 629.548)
(-1600.5 -15650.7 629.642)
(1141.57 -15690.8 629.595)
(3848.92 -15254.3 629.568)
(6439.26 -14354.1 629.591)
(8834.07 -13017.9 629.635)
(10960.4 -11286.1 629.602)
(12753.6 -9211.38 629.623)
(14159.5 -6856.8 629.594)
(15135 -4293.88 629.548)
(15650.7 -1600.5 629.643)
(14444.9 774.659 -618)
(14090.8 3271.09 -617.913)
(13308.7 5668.36 -617.97)
(12122.3 7893.24 -617.975)
(10567.4 9878.32 -617.959)
(8691.54 11563.3 -617.985)
(6551.59 12896.9 -617.964)
(4212.46 13838.7 -617.952)
(1745.48 14359.9 -617.95)
(-774.659 14444.9 -618)
(-3271.09 14090.8 -617.914)
(-5668.36 13308.7 -617.971)
(-7893.24 12122.3 -617.976)
(-9878.32 10567.4 -617.959)
(-11563.3 8691.54 -617.985)
(-12896.9 6551.59 -617.965)
(-13838.7 4212.46 -617.953)
(-14359.9 1745.48 -617.95)
(-14444.9 -774.659 -618.001)
(-14090.8 -3271.09 -617.914)
(-13308.7 -5668.36 -617.971)
(-12122.3 -7893.24 -617.976)
(-10567.4 -9878.32 -617.959)
(-8691.54 -11563.3 -617.985)
(-6551.59 -12896.9 -617.964)
(-4212.46 -13838.7 -617.952)
(-1745.48 -14359.9 -617.95)
(774.659 -14444.9 -618)
(3271.09 -14090.8 -617.913)
(5668.36 -13308.7 -617.97)
(7893.24 -12122.3 -617.975)
(9878.32 -10567.4 -617.958)
(11563.3 -8691.54 -617.985)
(12896.9 -6551.59 -617.964)
(13838.7 -4212.46 -617.952)
(14359.9 -1745.48 -617.949)
(13059.4 118.793 -1889.4)
(12840.3 2384.67 -1889.41)
(12231.2 4578.23 -1889.43)
(11250.3 6632.56 -1889.48)
(9927.72 8485.42 -1889.49)
(8303.45 10080.5 -1889.49)
(6426.8 11369.1 -1889.47)
(4354.93 12312.5 -1889.46)
(2150.76 12881.6 -1889.38)
(-118.793 13059.3 -1889.4)
(-2384.67 12840.3 -1889.41)
(-4578.23 12231.2 -1889.43)
(-6632.56 11250.3 -1889.48)
(-8485.42 9927.72 -1889.49)
(-10080.5 8303.45 -1889.49)
(-11369.1 6426.8 -1889.47)
(-12312.5 4354.93 -1889.46)
(-12881.6 2150.76 -1889.38)
(-13059.3 -118.793 -1889.4)
(-12840.3 -2384.67 -1889.41)
(-12231.2 -4578.23 -1889.43)
(-11250.3 -6632.56 -1889.48)
(-9927.72 -8485.42 -1889.49)
(-8303.45 -10080.5 -1889.49)
(-6426.8 -11369.1 -1889.47)
(-4354.93 -12312.5 -1889.46)
(-2150.76 -12881.6 -1889.38)
(118.793 -13059.4 -1889.4)
(2384.67 -12840.3 -1889.41)
(4578.23 -12231.2 -1889.43)
(6632.56 -11250.3 -1889.48)
(8485.42 -9927.72 -1889.49)
(10080.5 -8303.45 -1889.49)
(11369.1 -6426.8 -1889.47)
(12312.5 -4354.93 -1889.46)
(12881.6 -2150.76 -1889.38)
(11413.9 -949.389 -3061.67)
(11405.2 1046.93 -3061.64)
(11050.2 3011.63 -3061.59)
(10359.4 4884.64 -3061.52)
(9353.79 6609.36 -3061.56)
(8063.97 8133.27 -3061.56)
(6529.17 9409.93 -3061.58)
(4795.93 10400.8 -3061.68)
(2917.04 11075.4 -3061.65)
(949.39 11413.9 -3061.67)
(-1046.93 11405.2 -3061.64)
(-3011.62 11050.2 -3061.6)
(-4884.63 10359.4 -3061.52)
(-6609.36 9353.79 -3061.56)
(-8133.26 8063.97 -3061.56)
(-9409.93 6529.17 -3061.58)
(-10400.8 4795.93 -3061.68)
(-11075.4 2917.04 -3061.65)
(-11413.9 949.39 -3061.67)
(-11405.2 -1046.93 -3061.64)
(-11050.2 -3011.63 -3061.6)
(-10359.4 -4884.64 -3061.52)
(-9353.79 -6609.36 -3061.56)
(-8063.97 -8133.27 -3061.56)
(-6529.17 -9409.93 -3061.58)
(-4795.93 -10400.8 -3061.68)
(-2917.04 -11075.5 -3061.65)
(-949.389 -11413.9 -3061.67)
(1046.93 -11405.2 -3061.64)
(3011.63 -11050.2 -3061.59)
(4884.64 -10359.4 -3061.52)
(6609.36 -9353.79 -3061.56)
(8133.27 -8063.97 -3061.56)
(9409.93 -6529.17 -3061.58)
(10400.8 -4795.93 -3061.68)
(11075.5 -2917.04 -3061.65)
(9431.43 -2548.16 -3973.85)
(9730.6 -871.797 -3973.82)
(9734.1 831.168 -3973.91)
(9441.92 2508.79 -3973.88)
(8862.82 4110.35 -3973.9)
(8014.39 5587 -3973.93)
(6922.52 6893.78 -3973.91)
(5620.22 7991.1 -3973.86)
(4147.26 8845.63 -3973.84)
(2548.16 9431.43 -3973.85)
(871.798 9730.6 -3973.82)
(-831.168 9734.1 -3973.91)
(-2508.79 9441.92 -3973.88)
(-4110.35 8862.82 -3973.9)
(-5587 8014.39 -3973.93)
(-6893.78 6922.52 -3973.91)
(-7991.1 5620.22 -3973.86)
(-8845.63 4147.26 -3973.84)
(-9431.43 2548.16 -3973.86)
(-9730.6 871.797 -3973.82)
(-9734.1 -831.168 -3973.91)
(-9441.92 -2508.79 -3973.88)
(-8862.82 -4110.35 -3973.9)
(-8014.39 -5587 -3973.93)
(-6922.52 -6893.78 -3973.91)
(-5620.22 -7991.11 -3973.86)
(-4147.26 -8845.63 -3973.84)
(-2548.16 -9431.43 -3973.85)
(-871.796 -9730.6 -3973.82)
(831.169 -9734.1 -3973.91)
(2508.79 -9441.92 -3973.88)
(4110.35 -8862.82 -3973.9)
(5587 -8014.39 -3973.93)
(6893.78 -6922.52 -3973.91)
(7991.11 -5620.22 -3973.86)
(8845.63 -4147.26 -3973.84)
(7141.27 -4697.02 -4443.52)
(7848.54 -3385.66 -4443.48)
(8317.18 -1971.32 -4443.47)
(8533.15 -497.039 -4443.53)
(8489.82 992.265 -4443.56)
(8188.53 2451.35 -4443.52)
(7638.46 3836.04 -4443.48)
(6856.25 5104.16 -4443.48)
(5865.84 6217.31 -4443.56)
(4697.02 7141.27 -4443.52)
(3385.66 7848.54 -4443.48)
(1971.32 8317.18 -4443.47)
(497.04 8533.15 -4443.54)
(-992.265 8489.82 -4443.56)
(-2451.35 8188.54 -4443.53)
(-3836.04 7638.46 -4443.48)
(-5104.16 6856.25 -4443.48)
(-6217.31 5865.84 -4443.56)
(-7141.27 4697.02 -4443.53)
(-7848.54 3385.66 -4443.48)
(-8317.18 1971.32 -4443.47)
(-8533.16 497.038 -4443.54)
(-8489.82 -992.267 -4443.56)
(-8188.54 -2451.35 -4443.53)
(-7638.46 -3836.04 -4443.48)
(-6856.25 -5104.16 -4443.48)
(-5865.84 -6217.31 -4443.56)
(-4697.02 -7141.27 -4443.52)
(-3385.66 -7848.55 -4443.48)
(-1971.32 -8317.18 -4443.47)
(-497.038 -8533.16 -4443.53)
(992.267 -8489.82 -4443.56)
(2451.35 -8188.54 -4443.52)
(3836.04 -7638.46 -4443.48)
(5104.16 -6856.25 -4443.48)
(6217.31 -5865.84 -4443.56)
(4714.68 -7173.29 -4332.83)
(5888.78 -6245.62 -4332.88)
(6883.86 -5128.2 -4332.85)
(7669.79 -3854.84 -4332.85)
(8222.66 -2464.54 -4332.78)
(8525.7 -999.291 -4332.79)
(8569.64 496.331 -4332.81)
(8353.25 1976.98 -4332.87)
(7883.11 3397.54 -4332.87)
(7173.29 4714.68 -4332.83)
(6245.62 5888.78 -4332.88)
(5128.2 6883.86 -4332.84)
(3854.84 7669.79 -4332.85)
(2464.54 8222.66 -4332.78)
(999.291 8525.7 -4332.79)
(-496.332 8569.64 -4332.82)
(-1976.98 8353.25 -4332.87)
(-3397.54 7883.11 -4332.87)
(-4714.68 7173.29 -4332.83)
(-5888.78 6245.62 -4332.88)
(-6883.86 5128.2 -4332.85)
(-7669.79 3854.84 -4332.85)
(-8222.66 2464.54 -4332.78)
(-8525.7 999.289 -4332.79)
(-8569.64 -496.333 -4332.82)
(-8353.25 -1976.98 -4332.87)
(-7883.11 -3397.54 -4332.87)
(-7173.29 -4714.68 -4332.83)
(-6245.62 -5888.78 -4332.88)
(-5128.2 -6883.86 -4332.84)
(-3854.84 -7669.79 -4332.85)
(-2464.54 -8222.66 -4332.78)
(-999.289 -8525.7 -4332.79)
(496.333 -8569.64 -4332.82)
(1976.98 -8353.25 -4332.87)
(3397.54 -7883.11 -4332.87)
(2506.28 -9390.34 -3703.92)
(4098.9 -8812.44 -3703.99)
(5566.87 -7966.83 -3703.95)
(6865.7 -6879 -3704.01)
(7955.95 -5582.33 -3704)
(8804.48 -4116.03 -3703.98)
(9385.4 -2524.57 -3704)
(9681.23 -856.536 -3703.95)
(9682.93 837.644 -3703.96)
(9390.34 2506.27 -3703.92)
(8812.44 4098.91 -3703.99)
(7966.83 5566.87 -3703.96)
(6879 6865.7 -3704.01)
(5582.33 7955.95 -3704)
(4116.03 8804.48 -3703.98)
(2524.57 9385.4 -3704)
(856.535 9681.23 -3703.95)
(-837.645 9682.93 -3703.96)
(-2506.28 9390.34 -3703.92)
(-4098.91 8812.44 -3703.99)
(-5566.87 7966.83 -3703.96)
(-6865.7 6879 -3704.01)
(-7955.95 5582.33 -3704)
(-8804.48 4116.02 -3703.98)
(-9385.4 2524.57 -3704)
(-9681.23 856.534 -3703.95)
(-9682.93 -837.645 -3703.96)
(-9390.34 -2506.28 -3703.92)
(-8812.44 -4098.91 -3703.99)
(-7966.83 -5566.87 -3703.96)
(-6879 -6865.71 -3704.01)
(-5582.33 -7955.95 -3704)
(-4116.02 -8804.48 -3703.98)
(-2524.57 -9385.4 -3704)
(-856.533 -9681.23 -3703.95)
(837.647 -9682.93 -3703.96)
(997.796 -10448.1 -3017.37)
(2796.94 -10115.9 -3017.45)
(4511.15 -9476.64 -3017.44)
(6088.16 -8549.2 -3017.48)
(7480.24 -7362.19 -3017.45)
(8645.06 -5951.43 -3017.47)
(9547.11 -4359.88 -3017.39)
(10159.3 -2635.87 -3017.34)
(10462.5 -831.709 -3017.33)
(10448.1 997.792 -3017.36)
(10115.9 2796.94 -3017.45)
(9476.64 4511.15 -3017.44)
(8549.2 6088.16 -3017.48)
(7362.18 7480.24 -3017.45)
(5951.43 8645.06 -3017.47)
(4359.88 9547.11 -3017.39)
(2635.87 10159.3 -3017.34)
(831.708 10462.5 -3017.33)
(-997.793 10448.1 -3017.36)
(-2796.94 10115.9 -3017.45)
(-4511.15 9476.64 -3017.44)
(-6088.16 8549.2 -3017.48)
(-7480.24 7362.18 -3017.45)
(-8645.06 5951.43 -3017.47)
(-9547.11 4359.88 -3017.39)
(-10159.3 2635.87 -3017.34)
(-10462.5 831.708 -3017.33)
(-10448.1 -997.793 -3017.36)
(-10115.9 -2796.94 -3017.45)
(-9476.64 -4511.15 -3017.44)
(-8549.2 -6088.16 -3017.48)
(-7362.18 -7480.24 -3017.45)
(-5951.43 -8645.06 -3017.47)
(-4359.88 -9547.11 -3017.39)
(-2635.87 -10159.3 -3017.34)
(-831.705 -10462.5 -3017.33)
(968.435 -9093.28 -4018.86)
(2532.86 -8786.77 -4019.09)
(4020.24 -8213.47 -4019.09)
(5385.42 -7390.49 -4019.15)
(6586.96 -6343.12 -4019.1)
(7588.4 -5103.01 -4019.07)
(8359.18 -3707.79 -4019)
(8876.14 -2200.06 -4018.81)
(9123.27 -625.332 -4018.8)
(9093.28 968.431 -4018.85)
(8786.77 2532.86 -4019.08)
(8213.47 4020.24 -4019.09)
(7390.48 5385.42 -4019.15)
(6343.11 6586.96 -4019.11)
(5103 7588.4 -4019.08)
(3707.79 8359.18 -4019)
(2200.06 8876.14 -4018.81)
(625.331 9123.27 -4018.8)
(-968.432 9093.28 -4018.85)
(-2532.86 8786.77 -4019.08)
(-4020.24 8213.47 -4019.09)
(-5385.42 7390.48 -4019.15)
(-6586.96 6343.11 -4019.11)
(-7588.4 5103 -4019.08)
(-8359.18 3707.79 -4019)
(-8876.14 2200.06 -4018.81)
(-9123.27 625.333 -4018.79)
(-9093.28 -968.43 -4018.85)
(-8786.77 -2532.86 -4019.08)
(-8213.47 -4020.24 -4019.09)
(-7390.49 -5385.42 -4019.15)
(-6343.12 -6586.96 -4019.1)
(-5103 -7588.4 -4019.08)
(-3707.79 -8359.18 -4019.01)
(-2200.05 -8876.14 -4018.81)
(-625.327 -9123.27 -4018.8)
(1724.14 -5538.37 -8392.52)
(2659.85 -5154.92 -8392.81)
(3514.53 -4614.53 -8392.93)
(4262.5 -3934.18 -8392.87)
(4880.91 -3134.29 -8392.8)
(5351.03 -2239.11 -8392.87)
(5658.63 -1275.96 -8392.74)
(5794.13 -274.114 -8392.37)
(5753.91 736.199 -8392.42)
(5538.37 1724.13 -8392.51)
(5154.93 2659.84 -8392.8)
(4614.53 3514.53 -8392.93)
(3934.18 4262.5 -8392.87)
(3134.29 4880.91 -8392.8)
(2239.11 5351.03 -8392.87)
(1275.96 5658.63 -8392.74)
(274.113 5794.13 -8392.37)
(-736.199 5753.91 -8392.42)
(-1724.13 5538.37 -8392.51)
(-2659.84 5154.93 -8392.81)
(-3514.53 4614.53 -8392.93)
(-4262.5 3934.18 -8392.87)
(-4880.91 3134.29 -8392.8)
(-5351.04 2239.11 -8392.87)
(-5658.64 1275.96 -8392.74)
(-5794.13 274.115 -8392.37)
(-5753.91 -736.196 -8392.41)
(-5538.37 -1724.13 -8392.5)
(-5154.93 -2659.84 -8392.8)
(-4614.53 -3514.53 -8392.92)
(-3934.18 -4262.5 -8392.86)
(-3134.3 -4880.91 -8392.8)
(-2239.11 -5351.03 -8392.87)
(-1275.96 -5658.63 -8392.74)
(-274.11 -5794.13 -8392.38)
(736.203 -5753.91 -8392.42)
(5548.61 2234.01 -45368)
(5076.16 3163.51 -45367.3)
(4450 3997.22 -45369.3)
(3688.12 4709.01 -45367.6)
(2814.43 5278.08 -45368.8)
(1855.24 5686.31 -45367.5)
(839.435 5922.46 -45369.1)
(-201.455 5977.94 -45367.2)
(-1236.63 5852.15 -45368.1)
(-2234.01 5548.61 -45368)
(-3163.51 5076.16 -45367.3)
(-3997.22 4450 -45369.4)
(-4709.01 3688.12 -45367.6)
(-5278.08 2814.43 -45368.8)
(-5686.31 1855.24 -45367.6)
(-5922.47 839.433 -45369.2)
(-5977.95 -201.458 -45367.3)
(-5852.15 -1236.63 -45368.1)
(-5548.61 -2234.01 -45368)
(-5076.16 -3163.51 -45367.3)
(-4450 -3997.22 -45369.4)
(-3688.12 -4709.01 -45367.6)
(-2814.42 -5278.08 -45368.8)
(-1855.24 -5686.31 -45367.6)
(-839.431 -5922.46 -45369.2)
(201.459 -5977.94 -45367.3)
(1236.63 -5852.14 -45368.1)
(2234.01 -5548.61 -45368)
(3163.51 -5076.15 -45367.3)
(3997.21 -4449.99 -45369.3)
(4709.01 -3688.12 -45367.6)
(5278.08 -2814.42 -45368.8)
(5686.31 -1855.24 -45367.6)
(5922.46 -839.43 -45369.1)
(5977.94 201.46 -45367.3)
(5852.15 1236.63 -45368.1)
)
;
    }
    outside
    {
        type            calculated;
        value           nonuniform List<vector> 
540
(
(-8913.67 -676.243 -2067.99)
(-8660.8 -2213.71 -2068)
(-8144.78 -3684.09 -2067.98)
(-7381.38 -5042.59 -2068.03)
(-6393.67 -6247.69 -2068.06)
(-5211.68 -7262.93 -2068.04)
(-3871.25 -8057.6 -2068)
(-2413.16 -8607.44 -2067.99)
(-881.925 -8895.68 -2068)
(676.243 -8913.67 -2067.99)
(2213.71 -8660.8 -2068)
(3684.09 -8144.78 -2067.98)
(5042.59 -7381.38 -2068.03)
(6247.69 -6393.67 -2068.06)
(7262.93 -5211.68 -2068.04)
(8057.6 -3871.25 -2068)
(8607.44 -2413.16 -2067.99)
(8895.68 -881.924 -2068)
(8913.67 676.243 -2067.99)
(8660.8 2213.71 -2068)
(8144.78 3684.09 -2067.98)
(7381.38 5042.59 -2068.03)
(6393.67 6247.69 -2068.06)
(5211.68 7262.93 -2068.04)
(3871.25 8057.6 -2068)
(2413.16 8607.44 -2067.99)
(881.925 8895.68 -2068)
(-676.243 8913.67 -2067.99)
(-2213.71 8660.8 -2068)
(-3684.09 8144.78 -2067.98)
(-5042.59 7381.38 -2068.03)
(-6247.69 6393.67 -2068.06)
(-7262.93 5211.68 -2068.04)
(-8057.6 3871.25 -2068)
(-8607.44 2413.16 -2067.99)
(-8895.68 881.925 -2068)
(3683.84 2081.09 208.449)
(3266.38 2689.36 208.444)
(2749.86 3215.7 208.462)
(2149.79 3644.19 208.456)
(1484.23 3962.3 208.457)
(773.492 4159.95 208.459)
(39.4873 4230.81 208.444)
(-695.716 4173.45 208.453)
(-1410.1 3989.31 208.449)
(-2081.09 3683.84 208.449)
(-2689.36 3266.38 208.444)
(-3215.7 2749.86 208.462)
(-3644.19 2149.79 208.456)
(-3962.3 1484.23 208.457)
(-4159.94 773.492 208.459)
(-4230.81 39.4872 208.444)
(-4173.45 -695.716 208.453)
(-3989.31 -1410.1 208.449)
(-3683.84 -2081.09 208.449)
(-3266.38 -2689.36 208.444)
(-2749.86 -3215.7 208.462)
(-2149.79 -3644.19 208.456)
(-1484.23 -3962.3 208.457)
(-773.492 -4159.94 208.459)
(-39.4873 -4230.81 208.444)
(695.716 -4173.45 208.453)
(1410.1 -3989.31 208.449)
(2081.09 -3683.84 208.449)
(2689.36 -3266.38 208.444)
(3215.7 -2749.86 208.462)
(3644.19 -2149.79 208.456)
(3962.3 -1484.23 208.457)
(4159.95 -773.493 208.459)
(4230.81 -39.4874 208.444)
(4173.45 695.716 208.453)
(3989.31 1410.1 208.449)
(2113.95 2885.49 -181.325)
(1580.69 3208.79 -181.335)
(999.495 3434.59 -181.333)
(387.9 3555.9 -181.335)
(-235.412 3569.31 -181.326)
(-851.638 3474.21 -181.325)
(-1441.98 3273.39 -181.334)
(-1988.53 2973.38 -181.326)
(-2474.71 2582.79 -181.338)
(-2885.49 2113.95 -181.325)
(-3208.79 1580.69 -181.335)
(-3434.59 999.495 -181.332)
(-3555.9 387.9 -181.335)
(-3569.31 -235.412 -181.326)
(-3474.21 -851.638 -181.325)
(-3273.39 -1441.98 -181.334)
(-2973.38 -1988.53 -181.326)
(-2582.79 -2474.71 -181.338)
(-2113.95 -2885.49 -181.325)
(-1580.69 -3208.79 -181.335)
(-999.495 -3434.59 -181.332)
(-387.9 -3555.9 -181.335)
(235.412 -3569.31 -181.326)
(851.638 -3474.21 -181.325)
(1441.98 -3273.39 -181.334)
(1988.53 -2973.38 -181.326)
(2474.71 -2582.79 -181.338)
(2885.49 -2113.95 -181.325)
(3208.79 -1580.69 -181.335)
(3434.59 -999.495 -181.333)
(3555.9 -387.9 -181.335)
(3569.31 235.412 -181.326)
(3474.21 851.638 -181.325)
(3273.39 1441.98 -181.334)
(2973.38 1988.53 -181.326)
(2582.79 2474.71 -181.338)
(1663.57 3817.1 -256.613)
(975.409 4048.14 -256.619)
(257.646 4155.86 -256.617)
(-467.869 4137.5 -256.614)
(-1179.22 3993.44 -256.613)
(-1854.78 3727.99 -256.611)
(-2473.94 3349.35 -256.61)
(-3017.84 2868.68 -256.609)
(-3470.31 2301.13 -256.616)
(-3817.1 1663.57 -256.613)
(-4048.14 975.409 -256.619)
(-4155.86 257.645 -256.617)
(-4137.5 -467.869 -256.614)
(-3993.44 -1179.22 -256.613)
(-3727.99 -1854.78 -256.611)
(-3349.35 -2473.94 -256.61)
(-2868.68 -3017.84 -256.608)
(-2301.13 -3470.31 -256.616)
(-1663.57 -3817.1 -256.613)
(-975.409 -4048.14 -256.619)
(-257.646 -4155.86 -256.617)
(467.869 -4137.5 -256.614)
(1179.22 -3993.44 -256.613)
(1854.78 -3727.99 -256.611)
(2473.94 -3349.35 -256.61)
(3017.84 -2868.68 -256.609)
(3470.31 -2301.13 -256.616)
(3817.1 -1663.57 -256.613)
(4048.14 -975.409 -256.619)
(4155.86 -257.646 -256.617)
(4137.5 467.869 -256.614)
(3993.44 1179.22 -256.613)
(3727.99 1854.78 -256.611)
(3349.35 2473.94 -256.61)
(2868.68 3017.84 -256.609)
(2301.14 3470.31 -256.616)
(918.337 4672.57 -168.083)
(93.0294 4761.26 -168.1)
(-735.216 4704.83 -168.085)
(-1540.95 4505.71 -168.088)
(-2300.03 4169.7 -168.087)
(-2989.22 3707.03 -168.089)
(-3587.45 3131.74 -168.097)
(-4076.62 2460.98 -168.075)
(-4442.2 1715.76 -168.088)
(-4672.57 918.336 -168.083)
(-4761.26 93.0291 -168.1)
(-4704.83 -735.216 -168.085)
(-4505.71 -1540.95 -168.088)
(-4169.7 -2300.03 -168.087)
(-3707.03 -2989.22 -168.089)
(-3131.74 -3587.45 -168.096)
(-2460.98 -4076.62 -168.075)
(-1715.76 -4442.2 -168.088)
(-918.336 -4672.57 -168.082)
(-93.0293 -4761.26 -168.1)
(735.216 -4704.83 -168.085)
(1540.95 -4505.71 -168.088)
(2300.03 -4169.7 -168.087)
(2989.22 -3707.03 -168.089)
(3587.45 -3131.74 -168.097)
(4076.62 -2460.98 -168.075)
(4442.2 -1715.76 -168.088)
(4672.57 -918.337 -168.083)
(4761.26 -93.0294 -168.1)
(4704.83 735.216 -168.085)
(4505.71 1540.95 -168.088)
(4169.7 2300.03 -168.087)
(3707.03 2989.22 -168.089)
(3131.74 3587.45 -168.097)
(2460.98 4076.62 -168.075)
(1715.76 4442.2 -168.089)
(152.719 5512.31 90.9947)
(-806.77 5455.19 90.972)
(-1741.88 5232.2 90.9838)
(-2623.88 4850.26 90.98)
(-3426.3 4320.89 90.9902)
(-4124.57 3660.27 90.9887)
(-4697.44 2888.45 90.9837)
(-5127.68 2028.77 90.9951)
(-5402.16 1107.64 90.9833)
(-5512.31 152.719 90.995)
(-5455.19 -806.77 90.9723)
(-5232.2 -1741.88 90.984)
(-4850.26 -2623.88 90.9802)
(-4320.89 -3426.3 90.9903)
(-3660.27 -4124.57 90.9888)
(-2888.45 -4697.44 90.9838)
(-2028.77 -5127.68 90.9952)
(-1107.64 -5402.16 90.9833)
(-152.719 -5512.31 90.995)
(806.77 -5455.19 90.9722)
(1741.88 -5232.2 90.984)
(2623.88 -4850.26 90.9801)
(3426.3 -4320.89 90.9902)
(4124.57 -3660.27 90.9887)
(4697.44 -2888.45 90.9837)
(5127.68 -2028.77 90.995)
(5402.16 -1107.64 90.9831)
(5512.31 -152.719 90.9948)
(5455.19 806.769 90.9721)
(5232.2 1741.88 90.9838)
(4850.26 2623.88 90.98)
(4320.89 3426.3 90.9901)
(3660.27 4124.57 90.9886)
(2888.45 4697.44 90.9836)
(2028.77 5127.68 90.9949)
(1107.64 5402.16 90.9831)
(-735.805 6243.19 541.178)
(-1808.7 6020.58 541.175)
(-2826.84 5615.02 541.199)
(-3758.81 5039.05 541.149)
(-4576.72 4309.62 541.185)
(-5255.52 3449.24 541.21)
(-5774.62 2484.4 541.171)
(-6118.4 1443.79 541.205)
(-6276.15 359.484 541.178)
(-6243.19 -735.805 541.178)
(-6020.58 -1808.7 541.175)
(-5615.02 -2826.84 541.2)
(-5039.05 -3758.81 541.149)
(-4309.62 -4576.72 541.185)
(-3449.24 -5255.52 541.21)
(-2484.4 -5774.62 541.171)
(-1443.79 -6118.4 541.205)
(-359.484 -6276.15 541.178)
(735.805 -6243.19 541.178)
(1808.7 -6020.58 541.175)
(2826.84 -5615.02 541.2)
(3758.8 -5039.05 541.149)
(4576.72 -4309.62 541.185)
(5255.52 -3449.24 541.21)
(5774.62 -2484.41 541.171)
(6118.4 -1443.79 541.204)
(6276.15 -359.485 541.177)
(6243.19 735.804 541.178)
(6020.58 1808.7 541.175)
(5615.02 2826.84 541.199)
(5039.05 3758.8 541.149)
(4309.62 4576.72 541.184)
(3449.24 5255.52 541.21)
(2484.4 5774.62 541.171)
(1443.79 6118.4 541.204)
(359.484 6276.15 541.177)
(-1765.55 6781.44 1249.73)
(-2916.35 6371.8 1249.73)
(-3978.54 5768.65 1249.73)
(-4919.78 4990.27 1249.68)
(-5711.59 4059.99 1249.71)
(-6329.77 3006.46 1249.72)
(-6755.7 1861.65 1249.73)
(-6976.42 660.263 1249.74)
(-6985.06 -561.213 1249.76)
(-6781.44 -1765.55 1249.73)
(-6371.8 -2916.35 1249.73)
(-5768.65 -3978.54 1249.73)
(-4990.27 -4919.78 1249.68)
(-4059.99 -5711.59 1249.71)
(-3006.46 -6329.77 1249.72)
(-1861.65 -6755.7 1249.73)
(-660.264 -6976.42 1249.74)
(561.213 -6985.06 1249.76)
(1765.55 -6781.44 1249.73)
(2916.35 -6371.8 1249.73)
(3978.54 -5768.65 1249.73)
(4919.78 -4990.27 1249.68)
(5711.59 -4059.99 1249.71)
(6329.77 -3006.46 1249.72)
(6755.7 -1861.65 1249.73)
(6976.42 -660.264 1249.74)
(6985.06 561.213 1249.76)
(6781.44 1765.55 1249.73)
(6371.8 2916.35 1249.73)
(5768.65 3978.54 1249.73)
(4990.27 4919.78 1249.68)
(4059.99 5711.59 1249.71)
(3006.46 6329.77 1249.72)
(1861.65 6755.7 1249.73)
(660.264 6976.41 1249.74)
(-561.213 6985.06 1249.76)
(-2879.01 7061.24 2319.9)
(-4061.4 6454.11 2319.89)
(-5120.45 5650.91 2319.87)
(-6023.91 4675.84 2319.89)
(-6744.36 3558.73 2319.91)
(-7259.88 2333.52 2319.91)
(-7554.76 1037.36 2319.91)
(-7620.2 -290.215 2319.88)
(-7454.12 -1608.96 2319.85)
(-7061.24 -2879.01 2319.9)
(-6454.11 -4061.4 2319.89)
(-5650.91 -5120.45 2319.87)
(-4675.84 -6023.91 2319.89)
(-3558.73 -6744.36 2319.91)
(-2333.52 -7259.88 2319.91)
(-1037.36 -7554.76 2319.91)
(290.214 -7620.2 2319.88)
(1608.96 -7454.12 2319.85)
(2879.01 -7061.24 2319.9)
(4061.4 -6454.11 2319.89)
(5120.45 -5650.91 2319.87)
(6023.91 -4675.84 2319.89)
(6744.36 -3558.74 2319.91)
(7259.88 -2333.52 2319.91)
(7554.76 -1037.36 2319.91)
(7620.2 290.214 2319.88)
(7454.12 1608.96 2319.85)
(7061.24 2879.01 2319.9)
(6454.11 4061.4 2319.89)
(5650.91 5120.45 2319.87)
(4675.84 6023.91 2319.89)
(3558.73 6744.36 2319.91)
(2333.52 7259.88 2319.91)
(1037.36 7554.76 2319.91)
(-290.214 7620.2 2319.88)
(-1608.96 7454.12 2319.85)
(-3876.46 7051.48 3845.46)
(-5042.06 6271.19 3845.49)
(-6054.42 5300.39 3845.45)
(-6882.81 4168.59 3845.39)
(-7502.13 2910.05 3845.42)
(-7893.5 1563.1 3845.43)
(-8045 168.614 3845.46)
(-7952.05 -1230.88 3845.43)
(-7617.51 -2593.04 3845.43)
(-7051.48 -3876.46 3845.46)
(-6271.19 -5042.06 3845.49)
(-5300.39 -6054.42 3845.45)
(-4168.59 -6882.81 3845.39)
(-2910.05 -7502.13 3845.42)
(-1563.1 -7893.5 3845.43)
(-168.615 -8045 3845.46)
(1230.88 -7952.05 3845.43)
(2593.04 -7617.51 3845.43)
(3876.46 -7051.48 3845.46)
(5042.06 -6271.19 3845.49)
(6054.41 -5300.39 3845.45)
(6882.81 -4168.59 3845.39)
(7502.13 -2910.05 3845.42)
(7893.5 -1563.1 3845.43)
(8045 -168.615 3845.46)
(7952.05 1230.88 3845.43)
(7617.51 2593.04 3845.43)
(7051.48 3876.46 3845.46)
(6271.19 5042.06 3845.49)
(5300.39 6054.42 3845.45)
(4168.59 6882.81 3845.39)
(2910.05 7502.13 3845.42)
(1563.1 7893.5 3845.43)
(168.615 8045 3845.46)
(-1230.88 7952.05 3845.43)
(-2593.04 7617.51 3845.43)
(-4350.27 6796.18 5748.19)
(-5464.33 5937.48 5748.21)
(-6412.28 4898.28 5748.18)
(-7165.49 3710.45 5748.19)
(-7700.95 2409.81 5748.18)
(-8002.41 1035.95 5748.19)
(-8060.81 -369.305 5748.15)
(-7874.06 -1763.62 5748.23)
(-7448.18 -3104.14 5748.22)
(-6796.18 -4350.27 5748.19)
(-5937.48 -5464.33 5748.21)
(-4898.28 -6412.28 5748.18)
(-3710.45 -7165.49 5748.19)
(-2409.81 -7700.95 5748.18)
(-1035.95 -8002.41 5748.19)
(369.304 -8060.81 5748.15)
(1763.62 -7874.06 5748.23)
(3104.14 -7448.18 5748.22)
(4350.27 -6796.18 5748.19)
(5464.33 -5937.48 5748.21)
(6412.28 -4898.29 5748.18)
(7165.49 -3710.45 5748.19)
(7700.95 -2409.81 5748.18)
(8002.41 -1035.95 5748.19)
(8060.81 369.305 5748.15)
(7874.06 1763.62 5748.23)
(7448.18 3104.14 5748.22)
(6796.18 4350.27 5748.19)
(5937.48 5464.33 5748.21)
(4898.28 6412.28 5748.18)
(3710.45 7165.49 5748.19)
(2409.81 7700.95 5748.18)
(1035.95 8002.41 5748.19)
(-369.305 8060.81 5748.15)
(-1763.62 7874.06 5748.23)
(-3104.14 7448.18 5748.22)
(-3730.32 6447.87 7375.61)
(-4793.23 5702.02 7375.53)
(-5710.56 4783.12 7375.47)
(-6454.42 3718.81 7375.55)
(-7002.12 2541.51 7375.51)
(-7337.06 1286.96 7375.52)
(-7449.13 -6.55428 7375.45)
(-7334.82 -1300.06 7375.55)
(-6997.4 -2554.15 7375.72)
(-6447.87 -3730.32 7375.61)
(-5702.02 -4793.23 7375.53)
(-4783.12 -5710.56 7375.47)
(-3718.81 -6454.42 7375.55)