/*--------------------------------*- C++ -*----------------------------------*\
| =========                 |                                                 |
| \\      /  F ield         | OpenFOAM: The Open Source CFD Toolbox           |
|  \\    /   O peration     | Version:  2312                                  |
|   \\  /    A nd           | Website:  www.openfoam.com                      |
|    \\/     M anipulation  |                                                 |
\*---------------------------------------------------------------------------*/
FoamFile
{
    version     2.0;
    format      ascii;
    arch        "LSB;label=32;scalar=64";
    class       volVectorField;
    location    "0.5";
    object      U;
}
// * * * * * * * * * * * * * * * * * * * * * * * * * * * * * * * * * * * * * //

dimensions      [0 1 -1 0 0 0 0];

internalField   nonuniform List<vector> 
1620
(
(8.50594e-05 0.000105401 -6.72541e-05)
(6.54645e-05 0.000118569 -6.72544e-05)
(4.38808e-05 0.000128136 -6.72543e-05)
(2.0964e-05 0.000133809 -6.7254e-05)
(-2.59033e-06 0.000135417 -6.72541e-05)
(-2.60663e-05 0.00013291 -6.72542e-05)
(-4.87498e-05 0.000126364 -6.72535e-05)
(-6.99523e-05 0.000115979 -6.72534e-05)
(-8.90289e-05 0.00010207 -6.7254e-05)
(-0.0001054 8.50594e-05 -6.72541e-05)
(-0.000118569 6.54645e-05 -6.72544e-05)
(-0.000128136 4.38808e-05 -6.72543e-05)
(-0.000133809 2.0964e-05 -6.7254e-05)
(-0.000135417 -2.59032e-06 -6.72541e-05)
(-0.00013291 -2.60663e-05 -6.72542e-05)
(-0.000126364 -4.87498e-05 -6.72535e-05)
(-0.000115979 -6.99523e-05 -6.72534e-05)
(-0.00010207 -8.90289e-05 -6.7254e-05)
(-8.50593e-05 -0.0001054 -6.72541e-05)
(-6.54645e-05 -0.000118569 -6.72544e-05)
(-4.38808e-05 -0.000128136 -6.72543e-05)
(-2.0964e-05 -0.000133809 -6.7254e-05)
(2.59035e-06 -0.000135417 -6.72541e-05)
(2.60663e-05 -0.00013291 -6.72542e-05)
(4.87498e-05 -0.000126364 -6.72534e-05)
(6.99523e-05 -0.000115979 -6.72534e-05)
(8.9029e-05 -0.00010207 -6.7254e-05)
(0.000105401 -8.50593e-05 -6.72541e-05)
(0.000118569 -6.54645e-05 -6.72544e-05)
(0.000128136 -4.38808e-05 -6.72543e-05)
(0.000133809 -2.0964e-05 -6.7254e-05)
(0.000135417 2.59036e-06 -6.72541e-05)
(0.00013291 2.60663e-05 -6.72542e-05)
(0.000126364 4.87498e-05 -6.72534e-05)
(0.000115979 6.99523e-05 -6.72534e-05)
(0.00010207 8.9029e-05 -6.7254e-05)
(3.10452e-05 0.000216592 1.92487e-05)
(-7.03714e-06 0.000218692 1.92486e-05)
(-4.49054e-05 0.000214148 1.92487e-05)
(-8.14093e-05 0.000203096 1.92488e-05)
(-0.00011544 0.000185875 1.92488e-05)
(-0.000145963 0.000163005 1.92488e-05)
(-0.000172051 0.000135182 1.9249e-05)
(-0.000192912 0.000103252 1.92489e-05)
(-0.000207911 6.81843e-05 1.92486e-05)
(-0.000216592 3.10452e-05 1.92487e-05)
(-0.000218692 -7.03713e-06 1.92486e-05)
(-0.000214148 -4.49054e-05 1.92487e-05)
(-0.000203096 -8.14093e-05 1.92488e-05)
(-0.000185875 -0.00011544 1.92488e-05)
(-0.000163005 -0.000145963 1.92488e-05)
(-0.000135182 -0.000172051 1.9249e-05)
(-0.000103252 -0.000192912 1.92489e-05)
(-6.81843e-05 -0.00020791 1.92486e-05)
(-3.10452e-05 -0.000216592 1.92487e-05)
(7.03716e-06 -0.000218692 1.92486e-05)
(4.49054e-05 -0.000214148 1.92487e-05)
(8.14093e-05 -0.000203096 1.92488e-05)
(0.00011544 -0.000185875 1.92488e-05)
(0.000145963 -0.000163005 1.92488e-05)
(0.000172051 -0.000135182 1.9249e-05)
(0.000192912 -0.000103252 1.92489e-05)
(0.000207911 -6.81843e-05 1.92487e-05)
(0.000216592 -3.10452e-05 1.92487e-05)
(0.000218692 7.03717e-06 1.92486e-05)
(0.000214148 4.49054e-05 1.92487e-05)
(0.000203096 8.14093e-05 1.92488e-05)
(0.000185875 0.00011544 1.92488e-05)
(0.000163005 0.000145963 1.92488e-05)
(0.000135182 0.000172051 1.9249e-05)
(0.000103252 0.000192912 1.92489e-05)
(6.81843e-05 0.000207911 1.92487e-05)
(-6.60627e-05 0.000319359 4.31986e-05)
(-0.000120515 0.000303036 4.31989e-05)
(-0.000171306 0.000277505 4.31987e-05)
(-0.000216892 0.000243542 4.31987e-05)
(-0.000255887 0.00020218 4.31991e-05)
(-0.000287108 0.000154673 4.3199e-05)
(-0.000309605 0.000102468 4.31989e-05)
(-0.000322694 4.71484e-05 4.31985e-05)
(-0.000325979 -9.603e-06 4.31986e-05)
(-0.000319359 -6.60626e-05 4.31986e-05)
(-0.000303036 -0.000120515 4.31989e-05)
(-0.000277505 -0.000171306 4.31987e-05)
(-0.000243542 -0.000216892 4.31987e-05)
(-0.00020218 -0.000255887 4.31991e-05)
(-0.000154673 -0.000287108 4.3199e-05)
(-0.000102468 -0.000309605 4.31989e-05)
(-4.71484e-05 -0.000322694 4.31985e-05)
(9.60302e-06 -0.000325979 4.31986e-05)
(6.60627e-05 -0.000319359 4.31986e-05)
(0.000120515 -0.000303036 4.31989e-05)
(0.000171306 -0.000277505 4.31987e-05)
(0.000216892 -0.000243542 4.31987e-05)
(0.000255887 -0.00020218 4.31991e-05)
(0.000287108 -0.000154673 4.3199e-05)
(0.000309605 -0.000102468 4.31989e-05)
(0.000322694 -4.71484e-05 4.31985e-05)
(0.000325979 9.60305e-06 4.31986e-05)
(0.000319359 6.60627e-05 4.31986e-05)
(0.000303036 0.000120515 4.31989e-05)
(0.000277505 0.000171306 4.31987e-05)
(0.000243542 0.000216892 4.31987e-05)
(0.00020218 0.000255887 4.31991e-05)
(0.000154673 0.000287108 4.3199e-05)
(0.000102468 0.000309605 4.31989e-05)
(4.71484e-05 0.000322694 4.31985e-05)
(-9.60303e-06 0.000325979 4.31986e-05)
(0.00014717 0.000426588 -4.1864e-06)
(7.08585e-05 0.000445663 -4.18704e-06)
(-7.60646e-06 0.000451197 -4.1869e-06)
(-8.58402e-05 0.000443022 -4.18505e-06)
(-0.000161466 0.000421386 -4.1842e-06)
(-0.000232186 0.000386946 -4.18489e-06)
(-0.000295851 0.000340749 -4.1847e-06)
(-0.000350527 0.000284198 -4.18499e-06)
(-0.000394552 0.000219011 -4.18603e-06)
(-0.000426588 0.00014717 -4.18642e-06)
(-0.000445663 7.08586e-05 -4.18706e-06)
(-0.000451197 -7.60643e-06 -4.18692e-06)
(-0.000443022 -8.58402e-05 -4.18506e-06)
(-0.000421386 -0.000161466 -4.18421e-06)
(-0.000386946 -0.000232186 -4.18489e-06)
(-0.000340749 -0.000295851 -4.1847e-06)
(-0.000284197 -0.000350527 -4.18498e-06)
(-0.000219011 -0.000394552 -4.18603e-06)
(-0.00014717 -0.000426588 -4.18641e-06)
(-7.08585e-05 -0.000445663 -4.18705e-06)
(7.60651e-06 -0.000451197 -4.1869e-06)
(8.58402e-05 -0.000443022 -4.18504e-06)
(0.000161466 -0.000421386 -4.18418e-06)
(0.000232186 -0.000386946 -4.18486e-06)
(0.000295851 -0.000340749 -4.18467e-06)
(0.000350527 -0.000284197 -4.18495e-06)
(0.000394552 -0.000219011 -4.186e-06)
(0.000426588 -0.00014717 -4.18639e-06)
(0.000445663 -7.08584e-05 -4.18702e-06)
(0.000451197 7.60655e-06 -4.18688e-06)
(0.000443022 8.58403e-05 -4.18502e-06)
(0.000421386 0.000161466 -4.18417e-06)
(0.000386946 0.000232186 -4.18486e-06)
(0.000340749 0.000295851 -4.18468e-06)
(0.000284198 0.000350527 -4.18496e-06)
(0.000219011 0.000394552 -4.18601e-06)
(3.18806e-05 0.000646445 0.000147504)
(-8.08571e-05 0.000642159 0.000147504)
(-0.000191138 0.000618363 0.000147504)
(-0.000295612 0.000575779 0.000147505)
(-0.000391104 0.000515699 0.000147505)
(-0.000474712 0.000439949 0.000147505)
(-0.000543896 0.000350832 0.000147505)
(-0.000596555 0.000251055 0.000147504)
(-0.000631088 0.00014365 0.000147504)
(-0.000646445 3.18807e-05 0.000147504)
(-0.000642159 -8.0857e-05 0.000147504)
(-0.000618363 -0.000191138 0.000147504)
(-0.000575778 -0.000295612 0.000147505)
(-0.000515699 -0.000391104 0.000147505)
(-0.000439949 -0.000474712 0.000147505)
(-0.000350832 -0.000543896 0.000147505)
(-0.000251055 -0.000596555 0.000147504)
(-0.00014365 -0.000631088 0.000147504)
(-3.18806e-05 -0.000646445 0.000147504)
(8.08571e-05 -0.000642159 0.000147504)
(0.000191138 -0.000618363 0.000147504)
(0.000295612 -0.000575778 0.000147505)
(0.000391104 -0.000515699 0.000147505)
(0.000474712 -0.000439949 0.000147505)
(0.000543897 -0.000350832 0.000147505)
(0.000596555 -0.000251055 0.000147504)
(0.000631088 -0.00014365 0.000147504)
(0.000646445 -3.18806e-05 0.000147504)
(0.000642159 8.08571e-05 0.000147504)
(0.000618363 0.000191138 0.000147504)
(0.000575778 0.000295612 0.000147505)
(0.000515699 0.000391104 0.000147505)
(0.000439949 0.000474713 0.000147505)
(0.000350832 0.000543897 0.000147505)
(0.000251055 0.000596555 0.000147504)
(0.00014365 0.000631088 0.000147504)
(-0.000136317 0.000844635 0.000259001)
(-0.000280915 0.000808133 0.000259001)
(-0.000416977 0.000747075 0.000259001)
(-0.00054037 0.000663318 0.000259001)
(-0.000647344 0.000559406 0.000259001)
(-0.00073465 0.000438496 0.000259001)
(-0.000799633 0.000304264 0.000259001)
(-0.00084032 0.000160787 0.000259001)
(-0.000855474 1.24239e-05 0.000259001)
(-0.000844635 -0.000136317 0.000259001)
(-0.000808132 -0.000280915 0.000259001)
(-0.000747075 -0.000416977 0.000259001)
(-0.000663318 -0.00054037 0.000259001)
(-0.000559406 -0.000647344 0.000259001)
(-0.000438496 -0.00073465 0.000259001)
(-0.000304264 -0.000799633 0.000259001)
(-0.000160787 -0.00084032 0.000259001)
(-1.24239e-05 -0.000855474 0.000259001)
(0.000136317 -0.000844635 0.000259001)
(0.000280915 -0.000808132 0.000259001)
(0.000416977 -0.000747075 0.000259001)
(0.00054037 -0.000663317 0.000259001)
(0.000647344 -0.000559406 0.000259001)
(0.00073465 -0.000438496 0.000259001)
(0.000799633 -0.000304264 0.000259001)
(0.00084032 -0.000160787 0.000259001)
(0.000855474 -1.24238e-05 0.000259001)
(0.000844635 0.000136317 0.000259001)
(0.000808133 0.000280915 0.000259001)
(0.000747075 0.000416977 0.000259001)
(0.000663318 0.00054037 0.000259001)
(0.000559406 0.000647344 0.000259001)
(0.000438496 0.00073465 0.000259001)
(0.000304264 0.000799633 0.000259001)
(0.000160787 0.00084032 0.000259001)
(1.24239e-05 0.000855475 0.000259001)
(0.000129206 0.000778611 0.000126002)
(-7.96089e-06 0.000789218 0.000126001)
(-0.000144886 0.000775846 0.000126002)
(-0.000277409 0.0007389 0.000126004)
(-0.000401503 0.000679503 0.000126005)
(-0.000513398 0.00059946 0.000126005)
(-0.000609693 0.000501202 0.000126005)
(-0.000687463 0.000387715 0.000126004)
(-0.000744345 0.000262448 0.000126002)
(-0.000778611 0.000129206 0.000126002)
(-0.000789218 -7.96084e-06 0.000126001)
(-0.000775846 -0.000144886 0.000126002)
(-0.0007389 -0.000277409 0.000126004)
(-0.000679503 -0.000401503 0.000126005)
(-0.00059946 -0.000513398 0.000126005)
(-0.000501202 -0.000609693 0.000126005)
(-0.000387715 -0.000687463 0.000126004)
(-0.000262448 -0.000744345 0.000126002)
(-0.000129206 -0.000778611 0.000126002)
(7.96096e-06 -0.000789218 0.000126001)
(0.000144886 -0.000775846 0.000126002)
(0.000277409 -0.0007389 0.000126004)
(0.000401503 -0.000679503 0.000126005)
(0.000513398 -0.00059946 0.000126005)
(0.000609693 -0.000501202 0.000126005)
(0.000687463 -0.000387715 0.000126004)
(0.000744346 -0.000262448 0.000126002)
(0.000778611 -0.000129206 0.000126002)
(0.000789218 7.96103e-06 0.000126002)
(0.000775846 0.000144886 0.000126002)
(0.0007389 0.000277409 0.000126004)
(0.000679503 0.000401504 0.000126005)
(0.00059946 0.000513398 0.000126005)
(0.000501202 0.000609693 0.000126005)
(0.000387715 0.000687463 0.000126004)
(0.000262448 0.000744346 0.000126002)
(-3.22914e-05 0.00106102 0.000312019)
(-0.000216044 0.00103929 0.000312019)
(-0.000393232 0.000985985 0.000312019)
(-0.000558471 0.000902722 0.000312019)
(-0.000706743 0.00079203 0.00031202)
(-0.00083354 0.000657272 0.00031202)
(-0.000935011 0.000502543 0.00031202)
(-0.00100807 0.000332545 0.00031202)
(-0.0010505 0.000152443 0.000312019)
(-0.00106102 -3.22913e-05 0.000312019)
(-0.00103929 -0.000216044 0.000312019)
(-0.000985985 -0.000393232 0.000312019)
(-0.000902721 -0.000558471 0.000312019)
(-0.00079203 -0.000706743 0.00031202)
(-0.000657272 -0.00083354 0.00031202)
(-0.000502543 -0.000935011 0.00031202)
(-0.000332545 -0.00100807 0.00031202)
(-0.000152443 -0.0010505 0.000312019)
(3.22915e-05 -0.00106102 0.000312019)
(0.000216044 -0.00103929 0.000312019)
(0.000393232 -0.000985984 0.000312019)
(0.000558471 -0.000902721 0.000312019)
(0.000706743 -0.000792029 0.00031202)
(0.00083354 -0.000657272 0.00031202)
(0.000935011 -0.000502543 0.00031202)
(0.00100807 -0.000332545 0.00031202)
(0.0010505 -0.000152443 0.000312019)
(0.00106102 3.22915e-05 0.000312019)
(0.00103929 0.000216044 0.000312019)
(0.000985985 0.000393232 0.000312019)
(0.000902722 0.000558471 0.000312019)
(0.00079203 0.000706743 0.00031202)
(0.000657272 0.00083354 0.00031202)
(0.000502543 0.000935011 0.00031202)
(0.000332545 0.00100807 0.00031202)
(0.000152443 0.0010505 0.000312019)
(-0.000239896 0.00131718 0.000464509)
(-0.000464977 0.00125551 0.000464509)
(-0.000675929 0.0011557 0.000464509)
(-0.000866345 0.00102077 0.000464509)
(-0.00103044 0.000854818 0.000464509)
(-0.00116322 0.000662897 0.000464509)
(-0.00126066 0.000450835 0.000464509)
(-0.00131979 0.000225074 0.000464509)
(-0.00133883 -7.52509e-06 0.000464509)
(-0.00131718 -0.000239896 0.000464509)
(-0.00125551 -0.000464977 0.000464508)
(-0.0011557 -0.000675929 0.000464509)
(-0.00102077 -0.000866345 0.000464509)
(-0.000854818 -0.00103044 0.000464509)
(-0.000662897 -0.00116322 0.000464509)
(-0.000450834 -0.00126066 0.000464509)
(-0.000225074 -0.00131979 0.000464509)
(7.52519e-06 -0.00133883 0.000464509)
(0.000239896 -0.00131718 0.000464509)
(0.000464977 -0.00125551 0.000464509)
(0.000675929 -0.0011557 0.000464509)
(0.000866345 -0.00102077 0.000464509)
(0.00103044 -0.000854818 0.000464509)
(0.00116322 -0.000662897 0.000464509)
(0.00126066 -0.000450834 0.000464509)
(0.00131979 -0.000225074 0.000464509)
(0.00133883 7.52528e-06 0.000464509)
(0.00131718 0.000239896 0.000464509)
(0.00125551 0.000464977 0.000464509)
(0.0011557 0.000675929 0.000464509)
(0.00102077 0.000866345 0.000464509)
(0.000854818 0.00103044 0.000464509)
(0.000662897 0.00116322 0.000464509)
(0.000450835 0.00126066 0.000464509)
(0.000225074 0.00131979 0.000464509)
(-7.52517e-06 0.00133883 0.000464509)
(5.76305e-06 0.00114309 0.000263342)
(-0.00019282 0.00112673 0.000263341)
(-0.000385545 0.00107613 0.000263342)
(-0.000566554 0.000992827 0.000263343)
(-0.00073035 0.000879363 0.000263344)
(-0.000871953 0.000739179 0.000263345)
(-0.000987063 0.000576536 0.000263345)
(-0.00107218 0.000396375 0.000263344)
(-0.00112472 0.000204171 0.000263343)
(-0.00114309 5.76312e-06 0.000263342)
(-0.00112673 -0.00019282 0.000263341)
(-0.00107612 -0.000385545 0.000263342)
(-0.000992827 -0.000566554 0.000263343)
(-0.000879363 -0.000730349 0.000263344)
(-0.000739179 -0.000871953 0.000263345)
(-0.000576536 -0.000987063 0.000263345)
(-0.000396375 -0.00107218 0.000263344)
(-0.000204171 -0.00112472 0.000263343)
(-5.76296e-06 -0.00114309 0.000263342)
(0.000192821 -0.00112673 0.000263341)
(0.000385545 -0.00107612 0.000263342)
(0.000566555 -0.000992827 0.000263343)
(0.00073035 -0.000879363 0.000263344)
(0.000871954 -0.000739179 0.000263345)
(0.000987063 -0.000576536 0.000263345)
(0.00107218 -0.000396375 0.000263345)
(0.00112472 -0.000204171 0.000263343)
(0.00114309 -5.76286e-06 0.000263342)
(0.00112673 0.000192821 0.000263341)
(0.00107613 0.000385545 0.000263342)
(0.000992827 0.000566555 0.000263343)
(0.000879363 0.00073035 0.000263344)
(0.000739179 0.000871954 0.000263345)
(0.000576536 0.000987064 0.000263345)
(0.000396375 0.00107218 0.000263344)
(0.000204171 0.00112472 0.000263343)
(-0.000166914 0.00144477 0.000459126)
(-0.00041526 0.00139383 0.000459126)
(-0.000650987 0.00130055 0.000459126)
(-0.000866934 0.00116775 0.000459127)
(-0.00105654 0.000999465 0.000459127)
(-0.00121404 0.000800815 0.000459127)
(-0.00133466 0.000577832 0.000459128)
(-0.00141472 0.000337291 0.000459127)
(-0.0014518 8.65027e-05 0.000459127)
(-0.00144477 -0.000166914 0.000459126)
(-0.00139383 -0.000415259 0.000459126)
(-0.00130055 -0.000650987 0.000459126)
(-0.00116775 -0.000866934 0.000459127)
(-0.000999465 -0.00105654 0.000459127)
(-0.000800815 -0.00121404 0.000459127)
(-0.000577832 -0.00133466 0.000459128)
(-0.000337291 -0.00141472 0.000459127)
(-8.65026e-05 -0.0014518 0.000459127)
(0.000166914 -0.00144477 0.000459126)
(0.00041526 -0.00139383 0.000459126)
(0.000650987 -0.00130055 0.000459126)
(0.000866934 -0.00116775 0.000459127)
(0.00105654 -0.000999465 0.000459127)
(0.00121404 -0.000800814 0.000459127)
(0.00133466 -0.000577831 0.000459128)
(0.00141472 -0.000337291 0.000459127)
(0.0014518 -8.65025e-05 0.000459127)
(0.00144477 0.000166915 0.000459126)
(0.00139383 0.00041526 0.000459126)
(0.00130055 0.000650987 0.000459126)
(0.00116775 0.000866935 0.000459127)
(0.000999465 0.00105654 0.000459127)
(0.000800815 0.00121404 0.000459127)
(0.000577832 0.00133466 0.000459128)
(0.000337291 0.00141472 0.000459127)
(8.65027e-05 0.0014518 0.000459127)
(-0.000378969 0.00172047 0.000624738)
(-0.000671969 0.00162853 0.000624737)
(-0.00094455 0.0014871 0.000624738)
(-0.00118843 0.00130049 0.000624738)
(-0.0013962 0.00107436 0.000624738)
(-0.00156155 0.000815591 0.000624738)
(-0.00167946 0.000532039 0.000624738)
(-0.00174633 0.000232322 0.000624738)
(-0.00176014 -7.44551e-05 0.000624738)
(-0.00172047 -0.000378969 0.000624738)
(-0.00162853 -0.000671968 0.000624737)
(-0.0014871 -0.00094455 0.000624738)
(-0.00130049 -0.00118843 0.000624738)
(-0.00107436 -0.0013962 0.000624737)
(-0.000815591 -0.00156155 0.000624738)
(-0.000532039 -0.00167946 0.000624738)
(-0.000232322 -0.00174633 0.000624738)
(7.44553e-05 -0.00176014 0.000624738)
(0.000378969 -0.00172047 0.000624738)
(0.000671969 -0.00162853 0.000624737)
(0.00094455 -0.0014871 0.000624738)
(0.00118843 -0.00130049 0.000624738)
(0.0013962 -0.00107436 0.000624738)
(0.00156155 -0.000815591 0.000624738)
(0.00167946 -0.000532039 0.000624738)
(0.00174633 -0.000232321 0.000624738)
(0.00176014 7.44554e-05 0.000624738)
(0.00172047 0.00037897 0.000624738)
(0.00162853 0.000671969 0.000624738)
(0.0014871 0.00094455 0.000624738)
(0.00130049 0.00118843 0.000624738)
(0.00107436 0.0013962 0.000624738)
(0.000815591 0.00156155 0.000624738)
(0.000532039 0.00167946 0.000624738)
(0.000232322 0.00174633 0.000624738)
(-7.44552e-05 0.00176014 0.000624738)
(-0.000195552 0.00148374 0.000372559)
(-0.00045023 0.00142724 0.000372557)
(-0.000691229 0.00132738 0.000372558)
(-0.000911224 0.00118718 0.000372559)
(-0.00110353 0.00101091 0.000372559)
(-0.00126231 0.000803929 0.00037256)
(-0.00138273 0.000572518 0.00037256)
(-0.00146114 0.000323711 0.00037256)
(-0.00149516 6.50683e-05 0.00037256)
(-0.00148374 -0.000195552 0.000372559)
(-0.00142724 -0.00045023 0.000372557)
(-0.00132738 -0.000691229 0.000372558)
(-0.00118718 -0.000911223 0.000372559)
(-0.00101091 -0.00110353 0.000372559)
(-0.000803929 -0.00126231 0.00037256)
(-0.000572518 -0.00138273 0.00037256)
(-0.000323711 -0.00146114 0.00037256)
(-6.50681e-05 -0.00149516 0.00037256)
(0.000195552 -0.00148374 0.000372559)
(0.00045023 -0.00142724 0.000372557)
(0.000691229 -0.00132738 0.000372558)
(0.000911224 -0.00118718 0.000372559)
(0.00110353 -0.00101091 0.00037256)
(0.00126231 -0.000803929 0.00037256)
(0.00138273 -0.000572518 0.00037256)
(0.00146114 -0.00032371 0.00037256)
(0.00149516 -6.50679e-05 0.00037256)
(0.00148374 0.000195552 0.000372559)
(0.00142724 0.00045023 0.000372557)
(0.00132738 0.000691229 0.000372558)
(0.00118718 0.000911224 0.000372559)
(0.00101091 0.00110353 0.00037256)
(0.000803929 0.00126231 0.00037256)
(0.000572518 0.00138273 0.00037256)
(0.000323711 0.00146114 0.00037256)
(6.50682e-05 0.00149516 0.00037256)
(-0.000357869 0.00177963 0.000564019)
(-0.000661462 0.00169045 0.000564018)
(-0.000944956 0.0015499 0.000564019)
(-0.00119974 0.00136227 0.000564019)
(-0.00141807 0.00113324 0.00056402)
(-0.00159331 0.000869778 0.00056402)
(-0.00172014 0.000579889 0.00056402)
(-0.0017947 0.000272381 0.00056402)
(-0.00181473 -4.34034e-05 0.00056402)
(-0.00177963 -0.000357869 0.000564019)
(-0.00169045 -0.000661462 0.000564018)
(-0.0015499 -0.000944956 0.000564019)
(-0.00136227 -0.00119974 0.000564019)
(-0.00113324 -0.00141807 0.00056402)
(-0.000869778 -0.00159331 0.00056402)
(-0.000579889 -0.00172014 0.00056402)
(-0.000272381 -0.0017947 0.00056402)
(4.34036e-05 -0.00181473 0.00056402)
(0.00035787 -0.00177963 0.000564019)
(0.000661462 -0.00169045 0.000564018)
(0.000944956 -0.0015499 0.000564019)
(0.00119974 -0.00136227 0.000564019)
(0.00141807 -0.00113324 0.00056402)
(0.00159331 -0.000869778 0.00056402)
(0.00172014 -0.000579889 0.00056402)
(0.0017947 -0.000272381 0.00056402)
(0.00181473 4.34038e-05 0.00056402)
(0.00177963 0.00035787 0.000564019)
(0.00169045 0.000661462 0.000564019)
(0.0015499 0.000944956 0.000564019)
(0.00136227 0.00119974 0.00056402)
(0.00113324 0.00141807 0.00056402)
(0.000869778 0.00159331 0.00056402)
(0.000579889 0.00172014 0.00056402)
(0.000272381 0.0017947 0.00056402)
(-4.34035e-05 0.00181473 0.00056402)
(-0.000553237 0.00205191 0.000726987)
(-0.000901143 0.00192467 0.000726986)
(-0.00122167 0.00173895 0.000726987)
(-0.00150507 0.00150039 0.000726986)
(-0.00174275 0.00121624 0.000726987)
(-0.00192747 0.00089514 0.000726986)
(-0.00205363 0.000546839 0.000726987)
(-0.00211738 0.000181923 0.000726987)
(-0.00211681 -0.000188521 0.000726987)
(-0.00205191 -0.000553237 0.000726987)
(-0.00192467 -0.000901143 0.000726986)
(-0.00173895 -0.00122167 0.000726986)
(-0.00150039 -0.00150507 0.000726986)
(-0.00121624 -0.00174275 0.000726986)
(-0.00089514 -0.00192747 0.000726986)
(-0.000546839 -0.00205362 0.000726987)
(-0.000181923 -0.00211738 0.000726987)
(0.000188521 -0.00211681 0.000726987)
(0.000553237 -0.00205191 0.000726987)
(0.000901143 -0.00192467 0.000726986)
(0.00122167 -0.00173895 0.000726987)
(0.00150507 -0.00150039 0.000726986)
(0.00174275 -0.00121624 0.000726987)
(0.00192747 -0.00089514 0.000726987)
(0.00205363 -0.000546839 0.000726987)
(0.00211738 -0.000181923 0.000726987)
(0.00211681 0.000188521 0.000726987)
(0.00205191 0.000553237 0.000726987)
(0.00192467 0.000901143 0.000726986)
(0.00173895 0.00122167 0.000726987)
(0.00150039 0.00150507 0.000726987)
(0.00121624 0.00174275 0.000726987)
(0.00089514 0.00192747 0.000726987)
(0.000546839 0.00205363 0.000726987)
(0.000181923 0.00211738 0.000726987)
(-0.000188521 0.00211681 0.000726987)
(-0.0004335 0.00176528 0.000441315)
(-0.000733452 0.00166319 0.000441313)
(-0.00101112 0.00151056 0.000441312)
(-0.00125806 0.00131203 0.000441313)
(-0.00146678 0.00107363 0.000441314)
(-0.00163093 0.000802619 0.000441314)
(-0.00174553 0.000507217 0.000441314)
(-0.00180708 0.000196404 0.000441314)
(-0.00181374 -0.000120377 0.000441315)
(-0.00176528 -0.0004335 0.000441315)
(-0.00166318 -0.000733452 0.000441313)
(-0.00151055 -0.00101112 0.000441312)
(-0.00131203 -0.00125806 0.000441313)
(-0.00107363 -0.00146678 0.000441314)
(-0.000802619 -0.00163093 0.000441314)
(-0.000507217 -0.00174553 0.000441314)
(-0.000196403 -0.00180708 0.000441315)
(0.000120377 -0.00181374 0.000441315)
(0.0004335 -0.00176528 0.000441315)
(0.000733452 -0.00166318 0.000441313)
(0.00101112 -0.00151055 0.000441313)
(0.00125806 -0.00131203 0.000441313)
(0.00146678 -0.00107363 0.000441314)
(0.00163093 -0.000802619 0.000441314)
(0.00174553 -0.000507217 0.000441314)
(0.00180709 -0.000196403 0.000441315)
(0.00181374 0.000120377 0.000441315)
(0.00176528 0.000433501 0.000441315)
(0.00166319 0.000733452 0.000441313)
(0.00151056 0.00101112 0.000441313)
(0.00131203 0.00125806 0.000441313)
(0.00107363 0.00146678 0.000441314)
(0.000802619 0.00163093 0.000441314)
(0.000507217 0.00174553 0.000441314)
(0.000196404 0.00180709 0.000441315)
(-0.000120377 0.00181374 0.000441315)
(-0.000580865 0.00204595 0.000621257)
(-0.000927316 0.001914 0.000621257)
(-0.00124559 0.00172389 0.000621256)
(-0.00152602 0.00148141 0.000621257)
(-0.00176008 0.00119391 0.000621257)
(-0.00194066 0.000870141 0.000621257)
(-0.00206227 0.00051993 0.000621257)
(-0.00212123 0.000153921 0.000621257)
(-0.00211573 -0.000216765 0.000621258)
(-0.00204595 -0.000580865 0.000621257)
(-0.001914 -0.000927315 0.000621257)
(-0.00172389 -0.00124559 0.000621256)
(-0.00148141 -0.00152602 0.000621257)
(-0.00119391 -0.00176008 0.000621257)
(-0.00087014 -0.00194066 0.000621257)
(-0.000519929 -0.00206227 0.000621257)
(-0.000153921 -0.00212123 0.000621257)
(0.000216766 -0.00211573 0.000621258)
(0.000580865 -0.00204595 0.000621257)
(0.000927316 -0.001914 0.000621257)
(0.00124559 -0.00172389 0.000621256)
(0.00152602 -0.00148141 0.000621257)
(0.00176008 -0.00119391 0.000621257)
(0.00194066 -0.00087014 0.000621257)
(0.00206227 -0.000519929 0.000621257)
(0.00212123 -0.00015392 0.000621258)
(0.00211573 0.000216766 0.000621258)
(0.00204595 0.000580865 0.000621258)
(0.001914 0.000927316 0.000621257)
(0.00172389 0.00124559 0.000621257)
(0.00148141 0.00152602 0.000621257)
(0.00119391 0.00176008 0.000621257)
(0.00087014 0.00194066 0.000621257)
(0.00051993 0.00206227 0.000621257)
(0.000153921 0.00212123 0.000621258)
(-0.000216765 0.00211573 0.000621258)
(-0.000754139 0.00230732 0.000773184)
(-0.00114334 0.00214131 0.000773184)
(-0.00149781 0.00191024 0.000773184)
(-0.00180676 0.00162113 0.000773184)
(-0.00206082 0.00128276 0.000773184)
(-0.00225226 0.000905411 0.000773184)
(-0.00237527 0.000500556 0.000773184)
(-0.0024261 8.04908e-05 0.000773184)
(-0.00240322 -0.00034202 0.000773184)
(-0.00230732 -0.000754139 0.000773184)
(-0.00214131 -0.00114334 0.000773184)
(-0.00191024 -0.00149781 0.000773184)
(-0.00162113 -0.00180676 0.000773184)
(-0.00128276 -0.00206082 0.000773184)
(-0.000905411 -0.00225226 0.000773184)
(-0.000500556 -0.00237526 0.000773184)
(-8.04906e-05 -0.0024261 0.000773184)
(0.00034202 -0.00240322 0.000773184)
(0.000754139 -0.00230732 0.000773184)
(0.00114334 -0.00214131 0.000773184)
(0.00149781 -0.00191024 0.000773184)
(0.00180676 -0.00162113 0.000773184)
(0.00206082 -0.00128276 0.000773184)
(0.00225226 -0.000905411 0.000773184)
(0.00237527 -0.000500556 0.000773184)
(0.0024261 -8.04904e-05 0.000773184)
(0.00240322 0.000342021 0.000773184)
(0.00230732 0.000754139 0.000773184)
(0.00214131 0.00114334 0.000773184)
(0.00191024 0.00149781 0.000773184)
(0.00162113 0.00180676 0.000773184)
(0.00128276 0.00206082 0.000773184)
(0.000905411 0.00225226 0.000773184)
(0.000500556 0.00237527 0.000773184)
(8.04907e-05 0.0024261 0.000773184)
(-0.00034202 0.00240322 0.000773184)
(-0.00066445 0.00196268 0.000478812)
(-0.000995172 0.00181748 0.000478811)
(-0.00129566 0.00161706 0.00047881)
(-0.00155677 0.00136751 0.00047881)
(-0.00177059 0.0010764 0.00047881)
(-0.0019306 0.000752588 0.00047881)
(-0.00203196 0.000405909 0.000478811)
(-0.00207157 4.68965e-05 0.000478812)
(-0.00204824 -0.000313541 0.000478813)
(-0.00196268 -0.00066445 0.000478812)
(-0.00181748 -0.000995172 0.000478811)
(-0.00161706 -0.00129566 0.00047881)
(-0.00136751 -0.00155677 0.00047881)
(-0.0010764 -0.00177059 0.00047881)
(-0.000752587 -0.0019306 0.00047881)
(-0.000405909 -0.00203196 0.000478811)
(-4.68961e-05 -0.00207157 0.000478812)
(0.000313541 -0.00204824 0.000478813)
(0.000664451 -0.00196268 0.000478812)
(0.000995172 -0.00181748 0.000478811)
(0.00129566 -0.00161706 0.00047881)
(0.00155677 -0.00136751 0.00047881)
(0.00177059 -0.0010764 0.00047881)
(0.0019306 -0.000752587 0.000478811)
(0.00203196 -0.000405909 0.000478811)
(0.00207157 -4.68959e-05 0.000478812)
(0.00204824 0.000313541 0.000478813)
(0.00196268 0.000664451 0.000478812)
(0.00181748 0.000995172 0.000478811)
(0.00161706 0.00129566 0.000478811)
(0.00136751 0.00155677 0.00047881)
(0.0010764 0.00177059 0.00047881)
(0.000752588 0.0019306 0.000478811)
(0.000405909 0.00203196 0.000478811)
(4.68964e-05 0.00207157 0.000478812)
(-0.000313541 0.00204824 0.000478813)
(-0.000805215 0.00222518 0.000642094)
(-0.00117938 0.00205155 0.000642094)
(-0.00151771 0.00181558 0.000642093)
(-0.00180993 0.00152445 0.000642093)
(-0.00204715 0.001187 0.000642093)
(-0.00222217 0.000813486 0.000642093)
(-0.00232967 0.000415252 0.000642093)
(-0.00236638 4.40103e-06 0.000642094)
(-0.0023312 -0.000406585 0.000642094)
(-0.00222518 -0.000805215 0.000642094)
(-0.00205155 -0.00117938 0.000642093)
(-0.00181558 -0.00151771 0.000642093)
(-0.00152445 -0.00180993 0.000642093)
(-0.001187 -0.00204715 0.000642092)
(-0.000813486 -0.00222217 0.000642093)
(-0.000415251 -0.00232967 0.000642093)
(-4.40071e-06 -0.00236638 0.000642094)
(0.000406585 -0.0023312 0.000642094)
(0.000805215 -0.00222518 0.000642094)
(0.00117938 -0.00205155 0.000642094)
(0.00151771 -0.00181558 0.000642093)
(0.00180993 -0.00152445 0.000642093)
(0.00204715 -0.001187 0.000642093)
(0.00222217 -0.000813486 0.000642093)
(0.00232967 -0.000415251 0.000642094)
(0.00236638 -4.40052e-06 0.000642094)
(0.0023312 0.000406585 0.000642095)
(0.00222518 0.000805216 0.000642094)
(0.00205155 0.00117938 0.000642094)
(0.00181558 0.00151771 0.000642093)
(0.00152445 0.00180993 0.000642093)
(0.001187 0.00204715 0.000642093)
(0.000813486 0.00222217 0.000642093)
(0.000415252 0.00232967 0.000642093)
(4.40093e-06 0.00236638 0.000642094)
(-0.000406585 0.0023312 0.000642095)
(-0.000963036 0.00247591 0.000776475)
(-0.00137834 0.00227107 0.000776475)
(-0.00175177 0.00199722 0.000776475)
(-0.00207197 0.00166269 0.000776474)
(-0.00232921 0.00127763 0.000776474)
(-0.00251569 0.000853759 0.000776475)
(-0.00262572 0.000403944 0.000776475)
(-0.00265597 -5.81445e-05 0.000776475)
(-0.00260553 -0.000518466 0.000776475)
(-0.00247591 -0.000963036 0.000776475)
(-0.00227107 -0.00137834 0.000776475)
(-0.00199722 -0.00175177 0.000776474)
(-0.00166269 -0.00207197 0.000776474)
(-0.00127763 -0.00232921 0.000776474)
(-0.000853758 -0.00251569 0.000776475)
(-0.000403943 -0.00262572 0.000776475)
(5.81448e-05 -0.00265597 0.000776475)
(0.000518467 -0.00260553 0.000776475)
(0.000963036 -0.00247591 0.000776475)
(0.00137834 -0.00227107 0.000776475)
(0.00175177 -0.00199722 0.000776475)
(0.00207197 -0.00166269 0.000776475)
(0.00232921 -0.00127763 0.000776474)
(0.00251569 -0.000853758 0.000776475)
(0.00262572 -0.000403943 0.000776475)
(0.00265598 5.8145e-05 0.000776475)
(0.00260553 0.000518467 0.000776475)
(0.00247591 0.000963037 0.000776475)
(0.00227107 0.00137834 0.000776475)
(0.00199722 0.00175177 0.000776475)
(0.00166269 0.00207197 0.000776475)
(0.00127763 0.00232921 0.000776475)
(0.000853759 0.00251569 0.000776475)
(0.000403944 0.00262572 0.000776475)
(-5.81446e-05 0.00265598 0.000776475)
(-0.000518467 0.00260553 0.000776475)
(-0.000846299 0.00206071 0.000508725)
(-0.00119128 0.00188244 0.000508724)
(-0.00150006 0.00164698 0.000508723)
(-0.00176327 0.00136148 0.000508721)
(-0.0019729 0.0010346 0.000508721)
(-0.00212258 0.000676294 0.000508722)
(-0.00220777 0.000297437 0.000508723)
(-0.00222588 -9.04581e-05 0.000508723)
(-0.00217636 -0.000475604 0.000508725)
(-0.00206071 -0.000846298 0.000508725)