/*--------------------------------*- C++ -*----------------------------------*\
| =========                 |                                                 |
| \\      /  F ield         | OpenFOAM: The Open Source CFD Toolbox           |
|  \\    /   O peration     | Version:  2312                                  |
|   \\  /    A nd           | Website:  www.openfoam.com                      |
|    \\/     M anipulation  |                                                 |
\*---------------------------------------------------------------------------*/
FoamFile
{
    version     2.0;
    format      ascii;
    arch        "LSB;label=32;scalar=64";
    class       volVectorField;
    location    "0.4";
    object      D_0_0;
}
// * * * * * * * * * * * * * * * * * * * * * * * * * * * * * * * * * * * * * //

dimensions      [0 1 0 0 0 0 0];

internalField   nonuniform List<vector> 
1620
(
(9.39453e-05 0.000259419 4.25506e-05)
(4.74705e-05 0.000271791 4.25505e-05)
(-4.4648e-07 0.000275905 4.25506e-05)
(-4.835e-05 0.000271636 4.25509e-05)
(-9.47846e-05 0.000259114 4.25509e-05)
(-0.000138339 0.000238718 4.25508e-05)
(-0.00017769 0.000211069 4.25509e-05)
(-0.000211643 0.000177006 4.25508e-05)
(-0.000239164 0.000137566 4.25506e-05)
(-0.000259419 9.39453e-05 4.25506e-05)
(-0.000271791 4.74704e-05 4.25505e-05)
(-0.000275905 -4.46507e-07 4.25506e-05)
(-0.000271636 -4.835e-05 4.25509e-05)
(-0.000259114 -9.47846e-05 4.25509e-05)
(-0.000238718 -0.000138339 4.25508e-05)
(-0.000211069 -0.00017769 4.25509e-05)
(-0.000177006 -0.000211643 4.25508e-05)
(-0.000137566 -0.000239164 4.25506e-05)
(-9.39453e-05 -0.000259419 4.25506e-05)
(-4.74704e-05 -0.000271791 4.25505e-05)
(4.46519e-07 -0.000275905 4.25506e-05)
(4.835e-05 -0.000271636 4.25509e-05)
(9.47846e-05 -0.000259114 4.25509e-05)
(0.000138339 -0.000238718 4.25508e-05)
(0.00017769 -0.000211069 4.25509e-05)
(0.000211643 -0.000177006 4.25508e-05)
(0.000239164 -0.000137566 4.25506e-05)
(0.000259419 -9.39453e-05 4.25506e-05)
(0.000271791 -4.74705e-05 4.25505e-05)
(0.000275905 4.46497e-07 4.25506e-05)
(0.000271636 4.835e-05 4.25509e-05)
(0.000259114 9.47846e-05 4.25509e-05)
(0.000238718 0.000138339 4.25508e-05)
(0.000211069 0.00017769 4.25509e-05)
(0.000177006 0.000211643 4.25508e-05)
(0.000137566 0.000239164 4.25506e-05)
(4.61616e-05 0.000268121 5.33477e-05)
(-1.09839e-06 0.000272064 5.33477e-05)
(-4.83248e-05 0.000267739 5.33477e-05)
(-9.40829e-05 0.00025528 5.33478e-05)
(-0.000136983 0.000235065 5.33479e-05)
(-0.00017572 0.000207707 5.33478e-05)
(-0.000209118 0.000174038 5.33478e-05)
(-0.000236163 0.00013508 5.33477e-05)
(-0.000256032 9.2019e-05 5.33476e-05)
(-0.000268121 4.61616e-05 5.33476e-05)
(-0.000272063 -1.09841e-06 5.33477e-05)
(-0.000267739 -4.83248e-05 5.33477e-05)
(-0.00025528 -9.40829e-05 5.33478e-05)
(-0.000235065 -0.000136983 5.33479e-05)
(-0.000207707 -0.00017572 5.33478e-05)
(-0.000174038 -0.000209118 5.33478e-05)
(-0.00013508 -0.000236163 5.33477e-05)
(-9.2019e-05 -0.000256032 5.33476e-05)
(-4.61616e-05 -0.000268121 5.33476e-05)
(1.09842e-06 -0.000272064 5.33477e-05)
(4.83248e-05 -0.000267739 5.33477e-05)
(9.40829e-05 -0.00025528 5.33478e-05)
(0.000136983 -0.000235065 5.33479e-05)
(0.00017572 -0.000207707 5.33478e-05)
(0.000209118 -0.000174038 5.33478e-05)
(0.000236163 -0.00013508 5.33477e-05)
(0.000256032 -9.2019e-05 5.33476e-05)
(0.000268121 -4.61616e-05 5.33476e-05)
(0.000272064 1.0984e-06 5.33477e-05)
(0.000267739 4.83248e-05 5.33477e-05)
(0.00025528 9.40829e-05 5.33478e-05)
(0.000235065 0.000136983 5.33479e-05)
(0.000207707 0.00017572 5.33478e-05)
(0.000174038 0.000209118 5.33478e-05)
(0.00013508 0.000236163 5.33477e-05)
(9.2019e-05 0.000256032 5.33476e-05)
(-1.87103e-05 0.000270942 5.80912e-05)
(-6.54747e-05 0.000263577 5.80913e-05)
(-0.00011025 0.000248203 5.80912e-05)
(-0.000151675 0.000225287 5.80912e-05)
(-0.000188491 0.000195527 5.80914e-05)
(-0.00021958 0.000159825 5.80913e-05)
(-0.000243998 0.000119267 5.80913e-05)
(-0.000261001 7.50855e-05 5.80911e-05)
(-0.000270075 2.86224e-05 5.80911e-05)
(-0.000270942 -1.87103e-05 5.80911e-05)
(-0.000263577 -6.54747e-05 5.80913e-05)
(-0.000248203 -0.00011025 5.80912e-05)
(-0.000225287 -0.000151675 5.80912e-05)
(-0.000195527 -0.000188491 5.80913e-05)
(-0.000159825 -0.00021958 5.80913e-05)
(-0.000119267 -0.000243998 5.80913e-05)
(-7.50855e-05 -0.000261001 5.80911e-05)
(-2.86224e-05 -0.000270075 5.80911e-05)
(1.87104e-05 -0.000270942 5.80911e-05)
(6.54747e-05 -0.000263577 5.80913e-05)
(0.00011025 -0.000248203 5.80912e-05)
(0.000151675 -0.000225287 5.80912e-05)
(0.000188491 -0.000195527 5.80913e-05)
(0.00021958 -0.000159825 5.80913e-05)
(0.000243998 -0.000119267 5.80913e-05)
(0.000261001 -7.50855e-05 5.80911e-05)
(0.000270075 -2.86224e-05 5.80911e-05)
(0.000270942 1.87104e-05 5.80911e-05)
(0.000263577 6.54747e-05 5.80913e-05)
(0.000248203 0.00011025 5.80912e-05)
(0.000225287 0.000151675 5.80912e-05)
(0.000195527 0.000188491 5.80914e-05)
(0.000159825 0.00021958 5.80913e-05)
(0.000119267 0.000243998 5.80913e-05)
(7.50855e-05 0.000261001 5.80911e-05)
(2.86224e-05 0.000270075 5.80911e-05)
(0.000183415 0.000767327 0.00016222)
(4.73838e-05 0.000787519 0.000162219)
(-9.00871e-05 0.000783783 0.00016222)
(-0.000224821 0.000756232 0.00016222)
(-0.000352723 0.000705704 0.000162221)
(-0.000469909 0.000633733 0.000162221)
(-0.000572817 0.000542506 0.00016222)
(-0.00065832 0.000434795 0.00016222)
(-0.000723819 0.000313873 0.00016222)
(-0.000767327 0.000183415 0.000162219)
(-0.000787519 4.73837e-05 0.000162219)
(-0.000783783 -9.00872e-05 0.00016222)
(-0.000756232 -0.000224821 0.00016222)
(-0.000705703 -0.000352723 0.000162221)
(-0.000633733 -0.000469909 0.000162221)
(-0.000542506 -0.000572817 0.00016222)
(-0.000434795 -0.00065832 0.00016222)
(-0.000313873 -0.000723819 0.00016222)
(-0.000183415 -0.000767327 0.000162219)
(-4.73837e-05 -0.000787519 0.000162219)
(9.00872e-05 -0.000783783 0.00016222)
(0.000224821 -0.000756232 0.00016222)
(0.000352723 -0.000705704 0.000162221)
(0.000469909 -0.000633733 0.000162221)
(0.000572817 -0.000542506 0.00016222)
(0.00065832 -0.000434795 0.00016222)
(0.000723819 -0.000313873 0.00016222)
(0.000767327 -0.000183415 0.00016222)
(0.000787519 -4.73838e-05 0.00016222)
(0.000783783 9.00872e-05 0.00016222)
(0.000756232 0.000224821 0.00016222)
(0.000705704 0.000352723 0.000162221)
(0.000633733 0.000469909 0.000162221)
(0.000542506 0.000572817 0.000162221)
(0.000434795 0.00065832 0.00016222)
(0.000313873 0.000723819 0.00016222)
(0.00010927 0.000790547 0.000197259)
(-2.96664e-05 0.000797512 0.000197259)
(-0.000167702 0.000780245 0.00019726)
(-0.000300642 0.00073927 0.00019726)
(-0.000424448 0.000675833 0.00019726)
(-0.000535357 0.000591861 0.00019726)
(-0.000629999 0.000489905 0.00019726)
(-0.000705498 0.000373064 0.000197259)
(-0.000759562 0.000244887 0.000197259)
(-0.000790547 0.00010927 0.000197259)
(-0.000797512 -2.96665e-05 0.000197259)
(-0.000780245 -0.000167702 0.00019726)
(-0.00073927 -0.000300642 0.00019726)
(-0.000675833 -0.000424448 0.00019726)
(-0.000591861 -0.000535357 0.00019726)
(-0.000489905 -0.000629999 0.00019726)
(-0.000373064 -0.000705498 0.000197259)
(-0.000244887 -0.000759562 0.000197259)
(-0.00010927 -0.000790547 0.000197259)
(2.96665e-05 -0.000797512 0.000197259)
(0.000167702 -0.000780245 0.00019726)
(0.000300642 -0.00073927 0.00019726)
(0.000424448 -0.000675833 0.00019726)
(0.000535357 -0.000591861 0.00019726)
(0.000629999 -0.000489905 0.00019726)
(0.000705498 -0.000373064 0.000197259)
(0.000759562 -0.000244887 0.000197259)
(0.000790547 -0.00010927 0.000197259)
(0.000797512 2.96665e-05 0.000197259)
(0.000780245 0.000167702 0.00019726)
(0.00073927 0.000300642 0.00019726)
(0.000675833 0.000424448 0.00019726)
(0.000591861 0.000535357 0.00019726)
(0.000489905 0.000629999 0.00019726)
(0.000373064 0.000705498 0.000197259)
(0.000244887 0.000759562 0.000197259)
(1.55765e-05 0.000807033 0.000223665)
(-0.0001248 0.000797477 0.000223665)
(-0.000261384 0.000763691 0.000223665)
(-0.000390026 0.000706699 0.000223665)
(-0.000506818 0.000628235 0.000223665)
(-0.00060821 0.000530683 0.000223665)
(-0.000691122 0.000417006 0.000223665)
(-0.000753035 0.000290659 0.000223665)
(-0.000792067 0.00015548 0.000223665)
(-0.000807033 1.55764e-05 0.000223665)
(-0.000797477 -0.0001248 0.000223665)
(-0.000763691 -0.000261384 0.000223665)
(-0.000706699 -0.000390026 0.000223665)
(-0.000628235 -0.000506818 0.000223665)
(-0.000530683 -0.00060821 0.000223665)
(-0.000417006 -0.000691122 0.000223665)
(-0.000290659 -0.000753035 0.000223665)
(-0.00015548 -0.000792067 0.000223665)
(-1.55764e-05 -0.000807033 0.000223665)
(0.0001248 -0.000797477 0.000223665)
(0.000261384 -0.000763691 0.000223665)
(0.000390026 -0.000706699 0.000223665)
(0.000506818 -0.000628235 0.000223665)
(0.00060821 -0.000530683 0.000223665)
(0.000691122 -0.000417006 0.000223665)
(0.000753035 -0.000290659 0.000223665)
(0.000792067 -0.00015548 0.000223665)
(0.000807033 -1.55764e-05 0.000223665)
(0.000797477 0.0001248 0.000223665)
(0.000763691 0.000261384 0.000223665)
(0.000706699 0.000390026 0.000223665)
(0.000628235 0.000506818 0.000223665)
(0.000530683 0.00060821 0.000223665)
(0.000417006 0.000691122 0.000223665)
(0.000290659 0.000753035 0.000223665)
(0.00015548 0.000792067 0.000223665)
(0.00024052 0.00127144 0.000355905)
(1.60835e-05 0.00129389 0.000355905)
(-0.000208842 0.00127702 0.000355905)
(-0.000427422 0.00122136 0.000355906)
(-0.000633014 0.00112858 0.000355906)
(-0.000819373 0.00100151 0.000355906)
(-0.000980836 0.000844015 0.000355906)
(-0.0011125 0.000660872 0.000355905)
(-0.00121035 0.000457648 0.000355905)
(-0.00127144 0.00024052 0.000355905)
(-0.00129389 1.60834e-05 0.000355905)
(-0.00127702 -0.000208842 0.000355905)
(-0.00122136 -0.000427422 0.000355906)
(-0.00112858 -0.000633014 0.000355906)
(-0.00100151 -0.000819373 0.000355906)
(-0.000844015 -0.000980836 0.000355906)
(-0.000660872 -0.0011125 0.000355905)
(-0.000457648 -0.00121035 0.000355905)
(-0.00024052 -0.00127144 0.000355905)
(-1.60833e-05 -0.00129389 0.000355905)
(0.000208842 -0.00127702 0.000355905)
(0.000427422 -0.00122136 0.000355906)
(0.000633014 -0.00112858 0.000355906)
(0.000819373 -0.00100151 0.000355906)
(0.000980836 -0.000844015 0.000355906)
(0.0011125 -0.000660872 0.000355905)
(0.00121035 -0.000457649 0.000355905)
(0.00127144 -0.00024052 0.000355905)
(0.00129389 -1.60834e-05 0.000355905)
(0.00127702 0.000208842 0.000355905)
(0.00122136 0.000427422 0.000355906)
(0.00112858 0.000633014 0.000355906)
(0.00100151 0.000819373 0.000355906)
(0.000844015 0.000980836 0.000355906)
(0.000660872 0.0011125 0.000355905)
(0.000457649 0.00121035 0.000355905)
(0.000140058 0.00129371 0.000403706)
(-8.67187e-05 0.00129837 0.000403706)
(-0.000310861 0.00126359 0.000403706)
(-0.000525558 0.00119041 0.000403706)
(-0.000724286 0.00108106 0.000403707)
(-0.000901008 0.00093887 0.000403707)
(-0.00105035 0.000768148 0.000403706)
(-0.00116778 0.000574086 0.000403706)
(-0.00124973 0.00036258 0.000403706)
(-0.00129371 0.000140058 0.000403706)
(-0.00129837 -8.67188e-05 0.000403706)
(-0.00126359 -0.000310861 0.000403706)
(-0.00119041 -0.000525558 0.000403706)
(-0.00108106 -0.000724287 0.000403707)
(-0.00093887 -0.000901008 0.000403706)
(-0.000768148 -0.00105035 0.000403706)
(-0.000574085 -0.00116778 0.000403706)
(-0.00036258 -0.00124973 0.000403706)
(-0.000140058 -0.00129371 0.000403706)
(8.67189e-05 -0.00129837 0.000403706)
(0.000310861 -0.00126359 0.000403706)
(0.000525558 -0.00119041 0.000403706)
(0.000724287 -0.00108106 0.000403707)
(0.000901008 -0.00093887 0.000403706)
(0.00105035 -0.000768148 0.000403706)
(0.00116778 -0.000574086 0.000403706)
(0.00124973 -0.00036258 0.000403706)
(0.00129371 -0.000140058 0.000403706)
(0.00129837 8.67188e-05 0.000403706)
(0.00126359 0.000310861 0.000403706)
(0.00119041 0.000525558 0.000403706)
(0.00108106 0.000724286 0.000403707)
(0.00093887 0.000901008 0.000403707)
(0.000768148 0.00105035 0.000403707)
(0.000574086 0.00116778 0.000403706)
(0.000362581 0.00124973 0.000403706)
(2.23021e-05 0.00130773 0.000443086)
(-0.000205122 0.00129174 0.000443086)
(-0.000426314 0.0012365 0.000443086)
(-0.000634552 0.00114368 0.000443087)
(-0.000823511 0.00101612 0.000443087)
(-0.000987447 0.00085768 0.000443087)
(-0.00112138 0.000673182 0.000443086)
(-0.00122124 0.000468229 0.000443086)
(-0.00128399 0.000249049 0.000443086)
(-0.00130773 2.2302e-05 0.000443086)
(-0.00129174 -0.000205122 0.000443086)
(-0.0012365 -0.000426314 0.000443086)
(-0.00114368 -0.000634552 0.000443087)
(-0.00101612 -0.000823511 0.000443087)
(-0.00085768 -0.000987447 0.000443087)
(-0.000673182 -0.00112138 0.000443086)
(-0.000468229 -0.00122124 0.000443086)
(-0.000249049 -0.00128399 0.000443086)
(-2.2302e-05 -0.00130773 0.000443086)
(0.000205122 -0.00129174 0.000443086)
(0.000426314 -0.0012365 0.000443086)
(0.000634552 -0.00114368 0.000443087)
(0.000823511 -0.00101612 0.000443087)
(0.000987447 -0.00085768 0.000443087)
(0.00112138 -0.000673182 0.000443086)
(0.00122124 -0.000468229 0.000443086)
(0.00128399 -0.000249049 0.000443086)
(0.00130773 -2.2302e-05 0.000443086)
(0.00129174 0.000205122 0.000443086)
(0.0012365 0.000426314 0.000443086)
(0.00114368 0.000634552 0.000443087)
(0.00101612 0.000823511 0.000443087)
(0.000857681 0.000987447 0.000443087)
(0.000673182 0.00112138 0.000443086)
(0.000468229 0.00122124 0.000443086)
(0.000249049 0.00128399 0.000443086)
(0.000245812 0.00175953 0.000595616)
(-6.34619e-05 0.00177549 0.000595616)
(-0.000370808 0.00173749 0.000595616)
(-0.000666887 0.00164671 0.000595617)
(-0.000942702 0.00150589 0.000595617)
(-0.00118987 0.00131931 0.000595617)
(-0.00140089 0.00109265 0.000595617)
(-0.00156935 0.000832783 0.000595617)
(-0.00169012 0.000547617 0.000595616)
(-0.00175953 0.000245812 0.000595616)
(-0.00177549 -6.34621e-05 0.000595616)
(-0.00173749 -0.000370808 0.000595616)
(-0.00164671 -0.000666887 0.000595617)
(-0.00150589 -0.000942702 0.000595617)
(-0.00131931 -0.00118987 0.000595617)
(-0.00109265 -0.00140089 0.000595617)
(-0.000832783 -0.00156935 0.000595617)
(-0.000547617 -0.00169012 0.000595616)
(-0.000245812 -0.00175953 0.000595616)
(6.34622e-05 -0.00177549 0.000595616)
(0.000370808 -0.00173749 0.000595616)
(0.000666887 -0.00164671 0.000595617)
(0.000942702 -0.00150589 0.000595617)
(0.00118987 -0.00131931 0.000595617)
(0.00140089 -0.00109265 0.000595617)
(0.00156935 -0.000832783 0.000595617)
(0.00169012 -0.000547617 0.000595616)
(0.00175953 -0.000245812 0.000595616)
(0.00177549 6.34621e-05 0.000595616)
(0.00173749 0.000370808 0.000595616)
(0.00164671 0.000666887 0.000595617)
(0.00150589 0.000942702 0.000595617)
(0.00131931 0.00118987 0.000595618)
(0.00109265 0.00140089 0.000595617)
(0.000832783 0.00156935 0.000595617)
(0.000547617 0.00169012 0.000595616)
(0.000130502 0.00176357 0.000647383)
(-0.000177721 0.00175944 0.000647383)
(-0.000480544 0.00170185 0.000647383)
(-0.000768766 0.00159255 0.000647383)
(-0.00103363 0.00143486 0.000647383)
(-0.00126709 0.00123357 0.000647383)
(-0.00146204 0.000994804 0.000647384)
(-0.00161258 0.000725809 0.000647383)
(-0.00171412 0.000434761 0.000647383)
(-0.00176357 0.000130502 0.000647383)
(-0.00175944 -0.000177721 0.000647383)
(-0.00170185 -0.000480544 0.000647383)
(-0.00159255 -0.000768766 0.000647383)
(-0.00143486 -0.00103363 0.000647383)
(-0.00123357 -0.00126709 0.000647383)
(-0.000994804 -0.00146204 0.000647384)
(-0.000725809 -0.00161258 0.000647383)
(-0.00043476 -0.00171412 0.000647383)
(-0.000130502 -0.00176357 0.000647383)
(0.000177721 -0.00175944 0.000647383)
(0.000480544 -0.00170185 0.000647383)
(0.000768766 -0.00159255 0.000647383)
(0.00103363 -0.00143486 0.000647383)
(0.00126709 -0.00123357 0.000647383)
(0.00146204 -0.000994804 0.000647384)
(0.00161258 -0.000725809 0.000647383)
(0.00171412 -0.000434761 0.000647383)
(0.00176357 -0.000130502 0.000647383)
(0.00175944 0.000177721 0.000647383)
(0.00170185 0.000480544 0.000647383)
(0.00159255 0.000768766 0.000647383)
(0.00143486 0.00103363 0.000647383)
(0.00123357 0.00126709 0.000647384)
(0.000994804 0.00146204 0.000647384)
(0.000725809 0.00161258 0.000647383)
(0.000434761 0.00171412 0.000647383)
(3.94726e-07 0.00175918 0.000690691)
(-0.00030509 0.00173252 0.000690691)
(-0.000601304 0.00165323 0.000690691)
(-0.000879249 0.00152369 0.000690691)
(-0.00113048 0.00134787 0.000690691)
(-0.00134736 0.00113108 0.000690691)
(-0.0015233 0.000879933 0.000690691)
(-0.00165295 0.000602047 0.000690691)
(-0.00173239 0.000305867 0.000690691)
(-0.00175918 3.94606e-07 0.000690691)
(-0.00173252 -0.00030509 0.000690691)
(-0.00165323 -0.000601304 0.000690691)
(-0.00152369 -0.000879249 0.000690691)
(-0.00134787 -0.00113048 0.000690691)
(-0.00113108 -0.00134736 0.000690691)
(-0.000879933 -0.0015233 0.000690691)
(-0.000602047 -0.00165295 0.000690691)
(-0.000305867 -0.00173239 0.000690691)
(-3.94514e-07 -0.00175918 0.000690691)
(0.00030509 -0.00173252 0.000690691)
(0.000601304 -0.00165323 0.000690691)
(0.000879249 -0.00152369 0.000690691)
(0.00113048 -0.00134787 0.000690691)
(0.00134736 -0.00113108 0.000690691)
(0.0015233 -0.000879933 0.000690691)
(0.00165295 -0.000602047 0.000690691)
(0.00173239 -0.000305867 0.000690691)
(0.00175918 -3.94611e-07 0.000690691)
(0.00173252 0.00030509 0.000690691)
(0.00165323 0.000601304 0.000690691)
(0.00152369 0.000879249 0.000690691)
(0.00134787 0.00113048 0.000690691)
(0.00113108 0.00134736 0.000690691)
(0.000879933 0.0015233 0.000690691)
(0.000602047 0.00165295 0.000690691)
(0.000305868 0.00173239 0.000690691)
(0.000202006 0.00221564 0.000866497)
(-0.000185804 0.00221705 0.000866496)
(-0.000567969 0.00215111 0.000866496)
(-0.000932875 0.0020198 0.000866497)
(-0.00126944 0.00182712 0.000866497)
(-0.00156743 0.00157893 0.000866497)
(-0.00181779 0.00128276 0.000866497)
(-0.00201293 0.000947616 0.000866497)
(-0.0021469 0.000583678 0.000866497)
(-0.00221564 0.000202006 0.000866497)
(-0.00221705 -0.000185804 0.000866496)
(-0.00215111 -0.000567969 0.000866496)
(-0.0020198 -0.000932876 0.000866497)
(-0.00182712 -0.00126944 0.000866497)
(-0.00157893 -0.00156743 0.000866497)
(-0.00128276 -0.00181779 0.000866497)
(-0.000947615 -0.00201293 0.000866497)
(-0.000583678 -0.0021469 0.000866497)
(-0.000202005 -0.00221564 0.000866497)
(0.000185804 -0.00221705 0.000866496)
(0.000567969 -0.00215111 0.000866496)
(0.000932876 -0.0020198 0.000866497)
(0.00126944 -0.00182712 0.000866497)
(0.00156743 -0.00157893 0.000866497)
(0.00181779 -0.00128276 0.000866497)
(0.00201293 -0.000947616 0.000866497)
(0.0021469 -0.000583678 0.000866497)
(0.00221564 -0.000202006 0.000866497)
(0.00221705 0.000185804 0.000866496)
(0.00215111 0.000567969 0.000866497)
(0.0020198 0.000932876 0.000866497)
(0.00182712 0.00126944 0.000866497)
(0.00157893 0.00156743 0.000866498)
(0.00128276 0.00181779 0.000866497)
(0.000947616 0.00201293 0.000866497)
(0.000583678 0.0021469 0.000866497)
(8.16664e-05 0.00218698 0.00091513)
(-0.000299339 0.00216794 0.00091513)
(-0.000671249 0.00208302 0.00091513)
(-0.00102276 0.00193481 0.00091513)
(-0.0013432 0.00172782 0.00091513)
(-0.00162283 0.00146832 0.00091513)
(-0.00185315 0.00116422 0.00091513)
(-0.00202716 0.000824733 0.00091513)
(-0.00213957 0.000460191 0.00091513)
(-0.00218698 8.16663e-05 0.00091513)
(-0.00216794 -0.000299339 0.000915129)
(-0.00208302 -0.00067125 0.00091513)
(-0.00193481 -0.00102276 0.00091513)
(-0.00172782 -0.0013432 0.00091513)
(-0.00146832 -0.00162283 0.00091513)
(-0.00116422 -0.00185315 0.00091513)
(-0.000824733 -0.00202716 0.00091513)
(-0.000460191 -0.00213957 0.00091513)
(-8.16661e-05 -0.00218698 0.00091513)
(0.00029934 -0.00216794 0.000915129)
(0.00067125 -0.00208302 0.00091513)
(0.00102276 -0.00193481 0.00091513)
(0.0013432 -0.00172782 0.00091513)
(0.00162283 -0.00146832 0.00091513)
(0.00185315 -0.00116422 0.00091513)
(0.00202716 -0.000824733 0.00091513)
(0.00213957 -0.000460191 0.00091513)
(0.00218698 -8.16663e-05 0.00091513)
(0.00216794 0.000299339 0.00091513)
(0.00208302 0.00067125 0.00091513)
(0.00193481 0.00102276 0.00091513)
(0.00172782 0.0013432 0.00091513)
(0.00146832 0.00162283 0.00091513)
(0.00116422 0.00185315 0.00091513)
(0.000824733 0.00202716 0.00091513)
(0.000460191 0.00213957 0.00091513)
(-5.11212e-05 0.00215079 0.000955264)
(-0.000423825 0.00210923 0.000955264)
(-0.00078365 0.00200359 0.000955264)
(-0.00111966 0.00183707 0.000955264)
(-0.00142166 0.00161474 0.000955264)
(-0.00168046 0.00134334 0.000955264)
(-0.00188819 0.00103112 0.000955264)
(-0.00203856 0.000687574 0.000955264)
(-0.00212699 0.000323136 0.000955264)
(-0.00215079 -5.11214e-05 0.000955264)
(-0.00210923 -0.000423825 0.000955264)
(-0.00200359 -0.000783651 0.000955264)
(-0.00183707 -0.00111967 0.000955264)
(-0.00161474 -0.00142166 0.000955264)
(-0.00134334 -0.00168046 0.000955264)
(-0.00103112 -0.0018882 0.000955264)
(-0.000687574 -0.00203856 0.000955264)
(-0.000323136 -0.00212699 0.000955264)
(5.11215e-05 -0.00215079 0.000955264)
(0.000423825 -0.00210923 0.000955264)
(0.000783651 -0.00200359 0.000955264)
(0.00111967 -0.00183707 0.000955264)
(0.00142166 -0.00161474 0.000955264)
(0.00168046 -0.00134334 0.000955264)
(0.0018882 -0.00103112 0.000955264)
(0.00203856 -0.000687574 0.000955264)
(0.00212699 -0.000323136 0.000955264)
(0.00215079 5.11214e-05 0.000955264)
(0.00210923 0.000423825 0.000955264)
(0.00200359 0.000783651 0.000955264)
(0.00183707 0.00111967 0.000955264)
(0.00161474 0.00142166 0.000955264)
(0.00134334 0.00168046 0.000955264)
(0.00103112 0.0018882 0.000955264)
(0.000687574 0.00203856 0.000955264)
(0.000323136 0.00212699 0.000955264)
(0.000118733 0.00262265 0.00115968)
(-0.000338489 0.00260343 0.00115968)
(-0.000785427 0.0025051 0.00115968)
(-0.0012085 0.00233065 0.00115968)
(-0.00159485 0.00208539 0.00115968)
(-0.00193275 0.00177676 0.00115968)
(-0.00221191 0.00141415 0.00115968)
(-0.00242388 0.00100857 0.00115968)
(-0.00256219 0.000572348 0.00115968)
(-0.00262265 0.000118733 0.00115968)
(-0.00260343 -0.000338489 0.00115968)
(-0.0025051 -0.000785427 0.00115968)
(-0.00233065 -0.0012085 0.00115968)
(-0.00208539 -0.00159485 0.00115968)
(-0.00177676 -0.00193275 0.00115968)
(-0.00141415 -0.00221191 0.00115968)
(-0.00100857 -0.00242388 0.00115968)
(-0.000572347 -0.00256219 0.00115968)
(-0.000118733 -0.00262265 0.00115968)
(0.00033849 -0.00260343 0.00115968)
(0.000785427 -0.0025051 0.00115968)
(0.0012085 -0.00233065 0.00115968)
(0.00159485 -0.00208539 0.00115968)
(0.00193275 -0.00177676 0.00115968)
(0.00221191 -0.00141415 0.00115968)
(0.00242388 -0.00100857 0.00115968)
(0.00256219 -0.000572348 0.00115968)
(0.00262265 -0.000118733 0.00115968)
(0.00260343 0.000338489 0.00115968)
(0.0025051 0.000785427 0.00115968)
(0.00233065 0.0012085 0.00115968)
(0.00208539 0.00159485 0.00115968)
(0.00177676 0.00193275 0.00115968)
(0.00141415 0.00221191 0.00115968)
(0.00100857 0.00242388 0.00115968)
(0.000572348 0.00256219 0.00115968)
(4.40216e-07 0.00255083 0.0011994)
(-0.000442513 0.00251215 0.0011994)
(-0.00087202 0.00239714 0.0011994)
(-0.00127503 0.0022093 0.0011994)
(-0.0016393 0.00195433 0.0011994)
(-0.00195376 0.00163998 0.0011994)
(-0.00220886 0.00127579 0.0011994)
(-0.00239684 0.000872848 0.0011994)
(-0.002512 0.00044338 0.0011994)
(-0.00255083 4.40013e-07 0.0011994)
(-0.00251215 -0.000442513 0.0011994)
(-0.00239714 -0.00087202 0.0011994)
(-0.0022093 -0.00127503 0.0011994)
(-0.00195433 -0.0016393 0.0011994)
(-0.00163998 -0.00195376 0.0011994)
(-0.00127579 -0.00220886 0.0011994)
(-0.000872848 -0.00239684 0.0011994)
(-0.000443379 -0.002512 0.0011994)
(-4.3984e-07 -0.00255083 0.0011994)
(0.000442514 -0.00251215 0.0011994)
(0.00087202 -0.00239714 0.0011994)
(0.00127503 -0.0022093 0.0011994)
(0.0016393 -0.00195433 0.0011994)
(0.00195376 -0.00163998 0.0011994)
(0.00220886 -0.00127579 0.0011994)
(0.00239684 -0.000872848 0.0011994)
(0.002512 -0.00044338 0.0011994)
(0.00255083 -4.4003e-07 0.0011994)
(0.00251215 0.000442513 0.0011994)
(0.00239714 0.00087202 0.0011994)
(0.0022093 0.00127503 0.0011994)
(0.00195433 0.0016393 0.0011994)
(0.00163998 0.00195376 0.0011994)
(0.00127579 0.00220886 0.0011994)
(0.000872848 0.00239684 0.0011994)
(0.00044338 0.002512 0.0011994)
(-0.000127903 0.00247323 0.00123048)
(-0.000555432 0.00241345 0.00123048)
(-0.000966085 0.00228033 0.00123048)
(-0.00134738 0.00207793 0.00123048)
(-0.00168774 0.00181239 0.00123048)
(-0.00197682 0.00149178 0.00123048)
(-0.00220583 0.00112585 0.00123048)
(-0.00236782 0.000725705 0.00123048)
(-0.00245787 0.000303512 0.00123048)
(-0.00247323 -0.000127903 0.00123048)
(-0.00241345 -0.000555433 0.00123048)
(-0.00228033 -0.000966085 0.00123048)
(-0.00207793 -0.00134738 0.00123048)
(-0.00181239 -0.00168774 0.00123048)
(-0.00149178 -0.00197682 0.00123048)
(-0.00112585 -0.00220583 0.00123048)
(-0.000725705 -0.00236782 0.00123048)
(-0.000303512 -0.00245787 0.00123048)
(0.000127904 -0.00247323 0.00123048)
(0.000555433 -0.00241345 0.00123048)
(0.000966085 -0.00228033 0.00123048)
(0.00134738 -0.00207793 0.00123048)
(0.00168774 -0.00181239 0.00123048)
(0.00197682 -0.00149178 0.00123048)
(0.00220583 -0.00112585 0.00123048)
(0.00236782 -0.000725705 0.00123048)
(0.00245787 -0.000303512 0.00123048)
(0.00247323 0.000127903 0.00123048)
(0.00241345 0.000555433 0.00123048)
(0.00228033 0.000966085 0.00123048)
(0.00207793 0.00134738 0.00123048)
(0.00181239 0.00168774 0.00123048)
(0.00149178 0.00197682 0.00123048)
(0.00112585 0.00220583 0.00123048)
(0.000725706 0.00236782 0.00123048)
(0.000303512 0.00245787 0.00123048)
(9.82096e-06 0.00296447 0.00147267)
(-0.000505103 0.00292114 0.00147267)
(-0.00100468 0.00278905 0.00147267)
(-0.00147373 0.00257222 0.00147267)
(-0.001898 0.00227723 0.00147267)
(-0.0022646 0.00191305 0.00147267)
(-0.0025624 0.00149074 0.00147267)
(-0.00278233 0.00102314 0.00147267)
(-0.00291773 0.000524446 0.00147267)
(-0.00296447 9.82071e-06 0.00147267)
(-0.00292114 -0.000505104 0.00147267)
(-0.00278905 -0.00100468 0.00147267)
(-0.00257222 -0.00147373 0.00147267)
(-0.00227723 -0.001898 0.00147267)
(-0.00191305 -0.0022646 0.00147267)
(-0.00149074 -0.0025624 0.00147267)
(-0.00102314 -0.00278233 0.00147267)
(-0.000524446 -0.00291773 0.00147267)
(-9.82048e-06 -0.00296447 0.00147267)
(0.000505104 -0.00292114 0.00147267)
(0.00100468 -0.00278905 0.00147267)
(0.00147373 -0.00257222 0.00147267)
(0.001898 -0.00227723 0.00147267)
(0.0022646 -0.00191305 0.00147267)
(0.0025624 -0.00149074 0.00147267)
(0.00278233 -0.00102314 0.00147267)
(0.00291773 -0.000524446 0.00147267)
(0.00296447 -9.82073e-06 0.00147267)
(0.00292114 0.000505104 0.00147267)
(0.00278905 0.00100468 0.00147267)
(0.00257222 0.00147373 0.00147267)
(0.00227723 0.001898 0.00147267)
(0.00191305 0.0022646 0.00147267)
(0.00149074 0.0025624 0.00147267)
(0.00102314 0.00278233 0.00147267)
(0.000524446 0.00291773 0.00147267)
(-0.000101839 0.00284222 0.0014983)
(-0.000593839 0.00278136 0.00149829)
(-0.00106779 0.00263599 0.00149829)
(-0.00150931 0.00241052 0.00149829)
(-0.00190496 0.00211181 0.00149829)
(-0.00224273 0.00174893 0.00149829)
(-0.00251236 0.00133292 0.00149829)
(-0.00270565 0.000876401 0.00149829)
(-0.00281673 0.000393255 0.0014983)
(-0.00284222 -0.000101839 0.0014983)
(-0.00278136 -0.000593839 0.00149829)
(-0.00263599 -0.0010678 0.00149829)
(-0.00241052 -0.00150931 0.00149829)
(-0.00211181 -0.00190496 0.00149829)
(-0.00174893 -0.00224273 0.00149829)
(-0.00133292 -0.00251236 0.00149829)
(-0.000876401 -0.00270565 0.00149829)
(-0.000393254 -0.00281673 0.0014983)
(0.000101839 -0.00284222 0.00149829)
(0.000593839 -0.00278136 0.00149829)
(0.0010678 -0.00263599 0.00149829)
(0.00150931 -0.00241052 0.00149829)
(0.00190496 -0.00211181 0.00149829)
(0.00224273 -0.00174893 0.00149829)
(0.00251236 -0.00133292 0.00149829)
(0.00270565 -0.000876401 0.00149829)
(0.00281673 -0.000393255 0.0014983)
(0.00284222 0.000101839 0.0014983)
(0.00278136 0.000593839 0.00149829)
(0.00263599 0.0010678 0.00149829)
(0.00241052 0.00150931 0.00149829)
(0.00211181 0.00190496 0.00149829)
(0.00174893 0.00224273 0.00149829)
(0.00133292 0.00251236 0.00149829)
(0.000876401 0.00270565 0.00149829)
(0.000393255 0.00281673 0.0014983)
(-0.000220889 0.00271687 0.00151494)
(-0.000689313 0.00263724 0.00151494)
(-0.00113679 0.00247748 0.00151494)
(-0.00154973 0.00224243 0.00151494)
(-0.00191558 0.00193926 0.00151494)
(-0.00222323 0.00157716 0.00151494)
(-0.00246332 0.00116714 0.00151494)
(-0.00262857 0.000721657 0.00151494)
(-0.00271395 0.000254247 0.00151494)
(-0.00271687 -0.00022089 0.00151494)
(-0.00263724 -0.000689313 0.00151494)
(-0.00247747 -0.00113679 0.00151494)
(-0.00224243 -0.00154973 0.00151494)
(-0.00193926 -0.00191558 0.00151494)
(-0.00157716 -0.00222323 0.00151494)
(-0.00116714 -0.00246332 0.00151494)
(-0.000721657 -0.00262857 0.00151494)
(-0.000254247 -0.00271395 0.00151494)
(0.00022089 -0.00271687 0.00151494)
(0.000689313 -0.00263724 0.00151494)
(0.00113679 -0.00247748 0.00151494)
(0.00154973 -0.00224243 0.00151494)
(0.00191558 -0.00193926 0.00151494)
(0.00222323 -0.00157716 0.00151494)
(0.00246332 -0.00116714 0.00151494)
(0.00262857 -0.000721657 0.00151494)
(0.00271395 -0.000254247 0.00151494)
(0.00271687 0.00022089 0.00151494)
(0.00263724 0.000689313 0.00151494)
(0.00247748 0.00113679 0.00151494)
(0.00224243 0.00154973 0.00151494)
(0.00193926 0.00191558 0.00151494)
(0.00157716 0.00222323 0.00151494)
(0.00116714 0.00246332 0.00151494)
(0.000721657 0.00262857 0.00151494)
(0.000254247 0.00271395 0.00151494)
(-0.000108435 0.00322589 0.00180721)
(-0.000666958 0.00315805 0.00180721)
(-0.00120522 0.00299426 0.00180721)
(-0.00170685 0.00273949 0.00180721)
(-0.00215663 0.00240147 0.00180721)
(-0.00254088 0.0019905 0.00180721)
(-0.00284792 0.00151904 0.00180721)
(-0.00306843 0.00100142 0.00180721)
(-0.00319571 0.000453381 0.00180721)
(-0.00322589 -0.000108435 0.00180721)
(-0.00315805 -0.000666958 0.00180721)
(-0.00299426 -0.00120522 0.00180721)
(-0.00273949 -0.00170685 0.00180721)
(-0.00240147 -0.00215663 0.00180721)
(-0.0019905 -0.00254088 0.00180721)
(-0.00151904 -0.00284792 0.00180721)
(-0.00100142 -0.00306843 0.00180721)
(-0.00045338 -0.00319571 0.00180721)
(0.000108436 -0.00322589 0.00180721)
(0.000666958 -0.00315805 0.00180721)
(0.00120522 -0.00299426 0.00180721)
(0.00170685 -0.00273949 0.00180721)