/*--------------------------------*- C++ -*----------------------------------*\
| =========                 |                                                 |
| \\      /  F ield         | OpenFOAM: The Open Source CFD Toolbox           |
|  \\    /   O peration     | Version:  2312                                  |
|   \\  /    A nd           | Website:  www.openfoam.com                      |
|    \\/     M anipulation  |                                                 |
\*---------------------------------------------------------------------------*/
FoamFile
{
    version     2.0;
    format      ascii;
    arch        "LSB;label=32;scalar=64";
    class       pointVectorField;
    location    "0.4";
    object      pointD;
}
// * * * * * * * * * * * * * * * * * * * * * * * * * * * * * * * * * * * * * //

dimensions      [0 1 0 0 0 0 0];

internalField   nonuniform List<vector> 
2164
(
(0 0 0)
(0 0 0)
(0 0 0)
(0 0 0)
(0 0 0)
(0 0 0)
(0 0 0)
(0 0 0)
(0 0 0)
(0 0 0)
(0 0 0)
(0 0 0)
(0 0 0)
(0 0 0)
(0 0 0)
(0 0 0)
(0 0 0)
(0 0 0)
(0 0 0)
(0 0 0)
(0 0 0)
(0 0 0)
(0 0 0)
(0 0 0)
(0 0 0)
(0 0 0)
(0 0 0)
(0 0 0)
(0 0 0)
(0 0 0)
(0 0 0)
(0 0 0)
(0 0 0)
(0 0 0)
(0 0 0)
(0 0 0)
(0.000132758 0.000527493 8.16786e-05)
(3.91432e-05 0.000542533 8.16787e-05)
(-5.56611e-05 0.000541088 8.16793e-05)
(-0.000148774 0.000523202 8.16798e-05)
(-0.000237366 0.00048942 8.16797e-05)
(-0.000318747 0.000440765 8.16796e-05)
(-0.000390443 0.000378719 8.16795e-05)
(-0.000450275 0.000305166 8.1679e-05)
(-0.000496426 0.00022234 8.16789e-05)
(-0.000527493 0.000132758 8.16786e-05)
(-0.000542532 3.91432e-05 8.16787e-05)
(-0.000541088 -5.56612e-05 8.16793e-05)
(-0.000523202 -0.000148774 8.16798e-05)
(-0.00048942 -0.000237366 8.16797e-05)
(-0.000440765 -0.000318747 8.16796e-05)
(-0.000378719 -0.000390443 8.16795e-05)
(-0.000305166 -0.000450275 8.1679e-05)
(-0.00022234 -0.000496426 8.16788e-05)
(-0.000132758 -0.000527493 8.16786e-05)
(-3.91431e-05 -0.000542533 8.16787e-05)
(5.56612e-05 -0.000541088 8.16793e-05)
(0.000148774 -0.000523202 8.16798e-05)
(0.000237366 -0.00048942 8.16797e-05)
(0.000318748 -0.000440765 8.16796e-05)
(0.000390443 -0.000378719 8.16795e-05)
(0.000450275 -0.000305166 8.1679e-05)
(0.000496426 -0.00022234 8.16789e-05)
(0.000527493 -0.000132758 8.16786e-05)
(0.000542533 -3.91432e-05 8.16787e-05)
(0.000541088 5.56612e-05 8.16793e-05)
(0.000523202 0.000148774 8.16798e-05)
(0.00048942 0.000237366 8.16797e-05)
(0.000440766 0.000318747 8.16796e-05)
(0.000378719 0.000390443 8.16795e-05)
(0.000305166 0.000450275 8.1679e-05)
(0.00022234 0.000496426 8.16789e-05)
(7.04381e-05 0.000543345 0.000108599)
(-2.49827e-05 0.000547322 0.000108599)
(-0.000119644 0.000534669 0.000108599)
(-0.000210671 0.00050577 0.0001086)
(-0.000295297 0.000461503 0.0001086)
(-0.00037095 0.000403214 0.0001086)
(-0.000435331 0.000332674 0.000108599)
(-0.000486486 0.000252025 0.000108599)
(-0.000522859 0.000163719 0.000108599)
(-0.000543345 7.04381e-05 0.000108599)
(-0.000547322 -2.49827e-05 0.000108599)
(-0.000534669 -0.000119644 0.000108599)
(-0.00050577 -0.000210671 0.0001086)
(-0.000461503 -0.000295297 0.0001086)
(-0.000403214 -0.00037095 0.0001086)
(-0.000332674 -0.000435331 0.000108599)
(-0.000252025 -0.000486486 0.000108599)
(-0.000163719 -0.000522859 0.000108599)
(-7.0438e-05 -0.000543345 0.000108599)
(2.49827e-05 -0.000547322 0.000108599)
(0.000119644 -0.000534669 0.000108599)
(0.000210671 -0.00050577 0.0001086)
(0.000295297 -0.000461503 0.0001086)
(0.00037095 -0.000403214 0.0001086)
(0.000435331 -0.000332674 0.000108599)
(0.000486486 -0.000252025 0.000108599)
(0.000522859 -0.000163719 0.000108599)
(0.000543345 -7.04381e-05 0.000108599)
(0.000547322 2.49827e-05 0.000108599)
(0.000534669 0.000119644 0.000108599)
(0.00050577 0.000210671 0.0001086)
(0.000461504 0.000295297 0.0001086)
(0.000403214 0.00037095 0.0001086)
(0.000332674 0.000435331 0.000108599)
(0.000252025 0.000486486 0.000108599)
(0.000163719 0.000522859 0.000108599)
(0 0 0)
(0 0 0)
(0 0 0)
(0 0 0)
(0 0 0)
(0 0 0)
(0 0 0)
(0 0 0)
(0 0 0)
(0 0 0)
(0 0 0)
(0 0 0)
(0 0 0)
(0 0 0)
(0 0 0)
(0 0 0)
(0 0 0)
(0 0 0)
(0 0 0)
(0 0 0)
(0 0 0)
(0 0 0)
(0 0 0)
(0 0 0)
(0 0 0)
(0 0 0)
(0 0 0)
(0 0 0)
(0 0 0)
(0 0 0)
(0 0 0)
(0 0 0)
(0 0 0)
(0 0 0)
(0 0 0)
(0 0 0)
(-4.35427e-06 0.000555481 0.000130945)
(-0.000100746 0.000546286 0.000130945)
(-0.000194077 0.000520492 0.000130945)
(-0.000281511 0.000478884 0.000130945)
(-0.000360391 0.000422725 0.000130945)
(-0.000428322 0.000353721 0.000130945)
(-0.000483237 0.00027397 0.000130945)
(-0.000523471 0.000185894 0.000130945)
(-0.000547798 9.21705e-05 0.000130945)
(-0.000555481 -4.35431e-06 0.000130945)
(-0.000546286 -0.000100746 0.000130945)
(-0.000520492 -0.000194077 0.000130945)
(-0.000478884 -0.000281511 0.000130945)
(-0.000422725 -0.000360391 0.000130945)
(-0.000353721 -0.000428322 0.000130945)
(-0.00027397 -0.000483237 0.000130945)
(-0.000185894 -0.000523471 0.000130945)
(-9.21705e-05 -0.000547798 0.000130945)
(4.35433e-06 -0.000555481 0.000130945)
(0.000100746 -0.000546286 0.000130945)
(0.000194077 -0.000520492 0.000130945)
(0.000281511 -0.000478884 0.000130945)
(0.000360391 -0.000422725 0.000130945)
(0.000428322 -0.000353721 0.000130945)
(0.000483237 -0.00027397 0.000130945)
(0.000523471 -0.000185894 0.000130945)
(0.000547798 -9.21705e-05 0.000130945)
(0.000555481 4.35431e-06 0.000130945)
(0.000546286 0.000100746 0.000130945)
(0.000520492 0.000194077 0.000130945)
(0.000478884 0.000281511 0.000130945)
(0.000422725 0.000360391 0.000130945)
(0.000353721 0.000428322 0.000130945)
(0.00027397 0.000483237 0.000130945)
(0.000185894 0.000523471 0.000130945)
(9.21705e-05 0.000547798 0.000130945)
(0 0 0)
(0 0 0)
(0 0 0)
(0 0 0)
(0 0 0)
(0 0 0)
(0 0 0)
(0 0 0)
(0 0 0)
(0 0 0)
(0 0 0)
(0 0 0)
(0 0 0)
(0 0 0)
(0 0 0)
(0 0 0)
(0 0 0)
(0 0 0)
(0 0 0)
(0 0 0)
(0 0 0)
(0 0 0)
(0 0 0)
(0 0 0)
(0 0 0)
(0 0 0)
(0 0 0)
(0 0 0)
(0 0 0)
(0 0 0)
(0 0 0)
(0 0 0)
(0 0 0)
(0 0 0)
(0 0 0)
(0 0 0)
(-8.99614e-05 0.00055986 0.000147738)
(-0.000185813 0.000535733 0.000147738)
(-0.000276019 0.000495328 0.000147738)
(-0.000357839 0.000439872 0.000147738)
(-0.000428785 0.000371051 0.000147738)
(-0.000486703 0.000290956 0.000147738)
(-0.000529833 0.000202021 0.000147738)
(-0.000556864 0.000106947 0.000147738)
(-0.000566976 8.62421e-06 0.000147738)
(-0.00055986 -8.99614e-05 0.000147738)
(-0.000535733 -0.000185813 0.000147738)
(-0.000495328 -0.000276019 0.000147738)
(-0.000439872 -0.000357839 0.000147738)
(-0.000371051 -0.000428785 0.000147738)
(-0.000290956 -0.000486703 0.000147738)
(-0.000202021 -0.000529833 0.000147738)
(-0.000106947 -0.000556864 0.000147738)
(-8.62418e-06 -0.000566976 0.000147738)
(8.99615e-05 -0.00055986 0.000147738)
(0.000185813 -0.000535733 0.000147738)
(0.000276019 -0.000495328 0.000147738)
(0.000357839 -0.000439872 0.000147738)
(0.000428785 -0.000371051 0.000147738)
(0.000486703 -0.000290956 0.000147738)
(0.000529833 -0.000202021 0.000147738)
(0.000556864 -0.000106947 0.000147738)
(0.000566976 -8.6242e-06 0.000147738)
(0.00055986 8.99614e-05 0.000147738)
(0.000535733 0.000185813 0.000147738)
(0.000495328 0.000276019 0.000147738)
(0.000439872 0.000357839 0.000147738)
(0.000371051 0.000428785 0.000147738)
(0.000290956 0.000486703 0.000147738)
(0.000202021 0.000529833 0.000147738)
(0.000106947 0.000556864 0.000147738)
(8.62423e-06 0.000566976 0.000147738)
(0 0 0)
(0 0 0)
(0 0 0)
(0 0 0)
(0 0 0)
(0 0 0)
(0 0 0)
(0 0 0)
(0 0 0)
(0 0 0)
(0 0 0)
(0 0 0)
(0 0 0)
(0 0 0)
(0 0 0)
(0 0 0)
(0 0 0)
(0 0 0)
(0 0 0)
(0 0 0)
(0 0 0)
(0 0 0)
(0 0 0)
(0 0 0)
(0 0 0)
(0 0 0)
(0 0 0)
(0 0 0)
(0 0 0)
(0 0 0)
(0 0 0)
(0 0 0)
(0 0 0)
(0 0 0)
(0 0 0)
(0 0 0)
(0.000182007 0.00104947 0.000226835)
(-2.99569e-06 0.00106513 0.000226836)
(-0.000187908 0.00104843 0.000226837)
(-0.00036711 0.000999869 0.000226838)
(-0.000535158 0.000920931 0.000226838)
(-0.000686945 0.000814011 0.000226837)
(-0.000817861 0.000682357 0.000226837)
(-0.000923926 0.00052997 0.000226836)
(-0.00100192 0.00036148 0.000226836)
(-0.00104947 0.000182007 0.000226835)
(-0.00106513 -2.99579e-06 0.000226836)
(-0.00104843 -0.000187908 0.000226837)
(-0.000999869 -0.00036711 0.000226838)
(-0.000920931 -0.000535158 0.000226838)
(-0.000814011 -0.000686945 0.000226837)
(-0.000682357 -0.000817861 0.000226837)
(-0.00052997 -0.000923926 0.000226836)
(-0.000361479 -0.00100192 0.000226836)
(-0.000182007 -0.00104947 0.000226835)
(2.99584e-06 -0.00106513 0.000226836)
(0.000187908 -0.00104843 0.000226837)
(0.00036711 -0.000999869 0.000226838)
(0.000535158 -0.000920931 0.000226838)
(0.000686945 -0.000814011 0.000226837)
(0.000817861 -0.000682357 0.000226837)
(0.000923926 -0.00052997 0.000226836)
(0.00100192 -0.00036148 0.000226836)
(0.00104947 -0.000182007 0.000226835)
(0.00106513 2.99576e-06 0.000226836)
(0.00104843 0.000187908 0.000226837)
(0.000999869 0.00036711 0.000226838)
(0.000920931 0.000535158 0.000226838)
(0.000814011 0.000686945 0.000226837)
(0.000682357 0.000817861 0.000226837)
(0.00052997 0.000923926 0.000226836)
(0.00036148 0.00100192 0.000226836)
(9.01383e-05 0.00107239 0.000274283)
(-9.74508e-05 0.00107175 0.000274283)
(-0.000282077 0.00103855 0.000274283)
(-0.000458134 0.000973789 0.000274284)
(-0.00062027 0.000879441 0.000274284)
(-0.00076356 0.000758371 0.000274284)
(-0.00088365 0.000614258 0.000274284)
(-0.000976891 0.000451481 0.000274283)
(-0.00104045 0.000274987 0.000274283)
(-0.00107239 9.01382e-05 0.000274283)
(-0.00107175 -9.74509e-05 0.000274283)
(-0.00103855 -0.000282077 0.000274283)
(-0.000973789 -0.000458134 0.000274284)
(-0.000879441 -0.00062027 0.000274284)
(-0.000758371 -0.00076356 0.000274284)
(-0.000614258 -0.00088365 0.000274284)
(-0.000451481 -0.000976891 0.000274283)
(-0.000274987 -0.00104045 0.000274283)
(-9.01381e-05 -0.00107239 0.000274283)
(9.7451e-05 -0.00107175 0.000274283)
(0.000282077 -0.00103855 0.000274283)
(0.000458134 -0.000973789 0.000274284)
(0.00062027 -0.000879441 0.000274284)
(0.00076356 -0.000758371 0.000274284)
(0.00088365 -0.000614258 0.000274284)
(0.000976891 -0.000451481 0.000274283)
(0.00104045 -0.000274987 0.000274283)
(0.00107239 -9.01382e-05 0.000274283)
(0.00107175 9.74509e-05 0.000274283)
(0.00103855 0.000282077 0.000274283)
(0.000973789 0.000458134 0.000274284)
(0.000879441 0.00062027 0.000274284)
(0.000758371 0.00076356 0.000274284)
(0.000614258 0.00088365 0.000274284)
(0.000451481 0.000976891 0.000274283)
(0.000274987 0.00104045 0.000274283)
(-1.51514e-05 0.00109203 0.000316833)
(-0.000204549 0.00107281 0.000316833)
(-0.000387734 0.00102099 0.000316834)
(-0.000559137 0.000938154 0.000316834)
(-0.000713552 0.000826807 0.000316834)
(-0.000846285 0.000690339 0.000316834)
(-0.000953304 0.000532895 0.000316833)
(-0.00103136 0.00035926 0.000316833)
(-0.00107807 0.000174709 0.000316833)
(-0.00109203 -1.51515e-05 0.000316833)
(-0.00107281 -0.000204549 0.000316833)
(-0.00102099 -0.000387734 0.000316834)
(-0.000938154 -0.000559137 0.000316834)
(-0.000826807 -0.000713552 0.000316834)
(-0.000690339 -0.000846285 0.000316834)
(-0.000532895 -0.000953304 0.000316833)
(-0.00035926 -0.00103136 0.000316833)
(-0.000174709 -0.00107807 0.000316833)
(1.51515e-05 -0.00109203 0.000316833)
(0.000204549 -0.00107281 0.000316833)
(0.000387734 -0.00102099 0.000316834)
(0.000559137 -0.000938154 0.000316834)
(0.000713552 -0.000826807 0.000316834)
(0.000846285 -0.000690339 0.000316834)
(0.000953304 -0.000532895 0.000316833)
(0.00103136 -0.00035926 0.000316833)
(0.00107807 -0.000174709 0.000316833)
(0.00109203 1.51514e-05 0.000316833)
(0.00107281 0.000204549 0.000316833)
(0.00102099 0.000387734 0.000316834)
(0.000938154 0.000559137 0.000316834)
(0.000826807 0.000713552 0.000316834)
(0.000690339 0.000846285 0.000316834)
(0.000532895 0.000953304 0.000316833)
(0.00035926 0.00103136 0.000316833)
(0.000174709 0.00107807 0.000316833)
(-0.000129751 0.00110095 0.000352068)
(-0.000318958 0.0010617 0.000352068)
(-0.000498473 0.000990181 0.000352068)
(-0.000662843 0.000888579 0.000352068)
(-0.000807073 0.000759978 0.000352068)
(-0.00092678 0.000608285 0.000352068)
(-0.00101833 0.00043811 0.000352068)
(-0.00107893 0.000254623 0.000352068)
(-0.00110676 6.33995e-05 0.000352068)
(-0.00110095 -0.000129751 0.000352068)
(-0.0010617 -0.000318959 0.000352068)
(-0.000990181 -0.000498473 0.000352068)
(-0.000888579 -0.000662843 0.000352067)
(-0.000759978 -0.000807073 0.000352067)
(-0.000608285 -0.00092678 0.000352067)
(-0.00043811 -0.00101833 0.000352068)
(-0.000254623 -0.00107893 0.000352068)
(-6.33995e-05 -0.00110676 0.000352068)
(0.000129751 -0.00110095 0.000352068)
(0.000318959 -0.0010617 0.000352068)
(0.000498473 -0.000990181 0.000352068)
(0.000662843 -0.000888579 0.000352067)
(0.000807073 -0.000759978 0.000352068)
(0.00092678 -0.000608285 0.000352068)
(0.00101833 -0.00043811 0.000352068)
(0.00107893 -0.000254623 0.000352068)
(0.00110676 -6.33995e-05 0.000352068)
(0.00110095 0.000129751 0.000352068)
(0.0010617 0.000318959 0.000352068)
(0.000990181 0.000498473 0.000352068)
(0.000888579 0.000662843 0.000352068)
(0.000759978 0.000807073 0.000352068)
(0.000608285 0.00092678 0.000352068)
(0.00043811 0.00101833 0.000352068)
(0.000254623 0.00107893 0.000352068)
(6.33996e-05 0.00110676 0.000352068)
(0.000180118 0.00156742 0.000449744)
(-9.47975e-05 0.00157488 0.000449745)
(-0.000366834 0.00153449 0.000449745)
(-0.000627721 0.00144748 0.000449746)
(-0.000869537 0.00131649 0.000449747)
(-0.00108493 0.00114549 0.000449747)
(-0.00126736 0.000939694 0.000449746)
(-0.00141129 0.000705342 0.000449745)
(-0.00151233 0.00044956 0.000449744)
(-0.00156742 0.000180118 0.000449744)
(-0.00157488 -9.47976e-05 0.000449744)
(-0.00153449 -0.000366834 0.000449745)
(-0.00144748 -0.000627722 0.000449746)
(-0.00131649 -0.000869538 0.000449747)
(-0.00114549 -0.00108493 0.000449747)
(-0.000939694 -0.00126736 0.000449746)
(-0.000705342 -0.00141129 0.000449745)
(-0.00044956 -0.00151233 0.000449744)
(-0.000180118 -0.00156742 0.000449744)
(9.47977e-05 -0.00157488 0.000449744)
(0.000366834 -0.00153449 0.000449745)
(0.000627722 -0.00144748 0.000449746)
(0.000869538 -0.00131649 0.000449747)
(0.00108493 -0.00114549 0.000449747)
(0.00126736 -0.000939694 0.000449746)
(0.00141129 -0.000705342 0.000449745)
(0.00151233 -0.00044956 0.000449744)
(0.00156742 -0.000180118 0.000449744)
(0.00157488 9.47976e-05 0.000449745)
(0.00153449 0.000366834 0.000449745)
(0.00144748 0.000627721 0.000449746)
(0.00131649 0.000869538 0.000449747)
(0.00114549 0.00108493 0.000449747)
(0.000939694 0.00126736 0.000449746)
(0.000705342 0.00141129 0.000449745)
(0.00044956 0.00151233 0.000449744)
(6.6454e-05 0.00157952 0.000505877)
(-0.000208837 0.00156707 0.000505877)
(-0.000477782 0.00150699 0.000505877)
(-0.00073221 0.00140113 0.000505878)
(-0.000964389 0.0012527 0.000505878)
(-0.00116727 0.00106621 0.000505878)
(-0.00133468 0.000847312 0.000505878)
(-0.00146154 0.000602675 0.000505877)
(-0.00154399 0.000339725 0.000505877)
(-0.00157952 6.64539e-05 0.000505876)
(-0.00156707 -0.000208837 0.000505877)
(-0.00150699 -0.000477782 0.000505877)
(-0.00140113 -0.00073221 0.000505877)
(-0.0012527 -0.000964389 0.000505878)
(-0.0010662 -0.00116727 0.000505878)
(-0.000847312 -0.00133468 0.000505878)
(-0.000602675 -0.00146154 0.000505877)
(-0.000339725 -0.00154399 0.000505877)
(-6.64538e-05 -0.00157952 0.000505876)
(0.000208837 -0.00156707 0.000505877)
(0.000477782 -0.00150699 0.000505877)
(0.00073221 -0.00140113 0.000505877)
(0.000964389 -0.0012527 0.000505878)
(0.00116727 -0.0010662 0.000505878)
(0.00133468 -0.000847312 0.000505878)
(0.00146154 -0.000602675 0.000505877)
(0.00154399 -0.000339725 0.000505877)
(0.00157952 -6.64539e-05 0.000505877)
(0.00156707 0.000208837 0.000505877)
(0.00150699 0.000477782 0.000505877)
(0.00140113 0.00073221 0.000505878)
(0.0012527 0.000964389 0.000505878)
(0.00106621 0.00116727 0.000505878)
(0.000847312 0.00133468 0.000505878)
(0.000602675 0.00146154 0.000505877)
(0.000339725 0.00154399 0.000505877)
(-5.92618e-05 0.00158825 0.000556972)
(-0.000334158 0.00155383 0.000556972)
(-0.000598901 0.0014722 0.000556972)
(-0.000845446 0.00134584 0.000556972)
(-0.0010663 0.00117858 0.000556972)
(-0.00125476 0.00097551 0.000556972)
(-0.0014051 0.000742803 0.000556972)
(-0.00151274 0.000487525 0.000556972)
(-0.00157441 0.000217435 0.000556972)
(-0.00158825 -5.92619e-05 0.000556972)
(-0.00155383 -0.000334158 0.000556972)
(-0.0014722 -0.000598901 0.000556972)
(-0.00134583 -0.000845446 0.000556972)
(-0.00117858 -0.0010663 0.000556972)
(-0.00097551 -0.00125476 0.000556972)
(-0.000742803 -0.0014051 0.000556972)
(-0.000487525 -0.00151274 0.000556972)
(-0.000217435 -0.00157441 0.000556972)
(5.9262e-05 -0.00158825 0.000556972)
(0.000334159 -0.00155383 0.000556972)
(0.000598901 -0.0014722 0.000556972)
(0.000845446 -0.00134584 0.000556972)
(0.0010663 -0.00117858 0.000556972)
(0.00125476 -0.00097551 0.000556972)
(0.0014051 -0.000742803 0.000556972)
(0.00151274 -0.000487525 0.000556972)
(0.00157441 -0.000217435 0.000556972)
(0.00158825 5.92619e-05 0.000556972)
(0.00155383 0.000334158 0.000556972)
(0.0014722 0.000598901 0.000556972)
(0.00134584 0.000845446 0.000556972)
(0.00117858 0.0010663 0.000556972)
(0.00097551 0.00125476 0.000556972)
(0.000742803 0.0014051 0.000556972)
(0.000487525 0.00151274 0.000556972)
(0.000217435 0.00157441 0.000556972)
(-0.000191522 0.00158486 0.000600767)
(-0.000463819 0.00152752 0.000600767)
(-0.000722024 0.00142377 0.000600767)
(-0.00095829 0.00127677 0.000600767)
(-0.00116544 0.00109096 0.000600767)
(-0.00133718 0.000872012 0.000600767)
(-0.00146829 0.000626566 0.000600766)
(-0.00155478 0.000362083 0.000600767)
(-0.00159404 8.65951e-05 0.000600767)
(-0.00158486 -0.000191522 0.000600767)
(-0.00152752 -0.000463819 0.000600767)
(-0.00142377 -0.000722024 0.000600767)
(-0.00127677 -0.000958291 0.000600767)
(-0.00109096 -0.00116544 0.000600767)
(-0.000872012 -0.00133718 0.000600767)
(-0.000626566 -0.00146829 0.000600766)
(-0.000362083 -0.00155478 0.000600767)
(-8.6595e-05 -0.00159404 0.000600767)
(0.000191522 -0.00158486 0.000600767)
(0.000463819 -0.00152752 0.000600767)
(0.000722024 -0.00142377 0.000600767)
(0.000958291 -0.00127677 0.000600767)
(0.00116544 -0.00109096 0.000600767)
(0.00133718 -0.000872012 0.000600767)
(0.00146829 -0.000626566 0.000600766)
(0.00155478 -0.000362083 0.000600767)
(0.00159404 -8.65951e-05 0.000600767)
(0.00158486 0.000191522 0.000600767)
(0.00152752 0.000463819 0.000600767)
(0.00142377 0.000722024 0.000600767)
(0.00127677 0.000958291 0.000600767)
(0.00109096 0.00116544 0.000600767)
(0.000872013 0.00133718 0.000600767)
(0.000626566 0.00146829 0.000600766)
(0.000362083 0.00155478 0.000600767)
(8.65952e-05 0.00159404 0.000600767)
(0.00011774 0.00206466 0.00071318)
(-0.000242575 0.00205373 0.00071318)
(-0.000595516 0.00198041 0.000713181)
(-0.000930361 0.00184691 0.000713181)
(-0.00123694 0.0016573 0.000713182)
(-0.00150593 0.00141733 0.000713182)
(-0.00172917 0.00113429 0.000713182)
(-0.00189987 0.000816791 0.000713181)
(-0.00201284 0.000474473 0.000713181)
(-0.00206465 0.00011774 0.00071318)
(-0.00205373 -0.000242575 0.00071318)
(-0.00198041 -0.000595516 0.000713181)
(-0.00184691 -0.000930361 0.000713181)
(-0.0016573 -0.00123694 0.000713182)
(-0.00141733 -0.00150593 0.000713182)
(-0.00113429 -0.00172917 0.000713182)
(-0.000816791 -0.00189987 0.000713181)
(-0.000474473 -0.00201284 0.000713181)
(-0.00011774 -0.00206465 0.00071318)
(0.000242575 -0.00205373 0.00071318)
(0.000595516 -0.00198041 0.000713181)
(0.000930362 -0.00184691 0.000713181)
(0.00123694 -0.0016573 0.000713182)
(0.00150593 -0.00141733 0.000713182)
(0.00172917 -0.00113429 0.000713182)
(0.00189987 -0.000816791 0.000713181)
(0.00201284 -0.000474473 0.000713181)
(0.00206466 -0.00011774 0.00071318)
(0.00205373 0.000242575 0.00071318)
(0.00198041 0.000595516 0.000713181)
(0.00184691 0.000930361 0.000713181)
(0.0016573 0.00123694 0.000713182)
(0.00141733 0.00150593 0.000713182)
(0.00113429 0.00172917 0.000713182)
(0.000816792 0.00189987 0.000713181)
(0.000474473 0.00201284 0.000713181)
(-3.95027e-06 0.00204956 0.000769638)
(-0.000359792 0.00201773 0.000769638)
(-0.000704701 0.0019246 0.000769638)
(-0.0010282 0.00177299 0.000769638)
(-0.00132046 0.00156751 0.000769639)
(-0.00157259 0.0013144 0.000769639)
(-0.00177694 0.00102136 0.000769639)
(-0.0019273 0.000697277 0.000769639)
(-0.00201911 0.000352012 0.000769638)
(-0.00204956 -3.95044e-06 0.000769638)
(-0.00201773 -0.000359792 0.000769638)
(-0.0019246 -0.000704702 0.000769638)
(-0.00177299 -0.0010282 0.000769638)
(-0.00156751 -0.00132046 0.000769638)
(-0.0013144 -0.00157259 0.000769639)
(-0.00102136 -0.00177694 0.000769638)
(-0.000697277 -0.0019273 0.000769638)
(-0.000352012 -0.00201911 0.000769638)
(3.95056e-06 -0.00204956 0.000769638)
(0.000359792 -0.00201773 0.000769638)
(0.000704702 -0.0019246 0.000769638)
(0.0010282 -0.00177299 0.000769638)
(0.00132046 -0.00156751 0.000769638)
(0.00157259 -0.0013144 0.000769639)
(0.00177694 -0.00102136 0.000769639)
(0.0019273 -0.000697277 0.000769639)
(0.00201911 -0.000352012 0.000769638)
(0.00204956 3.95042e-06 0.000769638)
(0.00201773 0.000359792 0.000769638)
(0.0019246 0.000704702 0.000769638)
(0.00177299 0.0010282 0.000769638)
(0.00156751 0.00132046 0.000769639)
(0.0013144 0.00157259 0.000769639)
(0.00102136 0.00177694 0.000769639)
(0.000697278 0.0019273 0.000769639)
(0.000352012 0.00201911 0.000769638)
(-0.000135775 0.00203162 0.000820739)
(-0.000486499 0.00197718 0.000820739)
(-0.000822442 0.00186266 0.000820739)
(-0.00113339 0.00169154 0.000820739)
(-0.00140991 0.00146904 0.000820739)
(-0.00164358 0.00120189 0.000820739)
(-0.00182732 0.000898224 0.000820739)
(-0.00195553 0.000567269 0.000820739)
(-0.00202433 0.000219074 0.000820739)
(-0.00203162 -0.000135776 0.000820739)
(-0.00197718 -0.000486499 0.000820739)
(-0.00186266 -0.000822442 0.000820739)
(-0.00169154 -0.00113339 0.000820739)
(-0.00146904 -0.00140991 0.000820739)
(-0.00120189 -0.00164358 0.000820739)
(-0.000898224 -0.00182732 0.000820739)
(-0.000567268 -0.00195553 0.000820739)
(-0.000219074 -0.00202433 0.000820739)
(0.000135776 -0.00203162 0.000820739)
(0.000486499 -0.00197718 0.000820739)
(0.000822442 -0.00186266 0.000820739)
(0.00113339 -0.00169154 0.000820739)
(0.00140991 -0.00146904 0.000820739)
(0.00164358 -0.00120189 0.000820739)
(0.00182732 -0.000898224 0.000820739)
(0.00195553 -0.000567269 0.000820739)
(0.00202433 -0.000219074 0.000820739)
(0.00203162 0.000135776 0.000820739)
(0.00197718 0.000486499 0.000820739)
(0.00186266 0.000822442 0.000820739)
(0.00169155 0.00113339 0.000820739)
(0.00146904 0.00140991 0.000820739)
(0.00120189 0.00164358 0.000820739)
(0.000898225 0.00182732 0.000820739)
(0.000567269 0.00195553 0.000820739)
(0.000219074 0.00202433 0.000820739)
(-0.000272482 0.0020016 0.000864478)
(-0.000615917 0.00192387 0.000864478)
(-0.000940635 0.00178769 0.000864478)
(-0.00123678 0.00159719 0.000864478)
(-0.00149533 0.00135816 0.000864477)
(-0.00170846 0.00107787 0.000864477)
(-0.00186967 0.000764821 0.000864478)
(-0.00197408 0.000428537 0.000864477)
(-0.0020185 7.92305e-05 0.000864478)
(-0.0020016 -0.000272482 0.000864478)
(-0.00192387 -0.000615917 0.000864478)
(-0.00178769 -0.000940635 0.000864477)
(-0.00159719 -0.00123678 0.000864477)
(-0.00135816 -0.00149533 0.000864477)
(-0.00107787 -0.00170846 0.000864477)
(-0.000764821 -0.00186967 0.000864478)
(-0.000428537 -0.00197408 0.000864477)
(-7.92304e-05 -0.0020185 0.000864478)
(0.000272483 -0.0020016 0.000864478)
(0.000615917 -0.00192387 0.000864478)
(0.000940635 -0.00178769 0.000864477)
(0.00123678 -0.00159719 0.000864477)
(0.00149533 -0.00135816 0.000864477)
(0.00170846 -0.00107787 0.000864477)
(0.00186967 -0.000764821 0.000864478)
(0.00197408 -0.000428537 0.000864478)
(0.0020185 -7.92305e-05 0.000864478)
(0.0020016 0.000272482 0.000864478)
(0.00192387 0.000615917 0.000864478)
(0.00178769 0.000940635 0.000864478)
(0.00159719 0.00123678 0.000864478)
(0.00135816 0.00149533 0.000864477)
(0.00107787 0.00170846 0.000864477)
(0.000764821 0.00186967 0.000864478)
(0.000428537 0.00197408 0.000864478)
(7.92306e-05 0.0020185 0.000864478)
(6.91009e-06 0.00252221 0.00100476)
(-0.000431173 0.0024851 0.00100475)
(-0.000856153 0.00237247 0.00100476)
(-0.00125512 0.00218776 0.00100476)
(-0.00161595 0.00193657 0.00100476)
(-0.00192768 0.00162654 0.00100476)
(-0.00218084 0.00126709 0.00100476)
(-0.00236774 0.00086914 0.00100476)
(-0.00248269 0.000444782 0.00100476)
(-0.00252221 6.90989e-06 0.00100476)
(-0.0024851 -0.000431173 0.00100475)
(-0.00237247 -0.000856153 0.00100475)
(-0.00218776 -0.00125512 0.00100476)
(-0.00193657 -0.00161595 0.00100476)
(-0.00162654 -0.00192769 0.00100476)
(-0.00126709 -0.00218084 0.00100476)
(-0.00086914 -0.00236774 0.00100476)
(-0.000444782 -0.00248269 0.00100476)
(-6.90972e-06 -0.00252221 0.00100476)
(0.000431173 -0.0024851 0.00100475)
(0.000856153 -0.00237247 0.00100475)
(0.00125512 -0.00218776 0.00100476)
(0.00161595 -0.00193657 0.00100476)
(0.00192769 -0.00162654 0.00100476)
(0.00218084 -0.00126709 0.00100476)
(0.00236774 -0.00086914 0.00100476)
(0.0024827 -0.000444782 0.00100476)
(0.00252221 -6.90991e-06 0.00100476)
(0.0024851 0.000431173 0.00100475)
(0.00237247 0.000856153 0.00100476)
(0.00218776 0.00125512 0.00100476)
(0.00193657 0.00161595 0.00100476)
(0.00162654 0.00192768 0.00100476)
(0.00126709 0.00218084 0.00100476)
(0.00086914 0.00236774 0.00100476)
(0.000444782 0.00248269 0.00100476)
(-0.000112665 0.0024674 0.00105488)
(-0.000539412 0.00241035 0.00105488)
(-0.00094977 0.00228007 0.00105488)
(-0.00133127 0.0020805 0.00105488)
(-0.00167232 0.00181772 0.00105488)
(-0.00196256 0.00149971 0.00105488)
(-0.00219316 0.00113613 0.00105488)
(-0.00235713 0.000738032 0.00105488)
(-0.00244948 0.000317507 0.00105488)
(-0.0024674 -0.000112665 0.00105488)
(-0.00241035 -0.000539412 0.00105488)
(-0.00228006 -0.00094977 0.00105488)
(-0.0020805 -0.00133127 0.00105488)
(-0.00181772 -0.00167232 0.00105488)
(-0.00149971 -0.00196256 0.00105488)
(-0.00113613 -0.00219316 0.00105488)
(-0.000738032 -0.00235713 0.00105488)
(-0.000317506 -0.00244948 0.00105488)
(0.000112665 -0.0024674 0.00105488)
(0.000539412 -0.00241035 0.00105488)
(0.000949771 -0.00228007 0.00105488)
(0.00133127 -0.0020805 0.00105488)
(0.00167232 -0.00181772 0.00105488)
(0.00196256 -0.00149971 0.00105488)
(0.00219316 -0.00113613 0.00105488)
(0.00235713 -0.000738032 0.00105488)
(0.00244948 -0.000317507 0.00105488)
(0.0024674 0.000112665 0.00105488)
(0.00241035 0.000539412 0.00105488)
(0.00228007 0.00094977 0.00105488)
(0.0020805 0.00133127 0.00105488)
(0.00181772 0.00167232 0.00105488)
(0.00149971 0.00196256 0.00105488)
(0.00113613 0.00219316 0.00105488)
(0.000738032 0.00235713 0.00105488)
(0.000317507 0.00244948 0.00105488)
(-0.000240638 0.00241092 0.00109938)
(-0.000655632 0.00233251 0.00109938)
(-0.00105071 0.00218322 0.00109938)
(-0.00141386 0.0019676 0.00109939)
(-0.00173405 0.00169219 0.00109939)
(-0.00200155 0.00136537 0.00109938)
(-0.00220824 0.000997062 0.00109938)
(-0.00234783 0.00059846 0.00109938)
(-0.00241608 0.000181671 0.00109938)
(-0.00241092 -0.000240638 0.00109938)
(-0.00233251 -0.000655633 0.00109938)
(-0.00218322 -0.00105071 0.00109938)
(-0.0019676 -0.00141386 0.00109938)
(-0.00169219 -0.00173405 0.00109938)
(-0.00136537 -0.00200155 0.00109938)
(-0.000997062 -0.00220824 0.00109938)
(-0.00059846 -0.00234783 0.00109938)
(-0.000181671 -0.00241608 0.00109938)
(0.000240638 -0.00241092 0.00109938)
(0.000655633 -0.00233251 0.00109938)
(0.00105071 -0.00218322 0.00109938)
(0.00141386 -0.0019676 0.00109938)
(0.00173405 -0.00169219 0.00109939)
(0.00200155 -0.00136537 0.00109938)
(0.00220824 -0.000997062 0.00109938)
(0.00234783 -0.00059846 0.00109938)
(0.00241608 -0.000181671 0.00109938)
(0.00241092 0.000240638 0.00109938)
(0.00233251 0.000655633 0.00109938)
(0.00218322 0.00105071 0.00109938)
(0.0019676 0.00141386 0.00109939)
(0.00169219 0.00173405 0.00109939)
(0.00136537 0.00200155 0.00109938)
(0.000997063 0.00220824 0.00109938)
(0.00059846 0.00234783 0.00109938)
(0.000181671 0.00241608 0.00109938)
(-0.000372018 0.00234336 0.00113644)
(-0.000773288 0.00224316 0.00113644)
(-0.00115106 0.0020748 0.00113644)
(-0.00149386 0.0018434 0.00113644)
(-0.00179126 0.00155599 0.00113644)
(-0.00203424 0.0012213 0.00113644)
(-0.00221542 0.000849503 0.00113644)
(-0.00232927 0.000451892 0.00113644)
(-0.00237236 4.05523e-05 0.00113644)
(-0.00234336 -0.000372018 0.00113644)
(-0.00224316 -0.000773288 0.00113644)
(-0.0020748 -0.00115106 0.00113644)
(-0.0018434 -0.00149386 0.00113644)
(-0.00155599 -0.00179126 0.00113644)
(-0.0012213 -0.00203424 0.00113644)
(-0.000849503 -0.00221542 0.00113644)
(-0.000451892 -0.00232927 0.00113644)
(-4.05521e-05 -0.00237236 0.00113644)
(0.000372018 -0.00234336 0.00113644)
(0.000773288 -0.00224316 0.00113644)
(0.00115106 -0.0020748 0.00113644)
(0.00149386 -0.0018434 0.00113644)
(0.00179126 -0.00155599 0.00113644)
(0.00203424 -0.0012213 0.00113644)
(0.00221542 -0.000849503 0.00113644)
(0.00232927 -0.000451892 0.00113644)
(0.00237236 -4.05523e-05 0.00113644)
(0.00234336 0.000372018 0.00113644)
(0.00224316 0.000773288 0.00113644)
(0.0020748 0.00115106 0.00113644)
(0.0018434 0.00149386 0.00113644)
(0.00155599 0.00179126 0.00113644)
(0.0012213 0.00203424 0.00113644)
(0.000849503 0.00221542 0.00113644)
(0.000451892 0.00232927 0.00113644)
(4.05524e-05 0.00237236 0.00113644)
(-0.000136122 0.00292191 0.00131848)
(-0.000641438 0.00285388 0.00131848)
(-0.00112726 0.00269914 0.00131848)
(-0.00157884 0.00246238 0.00131848)
(-0.00198244 0.00215081 0.00131848)
(-0.0023258 0.00177389 0.00131848)
(-0.0025985 0.00134307 0.00131848)
(-0.00279225 0.000871437 0.00131848)
(-0.00290115 0.000373329 0.00131848)
(-0.00292191 -0.000136122 0.00131848)
(-0.00285388 -0.000641438 0.00131848)
(-0.00269914 -0.00112726 0.00131848)
(-0.00246238 -0.00157884 0.00131848)
(-0.00215081 -0.00198244 0.00131848)
(-0.00177389 -0.0023258 0.00131848)
(-0.00134307 -0.0025985 0.00131848)
(-0.000871437 -0.00279225 0.00131848)
(-0.000373329 -0.00290115 0.00131848)
(0.000136122 -0.00292191 0.00131848)
(0.000641438 -0.00285388 0.00131848)
(0.00112726 -0.00269914 0.00131848)
(0.00157884 -0.00246238 0.00131848)
(0.00198244 -0.00215081 0.00131848)