/*--------------------------------*- C++ -*----------------------------------*\
| =========                 |                                                 |
| \\      /  F ield         | OpenFOAM: The Open Source CFD Toolbox           |
|  \\    /   O peration     | Version:  2312                                  |
|   \\  /    A nd           | Website:  www.openfoam.com                      |
|    \\/     M anipulation  |                                                 |
\*---------------------------------------------------------------------------*/
FoamFile
{
    version     2.0;
    format      ascii;
    arch        "LSB;label=32;scalar=64";
    class       volVectorField;
    location    "0.4";
    object      U;
}
// * * * * * * * * * * * * * * * * * * * * * * * * * * * * * * * * * * * * * //

dimensions      [0 1 -1 0 0 0 0];

internalField   nonuniform List<vector> 
1620
(
(0.000114858 0.00020842 3.19795e-05)
(7.69215e-05 0.000225198 3.19792e-05)
(3.66479e-05 0.000235134 3.19793e-05)
(-4.73917e-06 0.000237926 3.198e-05)
(-4.59826e-05 0.000233489 3.19801e-05)
(-8.58293e-05 0.000221957 3.19798e-05)
(-0.000123068 0.000203681 3.19801e-05)
(-0.000156567 0.000179215 3.19802e-05)
(-0.000185309 0.000149305 3.19796e-05)
(-0.00020842 0.000114858 3.19795e-05)
(-0.000225198 7.69214e-05 3.19791e-05)
(-0.000235134 3.66478e-05 3.19793e-05)
(-0.000237926 -4.73921e-06 3.198e-05)
(-0.000233489 -4.59826e-05 3.19801e-05)
(-0.000221957 -8.58293e-05 3.19798e-05)
(-0.000203681 -0.000123068 3.19801e-05)
(-0.000179215 -0.000156567 3.19802e-05)
(-0.000149305 -0.000185309 3.19797e-05)
(-0.000114858 -0.00020842 3.19795e-05)
(-7.69214e-05 -0.000225198 3.19792e-05)
(-3.66478e-05 -0.000235134 3.19793e-05)
(4.73921e-06 -0.000237926 3.198e-05)
(4.59827e-05 -0.000233489 3.19801e-05)
(8.58293e-05 -0.000221957 3.19798e-05)
(0.000123068 -0.000203681 3.19802e-05)
(0.000156567 -0.000179215 3.19802e-05)
(0.000185309 -0.000149305 3.19797e-05)
(0.00020842 -0.000114858 3.19795e-05)
(0.000225198 -7.69215e-05 3.19792e-05)
(0.000235134 -3.66479e-05 3.19793e-05)
(0.000237927 4.73918e-06 3.198e-05)
(0.000233489 4.59826e-05 3.19801e-05)
(0.000221957 8.58293e-05 3.19798e-05)
(0.000203681 0.000123068 3.19802e-05)
(0.000179215 0.000156567 3.19802e-05)
(0.000149305 0.000185309 3.19797e-05)
(4.32015e-05 0.0002871 8.27089e-05)
(-7.30916e-06 0.00029024 8.27089e-05)
(-5.75974e-05 0.000284562 8.27089e-05)
(-0.000106136 0.000270237 8.27093e-05)
(-0.00015145 0.000247701 8.27094e-05)
(-0.000192162 0.000217639 8.27092e-05)
(-0.000227035 0.000180964 8.27092e-05)
(-0.00025501 0.00013879 8.27092e-05)
(-0.000275237 9.23996e-05 8.27089e-05)
(-0.0002871 4.32015e-05 8.27089e-05)
(-0.00029024 -7.30919e-06 8.27089e-05)
(-0.000284562 -5.75974e-05 8.27089e-05)
(-0.000270237 -0.000106136 8.27093e-05)
(-0.000247701 -0.00015145 8.27094e-05)
(-0.000217639 -0.000192162 8.27092e-05)
(-0.000180964 -0.000227035 8.27092e-05)
(-0.00013879 -0.00025501 8.27092e-05)
(-9.23995e-05 -0.000275237 8.27089e-05)
(-4.32015e-05 -0.0002871 8.27089e-05)
(7.3092e-06 -0.00029024 8.27089e-05)
(5.75974e-05 -0.000284562 8.27089e-05)
(0.000106136 -0.000270237 8.27093e-05)
(0.00015145 -0.000247701 8.27094e-05)
(0.000192162 -0.000217639 8.27092e-05)
(0.000227035 -0.000180964 8.27092e-05)
(0.00025501 -0.00013879 8.27092e-05)
(0.000275237 -9.23996e-05 8.27089e-05)
(0.0002871 -4.32015e-05 8.27089e-05)
(0.00029024 7.30918e-06 8.27089e-05)
(0.000284562 5.75974e-05 8.27089e-05)
(0.000270237 0.000106136 8.27093e-05)
(0.000247701 0.00015145 8.27095e-05)
(0.000217639 0.000192162 8.27092e-05)
(0.000180964 0.000227035 8.27092e-05)
(0.00013879 0.00025501 8.27092e-05)
(9.23996e-05 0.000275237 8.27089e-05)
(-7.71362e-05 0.000346723 0.000112543)
(-0.000136172 0.000328062 0.000112543)
(-0.000191071 0.000299432 0.000112543)
(-0.000240164 0.000261703 0.000112543)
(-0.00028196 0.000216024 0.000112543)
(-0.000315188 0.00016378 0.000112543)
(-0.00033884 0.00010656 0.000112543)
(-0.000352196 4.61019e-05 0.000112542)
(-0.00035485 -1.57565e-05 0.000112543)
(-0.000346723 -7.71362e-05 0.000112543)
(-0.000328062 -0.000136172 0.000112543)
(-0.000299432 -0.000191071 0.000112543)
(-0.000261703 -0.000240164 0.000112543)
(-0.000216024 -0.00028196 0.000112543)
(-0.00016378 -0.000315188 0.000112543)
(-0.00010656 -0.00033884 0.000112543)
(-4.61019e-05 -0.000352196 0.000112542)
(1.57565e-05 -0.00035485 0.000112543)
(7.71362e-05 -0.000346723 0.000112543)
(0.000136172 -0.000328062 0.000112543)
(0.000191071 -0.000299432 0.000112543)
(0.000240164 -0.000261703 0.000112543)
(0.00028196 -0.000216024 0.000112543)
(0.000315188 -0.00016378 0.000112543)
(0.00033884 -0.00010656 0.000112543)
(0.000352196 -4.61019e-05 0.000112542)
(0.00035485 1.57565e-05 0.000112543)
(0.000346723 7.71362e-05 0.000112543)
(0.000328062 0.000136172 0.000112543)
(0.000299432 0.000191071 0.000112543)
(0.000261703 0.000240164 0.000112543)
(0.000216024 0.00028196 0.000112543)
(0.00016378 0.000315188 0.000112543)
(0.00010656 0.00033884 0.000112543)
(4.61019e-05 0.000352196 0.000112542)
(-1.57565e-05 0.00035485 0.000112543)
(0.000209743 0.000626849 0.000152017)
(9.7706e-05 0.000653747 0.000152017)
(-1.73002e-05 0.000660782 0.000152017)
(-0.000131781 0.000647739 0.000152019)
(-0.000242257 0.000615015 0.00015202)
(-0.000345373 0.000563605 0.000152019)
(-0.000437995 0.000495069 0.000152019)
(-0.000517309 0.00041149 0.000152019)
(-0.000580904 0.000315408 0.000152018)
(-0.000626849 0.000209743 0.000152017)
(-0.000653747 9.77059e-05 0.000152017)
(-0.000660782 -1.73003e-05 0.000152017)
(-0.000647739 -0.000131781 0.000152019)
(-0.000615015 -0.000242257 0.00015202)
(-0.000563605 -0.000345373 0.000152019)
(-0.000495069 -0.000437995 0.000152019)
(-0.00041149 -0.000517309 0.000152019)
(-0.000315408 -0.000580904 0.000152018)
(-0.000209743 -0.000626849 0.000152017)
(-9.77059e-05 -0.000653747 0.000152017)
(1.73003e-05 -0.000660782 0.000152017)
(0.000131781 -0.000647739 0.000152019)
(0.000242257 -0.000615015 0.00015202)
(0.000345373 -0.000563605 0.000152019)
(0.000437995 -0.000495069 0.000152019)
(0.000517309 -0.00041149 0.000152019)
(0.000580904 -0.000315408 0.000152018)
(0.000626849 -0.000209743 0.000152017)
(0.000653747 -9.7706e-05 0.000152017)
(0.000660782 1.73003e-05 0.000152017)
(0.000647739 0.000131781 0.000152019)
(0.000615016 0.000242257 0.00015202)
(0.000563605 0.000345373 0.000152019)
(0.000495069 0.000437995 0.000152019)
(0.00041149 0.000517309 0.000152019)
(0.000315408 0.000580904 0.000152018)
(6.36116e-05 0.00083674 0.000283574)
(-8.26525e-05 0.000835074 0.000283573)
(-0.000226406 0.000808035 0.000283574)
(-0.000363279 0.000756445 0.000283575)
(-0.000489116 0.00068187 0.000283576)
(-0.000600091 0.000586576 0.000283575)
(-0.000692831 0.00047346 0.000283575)
(-0.000764521 0.000345957 0.000283574)
(-0.000812982 0.000207944 0.000283574)
(-0.00083674 6.36115e-05 0.000283574)
(-0.000835074 -8.26526e-05 0.000283573)
(-0.000808035 -0.000226406 0.000283574)
(-0.000756445 -0.000363279 0.000283575)
(-0.00068187 -0.000489116 0.000283575)
(-0.000586576 -0.000600091 0.000283575)
(-0.00047346 -0.000692831 0.000283575)
(-0.000345957 -0.000764521 0.000283574)
(-0.000207943 -0.000812982 0.000283574)
(-6.36115e-05 -0.00083674 0.000283574)
(8.26527e-05 -0.000835074 0.000283573)
(0.000226406 -0.000808035 0.000283574)
(0.000363279 -0.000756445 0.000283575)
(0.000489116 -0.00068187 0.000283576)
(0.000600091 -0.000586576 0.000283575)
(0.000692832 -0.00047346 0.000283575)
(0.000764522 -0.000345957 0.000283574)
(0.000812982 -0.000207944 0.000283574)
(0.00083674 -6.36115e-05 0.000283574)
(0.000835074 8.26526e-05 0.000283573)
(0.000808035 0.000226406 0.000283574)
(0.000756445 0.000363279 0.000283575)
(0.00068187 0.000489116 0.000283576)
(0.000586576 0.000600091 0.000283575)
(0.00047346 0.000692831 0.000283575)
(0.000345957 0.000764521 0.000283574)
(0.000207944 0.000812982 0.000283574)
(-0.00013991 0.00102336 0.000384344)
(-0.000315489 0.000983523 0.000384344)
(-0.000481482 0.000913797 0.000384344)
(-0.000632846 0.000816305 0.000384344)
(-0.000764981 0.000694011 0.000384345)
(-0.000873874 0.000550629 0.000384345)
(-0.000956213 0.000390517 0.000384344)
(-0.0010095 0.000218539 0.000384344)
(-0.00103211 3.99216e-05 0.000384344)
(-0.00102336 -0.00013991 0.000384344)
(-0.000983523 -0.000315489 0.000384344)
(-0.000913797 -0.000481482 0.000384344)
(-0.000816305 -0.000632846 0.000384344)
(-0.000694011 -0.000764981 0.000384345)
(-0.000550629 -0.000873874 0.000384345)
(-0.000390517 -0.000956213 0.000384344)
(-0.000218539 -0.0010095 0.000384344)
(-3.99216e-05 -0.00103211 0.000384344)
(0.00013991 -0.00102336 0.000384344)
(0.000315489 -0.000983523 0.000384344)
(0.000481482 -0.000913797 0.000384344)
(0.000632846 -0.000816305 0.000384344)
(0.000764981 -0.000694011 0.000384345)
(0.000873874 -0.000550629 0.000384345)
(0.000956213 -0.000390517 0.000384345)
(0.0010095 -0.000218539 0.000384344)
(0.00103211 -3.99216e-05 0.000384344)
(0.00102336 0.00013991 0.000384344)
(0.000983523 0.000315489 0.000384345)
(0.000913797 0.000481482 0.000384344)
(0.000816305 0.000632846 0.000384344)
(0.000694011 0.000764981 0.000384345)
(0.000550629 0.000873874 0.000384345)
(0.000390517 0.000956213 0.000384345)
(0.000218539 0.0010095 0.000384344)
(3.99217e-05 0.00103211 0.000384344)
(0.000225819 0.00107342 0.000367274)
(3.59914e-05 0.00109633 0.000367274)
(-0.00015493 0.00108592 0.000367275)
(-0.000341145 0.00104252 0.000367277)
(-0.000516993 0.000967442 0.000367278)
(-0.000677133 0.00086297 0.000367278)
(-0.000816699 0.000732276 0.000367278)
(-0.00093145 0.000579333 0.000367277)
(-0.0010179 0.000408786 0.000367275)
(-0.00107342 0.000225819 0.000367274)
(-0.00109633 3.59912e-05 0.000367274)
(-0.00108592 -0.00015493 0.000367275)
(-0.00104252 -0.000341145 0.000367277)
(-0.000967442 -0.000516993 0.000367278)
(-0.00086297 -0.000677133 0.000367278)
(-0.000732276 -0.000816699 0.000367278)
(-0.000579333 -0.00093145 0.000367277)
(-0.000408786 -0.0010179 0.000367275)
(-0.000225819 -0.00107342 0.000367274)
(-3.59912e-05 -0.00109633 0.000367274)
(0.00015493 -0.00108592 0.000367275)
(0.000341145 -0.00104252 0.000367277)
(0.000516994 -0.000967442 0.000367278)
(0.000677133 -0.00086297 0.000367278)
(0.000816699 -0.000732276 0.000367278)
(0.00093145 -0.000579333 0.000367277)
(0.0010179 -0.000408786 0.000367275)
(0.00107342 -0.000225819 0.000367274)
(0.00109633 -3.59913e-05 0.000367274)
(0.00108592 0.00015493 0.000367275)
(0.00104252 0.000341145 0.000367277)
(0.000967442 0.000516993 0.000367278)
(0.00086297 0.000677133 0.000367278)
(0.000732277 0.000816699 0.000367278)
(0.000579333 0.00093145 0.000367277)
(0.000408787 0.0010179 0.000367275)
(1.88943e-05 0.00136467 0.000537492)
(-0.000218365 0.00134722 0.000537492)
(-0.00044899 0.00128884 0.000537492)
(-0.000665972 0.00119129 0.000537492)
(-0.00086272 0.00105755 0.000537493)
(-0.00103325 0.00089167 0.000537493)
(-0.00117239 0.0006987 0.000537493)
(-0.00127591 0.000484501 0.000537493)
(-0.00134066 0.00025558 0.000537492)
(-0.00136467 1.88942e-05 0.000537491)
(-0.00134722 -0.000218365 0.000537492)
(-0.00128884 -0.00044899 0.000537492)
(-0.00119129 -0.000665972 0.000537492)
(-0.00105755 -0.00086272 0.000537493)
(-0.00089167 -0.00103325 0.000537493)
(-0.0006987 -0.00117239 0.000537493)
(-0.000484501 -0.00127591 0.000537493)
(-0.00025558 -0.00134066 0.000537492)
(-1.88941e-05 -0.00136467 0.000537491)
(0.000218365 -0.00134722 0.000537492)
(0.00044899 -0.00128884 0.000537492)
(0.000665972 -0.00119129 0.000537492)
(0.00086272 -0.00105755 0.000537493)
(0.00103325 -0.00089167 0.000537493)
(0.00117239 -0.0006987 0.000537493)
(0.00127591 -0.000484501 0.000537493)
(0.00134066 -0.00025558 0.000537492)
(0.00136467 -1.88942e-05 0.000537492)
(0.00134722 0.000218365 0.000537492)
(0.00128884 0.00044899 0.000537492)
(0.00119129 0.000665972 0.000537492)
(0.00105755 0.00086272 0.000537493)
(0.00089167 0.00103325 0.000537493)
(0.0006987 0.00117239 0.000537493)
(0.000484501 0.00127591 0.000537493)
(0.000255581 0.00134066 0.000537492)
(-0.000237512 0.00162848 0.000677402)
(-0.000516685 0.0015625 0.000677402)
(-0.00078016 0.00144904 0.000677402)
(-0.00101993 0.00129155 0.000677402)
(-0.00122871 0.00109482 0.000677402)
(-0.00140016 0.000864824 0.000677402)
(-0.00152906 0.00060855 0.000677402)
(-0.0016115 0.000333786 0.000677402)
(-0.00164498 4.88796e-05 0.000677402)
(-0.00162848 -0.000237512 0.000677402)
(-0.0015625 -0.000516686 0.000677402)
(-0.00144904 -0.00078016 0.000677402)
(-0.00129155 -0.00101993 0.000677402)
(-0.00109482 -0.00122871 0.000677402)
(-0.000864824 -0.00140016 0.000677402)
(-0.00060855 -0.00152906 0.000677402)
(-0.000333786 -0.0016115 0.000677402)
(-4.88796e-05 -0.00164498 0.000677402)
(0.000237512 -0.00162848 0.000677402)
(0.000516686 -0.0015625 0.000677402)
(0.00078016 -0.00144904 0.000677402)
(0.00101993 -0.00129155 0.000677402)
(0.00122871 -0.00109482 0.000677402)
(0.00140016 -0.000864824 0.000677402)
(0.00152906 -0.00060855 0.000677402)
(0.0016115 -0.000333786 0.000677402)
(0.00164498 -4.88796e-05 0.000677402)
(0.00162848 0.000237512 0.000677402)
(0.0015625 0.000516686 0.000677402)
(0.00144904 0.00078016 0.000677402)
(0.00129155 0.00101993 0.000677402)
(0.00109482 0.00122871 0.000677402)
(0.000864824 0.00140016 0.000677402)
(0.00060855 0.00152906 0.000677402)
(0.000333786 0.0016115 0.000677402)
(4.88797e-05 0.00164498 0.000677402)
(0.00013222 0.00153038 0.000607911)
(-0.000135536 0.00153009 0.00060791)
(-0.000399174 0.00148331 0.000607911)
(-0.000650682 0.00139146 0.000607912)
(-0.00088242 0.00125733 0.000607913)
(-0.00108735 0.00108499 0.000607914)
(-0.00125923 0.000879694 0.000607914)
(-0.00139286 0.000647666 0.000607913)
(-0.00148417 0.000395959 0.000607912)
(-0.00153038 0.00013222 0.000607911)
(-0.00153009 -0.000135536 0.00060791)
(-0.00148331 -0.000399174 0.000607911)
(-0.00139146 -0.000650682 0.000607912)
(-0.00125733 -0.00088242 0.000607913)
(-0.00108499 -0.00108735 0.000607914)
(-0.000879694 -0.00125923 0.000607914)
(-0.000647666 -0.00139286 0.000607913)
(-0.000395958 -0.00148417 0.000607912)
(-0.00013222 -0.00153038 0.000607911)
(0.000135536 -0.00153009 0.00060791)
(0.000399174 -0.00148331 0.000607911)
(0.000650682 -0.00139146 0.000607912)
(0.00088242 -0.00125733 0.000607913)
(0.00108735 -0.00108499 0.000607914)
(0.00125923 -0.000879694 0.000607914)
(0.00139286 -0.000647666 0.000607914)
(0.00148417 -0.000395959 0.000607912)
(0.00153038 -0.00013222 0.000607911)
(0.00153009 0.000135536 0.00060791)
(0.00148331 0.000399174 0.000607911)
(0.00139146 0.000650682 0.000607912)
(0.00125733 0.00088242 0.000607913)
(0.00108499 0.00108735 0.000607914)
(0.000879694 0.00125923 0.000607914)
(0.000647666 0.00139286 0.000607914)
(0.000395959 0.00148417 0.000607912)
(-9.90182e-05 0.00184995 0.000788127)
(-0.000418754 0.00180465 0.000788127)
(-0.000725767 0.00170452 0.000788127)
(-0.00101073 0.0015526 0.000788127)
(-0.00126498 0.0013535 0.000788128)
(-0.00148079 0.00111327 0.000788128)
(-0.00165161 0.000839224 0.000788128)
(-0.00177225 0.000539674 0.000788128)
(-0.00183904 0.000223727 0.000788128)
(-0.00184995 -9.90184e-05 0.000788127)
(-0.00180465 -0.000418755 0.000788126)
(-0.00170452 -0.000725767 0.000788127)
(-0.0015526 -0.00101073 0.000788127)
(-0.0013535 -0.00126498 0.000788128)
(-0.00111327 -0.00148079 0.000788128)
(-0.000839224 -0.00165161 0.000788128)
(-0.000539674 -0.00177225 0.000788128)
(-0.000223727 -0.00183904 0.000788128)
(9.90185e-05 -0.00184995 0.000788127)
(0.000418755 -0.00180465 0.000788126)
(0.000725767 -0.00170452 0.000788127)
(0.00101073 -0.0015526 0.000788127)
(0.00126498 -0.0013535 0.000788128)
(0.00148079 -0.00111327 0.000788128)
(0.00165161 -0.000839224 0.000788128)
(0.00177225 -0.000539674 0.000788128)
(0.00183904 -0.000223727 0.000788128)
(0.00184995 9.90184e-05 0.000788127)
(0.00180465 0.000418755 0.000788127)
(0.00170452 0.000725767 0.000788127)
(0.0015526 0.00101073 0.000788127)
(0.0013535 0.00126498 0.000788128)
(0.00111327 0.00148079 0.000788128)
(0.000839224 0.00165161 0.000788129)
(0.000539674 0.00177225 0.000788128)
(0.000223727 0.00183904 0.000788128)
(-0.000371585 0.00214223 0.000938824)
(-0.000737934 0.00204516 0.000938824)
(-0.00108186 0.00188595 0.000938824)
(-0.00139291 0.00166943 0.000938824)
(-0.00166165 0.00140219 0.000938824)
(-0.00187989 0.00109235 0.000938824)
(-0.00204101 0.000749311 0.000938824)
(-0.00214012 0.000383509 0.000938824)
(-0.00217421 6.05354e-06 0.000938824)
(-0.00214223 -0.000371585 0.000938824)
(-0.00204516 -0.000737934 0.000938823)
(-0.00188594 -0.00108186 0.000938824)
(-0.00166943 -0.00139292 0.000938824)
(-0.00140219 -0.00166165 0.000938823)
(-0.00109235 -0.00187989 0.000938824)
(-0.000749311 -0.00204101 0.000938824)
(-0.000383509 -0.00214012 0.000938824)
(-6.05345e-06 -0.00217421 0.000938824)
(0.000371586 -0.00214223 0.000938824)
(0.000737934 -0.00204516 0.000938824)
(0.00108186 -0.00188595 0.000938824)
(0.00139292 -0.00166943 0.000938824)
(0.00166165 -0.00140219 0.000938824)
(0.00187989 -0.00109235 0.000938824)
(0.00204101 -0.000749311 0.000938824)
(0.00214012 -0.000383509 0.000938824)
(0.00217421 -6.05358e-06 0.000938824)
(0.00214223 0.000371585 0.000938824)
(0.00204516 0.000737934 0.000938824)
(0.00188595 0.00108186 0.000938824)
(0.00166943 0.00139292 0.000938824)
(0.00140219 0.00166165 0.000938824)
(0.00109235 0.00187989 0.000938824)
(0.000749312 0.00204101 0.000938824)
(0.000383509 0.00214012 0.000938824)
(6.05372e-06 0.00217421 0.000938824)
(-4.68957e-05 0.00196068 0.000837951)
(-0.000386652 0.00192275 0.000837949)
(-0.00071466 0.0018264 0.00083795)
(-0.00102095 0.00167455 0.000837951)
(-0.00129622 0.00147182 0.000837951)
(-0.00153211 0.00122438 0.000837952)
(-0.00172145 0.000939727 0.000837952)
(-0.00185847 0.000626524 0.000837952)
(-0.00193904 0.000294285 0.000837952)
(-0.00196068 -4.6896e-05 0.000837951)
(-0.00192275 -0.000386652 0.000837949)
(-0.0018264 -0.000714661 0.000837949)
(-0.00167455 -0.00102095 0.000837951)
(-0.00147182 -0.00129622 0.000837951)
(-0.00122438 -0.00153211 0.000837952)
(-0.000939727 -0.00172145 0.000837952)
(-0.000626524 -0.00185847 0.000837952)
(-0.000294285 -0.00193904 0.000837952)
(4.68961e-05 -0.00196068 0.000837951)
(0.000386652 -0.00192275 0.000837949)
(0.000714661 -0.0018264 0.00083795)
(0.00102095 -0.00167455 0.000837951)
(0.00129622 -0.00147182 0.000837951)
(0.00153211 -0.00122438 0.000837952)
(0.00172145 -0.000939727 0.000837952)
(0.00185848 -0.000626524 0.000837952)
(0.00193904 -0.000294285 0.000837952)
(0.00196068 4.68959e-05 0.000837951)
(0.00192275 0.000386652 0.000837949)
(0.0018264 0.000714661 0.00083795)
(0.00167455 0.00102095 0.000837951)
(0.00147183 0.00129622 0.000837951)
(0.00122438 0.00153211 0.000837952)
(0.000939727 0.00172145 0.000837952)
(0.000626524 0.00185847 0.000837952)
(0.000294285 0.00193904 0.000837952)
(-0.000277761 0.00227191 0.00101036)
(-0.000668053 0.00218916 0.00101036)
(-0.00103805 0.00203989 0.00101036)
(-0.0013765 0.00182865 0.00101036)
(-0.00167313 0.00156184 0.00101036)
(-0.00191892 0.00124758 0.00101036)
(-0.00210641 0.000895405 0.00101036)
(-0.00222989 0.000516028 0.00101036)
(-0.00228562 0.000120971 0.00101036)
(-0.00227191 -0.000277761 0.00101036)
(-0.00218916 -0.000668054 0.00101036)
(-0.00203989 -0.00103805 0.00101036)
(-0.00182865 -0.0013765 0.00101036)
(-0.00156184 -0.00167313 0.00101036)
(-0.00124758 -0.00191892 0.00101036)
(-0.000895405 -0.00210641 0.00101036)
(-0.000516028 -0.00222989 0.00101036)
(-0.000120971 -0.00228562 0.00101036)
(0.000277761 -0.00227191 0.00101036)
(0.000668054 -0.00218916 0.00101036)
(0.00103805 -0.00203989 0.00101036)
(0.0013765 -0.00182865 0.00101036)
(0.00167313 -0.00156184 0.00101036)
(0.00191892 -0.00124758 0.00101036)
(0.00210641 -0.000895405 0.00101036)
(0.00222989 -0.000516028 0.00101036)
(0.00228562 -0.000120971 0.00101036)
(0.00227191 0.000277761 0.00101036)
(0.00218916 0.000668053 0.00101036)
(0.00203989 0.00103805 0.00101036)
(0.00182865 0.0013765 0.00101036)
(0.00156184 0.00167313 0.00101036)
(0.00124758 0.00191892 0.00101036)
(0.000895406 0.00210641 0.00101036)
(0.000516029 0.00222989 0.00101036)
(0.000120972 0.00228562 0.00101036)
(-0.000542394 0.00255893 0.00115412)
(-0.000978508 0.00242587 0.00115412)
(-0.00138489 0.0022191 0.00115412)
(-0.00174919 0.0019449 0.00115412)
(-0.00206035 0.00161161 0.00115412)
(-0.0023089 0.00122935 0.00115412)
(-0.0024873 0.000809741 0.00115412)
(-0.00259012 0.000365524 0.00115412)
(-0.00261424 -8.97988e-05 0.00115412)
(-0.00255893 -0.000542394 0.00115412)
(-0.00242587 -0.000978508 0.00115412)
(-0.0022191 -0.00138489 0.00115412)
(-0.0019449 -0.00174919 0.00115412)
(-0.00161161 -0.00206035 0.00115412)
(-0.00122935 -0.0023089 0.00115412)
(-0.000809741 -0.0024873 0.00115412)
(-0.000365524 -0.00259012 0.00115412)
(8.9799e-05 -0.00261424 0.00115412)
(0.000542394 -0.00255893 0.00115412)
(0.000978508 -0.00242587 0.00115412)
(0.00138489 -0.0022191 0.00115412)
(0.00174919 -0.0019449 0.00115412)
(0.00206035 -0.00161161 0.00115412)
(0.0023089 -0.00122935 0.00115412)
(0.0024873 -0.000809741 0.00115412)
(0.00259012 -0.000365524 0.00115412)
(0.00261424 8.97988e-05 0.00115412)
(0.00255893 0.000542394 0.00115412)
(0.00242587 0.000978508 0.00115412)
(0.0022191 0.00138489 0.00115412)
(0.00194491 0.00174919 0.00115412)
(0.00161161 0.00206035 0.00115412)
(0.00122935 0.0023089 0.00115412)
(0.000809741 0.0024873 0.00115412)
(0.000365524 0.00259012 0.00115412)
(-8.97986e-05 0.00261424 0.00115412)
(-0.00027231 0.00232593 0.00104398)
(-0.000672067 0.00224331 0.00104398)
(-0.0010514 0.00209252 0.00104398)
(-0.00139879 0.00187816 0.00104398)
(-0.00170368 0.00160673 0.00104398)
(-0.0019568 0.00128648 0.00104398)
(-0.00215047 0.000927137 0.00104398)
(-0.00227879 0.000539626 0.00104398)
(-0.00233788 0.00013572 0.00104398)
(-0.00232593 -0.000272311 0.00104398)
(-0.00224331 -0.000672067 0.00104398)
(-0.00209252 -0.0010514 0.00104398)
(-0.00187816 -0.00139879 0.00104398)
(-0.00160673 -0.00170368 0.00104398)
(-0.00128648 -0.0019568 0.00104398)
(-0.000927137 -0.00215047 0.00104398)
(-0.000539626 -0.00227879 0.00104398)
(-0.00013572 -0.00233788 0.00104398)
(0.000272311 -0.00232593 0.00104398)
(0.000672067 -0.00224331 0.00104398)
(0.0010514 -0.00209252 0.00104398)
(0.00139879 -0.00187816 0.00104398)
(0.00170368 -0.00160673 0.00104398)
(0.0019568 -0.00128648 0.00104398)
(0.00215047 -0.000927137 0.00104398)
(0.00227879 -0.000539626 0.00104398)
(0.00233788 -0.00013572 0.00104398)
(0.00232593 0.000272311 0.00104398)
(0.00224331 0.000672067 0.00104398)
(0.00209252 0.0010514 0.00104398)
(0.00187816 0.00139879 0.00104398)
(0.00160673 0.00170368 0.00104398)
(0.00128648 0.0019568 0.00104398)
(0.000927137 0.00215047 0.00104398)
(0.000539627 0.00227879 0.00104398)
(0.00013572 0.00233788 0.00104398)
(-0.000493614 0.00260919 0.00119838)
(-0.000939197 0.00248384 0.00119838)
(-0.00135624 0.00228301 0.00119838)
(-0.00173208 0.00201282 0.00119838)
(-0.00205529 0.00168147 0.00119838)
(-0.00231604 0.00129902 0.00119838)
(-0.00250643 0.000877113 0.00119838)
(-0.00262066 0.00042855 0.00119838)
(-0.00265527 -3.30345e-05 0.00119838)
(-0.00260919 -0.000493615 0.00119838)
(-0.00248384 -0.000939197 0.00119838)
(-0.00228301 -0.00135624 0.00119838)
(-0.00201282 -0.00173208 0.00119838)
(-0.00168147 -0.00205529 0.00119838)
(-0.00129902 -0.00231604 0.00119838)
(-0.000877113 -0.00250643 0.00119838)
(-0.00042855 -0.00262066 0.00119838)
(3.30347e-05 -0.00265527 0.00119838)
(0.000493615 -0.00260919 0.00119838)
(0.000939198 -0.00248384 0.00119838)
(0.00135624 -0.00228301 0.00119838)
(0.00173208 -0.00201282 0.00119838)
(0.00205529 -0.00168147 0.00119838)
(0.00231604 -0.00129902 0.00119838)
(0.00250643 -0.000877113 0.00119838)
(0.00262066 -0.00042855 0.00119838)
(0.00265527 3.30345e-05 0.00119838)
(0.00260919 0.000493615 0.00119838)
(0.00248384 0.000939197 0.00119838)
(0.00228301 0.00135624 0.00119838)
(0.00201282 0.00173208 0.00119838)
(0.00168147 0.00205529 0.00119838)
(0.00129903 0.00231604 0.00119838)
(0.000877113 0.00250643 0.00119838)
(0.000428551 0.00262066 0.00119838)
(-3.30342e-05 0.00265527 0.00119838)
(-0.0007407 0.00287382 0.00132436)
(-0.00122848 0.00270154 0.00132436)
(-0.00167894 0.00244718 0.00132436)
(-0.00207838 0.00211846 0.00132436)
(-0.00241467 0.00172536 0.00132436)
(-0.00267759 0.00127985 0.00132436)
(-0.00285915 0.000795448 0.00132436)
(-0.00295384 0.000286876 0.00132436)
(-0.00295879 -0.000230413 0.00132436)
(-0.00287382 -0.0007407 0.00132436)
(-0.00270154 -0.00122848 0.00132436)
(-0.00244718 -0.00167894 0.00132436)
(-0.00211846 -0.00207838 0.00132436)
(-0.00172536 -0.00241467 0.00132436)
(-0.00127985 -0.00267759 0.00132436)
(-0.000795448 -0.00285915 0.00132436)
(-0.000286876 -0.00295385 0.00132436)
(0.000230413 -0.00295879 0.00132436)
(0.000740701 -0.00287382 0.00132436)
(0.00122848 -0.00270154 0.00132436)
(0.00167894 -0.00244718 0.00132436)
(0.00207838 -0.00211846 0.00132436)
(0.00241467 -0.00172536 0.00132436)
(0.00267759 -0.00127985 0.00132436)
(0.00285915 -0.000795448 0.00132436)
(0.00295385 -0.000286876 0.00132436)
(0.00295879 0.000230413 0.00132436)
(0.00287382 0.0007407 0.00132436)
(0.00270154 0.00122848 0.00132436)
(0.00244718 0.00167894 0.00132436)
(0.00211846 0.00207838 0.00132436)
(0.00172536 0.00241467 0.00132436)
(0.00127985 0.00267759 0.00132436)
(0.000795448 0.00285915 0.00132436)
(0.000286876 0.00295385 0.00132436)
(-0.000230413 0.00295879 0.00132436)
(-0.000500373 0.00259654 0.00123354)
(-0.000943654 0.0024702 0.00123354)
(-0.00135826 0.00226881 0.00123354)
(-0.0017316 0.00199848 0.00123354)
(-0.00205233 0.00166743 0.00123354)
(-0.00231069 0.00128571 0.00123354)
(-0.00249885 0.000864931 0.00123354)
(-0.00261108 0.000417869 0.00123354)
(-0.00264398 -4.1889e-05 0.00123354)
(-0.00259653 -0.000500373 0.00123354)
(-0.0024702 -0.000943655 0.00123354)
(-0.00226881 -0.00135827 0.00123354)
(-0.00199848 -0.0017316 0.00123354)
(-0.00166743 -0.00205233 0.00123354)
(-0.00128571 -0.00231069 0.00123354)
(-0.000864931 -0.00249885 0.00123354)
(-0.000417869 -0.00261108 0.00123354)
(4.18892e-05 -0.00264398 0.00123354)
(0.000500373 -0.00259654 0.00123354)
(0.000943655 -0.0024702 0.00123354)
(0.00135827 -0.00226881 0.00123354)
(0.0017316 -0.00199848 0.00123354)
(0.00205233 -0.00166743 0.00123354)
(0.00231069 -0.00128571 0.00123354)
(0.00249885 -0.000864931 0.00123354)
(0.00261108 -0.000417869 0.00123354)
(0.00264398 4.18889e-05 0.00123354)
(0.00259654 0.000500373 0.00123354)
(0.0024702 0.000943655 0.00123354)
(0.00226881 0.00135827 0.00123354)
(0.00199848 0.0017316 0.00123354)
(0.00166743 0.00205233 0.00123354)
(0.00128571 0.00231069 0.00123354)
(0.000864931 0.00249885 0.00123354)
(0.00041787 0.00261108 0.00123354)
(-4.18885e-05 0.00264398 0.00123354)
(-0.00071532 0.0028419 0.00136285)
(-0.00119794 0.00267451 0.00136285)
(-0.00164417 0.00242586 0.00136285)
(-0.00204044 0.0021035 0.00136285)
(-0.00237471 0.00171722 0.00136284)
(-0.00263682 0.00127877 0.00136285)
(-0.00281882 0.000801466 0.00136285)
(-0.00291517 0.000299807 0.00136285)
(-0.00292294 -0.000210963 0.00136285)
(-0.0028419 -0.00071532 0.00136285)
(-0.00267451 -0.00119794 0.00136285)
(-0.00242586 -0.00164417 0.00136285)
(-0.0021035 -0.00204044 0.00136285)
(-0.00171722 -0.00237471 0.00136284)
(-0.00127877 -0.00263682 0.00136285)
(-0.000801465 -0.00281882 0.00136285)
(-0.000299807 -0.00291517 0.00136285)
(0.000210963 -0.00292294 0.00136285)
(0.000715321 -0.0028419 0.00136285)
(0.00119794 -0.00267451 0.00136285)
(0.00164417 -0.00242586 0.00136285)
(0.00204044 -0.0021035 0.00136285)
(0.00237471 -0.00171722 0.00136285)
(0.00263682 -0.00127877 0.00136285)
(0.00281882 -0.000801466 0.00136285)
(0.00291517 -0.000299807 0.00136285)
(0.00292294 0.000210963 0.00136285)
(0.0028419 0.00071532 0.00136285)
(0.00267451 0.00119794 0.00136285)
(0.00242586 0.00164417 0.00136285)
(0.0021035 0.00204044 0.00136285)
(0.00171723 0.00237471 0.00136285)
(0.00127877 0.00263682 0.00136285)
(0.000801466 0.00281882 0.00136285)
(0.000299808 0.00291517 0.00136285)
(-0.000210962 0.00292294 0.00136285)
(-0.000946869 0.00307731 0.0014629)
(-0.00146685 0.00286614 0.0014629)
(-0.00194227 0.00256788 0.0014629)
(-0.00235867 0.00219159 0.0014629)
(-0.0027034 0.00174872 0.0014629)
(-0.00296599 0.00125271 0.0014629)
(-0.00313846 0.000718642 0.0014629)
(-0.00321557 0.000162737 0.0014629)
(-0.00319498 -0.000398114 0.0014629)
(-0.00307731 -0.000946869 0.0014629)
(-0.00286614 -0.00146685 0.0014629)
(-0.00256788 -0.00194227 0.0014629)
(-0.00219159 -0.00235867 0.0014629)
(-0.00174872 -0.0027034 0.0014629)
(-0.00125271 -0.00296599 0.0014629)
(-0.000718642 -0.00313846 0.0014629)
(-0.000162736 -0.00321557 0.0014629)
(0.000398114 -0.00319498 0.0014629)
(0.000946869 -0.00307731 0.0014629)
(0.00146685 -0.00286614 0.0014629)
(0.00194227 -0.00256788 0.0014629)
(0.00235867 -0.00219159 0.0014629)
(0.0027034 -0.00174872 0.0014629)
(0.00296599 -0.00125271 0.0014629)
(0.00313846 -0.000718642 0.0014629)
(0.00321557 -0.000162737 0.0014629)
(0.00319498 0.000398114 0.0014629)
(0.00307731 0.000946869 0.0014629)
(0.00286614 0.00146685 0.0014629)
(0.00256788 0.00194227 0.0014629)
(0.00219159 0.00235867 0.0014629)
(0.00174872 0.0027034 0.0014629)
(0.00125271 0.00296599 0.0014629)
(0.000718643 0.00313846 0.0014629)
(0.000162737 0.00321557 0.0014629)
(-0.000398114 0.00319498 0.0014629)
(-0.000688203 0.0027523 0.0014273)
(-0.00115568 0.00259099 0.0014273)
(-0.00158804 0.00235094 0.0014273)
(-0.00197215 0.00203946 0.0014273)
(-0.00229634 0.00166602 0.0014273)
(-0.00255075 0.00124195 0.0014273)
(-0.00272766 0.000780149 0.0014273)
(-0.0028217 0.000294642 0.0014273)
(-0.00282999 -0.000199818 0.0014273)
(-0.0027523 -0.000688204 0.0014273)
(-0.00259099 -0.00115568 0.0014273)
(-0.00235094 -0.00158804 0.0014273)
(-0.00203946 -0.00197215 0.0014273)
(-0.00166602 -0.00229634 0.0014273)
(-0.00124195 -0.00255075 0.0014273)
(-0.000780149 -0.00272767 0.0014273)
(-0.000294641 -0.0028217 0.0014273)
(0.000199818 -0.00283 0.0014273)
(0.000688204 -0.0027523 0.0014273)
(0.00115568 -0.00259099 0.0014273)
(0.00158804 -0.00235094 0.0014273)
(0.00197215 -0.00203946 0.0014273)
(0.00229634 -0.00166602 0.0014273)
(0.00255076 -0.00124195 0.0014273)
(0.00272767 -0.000780149 0.0014273)