/*--------------------------------*- C++ -*----------------------------------*\
| =========                 |                                                 |
| \\      /  F ield         | OpenFOAM: The Open Source CFD Toolbox           |
|  \\    /   O peration     | Version:  2312                                  |
|   \\  /    A nd           | Website:  www.openfoam.com                      |
|    \\/     M anipulation  |                                                 |
\*---------------------------------------------------------------------------*/
FoamFile
{
    version     2.0;
    format      ascii;
    arch        "LSB;label=32;scalar=64";
    class       volVectorField;
    location    "0.2";
    object      D;
}
// * * * * * * * * * * * * * * * * * * * * * * * * * * * * * * * * * * * * * //

dimensions      [0 1 0 0 0 0 0];

internalField   nonuniform List<vector> 
1620
(
(-0.000153337 0.000250309 -5.39979e-05)
(-0.000194473 0.000219879 -5.3998e-05)
(-0.0002297 0.000182769 -5.3998e-05)
(-0.000257948 0.000140106 -5.3998e-05)
(-0.000278359 9.31853e-05 -5.39981e-05)
(-0.000290311 4.3433e-05 -5.39981e-05)
(-0.000293443 -7.63897e-06 -5.39979e-05)
(-0.000287658 -5.84786e-05 -5.39978e-05)
(-0.000273133 -0.000107542 -5.39979e-05)
(-0.000250309 -0.000153337 -5.39979e-05)
(-0.000219879 -0.000194473 -5.3998e-05)
(-0.000182769 -0.0002297 -5.3998e-05)
(-0.000140106 -0.000257948 -5.3998e-05)
(-9.31853e-05 -0.000278359 -5.39981e-05)
(-4.3433e-05 -0.000290311 -5.39981e-05)
(7.63898e-06 -0.000293443 -5.39979e-05)
(5.84786e-05 -0.000287658 -5.39978e-05)
(0.000107542 -0.000273133 -5.39979e-05)
(0.000153337 -0.000250309 -5.39979e-05)
(0.000194473 -0.000219879 -5.3998e-05)
(0.0002297 -0.000182769 -5.3998e-05)
(0.000257948 -0.000140106 -5.3998e-05)
(0.000278359 -9.31853e-05 -5.39981e-05)
(0.000290311 -4.3433e-05 -5.39981e-05)
(0.000293443 7.63897e-06 -5.39979e-05)
(0.000287658 5.84786e-05 -5.39978e-05)
(0.000273133 0.000107542 -5.39979e-05)
(0.000250309 0.000153337 -5.39979e-05)
(0.000219879 0.000194473 -5.3998e-05)
(0.000182769 0.0002297 -5.3998e-05)
(0.000140106 0.000257948 -5.3998e-05)
(9.31853e-05 0.000278359 -5.3998e-05)
(4.3433e-05 0.000290311 -5.39981e-05)
(-7.63896e-06 0.000293443 -5.39979e-05)
(-5.84786e-05 0.000287658 -5.39978e-05)
(-0.000107542 0.000273133 -5.39979e-05)
(-0.000122471 0.000263014 -3.81598e-05)
(-0.000166283 0.000237752 -3.81599e-05)
(-0.000205041 0.000205265 -3.81599e-05)
(-0.00023757 0.000166542 -3.81599e-05)
(-0.000262881 0.000122758 -3.81599e-05)
(-0.000280204 7.52439e-05 -3.81599e-05)
(-0.000289013 2.5444e-05 -3.81598e-05)
(-0.00028904 -2.5129e-05 -3.81598e-05)
(-0.000280286 -7.49386e-05 -3.81599e-05)
(-0.000263014 -0.000122471 -3.81598e-05)
(-0.000237752 -0.000166283 -3.81599e-05)
(-0.000205265 -0.000205041 -3.81599e-05)
(-0.000166542 -0.00023757 -3.81599e-05)
(-0.000122758 -0.000262881 -3.81599e-05)
(-7.52439e-05 -0.000280204 -3.81599e-05)
(-2.5444e-05 -0.000289013 -3.81598e-05)
(2.5129e-05 -0.00028904 -3.81598e-05)
(7.49387e-05 -0.000280286 -3.81599e-05)
(0.000122471 -0.000263014 -3.81598e-05)
(0.000166283 -0.000237752 -3.81599e-05)
(0.000205041 -0.000205265 -3.81599e-05)
(0.00023757 -0.000166542 -3.81599e-05)
(0.000262881 -0.000122758 -3.81599e-05)
(0.000280204 -7.52439e-05 -3.81599e-05)
(0.000289013 -2.5444e-05 -3.81598e-05)
(0.00028904 2.5129e-05 -3.81598e-05)
(0.000280286 7.49387e-05 -3.81599e-05)
(0.000263014 0.000122471 -3.81598e-05)
(0.000237752 0.000166283 -3.81599e-05)
(0.000205265 0.000205041 -3.81599e-05)
(0.000166542 0.00023757 -3.81599e-05)
(0.000122758 0.000262881 -3.81599e-05)
(7.52439e-05 0.000280204 -3.81599e-05)
(2.5444e-05 0.000289013 -3.81598e-05)
(-2.5129e-05 0.00028904 -3.81598e-05)
(-7.49386e-05 0.000280286 -3.81599e-05)
(-0.000100351 0.000275507 -2.65762e-05)
(-0.000146668 0.000253896 -2.65762e-05)
(-0.000188529 0.00022457 -2.65762e-05)
(-0.00022466 0.00018842 -2.65762e-05)
(-0.000253967 0.000146546 -2.65763e-05)
(-0.000275555 0.000100219 -2.65762e-05)
(-0.000288772 5.08466e-05 -2.65762e-05)
(-0.000293214 -7.06459e-08 -2.65763e-05)
(-0.000288747 -5.09856e-05 -2.65762e-05)
(-0.000275507 -0.000100351 -2.65762e-05)
(-0.000253896 -0.000146668 -2.65762e-05)
(-0.00022457 -0.000188529 -2.65763e-05)
(-0.00018842 -0.00022466 -2.65762e-05)
(-0.000146546 -0.000253967 -2.65763e-05)
(-0.000100219 -0.000275555 -2.65762e-05)
(-5.08466e-05 -0.000288772 -2.65762e-05)
(7.06516e-08 -0.000293214 -2.65763e-05)
(5.09857e-05 -0.000288747 -2.65762e-05)
(0.000100351 -0.000275507 -2.65762e-05)
(0.000146668 -0.000253896 -2.65762e-05)
(0.000188529 -0.00022457 -2.65763e-05)
(0.00022466 -0.00018842 -2.65762e-05)
(0.000253967 -0.000146546 -2.65763e-05)
(0.000275555 -0.000100219 -2.65762e-05)
(0.000288772 -5.08466e-05 -2.65762e-05)
(0.000293214 7.06512e-08 -2.65763e-05)
(0.000288747 5.09857e-05 -2.65762e-05)
(0.000275507 0.000100351 -2.65762e-05)
(0.000253896 0.000146668 -2.65762e-05)
(0.00022457 0.000188529 -2.65762e-05)
(0.00018842 0.00022466 -2.65762e-05)
(0.000146546 0.000253967 -2.65762e-05)
(0.000100219 0.000275555 -2.65762e-05)
(5.08466e-05 0.000288772 -2.65762e-05)
(-7.06464e-08 0.000293214 -2.65763e-05)
(-5.09856e-05 0.000288747 -2.65762e-05)
(-0.000394383 0.000777046 -0.000165635)
(-0.000523324 0.000696757 -0.000165635)
(-0.000636364 0.000595298 -0.000165635)
(-0.000730068 0.00047575 -0.000165635)
(-0.00080159 0.000341747 -0.000165635)
(-0.000848756 0.000197361 -0.000165635)
(-0.000870133 4.69775e-05 -0.000165635)
(-0.000865072 -0.000104833 -0.000165635)
(-0.000833724 -0.000253459 -0.000165635)
(-0.000777046 -0.000394383 -0.000165635)
(-0.000696757 -0.000523324 -0.000165635)
(-0.000595298 -0.000636364 -0.000165635)
(-0.00047575 -0.000730068 -0.000165635)
(-0.000341747 -0.00080159 -0.000165635)
(-0.000197361 -0.000848756 -0.000165635)
(-4.69775e-05 -0.000870133 -0.000165635)
(0.000104833 -0.000865072 -0.000165635)
(0.000253459 -0.000833724 -0.000165635)
(0.000394383 -0.000777046 -0.000165635)
(0.000523324 -0.000696757 -0.000165635)
(0.000636364 -0.000595298 -0.000165635)
(0.000730068 -0.00047575 -0.000165635)
(0.00080159 -0.000341747 -0.000165635)
(0.000848756 -0.000197361 -0.000165635)
(0.000870133 -4.69775e-05 -0.000165635)
(0.000865072 0.000104833 -0.000165635)
(0.000833724 0.000253459 -0.000165635)
(0.000777046 0.000394383 -0.000165635)
(0.000696757 0.000523324 -0.000165635)
(0.000595298 0.000636364 -0.000165635)
(0.00047575 0.000730068 -0.000165635)
(0.000341747 0.00080159 -0.000165635)
(0.000197361 0.000848756 -0.000165635)
(4.69776e-05 0.000870133 -0.000165635)
(-0.000104833 0.000865072 -0.000165635)
(-0.000253459 0.000833725 -0.000165635)
(-0.000365736 0.000784292 -0.000131566)
(-0.000496371 0.000708867 -0.000131566)
(-0.000611924 0.000611905 -0.000131566)
(-0.000708883 0.000496349 -0.000131566)
(-0.000784304 0.000365712 -0.000131566)
(-0.000835894 0.000223963 -0.000131566)
(-0.000862085 7.54092e-05 -0.000131566)
(-0.000862083 -7.54361e-05 -0.000131566)
(-0.000835886 -0.000223989 -0.000131566)
(-0.000784292 -0.000365736 -0.000131566)
(-0.000708867 -0.000496371 -0.000131566)
(-0.000611905 -0.000611924 -0.000131566)
(-0.000496349 -0.000708883 -0.000131566)
(-0.000365712 -0.000784304 -0.000131566)
(-0.000223963 -0.000835894 -0.000131566)
(-7.54092e-05 -0.000862085 -0.000131566)
(7.54361e-05 -0.000862083 -0.000131566)
(0.000223989 -0.000835886 -0.000131566)
(0.000365736 -0.000784292 -0.000131566)
(0.000496371 -0.000708867 -0.000131566)
(0.000611924 -0.000611905 -0.000131566)
(0.000708883 -0.000496349 -0.000131566)
(0.000784304 -0.000365712 -0.000131566)
(0.000835894 -0.000223963 -0.000131566)
(0.000862085 -7.54092e-05 -0.000131566)
(0.000862083 7.54361e-05 -0.000131566)
(0.000835886 0.000223989 -0.000131566)
(0.000784292 0.000365736 -0.000131566)
(0.000708867 0.000496371 -0.000131566)
(0.000611905 0.000611924 -0.000131566)
(0.000496349 0.000708883 -0.000131566)
(0.000365712 0.000784304 -0.000131566)
(0.000223963 0.000835894 -0.000131566)
(7.54092e-05 0.000862085 -0.000131566)
(-7.54361e-05 0.000862083 -0.000131566)
(-0.000223989 0.000835886 -0.000131566)
(-0.000348093 0.000789158 -9.90209e-05)
(-0.00047984 0.000716724 -9.90207e-05)
(-0.000597007 0.000622512 -9.90208e-05)
(-0.000696035 0.000509385 -9.90208e-05)
(-0.000773915 0.000380781 -9.90208e-05)
(-0.000828279 0.000240607 -9.90208e-05)
(-0.000857477 9.31222e-05 -9.90209e-05)
(-0.000860621 -5.71917e-05 -9.90209e-05)
(-0.000837615 -0.000205768 -9.90209e-05)
(-0.000789158 -0.000348093 -9.90209e-05)
(-0.000716724 -0.00047984 -9.90207e-05)
(-0.000622512 -0.000597007 -9.90208e-05)
(-0.000509385 -0.000696035 -9.90208e-05)
(-0.000380781 -0.000773915 -9.90208e-05)
(-0.000240607 -0.000828279 -9.90208e-05)
(-9.31222e-05 -0.000857477 -9.90209e-05)
(5.71917e-05 -0.000860621 -9.90209e-05)
(0.000205768 -0.000837615 -9.90209e-05)
(0.000348093 -0.000789158 -9.90209e-05)
(0.00047984 -0.000716724 -9.90207e-05)
(0.000597007 -0.000622512 -9.90208e-05)
(0.000696035 -0.000509385 -9.90208e-05)
(0.000773915 -0.000380781 -9.90208e-05)
(0.000828279 -0.000240607 -9.90208e-05)
(0.000857477 -9.31222e-05 -9.90209e-05)
(0.000860621 5.71917e-05 -9.90209e-05)
(0.000837615 0.000205768 -9.90209e-05)
(0.000789158 0.000348093 -9.90209e-05)
(0.000716724 0.00047984 -9.90207e-05)
(0.000622512 0.000597007 -9.90208e-05)
(0.000509385 0.000696035 -9.90208e-05)
(0.000380781 0.000773915 -9.90208e-05)
(0.000240607 0.000828279 -9.90208e-05)
(9.31222e-05 0.000857477 -9.90209e-05)
(-5.71917e-05 0.000860621 -9.90209e-05)
(-0.000205768 0.000837615 -9.90209e-05)
(-0.000634314 0.0012941 -0.000318131)
(-0.000849395 0.00116429 -0.000318131)
(-0.00103867 0.000999111 -0.000318131)
(-0.00119638 0.000803569 -0.00031813)
(-0.00131775 0.000583611 -0.00031813)
(-0.00139907 0.000345921 -0.00031813)
(-0.00143788 9.77198e-05 -0.00031813)
(-0.00143301 -0.000153451 -0.00031813)
(-0.00138459 -0.000399959 -0.00031813)
(-0.0012941 -0.000634314 -0.000318131)
(-0.00116429 -0.000849395 -0.000318131)
(-0.000999111 -0.00103867 -0.000318131)
(-0.000803569 -0.00119638 -0.00031813)
(-0.000583611 -0.00131775 -0.00031813)
(-0.000345921 -0.00139907 -0.00031813)
(-9.77198e-05 -0.00143788 -0.00031813)
(0.000153451 -0.00143301 -0.00031813)
(0.000399959 -0.00138459 -0.00031813)
(0.000634314 -0.0012941 -0.000318131)
(0.000849396 -0.00116429 -0.000318131)
(0.00103867 -0.000999111 -0.000318131)
(0.00119638 -0.000803569 -0.00031813)
(0.00131775 -0.000583611 -0.00031813)
(0.00139907 -0.000345921 -0.00031813)
(0.00143788 -9.77198e-05 -0.00031813)
(0.00143301 0.000153451 -0.00031813)
(0.00138459 0.000399959 -0.00031813)
(0.0012941 0.000634314 -0.000318131)
(0.00116429 0.000849395 -0.000318131)
(0.000999111 0.00103867 -0.000318131)
(0.000803569 0.00119638 -0.00031813)
(0.000583611 0.00131775 -0.00031813)
(0.000345921 0.00139907 -0.00031813)
(9.77198e-05 0.00143788 -0.00031813)
(-0.000153451 0.00143301 -0.00031813)
(-0.000399959 0.00138459 -0.00031813)
(-0.000604646 0.00129282 -0.000268397)
(-0.000819956 0.00116819 -0.000268397)
(-0.00101035 0.00100805 -0.000268397)
(-0.00117005 0.000817295 -0.000268397)
(-0.0012942 0.000601701 -0.000268397)
(-0.00137902 0.000367825 -0.000268397)
(-0.00142194 0.000122773 -0.000268397)
(-0.00142166 -0.00012601 -0.000268397)
(-0.00137818 -0.000370963 -0.000268397)
(-0.00129282 -0.000604646 -0.000268397)
(-0.00116819 -0.000819956 -0.000268397)
(-0.00100805 -0.00101035 -0.000268397)
(-0.000817295 -0.00117005 -0.000268397)
(-0.000601701 -0.0012942 -0.000268397)
(-0.000367825 -0.00137902 -0.000268397)
(-0.000122773 -0.00142194 -0.000268397)
(0.00012601 -0.00142166 -0.000268397)
(0.000370963 -0.00137818 -0.000268397)
(0.000604646 -0.00129282 -0.000268397)
(0.000819956 -0.00116819 -0.000268397)
(0.00101035 -0.00100805 -0.000268397)
(0.00117005 -0.000817295 -0.000268397)
(0.0012942 -0.000601701 -0.000268397)
(0.00137902 -0.000367825 -0.000268397)
(0.00142194 -0.000122773 -0.000268397)
(0.00142166 0.00012601 -0.000268397)
(0.00137818 0.000370963 -0.000268397)
(0.00129282 0.000604646 -0.000268397)
(0.00116819 0.000819956 -0.000268397)
(0.00100805 0.00101035 -0.000268397)
(0.000817295 0.00117005 -0.000268397)
(0.000601701 0.0012942 -0.000268397)
(0.000367825 0.00137902 -0.000268397)
(0.000122773 0.00142194 -0.000268397)
(-0.00012601 0.00142166 -0.000268397)
(-0.000370963 0.00137818 -0.000268397)
(-0.000586476 0.00128721 -0.000220249)
(-0.000801087 0.00116581 -0.000220249)
(-0.000991359 0.001009 -0.000220249)
(-0.00115151 0.00082152 -0.000220249)
(-0.00127667 0.000609082 -0.000220249)
(-0.00136304 0.000378137 -0.000220249)
(-0.001408 0.000135703 -0.000220249)
(-0.00141017 -0.000110854 -0.000220249)
(-0.0013695 -0.000354044 -0.000220249)
(-0.00128721 -0.000586476 -0.000220249)
(-0.00116581 -0.000801087 -0.000220249)
(-0.001009 -0.000991359 -0.000220249)
(-0.00082152 -0.00115151 -0.000220249)
(-0.000609082 -0.00127667 -0.000220249)
(-0.000378137 -0.00136304 -0.000220249)
(-0.000135703 -0.001408 -0.000220249)
(0.000110854 -0.00141017 -0.000220249)
(0.000354044 -0.0013695 -0.000220249)
(0.000586476 -0.00128721 -0.000220249)
(0.000801087 -0.00116581 -0.000220249)
(0.000991359 -0.001009 -0.000220249)
(0.00115151 -0.00082152 -0.000220249)
(0.00127667 -0.000609082 -0.000220249)
(0.00136304 -0.000378137 -0.000220249)
(0.001408 -0.000135703 -0.000220249)
(0.00141017 0.000110854 -0.000220249)
(0.0013695 0.000354044 -0.000220249)
(0.00128721 0.000586476 -0.000220249)
(0.00116581 0.000801087 -0.000220249)
(0.001009 0.000991359 -0.000220249)
(0.00082152 0.00115151 -0.000220249)
(0.000609082 0.00127667 -0.000220249)
(0.000378137 0.00136304 -0.000220249)
(0.000135703 0.001408 -0.000220249)
(-0.000110854 0.00141017 -0.000220249)
(-0.000354044 0.0013695 -0.000220249)
(-0.000867842 0.00179322 -0.000504281)
(-0.00116605 0.00161528 -0.000504281)
(-0.00142882 0.00138826 -0.000504281)
(-0.00164818 0.00111905 -0.000504281)
(-0.00181747 0.000815848 -0.000504281)
(-0.00193152 0.000487854 -0.00050428)
(-0.00198689 0.000145037 -0.00050428)
(-0.0019819 -0.000202188 -0.00050428)
(-0.00191668 -0.000543269 -0.00050428)
(-0.00179322 -0.000867842 -0.000504281)
(-0.00161528 -0.00116605 -0.000504281)
(-0.00138826 -0.00142882 -0.000504281)
(-0.00111905 -0.00164818 -0.000504281)
(-0.000815848 -0.00181747 -0.000504281)
(-0.000487854 -0.00193152 -0.000504281)
(-0.000145037 -0.00198689 -0.00050428)
(0.000202188 -0.0019819 -0.00050428)
(0.000543269 -0.00191668 -0.00050428)
(0.000867842 -0.00179322 -0.000504281)
(0.00116605 -0.00161528 -0.000504281)
(0.00142882 -0.00138826 -0.000504281)
(0.00164818 -0.00111905 -0.000504281)
(0.00181747 -0.000815848 -0.000504281)
(0.00193152 -0.000487854 -0.00050428)
(0.00198689 -0.000145037 -0.00050428)
(0.0019819 0.000202188 -0.00050428)
(0.00191668 0.000543269 -0.00050428)
(0.00179322 0.000867842 -0.000504281)
(0.00161528 0.00116605 -0.000504281)
(0.00138826 0.00142882 -0.000504281)
(0.00111905 0.00164818 -0.000504281)
(0.000815848 0.00181747 -0.000504281)
(0.000487854 0.00193152 -0.00050428)
(0.000145037 0.00198689 -0.00050428)
(-0.000202188 0.0019819 -0.00050428)
(-0.000543269 0.00191668 -0.00050428)
(-0.000836744 0.00177756 -0.000440734)
(-0.0011327 0.00160526 -0.000440734)
(-0.00139424 0.00138418 -0.000440734)
(-0.00161342 0.00112104 -0.000440734)
(-0.00178358 0.000823842 -0.000440734)
(-0.00189954 0.000501611 -0.000440734)
(-0.00195778 0.000164139 -0.000440734)
(-0.00195654 -0.00017832 -0.000440734)
(-0.00189585 -0.000515361 -0.000440734)
(-0.00177756 -0.000836744 -0.000440734)
(-0.00160526 -0.0011327 -0.000440734)
(-0.00138418 -0.00139424 -0.000440734)
(-0.00112104 -0.00161342 -0.000440734)
(-0.000823842 -0.00178358 -0.000440734)
(-0.000501611 -0.00189954 -0.000440734)
(-0.000164139 -0.00195778 -0.000440734)
(0.00017832 -0.00195654 -0.000440734)
(0.000515362 -0.00189585 -0.000440734)
(0.000836744 -0.00177756 -0.000440734)
(0.0011327 -0.00160526 -0.000440734)
(0.00139424 -0.00138418 -0.000440734)
(0.00161342 -0.00112104 -0.000440734)
(0.00178358 -0.000823842 -0.000440734)
(0.00189954 -0.000501611 -0.000440734)
(0.00195778 -0.000164139 -0.000440734)
(0.00195654 0.00017832 -0.000440734)
(0.00189585 0.000515361 -0.000440734)
(0.00177756 0.000836744 -0.000440734)
(0.00160526 0.0011327 -0.000440734)
(0.00138418 0.00139424 -0.000440734)
(0.00112104 0.00161342 -0.000440734)
(0.000823842 0.00178358 -0.000440734)
(0.000501611 0.00189954 -0.000440734)
(0.000164139 0.00195778 -0.000440734)
(-0.00017832 0.00195654 -0.000440734)
(-0.000515361 0.00189585 -0.000440734)
(-0.000817631 0.00175548 -0.000379265)
(-0.00111005 0.00158683 -0.000379265)
(-0.00136873 0.00136997 -0.000379265)
(-0.00158583 0.00111147 -0.000379265)
(-0.00175474 0.000819212 -0.000379265)
(-0.00187034 0.000502059 -0.000379265)
(-0.00192911 0.000169651 -0.000379265)
(-0.00192926 -0.000167912 -0.000379265)
(-0.00187079 -0.000500374 -0.000379265)
(-0.00175548 -0.000817631 -0.000379265)
(-0.00158683 -0.00111005 -0.000379265)
(-0.00136997 -0.00136873 -0.000379265)
(-0.00111147 -0.00158583 -0.000379265)
(-0.000819212 -0.00175474 -0.000379265)
(-0.000502059 -0.00187034 -0.000379265)
(-0.000169651 -0.00192911 -0.000379265)
(0.000167912 -0.00192926 -0.000379265)
(0.000500374 -0.00187079 -0.000379265)
(0.000817631 -0.00175548 -0.000379265)
(0.00111005 -0.00158683 -0.000379265)
(0.00136873 -0.00136997 -0.000379265)
(0.00158583 -0.00111147 -0.000379265)
(0.00175474 -0.000819212 -0.000379265)
(0.00187034 -0.000502059 -0.000379265)
(0.00192911 -0.000169651 -0.000379265)
(0.00192926 0.000167912 -0.000379265)
(0.00187079 0.000500374 -0.000379265)
(0.00175548 0.000817631 -0.000379265)
(0.00158683 0.00111005 -0.000379265)
(0.00136997 0.00136873 -0.000379265)
(0.00111147 0.00158583 -0.000379265)
(0.000819212 0.00175474 -0.000379265)
(0.000502059 0.00187034 -0.000379265)
(0.000169651 0.00192911 -0.000379265)
(-0.000167912 0.00192926 -0.000379265)
(-0.000500374 0.00187079 -0.000379265)
(-0.00109508 0.00226565 -0.000718798)
(-0.00147187 0.00204107 -0.000718798)
(-0.00180394 0.00175447 -0.000718798)
(-0.00208119 0.00141457 -0.000718798)
(-0.00229521 0.00103168 -0.000718798)
(-0.00243949 0.000617446 -0.000718798)
(-0.00250965 0.000184453 -0.000718797)
(-0.00250355 -0.000254146 -0.000718797)
(-0.00242139 -0.000685022 -0.000718797)
(-0.00226565 -0.00109508 -0.000718798)
(-0.00204107 -0.00147187 -0.000718798)
(-0.00175447 -0.00180394 -0.000718798)
(-0.00141457 -0.00208119 -0.000718798)
(-0.00103168 -0.00229521 -0.000718798)
(-0.000617446 -0.00243949 -0.000718798)
(-0.000184453 -0.00250965 -0.000718797)
(0.000254146 -0.00250355 -0.000718797)
(0.000685022 -0.00242139 -0.000718797)
(0.00109508 -0.00226565 -0.000718798)
(0.00147187 -0.00204107 -0.000718798)
(0.00180394 -0.00175447 -0.000718798)
(0.00208119 -0.00141457 -0.000718798)
(0.00229521 -0.00103168 -0.000718798)
(0.00243949 -0.000617446 -0.000718798)
(0.00250965 -0.000184453 -0.000718797)
(0.00250355 0.000254146 -0.000718797)
(0.00242139 0.000685022 -0.000718797)
(0.00226565 0.00109508 -0.000718798)
(0.00204107 0.00147187 -0.000718798)
(0.00175447 0.00180394 -0.000718798)
(0.00141457 0.00208119 -0.000718798)
(0.00103168 0.00229521 -0.000718798)
(0.000617446 0.00243949 -0.000718797)
(0.000184453 0.00250965 -0.000718797)
(-0.000254146 0.00250355 -0.000718797)
(-0.000685022 0.00242139 -0.000718797)
(-0.00106159 0.00222711 -0.000643017)
(-0.00143219 0.00200893 -0.000643017)
(-0.00175928 0.00172971 -0.000643017)
(-0.00203292 0.00139794 -0.000643017)
(-0.00224478 0.00102369 -0.000643017)
(-0.00238844 0.000618335 -0.000643017)
(-0.00245953 0.000194193 -0.000643017)
(-0.00245588 -0.000235849 -0.000643017)
(-0.00237762 -0.000658726 -0.000643017)
(-0.00222711 -0.00106159 -0.000643017)
(-0.00200893 -0.00143219 -0.000643017)
(-0.00172971 -0.00175928 -0.000643017)
(-0.00139794 -0.00203292 -0.000643017)
(-0.00102369 -0.00224478 -0.000643017)
(-0.000618335 -0.00238844 -0.000643017)
(-0.000194193 -0.00245953 -0.000643017)
(0.000235849 -0.00245588 -0.000643017)
(0.000658726 -0.00237762 -0.000643017)
(0.00106159 -0.00222711 -0.000643017)
(0.00143219 -0.00200893 -0.000643017)
(0.00175928 -0.00172971 -0.000643017)
(0.00203292 -0.00139794 -0.000643017)
(0.00224478 -0.00102369 -0.000643017)
(0.00238844 -0.000618335 -0.000643017)
(0.00245953 -0.000194193 -0.000643017)
(0.00245588 0.000235849 -0.000643017)
(0.00237762 0.000658726 -0.000643017)
(0.00222711 0.00106159 -0.000643017)
(0.00200893 0.00143219 -0.000643017)
(0.00172971 0.00175928 -0.000643017)
(0.00139794 0.00203292 -0.000643017)
(0.00102369 0.00224478 -0.000643017)
(0.000618335 0.00238844 -0.000643017)
(0.000194193 0.00245953 -0.000643017)
(-0.000235849 0.00245588 -0.000643017)
(-0.000658726 0.00237762 -0.000643017)
(-0.00104027 0.00218037 -0.000569861)
(-0.00140309 0.0019666 -0.000569861)
(-0.00172327 0.00169308 -0.000569861)
(-0.00199109 0.00136812 -0.000569861)
(-0.00219841 0.00100159 -0.000569861)
(-0.00233893 0.00060462 -0.000569861)
(-0.00240839 0.000189283 -0.000569861)
(-0.00240467 -0.000231805 -0.000569861)
(-0.00232789 -0.00064585 -0.000569861)
(-0.00218037 -0.00104027 -0.000569861)
(-0.0019666 -0.00140309 -0.000569861)
(-0.00169308 -0.00172327 -0.000569861)
(-0.00136812 -0.00199109 -0.000569861)
(-0.00100159 -0.00219841 -0.000569861)
(-0.00060462 -0.00233893 -0.000569861)
(-0.000189283 -0.00240839 -0.000569861)
(0.000231805 -0.00240467 -0.000569861)
(0.000645851 -0.00232789 -0.000569861)
(0.00104027 -0.00218037 -0.000569861)
(0.00140309 -0.0019666 -0.000569861)
(0.00172327 -0.00169308 -0.000569861)
(0.00199109 -0.00136812 -0.000569861)
(0.00219841 -0.00100159 -0.000569861)
(0.00233893 -0.00060462 -0.000569861)
(0.00240839 -0.000189283 -0.000569861)
(0.00240467 0.000231805 -0.000569861)
(0.00232789 0.000645851 -0.000569861)
(0.00218037 0.00104027 -0.000569861)
(0.0019666 0.00140309 -0.000569861)
(0.00169308 0.00172327 -0.000569861)
(0.00136812 0.00199109 -0.000569861)
(0.00100159 0.00219841 -0.000569861)
(0.00060462 0.00233893 -0.000569861)
(0.000189283 0.00240839 -0.000569861)
(-0.000231805 0.00240467 -0.000569861)
(-0.00064585 0.00232789 -0.000569861)
(-0.00131644 0.00270129 -0.000955269)
(-0.00176552 0.00243165 -0.00095527)
(-0.00216095 0.00208813 -0.00095527)
(-0.00249072 0.00168116 -0.000955269)
(-0.00274481 0.00122311 -0.000955269)
(-0.0029155 0.000727902 -0.000955269)
(-0.0029976 0.000210572 -0.000955269)
(-0.00298863 -0.000313156 -0.000955269)
(-0.00288885 -0.000827368 -0.000955269)
(-0.00270129 -0.00131644 -0.000955269)
(-0.00243165 -0.00176552 -0.00095527)
(-0.00208813 -0.00216095 -0.00095527)
(-0.00168116 -0.00249072 -0.000955269)
(-0.00122311 -0.00274481 -0.000955269)
(-0.000727902 -0.0029155 -0.000955269)
(-0.000210572 -0.0029976 -0.000955269)
(0.000313156 -0.00298863 -0.000955269)
(0.000827368 -0.00288885 -0.000955269)
(0.00131644 -0.00270129 -0.000955269)
(0.00176552 -0.00243165 -0.00095527)
(0.00216095 -0.00208813 -0.00095527)
(0.00249072 -0.00168116 -0.000955269)
(0.00274481 -0.00122311 -0.000955269)
(0.0029155 -0.000727902 -0.000955269)
(0.00299761 -0.000210572 -0.000955269)
(0.00298863 0.000313156 -0.000955269)
(0.00288885 0.000827368 -0.000955269)
(0.00270129 0.00131644 -0.000955269)
(0.00243165 0.00176552 -0.000955269)
(0.00208813 0.00216095 -0.00095527)
(0.00168116 0.00249072 -0.000955269)
(0.00122311 0.00274481 -0.000955269)
(0.000727902 0.0029155 -0.000955269)
(0.000210573 0.00299761 -0.000955269)
(-0.000313156 0.00298863 -0.000955269)
(-0.000827368 0.00288885 -0.000955269)
(-0.00127828 0.00262956 -0.000868362)
(-0.00171548 0.00236764 -0.000868363)
(-0.00210055 0.00203378 -0.000868362)
(-0.0024218 0.00163812 -0.000868362)
(-0.00266947 0.00119269 -0.000868362)
(-0.00283602 0.000711027 -0.000868362)
(-0.0029164 0.000207755 -0.000868362)
(-0.00290817 -0.00030183 -0.000868362)
(-0.00281158 -0.000802244 -0.000868362)
(-0.00262956 -0.00127828 -0.000868362)
(-0.00236764 -0.00171548 -0.000868363)
(-0.00203378 -0.00210055 -0.000868362)
(-0.00163812 -0.0024218 -0.000868362)
(-0.00119269 -0.00266947 -0.000868362)
(-0.000711026 -0.00283602 -0.000868362)
(-0.000207755 -0.0029164 -0.000868362)
(0.00030183 -0.00290817 -0.000868362)
(0.000802244 -0.00281158 -0.000868362)
(0.00127828 -0.00262956 -0.000868362)
(0.00171548 -0.00236764 -0.000868363)
(0.00210055 -0.00203378 -0.000868362)
(0.0024218 -0.00163812 -0.000868362)
(0.00266947 -0.00119269 -0.000868362)
(0.00283602 -0.000711026 -0.000868362)
(0.0029164 -0.000207755 -0.000868362)
(0.00290817 0.00030183 -0.000868362)
(0.00281158 0.000802244 -0.000868362)
(0.00262956 0.00127828 -0.000868362)
(0.00236764 0.00171548 -0.000868362)
(0.00203378 0.00210055 -0.000868362)
(0.00163812 0.0024218 -0.000868362)
(0.00119269 0.00266947 -0.000868362)
(0.000711027 0.00283602 -0.000868362)
(0.000207755 0.0029164 -0.000868362)
(-0.00030183 0.00290817 -0.000868362)
(-0.000802244 0.00281158 -0.000868362)
(-0.00125197 0.00254854 -0.000784617)
(-0.0016755 0.00229242 -0.000784618)
(-0.00204812 0.00196664 -0.000784617)
(-0.0023585 0.00158111 -0.000784617)
(-0.00259723 0.00114754 -0.000784617)
(-0.00275704 0.000679106 -0.000784617)
(-0.00283308 0.000190034 -0.000784617)
(-0.00282304 -0.000304813 -0.000784618)
(-0.00272722 -0.000790398 -0.000784617)
(-0.00254854 -0.00125197 -0.000784617)
(-0.00229242 -0.0016755 -0.000784618)
(-0.00196664 -0.00204812 -0.000784617)
(-0.00158111 -0.0023585 -0.000784618)
(-0.00114754 -0.00259723 -0.000784617)
(-0.000679106 -0.00275704 -0.000784618)
(-0.000190034 -0.00283308 -0.000784617)
(0.000304813 -0.00282304 -0.000784618)
(0.000790399 -0.00272722 -0.000784617)
(0.00125197 -0.00254854 -0.000784617)
(0.0016755 -0.00229242 -0.000784618)
(0.00204812 -0.00196664 -0.000784617)
(0.0023585 -0.00158111 -0.000784618)
(0.00259723 -0.00114754 -0.000784617)
(0.00275704 -0.000679106 -0.000784617)
(0.00283308 -0.000190034 -0.000784617)
(0.00282304 0.000304813 -0.000784618)
(0.00272722 0.000790399 -0.000784617)
(0.00254854 0.00125197 -0.000784617)
(0.00229242 0.0016755 -0.000784618)
(0.00196664 0.00204812 -0.000784617)
(0.00158111 0.0023585 -0.000784617)
(0.00114754 0.00259723 -0.000784617)
(0.000679106 0.00275704 -0.000784617)
(0.000190034 0.00283308 -0.000784617)
(-0.000304813 0.00282304 -0.000784618)
(-0.000790398 0.00272722 -0.000784617)
(-0.00153051 0.00308756 -0.0012063)
(-0.00204341 0.00277489 -0.0012063)
(-0.00249422 0.00237789 -0.0012063)
(-0.00286924 0.00190865 -0.0012063)
(-0.00315709 0.00138142 -0.0012063)
(-0.003349 0.000812206 -0.0012063)
(-0.00343916 0.000218319 -0.0012063)
(-0.00342483 -0.000382203 -0.0012063)
(-0.00330643 -0.000971112 -0.0012063)
(-0.00308756 -0.00153051 -0.0012063)
(-0.00277489 -0.00204341 -0.0012063)
(-0.00237789 -0.00249422 -0.0012063)
(-0.00190865 -0.00286924 -0.0012063)
(-0.00138142 -0.00315709 -0.0012063)
(-0.000812206 -0.003349 -0.0012063)
(-0.000218318 -0.00343916 -0.0012063)
(0.000382204 -0.00342483 -0.0012063)
(0.000971112 -0.00330643 -0.0012063)
(0.00153051 -0.00308756 -0.0012063)
(0.00204341 -0.00277489 -0.0012063)
(0.00249422 -0.00237789 -0.0012063)
(0.00286924 -0.00190865 -0.0012063)
(0.00315709 -0.00138142 -0.0012063)
(0.003349 -0.000812206 -0.0012063)
(0.00343916 -0.000218319 -0.0012063)
(0.00342483 0.000382203 -0.0012063)
(0.00330643 0.000971112 -0.0012063)
(0.00308756 0.00153051 -0.0012063)
(0.00277489 0.00204341 -0.0012063)
(0.00237789 0.00249422 -0.0012063)
(0.00190865 0.00286924 -0.0012063)
(0.00138142 0.00315709 -0.0012063)
(0.000812206 0.003349 -0.0012063)
(0.000218319 0.00343916 -0.0012063)
(-0.000382203 0.00342483 -0.0012063)
(-0.000971112 0.00330643 -0.0012063)
(-0.00148372 0.00297175 -0.00110878)
(-0.00197721 0.00266896 -0.00110878)
(-0.00241063 0.00228507 -0.00110878)
(-0.00277081 0.00183175 -0.00110878)
(-0.0030468 0.00132278 -0.00110878)
(-0.00323021 0.000773613 -0.00110878)
(-0.00331547 0.00020094 -0.00110878)
(-0.00329999 -0.000377838 -0.00110878)
(-0.00318425 -0.000945136 -0.00110878)
(-0.00297175 -0.00148372 -0.00110878)
(-0.00266896 -0.00197721 -0.00110878)
(-0.00228507 -0.00241064 -0.00110878)
(-0.00183175 -0.00277081 -0.00110878)
(-0.00132278 -0.0030468 -0.00110878)
(-0.000773613 -0.00323021 -0.00110878)
(-0.00020094 -0.00331547 -0.00110878)
(0.000377838 -0.00329999 -0.00110878)
(0.000945136 -0.00318425 -0.00110878)
(0.00148372 -0.00297175 -0.00110878)
(0.00197721 -0.00266896 -0.00110878)
(0.00241064 -0.00228507 -0.00110878)
(0.00277081 -0.00183175 -0.00110878)
(0.0030468 -0.00132278 -0.00110878)
(0.00323021 -0.000773613 -0.00110878)
(0.00331547 -0.00020094 -0.00110878)
(0.00329999 0.000377838 -0.00110878)
(0.00318425 0.000945136 -0.00110878)
(0.00297175 0.00148372 -0.00110878)
(0.00266896 0.00197721 -0.00110878)
(0.00228507 0.00241064 -0.00110878)
(0.00183175 0.00277081 -0.00110878)
(0.00132278 0.0030468 -0.00110878)
(0.000773613 0.00323021 -0.00110878)
(0.00020094 0.00331547 -0.00110878)
(-0.000377838 0.00329999 -0.00110878)
(-0.000945136 0.00318425 -0.00110878)
(-0.00144773 0.00284667 -0.00101505)
(-0.00192006 0.00255203 -0.00101505)
(-0.00233404 0.00217985 -0.00101505)
(-0.00267711 0.00174143 -0.00101505)
(-0.00293883 0.0012501 -0.00101505)
(-0.00311126 0.000720782 -0.00101505)
(-0.00318916 0.000169567 -0.00101505)
(-0.00317015 -0.000386801 -0.00101505)
(-0.00305482 -0.000931415 -0.00101505)
(-0.00284667 -0.00144773 -0.00101505)
(-0.00255203 -0.00192006 -0.00101505)
(-0.00217985 -0.00233404 -0.00101505)
(-0.00174143 -0.00267711 -0.00101505)
(-0.0012501 -0.00293883 -0.00101505)
(-0.000720782 -0.00311126 -0.00101505)
(-0.000169567 -0.00318916 -0.00101505)
(0.000386801 -0.00317015 -0.00101505)
(0.000931415 -0.00305482 -0.00101505)
(0.00144773 -0.00284667 -0.00101505)
(0.00192006 -0.00255203 -0.00101505)
(0.00233404 -0.00217985 -0.00101505)
(0.00267711 -0.00174143 -0.00101505)
(0.00293883 -0.0012501 -0.00101505)
(0.00311126 -0.000720782 -0.00101505)
(0.00318916 -0.000169567 -0.00101505)
(0.00317015 0.000386801 -0.00101505)
(0.00305482 0.000931415 -0.00101505)
(0.00284667 0.00144773 -0.00101505)
(0.00255203 0.00192006 -0.00101505)
(0.00217985 0.00233404 -0.00101505)
(0.00174143 0.00267711 -0.00101505)
(0.0012501 0.00293883 -0.00101505)
(0.000720782 0.00311126 -0.00101505)
(0.000169567 0.00318916 -0.00101505)
(-0.0003868 0.00317015 -0.00101505)