/*--------------------------------*- C++ -*----------------------------------*\
| =========                 |                                                 |
| \\      /  F ield         | OpenFOAM: The Open Source CFD Toolbox           |
|  \\    /   O peration     | Version:  2312                                  |
|   \\  /    A nd           | Website:  www.openfoam.com                      |
|    \\/     M anipulation  |                                                 |
\*---------------------------------------------------------------------------*/
FoamFile
{
    version     2.0;
    format      ascii;
    arch        "LSB;label=32;scalar=64";
    class       volVectorField;
    location    "0.2";
    object      D_0;
}
// * * * * * * * * * * * * * * * * * * * * * * * * * * * * * * * * * * * * * //

dimensions      [0 1 0 0 0 0 0];

internalField   nonuniform List<vector> 
1620
(
(-0.000148611 0.000247921 -5.14253e-05)
(-0.000189404 0.000218349 -5.14253e-05)
(-0.000224443 0.000182142 -5.14253e-05)
(-0.000252662 0.000140401 -5.14253e-05)
(-0.000273203 9.4394e-05 -5.14254e-05)
(-0.000285444 4.55185e-05 -5.14254e-05)
(-0.000289012 -4.73997e-06 -5.14252e-05)
(-0.000283798 -5.48542e-05 -5.14252e-05)
(-0.000269961 -0.000103302 -5.14253e-05)
(-0.000247921 -0.000148611 -5.14253e-05)
(-0.000218349 -0.000189404 -5.14253e-05)
(-0.000182142 -0.000224443 -5.14253e-05)
(-0.000140401 -0.000252662 -5.14253e-05)
(-9.4394e-05 -0.000273203 -5.14254e-05)
(-4.55185e-05 -0.000285444 -5.14254e-05)
(4.73998e-06 -0.000289012 -5.14252e-05)
(5.48542e-05 -0.000283798 -5.14252e-05)
(0.000103302 -0.000269961 -5.14253e-05)
(0.000148611 -0.000247921 -5.14253e-05)
(0.000189404 -0.000218349 -5.14253e-05)
(0.000224443 -0.000182142 -5.14253e-05)
(0.000252662 -0.000140401 -5.14253e-05)
(0.000273203 -9.4394e-05 -5.14254e-05)
(0.000285444 -4.55185e-05 -5.14254e-05)
(0.000289012 4.73997e-06 -5.14252e-05)
(0.000283798 5.48542e-05 -5.14252e-05)
(0.000269961 0.000103302 -5.14253e-05)
(0.000247921 0.000148611 -5.14253e-05)
(0.000218349 0.000189404 -5.14253e-05)
(0.000182142 0.000224443 -5.14253e-05)
(0.000140401 0.000252662 -5.14253e-05)
(9.4394e-05 0.000273203 -5.14254e-05)
(4.55185e-05 0.000285444 -5.14254e-05)
(-4.73996e-06 0.000289012 -5.14252e-05)
(-5.48542e-05 0.000283798 -5.14252e-05)
(-0.000103302 0.000269961 -5.14253e-05)
(-0.000119156 0.000258678 -3.64392e-05)
(-0.000162265 0.000234057 -3.64393e-05)
(-0.000200443 0.000202324 -3.64393e-05)
(-0.000232531 0.000164444 -3.64393e-05)
(-0.000257554 0.000121567 -3.64393e-05)
(-0.000274751 7.4996e-05 -3.64393e-05)
(-0.000283599 2.61468e-05 -3.64392e-05)
(-0.000283831 -2.34969e-05 -3.64392e-05)
(-0.000275439 -7.24269e-05 -3.64393e-05)
(-0.000258678 -0.000119156 -3.64392e-05)
(-0.000234057 -0.000162265 -3.64393e-05)
(-0.000202324 -0.000200443 -3.64393e-05)
(-0.000164444 -0.000232531 -3.64393e-05)
(-0.000121567 -0.000257554 -3.64393e-05)
(-7.4996e-05 -0.000274751 -3.64393e-05)
(-2.61468e-05 -0.000283599 -3.64392e-05)
(2.34969e-05 -0.000283831 -3.64392e-05)
(7.24269e-05 -0.000275439 -3.64393e-05)
(0.000119156 -0.000258678 -3.64392e-05)
(0.000162265 -0.000234057 -3.64393e-05)
(0.000200443 -0.000202324 -3.64393e-05)
(0.000232531 -0.000164444 -3.64393e-05)
(0.000257554 -0.000121567 -3.64393e-05)
(0.000274751 -7.4996e-05 -3.64393e-05)
(0.000283599 -2.61468e-05 -3.64392e-05)
(0.000283831 2.34969e-05 -3.64392e-05)
(0.000275439 7.24269e-05 -3.64392e-05)
(0.000258678 0.000119156 -3.64392e-05)
(0.000234057 0.000162265 -3.64393e-05)
(0.000202324 0.000200443 -3.64393e-05)
(0.000164444 0.000232531 -3.64393e-05)
(0.000121567 0.000257554 -3.64393e-05)
(7.4996e-05 0.000274751 -3.64393e-05)
(2.61468e-05 0.000283599 -3.64392e-05)
(-2.34969e-05 0.000283831 -3.64392e-05)
(-7.24269e-05 0.000275439 -3.64392e-05)
(-9.78293e-05 0.000269207 -2.55203e-05)
(-0.00014309 0.000248129 -2.55203e-05)
(-0.000184004 0.000219513 -2.55203e-05)
(-0.000219326 0.000184226 -2.55203e-05)
(-0.000247985 0.000143341 -2.55203e-05)
(-0.000269108 9.81015e-05 -2.55203e-05)
(-0.000282055 4.98809e-05 -2.55203e-05)
(-0.000286432 1.4472e-07 -2.55204e-05)
(-0.000282105 -4.95958e-05 -2.55203e-05)
(-0.000269207 -9.78293e-05 -2.55203e-05)
(-0.000248129 -0.00014309 -2.55203e-05)
(-0.000219513 -0.000184004 -2.55203e-05)
(-0.000184226 -0.000219326 -2.55203e-05)
(-0.000143341 -0.000247985 -2.55203e-05)
(-9.81015e-05 -0.000269108 -2.55203e-05)
(-4.98809e-05 -0.000282055 -2.55203e-05)
(-1.44715e-07 -0.000286432 -2.55204e-05)
(4.95958e-05 -0.000282105 -2.55203e-05)
(9.78293e-05 -0.000269207 -2.55203e-05)
(0.00014309 -0.000248129 -2.55203e-05)
(0.000184004 -0.000219513 -2.55203e-05)
(0.000219326 -0.000184226 -2.55203e-05)
(0.000247985 -0.000143341 -2.55203e-05)
(0.000269108 -9.81015e-05 -2.55203e-05)
(0.000282055 -4.98809e-05 -2.55203e-05)
(0.000286432 -1.44715e-07 -2.55204e-05)
(0.000282105 4.95958e-05 -2.55203e-05)
(0.000269207 9.78293e-05 -2.55203e-05)
(0.000248129 0.00014309 -2.55203e-05)
(0.000219513 0.000184004 -2.55203e-05)
(0.000184226 0.000219326 -2.55203e-05)
(0.000143341 0.000247985 -2.55203e-05)
(9.81015e-05 0.000269108 -2.55203e-05)
(4.98809e-05 0.000282055 -2.55203e-05)
(1.44719e-07 0.000286432 -2.55204e-05)
(-4.95958e-05 0.000282105 -2.55203e-05)
(-0.000383305 0.000768328 -0.00015777)
(-0.000510901 0.000690096 -0.00015777)
(-0.000622973 0.000590895 -0.00015777)
(-0.000716116 0.000473739 -0.00015777)
(-0.000787501 0.00034219 -0.000157769)
(-0.000834958 0.000200243 -0.00015777)
(-0.000857045 5.22123e-05 -0.00015777)
(-0.000853091 -9.74053e-05 -0.00015777)
(-0.000823216 -0.000244063 -0.00015777)
(-0.000768328 -0.000383305 -0.00015777)
(-0.000690096 -0.000510901 -0.00015777)
(-0.000590895 -0.000622973 -0.00015777)
(-0.000473739 -0.000716116 -0.00015777)
(-0.00034219 -0.000787501 -0.000157769)
(-0.000200243 -0.000834958 -0.00015777)
(-5.22122e-05 -0.000857045 -0.00015777)
(9.74053e-05 -0.000853091 -0.00015777)
(0.000244063 -0.000823216 -0.00015777)
(0.000383305 -0.000768328 -0.00015777)
(0.000510901 -0.000690096 -0.00015777)
(0.000622973 -0.000590895 -0.00015777)
(0.000716116 -0.000473739 -0.00015777)
(0.000787501 -0.00034219 -0.000157769)
(0.000834958 -0.000200243 -0.00015777)
(0.000857045 -5.22122e-05 -0.00015777)
(0.000853091 9.74053e-05 -0.00015777)
(0.000823216 0.000244063 -0.00015777)
(0.000768328 0.000383305 -0.00015777)
(0.000690096 0.000510901 -0.00015777)
(0.000590895 0.000622973 -0.00015777)
(0.000473739 0.000716116 -0.000157769)
(0.00034219 0.000787501 -0.000157769)
(0.000200243 0.000834958 -0.00015777)
(5.22123e-05 0.000857045 -0.00015777)
(-9.74053e-05 0.000853091 -0.00015777)
(-0.000244063 0.000823216 -0.00015777)
(-0.000355679 0.000771281 -0.000125831)
(-0.000484207 0.0006978 -0.000125831)
(-0.000598023 0.000603118 -0.000125832)
(-0.000693668 0.00049011 -0.000125832)
(-0.000768236 0.00036221 -0.000125831)
(-0.000819462 0.000223304 -0.000125832)
(-0.000845789 7.76138e-05 -0.000125832)
(-0.000846416 -7.04351e-05 -0.000125831)
(-0.000821327 -0.000216344 -0.000125831)
(-0.000771281 -0.000355679 -0.000125831)
(-0.0006978 -0.000484207 -0.000125831)
(-0.000603118 -0.000598023 -0.000125832)
(-0.00049011 -0.000693668 -0.000125832)
(-0.00036221 -0.000768236 -0.000125831)
(-0.000223304 -0.000819462 -0.000125832)
(-7.76137e-05 -0.000845789 -0.000125832)
(7.04352e-05 -0.000846416 -0.000125831)
(0.000216344 -0.000821327 -0.000125831)
(0.000355679 -0.000771281 -0.000125831)
(0.000484207 -0.0006978 -0.000125831)
(0.000598023 -0.000603118 -0.000125832)
(0.000693668 -0.00049011 -0.000125832)
(0.000768236 -0.00036221 -0.000125831)
(0.000819462 -0.000223304 -0.000125832)
(0.000845789 -7.76137e-05 -0.000125832)
(0.000846416 7.04351e-05 -0.000125831)
(0.000821327 0.000216344 -0.000125831)
(0.000771281 0.000355679 -0.000125831)
(0.0006978 0.000484207 -0.000125831)
(0.000603118 0.000598023 -0.000125832)
(0.00049011 0.000693668 -0.000125832)
(0.00036221 0.000768236 -0.000125831)
(0.000223304 0.000819462 -0.000125832)
(7.76138e-05 0.000845789 -0.000125832)
(-7.04351e-05 0.000846416 -0.000125831)
(-0.000216344 0.000821327 -0.000125831)
(-0.000338313 0.000771973 -9.53553e-05)
(-0.000467225 0.000701497 -9.53551e-05)
(-0.00058194 0.000609707 -9.53552e-05)
(-0.000678973 0.000499391 -9.53552e-05)
(-0.000755377 0.000373902 -9.53552e-05)
(-0.000808828 0.000237051 -9.53552e-05)
(-0.000837704 9.29983e-05 -9.53553e-05)
(-0.000841127 -5.38801e-05 -9.53553e-05)
(-0.000818992 -0.000199122 -9.53553e-05)
(-0.000771973 -0.000338313 -9.53553e-05)
(-0.000701497 -0.000467225 -9.53551e-05)
(-0.000609707 -0.00058194 -9.53552e-05)
(-0.000499391 -0.000678973 -9.53552e-05)
(-0.000373902 -0.000755377 -9.53552e-05)
(-0.000237051 -0.000808828 -9.53552e-05)
(-9.29983e-05 -0.000837704 -9.53553e-05)
(5.38802e-05 -0.000841127 -9.53553e-05)
(0.000199122 -0.000818992 -9.53553e-05)
(0.000338313 -0.000771973 -9.53553e-05)
(0.000467225 -0.000701497 -9.53551e-05)
(0.00058194 -0.000609707 -9.53552e-05)
(0.000678973 -0.000499391 -9.53552e-05)
(0.000755377 -0.000373902 -9.53552e-05)
(0.000808828 -0.000237051 -9.53552e-05)
(0.000837704 -9.29983e-05 -9.53553e-05)
(0.000841127 5.38802e-05 -9.53553e-05)
(0.000818992 0.000199122 -9.53553e-05)
(0.000771973 0.000338313 -9.53553e-05)
(0.000701497 0.000467225 -9.53551e-05)
(0.000609707 0.00058194 -9.53552e-05)
(0.000499391 0.000678973 -9.53552e-05)
(0.000373902 0.000755377 -9.53552e-05)
(0.000237051 0.000808828 -9.53552e-05)
(9.29983e-05 0.000837704 -9.53553e-05)
(-5.38801e-05 0.000841127 -9.53553e-05)
(-0.000199122 0.000818992 -9.53553e-05)
(-0.000617147 0.00127886 -0.000303262)
(-0.000829844 0.00115227 -0.000303262)
(-0.00101733 0.000990661 -0.000303262)
(-0.0011739 0.000798953 -0.000303262)
(-0.0012948 0.000582971 -0.000303262)
(-0.00137636 0.000349275 -0.000303262)
(-0.0014161 0.000104966 -0.000303262)
(-0.00141281 -0.000142532 -0.000303262)
(-0.0013666 -0.0003857 -0.000303262)
(-0.00127886 -0.000617148 -0.000303262)
(-0.00115227 -0.000829844 -0.000303262)
(-0.000990661 -0.00101733 -0.000303262)
(-0.000798953 -0.0011739 -0.000303262)
(-0.000582971 -0.0012948 -0.000303262)
(-0.000349275 -0.00137636 -0.000303262)
(-0.000104966 -0.0014161 -0.000303262)
(0.000142532 -0.00141281 -0.000303262)
(0.0003857 -0.0013666 -0.000303262)
(0.000617148 -0.00127886 -0.000303262)
(0.000829844 -0.00115227 -0.000303262)
(0.00101733 -0.000990661 -0.000303262)
(0.0011739 -0.000798953 -0.000303262)
(0.0012948 -0.000582971 -0.000303262)
(0.00137636 -0.000349275 -0.000303262)
(0.0014161 -0.000104966 -0.000303262)
(0.00141281 0.000142532 -0.000303262)
(0.0013666 0.0003857 -0.000303262)
(0.00127886 0.000617148 -0.000303262)
(0.00115227 0.000829844 -0.000303262)
(0.000990661 0.00101733 -0.000303262)
(0.000798953 0.0011739 -0.000303262)
(0.000582971 0.0012948 -0.000303262)
(0.000349275 0.00137636 -0.000303262)
(0.000104966 0.0014161 -0.000303262)
(-0.000142532 0.00141281 -0.000303262)
(-0.0003857 0.0013666 -0.000303262)
(-0.000587945 0.00127121 -0.000256833)
(-0.000799756 0.0011498 -0.000256833)
(-0.000987266 0.000993457 -0.000256833)
(-0.00114478 0.000806927 -0.000256833)
(-0.00126751 0.000595879 -0.000256833)
(-0.00135173 0.000366726 -0.000256833)
(-0.00139487 0.00012643 -0.000256833)
(-0.00139563 -0.000117708 -0.000256833)
(-0.00135399 -0.000358269 -0.000256833)
(-0.00127121 -0.000587945 -0.000256833)
(-0.0011498 -0.000799756 -0.000256833)
(-0.000993457 -0.000987266 -0.000256833)
(-0.000806927 -0.00114478 -0.000256833)
(-0.000595879 -0.00126751 -0.000256833)
(-0.000366726 -0.00135173 -0.000256833)
(-0.00012643 -0.00139487 -0.000256833)
(0.000117708 -0.00139563 -0.000256833)
(0.000358269 -0.00135399 -0.000256833)
(0.000587945 -0.00127121 -0.000256833)
(0.000799756 -0.0011498 -0.000256833)
(0.000987266 -0.000993457 -0.000256833)
(0.00114478 -0.000806927 -0.000256833)
(0.00126751 -0.000595879 -0.000256833)
(0.00135173 -0.000366726 -0.000256833)
(0.00139487 -0.00012643 -0.000256833)
(0.00139563 0.000117708 -0.000256833)
(0.00135399 0.000358269 -0.000256833)
(0.00127121 0.000587945 -0.000256833)
(0.0011498 0.000799756 -0.000256833)
(0.000993457 0.000987266 -0.000256833)
(0.000806927 0.00114478 -0.000256833)
(0.000595879 0.00126751 -0.000256833)
(0.000366726 0.00135173 -0.000256833)
(0.00012643 0.00139487 -0.000256833)
(-0.000117708 0.00139563 -0.000256833)
(-0.000358269 0.00135399 -0.000256833)
(-0.000569418 0.00125951 -0.000211903)
(-0.000779479 0.0011415 -0.000211903)
(-0.000965856 0.000988803 -0.000211903)
(-0.00112289 0.000806062 -0.000211903)
(-0.0012458 0.000598828 -0.000211903)
(-0.00133086 0.0003734 -0.000211903)
(-0.00137548 0.000136626 -0.000211903)
(-0.00137831 -0.000104299 -0.000211903)
(-0.00133926 -0.000342055 -0.000211903)
(-0.00125951 -0.000569418 -0.000211903)
(-0.0011415 -0.000779479 -0.000211903)
(-0.000988803 -0.000965856 -0.000211903)
(-0.000806062 -0.00112289 -0.000211903)
(-0.000598828 -0.0012458 -0.000211903)
(-0.0003734 -0.00133086 -0.000211903)
(-0.000136626 -0.00137548 -0.000211903)
(0.000104299 -0.00137831 -0.000211903)
(0.000342055 -0.00133926 -0.000211903)
(0.000569418 -0.00125951 -0.000211903)
(0.000779479 -0.0011415 -0.000211903)
(0.000965856 -0.000988803 -0.000211903)
(0.00112289 -0.000806062 -0.000211903)
(0.0012458 -0.000598828 -0.000211903)
(0.00133086 -0.0003734 -0.000211903)
(0.00137548 -0.000136626 -0.000211903)
(0.00137831 0.000104299 -0.000211903)
(0.00133926 0.000342055 -0.000211903)
(0.00125951 0.000569418 -0.000211903)
(0.0011415 0.000779479 -0.000211903)
(0.000988803 0.000965856 -0.000211903)
(0.000806062 0.00112289 -0.000211903)
(0.000598828 0.0012458 -0.000211903)
(0.0003734 0.00133086 -0.000211903)
(0.000136626 0.00137548 -0.000211903)
(-0.000104299 0.00137831 -0.000211903)
(-0.000342055 0.00133926 -0.000211903)
(-0.000844921 0.00177122 -0.00048105)
(-0.00113965 0.00159759 -0.00048105)
(-0.00139976 0.00137542 -0.00048105)
(-0.00161733 0.00111146 -0.00048105)
(-0.00178576 0.000813726 -0.00048105)
(-0.00189994 0.000491269 -0.000481049)
(-0.00195638 0.000153885 -0.000481049)
(-0.00195338 -0.000188175 -0.000481049)
(-0.00189103 -0.000524517 -0.000481049)
(-0.00177122 -0.000844921 -0.00048105)
(-0.00159759 -0.00113965 -0.00048105)
(-0.00137542 -0.00139976 -0.00048105)
(-0.00111146 -0.00161733 -0.00048105)
(-0.000813726 -0.00178576 -0.00048105)
(-0.000491269 -0.00189994 -0.000481049)
(-0.000153885 -0.00195638 -0.000481049)
(0.000188175 -0.00195338 -0.000481049)
(0.000524517 -0.00189103 -0.000481049)
(0.000844921 -0.00177122 -0.00048105)
(0.00113965 -0.00159759 -0.00048105)
(0.00139976 -0.00137542 -0.00048105)
(0.00161733 -0.00111146 -0.00048105)
(0.00178576 -0.000813726 -0.00048105)
(0.00189994 -0.000491269 -0.000481049)
(0.00195638 -0.000153885 -0.000481049)
(0.00195338 0.000188175 -0.000481049)
(0.00189103 0.000524517 -0.000481049)
(0.00177122 0.000844921 -0.00048105)
(0.00159759 0.00113965 -0.00048105)
(0.00137542 0.00139976 -0.00048105)
(0.00111146 0.00161733 -0.00048105)
(0.000813726 0.00178576 -0.00048105)
(0.000491269 0.00189994 -0.000481049)
(0.000153886 0.00195638 -0.000481049)
(-0.000188175 0.00195338 -0.000481049)
(-0.000524517 0.00189103 -0.000481049)
(-0.000813545 0.00174768 -0.000421783)
(-0.00110467 0.00157986 -0.000421783)
(-0.00136222 0.00136403 -0.000421783)
(-0.00157839 0.00110676 -0.000421783)
(-0.0017466 0.000815865 -0.000421783)
(-0.00186174 0.000500176 -0.000421782)
(-0.00192031 0.00016929 -0.000421782)
(-0.00192053 -0.00016674 -0.000421782)
(-0.0018624 -0.000497703 -0.000421783)
(-0.00174768 -0.000813545 -0.000421783)
(-0.00157986 -0.00110467 -0.000421783)
(-0.00136403 -0.00136222 -0.000421783)
(-0.00110676 -0.00157839 -0.000421783)
(-0.000815865 -0.0017466 -0.000421783)
(-0.000500176 -0.00186174 -0.000421782)
(-0.00016929 -0.00192031 -0.000421782)
(0.00016674 -0.00192053 -0.000421782)
(0.000497703 -0.0018624 -0.000421783)
(0.000813545 -0.00174768 -0.000421783)
(0.00110467 -0.00157986 -0.000421783)
(0.00136222 -0.00136403 -0.000421783)
(0.00157839 -0.00110676 -0.000421783)
(0.0017466 -0.000815865 -0.000421783)
(0.00186174 -0.000500176 -0.000421782)
(0.00192031 -0.00016929 -0.000421782)
(0.00192053 0.00016674 -0.000421782)
(0.0018624 0.000497703 -0.000421782)
(0.00174768 0.000813545 -0.000421783)
(0.00157986 0.00110467 -0.000421783)
(0.00136403 0.00136222 -0.000421783)
(0.00110676 0.00157839 -0.000421782)
(0.000815865 0.0017466 -0.000421783)
(0.000500176 0.00186174 -0.000421782)
(0.00016929 0.00192031 -0.000421782)
(-0.00016674 0.00192053 -0.000421782)
(-0.000497703 0.0018624 -0.000421782)
(-0.000793268 0.00171821 -0.000364459)
(-0.00107958 0.00155436 -0.000364459)
(-0.00133309 0.00134328 -0.000364459)
(-0.0015461 0.00109138 -0.000364459)
(-0.00171212 0.000806324 -0.000364459)
(-0.00182613 0.000496767 -0.000364459)
(-0.00188465 0.000172116 -0.000364459)
(-0.0018859 -0.000157765 -0.000364459)
(-0.00182986 -0.000482852 -0.000364459)
(-0.00171821 -0.000793268 -0.000364459)
(-0.00155436 -0.00107958 -0.000364459)
(-0.00134328 -0.00133309 -0.000364459)
(-0.00109138 -0.0015461 -0.000364459)
(-0.000806324 -0.00171212 -0.000364459)
(-0.000496767 -0.00182613 -0.000364459)
(-0.000172116 -0.00188465 -0.000364459)
(0.000157765 -0.0018859 -0.000364459)
(0.000482852 -0.00182986 -0.000364459)
(0.000793268 -0.00171821 -0.000364459)
(0.00107958 -0.00155436 -0.000364459)
(0.00133309 -0.00134328 -0.000364459)
(0.0015461 -0.00109138 -0.000364459)
(0.00171212 -0.000806324 -0.000364459)
(0.00182613 -0.000496767 -0.000364459)
(0.00188465 -0.000172116 -0.000364459)
(0.0018859 0.000157765 -0.000364459)
(0.00182986 0.000482852 -0.000364459)
(0.00171821 0.000793268 -0.000364459)
(0.00155436 0.00107958 -0.000364459)
(0.00134328 0.00133309 -0.000364459)
(0.00109138 0.0015461 -0.000364459)
(0.000806324 0.00171212 -0.000364459)
(0.000496767 0.00182613 -0.000364459)
(0.000172116 0.00188465 -0.000364459)
(-0.000157764 0.0018859 -0.000364459)
(-0.000482852 0.00182986 -0.000364459)
(-0.0010665 0.00223673 -0.000686127)
(-0.0014387 0.00201755 -0.000686127)
(-0.00176719 0.00173707 -0.000686127)
(-0.00204198 0.00140381 -0.000686127)
(-0.00225473 0.0010279 -0.000686127)
(-0.00239897 0.000620755 -0.000686127)
(-0.00247031 0.000194749 -0.000686127)
(-0.0024666 -0.000237176 -0.000686127)
(-0.00238794 -0.000661894 -0.000686127)
(-0.00223673 -0.0010665 -0.000686127)
(-0.00201755 -0.0014387 -0.000686127)
(-0.00173707 -0.00176719 -0.000686127)
(-0.00140381 -0.00204198 -0.000686127)
(-0.0010279 -0.00225473 -0.000686127)
(-0.000620755 -0.00239897 -0.000686127)
(-0.000194749 -0.00247031 -0.000686127)
(0.000237176 -0.0024666 -0.000686127)
(0.000661894 -0.00238794 -0.000686127)
(0.0010665 -0.00223673 -0.000686127)
(0.0014387 -0.00201755 -0.000686127)
(0.00176719 -0.00173707 -0.000686127)
(0.00204198 -0.00140381 -0.000686127)
(0.00225473 -0.0010279 -0.000686127)
(0.00239897 -0.000620755 -0.000686127)
(0.00247031 -0.000194749 -0.000686127)
(0.0024666 0.000237176 -0.000686127)
(0.00238794 0.000661894 -0.000686127)
(0.00223673 0.0010665 -0.000686127)
(0.00201755 0.0014387 -0.000686127)
(0.00173707 0.00176719 -0.000686127)
(0.00140381 0.00204198 -0.000686127)
(0.0010279 0.00225473 -0.000686127)
(0.000620755 0.00239897 -0.000686127)
(0.000194749 0.00247031 -0.000686127)
(-0.000237176 0.0024666 -0.000686127)
(-0.000661894 0.00238794 -0.000686127)
(-0.00103194 0.00218957 -0.000615348)
(-0.00139647 0.00197711 -0.000615348)
(-0.00171858 0.00170458 -0.000615348)
(-0.00198847 0.00138025 -0.000615348)
(-0.00219794 0.00101399 -0.000615348)
(-0.00234062 0.000616917 -0.000615348)
(-0.00241219 0.0002011 -0.000615348)
(-0.00241046 -0.000220828 -0.000615348)
(-0.0023355 -0.000636046 -0.000615347)
(-0.00218957 -0.00103194 -0.000615348)
(-0.00197711 -0.00139647 -0.000615348)
(-0.00170458 -0.00171858 -0.000615348)
(-0.00138025 -0.00198847 -0.000615348)
(-0.00101399 -0.00219794 -0.000615348)
(-0.000616917 -0.00234062 -0.000615348)
(-0.000201099 -0.00241219 -0.000615348)
(0.000220828 -0.00241046 -0.000615348)
(0.000636046 -0.0023355 -0.000615348)
(0.00103194 -0.00218957 -0.000615348)
(0.00139647 -0.00197711 -0.000615348)
(0.00171858 -0.00170458 -0.000615348)
(0.00198847 -0.00138025 -0.000615348)
(0.00219794 -0.00101399 -0.000615348)
(0.00234062 -0.000616917 -0.000615348)
(0.00241219 -0.0002011 -0.000615348)
(0.00241046 0.000220828 -0.000615348)
(0.0023355 0.000636046 -0.000615347)
(0.00218957 0.00103194 -0.000615348)
(0.00197711 0.00139647 -0.000615348)
(0.00170458 0.00171858 -0.000615348)
(0.00138025 0.00198847 -0.000615348)
(0.00101399 0.00219794 -0.000615348)
(0.000616917 0.00234062 -0.000615348)
(0.0002011 0.00241219 -0.000615348)
(-0.000220828 0.00241046 -0.000615348)
(-0.000636046 0.0023355 -0.000615347)
(-0.00100865 0.00213488 -0.00054701)
(-0.00136404 0.0019273 -0.00054701)
(-0.00167799 0.00166116 -0.00054701)
(-0.00194096 0.00134454 -0.000547009)
(-0.00214494 0.000987069 -0.00054701)
(-0.00228376 0.000599607 -0.000547009)
(-0.00235319 0.000193927 -0.00054701)
(-0.00235111 -0.000217646 -0.00054701)
(-0.0022776 -0.000622606 -0.00054701)
(-0.00213488 -0.00100865 -0.00054701)
(-0.0019273 -0.00136404 -0.00054701)
(-0.00166116 -0.00167799 -0.00054701)
(-0.00134454 -0.00194096 -0.000547009)
(-0.000987068 -0.00214494 -0.00054701)
(-0.000599607 -0.00228376 -0.00054701)
(-0.000193927 -0.00235319 -0.00054701)
(0.000217646 -0.00235111 -0.00054701)
(0.000622606 -0.0022776 -0.00054701)
(0.00100865 -0.00213488 -0.00054701)
(0.00136404 -0.0019273 -0.00054701)
(0.00167799 -0.00166116 -0.00054701)
(0.00194096 -0.00134454 -0.000547009)
(0.00214494 -0.000987068 -0.00054701)
(0.00228376 -0.000599607 -0.000547009)
(0.00235319 -0.000193927 -0.00054701)
(0.00235111 0.000217646 -0.00054701)
(0.0022776 0.000622606 -0.00054701)
(0.00213488 0.00100865 -0.00054701)
(0.0019273 0.00136404 -0.00054701)
(0.00166116 0.00167799 -0.00054701)
(0.00134454 0.00194096 -0.000547009)
(0.000987069 0.00214494 -0.00054701)
(0.000599607 0.00228376 -0.000547009)
(0.000193927 0.00235319 -0.00054701)
(-0.000217646 0.00235111 -0.00054701)
(-0.000622606 0.0022776 -0.00054701)
(-0.00128203 0.00266557 -0.000912349)
(-0.00172542 0.00240245 -0.000912349)
(-0.00211639 0.00206634 -0.000912349)
(-0.00244305 0.00166744 -0.000912349)
(-0.00269548 0.00121788 -0.000912349)
(-0.00286602 0.000731307 -0.000912349)
(-0.00294947 0.000222519 -0.000912349)
(-0.0029433 -0.000293031 -0.000912349)
(-0.0028477 -0.000799677 -0.000912348)
(-0.00266557 -0.00128203 -0.000912349)
(-0.00240245 -0.00172542 -0.000912349)
(-0.00206634 -0.00211639 -0.000912349)
(-0.00166744 -0.00244305 -0.000912349)
(-0.00121788 -0.00269548 -0.000912349)
(-0.000731307 -0.00286602 -0.000912349)
(-0.000222519 -0.00294947 -0.000912349)
(0.000293031 -0.0029433 -0.000912349)
(0.000799678 -0.0028477 -0.000912348)
(0.00128203 -0.00266557 -0.000912349)
(0.00172542 -0.00240245 -0.000912349)
(0.00211639 -0.00206634 -0.000912349)
(0.00244305 -0.00166744 -0.000912349)
(0.00269548 -0.00121788 -0.000912349)
(0.00286602 -0.000731307 -0.000912349)
(0.00294947 -0.000222519 -0.000912349)
(0.0029433 0.000293031 -0.000912349)
(0.0028477 0.000799677 -0.000912348)
(0.00266557 0.00128203 -0.000912349)
(0.00240245 0.00172542 -0.000912349)
(0.00206634 0.00211639 -0.000912349)
(0.00166744 0.00244305 -0.000912349)
(0.00121788 0.00269548 -0.000912349)
(0.000731307 0.00286602 -0.000912349)
(0.000222519 0.00294947 -0.000912349)
(-0.000293031 0.0029433 -0.000912349)
(-0.000799677 0.0028477 -0.000912348)
(-0.00124212 0.00258524 -0.000830923)
(-0.00167217 0.00233027 -0.000830923)
(-0.00205141 0.0020045 -0.000830923)
(-0.00236833 0.00161782 -0.000830923)
(-0.00261328 0.00118199 -0.000830923)
(-0.00277883 0.000710243 -0.000830923)
(-0.00285994 0.000216915 -0.000830923)
(-0.00285416 -0.000283004 -0.000830923)
(-0.00276166 -0.000774325 -0.000830923)
(-0.00258524 -0.00124212 -0.000830923)
(-0.00233027 -0.00167217 -0.000830924)
(-0.0020045 -0.00205141 -0.000830923)
(-0.00161782 -0.00236833 -0.000830923)
(-0.00118199 -0.00261328 -0.000830923)
(-0.000710243 -0.00277883 -0.000830923)
(-0.000216915 -0.00285994 -0.000830923)
(0.000283004 -0.00285416 -0.000830923)
(0.000774325 -0.00276166 -0.000830923)
(0.00124212 -0.00258524 -0.000830923)
(0.00167217 -0.00233027 -0.000830924)
(0.00205141 -0.0020045 -0.000830923)
(0.00236833 -0.00161782 -0.000830923)
(0.00261328 -0.00118199 -0.000830923)
(0.00277883 -0.000710243 -0.000830923)
(0.00285994 -0.000216915 -0.000830923)
(0.00285416 0.000283004 -0.000830923)
(0.00276166 0.000774325 -0.000830923)
(0.00258524 0.00124212 -0.000830923)
(0.00233027 0.00167217 -0.000830923)
(0.0020045 0.00205141 -0.000830923)
(0.00161782 0.00236833 -0.000830923)
(0.00118199 0.00261328 -0.000830923)
(0.000710243 0.00277883 -0.000830923)
(0.000216915 0.00285994 -0.000830923)
(-0.000283004 0.00285416 -0.000830923)
(-0.000774325 0.00276166 -0.000830923)
(-0.00121318 0.00249644 -0.000752434)
(-0.00162826 0.00224785 -0.000752434)
(-0.00199385 0.00193095 -0.000752434)
(-0.00229887 0.00155539 -0.000752434)
(-0.00253403 0.00113256 -0.000752434)
(-0.0026922 0.000675328 -0.000752434)
(-0.00276857 0.000197573 -0.000752434)
(-0.00276082 -0.000286186 -0.000752434)
(-0.00266918 -0.00076125 -0.000752434)
(-0.00249644 -0.00121318 -0.000752434)
(-0.00224785 -0.00162826 -0.000752435)
(-0.00193095 -0.00199385 -0.000752434)
(-0.00155539 -0.00229887 -0.000752434)
(-0.00113256 -0.00253403 -0.000752434)
(-0.000675328 -0.0026922 -0.000752434)
(-0.000197573 -0.00276857 -0.000752434)
(0.000286186 -0.00276082 -0.000752435)
(0.00076125 -0.00266918 -0.000752434)
(0.00121318 -0.00249644 -0.000752434)
(0.00162826 -0.00224785 -0.000752435)
(0.00199385 -0.00193095 -0.000752434)
(0.00229887 -0.00155539 -0.000752434)
(0.00253403 -0.00113256 -0.000752434)
(0.0026922 -0.000675328 -0.000752434)
(0.00276857 -0.000197573 -0.000752434)
(0.00276082 0.000286186 -0.000752434)
(0.00266918 0.00076125 -0.000752434)
(0.00249644 0.00121318 -0.000752434)
(0.00224785 0.00162826 -0.000752434)
(0.00193095 0.00199385 -0.000752434)
(0.00155539 0.00229887 -0.000752434)
(0.00113256 0.00253403 -0.000752434)
(0.000675328 0.0026922 -0.000752434)
(0.000197573 0.00276857 -0.000752434)
(-0.000286186 0.00276082 -0.000752434)
(-0.00076125 0.00266918 -0.000752434)
(-0.00148999 0.00304561 -0.00115259)
(-0.00199622 0.0027406 -0.00115259)
(-0.00244179 0.00235233 -0.00115259)
(-0.00281317 0.00189258 -0.00115259)
(-0.00309908 0.00137532 -0.00115259)
(-0.00329082 0.000816279 -0.00115259)
(-0.00338257 0.000232434 -0.00115259)
(-0.00337154 -0.000358475 -0.00115259)
(-0.00325807 -0.000938491 -0.00115259)
(-0.00304561 -0.00148999 -0.00115259)
(-0.0027406 -0.00199622 -0.00115259)
(-0.00235233 -0.00244179 -0.00115259)
(-0.00189258 -0.00281317 -0.00115259)
(-0.00137532 -0.00309908 -0.00115259)
(-0.000816279 -0.00329082 -0.00115259)
(-0.000232434 -0.00338257 -0.00115259)
(0.000358475 -0.00337154 -0.00115259)
(0.000938491 -0.00325807 -0.00115259)
(0.00148999 -0.00304561 -0.00115259)
(0.00199622 -0.0027406 -0.00115259)
(0.00244179 -0.00235233 -0.00115259)
(0.00281317 -0.00189258 -0.00115259)
(0.00309908 -0.00137532 -0.00115259)
(0.00329082 -0.000816279 -0.00115259)
(0.00338257 -0.000232434 -0.00115259)
(0.00337154 0.000358475 -0.00115259)
(0.00325807 0.000938491 -0.00115259)
(0.00304561 0.00148999 -0.00115259)
(0.0027406 0.00199622 -0.00115259)
(0.00235233 0.00244179 -0.00115259)
(0.00189258 0.00281317 -0.00115259)
(0.00137532 0.00309908 -0.00115259)
(0.000816279 0.00329082 -0.00115259)
(0.000232434 0.00338257 -0.00115259)
(-0.000358475 0.00337154 -0.00115259)
(-0.000938491 0.00325807 -0.00115259)
(-0.00144097 0.00292187 -0.00106085)
(-0.00192646 0.00262726 -0.00106085)
(-0.00235341 0.00225282 -0.00106085)
(-0.00270885 0.00180992 -0.00106085)
(-0.00298199 0.00131204 -0.00106085)
(-0.00316452 0.000774292 -0.00106085)
(-0.0032509 0.000213015 -0.00106085)
(-0.0032385 -0.000354733 -0.00106085)
(-0.0031277 -0.000911705 -0.00106085)
(-0.00292187 -0.00144097 -0.00106085)
(-0.00262726 -0.00192646 -0.00106085)
(-0.00225282 -0.00235341 -0.00106085)
(-0.00180992 -0.00270885 -0.00106085)
(-0.00131204 -0.00298199 -0.00106085)
(-0.000774292 -0.00316452 -0.00106085)
(-0.000213015 -0.0032509 -0.00106085)
(0.000354734 -0.0032385 -0.00106085)
(0.000911705 -0.0031277 -0.00106085)
(0.00144097 -0.00292187 -0.00106085)
(0.00192646 -0.00262726 -0.00106085)
(0.00235341 -0.00225282 -0.00106085)
(0.00270885 -0.00180992 -0.00106085)
(0.00298199 -0.00131204 -0.00106085)
(0.00316452 -0.000774292 -0.00106085)
(0.0032509 -0.000213015 -0.00106085)
(0.0032385 0.000354733 -0.00106085)
(0.0031277 0.000911705 -0.00106085)
(0.00292187 0.00144097 -0.00106085)
(0.00262726 0.00192646 -0.00106085)
(0.00225282 0.00235341 -0.00106085)
(0.00180992 0.00270885 -0.00106085)
(0.00131204 0.00298199 -0.00106085)
(0.000774292 0.00316452 -0.00106085)
(0.000213015 0.0032509 -0.00106085)
(-0.000354733 0.0032385 -0.00106085)
(-0.000911705 0.0031277 -0.00106085)
(-0.001402 0.00278973 -0.000972628)
(-0.00186513 0.0025039 -0.000972627)
(-0.00227159 0.00214198 -0.000972628)
(-0.00260903 0.00171498 -0.000972627)
(-0.0028672 0.00123587 -0.000972627)
(-0.00303825 0.000719215 -0.000972627)
(-0.00311698 0.000180702 -0.000972627)
(-0.003101 -0.000363301 -0.000972627)
(-0.00299081 -0.000896265 -0.000972627)
(-0.00278973 -0.001402 -0.000972628)
(-0.0025039 -0.00186513 -0.000972627)
(-0.00214198 -0.00227159 -0.000972628)
(-0.00171498 -0.00260903 -0.000972627)
(-0.00123587 -0.0028672 -0.000972627)
(-0.000719215 -0.00303825 -0.000972627)
(-0.000180702 -0.00311698 -0.000972628)
(0.000363301 -0.003101 -0.000972627)
(0.000896266 -0.00299081 -0.000972628)
(0.001402 -0.00278973 -0.000972628)
(0.00186513 -0.0025039 -0.000972627)
(0.00227159 -0.00214198 -0.000972628)
(0.00260903 -0.00171498 -0.000972627)
(0.0028672 -0.00123587 -0.000972627)
(0.00303825 -0.000719215 -0.000972627)
(0.00311698 -0.000180702 -0.000972627)
(0.003101 0.000363301 -0.000972627)
(0.00299081 0.000896265 -0.000972627)
(0.00278973 0.001402 -0.000972627)
(0.0025039 0.00186513 -0.000972627)
(0.00214198 0.00227159 -0.000972628)
(0.00171498 0.00260903 -0.000972627)
(0.00123587 0.0028672 -0.000972627)
(0.000719215 0.00303825 -0.000972627)
(0.000180702 0.00311698 -0.000972627)
(-0.000363301 0.003101 -0.000972627)