/*--------------------------------*- C++ -*----------------------------------*\
| =========                 |                                                 |
| \\      /  F ield         | OpenFOAM: The Open Source CFD Toolbox           |
|  \\    /   O peration     | Version:  2312                                  |
|   \\  /    A nd           | Website:  www.openfoam.com                      |
|    \\/     M anipulation  |                                                 |
\*---------------------------------------------------------------------------*/
FoamFile
{
    version     2.0;
    format      ascii;
    arch        "LSB;label=32;scalar=64";
    class       volVectorField;
    location    "0.2";
    object      D_0_0_0;
}
// * * * * * * * * * * * * * * * * * * * * * * * * * * * * * * * * * * * * * //

dimensions      [0 1 0 0 0 0 0];

internalField   nonuniform List<vector> 
1620
(
(-0.000138594 0.000242341 -4.62813e-05)
(-0.00017857 0.000214593 -4.62814e-05)
(-0.000213121 0.000180324 -4.62814e-05)
(-0.000241196 0.000140577 -4.62814e-05)
(-0.000261943 9.65581e-05 -4.62814e-05)
(-0.000274731 4.96052e-05 -4.62815e-05)
(-0.00027917 1.14503e-06 -4.62813e-05)
(-0.000275128 -4.73497e-05 -4.62812e-05)
(-0.000262726 -9.44059e-05 -4.62813e-05)
(-0.000242341 -0.000138594 -4.62813e-05)
(-0.000214593 -0.00017857 -4.62814e-05)
(-0.000180324 -0.000213121 -4.62814e-05)
(-0.000140577 -0.000241196 -4.62814e-05)
(-9.65581e-05 -0.000261943 -4.62814e-05)
(-4.96052e-05 -0.000274731 -4.62815e-05)
(-1.14502e-06 -0.00027917 -4.62813e-05)
(4.73497e-05 -0.000275128 -4.62812e-05)
(9.44059e-05 -0.000262726 -4.62813e-05)
(0.000138594 -0.000242341 -4.62813e-05)
(0.00017857 -0.000214593 -4.62814e-05)
(0.000213121 -0.000180324 -4.62814e-05)
(0.000241196 -0.000140577 -4.62814e-05)
(0.000261943 -9.65581e-05 -4.62814e-05)
(0.000274731 -4.96052e-05 -4.62815e-05)
(0.00027917 -1.14502e-06 -4.62813e-05)
(0.000275128 4.73497e-05 -4.62812e-05)
(0.000262726 9.44059e-05 -4.62813e-05)
(0.000242341 0.000138594 -4.62813e-05)
(0.000214593 0.00017857 -4.62814e-05)
(0.000180324 0.000213121 -4.62814e-05)
(0.000140577 0.000241196 -4.62814e-05)
(9.65581e-05 0.000261943 -4.62814e-05)
(4.96052e-05 0.000274731 -4.62815e-05)
(1.14504e-06 0.00027917 -4.62813e-05)
(-4.73497e-05 0.000275128 -4.62812e-05)
(-9.44059e-05 0.000262726 -4.62813e-05)
(-0.000111944 0.000249272 -3.29952e-05)
(-0.000153528 0.000226046 -3.29952e-05)
(-0.000190448 0.000195952 -3.29952e-05)
(-0.000221582 0.000159904 -3.29952e-05)
(-0.000245983 0.000118997 -3.29953e-05)
(-0.000262909 7.44749e-05 -3.29953e-05)
(-0.000271847 2.76898e-05 -3.29952e-05)
(-0.000272526 -1.99366e-05 -3.29952e-05)
(-0.000264923 -6.69573e-05 -3.29952e-05)
(-0.000249272 -0.000111944 -3.29952e-05)
(-0.000226046 -0.000153528 -3.29952e-05)
(-0.000195952 -0.000190448 -3.29952e-05)
(-0.000159904 -0.000221582 -3.29952e-05)
(-0.000118997 -0.000245983 -3.29953e-05)
(-7.44749e-05 -0.000262909 -3.29953e-05)
(-2.76898e-05 -0.000271847 -3.29952e-05)
(1.99366e-05 -0.000272526 -3.29952e-05)
(6.69573e-05 -0.000264923 -3.29952e-05)
(0.000111944 -0.000249272 -3.29952e-05)
(0.000153528 -0.000226046 -3.29952e-05)
(0.000190448 -0.000195952 -3.29952e-05)
(0.000221582 -0.000159904 -3.29952e-05)
(0.000245983 -0.000118997 -3.29953e-05)
(0.000262909 -7.44749e-05 -3.29953e-05)
(0.000271847 -2.76898e-05 -3.29952e-05)
(0.000272526 1.99366e-05 -3.29952e-05)
(0.000264923 6.69573e-05 -3.29952e-05)
(0.000249272 0.000111944 -3.29952e-05)
(0.000226046 0.000153528 -3.29952e-05)
(0.000195952 0.000190448 -3.29952e-05)
(0.000159904 0.000221582 -3.29952e-05)
(0.000118997 0.000245983 -3.29953e-05)
(7.44749e-05 0.000262909 -3.29953e-05)
(2.76899e-05 0.000271847 -3.29952e-05)
(-1.99366e-05 0.000272526 -3.29952e-05)
(-6.69573e-05 0.000264923 -3.29952e-05)
(-9.22013e-05 0.000255952 -2.33915e-05)
(-0.000135246 0.000236053 -2.33915e-05)
(-0.000174182 0.000208982 -2.33916e-05)
(-0.000207825 0.00017556 -2.33916e-05)
(-0.000235154 0.000136805 -2.33916e-05)
(-0.000255336 9.38925e-05 -2.33916e-05)
(-0.000267762 4.81273e-05 -2.33916e-05)
(-0.000272051 8.99742e-07 -2.33916e-05)
(-0.000268074 -4.6355e-05 -2.33916e-05)
(-0.000255952 -9.22013e-05 -2.33915e-05)
(-0.000236053 -0.000135246 -2.33915e-05)
(-0.000208982 -0.000174182 -2.33916e-05)
(-0.00017556 -0.000207825 -2.33916e-05)
(-0.000136805 -0.000235154 -2.33916e-05)
(-9.38924e-05 -0.000255336 -2.33916e-05)
(-4.81273e-05 -0.000267762 -2.33916e-05)
(-8.99734e-07 -0.000272051 -2.33916e-05)
(4.6355e-05 -0.000268074 -2.33916e-05)
(9.22013e-05 -0.000255952 -2.33916e-05)
(0.000135246 -0.000236053 -2.33915e-05)
(0.000174182 -0.000208982 -2.33916e-05)
(0.000207825 -0.00017556 -2.33916e-05)
(0.000235154 -0.000136805 -2.33916e-05)
(0.000255336 -9.38924e-05 -2.33916e-05)
(0.000267762 -4.81273e-05 -2.33916e-05)
(0.000272051 -8.99733e-07 -2.33916e-05)
(0.000268074 4.6355e-05 -2.33916e-05)
(0.000255952 9.22013e-05 -2.33915e-05)
(0.000236053 0.000135246 -2.33915e-05)
(0.000208982 0.000174182 -2.33916e-05)
(0.00017556 0.000207825 -2.33916e-05)
(0.000136805 0.000235154 -2.33916e-05)
(9.38925e-05 0.000255336 -2.33916e-05)
(4.81273e-05 0.000267762 -2.33916e-05)
(8.9974e-07 0.000272051 -2.33916e-05)
(-4.6355e-05 0.000268074 -2.33916e-05)
(-0.000359448 0.000748509 -0.000142021)
(-0.000483965 0.00067472 -0.000142021)
(-0.000593776 0.00058043 -0.000142021)
(-0.000685546 0.000468504 -0.000142021)
(-0.000756485 0.000342342 -0.000142021)
(-0.00080444 0.000205779 -0.000142021)
(-0.000827952 6.29633e-05 -0.000142021)
(-0.000826307 -8.17657e-05 -0.000142021)
(-0.000799555 -0.00022401 -0.000142021)
(-0.000748509 -0.000359448 -0.000142021)
(-0.00067472 -0.000483965 -0.000142021)
(-0.00058043 -0.000593776 -0.000142021)
(-0.000468504 -0.000685546 -0.000142021)
(-0.000342342 -0.000756485 -0.000142021)
(-0.000205779 -0.00080444 -0.000142021)
(-6.29632e-05 -0.000827952 -0.000142021)
(8.17657e-05 -0.000826307 -0.000142021)
(0.00022401 -0.000799555 -0.000142021)
(0.000359448 -0.000748509 -0.000142021)
(0.000483965 -0.00067472 -0.000142021)
(0.000593776 -0.00058043 -0.000142021)
(0.000685546 -0.000468504 -0.000142021)
(0.000756485 -0.000342342 -0.000142021)
(0.00080444 -0.000205779 -0.000142021)
(0.000827952 -6.29633e-05 -0.000142021)
(0.000826307 8.17657e-05 -0.000142021)
(0.000799555 0.00022401 -0.000142021)
(0.000748509 0.000359448 -0.000142021)
(0.00067472 0.000483965 -0.000142021)
(0.00058043 0.000593776 -0.000142021)
(0.000468504 0.000685546 -0.000142021)
(0.000342342 0.000756485 -0.000142021)
(0.000205779 0.00080444 -0.000142021)
(6.29633e-05 0.000827952 -0.000142021)
(-8.17657e-05 0.000826307 -0.000142021)
(-0.00022401 0.000799555 -0.000142021)
(-0.000333833 0.000743069 -0.000114289)
(-0.000457793 0.00067381 -0.000114289)
(-0.000567845 0.000584079 -0.00011429)
(-0.000660642 0.000476601 -0.00011429)
(-0.000733366 0.00035464 -0.000114289)
(-0.000783808 0.000221905 -0.00011429)
(-0.000810433 8.24267e-05 -0.00011429)
(-0.000812433 -5.95558e-05 -0.000114289)
(-0.000789749 -0.000199729 -0.000114289)
(-0.000743069 -0.000333833 -0.000114289)
(-0.00067381 -0.000457793 -0.000114289)
(-0.000584079 -0.000567845 -0.00011429)
(-0.000476601 -0.000660642 -0.00011429)
(-0.00035464 -0.000733366 -0.00011429)
(-0.000221905 -0.000783808 -0.00011429)
(-8.24267e-05 -0.000810433 -0.00011429)
(5.95558e-05 -0.000812433 -0.000114289)
(0.000199729 -0.000789749 -0.000114289)
(0.000333833 -0.000743069 -0.000114289)
(0.000457793 -0.00067381 -0.000114289)
(0.000567845 -0.000584079 -0.00011429)
(0.000660642 -0.000476601 -0.00011429)
(0.000733366 -0.00035464 -0.000114289)
(0.000783808 -0.000221905 -0.00011429)
(0.000810433 -8.24267e-05 -0.00011429)
(0.000812433 5.95558e-05 -0.000114289)
(0.000789749 0.000199729 -0.000114289)
(0.000743069 0.000333833 -0.000114289)
(0.00067381 0.000457793 -0.000114289)
(0.000584079 0.000567845 -0.00011429)
(0.000476601 0.000660642 -0.00011429)
(0.00035464 0.000733366 -0.000114289)
(0.000221905 0.000783808 -0.00011429)
(8.24267e-05 0.000810433 -0.00011429)
(-5.95558e-05 0.000812433 -0.000114289)
(-0.000199729 0.000789749 -0.000114289)
(-0.00031701 0.000735604 -8.78897e-05)
(-0.00043993 0.000669381 -8.78896e-05)
(-0.000549483 0.000582818 -8.78896e-05)
(-0.00064234 0.000478547 -8.78896e-05)
(-0.00071568 0.000359736 -8.78897e-05)
(-0.000767275 0.000229994 -8.78896e-05)
(-0.000795557 9.32638e-05 -8.78897e-05)
(-0.000799665 -4.62999e-05 -8.78897e-05)
(-0.000779477 -0.000184457 -8.78897e-05)
(-0.000735604 -0.00031701 -8.78897e-05)
(-0.000669381 -0.00043993 -8.78896e-05)
(-0.000582818 -0.000549483 -8.78896e-05)
(-0.000478547 -0.00064234 -8.78896e-05)
(-0.000359736 -0.00071568 -8.78897e-05)
(-0.000229994 -0.000767275 -8.78896e-05)
(-9.32637e-05 -0.000795557 -8.78897e-05)
(4.62999e-05 -0.000799665 -8.78897e-05)
(0.000184457 -0.000779477 -8.78897e-05)
(0.00031701 -0.000735604 -8.78897e-05)
(0.00043993 -0.000669381 -8.78896e-05)
(0.000549483 -0.000582818 -8.78896e-05)
(0.00064234 -0.000478547 -8.78896e-05)
(0.00071568 -0.000359736 -8.78897e-05)
(0.000767275 -0.000229994 -8.78896e-05)
(0.000795557 -9.32637e-05 -8.78897e-05)
(0.000799665 4.62999e-05 -8.78897e-05)
(0.000779477 0.000184457 -8.78897e-05)
(0.000735604 0.00031701 -8.78897e-05)
(0.000669381 0.00043993 -8.78896e-05)
(0.000582818 0.000549483 -8.78896e-05)
(0.000478547 0.00064234 -8.78896e-05)
(0.000359736 0.00071568 -8.78896e-05)
(0.000229994 0.000767275 -8.78896e-05)
(9.32638e-05 0.000795557 -8.78897e-05)
(-4.62999e-05 0.000799665 -8.78897e-05)
(-0.000184457 0.000779477 -8.78897e-05)
(-0.000579905 0.00124451 -0.000273379)
(-0.000787203 0.00112491 -0.000273379)
(-0.000970582 0.000971122 -0.000273379)
(-0.00112447 0.000787828 -0.000273379)
(-0.00124419 0.000580597 -0.000273378)
(-0.00132611 0.000355726 -0.000273378)
(-0.00136773 0.000120044 -0.000273378)
(-0.0013678 -0.000119284 -0.000273378)
(-0.00132631 -0.000354988 -0.000273379)
(-0.00124451 -0.000579905 -0.000273379)
(-0.00112491 -0.000787203 -0.000273379)
(-0.000971122 -0.000970582 -0.000273379)
(-0.000787828 -0.00112447 -0.000273379)
(-0.000580597 -0.00124419 -0.000273378)
(-0.000355726 -0.00132611 -0.000273378)
(-0.000120044 -0.00136773 -0.000273379)
(0.000119284 -0.0013678 -0.000273379)
(0.000354988 -0.00132631 -0.000273379)
(0.000579905 -0.00124451 -0.000273379)
(0.000787203 -0.00112491 -0.000273379)
(0.000970582 -0.000971122 -0.000273379)
(0.00112447 -0.000787828 -0.000273379)
(0.00124419 -0.000580597 -0.000273378)
(0.00132611 -0.000355726 -0.000273378)
(0.00136773 -0.000120044 -0.000273379)
(0.0013678 0.000119284 -0.000273378)
(0.00132631 0.000354988 -0.000273379)
(0.00124451 0.000579905 -0.000273379)
(0.00112491 0.000787203 -0.000273379)
(0.000971122 0.000970582 -0.000273379)
(0.000787828 0.00112447 -0.000273379)
(0.000580597 0.00124419 -0.000273378)
(0.000355726 0.00132611 -0.000273378)
(0.000120045 0.00136773 -0.000273378)
(-0.000119284 0.0013678 -0.000273378)
(-0.000354988 0.00132631 -0.000273379)
(-0.000551656 0.00122436 -0.000233455)
(-0.000755882 0.00110996 -0.000233455)
(-0.000937142 0.000961842 -0.000233455)
(-0.00108993 0.000784496 -0.000233455)
(-0.00120959 0.000583314 -0.000233455)
(-0.00129251 0.000364408 -0.000233455)
(-0.00133615 0.00013443 -0.000233455)
(-0.0013392 -9.96326e-05 -0.000233455)
(-0.00130155 -0.000330668 -0.000233455)
(-0.00122436 -0.000551656 -0.000233455)
(-0.00110996 -0.000755882 -0.000233455)
(-0.000961842 -0.000937142 -0.000233455)
(-0.000784496 -0.00108993 -0.000233455)
(-0.000583314 -0.00120959 -0.000233455)
(-0.000364408 -0.00129251 -0.000233455)
(-0.00013443 -0.00133615 -0.000233455)
(9.96326e-05 -0.0013392 -0.000233455)
(0.000330668 -0.00130155 -0.000233455)
(0.000551656 -0.00122436 -0.000233455)
(0.000755883 -0.00110996 -0.000233455)
(0.000937142 -0.000961842 -0.000233455)
(0.00108993 -0.000784496 -0.000233455)
(0.00120959 -0.000583314 -0.000233455)
(0.00129251 -0.000364408 -0.000233455)
(0.00133615 -0.00013443 -0.000233455)
(0.0013392 9.96326e-05 -0.000233455)
(0.00130155 0.000330668 -0.000233455)
(0.00122436 0.000551656 -0.000233455)
(0.00110996 0.000755883 -0.000233455)
(0.000961842 0.000937142 -0.000233455)
(0.000784496 0.00108993 -0.000233455)
(0.000583314 0.00120959 -0.000233455)
(0.000364408 0.00129251 -0.000233455)
(0.00013443 0.00133615 -0.000233455)
(-9.96326e-05 0.0013392 -0.000233455)
(-0.000330668 0.00130155 -0.000233455)
(-0.000532467 0.00120072 -0.000194858)
(-0.00073288 0.00109001 -0.000194858)
(-0.000911024 0.00094619 -0.000194859)
(-0.00106149 0.000773618 -0.000194859)
(-0.0011797 0.000577539 -0.000194859)
(-0.00126207 0.000363912 -0.000194859)
(-0.00130608 0.000139228 -0.000194859)
(-0.00131042 -8.96862e-05 -0.000194859)
(-0.00127494 -0.000315876 -0.000194859)
(-0.00120072 -0.000532467 -0.000194858)
(-0.00109001 -0.00073288 -0.000194858)
(-0.00094619 -0.000911024 -0.000194859)
(-0.000773618 -0.00106149 -0.000194859)
(-0.000577539 -0.0011797 -0.000194859)
(-0.000363912 -0.00126207 -0.000194859)
(-0.000139228 -0.00130608 -0.000194859)
(8.96863e-05 -0.00131042 -0.000194859)
(0.000315876 -0.00127494 -0.000194859)
(0.000532467 -0.00120072 -0.000194859)
(0.00073288 -0.00109001 -0.000194858)
(0.000911024 -0.00094619 -0.000194859)
(0.00106149 -0.000773618 -0.000194859)
(0.0011797 -0.000577539 -0.000194859)
(0.00126207 -0.000363912 -0.000194859)
(0.00130608 -0.000139228 -0.000194859)
(0.00131042 8.96863e-05 -0.000194859)
(0.00127494 0.000315876 -0.000194859)
(0.00120072 0.000532467 -0.000194858)
(0.00109001 0.00073288 -0.000194858)
(0.00094619 0.000911024 -0.000194858)
(0.000773618 0.00106149 -0.000194859)
(0.000577539 0.0011797 -0.000194859)
(0.000363912 0.00126207 -0.000194859)
(0.000139228 0.00130608 -0.000194859)
(-8.96862e-05 0.00131042 -0.000194858)
(-0.000315876 0.00127494 -0.000194858)
(-0.000794933 0.00172202 -0.000434155)
(-0.00108188 0.00155782 -0.000434156)
(-0.00133596 0.00134628 -0.000434155)
(-0.00154944 0.00109384 -0.000434155)
(-0.00171584 0.000808168 -0.000434155)
(-0.00183011 0.000497937 -0.000434155)
(-0.00188878 0.000172576 -0.000434155)
(-0.00189005 -0.000158029 -0.000434155)
(-0.00183389 -0.000483832 -0.000434155)
(-0.00172202 -0.000794933 -0.000434155)
(-0.00155782 -0.00108188 -0.000434156)
(-0.00134628 -0.00133596 -0.000434155)
(-0.00109384 -0.00154944 -0.000434155)
(-0.000808168 -0.00171584 -0.000434155)
(-0.000497936 -0.00183011 -0.000434155)
(-0.000172576 -0.00188878 -0.000434155)
(0.000158029 -0.00189005 -0.000434155)
(0.000483832 -0.00183389 -0.000434155)
(0.000794933 -0.00172202 -0.000434155)
(0.00108188 -0.00155782 -0.000434156)
(0.00133596 -0.00134628 -0.000434155)
(0.00154944 -0.00109384 -0.000434155)
(0.00171584 -0.000808168 -0.000434155)
(0.00183011 -0.000497936 -0.000434155)
(0.00188878 -0.000172576 -0.000434155)
(0.00189005 0.000158029 -0.000434155)
(0.00183389 0.000483832 -0.000434155)
(0.00172202 0.000794933 -0.000434155)
(0.00155782 0.00108188 -0.000434156)
(0.00134628 0.00133596 -0.000434155)
(0.00109384 0.00154944 -0.000434155)
(0.000808168 0.00171584 -0.000434155)
(0.000497937 0.00183011 -0.000434155)
(0.000172576 0.00188878 -0.000434155)
(-0.000158029 0.00189005 -0.000434155)
(-0.000483832 0.00183389 -0.000434155)
(-0.000763095 0.0016829 -0.000383332)
(-0.00104373 0.00152482 -0.000383332)
(-0.00129266 0.00132041 -0.000383332)
(-0.00150231 0.00107589 -0.000383332)
(-0.00166631 0.000798669 -0.000383332)
(-0.00177968 0.000497183 -0.000383332)
(-0.00183898 0.000180591 -0.000383332)
(-0.0018424 -0.000141489 -0.000383332)
(-0.00178984 -0.000459269 -0.000383332)
(-0.0016829 -0.000763095 -0.000383332)
(-0.00152482 -0.00104373 -0.000383332)
(-0.00132041 -0.00129266 -0.000383332)
(-0.00107589 -0.00150231 -0.000383332)
(-0.000798668 -0.00166631 -0.000383332)
(-0.000497183 -0.00177968 -0.000383332)
(-0.000180591 -0.00183898 -0.000383332)
(0.000141489 -0.0018424 -0.000383332)
(0.000459269 -0.00178984 -0.000383332)
(0.000763095 -0.0016829 -0.000383332)
(0.00104373 -0.00152482 -0.000383332)
(0.00129266 -0.00132041 -0.000383332)
(0.00150231 -0.00107589 -0.000383332)
(0.00166631 -0.000798668 -0.000383332)
(0.00177968 -0.000497183 -0.000383332)
(0.00183898 -0.000180591 -0.000383332)
(0.0018424 0.000141489 -0.000383332)
(0.00178984 0.000459269 -0.000383332)
(0.0016829 0.000763095 -0.000383332)
(0.00152482 0.00104373 -0.000383332)
(0.00132041 0.00129266 -0.000383332)
(0.00107589 0.00150231 -0.000383332)
(0.000798669 0.00166631 -0.000383332)
(0.000497183 0.00177968 -0.000383332)
(0.000180591 0.00183898 -0.000383332)
(-0.000141489 0.0018424 -0.000383332)
(-0.000459269 0.00178984 -0.000383332)
(-0.000740625 0.00163879 -0.000334189)
(-0.00101395 0.00148529 -0.000334189)
(-0.00125646 0.00128665 -0.000334189)
(-0.0014608 0.00104892 -0.000334189)
(-0.00162075 0.000779324 -0.000334189)
(-0.00173145 0.000486045 -0.000334189)
(-0.00178955 0.000177997 -0.000334189)
(-0.00179327 -0.000135459 -0.000334189)
(-0.0017425 -0.000444799 -0.000334189)
(-0.00163879 -0.000740625 -0.000334189)
(-0.00148529 -0.00101395 -0.000334189)
(-0.00128665 -0.00125646 -0.000334189)
(-0.00104892 -0.0014608 -0.000334189)
(-0.000779324 -0.00162075 -0.000334189)
(-0.000486045 -0.00173145 -0.000334189)
(-0.000177997 -0.00178955 -0.000334189)
(0.000135459 -0.00179327 -0.000334189)
(0.000444799 -0.0017425 -0.000334189)
(0.000740625 -0.00163879 -0.000334189)
(0.00101395 -0.00148529 -0.000334189)
(0.00125646 -0.00128665 -0.000334189)
(0.0014608 -0.00104892 -0.000334189)
(0.00162075 -0.000779324 -0.000334189)
(0.00173145 -0.000486045 -0.000334189)
(0.00178955 -0.000177997 -0.000334189)
(0.00179327 0.000135459 -0.000334189)
(0.0017425 0.000444799 -0.000334189)
(0.00163879 0.000740625 -0.000334189)
(0.00148529 0.00101395 -0.000334189)
(0.00128665 0.00125646 -0.000334189)
(0.00104892 0.0014608 -0.000334189)
(0.000779324 0.00162075 -0.000334189)
(0.000486045 0.00173145 -0.000334189)
(0.000177997 0.00178955 -0.000334189)
(-0.000135459 0.00179327 -0.000334189)
(-0.000444799 0.0017425 -0.000334189)
(-0.00100398 0.00217253 -0.000619886)
(-0.00136599 0.00196519 -0.000619886)
(-0.00168648 0.00169813 -0.000619886)
(-0.00195574 0.00137948 -0.000619886)
(-0.00216557 0.00101891 -0.000619886)
(-0.0023096 0.000627382 -0.000619886)
(-0.00238346 0.000216792 -0.000619886)
(-0.00238489 -0.000200385 -0.000619886)
(-0.00231387 -0.000611474 -0.000619886)
(-0.00217253 -0.00100398 -0.000619886)
(-0.00196519 -0.00136599 -0.000619886)
(-0.00169813 -0.00168649 -0.000619886)
(-0.00137948 -0.00195574 -0.000619886)
(-0.00101891 -0.00216557 -0.000619886)
(-0.000627382 -0.0023096 -0.000619886)
(-0.000216792 -0.00238346 -0.000619886)
(0.000200386 -0.00238489 -0.000619886)
(0.000611474 -0.00231387 -0.000619886)
(0.00100398 -0.00217253 -0.000619886)
(0.00136599 -0.00196519 -0.000619887)
(0.00168649 -0.00169813 -0.000619886)
(0.00195574 -0.00137948 -0.000619886)
(0.00216557 -0.00101891 -0.000619886)
(0.0023096 -0.000627382 -0.000619886)
(0.00238346 -0.000216792 -0.000619886)
(0.00238489 0.000200385 -0.000619886)
(0.00231387 0.000611474 -0.000619886)
(0.00217253 0.00100398 -0.000619886)
(0.00196519 0.00136599 -0.000619886)
(0.00169813 0.00168649 -0.000619886)
(0.00137948 0.00195574 -0.000619886)
(0.00101891 0.00216557 -0.000619886)
(0.000627382 0.0023096 -0.000619886)
(0.000216792 0.00238346 -0.000619886)
(-0.000200385 0.00238489 -0.000619886)
(-0.000611474 0.00231387 -0.000619886)
(-0.000967434 0.00210814 -0.000559022)
(-0.00131881 0.00190812 -0.000559022)
(-0.00163012 0.00165012 -0.000559022)
(-0.00189189 0.00134198 -0.000559022)
(-0.00209618 0.000993073 -0.000559022)
(-0.00223678 0.000613988 -0.000559022)
(-0.00230942 0.000216247 -0.000559022)
(-0.00231188 -0.000188064 -0.000559022)
(-0.0022441 -0.000586662 -0.000559022)
(-0.00210814 -0.000967434 -0.000559022)
(-0.00190812 -0.00131881 -0.000559022)
(-0.00165012 -0.00163012 -0.000559022)
(-0.00134198 -0.00189189 -0.000559022)
(-0.000993073 -0.00209618 -0.000559022)
(-0.000613988 -0.00223678 -0.000559022)
(-0.000216247 -0.00230942 -0.000559022)
(0.000188064 -0.00231188 -0.000559022)
(0.000586662 -0.0022441 -0.000559022)
(0.000967434 -0.00210814 -0.000559022)
(0.00131881 -0.00190812 -0.000559023)
(0.00163012 -0.00165012 -0.000559023)
(0.00189189 -0.00134198 -0.000559022)
(0.00209618 -0.000993073 -0.000559022)
(0.00223678 -0.000613988 -0.000559022)
(0.00230942 -0.000216247 -0.000559022)
(0.00231188 0.000188064 -0.000559022)
(0.0022441 0.000586662 -0.000559022)
(0.00210814 0.000967434 -0.000559022)
(0.00190812 0.00131881 -0.000559022)
(0.00165012 0.00163012 -0.000559022)
(0.00134198 0.00189189 -0.000559022)
(0.000993073 0.00209618 -0.000559022)
(0.000613988 0.00223678 -0.000559022)
(0.000216247 0.00230942 -0.000559022)
(-0.000188064 0.00231188 -0.000559022)
(-0.000586662 0.0022441 -0.000559022)
(-0.000940385 0.00203752 -0.000500245)
(-0.00127991 0.00184327 -0.000500245)
(-0.00158055 0.00159301 -0.000500245)
(-0.00183316 0.00129435 -0.000500245)
(-0.00203007 0.000956365 -0.000500245)
(-0.0021653 0.000589318 -0.000500245)
(-0.00223474 0.000204364 -0.000500245)
(-0.00223627 -0.000186799 -0.000500245)
(-0.00216986 -0.000572286 -0.000500245)
(-0.00203752 -0.000940385 -0.000500245)
(-0.00184327 -0.00127991 -0.000500245)
(-0.00159301 -0.00158055 -0.000500245)
(-0.00129435 -0.00183316 -0.000500245)
(-0.000956364 -0.00203007 -0.000500245)
(-0.000589318 -0.0021653 -0.000500245)
(-0.000204364 -0.00223474 -0.000500245)
(0.000186799 -0.00223627 -0.000500245)
(0.000572286 -0.00216986 -0.000500245)
(0.000940385 -0.00203752 -0.000500245)
(0.00127991 -0.00184327 -0.000500245)
(0.00158055 -0.00159301 -0.000500245)
(0.00183316 -0.00129435 -0.000500245)
(0.00203007 -0.000956365 -0.000500245)
(0.0021653 -0.000589318 -0.000500245)
(0.00223474 -0.000204364 -0.000500245)
(0.00223627 0.000186799 -0.000500245)
(0.00216986 0.000572286 -0.000500245)
(0.00203752 0.000940385 -0.000500245)
(0.00184327 0.00127991 -0.000500245)
(0.00159301 0.00158055 -0.000500245)
(0.00129435 0.00183316 -0.000500245)
(0.000956365 0.00203007 -0.000500245)
(0.000589318 0.0021653 -0.000500245)
(0.000204364 0.00223474 -0.000500245)
(-0.000186799 0.00223627 -0.000500245)
(-0.000572286 0.00216986 -0.000500245)
(-0.00120674 0.00258673 -0.000824985)
(-0.00163759 0.00233789 -0.000824985)
(-0.00201868 0.002018 -0.000824985)
(-0.00233843 0.00163681 -0.000824985)
(-0.00258713 0.00120588 -0.000824985)
(-0.00275723 0.000738304 -0.000824985)
(-0.00284354 0.0002483 -0.000824985)
(-0.00284346 -0.000249249 -0.000824985)
(-0.00275698 -0.000739224 -0.000824985)
(-0.00258673 -0.00120674 -0.000824985)
(-0.00233789 -0.00163759 -0.000824985)
(-0.002018 -0.00201868 -0.000824985)
(-0.00163681 -0.00233843 -0.000824985)
(-0.00120588 -0.00258713 -0.000824985)
(-0.000738304 -0.00275723 -0.000824985)
(-0.0002483 -0.00284354 -0.000824985)
(0.000249249 -0.00284346 -0.000824985)
(0.000739224 -0.00275698 -0.000824985)
(0.00120674 -0.00258673 -0.000824985)
(0.00163759 -0.00233789 -0.000824985)
(0.00201868 -0.002018 -0.000824985)
(0.00233843 -0.00163681 -0.000824985)
(0.00258713 -0.00120588 -0.000824985)
(0.00275723 -0.000738304 -0.000824985)
(0.00284354 -0.0002483 -0.000824985)
(0.00284346 0.000249249 -0.000824985)
(0.00275698 0.000739224 -0.000824985)
(0.00258673 0.00120674 -0.000824985)
(0.00233789 0.00163759 -0.000824985)
(0.002018 0.00201868 -0.000824985)
(0.00163681 0.00233843 -0.000824985)
(0.00120588 0.00258713 -0.000824985)
(0.000738304 0.00275723 -0.000824985)
(0.0002483 0.00284354 -0.000824985)
(-0.000249249 0.00284346 -0.000824985)
(-0.000739224 0.00275698 -0.000824985)
(-0.00116348 0.00248904 -0.000754491)
(-0.00157803 0.00224919 -0.000754491)
(-0.00194462 0.001941 -0.000754491)
(-0.00225213 0.00157383 -0.000754491)
(-0.00249121 0.00115885 -0.000754491)
(-0.00265459 0.000708646 -0.000754491)
(-0.00273732 0.000236916 -0.000754491)
(-0.00273687 -0.000242013 -0.000754491)
(-0.00265327 -0.00071359 -0.000754491)
(-0.00248904 -0.00116348 -0.000754491)
(-0.00224919 -0.00157803 -0.000754491)
(-0.001941 -0.00194462 -0.000754491)
(-0.00157383 -0.00225213 -0.000754491)
(-0.00115884 -0.00249121 -0.000754491)
(-0.000708646 -0.00265459 -0.000754491)
(-0.000236916 -0.00273732 -0.000754491)
(0.000242014 -0.00273687 -0.000754491)
(0.00071359 -0.00265327 -0.000754491)
(0.00116348 -0.00248904 -0.000754491)
(0.00157803 -0.00224919 -0.000754491)
(0.00194462 -0.001941 -0.000754491)
(0.00225213 -0.00157383 -0.000754491)
(0.00249121 -0.00115884 -0.000754491)
(0.00265459 -0.000708646 -0.000754491)
(0.00273732 -0.000236916 -0.000754491)
(0.00273687 0.000242014 -0.000754491)
(0.00265327 0.00071359 -0.000754491)
(0.00248904 0.00116348 -0.000754491)
(0.00224919 0.00157803 -0.000754491)
(0.001941 0.00194462 -0.000754491)
(0.00157383 0.00225213 -0.000754491)
(0.00115884 0.00249121 -0.000754491)
(0.000708646 0.00265459 -0.000754491)
(0.000236916 0.00273732 -0.000754491)
(-0.000242013 0.00273687 -0.000754491)
(-0.00071359 0.00265327 -0.000754491)
(-0.0011295 0.00238445 -0.000686496)
(-0.0015264 0.00215209 -0.000686496)
(-0.00187691 0.00185434 -0.000686496)
(-0.0021704 0.00150024 -0.000686496)
(-0.00239794 0.00110057 -0.000686496)
(-0.00255262 0.000667447 -0.000686496)
(-0.00262974 0.000214049 -0.000686496)
(-0.00262696 -0.000245853 -0.000686496)
(-0.00254436 -0.000698286 -0.000686496)
(-0.00238445 -0.0011295 -0.000686496)
(-0.00215209 -0.0015264 -0.000686496)
(-0.00185434 -0.00187691 -0.000686496)
(-0.00150024 -0.0021704 -0.000686496)
(-0.00110057 -0.00239794 -0.000686496)
(-0.000667447 -0.00255262 -0.000686496)
(-0.000214049 -0.00262974 -0.000686496)
(0.000245853 -0.00262696 -0.000686496)
(0.000698286 -0.00254436 -0.000686496)
(0.0011295 -0.00238445 -0.000686496)
(0.0015264 -0.00215209 -0.000686496)
(0.00187691 -0.00185434 -0.000686496)
(0.0021704 -0.00150024 -0.000686496)
(0.00239794 -0.00110057 -0.000686496)
(0.00255262 -0.000667447 -0.000686496)
(0.00262974 -0.000214049 -0.000686496)
(0.00262696 0.000245853 -0.000686496)
(0.00254436 0.000698286 -0.000686496)
(0.00238445 0.0011295 -0.000686496)
(0.00215209 0.0015264 -0.000686496)
(0.00185434 0.00187691 -0.000686496)
(0.00150024 0.0021704 -0.000686496)
(0.00110057 0.00239794 -0.000686496)
(0.000667447 0.00255262 -0.000686496)
(0.000214049 0.00262974 -0.000686496)
(-0.000245853 0.00262696 -0.000686496)
(-0.000698286 0.00254436 -0.000686496)
(-0.00140152 0.00295331 -0.00104294)
(-0.00189306 0.00266507 -0.00104294)
(-0.00232708 0.00229586 -0.00104294)
(-0.0026904 0.00185688 -0.00104294)
(-0.00297197 0.00136149 -0.00104294)
(-0.00316324 0.000824726 -0.00104294)
(-0.0032584 0.000262906 -0.00104294)
(-0.00325455 -0.000306904 -0.00104294)
(-0.00315181 -0.000867388 -0.00104294)
(-0.00295331 -0.00140152 -0.00104294)
(-0.00266507 -0.00189306 -0.00104294)
(-0.00229586 -0.00232708 -0.00104294)
(-0.00185688 -0.0026904 -0.00104294)
(-0.00136149 -0.00297197 -0.00104294)
(-0.000824726 -0.00316324 -0.00104294)
(-0.000262906 -0.0032584 -0.00104294)
(0.000306904 -0.00325455 -0.00104294)
(0.000867388 -0.00315181 -0.00104294)
(0.00140152 -0.00295331 -0.00104294)
(0.00189306 -0.00266507 -0.00104294)
(0.00232709 -0.00229586 -0.00104294)
(0.0026904 -0.00185688 -0.00104294)
(0.00297197 -0.00136149 -0.00104294)
(0.00316324 -0.000824726 -0.00104294)
(0.0032584 -0.000262906 -0.00104294)
(0.00325455 0.000306904 -0.00104294)
(0.00315181 0.000867388 -0.00104294)
(0.00295331 0.00140152 -0.00104294)
(0.00266507 0.00189306 -0.00104294)
(0.00229586 0.00232708 -0.00104294)
(0.00185688 0.0026904 -0.00104294)
(0.00136149 0.00297197 -0.00104294)
(0.000824726 0.00316324 -0.00104294)
(0.000262906 0.0032584 -0.00104294)
(-0.000306904 0.00325455 -0.00104294)
(-0.000867388 0.00315181 -0.00104294)
(-0.00134818 0.00281347 -0.000962789)
(-0.00181625 0.00253662 -0.000962789)
(-0.00222914 0.00218269 -0.000962789)
(-0.00257429 0.00176244 -0.000962789)
(-0.00284123 0.00128865 -0.000962789)
(-0.00302184 0.000775698 -0.000962789)
(-0.00311063 0.000239176 -0.000962789)
(-0.0031049 -0.000304612 -0.000962789)
(-0.00300484 -0.000839145 -0.000962789)
(-0.00281347 -0.00134818 -0.000962789)
(-0.00253662 -0.00181625 -0.000962789)
(-0.00218269 -0.00222914 -0.000962789)
(-0.00176244 -0.00257429 -0.000962789)
(-0.00128865 -0.00284123 -0.000962789)
(-0.000775698 -0.00302184 -0.000962789)
(-0.000239176 -0.00311063 -0.000962789)
(0.000304612 -0.0031049 -0.000962789)
(0.000839146 -0.00300484 -0.000962789)
(0.00134818 -0.00281347 -0.000962789)
(0.00181625 -0.00253662 -0.000962789)
(0.00222914 -0.00218269 -0.000962789)
(0.00257429 -0.00176244 -0.000962789)
(0.00284123 -0.00128865 -0.000962789)
(0.00302184 -0.000775698 -0.000962789)
(0.00311063 -0.000239176 -0.000962789)
(0.0031049 0.000304612 -0.000962789)
(0.00300484 0.000839145 -0.000962789)
(0.00281347 0.00134818 -0.000962789)
(0.00253662 0.00181625 -0.000962789)
(0.00218269 0.00222914 -0.000962789)
(0.00176244 0.00257429 -0.000962789)
(0.00128865 0.00284123 -0.000962789)
(0.000775698 0.00302184 -0.000962789)
(0.000239176 0.00311063 -0.000962789)
(-0.000304612 0.0031049 -0.000962789)
(-0.000839145 0.00300484 -0.000962789)
(-0.00130339 0.00266689 -0.00088563)
(-0.00174669 0.00240004 -0.000885629)
(-0.00213692 0.00206027 -0.00088563)
(-0.00246221 0.0016579 -0.000885629)
(-0.0027127 0.00120515 -0.000885629)
(-0.00288076 0.000715791 -0.000885629)
(-0.00296129 0.000204678 -0.00088563)
(-0.00295184 -0.000312655 -0.000885629)
(-0.00285271 -0.000820487 -0.00088563)
(-0.00266689 -0.00130339 -0.00088563)
(-0.00240004 -0.00174669 -0.00088563)
(-0.00206027 -0.00213692 -0.00088563)
(-0.0016579 -0.00246221 -0.00088563)
(-0.00120515 -0.0027127 -0.000885629)
(-0.000715791 -0.00288076 -0.000885629)
(-0.000204677 -0.00296129 -0.00088563)
(0.000312655 -0.00295184 -0.00088563)
(0.000820487 -0.00285271 -0.00088563)
(0.00130339 -0.00266689 -0.00088563)
(0.00174669 -0.00240004 -0.00088563)
(0.00213692 -0.00206027 -0.00088563)
(0.00246221 -0.0016579 -0.00088563)
(0.0027127 -0.00120515 -0.000885629)
(0.00288076 -0.000715791 -0.000885629)
(0.00296129 -0.000204677 -0.00088563)
(0.00295184 0.000312655 -0.000885629)
(0.00285271 0.000820487 -0.00088563)
(0.00266689 0.00130339 -0.00088563)
(0.00240004 0.00174669 -0.000885629)
(0.00206027 0.00213692 -0.00088563)
(0.0016579 0.00246221 -0.000885629)