/*--------------------------------*- C++ -*----------------------------------*\
| =========                 |                                                 |
| \\      /  F ield         | OpenFOAM: The Open Source CFD Toolbox           |
|  \\    /   O peration     | Version:  2312                                  |
|   \\  /    A nd           | Website:  www.openfoam.com                      |
|    \\/     M anipulation  |                                                 |
\*---------------------------------------------------------------------------*/
FoamFile
{
    version     2.0;
    format      ascii;
    arch        "LSB;label=32;scalar=64";
    class       volTensorField;
    location    "0.2";
    object      F;
}
// * * * * * * * * * * * * * * * * * * * * * * * * * * * * * * * * * * * * * //

dimensions      [0 0 0 0 0 0 0];

internalField   nonuniform List<tensor> 
1620
(
(0.971344 -0.0296521 0.121947 -0.0104428 0.982458 -0.272619 -0.0158218 -0.00138429 1.05637)
(0.978536 -0.0303436 0.167434 -0.0111344 0.975266 -0.247301 -0.0153412 -0.00411069 1.05637)
(0.98553 -0.0285337 0.207834 -0.00932456 0.968271 -0.214469 -0.0143943 -0.0067121 1.05637)
(0.991484 -0.0244407 0.241918 -0.00523145 0.962318 -0.175121 -0.0130099 -0.00910966 1.05637)
(0.995679 -0.0185582 0.268653 0.000651128 0.958123 -0.130452 -0.0112305 -0.0112305 1.05637)
(0.997609 -0.0115958 0.287224 0.00761352 0.956193 -0.0818193 -0.00910974 -0.01301 1.05637)
(0.997041 -0.00439329 0.297068 0.014816 0.956761 -0.0307003 -0.00671215 -0.0143941 1.05637)
(0.994044 0.00218073 0.297886 0.02139 0.959758 0.0213515 -0.00411062 -0.015341 1.05637)
(0.988979 0.00733329 0.289653 0.0265426 0.964823 0.0727545 -0.00138422 -0.0158218 1.05637)
(0.982458 0.0104428 0.272619 0.0296521 0.971344 0.121947 0.00138428 -0.0158218 1.05637)
(0.975266 0.0111344 0.247301 0.0303436 0.978536 0.167434 0.00411069 -0.0153412 1.05637)
(0.968271 0.00932456 0.214469 0.0285337 0.98553 0.207834 0.0067121 -0.0143942 1.05637)
(0.962318 0.00523145 0.175121 0.0244407 0.991484 0.241918 0.00910966 -0.0130099 1.05637)
(0.958123 -0.000651127 0.130452 0.0185582 0.995679 0.268653 0.0112305 -0.0112305 1.05637)
(0.956193 -0.00761351 0.0818193 0.0115958 0.997609 0.287224 0.01301 -0.00910974 1.05637)
(0.956761 -0.014816 0.0307003 0.00439329 0.997041 0.297068 0.0143941 -0.00671215 1.05637)
(0.959758 -0.02139 -0.0213515 -0.00218073 0.994044 0.297886 0.015341 -0.00411062 1.05637)
(0.964823 -0.0265426 -0.0727545 -0.00733328 0.988979 0.289653 0.0158218 -0.00138422 1.05637)
(0.971344 -0.0296521 -0.121947 -0.0104428 0.982458 0.272619 0.0158218 0.00138428 1.05637)
(0.978536 -0.0303436 -0.167434 -0.0111344 0.975266 0.247301 0.0153412 0.00411069 1.05637)
(0.98553 -0.0285337 -0.207834 -0.00932456 0.968271 0.214469 0.0143942 0.0067121 1.05637)
(0.991484 -0.0244407 -0.241918 -0.00523145 0.962318 0.175121 0.0130099 0.00910966 1.05637)
(0.995679 -0.0185582 -0.268653 0.000651128 0.958123 0.130452 0.0112305 0.0112305 1.05637)
(0.997609 -0.0115958 -0.287224 0.00761352 0.956193 0.0818193 0.00910974 0.01301 1.05637)
(0.997041 -0.00439329 -0.297068 0.014816 0.956761 0.0307003 0.00671215 0.0143941 1.05637)
(0.994044 0.00218073 -0.297886 0.02139 0.959758 -0.0213515 0.00411062 0.015341 1.05637)
(0.988979 0.00733328 -0.289653 0.0265426 0.964823 -0.0727545 0.00138422 0.0158218 1.05637)
(0.982458 0.0104428 -0.272619 0.0296521 0.971344 -0.121947 -0.00138428 0.0158218 1.05637)
(0.975266 0.0111344 -0.247301 0.0303436 0.978536 -0.167434 -0.00411069 0.0153412 1.05637)
(0.968271 0.00932456 -0.214469 0.0285337 0.98553 -0.207834 -0.0067121 0.0143942 1.05637)
(0.962318 0.00523145 -0.175121 0.0244407 0.991484 -0.241918 -0.00910966 0.0130099 1.05637)
(0.958123 -0.00065113 -0.130452 0.0185582 0.995679 -0.268653 -0.0112305 0.0112305 1.05637)
(0.956193 -0.00761352 -0.0818193 0.0115958 0.997609 -0.287224 -0.01301 0.00910974 1.05637)
(0.956761 -0.014816 -0.0307003 0.00439329 0.997041 -0.297068 -0.0143941 0.00671215 1.05637)
(0.959758 -0.0213901 0.0213515 -0.00218073 0.994044 -0.297886 -0.015341 0.00411062 1.05637)
(0.964823 -0.0265426 0.0727545 -0.00733328 0.988979 -0.289653 -0.0158218 0.00138422 1.05637)
(0.975949 -0.0340575 0.123745 -0.0108138 0.984175 -0.270464 -0.0138188 -0.001209 1.04725)
(0.983871 -0.0341111 0.16883 -0.0108675 0.976254 -0.244867 -0.0133991 -0.00359029 1.04725)
(0.991333 -0.0314523 0.208786 -0.00820861 0.968791 -0.21183 -0.012572 -0.00586243 1.04725)
(0.997436 -0.0264016 0.242398 -0.00315782 0.962689 -0.172357 -0.011363 -0.00795644 1.04725)
(1.00144 -0.0195682 0.268645 0.00367558 0.958682 -0.127646 -0.00980878 -0.0098088 1.04725)
(1.00287 -0.0117763 0.286729 0.0114674 0.957253 -0.0790569 -0.00795648 -0.011363 1.04725)
(1.00155 -0.00396595 0.296101 0.0192779 0.958576 -0.0280659 -0.00586243 -0.012572 1.04725)
(0.997634 0.00292112 0.296476 0.0261649 0.96249 0.023778 -0.00359023 -0.0133989 1.04725)
(0.9916 0.00805406 0.287843 0.0312978 0.968524 0.0748993 -0.00120899 -0.0138188 1.04725)
(0.984175 0.0108138 0.270464 0.0340575 0.975949 0.123745 0.001209 -0.0138188 1.04725)
(0.976254 0.0108675 0.244867 0.0341111 0.983871 0.16883 0.00359029 -0.0133991 1.04725)
(0.968791 0.00820862 0.21183 0.0314523 0.991333 0.208786 0.00586243 -0.012572 1.04725)
(0.962689 0.00315782 0.172356 0.0264016 0.997436 0.242398 0.00795644 -0.011363 1.04725)
(0.958682 -0.00367558 0.127646 0.0195682 1.00144 0.268645 0.0098088 -0.00980878 1.04725)
(0.957253 -0.0114674 0.0790569 0.0117763 1.00287 0.286729 0.011363 -0.00795648 1.04725)
(0.958576 -0.0192779 0.0280659 0.00396595 1.00155 0.296101 0.012572 -0.00586243 1.04725)
(0.96249 -0.0261649 -0.023778 -0.00292112 0.997634 0.296476 0.0133989 -0.00359023 1.04725)
(0.968524 -0.0312978 -0.0748993 -0.00805406 0.9916 0.287843 0.0138188 -0.00120899 1.04725)
(0.975949 -0.0340575 -0.123745 -0.0108138 0.984175 0.270464 0.0138188 0.001209 1.04725)
(0.983871 -0.0341111 -0.16883 -0.0108675 0.976254 0.244867 0.0133991 0.00359029 1.04725)
(0.991333 -0.0314523 -0.208786 -0.00820862 0.968791 0.21183 0.012572 0.00586243 1.04725)
(0.997436 -0.0264016 -0.242398 -0.00315782 0.962689 0.172357 0.011363 0.00795644 1.04725)
(1.00144 -0.0195682 -0.268645 0.00367558 0.958682 0.127646 0.00980878 0.0098088 1.04725)
(1.00287 -0.0117763 -0.286729 0.0114674 0.957253 0.0790569 0.00795648 0.011363 1.04725)
(1.00155 -0.00396595 -0.296101 0.0192779 0.958576 0.0280659 0.00586243 0.012572 1.04725)
(0.997634 0.00292112 -0.296476 0.0261649 0.96249 -0.023778 0.00359023 0.0133989 1.04725)
(0.9916 0.00805406 -0.287843 0.0312978 0.968524 -0.0748993 0.00120899 0.0138188 1.04725)
(0.984175 0.0108138 -0.270464 0.0340575 0.975949 -0.123745 -0.001209 0.0138188 1.04725)
(0.976254 0.0108675 -0.244867 0.0341111 0.983871 -0.16883 -0.00359029 0.0133991 1.04725)
(0.968791 0.00820861 -0.21183 0.0314523 0.991333 -0.208786 -0.00586243 0.012572 1.04725)
(0.962689 0.00315782 -0.172357 0.0264016 0.997436 -0.242398 -0.00795644 0.011363 1.04725)
(0.958682 -0.00367558 -0.127646 0.0195682 1.00144 -0.268645 -0.0098088 0.00980878 1.04725)
(0.957253 -0.0114674 -0.0790569 0.0117763 1.00287 -0.286729 -0.011363 0.00795648 1.04725)
(0.958576 -0.0192779 -0.0280659 0.00396595 1.00155 -0.296101 -0.012572 0.00586242 1.04725)
(0.96249 -0.0261649 0.023778 -0.00292112 0.997634 -0.296476 -0.0133989 0.00359023 1.04725)
(0.968524 -0.0312978 0.0748993 -0.00805406 0.9916 -0.287843 -0.0138188 0.00120899 1.04725)
(0.981123 -0.0396897 0.126909 -0.0106444 0.985214 -0.267518 -0.0115194 -0.00100778 1.03673)
(0.989854 -0.0388714 0.171435 -0.00982612 0.976483 -0.241417 -0.0111694 -0.00299284 1.03673)
(0.997779 -0.0351164 0.210752 -0.00607109 0.968558 -0.20798 -0.01048 -0.00488693 1.03673)
(1.00394 -0.0288774 0.243665 0.000167964 0.962396 -0.168223 -0.00947218 -0.00663247 1.03673)
(1.0076 -0.0209071 0.269175 0.00813835 0.958739 -0.123356 -0.00817658 -0.00817659 1.03673)
(1.00831 -0.0121666 0.286506 0.0168789 0.958028 -0.0747398 -0.00663249 -0.0094722 1.03673)
(1.00599 -0.00371041 0.295132 0.0253351 0.96035 -0.023853 -0.00488688 -0.01048 1.03673)
(1.00091 0.00344178 0.29479 0.0324872 0.965425 0.0277584 -0.00299279 -0.0111693 1.03673)
(0.993698 0.00842712 0.285491 0.0374726 0.972639 0.0785265 -0.00100783 -0.0115193 1.03673)
(0.985214 0.0106444 0.267518 0.0396897 0.981123 0.126909 0.00100778 -0.0115194 1.03673)
(0.976483 0.00982612 0.241417 0.0388714 0.989854 0.171435 0.00299284 -0.0111694 1.03673)
(0.968558 0.00607109 0.20798 0.0351164 0.997779 0.210752 0.00488693 -0.01048 1.03673)
(0.962396 -0.000167963 0.168223 0.0288774 1.00394 0.243665 0.00663247 -0.00947218 1.03673)
(0.958739 -0.00813835 0.123356 0.0209071 1.0076 0.269175 0.00817658 -0.00817658 1.03673)
(0.958028 -0.0168789 0.0747398 0.0121666 1.00831 0.286506 0.0094722 -0.00663249 1.03673)
(0.96035 -0.0253351 0.023853 0.00371041 1.00599 0.295132 0.01048 -0.00488688 1.03673)
(0.965425 -0.0324872 -0.0277584 -0.00344178 1.00091 0.29479 0.0111693 -0.00299279 1.03673)
(0.972639 -0.0374726 -0.0785265 -0.00842712 0.993698 0.285491 0.0115193 -0.00100783 1.03673)
(0.981123 -0.0396897 -0.126909 -0.0106444 0.985214 0.267518 0.0115194 0.00100778 1.03673)
(0.989854 -0.0388714 -0.171435 -0.00982612 0.976483 0.241417 0.0111694 0.00299284 1.03673)
(0.997779 -0.0351164 -0.210752 -0.00607109 0.968558 0.20798 0.01048 0.00488693 1.03673)
(1.00394 -0.0288774 -0.243665 0.000167963 0.962396 0.168223 0.00947218 0.00663247 1.03673)
(1.0076 -0.0209071 -0.269175 0.00813835 0.958739 0.123356 0.00817658 0.00817658 1.03673)
(1.00831 -0.0121666 -0.286506 0.0168789 0.958028 0.0747398 0.00663249 0.0094722 1.03673)
(1.00599 -0.00371041 -0.295132 0.0253351 0.96035 0.023853 0.00488688 0.01048 1.03673)
(1.00091 0.00344178 -0.29479 0.0324872 0.965425 -0.0277584 0.00299279 0.0111693 1.03673)
(0.993698 0.00842712 -0.285491 0.0374726 0.972639 -0.0785265 0.00100783 0.0115193 1.03673)
(0.985214 0.0106444 -0.267518 0.0396897 0.981123 -0.126909 -0.00100778 0.0115194 1.03673)
(0.976483 0.00982612 -0.241417 0.0388714 0.989854 -0.171435 -0.00299284 0.0111694 1.03673)
(0.968558 0.00607109 -0.20798 0.0351164 0.997779 -0.210752 -0.00488693 0.01048 1.03673)
(0.962396 -0.000167966 -0.168223 0.0288774 1.00394 -0.243665 -0.00663247 0.00947218 1.03673)
(0.958739 -0.00813835 -0.123356 0.0209071 1.0076 -0.269175 -0.00817658 0.00817658 1.03673)
(0.958028 -0.0168789 -0.0747398 0.0121666 1.00831 -0.286506 -0.0094722 0.00663249 1.03673)
(0.96035 -0.0253351 -0.023853 0.00371041 1.00599 -0.295132 -0.01048 0.00488688 1.03673)
(0.965425 -0.0324872 0.0277584 -0.00344178 1.00091 -0.29479 -0.0111693 0.00299279 1.03673)
(0.972639 -0.0374726 0.0785265 -0.00842712 0.993698 -0.285491 -0.0115193 0.00100783 1.03673)
(0.978818 -0.0847876 0.12266 -0.0034785 0.957603 -0.269765 -0.0332421 -0.00290838 1.06654)
(0.993272 -0.0784982 0.167641 0.00281089 0.943148 -0.244367 -0.0322321 -0.00863663 1.06654)
(1.0047 -0.0676443 0.207528 0.0136647 0.931717 -0.211544 -0.0302428 -0.0141023 1.06654)
(1.01173 -0.053535 0.241109 0.0277741 0.924686 -0.172293 -0.0273343 -0.0191396 1.06654)
(1.01351 -0.0378721 0.267365 0.0434371 0.922906 -0.127808 -0.0235954 -0.0235954 1.06654)
(1.00983 -0.0225448 0.285496 0.0587645 0.92659 -0.0794385 -0.0191397 -0.0273343 1.06654)
(1.00113 -0.00940194 0.294953 0.0719074 0.935294 -0.0286557 -0.0141023 -0.0302425 1.06654)
(0.988453 -2.84593e-05 0.295448 0.0812808 0.947968 0.0229978 -0.00863649 -0.0322319 1.06654)
(0.973337 0.00444493 0.286966 0.0857541 0.963084 0.0739525 -0.00290826 -0.033242 1.06654)
(0.957603 0.00347851 0.269765 0.0847876 0.978818 0.12266 0.00290837 -0.0332421 1.06654)
(0.943148 -0.00281088 0.244367 0.0784982 0.993272 0.167641 0.00863663 -0.0322321 1.06654)
(0.931717 -0.0136647 0.211544 0.0676443 1.0047 0.207528 0.0141023 -0.0302428 1.06654)
(0.924686 -0.0277741 0.172293 0.053535 1.01173 0.241109 0.0191396 -0.0273343 1.06654)
(0.922906 -0.0434371 0.127808 0.0378721 1.01351 0.267365 0.0235954 -0.0235954 1.06654)
(0.92659 -0.0587645 0.0794385 0.0225448 1.00983 0.285496 0.0273343 -0.0191397 1.06654)
(0.935294 -0.0719074 0.0286557 0.00940194 1.00113 0.294953 0.0302425 -0.0141023 1.06654)
(0.947968 -0.0812808 -0.0229978 2.84609e-05 0.988453 0.295448 0.0322319 -0.00863649 1.06654)
(0.963084 -0.0857541 -0.0739525 -0.00444493 0.973337 0.286966 0.033242 -0.00290826 1.06654)
(0.978818 -0.0847876 -0.12266 -0.0034785 0.957603 0.269765 0.0332421 0.00290837 1.06654)
(0.993272 -0.0784982 -0.167641 0.00281088 0.943148 0.244367 0.0322321 0.00863663 1.06654)
(1.0047 -0.0676443 -0.207528 0.0136647 0.931717 0.211544 0.0302428 0.0141023 1.06654)
(1.01173 -0.053535 -0.241109 0.0277741 0.924686 0.172293 0.0273343 0.0191395 1.06654)
(1.01351 -0.0378721 -0.267365 0.0434371 0.922906 0.127808 0.0235954 0.0235954 1.06654)
(1.00983 -0.0225448 -0.285496 0.0587645 0.92659 0.0794385 0.0191397 0.0273343 1.06654)
(1.00113 -0.00940194 -0.294953 0.0719074 0.935294 0.0286557 0.0141023 0.0302425 1.06654)
(0.988453 -2.84596e-05 -0.295448 0.0812808 0.947968 -0.0229978 0.00863649 0.0322319 1.06654)
(0.973337 0.00444493 -0.286966 0.0857541 0.963084 -0.0739525 0.00290826 0.033242 1.06654)
(0.957603 0.0034785 -0.269765 0.0847876 0.978818 -0.12266 -0.00290837 0.0332421 1.06654)
(0.943148 -0.00281088 -0.244367 0.0784982 0.993272 -0.167641 -0.00863663 0.0322321 1.06654)
(0.931717 -0.0136647 -0.211544 0.0676443 1.0047 -0.207528 -0.0141023 0.0302428 1.06654)
(0.924686 -0.0277741 -0.172293 0.053535 1.01173 -0.241109 -0.0191395 0.0273343 1.06654)
(0.922906 -0.0434371 -0.127808 0.0378721 1.01351 -0.267365 -0.0235954 0.0235954 1.06654)
(0.92659 -0.0587645 -0.0794385 0.0225448 1.00983 -0.285496 -0.0273343 0.0191397 1.06654)
(0.935294 -0.0719074 -0.0286557 0.00940194 1.00113 -0.294953 -0.0302425 0.0141023 1.06654)
(0.947968 -0.0812808 0.0229978 2.84647e-05 0.988453 -0.295448 -0.0322319 0.00863648 1.06654)
(0.963084 -0.0857541 0.0739525 -0.00444493 0.973337 -0.286966 -0.033242 0.00290826 1.06654)
(0.985236 -0.0949198 0.124084 -0.00308549 0.956069 -0.267909 -0.0327861 -0.00286844 1.05834)
(1.00112 -0.0869767 0.168721 0.00485762 0.940188 -0.242292 -0.0317901 -0.00851814 1.05834)
(1.01332 -0.0740811 0.208231 0.0177531 0.927982 -0.209313 -0.0298279 -0.013909 1.05834)
(1.02038 -0.0577887 0.241414 0.0340457 0.920923 -0.169974 -0.0269594 -0.0188771 1.05834)
(1.02144 -0.0400643 0.267262 0.0517703 0.919862 -0.125471 -0.0232718 -0.0232717 1.05834)
(1.01638 -0.0230458 0.28499 0.0687888 0.924927 -0.0771548 -0.0188771 -0.0269594 1.05834)
(1.0058 -0.00878603 0.294058 0.0830485 0.935507 -0.0264947 -0.0139089 -0.0298277 1.05834)
(0.990979 0.000995278 0.294191 0.0928298 0.950326 0.0249706 -0.00851805 -0.0317898 1.05834)
(0.973708 0.00511824 0.285386 0.0969526 0.967597 0.075677 -0.00286841 -0.0327861 1.05834)
(0.956069 0.00308549 0.267909 0.0949198 0.985236 0.124084 0.00286844 -0.0327861 1.05834)
(0.940188 -0.00485762 0.242292 0.0869767 1.00112 0.168721 0.00851814 -0.0317901 1.05834)
(0.927982 -0.0177531 0.209313 0.0740811 1.01332 0.208231 0.013909 -0.0298279 1.05834)
(0.920923 -0.0340457 0.169974 0.0577887 1.02038 0.241414 0.0188771 -0.0269594 1.05834)
(0.919862 -0.0517703 0.125471 0.0400643 1.02144 0.267262 0.0232717 -0.0232718 1.05834)
(0.924927 -0.0687888 0.0771548 0.0230458 1.01638 0.28499 0.0269594 -0.0188771 1.05834)
(0.935507 -0.0830485 0.0264947 0.00878603 1.0058 0.294058 0.0298277 -0.0139089 1.05834)
(0.950326 -0.0928298 -0.0249706 -0.000995276 0.990979 0.294191 0.0317898 -0.00851805 1.05834)
(0.967597 -0.0969526 -0.075677 -0.00511824 0.973708 0.285386 0.0327861 -0.00286841 1.05834)
(0.985236 -0.0949198 -0.124084 -0.00308549 0.956069 0.267909 0.0327861 0.00286844 1.05834)
(1.00112 -0.0869767 -0.168721 0.00485762 0.940188 0.242292 0.0317901 0.00851814 1.05834)
(1.01332 -0.0740811 -0.208231 0.0177531 0.927982 0.209313 0.0298279 0.013909 1.05834)
(1.02038 -0.0577887 -0.241414 0.0340457 0.920923 0.169974 0.0269594 0.0188771 1.05834)
(1.02144 -0.0400643 -0.267262 0.0517703 0.919862 0.125471 0.0232718 0.0232717 1.05834)
(1.01638 -0.0230458 -0.28499 0.0687888 0.924927 0.0771548 0.0188771 0.0269594 1.05834)
(1.0058 -0.00878603 -0.294058 0.0830485 0.935507 0.0264947 0.0139089 0.0298277 1.05834)
(0.990979 0.000995277 -0.294191 0.0928298 0.950326 -0.0249706 0.00851805 0.0317898 1.05834)
(0.973708 0.00511824 -0.285386 0.0969526 0.967597 -0.075677 0.00286841 0.0327861 1.05834)
(0.956069 0.00308549 -0.267909 0.0949198 0.985236 -0.124084 -0.00286844 0.0327861 1.05834)
(0.940188 -0.00485762 -0.242292 0.0869767 1.00112 -0.168721 -0.00851814 0.0317901 1.05834)
(0.927982 -0.0177531 -0.209313 0.0740811 1.01332 -0.208231 -0.013909 0.0298279 1.05834)
(0.920923 -0.0340457 -0.169974 0.0577887 1.02038 -0.241414 -0.0188771 0.0269594 1.05834)
(0.919862 -0.0517703 -0.125471 0.0400643 1.02144 -0.267262 -0.0232717 0.0232718 1.05834)
(0.924927 -0.0687888 -0.0771548 0.0230458 1.01638 -0.28499 -0.0269594 0.0188771 1.05834)
(0.935507 -0.0830485 -0.0264947 0.00878603 1.0058 -0.294058 -0.0298277 0.0139089 1.05834)
(0.950326 -0.0928298 0.0249706 -0.000995274 0.990979 -0.294191 -0.0317898 0.00851804 1.05834)
(0.967597 -0.0969526 0.075677 -0.00511824 0.973708 -0.285386 -0.0327861 0.0028684 1.05834)
(0.992083 -0.107507 0.126408 -0.001339 0.952768 -0.265228 -0.0316499 -0.00276897 1.04943)
(1.00951 -0.0975018 0.170544 0.00866634 0.935339 -0.239249 -0.0306884 -0.00822291 1.04943)
(1.02247 -0.082139 0.209498 0.0240292 0.922384 -0.205999 -0.0287942 -0.013427 1.04943)
(1.02939 -0.0632717 0.242086 0.0428965 0.915465 -0.166491 -0.0260251 -0.018223 1.04943)
(1.02944 -0.0431757 0.267319 0.0629926 0.915416 -0.121924 -0.0224653 -0.0224653 1.04943)
(1.02261 -0.0242748 0.28443 0.0818937 0.922243 -0.0736518 -0.0182229 -0.0260251 1.04943)
(1.00973 -0.00884867 0.292898 0.0973197 0.935122 -0.0231421 -0.0134269 -0.0287941 1.04943)
(0.992349 0.00124204 0.292467 0.10741 0.952501 0.0280708 -0.00822287 -0.0306882 1.04943)
(0.972567 0.00478016 0.283149 0.110949 0.972284 0.0784307 -0.00276903 -0.0316499 1.04943)
(0.952768 0.00133901 0.265228 0.107507 0.992083 0.126408 0.00276897 -0.0316499 1.04943)
(0.935339 -0.00866634 0.239249 0.0975018 1.00951 0.170544 0.00822291 -0.0306884 1.04943)
(0.922384 -0.0240292 0.205999 0.082139 1.02247 0.209498 0.013427 -0.0287942 1.04943)
(0.915465 -0.0428965 0.166491 0.0632717 1.02939 0.242086 0.018223 -0.0260251 1.04943)
(0.915416 -0.0629926 0.121924 0.0431757 1.02944 0.267319 0.0224653 -0.0224653 1.04943)
(0.922243 -0.0818937 0.0736518 0.0242748 1.02261 0.28443 0.0260251 -0.0182229 1.04943)
(0.935122 -0.0973197 0.0231421 0.00884867 1.00973 0.292898 0.0287941 -0.0134269 1.04943)
(0.952501 -0.10741 -0.0280708 -0.00124204 0.992349 0.292467 0.0306882 -0.00822287 1.04943)
(0.972284 -0.110949 -0.0784307 -0.00478016 0.972567 0.283149 0.0316499 -0.00276903 1.04943)
(0.992083 -0.107507 -0.126408 -0.00133901 0.952768 0.265228 0.0316499 0.00276897 1.04943)
(1.00951 -0.0975018 -0.170544 0.00866634 0.935339 0.239249 0.0306884 0.00822291 1.04943)
(1.02247 -0.082139 -0.209498 0.0240292 0.922384 0.205999 0.0287942 0.013427 1.04943)
(1.02939 -0.0632717 -0.242086 0.0428965 0.915465 0.166491 0.0260251 0.018223 1.04943)
(1.02944 -0.0431757 -0.267319 0.0629926 0.915416 0.121924 0.0224653 0.0224653 1.04943)
(1.02261 -0.0242748 -0.28443 0.0818937 0.922243 0.0736518 0.0182229 0.0260251 1.04943)
(1.00973 -0.00884867 -0.292898 0.0973197 0.935122 0.0231421 0.0134269 0.0287941 1.04943)
(0.992349 0.00124204 -0.292467 0.10741 0.952501 -0.0280708 0.00822288 0.0306882 1.04943)
(0.972567 0.00478016 -0.283149 0.110949 0.972284 -0.0784307 0.00276903 0.0316499 1.04943)
(0.952768 0.00133901 -0.265228 0.107507 0.992083 -0.126408 -0.00276897 0.0316499 1.04943)
(0.935339 -0.00866634 -0.239249 0.0975018 1.00951 -0.170544 -0.00822291 0.0306884 1.04943)
(0.922384 -0.0240292 -0.205999 0.082139 1.02247 -0.209498 -0.013427 0.0287942 1.04943)
(0.915465 -0.0428965 -0.166491 0.0632717 1.02939 -0.242086 -0.018223 0.0260251 1.04943)
(0.915416 -0.0629926 -0.121924 0.0431757 1.02944 -0.267319 -0.0224653 0.0224653 1.04943)
(0.922243 -0.0818937 -0.0736518 0.0242748 1.02261 -0.28443 -0.0260251 0.0182229 1.04943)
(0.935122 -0.0973197 -0.0231421 0.00884867 1.00973 -0.292898 -0.0287941 0.0134269 1.04943)
(0.952501 -0.10741 0.0280708 -0.00124204 0.992349 -0.292467 -0.0306882 0.00822287 1.04943)
(0.972284 -0.110949 0.0784307 -0.00478016 0.972567 -0.283149 -0.0316499 0.00276903 1.04943)
(0.984852 -0.13866 0.122424 0.00224083 0.932881 -0.262969 -0.0468356 -0.00409765 1.08753)
(1.00661 -0.125658 0.166228 0.015242 0.911119 -0.237715 -0.0454126 -0.0121683 1.08753)
(1.02262 -0.105998 0.204982 0.0349021 0.895116 -0.205239 -0.0426097 -0.0198691 1.08753)
(1.03093 -0.0820506 0.237507 0.0588498 0.886802 -0.166526 -0.038512 -0.0269663 1.08753)
(1.03055 -0.0567037 0.262816 0.0841968 0.887181 -0.122753 -0.0332442 -0.0332441 1.08753)
(1.02153 -0.0330148 0.280139 0.107886 0.896206 -0.0752509 -0.0269663 -0.0385118 1.08753)
(1.00494 -0.0138412 0.28895 0.127059 0.912788 -0.0254621 -0.0198691 -0.0426094 1.08753)
(0.982804 -0.0014955 0.288982 0.139405 0.934929 0.0251004 -0.0121681 -0.0454123 1.08753)
(0.957777 0.00253334 0.280233 0.143434 0.959956 0.0749002 -0.00409745 -0.0468356 1.08753)
(0.932881 -0.00224083 0.262969 0.13866 0.984852 0.122424 0.00409765 -0.0468356 1.08753)
(0.911119 -0.015242 0.237715 0.125658 1.00661 0.166228 0.0121683 -0.0454126 1.08753)
(0.895116 -0.0349021 0.205239 0.105998 1.02262 0.204982 0.0198691 -0.0426097 1.08753)
(0.886802 -0.0588498 0.166526 0.0820506 1.03093 0.237507 0.0269663 -0.038512 1.08753)
(0.887181 -0.0841968 0.122753 0.0567037 1.03055 0.262816 0.0332441 -0.0332442 1.08753)
(0.896206 -0.107886 0.0752509 0.0330148 1.02153 0.280139 0.0385118 -0.0269663 1.08753)
(0.912788 -0.127059 0.0254621 0.0138412 1.00494 0.28895 0.0426094 -0.0198691 1.08753)
(0.934929 -0.139405 -0.0251004 0.0014955 0.982804 0.288982 0.0454123 -0.0121681 1.08753)
(0.959956 -0.143434 -0.0749002 -0.00253334 0.957777 0.280233 0.0468356 -0.00409745 1.08753)
(0.984852 -0.13866 -0.122424 0.00224083 0.932881 0.262969 0.0468356 0.00409764 1.08753)
(1.00661 -0.125658 -0.166228 0.015242 0.911119 0.237715 0.0454126 0.0121683 1.08753)
(1.02262 -0.105998 -0.204982 0.0349021 0.895116 0.205239 0.0426097 0.0198691 1.08753)
(1.03093 -0.0820506 -0.237507 0.0588498 0.886802 0.166526 0.038512 0.0269663 1.08753)
(1.03055 -0.0567037 -0.262816 0.0841968 0.887181 0.122753 0.0332442 0.0332441 1.08753)
(1.02153 -0.0330148 -0.280139 0.107886 0.896206 0.0752509 0.0269663 0.0385118 1.08753)
(1.00494 -0.0138412 -0.28895 0.127059 0.912788 0.0254621 0.0198691 0.0426094 1.08753)
(0.982804 -0.0014955 -0.288982 0.139405 0.934929 -0.0251004 0.0121681 0.0454123 1.08753)
(0.957777 0.00253334 -0.280233 0.143434 0.959956 -0.0749002 0.00409745 0.0468356 1.08753)
(0.932881 -0.00224083 -0.262969 0.13866 0.984852 -0.122424 -0.00409764 0.0468356 1.08753)
(0.911119 -0.015242 -0.237715 0.125658 1.00661 -0.166228 -0.0121683 0.0454126 1.08753)
(0.895116 -0.0349021 -0.205239 0.105998 1.02262 -0.204982 -0.0198691 0.0426097 1.08753)
(0.886802 -0.0588498 -0.166526 0.0820506 1.03093 -0.237507 -0.0269663 0.038512 1.08753)
(0.887181 -0.0841968 -0.122753 0.0567037 1.03055 -0.262816 -0.0332441 0.0332442 1.08753)
(0.896206 -0.107886 -0.0752509 0.0330148 1.02153 -0.280139 -0.0385118 0.0269663 1.08753)
(0.912788 -0.127059 -0.0254621 0.0138412 1.00494 -0.28895 -0.0426094 0.0198691 1.08753)
(0.934929 -0.139405 0.0251004 0.00149551 0.982804 -0.288982 -0.0454123 0.0121681 1.08753)
(0.959956 -0.143434 0.0749002 -0.00253333 0.957777 -0.280233 -0.0468356 0.00409745 1.08753)
(0.992224 -0.154059 0.123621 0.00339021 0.928562 -0.26092 -0.0464707 -0.0040657 1.08119)
(1.01607 -0.138629 0.167051 0.0188202 0.904716 -0.235489 -0.0450587 -0.0120735 1.08119)
(1.0332 -0.115973 0.205406 0.0414755 0.887585 -0.202904 -0.0422776 -0.0197144 1.08119)
(1.04155 -0.0888254 0.237519 0.0686236 0.879236 -0.164153 -0.0382119 -0.0267562 1.08119)
(1.04011 -0.0604589 0.262415 0.0969902 0.880676 -0.120414 -0.0329851 -0.0329851 1.08119)
(1.02906 -0.0342956 0.279338 0.123154 0.891731 -0.0730167 -0.0267562 -0.0382117 1.08119)
(1.00972 -0.0134911 0.287774 0.143958 0.911067 -0.0234009 -0.0197143 -0.0422774 1.08119)
(0.984433 -0.00055463 0.287465 0.156895 0.936353 0.026926 -0.0120733 -0.0450585 1.08119)
(0.956248 0.0029534 0.278422 0.160403 0.964539 0.0764348 -0.00406561 -0.0464706 1.08119)
(0.928562 -0.0033902 0.26092 0.154059 0.992224 0.123621 0.00406569 -0.0464707 1.08119)
(0.904716 -0.0188202 0.235489 0.138629 1.01607 0.167051 0.0120735 -0.0450587 1.08119)
(0.887585 -0.0414755 0.202904 0.115973 1.0332 0.205406 0.0197144 -0.0422776 1.08119)
(0.879236 -0.0686236 0.164153 0.0888254 1.04155 0.237519 0.0267562 -0.0382119 1.08119)
(0.880676 -0.0969902 0.120414 0.0604589 1.04011 0.262415 0.0329851 -0.0329851 1.08119)
(0.891731 -0.123154 0.0730167 0.0342956 1.02906 0.279338 0.0382117 -0.0267562 1.08119)
(0.911067 -0.143958 0.0234009 0.0134911 1.00972 0.287774 0.0422774 -0.0197143 1.08119)
(0.936353 -0.156895 -0.026926 0.000554631 0.984433 0.287465 0.0450585 -0.0120733 1.08119)
(0.964539 -0.160403 -0.0764348 -0.0029534 0.956248 0.278423 0.0464706 -0.00406562 1.08119)
(0.992224 -0.154059 -0.123621 0.0033902 0.928562 0.26092 0.0464707 0.00406569 1.08119)
(1.01607 -0.138629 -0.167051 0.0188202 0.904716 0.235489 0.0450587 0.0120735 1.08119)
(1.0332 -0.115973 -0.205406 0.0414755 0.887585 0.202904 0.0422776 0.0197144 1.08119)
(1.04155 -0.0888254 -0.237519 0.0686236 0.879236 0.164153 0.0382119 0.0267562 1.08119)
(1.04011 -0.0604589 -0.262415 0.0969902 0.880676 0.120414 0.0329851 0.0329851 1.08119)
(1.02906 -0.0342956 -0.279338 0.123154 0.891731 0.0730167 0.0267562 0.0382117 1.08119)
(1.00972 -0.0134911 -0.287774 0.143958 0.911067 0.0234009 0.0197143 0.0422774 1.08119)
(0.984433 -0.00055463 -0.287465 0.156895 0.936353 -0.026926 0.0120733 0.0450585 1.08119)
(0.956248 0.0029534 -0.278423 0.160403 0.964539 -0.0764348 0.00406562 0.0464706 1.08119)
(0.928562 -0.0033902 -0.26092 0.154059 0.992224 -0.123621 -0.00406569 0.0464707 1.08119)
(0.904716 -0.0188202 -0.235489 0.138629 1.01607 -0.167051 -0.0120735 0.0450587 1.08119)
(0.887585 -0.0414755 -0.202904 0.115973 1.0332 -0.205406 -0.0197144 0.0422776 1.08119)
(0.879236 -0.0686236 -0.164153 0.0888254 1.04155 -0.237519 -0.0267562 0.0382119 1.08119)
(0.880676 -0.0969902 -0.120414 0.0604589 1.04011 -0.262415 -0.0329851 0.0329851 1.08119)
(0.891731 -0.123154 -0.0730167 0.0342956 1.02906 -0.279338 -0.0382117 0.0267562 1.08119)
(0.911067 -0.143958 -0.0234009 0.0134911 1.00972 -0.287774 -0.0422774 0.0197143 1.08119)
(0.936353 -0.156895 0.026926 0.000554635 0.984433 -0.287465 -0.0450585 0.0120733 1.08119)
(0.964539 -0.160403 0.0764348 -0.00295339 0.956248 -0.278423 -0.0464706 0.00406561 1.08119)
(0.999855 -0.172997 0.12531 0.00669059 0.921771 -0.257956 -0.0453316 -0.00396598 1.07487)
(1.02594 -0.154629 0.1682 0.0250585 0.895685 -0.232277 -0.0439543 -0.0117775 1.07487)
(1.04417 -0.128447 0.205979 0.0512406 0.877455 -0.199541 -0.0412413 -0.0192312 1.07487)
(1.05235 -0.0976092 0.2375 0.0820788 0.869279 -0.160741 -0.0372752 -0.0261004 1.07487)
(1.04948 -0.0658343 0.261804 0.113854 0.872143 -0.117058 -0.0321766 -0.0321766 1.07487)
(1.03592 -0.0369554 0.278154 0.142733 0.885702 -0.0698178 -0.0261003 -0.0372751 1.07487)
(1.0133 -0.0144558 0.286052 0.165232 0.908321 -0.0204561 -0.019231 -0.0412411 1.07487)
(0.984355 -0.00104896 0.285258 0.178639 0.937271 0.029527 -0.0117775 -0.043954 1.07487)
(0.952565 0.00164789 0.275797 0.181336 0.96906 0.078613 -0.00396602 -0.0453315 1.07487)
(0.921771 -0.00669059 0.257956 0.172997 0.999855 0.12531 0.00396598 -0.0453316 1.07487)
(0.895685 -0.0250585 0.232277 0.154629 1.02594 0.1682 0.0117775 -0.0439543 1.07487)
(0.877455 -0.0512406 0.199541 0.128447 1.04417 0.205979 0.0192312 -0.0412413 1.07487)
(0.869279 -0.0820788 0.160741 0.0976092 1.05235 0.2375 0.0261004 -0.0372752 1.07487)
(0.872143 -0.113854 0.117058 0.0658343 1.04948 0.261804 0.0321766 -0.0321766 1.07487)
(0.885702 -0.142733 0.0698178 0.0369554 1.03592 0.278154 0.0372751 -0.0261003 1.07487)
(0.908321 -0.165232 0.0204561 0.0144558 1.0133 0.286052 0.0412411 -0.019231 1.07487)
(0.937271 -0.178639 -0.029527 0.00104896 0.984355 0.285258 0.043954 -0.0117775 1.07487)
(0.96906 -0.181336 -0.078613 -0.00164789 0.952565 0.275797 0.0453315 -0.00396602 1.07487)
(0.999855 -0.172997 -0.12531 0.00669059 0.921771 0.257956 0.0453316 0.00396597 1.07487)
(1.02594 -0.154629 -0.1682 0.0250585 0.895685 0.232277 0.0439543 0.0117775 1.07487)
(1.04417 -0.128447 -0.205979 0.0512406 0.877455 0.199541 0.0412413 0.0192312 1.07487)
(1.05235 -0.0976092 -0.2375 0.0820788 0.869279 0.160741 0.0372752 0.0261004 1.07487)
(1.04948 -0.0658343 -0.261804 0.113854 0.872143 0.117058 0.0321766 0.0321766 1.07487)
(1.03592 -0.0369554 -0.278154 0.142733 0.885702 0.0698178 0.0261003 0.0372751 1.07487)
(1.0133 -0.0144558 -0.286052 0.165232 0.908321 0.0204561 0.019231 0.0412411 1.07487)
(0.984355 -0.00104896 -0.285258 0.178639 0.937271 -0.029527 0.0117775 0.043954 1.07487)
(0.952565 0.00164789 -0.275797 0.181336 0.96906 -0.078613 0.00396602 0.0453315 1.07487)
(0.921771 -0.00669059 -0.257956 0.172997 0.999855 -0.12531 -0.00396597 0.0453316 1.07487)
(0.895685 -0.0250585 -0.232277 0.154629 1.02594 -0.1682 -0.0117775 0.0439543 1.07487)
(0.877455 -0.0512406 -0.199541 0.128447 1.04417 -0.205979 -0.0192312 0.0412413 1.07487)
(0.869279 -0.0820788 -0.160741 0.0976092 1.05235 -0.2375 -0.0261004 0.0372752 1.07487)
(0.872143 -0.113854 -0.117058 0.0658343 1.04948 -0.261804 -0.0321766 0.0321766 1.07487)
(0.885702 -0.142733 -0.0698178 0.0369554 1.03592 -0.278154 -0.0372751 0.0261003 1.07487)
(0.908321 -0.165232 -0.0204561 0.0144558 1.0133 -0.286052 -0.0412411 0.019231 1.07487)
(0.937271 -0.178639 0.029527 0.00104896 0.984355 -0.285258 -0.043954 0.0117775 1.07487)
(0.96906 -0.181336 0.078613 -0.00164789 0.952565 -0.275797 -0.0453315 0.00396602 1.07487)
(0.992189 -0.191773 0.120913 0.0102209 0.908415 -0.252727 -0.0562932 -0.00492515 1.10677)
(1.02071 -0.171972 0.162962 0.0300216 0.879894 -0.227891 -0.0545829 -0.0146255 1.10677)
(1.04074 -0.143611 0.200059 0.058383 0.859865 -0.196131 -0.0512139 -0.0238814 1.10677)