/*--------------------------------*- C++ -*----------------------------------*\
| =========                 |                                                 |
| \\      /  F ield         | OpenFOAM: The Open Source CFD Toolbox           |
|  \\    /   O peration     | Version:  2312                                  |
|   \\  /    A nd           | Website:  www.openfoam.com                      |
|    \\/     M anipulation  |                                                 |
\*---------------------------------------------------------------------------*/
FoamFile
{
    version     2.0;
    format      ascii;
    arch        "LSB;label=32;scalar=64";
    class       pointVectorField;
    location    "0.2";
    object      pointD;
}
// * * * * * * * * * * * * * * * * * * * * * * * * * * * * * * * * * * * * * //

dimensions      [0 1 0 0 0 0 0];

internalField   nonuniform List<vector> 
2164
(
(0 0 0)
(0 0 0)
(0 0 0)
(0 0 0)
(0 0 0)
(0 0 0)
(0 0 0)
(0 0 0)
(0 0 0)
(0 0 0)
(0 0 0)
(0 0 0)
(0 0 0)
(0 0 0)
(0 0 0)
(0 0 0)
(0 0 0)
(0 0 0)
(0 0 0)
(0 0 0)
(0 0 0)
(0 0 0)
(0 0 0)
(0 0 0)
(0 0 0)
(0 0 0)
(0 0 0)
(0 0 0)
(0 0 0)
(0 0 0)
(0 0 0)
(0 0 0)
(0 0 0)
(0 0 0)
(0 0 0)
(0 0 0)
(-0.000332757 0.000483563 -0.000116527)
(-0.000411671 0.000418434 -0.000116527)
(-0.000478077 0.000340591 -0.000116527)
(-0.000529958 0.0002524 -0.000116527)
(-0.000565735 0.000156539 -0.000116527)
(-0.000584323 5.59224e-05 -0.000116527)
(-0.000585157 -4.63939e-05 -0.000116527)
(-0.00056821 -0.0001473 -0.000116527)
(-0.000533999 -0.000243732 -0.000116527)
(-0.000483563 -0.000332757 -0.000116527)
(-0.000418434 -0.000411671 -0.000116527)
(-0.000340591 -0.000478077 -0.000116527)
(-0.0002524 -0.000529958 -0.000116527)
(-0.000156539 -0.000565735 -0.000116527)
(-5.59224e-05 -0.000584323 -0.000116527)
(4.63939e-05 -0.000585157 -0.000116527)
(0.0001473 -0.00056821 -0.000116527)
(0.000243732 -0.000533999 -0.000116527)
(0.000332757 -0.000483563 -0.000116527)
(0.000411671 -0.000418434 -0.000116527)
(0.000478077 -0.000340591 -0.000116527)
(0.000529958 -0.0002524 -0.000116527)
(0.000565735 -0.000156539 -0.000116527)
(0.000584323 -5.59224e-05 -0.000116527)
(0.000585157 4.63939e-05 -0.000116527)
(0.00056821 0.0001473 -0.000116527)
(0.000533999 0.000243732 -0.000116527)
(0.000483563 0.000332757 -0.000116527)
(0.000418434 0.000411671 -0.000116527)
(0.000340591 0.000478077 -0.000116527)
(0.0002524 0.000529958 -0.000116527)
(0.000156539 0.000565735 -0.000116527)
(5.59224e-05 0.000584323 -0.000116527)
(-4.63939e-05 0.000585157 -0.000116527)
(-0.0001473 0.00056821 -0.000116527)
(-0.000243732 0.000533999 -0.000116527)
(-0.000303449 0.000497071 -9.16218e-05)
(-0.000385155 0.000436826 -9.1622e-05)
(-0.000455157 0.000363308 -9.16219e-05)
(-0.00051133 0.000278752 -9.16218e-05)
(-0.000551967 0.000185725 -9.16218e-05)
(-0.000575832 8.7055e-05 -9.16219e-05)
(-0.000582201 -1.42592e-05 -9.16218e-05)
(-0.00057088 -0.000115141 -9.16218e-05)
(-0.000542213 -0.000212524 -9.16218e-05)
(-0.000497071 -0.000303449 -9.16218e-05)
(-0.000436826 -0.000385155 -9.1622e-05)
(-0.000363308 -0.000455157 -9.16219e-05)
(-0.000278752 -0.00051133 -9.16218e-05)
(-0.000185725 -0.000551967 -9.16218e-05)
(-8.7055e-05 -0.000575832 -9.16219e-05)
(1.42593e-05 -0.000582201 -9.16218e-05)
(0.000115141 -0.00057088 -9.16218e-05)
(0.000212524 -0.000542213 -9.16218e-05)
(0.000303449 -0.000497071 -9.16218e-05)
(0.000385155 -0.000436826 -9.1622e-05)
(0.000455157 -0.000363308 -9.16219e-05)
(0.00051133 -0.000278752 -9.16218e-05)
(0.000551967 -0.000185725 -9.16218e-05)
(0.000575832 -8.7055e-05 -9.16219e-05)
(0.000582201 1.42593e-05 -9.16218e-05)
(0.00057088 0.000115141 -9.16217e-05)
(0.000542213 0.000212524 -9.16218e-05)
(0.000497071 0.000303449 -9.16218e-05)
(0.000436826 0.000385155 -9.1622e-05)
(0.000363308 0.000455157 -9.16219e-05)
(0.000278752 0.00051133 -9.16217e-05)
(0.000185725 0.000551967 -9.16218e-05)
(8.7055e-05 0.000575832 -9.16219e-05)
(-1.42592e-05 0.000582201 -9.16218e-05)
(-0.000115141 0.00057088 -9.16217e-05)
(-0.000212524 0.000542213 -9.16218e-05)
(0 0 0)
(0 0 0)
(0 0 0)
(0 0 0)
(0 0 0)
(0 0 0)
(0 0 0)
(0 0 0)
(0 0 0)
(0 0 0)
(0 0 0)
(0 0 0)
(0 0 0)
(0 0 0)
(0 0 0)
(0 0 0)
(0 0 0)
(0 0 0)
(0 0 0)
(0 0 0)
(0 0 0)
(0 0 0)
(0 0 0)
(0 0 0)
(0 0 0)
(0 0 0)
(0 0 0)
(0 0 0)
(0 0 0)
(0 0 0)
(0 0 0)
(0 0 0)
(0 0 0)
(0 0 0)
(0 0 0)
(0 0 0)
(-0.000280227 0.000509704 -6.75001e-05)
(-0.000364479 0.0004533 -6.75003e-05)
(-0.000437656 0.000383122 -6.75002e-05)
(-0.000497536 0.000301303 -6.75003e-05)
(-0.000542298 0.00021033 -6.75003e-05)
(-0.000570583 0.000112965 -6.75001e-05)
(-0.00058153 1.21684e-05 -6.75003e-05)
(-0.000574809 -8.89982e-05 -6.75001e-05)
(-0.000550622 -0.000187461 -6.75002e-05)
(-0.000509704 -0.000280227 -6.75001e-05)
(-0.0004533 -0.000364479 -6.75003e-05)
(-0.000383122 -0.000437657 -6.75002e-05)
(-0.000301303 -0.000497536 -6.75003e-05)
(-0.00021033 -0.000542298 -6.75003e-05)
(-0.000112965 -0.000570583 -6.75001e-05)
(-1.21684e-05 -0.00058153 -6.75003e-05)
(8.89983e-05 -0.000574809 -6.75001e-05)
(0.000187461 -0.000550622 -6.75002e-05)
(0.000280227 -0.000509704 -6.75001e-05)
(0.000364479 -0.0004533 -6.75003e-05)
(0.000437657 -0.000383122 -6.75002e-05)
(0.000497536 -0.000301303 -6.75003e-05)
(0.000542298 -0.00021033 -6.75003e-05)
(0.000570583 -0.000112965 -6.75001e-05)
(0.000581531 -1.21684e-05 -6.75003e-05)
(0.000574809 8.89982e-05 -6.75001e-05)
(0.000550622 0.000187461 -6.75002e-05)
(0.000509704 0.000280227 -6.75001e-05)
(0.0004533 0.000364479 -6.75003e-05)
(0.000383122 0.000437657 -6.75001e-05)
(0.000301303 0.000497536 -6.75003e-05)
(0.00021033 0.000542298 -6.75003e-05)
(0.000112965 0.000570583 -6.75001e-05)
(1.21684e-05 0.000581531 -6.75003e-05)
(-8.89982e-05 0.000574809 -6.75001e-05)
(-0.000187461 0.000550622 -6.75002e-05)
(0 0 0)
(0 0 0)
(0 0 0)
(0 0 0)
(0 0 0)
(0 0 0)
(0 0 0)
(0 0 0)
(0 0 0)
(0 0 0)
(0 0 0)
(0 0 0)
(0 0 0)
(0 0 0)
(0 0 0)
(0 0 0)
(0 0 0)
(0 0 0)
(0 0 0)
(0 0 0)
(0 0 0)
(0 0 0)
(0 0 0)
(0 0 0)
(0 0 0)
(0 0 0)
(0 0 0)
(0 0 0)
(0 0 0)
(0 0 0)
(0 0 0)
(0 0 0)
(0 0 0)
(0 0 0)
(0 0 0)
(0 0 0)
(-0.000262744 0.000519551 -4.59222e-05)
(-0.000348971 0.000466033 -4.59223e-05)
(-0.000424595 0.000398354 -4.59224e-05)
(-0.000487319 0.000318572 -4.59224e-05)
(-0.000535234 0.00022911 -4.59224e-05)
(-0.000566888 0.000132687 -4.59224e-05)
(-0.000581316 3.22316e-05 -4.59225e-05)
(-0.000578082 -6.92023e-05 -4.59224e-05)
(-0.000557283 -0.000168534 -4.59225e-05)
(-0.000519551 -0.000262744 -4.59222e-05)
(-0.000466033 -0.000348971 -4.59223e-05)
(-0.000398354 -0.000424595 -4.59224e-05)
(-0.000318572 -0.000487319 -4.59224e-05)
(-0.00022911 -0.000535234 -4.59224e-05)
(-0.000132687 -0.000566888 -4.59224e-05)
(-3.22316e-05 -0.000581316 -4.59225e-05)
(6.92023e-05 -0.000578082 -4.59224e-05)
(0.000168534 -0.000557283 -4.59225e-05)
(0.000262744 -0.000519551 -4.59222e-05)
(0.000348971 -0.000466033 -4.59223e-05)
(0.000424595 -0.000398354 -4.59224e-05)
(0.000487319 -0.000318572 -4.59224e-05)
(0.000535234 -0.00022911 -4.59224e-05)
(0.000566888 -0.000132687 -4.59224e-05)
(0.000581316 -3.22316e-05 -4.59225e-05)
(0.000578082 6.92023e-05 -4.59224e-05)
(0.000557283 0.000168534 -4.59225e-05)
(0.000519551 0.000262744 -4.59222e-05)
(0.000466033 0.000348971 -4.59223e-05)
(0.000398354 0.000424595 -4.59224e-05)
(0.000318572 0.000487319 -4.59224e-05)
(0.00022911 0.000535234 -4.59224e-05)
(0.000132687 0.000566888 -4.59224e-05)
(3.22316e-05 0.000581316 -4.59225e-05)
(-6.92023e-05 0.000578082 -4.59224e-05)
(-0.000168534 0.000557283 -4.59225e-05)
(0 0 0)
(0 0 0)
(0 0 0)
(0 0 0)
(0 0 0)
(0 0 0)
(0 0 0)
(0 0 0)
(0 0 0)
(0 0 0)
(0 0 0)
(0 0 0)
(0 0 0)
(0 0 0)
(0 0 0)
(0 0 0)
(0 0 0)
(0 0 0)
(0 0 0)
(0 0 0)
(0 0 0)
(0 0 0)
(0 0 0)
(0 0 0)
(0 0 0)
(0 0 0)
(0 0 0)
(0 0 0)
(0 0 0)
(0 0 0)
(0 0 0)
(0 0 0)
(0 0 0)
(0 0 0)
(0 0 0)
(0 0 0)
(-0.000620085 0.000991091 -0.000252513)
(-0.000782765 0.000868357 -0.000252513)
(-0.000921662 0.000719239 -0.000252513)
(-0.00103255 0.000548268 -0.000252513)
(-0.00111207 0.000360638 -0.000252513)
(-0.0011578 0.00016205 -0.000252513)
(-0.00116835 -4.14628e-05 -0.000252513)
(-0.0011434 -0.000243715 -0.000252513)
(-0.00108371 -0.000438563 -0.000252513)
(-0.000991091 -0.000620085 -0.000252513)
(-0.000868357 -0.000782765 -0.000252513)
(-0.000719239 -0.000921662 -0.000252513)
(-0.000548268 -0.00103255 -0.000252513)
(-0.000360638 -0.00111207 -0.000252513)
(-0.00016205 -0.0011578 -0.000252513)
(4.14628e-05 -0.00116835 -0.000252513)
(0.000243715 -0.0011434 -0.000252513)
(0.000438563 -0.00108371 -0.000252513)
(0.000620085 -0.000991091 -0.000252513)
(0.000782765 -0.000868357 -0.000252513)
(0.000921662 -0.000719239 -0.000252513)
(0.00103255 -0.000548268 -0.000252513)
(0.00111207 -0.000360638 -0.000252513)
(0.0011578 -0.00016205 -0.000252513)
(0.00116835 4.14628e-05 -0.000252513)
(0.0011434 0.000243715 -0.000252513)
(0.00108371 0.000438563 -0.000252513)
(0.000991091 0.000620085 -0.000252513)
(0.000868357 0.000782765 -0.000252513)
(0.000719239 0.000921662 -0.000252513)
(0.000548268 0.00103255 -0.000252513)
(0.000360638 0.00111207 -0.000252513)
(0.00016205 0.0011578 -0.000252513)
(-4.14628e-05 0.00116835 -0.000252513)
(-0.000243715 0.0011434 -0.000252513)
(-0.000438563 0.00108371 -0.000252513)
(-0.000590355 0.000997652 -0.000210828)
(-0.000754627 0.000879981 -0.000210828)
(-0.000895969 0.000735573 -0.000210828)
(-0.00101009 0.000568815 -0.000210828)
(-0.00109352 0.000384773 -0.000210828)
(-0.00114372 0.00018904 -0.000210828)
(-0.00115917 -1.24362e-05 -0.000210828)
(-0.0011394 -0.000213536 -0.000210828)
(-0.00108501 -0.000408146 -0.000210828)
(-0.000997652 -0.000590355 -0.000210828)
(-0.000879981 -0.000754627 -0.000210828)
(-0.000735573 -0.000895969 -0.000210828)
(-0.000568815 -0.00101009 -0.000210828)
(-0.000384773 -0.00109352 -0.000210828)
(-0.00018904 -0.00114372 -0.000210828)
(1.24362e-05 -0.00115917 -0.000210828)
(0.000213536 -0.0011394 -0.000210828)
(0.000408146 -0.00108501 -0.000210828)
(0.000590355 -0.000997652 -0.000210828)
(0.000754627 -0.000879981 -0.000210828)
(0.000895969 -0.000735573 -0.000210828)
(0.00101009 -0.000568815 -0.000210828)
(0.00109352 -0.000384773 -0.000210828)
(0.00114372 -0.00018904 -0.000210828)
(0.00115917 1.24362e-05 -0.000210828)
(0.0011394 0.000213536 -0.000210828)
(0.00108501 0.000408146 -0.000210828)
(0.000997652 0.000590355 -0.000210828)
(0.000879981 0.000754627 -0.000210828)
(0.000735573 0.000895969 -0.000210828)
(0.000568815 0.00101009 -0.000210828)
(0.000384773 0.00109352 -0.000210828)
(0.00018904 0.00114372 -0.000210828)
(-1.24362e-05 0.00115917 -0.000210828)
(-0.000213536 0.0011394 -0.000210828)
(-0.000408146 0.00108501 -0.000210828)
(-0.000567697 0.00100253 -0.000168761)
(-0.000733158 0.000888717 -0.000168761)
(-0.000876344 0.000747904 -0.000168761)
(-0.000992903 0.000584366 -0.000168761)
(-0.00107929 0.000403072 -0.000168761)
(-0.00113289 0.00020953 -0.000168761)
(-0.00115206 9.62295e-06 -0.000168761)
(-0.00113623 -0.000190576 -0.000168761)
(-0.00108588 -0.000384985 -0.000168761)
(-0.00100253 -0.000567697 -0.000168761)
(-0.000888717 -0.000733158 -0.000168761)
(-0.000747904 -0.000876344 -0.000168761)
(-0.000584366 -0.000992903 -0.000168761)
(-0.000403072 -0.00107929 -0.000168761)
(-0.00020953 -0.00113289 -0.000168761)
(-9.62292e-06 -0.00115206 -0.000168761)
(0.000190576 -0.00113623 -0.000168761)
(0.000384985 -0.00108588 -0.000168761)
(0.000567697 -0.00100253 -0.000168761)
(0.000733159 -0.000888717 -0.000168761)
(0.000876344 -0.000747904 -0.000168761)
(0.000992903 -0.000584366 -0.000168761)
(0.00107929 -0.000403072 -0.000168761)
(0.00113289 -0.00020953 -0.000168761)
(0.00115206 -9.62294e-06 -0.000168761)
(0.00113623 0.000190576 -0.000168761)
(0.00108588 0.000384985 -0.000168761)
(0.00100253 0.000567697 -0.000168761)
(0.000888717 0.000733159 -0.000168761)
(0.000747904 0.000876344 -0.000168761)
(0.000584366 0.000992903 -0.000168761)
(0.000403072 0.00107929 -0.000168761)
(0.00020953 0.00113289 -0.000168761)
(9.62296e-06 0.00115206 -0.000168761)
(-0.000190576 0.00113623 -0.000168761)
(-0.000384985 0.00108588 -0.000168761)
(-0.000550935 0.00100209 -0.000128677)
(-0.000716576 0.000891197 -0.000128677)
(-0.000860444 0.000753227 -0.000128677)
(-0.000978168 0.000592369 -0.000128678)
(-0.00106617 0.000413512 -0.000128678)
(-0.00112178 0.000222091 -0.000128678)
(-0.0011433 2.39228e-05 -0.000128677)
(-0.00113009 -0.000174973 -0.000128677)
(-0.00108254 -0.000368553 -0.000128677)
(-0.00100209 -0.000550935 -0.000128677)
(-0.000891197 -0.000716576 -0.000128677)
(-0.000753227 -0.000860444 -0.000128677)
(-0.000592369 -0.000978168 -0.000128678)
(-0.000413512 -0.00106617 -0.000128678)
(-0.000222091 -0.00112178 -0.000128678)
(-2.39228e-05 -0.0011433 -0.000128677)
(0.000174973 -0.00113009 -0.000128677)
(0.000368553 -0.00108254 -0.000128677)
(0.000550935 -0.00100209 -0.000128677)
(0.000716576 -0.000891197 -0.000128677)
(0.000860444 -0.000753227 -0.000128677)
(0.000978168 -0.000592369 -0.000128678)
(0.00106617 -0.000413512 -0.000128678)
(0.00112178 -0.000222091 -0.000128678)
(0.0011433 -2.39228e-05 -0.000128677)
(0.00113009 0.000174973 -0.000128677)
(0.00108254 0.000368553 -0.000128677)
(0.00100209 0.000550935 -0.000128677)
(0.000891197 0.000716576 -0.000128677)
(0.000753227 0.000860444 -0.000128677)
(0.000592369 0.000978168 -0.000128678)
(0.000413512 0.00106617 -0.000128678)
(0.000222091 0.00112178 -0.000128678)
(2.39228e-05 0.0011433 -0.000128677)
(-0.000174973 0.00113009 -0.000128677)
(-0.000368553 0.00108254 -0.000128677)
(-0.000903689 0.00148696 -0.00043061)
(-0.00114817 0.00130745 -0.00043061)
(-0.00135776 0.00108821 -0.00043061)
(-0.0015261 0.000835905 -0.00043061)
(-0.00164807 0.000558201 -0.000430609)
(-0.00171996 0.000263537 -0.000430609)
(-0.00173959 -3.9136e-05 -0.00043061)
(-0.00170637 -0.000340619 -0.00043061)
(-0.0016213 -0.000631752 -0.00043061)
(-0.00148696 -0.000903689 -0.00043061)
(-0.00130745 -0.00114817 -0.00043061)
(-0.00108821 -0.00135776 -0.00043061)
(-0.000835905 -0.0015261 -0.00043061)
(-0.000558201 -0.00164807 -0.00043061)
(-0.000263537 -0.00171996 -0.000430609)
(3.9136e-05 -0.00173959 -0.00043061)
(0.000340619 -0.00170637 -0.00043061)
(0.000631752 -0.0016213 -0.00043061)
(0.000903689 -0.00148696 -0.00043061)
(0.00114817 -0.00130745 -0.00043061)
(0.00135776 -0.00108821 -0.00043061)
(0.0015261 -0.000835905 -0.00043061)
(0.00164807 -0.000558201 -0.000430609)
(0.00171996 -0.000263537 -0.000430609)
(0.00173959 3.9136e-05 -0.00043061)
(0.00170637 0.000340619 -0.00043061)
(0.0016213 0.000631752 -0.00043061)
(0.00148696 0.000903689 -0.00043061)
(0.00130745 0.00114817 -0.00043061)
(0.00108821 0.00135776 -0.00043061)
(0.000835905 0.0015261 -0.00043061)
(0.000558201 0.00164807 -0.000430609)
(0.000263537 0.00171996 -0.000430609)
(-3.9136e-05 0.00173959 -0.00043061)
(-0.000340619 0.00170637 -0.00043061)
(-0.000631752 0.0016213 -0.00043061)
(-0.000871359 0.00148241 -0.000374336)
(-0.00111554 0.00130858 -0.000374335)
(-0.00132583 0.00109499 -0.000374336)
(-0.00149583 0.000848129 -0.000374335)
(-0.00162038 0.000575498 -0.000374335)
(-0.00169569 0.000285379 -0.000374335)
(-0.00171949 -1.34113e-05 -0.000374335)
(-0.00169104 -0.000311794 -0.000374335)
(-0.0016112 -0.000600703 -0.000374335)
(-0.00148241 -0.000871359 -0.000374336)
(-0.00130858 -0.00111554 -0.000374336)
(-0.00109499 -0.00132583 -0.000374336)
(-0.000848129 -0.00149583 -0.000374335)
(-0.000575498 -0.00162038 -0.000374335)
(-0.000285379 -0.00169569 -0.000374335)
(1.34114e-05 -0.00171949 -0.000374335)
(0.000311794 -0.00169104 -0.000374335)
(0.000600703 -0.0016112 -0.000374335)
(0.000871359 -0.00148241 -0.000374336)
(0.00111554 -0.00130858 -0.000374336)
(0.00132583 -0.00109499 -0.000374336)
(0.00149583 -0.000848129 -0.000374335)
(0.00162038 -0.000575498 -0.000374335)
(0.00169569 -0.000285379 -0.000374335)
(0.00171949 1.34114e-05 -0.000374335)
(0.00169104 0.000311794 -0.000374335)
(0.0016112 0.000600703 -0.000374335)
(0.00148241 0.000871359 -0.000374336)
(0.00130858 0.00111554 -0.000374335)
(0.00109499 0.00132583 -0.000374336)
(0.000848129 0.00149583 -0.000374335)
(0.000575498 0.00162038 -0.000374335)
(0.000285379 0.00169569 -0.000374335)
(-1.34113e-05 0.00171949 -0.000374335)
(-0.000311794 0.00169104 -0.000374335)
(-0.000600702 0.0016112 -0.000374335)
(-0.000846434 0.00147574 -0.000317909)
(-0.00108983 0.00130634 -0.000317909)
(-0.00130012 0.00109724 -0.000317909)
(-0.0014709 0.000854809 -0.000317909)
(-0.00159699 0.000586402 -0.000317909)
(-0.00167456 0.000300179 -0.000317909)
(-0.00170124 4.83492e-06 -0.000317909)
(-0.00167624 -0.000290657 -0.000317909)
(-0.0016003 -0.000577316 -0.000317909)
(-0.00147574 -0.000846434 -0.000317909)
(-0.00130634 -0.00108983 -0.000317909)
(-0.00109724 -0.00130012 -0.000317909)
(-0.000854809 -0.0014709 -0.000317909)
(-0.000586402 -0.00159699 -0.000317909)
(-0.000300178 -0.00167456 -0.000317909)
(-4.83488e-06 -0.00170124 -0.000317909)
(0.000290657 -0.00167624 -0.000317909)
(0.000577317 -0.0016003 -0.000317909)
(0.000846434 -0.00147574 -0.000317909)
(0.00108983 -0.00130634 -0.000317909)
(0.00130012 -0.00109724 -0.000317909)
(0.0014709 -0.000854809 -0.000317909)
(0.00159699 -0.000586402 -0.000317909)
(0.00167456 -0.000300179 -0.000317909)
(0.00170124 -4.8349e-06 -0.000317909)
(0.00167624 0.000290657 -0.000317909)
(0.0016003 0.000577316 -0.000317909)
(0.00147574 0.000846434 -0.000317909)
(0.00130634 0.00108983 -0.000317909)
(0.00109724 0.00130012 -0.000317909)
(0.000854809 0.0014709 -0.000317909)
(0.000586402 0.00159699 -0.000317909)
(0.000300179 0.00167456 -0.000317909)
(4.83494e-06 0.00170124 -0.000317909)
(-0.000290657 0.00167624 -0.000317909)
(-0.000577316 0.0016003 -0.000317909)
(-0.000827075 0.0014611 -0.000263686)
(-0.00106823 0.00129528 -0.000263686)
(-0.00127692 0.00109011 -0.000263686)
(-0.00144682 0.000851812 -0.000263686)
(-0.00157275 0.000587634 -0.000263686)
(-0.0016509 0.000305601 -0.000263686)
(-0.00167889 1.42822e-05 -0.000263686)
(-0.00165586 -0.000277469 -0.000263686)
(-0.00158252 -0.000560792 -0.000263686)
(-0.0014611 -0.000827075 -0.000263686)
(-0.00129528 -0.00106823 -0.000263686)
(-0.00109011 -0.00127692 -0.000263686)
(-0.000851812 -0.00144682 -0.000263686)
(-0.000587634 -0.00157275 -0.000263686)
(-0.000305601 -0.0016509 -0.000263686)
(-1.42821e-05 -0.00167889 -0.000263686)
(0.000277469 -0.00165586 -0.000263686)
(0.000560792 -0.00158252 -0.000263686)
(0.000827075 -0.0014611 -0.000263686)
(0.00106823 -0.00129528 -0.000263686)
(0.00127692 -0.00109011 -0.000263686)
(0.00144682 -0.000851812 -0.000263686)
(0.00157275 -0.000587634 -0.000263686)
(0.0016509 -0.000305601 -0.000263686)
(0.00167889 -1.42821e-05 -0.000263686)
(0.00165586 0.000277469 -0.000263686)
(0.00158252 0.000560792 -0.000263686)
(0.0014611 0.000827075 -0.000263686)
(0.00129528 0.00106823 -0.000263686)
(0.00109011 0.00127692 -0.000263686)
(0.000851812 0.00144682 -0.000263686)
(0.000587634 0.00157275 -0.000263686)
(0.000305601 0.0016509 -0.000263686)
(1.42822e-05 0.00167889 -0.000263686)
(-0.000277469 0.00165586 -0.000263686)
(-0.000560792 0.00158252 -0.000263686)
(-0.00117899 0.0019649 -0.000638887)
(-0.00150228 0.00173032 -0.000638887)
(-0.00177992 0.00144316 -0.000638887)
(-0.00200348 0.00111216 -0.000638887)
(-0.00216617 0.000747359 -0.000638887)
(-0.00226304 0.000359854 -0.000638886)
(-0.00229115 -3.85855e-05 -0.000638886)
(-0.00224964 -0.000435855 -0.000638886)
(-0.00213978 -0.000819878 -0.000638886)
(-0.0019649 -0.00117899 -0.000638887)
(-0.00173032 -0.00150228 -0.000638887)
(-0.00144316 -0.00177992 -0.000638887)
(-0.00111216 -0.00200348 -0.000638887)
(-0.000747359 -0.00216617 -0.000638887)
(-0.000359854 -0.00226304 -0.000638886)
(3.85856e-05 -0.00229115 -0.000638886)
(0.000435855 -0.00224964 -0.000638886)
(0.000819878 -0.00213978 -0.000638886)
(0.00117899 -0.0019649 -0.000638887)
(0.00150228 -0.00173032 -0.000638887)
(0.00177992 -0.00144316 -0.000638887)
(0.00200348 -0.00111216 -0.000638887)
(0.00216617 -0.000747359 -0.000638887)
(0.00226304 -0.000359854 -0.000638886)
(0.00229115 3.85855e-05 -0.000638886)
(0.00224964 0.000435855 -0.000638886)
(0.00213978 0.000819878 -0.000638886)
(0.0019649 0.00117899 -0.000638887)
(0.00173032 0.00150228 -0.000638887)
(0.00144316 0.00177992 -0.000638887)
(0.00111216 0.00200348 -0.000638887)
(0.000747359 0.00216617 -0.000638886)
(0.000359854 0.00226304 -0.000638886)
(-3.85855e-05 0.00229115 -0.000638886)
(-0.000435855 0.00224964 -0.000638886)
(-0.000819878 0.00213978 -0.000638886)
(-0.00114298 0.00194192 -0.000569662)
(-0.00146283 0.00171394 -0.000569662)
(-0.00173823 0.00143388 -0.000569662)
(-0.00196081 0.00111026 -0.000569662)
(-0.00212381 0.000752899 -0.000569662)
(-0.00222229 0.000372665 -0.000569662)
(-0.00225324 -1.88926e-05 -0.000569662)
(-0.00221573 -0.000409877 -0.000569662)
(-0.00211089 -0.000788407 -0.000569662)
(-0.00194192 -0.00114298 -0.000569662)
(-0.00171394 -0.00146283 -0.000569662)
(-0.00143388 -0.00173823 -0.000569662)
(-0.00111026 -0.00196081 -0.000569662)
(-0.000752899 -0.00212381 -0.000569662)
(-0.000372665 -0.00222229 -0.000569662)
(1.88927e-05 -0.00225324 -0.000569662)
(0.000409877 -0.00221573 -0.000569662)
(0.000788407 -0.00211089 -0.000569662)
(0.00114298 -0.00194192 -0.000569662)
(0.00146283 -0.00171394 -0.000569662)
(0.00173823 -0.00143388 -0.000569662)
(0.00196081 -0.00111026 -0.000569662)
(0.00212381 -0.000752899 -0.000569662)
(0.00222229 -0.000372665 -0.000569662)
(0.00225324 1.88926e-05 -0.000569662)
(0.00221573 0.000409877 -0.000569662)
(0.00211089 0.000788407 -0.000569662)
(0.00194192 0.00114298 -0.000569662)
(0.00171394 0.00146283 -0.000569662)
(0.00143388 0.00173823 -0.000569662)
(0.00111026 0.00196081 -0.000569662)
(0.000752899 0.00212381 -0.000569662)
(0.000372665 0.00222229 -0.000569662)
(-1.88926e-05 0.00225324 -0.000569662)
(-0.000409877 0.00221573 -0.000569662)
(-0.000788407 0.00211089 -0.000569662)
(-0.001115 0.00191634 -0.000500558)
(-0.00143083 0.00169361 -0.000500557)
(-0.00170319 0.00141942 -0.000500557)
(-0.00192379 0.0011021 -0.000500557)
(-0.00208594 0.000751296 -0.000500557)
(-0.00218471 0.000377662 -0.000500557)
(-0.0022171 -7.44821e-06 -0.000500557)
(-0.00218213 -0.00039233 -0.000500558)
(-0.00208085 -0.000765293 -0.000500557)
(-0.00191634 -0.001115 -0.000500558)
(-0.00169361 -0.00143083 -0.000500558)
(-0.00141942 -0.00170319 -0.000500557)
(-0.0011021 -0.00192379 -0.000500557)
(-0.000751296 -0.00208594 -0.000500557)
(-0.000377662 -0.00218471 -0.000500557)
(7.44828e-06 -0.0022171 -0.000500557)
(0.00039233 -0.00218213 -0.000500558)
(0.000765293 -0.00208085 -0.000500557)
(0.001115 -0.00191634 -0.000500558)
(0.00143083 -0.00169361 -0.000500558)
(0.00170319 -0.00141942 -0.000500557)
(0.00192379 -0.0011021 -0.000500557)
(0.00208594 -0.000751296 -0.000500557)
(0.00218471 -0.000377662 -0.000500557)
(0.0022171 7.44824e-06 -0.000500557)
(0.00218213 0.00039233 -0.000500558)
(0.00208085 0.000765293 -0.000500557)
(0.00191634 0.001115 -0.000500558)
(0.00169361 0.00143083 -0.000500557)
(0.00141942 0.00170319 -0.000500557)
(0.0011021 0.00192379 -0.000500557)
(0.000751296 0.00208594 -0.000500557)
(0.000377662 0.00218471 -0.000500557)
(-7.44819e-06 0.0022171 -0.000500557)
(-0.00039233 0.00218213 -0.000500558)
(-0.000765293 0.00208085 -0.000500557)
(-0.00109191 0.00188042 -0.00043396)
(-0.00140185 0.00166224 -0.00043396)
(-0.0016692 0.00139356 -0.00043396)
(-0.00188583 0.00108254 -0.00043396)
(-0.00204516 0.000738623 -0.00043396)
(-0.00214235 0.000372261 -0.000433961)
(-0.00217444 -5.40866e-06 -0.00043396)
(-0.00214047 -0.000382915 -0.000433961)
(-0.00204146 -0.000748786 -0.00043396)
(-0.00188042 -0.00109191 -0.000433961)
(-0.00166224 -0.00140185 -0.00043396)
(-0.00139356 -0.0016692 -0.000433961)
(-0.00108254 -0.00188583 -0.00043396)
(-0.000738623 -0.00204516 -0.00043396)
(-0.000372261 -0.00214235 -0.000433961)
(5.40872e-06 -0.00217444 -0.00043396)
(0.000382915 -0.00214047 -0.000433961)
(0.000748786 -0.00204146 -0.00043396)
(0.00109191 -0.00188042 -0.000433961)
(0.00140185 -0.00166224 -0.00043396)
(0.0016692 -0.00139356 -0.000433961)
(0.00188583 -0.00108254 -0.00043396)
(0.00204516 -0.000738623 -0.00043396)
(0.00214235 -0.000372261 -0.000433961)
(0.00217444 5.40869e-06 -0.00043396)
(0.00214047 0.000382915 -0.000433961)
(0.00204146 0.000748786 -0.00043396)
(0.00188042 0.00109191 -0.00043396)
(0.00166224 0.00140185 -0.00043396)
(0.00139356 0.0016692 -0.00043396)
(0.00108254 0.00188583 -0.00043396)
(0.000738623 0.00204516 -0.00043396)
(0.000372261 0.00214235 -0.000433961)
(-5.40864e-06 0.00217444 -0.00043396)
(-0.000382915 0.00214047 -0.000433961)
(-0.000748786 0.00204146 -0.00043396)
(-0.00144686 0.00241658 -0.000872006)
(-0.00184452 0.00212863 -0.000872006)
(-0.00218613 0.00177599 -0.000872006)
(-0.00246131 0.00136939 -0.000872006)
(-0.00266171 0.000921184 -0.000872006)
(-0.00278124 0.000444986 -0.000872005)
(-0.00281625 -4.47301e-05 -0.000872005)
(-0.0027657 -0.000533088 -0.000872005)
(-0.00263112 -0.00100525 -0.000872005)
(-0.00241658 -0.00144686 -0.000872006)
(-0.00212863 -0.00184452 -0.000872006)
(-0.00177599 -0.00218613 -0.000872006)
(-0.00136939 -0.00246131 -0.000872006)
(-0.000921184 -0.00266171 -0.000872006)
(-0.000444986 -0.00278124 -0.000872005)
(4.47302e-05 -0.00281625 -0.000872005)
(0.000533089 -0.0027657 -0.000872005)
(0.00100525 -0.00263112 -0.000872005)
(0.00144686 -0.00241658 -0.000872006)
(0.00184452 -0.00212863 -0.000872006)
(0.00218613 -0.00177599 -0.000872006)
(0.00246131 -0.00136939 -0.000872006)
(0.00266171 -0.000921184 -0.000872006)
(0.00278124 -0.000444986 -0.000872005)
(0.00281625 4.47301e-05 -0.000872005)
(0.0027657 0.000533088 -0.000872005)
(0.00263112 0.00100525 -0.000872005)
(0.00241658 0.00144686 -0.000872006)
(0.00212863 0.00184452 -0.000872006)
(0.00177599 0.00218613 -0.000872006)
(0.00136939 0.00246131 -0.000872006)
(0.000921185 0.00266171 -0.000872006)
(0.000444986 0.00278124 -0.000872005)
(-4.473e-05 0.00281625 -0.000872005)
(-0.000533088 0.0027657 -0.000872005)
(-0.00100525 0.00263112 -0.000872005)
(-0.00140481 0.00236561 -0.000791158)
(-0.00179426 0.00208573 -0.000791159)
(-0.00212918 0.00174247 -0.000791159)
(-0.00239941 0.00134627 -0.000791158)
(-0.00259674 0.000909168 -0.000791158)
(-0.00271516 0.000444438 -0.000791158)
(-0.00275109 -3.37971e-05 -0.000791158)
(-0.00270342 -0.000511005 -0.000791158)
(-0.00257362 -0.000972687 -0.000791158)
(-0.00236561 -0.00140481 -0.000791158)
(-0.00208573 -0.00179426 -0.000791159)
(-0.00174247 -0.00212918 -0.000791159)
(-0.00134627 -0.00239941 -0.000791158)
(-0.000909168 -0.00259674 -0.000791158)
(-0.000444438 -0.00271516 -0.000791158)
(3.37972e-05 -0.00275109 -0.000791158)
(0.000511005 -0.00270342 -0.000791158)
(0.000972687 -0.00257362 -0.000791158)
(0.00140481 -0.00236561 -0.000791158)
(0.00179426 -0.00208573 -0.000791159)
(0.00212918 -0.00174247 -0.000791159)
(0.00239941 -0.00134627 -0.000791158)
(0.00259674 -0.000909168 -0.000791158)
(0.00271516 -0.000444438 -0.000791158)
(0.00275109 3.37971e-05 -0.000791158)
(0.00270342 0.000511005 -0.000791158)
(0.00257362 0.000972687 -0.000791158)
(0.00236561 0.00140481 -0.000791158)
(0.00208573 0.00179426 -0.000791159)
(0.00174247 0.00212918 -0.000791159)
(0.00134627 0.00239941 -0.000791158)
(0.000909168 0.00259674 -0.000791158)
(0.000444438 0.00271516 -0.000791158)
(-3.37971e-05 0.00275109 -0.000791158)
(-0.000511004 0.00270342 -0.000791158)
(-0.000972687 0.00257362 -0.000791158)
(-0.00137127 0.00231184 -0.000710759)
(-0.00175188 0.0020386 -0.000710758)
(-0.00207926 0.00170342 -0.000710758)
(-0.00234347 0.00131648 -0.000710758)
(-0.00253647 0.000889537 -0.000710758)
(-0.0026524 0.000435571 -0.000710758)
(-0.00268774 -3.16325e-05 -0.000710758)
(-0.00264142 -0.000497872 -0.000710758)
(-0.00251483 -0.000948986 -0.000710758)
(-0.00231184 -0.00137127 -0.000710759)
(-0.0020386 -0.00175188 -0.000710758)
(-0.00170342 -0.00207926 -0.000710758)
(-0.00131648 -0.00234347 -0.000710758)
(-0.000889537 -0.00253647 -0.000710758)
(-0.000435571 -0.0026524 -0.000710758)
(3.16326e-05 -0.00268774 -0.000710758)
(0.000497872 -0.00264142 -0.000710758)
(0.000948986 -0.00251483 -0.000710758)
(0.00137127 -0.00231184 -0.000710759)
(0.00175188 -0.0020386 -0.000710758)
(0.00207926 -0.00170342 -0.000710758)
(0.00234347 -0.00131648 -0.000710758)
(0.00253647 -0.000889537 -0.000710758)
(0.0026524 -0.000435571 -0.000710758)
(0.00268774 3.16326e-05 -0.000710758)
(0.00264142 0.000497872 -0.000710758)
(0.00251483 0.000948986 -0.000710758)
(0.00231184 0.00137127 -0.000710759)
(0.0020386 0.00175188 -0.000710758)
(0.00170342 0.00207926 -0.000710758)
(0.00131648 0.00234347 -0.000710758)
(0.000889537 0.00253647 -0.000710758)
(0.000435571 0.0026524 -0.000710758)
(-3.16325e-05 0.00268774 -0.000710758)
(-0.000497871 0.00264142 -0.000710758)
(-0.000948986 0.00251483 -0.000710758)
(-0.00134162 0.00224596 -0.000633076)
(-0.00171124 0.00197887 -0.000633076)
(-0.00202887 0.00165165 -0.000633075)
(-0.00228486 0.00127425 -0.000633075)
(-0.00247142 0.000858131 -0.000633076)
(-0.00258288 0.00041594 -0.000633075)
(-0.00261587 -3.88926e-05 -0.000633076)
(-0.00256937 -0.000492544 -0.000633076)
(-0.00244481 -0.000931228 -0.000633075)
(-0.00224596 -0.00134162 -0.000633076)
(-0.00197887 -0.00171124 -0.000633076)
(-0.00165165 -0.00202887 -0.000633075)
(-0.00127425 -0.00228486 -0.000633076)
(-0.000858131 -0.00247142 -0.000633076)
(-0.00041594 -0.00258288 -0.000633075)
(3.88926e-05 -0.00261587 -0.000633076)
(0.000492545 -0.00256937 -0.000633076)
(0.000931228 -0.00244481 -0.000633075)
(0.00134162 -0.00224596 -0.000633076)
(0.00171124 -0.00197887 -0.000633076)
(0.00202887 -0.00165165 -0.000633075)
(0.00228486 -0.00127425 -0.000633075)
(0.00247142 -0.000858131 -0.000633076)
(0.00258288 -0.00041594 -0.000633075)
(0.00261587 3.88926e-05 -0.000633076)
(0.00256937 0.000492544 -0.000633076)
(0.00244481 0.000931228 -0.000633075)
(0.00224596 0.00134162 -0.000633076)
(0.00197887 0.00171124 -0.000633075)
(0.00165165 0.00202887 -0.000633075)
(0.00127425 0.00228486 -0.000633075)
(0.000858131 0.00247142 -0.000633075)
(0.00041594 0.00258288 -0.000633075)
(-3.88925e-05 0.00261587 -0.000633076)
(-0.000492544 0.00256937 -0.000633076)
(-0.000931228 0.00244481 -0.000633075)
(-0.00170723 0.00283149 -0.00112343)