/*--------------------------------*- C++ -*----------------------------------*\
| =========                 |                                                 |
| \\      /  F ield         | OpenFOAM: The Open Source CFD Toolbox           |
|  \\    /   O peration     | Version:  2312                                  |
|   \\  /    A nd           | Website:  www.openfoam.com                      |
|    \\/     M anipulation  |                                                 |
\*---------------------------------------------------------------------------*/
FoamFile
{
    version     2.0;
    format      ascii;
    arch        "LSB;label=32;scalar=64";
    class       volSymmTensorField;
    location    "0.2";
    object      sigma;
}
// * * * * * * * * * * * * * * * * * * * * * * * * * * * * * * * * * * * * * //

dimensions      [1 -1 -2 0 0 0 0];

internalField   nonuniform List<symmTensor> 
1620
(
(9253.68 -859.976 -174.011 15587.8 4496.41 14543)
(9738.82 -1891.3 -952.153 15102.7 4397.89 14543)
(10547.4 -2694.52 -1701.38 14294 4165.73 14543)
(11581.9 -3172.72 -2398.91 13259.4 3807 14542.9)
(12717.6 -3268.25 -3023.54 12123.7 3332.6 14542.9)
(13817.5 -2969.59 -3556.3 11023.8 2756.95 14542.9)
(14749 -2312.76 -3981.01 10092.4 2097.52 14542.9)
(15399.6 -1376.97 -4284.76 9441.84 1374.36 14543)
(15690.9 -275.088 -4458.32 9150.56 609.434 14543)
(15587.8 859.976 -4496.41 9253.68 -174.011 14543)
(15102.7 1891.3 -4397.89 9738.82 -952.153 14543)
(14294 2694.52 -4165.73 10547.4 -1701.38 14543)
(13259.4 3172.72 -3807 11581.9 -2398.91 14542.9)
(12123.7 3268.25 -3332.6 12717.6 -3023.54 14542.9)
(11023.8 2969.59 -2756.95 13817.5 -3556.3 14542.9)
(10092.4 2312.76 -2097.52 14749 -3981.01 14542.9)
(9441.84 1376.97 -1374.36 15399.6 -4284.76 14543)
(9150.56 275.088 -609.434 15690.9 -4458.32 14543)
(9253.68 -859.976 174.011 15587.8 -4496.41 14543)
(9738.82 -1891.3 952.152 15102.7 -4397.89 14543)
(10547.4 -2694.52 1701.38 14294 -4165.73 14543)
(11581.9 -3172.72 2398.91 13259.4 -3807 14542.9)
(12717.6 -3268.25 3023.54 12123.7 -3332.6 14542.9)
(13817.5 -2969.59 3556.3 11023.8 -2756.95 14542.9)
(14749 -2312.76 3981.01 10092.4 -2097.52 14542.9)
(15399.6 -1376.97 4284.76 9441.84 -1374.36 14542.9)
(15690.9 -275.088 4458.32 9150.56 -609.434 14543)
(15587.8 859.976 4496.41 9253.68 174.011 14543)
(15102.7 1891.3 4397.89 9738.82 952.153 14543)
(14294 2694.52 4165.73 10547.4 1701.38 14543)
(13259.4 3172.72 3807 11581.9 2398.91 14542.9)
(12123.7 3268.25 3332.6 12717.6 3023.54 14542.9)
(11023.8 2969.59 2756.95 13817.5 3556.3 14542.9)
(10092.4 2312.76 2097.52 14749 3981.01 14542.9)
(9441.84 1376.97 1374.36 15399.6 4284.76 14542.9)
(9150.56 275.088 609.434 15690.9 4458.32 14543)
(6609.14 -1444.3 313.317 18566 -340.028 6969.2)
(7463.66 -3401.94 367.603 17711.5 -280.455 6969.21)
(8936.18 -4949.28 410.721 16238.9 -212.367 6969.17)
(10849.2 -5899.64 441.339 14326 -137.793 6969.21)
(12971.8 -6138.42 458.541 12203.4 -59.0426 6969.19)
(15048 -5636.83 461.851 10127.1 21.465 6969.17)
(16827.6 -4455.35 451.137 8347.58 101.325 6969.2)
(18095.7 -2736.48 426.683 7079.45 178.125 6969.2)
(18699.5 -687.556 389.269 6475.68 249.512 6969.18)
(18566 1444.3 340.028 6609.14 313.317 6969.2)
(17711.5 3401.94 280.455 7463.66 367.603 6969.21)
(16238.9 4949.28 212.367 8936.18 410.721 6969.17)
(14326 5899.64 137.793 10849.2 441.339 6969.21)
(12203.4 6138.42 59.0426 12971.8 458.541 6969.2)
(10127.1 5636.83 -21.4651 15048 461.851 6969.17)
(8347.58 4455.35 -101.325 16827.6 451.137 6969.2)
(7079.45 2736.48 -178.125 18095.7 426.683 6969.2)
(6475.68 687.556 -249.512 18699.5 389.269 6969.18)
(6609.14 -1444.3 -313.318 18566 340.028 6969.2)
(7463.66 -3401.94 -367.603 17711.5 280.455 6969.21)
(8936.18 -4949.28 -410.721 16238.9 212.367 6969.17)
(10849.2 -5899.64 -441.339 14326 137.793 6969.21)
(12971.8 -6138.42 -458.541 12203.4 59.0426 6969.19)
(15048 -5636.83 -461.851 10127.1 -21.4651 6969.17)
(16827.6 -4455.35 -451.137 8347.58 -101.325 6969.2)
(18095.7 -2736.48 -426.683 7079.45 -178.125 6969.2)
(18699.5 -687.556 -389.269 6475.68 -249.512 6969.18)
(18566 1444.3 -340.028 6609.14 -313.317 6969.2)
(17711.5 3401.94 -280.455 7463.66 -367.603 6969.21)
(16238.9 4949.28 -212.367 8936.18 -410.721 6969.16)
(14326 5899.64 -137.793 10849.2 -441.339 6969.21)
(12203.4 6138.42 -59.0426 12971.8 -458.541 6969.19)
(10127.1 5636.83 21.465 15048 -461.851 6969.17)
(8347.58 4455.35 101.325 16827.6 -451.137 6969.2)
(7079.45 2736.48 178.125 18095.7 -426.683 6969.2)
(6475.68 687.556 249.512 18699.5 -389.269 6969.18)
(1525.83 -1426.71 1228.71 11411.2 -8192.79 7256.61)
(2311.88 -3031.16 2632.71 10625.2 -7854.96 7256.62)
(3599.22 -4270.03 3956.72 9337.7 -7278.47 7256.57)
(5232.68 -4993.86 5160.5 7704.21 -6480.8 7256.53)
(7015.26 -5115.36 6207.47 5921.77 -5486.23 7256.56)
(8731.8 -4619.86 7065.84 4205.17 -4324.98 7256.57)
(10175.4 -3567.14 7709.53 2761.6 -3032.3 7256.61)
(11171.9 -2084.16 8118.96 1765.07 -1647.48 7256.55)
(11601.1 -349.826 8281.69 1335.93 -212.613 7256.59)
(11411.2 1426.71 8192.79 1525.83 1228.71 7256.61)
(10625.2 3031.16 7854.96 2311.88 2632.71 7256.62)
(9337.7 4270.03 7278.47 3599.22 3956.72 7256.57)
(7704.22 4993.86 6480.8 5232.68 5160.5 7256.53)
(5921.77 5115.36 5486.23 7015.26 6207.47 7256.56)
(4205.17 4619.86 4324.98 8731.8 7065.84 7256.57)
(2761.6 3567.14 3032.3 10175.4 7709.53 7256.61)
(1765.07 2084.16 1647.48 11171.9 8118.96 7256.55)
(1335.93 349.826 212.613 11601.1 8281.69 7256.59)
(1525.83 -1426.71 -1228.71 11411.2 8192.79 7256.61)
(2311.88 -3031.16 -2632.71 10625.2 7854.96 7256.62)
(3599.22 -4270.03 -3956.72 9337.7 7278.47 7256.57)
(5232.68 -4993.86 -5160.5 7704.22 6480.8 7256.53)
(7015.26 -5115.36 -6207.47 5921.77 5486.23 7256.56)
(8731.8 -4619.86 -7065.84 4205.17 4324.98 7256.57)
(10175.4 -3567.14 -7709.53 2761.6 3032.3 7256.61)
(11171.9 -2084.16 -8118.96 1765.06 1647.48 7256.55)
(11601.1 -349.826 -8281.69 1335.93 212.613 7256.59)
(11411.2 1426.71 -8192.79 1525.83 -1228.71 7256.61)
(10625.2 3031.16 -7854.96 2311.88 -2632.71 7256.62)
(9337.7 4270.03 -7278.47 3599.22 -3956.72 7256.57)
(7704.21 4993.86 -6480.8 5232.68 -5160.5 7256.53)
(5921.77 5115.36 -5486.23 7015.26 -6207.47 7256.55)
(4205.17 4619.86 -4324.98 8731.8 -7065.84 7256.57)
(2761.6 3567.14 -3032.3 10175.4 -7709.53 7256.61)
(1765.06 2084.16 -1647.48 11171.9 -8118.96 7256.55)
(1335.93 349.826 -212.613 11601.1 -8281.69 7256.59)
(1899.29 -953.948 -251.008 7436.07 4513.88 7900.09)
(2392.51 -1843.24 -1031 6942.84 4401.72 7900.13)
(3160.21 -2510.25 -1779.7 6175.27 4155.81 7900.16)
(4109.57 -2874.45 -2474.32 5225.66 3783.63 7900.1)
(5126.36 -2891.96 -3093.75 4208.91 3296.49 7900.12)
(6087.81 -2560.67 -3619.16 3247.53 2709.21 7900.17)
(6877.98 -1920.53 -4034.63 2457.33 2039.57 7900.07)
(7401.58 -1048.72 -4327.51 1933.82 1307.98 7900.15)
(7595.4 -50.4497 -4488.89 1739.99 536.655 7900.1)
(7436.07 953.948 -4513.88 1899.29 -251.008 7900.09)
(6942.84 1843.24 -4401.72 2392.51 -1031 7900.13)
(6175.27 2510.25 -4155.81 3160.21 -1779.7 7900.16)
(5225.66 2874.45 -3783.63 4109.57 -2474.32 7900.1)
(4208.91 2891.96 -3296.49 5126.36 -3093.75 7900.12)
(3247.53 2560.67 -2709.21 6087.81 -3619.16 7900.17)
(2457.33 1920.53 -2039.57 6877.98 -4034.63 7900.07)
(1933.82 1048.72 -1307.98 7401.58 -4327.51 7900.15)
(1739.99 50.4497 -536.655 7595.4 -4488.89 7900.1)
(1899.29 -953.948 251.008 7436.07 -4513.88 7900.09)
(2392.51 -1843.24 1031 6942.84 -4401.72 7900.13)
(3160.21 -2510.25 1779.7 6175.27 -4155.81 7900.16)
(4109.57 -2874.45 2474.32 5225.66 -3783.63 7900.1)
(5126.36 -2891.96 3093.75 4208.91 -3296.49 7900.12)
(6087.81 -2560.67 3619.16 3247.53 -2709.21 7900.17)
(6877.98 -1920.53 4034.63 2457.33 -2039.57 7900.07)
(7401.58 -1048.72 4327.51 1933.82 -1307.98 7900.15)
(7595.4 -50.4497 4488.89 1739.99 -536.655 7900.1)
(7436.07 953.948 4513.88 1899.29 251.008 7900.09)
(6942.84 1843.24 4401.72 2392.51 1031 7900.13)
(6175.27 2510.25 4155.81 3160.21 1779.7 7900.16)
(5225.66 2874.45 3783.63 4109.57 2474.32 7900.1)
(4208.91 2891.96 3296.49 5126.36 3093.75 7900.12)
(3247.53 2560.67 2709.21 6087.81 3619.16 7900.17)
(2457.33 1920.53 2039.57 6877.98 4034.63 7900.07)
(1933.82 1048.72 1307.98 7401.58 4327.51 7900.15)
(1739.99 50.4497 536.655 7595.4 4488.89 7900.1)
(-992.128 -1625.11 308.265 10330.2 16.3788 -653.965)
(-94.9175 -3463.31 300.728 9432.96 69.6947 -653.966)
(1376.9 -4883.82 284.061 7961.11 120.846 -653.988)
(3245.88 -5715.25 258.748 6092.29 168.355 -653.895)
(5286.43 -5857.34 225.591 4051.72 210.721 -653.912)
(7252.47 -5292.95 185.562 2085.57 246.7 -653.96)
(8907.03 -4090.16 139.926 431.126 275.165 -653.911)
(10050.3 -2394.03 90.0054 -712.3 295.286 -653.999)
(10544.6 -409.158 37.3993 -1206.53 306.428 -653.965)
(10330.2 1625.11 -16.3788 -992.127 308.265 -653.964)
(9432.96 3463.31 -69.6948 -94.9175 300.728 -653.965)
(7961.1 4883.82 -120.846 1376.89 284.061 -653.989)
(6092.29 5715.25 -168.355 3245.88 258.748 -653.895)
(4051.72 5857.34 -210.721 5286.43 225.591 -653.912)
(2085.57 5292.95 -246.7 7252.47 185.562 -653.96)
(431.126 4090.16 -275.165 8907.03 139.926 -653.911)
(-712.3 2394.03 -295.286 10050.3 90.0054 -653.999)
(-1206.53 409.158 -306.428 10544.6 37.3994 -653.965)
(-992.127 -1625.11 -308.265 10330.2 -16.3788 -653.964)
(-94.9175 -3463.31 -300.728 9432.96 -69.6948 -653.965)
(1376.89 -4883.82 -284.061 7961.1 -120.846 -653.989)
(3245.88 -5715.25 -258.748 6092.29 -168.355 -653.895)
(5286.43 -5857.34 -225.591 4051.72 -210.721 -653.912)
(7252.47 -5292.95 -185.562 2085.57 -246.7 -653.96)
(8907.03 -4090.16 -139.926 431.126 -275.165 -653.911)
(10050.3 -2394.03 -90.0054 -712.3 -295.286 -653.999)
(10544.6 -409.158 -37.3994 -1206.53 -306.428 -653.965)
(10330.2 1625.11 16.3788 -992.127 -308.265 -653.964)
(9432.96 3463.31 69.6948 -94.9175 -300.728 -653.966)
(7961.1 4883.82 120.846 1376.89 -284.061 -653.989)
(6092.29 5715.25 168.355 3245.88 -258.748 -653.895)
(4051.72 5857.34 210.721 5286.43 -225.591 -653.913)
(2085.57 5292.95 246.7 7252.47 -185.562 -653.96)
(431.125 4090.16 275.165 8907.03 -139.926 -653.912)
(-712.3 2394.03 295.286 10050.3 -90.0055 -653.999)
(-1206.53 409.158 306.428 10544.6 -37.3994 -653.964)
(-6997.13 -1546.55 1268.08 2356.07 -8023.29 -1487.9)
(-6186.17 -3052.77 2642.04 1545.07 -7681.19 -1487.94)
(-4908.93 -4190.77 3935.72 267.86 -7105.72 -1487.9)
(-3319.57 -4823.33 5109.83 -1321.66 -6314.33 -1487.98)
(-1609.59 -4874.11 6128.67 -3031.51 -5331.09 -1487.93)
(14.6209 -4337 6961.29 -4655.61 -4185.87 -1487.86)
(1357.13 -3276.77 7582.42 -5998.19 -2913.45 -1487.9)
(2256.09 -1821.34 7973.13 -6897.09 -1552.52 -1487.89)
(2603 -146.231 8121.59 -7244.02 -144.429 -1487.88)
(2356.07 1546.55 8023.29 -6997.13 1268.08 -1487.9)
(1545.07 3052.77 7681.19 -6186.17 2642.04 -1487.94)
(267.86 4190.77 7105.72 -4908.93 3935.72 -1487.9)
(-1321.66 4823.33 6314.33 -3319.57 5109.83 -1487.98)
(-3031.51 4874.11 5331.09 -1609.59 6128.67 -1487.93)
(-4655.61 4337 4185.87 14.6211 6961.29 -1487.86)
(-5998.19 3276.77 2913.45 1357.13 7582.42 -1487.9)
(-6897.09 1821.34 1552.52 2256.09 7973.13 -1487.89)
(-7244.02 146.231 144.429 2603 8121.59 -1487.88)
(-6997.13 -1546.55 -1268.08 2356.07 8023.29 -1487.9)
(-6186.17 -3052.77 -2642.04 1545.07 7681.19 -1487.94)
(-4908.93 -4190.77 -3935.72 267.86 7105.72 -1487.9)
(-3319.57 -4823.33 -5109.83 -1321.66 6314.33 -1487.98)
(-1609.59 -4874.11 -6128.67 -3031.51 5331.09 -1487.93)
(14.621 -4337 -6961.29 -4655.61 4185.87 -1487.86)
(1357.13 -3276.77 -7582.42 -5998.19 2913.45 -1487.9)
(2256.09 -1821.34 -7973.13 -6897.09 1552.52 -1487.89)
(2603 -146.231 -8121.59 -7244.02 144.429 -1487.88)
(2356.07 1546.55 -8023.29 -6997.13 -1268.08 -1487.9)
(1545.07 3052.77 -7681.19 -6186.17 -2642.04 -1487.94)
(267.86 4190.77 -7105.72 -4908.93 -3935.72 -1487.9)
(-1321.66 4823.33 -6314.33 -3319.57 -5109.83 -1487.98)
(-3031.51 4874.11 -5331.09 -1609.59 -6128.67 -1487.93)
(-4655.61 4337 -4185.87 14.6209 -6961.29 -1487.86)
(-5998.19 3276.77 -2913.45 1357.13 -7582.42 -1487.9)
(-6897.09 1821.34 -1552.52 2256.09 -7973.13 -1487.89)
(-7244.02 146.231 -144.429 2603 -8121.59 -1487.88)
(2208.96 -934.019 -153.1 7574.19 4498.49 8459.23)
(2690.09 -1795.21 -931.946 7092.83 4403.56 8459.13)
(3436.94 -2439.86 -1682.45 6346.18 4174.83 8459.22)
(4359.06 -2790.21 -2381.84 5423.88 3819.25 8459.19)
(5345.56 -2804.06 -3008.86 4437.54 3347.62 8459.18)
(6277.22 -2479.66 -3544.46 3505.9 2774.29 8459.27)
(7041.67 -1856.2 -3972.36 2741.28 2116.65 8459.13)
(7546.89 -1008.84 -4279.56 2236.13 1394.69 8459.19)
(7731.77 -39.82 -4456.73 2051.19 630.381 8459.14)
(7574.19 934.019 -4498.49 2208.96 -153.1 8459.23)
(7092.83 1795.21 -4403.56 2690.09 -931.946 8459.14)
(6346.18 2439.86 -4174.83 3436.94 -1682.45 8459.22)
(5423.88 2790.21 -3819.25 4359.06 -2381.84 8459.19)
(4437.54 2804.06 -3347.62 5345.56 -3008.86 8459.18)
(3505.9 2479.66 -2774.29 6277.22 -3544.46 8459.27)
(2741.28 1856.2 -2116.65 7041.67 -3972.36 8459.13)
(2236.13 1008.84 -1394.69 7546.89 -4279.56 8459.19)
(2051.19 39.82 -630.382 7731.77 -4456.73 8459.14)
(2208.96 -934.019 153.1 7574.19 -4498.49 8459.23)
(2690.09 -1795.21 931.946 7092.83 -4403.56 8459.14)
(3436.94 -2439.86 1682.45 6346.18 -4174.83 8459.22)
(4359.06 -2790.21 2381.84 5423.88 -3819.25 8459.19)
(5345.56 -2804.06 3008.86 4437.54 -3347.62 8459.18)
(6277.22 -2479.66 3544.46 3505.9 -2774.29 8459.27)
(7041.67 -1856.2 3972.36 2741.28 -2116.65 8459.13)
(7546.89 -1008.84 4279.56 2236.13 -1394.69 8459.19)
(7731.77 -39.82 4456.73 2051.19 -630.381 8459.14)
(7574.19 934.019 4498.49 2208.96 153.1 8459.23)
(7092.83 1795.21 4403.56 2690.09 931.946 8459.13)
(6346.18 2439.86 4174.83 3436.94 1682.45 8459.22)
(5423.88 2790.21 3819.25 4359.06 2381.84 8459.19)
(4437.54 2804.06 3347.62 5345.56 3008.86 8459.18)
(3505.9 2479.66 2774.29 6277.22 3544.46 8459.27)
(2741.28 1856.2 2116.65 7041.67 3972.36 8459.13)
(2236.13 1008.84 1394.69 7546.89 4279.56 8459.19)
(2051.19 39.82 630.381 7731.77 4456.73 8459.14)
(-617.269 -1721.68 361.371 10243.3 48.5157 -256.974)
(299.157 -3475.1 347.45 9327.02 110.553 -256.87)
(1759.84 -4809.38 322.974 7866.14 169.206 -256.972)
(3588.94 -5563.57 288.685 6037.2 222.721 -256.89)
(5565.6 -5646.73 245.65 4060.48 269.443 -256.928)
(7451.46 -5048.79 195.099 2174.5 308.025 -256.981)
(9019.19 -3841.91 138.649 606.923 337.225 -256.9)
(10079.5 -2171.62 77.9948 -453.489 356.175 -256.958)
(10504.7 -239.428 14.9741 -878.552 364.307 -256.895)
(10243.3 1721.68 -48.5158 -617.269 361.371 -256.974)
(9327.02 3475.1 -110.542 299.157 347.454 -256.872)
(7866.14 4809.38 -169.206 1759.84 322.974 -256.972)
(6037.2 5563.57 -222.721 3588.94 288.685 -256.89)
(4060.48 5646.73 -269.443 5565.6 245.65 -256.928)
(2174.5 5048.79 -308.025 7451.46 195.099 -256.981)
(606.923 3841.91 -337.225 9019.19 138.649 -256.9)
(-453.489 2171.62 -356.175 10079.5 77.9948 -256.958)
(-878.552 239.428 -364.308 10504.7 14.9742 -256.895)
(-617.269 -1721.68 -361.371 10243.3 -48.5158 -256.974)
(299.157 -3475.1 -347.454 9327.02 -110.542 -256.872)
(1759.84 -4809.38 -322.974 7866.14 -169.206 -256.972)
(3588.94 -5563.57 -288.685 6037.2 -222.721 -256.89)
(5565.6 -5646.73 -245.65 4060.48 -269.443 -256.928)
(7451.46 -5048.79 -195.099 2174.5 -308.025 -256.981)
(9019.19 -3841.91 -138.649 606.923 -337.225 -256.9)
(10079.5 -2171.62 -77.9948 -453.489 -356.175 -256.958)
(10504.7 -239.428 -14.9742 -878.552 -364.307 -256.895)
(10243.3 1721.68 48.5158 -617.269 -361.371 -256.974)
(9327.02 3475.1 110.542 299.157 -347.454 -256.872)
(7866.14 4809.38 169.206 1759.84 -322.974 -256.972)
(6037.2 5563.57 222.721 3588.94 -288.685 -256.89)
(4060.48 5646.73 269.443 5565.6 -245.65 -256.928)
(2174.5 5048.79 308.025 7451.46 -195.099 -256.981)
(606.923 3841.91 337.225 9019.19 -138.649 -256.9)
(-453.489 2171.62 356.177 10079.5 -77.9834 -256.956)
(-878.552 239.428 364.307 10504.7 -14.9742 -256.895)
(-6702.44 -2131.23 1741.16 2039.94 -8112.37 -1186.51)
(-5709.96 -3497.73 3123.4 1047.36 -7686.77 -1186.58)
(-4309.8 -4442.36 4410.74 -352.586 -7027.62 -1186.47)
(-2671.11 -4851.18 5564.08 -1991.32 -6154.94 -1186.48)
(-991.422 -4674.87 6548.34 -3671.03 -5095.24 -1186.51)
(526.683 -3934.69 7333.64 -5189.13 -3880.72 -1186.49)
(1700.02 -2719.95 7896.1 -6362.58 -2548.29 -1186.56)
(2387.24 -1177.14 8218.64 -7049.65 -1138.45 -1186.49)
(2505.27 507.657 8291.47 -7167.72 306.002 -1186.49)
(2039.94 2131.23 8112.37 -6702.44 1741.16 -1186.51)
(1047.36 3497.73 7686.77 -5709.96 3123.4 -1186.58)
(-352.586 4442.36 7027.62 -4309.8 4410.74 -1186.47)
(-1991.32 4851.18 6154.94 -2671.11 5564.08 -1186.48)
(-3671.03 4674.87 5095.24 -991.422 6548.34 -1186.51)
(-5189.13 3934.69 3880.72 526.683 7333.64 -1186.49)
(-6362.58 2719.95 2548.29 1700.02 7896.1 -1186.56)
(-7049.65 1177.14 1138.45 2387.24 8218.64 -1186.49)
(-7167.72 -507.657 -306.002 2505.27 8291.47 -1186.49)
(-6702.44 -2131.23 -1741.16 2039.94 8112.37 -1186.51)
(-5709.96 -3497.73 -3123.4 1047.36 7686.77 -1186.58)
(-4309.8 -4442.36 -4410.74 -352.586 7027.62 -1186.47)
(-2671.11 -4851.18 -5564.08 -1991.32 6154.94 -1186.48)
(-991.422 -4674.87 -6548.34 -3671.03 5095.24 -1186.51)
(526.683 -3934.69 -7333.64 -5189.13 3880.72 -1186.49)
(1700.02 -2719.95 -7896.1 -6362.58 2548.29 -1186.56)
(2387.24 -1177.14 -8218.64 -7049.65 1138.45 -1186.49)
(2505.27 507.657 -8291.47 -7167.72 -306.002 -1186.49)
(2039.94 2131.23 -8112.37 -6702.44 -1741.16 -1186.51)
(1047.36 3497.73 -7686.77 -5709.96 -3123.4 -1186.58)
(-352.586 4442.36 -7027.62 -4309.8 -4410.74 -1186.47)
(-1991.32 4851.18 -6154.94 -2671.11 -5564.08 -1186.48)
(-3671.03 4674.87 -5095.24 -991.422 -6548.34 -1186.51)
(-5189.13 3934.69 -3880.72 526.683 -7333.64 -1186.49)
(-6362.58 2719.95 -2548.29 1700.02 -7896.1 -1186.56)
(-7049.65 1177.14 -1138.45 2387.24 -8218.64 -1186.49)
(-7167.72 -507.657 306.002 2505.27 -8291.47 -1186.49)
(2050.64 -775.026 79.6196 7291.73 4494.89 8469.21)
(2473.79 -1624.58 -702.128 6868.68 4440.42 8469.21)
(3161.91 -2278.19 -1462.55 6180.46 4251.04 8469.15)
(4032.16 -2656.99 -2178.51 5310.29 3932.49 8469.23)
(4979.42 -2715.32 -2828.27 4363.02 3494.46 8469.21)
(5889.56 -2446.16 -3392.12 3452.92 2950.24 8469.24)
(6652.71 -1881.96 -3852.88 2689.76 2316.4 8469.2)
(7176.84 -1090.74 -4196.59 2165.52 1612.14 8469.16)
(7398.78 -167.98 -4412.78 1943.61 858.927 8469.21)
(7291.73 775.026 -4494.89 2050.64 79.6196 8469.21)
(6868.68 1624.58 -4440.42 2473.79 -702.128 8469.21)
(6180.46 2278.19 -4251.04 3161.91 -1462.55 8469.15)
(5310.29 2656.99 -3932.49 4032.16 -2178.51 8469.23)
(4363.02 2715.32 -3494.46 4979.42 -2828.27 8469.21)
(3452.92 2446.16 -2950.24 5889.56 -3392.12 8469.24)
(2689.76 1881.96 -2316.4 6652.71 -3852.88 8469.2)
(2165.53 1090.74 -1612.14 7176.84 -4196.59 8469.16)
(1943.61 167.98 -858.927 7398.78 -4412.78 8469.22)
(2050.64 -775.026 -79.6197 7291.73 -4494.89 8469.21)
(2473.8 -1624.58 702.128 6868.68 -4440.42 8469.21)
(3161.92 -2278.19 1462.55 6180.46 -4251.04 8469.15)
(4032.16 -2656.99 2178.51 5310.29 -3932.49 8469.23)
(4979.42 -2715.32 2828.27 4363.02 -3494.46 8469.21)
(5889.56 -2446.16 3392.12 3452.92 -2950.24 8469.24)
(6652.71 -1881.96 3852.88 2689.76 -2316.4 8469.2)
(7176.84 -1090.74 4196.59 2165.52 -1612.14 8469.16)
(7398.78 -167.98 4412.78 1943.61 -858.927 8469.21)
(7291.73 775.026 4494.89 2050.64 -79.6196 8469.21)
(6868.68 1624.58 4440.42 2473.79 702.128 8469.21)
(6180.46 2278.19 4251.04 3161.91 1462.55 8469.15)
(5310.29 2656.99 3932.49 4032.16 2178.51 8469.23)
(4363.02 2715.32 3494.46 4979.42 2828.27 8469.21)
(3452.92 2446.16 2950.24 5889.56 3392.12 8469.24)
(2689.76 1881.96 2316.4 6652.71 3852.88 8469.2)
(2165.52 1090.74 1612.14 7176.84 4196.59 8469.15)
(1943.61 167.98 858.927 7398.78 4412.78 8469.21)
(-661.197 -1782.59 417.561 9733.02 66.5778 -329.769)
(261.867 -3452.6 399.656 8809.87 138.076 -329.811)
(1700.5 -4706.18 369.607 7371.27 205.377 -329.794)
(3481.13 -5392.12 328.32 5590.68 266.448 -329.766)
(5388.91 -5427.69 277.065 3682.85 319.413 -329.793)
(7193.85 -4808.61 217.39 1877.91 362.674 -329.792)
(8678.21 -3609.53 151.122 393.571 394.908 -329.788)
(9662.93 -1975.09 80.2515 -591.152 415.151 -329.79)
(10029.3 -102.423 6.94274 -957.453 422.778 -329.768)
(9733.01 1782.59 -66.5779 -661.198 417.561 -329.77)
(8809.87 3452.6 -138.076 261.867 399.656 -329.811)
(7371.27 4706.18 -205.377 1700.5 369.607 -329.792)
(5590.68 5392.12 -266.448 3481.13 328.32 -329.766)
(3682.85 5427.69 -319.414 5388.91 277.065 -329.793)
(1877.91 4808.61 -362.674 7193.85 217.39 -329.792)
(393.571 3609.53 -394.908 8678.21 151.122 -329.788)
(-591.152 1975.09 -415.151 9662.93 80.2515 -329.79)
(-957.453 102.423 -422.778 10029.3 6.94277 -329.768)
(-661.198 -1782.59 -417.561 9733.01 -66.5778 -329.77)
(261.867 -3452.6 -399.656 8809.87 -138.076 -329.811)
(1700.5 -4706.18 -369.607 7371.27 -205.377 -329.792)
(3481.13 -5392.12 -328.32 5590.68 -266.448 -329.766)
(5388.91 -5427.69 -277.065 3682.85 -319.414 -329.793)
(7193.85 -4808.61 -217.39 1877.91 -362.674 -329.792)
(8678.21 -3609.53 -151.122 393.571 -394.908 -329.788)
(9662.93 -1975.09 -80.2515 -591.152 -415.151 -329.79)
(10029.3 -102.423 -6.94275 -957.453 -422.778 -329.768)
(9733.01 1782.59 66.5778 -661.198 -417.561 -329.77)
(8809.87 3452.6 138.076 261.867 -399.656 -329.811)
(7371.27 4706.18 205.377 1700.5 -369.607 -329.792)
(5590.68 5392.12 266.448 3481.13 -328.32 -329.766)
(3682.85 5427.69 319.413 5388.91 -277.065 -329.793)
(1877.91 4808.61 362.674 7193.85 -217.39 -329.792)
(393.572 3609.53 394.908 8678.21 -151.122 -329.787)
(-591.152 1975.09 415.151 9662.93 -80.2516 -329.79)
(-957.454 102.423 422.778 10029.3 -6.94281 -329.769)
(-7182.12 -2681.87 2233.54 798.115 -8131.97 -1811.74)
(-6024.25 -3884.84 3611.71 -359.781 -7620.57 -1811.77)
(-4524.71 -4619.24 4880.14 -1859.25 -6877.63 -1811.73)
(-2864.5 -4796.48 6000.3 -3519.55 -5925.72 -1811.76)
(-1243.79 -4395.2 6938.11 -5140.3 -4793.75 -1811.81)
(142.038 -3463.8 7665.14 -6525.97 -3516.14 -1811.71)
(1125.57 -2114.6 8159.26 -7509.68 -2131.68 -1811.79)
(1588.5 -510.367 8405.46 -7972.47 -682.458 -1811.75)
(1474.73 1155.44 8396.28 -7858.75 787.51 -1811.75)
(798.114 2681.87 8131.97 -7182.12 2233.54 -1811.74)
(-359.781 3884.84 7620.57 -6024.25 3611.71 -1811.77)
(-1859.25 4619.24 6877.63 -4524.71 4880.14 -1811.73)
(-3519.55 4796.48 5925.72 -2864.5 6000.3 -1811.77)
(-5140.3 4395.2 4793.75 -1243.79 6938.11 -1811.81)
(-6525.97 3463.8 3516.14 142.038 7665.14 -1811.71)
(-7509.68 2114.6 2131.68 1125.57 8159.26 -1811.79)
(-7972.47 510.367 682.458 1588.5 8405.46 -1811.75)
(-7858.75 -1155.44 -787.51 1474.73 8396.28 -1811.75)
(-7182.12 -2681.87 -2233.54 798.114 8131.97 -1811.74)
(-6024.25 -3884.84 -3611.71 -359.781 7620.57 -1811.77)
(-4524.71 -4619.24 -4880.14 -1859.25 6877.63 -1811.73)
(-2864.5 -4796.48 -6000.3 -3519.55 5925.72 -1811.77)
(-1243.79 -4395.2 -6938.11 -5140.3 4793.75 -1811.81)
(142.038 -3463.8 -7665.14 -6525.97 3516.14 -1811.71)
(1125.57 -2114.6 -8159.26 -7509.68 2131.68 -1811.79)
(1588.5 -510.367 -8405.46 -7972.47 682.458 -1811.75)
(1474.73 1155.44 -8396.28 -7858.75 -787.51 -1811.75)
(798.114 2681.87 -8131.97 -7182.12 -2233.54 -1811.74)
(-359.781 3884.84 -7620.57 -6024.25 -3611.71 -1811.77)
(-1859.25 4619.24 -6877.63 -4524.71 -4880.14 -1811.73)
(-3519.55 4796.48 -5925.72 -2864.5 -6000.3 -1811.77)
(-5140.3 4395.2 -4793.75 -1243.79 -6938.11 -1811.81)
(-6525.97 3463.8 -3516.14 142.038 -7665.14 -1811.71)
(-7509.68 2114.6 -2131.68 1125.57 -8159.26 -1811.79)
(-7972.47 510.367 -682.458 1588.5 -8405.46 -1811.74)
(-7858.75 -1155.44 787.51 1474.73 -8396.28 -1811.75)
(1948.7 -569.665 343.929 7002.2 4492.34 8460.55)
(2295.99 -1399.51 -441.385 6655.07 4483.81 8460.59)
(2905.98 -2060.56 -1213.29 6044.84 4339.05 8460.5)
(3705.49 -2473.08 -1948.34 5245.53 4062.43 8460.57)
(4597.7 -2587.28 -2624.17 4353.19 3662.4 8460.57)
(5475.23 -2389.45 -3220.26 3475.66 3151.08 8460.5)
(6232.27 -1903.4 -3718.51 2718.82 2544.02 8460.62)
(6777.18 -1187.77 -4103.79 2173.6 1859.65 8460.46)
(7044.7 -328.878 -4364.37 1906.28 1118.78 8460.59)
(7002.2 569.665 -4492.34 1948.7 343.929 8460.55)
(6655.07 1399.51 -4483.81 2295.99 -441.385 8460.59)
(6044.84 2060.56 -4339.05 2905.98 -1213.29 8460.5)
(5245.53 2473.08 -4062.43 3705.5 -1948.34 8460.57)
(4353.19 2587.28 -3662.4 4597.7 -2624.17 8460.57)
(3475.66 2389.45 -3151.08 5475.23 -3220.26 8460.5)
(2718.82 1903.4 -2544.02 6232.27 -3718.51 8460.62)
(2173.6 1187.77 -1859.65 6777.18 -4103.79 8460.46)
(1906.28 328.878 -1118.78 7044.7 -4364.37 8460.59)
(1948.7 -569.665 -343.929 7002.2 -4492.34 8460.55)
(2295.99 -1399.51 441.384 6655.07 -4483.81 8460.59)
(2905.98 -2060.56 1213.29 6044.84 -4339.05 8460.5)
(3705.5 -2473.08 1948.34 5245.53 -4062.43 8460.57)
(4597.7 -2587.28 2624.17 4353.19 -3662.4 8460.57)
(5475.23 -2389.45 3220.26 3475.66 -3151.08 8460.5)
(6232.27 -1903.4 3718.51 2718.82 -2544.02 8460.62)
(6777.18 -1187.77 4103.79 2173.6 -1859.65 8460.46)
(7044.7 -328.878 4364.37 1906.28 -1118.78 8460.59)
(7002.2 569.665 4492.34 1948.7 -343.929 8460.55)
(6655.07 1399.51 4483.81 2295.99 441.385 8460.59)
(6044.84 2060.56 4339.05 2905.98 1213.29 8460.5)
(5245.53 2473.08 4062.43 3705.49 1948.34 8460.57)
(4353.19 2587.28 3662.4 4597.7 2624.17 8460.57)
(3475.66 2389.45 3151.08 5475.23 3220.26 8460.5)
(2718.82 1903.4 2544.02 6232.27 3718.51 8460.62)
(2173.6 1187.77 1859.65 6777.18 4103.79 8460.46)
(1906.28 328.878 1118.78 7044.7 4364.37 8460.59)
(-618.931 -1799.31 464.775 9270.22 125.871 -359.424)
(294.546 -3381.94 435.855 8356.51 204.666 -359.543)
(1694.48 -4556.67 393.699 6956.86 277.232 -359.405)
(3411.55 -5181.79 339.582 5239.6 341.377 -359.506)
(5238.96 -5181.9 275.12 3412.25 395.182 -359.457)
(6956.24 -4557.02 202.348 1695.08 436.935 -359.417)
(8356.11 -3382.47 123.389 295.024 465.438 -359.509)
(9270 -1799.96 40.6813 -618.676 479.797 -359.408)
(9587.38 -0.338056 -43.2518 -936.192 479.571 -359.479)
(9270.22 1799.31 -125.871 -618.931 464.775 -359.424)
(8356.51 3381.94 -204.666 294.547 435.855 -359.542)
(6956.86 4556.67 -277.232 1694.48 393.699 -359.405)
(5239.6 5181.79 -341.377 3411.55 339.582 -359.507)
(3412.25 5181.9 -395.182 5238.96 275.12 -359.457)
(1695.08 4557.02 -436.935 6956.24 202.348 -359.417)
(295.024 3382.47 -465.438 8356.11 123.389 -359.509)
(-618.676 1799.96 -479.797 9270 40.6813 -359.408)
(-936.192 0.338054 -479.571 9587.38 -43.2518 -359.479)
(-618.931 -1799.31 -464.775 9270.22 -125.871 -359.424)
(294.547 -3381.94 -435.855 8356.51 -204.666 -359.542)
(1694.48 -4556.67 -393.699 6956.86 -277.232 -359.404)
(3411.55 -5181.79 -339.582 5239.6 -341.377 -359.507)
(5238.96 -5181.9 -275.12 3412.25 -395.182 -359.457)
(6956.24 -4557.02 -202.348 1695.08 -436.935 -359.417)
(8356.11 -3382.47 -123.389 295.024 -465.438 -359.509)
(9270 -1799.96 -40.6813 -618.676 -479.797 -359.408)
(9587.38 -0.338034 43.2518 -936.192 -479.571 -359.479)
(9270.22 1799.31 125.871 -618.931 -464.775 -359.424)
(8356.51 3381.94 204.666 294.547 -435.855 -359.542)
(6956.86 4556.67 277.232 1694.48 -393.699 -359.405)
(5239.6 5181.79 341.377 3411.55 -339.582 -359.507)
(3412.25 5181.9 395.182 5238.96 -275.12 -359.457)
(1695.08 4557.02 436.935 6956.24 -202.348 -359.417)
(295.024 3382.47 465.438 8356.11 -123.389 -359.509)
(-618.676 1799.96 479.797 9270 -40.6813 -359.408)
(-936.192 0.338054 479.571 9587.38 43.2517 -359.479)
(-7375.52 -3155.2 2705.92 -301.643 -8045.07 -2323.89)
(-6083 -4174.63 4061.84 -1594.04 -7452.97 -2323.8)
(-4519.87 -4690.53 5294.32 -3157.24 -6634.4 -2323.87)
(-2874.54 -4640.67 6365.95 -4802.61 -5614.27 -2323.86)
(-1345.43 -4031.09 7244.13 -6331.61 -4423.54 -2323.82)
(-117.137 -2935.3 7902.22 -7560.04 -3098.41 -2323.87)
(662.422 -1485.47 8320.2 -8339.49 -1679.13 -2323.84)
(898.953 143.531 8485.38 -8576.19 -208.838 -2323.9)
(564.248 1755.23 8392.73 -8241.31 1267.82 -2323.83)
(-301.644 3155.2 8045.07 -7375.52 2705.92 -2323.89)
(-1594.04 4174.63 7452.97 -6083 4061.84 -2323.8)
(-3157.25 4690.53 6634.41 -4519.87 5294.33 -2323.86)
(-4802.61 4640.67 5614.27 -2874.54 6365.95 -2323.86)
(-6331.61 4031.09 4423.54 -1345.43 7244.13 -2323.82)
(-7560.04 2935.3 3098.41 -117.136 7902.22 -2323.87)
(-8339.49 1485.47 1679.13 662.422 8320.2 -2323.84)
(-8576.19 -143.531 208.838 898.953 8485.38 -2323.9)
(-8241.31 -1755.23 -1267.82 564.248 8392.73 -2323.83)
(-7375.52 -3155.2 -2705.92 -301.644 8045.07 -2323.89)
(-6083 -4174.63 -4061.84 -1594.04 7452.97 -2323.8)
(-4519.87 -4690.53 -5294.33 -3157.25 6634.41 -2323.86)
(-2874.54 -4640.67 -6365.95 -4802.61 5614.27 -2323.86)
(-1345.43 -4031.1 -7244.13 -6331.61 4423.54 -2323.82)
(-117.136 -2935.3 -7902.22 -7560.04 3098.41 -2323.87)
(662.423 -1485.47 -8320.2 -8339.49 1679.13 -2323.84)
(898.953 143.531 -8485.38 -8576.19 208.838 -2323.9)
(564.248 1755.23 -8392.73 -8241.31 -1267.82 -2323.83)
(-301.644 3155.2 -8045.07 -7375.52 -2705.92 -2323.89)
(-1594.04 4174.63 -7452.97 -6083 -4061.84 -2323.8)
(-3157.25 4690.53 -6634.41 -4519.87 -5294.33 -2323.86)
(-4802.61 4640.67 -5614.27 -2874.54 -6365.95 -2323.86)
(-6331.61 4031.1 -4423.54 -1345.43 -7244.13 -2323.82)
(-7560.04 2935.3 -3098.41 -117.136 -7902.22 -2323.87)
(-8339.49 1485.47 -1679.13 662.423 -8320.2 -2323.84)
(-8576.19 -143.531 -208.838 898.953 -8485.38 -2323.9)
(-8241.31 -1755.23 1267.82 564.248 -8392.73 -2323.83)
(1763.17 -311.412 628.336 6557.65 4494.78 8269.89)
(2014.35 -1112.53 -161.716 6306.67 4535.61 8269.98)
(2524.18 -1779.45 -946.852 5796.62 4438.62 8269.91)
(3231.54 -2231.78 -1703.23 5089.41 4206.76 8269.94)
(4050.84 -2414.9 -2407.86 4270.02 3847.09 8269.91)
(4883.38 -2306.75 -3039.32 3437.46 3370.52 8269.87)
(5628.75 -1920.36 -3578.42 2692.15 2791.55 8269.95)
(6196.93 -1302.36 -4008.81 2123.81 2127.76 8269.86)
(6519.66 -527.274 -4317.39 1801.3 1399.3 8269.95)
(6557.65 311.412 -4494.78 1763.17 628.336 8269.89)
(6306.67 1112.53 -4535.61 2014.35 -161.716 8269.98)
(5796.62 1779.45 -4438.62 2524.18 -946.852 8269.92)
(5089.41 2231.78 -4206.76 3231.54 -1703.23 8269.94)
(4270.02 2414.9 -3847.09 4050.84 -2407.86 8269.91)
(3437.46 2306.75 -3370.52 4883.38 -3039.32 8269.87)
(2692.15 1920.36 -2791.55 5628.75 -3578.42 8269.95)
(2123.81 1302.36 -2127.76 6196.93 -4008.81 8269.86)
(1801.3 527.274 -1399.3 6519.66 -4317.39 8269.95)
(1763.17 -311.412 -628.336 6557.65 -4494.78 8269.89)
(2014.35 -1112.53 161.716 6306.67 -4535.61 8269.99)
(2524.18 -1779.45 946.852 5796.62 -4438.62 8269.92)
(3231.54 -2231.78 1703.23 5089.41 -4206.76 8269.94)
(4050.84 -2414.9 2407.86 4270.02 -3847.09 8269.91)