/*--------------------------------*- C++ -*----------------------------------*\
| =========                 |                                                 |
| \\      /  F ield         | OpenFOAM: The Open Source CFD Toolbox           |
|  \\    /   O peration     | Version:  2312                                  |
|   \\  /    A nd           | Website:  www.openfoam.com                      |
|    \\/     M anipulation  |                                                 |
\*---------------------------------------------------------------------------*/
FoamFile
{
    version     2.0;
    format      ascii;
    arch        "LSB;label=32;scalar=64";
    class       volVectorField;
    location    "0.2";
    object      traction;
}
// * * * * * * * * * * * * * * * * * * * * * * * * * * * * * * * * * * * * * //

dimensions      [1 -1 -2 0 0 0 0];

internalField   uniform (0 0 0);

boundaryField
{
    fixed
    {
        type            calculated;
        value           nonuniform List<vector> 
108
(
(574.029 -1529.95 9344.62)
(830.982 -1407.03 9344.64)
(1062.69 -1241.35 9344.63)
(1262.1 -1037.96 9344.55)
(1423.16 -803.031 9344.55)
(1540.99 -543.702 9344.59)
(1611.99 -267.853 9344.59)
(1634.01 16.1368 9344.61)
(1606.38 299.635 9344.63)
(1529.95 574.029 9344.62)
(1407.03 830.982 9344.64)
(1241.35 1062.69 9344.63)
(1037.96 1262.1 9344.55)
(803.031 1423.16 9344.55)
(543.702 1540.99 9344.59)
(267.853 1611.99 9344.59)
(-16.1369 1634.01 9344.61)
(-299.635 1606.38 9344.63)
(-574.029 1529.95 9344.62)
(-830.982 1407.03 9344.64)
(-1062.69 1241.35 9344.63)
(-1262.1 1037.96 9344.55)
(-1423.16 803.031 9344.55)
(-1540.99 543.702 9344.59)
(-1611.99 267.853 9344.59)
(-1634.01 -16.1368 9344.61)
(-1606.38 -299.635 9344.63)
(-1529.95 -574.029 9344.62)
(-1407.03 -830.982 9344.64)
(-1241.35 -1062.69 9344.63)
(-1037.96 -1262.1 9344.55)
(-803.031 -1423.16 9344.55)
(-543.702 -1540.99 9344.59)
(-267.853 -1611.99 9344.59)
(16.1368 -1634.01 9344.61)
(299.635 -1606.38 9344.63)
(528.106 -1494.56 6869.6)
(779.611 -1380.15 6869.6)
(1007.43 -1223.8 6869.56)
(1204.64 -1030.27 6869.6)
(1365.24 -805.44 6869.58)
(1484.36 -556.133 6869.56)
(1558.38 -289.928 6869.6)
(1585.05 -14.9124 6869.59)
(1563.56 260.555 6869.57)
(1494.56 528.106 6869.6)
(1380.15 779.611 6869.6)
(1223.8 1007.43 6869.56)
(1030.27 1204.64 6869.6)
(805.44 1365.24 6869.58)
(556.133 1484.36 6869.56)
(289.928 1558.38 6869.6)
(14.9124 1585.05 6869.59)
(-260.555 1563.56 6869.57)
(-528.106 1494.56 6869.6)
(-779.611 1380.15 6869.6)
(-1007.43 1223.8 6869.56)
(-1204.64 1030.27 6869.6)
(-1365.24 805.44 6869.58)
(-1484.36 556.133 6869.56)
(-1558.38 289.928 6869.6)
(-1585.05 14.9124 6869.59)
(-1563.56 -260.555 6869.57)
(-1494.56 -528.106 6869.6)
(-1380.15 -779.611 6869.6)
(-1223.8 -1007.43 6869.56)
(-1030.27 -1204.64 6869.6)
(-805.44 -1365.24 6869.58)
(-556.133 -1484.36 6869.55)
(-289.928 -1558.38 6869.59)
(-14.9124 -1585.05 6869.59)
(260.555 -1563.56 6869.57)
(476.263 -1450.98 2823.27)
(720.987 -1346.23 2823.28)
(943.806 -1200.58 2823.22)
(1137.95 -1018.45 2823.2)
(1297.51 -805.379 2823.25)
(1417.65 -567.833 2823.24)
(1494.72 -313.034 2823.27)
(1526.37 -48.7223 2823.22)
(1511.64 217.068 2823.26)
(1450.98 476.263 2823.27)
(1346.23 720.987 2823.29)
(1200.58 943.806 2823.22)
(1018.45 1137.95 2823.2)
(805.379 1297.51 2823.25)
(567.833 1417.65 2823.24)
(313.034 1494.72 2823.27)
(48.7223 1526.37 2823.22)
(-217.068 1511.64 2823.26)
(-476.263 1450.98 2823.28)
(-720.987 1346.23 2823.29)
(-943.806 1200.58 2823.22)
(-1137.95 1018.45 2823.2)
(-1297.51 805.379 2823.25)
(-1417.65 567.833 2823.24)
(-1494.72 313.034 2823.27)
(-1526.37 48.7223 2823.22)
(-1511.64 -217.068 2823.26)
(-1450.98 -476.263 2823.27)
(-1346.23 -720.987 2823.28)
(-1200.58 -943.806 2823.22)
(-1018.45 -1137.95 2823.2)
(-805.379 -1297.51 2823.25)
(-567.833 -1417.65 2823.24)
(-313.034 -1494.72 2823.27)
(-48.7223 -1526.37 2823.22)
(217.068 -1511.64 2823.26)
)
;
    }
    inside
    {
        type            calculated;
        value           nonuniform List<vector> 
540
(
(-2337.74 -349.828 -276.627)
(-2241.52 -750.377 -276.625)
(-2077.05 -1128.29 -276.619)
(-1849.61 -1471.74 -276.625)
(-1565.95 -1770.63 -276.62)
(-1234.66 -2015.66 -276.621)
(-865.988 -2199.42 -276.626)
(-470.772 -2316.36 -276.618)
(-61.4844 -2362.96 -276.63)
(349.828 -2337.74 -276.627)
(750.377 -2241.52 -276.625)
(1128.3 -2077.05 -276.619)
(1471.74 -1849.61 -276.625)
(1770.63 -1565.95 -276.62)
(2015.66 -1234.66 -276.621)
(2199.42 -865.988 -276.626)
(2316.36 -470.772 -276.618)
(2362.96 -61.4844 -276.63)
(2337.74 349.828 -276.627)
(2241.52 750.378 -276.625)
(2077.05 1128.3 -276.619)
(1849.61 1471.74 -276.625)
(1565.95 1770.63 -276.62)
(1234.66 2015.66 -276.621)
(865.988 2199.42 -276.626)
(470.772 2316.36 -276.618)
(61.4844 2362.96 -276.63)
(-349.828 2337.74 -276.627)
(-750.377 2241.52 -276.625)
(-1128.29 2077.05 -276.619)
(-1471.74 1849.61 -276.625)
(-1770.62 1565.95 -276.62)
(-2015.66 1234.66 -276.621)
(-2199.42 865.988 -276.626)
(-2316.36 470.772 -276.618)
(-2362.96 61.4843 -276.63)
(6228.9 529.157 -324.134)
(6042.39 1602.79 -324.166)
(5672.26 2627.66 -324.151)
(5129.85 3572.79 -324.133)
(4431.47 4409.25 -324.132)
(3598.47 5111.72 -324.13)
(2656.17 5658.97 -324.143)
(1633.16 6034.2 -324.149)
(560.486 6226.13 -324.167)
(-529.157 6228.9 -324.134)
(-1602.79 6042.39 -324.166)
(-2627.66 5672.26 -324.151)
(-3572.79 5129.85 -324.133)
(-4409.25 4431.47 -324.132)
(-5111.72 3598.47 -324.13)
(-5658.97 2656.17 -324.143)
(-6034.2 1633.16 -324.149)
(-6226.13 560.486 -324.167)
(-6228.9 -529.157 -324.134)
(-6042.39 -1602.79 -324.166)
(-5672.26 -2627.66 -324.151)
(-5129.85 -3572.79 -324.133)
(-4431.47 -4409.25 -324.132)
(-3598.47 -5111.72 -324.13)
(-2656.17 -5658.97 -324.143)
(-1633.16 -6034.2 -324.149)
(-560.486 -6226.13 -324.167)
(529.157 -6228.9 -324.134)
(1602.79 -6042.39 -324.166)
(2627.66 -5672.26 -324.151)
(3572.79 -5129.85 -324.133)
(4409.25 -4431.47 -324.132)
(5111.72 -3598.47 -324.13)
(5658.97 -2656.17 -324.143)
(6034.21 -1633.16 -324.149)
(6226.13 -560.486 -324.167)
(6031.36 306.323 -406.787)
(5886.59 1349.04 -406.781)
(5562.82 2350.67 -406.79)
(5070.13 3280.94 -406.809)
(4423.38 4111.53 -406.804)
(3642.22 4817.17 -406.803)
(2750.4 5376.51 -406.795)
(1774.99 5772.36 -406.769)
(745.663 5992.9 -406.795)
(-306.323 6031.36 -406.787)
(-1349.04 5886.59 -406.781)
(-2350.67 5562.82 -406.79)
(-3280.94 5070.13 -406.809)
(-4111.53 4423.38 -406.804)
(-4817.17 3642.22 -406.803)
(-5376.51 2750.4 -406.795)
(-5772.36 1774.99 -406.769)
(-5992.9 745.663 -406.795)
(-6031.36 -306.323 -406.787)
(-5886.59 -1349.04 -406.781)
(-5562.82 -2350.67 -406.79)
(-5070.13 -3280.94 -406.809)
(-4423.38 -4111.53 -406.804)
(-3642.22 -4817.17 -406.803)
(-2750.4 -5376.51 -406.795)
(-1774.99 -5772.36 -406.769)
(-745.663 -5992.9 -406.795)
(306.323 -6031.36 -406.787)
(1349.04 -5886.59 -406.781)
(2350.67 -5562.82 -406.79)
(3280.94 -5070.13 -406.809)
(4111.53 -4423.38 -406.804)
(4817.17 -3642.22 -406.803)
(5376.51 -2750.4 -406.795)
(5772.36 -1774.99 -406.769)
(5992.9 -745.663 -406.795)
(6615.6 388.236 -541.405)
(6447.7 1531.13 -541.405)
(6083.84 2627.47 -541.399)
(5535.18 3644.04 -541.392)
(4818.33 4549.87 -541.402)
(3955.02 5317.36 -541.393)
(2971.59 5923.45 -541.405)
(1897.86 6349.41 -541.413)
(766.463 6582.52 -541.386)
(-388.236 6615.6 -541.405)
(-1531.13 6447.7 -541.405)
(-2627.47 6083.84 -541.399)
(-3644.04 5535.18 -541.392)
(-4549.87 4818.33 -541.402)
(-5317.36 3955.02 -541.393)
(-5923.45 2971.59 -541.405)
(-6349.41 1897.86 -541.413)
(-6582.52 766.463 -541.386)
(-6615.6 -388.236 -541.405)
(-6447.7 -1531.13 -541.405)
(-6083.84 -2627.47 -541.399)
(-5535.18 -3644.04 -541.392)
(-4818.33 -4549.87 -541.402)
(-3955.02 -5317.36 -541.393)
(-2971.59 -5923.45 -541.405)
(-1897.86 -6349.41 -541.413)
(-766.463 -6582.52 -541.386)
(388.236 -6615.6 -541.405)
(1531.13 -6447.7 -541.405)
(2627.47 -6083.84 -541.399)
(3644.04 -5535.18 -541.392)
(4549.87 -4818.33 -541.402)
(5317.36 -3955.02 -541.393)
(5923.45 -2971.59 -541.405)
(6349.4 -1897.86 -541.413)
(6582.52 -766.463 -541.386)
(6937.57 507.565 -703.666)
(6743.98 1704.5 -703.631)
(6345.57 2849.74 -703.653)
(5754.32 3908.34 -703.653)
(4988.2 4848.14 -703.645)
(4070.57 5640.74 -703.658)
(3029.23 6261.84 -703.647)
(1895.82 6692.82 -703.656)
(704.855 6920.27 -703.64)
(-507.566 6937.57 -703.666)
(-1704.5 6743.98 -703.631)
(-2849.74 6345.57 -703.653)
(-3908.34 5754.32 -703.653)
(-4848.14 4988.2 -703.645)
(-5640.74 4070.57 -703.658)
(-6261.84 3029.23 -703.647)
(-6692.82 1895.82 -703.656)
(-6920.27 704.855 -703.64)
(-6937.57 -507.566 -703.667)
(-6743.98 -1704.5 -703.631)
(-6345.57 -2849.74 -703.653)
(-5754.32 -3908.34 -703.653)
(-4988.2 -4848.14 -703.645)
(-4070.57 -5640.74 -703.658)
(-3029.23 -6261.84 -703.647)
(-1895.82 -6692.82 -703.656)
(-704.855 -6920.27 -703.64)
(507.566 -6937.57 -703.666)
(1704.5 -6743.98 -703.631)
(2849.74 -6345.57 -703.653)
(3908.34 -5754.32 -703.653)
(4848.14 -4988.2 -703.645)
(5640.74 -4070.57 -703.658)
(6261.84 -3029.23 -703.647)
(6692.82 -1895.82 -703.656)
(6920.26 -704.855 -703.639)
(7013.62 597.461 -896.234)
(6803.25 1806.23 -896.223)
(6386.33 2960.27 -896.236)
(5775.2 4024.17 -896.243)
(4988.71 4965.95 -896.253)
(4050.6 5756.83 -896.253)
(2989.4 6372.69 -896.251)
(1837.37 6795.04 -896.251)
(629.514 7010.82 -896.221)
(-597.461 7013.62 -896.234)
(-1806.23 6803.25 -896.223)
(-2960.27 6386.33 -896.236)
(-4024.17 5775.2 -896.243)
(-4965.95 4988.71 -896.253)
(-5756.83 4050.6 -896.253)
(-6372.68 2989.4 -896.252)
(-6795.04 1837.37 -896.251)
(-7010.82 629.514 -896.221)
(-7013.62 -597.461 -896.234)
(-6803.25 -1806.23 -896.223)
(-6386.33 -2960.27 -896.236)
(-5775.2 -4024.17 -896.243)
(-4988.71 -4965.95 -896.253)
(-4050.6 -5756.83 -896.253)
(-2989.4 -6372.68 -896.251)
(-1837.37 -6795.04 -896.251)
(-629.514 -7010.82 -896.221)
(597.461 -7013.62 -896.234)
(1806.23 -6803.25 -896.223)
(2960.27 -6386.33 -896.236)
(4024.17 -5775.2 -896.243)
(4965.95 -4988.71 -896.253)
(5756.83 -4050.6 -896.253)
(6372.68 -2989.4 -896.251)
(6795.04 -1837.37 -896.251)
(7010.82 -629.514 -896.221)
(6740.54 496.715 -1094.4)
(6551.77 1659.55 -1094.37)
(6164.09 2772.09 -1094.37)
(5589.06 3800.33 -1094.34)
(4844.24 4713.15 -1094.36)
(3952.22 5482.78 -1094.36)
(2940.11 6085.71 -1094.36)
(1838.65 6503.91 -1094.4)
(681.407 6724.18 -1094.37)
(-496.715 6740.54 -1094.4)
(-1659.55 6551.77 -1094.37)
(-2772.09 6164.09 -1094.37)
(-3800.33 5589.06 -1094.34)
(-4713.15 4844.24 -1094.36)
(-5482.78 3952.22 -1094.36)
(-6085.71 2940.11 -1094.36)
(-6503.91 1838.65 -1094.4)
(-6724.18 681.407 -1094.37)
(-6740.54 -496.715 -1094.4)
(-6551.77 -1659.55 -1094.37)
(-6164.09 -2772.09 -1094.37)
(-5589.06 -3800.33 -1094.34)
(-4844.24 -4713.15 -1094.36)
(-3952.22 -5482.78 -1094.36)
(-2940.11 -6085.71 -1094.36)
(-1838.65 -6503.91 -1094.4)
(-681.407 -6724.18 -1094.37)
(496.715 -6740.54 -1094.39)
(1659.55 -6551.77 -1094.37)
(2772.09 -6164.09 -1094.37)
(3800.33 -5589.06 -1094.34)
(4713.15 -4844.24 -1094.36)
(5482.78 -3952.22 -1094.36)
(6085.71 -2940.11 -1094.36)
(6503.91 -1838.65 -1094.4)
(6724.18 -681.407 -1094.37)
(6039.8 -2.62585 -1242.69)
(5948.47 1046.18 -1242.67)
(5676.43 2063.22 -1242.71)
(5231.92 3017.57 -1242.69)
(4628.44 3880.28 -1242.7)
(3884.33 4625.12 -1242.72)
(3022.17 5229.33 -1242.7)
(2068.2 5674.67 -1242.7)
(1051.39 5947.6 -1242.69)
(2.62585 6039.8 -1242.69)
(-1046.18 5948.47 -1242.67)
(-2063.22 5676.43 -1242.71)
(-3017.57 5231.92 -1242.69)
(-3880.28 4628.44 -1242.7)
(-4625.12 3884.33 -1242.72)
(-5229.33 3022.17 -1242.7)
(-5674.67 2068.2 -1242.7)
(-5947.6 1051.39 -1242.69)
(-6039.8 2.6259 -1242.69)
(-5948.47 -1046.18 -1242.67)
(-5676.43 -2063.22 -1242.71)
(-5231.92 -3017.57 -1242.69)
(-4628.44 -3880.28 -1242.7)
(-3884.33 -4625.12 -1242.72)
(-3022.17 -5229.33 -1242.7)
(-2068.2 -5674.67 -1242.7)
(-1051.39 -5947.6 -1242.69)
(-2.62574 -6039.8 -1242.69)
(1046.18 -5948.47 -1242.67)
(2063.22 -5676.43 -1242.71)
(3017.57 -5231.92 -1242.69)
(3880.28 -4628.44 -1242.7)
(4625.12 -3884.33 -1242.72)
(5229.33 -3022.17 -1242.7)
(5674.67 -2068.2 -1242.7)
(5947.6 -1051.39 -1242.69)
(4851.73 -1135.63 -1242.29)
(4975.28 -275.809 -1242.28)
(4947.58 592.315 -1242.28)
(4769.59 1442.54 -1242.31)
(4446.63 2248.82 -1242.31)
(3988.58 2986.76 -1242.3)
(3409.34 3633.99 -1242.28)
(2726.5 4170.82 -1242.29)
(1960.78 4580.99 -1242.31)
(1135.63 4851.73 -1242.29)
(275.809 4975.28 -1242.28)
(-592.315 4947.58 -1242.28)
(-1442.54 4769.59 -1242.31)
(-2248.82 4446.63 -1242.31)
(-2986.76 3988.58 -1242.3)
(-3633.99 3409.34 -1242.28)
(-4170.82 2726.5 -1242.29)
(-4580.99 1960.78 -1242.31)
(-4851.73 1135.63 -1242.29)
(-4975.28 275.809 -1242.28)
(-4947.58 -592.315 -1242.28)
(-4769.59 -1442.54 -1242.31)
(-4446.63 -2248.82 -1242.31)
(-3988.58 -2986.76 -1242.3)
(-3409.34 -3633.99 -1242.28)
(-2726.5 -4170.82 -1242.29)
(-1960.78 -4580.99 -1242.31)
(-1135.63 -4851.73 -1242.29)
(-275.809 -4975.28 -1242.28)
(592.316 -4947.58 -1242.28)
(1442.54 -4769.59 -1242.31)
(2248.82 -4446.63 -1242.31)
(2986.76 -3988.58 -1242.3)
(3633.99 -3409.34 -1242.28)
(4170.82 -2726.5 -1242.29)
(4580.99 -1960.78 -1242.31)
(3175.94 -3083.74 -944.058)
(3663.21 -2485.36 -944.073)
(4039.13 -1811.52 -944.056)
(4292.33 -1082.57 -944.061)
(4415.11 -320.79 -944.05)
(4403.75 450.723 -944.047)
(4258.57 1208.58 -944.06)
(3984 1929.72 -944.064)
(3588.36 2592.27 -944.07)
(3083.74 3175.94 -944.058)
(2485.36 3663.21 -944.073)
(1811.52 4039.13 -944.056)
(1082.57 4292.33 -944.061)
(320.79 4415.11 -944.05)
(-450.723 4403.75 -944.047)
(-1208.58 4258.57 -944.06)
(-1929.72 3984 -944.064)
(-2592.27 3588.36 -944.07)
(-3175.94 3083.74 -944.058)
(-3663.21 2485.36 -944.073)
(-4039.13 1811.52 -944.056)
(-4292.33 1082.57 -944.061)
(-4415.11 320.789 -944.05)
(-4403.75 -450.724 -944.048)
(-4258.57 -1208.58 -944.06)
(-3984 -1929.73 -944.064)
(-3588.36 -2592.27 -944.07)
(-3083.74 -3175.94 -944.058)
(-2485.36 -3663.21 -944.073)
(-1811.52 -4039.13 -944.056)
(-1082.57 -4292.33 -944.061)
(-320.79 -4415.11 -944.05)
(450.724 -4403.75 -944.047)
(1208.58 -4258.57 -944.06)
(1929.73 -3984 -944.064)
(2592.27 -3588.36 -944.07)
(1132.82 -5848.74 -142.35)
(2131.28 -5563.13 -142.377)
(3064.91 -5108.58 -142.35)
(3905.44 -4498.68 -142.377)
(4627.3 -3752.17 -142.373)
(5208.57 -2891.66 -142.369)
(5631.54 -1943.22 -142.388)
(5883.48 -935.891 -142.346)
(5956.59 100.03 -142.365)
(5848.74 1132.82 -142.35)
(5563.13 2131.28 -142.377)
(5108.58 3064.91 -142.35)
(4498.68 3905.44 -142.378)
(3752.17 4627.3 -142.373)
(2891.66 5208.57 -142.37)
(1943.22 5631.54 -142.388)
(935.89 5883.48 -142.346)
(-100.03 5956.59 -142.365)
(-1132.82 5848.74 -142.35)
(-2131.28 5563.13 -142.377)
(-3064.91 5108.58 -142.35)
(-3905.44 4498.67 -142.378)
(-4627.3 3752.17 -142.373)
(-5208.57 2891.66 -142.37)
(-5631.54 1943.22 -142.388)
(-5883.48 935.89 -142.346)
(-5956.59 -100.03 -142.365)
(-5848.74 -1132.82 -142.35)
(-5563.13 -2131.28 -142.377)
(-5108.58 -3064.91 -142.35)
(-4498.68 -3905.44 -142.378)
(-3752.17 -4627.3 -142.373)
(-2891.66 -5208.57 -142.37)
(-1943.22 -5631.54 -142.389)
(-935.89 -5883.48 -142.346)
(100.031 -5956.59 -142.366)
(-932.058 -9038.53 1411.31)
(651.622 -9062.95 1411.28)
(2215.54 -8812.17 1411.28)
(3712.07 -8293.5 1411.27)
(5095.83 -7522.94 1411.27)
(6324.76 -6523.74 1411.25)
(7361.5 -5326.42 1411.29)
(8174.67 -3967.21 1411.32)
(8739.33 -2487.46 1411.33)
(9038.53 -932.059 1411.31)
(9062.95 651.621 1411.28)
(8812.17 2215.54 1411.28)
(8293.5 3712.07 1411.27)
(7522.94 5095.83 1411.27)
(6523.74 6324.76 1411.25)
(5326.42 7361.5 1411.29)
(3967.21 8174.67 1411.32)
(2487.46 8739.33 1411.33)
(932.058 9038.53 1411.31)
(-651.621 9062.95 1411.28)
(-2215.54 8812.17 1411.28)
(-3712.07 8293.5 1411.27)
(-5095.83 7522.94 1411.27)
(-6324.76 6523.74 1411.25)
(-7361.5 5326.42 1411.29)
(-8174.67 3967.21 1411.32)
(-8739.33 2487.46 1411.33)
(-9038.53 932.059 1411.31)
(-9062.95 -651.621 1411.28)
(-8812.17 -2215.54 1411.28)
(-8293.5 -3712.07 1411.27)
(-7522.94 -5095.83 1411.27)
(-6523.74 -6324.76 1411.25)
(-5326.42 -7361.5 1411.29)
(-3967.21 -8174.67 1411.32)
(-2487.46 -8739.33 1411.33)
(-2646.97 -11935.7 4246.33)
(-534.123 -12213.8 4246.24)
(1594.94 -12121.1 4246.26)
(3675.51 -11659.9 4246.19)
(5644.38 -10844.5 4246.19)
(7441.81 -9699.74 4246.27)
(9013.03 -8260.05 4246.25)
(10310.6 -6569.59 4246.37)
(11294.7 -4679.35 4246.34)
(11935.7 -2646.97 4246.33)
(12213.8 -534.124 4246.24)
(12121.1 1594.94 4246.26)
(11659.9 3675.51 4246.19)
(10844.5 5644.38 4246.19)
(9699.74 7441.81 4246.27)
(8260.05 9013.03 4246.24)
(6569.59 10310.6 4246.37)
(4679.35 11294.7 4246.34)
(2646.97 11935.7 4246.33)
(534.124 12213.8 4246.24)
(-1594.94 12121.1 4246.26)
(-3675.51 11659.9 4246.19)
(-5644.38 10844.5 4246.19)
(-7441.81 9699.74 4246.27)
(-9013.03 8260.05 4246.24)
(-10310.6 6569.59 4246.37)
(-11294.7 4679.35 4246.34)
(-11935.7 2646.97 4246.33)
(-12213.8 534.124 4246.24)
(-12121.1 -1594.94 4246.26)
(-11659.9 -3675.51 4246.19)
(-10844.5 -5644.38 4246.19)
(-9699.74 -7441.81 4246.27)
(-8260.04 -9013.03 4246.24)
(-6569.58 -10310.6 4246.37)
(-4679.35 -11294.7 4246.34)
(-2001.89 -10471.1 5949.24)
(-153.002 -10659.8 5949.19)
(1700.23 -10524.3 5949.17)
(3502.03 -10069.1 5949.12)
(5197.31 -9308.15 5949.28)
(6734.62 -8264.12 5949.1)
(8067.52 -6969.17 5949.24)
(9155.02 -5462.49 5949.32)
(9964.66 -3789.63 5949.27)
(10471.1 -2001.89 5949.24)
(10659.8 -153.003 5949.19)
(10524.3 1700.23 5949.17)
(10069.1 3502.03 5949.12)
(9308.15 5197.3 5949.27)
(8264.12 6734.62 5949.09)
(6969.17 8067.52 5949.24)
(5462.49 9155.02 5949.32)
(3789.63 9964.65 5949.27)
(2001.89 10471.1 5949.24)
(153.002 10659.8 5949.19)
(-1700.23 10524.3 5949.17)
(-3502.03 10069.1 5949.12)
(-5197.31 9308.15 5949.27)
(-6734.62 8264.12 5949.09)
(-8067.52 6969.17 5949.24)
(-9155.02 5462.49 5949.32)
(-9964.66 3789.63 5949.27)
(-10471.1 2001.89 5949.24)
(-10659.8 153.003 5949.2)
(-10524.3 -1700.23 5949.18)
(-10069.1 -3502.03 5949.12)
(-9308.15 -5197.31 5949.28)
(-8264.12 -6734.62 5949.09)
(-6969.17 -8067.52 5949.24)
(-5462.49 -9155.01 5949.32)
(-3789.63 -9964.65 5949.27)
(156.801 -2970.92 -1307.32)
(670.364 -2898.5 -1307.62)
(1163.43 -2737.57 -1309.09)
(1621.51 -2495.43 -1304.35)
(2029.19 -2173.52 -1312.37)
(2377.38 -1790.74 -1303.29)
(2650.69 -1348.89 -1310.3)
(2845.57 -868.915 -1306.67)
(2952.97 -361.405 -1307.67)
(2970.92 156.801 -1307.32)
(2898.5 670.363 -1307.62)
(2737.57 1163.43 -1309.09)
(2495.42 1621.51 -1304.36)
(2173.52 2029.19 -1312.38)
(1790.74 2377.38 -1303.29)
(1348.89 2650.69 -1310.31)
(868.914 2845.57 -1306.67)
(361.405 2952.98 -1307.67)
(-156.801 2970.92 -1307.32)
(-670.364 2898.5 -1307.61)
(-1163.43 2737.57 -1309.09)
(-1621.51 2495.42 -1304.35)
(-2029.19 2173.52 -1312.38)
(-2377.38 1790.74 -1303.29)
(-2650.69 1348.89 -1310.3)
(-2845.57 868.915 -1306.67)
(-2952.98 361.406 -1307.67)
(-2970.92 -156.8 -1307.32)
(-2898.5 -670.363 -1307.61)
(-2737.57 -1163.43 -1309.09)
(-2495.43 -1621.51 -1304.35)
(-2173.52 -2029.19 -1312.37)
(-1790.74 -2377.38 -1303.29)
(-1348.89 -2650.69 -1310.3)
(-868.915 -2845.57 -1306.67)
(-361.406 -2952.98 -1307.67)
)
;
    }
    outside
    {
        type            calculated;
        value           nonuniform List<vector> 
540
(
(8639.58 983.845 335.996)
(8337.48 2469.22 336.002)
(7782.06 3879.43 335.992)
(6990.15 5171.75 336.011)
(5985.85 6307.04 336.031)
(4799.68 7250.72 336.012)
(3467.73 7974 335.99)
(2030.45 8455.03 335.997)
(531.326 8679.18 335.995)
(-983.845 8639.58 335.996)
(-2469.22 8337.48 336.002)
(-3879.43 7782.06 335.992)
(-5171.75 6990.15 336.011)
(-6307.04 5985.85 336.031)
(-7250.72 4799.68 336.012)
(-7974 3467.73 335.99)
(-8455.03 2030.45 335.997)
(-8679.18 531.326 335.995)
(-8639.58 -983.845 335.996)
(-8337.48 -2469.22 336.002)
(-7782.06 -3879.43 335.992)
(-6990.15 -5171.75 336.011)
(-5985.85 -6307.04 336.031)
(-4799.68 -7250.72 336.012)
(-3467.73 -7974 335.99)
(-2030.45 -8455.03 335.997)
(-531.326 -8679.18 335.995)
(983.845 -8639.58 335.996)
(2469.22 -8337.48 336.002)
(3879.43 -7782.06 335.992)
(5171.75 -6990.14 336.011)
(6307.04 -5985.85 336.031)
(7250.72 -4799.68 336.012)
(7974 -3467.73 335.99)
(8455.03 -2030.45 335.997)
(8679.18 -531.326 335.995)
(1329.23 791.629 159.552)
(1171.56 1010.51 159.55)
(978.344 1198.6 159.551)
(755.305 1350.15 159.555)
(509.345 1460.86 159.547)
(247.899 1527.19 159.545)
(-21.007 1546.96 159.555)
(-289.283 1519.86 159.554)
(-548.902 1446.53 159.544)
(-791.629 1329.23 159.552)
(-1010.51 1171.56 159.55)
(-1198.6 978.344 159.551)
(-1350.15 755.305 159.555)
(-1460.86 509.345 159.547)
(-1527.19 247.899 159.545)
(-1546.96 -21.007 159.555)
(-1519.86 -289.283 159.554)
(-1446.53 -548.902 159.544)
(-1329.23 -791.629 159.552)
(-1171.56 -1010.51 159.55)
(-978.344 -1198.6 159.551)
(-755.305 -1350.15 159.555)
(-509.345 -1460.86 159.547)
(-247.899 -1527.19 159.545)
(21.007 -1546.96 159.555)
(289.283 -1519.86 159.554)
(548.902 -1446.53 159.544)
(791.629 -1329.23 159.552)
(1010.51 -1171.56 159.55)
(1198.6 -978.344 159.551)
(1350.15 -755.305 159.555)
(1460.86 -509.345 159.547)
(1527.19 -247.899 159.545)
(1546.96 21.0069 159.555)
(1519.86 289.283 159.554)
(1446.53 548.902 159.544)
(1621.68 1512.22 41.5666)
(1334.34 1770.84 41.5657)
(1006.63 1975.71 41.5579)
(648.222 2120.43 41.5604)
(270.194 2200.82 41.5563)
(-116.061 2214.33 41.557)
(-498.817 2160.44 41.5667)
(-866.411 2041.04 41.5645)
(-1207.69 1859.55 41.5678)
(-1512.22 1621.68 41.5666)
(-1770.84 1334.34 41.5657)
(-1975.71 1006.63 41.5579)
(-2120.43 648.222 41.5605)
(-2200.82 270.194 41.5563)
(-2214.33 -116.061 41.557)
(-2160.44 -498.817 41.5667)
(-2041.04 -866.411 41.5645)
(-1859.55 -1207.69 41.5678)
(-1621.68 -1512.22 41.5666)
(-1334.34 -1770.84 41.5657)
(-1006.63 -1975.71 41.5579)
(-648.222 -2120.43 41.5605)
(-270.194 -2200.82 41.5563)
(116.061 -2214.33 41.557)
(498.817 -2160.44 41.5667)
(866.411 -2041.04 41.5646)
(1207.69 -1859.55 41.5678)
(1512.22 -1621.68 41.5666)
(1770.84 -1334.34 41.5657)
(1975.71 -1006.63 41.5579)
(2120.43 -648.222 41.5605)
(2200.82 -270.194 41.5563)
(2214.33 116.061 41.557)
(2160.44 498.817 41.5667)
(2041.04 866.411 41.5646)
(1859.55 1207.69 41.5678)
(1437.82 2122.72 -62.5494)
(1047.38 2340.22 -62.5571)
(625.066 2486.46 -62.5492)
(183.844 2557.26 -62.548)
(-263.018 2550.33 -62.5453)
(-701.879 2465.94 -62.5484)
(-1119.42 2306.58 -62.5516)
(-1502.91 2077.08 -62.5446)
(-1840.82 1784.58 -62.5521)
(-2122.72 1437.82 -62.5494)
(-2340.22 1047.38 -62.5571)
(-2486.46 625.066 -62.5492)
(-2557.26 183.844 -62.548)
(-2550.33 -263.018 -62.5453)
(-2465.94 -701.879 -62.5484)
(-2306.58 -1119.42 -62.5516)
(-2077.08 -1502.91 -62.5446)
(-1784.58 -1840.82 -62.5521)
(-1437.82 -2122.72 -62.5494)
(-1047.38 -2340.22 -62.5571)
(-625.066 -2486.46 -62.5492)
(-183.844 -2557.26 -62.548)
(263.018 -2550.33 -62.5453)
(701.879 -2465.94 -62.5483)
(1119.42 -2306.58 -62.5516)
(1502.91 -2077.08 -62.5446)
(1840.82 -1784.58 -62.5521)
(2122.72 -1437.82 -62.5494)
(2340.22 -1047.38 -62.5571)
(2486.46 -625.066 -62.5492)
(2557.26 -183.844 -62.548)
(2550.33 263.018 -62.5453)
(2465.94 701.879 -62.5483)
(2306.58 1119.42 -62.5516)
(2077.08 1502.91 -62.5446)
(1784.58 1840.82 -62.5521)
(1267.91 2721.11 -164.848)
(776.166 2900.03 -164.861)
(260.73 2990.63 -164.843)
(-262.482 2990.53 -164.851)
(-777.833 2899.5 -164.847)
(-1269.54 2720.38 -164.848)
(-1722.61 2458.69 -164.858)
(-2123.33 2122.04 -164.838)
(-2459.64 1721.19 -164.854)
(-2721.11 1267.91 -164.848)
(-2900.03 776.167 -164.861)
(-2990.63 260.73 -164.843)
(-2990.53 -262.482 -164.851)
(-2899.5 -777.833 -164.847)
(-2720.38 -1269.54 -164.848)
(-2458.69 -1722.61 -164.858)
(-2122.04 -2123.33 -164.838)
(-1721.19 -2459.64 -164.854)
(-1267.91 -2721.11 -164.848)
(-776.167 -2900.03 -164.861)
(-260.73 -2990.63 -164.843)
(262.482 -2990.53 -164.851)
(777.833 -2899.5 -164.847)
(1269.54 -2720.38 -164.848)
(1722.61 -2458.69 -164.858)
(2123.33 -2122.04 -164.838)
(2459.64 -1721.19 -164.854)
(2721.11 -1267.91 -164.848)
(2900.03 -776.166 -164.861)
(2990.63 -260.73 -164.843)
(2990.53 262.482 -164.851)
(2899.5 777.833 -164.847)
(2720.38 1269.54 -164.848)
(2458.69 1722.61 -164.858)
(2122.04 2123.33 -164.838)
(1721.19 2459.64 -164.854)
(983.843 3269.72 -247.701)
(401.186 3390.97 -247.714)
(-193.815 3409.06 -247.704)
(-782.799 3323.65 -247.712)
(-1348.08 3137.19 -247.708)
(-1872.38 2855.41 -247.704)
(-2339.74 2486.94 -247.705)
(-2736.05 2042.78 -247.694)
(-3049.26 1536.74 -247.713)
(-3269.72 983.843 -247.701)
(-3390.97 401.186 -247.714)
(-3409.06 -193.815 -247.704)
(-3323.65 -782.799 -247.712)
(-3137.19 -1348.08 -247.708)
(-2855.41 -1872.38 -247.704)
(-2486.94 -2339.74 -247.705)
(-2042.78 -2736.05 -247.694)
(-1536.74 -3049.26 -247.713)
(-983.843 -3269.72 -247.701)
(-401.186 -3390.97 -247.714)
(193.815 -3409.06 -247.704)
(782.799 -3323.65 -247.712)
(1348.08 -3137.19 -247.708)
(1872.38 -2855.41 -247.704)
(2339.74 -2486.94 -247.705)
(2736.05 -2042.78 -247.694)
(3049.26 -1536.74 -247.713)
(3269.72 -983.843 -247.701)
(3390.97 -401.186 -247.714)
(3409.06 193.815 -247.704)
(3323.65 782.799 -247.712)
(3137.19 1348.08 -247.708)
(2855.41 1872.38 -247.704)
(2486.94 2339.74 -247.705)
(2042.78 2736.05 -247.694)
(1536.74 3049.26 -247.713)
(542.971 3741.29 -287.855)
(-114.88 3778.79 -287.874)
(-769.437 3701.34 -287.847)
(-1400.37 3511.68 -287.883)
(-1988.93 3215 -287.858)
(-2516.99 2820.71 -287.844)
(-2968.55 2340.95 -287.87)
(-3329.97 1789.74 -287.846)
(-3590.19 1184.43 -287.863)
(-3741.29 542.97 -287.855)
(-3778.79 -114.88 -287.874)
(-3701.34 -769.437 -287.847)
(-3511.68 -1400.37 -287.883)
(-3215 -1988.93 -287.858)
(-2820.71 -2516.99 -287.844)
(-2340.95 -2968.56 -287.87)
(-1789.74 -3329.97 -287.846)
(-1184.43 -3590.19 -287.863)
(-542.971 -3741.29 -287.855)
(114.88 -3778.79 -287.874)
(769.437 -3701.34 -287.847)
(1400.37 -3511.68 -287.883)
(1988.93 -3215 -287.858)
(2516.99 -2820.71 -287.844)
(2968.55 -2340.95 -287.87)
(3329.97 -1789.74 -287.846)
(3590.19 -1184.43 -287.863)
(3741.29 -542.97 -287.855)
(3778.79 114.88 -287.874)
(3701.34 769.437 -287.847)
(3511.68 1400.37 -287.883)
(3215 1988.93 -287.858)
(2820.71 2516.99 -287.844)
(2340.95 2968.56 -287.87)
(1789.74 3329.97 -287.846)
(1184.43 3590.19 -287.863)
(-105.104 4084.04 -244.096)
(-812.715 4003.71 -244.085)
(-1495.64 3801.75 -244.077)
(-2133.06 3484.35 -244.093)
(-2705.71 3060.93 -244.078)
(-3196.12 2544.55 -244.07)
(-3589.43 1950.95 -244.086)
(-3873.69 1297.97 -244.076)
(-4040.22 605.58 -244.073)
(-4084.04 -105.104 -244.096)
(-4003.71 -812.715 -244.085)
(-3801.75 -1495.64 -244.077)
(-3484.35 -2133.06 -244.093)
(-3060.93 -2705.71 -244.078)
(-2544.55 -3196.12 -244.07)
(-1950.95 -3589.43 -244.086)
(-1297.97 -3873.69 -244.076)
(-605.58 -4040.22 -244.073)
(105.104 -4084.04 -244.096)
(812.715 -4003.71 -244.085)
(1495.64 -3801.75 -244.077)
(2133.06 -3484.35 -244.093)
(2705.71 -3060.93 -244.078)
(3196.12 -2544.55 -244.07)
(3589.43 -1950.95 -244.086)
(3873.69 -1297.97 -244.076)
(4040.22 -605.58 -244.073)
(4084.04 105.104 -244.096)
(4003.71 812.715 -244.085)
(3801.75 1495.64 -244.077)
(3484.35 2133.06 -244.093)
(3060.93 2705.71 -244.078)
(2544.55 3196.12 -244.07)
(1950.95 3589.43 -244.086)
(1297.97 3873.69 -244.076)
(605.581 4040.22 -244.073)
(-996.303 4210.11 -43.6598)
(-1712.21 3973.19 -43.6705)
(-2376.15 3615.52 -43.6717)
(-2967.88 3147.95 -43.667)
(-3469.43 2584.77 -43.6681)
(-3865.56 1943.04 -43.6678)
(-4144.23 1242.24 -43.6605)
(-4297.01 503.758 -43.6689)
(-4319.24 -250.01 -43.6802)
(-4210.11 -996.303 -43.6597)
(-3973.19 -1712.21 -43.6704)
(-3615.52 -2376.15 -43.6717)
(-3147.95 -2967.88 -43.667)
(-2584.77 -3469.43 -43.6681)
(-1943.04 -3865.56 -43.6678)
(-1242.24 -4144.23 -43.6606)
(-503.758 -4297.01 -43.669)
(250.01 -4319.24 -43.6803)
(996.303 -4210.11 -43.6598)
(1712.21 -3973.19 -43.6705)
(2376.15 -3615.52 -43.6717)
(2967.88 -3147.95 -43.667)
(3469.43 -2584.77 -43.6682)
(3865.56 -1943.04 -43.6679)
(4144.23 -1242.24 -43.6606)
(4297.01 -503.758 -43.669)
(4319.24 250.01 -43.6803)
(4210.11 996.303 -43.6598)
(3973.19 1712.21 -43.6705)
(3615.52 2376.15 -43.6717)
(3147.95 2967.88 -43.667)
(2584.77 3469.43 -43.6681)
(1943.04 3865.56 -43.6678)
(1242.24 4144.23 -43.6606)
(503.758 4297.01 -43.669)
(-250.01 4319.24 -43.6803)
(-2086.98 4011.79 431.494)
(-2751.94 3588.41 431.515)
(-3333.24 3056.05 431.5)
(-3813.27 2430.85 431.477)
(-4177.45 1731.73 431.492)
(-4414.7 979.988 431.503)
(-4517.81 198.501 431.498)
(-4483.66 -588.971 431.477)
(-4313.24 -1358.64 431.496)
(-4011.8 -2086.98 431.494)
(-3588.41 -2751.95 431.515)
(-3056.05 -3333.24 431.5)
(-2430.85 -3813.27 431.477)
(-1731.73 -4177.45 431.492)
(-979.988 -4414.7 431.503)
(-198.501 -4517.81 431.498)
(588.971 -4483.66 431.477)
(1358.64 -4313.24 431.496)
(2086.98 -4011.79 431.494)
(2751.94 -3588.41 431.515)
(3333.24 -3056.05 431.5)
(3813.27 -2430.85 431.477)
(4177.45 -1731.73 431.492)
(4414.7 -979.989 431.503)
(4517.81 -198.501 431.498)
(4483.66 588.97 431.477)
(4313.24 1358.64 431.496)
(4011.79 2086.98 431.494)
(3588.41 2751.95 431.515)
(3056.04 3333.24 431.5)
(2430.85 3813.27 431.477)
(1731.73 4177.45 431.492)
(979.988 4414.7 431.503)
(198.501 4517.81 431.498)
(-588.97 4483.66 431.477)
(-1358.64 4313.24 431.496)
(-3135.63 3473.64 1321.28)
(-3691.21 2876.33 1321.3)
(-4134.61 2191.62 1321.3)
(-4452.35 1440.44 1321.27)
(-4634.85 645.412 1321.27)
(-4676.5 -169.251 1321.29)
(-4576.1 -978.674 1321.26)
(-4336.58 -1758.52 1321.28)
(-3965.3 -2484.88 1321.3)
(-3473.64 -3135.63 1321.28)
(-2876.33 -3691.21 1321.3)
(-2191.62 -4134.61 1321.3)
(-1440.44 -4452.35 1321.27)
(-645.412 -4634.85 1321.27)
(169.251 -4676.5 1321.29)
(978.673 -4576.1 1321.26)
(1758.52 -4336.58 1321.28)
(2484.88 -3965.3 1321.3)
(3135.63 -3473.64 1321.28)
(3691.21 -2876.33 1321.3)
(4134.61 -2191.62 1321.3)
(4452.35 -1440.44 1321.27)
(4634.85 -645.413 1321.27)
(4676.5 169.251 1321.29)
(4576.1 978.673 1321.26)
(4336.58 1758.52 1321.28)
(3965.3 2484.88 1321.29)
(3473.64 3135.63 1321.28)
(2876.33 3691.21 1321.3)
(2191.62 4134.61 1321.3)
(1440.44 4452.35 1321.27)
(645.412 4634.85 1321.27)
(-169.251 4676.5 1321.29)
(-978.673 4576.1 1321.26)
(-1758.52 4336.58 1321.28)
(-2484.88 3965.3 1321.3)
(-3618.14 2894.8 2631.34)
(-4065.89 2222.47 2631.36)
(-4390.02 1482.74 2631.32)
(-4580.81 697.872 2631.35)
(-4632.41 -108.144 2631.32)
(-4543.25 -910.922 2631.32)
(-4316.06 -1685.98 2631.31)
(-3957.72 -2409.84 2631.31)