/*--------------------------------*- C++ -*----------------------------------*\
| =========                 |                                                 |
| \\      /  F ield         | OpenFOAM: The Open Source CFD Toolbox           |
|  \\    /   O peration     | Version:  2312                                  |
|   \\  /    A nd           | Website:  www.openfoam.com                      |
|    \\/     M anipulation  |                                                 |
\*---------------------------------------------------------------------------*/
FoamFile
{
    version     2.0;
    format      ascii;
    arch        "LSB;label=32;scalar=64";
    class       volVectorField;
    location    "0.9";
    object      D_0;
}
// * * * * * * * * * * * * * * * * * * * * * * * * * * * * * * * * * * * * * //

dimensions      [0 1 0 0 0 0 0];

internalField   nonuniform List<vector> 
12960
(
(0.000122957 -0.000156124 -3.9194e-06)
(0.000136096 -0.000144814 -3.91942e-06)
(0.000148199 -0.000132402 -3.91937e-06)
(0.000159175 -0.000118981 -3.91947e-06)
(0.000168939 -0.000104655 -3.91949e-06)
(0.000177417 -8.9533e-05 -3.91938e-06)
(0.000184545 -7.37294e-05 -3.91949e-06)
(0.000190269 -5.73647e-05 -3.91967e-06)
(0.000194545 -4.05633e-05 -3.91978e-06)
(0.00019734 -2.34534e-05 -3.9196e-06)
(0.000198633 -6.16473e-06 -3.9194e-06)
(0.000198414 1.11709e-05 -3.91922e-06)
(0.000196685 2.84212e-05 -3.91921e-06)
(0.00019346 4.54554e-05 -3.91927e-06)
(0.000188762 6.21436e-05 -3.91943e-06)
(0.000182628 7.8359e-05 -3.91938e-06)
(0.000175103 9.39777e-05 -3.91941e-06)
(0.000166246 0.000108882 -3.91962e-06)
(0.000156124 0.000122957 -3.91941e-06)
(0.000144814 0.000136096 -3.91942e-06)
(0.000132402 0.000148199 -3.91937e-06)
(0.000118981 0.000159175 -3.91947e-06)
(0.000104655 0.000168939 -3.91949e-06)
(8.9533e-05 0.000177417 -3.91938e-06)
(7.37294e-05 0.000184545 -3.91949e-06)
(5.73647e-05 0.000190269 -3.91967e-06)
(4.05633e-05 0.000194545 -3.91978e-06)
(2.34534e-05 0.00019734 -3.9196e-06)
(6.16473e-06 0.000198633 -3.9194e-06)
(-1.11709e-05 0.000198414 -3.91922e-06)
(-2.84212e-05 0.000196685 -3.91921e-06)
(-4.54554e-05 0.00019346 -3.91927e-06)
(-6.21436e-05 0.000188762 -3.91943e-06)
(-7.8359e-05 0.000182628 -3.91938e-06)
(-9.39777e-05 0.000175103 -3.91941e-06)
(-0.000108882 0.000166246 -3.91962e-06)
(-0.000122957 0.000156124 -3.9194e-06)
(-0.000136096 0.000144814 -3.91942e-06)
(-0.000148199 0.000132402 -3.91937e-06)
(-0.000159175 0.000118981 -3.91947e-06)
(-0.000168939 0.000104655 -3.91949e-06)
(-0.000177417 8.9533e-05 -3.91938e-06)
(-0.000184545 7.37294e-05 -3.91949e-06)
(-0.000190269 5.73647e-05 -3.91967e-06)
(-0.000194545 4.05633e-05 -3.91978e-06)
(-0.00019734 2.34534e-05 -3.9196e-06)
(-0.000198633 6.16473e-06 -3.9194e-06)
(-0.000198414 -1.11709e-05 -3.91922e-06)
(-0.000196685 -2.84212e-05 -3.91921e-06)
(-0.00019346 -4.54554e-05 -3.91927e-06)
(-0.000188762 -6.21436e-05 -3.91943e-06)
(-0.000182628 -7.8359e-05 -3.91938e-06)
(-0.000175103 -9.39777e-05 -3.91941e-06)
(-0.000166246 -0.000108882 -3.91962e-06)
(-0.000156124 -0.000122957 -3.9194e-06)
(-0.000144814 -0.000136096 -3.91942e-06)
(-0.000132402 -0.000148199 -3.91937e-06)
(-0.000118981 -0.000159175 -3.91947e-06)
(-0.000104655 -0.000168939 -3.91949e-06)
(-8.9533e-05 -0.000177417 -3.91938e-06)
(-7.37294e-05 -0.000184545 -3.91949e-06)
(-5.73647e-05 -0.000190269 -3.91967e-06)
(-4.05633e-05 -0.000194545 -3.91978e-06)
(-2.34534e-05 -0.00019734 -3.9196e-06)
(-6.16473e-06 -0.000198633 -3.9194e-06)
(1.11709e-05 -0.000198414 -3.91922e-06)
(2.84212e-05 -0.000196685 -3.91921e-06)
(4.54554e-05 -0.00019346 -3.91927e-06)
(6.21436e-05 -0.000188762 -3.91943e-06)
(7.8359e-05 -0.000182628 -3.91938e-06)
(9.39777e-05 -0.000175103 -3.91941e-06)
(0.000108882 -0.000166246 -3.91962e-06)
(0.000108531 -0.000181831 2.03959e-05)
(0.000123965 -0.000171679 2.03959e-05)
(0.000138457 -0.000160222 2.0396e-05)
(0.000151894 -0.000147545 2.03961e-05)
(0.000164175 -0.000133745 2.03961e-05)
(0.000175208 -0.000118928 2.0396e-05)
(0.000184906 -0.000103205 2.0396e-05)
(0.000193198 -8.66964e-05 2.03959e-05)
(0.000200018 -6.95282e-05 2.03959e-05)
(0.000205317 -5.1831e-05 2.0396e-05)
(0.000209053 -3.37393e-05 2.03961e-05)
(0.000211198 -1.53905e-05 2.03961e-05)
(0.000211736 3.07515e-06 2.03961e-05)
(0.000210662 2.15174e-05 2.03961e-05)
(0.000207985 3.97959e-05 2.03961e-05)
(0.000203725 5.77715e-05 2.03961e-05)
(0.000197914 7.53073e-05 2.0396e-05)
(0.000190598 9.22702e-05 2.0396e-05)
(0.000181831 0.000108531 2.03959e-05)
(0.000171679 0.000123965 2.03959e-05)
(0.000160222 0.000138457 2.0396e-05)
(0.000147545 0.000151894 2.03961e-05)
(0.000133745 0.000164175 2.03961e-05)
(0.000118928 0.000175208 2.0396e-05)
(0.000103205 0.000184906 2.0396e-05)
(8.66964e-05 0.000193198 2.03959e-05)
(6.95282e-05 0.000200018 2.03959e-05)
(5.1831e-05 0.000205317 2.0396e-05)
(3.37393e-05 0.000209053 2.03961e-05)
(1.53905e-05 0.000211198 2.03961e-05)
(-3.07515e-06 0.000211736 2.03961e-05)
(-2.15174e-05 0.000210662 2.03961e-05)
(-3.97959e-05 0.000207985 2.03961e-05)
(-5.77715e-05 0.000203725 2.03961e-05)
(-7.53073e-05 0.000197914 2.0396e-05)
(-9.22702e-05 0.000190598 2.0396e-05)
(-0.000108531 0.000181831 2.03959e-05)
(-0.000123965 0.000171679 2.03959e-05)
(-0.000138457 0.000160222 2.0396e-05)
(-0.000151894 0.000147545 2.03961e-05)
(-0.000164175 0.000133745 2.03961e-05)
(-0.000175208 0.000118928 2.0396e-05)
(-0.000184906 0.000103205 2.0396e-05)
(-0.000193198 8.66964e-05 2.03959e-05)
(-0.000200018 6.95282e-05 2.03959e-05)
(-0.000205317 5.1831e-05 2.0396e-05)
(-0.000209053 3.37393e-05 2.03961e-05)
(-0.000211198 1.53905e-05 2.03961e-05)
(-0.000211736 -3.07515e-06 2.03961e-05)
(-0.000210662 -2.15174e-05 2.03961e-05)
(-0.000207985 -3.97959e-05 2.03961e-05)
(-0.000203725 -5.77715e-05 2.03961e-05)
(-0.000197914 -7.53073e-05 2.0396e-05)
(-0.000190598 -9.22702e-05 2.0396e-05)
(-0.000181831 -0.000108531 2.03959e-05)
(-0.000171679 -0.000123965 2.03959e-05)
(-0.000160222 -0.000138457 2.0396e-05)
(-0.000147545 -0.000151894 2.03961e-05)
(-0.000133745 -0.000164175 2.03961e-05)
(-0.000118928 -0.000175208 2.0396e-05)
(-0.000103205 -0.000184906 2.0396e-05)
(-8.66964e-05 -0.000193198 2.03959e-05)
(-6.95282e-05 -0.000200018 2.03959e-05)
(-5.1831e-05 -0.000205317 2.0396e-05)
(-3.37393e-05 -0.000209053 2.03961e-05)
(-1.53905e-05 -0.000211198 2.03961e-05)
(3.07515e-06 -0.000211736 2.03961e-05)
(2.15174e-05 -0.000210662 2.03961e-05)
(3.97959e-05 -0.000207985 2.03961e-05)
(5.77715e-05 -0.000203725 2.03961e-05)
(7.53073e-05 -0.000197914 2.0396e-05)
(9.22702e-05 -0.000190598 2.0396e-05)
(8.20761e-05 -0.000205635 3.13429e-05)
(9.96862e-05 -0.0001977 3.13429e-05)
(0.000116538 -0.000188259 3.1343e-05)
(0.000132502 -0.000177386 3.1343e-05)
(0.000147458 -0.000165163 3.13431e-05)
(0.000161291 -0.000151682 3.13429e-05)
(0.000173897 -0.000137047 3.13428e-05)
(0.00018518 -0.00012137 3.13428e-05)
(0.000195054 -0.000104768 3.13429e-05)
(0.000203443 -8.73698e-05 3.13429e-05)
(0.000210283 -6.93061e-05 3.1343e-05)
(0.000215523 -5.07149e-05 3.13429e-05)
(0.000219123 -3.17379e-05 3.1343e-05)
(0.000221056 -1.25191e-05 3.1343e-05)
(0.000221306 6.79469e-06 3.13429e-05)
(0.000219871 2.60571e-05 3.1343e-05)
(0.000216764 4.5121e-05 3.1343e-05)
(0.000212006 6.38415e-05 3.13429e-05)
(0.000205635 8.20761e-05 3.13429e-05)
(0.0001977 9.96862e-05 3.13429e-05)
(0.000188259 0.000116538 3.1343e-05)
(0.000177386 0.000132502 3.1343e-05)
(0.000165163 0.000147458 3.13431e-05)
(0.000151682 0.000161291 3.13429e-05)
(0.000137047 0.000173897 3.13428e-05)
(0.00012137 0.00018518 3.13428e-05)
(0.000104768 0.000195054 3.13429e-05)
(8.73698e-05 0.000203443 3.13429e-05)
(6.93061e-05 0.000210283 3.1343e-05)
(5.07149e-05 0.000215523 3.13429e-05)
(3.17379e-05 0.000219123 3.1343e-05)
(1.25191e-05 0.000221056 3.1343e-05)
(-6.79469e-06 0.000221306 3.13429e-05)
(-2.60571e-05 0.000219871 3.1343e-05)
(-4.5121e-05 0.000216764 3.1343e-05)
(-6.38415e-05 0.000212006 3.13429e-05)
(-8.20761e-05 0.000205635 3.13429e-05)
(-9.96862e-05 0.0001977 3.13429e-05)
(-0.000116538 0.000188259 3.1343e-05)
(-0.000132502 0.000177386 3.1343e-05)
(-0.000147458 0.000165163 3.13431e-05)
(-0.000161291 0.000151682 3.13429e-05)
(-0.000173897 0.000137047 3.13428e-05)
(-0.00018518 0.00012137 3.13428e-05)
(-0.000195054 0.000104768 3.13429e-05)
(-0.000203443 8.73698e-05 3.13429e-05)
(-0.000210283 6.93061e-05 3.1343e-05)
(-0.000215523 5.07149e-05 3.13429e-05)
(-0.000219123 3.17379e-05 3.1343e-05)
(-0.000221056 1.25191e-05 3.1343e-05)
(-0.000221306 -6.79469e-06 3.13429e-05)
(-0.000219871 -2.60571e-05 3.1343e-05)
(-0.000216764 -4.5121e-05 3.1343e-05)
(-0.000212006 -6.38415e-05 3.13429e-05)
(-0.000205635 -8.20761e-05 3.13429e-05)
(-0.0001977 -9.96862e-05 3.13429e-05)
(-0.000188259 -0.000116538 3.1343e-05)
(-0.000177386 -0.000132502 3.1343e-05)
(-0.000165163 -0.000147458 3.13431e-05)
(-0.000151682 -0.000161291 3.13429e-05)
(-0.000137047 -0.000173897 3.13428e-05)
(-0.00012137 -0.00018518 3.13428e-05)
(-0.000104768 -0.000195054 3.13429e-05)
(-8.73698e-05 -0.000203443 3.13429e-05)
(-6.93061e-05 -0.000210283 3.1343e-05)
(-5.07149e-05 -0.000215523 3.13429e-05)
(-3.17379e-05 -0.000219123 3.1343e-05)
(-1.25191e-05 -0.000221056 3.1343e-05)
(6.79469e-06 -0.000221306 3.13429e-05)
(2.60571e-05 -0.000219871 3.1343e-05)
(4.5121e-05 -0.000216764 3.1343e-05)
(6.38415e-05 -0.000212006 3.13429e-05)
(4.75919e-05 -0.000224353 3.43295e-05)
(6.69644e-05 -0.000219351 3.43295e-05)
(8.58275e-05 -0.00021268 3.43297e-05)
(0.000104037 -0.00020439 3.43295e-05)
(0.000121454 -0.000194545 3.43296e-05)
(0.000137948 -0.000183219 3.43296e-05)
(0.000153392 -0.000170499 3.43296e-05)
(0.000167668 -0.000156481 3.43296e-05)
(0.000180669 -0.000141273 3.43295e-05)
(0.000192294 -0.000124989 3.43296e-05)
(0.000202455 -0.000107754 3.43296e-05)
(0.000211076 -8.96986e-05 3.43296e-05)
(0.000218091 -7.09607e-05 3.43296e-05)
(0.000223445 -5.16825e-05 3.43294e-05)
(0.000227099 -3.20114e-05 3.43295e-05)
(0.000229026 -1.20967e-05 3.43296e-05)
(0.000229208 7.91032e-06 3.43296e-05)
(0.000227647 2.78571e-05 3.43295e-05)
(0.000224353 4.75919e-05 3.43295e-05)
(0.000219351 6.69644e-05 3.43295e-05)
(0.00021268 8.58275e-05 3.43297e-05)
(0.00020439 0.000104037 3.43295e-05)
(0.000194545 0.000121454 3.43296e-05)
(0.000183219 0.000137948 3.43296e-05)
(0.000170499 0.000153392 3.43296e-05)
(0.000156481 0.000167668 3.43296e-05)
(0.000141273 0.000180669 3.43295e-05)
(0.000124989 0.000192294 3.43296e-05)
(0.000107754 0.000202455 3.43296e-05)
(8.96986e-05 0.000211076 3.43296e-05)
(7.09607e-05 0.000218091 3.43296e-05)
(5.16825e-05 0.000223445 3.43294e-05)
(3.20114e-05 0.000227099 3.43295e-05)
(1.20967e-05 0.000229026 3.43296e-05)
(-7.91032e-06 0.000229208 3.43296e-05)
(-2.78571e-05 0.000227647 3.43295e-05)
(-4.75919e-05 0.000224353 3.43295e-05)
(-6.69644e-05 0.000219351 3.43295e-05)
(-8.58275e-05 0.00021268 3.43297e-05)
(-0.000104037 0.00020439 3.43295e-05)
(-0.000121454 0.000194545 3.43296e-05)
(-0.000137948 0.000183219 3.43296e-05)
(-0.000153392 0.000170499 3.43296e-05)
(-0.000167668 0.000156481 3.43296e-05)
(-0.000180669 0.000141273 3.43295e-05)
(-0.000192294 0.000124989 3.43296e-05)
(-0.000202455 0.000107754 3.43296e-05)
(-0.000211076 8.96986e-05 3.43296e-05)
(-0.000218091 7.09607e-05 3.43296e-05)
(-0.000223445 5.16825e-05 3.43294e-05)
(-0.000227099 3.20114e-05 3.43295e-05)
(-0.000229026 1.20967e-05 3.43296e-05)
(-0.000229208 -7.91032e-06 3.43296e-05)
(-0.000227647 -2.78571e-05 3.43295e-05)
(-0.000224353 -4.75919e-05 3.43295e-05)
(-0.000219351 -6.69644e-05 3.43295e-05)
(-0.00021268 -8.58275e-05 3.43297e-05)
(-0.00020439 -0.000104037 3.43295e-05)
(-0.000194545 -0.000121454 3.43296e-05)
(-0.000183219 -0.000137948 3.43296e-05)
(-0.000170499 -0.000153392 3.43296e-05)
(-0.000156481 -0.000167668 3.43296e-05)
(-0.000141273 -0.000180669 3.43295e-05)
(-0.000124989 -0.000192294 3.43296e-05)
(-0.000107754 -0.000202455 3.43296e-05)
(-8.96986e-05 -0.000211076 3.43296e-05)
(-7.09607e-05 -0.000218091 3.43296e-05)
(-5.16825e-05 -0.000223445 3.43294e-05)
(-3.20114e-05 -0.000227099 3.43295e-05)
(-1.20967e-05 -0.000229026 3.43296e-05)
(7.91032e-06 -0.000229208 3.43296e-05)
(2.78571e-05 -0.000227647 3.43295e-05)
(4.49298e-06 -0.000236938 3.7026e-05)
(2.51264e-05 -0.000235645 3.70261e-05)
(4.55683e-05 -0.000232558 3.7026e-05)
(6.56637e-05 -0.000227701 3.7026e-05)
(8.52592e-05 -0.000221112 3.7026e-05)
(0.000104206 -0.000212839 3.7026e-05)
(0.000122359 -0.000202947 3.7026e-05)
(0.000139582 -0.00019151 3.70259e-05)
(0.000155742 -0.000178617 3.7026e-05)
(0.000170718 -0.000164364 3.70261e-05)
(0.000184392 -0.000148858 3.70259e-05)
(0.000196664 -0.000132221 3.7026e-05)
(0.00020744 -0.000114578 3.70259e-05)
(0.000216637 -9.60622e-05 3.70258e-05)
(0.000224185 -7.68157e-05 3.7026e-05)
(0.000230027 -5.69843e-05 3.7026e-05)
(0.000234119 -3.67192e-05 3.70261e-05)
(0.000236428 -1.61747e-05 3.7026e-05)
(0.000236938 4.49298e-06 3.7026e-05)
(0.000235645 2.51264e-05 3.70261e-05)
(0.000232558 4.55683e-05 3.7026e-05)
(0.000227701 6.56637e-05 3.7026e-05)
(0.000221112 8.52592e-05 3.7026e-05)
(0.000212839 0.000104206 3.7026e-05)
(0.000202947 0.000122359 3.7026e-05)
(0.00019151 0.000139582 3.70259e-05)
(0.000178617 0.000155742 3.7026e-05)
(0.000164364 0.000170718 3.70261e-05)
(0.000148858 0.000184392 3.70259e-05)
(0.000132221 0.000196664 3.7026e-05)
(0.000114578 0.00020744 3.70259e-05)
(9.60622e-05 0.000216637 3.70258e-05)
(7.68157e-05 0.000224185 3.7026e-05)
(5.69843e-05 0.000230027 3.7026e-05)
(3.67192e-05 0.000234119 3.70261e-05)
(1.61747e-05 0.000236428 3.7026e-05)
(-4.49298e-06 0.000236938 3.7026e-05)
(-2.51264e-05 0.000235645 3.70261e-05)
(-4.55683e-05 0.000232558 3.7026e-05)
(-6.56637e-05 0.000227701 3.7026e-05)
(-8.52592e-05 0.000221112 3.7026e-05)
(-0.000104206 0.000212839 3.7026e-05)
(-0.000122359 0.000202947 3.7026e-05)
(-0.000139582 0.00019151 3.70259e-05)
(-0.000155742 0.000178617 3.7026e-05)
(-0.000170718 0.000164364 3.70261e-05)
(-0.000184392 0.000148858 3.70259e-05)
(-0.000196664 0.000132221 3.7026e-05)
(-0.00020744 0.000114578 3.70259e-05)
(-0.000216637 9.60622e-05 3.70258e-05)
(-0.000224185 7.68157e-05 3.7026e-05)
(-0.000230027 5.69843e-05 3.7026e-05)
(-0.000234119 3.67192e-05 3.70261e-05)
(-0.000236428 1.61747e-05 3.7026e-05)
(-0.000236938 -4.49298e-06 3.7026e-05)
(-0.000235645 -2.51264e-05 3.70261e-05)
(-0.000232558 -4.55683e-05 3.7026e-05)
(-0.000227701 -6.56637e-05 3.7026e-05)
(-0.000221112 -8.52592e-05 3.7026e-05)
(-0.000212839 -0.000104206 3.7026e-05)
(-0.000202947 -0.000122359 3.7026e-05)
(-0.00019151 -0.000139582 3.70259e-05)
(-0.000178617 -0.000155742 3.7026e-05)
(-0.000164364 -0.000170718 3.70261e-05)
(-0.000148858 -0.000184392 3.70259e-05)
(-0.000132221 -0.000196664 3.7026e-05)
(-0.000114578 -0.00020744 3.70259e-05)
(-9.60622e-05 -0.000216637 3.70258e-05)
(-7.68157e-05 -0.000224185 3.7026e-05)
(-5.69843e-05 -0.000230027 3.7026e-05)
(-3.67192e-05 -0.000234119 3.70261e-05)
(-1.61747e-05 -0.000236428 3.7026e-05)
(-5.64764e-05 -0.000245936 4.03518e-05)
(-3.48266e-05 -0.000249922 4.03518e-05)
(-1.2912e-05 -0.000252007 4.03517e-05)
(9.10128e-06 -0.000252175 4.03519e-05)
(3.10452e-05 -0.000250421 4.03517e-05)
(5.27526e-05 -0.000246762 4.03517e-05)
(7.40584e-05 -0.000241225 4.03517e-05)
(9.48003e-05 -0.000233852 4.03516e-05)
(0.000114821 -0.000224701 4.03518e-05)
(0.000133969 -0.000213838 4.03518e-05)
(0.000152096 -0.000201348 4.03517e-05)
(0.000169066 -0.000187326 4.03518e-05)
(0.000184749 -0.000171878 4.03515e-05)
(0.000199027 -0.000155122 4.03514e-05)
(0.000211789 -0.000137186 4.03516e-05)
(0.000222939 -0.000118205 4.03517e-05)
(0.000232392 -9.83245e-05 4.03518e-05)
(0.000240079 -7.76962e-05 4.03519e-05)
(0.000245936 -5.64764e-05 4.03518e-05)
(0.000249922 -3.48266e-05 4.03518e-05)
(0.000252007 -1.2912e-05 4.03517e-05)
(0.000252175 9.10128e-06 4.03519e-05)
(0.000250421 3.10452e-05 4.03517e-05)
(0.000246762 5.27526e-05 4.03517e-05)
(0.000241225 7.40584e-05 4.03517e-05)
(0.000233852 9.48003e-05 4.03516e-05)
(0.000224701 0.000114821 4.03518e-05)
(0.000213838 0.000133969 4.03518e-05)
(0.000201348 0.000152096 4.03517e-05)
(0.000187326 0.000169066 4.03518e-05)
(0.000171878 0.000184749 4.03515e-05)
(0.000155122 0.000199027 4.03514e-05)
(0.000137186 0.000211789 4.03516e-05)
(0.000118205 0.000222939 4.03517e-05)
(9.83245e-05 0.000232392 4.03518e-05)
(7.76962e-05 0.000240079 4.03519e-05)
(5.64764e-05 0.000245936 4.03518e-05)
(3.48266e-05 0.000249922 4.03518e-05)
(1.2912e-05 0.000252007 4.03517e-05)
(-9.10128e-06 0.000252175 4.03519e-05)
(-3.10452e-05 0.000250421 4.03517e-05)
(-5.27526e-05 0.000246762 4.03517e-05)
(-7.40584e-05 0.000241225 4.03517e-05)
(-9.48003e-05 0.000233852 4.03516e-05)
(-0.000114821 0.000224701 4.03518e-05)
(-0.000133969 0.000213838 4.03518e-05)
(-0.000152096 0.000201348 4.03517e-05)
(-0.000169066 0.000187326 4.03518e-05)
(-0.000184749 0.000171878 4.03515e-05)
(-0.000199027 0.000155122 4.03514e-05)
(-0.000211789 0.000137186 4.03516e-05)
(-0.000222939 0.000118205 4.03517e-05)
(-0.000232392 9.83245e-05 4.03518e-05)
(-0.000240079 7.76962e-05 4.03519e-05)
(-0.000245936 5.64764e-05 4.03518e-05)
(-0.000249922 3.48266e-05 4.03518e-05)
(-0.000252007 1.2912e-05 4.03517e-05)
(-0.000252175 -9.10128e-06 4.03519e-05)
(-0.000250421 -3.10452e-05 4.03517e-05)
(-0.000246762 -5.27526e-05 4.03517e-05)
(-0.000241225 -7.40584e-05 4.03517e-05)
(-0.000233852 -9.48003e-05 4.03516e-05)
(-0.000224701 -0.000114821 4.03518e-05)
(-0.000213838 -0.000133969 4.03518e-05)
(-0.000201348 -0.000152096 4.03517e-05)
(-0.000187326 -0.000169066 4.03518e-05)
(-0.000171878 -0.000184749 4.03515e-05)
(-0.000155122 -0.000199027 4.03514e-05)
(-0.000137186 -0.000211789 4.03516e-05)
(-0.000118205 -0.000222939 4.03517e-05)
(-9.83245e-05 -0.000232392 4.03518e-05)
(-7.76962e-05 -0.000240079 4.03519e-05)
(0.000311771 -0.00048483 2.04671e-05)
(0.000352841 -0.000455813 2.04668e-05)
(0.000391225 -0.000423327 2.04672e-05)
(0.000426631 -0.000387618 2.04672e-05)
(0.000458791 -0.00034896 2.0467e-05)
(0.000487459 -0.000307646 2.04667e-05)
(0.000512417 -0.00026399 2.04668e-05)
(0.000533475 -0.000218325 2.04664e-05)
(0.000550475 -0.000170999 2.04661e-05)
(0.000563284 -0.000122371 2.04664e-05)
(0.000571804 -7.28121e-05 2.04672e-05)
(0.000575974 -2.2699e-05 2.04672e-05)
(0.000575761 2.75867e-05 2.04672e-05)
(0.000571166 7.76626e-05 2.04675e-05)
(0.000562223 0.000127148 2.04674e-05)
(0.000549002 0.000175665 2.04671e-05)
(0.000531603 0.000222845 2.0467e-05)
(0.000510158 0.000268329 2.04669e-05)
(0.00048483 0.000311771 2.04671e-05)
(0.000455813 0.000352841 2.04668e-05)
(0.000423327 0.000391225 2.04672e-05)
(0.000387618 0.000426631 2.04672e-05)
(0.00034896 0.000458791 2.0467e-05)
(0.000307646 0.000487459 2.04667e-05)
(0.00026399 0.000512417 2.04668e-05)
(0.000218325 0.000533475 2.04664e-05)
(0.000170999 0.000550475 2.04661e-05)
(0.000122371 0.000563284 2.04664e-05)
(7.28121e-05 0.000571804 2.04672e-05)
(2.2699e-05 0.000575974 2.04672e-05)
(-2.75867e-05 0.000575761 2.04672e-05)
(-7.76626e-05 0.000571166 2.04675e-05)
(-0.000127148 0.000562223 2.04674e-05)
(-0.000175665 0.000549002 2.04671e-05)
(-0.000222845 0.000531603 2.0467e-05)
(-0.000268329 0.000510158 2.04669e-05)
(-0.000311771 0.00048483 2.04671e-05)
(-0.000352841 0.000455813 2.04668e-05)
(-0.000391225 0.000423327 2.04672e-05)
(-0.000426631 0.000387618 2.04672e-05)
(-0.000458791 0.00034896 2.0467e-05)
(-0.000487459 0.000307646 2.04667e-05)
(-0.000512417 0.00026399 2.04668e-05)
(-0.000533475 0.000218325 2.04664e-05)
(-0.000550475 0.000170999 2.04661e-05)
(-0.000563284 0.000122371 2.04664e-05)
(-0.000571804 7.28121e-05 2.04672e-05)
(-0.000575974 2.2699e-05 2.04672e-05)
(-0.000575761 -2.75867e-05 2.04672e-05)
(-0.000571166 -7.76626e-05 2.04675e-05)
(-0.000562223 -0.000127148 2.04674e-05)
(-0.000549002 -0.000175665 2.04671e-05)
(-0.000531603 -0.000222845 2.0467e-05)
(-0.000510158 -0.000268329 2.04669e-05)
(-0.00048483 -0.000311771 2.04671e-05)
(-0.000455813 -0.000352841 2.04668e-05)
(-0.000423327 -0.000391225 2.04672e-05)
(-0.000387618 -0.000426631 2.04672e-05)
(-0.00034896 -0.000458791 2.04671e-05)
(-0.000307646 -0.000487459 2.04667e-05)
(-0.00026399 -0.000512417 2.04668e-05)
(-0.000218325 -0.000533475 2.04664e-05)
(-0.000170999 -0.000550475 2.04661e-05)
(-0.000122371 -0.000563284 2.04664e-05)
(-7.28121e-05 -0.000571804 2.04672e-05)
(-2.2699e-05 -0.000575974 2.04672e-05)
(2.75867e-05 -0.000575761 2.04672e-05)
(7.76626e-05 -0.000571166 2.04675e-05)
(0.000127148 -0.000562223 2.04674e-05)
(0.000175665 -0.000549002 2.04671e-05)
(0.000222845 -0.000531603 2.0467e-05)
(0.000268329 -0.000510158 2.04669e-05)
(0.000268988 -0.000550175 8.59563e-05)
(0.000315915 -0.000524638 8.59562e-05)
(0.000360438 -0.000495107 8.59566e-05)
(0.000402218 -0.000461809 8.59567e-05)
(0.000440937 -0.000424996 8.59563e-05)
(0.0004763 -0.000384948 8.59562e-05)
(0.000508038 -0.000341972 8.59566e-05)
(0.00053591 -0.000296391 8.59563e-05)
(0.000559703 -0.000248556 8.59563e-05)
(0.000579236 -0.000198829 8.59565e-05)
(0.00059436 -0.000147589 8.59567e-05)
(0.000604962 -9.5225e-05 8.59568e-05)
(0.000610959 -4.21369e-05 8.59566e-05)
(0.000612306 1.12722e-05 8.59565e-05)
(0.000608994 6.45953e-05 8.59568e-05)
(0.000601047 0.000117427 8.59568e-05)
(0.000588525 0.000169365 8.59564e-05)
(0.000571525 0.000220014 8.59563e-05)
(0.000550175 0.000268988 8.59563e-05)
(0.000524638 0.000315915 8.59562e-05)
(0.000495107 0.000360438 8.59566e-05)
(0.000461809 0.000402218 8.59567e-05)
(0.000424996 0.000440937 8.59563e-05)
(0.000384948 0.0004763 8.59562e-05)
(0.000341972 0.000508038 8.59566e-05)
(0.000296391 0.00053591 8.59563e-05)
(0.000248556 0.000559703 8.59563e-05)
(0.000198829 0.000579236 8.59565e-05)
(0.000147589 0.00059436 8.59567e-05)
(9.5225e-05 0.000604962 8.59568e-05)
(4.21369e-05 0.000610959 8.59566e-05)
(-1.12722e-05 0.000612306 8.59565e-05)
(-6.45953e-05 0.000608994 8.59568e-05)
(-0.000117427 0.000601047 8.59568e-05)
(-0.000169365 0.000588525 8.59564e-05)
(-0.000220014 0.000571525 8.59563e-05)
(-0.000268988 0.000550175 8.59563e-05)
(-0.000315915 0.000524638 8.59562e-05)
(-0.000360438 0.000495107 8.59566e-05)
(-0.000402218 0.000461809 8.59567e-05)
(-0.000440937 0.000424996 8.59563e-05)
(-0.0004763 0.000384948 8.59562e-05)
(-0.000508038 0.000341972 8.59566e-05)
(-0.00053591 0.000296391 8.59563e-05)
(-0.000559703 0.000248556 8.59563e-05)
(-0.000579236 0.000198829 8.59565e-05)
(-0.00059436 0.000147589 8.59567e-05)
(-0.000604962 9.5225e-05 8.59568e-05)
(-0.000610959 4.21369e-05 8.59566e-05)
(-0.000612306 -1.12722e-05 8.59565e-05)
(-0.000608994 -6.45953e-05 8.59568e-05)
(-0.000601047 -0.000117427 8.59568e-05)
(-0.000588525 -0.000169365 8.59564e-05)
(-0.000571525 -0.000220014 8.59563e-05)
(-0.000550175 -0.000268988 8.59563e-05)
(-0.000524638 -0.000315915 8.59562e-05)
(-0.000495107 -0.000360438 8.59566e-05)
(-0.000461809 -0.000402218 8.59567e-05)
(-0.000424996 -0.000440937 8.59563e-05)
(-0.000384948 -0.0004763 8.59562e-05)
(-0.000341972 -0.000508038 8.59566e-05)
(-0.000296391 -0.00053591 8.59563e-05)
(-0.000248556 -0.000559703 8.59563e-05)
(-0.000198829 -0.000579236 8.59565e-05)
(-0.000147589 -0.00059436 8.59567e-05)
(-9.5225e-05 -0.000604962 8.59568e-05)
(-4.21369e-05 -0.000610959 8.59566e-05)
(1.12722e-05 -0.000612306 8.59565e-05)
(6.45953e-05 -0.000608994 8.59568e-05)
(0.000117427 -0.000601047 8.59568e-05)
(0.000169365 -0.000588525 8.59564e-05)
(0.000220014 -0.000571525 8.59563e-05)
(0.000206331 -0.000612274 0.000129967)
(0.000258909 -0.000591962 0.000129967)
(0.000309516 -0.000567144 0.000129967)
(0.000357768 -0.00053801 0.000129967)
(0.000403297 -0.00050478 0.000129967)
(0.000445757 -0.000467711 0.000129967)
(0.000484824 -0.000427081 0.000129967)
(0.000520202 -0.0003832 0.000129967)
(0.00055162 -0.000336403 0.000129967)
(0.000578841 -0.000287046 0.000129967)
(0.000601656 -0.000235505 0.000129967)
(0.000619892 -0.000182171 0.000129968)
(0.00063341 -0.00012745 0.000129968)
(0.000642108 -7.17596e-05 0.000129967)
(0.000645919 -1.55236e-05 0.000129967)
(0.000644813 4.08316e-05 0.000129967)
(0.000638801 9.68755e-05 0.000129967)
(0.000627927 0.000152182 0.000129967)
(0.000612274 0.000206331 0.000129967)
(0.000591962 0.000258909 0.000129967)
(0.000567144 0.000309516 0.000129967)
(0.00053801 0.000357768 0.000129967)
(0.00050478 0.000403297 0.000129967)
(0.000467711 0.000445757 0.000129967)
(0.000427081 0.000484824 0.000129967)
(0.0003832 0.000520202 0.000129967)
(0.000336403 0.00055162 0.000129967)
(0.000287046 0.000578841 0.000129967)
(0.000235505 0.000601656 0.000129967)
(0.000182171 0.000619892 0.000129968)
(0.00012745 0.00063341 0.000129968)
(7.17596e-05 0.000642108 0.000129967)
(1.55236e-05 0.000645919 0.000129967)
(-4.08316e-05 0.000644813 0.000129967)
(-9.68755e-05 0.000638801 0.000129967)
(-0.000152182 0.000627927 0.000129967)
(-0.000206331 0.000612274 0.000129967)
(-0.000258909 0.000591962 0.000129967)
(-0.000309516 0.000567144 0.000129967)
(-0.000357768 0.00053801 0.000129967)
(-0.000403297 0.00050478 0.000129967)
(-0.000445757 0.000467711 0.000129967)
(-0.000484824 0.000427081 0.000129967)
(-0.000520202 0.0003832 0.000129967)
(-0.00055162 0.000336403 0.000129967)
(-0.000578841 0.000287046 0.000129967)
(-0.000601656 0.000235505 0.000129967)
(-0.000619892 0.000182171 0.000129968)
(-0.00063341 0.00012745 0.000129968)
(-0.000642108 7.17596e-05 0.000129967)
(-0.000645919 1.55236e-05 0.000129967)
(-0.000644813 -4.08316e-05 0.000129967)
(-0.000638801 -9.68755e-05 0.000129967)
(-0.000627927 -0.000152182 0.000129967)
(-0.000612274 -0.000206331 0.000129967)
(-0.000591962 -0.000258909 0.000129967)
(-0.000567144 -0.000309516 0.000129967)
(-0.00053801 -0.000357768 0.000129967)
(-0.00050478 -0.000403297 0.000129967)
(-0.000467711 -0.000445757 0.000129967)
(-0.000427081 -0.000484824 0.000129967)
(-0.0003832 -0.000520202 0.000129967)
(-0.000336403 -0.00055162 0.000129967)
(-0.000287046 -0.000578841 0.000129967)
(-0.000235505 -0.000601656 0.000129967)
(-0.000182171 -0.000619892 0.000129968)
(-0.00012745 -0.00063341 0.000129968)
(-7.17596e-05 -0.000642108 0.000129967)
(-1.55236e-05 -0.000645919 0.000129967)
(4.08316e-05 -0.000644813 0.000129967)
(9.68755e-05 -0.000638801 0.000129967)
(0.000152182 -0.000627927 0.000129967)
(0.000129257 -0.000664063 0.000154338)
(0.000186642 -0.000650271 0.000154339)
(0.000242607 -0.00063153 0.000154339)
(0.000296725 -0.000607982 0.000154339)
(0.000348584 -0.000579807 0.000154339)
(0.000397791 -0.00054722 0.000154339)
(0.000443971 -0.000510467 0.000154339)
(0.000486772 -0.000469831 0.000154339)
(0.000525868 -0.000425617 0.000154339)
(0.000560962 -0.000378165 0.000154339)
(0.000591786 -0.000327836 0.000154339)
(0.000618107 -0.000275011 0.000154339)
(0.000639724 -0.000220092 0.000154339)
(0.000656472 -0.000163499 0.000154339)
(0.000668223 -0.000105661 0.000154339)
(0.00067489 -4.702e-05 0.000154339)
(0.00067642 1.19796e-05 0.000154339)
(0.000672802 7.08882e-05 0.000154338)
(0.000664063 0.000129257 0.000154338)
(0.000650271 0.000186642 0.000154339)
(0.00063153 0.000242607 0.000154339)
(0.000607982 0.000296725 0.000154339)
(0.000579807 0.000348584 0.000154339)
(0.00054722 0.000397791 0.000154339)
(0.000510467 0.000443971 0.000154339)
(0.000469831 0.000486772 0.000154339)
(0.000425617 0.000525868 0.000154339)
(0.000378165 0.000560962 0.000154339)
(0.000327836 0.000591786 0.000154339)
(0.000275011 0.000618107 0.000154339)
(0.000220092 0.000639724 0.000154339)
(0.000163499 0.000656472 0.000154339)
(0.000105661 0.000668223 0.000154339)
(4.702e-05 0.00067489 0.000154339)
(-1.19796e-05 0.00067642 0.000154339)
(-7.08882e-05 0.000672802 0.000154338)
(-0.000129257 0.000664063 0.000154338)
(-0.000186642 0.000650271 0.000154339)
(-0.000242607 0.00063153 0.000154339)
(-0.000296725 0.000607982 0.000154339)
(-0.000348584 0.000579807 0.000154339)
(-0.000397791 0.00054722 0.000154339)
(-0.000443971 0.000510467 0.000154339)
(-0.000486772 0.000469831 0.000154339)
(-0.000525868 0.000425617 0.000154339)
(-0.000560962 0.000378165 0.000154339)
(-0.000591786 0.000327836 0.000154339)
(-0.000618107 0.000275011 0.000154339)
(-0.000639724 0.000220092 0.000154339)
(-0.000656472 0.000163499 0.000154339)
(-0.000668223 0.000105661 0.000154339)
(-0.00067489 4.702e-05 0.000154339)
(-0.00067642 -1.19796e-05 0.000154339)
(-0.000672802 -7.08882e-05 0.000154338)
(-0.000664063 -0.000129257 0.000154338)
(-0.000650271 -0.000186642 0.000154339)
(-0.00063153 -0.000242607 0.000154339)
(-0.000607982 -0.000296725 0.000154339)
(-0.000579807 -0.000348584 0.000154339)
(-0.00054722 -0.000397791 0.000154339)
(-0.000510467 -0.000443971 0.000154339)
(-0.000469831 -0.000486772 0.000154339)
(-0.000425617 -0.000525868 0.000154339)
(-0.000378165 -0.000560962 0.000154339)
(-0.000327836 -0.000591786 0.000154339)
(-0.000275011 -0.000618107 0.000154339)
(-0.000220092 -0.000639724 0.000154339)
(-0.000163499 -0.000656472 0.000154339)
(-0.000105661 -0.000668223 0.000154339)
(-4.702e-05 -0.00067489 0.000154339)
(1.19796e-05 -0.00067642 0.000154339)
(7.08882e-05 -0.000672802 0.000154338)
(3.89093e-05 -0.000700677 0.000169607)
(9.98288e-05 -0.00069462 0.000169607)
(0.000159989 -0.000683276 0.000169607)
(0.000218932 -0.000666731 0.000169607)
(0.000276208 -0.000645113 0.000169607)
(0.000331383 -0.000618585 0.000169607)
(0.000384035 -0.00058735 0.000169607)
(0.000433764 -0.000551643 0.000169606)
(0.000480192 -0.000511739 0.000169606)
(0.000522965 -0.00046794 0.000169606)
(0.000561759 -0.00042058 0.000169606)
(0.000596278 -0.00037002 0.000169607)
(0.000626258 -0.000316642 0.000169606)
(0.000651472 -0.000260855 0.000169606)
(0.000671728 -0.000203083 0.000169606)
(0.000686872 -0.000143766 0.000169607)
(0.000696788 -8.33536e-05 0.000169607)
(0.000701402 -2.2307e-05 0.000169606)
(0.000700677 3.89093e-05 0.000169607)
(0.00069462 9.98288e-05 0.000169607)
(0.000683276 0.000159989 0.000169607)
(0.000666731 0.000218932 0.000169607)
(0.000645113 0.000276208 0.000169607)
(0.000618585 0.000331383 0.000169607)
(0.00058735 0.000384035 0.000169607)
(0.000551643 0.000433764 0.000169606)
(0.000511739 0.000480192 0.000169606)
(0.00046794 0.000522965 0.000169606)
(0.00042058 0.000561759 0.000169606)
(0.00037002 0.000596278 0.000169607)
(0.000316642 0.000626258 0.000169606)