/*--------------------------------*- C++ -*----------------------------------*\
| =========                 |                                                 |
| \\      /  F ield         | OpenFOAM: The Open Source CFD Toolbox           |
|  \\    /   O peration     | Version:  2312                                  |
|   \\  /    A nd           | Website:  www.openfoam.com                      |
|    \\/     M anipulation  |                                                 |
\*---------------------------------------------------------------------------*/
FoamFile
{
    version     2.0;
    format      ascii;
    arch        "LSB;label=32;scalar=64";
    class       volTensorField;
    location    "0.9";
    object      F;
}
// * * * * * * * * * * * * * * * * * * * * * * * * * * * * * * * * * * * * * //

dimensions      [0 0 0 0 0 0 0];

internalField   nonuniform List<tensor> 
12960
(
(1.02863 0.0178064 -0.192292 0.0507592 1.01524 0.346107 -0.0491969 -0.00214788 0.969806)
(1.02258 0.0184482 -0.221726 0.0514009 1.0213 0.328031 -0.0488226 -0.00642758 0.969806)
(1.0165 0.0180289 -0.249472 0.0509813 1.02737 0.307458 -0.0480765 -0.0106582 0.969806)
(1.01059 0.016561 -0.275319 0.0495135 1.03328 0.284545 -0.0469648 -0.014808 0.969806)
(1.00503 0.0140893 -0.299072 0.0470421 1.03884 0.259467 -0.0454956 -0.0188449 0.969806)
(0.999977 0.0106888 -0.320548 0.0436418 1.04389 0.232414 -0.0436798 -0.0227382 0.969807)
(0.995593 0.00646314 -0.339584 0.0394158 1.04828 0.203592 -0.0415318 -0.0264589 0.969806)
(0.99201 0.00154044 -0.356036 0.034493 1.05186 0.17322 -0.0390678 -0.0299781 0.969806)
(0.989336 -0.00392964 -0.369779 0.0290229 1.05453 0.141531 -0.0363067 -0.033269 0.969807)
(0.987653 -0.00978095 -0.380706 0.0231715 1.05622 0.108763 -0.033269 -0.0363064 0.969807)
(0.987011 -0.015836 -0.388737 0.0171167 1.05686 0.075169 -0.0299781 -0.0390677 0.969806)
(0.98743 -0.0219106 -0.393809 0.0110424 1.05644 0.0410023 -0.0264587 -0.0415315 0.969806)
(0.988898 -0.0278196 -0.395884 0.00513309 1.05497 0.00652363 -0.0227381 -0.0436796 0.969806)
(0.99137 -0.033384 -0.394946 -0.000431447 1.0525 -0.0280047 -0.0188447 -0.0454954 0.969806)
(0.99477 -0.0384351 -0.391002 -0.00548227 1.0491 -0.06232 -0.0148079 -0.0469647 0.969806)
(0.998996 -0.0428186 -0.384083 -0.00986583 1.04488 -0.0961611 -0.0106582 -0.0480766 0.969806)
(1.00392 -0.0464018 -0.37424 -0.0134491 1.03995 -0.12927 -0.00642747 -0.0488228 0.969806)
(1.00939 -0.0490759 -0.36155 -0.0161231 1.03448 -0.161396 -0.00214802 -0.0491974 0.969806)
(1.01524 -0.0507592 -0.346107 -0.0178064 1.02863 -0.192292 0.00214788 -0.0491969 0.969806)
(1.0213 -0.0514009 -0.328031 -0.0184482 1.02258 -0.221726 0.00642758 -0.0488226 0.969806)
(1.02737 -0.0509813 -0.307458 -0.0180289 1.0165 -0.249472 0.0106582 -0.0480765 0.969806)
(1.03328 -0.0495135 -0.284545 -0.016561 1.01059 -0.275319 0.014808 -0.0469648 0.969806)
(1.03884 -0.0470421 -0.259467 -0.0140893 1.00503 -0.299072 0.0188449 -0.0454956 0.969806)
(1.04389 -0.0436418 -0.232414 -0.0106888 0.999977 -0.320548 0.0227382 -0.0436798 0.969807)
(1.04828 -0.0394158 -0.203592 -0.00646314 0.995593 -0.339584 0.0264589 -0.0415318 0.969806)
(1.05186 -0.034493 -0.17322 -0.00154044 0.99201 -0.356036 0.0299781 -0.0390678 0.969806)
(1.05453 -0.0290229 -0.141531 0.00392964 0.989336 -0.369779 0.033269 -0.0363067 0.969807)
(1.05622 -0.0231715 -0.108763 0.00978095 0.987653 -0.380706 0.0363064 -0.033269 0.969807)
(1.05686 -0.0171167 -0.075169 0.015836 0.987011 -0.388737 0.0390677 -0.0299781 0.969806)
(1.05644 -0.0110424 -0.0410023 0.0219106 0.98743 -0.393809 0.0415315 -0.0264587 0.969806)
(1.05497 -0.00513309 -0.00652363 0.0278196 0.988898 -0.395884 0.0436796 -0.0227381 0.969806)
(1.0525 0.000431447 0.0280047 0.033384 0.99137 -0.394946 0.0454954 -0.0188447 0.969806)
(1.0491 0.00548227 0.06232 0.0384351 0.99477 -0.391002 0.0469647 -0.0148079 0.969806)
(1.04488 0.00986583 0.0961611 0.0428186 0.998996 -0.384083 0.0480766 -0.0106582 0.969806)
(1.03995 0.0134491 0.12927 0.0464018 1.00392 -0.37424 0.0488228 -0.00642747 0.969806)
(1.03448 0.0161231 0.161396 0.0490759 1.00939 -0.36155 0.0491974 -0.00214802 0.969806)
(1.02863 0.0178064 0.192292 0.0507592 1.01524 -0.346107 0.0491969 0.00214788 0.969806)
(1.02258 0.0184482 0.221726 0.0514009 1.0213 -0.328031 0.0488226 0.00642758 0.969806)
(1.0165 0.0180289 0.249472 0.0509813 1.02737 -0.307458 0.0480765 0.0106582 0.969806)
(1.01059 0.016561 0.275319 0.0495135 1.03328 -0.284545 0.0469648 0.014808 0.969806)
(1.00503 0.0140893 0.299072 0.0470421 1.03884 -0.259467 0.0454956 0.0188449 0.969806)
(0.999977 0.0106888 0.320548 0.0436418 1.04389 -0.232414 0.0436798 0.0227382 0.969807)
(0.995593 0.00646314 0.339584 0.0394158 1.04828 -0.203592 0.0415318 0.0264589 0.969806)
(0.99201 0.00154044 0.356036 0.034493 1.05186 -0.17322 0.0390678 0.0299781 0.969806)
(0.989336 -0.00392964 0.369779 0.0290229 1.05453 -0.141531 0.0363067 0.033269 0.969807)
(0.987653 -0.00978095 0.380706 0.0231715 1.05622 -0.108763 0.033269 0.0363064 0.969807)
(0.987011 -0.015836 0.388737 0.0171167 1.05686 -0.075169 0.0299781 0.0390677 0.969806)
(0.98743 -0.0219106 0.393809 0.0110424 1.05644 -0.0410023 0.0264587 0.0415315 0.969806)
(0.988898 -0.0278196 0.395884 0.00513309 1.05497 -0.00652363 0.0227381 0.0436796 0.969806)
(0.99137 -0.033384 0.394946 -0.000431446 1.0525 0.0280047 0.0188447 0.0454954 0.969806)
(0.99477 -0.0384351 0.391002 -0.00548227 1.0491 0.06232 0.0148079 0.0469647 0.969806)
(0.998996 -0.0428186 0.384083 -0.00986583 1.04488 0.0961611 0.0106582 0.0480766 0.969806)
(1.00392 -0.0464018 0.37424 -0.0134491 1.03995 0.12927 0.00642747 0.0488228 0.969806)
(1.00939 -0.0490759 0.36155 -0.0161231 1.03448 0.161396 0.00214802 0.0491974 0.969806)
(1.01524 -0.0507592 0.346107 -0.0178064 1.02863 0.192292 -0.00214788 0.0491969 0.969806)
(1.0213 -0.0514009 0.328031 -0.0184482 1.02258 0.221726 -0.00642758 0.0488226 0.969806)
(1.02737 -0.0509813 0.307458 -0.0180289 1.0165 0.249472 -0.0106582 0.0480765 0.969806)
(1.03328 -0.0495135 0.284545 -0.016561 1.01059 0.275319 -0.014808 0.0469648 0.969806)
(1.03884 -0.0470421 0.259467 -0.0140893 1.00503 0.299072 -0.0188449 0.0454956 0.969806)
(1.04389 -0.0436418 0.232414 -0.0106888 0.999977 0.320548 -0.0227382 0.0436798 0.969807)
(1.04828 -0.0394158 0.203592 -0.00646314 0.995593 0.339584 -0.0264589 0.0415318 0.969806)
(1.05186 -0.034493 0.17322 -0.00154044 0.99201 0.356036 -0.0299781 0.0390678 0.969806)
(1.05453 -0.0290229 0.141531 0.00392964 0.989336 0.369779 -0.033269 0.0363067 0.969807)
(1.05622 -0.0231715 0.108763 0.00978095 0.987653 0.380706 -0.0363064 0.033269 0.969807)
(1.05686 -0.0171167 0.075169 0.015836 0.987011 0.388737 -0.0390677 0.0299781 0.969806)
(1.05644 -0.0110424 0.0410023 0.0219106 0.98743 0.393809 -0.0415315 0.0264587 0.969806)
(1.05497 -0.00513309 0.00652363 0.0278196 0.988898 0.395884 -0.0436796 0.0227381 0.969806)
(1.0525 0.000431447 -0.0280047 0.033384 0.99137 0.394946 -0.0454954 0.0188447 0.969806)
(1.0491 0.00548227 -0.06232 0.0384351 0.99477 0.391002 -0.0469647 0.0148079 0.969806)
(1.04488 0.00986583 -0.0961611 0.0428186 0.998996 0.384083 -0.0480766 0.0106582 0.969806)
(1.03995 0.0134491 -0.12927 0.0464018 1.00392 0.37424 -0.0488228 0.00642747 0.969806)
(1.03448 0.0161231 -0.161396 0.0490759 1.00939 0.36155 -0.0491974 0.00214802 0.969806)
(1.04037 0.0221257 -0.161524 0.0489882 1.01427 0.386919 -0.0358915 -0.00156702 0.928314)
(1.03399 0.0238516 -0.194631 0.050714 1.02064 0.371369 -0.0356184 -0.00468922 0.928314)
(1.02742 0.0244448 -0.226258 0.0513069 1.02721 0.352993 -0.035074 -0.00777564 0.928313)
(1.02084 0.0238869 -0.256162 0.0507491 1.03379 0.33193 -0.0342628 -0.010803 0.928313)
(1.01446 0.0221954 -0.284117 0.0490577 1.04017 0.308341 -0.0331911 -0.0137483 0.928314)
(1.00847 0.0194212 -0.30991 0.0462834 1.04617 0.282405 -0.0318663 -0.0165886 0.928313)
(1.00305 0.0156487 -0.333344 0.0425109 1.05158 0.25432 -0.0302993 -0.019303 0.928313)
(0.998366 0.010993 -0.35424 0.0378551 1.05627 0.224299 -0.0285019 -0.0218703 0.928313)
(0.994565 0.00559503 -0.372441 0.0324572 1.06007 0.192572 -0.0264874 -0.0242711 0.928313)
(0.991759 -0.000381043 -0.387808 0.0264811 1.06287 0.159379 -0.0242712 -0.0264871 0.928313)
(0.990033 -0.00675381 -0.400223 0.0201084 1.0646 0.124972 -0.0218703 -0.0285018 0.928313)
(0.98944 -0.0133295 -0.409592 0.0135328 1.06519 0.0896148 -0.0193028 -0.0302991 0.928313)
(0.989998 -0.0199081 -0.415844 0.0069543 1.06463 0.0535758 -0.0165885 -0.0318663 0.928313)
(0.991689 -0.0262898 -0.41893 0.000572461 1.06294 0.0171288 -0.0137481 -0.0331909 0.928313)
(0.994463 -0.032281 -0.418829 -0.00541865 1.06017 -0.0194488 -0.010803 -0.0342628 0.928313)
(0.998236 -0.0376995 -0.41554 -0.0108369 1.0564 -0.0558779 -0.00777571 -0.035074 0.928313)
(1.00289 -0.0423806 -0.409089 -0.015518 1.05174 -0.0918822 -0.00468921 -0.0356185 0.928314)
(1.00829 -0.046182 -0.399524 -0.0193194 1.04634 -0.127187 -0.00156696 -0.0358917 0.928313)
(1.01427 -0.0489882 -0.386919 -0.0221257 1.04037 -0.161524 0.00156702 -0.0358915 0.928314)
(1.02064 -0.050714 -0.371369 -0.0238516 1.03399 -0.194631 0.00468922 -0.0356184 0.928314)
(1.02721 -0.0513069 -0.352993 -0.0244448 1.02742 -0.226258 0.00777564 -0.035074 0.928313)
(1.03379 -0.0507491 -0.33193 -0.0238869 1.02084 -0.256162 0.010803 -0.0342628 0.928313)
(1.04017 -0.0490577 -0.308341 -0.0221954 1.01446 -0.284117 0.0137483 -0.0331911 0.928314)
(1.04617 -0.0462834 -0.282405 -0.0194212 1.00847 -0.30991 0.0165886 -0.0318663 0.928313)
(1.05158 -0.0425109 -0.25432 -0.0156487 1.00305 -0.333344 0.019303 -0.0302993 0.928313)
(1.05627 -0.0378551 -0.224299 -0.010993 0.998366 -0.35424 0.0218703 -0.0285019 0.928313)
(1.06007 -0.0324572 -0.192572 -0.00559503 0.994565 -0.372441 0.0242711 -0.0264874 0.928313)
(1.06287 -0.0264811 -0.159379 0.000381043 0.991759 -0.387808 0.0264871 -0.0242712 0.928313)
(1.0646 -0.0201084 -0.124972 0.00675381 0.990033 -0.400223 0.0285018 -0.0218703 0.928313)
(1.06519 -0.0135328 -0.0896148 0.0133295 0.98944 -0.409592 0.0302991 -0.0193028 0.928313)
(1.06463 -0.0069543 -0.0535758 0.0199081 0.989998 -0.415844 0.0318663 -0.0165885 0.928313)
(1.06294 -0.000572461 -0.0171288 0.0262898 0.991689 -0.41893 0.0331909 -0.0137481 0.928313)
(1.06017 0.00541865 0.0194488 0.032281 0.994463 -0.418829 0.0342628 -0.010803 0.928313)
(1.0564 0.0108369 0.0558779 0.0376995 0.998236 -0.41554 0.035074 -0.00777571 0.928313)
(1.05174 0.015518 0.0918822 0.0423806 1.00289 -0.409089 0.0356185 -0.00468921 0.928314)
(1.04634 0.0193194 0.127187 0.046182 1.00829 -0.399524 0.0358917 -0.00156696 0.928313)
(1.04037 0.0221257 0.161524 0.0489882 1.01427 -0.386919 0.0358915 0.00156702 0.928314)
(1.03399 0.0238516 0.194631 0.050714 1.02064 -0.371369 0.0356184 0.00468922 0.928314)
(1.02742 0.0244448 0.226258 0.0513069 1.02721 -0.352993 0.035074 0.00777564 0.928313)
(1.02084 0.0238869 0.256162 0.0507491 1.03379 -0.33193 0.0342628 0.010803 0.928313)
(1.01446 0.0221954 0.284117 0.0490577 1.04017 -0.308341 0.0331911 0.0137483 0.928314)
(1.00847 0.0194212 0.30991 0.0462834 1.04617 -0.282405 0.0318663 0.0165886 0.928313)
(1.00305 0.0156487 0.333344 0.0425109 1.05158 -0.25432 0.0302993 0.019303 0.928313)
(0.998366 0.010993 0.35424 0.0378551 1.05627 -0.224299 0.0285019 0.0218703 0.928313)
(0.994565 0.00559503 0.372441 0.0324572 1.06007 -0.192572 0.0264874 0.0242711 0.928313)
(0.991759 -0.000381043 0.387808 0.0264811 1.06287 -0.159379 0.0242712 0.0264871 0.928313)
(0.990033 -0.00675381 0.400223 0.0201084 1.0646 -0.124972 0.0218703 0.0285018 0.928313)
(0.98944 -0.0133295 0.409592 0.0135328 1.06519 -0.0896148 0.0193028 0.0302991 0.928313)
(0.989998 -0.0199081 0.415844 0.0069543 1.06463 -0.0535758 0.0165885 0.0318663 0.928313)
(0.991689 -0.0262898 0.41893 0.000572461 1.06294 -0.0171288 0.0137481 0.0331909 0.928313)
(0.994463 -0.032281 0.418829 -0.00541865 1.06017 0.0194488 0.010803 0.0342628 0.928313)
(0.998236 -0.0376995 0.41554 -0.0108369 1.0564 0.0558779 0.00777571 0.035074 0.928313)
(1.00289 -0.0423806 0.409089 -0.015518 1.05174 0.0918822 0.00468921 0.0356185 0.928314)
(1.00829 -0.046182 0.399524 -0.0193194 1.04634 0.127187 0.00156696 0.0358917 0.928313)
(1.01427 -0.0489882 0.386919 -0.0221257 1.04037 0.161524 -0.00156702 0.0358915 0.928314)
(1.02064 -0.050714 0.371369 -0.0238516 1.03399 0.194631 -0.00468922 0.0356184 0.928314)
(1.02721 -0.0513069 0.352993 -0.0244448 1.02742 0.226258 -0.00777564 0.035074 0.928313)
(1.03379 -0.0507491 0.33193 -0.0238869 1.02084 0.256162 -0.010803 0.0342628 0.928313)
(1.04017 -0.0490577 0.308341 -0.0221954 1.01446 0.284117 -0.0137483 0.0331911 0.928314)
(1.04617 -0.0462834 0.282405 -0.0194212 1.00847 0.30991 -0.0165886 0.0318663 0.928313)
(1.05158 -0.0425109 0.25432 -0.0156487 1.00305 0.333344 -0.019303 0.0302993 0.928313)
(1.05627 -0.0378551 0.224299 -0.010993 0.998366 0.35424 -0.0218703 0.0285019 0.928313)
(1.06007 -0.0324572 0.192572 -0.00559503 0.994565 0.372441 -0.0242711 0.0264874 0.928313)
(1.06287 -0.0264811 0.159379 0.000381043 0.991759 0.387808 -0.0264871 0.0242712 0.928313)
(1.0646 -0.0201084 0.124972 0.00675381 0.990033 0.400223 -0.0285018 0.0218703 0.928313)
(1.06519 -0.0135328 0.0896148 0.0133295 0.98944 0.409592 -0.0302991 0.0193028 0.928313)
(1.06463 -0.0069543 0.0535758 0.0199081 0.989998 0.415844 -0.0318663 0.0165885 0.928313)
(1.06294 -0.000572461 0.0171288 0.0262898 0.991689 0.41893 -0.0331909 0.0137481 0.928313)
(1.06017 0.00541865 -0.0194488 0.032281 0.994463 0.418829 -0.0342628 0.010803 0.928313)
(1.0564 0.0108369 -0.0558779 0.0376995 0.998236 0.41554 -0.035074 0.00777571 0.928313)
(1.05174 0.015518 -0.0918822 0.0423806 1.00289 0.409089 -0.0356185 0.00468921 0.928314)
(1.04634 0.0193194 -0.127187 0.046182 1.00829 0.399524 -0.0358917 0.00156696 0.928313)
(1.06044 0.0270279 -0.121858 0.0421678 1.01153 0.425965 -0.014145 -0.000617611 0.896101)
(1.05406 0.0307483 -0.15852 0.045888 1.01791 0.413724 -0.0140372 -0.00184804 0.896101)
(1.04713 0.0333043 -0.193975 0.0484441 1.02484 0.398333 -0.0138228 -0.00306444 0.896101)
(1.03986 0.0346187 -0.227954 0.0497584 1.03211 0.379912 -0.0135032 -0.00425744 0.8961)
(1.03248 0.0346509 -0.260198 0.0497908 1.03949 0.358599 -0.0130808 -0.0054183 0.8961)
(1.0252 0.0334004 -0.290461 0.0485402 1.04677 0.334556 -0.0125587 -0.0065377 0.8961)
(1.01825 0.0309051 -0.318514 0.0460448 1.05372 0.307968 -0.0119413 -0.00760742 0.8961)
(1.01184 0.0272407 -0.344144 0.0423805 1.06013 0.279036 -0.0112328 -0.00861932 0.8961)
(1.00616 0.0225186 -0.367154 0.0376584 1.06581 0.24798 -0.0104387 -0.0095653 0.8961)
(1.00139 0.0168823 -0.387369 0.0320221 1.07058 0.215037 -0.00956536 -0.0104386 0.8961)
(0.997666 0.0105028 -0.404637 0.0256428 1.0743 0.180457 -0.00861921 -0.0112326 0.8961)
(0.995109 0.00357437 -0.418825 0.0187143 1.07686 0.144504 -0.00760732 -0.0119412 0.8961)
(0.993795 -0.00369266 -0.429825 0.0114471 1.07817 0.107451 -0.00653762 -0.0125587 0.8961)
(0.993763 -0.0110775 -0.437555 0.00406219 1.0782 0.0695798 -0.00541814 -0.0130806 0.8961)
(0.995013 -0.0183559 -0.441954 -0.00321599 1.07695 0.0311798 -0.00425751 -0.0135032 0.8961)
(0.997509 -0.0253067 -0.44299 -0.0101667 1.07446 -0.007458 -0.00306449 -0.0138227 0.8961)
(1.00117 -0.0317182 -0.440654 -0.0165783 1.07079 -0.0460388 -0.00184805 -0.0140372 0.896101)
(1.0059 -0.0373961 -0.434965 -0.0222562 1.06607 -0.0842691 -0.000617523 -0.014145 0.896101)
(1.01153 -0.0421678 -0.425965 -0.0270279 1.06044 -0.121858 0.000617611 -0.014145 0.896101)
(1.01791 -0.045888 -0.413724 -0.0307483 1.05406 -0.15852 0.00184804 -0.0140372 0.896101)
(1.02484 -0.0484441 -0.398333 -0.0333043 1.04713 -0.193975 0.00306444 -0.0138228 0.896101)
(1.03211 -0.0497584 -0.379912 -0.0346187 1.03986 -0.227954 0.00425744 -0.0135032 0.8961)
(1.03949 -0.0497908 -0.358599 -0.0346509 1.03248 -0.260198 0.0054183 -0.0130808 0.8961)
(1.04677 -0.0485402 -0.334556 -0.0334004 1.0252 -0.290461 0.0065377 -0.0125587 0.8961)
(1.05372 -0.0460448 -0.307968 -0.0309051 1.01825 -0.318514 0.00760742 -0.0119413 0.8961)
(1.06013 -0.0423805 -0.279036 -0.0272407 1.01184 -0.344144 0.00861932 -0.0112328 0.8961)
(1.06581 -0.0376584 -0.24798 -0.0225186 1.00616 -0.367154 0.0095653 -0.0104387 0.8961)
(1.07058 -0.0320221 -0.215037 -0.0168823 1.00139 -0.387369 0.0104386 -0.00956536 0.8961)
(1.0743 -0.0256428 -0.180457 -0.0105028 0.997666 -0.404637 0.0112326 -0.00861921 0.8961)
(1.07686 -0.0187143 -0.144504 -0.00357437 0.995109 -0.418825 0.0119412 -0.00760732 0.8961)
(1.07817 -0.0114471 -0.107451 0.00369266 0.993795 -0.429825 0.0125587 -0.00653762 0.8961)
(1.0782 -0.00406219 -0.0695798 0.0110775 0.993763 -0.437555 0.0130806 -0.00541814 0.8961)
(1.07695 0.00321599 -0.0311798 0.0183559 0.995013 -0.441954 0.0135032 -0.00425751 0.8961)
(1.07446 0.0101667 0.007458 0.0253067 0.997509 -0.44299 0.0138227 -0.00306449 0.8961)
(1.07079 0.0165783 0.0460388 0.0317182 1.00117 -0.440654 0.0140372 -0.00184805 0.896101)
(1.06607 0.0222562 0.0842691 0.0373961 1.0059 -0.434965 0.014145 -0.000617523 0.896101)
(1.06044 0.0270279 0.121858 0.0421678 1.01153 -0.425965 0.014145 0.000617611 0.896101)
(1.05406 0.0307483 0.15852 0.045888 1.01791 -0.413724 0.0140372 0.00184804 0.896101)
(1.04713 0.0333043 0.193975 0.0484441 1.02484 -0.398333 0.0138228 0.00306444 0.896101)
(1.03986 0.0346187 0.227954 0.0497584 1.03211 -0.379912 0.0135032 0.00425744 0.8961)
(1.03248 0.0346509 0.260198 0.0497908 1.03949 -0.358599 0.0130808 0.0054183 0.8961)
(1.0252 0.0334004 0.290461 0.0485402 1.04677 -0.334556 0.0125587 0.0065377 0.8961)
(1.01825 0.0309051 0.318514 0.0460448 1.05372 -0.307968 0.0119413 0.00760742 0.8961)
(1.01184 0.0272407 0.344144 0.0423805 1.06013 -0.279036 0.0112328 0.00861932 0.8961)
(1.00616 0.0225186 0.367154 0.0376584 1.06581 -0.24798 0.0104387 0.0095653 0.8961)
(1.00139 0.0168823 0.387369 0.0320221 1.07058 -0.215037 0.00956536 0.0104386 0.8961)
(0.997666 0.0105028 0.404637 0.0256428 1.0743 -0.180457 0.00861921 0.0112326 0.8961)
(0.995109 0.00357437 0.418825 0.0187143 1.07686 -0.144504 0.00760732 0.0119412 0.8961)
(0.993795 -0.00369266 0.429825 0.0114471 1.07817 -0.107451 0.00653762 0.0125587 0.8961)
(0.993763 -0.0110775 0.437555 0.00406219 1.0782 -0.0695798 0.00541814 0.0130806 0.8961)
(0.995013 -0.0183559 0.441954 -0.00321599 1.07695 -0.0311798 0.00425751 0.0135032 0.8961)
(0.997509 -0.0253067 0.44299 -0.0101667 1.07446 0.007458 0.00306449 0.0138227 0.8961)
(1.00117 -0.0317182 0.440654 -0.0165783 1.07079 0.0460388 0.00184805 0.0140372 0.896101)
(1.0059 -0.0373961 0.434965 -0.0222562 1.06607 0.0842691 0.000617523 0.014145 0.896101)
(1.01153 -0.0421678 0.425965 -0.0270279 1.06044 0.121858 -0.000617611 0.014145 0.896101)
(1.01791 -0.045888 0.413724 -0.0307483 1.05406 0.15852 -0.00184804 0.0140372 0.896101)
(1.02484 -0.0484441 0.398333 -0.0333043 1.04713 0.193975 -0.00306444 0.0138228 0.896101)
(1.03211 -0.0497584 0.379912 -0.0346187 1.03986 0.227954 -0.00425744 0.0135032 0.8961)
(1.03949 -0.0497908 0.358599 -0.0346509 1.03248 0.260198 -0.0054183 0.0130808 0.8961)
(1.04677 -0.0485402 0.334556 -0.0334004 1.0252 0.290461 -0.0065377 0.0125587 0.8961)
(1.05372 -0.0460448 0.307968 -0.0309051 1.01825 0.318514 -0.00760742 0.0119413 0.8961)
(1.06013 -0.0423805 0.279036 -0.0272407 1.01184 0.344144 -0.00861932 0.0112328 0.8961)
(1.06581 -0.0376584 0.24798 -0.0225186 1.00616 0.367154 -0.0095653 0.0104387 0.8961)
(1.07058 -0.0320221 0.215037 -0.0168823 1.00139 0.387369 -0.0104386 0.00956536 0.8961)
(1.0743 -0.0256428 0.180457 -0.0105028 0.997666 0.404637 -0.0112326 0.00861921 0.8961)
(1.07686 -0.0187143 0.144504 -0.00357437 0.995109 0.418825 -0.0119412 0.00760732 0.8961)
(1.07817 -0.0114471 0.107451 0.00369266 0.993795 0.429825 -0.0125587 0.00653762 0.8961)
(1.0782 -0.00406219 0.0695798 0.0110775 0.993763 0.437555 -0.0130806 0.00541814 0.8961)
(1.07695 0.00321599 0.0311798 0.0183559 0.995013 0.441954 -0.0135032 0.00425751 0.8961)
(1.07446 0.0101667 -0.007458 0.0253067 0.997509 0.44299 -0.0138227 0.00306449 0.8961)
(1.07079 0.0165783 -0.0460388 0.0317182 1.00117 0.440654 -0.0140372 0.00184805 0.896101)
(1.06607 0.0222562 -0.0842691 0.0373961 1.0059 0.434965 -0.014145 0.000617523 0.896101)
(1.07695 0.0316306 -0.0759586 0.031116 1.0073 0.459314 -0.00560969 -0.000244914 0.874725)
(1.07098 0.037202 -0.115701 0.0366873 1.01327 0.450946 -0.00556705 -0.00073288 0.874725)
(1.06412 0.0416507 -0.154564 0.0411359 1.02013 0.439146 -0.00548209 -0.00121527 0.874724)
(1.0566 0.0448415 -0.192249 0.0443271 1.02765 0.424003 -0.00535521 -0.00168835 0.874725)
(1.04864 0.0466779 -0.228472 0.0461634 1.03561 0.405634 -0.00518769 -0.00214884 0.874724)
(1.04048 0.0471037 -0.262956 0.0465892 1.04377 0.384178 -0.0049807 -0.00259287 0.874724)
(1.03237 0.0461063 -0.295439 0.0455915 1.05188 0.359798 -0.00473576 -0.00301703 0.874724)
(1.02455 0.0437158 -0.325673 0.0432009 1.05969 0.33268 -0.00445475 -0.00341846 0.874724)
(1.01728 0.0400049 -0.353429 0.03949 1.06697 0.30303 -0.00413969 -0.00379342 0.874724)
(1.01075 0.0350859 -0.378494 0.0345713 1.0735 0.271073 -0.0037935 -0.00413969 0.874724)
(1.00518 0.0291087 -0.40068 0.0285941 1.07907 0.237054 -0.00341832 -0.00445463 0.874724)
(1.00073 0.0222551 -0.419816 0.0217404 1.08352 0.20123 -0.00301702 -0.00473574 0.874724)
(0.99754 0.0147331 -0.435756 0.0142183 1.08671 0.163875 -0.00259267 -0.00498058 0.874724)
(0.995703 0.00677117 -0.448381 0.00625647 1.08854 0.125273 -0.00214881 -0.00518756 0.874724)
(0.995277 -0.00138865 -0.457593 -0.00190336 1.08897 0.0857168 -0.0016884 -0.00535515 0.874725)
(0.996275 -0.00949868 -0.463322 -0.0100131 1.08797 0.0455089 -0.00121525 -0.00548211 0.874724)
(0.998665 -0.0173121 -0.465526 -0.0178266 1.08558 0.00495447 -0.000732922 -0.00556696 0.874724)
(1.00238 -0.0245915 -0.464186 -0.0251062 1.08187 -0.0356377 -0.000244899 -0.00560966 0.874725)
(1.0073 -0.031116 -0.459314 -0.0316306 1.07695 -0.0759586 0.000244914 -0.00560969 0.874725)
(1.01327 -0.0366873 -0.450946 -0.037202 1.07098 -0.115701 0.00073288 -0.00556705 0.874725)
(1.02013 -0.0411359 -0.439146 -0.0416507 1.06412 -0.154564 0.00121527 -0.00548209 0.874724)
(1.02765 -0.0443271 -0.424003 -0.0448415 1.0566 -0.192249 0.00168835 -0.00535521 0.874725)
(1.03561 -0.0461634 -0.405634 -0.0466779 1.04864 -0.228472 0.00214884 -0.00518769 0.874724)
(1.04377 -0.0465892 -0.384178 -0.0471037 1.04048 -0.262956 0.00259287 -0.0049807 0.874724)
(1.05188 -0.0455915 -0.359798 -0.0461063 1.03237 -0.295439 0.00301703 -0.00473576 0.874724)
(1.05969 -0.0432009 -0.33268 -0.0437158 1.02455 -0.325673 0.00341846 -0.00445475 0.874724)
(1.06697 -0.03949 -0.30303 -0.0400049 1.01728 -0.353429 0.00379342 -0.00413969 0.874724)
(1.0735 -0.0345713 -0.271073 -0.0350859 1.01075 -0.378494 0.00413969 -0.0037935 0.874724)
(1.07907 -0.0285941 -0.237054 -0.0291087 1.00518 -0.40068 0.00445463 -0.00341832 0.874724)
(1.08352 -0.0217404 -0.20123 -0.0222551 1.00073 -0.419816 0.00473574 -0.00301702 0.874724)
(1.08671 -0.0142183 -0.163875 -0.0147331 0.99754 -0.435756 0.00498058 -0.00259267 0.874724)
(1.08854 -0.00625647 -0.125273 -0.00677117 0.995703 -0.448381 0.00518756 -0.00214881 0.874724)
(1.08897 0.00190336 -0.0857168 0.00138865 0.995277 -0.457593 0.00535515 -0.0016884 0.874725)
(1.08797 0.0100131 -0.0455089 0.00949868 0.996275 -0.463322 0.00548211 -0.00121525 0.874724)
(1.08558 0.0178266 -0.00495447 0.0173121 0.998665 -0.465526 0.00556696 -0.000732922 0.874724)
(1.08187 0.0251062 0.0356377 0.0245915 1.00238 -0.464186 0.00560966 -0.000244899 0.874725)
(1.07695 0.0316306 0.0759586 0.031116 1.0073 -0.459314 0.00560969 0.000244914 0.874725)
(1.07098 0.037202 0.115701 0.0366873 1.01327 -0.450946 0.00556705 0.00073288 0.874725)
(1.06412 0.0416507 0.154564 0.0411359 1.02013 -0.439146 0.00548209 0.00121527 0.874724)
(1.0566 0.0448415 0.192249 0.0443271 1.02765 -0.424003 0.00535521 0.00168835 0.874725)
(1.04864 0.0466779 0.228472 0.0461634 1.03561 -0.405634 0.00518769 0.00214884 0.874724)
(1.04048 0.0471037 0.262956 0.0465892 1.04377 -0.384178 0.0049807 0.00259287 0.874724)
(1.03237 0.0461063 0.295439 0.0455915 1.05188 -0.359798 0.00473576 0.00301703 0.874724)
(1.02455 0.0437158 0.325673 0.0432009 1.05969 -0.33268 0.00445475 0.00341846 0.874724)
(1.01728 0.0400049 0.353429 0.03949 1.06697 -0.30303 0.00413969 0.00379342 0.874724)
(1.01075 0.0350859 0.378494 0.0345713 1.0735 -0.271073 0.0037935 0.00413969 0.874724)
(1.00518 0.0291087 0.40068 0.0285941 1.07907 -0.237054 0.00341832 0.00445463 0.874724)
(1.00073 0.0222551 0.419816 0.0217404 1.08352 -0.20123 0.00301702 0.00473574 0.874724)
(0.99754 0.0147331 0.435756 0.0142183 1.08671 -0.163875 0.00259267 0.00498058 0.874724)
(0.995703 0.00677117 0.448381 0.00625647 1.08854 -0.125273 0.00214881 0.00518756 0.874724)
(0.995277 -0.00138865 0.457593 -0.00190336 1.08897 -0.0857168 0.0016884 0.00535515 0.874725)
(0.996275 -0.00949868 0.463322 -0.0100131 1.08797 -0.0455089 0.00121525 0.00548211 0.874724)
(0.998665 -0.0173121 0.465526 -0.0178266 1.08558 -0.00495447 0.000732922 0.00556696 0.874724)
(1.00238 -0.0245915 0.464186 -0.0251062 1.08187 0.0356377 0.000244899 0.00560966 0.874725)
(1.0073 -0.031116 0.459314 -0.0316306 1.07695 0.0759586 -0.000244914 0.00560969 0.874725)
(1.01327 -0.0366873 0.450946 -0.037202 1.07098 0.115701 -0.00073288 0.00556705 0.874725)
(1.02013 -0.0411359 0.439146 -0.0416507 1.06412 0.154564 -0.00121527 0.00548209 0.874724)
(1.02765 -0.0443271 0.424003 -0.0448415 1.0566 0.192249 -0.00168835 0.00535521 0.874725)
(1.03561 -0.0461634 0.405634 -0.0466779 1.04864 0.228472 -0.00214884 0.00518769 0.874724)
(1.04377 -0.0465892 0.384178 -0.0471037 1.04048 0.262956 -0.00259287 0.0049807 0.874724)
(1.05188 -0.0455915 0.359798 -0.0461063 1.03237 0.295439 -0.00301703 0.00473576 0.874724)
(1.05969 -0.0432009 0.33268 -0.0437158 1.02455 0.325673 -0.00341846 0.00445475 0.874724)
(1.06697 -0.03949 0.30303 -0.0400049 1.01728 0.353429 -0.00379342 0.00413969 0.874724)
(1.0735 -0.0345713 0.271073 -0.0350859 1.01075 0.378494 -0.00413969 0.0037935 0.874724)
(1.07907 -0.0285941 0.237054 -0.0291087 1.00518 0.40068 -0.00445463 0.00341832 0.874724)
(1.08352 -0.0217404 0.20123 -0.0222551 1.00073 0.419816 -0.00473574 0.00301702 0.874724)
(1.08671 -0.0142183 0.163875 -0.0147331 0.99754 0.435756 -0.00498058 0.00259267 0.874724)
(1.08854 -0.00625647 0.125273 -0.00677117 0.995703 0.448381 -0.00518756 0.00214881 0.874724)
(1.08897 0.00190336 0.0857168 0.00138865 0.995277 0.457593 -0.00535515 0.0016884 0.874725)
(1.08797 0.0100131 0.0455089 0.00949868 0.996275 0.463322 -0.00548211 0.00121525 0.874724)
(1.08558 0.0178266 0.00495447 0.0173121 0.998665 0.465526 -0.00556696 0.000732922 0.874724)
(1.08187 0.0251062 -0.0356377 0.0245915 1.00238 0.464186 -0.00560966 0.000244899 0.874725)
(1.10319 0.0363443 -0.0242183 0.0216024 1.00147 0.483556 -0.00594133 -0.000259381 0.861641)
(1.09738 0.0447354 -0.0662709 0.029994 1.00728 0.479606 -0.00589631 -0.000776149 0.861641)
(1.09021 0.0519916 -0.107819 0.0372499 1.01445 0.472005 -0.00580608 -0.00128714 0.861641)
(1.08189 0.0578919 -0.148547 0.0431505 1.02277 0.460812 -0.00567146 -0.00178818 0.861641)
(1.07267 0.062257 -0.188144 0.0475155 1.03199 0.446111 -0.00549385 -0.00227558 0.861641)
(1.06283 0.064954 -0.226309 0.0502129 1.04183 0.428016 -0.00527485 -0.00274587 0.861641)
(1.05267 0.0659019 -0.262752 0.0511605 1.05199 0.406663 -0.00501538 -0.00319514 0.861641)
(1.0425 0.0650716 -0.297195 0.0503297 1.06216 0.382215 -0.00471781 -0.00362047 0.861641)
(1.03263 0.0624879 -0.329376 0.0477465 1.07203 0.354858 -0.0043845 -0.00401789 0.861641)
(1.02336 0.0582295 -0.359051 0.0434878 1.0813 0.324801 -0.00401792 -0.00438449 0.861641)
(1.01496 0.052425 -0.385993 0.0376838 1.08969 0.292272 -0.00362047 -0.00471789 0.861641)
(1.00771 0.0452523 -0.409997 0.0305108 1.09695 0.257518 -0.00319515 -0.00501548 0.861641)
(1.00181 0.0369287 -0.430881 0.022187 1.10285 0.220805 -0.00274561 -0.00527472 0.861641)
(0.997443 0.0277068 -0.448486 0.0129654 1.10722 0.182411 -0.00227557 -0.00549374 0.861641)
(0.994746 0.0178672 -0.462677 0.00312566 1.10991 0.142628 -0.00178823 -0.00567104 0.861641)
(0.993798 0.00770833 -0.473347 -0.00703337 1.11086 0.101761 -0.0012872 -0.00580609 0.861641)
(0.994629 -0.00246061 -0.480416 -0.0172025 1.11003 0.0601183 -0.000776134 -0.00589625 0.861641)
(0.997213 -0.0123312 -0.483827 -0.0270727 1.10745 0.0180187 -0.00025937 -0.00594145 0.861641)
(1.00147 -0.0216024 -0.483556 -0.0363443 1.10319 -0.0242183 0.000259381 -0.00594133 0.861641)
(1.00728 -0.029994 -0.479606 -0.0447354 1.09738 -0.0662709 0.000776149 -0.00589631 0.861641)
(1.01445 -0.0372499 -0.472005 -0.0519916 1.09021 -0.107819 0.00128714 -0.00580608 0.861641)
(1.02277 -0.0431505 -0.460812 -0.0578919 1.08189 -0.148547 0.00178818 -0.00567146 0.861641)
(1.03199 -0.0475155 -0.446111 -0.062257 1.07267 -0.188144 0.00227558 -0.00549385 0.861641)
(1.04183 -0.0502129 -0.428016 -0.064954 1.06283 -0.226309 0.00274587 -0.00527485 0.861641)
(1.05199 -0.0511605 -0.406663 -0.0659019 1.05267 -0.262752 0.00319514 -0.00501538 0.861641)
(1.06216 -0.0503297 -0.382215 -0.0650716 1.0425 -0.297195 0.00362047 -0.00471781 0.861641)
(1.07203 -0.0477465 -0.354858 -0.0624879 1.03263 -0.329376 0.00401789 -0.0043845 0.861641)
(1.0813 -0.0434878 -0.324801 -0.0582295 1.02336 -0.359051 0.00438449 -0.00401792 0.861641)
(1.08969 -0.0376838 -0.292272 -0.052425 1.01496 -0.385993 0.00471789 -0.00362047 0.861641)
(1.09695 -0.0305108 -0.257518 -0.0452523 1.00771 -0.409997 0.00501548 -0.00319515 0.861641)
(1.10285 -0.022187 -0.220805 -0.0369287 1.00181 -0.430881 0.00527472 -0.00274561 0.861641)
(1.10722 -0.0129654 -0.182411 -0.0277068 0.997443 -0.448486 0.00549374 -0.00227557 0.861641)
(1.10991 -0.00312566 -0.142628 -0.0178672 0.994746 -0.462677 0.00567104 -0.00178823 0.861641)
(1.11086 0.00703337 -0.101761 -0.00770833 0.993798 -0.473347 0.00580609 -0.0012872 0.861641)
(1.11003 0.0172025 -0.0601183 0.00246061 0.994629 -0.480416 0.00589625 -0.000776134 0.861641)
(1.10745 0.0270727 -0.0180187 0.0123312 0.997213 -0.483827 0.00594145 -0.00025937 0.861641)
(1.10319 0.0363443 0.0242183 0.0216024 1.00147 -0.483556 0.00594133 0.000259381 0.861641)
(1.09738 0.0447354 0.0662709 0.029994 1.00728 -0.479606 0.00589631 0.000776149 0.861641)