/*--------------------------------*- C++ -*----------------------------------*\
| =========                 |                                                 |
| \\      /  F ield         | OpenFOAM: The Open Source CFD Toolbox           |
|  \\    /   O peration     | Version:  2312                                  |
|   \\  /    A nd           | Website:  www.openfoam.com                      |
|    \\/     M anipulation  |                                                 |
\*---------------------------------------------------------------------------*/
FoamFile
{
    version     2.0;
    format      ascii;
    arch        "LSB;label=32;scalar=64";
    class       pointVectorField;
    location    "0.9";
    object      pointD;
}
// * * * * * * * * * * * * * * * * * * * * * * * * * * * * * * * * * * * * * //

dimensions      [0 1 0 0 0 0 0];

internalField   nonuniform List<vector> 
15127
(
(0 0 0)
(0 0 0)
(0 0 0)
(0 0 0)
(0 0 0)
(0 0 0)
(0 0 0)
(0 0 0)
(0 0 0)
(0 0 0)
(0 0 0)
(0 0 0)
(0 0 0)
(0 0 0)
(0 0 0)
(0 0 0)
(0 0 0)
(0 0 0)
(0 0 0)
(0 0 0)
(0 0 0)
(0 0 0)
(0 0 0)
(0 0 0)
(0 0 0)
(0 0 0)
(0 0 0)
(0 0 0)
(0 0 0)
(0 0 0)
(0 0 0)
(0 0 0)
(0 0 0)
(0 0 0)
(0 0 0)
(0 0 0)
(0 0 0)
(0 0 0)
(0 0 0)
(0 0 0)
(0 0 0)
(0 0 0)
(0 0 0)
(0 0 0)
(0 0 0)
(0 0 0)
(0 0 0)
(0 0 0)
(0 0 0)
(0 0 0)
(0 0 0)
(0 0 0)
(0 0 0)
(0 0 0)
(0 0 0)
(0 0 0)
(0 0 0)
(0 0 0)
(0 0 0)
(0 0 0)
(0 0 0)
(0 0 0)
(0 0 0)
(0 0 0)
(0 0 0)
(0 0 0)
(0 0 0)
(0 0 0)
(0 0 0)
(0 0 0)
(0 0 0)
(0 0 0)
(0.00024863 -0.000284386 -2.36513e-05)
(0.00027247 -0.000261634 -2.36515e-05)
(0.000294236 -0.000236891 -2.36512e-05)
(0.000313762 -0.000210345 -2.36517e-05)
(0.000330901 -0.000182199 -2.36514e-05)
(0.000345522 -0.000152666 -2.36516e-05)
(0.000357513 -0.000121971 -2.36518e-05)
(0.000366783 -9.03469e-05 -2.36526e-05)
(0.000373262 -5.80365e-05 -2.36521e-05)
(0.000376899 -2.5283e-05 -2.3652e-05)
(0.000377668 7.66185e-06 -2.36511e-05)
(0.000375563 4.05486e-05 -2.36512e-05)
(0.0003706 7.31265e-05 -2.3651e-05)
(0.000362816 0.000105149 -2.36514e-05)
(0.000352271 0.00013637 -2.36513e-05)
(0.000339045 0.000166553 -2.36515e-05)
(0.000323239 0.000195469 -2.36515e-05)
(0.000304972 0.000222898 -2.3652e-05)
(0.000284386 0.00024863 -2.36513e-05)
(0.000261634 0.00027247 -2.36515e-05)
(0.000236891 0.000294236 -2.36512e-05)
(0.000210345 0.000313762 -2.36517e-05)
(0.000182199 0.000330901 -2.36514e-05)
(0.000152666 0.000345522 -2.36516e-05)
(0.000121971 0.000357513 -2.36518e-05)
(9.03469e-05 0.000366783 -2.36526e-05)
(5.80365e-05 0.000373262 -2.36521e-05)
(2.5283e-05 0.000376899 -2.3652e-05)
(-7.66185e-06 0.000377668 -2.36511e-05)
(-4.05486e-05 0.000375563 -2.36512e-05)
(-7.31265e-05 0.0003706 -2.3651e-05)
(-0.000105149 0.000362816 -2.36514e-05)
(-0.00013637 0.000352271 -2.36513e-05)
(-0.000166553 0.000339045 -2.36515e-05)
(-0.000195469 0.000323239 -2.36515e-05)
(-0.000222898 0.000304972 -2.3652e-05)
(-0.00024863 0.000284386 -2.36513e-05)
(-0.00027247 0.000261634 -2.36515e-05)
(-0.000294236 0.000236891 -2.36512e-05)
(-0.000313762 0.000210345 -2.36517e-05)
(-0.000330901 0.000182199 -2.36514e-05)
(-0.000345522 0.000152666 -2.36516e-05)
(-0.000357513 0.000121971 -2.36518e-05)
(-0.000366783 9.03469e-05 -2.36526e-05)
(-0.000373262 5.80365e-05 -2.36521e-05)
(-0.000376899 2.5283e-05 -2.3652e-05)
(-0.000377668 -7.66185e-06 -2.36511e-05)
(-0.000375563 -4.05486e-05 -2.36512e-05)
(-0.0003706 -7.31265e-05 -2.3651e-05)
(-0.000362816 -0.000105149 -2.36514e-05)
(-0.000352271 -0.00013637 -2.36513e-05)
(-0.000339045 -0.000166553 -2.36515e-05)
(-0.000323239 -0.000195469 -2.36515e-05)
(-0.000304972 -0.000222898 -2.3652e-05)
(-0.000284386 -0.00024863 -2.36513e-05)
(-0.000261634 -0.00027247 -2.36515e-05)
(-0.000236891 -0.000294236 -2.36512e-05)
(-0.000210345 -0.000313762 -2.36517e-05)
(-0.000182199 -0.000330901 -2.36514e-05)
(-0.000152666 -0.000345522 -2.36516e-05)
(-0.000121971 -0.000357513 -2.36518e-05)
(-9.03469e-05 -0.000366783 -2.36526e-05)
(-5.80365e-05 -0.000373262 -2.36521e-05)
(-2.5283e-05 -0.000376899 -2.3652e-05)
(7.66185e-06 -0.000377668 -2.36511e-05)
(4.05486e-05 -0.000375563 -2.36512e-05)
(7.31265e-05 -0.0003706 -2.3651e-05)
(0.000105149 -0.000362816 -2.36514e-05)
(0.00013637 -0.000352271 -2.36513e-05)
(0.000166553 -0.000339045 -2.36515e-05)
(0.000195469 -0.000323239 -2.36515e-05)
(0.000222898 -0.000304972 -2.3652e-05)
(0.000224078 -0.000332812 2.47323e-05)
(0.000252232 -0.000312016 2.47324e-05)
(0.000278466 -0.000288845 2.47324e-05)
(0.000302581 -0.000263475 2.47321e-05)
(0.000324393 -0.000236102 2.47322e-05)
(0.000343736 -0.00020693 2.47318e-05)
(0.000360463 -0.000176185 2.47322e-05)
(0.000374447 -0.000144097 2.47318e-05)
(0.000385581 -0.000110914 2.47316e-05)
(0.000393781 -7.68865e-05 2.47322e-05)
(0.000398983 -4.22732e-05 2.47326e-05)
(0.000401149 -7.33829e-06 2.47321e-05)
(0.000400262 2.76512e-05 2.47325e-05)
(0.000396329 6.24317e-05 2.47322e-05)
(0.000389379 9.67364e-05 2.47325e-05)
(0.000379467 0.000130305 2.47325e-05)
(0.000366666 0.000162882 2.47323e-05)
(0.000351075 0.000194219 2.47323e-05)
(0.000332812 0.000224078 2.47323e-05)
(0.000312016 0.000252232 2.47324e-05)
(0.000288845 0.000278466 2.47324e-05)
(0.000263475 0.000302581 2.47321e-05)
(0.000236102 0.000324393 2.47322e-05)
(0.00020693 0.000343736 2.47318e-05)
(0.000176185 0.000360463 2.47322e-05)
(0.000144097 0.000374447 2.47318e-05)
(0.000110914 0.000385581 2.47316e-05)
(7.68865e-05 0.000393781 2.47322e-05)
(4.22732e-05 0.000398983 2.47326e-05)
(7.33829e-06 0.000401149 2.47321e-05)
(-2.76512e-05 0.000400262 2.47325e-05)
(-6.24317e-05 0.000396329 2.47322e-05)
(-9.67364e-05 0.000389379 2.47325e-05)
(-0.000130305 0.000379467 2.47325e-05)
(-0.000162882 0.000366666 2.47323e-05)
(-0.000194219 0.000351075 2.47323e-05)
(-0.000224078 0.000332812 2.47323e-05)
(-0.000252232 0.000312016 2.47324e-05)
(-0.000278466 0.000288845 2.47324e-05)
(-0.000302581 0.000263475 2.47321e-05)
(-0.000324393 0.000236102 2.47322e-05)
(-0.000343736 0.00020693 2.47318e-05)
(-0.000360463 0.000176185 2.47322e-05)
(-0.000374447 0.000144097 2.47318e-05)
(-0.000385581 0.000110914 2.47316e-05)
(-0.000393781 7.68865e-05 2.47322e-05)
(-0.000398983 4.22732e-05 2.47326e-05)
(-0.000401149 7.33829e-06 2.47321e-05)
(-0.000400262 -2.76512e-05 2.47325e-05)
(-0.000396329 -6.24317e-05 2.47322e-05)
(-0.000389379 -9.67364e-05 2.47325e-05)
(-0.000379467 -0.000130305 2.47325e-05)
(-0.000366666 -0.000162882 2.47323e-05)
(-0.000351075 -0.000194219 2.47323e-05)
(-0.000332812 -0.000224078 2.47323e-05)
(-0.000312016 -0.000252232 2.47324e-05)
(-0.000288845 -0.000278466 2.47324e-05)
(-0.000263475 -0.000302581 2.47321e-05)
(-0.000236102 -0.000324393 2.47322e-05)
(-0.00020693 -0.000343736 2.47318e-05)
(-0.000176185 -0.000360463 2.47322e-05)
(-0.000144097 -0.000374447 2.47318e-05)
(-0.000110914 -0.000385581 2.47316e-05)
(-7.68865e-05 -0.000393781 2.47322e-05)
(-4.22732e-05 -0.000398983 2.47326e-05)
(-7.33829e-06 -0.000401149 2.47321e-05)
(2.76512e-05 -0.000400262 2.47325e-05)
(6.24317e-05 -0.000396329 2.47322e-05)
(9.67364e-05 -0.000389379 2.47325e-05)
(0.000130305 -0.000379467 2.47325e-05)
(0.000162882 -0.000366666 2.47323e-05)
(0.000194219 -0.000351075 2.47323e-05)
(0 0 0)
(0 0 0)
(0 0 0)
(0 0 0)
(0 0 0)
(0 0 0)
(0 0 0)
(0 0 0)
(0 0 0)
(0 0 0)
(0 0 0)
(0 0 0)
(0 0 0)
(0 0 0)
(0 0 0)
(0 0 0)
(0 0 0)
(0 0 0)
(0 0 0)
(0 0 0)
(0 0 0)
(0 0 0)
(0 0 0)
(0 0 0)
(0 0 0)
(0 0 0)
(0 0 0)
(0 0 0)
(0 0 0)
(0 0 0)
(0 0 0)
(0 0 0)
(0 0 0)
(0 0 0)
(0 0 0)
(0 0 0)
(0 0 0)
(0 0 0)
(0 0 0)
(0 0 0)
(0 0 0)
(0 0 0)
(0 0 0)
(0 0 0)
(0 0 0)
(0 0 0)
(0 0 0)
(0 0 0)
(0 0 0)
(0 0 0)
(0 0 0)
(0 0 0)
(0 0 0)
(0 0 0)
(0 0 0)
(0 0 0)
(0 0 0)
(0 0 0)
(0 0 0)
(0 0 0)
(0 0 0)
(0 0 0)
(0 0 0)
(0 0 0)
(0 0 0)
(0 0 0)
(0 0 0)
(0 0 0)
(0 0 0)
(0 0 0)
(0 0 0)
(0 0 0)
(0.000190599 -0.000381804 6.37789e-05)
(0.00022315 -0.00036374 6.37789e-05)
(0.000254002 -0.000342907 6.37795e-05)
(0.000282922 -0.000319464 6.37791e-05)
(0.000309689 -0.00029359 6.37791e-05)
(0.000334098 -0.000265482 6.37795e-05)
(0.000355965 -0.000235353 6.37791e-05)
(0.000375123 -0.000203433 6.37792e-05)
(0.000391426 -0.000169965 6.37792e-05)
(0.00040475 -0.000135203 6.37793e-05)
(0.000414993 -9.94121e-05 6.37793e-05)
(0.000422078 -6.28653e-05 6.37797e-05)
(0.000425951 -2.58388e-05 6.37793e-05)
(0.000426582 1.13838e-05 6.37791e-05)
(0.000423967 4.85187e-05 6.37796e-05)
(0.000418124 8.52862e-05 6.37791e-05)
(0.0004091 0.000121403 6.3779e-05)
(0.000396963 0.000156597 6.37788e-05)
(0.000381804 0.000190599 6.37789e-05)
(0.00036374 0.00022315 6.37789e-05)
(0.000342907 0.000254002 6.37795e-05)
(0.000319464 0.000282922 6.37791e-05)
(0.00029359 0.000309689 6.37791e-05)
(0.000265482 0.000334098 6.37795e-05)
(0.000235353 0.000355965 6.37791e-05)
(0.000203433 0.000375123 6.37792e-05)
(0.000169965 0.000391426 6.37792e-05)
(0.000135203 0.00040475 6.37793e-05)
(9.94121e-05 0.000414993 6.37793e-05)
(6.28653e-05 0.000422078 6.37797e-05)
(2.58388e-05 0.000425951 6.37793e-05)
(-1.13838e-05 0.000426582 6.37791e-05)
(-4.85187e-05 0.000423967 6.37796e-05)
(-8.52862e-05 0.000418124 6.37791e-05)
(-0.000121403 0.0004091 6.3779e-05)
(-0.000156597 0.000396963 6.37788e-05)
(-0.000190599 0.000381804 6.37789e-05)
(-0.00022315 0.00036374 6.37789e-05)
(-0.000254002 0.000342907 6.37795e-05)
(-0.000282922 0.000319464 6.37791e-05)
(-0.000309689 0.00029359 6.37791e-05)
(-0.000334098 0.000265482 6.37795e-05)
(-0.000355965 0.000235353 6.37791e-05)
(-0.000375123 0.000203433 6.37792e-05)
(-0.000391426 0.000169965 6.37792e-05)
(-0.00040475 0.000135203 6.37793e-05)
(-0.000414993 9.94121e-05 6.37793e-05)
(-0.000422078 6.28653e-05 6.37797e-05)
(-0.000425951 2.58388e-05 6.37793e-05)
(-0.000426582 -1.13838e-05 6.37791e-05)
(-0.000423967 -4.85187e-05 6.37796e-05)
(-0.000418124 -8.52862e-05 6.37791e-05)
(-0.0004091 -0.000121403 6.3779e-05)
(-0.000396963 -0.000156597 6.37788e-05)
(-0.000381804 -0.000190599 6.37789e-05)
(-0.00036374 -0.00022315 6.37789e-05)
(-0.000342907 -0.000254002 6.37795e-05)
(-0.000319464 -0.000282922 6.37791e-05)
(-0.00029359 -0.000309689 6.37791e-05)
(-0.000265482 -0.000334098 6.37795e-05)
(-0.000235353 -0.000355965 6.37791e-05)
(-0.000203433 -0.000375123 6.37792e-05)
(-0.000169965 -0.000391426 6.37792e-05)
(-0.000135203 -0.00040475 6.37793e-05)
(-9.94121e-05 -0.000414993 6.37793e-05)
(-6.28653e-05 -0.000422078 6.37797e-05)
(-2.58388e-05 -0.000425951 6.37793e-05)
(1.13838e-05 -0.000426582 6.37791e-05)
(4.85187e-05 -0.000423967 6.37796e-05)
(8.52862e-05 -0.000418124 6.37791e-05)
(0.000121403 -0.0004091 6.3779e-05)
(0.000156597 -0.000396963 6.37788e-05)
(0 0 0)
(0 0 0)
(0 0 0)
(0 0 0)
(0 0 0)
(0 0 0)
(0 0 0)
(0 0 0)
(0 0 0)
(0 0 0)
(0 0 0)
(0 0 0)
(0 0 0)
(0 0 0)
(0 0 0)
(0 0 0)
(0 0 0)
(0 0 0)
(0 0 0)
(0 0 0)
(0 0 0)
(0 0 0)
(0 0 0)
(0 0 0)
(0 0 0)
(0 0 0)
(0 0 0)
(0 0 0)
(0 0 0)
(0 0 0)
(0 0 0)
(0 0 0)
(0 0 0)
(0 0 0)
(0 0 0)
(0 0 0)
(0 0 0)
(0 0 0)
(0 0 0)
(0 0 0)
(0 0 0)
(0 0 0)
(0 0 0)
(0 0 0)
(0 0 0)
(0 0 0)
(0 0 0)
(0 0 0)
(0 0 0)
(0 0 0)
(0 0 0)
(0 0 0)
(0 0 0)
(0 0 0)
(0 0 0)
(0 0 0)
(0 0 0)
(0 0 0)
(0 0 0)
(0 0 0)
(0 0 0)
(0 0 0)
(0 0 0)
(0 0 0)
(0 0 0)
(0 0 0)
(0 0 0)
(0 0 0)
(0 0 0)
(0 0 0)
(0 0 0)
(0 0 0)
(0.000140167 -0.00042622 8.28897e-05)
(0.000176781 -0.000412382 8.28899e-05)
(0.000212051 -0.000395404 8.28897e-05)
(0.000245705 -0.000375419 8.289e-05)
(0.00027749 -0.000352575 8.28899e-05)
(0.000307162 -0.00032705 8.289e-05)
(0.000334498 -0.000299034 8.28899e-05)
(0.000359287 -0.000268743 8.28899e-05)
(0.000381343 -0.000236406 8.28898e-05)
(0.000400496 -0.00020227 8.28899e-05)
(0.000416601 -0.000166594 8.28898e-05)
(0.000429535 -0.000129652 8.28901e-05)
(0.0004392 -9.17217e-05 8.28899e-05)
(0.000445523 -5.30943e-05 8.289e-05)
(0.000448455 -1.40614e-05 8.28897e-05)
(0.000447974 2.50769e-05 8.289e-05)
(0.000444084 6.40253e-05 8.28898e-05)
(0.000436814 0.000102486 8.28897e-05)
(0.00042622 0.000140167 8.28897e-05)
(0.000412382 0.000176781 8.28899e-05)
(0.000395404 0.000212051 8.28897e-05)
(0.000375419 0.000245705 8.289e-05)
(0.000352575 0.00027749 8.28899e-05)
(0.00032705 0.000307162 8.289e-05)
(0.000299034 0.000334498 8.28899e-05)
(0.000268743 0.000359287 8.28899e-05)
(0.000236406 0.000381343 8.28898e-05)
(0.00020227 0.000400496 8.28899e-05)
(0.000166594 0.000416601 8.28898e-05)
(0.000129652 0.000429535 8.28901e-05)
(9.17217e-05 0.0004392 8.28899e-05)
(5.30943e-05 0.000445523 8.289e-05)
(1.40614e-05 0.000448455 8.28897e-05)
(-2.50769e-05 0.000447974 8.289e-05)
(-6.40253e-05 0.000444084 8.28898e-05)
(-0.000102486 0.000436814 8.28897e-05)
(-0.000140167 0.00042622 8.28897e-05)
(-0.000176781 0.000412382 8.28899e-05)
(-0.000212051 0.000395404 8.28897e-05)
(-0.000245705 0.000375419 8.289e-05)
(-0.00027749 0.000352575 8.28899e-05)
(-0.000307162 0.00032705 8.289e-05)
(-0.000334498 0.000299034 8.28899e-05)
(-0.000359287 0.000268743 8.28899e-05)
(-0.000381343 0.000236406 8.28898e-05)
(-0.000400496 0.00020227 8.28899e-05)
(-0.000416601 0.000166594 8.28898e-05)
(-0.000429535 0.000129652 8.28901e-05)
(-0.0004392 9.17217e-05 8.28899e-05)
(-0.000445523 5.30943e-05 8.289e-05)
(-0.000448455 1.40614e-05 8.28897e-05)
(-0.000447974 -2.50769e-05 8.289e-05)
(-0.000444084 -6.40253e-05 8.28898e-05)
(-0.000436814 -0.000102486 8.28897e-05)
(-0.00042622 -0.000140167 8.28897e-05)
(-0.000412382 -0.000176781 8.28899e-05)
(-0.000395404 -0.000212051 8.28897e-05)
(-0.000375419 -0.000245705 8.289e-05)
(-0.000352575 -0.00027749 8.28899e-05)
(-0.00032705 -0.000307162 8.289e-05)
(-0.000299034 -0.000334498 8.28899e-05)
(-0.000268743 -0.000359287 8.28899e-05)
(-0.000236406 -0.000381343 8.28898e-05)
(-0.00020227 -0.000400496 8.28899e-05)
(-0.000166594 -0.000416601 8.28898e-05)
(-0.000129652 -0.000429535 8.28901e-05)
(-9.17217e-05 -0.0004392 8.28899e-05)
(-5.30943e-05 -0.000445523 8.289e-05)
(-1.40614e-05 -0.000448455 8.28897e-05)
(2.50769e-05 -0.000447974 8.289e-05)
(6.40253e-05 -0.000444084 8.28898e-05)
(0.000102486 -0.000436814 8.28897e-05)
(0 0 0)
(0 0 0)
(0 0 0)
(0 0 0)
(0 0 0)
(0 0 0)
(0 0 0)
(0 0 0)
(0 0 0)
(0 0 0)
(0 0 0)
(0 0 0)
(0 0 0)
(0 0 0)
(0 0 0)
(0 0 0)
(0 0 0)
(0 0 0)
(0 0 0)
(0 0 0)
(0 0 0)
(0 0 0)
(0 0 0)
(0 0 0)
(0 0 0)
(0 0 0)
(0 0 0)
(0 0 0)
(0 0 0)
(0 0 0)
(0 0 0)
(0 0 0)
(0 0 0)
(0 0 0)
(0 0 0)
(0 0 0)
(0 0 0)
(0 0 0)
(0 0 0)
(0 0 0)
(0 0 0)
(0 0 0)
(0 0 0)
(0 0 0)
(0 0 0)
(0 0 0)
(0 0 0)
(0 0 0)
(0 0 0)
(0 0 0)
(0 0 0)
(0 0 0)
(0 0 0)
(0 0 0)
(0 0 0)
(0 0 0)
(0 0 0)
(0 0 0)
(0 0 0)
(0 0 0)
(0 0 0)
(0 0 0)
(0 0 0)
(0 0 0)
(0 0 0)
(0 0 0)
(0 0 0)
(0 0 0)
(0 0 0)
(0 0 0)
(0 0 0)
(0 0 0)
(7.89102e-05 -0.000460409 9.22874e-05)
(0.000118737 -0.00045178 9.22876e-05)
(0.00015766 -0.000439712 9.22877e-05)
(0.000195384 -0.000424297 9.22876e-05)
(0.00023162 -0.000405654 9.22877e-05)
(0.000266093 -0.000383924 9.22877e-05)
(0.000298542 -0.000359271 9.22877e-05)
(0.000328719 -0.000331884 9.22875e-05)
(0.000356393 -0.000301972 9.22875e-05)
(0.000381356 -0.00026976 9.22874e-05)
(0.000403416 -0.000235497 9.22876e-05)
(0.000422405 -0.000199442 9.22877e-05)
(0.000438181 -0.000161866 9.22875e-05)
(0.000450621 -0.00012306 9.22875e-05)
(0.000459631 -8.33189e-05 9.22877e-05)
(0.000465144 -4.29419e-05 9.22876e-05)
(0.000467117 -2.23799e-06 9.22874e-05)
(0.000465534 3.84824e-05 9.22874e-05)
(0.000460409 7.89102e-05 9.22874e-05)
(0.00045178 0.000118737 9.22876e-05)
(0.000439712 0.00015766 9.22877e-05)
(0.000424297 0.000195384 9.22876e-05)
(0.000405654 0.00023162 9.22877e-05)
(0.000383924 0.000266093 9.22877e-05)
(0.000359271 0.000298542 9.22877e-05)
(0.000331884 0.000328719 9.22875e-05)
(0.000301972 0.000356393 9.22875e-05)
(0.00026976 0.000381356 9.22874e-05)
(0.000235497 0.000403416 9.22876e-05)
(0.000199442 0.000422405 9.22877e-05)
(0.000161866 0.000438181 9.22875e-05)
(0.00012306 0.000450621 9.22875e-05)
(8.33189e-05 0.000459631 9.22877e-05)
(4.29419e-05 0.000465144 9.22876e-05)
(2.23798e-06 0.000467117 9.22874e-05)
(-3.84824e-05 0.000465534 9.22874e-05)
(-7.89102e-05 0.000460409 9.22874e-05)
(-0.000118737 0.00045178 9.22876e-05)
(-0.00015766 0.000439712 9.22877e-05)
(-0.000195384 0.000424297 9.22876e-05)
(-0.00023162 0.000405654 9.22877e-05)
(-0.000266093 0.000383924 9.22877e-05)
(-0.000298542 0.000359271 9.22877e-05)
(-0.000328719 0.000331884 9.22875e-05)
(-0.000356393 0.000301972 9.22875e-05)
(-0.000381356 0.00026976 9.22874e-05)
(-0.000403416 0.000235497 9.22876e-05)
(-0.000422405 0.000199442 9.22877e-05)
(-0.000438181 0.000161866 9.22875e-05)
(-0.000450621 0.00012306 9.22875e-05)
(-0.000459631 8.33189e-05 9.22877e-05)
(-0.000465144 4.29419e-05 9.22876e-05)
(-0.000467117 2.23799e-06 9.22874e-05)
(-0.000465534 -3.84824e-05 9.22874e-05)
(-0.000460409 -7.89102e-05 9.22874e-05)
(-0.00045178 -0.000118737 9.22876e-05)
(-0.000439712 -0.00015766 9.22877e-05)
(-0.000424297 -0.000195384 9.22876e-05)
(-0.000405654 -0.00023162 9.22877e-05)
(-0.000383924 -0.000266093 9.22877e-05)
(-0.000359271 -0.000298542 9.22877e-05)
(-0.000331884 -0.000328719 9.22875e-05)
(-0.000301972 -0.000356393 9.22875e-05)
(-0.00026976 -0.000381356 9.22874e-05)
(-0.000235497 -0.000403416 9.22876e-05)
(-0.000199442 -0.000422405 9.22877e-05)
(-0.000161866 -0.000438181 9.22875e-05)
(-0.00012306 -0.000450621 9.22875e-05)
(-8.33189e-05 -0.000459631 9.22877e-05)
(-4.29419e-05 -0.000465144 9.22876e-05)
(-2.23799e-06 -0.000467117 9.22874e-05)
(3.84824e-05 -0.000465534 9.22874e-05)
(0 0 0)
(0 0 0)
(0 0 0)
(0 0 0)
(0 0 0)
(0 0 0)
(0 0 0)
(0 0 0)
(0 0 0)
(0 0 0)
(0 0 0)
(0 0 0)
(0 0 0)
(0 0 0)
(0 0 0)
(0 0 0)
(0 0 0)
(0 0 0)
(0 0 0)
(0 0 0)
(0 0 0)
(0 0 0)
(0 0 0)
(0 0 0)
(0 0 0)
(0 0 0)
(0 0 0)
(0 0 0)
(0 0 0)
(0 0 0)
(0 0 0)
(0 0 0)
(0 0 0)
(0 0 0)
(0 0 0)
(0 0 0)
(0 0 0)
(0 0 0)
(0 0 0)
(0 0 0)
(0 0 0)
(0 0 0)
(0 0 0)
(0 0 0)
(0 0 0)
(0 0 0)
(0 0 0)
(0 0 0)
(0 0 0)
(0 0 0)
(0 0 0)
(0 0 0)
(0 0 0)
(0 0 0)
(0 0 0)
(0 0 0)
(0 0 0)
(0 0 0)
(0 0 0)
(0 0 0)
(0 0 0)
(0 0 0)
(0 0 0)
(0 0 0)
(0 0 0)
(0 0 0)
(0 0 0)
(0 0 0)
(0 0 0)
(0 0 0)
(0 0 0)
(0 0 0)
(1.25882e-06 -0.000484416 0.000100561)
(4.34738e-05 -0.000482463 0.000100561)
(8.53581e-05 -0.000476838 0.000100561)
(0.000126593 -0.000467583 0.000100561)
(0.000166864 -0.000454771 0.000100561)
(0.000205865 -0.000438497 0.000100561)
(0.000243299 -0.000418886 0.000100561)
(0.00027888 -0.000396088 0.000100561)
(0.00031234 -0.000370275 0.000100561)
(0.000343424 -0.000341643 0.000100561)
(0.000371893 -0.000310411 0.000100561)
(0.000397532 -0.000276817 0.000100561)
(0.000420146 -0.000241117 0.000100561)
(0.000439561 -0.000203581 0.000100561)
(0.000455632 -0.000164496 0.000100561)
(0.000468235 -0.00012416 0.000100561)
(0.000477275 -8.28783e-05 0.000100561)
(0.000482682 -4.09646e-05 0.000100561)
(0.000484416 1.25882e-06 0.000100561)
(0.000482463 4.34738e-05 0.000100561)
(0.000476838 8.53581e-05 0.000100561)
(0.000467583 0.000126593 0.000100561)
(0.000454771 0.000166864 0.000100561)
(0.000438497 0.000205865 0.000100561)
(0.000418886 0.000243299 0.000100561)
(0.000396088 0.00027888 0.000100561)
(0.000370275 0.00031234 0.000100561)
(0.000341643 0.000343424 0.000100561)
(0.000310411 0.000371893 0.000100561)
(0.000276817 0.000397532 0.000100561)
(0.000241117 0.000420146 0.000100561)
(0.000203581 0.000439561 0.000100561)
(0.000164496 0.000455632 0.000100561)
(0.00012416 0.000468235 0.000100561)
(8.28783e-05 0.000477275 0.000100561)
(4.09646e-05 0.000482682 0.000100561)
(-1.25882e-06 0.000484416 0.000100561)
(-4.34738e-05 0.000482463 0.000100561)
(-8.53581e-05 0.000476838 0.000100561)
(-0.000126593 0.000467583 0.000100561)
(-0.000166864 0.000454771 0.000100561)
(-0.000205865 0.000438497 0.000100561)
(-0.000243299 0.000418886 0.000100561)
(-0.00027888 0.000396088 0.000100561)
(-0.00031234 0.000370275 0.000100561)
(-0.000343424 0.000341643 0.000100561)
(-0.000371893 0.000310411 0.000100561)
(-0.000397532 0.000276817 0.000100561)
(-0.000420146 0.000241117 0.000100561)
(-0.000439561 0.000203581 0.000100561)
(-0.000455632 0.000164496 0.000100561)
(-0.000468235 0.00012416 0.000100561)
(-0.000477275 8.28783e-05 0.000100561)
(-0.000482682 4.09646e-05 0.000100561)
(-0.000484416 -1.25882e-06 0.000100561)
(-0.000482463 -4.34738e-05 0.000100561)
(-0.000476838 -8.53581e-05 0.000100561)
(-0.000467583 -0.000126593 0.000100561)
(-0.000454771 -0.000166864 0.000100561)
(-0.000438497 -0.000205865 0.000100561)
(-0.000418886 -0.000243299 0.000100561)
(-0.000396088 -0.00027888 0.000100561)
(-0.000370275 -0.00031234 0.000100561)
(-0.000341643 -0.000343424 0.000100561)
(-0.000310411 -0.000371893 0.000100561)
(-0.000276817 -0.000397532 0.000100561)
(-0.000241117 -0.000420146 0.000100561)
(-0.000203581 -0.000439561 0.000100561)
(-0.000164496 -0.000455632 0.000100561)
(-0.00012416 -0.000468235 0.000100561)
(-8.28783e-05 -0.000477275 0.000100561)
(-4.09646e-05 -0.000482682 0.000100561)
(0 0 0)
(0 0 0)
(0 0 0)
(0 0 0)
(0 0 0)
(0 0 0)
(0 0 0)
(0 0 0)
(0 0 0)
(0 0 0)
(0 0 0)
(0 0 0)
(0 0 0)
(0 0 0)
(0 0 0)
(0 0 0)
(0 0 0)
(0 0 0)
(0 0 0)
(0 0 0)
(0 0 0)
(0 0 0)
(0 0 0)
(0 0 0)
(0 0 0)
(0 0 0)
(0 0 0)
(0 0 0)
(0 0 0)
(0 0 0)
(0 0 0)
(0 0 0)
(0 0 0)
(0 0 0)
(0 0 0)
(0 0 0)
(0 0 0)
(0 0 0)
(0 0 0)
(0 0 0)
(0 0 0)
(0 0 0)
(0 0 0)
(0 0 0)
(0 0 0)
(0 0 0)
(0 0 0)
(0 0 0)
(0 0 0)
(0 0 0)
(0 0 0)
(0 0 0)
(0 0 0)
(0 0 0)
(0 0 0)
(0 0 0)
(0 0 0)
(0 0 0)
(0 0 0)
(0 0 0)
(0 0 0)
(0 0 0)
(0 0 0)
(0 0 0)
(0 0 0)
(0 0 0)
(0 0 0)
(0 0 0)
(0 0 0)
(0 0 0)
(0 0 0)
(0 0 0)
(-8.4621e-05 -0.000504408 0.000109665)
(-4.03371e-05 -0.000509865 0.000109665)
(4.25434e-06 -0.00051144 0.000109665)
(4.88123e-05 -0.000509124 0.000109664)
(9.30008e-05 -0.000502931 0.000109664)
(0.000136479 -0.000492912 0.000109664)
(0.00017892 -0.000479141 0.000109664)
(0.000219999 -0.000461724 0.000109664)
(0.000259403 -0.000440793 0.000109664)
(0.000296835 -0.000416507 0.000109664)
(0.000332006 -0.000389051 0.000109664)
(0.000364651 -0.000358635 0.000109664)
(0.00039452 -0.000325488 0.000109664)
(0.000421386 -0.000289866 0.000109664)
(0.000445046 -0.000252036 0.000109664)
(0.000465319 -0.000212288 0.000109664)
(0.000482051 -0.000170925 0.000109664)
(0.000495114 -0.000128262 0.000109665)
(0.000504408 -8.4621e-05 0.000109665)
(0.000509865 -4.03371e-05 0.000109665)
(0.00051144 4.25434e-06 0.000109665)
(0.000509124 4.88123e-05 0.000109664)
(0.000502931 9.30008e-05 0.000109664)
(0.000492912 0.000136479 0.000109664)
(0.000479141 0.00017892 0.000109664)
(0.000461724 0.000219999 0.000109664)
(0.000440793 0.000259403 0.000109664)
(0.000416507 0.000296835 0.000109664)
(0.000389051 0.000332006 0.000109664)
(0.000358635 0.000364651 0.000109664)
(0.000325488 0.00039452 0.000109664)
(0.000289866 0.000421386 0.000109664)
(0.000252036 0.000445046 0.000109664)
(0.000212288 0.000465319 0.000109664)
(0.000170925 0.000482051 0.000109664)
(0.000128262 0.000495114 0.000109665)
(8.4621e-05 0.000504408 0.000109665)
(4.03371e-05 0.000509865 0.000109665)
(-4.25434e-06 0.00051144 0.000109665)
(-4.88123e-05 0.000509124 0.000109664)
(-9.30008e-05 0.000502931 0.000109664)
(-0.000136479 0.000492912 0.000109664)
(-0.00017892 0.000479141 0.000109664)
(-0.000219999 0.000461724 0.000109664)
(-0.000259403 0.000440793 0.000109664)
(-0.000296835 0.000416507 0.000109664)
(-0.000332006 0.000389051 0.000109664)
(-0.000364651 0.000358635 0.000109664)
(-0.00039452 0.000325488 0.000109664)
(-0.000421386 0.000289866 0.000109664)
(-0.000445046 0.000252036 0.000109664)
(-0.000465319 0.000212288 0.000109664)
(-0.000482051 0.000170925 0.000109664)
(-0.000495114 0.000128262 0.000109665)
(-0.000504408 8.4621e-05 0.000109665)
(-0.000509865 4.03371e-05 0.000109665)
(-0.00051144 -4.25434e-06 0.000109665)
(-0.000509124 -4.88123e-05 0.000109664)
(-0.000502931 -9.30008e-05 0.000109664)
(-0.000492912 -0.000136479 0.000109664)
(-0.000479141 -0.00017892 0.000109664)
(-0.000461724 -0.000219999 0.000109664)
(-0.000440793 -0.000259403 0.000109664)
(-0.000416507 -0.000296835 0.000109664)
(-0.000389051 -0.000332006 0.000109664)
(-0.000358635 -0.000364651 0.000109664)
(-0.000325488 -0.00039452 0.000109664)
(-0.000289866 -0.000421386 0.000109664)
(-0.000252036 -0.000445046 0.000109664)
(-0.000212288 -0.000465319 0.000109664)
(-0.000170925 -0.000482051 0.000109664)
(-0.000128262 -0.000495114 0.000109665)
(0 0 0)
(0 0 0)
(0 0 0)
(0 0 0)
(0 0 0)
(0 0 0)
(0 0 0)
(0 0 0)
(0 0 0)
(0 0 0)
(0 0 0)
(0 0 0)
(0 0 0)
(0 0 0)
(0 0 0)
(0 0 0)
(0 0 0)
(0 0 0)
(0 0 0)
(0 0 0)
(0 0 0)
(0 0 0)
(0 0 0)
(0 0 0)
(0 0 0)
(0 0 0)
(0 0 0)
(0 0 0)
(0 0 0)
(0 0 0)
(0 0 0)
(0 0 0)
(0 0 0)
(0 0 0)
(0 0 0)
(0 0 0)
(0 0 0)
(0 0 0)
(0 0 0)
(0 0 0)
(0 0 0)
(0 0 0)
(0 0 0)
(0 0 0)
(0 0 0)
(0 0 0)
(0 0 0)
(0 0 0)
(0 0 0)
(0 0 0)
(0 0 0)
(0 0 0)
(0 0 0)
(0 0 0)
(0 0 0)
(0 0 0)
(0 0 0)
(0 0 0)
(0 0 0)
(0 0 0)
(0 0 0)
(0 0 0)
(0 0 0)
(0 0 0)
(0 0 0)
(0 0 0)
(0 0 0)
(0 0 0)
(0 0 0)
(0 0 0)
(0 0 0)
(0 0 0)
(0.000460788 -0.000600925 1.14485e-05)
(0.000511409 -0.000558477 1.14473e-05)
(0.000558137 -0.00051178 1.14487e-05)
(0.000600618 -0.000461188 1.14486e-05)
(0.000638528 -0.000407086 1.14476e-05)
(0.000671578 -0.000349886 1.14478e-05)
(0.000699517 -0.000290023 1.1448e-05)
(0.000722132 -0.000227951 1.14465e-05)
(0.000739252 -0.000164145 1.14468e-05)
(0.000750744 -9.90905e-05 1.14475e-05)
(0.000756524 -3.32834e-05 1.14491e-05)
(0.000756545 3.27789e-05 1.14484e-05)
(0.000750809 9.85922e-05 1.14483e-05)
(0.000739359 0.000163654 1.14491e-05)
(0.000722282 0.00022747 1.14488e-05)
(0.000699708 0.000289557 1.14474e-05)
(0.00067181 0.000349438 1.14485e-05)
(0.000638797 0.000406661 1.14478e-05)
(0.000600925 0.000460788 1.14485e-05)
(0.000558477 0.000511409 1.14473e-05)
(0.00051178 0.000558137 1.14487e-05)
(0.000461188 0.000600618 1.14486e-05)
(0.000407086 0.000638528 1.14476e-05)
(0.000349886 0.000671578 1.14478e-05)
(0.000290023 0.000699517 1.1448e-05)
(0.000227951 0.000722132 1.14465e-05)
(0.000164145 0.000739252 1.14468e-05)
(9.90905e-05 0.000750744 1.14475e-05)
(3.32834e-05 0.000756524 1.14491e-05)
(-3.27789e-05 0.000756545 1.14484e-05)
(-9.85922e-05 0.000750809 1.14483e-05)
(-0.000163654 0.000739359 1.14491e-05)
(-0.00022747 0.000722282 1.14488e-05)
(-0.000289557 0.000699708 1.14474e-05)
(-0.000349438 0.00067181 1.14485e-05)
(-0.000406661 0.000638797 1.14478e-05)
(-0.000460788 0.000600925 1.14485e-05)
(-0.000511409 0.000558477 1.14473e-05)
(-0.000558137 0.00051178 1.14487e-05)
(-0.000600618 0.000461188 1.14486e-05)
(-0.000638528 0.000407086 1.14476e-05)
(-0.000671578 0.000349886 1.14478e-05)
(-0.000699517 0.000290023 1.1448e-05)
(-0.000722132 0.000227951 1.14465e-05)
(-0.000739252 0.000164145 1.14468e-05)
(-0.000750744 9.90905e-05 1.14475e-05)
(-0.000756524 3.32834e-05 1.14491e-05)
(-0.000756545 -3.27789e-05 1.14484e-05)
(-0.000750809 -9.85922e-05 1.14483e-05)
(-0.000739359 -0.000163654 1.14491e-05)
(-0.000722282 -0.00022747 1.14488e-05)
(-0.000699708 -0.000289557 1.14474e-05)
(-0.00067181 -0.000349438 1.14485e-05)
(-0.000638797 -0.000406661 1.14478e-05)
(-0.000600925 -0.000460788 1.14485e-05)
(-0.000558477 -0.000511409 1.14473e-05)
(-0.00051178 -0.000558137 1.14487e-05)
(-0.000461188 -0.000600618 1.14486e-05)
(-0.000407086 -0.000638528 1.14476e-05)
(-0.000349886 -0.000671578 1.14478e-05)
(-0.000290023 -0.000699517 1.1448e-05)
(-0.000227951 -0.000722132 1.14465e-05)
(-0.000164145 -0.000739252 1.14468e-05)
(-9.90905e-05 -0.000750744 1.14475e-05)
(-3.32834e-05 -0.000756524 1.14491e-05)
(3.27789e-05 -0.000756545 1.14484e-05)
(9.85922e-05 -0.000750809 1.14483e-05)
(0.000163654 -0.000739359 1.14491e-05)
(0.00022747 -0.000722282 1.14488e-05)
(0.000289557 -0.000699708 1.14474e-05)
(0.000349438 -0.00067181 1.14485e-05)
(0.000406661 -0.000638797 1.14478e-05)
(0.000406864 -0.000684296 9.78037e-05)
(0.000464956 -0.000646231 9.78037e-05)
(0.00051951 -0.000603248 9.78038e-05)
(0.000570109 -0.000555674 9.78036e-05)
(0.000616369 -0.000503873 9.78043e-05)
(0.00065794 -0.000448234 9.78029e-05)
(0.000694502 -0.000389185 9.78031e-05)
(0.000725779 -0.000327174 9.78027e-05)
(0.000751532 -0.000262675 9.78043e-05)
(0.000771566 -0.000196173 9.78032e-05)
(0.000785727 -0.00012818 9.78037e-05)
(0.000793909 -5.92116e-05 9.78034e-05)
(0.000796049 1.02056e-05 9.78047e-05)
(0.000792129 7.95487e-05 9.78039e-05)
(0.000782182 0.000148284 9.7804e-05)
(0.000766282 0.000215891 9.78039e-05)
(0.00074455 0.000281856 9.78038e-05)
(0.000717151 0.000345675 9.78034e-05)
(0.000684296 0.000406864 9.78037e-05)
(0.000646231 0.000464956 9.78037e-05)
(0.000603248 0.00051951 9.78038e-05)
(0.000555674 0.000570109 9.78036e-05)
(0.000503873 0.000616369 9.78043e-05)
(0.000448234 0.00065794 9.78029e-05)
(0.000389185 0.000694502 9.78031e-05)
(0.000327174 0.000725779 9.78027e-05)
(0.000262675 0.000751532 9.78043e-05)
(0.000196173 0.000771566 9.78032e-05)
(0.00012818 0.000785727 9.78037e-05)
(5.92116e-05 0.000793909 9.78034e-05)
(-1.02056e-05 0.000796049 9.78047e-05)
(-7.95487e-05 0.000792129 9.78039e-05)
(-0.000148284 0.000782182 9.7804e-05)
(-0.000215891 0.000766282 9.78039e-05)
(-0.000281856 0.00074455 9.78038e-05)
(-0.000345675 0.000717151 9.78034e-05)
(-0.000406864 0.000684296 9.78037e-05)
(-0.000464956 0.000646231 9.78037e-05)
(-0.00051951 0.000603248 9.78038e-05)
(-0.000570109 0.000555674 9.78036e-05)
(-0.000616369 0.000503873 9.78043e-05)
(-0.00065794 0.000448234 9.78029e-05)
(-0.000694502 0.000389185 9.78031e-05)
(-0.000725779 0.000327174 9.78027e-05)
(-0.000751532 0.000262675 9.78043e-05)
(-0.000771566 0.000196173 9.78032e-05)
(-0.000785727 0.00012818 9.78037e-05)
(-0.000793909 5.92116e-05 9.78034e-05)
(-0.000796049 -1.02056e-05 9.78047e-05)
(-0.000792129 -7.95487e-05 9.78039e-05)
(-0.000782182 -0.000148284 9.7804e-05)
(-0.000766282 -0.000215891 9.78039e-05)
(-0.00074455 -0.000281856 9.78038e-05)
(-0.000717151 -0.000345675 9.78034e-05)
(-0.000684296 -0.000406864 9.78037e-05)
(-0.000646231 -0.000464956 9.78037e-05)
(-0.000603248 -0.00051951 9.78038e-05)
(-0.000555674 -0.000570109 9.78036e-05)
(-0.000503873 -0.000616369 9.78043e-05)
(-0.000448234 -0.00065794 9.78029e-05)
(-0.000389185 -0.000694502 9.78031e-05)
(-0.000327174 -0.000725779 9.78027e-05)
(-0.000262675 -0.000751532 9.78043e-05)
(-0.000196173 -0.000771566 9.78032e-05)
(-0.00012818 -0.000785727 9.78037e-05)
(-5.92116e-05 -0.000793909 9.78034e-05)
(1.02056e-05 -0.000796049 9.78047e-05)
(7.95487e-05 -0.000792129 9.78039e-05)
(0.000148284 -0.000782182 9.7804e-05)
(0.000215891 -0.000766282 9.78039e-05)