/*--------------------------------*- C++ -*----------------------------------*\
| =========                 |                                                 |
| \\      /  F ield         | OpenFOAM: The Open Source CFD Toolbox           |
|  \\    /   O peration     | Version:  2312                                  |
|   \\  /    A nd           | Website:  www.openfoam.com                      |
|    \\/     M anipulation  |                                                 |
\*---------------------------------------------------------------------------*/
FoamFile
{
    version     2.0;
    format      ascii;
    arch        "LSB;label=32;scalar=64";
    class       volSymmTensorField;
    location    "0.9";
    object      sigma;
}
// * * * * * * * * * * * * * * * * * * * * * * * * * * * * * * * * * * * * * //

dimensions      [1 -1 -2 0 0 0 0];

internalField   nonuniform List<symmTensor> 
12960
(
(3465.51 1087.83 -6298.73 7738.3 -13429.4 51116.9)
(3309.17 700.336 -5104.28 7894.98 -13927.4 51116.8)
(3222.29 291.543 -3871.15 7981.31 -14318.8 51117.1)
(3207.83 -126.093 -2608.39 7995.89 -14601.9 51117)
(3266.01 -539.904 -1325.81 7937.58 -14773.7 51116.9)
(3395.48 -937.362 -32.9975 7808.74 -14833.2 51116.9)
(3591.85 -1306.22 1259.73 7612.37 -14779.4 51117.2)
(3849.34 -1635.43 2543 7355.07 -14613.3 51117.4)
(4160.03 -1915.14 3807.36 7044.73 -14336.5 51117)
(4514.46 -2136.51 5042.39 6690.21 -13950.1 51116.9)
(4901.61 -2292.75 6238.55 6302.24 -13457.2 51117.1)
(5310.55 -2379.57 7387.76 5893.64 -12862.3 51117.2)
(5728.25 -2394.16 8481.01 5476.02 -12169.6 51116.9)
(6141.68 -2335.78 9509.07 5061.89 -11384.1 51116.8)
(6539.05 -2206.53 10465 4664.47 -10511.9 51116.9)
(6908.15 -2010.22 11341.3 4295.78 -9559.87 51117.2)
(7237.58 -1752.96 12131.8 3966.49 -8535.03 51116.8)
(7516.94 -1442.29 12829.3 3686.86 -7445.21 51116.8)
(7738.3 -1087.83 13429.4 3465.51 -6298.73 51116.9)
(7894.98 -700.336 13927.4 3309.17 -5104.28 51116.8)
(7981.31 -291.543 14318.8 3222.29 -3871.15 51117.1)
(7995.89 126.093 14601.9 3207.83 -2608.39 51117)
(7937.58 539.904 14773.7 3266.01 -1325.81 51116.9)
(7808.74 937.362 14833.2 3395.48 -32.9975 51116.9)
(7612.37 1306.22 14779.4 3591.85 1259.73 51117.2)
(7355.07 1635.43 14613.3 3849.34 2543 51117.4)
(7044.73 1915.14 14336.5 4160.03 3807.36 51117)
(6690.21 2136.51 13950.1 4514.46 5042.39 51116.9)
(6302.24 2292.75 13457.2 4901.61 6238.55 51117.1)
(5893.64 2379.57 12862.3 5310.55 7387.76 51117.2)
(5476.02 2394.16 12169.6 5728.25 8481.01 51116.9)
(5061.89 2335.78 11384.1 6141.68 9509.07 51116.8)
(4664.47 2206.53 10511.9 6539.05 10465 51116.9)
(4295.78 2010.22 9559.87 6908.15 11341.3 51117.2)
(3966.49 1752.96 8535.03 7237.58 12131.8 51116.8)
(3686.86 1442.29 7445.21 7516.94 12829.3 51116.8)
(3465.51 1087.83 6298.73 7738.3 13429.4 51116.9)
(3309.17 700.336 5104.28 7894.98 13927.4 51116.8)
(3222.29 291.543 3871.15 7981.31 14318.8 51117.1)
(3207.83 -126.093 2608.39 7995.89 14601.9 51117)
(3266.01 -539.904 1325.82 7937.58 14773.7 51116.9)
(3395.48 -937.362 32.9975 7808.74 14833.2 51116.9)
(3591.85 -1306.22 -1259.73 7612.37 14779.4 51117.2)
(3849.34 -1635.43 -2543 7355.07 14613.3 51117.4)
(4160.03 -1915.14 -3807.36 7044.73 14336.5 51117)
(4514.46 -2136.51 -5042.39 6690.21 13950.1 51116.9)
(4901.61 -2292.75 -6238.55 6302.24 13457.2 51117.1)
(5310.55 -2379.57 -7387.76 5893.64 12862.3 51117.2)
(5728.25 -2394.16 -8481.01 5476.02 12169.6 51116.9)
(6141.68 -2335.78 -9509.07 5061.89 11384.1 51116.8)
(6539.05 -2206.53 -10465 4664.47 10511.9 51116.9)
(6908.15 -2010.22 -11341.3 4295.78 9559.87 51117.2)
(7237.58 -1752.96 -12131.8 3966.49 8535.03 51116.8)
(7516.94 -1442.29 -12829.3 3686.86 7445.21 51116.8)
(7738.3 -1087.83 -13429.4 3465.51 6298.73 51116.9)
(7894.98 -700.336 -13927.4 3309.17 5104.28 51116.8)
(7981.31 -291.543 -14318.8 3222.29 3871.15 51117.1)
(7995.89 126.093 -14601.9 3207.83 2608.39 51117)
(7937.58 539.904 -14773.7 3266.01 1325.81 51116.9)
(7808.74 937.362 -14833.2 3395.48 32.9975 51116.9)
(7612.37 1306.22 -14779.4 3591.85 -1259.73 51117.2)
(7355.07 1635.43 -14613.3 3849.34 -2543 51117.4)
(7044.73 1915.14 -14336.5 4160.03 -3807.36 51117)
(6690.21 2136.51 -13950.1 4514.46 -5042.39 51116.9)
(6302.24 2292.75 -13457.2 4901.61 -6238.55 51117.1)
(5893.64 2379.57 -12862.3 5310.55 -7387.76 51117.2)
(5476.02 2394.16 -12169.6 5728.25 -8481.01 51116.9)
(5061.89 2335.78 -11384.1 6141.68 -9509.07 51116.8)
(4664.47 2206.53 -10511.9 6539.05 -10465 51116.9)
(4295.78 2010.22 -9559.87 6908.15 -11341.3 51117.2)
(3966.49 1752.96 -8535.03 7237.58 -12131.8 51116.8)
(3686.86 1442.29 -7445.21 7516.94 -12829.3 51116.8)
(-26565.5 1903.69 -2850.34 -2631.45 -24871.5 1112.08)
(-26714 -203.284 -671.795 -2482.42 -25025.3 1112.23)
(-26494.8 -2304.04 1511.84 -2702.07 -24988.6 1112.36)
(-25914.2 -4334.82 3683.99 -3283.16 -24761.8 1112)
(-24989.2 -6233.92 5828.11 -4207.37 -24346.5 1112.25)
(-23749.1 -7943.63 7927.9 -5447.95 -23745.9 1111.88)
(-22230.9 -9411.87 9967.29 -6966.55 -22964.6 1111.86)
(-20480.5 -10594.2 11930.9 -8716.84 -22008.5 1112.05)
(-18551.3 -11454.8 13803.7 -10645.7 -20884.9 1111.69)
(-16502.2 -11967.1 15571.4 -12694.8 -19602.3 1111.7)
(-14395.4 -12115.7 17220.5 -14801.9 -18170.6 1112.01)
(-12294.7 -11896.4 18738.7 -16902.9 -16600.6 1111.77)
(-10263.8 -11315.6 20114.2 -18933.6 -14904.2 1111.67)
(-8364.37 -10390.9 21336.7 -20832.2 -13094.5 1112.3)
(-6655.17 -9150.55 22396.7 -22542.3 -11185 1111.93)
(-5186.72 -7632.1 23286.3 -24010.4 -9190.45 1112.21)
(-4004.02 -5881.84 23998.8 -25192.5 -7125.92 1112.16)
(-3143.75 -3952.81 24528.5 -26053 -5007.19 1112.14)
(-2631.45 -1903.69 24871.5 -26565.5 -2850.34 1112.08)
(-2482.42 203.284 25025.3 -26714 -671.795 1112.23)
(-2702.07 2304.04 24988.6 -26494.8 1511.84 1112.36)
(-3283.16 4334.82 24761.8 -25914.2 3683.99 1112)
(-4207.37 6233.92 24346.5 -24989.2 5828.11 1112.25)
(-5447.95 7943.63 23745.9 -23749.1 7927.9 1111.88)
(-6966.55 9411.87 22964.6 -22230.9 9967.29 1111.86)
(-8716.84 10594.2 22008.5 -20480.5 11930.9 1112.05)
(-10645.7 11454.8 20884.9 -18551.3 13803.7 1111.69)
(-12694.8 11967.1 19602.3 -16502.2 15571.4 1111.7)
(-14801.9 12115.7 18170.6 -14395.4 17220.5 1112.01)
(-16902.9 11896.4 16600.6 -12294.7 18738.7 1111.77)
(-18933.6 11315.6 14904.2 -10263.8 20114.2 1111.67)
(-20832.2 10390.9 13094.5 -8364.37 21336.7 1112.3)
(-22542.3 9150.55 11185 -6655.17 22396.7 1111.93)
(-24010.4 7632.1 9190.45 -5186.72 23286.3 1112.21)
(-25192.5 5881.84 7125.92 -4004.02 23998.8 1112.16)
(-26053 3952.81 5007.19 -3143.75 24528.5 1112.14)
(-26565.5 1903.69 2850.34 -2631.45 24871.5 1112.08)
(-26714 -203.284 671.795 -2482.42 25025.3 1112.23)
(-26494.8 -2304.04 -1511.84 -2702.07 24988.6 1112.36)
(-25914.2 -4334.82 -3683.99 -3283.16 24761.8 1112)
(-24989.2 -6233.92 -5828.11 -4207.37 24346.5 1112.25)
(-23749.1 -7943.63 -7927.9 -5447.95 23745.9 1111.88)
(-22230.9 -9411.87 -9967.29 -6966.55 22964.6 1111.86)
(-20480.5 -10594.2 -11930.9 -8716.84 22008.5 1112.05)
(-18551.3 -11454.8 -13803.7 -10645.7 20884.9 1111.69)
(-16502.2 -11967.1 -15571.4 -12694.8 19602.3 1111.7)
(-14395.4 -12115.7 -17220.5 -14801.9 18170.6 1112.01)
(-12294.7 -11896.4 -18738.7 -16902.9 16600.6 1111.77)
(-10263.8 -11315.6 -20114.2 -18933.6 14904.2 1111.67)
(-8364.37 -10390.9 -21336.7 -20832.2 13094.5 1112.3)
(-6655.17 -9150.55 -22396.7 -22542.3 11185 1111.93)
(-5186.72 -7632.1 -23286.3 -24010.4 9190.45 1112.21)
(-4004.02 -5881.84 -23998.8 -25192.5 7125.92 1112.16)
(-3143.75 -3952.81 -24528.5 -26053 5007.19 1112.14)
(-2631.45 -1903.69 -24871.5 -26565.5 2850.34 1112.08)
(-2482.42 203.284 -25025.3 -26714 671.795 1112.23)
(-2702.07 2304.04 -24988.6 -26494.8 -1511.84 1112.36)
(-3283.16 4334.82 -24761.8 -25914.2 -3683.99 1112)
(-4207.37 6233.92 -24346.5 -24989.2 -5828.11 1112.25)
(-5447.95 7943.63 -23745.9 -23749.1 -7927.9 1111.88)
(-6966.55 9411.87 -22964.6 -22230.9 -9967.29 1111.86)
(-8716.84 10594.2 -22008.5 -20480.5 -11930.9 1112.05)
(-10645.7 11454.8 -20884.9 -18551.3 -13803.7 1111.69)
(-12694.8 11967.1 -19602.3 -16502.2 -15571.4 1111.7)
(-14801.9 12115.7 -18170.6 -14395.4 -17220.5 1112.01)
(-16902.9 11896.4 -16600.6 -12294.7 -18738.7 1111.77)
(-18933.6 11315.6 -14904.2 -10263.8 -20114.2 1111.67)
(-20832.2 10390.9 -13094.5 -8364.37 -21336.7 1112.3)
(-22542.3 9150.55 -11185 -6655.17 -22396.7 1111.93)
(-24010.4 7632.1 -9190.45 -5186.72 -23286.3 1112.21)
(-25192.5 5881.84 -7125.92 -4004.02 -23998.8 1112.16)
(-26053 3952.81 -5007.19 -3143.75 -24528.5 1112.14)
(-42001.1 110.171 -315.182 5322.33 -16017.4 -36298.8)
(-41660.9 -4000.33 1082.03 4981.94 -15983.9 -36298.9)
(-40611.8 -7989.26 2471.01 3933.01 -15828.8 -36298.7)
(-38886.2 -11735.5 3841.17 2207.24 -15553.2 -36298.9)
(-36536.4 -15125.1 5182.1 -142.894 -15159.2 -36299.1)
(-33633.3 -18055.2 6483.56 -3045.52 -14649.8 -36298.9)
(-30265.7 -20436.6 7735.72 -6413.13 -14029 -36298.9)
(-26535.6 -22197.1 8929 -10143 -13301.4 -36298.8)
(-22556.5 -23283.2 10054.3 -14122 -12472.5 -36298.8)
(-18449.5 -23661.8 11103 -18229.2 -11548.8 -36298.9)
(-14339.1 -23321.4 12067.4 -22339.7 -10537.2 -36298.8)
(-10350.1 -22272.5 12939.8 -26328.7 -9445.33 -36298.9)
(-6604.06 -20546.8 13713.8 -30075 -8281.61 -36299)
(-3214.51 -18196.8 14383.5 -33464.7 -7054.88 -36299.1)
(-284.452 -15293.9 14943.7 -36394.7 -5774.45 -36298.9)
(2096.98 -11926.3 15390.1 -38776.1 -4450.07 -36298.9)
(3857.57 -8196.32 15719.3 -40536.6 -3091.78 -36299)
(4943.74 -4217.31 15929 -41622.5 -1709.99 -36298.8)
(5322.33 -110.171 16017.4 -42001.1 -315.182 -36298.8)
(4981.94 4000.33 15983.9 -41660.9 1082.03 -36298.9)
(3933.01 7989.26 15828.8 -40611.8 2471.01 -36298.7)
(2207.24 11735.5 15553.2 -38886.2 3841.17 -36298.9)
(-142.894 15125.1 15159.2 -36536.4 5182.1 -36299.1)
(-3045.52 18055.2 14649.8 -33633.3 6483.56 -36298.9)
(-6413.13 20436.6 14029 -30265.7 7735.72 -36298.9)
(-10143 22197.1 13301.4 -26535.6 8929 -36298.8)
(-14122 23283.2 12472.5 -22556.5 10054.3 -36298.8)
(-18229.2 23661.8 11548.8 -18449.5 11103 -36298.9)
(-22339.7 23321.4 10537.2 -14339.1 12067.4 -36298.8)
(-26328.7 22272.5 9445.33 -10350.1 12939.8 -36298.9)
(-30075 20546.8 8281.61 -6604.06 13713.8 -36299)
(-33464.7 18196.8 7054.88 -3214.51 14383.5 -36299.1)
(-36394.7 15293.9 5774.45 -284.452 14943.7 -36298.9)
(-38776.1 11926.3 4450.07 2096.98 15390.1 -36298.9)
(-40536.6 8196.32 3091.78 3857.57 15719.3 -36299)
(-41622.5 4217.31 1709.99 4943.74 15929 -36298.8)
(-42001.1 110.171 315.182 5322.33 16017.4 -36298.8)
(-41660.9 -4000.33 -1082.03 4981.94 15983.9 -36298.9)
(-40611.8 -7989.26 -2471.01 3933.01 15828.8 -36298.7)
(-38886.2 -11735.5 -3841.17 2207.24 15553.2 -36298.9)
(-36536.4 -15125.1 -5182.1 -142.894 15159.2 -36299.1)
(-33633.3 -18055.2 -6483.56 -3045.52 14649.8 -36298.9)
(-30265.7 -20436.6 -7735.72 -6413.13 14029 -36298.9)
(-26535.6 -22197.1 -8929 -10143 13301.4 -36298.8)
(-22556.5 -23283.2 -10054.3 -14122 12472.5 -36298.8)
(-18449.5 -23661.8 -11103 -18229.2 11548.8 -36298.9)
(-14339.1 -23321.4 -12067.4 -22339.7 10537.2 -36298.8)
(-10350.1 -22272.5 -12939.8 -26328.7 9445.33 -36298.9)
(-6604.06 -20546.8 -13713.8 -30075 8281.61 -36299)
(-3214.51 -18196.8 -14383.5 -33464.7 7054.88 -36299.1)
(-284.452 -15293.9 -14943.7 -36394.7 5774.45 -36298.9)
(2096.98 -11926.3 -15390.1 -38776.1 4450.07 -36298.9)
(3857.57 -8196.32 -15719.3 -40536.6 3091.78 -36299)
(4943.74 -4217.31 -15929 -41622.5 1709.99 -36298.8)
(5322.33 -110.171 -16017.4 -42001.1 315.182 -36298.8)
(4981.94 4000.33 -15983.9 -41660.9 -1082.03 -36298.9)
(3933.01 7989.26 -15828.8 -40611.8 -2471.01 -36298.7)
(2207.24 11735.5 -15553.2 -38886.2 -3841.17 -36298.9)
(-142.894 15125.1 -15159.2 -36536.4 -5182.1 -36299.1)
(-3045.52 18055.2 -14649.8 -33633.3 -6483.56 -36298.9)
(-6413.13 20436.6 -14029 -30265.7 -7735.72 -36298.9)
(-10143 22197.1 -13301.4 -26535.6 -8929 -36298.8)
(-14122 23283.2 -12472.5 -22556.5 -10054.3 -36298.8)
(-18229.2 23661.8 -11548.8 -18449.5 -11103 -36298.9)
(-22339.7 23321.4 -10537.2 -14339.1 -12067.4 -36298.8)
(-26328.7 22272.5 -9445.33 -10350.1 -12939.8 -36298.9)
(-30075 20546.8 -8281.61 -6604.06 -13713.8 -36299)
(-33464.7 18196.8 -7054.88 -3214.51 -14383.5 -36299.1)
(-36394.7 15293.9 -5774.45 -284.452 -14943.7 -36298.9)
(-38776.1 11926.3 -4450.07 2096.98 -15390.1 -36298.9)
(-40536.6 8196.32 -3091.78 3857.57 -15719.3 -36299)
(-41622.5 4217.31 -1709.99 4943.74 -15929 -36298.8)
(-54468.7 -3086.25 -630.856 1170.07 9680.56 -54059.7)
(-53510 -7870.16 -1472.17 211.557 9588.74 -54059.6)
(-51735.5 -12414.9 -2302.28 -1563.3 9423.94 -54059.8)
(-49198.5 -16582.4 -3114.87 -4100.13 9187.43 -54059.7)
(-45976.4 -20246.1 -3903.77 -7322.22 8881.03 -54059.7)
(-42167.2 -23294.7 -4663.01 -11131.7 8507.1 -54059.8)
(-37886.5 -25635.4 -5386.64 -15412.6 8068.23 -54060)
(-33264.2 -27197.2 -6069.37 -20034.9 7568.09 -54059.9)
(-28440.8 -27932.6 -6705.92 -24858 7010.34 -54059.8)
(-23563.1 -27819.3 -7291.39 -29735.6 6399.21 -54059.7)
(-18779.3 -26860.8 -7821.33 -34519.6 5739.34 -54059.8)
(-14234.6 -25086.1 -8291.74 -39064.5 5035.8 -54059.9)
(-10067.1 -22549.1 -8699.18 -43232 4294.01 -54059.9)
(-6403.25 -19327.1 -9040.22 -46895.5 3519.45 -54059.8)
(-3354.64 -15517.7 -9312.51 -49944 2718.13 -54059.7)
(-1014.08 -11236.9 -9513.98 -52284.9 1896.15 -54059.9)
(547.893 -6614.67 -9643.03 -53846.5 1059.74 -54059.7)
(1283.36 -1791.42 -9698.7 -54581.9 215.261 -54059.7)
(1170.07 3086.25 -9680.56 -54468.7 -630.856 -54059.7)
(211.557 7870.16 -9588.74 -53510 -1472.17 -54059.6)
(-1563.3 12414.9 -9423.94 -51735.5 -2302.28 -54059.8)
(-4100.13 16582.4 -9187.43 -49198.5 -3114.87 -54059.7)
(-7322.22 20246.1 -8881.03 -45976.4 -3903.77 -54059.7)
(-11131.7 23294.7 -8507.1 -42167.2 -4663.01 -54059.8)
(-15412.6 25635.4 -8068.23 -37886.5 -5386.64 -54060)
(-20034.9 27197.2 -7568.09 -33264.2 -6069.37 -54059.9)
(-24858 27932.6 -7010.34 -28440.8 -6705.92 -54059.8)
(-29735.6 27819.3 -6399.21 -23563.1 -7291.39 -54059.7)
(-34519.6 26860.8 -5739.34 -18779.3 -7821.33 -54059.8)
(-39064.5 25086.1 -5035.8 -14234.6 -8291.74 -54059.9)
(-43232 22549.1 -4294.01 -10067.1 -8699.18 -54059.9)
(-46895.5 19327.1 -3519.45 -6403.25 -9040.22 -54059.8)
(-49944 15517.7 -2718.13 -3354.64 -9312.51 -54059.7)
(-52284.9 11236.9 -1896.15 -1014.08 -9513.98 -54059.9)
(-53846.5 6614.67 -1059.74 547.893 -9643.03 -54059.7)
(-54581.9 1791.42 -215.261 1283.36 -9698.7 -54059.7)
(-54468.7 -3086.25 630.856 1170.07 -9680.56 -54059.7)
(-53510 -7870.16 1472.17 211.557 -9588.74 -54059.6)
(-51735.5 -12414.9 2302.28 -1563.3 -9423.94 -54059.8)
(-49198.5 -16582.4 3114.87 -4100.13 -9187.43 -54059.7)
(-45976.4 -20246.1 3903.77 -7322.22 -8881.03 -54059.7)
(-42167.2 -23294.7 4663.01 -11131.7 -8507.1 -54059.8)
(-37886.5 -25635.4 5386.64 -15412.6 -8068.23 -54060)
(-33264.2 -27197.2 6069.37 -20034.9 -7568.09 -54059.9)
(-28440.8 -27932.6 6705.92 -24858 -7010.34 -54059.8)
(-23563.1 -27819.3 7291.39 -29735.6 -6399.21 -54059.7)
(-18779.3 -26860.8 7821.33 -34519.6 -5739.34 -54059.8)
(-14234.6 -25086.1 8291.74 -39064.5 -5035.8 -54059.9)
(-10067.1 -22549.1 8699.18 -43232 -4294.01 -54059.9)
(-6403.25 -19327.1 9040.22 -46895.5 -3519.45 -54059.8)
(-3354.64 -15517.7 9312.51 -49944 -2718.13 -54059.7)
(-1014.08 -11236.9 9513.98 -52284.9 -1896.15 -54059.9)
(547.893 -6614.67 9643.03 -53846.5 -1059.74 -54059.7)
(1283.36 -1791.42 9698.7 -54581.9 -215.261 -54059.7)
(1170.07 3086.25 9680.56 -54468.7 630.856 -54059.7)
(211.557 7870.16 9588.74 -53510 1472.17 -54059.6)
(-1563.3 12414.9 9423.94 -51735.5 2302.28 -54059.8)
(-4100.13 16582.4 9187.43 -49198.5 3114.87 -54059.7)
(-7322.22 20246.1 8881.03 -45976.4 3903.77 -54059.7)
(-11131.7 23294.7 8507.1 -42167.2 4663.01 -54059.8)
(-15412.6 25635.4 8068.23 -37886.5 5386.64 -54060)
(-20034.9 27197.2 7568.09 -33264.2 6069.37 -54059.9)
(-24858 27932.6 7010.34 -28440.8 6705.92 -54059.8)
(-29735.6 27819.3 6399.21 -23563.1 7291.39 -54059.7)
(-34519.6 26860.8 5739.34 -18779.3 7821.33 -54059.8)
(-39064.5 25086.1 5035.8 -14234.6 8291.74 -54059.9)
(-43232 22549.1 4294.01 -10067.1 8699.18 -54059.9)
(-46895.5 19327.1 3519.45 -6403.25 9040.22 -54059.8)
(-49944 15517.7 2718.13 -3354.64 9312.51 -54059.7)
(-52284.9 11236.9 1896.15 -1014.08 9513.98 -54059.9)
(-53846.5 6614.67 1059.74 547.893 9643.03 -54059.7)
(-54581.9 1791.42 215.261 1283.36 9698.7 -54059.7)
(-51674.6 -4500.05 -3719.78 -13729.1 30338.9 -30865.8)
(-50605 -7726.27 -6349.84 -14798.9 29899.2 -30865.9)
(-48991.2 -10717.7 -8931.56 -16412.3 29232 -30865.7)
(-46882.5 -13383.5 -11445.3 -18520.8 28342.3 -30865.6)
(-44342.9 -15642.7 -13872 -21060.2 27237 -30865.5)
(-41450.1 -17426.6 -16193 -23953.6 25924.3 -30865.9)
(-38291 -18680.9 -18390.9 -27112.6 24414.3 -30865.8)
(-34962.1 -19367.7 -20448.7 -30441.4 22718.5 -30865.8)
(-31564.7 -19465.9 -22351 -33838.9 20849.9 -30865.6)
(-28201.7 -18972.7 -24083.1 -37201.7 18822.6 -30865.6)
(-24975.7 -17903.1 -25631.9 -40428.2 16651.9 -30866)
(-21984.1 -16289.4 -26985.7 -43419.5 14354.6 -30865.8)
(-19318.2 -14180.9 -28134.1 -46085.3 11948 -30865.8)
(-17059 -11641.4 -29068.4 -48344.3 9450.51 -30865.5)
(-15275.1 -8748.2 -29781.4 -50128.1 6881.06 -30865.5)
(-14020.9 -5589.21 -30267.8 -51382.7 4259.24 -30865.7)
(-13334.3 -2260.39 -30523.9 -52069.5 1605.02 -30865.8)
(-13235.9 1137.09 -30547.6 -52167.8 -1061.41 -30865.8)
(-13729.1 4500.05 -30338.9 -51674.6 -3719.78 -30865.8)
(-14798.9 7726.27 -29899.2 -50605 -6349.84 -30865.9)
(-16412.3 10717.7 -29232 -48991.2 -8931.56 -30865.7)
(-18520.8 13383.5 -28342.3 -46882.5 -11445.3 -30865.6)
(-21060.2 15642.7 -27237 -44342.9 -13872 -30865.5)
(-23953.6 17426.6 -25924.3 -41450.1 -16193 -30865.9)
(-27112.6 18680.9 -24414.3 -38291 -18390.9 -30865.8)
(-30441.4 19367.7 -22718.5 -34962.1 -20448.7 -30865.8)
(-33838.9 19465.9 -20849.9 -31564.7 -22351 -30865.6)
(-37201.7 18972.7 -18822.6 -28201.7 -24083.1 -30865.6)
(-40428.2 17903.1 -16651.9 -24975.7 -25631.9 -30866)
(-43419.5 16289.4 -14354.6 -21984.1 -26985.7 -30865.8)
(-46085.3 14180.9 -11948 -19318.2 -28134.1 -30865.8)
(-48344.3 11641.4 -9450.51 -17059 -29068.4 -30865.5)
(-50128.1 8748.2 -6881.06 -15275.1 -29781.4 -30865.5)
(-51382.7 5589.21 -4259.24 -14020.9 -30267.8 -30865.7)
(-52069.5 2260.39 -1605.02 -13334.3 -30523.9 -30865.8)
(-52167.8 -1137.09 1061.41 -13235.9 -30547.6 -30865.8)
(-51674.6 -4500.05 3719.78 -13729.1 -30338.9 -30865.8)
(-50605 -7726.27 6349.84 -14798.9 -29899.2 -30865.9)
(-48991.2 -10717.7 8931.56 -16412.3 -29232 -30865.7)
(-46882.5 -13383.5 11445.3 -18520.8 -28342.3 -30865.6)
(-44342.9 -15642.7 13872 -21060.2 -27237 -30865.5)
(-41450.1 -17426.6 16193 -23953.6 -25924.3 -30865.9)
(-38291 -18680.9 18390.9 -27112.6 -24414.3 -30865.8)
(-34962.1 -19367.7 20448.7 -30441.4 -22718.5 -30865.8)
(-31564.7 -19465.9 22351 -33838.9 -20849.9 -30865.6)
(-28201.7 -18972.7 24083.1 -37201.7 -18822.6 -30865.6)
(-24975.7 -17903.1 25631.9 -40428.2 -16651.9 -30866)
(-21984.1 -16289.4 26985.7 -43419.5 -14354.6 -30865.8)
(-19318.2 -14180.9 28134.1 -46085.3 -11948 -30865.8)
(-17059 -11641.4 29068.4 -48344.3 -9450.51 -30865.5)
(-15275.1 -8748.2 29781.4 -50128.1 -6881.06 -30865.5)
(-14020.9 -5589.21 30267.8 -51382.7 -4259.24 -30865.7)
(-13334.3 -2260.39 30523.9 -52069.5 -1605.02 -30865.8)
(-13235.9 1137.09 30547.6 -52167.8 1061.41 -30865.8)
(-13729.1 4500.05 30338.9 -51674.6 3719.78 -30865.8)
(-14798.9 7726.27 29899.2 -50605 6349.84 -30865.9)
(-16412.3 10717.7 29232 -48991.2 8931.56 -30865.7)
(-18520.8 13383.5 28342.3 -46882.5 11445.3 -30865.6)
(-21060.2 15642.7 27237 -44342.9 13872 -30865.5)
(-23953.6 17426.6 25924.3 -41450.1 16193 -30865.9)
(-27112.6 18680.9 24414.3 -38291 18390.9 -30865.8)
(-30441.4 19367.7 22718.5 -34962.1 20448.7 -30865.8)
(-33838.9 19465.9 20849.9 -31564.7 22351 -30865.6)
(-37201.7 18972.7 18822.6 -28201.7 24083.1 -30865.6)
(-40428.2 17903.1 16651.9 -24975.7 25631.9 -30866)
(-43419.5 16289.4 14354.6 -21984.1 26985.7 -30865.8)
(-46085.3 14180.9 11948 -19318.2 28134.1 -30865.8)
(-48344.3 11641.4 9450.51 -17059 29068.4 -30865.5)
(-50128.1 8748.2 6881.06 -15275.1 29781.4 -30865.5)
(-51382.7 5589.21 4259.24 -14020.9 30267.8 -30865.7)
(-52069.5 2260.39 1605.02 -13334.3 30523.9 -30865.8)
(-52167.8 -1137.09 -1061.41 -13235.9 30547.6 -30865.8)
(-56144 -1750.45 -6024.55 -48307.7 19041.3 -8813.01)
(-55780.5 -2404.25 -7661.21 -48671.3 18443.8 -8813.04)
(-55308.9 -2984.96 -9239.52 -49142.7 17705.8 -8812.91)
(-54743.7 -3475 -10747.5 -49707.8 16833.2 -8812.86)
(-54102.2 -3859.48 -12173.8 -50349.5 15832.5 -8813.08)
(-53403.4 -4126.65 -13507.3 -51048.2 14711.3 -8812.96)
(-52668.9 -4268.47 -14738.1 -51782.7 13478.1 -8813.03)
(-51921.1 -4280.55 -15856.7 -52530.8 12142.2 -8813.15)
(-51182.1 -4162.57 -16854.6 -53269.1 10714 -8812.78)
(-50475.1 -3918.15 -17724.3 -53976 9204.27 -8812.71)
(-49821.5 -3554.66 -18459 -54630 7624.46 -8812.9)
(-49240.6 -3083.18 -19053.3 -55210.6 5986.66 -8812.82)
(-48750.6 -2517.99 -19502.6 -55700.7 4303.26 -8812.86)
(-48366.2 -1876.3 -19803.5 -56085.1 2587.13 -8812.88)
(-48099.1 -1177.59 -19953.5 -56352.3 851.266 -8812.83)
(-47957.3 -443.118 -19951.7 -56494.2 -891.049 -8812.83)
(-47945.3 304.817 -19798.2 -56506.3 -2626.56 -8812.94)
(-48063.1 1043.49 -19493.9 -56388.3 -4342.09 -8812.84)
(-48307.7 1750.45 -19041.3 -56144 -6024.55 -8813.01)
(-48671.3 2404.25 -18443.8 -55780.5 -7661.21 -8813.04)
(-49142.7 2984.96 -17705.8 -55308.9 -9239.52 -8812.91)
(-49707.8 3475 -16833.2 -54743.7 -10747.5 -8812.86)
(-50349.5 3859.48 -15832.5 -54102.2 -12173.8 -8813.08)
(-51048.2 4126.65 -14711.3 -53403.4 -13507.3 -8812.96)
(-51782.7 4268.47 -13478.1 -52668.9 -14738.1 -8813.03)
(-52530.8 4280.55 -12142.2 -51921.1 -15856.7 -8813.15)
(-53269.1 4162.57 -10714 -51182.1 -16854.6 -8812.78)
(-53976 3918.15 -9204.27 -50475.1 -17724.3 -8812.71)
(-54630 3554.66 -7624.46 -49821.5 -18459 -8812.9)
(-55210.6 3083.18 -5986.66 -49240.6 -19053.3 -8812.82)
(-55700.7 2517.99 -4303.26 -48750.6 -19502.6 -8812.86)
(-56085.1 1876.3 -2587.13 -48366.2 -19803.5 -8812.88)
(-56352.3 1177.59 -851.266 -48099.1 -19953.5 -8812.83)
(-56494.2 443.118 891.049 -47957.3 -19951.7 -8812.83)
(-56506.3 -304.817 2626.56 -47945.3 -19798.2 -8812.94)
(-56388.3 -1043.49 4342.09 -48063.1 -19493.9 -8812.84)
(-56144 -1750.45 6024.55 -48307.7 -19041.3 -8813.01)
(-55780.5 -2404.25 7661.21 -48671.3 -18443.8 -8813.04)
(-55308.9 -2984.96 9239.52 -49142.7 -17705.8 -8812.91)
(-54743.7 -3475 10747.5 -49707.8 -16833.2 -8812.86)
(-54102.2 -3859.48 12173.8 -50349.5 -15832.5 -8813.08)
(-53403.4 -4126.65 13507.3 -51048.2 -14711.3 -8812.96)
(-52668.9 -4268.47 14738.1 -51782.7 -13478.1 -8813.03)
(-51921.1 -4280.55 15856.7 -52530.8 -12142.2 -8813.15)
(-51182.1 -4162.57 16854.6 -53269.1 -10714 -8812.78)
(-50475.1 -3918.15 17724.3 -53976 -9204.27 -8812.71)
(-49821.5 -3554.66 18459 -54630 -7624.46 -8812.9)
(-49240.6 -3083.18 19053.3 -55210.6 -5986.66 -8812.82)
(-48750.6 -2517.99 19502.6 -55700.7 -4303.26 -8812.86)
(-48366.2 -1876.3 19803.5 -56085.1 -2587.13 -8812.88)
(-48099.1 -1177.59 19953.5 -56352.3 -851.266 -8812.83)
(-47957.3 -443.118 19951.7 -56494.2 891.049 -8812.83)
(-47945.3 304.817 19798.2 -56506.3 2626.56 -8812.94)
(-48063.1 1043.49 19493.9 -56388.3 4342.09 -8812.84)
(-48307.7 1750.45 19041.3 -56144 6024.55 -8813.01)
(-48671.3 2404.25 18443.8 -55780.5 7661.21 -8813.04)
(-49142.7 2984.96 17705.8 -55308.9 9239.52 -8812.91)
(-49707.8 3475 16833.2 -54743.7 10747.5 -8812.86)
(-50349.5 3859.48 15832.5 -54102.2 12173.8 -8813.08)
(-51048.2 4126.65 14711.3 -53403.4 13507.3 -8812.96)
(-51782.7 4268.47 13478.1 -52668.9 14738.1 -8813.03)
(-52530.8 4280.55 12142.2 -51921.1 15856.7 -8813.15)
(-53269.1 4162.57 10714 -51182.1 16854.6 -8812.78)
(-53976 3918.15 9204.27 -50475.1 17724.3 -8812.71)
(-54630 3554.66 7624.46 -49821.5 18459 -8812.9)
(-55210.6 3083.18 5986.66 -49240.6 19053.3 -8812.82)
(-55700.7 2517.99 4303.26 -48750.6 19502.6 -8812.86)
(-56085.1 1876.3 2587.13 -48366.2 19803.5 -8812.88)
(-56352.3 1177.59 851.266 -48099.1 19953.5 -8812.83)
(-56494.2 443.118 -891.049 -47957.3 19951.7 -8812.83)
(-56506.3 -304.817 -2626.56 -47945.3 19798.2 -8812.94)
(-56388.3 -1043.49 -4342.09 -48063.1 19493.9 -8812.84)
(14795.6 830.367 -5979.39 16679.8 -9228.3 64160)
(14665.5 654.179 -5152.26 16809.7 -9714.76 64159.5)
(14568.3 458.058 -4286.13 16906.8 -10126.2 64159.9)
(14506.6 248.064 -3387.32 16968.6 -10461.1 64160.2)
(14482.2 30.5191 -2462.57 16993 -10716.7 64160)
(14495.6 -187.983 -1519 16979.1 -10890.9 64159.4)
(14547.5 -400.726 -564.141 16927.8 -10981.7 64159.9)
(14635.4 -601.237 394.837 16840.3 -10988.7 64160.3)
(14756.1 -783.626 1351.41 16718.8 -10912.8 64159.7)
(14907 -942.134 2297.38 16567.7 -10753.5 64159.5)
(15083.5 -1071.91 3225.45 16391.8 -10512.1 64160.2)
(15279.7 -1169.32 4129.79 16195.8 -10191.2 64160)
(15489.3 -1231.14 5002.49 15985.4 -9792.55 64159.5)
(15707 -1255.44 5836.57 15768 -9319.2 64159.8)
(15925.6 -1241.61 6626.35 15549.7 -8774.95 64160.2)
(16138.3 -1190.14 7366.07 15336.9 -8164.08 64160)
(16338.9 -1102.58 8050.21 15136.2 -7491.05 64159.5)
(16521.2 -981.355 8672.07 14954 -6760.94 64159.8)
(16679.8 -830.367 9228.3 14795.6 -5979.39 64160)
(16809.7 -654.179 9714.76 14665.5 -5152.26 64159.5)
(16906.8 -458.058 10126.2 14568.3 -4286.13 64159.9)
(16968.6 -248.064 10461.1 14506.6 -3387.32 64160.2)
(16993 -30.5191 10716.7 14482.2 -2462.57 64160)
(16979.1 187.983 10890.9 14495.6 -1519 64159.4)
(16927.8 400.726 10981.7 14547.5 -564.141 64159.9)
(16840.3 601.237 10988.7 14635.4 394.837 64160.3)
(16718.8 783.626 10912.8 14756.1 1351.41 64159.7)
(16567.7 942.134 10753.5 14907 2297.38 64159.5)
(16391.8 1071.91 10512.1 15083.5 3225.45 64160.2)
(16195.8 1169.32 10191.2 15279.7 4129.79 64160)
(15985.4 1231.14 9792.55 15489.3 5002.49 64159.5)
(15768 1255.44 9319.2 15707 5836.57 64159.8)
(15549.7 1241.61 8774.95 15925.6 6626.35 64160.2)
(15336.9 1190.14 8164.08 16138.3 7366.07 64160)
(15136.2 1102.58 7491.05 16338.9 8050.21 64159.5)
(14954 981.355 6760.94 16521.2 8672.07 64159.8)
(14795.6 830.367 5979.39 16679.8 9228.3 64160)
(14665.5 654.179 5152.26 16809.7 9714.76 64159.5)
(14568.3 458.058 4286.13 16906.8 10126.2 64159.9)
(14506.6 248.064 3387.32 16968.6 10461.1 64160.2)
(14482.2 30.5191 2462.57 16993 10716.7 64160)
(14495.6 -187.983 1519 16979.1 10890.9 64159.4)
(14547.5 -400.726 564.141 16927.8 10981.7 64159.9)
(14635.4 -601.237 -394.837 16840.3 10988.7 64160.3)
(14756.1 -783.626 -1351.41 16718.8 10912.8 64159.7)
(14907 -942.134 -2297.38 16567.7 10753.5 64159.5)
(15083.5 -1071.91 -3225.45 16391.8 10512.1 64160.2)
(15279.7 -1169.32 -4129.79 16195.8 10191.2 64160)
(15489.3 -1231.14 -5002.49 15985.4 9792.55 64159.5)
(15707 -1255.44 -5836.57 15768 9319.2 64159.8)
(15925.6 -1241.61 -6626.35 15549.7 8774.95 64160.2)
(16138.3 -1190.14 -7366.07 15336.9 8164.08 64160)
(16338.9 -1102.58 -8050.21 15136.2 7491.05 64159.5)
(16521.2 -981.355 -8672.07 14954 6760.94 64159.8)
(16679.8 -830.367 -9228.3 14795.6 5979.39 64160)
(16809.7 -654.179 -9714.76 14665.5 5152.26 64159.5)
(16906.8 -458.058 -10126.2 14568.3 4286.13 64159.9)
(16968.6 -248.064 -10461.1 14506.6 3387.32 64160.2)
(16993 -30.5191 -10716.7 14482.2 2462.57 64160)
(16979.1 187.983 -10890.9 14495.6 1519 64159.4)
(16927.8 400.726 -10981.7 14547.5 564.141 64159.9)
(16840.3 601.237 -10988.7 14635.4 -394.837 64160.3)
(16718.8 783.626 -10912.8 14756.1 -1351.41 64159.7)
(16567.7 942.134 -10753.5 14907 -2297.38 64159.5)
(16391.8 1071.91 -10512.1 15083.5 -3225.45 64160.2)
(16195.8 1169.32 -10191.2 15279.7 -4129.79 64160)
(15985.4 1231.14 -9792.55 15489.3 -5002.49 64159.5)
(15768 1255.44 -9319.2 15707 -5836.57 64159.8)
(15549.7 1241.61 -8774.95 15925.6 -6626.35 64160.2)
(15336.9 1190.14 -8164.08 16138.3 -7366.07 64160)
(15136.2 1102.58 -7491.05 16338.9 -8050.21 64159.5)
(14954 981.355 -6760.94 16521.2 -8672.07 64159.8)
(-4386.63 2096.9 -2844.52 16558.2 -24460.1 24638.9)
(-4591.62 246.517 -701.86 16763.4 -24614.9 24638.9)
(-4472.12 -1611.32 1446.12 16643.9 -24582.4 24639.2)
(-4031.78 -3420.21 3583.1 16203.8 -24362.8 24639.3)
(-3284.4 -5125.17 5692.8 15455.9 -23957.8 24639.1)
(-2251.62 -6674.48 7759.24 14424.1 -23370.5 24639.4)
(-966.293 -8020.94 9766.58 13138.1 -22605.3 24639)
(533.64 -9123.6 11699.6 11638 -21668 24639.2)
(2202.48 -9949.24 13543.6 9969.62 -20565.9 24639)
(3989.08 -10472.4 15284.5 8182.87 -19307.3 24639)
(5839.13 -10677.4 16909 6332.25 -17901.7 24639.1)
(7697.22 -10558 18405 4474.53 -16359.8 24639)
(9506.45 -10117.8 19760.8 2665.97 -14693.5 24639.3)
(11210.9 -9370.16 20966.1 960.608 -12915.3 24639.1)
(12760.4 -8337.83 22012 -588.521 -11038.8 24639.2)
(14106.8 -7052.17 22890.4 -1935 -9078.34 24639.2)
(15209.6 -5552.23 23594.5 -3037.85 -7048.74 24638.9)
(16035 -3883.56 24119.1 -3863.4 -4965.54 24638.9)
(16558.2 -2096.9 24460.1 -4386.63 -2844.53 24638.9)
(16763.4 -246.517 24614.9 -4591.62 -701.86 24638.9)
(16643.9 1611.32 24582.4 -4472.12 1446.12 24639.2)
(16203.8 3420.21 24362.8 -4031.78 3583.1 24639.3)
(15455.9 5125.17 23957.8 -3284.4 5692.8 24639.1)
(14424.1 6674.48 23370.5 -2251.62 7759.24 24639.4)
(13138.1 8020.94 22605.3 -966.293 9766.58 24639)
(11638 9123.6 21668 533.64 11699.6 24639.2)
(9969.62 9949.24 20565.9 2202.48 13543.6 24639)
(8182.87 10472.4 19307.3 3989.08 15284.5 24639)
(6332.25 10677.4 17901.7 5839.13 16909 24639.1)
(4474.53 10558 16359.8 7697.22 18405 24639)
(2665.97 10117.8 14693.5 9506.45 19760.8 24639.3)
(960.608 9370.16 12915.3 11210.9 20966.1 24639.1)
(-588.521 8337.83 11038.8 12760.4 22012 24639.2)
(-1935 7052.17 9078.34 14106.8 22890.4 24639.2)
(-3037.85 5552.23 7048.74 15209.6 23594.5 24638.9)
(-3863.4 3883.56 4965.54 16035 24119.1 24638.9)
(-4386.63 2096.9 2844.53 16558.2 24460.1 24638.9)
(-4591.62 246.517 701.86 16763.4 24614.9 24638.9)
(-4472.12 -1611.32 -1446.12 16643.9 24582.4 24639.2)
(-4031.78 -3420.21 -3583.1 16203.8 24362.8 24639.3)
(-3284.4 -5125.17 -5692.8 15455.9 23957.8 24639.1)
(-2251.62 -6674.48 -7759.24 14424.1 23370.5 24639.4)
(-966.293 -8020.94 -9766.58 13138.1 22605.3 24639)
(533.64 -9123.6 -11699.6 11638 21668 24639.2)
(2202.48 -9949.24 -13543.6 9969.62 20565.9 24639)
(3989.08 -10472.4 -15284.5 8182.87 19307.3 24639)
(5839.13 -10677.4 -16909 6332.25 17901.7 24639.1)
(7697.22 -10558 -18405 4474.53 16359.8 24639)
(9506.45 -10117.8 -19760.8 2665.97 14693.5 24639.3)
(11210.9 -9370.16 -20966.1 960.608 12915.3 24639.1)
(12760.4 -8337.83 -22012 -588.521 11038.8 24639.2)
(14106.8 -7052.17 -22890.4 -1935 9078.34 24639.2)