/*--------------------------------*- C++ -*----------------------------------*\
| =========                 |                                                 |
| \\      /  F ield         | OpenFOAM: The Open Source CFD Toolbox           |
|  \\    /   O peration     | Version:  2312                                  |
|   \\  /    A nd           | Website:  www.openfoam.com                      |
|    \\/     M anipulation  |                                                 |
\*---------------------------------------------------------------------------*/
FoamFile
{
    version     2.0;
    format      ascii;
    arch        "LSB;label=32;scalar=64";
    class       volVectorField;
    location    "0.3";
    object      D;
}
// * * * * * * * * * * * * * * * * * * * * * * * * * * * * * * * * * * * * * //

dimensions      [0 1 0 0 0 0 0];

internalField   nonuniform List<vector> 
1620
(
(-0.00010462 -1.46213e-05 -7.34901e-05)
(-8.23026e-05 3.30501e-05 -6.25437e-05)
(-5.20328e-05 7.24535e-05 -4.4671e-05)
(-1.86033e-05 0.000105269 -2.23483e-05)
(1.55056e-05 0.00013547 4.68314e-06)
(4.71173e-05 0.000167303 3.7575e-05)
(7.11856e-05 0.000203414 7.78029e-05)
(8.15516e-05 0.000242263 0.000125022)
(7.91022e-05 0.000274459 0.000167886)
(6.48921e-05 0.000292201 0.000169512)
(4.29293e-05 0.000292269 0.000134379)
(2.68344e-05 0.000279463 9.60682e-05)
(2.11748e-05 0.000261572 6.17666e-05)
(2.29388e-05 0.000241451 3.16592e-05)
(2.87867e-05 0.000218328 5.1379e-06)
(3.63291e-05 0.000189759 -1.82923e-05)
(4.31851e-05 0.000153066 -3.85807e-05)
(4.39908e-05 0.000107005 -5.29161e-05)
(3.27482e-05 5.47042e-05 -5.28405e-05)
(1.09327e-05 5.16169e-06 -3.92116e-05)
(-1.36544e-05 -3.74763e-05 -2.17789e-05)
(-3.6361e-05 -7.33145e-05 -3.28535e-06)
(-5.6329e-05 -0.000104487 1.6953e-05)
(-7.31672e-05 -0.000134492 4.10577e-05)
(-8.48618e-05 -0.000166815 7.23206e-05)
(-8.74166e-05 -0.00020195 0.000113273)
(-8.31969e-05 -0.000232009 0.000155291)
(-7.1475e-05 -0.000249477 0.000160084)
(-5.45123e-05 -0.000250091 0.000130431)
(-4.50766e-05 -0.00023814 9.5591e-05)
(-4.72901e-05 -0.000220688 6.19958e-05)
(-5.82352e-05 -0.000200723 3.04235e-05)
(-7.39613e-05 -0.000177746 9.7598e-07)
(-9.09736e-05 -0.000149307 -2.62502e-05)
(-0.000105829 -0.000112477 -5.07239e-05)
(-0.000112536 -6.60658e-05 -6.93624e-05)
(-2.80378e-05 -2.35758e-05 -3.62114e-05)
(-1.69179e-05 2.59776e-05 -2.20275e-05)
(-6.08568e-06 6.35776e-05 -8.60748e-06)
(5.13361e-06 9.12119e-05 6.5065e-06)
(1.7198e-05 0.000110787 2.38671e-05)
(2.95222e-05 0.000125401 4.26987e-05)
(4.112e-05 0.000137529 6.17566e-05)
(5.16328e-05 0.000148657 7.923e-05)
(6.2443e-05 0.000160399 9.17522e-05)
(6.88966e-05 0.000174241 9.3366e-05)
(6.97077e-05 0.000188774 8.51827e-05)
(6.48642e-05 0.000200831 7.19631e-05)
(5.74248e-05 0.0002088 5.65093e-05)
(4.80804e-05 0.000211296 4.05107e-05)
(3.66203e-05 0.000206025 2.52593e-05)
(2.29288e-05 0.000190013 1.15483e-05)
(7.80273e-06 0.000161209 -1.13483e-06)
(-7.7865e-06 0.000116295 -1.46223e-05)
(-2.06847e-05 6.09511e-05 -1.34916e-05)
(-2.9809e-05 1.14508e-05 8.83752e-07)
(-3.68909e-05 -2.66589e-05 1.21374e-05)
(-4.24858e-05 -5.51561e-05 2.32229e-05)
(-4.74237e-05 -7.54577e-05 3.53399e-05)
(-5.20388e-05 -9.01992e-05 4.84971e-05)
(-5.6616e-05 -0.000101641 6.24693e-05)
(-6.20786e-05 -0.000111288 7.64922e-05)
(-7.07846e-05 -0.000121035 8.752e-05)
(-7.828e-05 -0.000132654 8.87187e-05)
(-8.25322e-05 -0.000145725 8.06977e-05)
(-8.32996e-05 -0.000157595 6.73609e-05)
(-8.25267e-05 -0.000166402 5.09565e-05)
(-8.00305e-05 -0.000170355 3.3087e-05)
(-7.48289e-05 -0.000166703 1.51428e-05)
(-6.61981e-05 -0.000152007 -1.86546e-06)
(-5.45858e-05 -0.00012384 -1.80918e-05)
(-4.09494e-05 -7.90294e-05 -3.50288e-05)
(2.05871e-05 -3.60574e-05 7.35472e-06)
(2.14432e-05 1.23658e-05 1.40412e-05)
(1.4925e-05 4.74401e-05 2.12903e-05)
(7.33482e-06 6.83965e-05 2.89436e-05)
(1.95574e-06 7.75214e-05 3.67785e-05)
(7.34689e-07 7.85248e-05 4.28802e-05)
(5.71425e-06 7.53835e-05 4.4152e-05)
(1.95047e-05 7.24595e-05 3.81631e-05)
(4.50247e-05 7.47667e-05 2.79663e-05)
(7.6724e-05 8.52786e-05 2.85421e-05)
(9.82482e-05 0.000104769 4.09632e-05)
(0.000105955 0.00013008 4.76192e-05)
(0.000101068 0.000155581 4.72895e-05)
(8.57571e-05 0.000176149 4.30498e-05)
(6.20031e-05 0.000187008 3.7896e-05)
(3.19296e-05 0.000183482 3.36762e-05)
(-7.29603e-07 0.000161947 3.06845e-05)
(-2.83293e-05 0.000121476 2.85589e-05)
(-4.21304e-05 7.1099e-05 3.02352e-05)
(-4.16582e-05 2.49323e-05 3.47301e-05)
(-3.4564e-05 -7.94205e-06 3.84041e-05)
(-2.68289e-05 -2.75927e-05 4.22108e-05)
(-2.10668e-05 -3.67363e-05 4.65922e-05)
(-1.86529e-05 -3.88044e-05 4.99567e-05)
(-2.15952e-05 -3.68858e-05 4.92293e-05)
(-3.31842e-05 -3.43753e-05 4.16207e-05)
(-5.69707e-05 -3.60502e-05 2.95985e-05)
(-8.77353e-05 -4.55698e-05 2.7628e-05)
(-0.000109849 -6.46067e-05 3.72747e-05)
(-0.000120675 -9.02853e-05 4.15211e-05)
(-0.000119908 -0.000117238 3.9108e-05)
(-0.000108206 -0.000139946 3.27485e-05)
(-8.66655e-05 -0.000152884 2.50837e-05)
(-5.72412e-05 -0.000150711 1.7776e-05)
(-2.39794e-05 -0.000129494 1.12821e-05)
(5.06999e-06 -8.83647e-05 6.21308e-06)
(-0.000243637 -4.80946e-05 -0.000204129)
(-0.000194575 0.000102647 -0.000177124)
(-0.000132724 0.000222754 -0.000124446)
(-6.41706e-05 0.000313467 -5.55284e-05)
(7.4534e-06 0.000385533 2.79838e-05)
(7.66285e-05 0.000451215 0.000127885)
(0.000135164 0.000519288 0.000245354)
(0.000174851 0.000590704 0.00037304)
(0.000197251 0.000654353 0.000478784)
(0.000202281 0.000698713 0.000497114)
(0.000182831 0.000718333 0.00042564)
(0.000159633 0.00071747 0.000325623)
(0.000144303 0.000703483 0.000225433)
(0.000136633 0.000677422 0.000133486)
(0.000132977 0.0006344 5.09087e-05)
(0.00012952 0.000565965 -2.27311e-05)
(0.000122111 0.000463336 -8.53724e-05)
(0.000103317 0.000324376 -0.000127018)
(6.85178e-05 0.000165594 -0.000129691)
(2.12547e-05 1.53513e-05 -9.48383e-05)
(-2.93042e-05 -0.000107052 -4.37751e-05)
(-7.63452e-05 -0.000201265 1.29913e-05)
(-0.000118288 -0.000275257 7.53733e-05)
(-0.000154346 -0.000339549 0.000148685)
(-0.000182413 -0.000403452 0.000239549)
(-0.000199895 -0.000470463 0.000347622)
(-0.000213049 -0.000531612 0.000446936)
(-0.00022143 -0.000575731 0.000472724)
(-0.000215276 -0.000596663 0.000413926)
(-0.000211532 -0.000598224 0.000321992)
(-0.000219078 -0.000586941 0.000222506)
(-0.000235908 -0.000563515 0.000124712)
(-0.000256046 -0.000522541 3.16597e-05)
(-0.000273205 -0.000454759 -5.51287e-05)
(-0.000281552 -0.000350748 -0.000132075)
(-0.000273264 -0.000208811 -0.000188246)
(-0.000110577 -7.64985e-05 -0.000108206)
(-7.80751e-05 6.97658e-05 -7.55018e-05)
(-4.66143e-05 0.000182651 -3.01034e-05)
(-1.34525e-05 0.00026491 2.45178e-05)
(2.28401e-05 0.000323684 8.70669e-05)
(6.12239e-05 0.000368732 0.000155355)
(9.96045e-05 0.000408183 0.000225394)
(0.000136897 0.000446728 0.000289879)
(0.000173981 0.000485873 0.000336038)
(0.000202855 0.00052607 0.000347764)
(0.000214581 0.000565024 0.00032356)
(0.00020924 0.000597329 0.00027694)
(0.000192774 0.000619141 0.000220091)
(0.000167997 0.000625716 0.00016077)
(0.000135679 0.000609672 0.000103672)
(9.64764e-05 0.00056188 5.15048e-05)
(5.279e-05 0.000474875 5.80528e-06)
(8.26047e-06 0.000343321 -2.94899e-05)
(-2.95891e-05 0.000186918 -2.87828e-05)
(-5.79853e-05 4.23032e-05 5.02918e-06)
(-8.0507e-05 -7.00715e-05 4.39889e-05)
(-9.94156e-05 -0.000152979 8.55526e-05)
(-0.000116834 -0.00021261 0.000130332)
(-0.000133923 -0.000257617 0.000178715)
(-0.000151931 -0.000295537 0.000229992)
(-0.000173451 -0.00033108 0.000280372)
(-0.000202407 -0.000366219 0.000319308)
(-0.000232162 -0.000402427 0.000329826)
(-0.000252998 -0.000439376 0.000306752)
(-0.000263276 -0.000472588 0.000260134)
(-0.000265776 -0.000497673 0.000200225)
(-0.000260525 -0.000508834 0.000134402)
(-0.000245902 -0.000497398 6.77816e-05)
(-0.00022082 -0.000452922 3.96721e-06)
(-0.000186855 -0.000367035 -5.41704e-05)
(-0.000147732 -0.000234677 -0.00010106)
(-3.36812e-06 -0.000109034 -1.21766e-06)
(1.44328e-05 2.80246e-05 2.35644e-05)
(1.85881e-05 0.000134452 5.85516e-05)
(1.99139e-05 0.000207869 9.82211e-05)
(2.46576e-05 0.000253858 0.000139299)
(3.66435e-05 0.000281092 0.000176026)
(5.9407e-05 0.000298634 0.000200133)
(9.65135e-05 0.000315439 0.000205312)
(0.000151455 0.000340011 0.000198395)
(0.000209605 0.000376902 0.000205401)
(0.000249352 0.000425938 0.000222151)
(0.000262044 0.000480969 0.000224387)
(0.000247534 0.000531658 0.000208716)
(0.000209611 0.000567186 0.000181163)
(0.000152761 0.000576495 0.000149455)
(8.24286e-05 0.000548631 0.00011941)
(7.32361e-06 0.000475321 9.4417e-05)
(-5.76764e-05 0.000356159 7.86819e-05)
(-9.76643e-05 0.000212436 8.18087e-05)
(-0.000111029 7.85831e-05 0.000101022)
(-0.00010942 -2.42584e-05 0.000125004)
(-0.000103861 -9.49773e-05 0.000151006)
(-0.000100296 -0.000139843 0.000177838)
(-0.000102476 -0.000167082 0.000201148)
(-0.000114788 -0.000184376 0.000213487)
(-0.000142735 -0.000199327 0.000208822)
(-0.000191629 -0.000220473 0.000194169)
(-0.000247341 -0.000254022 0.000193873)
(-0.000290643 -0.000301451 0.000202652)
(-0.000313525 -0.000357451 0.00019764)
(-0.000312607 -0.00041193 0.000175211)
(-0.000288262 -0.000453072 0.000140306)
(-0.000242652 -0.000468169 9.97084e-05)
(-0.000180231 -0.000444791 5.90369e-05)
(-0.000109572 -0.000373891 2.27512e-05)
(-4.55294e-05 -0.000254989 -1.98119e-06)
(-0.00036525 -9.91457e-05 -0.000301625)
(-0.000293014 0.000140893 -0.00026584)
(-0.000204424 0.000334827 -0.00018129)
(-0.000105442 0.00048229 -6.24137e-05)
(-1.18598e-06 0.000598114 8.60961e-05)
(0.000100399 0.000699547 0.000263771)
(0.000189164 0.000799032 0.000466909)
(0.000256586 0.000899649 0.000677688)
(0.000303189 0.00099266 0.000849914)
(0.000328307 0.00106611 0.000902754)
(0.000321025 0.00111073 0.000813357)
(0.000295182 0.001127 0.000656687)
(0.000269855 0.00112036 0.000483833)
(0.00024995 0.00108961 0.000317532)
(0.000233353 0.0010273 0.000166248)
(0.000215013 0.000921354 3.32653e-05)
(0.000188946 0.0007595 -7.56319e-05)
(0.000147798 0.000540298 -0.000145002)
(8.99995e-05 0.000290526 -0.000153847)
(2.07365e-05 5.30203e-05 -0.000104231)
(-5.16972e-05 -0.000141463 -2.21607e-05)
(-0.000120104 -0.000291151 7.56552e-05)
(-0.000181656 -0.000407916 0.000186641)
(-0.000234451 -0.000506928 0.000316209)
(-0.000276667 -0.000600933 0.000469811)
(-0.000308169 -0.000695644 0.000640941)
(-0.000336206 -0.000785342 0.000794437)
(-0.000362707 -0.000859072 0.000854022)
(-0.000376027 -0.000906663 0.000782857)
(-0.00038122 -0.000927317 0.000638353)
(-0.000392728 -0.000925979 0.000465868)
(-0.000411579 -0.000900702 0.000288802)
(-0.000431667 -0.000842817 0.000118591)
(-0.00044437 -0.000738897 -3.82151e-05)
(-0.000441623 -0.000575804 -0.000173258)
(-0.000415821 -0.000352697 -0.00026918)
(-0.000204195 -0.000139889 -0.000155327)
(-0.000148383 8.68234e-05 -0.000110461)
(-9.30787e-05 0.000265951 -3.26921e-05)
(-3.45098e-05 0.000399794 6.70995e-05)
(2.87377e-05 0.000498689 0.000183892)
(9.46684e-05 0.000576646 0.000312389)
(0.000159825 0.000645599 0.000444055)
(0.000221706 0.000712559 0.000564552)
(0.000279636 0.00077939 0.000652276)
(0.000325661 0.000845364 0.000682075)
(0.000348971 0.000907776 0.00064677)
(0.000345356 0.000960042 0.000565927)
(0.000322093 0.000995029 0.000461635)
(0.000284378 0.0010046 0.000349831)
(0.000234541 0.000977618 0.000240903)
(0.000174024 0.000900974 0.000141651)
(0.000106117 0.000763941 5.8008e-05)
(3.63285e-05 0.000561189 1.58195e-06)
(-2.57211e-05 0.000323206 -7.50235e-07)
(-7.58367e-05 9.99622e-05 4.67974e-05)
(-0.000117527 -7.71894e-05 0.000113698)
(-0.000154141 -0.000210511 0.000190104)
(-0.000188251 -0.000309302 0.00027397)
(-0.000221103 -0.000386278 0.000364557)
(-0.000254087 -0.000452651 0.000459204)
(-0.000290117 -0.000515519 0.000549947)
(-0.00033326 -0.000577354 0.000620122)
(-0.000378883 -0.000638536 0.000644699)
(-0.000415935 -0.000698806 0.00061006)
(-0.000436536 -0.000753267 0.000528623)
(-0.000443077 -0.000793984 0.000418334)
(-0.000436299 -0.000811183 0.000294163)
(-0.000414695 -0.000791692 0.000167296)
(-0.000376936 -0.000720392 4.62974e-05)
(-0.000325008 -0.000585243 -6.04265e-05)
(-0.000264357 -0.000381235 -0.000138283)
(-6.24767e-05 -0.000184823 3.79653e-06)
(-2.23117e-05 2.30939e-05 4.52369e-05)
(2.0095e-06 0.000189268 0.000111768)
(2.28501e-05 0.000309616 0.000191263)
(4.77094e-05 0.000391634 0.000275438)
(8.09352e-05 0.000447322 0.000354134)
(0.000125588 0.00048927 0.000414756)
(0.000183835 0.000529195 0.000447166)
(0.0002559 0.000577375 0.000455148)
(0.000328731 0.000640032 0.00046738)
(0.000380372 0.000715838 0.000480727)
(0.000397347 0.00079618 0.000471121)
(0.0003775 0.000867228 0.000433798)
(0.000324552 0.000913922 0.000376312)
(0.000244571 0.000920505 0.000310244)
(0.000145648 0.000871615 0.000246176)
(4.00071e-05 0.000756268 0.000192966)
(-5.37902e-05 0.000575554 0.000161247)
(-0.000118712 0.000359908 0.000164114)
(-0.000152147 0.000156633 0.000197305)
(-0.000166014 -4.6528e-06 0.000244949)
(-0.000173485 -0.000121104 0.000299076)
(-0.00018248 -0.000200965 0.000355125)
(-0.000197982 -0.000255751 0.000406009)
(-0.000224581 -0.000296514 0.000441469)
(-0.000267025 -0.000333379 0.000452709)
(-0.000328467 -0.000376438 0.000443677)
(-0.00039803 -0.000433989 0.000441407)
(-0.000456087 -0.000507164 0.000440697)
(-0.000488982 -0.000589107 0.000418258)
(-0.000490539 -0.000666183 0.000368229)
(-0.000459802 -0.000721739 0.000296303)
(-0.000399324 -0.000737506 0.00021279)
(-0.000315323 -0.00069578 0.000128458)
(-0.000219284 -0.000584257 5.44417e-05)
(-0.000129287 -0.000403786 6.30099e-06)
(-0.000476567 -0.000174504 -0.000322457)
(-0.000383168 0.000132186 -0.00028969)
(-0.000271075 0.000387619 -0.000186562)
(-0.000146119 0.000588104 -2.85494e-05)
(-1.4616e-05 0.000748459 0.000176357)
(0.000114174 0.000887345 0.000422888)
(0.000229548 0.00101901 0.000700146)
(0.000323104 0.00114906 0.000981341)
(0.000393178 0.00127304 0.00121351)
(0.000441024 0.00137933 0.0013095)
(0.000456157 0.0014531 0.001226)
(0.000433029 0.00148975 0.00103493)
(0.000399063 0.0014934 0.000803953)
(0.000364834 0.0014598 0.000570949)
(0.000331648 0.00137995 0.000355515)
(0.000294969 0.00124103 0.000168067)
(0.000248262 0.00103134 1.90546e-05)
(0.000185217 0.000752848 -7.40257e-05)
(0.000105824 0.000437953 -9.30546e-05)
(1.61009e-05 0.000135769 -4.06112e-05)
(-7.60084e-05 -0.000117354 5.94133e-05)
(-0.000163636 -0.000316626 0.000187981)
(-0.000243074 -0.000474384 0.000339397)
(-0.000311682 -0.000607566 0.000516115)
(-0.000368089 -0.000730843 0.000719517)
(-0.000413718 -0.000852546 0.000937939)
(-0.000454803 -0.000972161 0.00113356)
(-0.00049835 -0.00108027 0.00122851)
(-0.000537653 -0.0011608 0.00116648)
(-0.000554979 -0.00120569 0.000990786)
(-0.000569645 -0.00121832 0.000759876)
(-0.000586187 -0.00119356 0.000511932)
(-0.00060072 -0.0011209 0.000269898)
(-0.000604531 -0.000985988 4.8417e-05)
(-0.000588668 -0.000776272 -0.000138376)
(-0.000546238 -0.000494219 -0.000269786)
(-0.000309315 -0.000217537 -0.000139301)
(-0.000229519 6.73324e-05 -9.28948e-05)
(-0.000148105 0.000300432 6.21922e-06)
(-6.16782e-05 0.000481199 0.000142645)
(3.02004e-05 0.000620886 0.000307309)
(0.00012417 0.000735095 0.000490735)
(0.000215205 0.000837408 0.000679139)
(0.000299248 0.000936063 0.000851905)
(0.000374512 0.00103339 0.000981034)
(0.000435448 0.00112667 0.0010344)
(0.000470791 0.001212 0.000999221)
(0.000470301 0.00128269 0.000895955)
(0.000442262 0.00132824 0.000753171)
(0.000394349 0.00133825 0.000594728)
(0.000330682 0.00129966 0.000438103)
(0.00025351 0.00119793 0.000295927)
(0.000166421 0.0010216 0.000179519)
(7.5691e-05 0.000768676 0.000105743)
(-8.91314e-06 0.000474961 9.68831e-05)
(-8.22333e-05 0.000195389 0.000148054)
(-0.000146428 -3.37053e-05 0.000232444)
(-0.000204849 -0.000211646 0.000335625)
(-0.000259636 -0.000348823 0.000452278)
(-0.000311351 -0.000459775 0.000579201)
(-0.000360616 -0.000557558 0.000710823)
(-0.00040975 -0.000650736 0.000835466)
(-0.000462972 -0.00074264 0.000932661)
(-0.000520289 -0.000831442 0.00097264)
(-0.0005716 -0.000915691 0.000935539)
(-0.000601888 -0.000990788 0.000830349)
(-0.000612526 -0.00104503 0.000678622)
(-0.000605139 -0.00106578 0.000502277)
(-0.000578858 -0.0010375 0.000319694)
(-0.000532399 -0.000943207 0.00014599)
(-0.000467565 -0.000769918 -3.95878e-06)
(-0.000390155 -0.000515774 -0.00010886)
(-0.000153516 -0.000264165 5.52315e-05)
(-8.82554e-05 -6.20569e-06 0.000105464)
(-3.68929e-05 0.000206247 0.000195416)
(1.21421e-05 0.000367448 0.000308596)
(6.55286e-05 0.000485757 0.000432118)
(0.000126071 0.000574728 0.000551803)
(0.000194473 0.000648199 0.000651415)
(0.000270493 0.000717924 0.000716989)
(0.00035216 0.000793211 0.000747053)
(0.00043336 0.000880972 0.000764882)
(0.000490527 0.000979076 0.00077357)
(0.000509544 0.00107768 0.000753439)
(0.000487113 0.0011612 0.000697326)
(0.000426408 0.00121261 0.000613338)
(0.000333809 0.00121386 0.000516203)
(0.000218324 0.00114744 0.000421321)
(9.343e-05 0.00100138 0.000343279)
(-2.16485e-05 0.000778885 0.000297595)
(-0.000109616 0.000515259 0.000297475)
(-0.000166955 0.000263333 0.000337855)
(-0.000204316 5.69943e-05 0.000402029)
(-0.000234554 -9.90801e-05 0.000478601)
(-0.000265529 -0.000213948 0.000559841)
(-0.000301416 -0.000300784 0.000636324)
(-0.000344982 -0.000372054 0.000695806)
(-0.000399012 -0.000437903 0.000726843)
(-0.000465002 -0.000507092 0.000728212)
(-0.000541988 -0.000588626 0.000721456)
(-0.000607221 -0.000683601 0.000708734)
(-0.000646225 -0.000784656 0.000670065)
(-0.000651352 -0.000876315 0.000595225)
(-0.000620135 -0.000939454 0.000489609)
(-0.000554373 -0.000952796 0.00036648)
(-0.000460349 -0.000895769 0.000241868)
(-0.000350182 -0.000754615 0.000133744)
(-0.00024221 -0.000532152 6.42655e-05)
(-0.000585182 -0.000272969 -0.000249163)
(-0.000472898 7.58293e-05 -0.000230138)
(-0.000339099 0.000376996 -0.000124771)
(-0.000190225 0.00062329 5.42009e-05)
(-3.37509e-05 0.000826779 0.000296856)
(0.000120421 0.00100495 0.000592957)
(0.000261433 0.00117235 0.000924821)
(0.000380529 0.00133635 0.00125908)
(0.000473796 0.00149574 0.00153941)
(0.000543729 0.00163903 0.00168155)
(0.00058088 0.00174505 0.00162877)
(0.000563031 0.00180291 0.00142917)
(0.000522934 0.00181713 0.00116242)
(0.000475033 0.00178144 0.000880823)
(0.000424566 0.00168652 0.000615881)
(0.000369235 0.00152124 0.000386321)
(0.000303286 0.00127771 0.000206837)
(0.000221205 0.000962715 9.40321e-05)
(0.000122784 0.000610046 6.08717e-05)
(1.37628e-05 0.000267779 0.000104565)
(-9.78042e-05 -2.75056e-05 0.00020656)
(-0.000205 -0.000267756 0.000349274)
(-0.000303398 -0.000463175 0.000524824)
(-0.000389869 -0.000630223 0.000731696)
(-0.000463011 -0.00078439 0.000966556)
(-0.000524389 -0.000936235 0.00121399)
(-0.000579078 -0.00108929 0.001436)
(-0.000636554 -0.00123591 0.00156307)
(-0.000694705 -0.00135445 0.00153072)
(-0.000724364 -0.00142749 0.00134861)
(-0.000741667 -0.00145599 0.0010824)
(-0.000753752 -0.00143334 0.000783484)
(-0.000760058 -0.00134888 0.000486294)
(-0.000753785 -0.0011902 0.000214382)
(-0.000726254 -0.000948594 -1.27612e-05)
(-0.000670596 -0.000631059 -0.000173922)
(-0.000423855 -0.000307933 -4.47074e-05)
(-0.000321445 1.31416e-05 -6.70769e-06)
(-0.000213654 0.000286081 9.87235e-05)
(-9.85652e-05 0.000506835 0.000255979)
(2.25889e-05 0.000685824 0.000453441)
(0.000144792 0.000838189 0.000677879)
(0.000261352 0.000977314 0.000910779)
(0.000366706 0.00111136 0.00112641)
(0.000458126 0.00124226 0.00129227)
(0.000532309 0.00136508 0.00137306)
(0.000577675 0.001474 0.00135099)
(0.000580892 0.00156165 0.00124107)
(0.000550208 0.00161541 0.00107506)
(0.000495075 0.00162409 0.000883704)
(0.000421211 0.00157462 0.000691646)
(0.00033175 0.00145324 0.0005176)
(0.000230281 0.00125003 0.000377502)
(0.000122844 0.000967618 0.000289808)
(1.82492e-05 0.000642608 0.000270899)
(-7.79964e-05 0.000328576 0.000315867)
(-0.000166423 6.21574e-05 0.000403738)
(-0.000249383 -0.000152559 0.000519543)
(-0.00032791 -0.000325375 0.000655781)
(-0.000401325 -0.000470846 0.000806618)
(-0.000468876 -0.000602325 0.000963478)
(-0.000531731 -0.000728734 0.00111164)
(-0.000593919 -0.000853488 0.00122838)
(-0.000659001 -0.000972968 0.00128382)
(-0.000719138 -0.00108337 0.00125444)
(-0.000757295 -0.00117866 0.00114022)
(-0.000771918 -0.00124482 0.000962743)
(-0.000764842 -0.00126779 0.000749282)
(-0.000735984 -0.00123164 0.000524978)
(-0.000684425 -0.00112003 0.000311406)
(-0.000611449 -0.000921422 0.000128917)
(-0.000522003 -0.000638232 1.79842e-06)
(-0.000266235 -0.00034588 0.000168966)
(-0.000176285 -5.68478e-05 0.000218569)
(-9.58379e-05 0.000188727 0.000318929)
(-1.51777e-05 0.000383793 0.000452611)
(7.02885e-05 0.000536824 0.000604208)
(0.000160573 0.000661374 0.00075671)
(0.000253293 0.000770462 0.00089089)
(0.000345874 0.000873915 0.00098897)
(0.00043553 0.000978538 0.00104317)
(0.000521772 0.0010904 0.00106803)
(0.00058138 0.00120793 0.00107555)
(0.000601575 0.00132055 0.00105118)
(0.000578854 0.00141149 0.000983954)
(0.000515851 0.00146359 0.000882334)
(0.000418429 0.00145879 0.000763674)
(0.000295118 0.00137956 0.000647383)
(0.000158923 0.00121431 0.000552241)
(2.81516e-05 0.000968203 0.000495877)
(-8.03835e-05 0.00067771 0.000489832)
(-0.000162334 0.000395956 0.000528978)
(-0.00022663 0.000157903 0.000598281)
(-0.000284622 -3.04371e-05 0.000685857)
(-0.000342711 -0.000178228 0.000782425)
(-0.000402912 -0.00029888 0.000877036)
(-0.000465319 -0.000404434 0.000955949)
(-0.000530613 -0.000503344 0.00100525)
(-0.000599874 -0.000601529 0.00101783)
(-0.000678586 -0.000706272 0.00100559)
(-0.000745851 -0.000820369 0.000983037)
(-0.000788545 -0.000936426 0.000933995)
(-0.000798113 -0.00103773 0.000842153)
(-0.000770543 -0.00110439 0.000712573)
(-0.000706164 -0.00111446 0.000560803)
(-0.000610116 -0.00104677 0.000406988)
(-0.000493556 -0.000887552 0.000274003)
(-0.000373541 -0.000641462 0.00018745)
(-0.000696097 -0.000389565 -8.24758e-05)
(-0.000568009 -2.08931e-05 -8.51301e-05)
(-0.000414163 0.000309425 7.43187e-06)
(-0.000242132 0.000591756 0.000187544)
(-6.08659e-05 0.000834533 0.000445418)
(0.000118969 0.00105269 0.000767436)
(0.000286178 0.00125976 0.00113114)
(0.000431342 0.00146343 0.00149945)
(0.000548455 0.0016633 0.00181595)
(0.00063706 0.0018468 0.00200503)
(0.000687435 0.00198712 0.00200017)
(0.000677518 0.00206671 0.00181533)
(0.000634774 0.00209076 0.00153748)
(0.000575987 0.00205376 0.00123049)
(0.000510243 0.00194754 0.000935833)
(0.000438542 0.00176443 0.000679662)
(0.000356747 0.00150189 0.000479838)
(0.000259623 0.00117135 0.000350653)
(0.00014557 0.000804938 0.00030017)
(1.89156e-05 0.000444996 0.000325807)
(-0.000112424 0.000124591 0.000415021)
(-0.000240948 -0.000146061 0.000554094)
(-0.000361202 -0.000374056 0.000734649)
(-0.00046923 -0.000574049 0.000951906)
(-0.000562856 -0.000761256 0.00119863)
(-0.000642661 -0.00094724 0.00145739)
(-0.000712165 -0.00113715 0.00169286)
(-0.00077829 -0.00132435 0.00184786)
(-0.000841966 -0.00148405 0.0018546)
(-0.000883214 -0.00158951 0.00168916)
(-0.000902593 -0.00163539 0.0014142)
(-0.000910043 -0.00161696 0.00108972)
(-0.000908334 -0.00152534 0.000759616)
(-0.000893468 -0.001352 0.000455427)
(-0.000857579 -0.00109375 0.000200843)
(-0.000793045 -0.00076189 1.60788e-05)
(-0.000545157 -0.000406881 0.000129003)
(-0.000423252 -6.86048e-05 0.000150456)
(-0.000290893 0.000229873 0.000247683)
(-0.000148062 0.000481889 0.000408207)
(1.98704e-06 0.000696207 0.000619983)
(0.000152349 0.000886364 0.000867459)
(0.000294567 0.00106421 0.0011288)
(0.000421488 0.00123647 0.00137494)
(0.000529002 0.00140352 0.00157105)
(0.000614165 0.00155856 0.00168155)
(0.000666386 0.00169253 0.00168295)
(0.000674266 0.00179592 0.00158127)
(0.000643523 0.00185641 0.00140916)
(0.000584288 0.00186348 0.00120239)
(0.000503637 0.00180556 0.000991218)
(0.000405766 0.00167128 0.00079926)
(0.000294248 0.00145375 0.000645447)
(0.000174282 0.00115977 0.000547128)
(5.30751e-05 0.000823901 0.000515276)
(-6.42064e-05 0.000494424 0.000545602)
(-0.000176751 0.000205383 0.000623476)
(-0.000285427 -3.67171e-05 0.000736516)
(-0.000389736 -0.000240289 0.000876743)
(-0.000487343 -0.000418824 0.00103644)
(-0.000575672 -0.000584798 0.00120465)
(-0.000654172 -0.00074631 0.00136477)
(-0.000725649 -0.000905734 0.00149374)
(-0.000794481 -0.00105867 0.00156403)
(-0.000857373 -0.00119763 0.00154934)
(-0.000901404 -0.00131298 0.00143998)
(-0.000919741 -0.00139076 0.00125474)
(-0.000913722 -0.00141652 0.00102349)
(-0.00088407 -0.00137552 0.000776144)
(-0.000830435 -0.00125376 0.000539244)
(-0.000753446 -0.0010427 0.000336727)
(-0.00065647 -0.000748592 0.000192953)
(-0.000391328 -0.000426752 0.000347285)
(-0.000279511 -0.000122451 0.000387542)
(-0.000171735 0.000144092 0.000484913)
(-6.03297e-05 0.000365159 0.000624048)
(5.6876e-05 0.000548958 0.000789354)
(0.000176809 0.000708093 0.000962468)
(0.000293978 0.000853514 0.00112206)
(0.000403581 0.000992078 0.00124717)
(0.000502326 0.00112727 0.00132439)
(0.000590944 0.00126252 0.00135909)
(0.00065232 0.00139781 0.00137001)
(0.000674764 0.0015223 0.00134787)
(0.000654157 0.0016185 0.0012789)
(0.000592661 0.00167006 0.00117129)
(0.000495381 0.0016605 0.00104378)
(0.00036983 0.00157392 0.000918134)
(0.000227703 0.00140002 0.000815083)
(8.57353e-05 0.00114527 0.000751807)
(-4.01732e-05 0.000844825 0.000737344)
(-0.000145006 0.000548958 0.000767243)
(-0.000235925 0.00029165 0.000829966)
(-0.000322503 7.94061e-05 0.000915784)
(-0.000409181 -9.67893e-05 0.0010157)
(-0.000495359 -0.000249712 0.00111819)
(-0.000578317 -0.000389842 0.0012085)
(-0.000656522 -0.000523097 0.00127077)
(-0.000730847 -0.000651906 0.00129332)
(-0.000806263 -0.000779609 0.00127933)
(-0.000872961 -0.000911311 0.00125037)
(-0.000918826 -0.00104012 0.00119553)
(-0.000933425 -0.00114901 0.00109606)
(-0.000911541 -0.0012182 0.000955619)
(-0.000852054 -0.0012265 0.000790139)
(-0.000758609 -0.00115376 0.000621717)
(-0.000640662 -0.000987192 0.000475397)
(-0.000513331 -0.000732716 0.000377186)
(-0.000811478 -0.000517437 0.000166565)
(-0.000670653 -0.000147079 0.000137596)
(-0.000498476 0.000197097 0.000205908)
(-0.000303883 0.000504812 0.000369817)
(-9.7679e-05 0.00078125 0.000621593)
(0.000108092 0.00103827 0.000946469)
(0.000301182 0.00128721 0.00131992)
(0.000470849 0.00153432 0.00170447)
(0.000608914 0.00177788 0.00204725)
(0.000711323 0.00200337 0.00228051)
(0.000770139 0.00217975 0.00232844)
(0.000772202 0.00228262 0.00217653)
(0.000730273 0.0023162 0.00191147)
(0.000664443 0.00227942 0.00160307)
(0.000587269 0.00216697 0.00129934)
(0.000503157 0.00197558 0.0010321)
(0.000409902 0.00170816 0.000821319)
(0.000302176 0.00137952 0.000678883)
(0.000176125 0.00101839 0.000609227)
(3.375e-05 0.000659151 0.000610367)
(-0.000117536 0.00032922 0.000675326)
(-0.000269279 3.9275e-05 0.00079536)
(-0.000414476 -0.00021497 0.000963278)
(-0.000547574 -0.000445756 0.00117257)
(-0.00066459 -0.000666876 0.00141368)
(-0.00076385 -0.000889198 0.0016691)
(-0.00084636 -0.00111738 0.00190821)
(-0.000915952 -0.00134502 0.00208355)
(-0.00097812 -0.00154708 0.00212771)
(-0.00102772 -0.00168948 0.00199886)
(-0.00104824 -0.00175562 0.0017409)
(-0.00105233 -0.00174506 0.00141641)
(-0.00104499 -0.00165252 0.00107633)
(-0.0010248 -0.00147459 0.000758372)
(-0.000984735 -0.00121392 0.000489096)
(-0.000915841 -0.000885086 0.000287301)
(-0.000669782 -0.000508454 0.000372592)
(-0.000532487 -0.000168476 0.000372123)
(-0.000378835 0.000142234 0.000449774)
(-0.000210633 0.000415924 0.000598164)
(-3.32335e-05 0.000659679 0.000806694)
(0.000144365 0.000884977 0.00105917)
(0.000311683 0.0011013 0.00133232)
(0.000459642 0.00131285 0.00159594)
(0.000582359 0.00151745 0.00181509)
(0.000676494 0.00170634 0.00195426)
(0.00073451 0.00186631 0.00198426)
(0.000748663 0.00198513 0.00190261)
(0.000720136 0.00205234 0.00174065)
(0.000659477 0.0020591 0.00153628)
(0.000575068 0.00199657 0.00132275)
(0.000472235 0.00185681 0.00112675)
(0.000354617 0.00163658 0.000968491)
(0.000226294 0.00134559 0.000862816)
(9.24051e-05 0.00101485 0.000816345)
(-4.28935e-05 0.000685527 0.000825939)
(-0.000177935 0.000387454 0.00088324)
(-0.000312046 0.000127978 0.000980306)
(-0.000442968 -9.99146e-05 0.00111025)
(-0.000566345 -0.000308156 0.00126454)
(-0.000677298 -0.000507524 0.00143096)
(-0.000772863 -0.000704307 0.00159238)
(-0.00085378 -0.000899028 0.00172683)
(-0.000924223 -0.00108625 0.00180898)
(-0.000986524 -0.0012545 0.00181152)
(-0.00103369 -0.00139083 0.00171864)
(-0.0010545 -0.00148178 0.00154278)
(-0.00104974 -0.00151297 0.00131311)
(-0.00102075 -0.00147186 0.00106175)
(-0.000967581 -0.00134787 0.000818211)
(-0.00089012 -0.00113609 0.000607991)
(-0.000789822 -0.000845627 0.000453656)
(-0.000520238 -0.000501834 0.000583045)
(-0.00039124 -0.000195166 0.000607514)
(-0.000260487 8.11424e-05 0.000690965)
(-0.000122042 0.000319617 0.000822303)
(2.40373e-05 0.000528202 0.000987508)
(0.000171817 0.000718147 0.00116815)
(0.000312908 0.000897792 0.0013419)
(0.000440202 0.00107057 0.00148571)
(0.000549559 0.00123621 0.00158218)
(0.000640606 0.0013947 0.00162983)
(0.000704572 0.00154687 0.00164761)
(0.000730087 0.00168202 0.00163201)
(0.000712909 0.00178314 0.00157005)
(0.000654796 0.00183493 0.0014682)
(0.000560243 0.00182332 0.00134461)
(0.000435754 0.00173503 0.00122144)
(0.000291459 0.00156168 0.00111925)
(0.000142285 0.00131017 0.00105289)
(2.99329e-06 0.00101291 0.00102852)
(-0.000121058 0.000715864 0.00104307)
(-0.000235629 0.000450763 0.00108981)
(-0.000348761 0.000223587 0.00116304)
(-0.000462971 2.53538e-05 0.00125539)
(-0.000575101 -0.000155687 0.00135555)
(-0.000679649 -0.000327932 0.00144834)
(-0.00077259 -0.000494352 0.00151684)
(-0.000853785 -0.000653633 0.00154681)
(-0.000926463 -0.000804847 0.00153575)
(-0.00099279 -0.000953576 0.00150288)
(-0.00104001 -0.00109378 0.00144545)
(-0.00105813 -0.00120985 0.00134759)
(-0.00104149 -0.0012826 0.00120948)
(-0.000987827 -0.00129227 0.00104531)
(-0.000899175 -0.0012205 0.000876881)
(-0.000783026 -0.00105588 0.000728766)
(-0.000652382 -0.000804971 0.000624841)
(-0.000929481 -0.000648224 0.000481691)
(-0.000778284 -0.000289813 0.000425339)