/*--------------------------------*- C++ -*----------------------------------*\
| =========                 |                                                 |
| \\      /  F ield         | OpenFOAM: The Open Source CFD Toolbox           |
|  \\    /   O peration     | Version:  2312                                  |
|   \\  /    A nd           | Website:  www.openfoam.com                      |
|    \\/     M anipulation  |                                                 |
\*---------------------------------------------------------------------------*/
FoamFile
{
    version     2.0;
    format      ascii;
    arch        "LSB;label=32;scalar=64";
    class       volVectorField;
    location    "0.3";
    object      D_0;
}
// * * * * * * * * * * * * * * * * * * * * * * * * * * * * * * * * * * * * * //

dimensions      [0 1 0 0 0 0 0];

internalField   nonuniform List<vector> 
1620
(
(-0.000102788 -1.59493e-05 -7.13375e-05)
(-8.07827e-05 3.02782e-05 -6.05614e-05)
(-5.08852e-05 6.87324e-05 -4.30255e-05)
(-1.78762e-05 0.000101054 -2.1207e-05)
(1.57174e-05 0.000131042 5.10911e-06)
(4.67376e-05 0.000162736 3.70355e-05)
(7.02629e-05 0.000198612 7.60086e-05)
(8.03359e-05 0.000237087 0.00012171)
(7.78255e-05 0.000268979 0.000163218)
(6.38033e-05 0.000286623 0.00016494)
(4.23031e-05 0.000286885 0.000131115)
(2.65067e-05 0.00027445 9.40992e-05)
(2.09016e-05 0.000256897 6.08403e-05)
(2.26243e-05 0.000237065 3.1548e-05)
(2.84424e-05 0.000214294 5.66786e-06)
(3.59895e-05 0.000186294 -1.72429e-05)
(4.28657e-05 0.000150528 -3.70886e-05)
(4.37736e-05 0.000105799 -5.10985e-05)
(3.28134e-05 5.50725e-05 -5.10733e-05)
(1.1388e-05 6.92111e-06 -3.78611e-05)
(-1.28758e-05 -3.46976e-05 -2.09129e-05)
(-3.53789e-05 -6.98918e-05 -2.92114e-06)
(-5.52017e-05 -0.000100706 1.67611e-05)
(-7.18938e-05 -0.000130491 4.01896e-05)
(-8.34551e-05 -0.000162572 7.05469e-05)
(-8.59946e-05 -0.000197357 0.000110265)
(-8.17886e-05 -0.00022713 0.000151013)
(-7.01876e-05 -0.000244499 0.000155816)
(-5.35246e-05 -0.000245298 0.000127288)
(-4.41607e-05 -0.000233686 9.36268e-05)
(-4.61729e-05 -0.000216538 6.10309e-05)
(-5.68125e-05 -0.000196839 3.02695e-05)
(-7.22711e-05 -0.000174217 1.47368e-06)
(-8.9103e-05 -0.000146404 -2.52112e-05)
(-0.000103845 -0.000110624 -4.91909e-05)
(-0.00011054 -6.57101e-05 -6.73823e-05)
(-2.84824e-05 -2.42332e-05 -3.4946e-05)
(-1.74913e-05 2.39562e-05 -2.11722e-05)
(-6.66396e-06 6.07021e-05 -8.11738e-06)
(4.59644e-06 8.79249e-05 6.5719e-06)
(1.66726e-05 0.000107449 2.34254e-05)
(2.89482e-05 0.000122237 4.16988e-05)
(4.04393e-05 0.000134632 6.01995e-05)
(5.07908e-05 0.000146016 7.71842e-05)
(6.13415e-05 0.000157889 8.93886e-05)
(6.76347e-05 0.000171645 9.10235e-05)
(6.84236e-05 0.000185917 8.31407e-05)
(6.37288e-05 0.000197651 7.03443e-05)
(5.65243e-05 0.0002053 5.5346e-05)
(4.75001e-05 0.00020755 3.97881e-05)
(3.64588e-05 0.000202217 2.49293e-05)
(2.32747e-05 0.000186462 1.15471e-05)
(8.686e-06 0.000158326 -8.43548e-07)
(-6.40925e-06 0.00011463 -1.40032e-05)
(-1.90104e-05 6.08273e-05 -1.29766e-05)
(-2.80835e-05 1.26198e-05 9.18422e-07)
(-3.52652e-05 -2.46431e-05 1.18236e-05)
(-4.1049e-05 -5.26779e-05 2.25853e-05)
(-4.61911e-05 -7.28442e-05 3.43651e-05)
(-5.09736e-05 -8.7673e-05 4.71734e-05)
(-5.56432e-05 -9.93217e-05 6.07921e-05)
(-6.10827e-05 -0.000109205 7.44762e-05)
(-6.95755e-05 -0.000119102 8.52644e-05)
(-7.68581e-05 -0.000130683 8.65239e-05)
(-8.09652e-05 -0.000143528 7.88209e-05)
(-8.16881e-05 -0.000155072 6.59264e-05)
(-8.09302e-05 -0.000163524 5.00128e-05)
(-7.85438e-05 -0.000167185 3.26339e-05)
(-7.359e-05 -0.000163442 1.51441e-05)
(-6.53513e-05 -0.000149008 -1.46012e-06)
(-5.42183e-05 -0.000121564 -1.72999e-05)
(-4.10608e-05 -7.80545e-05 -3.37843e-05)
(1.84361e-05 -3.59494e-05 7.45834e-06)
(1.94175e-05 1.12445e-05 1.38663e-05)
(1.33303e-05 4.55726e-05 2.08259e-05)
(6.26344e-06 6.62789e-05 2.81918e-05)
(1.3718e-06 7.55662e-05 3.57583e-05)
(5.12261e-07 7.70068e-05 4.16775e-05)
(5.63855e-06 7.44191e-05 4.29519e-05)
(1.92614e-05 7.19927e-05 3.7218e-05)
(4.41964e-05 7.45636e-05 2.74064e-05)
(7.50744e-05 8.50225e-05 2.79883e-05)
(9.60834e-05 0.000104106 4.00036e-05)
(0.000103696 0.000128732 4.64394e-05)
(9.90705e-05 0.000153447 4.612e-05)
(8.43061e-05 0.000173298 4.20145e-05)
(6.13249e-05 0.000183668 3.70135e-05)
(3.21899e-05 0.000180043 3.28974e-05)
(5.17176e-07 0.000158934 2.99428e-05)
(-2.63053e-05 0.000119466 2.78072e-05)
(-3.98236e-05 7.03641e-05 2.93597e-05)
(-3.95701e-05 2.53073e-05 3.36722e-05)
(-3.29491e-05 -6.91515e-06 3.7213e-05)
(-2.57332e-05 -2.63557e-05 4.09008e-05)
(-2.0432e-05 -3.56346e-05 4.51662e-05)
(-1.83579e-05 -3.80609e-05 4.84687e-05)
(-2.14428e-05 -3.66049e-05 4.7828e-05)
(-3.28678e-05 -3.4531e-05 4.05363e-05)
(-5.60744e-05 -3.64505e-05 2.89683e-05)
(-8.60199e-05 -4.59151e-05 2.71027e-05)
(-0.000107588 -6.45292e-05 3.64508e-05)
(-0.00011822 -8.94902e-05 4.05739e-05)
(-0.000117593 -0.000115603 3.82599e-05)
(-0.000106341 -0.000137531 3.21272e-05)
(-8.55312e-05 -0.000149937 2.47245e-05)
(-5.70611e-05 -0.00014766 1.76547e-05)
(-2.48502e-05 -0.000126905 1.13543e-05)
(3.31928e-06 -8.68531e-05 6.4125e-06)
(-0.000240557 -5.17425e-05 -0.00019815)
(-0.000191982 9.45632e-05 -0.000171563)
(-0.000130508 0.00021176 -0.000119923)
(-6.23881e-05 0.000301076 -5.25633e-05)
(8.55083e-06 0.000372819 2.88133e-05)
(7.67542e-05 0.000438699 0.000125924)
(0.000134188 0.000507001 0.000239929)
(0.000172901 0.000578409 0.000363742)
(0.000194451 0.000641935 0.000466305)
(0.000198892 0.000686208 0.000484364)
(0.000179649 0.000705876 0.000415486)
(0.000156841 0.000705107 0.000318724)
(0.000141834 0.000691151 0.000221494)
(0.000134518 0.000665205 0.000131999)
(0.000131354 0.000622722 5.14105e-05)
(0.000128545 0.000555668 -2.0586e-05)
(0.000121874 0.000455655 -8.18568e-05)
(0.000103884 0.00032066 -0.000122591)
(6.98515e-05 0.000166532 -0.000125362)
(2.31586e-05 2.04298e-05 -9.16023e-05)
(-2.71057e-05 -9.91158e-05 -4.19637e-05)
(-7.40832e-05 -0.000191755 1.32994e-05)
(-0.000116026 -0.000265129 7.40486e-05)
(-0.000152011 -0.000329326 0.000145416)
(-0.000179892 -0.000393236 0.000233799)
(-0.000197112 -0.000460078 0.000338824)
(-0.00020973 -0.000520984 0.000435336)
(-0.000217441 -0.000564936 0.000460703)
(-0.000211073 -0.000585852 0.000404121)
(-0.000207082 -0.00058741 0.000315178)
(-0.000214229 -0.000576041 0.000218565)
(-0.000230715 -0.000552639 0.00012326)
(-0.000250782 -0.000512206 3.22979e-05)
(-0.000268222 -0.00044597 -5.26954e-05)
(-0.000277119 -0.000344922 -0.00012802)
(-0.000269532 -0.00020741 -0.000182835)
(-0.000111227 -7.82496e-05 -0.000104267)
(-7.90365e-05 6.40585e-05 -7.24873e-05)
(-4.75072e-05 0.000174403 -2.83346e-05)
(-1.41672e-05 0.000255448 2.47628e-05)
(2.2183e-05 0.000314052 8.5518e-05)
(6.03893e-05 0.000359558 0.000151808)
(9.83356e-05 0.000399693 0.000219788)
(0.000134945 0.000438825 0.0002824)
(0.000171088 0.000478239 0.000327289)
(0.000199114 0.000518235 0.000338843)
(0.00021045 0.000556553 0.00031556)
(0.000205258 0.000587991 0.000270467)
(0.000189342 0.000608893 0.000215334)
(0.000165466 0.000614766 0.000157684)
(0.000134376 0.000598571 0.000102092)
(9.66562e-05 0.000551563 5.12195e-05)
(5.45265e-05 0.000466591 6.60753e-06)
(1.138e-05 0.000338541 -2.7881e-05)
(-2.56354e-05 0.000186403 -2.74161e-05)
(-5.38614e-05 4.55059e-05 5.22232e-06)
(-7.66531e-05 -6.44201e-05 4.29558e-05)
(-9.60539e-05 -0.000146042 8.3301e-05)
(-0.000113979 -0.000205312 0.000126836)
(-0.000131434 -0.000250545 0.000173927)
(-0.00014955 -0.00028895 0.00022387)
(-0.000170806 -0.000324965 0.00027297)
(-0.000199019 -0.000360352 0.000310989)
(-0.000227862 -0.000396408 0.000321467)
(-0.000248002 -0.000432751 0.00029934)
(-0.000257921 -0.000465048 0.000254281)
(-0.000260377 -0.000489105 0.000196184)
(-0.000255463 -0.00049943 0.000132194)
(-0.000241625 -0.000487762 6.7302e-05)
(-0.000217749 -0.000444109 5.06742e-06)
(-0.000185224 -0.000360438 -5.16294e-05)
(-0.000147472 -0.000231864 -9.72904e-05)
(-7.16483e-06 -0.000108769 3.05102e-07)
(1.05281e-05 2.49301e-05 2.40849e-05)
(1.52084e-05 0.000129149 5.77512e-05)
(1.73195e-05 0.000201561 9.59948e-05)
(2.28304e-05 0.000247547 0.00013567)
(3.53455e-05 0.000275452 0.000171211)
(5.82031e-05 0.000293955 0.000194608)
(9.48021e-05 0.00031161 0.000199743)
(0.000148503 0.000336557 0.000193189)
(0.000205186 0.000373157 0.000200075)
(0.000243978 0.000421202 0.000216354)
(0.000256526 0.000474722 0.000218574)
(0.000242679 0.00052373 0.000203447)
(0.000206101 0.000557796 0.00017679)
(0.000151138 0.000566264 0.000146069)
(8.3042e-05 0.000538578 0.000116908)
(1.0217e-05 0.000466775 9.25771e-05)
(-5.29668e-05 0.000350499 7.71469e-05)
(-9.20855e-05 0.000210339 7.99355e-05)
(-0.000105574 7.96305e-05 9.8324e-05)
(-0.00010471 -2.11546e-05 0.000121394)
(-0.000100124 -9.09184e-05 0.000146503)
(-9.74952e-05 -0.000135716 0.00017251)
(-0.000100374 -0.000163482 0.000195192)
(-0.000112948 -0.000181591 0.000207317)
(-0.000140517 -0.00019732 0.00020302)
(-0.000188237 -0.000218854 0.000189057)
(-0.000242491 -0.000252148 0.000188939)
(-0.000284702 -0.000298585 0.00019756)
(-0.000307124 -0.000353006 0.000192819)
(-0.000306471 -0.000405668 0.000171203)
(-0.000283106 -0.000445182 0.000137487)
(-0.000239119 -0.000459312 9.82323e-05)
(-0.000178796 -0.000436078 5.88787e-05)
(-0.000110397 -0.000366759 2.37383e-05)
(-4.82663e-05 -0.00025091 -2.72236e-07)
(-0.000361346 -0.00010422 -0.000292907)
(-0.000289777 0.000129084 -0.000257574)
(-0.0002016 0.000318483 -0.000174638)
(-0.000103105 0.000463657 -5.83898e-05)
(3.07379e-07 0.000578856 8.64323e-05)
(0.000100636 0.000680582 0.000259313)
(0.0001879 0.000780602 0.000456686)
(0.000253835 0.000881556 0.000661322)
(0.00029903 0.000974623 0.00082853)
(0.000323024 0.00104789 0.000880099)
(0.000315573 0.00109224 0.000793864)
(0.000290204 0.00110817 0.000642138)
(0.000265538 0.00110121 0.000474284)
(0.000246441 0.00107046 0.000312382)
(0.000230861 0.00100893 0.000164746)
(0.000213777 0.000905122 3.47244e-05)
(0.000189137 0.000747284 -7.18496e-05)
(0.000149455 0.000534088 -0.00013981)
(9.28705e-05 0.000291306 -0.000148751)
(2.43369e-05 6.00684e-05 -0.000100698)
(-4.78314e-05 -0.000130045 -2.08688e-05)
(-0.000116273 -0.000277298 7.44335e-05)
(-0.000177924 -0.00039309 0.000182621)
(-0.000230714 -0.00049198 0.000308896)
(-0.000272738 -0.000586142 0.000458503)
(-0.000303821 -0.000680885 0.000625077)
(-0.000331016 -0.000770404 0.000774487)
(-0.000356367 -0.000843789 0.000832818)
(-0.000368873 -0.000890976 0.000764341)
(-0.000373563 -0.000911159 0.000624405)
(-0.000384615 -0.000909322 0.000456792)
(-0.000403205 -0.000883889 0.000284205)
(-0.00042346 -0.000826779 0.000117856)
(-0.00043688 -0.000725224 -3.56536e-05)
(-0.000435296 -0.000566629 -0.000167845)
(-0.000410826 -0.000350177 -0.000261512)
(-0.000204393 -0.000142258 -0.000149272)
(-0.000149196 7.85611e-05 -0.000105657)
(-9.3979e-05 0.000253806 -3.00023e-05)
(-3.53532e-05 0.000385693 6.70498e-05)
(2.77804e-05 0.000484157 0.000180562)
(9.32726e-05 0.000562628 0.000305375)
(0.000157645 0.000632457 0.000433229)
(0.000218434 0.000700181 0.000550254)
(0.000275018 0.000767338 0.000635536)
(0.000319811 0.000833002 0.000664709)
(0.000342445 0.000894459 0.000630751)
(0.000338966 0.000945372 0.000552512)
(0.000316504 0.000978961 0.000451333)
(0.000280149 0.000987509 0.00034266)
(0.000232154 0.000960379 0.000236601)
(0.000173837 0.000885013 0.000139821)
(0.000108234 0.00075111 5.81609e-05)
(4.04986e-05 0.000553568 2.94998e-06)
(-2.02244e-05 0.00032182 2.76035e-07)
(-6.99069e-05 0.000104091 4.61149e-05)
(-0.000111809 -6.93383e-05 0.000110916)
(-0.000148959 -0.000200631 0.000185118)
(-0.000183634 -0.000298741 0.000266706)
(-0.000216864 -0.0003759 0.000354929)
(-0.000249881 -0.000442839 0.000447165)
(-0.000285467 -0.000506254 0.000535649)
(-0.000327603 -0.000568325 0.000604186)
(-0.000371935 -0.000629217 0.000628492)
(-0.000407861 -0.000688555 0.000595294)
(-0.000427847 -0.000741586 0.000516528)
(-0.000434297 -0.000780729 0.000409523)
(-0.000428021 -0.000796699 0.000288789)
(-0.000407578 -0.00077694 0.000165228)
(-0.000371591 -0.000706977 4.72632e-05)
(-0.000321776 -0.000575242 -5.67909e-05)
(-0.000263144 -0.000376886 -0.00013264)
(-6.6444e-05 -0.000184364 6.7928e-06)
(-2.67879e-05 1.8632e-05 4.65605e-05)
(-2.20155e-06 0.000181492 0.000110635)
(1.92554e-05 0.000300209 0.000187343)
(4.4737e-05 0.000382005 0.000268692)
(7.83107e-05 0.000438423 0.000344849)
(0.000122815 0.000481517 0.000403609)
(0.000180271 0.000522457 0.000435143)
(0.000250875 0.000571033 0.000443084)
(0.000322016 0.000633155 0.000455131)
(0.000372489 0.000707486 0.000468227)
(0.000389286 0.00078568 0.000459059)
(0.000370333 0.000854384 0.000423006)
(0.000319244 0.000899084 0.000367364)
(0.000241887 0.000904609 0.00030334)
(0.000146056 0.000856163 0.000241176)
(4.35339e-05 0.000743162 0.000189436)
(-4.77367e-05 0.000566702 0.000158395)
(-0.000111264 0.000356234 0.000160738)
(-0.00014451 0.000157564 0.000192452)
(-0.000159013 -5.9052e-07 0.000238276)
(-0.000167482 -0.00011544 0.000290553)
(-0.000177475 -0.000194958 0.000344877)
(-0.000193685 -0.000250258 0.000394353)
(-0.000220458 -0.000291954 0.000429)
(-0.00026235 -0.000329719 0.000440256)
(-0.000322455 -0.000373182 0.000431893)
(-0.000390305 -0.000430262 0.000430015)
(-0.000446956 -0.000501986 0.000429585)
(-0.000479198 -0.000581699 0.000408066)
(-0.000481046 -0.000656232 0.000359788)
(-0.000451581 -0.000709541 0.000290257)
(-0.000393267 -0.000724048 0.000209468)
(-0.000312072 -0.000682711 0.000127854)
(-0.000219043 -0.000573669 5.61867e-05)
(-0.00013164 -0.000397751 9.47958e-06)
(-0.000472004 -0.000179873 -0.000313413)
(-0.000379493 0.000118776 -0.000280787)
(-0.000267959 0.000368577 -0.000179433)
(-0.000143617 0.000565977 -2.47365e-05)
(-1.31018e-05 0.00072523 0.0001753)
(0.00011425 0.000864213 0.000415464)
(0.000227874 0.00099643 0.000685188)
(0.000319607 0.00112691 0.000958522)
(0.000387927 0.00125091 0.00118413)
(0.000434242 0.00135674 0.00127758)
(0.000448673 0.00142979 0.00119692)
(0.000426097 0.00146567 0.0010116)
(0.000393195 0.00146868 0.000787043)
(0.000360312 0.00143503 0.000560039)
(0.0003287 0.00135628 0.000349706)
(0.000293827 0.00122016 0.000166351)
(0.000249086 0.00101549 2.03848e-05)
(0.000187975 0.000744197 -7.09572e-05)
(0.000110133 0.000437549 -8.99699e-05)
(2.13185e-05 0.000142827 -3.91442e-05)
(-7.04795e-05 -0.000104931 5.82951e-05)
(-0.000158152 -0.000301061 0.000183746)
(-0.000237708 -0.000457416 0.000331564)
(-0.000306316 -0.000590272 0.000504051)
(-0.000362499 -0.00071366 0.00070248)
(-0.000407604 -0.00083541 0.000915448)
(-0.000447736 -0.000954719 0.00110615)
(-0.00048987 -0.0010621 0.001199)
(-0.000527735 -0.00114169 0.00113935)
(-0.000544401 -0.00118562 0.000968952)
(-0.000558732 -0.00119738 0.000744298)
(-0.000575291 -0.00117239 0.000502453)
(-0.000590335 -0.00110077 0.000265843)
(-0.000595254 -0.000968911 4.89922e-05)
(-0.000580978 -0.000764731 -0.00013392)
(-0.000540272 -0.000490612 -0.000262346)
(-0.000308416 -0.000219892 -0.000133043)
(-0.000229615 5.79866e-05 -8.78736e-05)
(-0.000148642 0.000286301 8.63933e-06)
(-6.25044e-05 0.000464465 0.000141443)
(2.89098e-05 0.0006033 0.000301632)
(0.000122087 0.000717773 0.000479966)
(0.000211995 0.000820812 0.000663073)
(0.000294652 0.000920103 0.000830974)
(0.000368357 0.00101759 0.000956535)
(0.000427853 0.00111035 0.00100861)
(0.000462327 0.00119446 0.000974764)
(0.000461998 0.00126346 0.000874687)
(0.000434985 0.00130735 0.00073602)
(0.000388782 0.00131623 0.000581897)
(0.000327372 0.00127765 0.000429317)
(0.000252842 0.00117766 0.000290619)
(0.000168504 0.00100522 0.000176898)
(8.0248e-05 0.000758473 0.000104604)
(-2.62586e-06 0.00047203 9.54195e-05)
(-7.51572e-05 0.000198974 0.000144707)
(-0.000139298 -2.55462e-05 0.000226519)
(-0.000198045 -0.000200834 0.000326847)
(-0.000253214 -0.000336905 0.00044048)
(-0.000305132 -0.000447759 0.000564248)
(-0.000354266 -0.000545904 0.000692674)
(-0.000402826 -0.000639433 0.000814353)
(-0.00045496 -0.000731328 0.000909355)
(-0.000510827 -0.000819579 0.000948762)
(-0.000560757 -0.000902608 0.000913221)
(-0.000590299 -0.000975914 0.000811338)
(-0.00060087 -0.00102827 0.000663963)
(-0.000594129 -0.00104766 0.000492373)
(-0.000569244 -0.00101923 0.000314484)
(-0.000524859 -0.000926729 0.000145113)
(-0.00046249 -0.000757669 -1.10941e-06)
(-0.000387466 -0.000510247 -0.00010336)
(-0.000156262 -0.000263393 5.83695e-05)
(-9.19965e-05 -1.12624e-05 0.000106562)
(-4.08819e-05 0.000197167 0.000193255)
(8.24875e-06 0.000356233 0.000302568)
(6.17469e-05 0.000473972 0.000422045)
(0.000122166 0.000563421 0.000537941)
(0.000190043 0.000637823 0.000634507)
(0.000265055 0.000708356 0.000698199)
(0.000345273 0.000783837 0.000727575)
(0.000424769 0.000870817 0.000745114)
(0.000480775 0.000967162 0.000753758)
(0.00049965 0.00106332 0.000734414)
(0.000478231 0.00114421 0.00068014)
(0.000419615 0.00119343 0.000598776)
(0.000329971 0.00119362 0.000504583)
(0.00021797 0.0011279 0.000412483)
(9.66092e-05 0.000984723 0.000336585)
(-1.55143e-05 0.000767263 0.000291881)
(-0.000101636 0.000509694 0.000291163)
(-0.000158336 0.000263209 0.000329681)
(-0.000195921 6.07106e-05 0.000391425)
(-0.000226792 -9.32197e-05 0.000465449)
(-0.000258429 -0.000207345 0.000544268)
(-0.000294719 -0.000294391 0.000618693)
(-0.000338215 -0.000366327 0.00067678)
(-0.00039157 -0.000432825 0.000707369)
(-0.000456296 -0.000502197 0.000709215)
(-0.000531519 -0.000583025 0.00070311)
(-0.000595288 -0.000676284 0.000691107)
(-0.000633586 -0.000774804 0.000653876)
(-0.000638991 -0.000863611 0.000581547)
(-0.000609116 -0.000924268 0.000479358)
(-0.000545692 -0.000936298 0.000360179)
(-0.000454737 -0.000879905 0.000239552)
(-0.000347904 -0.000741832 0.000134853)
(-0.000242904 -0.000524809 6.74523e-05)
(-0.000579973 -0.000277627 -0.000242691)
(-0.000468749 6.27544e-05 -0.000223188)
(-0.000335722 0.000357762 -0.000119262)
(-0.000187683 0.000600376 5.62881e-05)
(-3.24042e-05 0.000802201 0.000293526)
(0.00012013 0.000980006 0.000582375)
(0.000259174 0.0011476 0.000905635)
(0.000376201 0.00131173 0.00123092)
(0.000467505 0.00147077 0.00150355)
(0.000535661 0.0016131 0.00164181)
(0.000571745 0.0017179 0.0015907)
(0.000554573 0.00177464 0.00139674)
(0.000515942 0.00178804 0.00113706)
(0.000469926 0.00175237 0.00086243)
(0.000421564 0.00165888 0.000603557)
(0.000368479 0.00149693 0.000378831)
(0.000304825 0.00125897 0.000202823)
(0.000224902 0.000951582 9.19706e-05)
(0.000128202 0.000607426 5.9089e-05)
(2.02446e-05 0.000272923 0.000101515)
(-9.08694e-05 -1.6563e-05 0.000201133)
(-0.000197969 -0.000253187 0.0003407)
(-0.000296343 -0.000446748 0.000512413)
(-0.000382667 -0.000613085 0.000714695)
(-0.00045544 -0.000767043 0.000944212)
(-0.000516167 -0.000918636 0.00118587)
(-0.000569858 -0.00107099 0.00140262)
(-0.000625863 -0.00121631 0.00152685)
(-0.000682338 -0.00133329 0.00149589)
(-0.000711319 -0.00140493 0.00131893)
(-0.000728542 -0.00143232 0.00105955)
(-0.000741049 -0.00140945 0.000767672)
(-0.00074827 -0.00132634 0.000476927)
(-0.000743417 -0.00117118 0.000210548)
(-0.000717677 -0.000935624 -1.2023e-05)
(-0.000663864 -0.00062642 -0.000169654)
(-0.000421376 -0.000309681 -4.07345e-05)
(-0.000320318 4.05134e-06 -3.61706e-06)
(-0.00021341 0.000271748 9.92427e-05)
(-9.90925e-05 0.000489409 0.00025255)
(2.11204e-05 0.000667041 0.000444893)
(0.000142093 0.000819173 0.000663351)
(0.000257163 0.00095855 0.000889924)
(0.000360874 0.00109278 0.00109964)
(0.000450611 0.00122342 0.00126096)
(0.000523271 0.00134538 0.00133967)
(0.000567729 0.00145281 0.00131842)
(0.000571186 0.00153858 0.0012117)
(0.000541724 0.00159061 0.00105025)
(0.000488552 0.00159826 0.000863914)
(0.000417189 0.00154904 0.000676647)
(0.00033058 0.00142975 0.000506715)
(0.000232049 0.00123085 0.000369712)
(0.000127289 0.000954933 0.000283667)
(2.47054e-05 0.000637434 0.000264604)
(-7.03889e-05 0.000330215 0.000307893)
(-0.00015837 6.87871e-05 0.000393227)
(-0.000241262 -0.000142825 0.000506051)
(-0.000319789 -0.000314072 0.000639004)
(-0.000393061 -0.000458981 0.000786333)
(-0.000460207 -0.000590359 0.000939612)
(-0.000522334 -0.000716656 0.00108444)
(-0.000583422 -0.00084094 0.00119866)
(-0.000647076 -0.000959459 0.00125318)
(-0.000705826 -0.00106832 0.00122508)
(-0.000743251 -0.0011616 0.00111426)
(-0.000757901 -0.00122579 0.000941614)
(-0.000751607 -0.00124745 0.000733679)
(-0.000724274 -0.00121138 0.000514969)
(-0.000674884 -0.0011019 0.000306604)
(-0.000604453 -0.00090793 0.000128554)
(-0.00051751 -0.000631804 4.57631e-06)
(-0.000266769 -0.000344614 0.000170186)
(-0.000178302 -6.17563e-05 0.000217759)
(-9.87141e-05 0.000179435 0.000314575)
(-1.86477e-05 0.000371988 0.000443841)
(6.62264e-05 0.000524023 0.000590636)
(0.000155757 0.000648564 0.000738441)
(0.000247488 0.000758063 0.000868581)
(0.000338832 0.000861832 0.000963814)
(0.000427073 0.00096626 0.0010166)
(0.00051171 0.00107708 0.00104096)
(0.000570281 0.00119267 0.00104846)
(0.000590413 0.00130273 0.00102496)
(0.000568745 0.00139105 0.000959836)
(0.000507853 0.00144103 0.000861275)
(0.000413409 0.0014353 0.000746098)
(0.000293633 0.00135697 0.000633119)
(0.00016108 0.00119486 0.000540519)
(3.34863e-05 0.000954048 0.000485336)
(-7.28351e-05 0.000669884 0.000478769)
(-0.000153657 0.000393891 0.00051603)
(-0.000217616 0.000160051 0.000582765)
(-0.00027565 -2.57385e-05 0.000667559)
(-0.000333822 -0.000172333 0.000761401)
(-0.000393913 -0.00029269 0.000853591)
(-0.000455883 -0.000398369 0.000930696)
(-0.000520348 -0.000497401 0.000979134)
(-0.000588427 -0.000595351 0.000991939)
(-0.000665511 -0.00069914 0.000980571)
(-0.000731436 -0.000811364 0.000959011)
(-0.000773465 -0.000924795 0.000911649)
(-0.000783278 -0.00102324 0.000822739)
(-0.000756972 -0.00108747 0.000697222)
(-0.000694842 -0.00109635 0.000550204)
(-0.000601805 -0.00102949 0.000401231)
(-0.000488595 -0.000873636 0.000272417)
(-0.000371701 -0.000633303 0.00018845)
(-0.000690191 -0.000392751 -8.13207e-05)
(-0.000563215 -3.21724e-05 -8.26827e-05)
(-0.000410341 0.000291956 9.18967e-06)
(-0.00023943 0.000570261 0.000186352)
(-5.96559e-05 0.000810819 0.000438949)
(0.000118263 0.00102795 0.000753572)
(0.000283249 0.00123452 0.00110833)
(0.000426105 0.00143764 0.00146714)
(0.000541077 0.00163647 0.00177519)
(0.00062784 0.00181834 0.00195905)
(0.000677179 0.0019569 0.00195417)
(0.000668042 0.00203512 0.00177412)
(0.000627099 0.00205829 0.0015032)
(0.000570664 0.00202146 0.00120343)
(0.000507468 0.00191697 0.000915208)
(0.000438312 0.00173753 0.000664174)
(0.000358933 0.0014807 0.000467996)
(0.00026396 0.00115755 0.000340939)
(0.000151618 0.000799191 0.000291143)
(2.61226e-05 0.000446636 0.000316169)
(-0.000104549 0.00013197 0.000403678)
(-0.000232678 -0.000134828 0.000540121)
(-0.00035257 -0.000360555 0.000717177)
(-0.000460116 -0.000559324 0.000930069)
(-0.00055308 -0.000745758 0.00117164)
(-0.000632034 -0.000930889 0.0014248)
(-0.000700491 -0.00111945 0.00165503)
(-0.00076531 -0.00130466 0.00180656)
(-0.000827598 -0.00146214 0.00181339)
(-0.000868225 -0.00156577 0.00165223)
(-0.000887856 -0.00161042 0.00138384)
(-0.000896175 -0.00159187 0.00106656)
(-0.000895781 -0.00150182 0.000743247)
(-0.000882557 -0.00133222 0.000444966)
(-0.000848483 -0.00108006 0.000195283)
(-0.000785694 -0.000756242 1.4426e-05)
(-0.000540817 -0.000407562 0.000128201)
(-0.000420517 -7.6418e-05 0.000149398)
(-0.00028946 0.000216746 0.000244559)
(-0.000147917 0.000465368 0.000401384)
(6.51341e-07 0.00067783 0.000608009)
(0.000149284 0.000867114 0.000849213)
(0.000289604 0.00104451 0.00110373)
(0.000414609 0.00121624 0.00134331)
(0.000520334 0.00138239 0.00153413)
(0.000603999 0.00153605 0.00164164)
(0.000655421 0.00166821 0.00164301)
(0.000663635 0.00176962 0.00154404)
(0.000634262 0.00182844 0.00137637)
(0.000577144 0.00183468 0.00117475)
(0.000499109 0.00177728 0.000968601)
(0.00040413 0.00164533 0.000780962)
(0.000295546 0.0014322 0.00063036)
(0.000178277 0.00114453 0.000533799)
(5.92231e-05 0.000815841 0.000502114)
(-5.66027e-05 0.000492947 0.000531286)
(-0.000168272 0.000208929 0.000607137)
(-0.000276378 -2.98225e-05 0.000717581)
(-0.000380163 -0.000231403 0.000854761)
(-0.000477137 -0.000408821 0.00101106)
(-0.000564673 -0.000574055 0.00117572)
(-0.000642223 -0.000734783 0.00133246)
(-0.000712592 -0.0008931 0.00145877)
(-0.000780171 -0.00104451 0.00152777)
(-0.000841895 -0.00118155 0.00151381)
(-0.000885314 -0.00129475 0.00140746)
(-0.000903823 -0.00137059 0.00122693)
(-0.000898725 -0.00139522 0.00100134)
(-0.000870663 -0.00135452 0.000759879)
(-0.000819158 -0.00123508 0.000528528)
(-0.00074461 -0.0010287 0.000330768)
(-0.000650057 -0.000741441 0.00019046)
(-0.000389066 -0.000424824 0.000344357)
(-0.000279149 -0.000126615 0.000382952)
(-0.000172819 0.00013547 0.000477009)
(-6.27143e-05 0.000353786 0.000611747)
(5.31478e-05 0.000536161 0.000772032)
(0.000171632 0.000694691 0.000939994)
(0.000287281 0.000839828 0.00109489)
(0.000395356 0.000978024 0.00121638)
(0.000492651 0.00111247 0.00129148)
(0.000579842 0.00124635 0.00132534)
(0.000640336 0.00137954 0.00133606)
(0.00066278 0.00150146 0.00131462)
(0.000643199 0.00159516 0.00124767)
(0.000583705 0.0016448 0.00114315)
(0.000489244 0.00163451 0.00101922)
(0.00036707 0.00154894 0.000897)
(0.000228504 0.00137821 0.000796584)
(8.97857e-05 0.00112863 0.000734599)
(-3.36351e-05 0.000834359 0.000719837)
(-0.000136884 0.000544187 0.000748179)
(-0.000226885 0.000291178 0.000808661)
(-0.000312843 8.17315e-05 0.000891941)
(-0.000398919 -9.28492e-05 0.000989256)
(-0.000484363 -0.000244898 0.00108931)
(-0.000566412 -0.000384471 0.00117765)
(-0.000643547 -0.000517155 0.00123878)
(-0.00071669 -0.000645153 0.0012613)
(-0.000790767 -0.000771586 0.00124822)
(-0.000856327 -0.000901275 0.00122035)
(-0.000901595 -0.00102747 0.00116722)
(-0.000916404 -0.00113363 0.00107073)
(-0.000895646 -0.0012006 0.00093449)
(-0.00083819 -0.00120791 0.000774013)
(-0.000747517 -0.00113613 0.000610756)
(-0.00063274 -0.000972924 0.000468946)
(-0.000508501 -0.000724078 0.000373656)
(-0.000804791 -0.000518663 0.000160148)
(-0.000665025 -0.000155618 0.000133349)
(-0.00049398 0.000182708 0.00020198)
(-0.000300817 0.000486277 0.000363856)
(-9.64644e-05 0.000760003 0.000611073)
(0.000107054 0.00101524 0.000929056)
(0.000297643 0.00126278 0.00129384)
(0.000464809 0.00150839 0.0016689)
(0.000600657 0.00174999 0.00200276)
(0.000701351 0.00197306 0.00222954)
(0.000759367 0.00214709 0.00227565)
(0.000762193 0.00224835 0.0021272)
(0.000722308 0.00228109 0.00186826)
(0.000659177 0.00224466 0.00156666)
(0.000584856 0.00213416 0.00126918)
(0.000503427 0.00194655 0.001007)
(0.000412527 0.00168463 0.000799849)
(0.00030676 0.00136275 0.000659713)
(0.000182271 0.00100876 0.000591255)
(4.10989e-05 0.000656106 0.000592628)
(-0.00010925 0.000331487 0.000656861)
(-0.000260167 4.53814e-05 0.000775192)
(-0.000404497 -0.000206278 0.000940413)
(-0.000536617 -0.000435285 0.00114603)
(-0.000652565 -0.000654924 0.00138261)
(-0.000750742 -0.000875605 0.00163296)
(-0.000832228 -0.00110164 0.00186705)
(-0.000900877 -0.00132656 0.00203847)
(-0.000962193 -0.0015257 0.00208151)
(-0.00101133 -0.00166577 0.00195553)
(-0.00103247 -0.0017306 0.00170316)
(-0.00103783 -0.00171999 0.00138531)
(-0.00103213 -0.00162913 0.00105175)
(-0.0010137 -0.00145491 0.000739579)
(-0.000975338 -0.00119997 0.000475209)
(-0.000907934 -0.000878427 0.000277532)
(-0.000663487 -0.00050778 0.000364895)
(-0.000527922 -0.000174348 0.000364952)
(-0.000375907 0.000131281 0.000441374)
(-0.00020947 0.000401461 0.000586771)
(-3.40903e-05 0.000642929 0.000790642)
(0.00014126 0.00086667 0.0010371)
(0.000306253 0.0010817 0.00130344)
(0.000452017 0.00129184 0.00156026)
(0.000572861 0.00149473 0.00177357)
(0.000665596 0.00168158 0.00190889)
(0.000722971 0.00183937 0.00193785)
(0.000737526 0.00195612 0.00185808)
(0.000710462 0.00202179 0.00169996)
(0.000652003 0.00202793 0.00150034)
(0.000570226 0.00196614 0.00129157)
(0.000470208 0.0018288 0.00109971)
(0.000355384 0.0016128 0.000944553)
(0.000229635 0.00132761 0.000840712)
(9.79135e-05 0.00100335 0.000794836)
(-3.5709e-05 0.000680035 0.000804018)
(-0.000169465 0.000386714 0.00086014)
(-0.000302464 0.000130624 0.000955384)
(-0.000432259 -9.49538e-05 0.00108292)
(-0.000554424 -0.000301522 0.00123432)
(-0.000664114 -0.000499432 0.00139755)
(-0.000758453 -0.000694644 0.00155582)
(-0.000838252 -0.000887498 0.00168761)
(-0.000907693 -0.00107253 0.00176815)
(-0.000969156 -0.00123842 0.00177081)
(-0.00101592 -0.00137246 0.00168018)
(-0.0010371 -0.00146152 0.0015084)
(-0.00103341 -0.00149173 0.00128392)
(-0.00100603 -0.00145108 0.00103816)
(-0.000954879 -0.00132942 0.000800007)
(-0.000879639 -0.00112207 0.000594494)
(-0.000781543 -0.000837865 0.000443776)
(-0.000514988 -0.000499151 0.000573974)
(-0.000388175 -0.000198191 0.000597407)
(-0.000259346 7.38192e-05 0.000678173)
(-0.000122824 0.000309452 0.000805595)
(2.12072e-05 0.000516252 0.000966038)
(0.000166852 0.000704986 0.00114153)
(0.000305859 0.000883588 0.00131031)
(0.00043127 0.00105521 0.00145002)
(0.000539057 0.00121944 0.00154377)
(0.000628833 0.00137614 0.00159012)
(0.000692041 0.001526 0.00160739)
(0.000717611 0.00165858 0.00159217)
(0.000701409 0.00175733 0.00153185)
(0.000645144 0.00180744 0.00143272)
(0.000553175 0.00179528 0.0013124)
(0.000431809 0.00170804 0.0011924)
(0.000290885 0.00153768 0.00109268)
(0.000144923 0.00129098 0.00102763)
(8.28678e-06 0.00099945 0.00100331)
(-0.000113817 0.000707761 0.00101688)
(-0.000226957 0.00044681 0.00106206)
(-0.00033884 0.000222503 0.00113336)
(-0.000451761 2.62049e-05 0.00122358)
(-0.000562496 -0.000153411 0.00132159)
(-0.000665601 -0.000324384 0.00141252)
(-0.000757153 -0.000489467 0.0014798)
(-0.000837095 -0.00064726 0.00150953)
(-0.000908685 -0.000796775 0.00149921)
(-0.000974046 -0.000943305 0.00146743)
(-0.0010208 -0.00108092 0.00141158)
(-0.00103916 -0.00119443 0.0013164)
(-0.00102354 -0.00126518 0.00118216)
(-0.000971675 -0.00127403 0.00102272)
(-0.000885488 -0.00120323 0.000859262)
(-0.000772224 -0.00104178 0.000715593)
(-0.000644511 -0.000796086 0.000614736)
(-0.00092195 -0.000647268 0.000466091)
(-0.000771729 -0.000295147 0.000412719)