/*--------------------------------*- C++ -*----------------------------------*\
| =========                 |                                                 |
| \\      /  F ield         | OpenFOAM: The Open Source CFD Toolbox           |
|  \\    /   O peration     | Version:  2312                                  |
|   \\  /    A nd           | Website:  www.openfoam.com                      |
|    \\/     M anipulation  |                                                 |
\*---------------------------------------------------------------------------*/
FoamFile
{
    version     2.0;
    format      ascii;
    arch        "LSB;label=32;scalar=64";
    class       volVectorField;
    location    "0.3";
    object      D_0_0_0;
}
// * * * * * * * * * * * * * * * * * * * * * * * * * * * * * * * * * * * * * //

dimensions      [0 1 0 0 0 0 0];

internalField   nonuniform List<vector> 
1620
(
(-9.95642e-05 -1.8664e-05 -6.69833e-05)
(-7.82446e-05 2.46367e-05 -5.65918e-05)
(-4.91657e-05 6.11312e-05 -3.97904e-05)
(-1.70667e-05 9.23808e-05 -1.90432e-05)
(1.5447e-05 0.000121844 5.78546e-06)
(4.52648e-05 0.000153148 3.57327e-05)
(6.77169e-05 0.000188446 7.21613e-05)
(7.72441e-05 0.000226082 0.000114813)
(7.46647e-05 0.000257306 0.000153625)
(6.10688e-05 0.000274735 0.000155572)
(4.05255e-05 0.000275395 0.000124403)
(2.53412e-05 0.00026373 9.00242e-05)
(1.98444e-05 0.000246893 5.88931e-05)
(2.14704e-05 0.00022768 3.12629e-05)
(2.72068e-05 0.00020565 6.68295e-06)
(3.47384e-05 0.000178827 -1.51855e-05)
(4.16337e-05 0.000144951 -3.41556e-05)
(4.27365e-05 0.00010292 -4.75316e-05)
(3.23488e-05 5.53642e-05 -4.76095e-05)
(1.17287e-05 1.00304e-05 -3.52078e-05)
(-1.18514e-05 -2.95101e-05 -1.91949e-05)
(-3.39015e-05 -6.33761e-05 -2.17094e-06)
(-5.33791e-05 -9.34311e-05 1.64289e-05)
(-6.97191e-05 -0.000122723 3.85205e-05)
(-8.09545e-05 -0.000154246 6.70626e-05)
(-8.34146e-05 -0.000188239 0.000104288)
(-7.92159e-05 -0.000217335 0.000142438)
(-6.7872e-05 -0.000234424 0.000147181)
(-5.18451e-05 -0.00023554 0.00012083)
(-4.26835e-05 -0.00022459 8.94879e-05)
(-4.43503e-05 -0.00020807 5.88932e-05)
(-5.44161e-05 -0.000188942 2.9789e-05)
(-6.93478e-05 -0.000167081 2.35482e-06)
(-8.58039e-05 -0.000140567 -2.31788e-05)
(-0.000100296 -0.000106921 -4.61069e-05)
(-0.000106963 -6.50274e-05 -6.3367e-05)
(-2.9824e-05 -2.56095e-05 -3.2499e-05)
(-1.91194e-05 1.98038e-05 -1.95631e-05)
(-8.33213e-06 5.47834e-05 -7.25991e-06)
(2.98403e-06 8.11177e-05 6.56144e-06)
(1.50647e-05 0.000100471 2.2387e-05)
(2.72334e-05 0.000115534 3.95362e-05)
(3.85093e-05 0.000128395 5.692e-05)
(4.85398e-05 0.000140229 7.2931e-05)
(5.85712e-05 0.000152315 8.45101e-05)
(6.45407e-05 0.000165864 8.62042e-05)
(6.52846e-05 0.000179593 7.89456e-05)
(6.08885e-05 0.000190676 6.70216e-05)
(5.4156e-05 0.00019769 5.29599e-05)
(4.57727e-05 0.000199464 3.83056e-05)
(3.55671e-05 0.000194033 2.42488e-05)
(2.33936e-05 0.000178817 1.15362e-05)
(9.87617e-06 0.000152053 -2.61177e-07)
(-4.22946e-06 0.000110825 -1.27584e-05)
(-1.62181e-05 6.01428e-05 -1.19349e-05)
(-2.51528e-05 1.45631e-05 1.00834e-06)
(-3.24907e-05 -2.09577e-05 1.12312e-05)
(-3.86055e-05 -4.80177e-05 2.13589e-05)
(-4.41087e-05 -6.78629e-05 3.24701e-05)
(-4.91806e-05 -8.28139e-05 4.45757e-05)
(-5.39947e-05 -9.48208e-05 5.74695e-05)
(-5.93542e-05 -0.00010512 7.04457e-05)
(-6.73972e-05 -0.000115263 8.07164e-05)
(-7.42381e-05 -0.000126723 8.20588e-05)
(-7.8055e-05 -0.000139083 7.49584e-05)
(-7.87064e-05 -0.000149952 6.29254e-05)
(-7.80091e-05 -0.000157685 4.79825e-05)
(-7.58773e-05 -0.000160768 3.15865e-05)
(-7.14522e-05 -0.000156857 1.50176e-05)
(-6.40274e-05 -0.00014297 -7.59867e-07)
(-5.388e-05 -0.000117002 -1.58074e-05)
(-4.17078e-05 -7.61262e-05 -3.13748e-05)
(1.38145e-05 -3.5791e-05 7.47818e-06)
(1.5027e-05 8.90335e-06 1.33378e-05)
(9.78424e-06 4.16934e-05 1.97322e-05)
(3.74615e-06 6.18522e-05 2.65403e-05)
(-1.90802e-07 7.14154e-05 3.35894e-05)
(-3.51369e-07 7.36802e-05 3.9165e-05)
(5.03791e-06 7.21486e-05 4.04659e-05)
(1.82869e-05 7.06667e-05 3.52608e-05)
(4.20083e-05 7.37153e-05 2.62328e-05)
(7.12028e-05 8.40225e-05 2.6833e-05)
(9.11553e-05 0.000102253 3.80388e-05)
(9.85698e-05 0.000125479 4.40372e-05)
(9.44745e-05 0.000148608 4.37452e-05)
(8.0817e-05 0.00016702 3.99188e-05)
(5.93994e-05 0.000176423 3.52389e-05)
(3.21612e-05 0.000172623 3.13494e-05)
(2.48335e-06 0.000152395 2.84916e-05)
(-2.27584e-05 0.000114968 2.63574e-05)
(-3.5679e-05 6.84645e-05 2.76712e-05)
(-3.58246e-05 2.56775e-05 3.1615e-05)
(-3.01072e-05 -5.18548e-06 3.48817e-05)
(-2.3888e-05 -2.41489e-05 3.8322e-05)
(-1.9472e-05 -3.36436e-05 4.23423e-05)
(-1.80488e-05 -3.67365e-05 4.55038e-05)
(-2.13969e-05 -3.61641e-05 4.50187e-05)
(-3.24759e-05 -3.49319e-05 3.83457e-05)
(-5.45026e-05 -3.73167e-05 2.76761e-05)
(-8.27849e-05 -4.6648e-05 2.60118e-05)
(-0.000103238 -6.43941e-05 3.47518e-05)
(-0.000113461 -8.79007e-05 3.86118e-05)
(-0.000113111 -0.000112318 3.64745e-05)
(-0.000102774 -0.000132678 3.07723e-05)
(-8.34507e-05 -0.000144016 2.3871e-05)
(-5.69232e-05 -0.000141536 1.72562e-05)
(-2.68507e-05 -0.000121725 1.13253e-05)
(-4.75205e-07 -8.38552e-05 6.62539e-06)
(-0.000235598 -5.9223e-05 -0.000186125)
(-0.000188144 7.80817e-05 -0.000160481)
(-0.000127606 0.000189287 -0.000111075)
(-6.05248e-05 0.000275603 -4.69992e-05)
(8.91438e-06 0.000346465 2.99517e-05)
(7.51047e-05 0.000412485 0.000121348)
(0.00013033 0.000480992 0.000228323)
(0.000167143 0.000552156 0.000344337)
(0.000187067 0.000615271 0.000440554)
(0.000190397 0.000659279 0.000458155)
(0.000171617 0.000679013 0.00039459)
(0.00014961 0.000678458 0.000304471)
(0.000135251 0.000664622 0.000213286)
(0.000128621 0.000638983 0.000128796)
(0.000126409 0.000597661 5.22499e-05)
(0.000124849 0.000533466 -1.64309e-05)
(0.000119608 0.000438792 -7.49629e-05)
(0.000103213 0.000311828 -0.000113893)
(7.07556e-05 0.000167095 -0.000116842)
(2.53028e-05 2.93852e-05 -8.52017e-05)
(-2.42413e-05 -8.43119e-05 -3.83256e-05)
(-7.09495e-05 -0.000173663 1.40128e-05)
(-0.000112747 -0.000245658 7.15527e-05)
(-0.000148444 -0.000309509 0.000139042)
(-0.000175819 -0.000373246 0.000222415)
(-0.000192408 -0.000439536 0.000321233)
(-0.000203895 -0.000499732 0.00041197)
(-0.000210266 -0.000543159 0.00043629)
(-0.000203518 -0.000563919 0.000383966)
(-0.000199128 -0.000565427 0.000300915)
(-0.000205582 -0.000553908 0.000210056)
(-0.000221456 -0.000530617 0.00011982)
(-0.00024141 -0.000491349 3.3194e-05)
(-0.000259397 -0.000428294 -4.80213e-05)
(-0.000269366 -0.000333258 -0.000119931)
(-0.000263186 -0.000204685 -0.000171936)
(-0.000113776 -8.1936e-05 -9.6686e-05)
(-8.23047e-05 5.23121e-05 -6.68069e-05)
(-5.07414e-05 0.000157404 -2.52129e-05)
(-1.71398e-05 0.000235832 2.47699e-05)
(1.9251e-05 0.000293893 8.18805e-05)
(5.70539e-05 0.000340108 0.000144135)
(9.4107e-05 0.000381402 0.000207975)
(0.00012934 0.000421521 0.000266847)
(0.00016359 0.000461317 0.000309226)
(0.000189911 0.000500802 0.000320499)
(0.000200465 0.000537786 0.000299136)
(0.00019558 0.000567471 0.000257183)
(0.000180772 0.000586571 0.000205569)
(0.000158707 0.000591085 0.000151336)
(0.000130079 0.000574651 9.88125e-05)
(9.53252e-05 0.000529295 5.05738e-05)
(5.63142e-05 0.00044849 8.16751e-06)
(1.59566e-05 0.000327557 -2.46827e-05)
(-1.93279e-05 0.000184064 -2.46731e-05)
(-4.711e-05 5.07349e-05 5.66023e-06)
(-7.03181e-05 -5.41468e-05 4.09925e-05)
(-9.05732e-05 -0.000133047 7.89425e-05)
(-0.000109382 -0.000191442 0.000120007)
(-0.000127453 -0.000236971 0.000164495)
(-0.000145682 -0.000276179 0.000211712)
(-0.000166326 -0.000312967 0.000258158)
(-0.000192995 -0.000348691 0.000294222)
(-0.000219978 -0.000384307 0.000304489)
(-0.000238724 -0.00041934 0.000284138)
(-0.000247963 -0.000449747 0.000242116)
(-0.000250399 -0.000471733 0.000187605)
(-0.000246235 -0.000480401 0.000127289)
(-0.00023404 -0.00046831 6.58957e-05)
(-0.000212641 -0.000426363 6.88425e-06)
(-0.000183055 -0.000347206 -4.68695e-05)
(-0.000148116 -0.000226299 -9.00376e-05)
(-1.59024e-05 -0.000108418 2.70215e-06)
(1.50916e-06 1.84123e-05 2.44903e-05)
(7.18519e-06 0.00011805 5.55383e-05)
(1.08142e-05 0.000188284 9.09593e-05)
(1.78064e-05 0.000234091 0.000127865)
(3.13246e-05 0.000263159 0.000161075)
(5.43078e-05 0.000283404 0.000183104)
(8.98182e-05 0.00030259 0.000188204)
(0.000140958 0.000328133 0.000182432)
(0.000194639 0.000364028 0.000189117)
(0.00023148 0.000410008 0.000204491)
(0.000243736 0.000460454 0.000206717)
(0.000231233 0.000506085 0.000192722)
(0.000197383 0.000537243 0.000167906)
(0.000146235 0.000544074 0.000139215)
(8.26629e-05 0.000516816 0.000111877)
(1.4458e-05 0.000448119 8.89252e-05)
(-4.50207e-05 0.000337732 7.41577e-05)
(-8.23159e-05 0.000204841 7.63105e-05)
(-9.59562e-05 8.05719e-05 9.3074e-05)
(-9.64718e-05 -1.59428e-05 0.000114333)
(-9.37158e-05 -8.36381e-05 0.00013766)
(-9.28503e-05 -0.000128143 0.000161997)
(-9.70344e-05 -0.000156807 0.000183381)
(-0.000110056 -0.000176401 0.00019502)
(-0.000136811 -0.000193553 0.000191396)
(-0.000182135 -0.000215744 0.000178749)
(-0.000233428 -0.000248426 0.00017892)
(-0.000273418 -0.000292796 0.000187153)
(-0.000294906 -0.000344001 0.000182876)
(-0.000294804 -0.000392991 0.000162814)
(-0.000273455 -0.00042924 0.000131407)
(-0.000232795 -0.000441447 9.47776e-05)
(-0.00017677 -0.00041854 5.80067e-05)
(-0.000113 -0.000352453 2.51097e-05)
(-5.47984e-05 -0.000242809 2.50702e-06)
(-0.000355488 -0.000114698 -0.000275473)
(-0.00028547 0.000104881 -0.000241204)
(-0.000198382 0.000284917 -0.000161751)
(-0.000101103 0.000425186 -5.10391e-05)
(4.32123e-07 0.000538786 8.61395e-05)
(9.81357e-05 0.000640725 0.000249197)
(0.000182362 0.00074144 0.000434844)
(0.000245353 0.000842722 0.000627074)
(0.000287787 0.000935632 0.000784235)
(0.000309584 0.00100837 0.000833386)
(0.000301832 0.00105208 0.000753697)
(0.000277431 0.00106737 0.000612118)
(0.000254097 0.00105983 0.000454512)
(0.000236606 0.00102917 0.000301611)
(0.000223034 0.000969339 0.000161414)
(0.000208424 0.000869967 3.7406e-05)
(0.000186602 0.000720343 -6.44771e-05)
(0.000149857 0.000519345 -0.000129591)
(9.57766e-05 0.000290724 -0.000138666)
(2.88601e-05 7.22331e-05 -9.36261e-05)
(-4.25697e-05 -0.000108908 -1.81526e-05)
(-0.00011086 -0.000251057 7.2232e-05)
(-0.00017249 -0.000364669 0.00017488)
(-0.00022506 -0.000463065 0.000294539)
(-0.000266514 -0.000557256 0.000436025)
(-0.000296606 -0.000651741 0.000593254)
(-0.000322017 -0.000740568 0.000734176)
(-0.000345029 -0.000812975 0.000789663)
(-0.000355936 -0.000859163 0.000726285)
(-0.000359724 -0.000878327 0.000595334)
(-0.000369996 -0.000875502 0.000437473)
(-0.000388175 -0.000849827 0.000273988)
(-0.000408822 -0.000794368 0.000115617)
(-0.000423683 -0.000697668 -3.099e-05)
(-0.000424417 -0.00054822 -0.000157192)
(-0.000402653 -0.000345251 -0.00024618)
(-0.000206827 -0.000147303 -0.000137762)
(-0.000153021 6.14719e-05 -9.67304e-05)
(-9.81421e-05 0.000228664 -2.54229e-05)
(-3.95523e-05 0.000356332 6.6021e-05)
(2.32338e-05 0.000453617 0.000172853)
(8.77663e-05 0.000532792 0.000290206)
(0.000150517 0.000604053 0.00041038)
(0.000209091 0.000673008 0.000520451)
(0.000262952 0.000740565 0.000600897)
(0.000305251 0.000805419 0.000628926)
(0.000326519 0.000864848 0.000597813)
(0.000323322 0.000913011 0.000524956)
(0.000302486 0.000943816 0.000430176)
(0.000268878 0.000950367 0.000327916)
(0.000224595 0.00092304 0.00022772)
(0.000170705 0.000850359 0.000135979)
(0.00010975 0.000722881 5.83607e-05)
(4.6184e-05 0.000535956 5.64396e-06)
(-1.17755e-05 0.00031689 2.35756e-06)
(-6.04343e-05 0.000110429 4.48642e-05)
(-0.000102575 -5.53105e-05 0.000105552)
(-0.0001406 -0.000182304 0.000175407)
(-0.000176212 -0.000278812 0.000252451)
(-0.000210022 -0.000356091 0.000335892)
(-0.000242951 -0.000423902 0.000423185)
(-0.000277527 -0.000488147 0.000506968)
(-0.000317559 -0.000550433 0.000572002)
(-0.000359248 -0.000610525 0.000595523)
(-0.00039291 -0.000667836 0.000565)
(-0.000411711 -0.000717906 0.000491434)
(-0.000418076 -0.000753862 0.000390934)
(-0.000412919 -0.000767385 0.000277087)
(-0.000394911 -0.000747145 0.000160216)
(-0.000362569 -0.000679945 4.84325e-05)
(-0.000317086 -0.000555164 -5.01737e-05)
(-0.000262616 -0.000368282 -0.000121945)
(-7.63489e-05 -0.00018373 1.1588e-05)
(-3.78293e-05 9.17999e-06 4.8019e-05)
(-1.2808e-05 0.000165142 0.000107199)
(9.7958e-06 0.000280318 0.000178356)
(3.64404e-05 0.000361385 0.000254085)
(7.06287e-05 0.000418974 0.000325213)
(0.000114747 0.000464075 0.000380318)
(0.000170522 0.000506776 0.000410189)
(0.000238095 0.000555896 0.000418148)
(0.000305759 0.000616745 0.000429919)
(0.00035384 0.000687979 0.000442599)
(0.000370278 0.000761782 0.000434397)
(0.000353149 0.000825757 0.00040098)
(0.000305839 0.000866483 0.00034913)
(0.000233806 0.000869956 0.000289298)
(0.000144249 0.0008225 0.000231042)
(4.80758e-05 0.00071434 0.000182338)
(-3.80139e-05 0.000546587 0.000152744)
(-9.86097e-05 0.000346715 0.000154121)
(-0.000131327 0.00015751 0.000182946)
(-0.00014694 5.87294e-06 0.000225175)
(-0.000157232 -0.000105527 0.000273764)
(-0.00016905 -0.000184117 0.000324609)
(-0.000186527 -0.000240205 0.000371199)
(-0.000213524 -0.000283535 0.000404114)
(-0.000254221 -0.000322882 0.000415272)
(-0.000311573 -0.000366958 0.000408105)
(-0.000375935 -0.00042292 0.000406866)
(-0.000429728 -0.000491595 0.000406852)
(-0.000460661 -0.000566736 0.000387036)
(-0.000463138 -0.000636113 0.000342133)
(-0.000436316 -0.000684903 0.000277287)
(-0.000382464 -0.000696909 0.000201851)
(-0.000307044 -0.000656409 0.000125593)
(-0.000220212 -0.000552433 5.85527e-05)
(-0.000138168 -0.000385769 1.46584e-05)
(-0.00046554 -0.000191101 -0.000295481)
(-0.000375075 9.10707e-05 -0.000263328)
(-0.00026497 0.000329181 -0.000165853)
(-0.000142148 0.000519971 -1.81675e-05)
(-1.38425e-05 0.000676573 0.00017175)
(0.000110474 0.000815294 0.000398833)
(0.000220518 0.00094815 0.000653192)
(0.000308583 0.00107906 0.000910596)
(0.000373408 0.00120273 0.00112301)
(0.00041667 0.00130737 0.0012115)
(0.000429712 0.00137885 0.00113683)
(0.000408251 0.00141319 0.000963398)
(0.00037749 0.00141498 0.000752085)
(0.000347308 0.00138135 0.000537413)
(0.000318848 0.00130494 0.000337542)
(0.000287584 0.00117465 0.000162559)
(0.000246779 0.000980247 2.28166e-05)
(0.000189586 0.000723657 -6.49447e-05)
(0.000114973 0.000433805 -8.38053e-05)
(2.81849e-05 0.000154334 -3.60674e-05)
(-6.27219e-05 -8.2359e-05 5.63461e-05)
(-0.000150198 -0.000271882 0.000175669)
(-0.000229714 -0.00042512 0.000316308)
(-0.000298071 -0.000557001 0.000480231)
(-0.000353585 -0.000680255 0.000668476)
(-0.00039746 -0.000801699 0.000870165)
(-0.000435558 -0.000919978 0.00105057)
(-0.000474793 -0.00102553 0.00113876)
(-0.000509778 -0.00110297 0.00108351)
(-0.000525203 -0.00114486 0.000923522)
(-0.00053899 -0.00115486 0.000711391)
(-0.000555704 -0.00112943 0.00048194)
(-0.000571856 -0.00106003 0.000256514)
(-0.000579034 -0.000934412 4.93368e-05)
(-0.000567975 -0.000741519 -0.000125426)
(-0.00053081 -0.000483545 -0.000247641)
(-0.000309413 -0.000225037 -0.000121472)
(-0.000232819 3.84907e-05 -7.8875e-05)
(-0.000152944 0.000256834 1.22706e-05)
(-6.75816e-05 0.000429382 0.000137637)
(2.27434e-05 0.000566099 0.00028869)
(0.000114216 0.000680687 0.000456681)
(0.000201786 0.000784773 0.00062908)
(0.000281607 0.000884956 0.000787207)
(0.000352137 0.000982413 0.000905672)
(0.000408699 0.00107387 0.000955327)
(0.000441406 0.00115537 0.000924348)
(0.000441406 0.0012209 0.000830915)
(0.000416479 0.00126144 0.000700757)
(0.000373751 0.00126812 0.000555527)
(0.00031692 0.00122966 0.00041125)
(0.000247746 0.00113329 0.000279684)
(0.000168999 0.000968864 0.00017148)
(8.58127e-05 0.000734767 0.000102275)
(6.56168e-06 0.000463188 9.25635e-05)
(-6.41862e-05 0.000203508 0.000138206)
(-0.000127983 -1.15238e-05 0.000214965)
(-0.000187138 -0.000181185 0.000309644)
(-0.000242829 -0.000314734 0.000417218)
(-0.000294933 -0.00042508 0.000534563)
(-0.000343619 -0.000523621 0.000656394)
(-0.000390884 -0.000617514 0.000771863)
(-0.000440732 -0.000709059 0.000862146)
(-0.00049362 -0.000795911 0.000900071)
(-0.00054076 -0.000876265 0.000867364)
(-0.000568852 -0.00094583 0.000771906)
(-0.000579393 -0.00099434 0.00063316)
(-0.000574082 -0.00101097 0.00047111)
(-0.000552133 -0.000982304 0.00030272)
(-0.000512043 -0.000893491 0.000142172)
(-0.000454758 -0.000733062 3.55443e-06)
(-0.000384683 -0.000499323 -9.33006e-05)
(-0.000164536 -0.000262234 6.29057e-05)
(-0.000102435 -2.20862e-05 0.000107019)
(-5.19596e-05 0.000177932 0.0001872)
(-2.76206e-06 0.000332353 0.00028878)
(5.08464e-05 0.000448576 0.000400176)
(0.000110914 0.000538604 0.000508525)
(0.000177633 0.0006145 0.000599062)
(0.000250509 0.000686302 0.000659096)
(0.000327699 0.00076185 0.00068723)
(0.000403678 0.000846987 0.000704339)
(0.000457298 0.000939589 0.000713038)
(0.00047589 0.00103068 0.000695421)
(0.000456551 0.00110624 0.00064499)
(0.000402204 0.00115109 0.000569042)
(0.000318585 0.0011492 0.000480902)
(0.000213696 0.00108499 0.000394522)
(9.95652e-05 0.000947795 0.000323057)
(-6.46251e-06 0.000740668 0.000280447)
(-8.86966e-05 0.000495544 0.00027866)
(-0.000143918 0.000260293 0.000313557)
(-0.000181743 6.58125e-05 0.000370507)
(-0.000213659 -8.35114e-05 0.000439446)
(-0.000246408 -0.000195846 0.00051337)
(-0.00028331 -0.000283009 0.000583563)
(-0.000326508 -0.000355983 0.000638692)
(-0.000378398 -0.000423496 0.000668185)
(-0.000440505 -0.000492974 0.000670768)
(-0.000512132 -0.000572147 0.000665744)
(-0.000572933 -0.000661754 0.000654974)
(-0.000609825 -0.000755021 0.000620438)
(-0.000615856 -0.000838003 0.000552974)
(-0.000588799 -0.000893636 0.000457507)
(-0.000530229 -0.000903049 0.000346117)
(-0.000445625 -0.000847991 0.000233359)
(-0.000345691 -0.000716206 0.000135421)
(-0.000246865 -0.000510253 7.21104e-05)
(-0.000572844 -0.000287595 -0.000230114)
(-0.000464063 3.54266e-05 -0.000209862)
(-0.000332932 0.000317569 -0.000109194)
(-0.000186896 0.000552288 5.90546e-05)
(-3.42854e-05 0.000750256 0.000284985)
(0.000114762 0.000926798 0.000558876)
(0.000249733 0.00109425 0.00086453)
(0.000362542 0.00125815 0.00117156)
(0.000449871 0.00141605 0.00142865)
(0.000514436 0.00155612 0.00155924)
(0.00054837 0.00165826 0.00151185)
(0.000532552 0.00171271 0.00132966)
(0.000496874 0.00172448 0.00108461)
(0.000454661 0.00168896 0.000824398)
(0.000410549 0.0015985 0.000578057)
(0.000362001 0.00144347 0.000363313)
(0.000303001 0.00121696 0.0001945)
(0.000227506 0.000925174 8.7757e-05)
(0.000134435 0.000598465 5.56194e-05)
(2.88739e-05 0.000279932 9.56845e-05)
(-8.10129e-05 2.47641e-06 0.00019069)
(-0.00018759 -0.000226494 0.000324036)
(-0.000285599 -0.000415969 0.000488036)
(-0.000371348 -0.000580504 0.000680952)
(-0.000443143 -0.000733641 0.000899435)
(-0.000502375 -0.000884279 0.00112905)
(-0.000553924 -0.00103474 0.00133471)
(-0.000606893 -0.00117702 0.00145272)
(-0.000659985 -0.00129052 0.00142409)
(-0.000687646 -0.00135914 0.00125722)
(-0.000704805 -0.00138424 0.00101151)
(-0.000718264 -0.00136094 0.000733945)
(-0.000727413 -0.00128062 0.000456498)
(-0.000725476 -0.00113268 0.000201681)
(-0.000703408 -0.000909499 -1.12755e-05)
(-0.000653438 -0.000617333 -0.000161535)
(-0.00041991 -0.000313751 -3.40746e-05)
(-0.000321824 -1.51686e-05 1.16744e-06)
(-0.00021695 0.000241542 9.8683e-05)
(-0.000104414 0.00045252 0.000243845)
(1.3714e-05 0.000626946 0.000425693)
(0.000132067 0.00077813 0.000631957)
(0.000244033 0.000917544 0.000845697)
(0.00034436 0.00105171 0.00104349)
(0.000430642 0.00118142 0.00119576)
(0.000500181 0.0013013 0.00127044)
(0.00054278 0.00140551 0.00125112)
(0.00054672 0.00148736 0.00115113)
(0.000519752 0.00153586 0.000999183)
(0.000470583 0.00154146 0.000823236)
(0.000404331 0.00149286 0.000645871)
(0.000323551 0.00137795 0.000484438)
(0.000231048 0.00118793 0.000353852)
(0.000131823 0.000925367 0.000271304)
(3.34776e-05 0.000623305 0.000252108)
(-5.90608e-05 0.000330149 0.000292186)
(-0.000145873 7.91241e-05 0.000372551)
(-0.000228343 -0.000125893 0.000479443)
(-0.000306593 -0.000293634 0.000605763)
(-0.00037933 -0.000437057 0.0007459)
(-0.000445462 -0.000567856 0.000891728)
(-0.000505975 -0.000693539 0.00102951)
(-0.000564745 -0.000816491 0.00113826)
(-0.000625459 -0.000932721 0.00119053)
(-0.000681398 -0.0010382 0.00116465)
(-0.000717385 -0.00112722 0.00106039)
(-0.000732185 -0.00118731 0.000897342)
(-0.000727599 -0.0012063 0.000700511)
(-0.00070348 -0.00117041 0.000493137)
(-0.000658608 -0.00106531 0.000295386)
(-0.000593469 -0.000880825 0.000126406)
(-0.000511759 -0.00061913 8.83446e-06)
(-0.000271391 -0.000342581 0.000170406)
(-0.000186116 -7.24667e-05 0.000213914)
(-0.000108441 0.000159514 0.000303626)
(-2.97299e-05 0.000346589 0.000424026)
(5.38125e-05 0.000496178 0.000561184)
(0.000141701 0.000620259 0.000699585)
(0.000231325 0.000730151 0.000821686)
(0.000320067 0.000834143 0.000911322)
(0.000405344 0.000937801 0.000961421)
(0.000486656 0.00104618 0.000984994)
(0.00054309 0.0011576 0.000992646)
(0.000563105 0.00126233 0.000971099)
(0.000543616 0.00134523 0.000910412)
(0.000487067 0.00139094 0.000818214)
(0.00039874 0.00138339 0.000710241)
(0.000286228 0.00130698 0.000604111)
(0.000161182 0.0011514 0.000516797)
(4.01846e-05 0.000921501 0.000464162)
(-6.14631e-05 0.000650397 0.000456716)
(-0.000139782 0.00038635 0.000490337)
(-0.000202821 0.000161339 0.000552007)
(-0.000260686 -1.89712e-05 0.000631229)
(-0.000318779 -0.000162818 0.000719531)
(-0.000378432 -0.000282234 0.000806712)
(-0.000439349 -0.00038782 0.000879973)
(-0.000502029 -0.000486765 0.00092641)
(-0.000567655 -0.000583931 0.000939385)
(-0.000641415 -0.000685507 0.000929482)
(-0.000704626 -0.000793696 0.00090966)
(-0.000745342 -0.000901623 0.000865448)
(-0.000755731 -0.000994147 0.000782235)
(-0.000732109 -0.00105342 0.000664706)
(-0.000674689 -0.0010599 0.000527082)
(-0.000587926 -0.000994767 0.000387687)
(-0.000481693 -0.000845774 0.000267122)
(-0.000371316 -0.000617178 0.000188255)
(-0.00068217 -0.00039994 -7.96409e-05)
(-0.000557796 -5.61651e-05 -7.86146e-05)
(-0.000407269 0.000254951 1.1484e-05)
(-0.000238979 0.000524587 0.000182246)
(-6.25187e-05 0.000760116 0.000423748)
(0.000111299 0.000974616 0.000723043)
(0.000271631 0.00117963 0.00105941)
(0.000409726 0.00138108 0.00139885)
(0.000520307 0.00157732 0.00168978)
(0.000603307 0.00175549 0.00186322)
(0.000650527 0.00189023 0.00185863)
(0.000642942 0.00196558 0.0016887)
(0.000605633 0.00198699 0.00143224)
(0.000553958 0.00195058 0.00114751)
(0.000495936 0.00184974 0.000872699)
(0.000431965 0.00167789 0.000632384)
(0.000357547 0.00143284 0.00044387)
(0.000267057 0.00112493 0.000321376)
(0.000158394 0.000783186 0.000273205)
(3.55421e-05 0.000445942 0.000297209)
(-9.3427e-05 0.000143265 0.000381438)
(-0.000220399 -0.000115365 0.000512655)
(-0.000339227 -0.000336133 0.000682614)
(-0.000445507 -0.000532037 0.000886512)
(-0.000536898 -0.000716487 0.00111735)
(-0.000613949 -0.000899426 0.00135872)
(-0.000680159 -0.00108476 0.0015778)
(-0.000742263 -0.00126547 0.00172177)
(-0.000801723 -0.00141805 0.00172826)
(-0.000841111 -0.0015177 0.00157542)
(-0.000861303 -0.00155975 0.0013202)
(-0.000871442 -0.00154089 0.00101757)
(-0.000873765 -0.00145406 0.000708322)
(-0.000863911 -0.00129216 0.000422421)
(-0.000833586 -0.00105249 0.000183077)
(-0.000774484 -0.000745206 1.04024e-05)
(-0.000536226 -0.00040965 0.00012499)
(-0.000419457 -9.33068e-05 0.000145564)
(-0.000291323 0.000188659 0.00023637)
(-0.000152643 0.000429925 0.000385508)
(-7.28657e-06 0.000638122 0.000581512)
(0.00013768 0.000825125 0.000809871)
(0.000274038 0.00100108 0.0010505)
(0.000395074 0.00117128 0.0012768)
(0.000497107 0.00133515 0.00145702)
(0.000577682 0.00148564 0.00155868)
(0.000627452 0.00161387 0.00156029)
(0.000636341 0.00171108 0.00146711)
(0.000609768 0.00176646 0.00130879)
(0.000556995 0.00177103 0.00111792)
(0.000484337 0.00171476 0.000922223)
(0.00039532 0.00158767 0.000743593)
(0.000292812 0.00138365 0.000599736)
(0.000181176 0.00110902 0.000506965)
(6.6699e-05 0.00079516 0.000475835)
(-4.59164e-05 0.00048594 0.000502867)
(-0.00015552 0.00021245 0.000574767)
(-0.000262168 -1.91633e-05 0.000680017)
(-0.000364605 -0.00021635 0.00081099)
(-0.000460049 -0.000391133 0.00096026)
(-0.000545784 -0.000554472 0.00111745)
(-0.000621269 -0.000713207 0.001267)
(-0.000689306 -0.000868869 0.00138748)
(-0.000754298 -0.0010168 0.00145341)
(-0.000813646 -0.00114961 0.00144056)
(-0.000855851 -0.0012582 0.00133996)
(-0.000874785 -0.00132995 0.0011688)
(-0.000871658 -0.00135219 0.000954598)
(-0.000846944 -0.00131209 0.000725084)
(-0.000799897 -0.00119741 0.000505071)
(-0.000730459 -0.00100061 0.000317055)
(-0.000641017 -0.000727405 0.000183836)
(-0.000388806 -0.000421611 0.000335896)
(-0.000282959 -0.000136033 0.000371151)
(-0.000179763 0.000116636 0.00045854)
(-7.24694e-05 0.000328935 0.000584412)
(4.05202e-05 0.000507954 0.000734571)
(0.000155945 0.000664777 0.000892169)
(0.000268405 0.00080887 0.00103767)
(0.000373286 0.000945879 0.001152)
(0.000467547 0.00107841 0.00122299)
(0.000551773 0.00120916 0.0012554)
(0.000610442 0.00133779 0.00126595)
(0.000632904 0.00145427 0.00124618)
(0.000615468 0.00154275 0.00118358)
(0.000560131 0.00158847 0.00108553)
(0.000471509 0.00157674 0.000969071)
(0.000356332 0.00149334 0.000854002)
(0.000225159 0.00132917 0.000759122)
(9.323e-05 0.00109032 0.00069995)
(-2.49269e-05 0.000808823 0.000684788)
(-0.000124727 0.000530515 0.000710155)
(-0.000212613 0.000286558 0.00076622)
(-0.000297054 8.31247e-05 0.000844393)
(-0.000381662 -8.78303e-05 0.000936372)
(-0.000465404 -0.000237745 0.00103134)
(-0.000545449 -0.000375822 0.00111547)
(-0.000620315 -0.000506993 0.00117401)
(-0.000691011 -0.00063301 0.00119614)
(-0.000762355 -0.000756549 0.00118454)
(-0.000825612 -0.000881866 0.00115859)
(-0.000869711 -0.0010025 0.00110865)
(-0.000885034 -0.00110295 0.00101795)
(-0.000866691 -0.00116531 0.000889985)
(-0.00081353 -0.00117057 0.00073942)
(-0.000728678 -0.00110074 0.000586406)
(-0.00062055 -0.000944419 0.000453531)
(-0.000502808 -0.000707089 0.000364019)
(-0.000795573 -0.000522093 0.00014638)
(-0.000658351 -0.000174343 0.000123761)
(-0.000490029 0.0001516 0.000192651)
(-0.000300165 0.000446208 0.000349949)
(-9.99084e-05 0.000713874 0.000587471)
(9.8765e-05 0.000964934 0.000891072)
(0.000284074 0.00120907 0.00123795)
(0.000446018 0.00145107 0.00159357)
(0.000577265 0.00168819 0.0019093)
(0.000674407 0.00190588 0.00212307)
(0.000730754 0.00207483 0.00216582)
(0.000735094 0.00217264 0.00202481)
(0.000699337 0.00220365 0.00177877)
(0.000641683 0.00216796 0.00149144)
(0.000573177 0.00206154 0.00120711)
(0.000497259 0.00188175 0.000955591)
(0.000411251 0.00163122 0.000756199)
(0.000309649 0.00132334 0.000621069)
(0.000188602 0.000984204 0.000555321)
(5.02111e-05 0.000645301 0.000557386)
(-9.7862e-05 0.000331868 0.000620293)
(-0.000246732 5.39481e-05 0.000735219)
(-0.000388968 -0.000192076 0.000894895)
(-0.000518819 -0.000417076 0.00109285)
(-0.00063237 -0.000633283 0.00131987)
(-0.00072817 -0.000850167 0.00155941)
(-0.000807447 -0.00107136 0.00178273)
(-0.000874105 -0.00129022 0.00194562)
(-0.000933653 -0.001483 0.0019859)
(-0.00098184 -0.00161796 0.00186538)
(-0.00100423 -0.00167991 0.00162422)
(-0.0010122 -0.00166911 0.00131992)
(-0.00100984 -0.00158166 0.000999898)
(-0.000995 -0.00141506 0.000699925)
(-0.000960152 -0.00117194 0.000445953)
(-0.000895943 -0.000865478 0.000256928)
(-0.000655471 -0.000507325 0.000347596)
(-0.000523729 -0.000187565 0.000348607)
(-0.000375352 0.000107285 0.000422347)
(-0.000212787 0.000369833 0.000561444)
(-4.17508e-05 0.00060613 0.00075564)
(0.000128843 0.000826182 0.000989708)
(0.00028897 0.00103806 0.00124211)
(0.000430168 0.00124486 0.00148511)
(0.000547123 0.00144381 0.00168667)
(0.000636945 0.00162612 0.00181436)
(0.000692977 0.00177914 0.00184153)
(0.000708343 0.00189148 0.00176591)
(0.00068428 0.00195388 0.00161598)
(0.000630353 0.00195875 0.00142637)
(0.00055402 0.00189851 0.00122763)
(0.000459851 0.00176619 0.0010445)
(0.000350868 0.00155898 0.000895959)
(0.000230556 0.00128583 0.00079613)
(0.000103485 0.000975041 0.000751709)
(-2.64484e-05 0.000664284 0.000760251)
(-0.000157289 0.000380987 0.000814099)
(-0.000287722 0.00013215 0.000905673)
(-0.000414949 -8.83543e-05 0.00102824)
(-0.000534411 -0.000291142 0.00117356)
(-0.000641348 -0.000485694 0.00133002)
(-0.000733068 -0.000677303 0.00148149)
(-0.000810514 -0.000865942 0.00160742)
(-0.000877876 -0.00104611 0.00168422)
(-0.000937624 -0.00120683 0.00168668)
(-0.000983585 -0.00133589 0.00160031)
(-0.00100556 -0.00142088 0.00143663)
(-0.00100411 -0.00144896 0.00122265)
(-0.000980124 -0.00140919 0.00098829)
(-0.000933192 -0.0012923 0.000761184)
(-0.00086263 -0.00109403 0.000565351)
(-0.000769223 -0.000822735 0.000422058)
(-0.000509377 -0.000494604 0.000552933)
(-0.000387235 -0.000205547 0.000574272)
(-0.000262533 5.73274e-05 0.000649607)
(-0.000130109 0.00028672 0.000769093)
(9.60524e-06 0.0004894 0.000919878)
(0.000150787 0.000675181 0.00108495)
(0.000285455 0.000851184 0.00124375)
(0.000406951 0.00102001 0.00137527)
(0.000511464 0.00118097 0.00146371)
(0.000598589 0.00133364 0.00150767)
(0.000660227 0.00147848 0.00152418)
(0.000685933 0.00160558 0.00151001)
(0.000671792 0.00169936 0.00145333)
(0.0006194 0.00174595 0.00136)
(0.000532835 0.00173268 0.00124658)
(0.000417995 0.00164767 0.00113328)
(0.000284123 0.00148355 0.00103881)
(0.000144913 0.00124682 0.000976678)
(1.39064e-05 0.000967218 0.000952642)
(-0.000103998 0.000686744 0.000964421)
(-0.000213973 0.000434571 0.00100651)
(-0.000323065 0.000216452 0.00107391)
(-0.000433129 2.44504e-05 0.0011597)
(-0.000540833 -0.0001519 0.00125317)
(-0.000640863 -0.000319921 0.00134005)
(-0.000729507 -0.000481926 0.00140454)
(-0.000806866 -0.00063635 0.00143341)
(-0.000876234 -0.000782069 0.00142424)
(-0.000939651 -0.000923812 0.00139434)
(-0.000985503 -0.00105587 0.00134145)
(-0.00100443 -0.00116393 0.00125148)
(-0.000991011 -0.00123046 0.00112488)
(-0.000942973 -0.00123756 0.000974828)
(-0.000862008 -0.00116871 0.000821265)
(-0.000754842 -0.00101375 0.000686425)
(-0.000633332 -0.000778744 0.000591653)
(-0.000911278 -0.000646497 0.000433622)
(-0.000763467 -0.000307638 0.000386108)