/*--------------------------------*- C++ -*----------------------------------*\
| =========                 |                                                 |
| \\      /  F ield         | OpenFOAM: The Open Source CFD Toolbox           |
|  \\    /   O peration     | Version:  2312                                  |
|   \\  /    A nd           | Website:  www.openfoam.com                      |
|    \\/     M anipulation  |                                                 |
\*---------------------------------------------------------------------------*/
FoamFile
{
    version     2.0;
    format      ascii;
    arch        "LSB;label=32;scalar=64";
    class       volVectorField;
    location    "0.3";
    object      D_0_0;
}
// * * * * * * * * * * * * * * * * * * * * * * * * * * * * * * * * * * * * * //

dimensions      [0 1 0 0 0 0 0];

internalField   nonuniform List<vector> 
1620
(
(-0.000101073 -1.72685e-05 -6.91713e-05)
(-7.9397e-05 2.75023e-05 -5.85799e-05)
(-4.9893e-05 6.49879e-05 -4.13992e-05)
(-1.73242e-05 9.67896e-05 -2.01029e-05)
(1.57398e-05 0.000126535 5.48269e-06)
(4.61629e-05 0.000158056 3.64313e-05)
(6.91484e-05 0.000193665 7.41414e-05)
(7.89391e-05 0.000231738 0.000118322)
(7.63824e-05 0.000263306 0.000158479)
(6.25624e-05 0.000280847 0.000160305)
(4.15337e-05 0.000281306 0.000127796)
(2.60402e-05 0.00026925 9.20881e-05)
(2.04898e-05 0.000252048 5.98828e-05)
(2.21672e-05 0.000232519 3.14141e-05)
(2.7949e-05 0.000210113 6.17997e-06)
(3.5493e-05 0.000182697 -1.62103e-05)
(4.23822e-05 0.000147871 -3.56156e-05)
(4.33885e-05 0.000104487 -4.93044e-05)
(3.27124e-05 5.53438e-05 -4.93294e-05)
(1.16846e-05 8.59652e-06 -3.65267e-05)
(-1.22444e-05 -3.19887e-05 -2.00535e-05)
(-3.453e-05 -6.65245e-05 -2.55425e-06)
(-5.41914e-05 -9.69653e-05 1.65789e-05)
(-7.07205e-05 -0.000126512 3.93333e-05)
(-8.21327e-05 -0.000158327 6.87812e-05)
(-8.46449e-05 -0.000192733 0.000107256)
(-8.04497e-05 -0.000222189 0.000146714)
(-6.8977e-05 -0.000239437 0.000151502)
(-5.26271e-05 -0.000240407 0.000124079)
(-4.33539e-05 -0.000229133 9.15882e-05)
(-4.51813e-05 -0.0002123 5.99963e-05)
(-5.55244e-05 -0.000192882 3.00602e-05)
(-7.07146e-05 -0.000170633 1.93659e-06)
(-8.73579e-05 -0.000143463 -2.41845e-05)
(-0.000101976 -0.000108744 -4.76507e-05)
(-0.000108656 -6.53357e-05 -6.53849e-05)
(-2.90488e-05 -2.48844e-05 -3.37067e-05)
(-1.81934e-05 2.19257e-05 -2.03484e-05)
(-7.37869e-06 5.77991e-05 -7.66477e-06)
(3.91578e-06 8.45901e-05 6.59509e-06)
(1.59984e-05 0.000104042 2.29384e-05)
(2.82225e-05 0.000118982 4.06523e-05)
(3.96058e-05 0.000131624 5.85955e-05)
(4.97957e-05 0.000143245 7.50927e-05)
(6.00857e-05 0.000155234 8.69818e-05)
(6.62163e-05 0.000168894 8.8642e-05)
(6.69819e-05 0.000182899 8.10657e-05)
(6.24354e-05 0.000194309 6.86993e-05)
(5.54661e-05 0.00020164 5.41632e-05)
(4.67622e-05 0.00020365 3.9052e-05)
(3.61392e-05 0.000198266 2.45902e-05)
(2.34612e-05 0.000182776 1.15399e-05)
(9.40869e-06 0.000155322 -5.55856e-07)
(-5.19231e-06 0.000112856 -1.33853e-05)
(-1.74911e-05 6.06083e-05 -1.24608e-05)
(-2.65025e-05 1.37085e-05 9.56542e-07)
(-3.37714e-05 -2.26912e-05 1.15171e-05)
(-3.97308e-05 -5.0247e-05 2.19583e-05)
(-4.5064e-05 -7.02617e-05 3.34015e-05)
(-5.00015e-05 -8.51613e-05 4.58583e-05)
(-5.47531e-05 -9.69999e-05 5.91171e-05)
(-6.01609e-05 -0.000107103 7.24525e-05)
(-6.84348e-05 -0.000117134 8.29892e-05)
(-7.55005e-05 -0.000128665 8.4298e-05)
(-7.9463e-05 -0.000141276 7.69035e-05)
(-8.01469e-05 -0.00015249 6.44455e-05)
(-7.9413e-05 -0.000160586 4.90209e-05)
(-7.7146e-05 -0.000163959 3.21346e-05)
(-7.24483e-05 -0.000160132 1.51043e-05)
(-6.46087e-05 -0.000145969 -1.08915e-06)
(-5.39606e-05 -0.000119258 -1.65359e-05)
(-4.12877e-05 -7.70604e-05 -3.25642e-05)
(1.62031e-05 -3.58358e-05 7.50483e-06)
(1.73055e-05 1.01159e-05 1.36376e-05)
(1.1645e-05 4.36835e-05 2.03125e-05)
(5.0965e-06 6.41249e-05 2.73965e-05)
(6.86257e-07 7.35594e-05 3.47007e-05)
(1.80812e-07 7.54217e-05 4.04437e-05)
(5.44437e-06 7.33722e-05 4.17267e-05)
(1.88876e-05 7.14287e-05 3.6253e-05)
(4.32241e-05 7.4249e-05 2.68301e-05)
(7.32677e-05 8.4642e-05 2.74198e-05)
(9.37527e-05 0.000103307 3.90297e-05)
(0.000101267 0.00012724 4.5246e-05)
(9.69045e-05 0.000151166 4.49385e-05)
(8.269e-05 0.000170299 4.09699e-05)
(6.04866e-05 0.000180185 3.61258e-05)
(3.22958e-05 0.00017647 3.21186e-05)
(1.61593e-06 0.000155798 2.92076e-05)
(-2.44215e-05 0.000117346 2.70684e-05)
(-3.76479e-05 6.95355e-05 2.84997e-05)
(-3.76022e-05 2.56054e-05 3.26287e-05)
(-3.14427e-05 -5.94722e-06 3.60338e-05)
(-2.47347e-05 -2.51599e-05 3.95995e-05)
(-1.98847e-05 -3.45576e-05 4.37447e-05)
(-1.81431e-05 -3.73275e-05 4.698e-05)
(-2.13649e-05 -3.63223e-05 4.64209e-05)
(-3.26208e-05 -3.46763e-05 3.94422e-05)
(-5.5241e-05 -3.6834e-05 2.8326e-05)
(-8.43585e-05 -4.62376e-05 2.6563e-05)
(-0.000105373 -6.44235e-05 3.5609e-05)
(-0.000115803 -8.86625e-05 3.96035e-05)
(-0.000115315 -0.000113932 3.73817e-05)
(-0.000104518 -0.000135079 3.14687e-05)
(-8.44454e-05 -0.000146953 2.43213e-05)
(-5.69388e-05 -0.000144575 1.74835e-05)
(-2.57883e-05 -0.00012429 1.1372e-05)
(1.49273e-06 -8.53252e-05 6.55441e-06)
(-0.000237792 -5.53689e-05 -0.000192153)
(-0.000189744 8.64591e-05 -0.000166019)
(-0.000128698 0.000200691 -0.000115464)
(-6.1062e-05 0.000288546 -4.97108e-05)
(9.15404e-06 0.000359895 2.94881e-05)
(7.63648e-05 0.000425896 0.000123773)
(0.000132693 0.00049435 0.000234287)
(0.000170444 0.00056568 0.000354214)
(0.000191164 0.000629031 0.000453599)
(0.000195033 0.00067319 0.000471408)
(0.000176011 0.000692898 0.000405157)
(0.000153597 0.000692233 0.000311684)
(0.000138913 0.000678329 0.000217446)
(0.000131943 0.000652526 0.000130432)
(0.000129262 0.000610611 5.18502e-05)
(0.000127085 0.000544974 -1.8494e-05)
(0.000121135 0.000447617 -7.83934e-05)
(0.000103944 0.000316625 -0.00011822)
(7.06886e-05 0.000167185 -0.000121082)
(2.45956e-05 2.52632e-05 -8.83947e-05)
(-2.53348e-05 -9.13786e-05 -4.01567e-05)
(-7.22068e-05 -0.000182396 1.36235e-05)
(-0.000114108 -0.000255105 7.2751e-05)
(-0.000149981 -0.000319156 0.00014217)
(-0.00017764 -0.000383014 0.000228051)
(-0.000194572 -0.000449623 0.000329988)
(-0.000206642 -0.00051022 0.000423641)
(-0.000213687 -0.000553952 0.000448526)
(-0.000207124 -0.000574821 0.000394112)
(-0.000202915 -0.000576372 0.000308141)
(-0.000209692 -0.000564933 0.000214414)
(-0.000225852 -0.000541582 0.000121635)
(-0.00024585 -0.000501722 3.28185e-05)
(-0.000263558 -0.000437064 -5.03178e-05)
(-0.000272987 -0.000339008 -0.000123968)
(-0.000266095 -0.000205952 -0.000177399)
(-0.000112211 -7.99822e-05 -0.000100421)
(-8.03555e-05 5.83224e-05 -6.95811e-05)
(-4.87851e-05 0.000166072 -2.66929e-05)
(-1.52931e-05 0.000245845 2.48632e-05)
(2.10935e-05 0.000304217 8.38106e-05)
(5.91078e-05 0.000350118 0.000148094)
(9.66113e-05 0.000390874 0.000214011)
(0.000132533 0.000430536 0.000274752)
(0.000167729 0.000470172 0.000318378)
(0.000194901 0.000509936 0.000329777)
(0.000205844 0.000547601 0.000307435)
(0.000200802 0.000578167 0.00026389)
(0.000185437 0.000598168 0.000210496)
(0.000162464 0.000603356 0.000154537)
(0.000132604 0.000587034 0.000100465)
(9.63659e-05 0.000540841 5.09001e-05)
(5.57937e-05 0.00045794 7.3846e-06)
(1.4036e-05 0.000333434 -2.62892e-05)
(-2.21275e-05 0.000185602 -2.60569e-05)
(-5.01533e-05 4.84693e-05 5.42035e-06)
(-7.31794e-05 -5.89582e-05 4.19413e-05)
(-9.30356e-05 -0.000139245 8.10774e-05)
(-0.000111431 -0.000198104 0.00012337)
(-0.000129221 -0.000243515 0.000169159)
(-0.000147419 -0.000282353 0.000217746)
(-0.00016839 -0.000318789 0.000265535)
(-0.000195846 -0.00035438 0.000302599)
(-0.000223768 -0.000390247 0.000312998)
(-0.000243212 -0.00042596 0.000291785)
(-0.000252783 -0.000457329 0.000248265)
(-0.000255214 -0.000480362 0.000191974)
(-0.000250657 -0.000489862 0.000129825)
(-0.000237622 -0.000477981 6.66789e-05)
(-0.000214966 -0.000435174 6.047e-06)
(-0.000183891 -0.000353749 -4.91883e-05)
(-0.000147525 -0.000228992 -9.36095e-05)
(-1.12664e-05 -0.000108487 1.62778e-06)
(6.30364e-06 2.18048e-05 2.44118e-05)
(1.14963e-05 0.000123764 5.6767e-05)
(1.43789e-05 0.000195119 9.3596e-05)
(2.06419e-05 0.00024105 0.000131882)
(3.36695e-05 0.000269571 0.00016625)
(5.66016e-05 0.00028898 0.000188953)
(9.26698e-05 0.000307436 0.000194059)
(0.000145105 0.000332712 0.000187885)
(0.000200299 0.000368985 0.00019466)
(0.00023812 0.000416017 0.000210479)
(0.000250522 0.000468012 0.000212692)
(0.00023734 0.000515337 0.000198119)
(0.000202119 0.000547949 0.000172369)
(0.000149054 0.000555594 0.00014265)
(8.32091e-05 0.000528113 0.000114388)
(1.2682e-05 0.000457851 9.07331e-05)
(-4.8664e-05 0.000344503 7.56228e-05)
(-8.68892e-05 0.000207956 7.80851e-05)
(-0.000100475 8.04432e-05 9.5656e-05)
(-0.000100326 -1.82333e-05 0.000117817)
(-9.66807e-05 -8.69911e-05 0.000142033)
(-9.49593e-05 -0.000131672 0.000167207)
(-9.85137e-05 -0.000159917 0.000189245)
(-0.00011133 -0.000178798 0.000201137)
(-0.000138505 -0.000195266 0.00019719)
(-0.000185038 -0.000217153 0.000183899)
(-0.000237819 -0.000250165 0.000183939)
(-0.000278926 -0.00029559 0.000192381)
(-0.000300882 -0.000348421 0.000187888)
(-0.0003005 -0.000399259 0.000167066)
(-0.00027813 -0.000437149 0.000134519)
(-0.000235788 -0.000450321 9.6591e-05)
(-0.000177591 -0.000427248 5.85415e-05)
(-0.00011148 -0.000359536 2.45344e-05)
(-5.12875e-05 -0.000246774 1.23708e-06)
(-0.000357953 -0.000109268 -0.000284192)
(-0.000287109 0.000117218 -0.000249362)
(-0.00019942 0.00030199 -0.000168118)
(-0.000101481 0.000444774 -5.45775e-05)
(1.0325e-06 0.000559243 8.64829e-05)
(0.000100071 0.000661149 0.000254506)
(0.000185821 0.00076159 0.00044606)
(0.000250274 0.000862775 0.00064452)
(0.000294073 0.000955815 0.000806704)
(0.000316954 0.00102885 0.000857032)
(0.000309341 0.00107289 0.000774017)
(0.00028445 0.00108851 0.000627304)
(0.000260447 0.00108125 0.000464517)
(0.000242153 0.00105053 0.000307071)
(0.000227581 0.000989835 0.000163123)
(0.000211739 0.000888225 3.60907e-05)
(0.000188512 0.000734469 -6.81444e-05)
(0.000150295 0.000527348 -0.000134683)
(9.49446e-05 0.000291623 -0.000143701)
(2.71867e-05 6.67285e-05 -9.71775e-05)
(-4.46546e-05 -0.000118935 -1.95566e-05)
(-0.000113067 -0.000263674 7.32568e-05)
(-0.000174755 -0.000378416 0.000178652)
(-0.000227482 -0.000477104 0.000301612)
(-0.000269267 -0.000571334 0.000447172)
(-0.000299894 -0.000666013 0.000609108)
(-0.000326224 -0.000755257 0.000754329)
(-0.000350418 -0.000828217 0.000811304)
(-0.000362122 -0.000874953 0.000745441)
(-0.000366341 -0.000894655 0.000610042)
(-0.000376973 -0.000892335 0.000447322)
(-0.000395328 -0.000866779 0.000279275)
(-0.000415758 -0.000810486 0.000116879)
(-0.000429884 -0.000711342 -3.32302e-05)
(-0.000429448 -0.000557298 -0.00016248)
(-0.000406311 -0.00034756 -0.000253843)
(-0.000205135 -0.000144596 -0.000143403)
(-0.000150595 7.02464e-05 -0.000101064)
(-9.55087e-05 0.000241518 -2.75563e-05)
(-3.6867e-05 0.000371354 6.67218e-05)
(2.61189e-05 0.00046929 0.000176922)
(9.11482e-05 0.000548178 0.000298029)
(0.000154718 0.000618787 0.000422058)
(0.000214403 0.000687185 0.000535609)
(0.000269629 0.000754592 0.000618461)
(0.000313176 0.00081989 0.000647036)
(0.000335126 0.000880359 0.000614464)
(0.000331783 0.000929909 0.000538875)
(0.000310128 0.000962109 0.000440855)
(0.00027514 0.000969653 0.000335352)
(0.000228994 0.000942414 0.000232196)
(0.000172884 0.000868373 0.000137914)
(0.000109596 0.000737661 5.82599e-05)
(4.39314e-05 0.0005454 4.28404e-06)
(-1.54337e-05 0.000319962 1.29043e-06)
(-6.46381e-05 0.000107831 4.54451e-05)
(-0.0001067 -6.17927e-05 0.000108168)
(-0.00014433 -0.000190977 0.000180179)
(-0.000179517 -0.000288329 0.000259484)
(-0.000213078 -0.000365594 0.000345318)
(-0.000246089 -0.00043302 0.000435098)
(-0.000281201 -0.000496904 0.000521262)
(-0.000322308 -0.000559138 0.00058809)
(-0.000365334 -0.00061968 0.000612052)
(-0.000400131 -0.000678045 0.000580239)
(-0.000419514 -0.000729626 0.00050411)
(-0.0004259 -0.000767194 0.000400381)
(-0.000420156 -0.000781948 0.000283099)
(-0.000400901 -0.000761949 0.000162877)
(-0.000366708 -0.000693358 4.79877e-05)
(-0.000319028 -0.000565082 -5.33597e-05)
(-0.000262443 -0.000372436 -0.000127181)
(-7.09416e-05 -0.00018387 9.4179e-06)
(-3.18228e-05 1.41266e-05 4.75203e-05)
(-6.99397e-06 0.000173588 0.000109149)
(1.50576e-05 0.000290588 0.000183081)
(4.11391e-05 0.000372075 0.000261618)
(7.50366e-05 0.000429135 0.000335254)
(0.000119364 0.00047329 0.000392174)
(0.000175998 0.000515166 0.000422858)
(0.000245106 0.000564064 0.000430787)
(0.000314525 0.000625593 0.000442674)
(0.000363809 0.000698408 0.00045554)
(0.000380424 0.000774428 0.000446833)
(0.000362374 0.000840779 0.000412073)
(0.000313161 0.000883494 0.000358302)
(0.000238449 0.000887987 0.000296348)
(0.000145737 0.000840024 0.000236114)
(4.63677e-05 0.000729423 0.00018587)
(-4.23385e-05 0.000557288 0.000155533)
(-0.00010443 0.000352081 0.000157375)
(-0.000137445 0.000158103 0.00018763)
(-0.000152541 3.16425e-06 0.000231645)
(-0.000161961 -0.000110004 0.000282072)
(-0.000172906 -0.000189103 0.000334657)
(-0.000189786 -0.000244844 0.0003827)
(-0.000216701 -0.000287403 0.000416499)
(-0.000258019 -0.000326005 0.00042773)
(-0.000316763 -0.000369817 0.000419993)
(-0.000382882 -0.000426378 0.000418465)
(-0.000438111 -0.000496613 0.000418275)
(-0.000469698 -0.00057407 0.000397639)
(-0.000471849 -0.000646048 0.000351077)
(-0.000443684 -0.000697112 0.000283915)
(-0.00038757 -0.000710374 0.000205825)
(-0.000309224 -0.000669453 0.000126909)
(-0.000219252 -0.00056293 5.75741e-05)
(-0.000134487 -0.000391616 1.22882e-05)
(-0.00046814 -0.000185218 -0.000304419)
(-0.000376589 0.000105263 -0.000271994)
(-0.0002657 0.000349298 -0.000172514)
(-0.000142056 0.000543477 -2.12419e-05)
(-1.25959e-05 0.000701493 0.000173818)
(0.00011327 0.000840437 0.000407519)
(0.000225118 0.000973064 0.000669626)
(0.000315016 0.00110384 0.000935038)
(0.000381581 0.00122775 0.00115406)
(0.000426361 0.00133304 0.00124499)
(0.00044009 0.00140533 0.00116726)
(0.000418066 0.00144045 0.000987791)
(0.000386229 0.00144284 0.00076977)
(0.000354693 0.00140919 0.000548858)
(0.000324654 0.00133159 0.000343702)
(0.000291583 0.00119836 0.000164496)
(0.000248806 0.000998784 2.16185e-05)
(0.000189641 0.000734805 -6.79502e-05)
(0.000113385 0.000436513 -8.69089e-05)
(2.55394e-05 0.000149368 -3.76593e-05)
(-6.58686e-05 -9.29099e-05 5.72301e-05)
(-0.000153503 -0.000285788 0.000179583)
(-0.000233101 -0.000440639 0.000323791)
(-0.000301642 -0.000573067 0.000491997)
(-0.000357544 -0.000696457 0.000685363)
(-0.000402081 -0.000818136 0.000892748)
(-0.000441231 -0.000937019 0.00107838)
(-0.000481935 -0.00104357 0.00116899)
(-0.000518362 -0.00112215 0.00111163)
(-0.000534391 -0.0011651 0.000946493)
(-0.00054842 -0.001176 0.000728124)
(-0.000565024 -0.00115079 0.000492464)
(-0.000580592 -0.00108029 0.0002614)
(-0.000586617 -0.000951526 4.93198e-05)
(-0.000573927 -0.000752959 -0.000129587)
(-0.000534958 -0.000486868 -0.000254957)
(-0.000308266 -0.000222206 -0.000127079)
(-0.000230516 4.85626e-05 -8.31743e-05)
(-0.000150041 0.000271966 1.06916e-05)
(-6.42465e-05 0.0004474 0.000139821)
(2.66583e-05 0.000585257 0.000295486)
(0.000119008 0.00069987 0.000468686)
(0.000207762 0.000803514 0.000646466)
(0.00028901 0.000903326 0.000809489)
(0.000361135 0.00100086 0.000931491)
(0.00041917 0.00109303 0.000982323)
(0.000452761 0.00117588 0.000949856)
(0.000452592 0.00124317 0.000853039)
(0.000426612 0.00128539 0.000718563)
(0.000382134 0.00129317 0.00056883)
(0.000323 0.00125464 0.000420353)
(0.000251132 0.00115643 0.000285183)
(0.00016957 0.000987967 0.000174192)
(8.38232e-05 0.000747506 0.000103418)
(2.72587e-06 0.000468447 9.39454e-05)
(-6.89581e-05 0.000202026 0.000141383)
(-0.000132978 -1.78048e-05 0.000220641)
(-0.000191984 -0.000190334 0.000318124)
(-0.000247469 -0.0003252 0.000428718)
(-0.000299532 -0.000435859 0.000549283)
(-0.000348489 -0.000534266 0.000674439)
(-0.000396439 -0.000628048 0.00079306)
(-0.000447458 -0.00071984 0.000885764)
(-0.000501854 -0.000807458 0.000924499)
(-0.000550395 -0.000889206 0.00089044)
(-0.000579202 -0.000960685 0.000791821)
(-0.000589734 -0.00101115 0.000648793)
(-0.000583675 -0.00102918 0.000481984)
(-0.00056022 -0.00100063 0.000308837)
(-0.000517943 -0.000909964 0.000143858)
(-0.000458074 -0.000745197 1.41491e-06)
(-0.000385477 -0.000504579 -9.81533e-05)
(-0.000159762 -0.000262565 6.09667e-05)
(-9.65345e-05 -1.63683e-05 0.000107126)
(-4.5703e-05 0.000187923 0.000190569)
(3.49172e-06 0.000344738 0.000296022)
(5.70709e-05 0.000461792 0.000411462)
(0.000117337 0.000551606 0.000523583)
(0.000184655 0.000626829 0.000617124)
(0.000258621 0.000698068 0.000678966)
(0.000337347 0.000773649 0.000707691)
(0.000415103 0.000859767 0.000724982)
(0.000469925 0.000954288 0.000733618)
(0.000488655 0.00104795 0.0007151)
(0.000468262 0.00112619 0.000662707)
(0.000411761 0.00117324 0.00058401)
(0.000325105 0.00117239 0.000492804)
(0.000216632 0.0011074 0.000403526)
(9.88532e-05 0.000967191 0.000329812)
(-1.02604e-05 0.000754857 0.000286125)
(-9.448e-05 0.00050346 0.000284845)
(-0.000150485 0.000262535 0.00032153)
(-0.000188238 6.39886e-05 0.000380859)
(-0.000219681 -8.76947e-05 0.000452331)
(-0.000251925 -0.000200982 0.000528705)
(-0.000288568 -0.000288145 0.000601029)
(-0.000331953 -0.00036066 0.000657664)
(-0.000384606 -0.000427724 0.000687741)
(-0.000448044 -0.000497205 0.000689999)
(-0.000521482 -0.000577261 0.000684482)
(-0.000583775 -0.000668746 0.000673141)
(-0.000621367 -0.000764685 0.000637301)
(-0.000627067 -0.000850614 0.000567444)
(-0.000598572 -0.000908782 0.00046865)
(-0.000537534 -0.000919514 0.000353396)
(-0.000449705 -0.000863787 0.000236731)
(-0.000346266 -0.000728842 0.000135436)
(-0.000244299 -0.000517325 7.00991e-05)
(-0.000575627 -0.000282263 -0.000236332)
(-0.00046555 4.95325e-05 -0.000216416)
(-0.000333392 0.000338209 -0.000114043)
(-0.000186283 0.00057698 5.79528e-05)
(-3.22794e-05 0.000776982 0.000289639)
(0.000118554 0.00095426 0.000571107)
(0.000255587 0.00112189 0.00088565)
(0.000370516 0.001286 0.00120186)
(0.000459836 0.00144456 0.00146675)
(0.000526197 0.00158583 0.00160114)
(0.000561204 0.00168934 0.00155181)
(0.000544705 0.00174496 0.00136363)
(0.000507543 0.00175755 0.00111115)
(0.000463419 0.00172194 0.000843627)
(0.00041717 0.00162994 0.000590938)
(0.000366342 0.00147142 0.00037114)
(0.000304998 0.00123914 0.000198683)
(0.000227263 0.000939497 8.98487e-05)
(0.000132337 0.000604004 5.73025e-05)
(2.55217e-05 0.000277418 9.85079e-05)
(-8.50458e-05 -6.11979e-06 0.00019578)
(-0.000191956 -0.000238982 0.000332204)
(-0.000290217 -0.000430565 0.000500046)
(-0.000376321 -0.000596071 0.000697657)
(-0.000448664 -0.000749699 0.000921703)
(-0.000508694 -0.000900908 0.00115742)
(-0.000561352 -0.00105242 0.00136872)
(-0.000615863 -0.00119632 0.00148995)
(-0.000670654 -0.00131164 0.00146026)
(-0.000698965 -0.00138183 0.00128841)
(-0.00071613 -0.00140811 0.0010359)
(-0.000729081 -0.00138504 0.000751163)
(-0.000737233 -0.00130333 0.000467015)
(-0.000733807 -0.00115176 0.00020634)
(-0.000709869 -0.000922352 -1.15063e-05)
(-0.000657932 -0.000621608 -0.00016551)
(-0.000419835 -0.00031138 -3.71609e-05)
(-0.000320198 -5.14039e-06 -9.5644e-07)
(-0.000214245 0.000257156 9.92759e-05)
(-0.000100764 0.000471571 0.000248567)
(1.84512e-05 0.000647696 0.000435721)
(0.000138147 0.000799451 0.000648134)
(0.000251689 0.000938941 0.000868331)
(0.000353724 0.00107323 0.00107211)
(0.000441746 0.00120349 0.0012289)
(0.000512856 0.00132448 0.00130555)
(0.000556388 0.00143035 0.0012852)
(0.000560081 0.0015142 0.00118177)
(0.000531853 0.00156448 0.00102498)
(0.000480664 0.00157111 0.000843761)
(0.000411834 0.00152219 0.000661376)
(0.000328113 0.00140507 0.000495636)
(0.000232565 0.00121057 0.000361795)
(0.000130534 0.000941275 0.000277458)
(3.00227e-05 0.000631432 0.000258293)
(-6.38481e-05 0.000331175 0.000299942)
(-0.000151305 7.48805e-05 0.000382761)
(-0.00023405 -0.0001335 0.000492598)
(-0.000312502 -0.00030306 0.000622231)
(-0.000385566 -0.000447295 0.000765981)
(-0.000452257 -0.000578458 0.000915575)
(-0.000513619 -0.00070453 0.00105694)
(-0.000573578 -0.000828233 0.00116851)
(-0.000635782 -0.000945689 0.00122199)
(-0.000693135 -0.00105293 0.00119508)
(-0.000729832 -0.00114414 0.0010876)
(-0.000744534 -0.00120632 0.000919788)
(-0.000739059 -0.00122668 0.000717418)
(-0.00071329 -0.00119071 0.000504367)
(-0.000666111 -0.00108341 0.000301285)
(-0.000598274 -0.000894155 0.000127743)
(-0.000513889 -0.000625197 6.9486e-06)
(-0.000268271 -0.000343274 0.000170714)
(-0.000181344 -6.67185e-05 0.000216264)
(-0.000102664 0.000169948 0.00030954)
(-2.32348e-05 0.000359849 0.000434388)
(6.10074e-05 0.000510749 0.000576377)
(0.000149746 0.000635149 0.000719486)
(0.000240448 0.000744931 0.000845603)
(0.000330515 0.000848896 0.000938017)
(0.000417298 0.000953018 0.000989423)
(0.000500291 0.00106269 0.00101335)
(0.000557802 0.00117626 0.00102088)
(0.000577871 0.00128371 0.000998302)
(0.000557275 0.00136935 0.00093534)
(0.000498528 0.00141721 0.000839903)
(0.00040711 0.00141057 0.000728272)
(0.000290928 0.00133318 0.000618666)
(0.000162084 0.00117431 0.000528664)
(3.77383e-05 0.000938902 0.000474714)
(-6.62986e-05 0.000661205 0.000467672)
(-0.000145923 0.000391116 0.000503082)
(-0.000209478 0.000161622 0.000567263)
(-0.000267486 -2.14939e-05 0.000649261)
(-0.000325676 -0.000166781 0.000740339)
(-0.000385602 -0.000286735 0.000830047)
(-0.000447089 -0.000392437 0.000905266)
(-0.000510695 -0.000491495 0.000952751)
(-0.00057757 -0.000589121 0.000965698)
(-0.000653007 -0.000691872 0.000955123)
(-0.000717582 -0.000802144 0.000934489)
(-0.000758948 -0.000912884 0.000888754)
(-0.000769029 -0.00100842 0.000802739)
(-0.00074403 -0.00107021 0.000681255)
(-0.000684207 -0.0010779 0.000538968)
(-0.000594249 -0.00101191 0.000394815)
(-0.000484462 -0.000859466 0.000270153)
(-0.000370761 -0.000624968 0.000188757)
(-0.000685276 -0.000395917 -8.03587e-05)
(-0.000559514 -4.36286e-05 -8.0489e-05)
(-0.000407725 0.000274113 1.05766e-05)
(-0.000238043 0.000548203 0.000184643)
(-5.98564e-05 0.000786365 0.000431809)
(0.000116066 0.0010023 0.000738882)
(0.000278763 0.0012082 0.00108455)
(0.000419264 0.00141059 0.00143375)
(0.000532056 0.00160823 0.00173328)
(0.000616948 0.00178834 0.00191191)
(0.000665231 0.00192505 0.00190709)
(0.000656867 0.00200187 0.00173198)
(0.000617731 0.00202418 0.00146816)
(0.00056366 0.00198755 0.00117578)
(0.000503032 0.00188487 0.000894157)
(0.000436445 0.00170918 0.000648392)
(0.000359517 0.00145819 0.000455975)
(0.000266746 0.00114259 0.00033114)
(0.00015619 0.000792466 0.000282105)
(3.19482e-05 0.000447485 0.000306573)
(-9.79488e-05 0.000138733 0.0003924)
(-0.000225579 -0.000124057 0.000526201)
(-0.000345016 -0.000347379 0.000699702)
(-0.000452 -0.000544793 0.000908122)
(-0.00054424 -0.000730323 0.00114439)
(-0.000622295 -0.000914459 0.00139175)
(-0.000689668 -0.00110152 0.00161652)
(-0.000753154 -0.00128459 0.00176439)
(-0.000814039 -0.00143973 0.00177116)
(-0.000854043 -0.00154145 0.00161424)
(-0.000873935 -0.00158485 0.00135247)
(-0.000883137 -0.00156617 0.0010425)
(-0.000884069 -0.00147774 0.000726166)
(-0.000872496 -0.00131197 0.00043399)
(-0.000840256 -0.00106601 0.000189387)
(-0.000779256 -0.00075039 1.25539e-05)
(-0.000537573 -0.000408189 0.0001269)
(-0.000418964 -8.43502e-05 0.000147811)
(-0.000289296 0.000203321 0.000240844)
(-0.000149119 0.000448374 0.00039389)
(-2.10228e-06 0.000658813 0.000595275)
(0.000144741 0.000847064 0.000830123)
(0.000283111 0.00102384 0.00107775)
(0.000406156 0.00119491 0.00131072)
(0.000510054 0.00136001 0.00149624)
(0.000592188 0.00151217 0.00160079)
(0.000642789 0.00164244 0.00160221)
(0.000651336 0.0017418 0.00150605)
(0.000623347 0.00179893 0.00134295)
(0.000568377 0.00180434 0.00114661)
(0.000493 0.0017475 0.000945592)
(0.000400965 0.00161796 0.000762379)
(0.000295375 0.00140934 0.000615084)
(0.000180873 0.00112813 0.000520362)
(6.405e-05 0.000806777 0.000488907)
(-5.02346e-05 0.000490641 0.000516969)
(-0.00016094 0.000211808 0.000590812)
(-0.000268388 -2.34492e-05 0.000698641)
(-0.000371567 -0.000222907 0.00083272)
(-0.00046784 -0.000399083 0.00098553)
(-0.00055453 -0.000563453 0.00114651)
(-0.000631091 -0.000723274 0.00129973)
(-0.000700326 -0.000880359 0.00142321)
(-0.000766631 -0.00103012 0.00149077)
(-0.000827175 -0.00116514 0.00147746)
(-0.000869982 -0.00127611 0.00137405)
(-0.000888683 -0.00134996 0.00119825)
(-0.000884536 -0.00137344 0.00097837)
(-0.000858104 -0.00133306 0.00074287)
(-0.000808777 -0.00121599 0.00051716)
(-0.000736725 -0.00101437 0.00032424)
(-0.000644661 -0.000734083 0.000187454)
(-0.000387967 -0.000422812 0.000340616)
(-0.00028002 -0.000130841 0.000377554)
(-0.0001752 0.000126628 0.000468294)
(-6.645e-05 0.000342033 0.000598621)
(4.80182e-05 0.00052283 0.000753867)
(0.000165008 0.000680606 0.000916663)
(0.000279092 0.000825318 0.00106687)
(0.000385596 0.000963014 0.00118476)
(0.000481398 0.00109659 0.00125777)
(0.000567125 0.00122899 0.00129086)
(0.000626715 0.00135997 0.00130143)
(0.000649162 0.00147924 0.00128077)
(0.000630632 0.00157037 0.00121592)
(0.000573185 0.00161808 0.00111457)
(0.000481602 0.00160707 0.0009943)
(0.000362879 0.00152258 0.000875591)
(0.000227954 0.00135509 0.000777885)
(9.25706e-05 0.00111082 0.000717255)
(-2.82795e-05 0.000822866 0.000702249)
(-0.000129866 0.000538549 0.000729068)
(-0.000218872 0.00028999 0.000787319)
(-0.000304135 8.34762e-05 0.000868038)
(-0.000389539 -8.93647e-05 0.000962695)
(-0.000474189 -0.000240421 0.00106023)
(-0.000555283 -0.000379323 0.00114651)
(-0.000631319 -0.000511329 0.00120641)
(-0.000703262 -0.000638414 0.0012288)
(-0.000775986 -0.000763479 0.00121653)
(-0.000840399 -0.00089106 0.00118968)
(-0.000885076 -0.00101455 0.00113821)
(-0.00090012 -0.00111792 0.00104466)
(-0.000880531 -0.00118263 0.000912596)
(-0.000825171 -0.00118894 0.00075711)
(-0.000737344 -0.00111814 0.000599006)
(-0.000625821 -0.000958361 0.000461691)
(-0.000504756 -0.000715236 0.000369313)
(-0.00079918 -0.000519865 0.000153443)
(-0.000660591 -0.000164346 0.000128767)
(-0.000490809 0.000167917 0.000197606)
(-0.000299203 0.000467136 0.0003573)
(-9.68165e-05 0.00073796 0.000599791)
(0.000104347 0.000991233 0.000910708)
(0.00029235 0.00123719 0.00126666)
(0.000456944 0.00148112 0.00163208)
(0.000590519 0.00172059 0.00195693)
(0.000689456 0.00194107 0.0021772)
(0.000746647 0.00211265 0.00222157)
(0.000750228 0.00221223 0.00207672)
(0.000712394 0.00224413 0.00182409)
(0.000651982 0.00220808 0.00152948)
(0.000580541 0.0020996 0.00123844)
(0.000501835 0.00191586 0.000981473)
(0.000413339 0.00165958 0.000778107)
(0.000309602 0.00134462 0.000640394)
(0.000186769 0.000997977 0.000573224)
(4.69093e-05 0.000652106 0.000574889)
(-0.000102386 0.000332991 0.000638416)
(-0.000252364 5.0895e-05 0.000755019)
(-0.000395729 -0.000198028 0.000917469)
(-0.000526789 -0.000425115 0.00111929)
(-0.000641603 -0.000643132 0.00135116)
(-0.000738645 -0.000862022 0.0015962)
(-0.000819066 -0.00108576 0.00182504)
(-0.000886746 -0.00130777 0.00199233)
(-0.00094719 -0.00150386 0.00203411)
(-0.000995852 -0.00164147 0.00191095)
(-0.0010176 -0.00170493 0.00166422)
(-0.00102425 -0.00169427 0.00135313)
(-0.00102019 -0.00160513 0.00102628)
(-0.00100353 -0.0014347 0.000720121)
(-0.00096688 -0.00118562 0.000460855)
(-0.000901016 -0.000871543 0.000267432)
(-0.000658415 -0.000507048 0.000356604)
(-0.000524677 -0.00018035 0.000357163)
(-0.000374399 0.000120004 0.000432294)
(-0.000209823 0.000386486 0.000574611)
(-3.65499e-05 0.000625486 0.000773723)
(0.000136476 0.000847499 0.00101406)
(0.000299078 0.00106106 0.0012735)
(0.000442591 0.00126965 0.00152345)
(0.000561516 0.00147067 0.00173089)
(0.000652813 0.00165535 0.00186237)
(0.000709524 0.00181084 0.00189038)
(0.000724479 0.00192544 0.00181258)
(0.000698898 0.00198951 0.00165845)
(0.000642676 0.00199504 0.00146372)
(0.000563582 0.00193402 0.00125986)
(0.000466443 0.00179917 0.00107227)
(0.000354486 0.00158752 0.000920333)
(0.000231396 0.00130828 0.000818428)
(0.000101933 0.000990677 0.00077322)
(-2.99163e-05 0.000673556 0.000782037)
(-0.000162289 0.000385162 0.000836989)
(-0.00029408 0.000132618 0.000930384)
(-0.000422664 -9.05032e-05 0.00105544)
(-0.000543544 -0.000295263 0.00120383)
(-0.000651914 -0.000491583 0.00136374)
(-0.000744988 -0.00068509 0.00151869)
(-0.000823642 -0.000875939 0.00164765)
(-0.000892062 -0.00105865 0.00172643)
(-0.000952677 -0.00122205 0.00172908)
(-0.000999035 -0.00135369 0.00164066)
(-0.00102059 -0.00144079 0.00147297)
(-0.00101799 -0.00146999 0.00125376)
(-0.000992273 -0.00142981 0.00101368)
(-0.00094318 -0.00131053 0.00078102)
(-0.000870219 -0.00110769 0.000580312)
(-0.000774397 -0.000829879 0.00043328)
(-0.000511074 -0.000496382 0.000563996)
(-0.000386524 -0.00020129 0.000586396)
(-0.000259693 6.62506e-05 0.000664468)
(-0.000125161 0.000298868 0.000787952)
(1.67621e-05 0.000503715 0.000943598)
(0.000160218 0.00069108 0.00111391)
(0.000297089 0.000868487 0.00127772)
(0.000420572 0.00103881 0.00141332)
(0.000526747 0.0012015 0.00150439)
(0.000615216 0.00135628 0.00154949)
(0.000677646 0.00150371 0.00156632)
(0.000703277 0.00163362 0.00155155)
(0.000688082 0.00172995 0.00149297)
(0.000633716 0.00177833 0.00139666)
(0.000544401 0.00176562 0.00127971)
(0.000426242 0.00167949 0.00116298)
(0.000288781 0.00151222 0.00106581)
(0.000146128 0.00127044 0.00100217)
(1.22385e-05 0.000984803 0.000977936)
(-0.000107833 0.000698641 0.000990576)
(-0.000219457 0.000441998 0.00103419)
(-0.000330011 0.000220707 0.00110353)
(-0.000441569 2.6479e-05 0.00119154)
(-0.000550848 -0.000151584 0.00128732)
(-0.000652463 -0.000321163 0.00137628)
(-0.000742597 -0.000484792 0.00144223)
(-0.000821271 -0.000640986 0.0014716)
(-0.000891762 -0.000788689 0.00146193)
(-0.000956154 -0.000932913 0.00143116)
(-0.00100245 -0.00106783 0.00137685)
(-0.00102107 -0.00117869 0.00128432)
(-0.00100651 -0.0012474 0.00115394)
(-0.00095651 -0.0012554 0.000999224)
(-0.000872868 -0.0011856 0.000840744)
(-0.000762578 -0.00102737 0.000701515)
(-0.000637888 -0.000786983 0.000603722)
(-0.00091554 -0.00064628 0.000450096)
(-0.000766424 -0.000300666 0.000399678)