/*--------------------------------*- C++ -*----------------------------------*\
| =========                 |                                                 |
| \\      /  F ield         | OpenFOAM: The Open Source CFD Toolbox           |
|  \\    /   O peration     | Version:  2312                                  |
|   \\  /    A nd           | Website:  www.openfoam.com                      |
|    \\/     M anipulation  |                                                 |
\*---------------------------------------------------------------------------*/
FoamFile
{
    version     2.0;
    format      ascii;
    arch        "LSB;label=32;scalar=64";
    class       volVectorField;
    location    "0.3";
    object      D_0_0;
}
// * * * * * * * * * * * * * * * * * * * * * * * * * * * * * * * * * * * * * //

dimensions      [0 1 0 0 0 0 0];

internalField   nonuniform List<vector> 
1620
(
(0.000298668 -9.46532e-05 6.34159e-05)
(0.000260548 -0.000116271 9.93766e-06)
(0.000214008 -0.000146332 -3.00634e-05)
(0.000171472 -0.000169293 -5.39643e-05)
(0.000139944 -0.000180687 -6.62738e-05)
(0.000121279 -0.000180958 -7.08226e-05)
(0.000113955 -0.000171045 -6.9511e-05)
(0.000114149 -0.000151122 -6.32878e-05)
(0.000116386 -0.000121047 -5.27956e-05)
(0.000114265 -8.11769e-05 -3.84149e-05)
(0.00010126 -3.30347e-05 -2.00805e-05)
(7.16177e-05 2.01666e-05 2.79993e-06)
(2.15488e-05 7.29808e-05 3.10524e-05)
(-4.89282e-05 0.000117434 6.46806e-05)
(-0.000133593 0.000144019 0.000100592)
(-0.000218502 0.000145583 0.000129626)
(-0.000283996 0.000124449 0.000136854)
(-0.000311637 9.92124e-05 0.000112083)
(-0.000298668 9.46532e-05 6.34159e-05)
(-0.000260548 0.000116271 9.93766e-06)
(-0.000214008 0.000146332 -3.00634e-05)
(-0.000171472 0.000169293 -5.39643e-05)
(-0.000139944 0.000180687 -6.62738e-05)
(-0.000121279 0.000180958 -7.08226e-05)
(-0.000113955 0.000171045 -6.9511e-05)
(-0.000114149 0.000151122 -6.32878e-05)
(-0.000116386 0.000121047 -5.27956e-05)
(-0.000114265 8.11769e-05 -3.84149e-05)
(-0.00010126 3.30347e-05 -2.00805e-05)
(-7.16177e-05 -2.01666e-05 2.79993e-06)
(-2.15488e-05 -7.29808e-05 3.10524e-05)
(4.89282e-05 -0.000117434 6.46806e-05)
(0.000133593 -0.000144019 0.000100592)
(0.000218502 -0.000145583 0.000129626)
(0.000283996 -0.000124449 0.000136854)
(0.000311637 -9.92124e-05 0.000112083)
(0.000238945 -0.000144194 4.2996e-05)
(0.000240635 -0.000157846 2.16866e-05)
(0.000231227 -0.00016083 1.40904e-06)
(0.000213606 -0.000151909 -1.68556e-05)
(0.000191355 -0.000135117 -3.28516e-05)
(0.0001681 -0.000114745 -4.53144e-05)
(0.000146382 -9.30628e-05 -5.2874e-05)
(0.00012682 -7.04206e-05 -5.47754e-05)
(0.000108078 -4.62991e-05 -5.0946e-05)
(8.75045e-05 -2.03399e-05 -4.17738e-05)
(6.20843e-05 7.04427e-06 -2.78943e-05)
(2.94425e-05 3.45168e-05 -1.01126e-05)
(-1.1277e-05 6.00422e-05 1.04852e-05)
(-5.87825e-05 8.14247e-05 3.2173e-05)
(-0.000109438 9.71727e-05 5.19992e-05)
(-0.000157759 0.000107659 6.55311e-05)
(-0.000197709 0.000116223 6.84688e-05)
(-0.000225019 0.000128427 6.01064e-05)
(-0.000238945 0.000144194 4.2996e-05)
(-0.000240635 0.000157846 2.16866e-05)
(-0.000231227 0.00016083 1.40904e-06)
(-0.000213606 0.000151909 -1.68556e-05)
(-0.000191355 0.000135117 -3.28516e-05)
(-0.0001681 0.000114745 -4.53144e-05)
(-0.000146382 9.30628e-05 -5.2874e-05)
(-0.00012682 7.04206e-05 -5.47754e-05)
(-0.000108078 4.62991e-05 -5.0946e-05)
(-8.75045e-05 2.03399e-05 -4.17738e-05)
(-6.20843e-05 -7.04426e-06 -2.78943e-05)
(-2.94425e-05 -3.45168e-05 -1.01126e-05)
(1.1277e-05 -6.00422e-05 1.04852e-05)
(5.87825e-05 -8.14247e-05 3.2173e-05)
(0.000109438 -9.71727e-05 5.19992e-05)
(0.000157759 -0.000107659 6.55311e-05)
(0.000197709 -0.000116223 6.84688e-05)
(0.000225019 -0.000128427 6.01064e-05)
(0.000172399 -0.000171227 2.36415e-05)
(0.000199653 -0.000184709 2.17058e-05)
(0.000219472 -0.000173577 1.47142e-05)
(0.000226722 -0.00014425 1.25293e-06)
(0.00021986 -0.000106357 -1.61932e-05)
(0.000200987 -6.77188e-05 -3.32432e-05)
(0.000173774 -3.30985e-05 -4.61303e-05)
(0.000141593 -4.71922e-06 -5.26285e-05)
(0.000106774 1.67579e-05 -5.19887e-05)
(7.07418e-05 3.14529e-05 -4.46567e-05)
(3.45509e-05 3.99144e-05 -3.20588e-05)
(-5.75335e-07 4.32304e-05 -1.64328e-05)
(-3.30139e-05 4.34854e-05 -5.91497e-07)
(-6.10556e-05 4.42556e-05 1.25213e-05)
(-8.38076e-05 5.06059e-05 2.06309e-05)
(-0.000102404 6.79127e-05 2.3385e-05)
(-0.000120757 9.88117e-05 2.3317e-05)
(-0.000144042 0.000138107 2.35655e-05)
(-0.000172399 0.000171227 2.36415e-05)
(-0.000199653 0.000184709 2.17058e-05)
(-0.000219472 0.000173577 1.47142e-05)
(-0.000226722 0.00014425 1.25293e-06)
(-0.00021986 0.000106357 -1.61932e-05)
(-0.000200987 6.77188e-05 -3.32432e-05)
(-0.000173774 3.30985e-05 -4.61303e-05)
(-0.000141593 4.71922e-06 -5.26285e-05)
(-0.000106774 -1.67579e-05 -5.19887e-05)
(-7.07418e-05 -3.14529e-05 -4.46567e-05)
(-3.45509e-05 -3.99144e-05 -3.20588e-05)
(5.75334e-07 -4.32304e-05 -1.64328e-05)
(3.30139e-05 -4.34854e-05 -5.91497e-07)
(6.10556e-05 -4.42556e-05 1.25213e-05)
(8.38076e-05 -5.06059e-05 2.06309e-05)
(0.000102404 -6.79127e-05 2.3385e-05)
(0.000120757 -9.88117e-05 2.3317e-05)
(0.000144042 -0.000138107 2.35655e-05)
(0.000792135 -0.000374935 0.000224075)
(0.000734106 -0.000429801 6.4041e-05)
(0.000641848 -0.000477539 -6.92208e-05)
(0.0005471 -0.000497114 -0.000165503)
(0.000467172 -0.000487949 -0.000228394)
(0.000408527 -0.00045656 -0.000262807)
(0.000370894 -0.000408102 -0.000272645)
(0.000348548 -0.000344142 -0.000261199)
(0.000331152 -0.000264202 -0.000231258)
(0.000305302 -0.000168175 -0.000184627)
(0.000256674 -5.8241e-05 -0.000121662)
(0.000172598 5.99036e-05 -4.14517e-05)
(4.51446e-05 0.000176411 5.6782e-05)
(-0.000125028 0.000277577 0.000170493)
(-0.000324606 0.000348276 0.000288528)
(-0.000525727 0.000378121 0.000385381)
(-0.000690571 0.000371316 0.000421562)
(-0.000784142 0.000355642 0.000362524)
(-0.000792135 0.000374935 0.000224075)
(-0.000734106 0.000429801 6.4041e-05)
(-0.000641848 0.000477539 -6.92208e-05)
(-0.0005471 0.000497114 -0.000165503)
(-0.000467172 0.000487949 -0.000228394)
(-0.000408527 0.00045656 -0.000262807)
(-0.000370894 0.000408102 -0.000272645)
(-0.000348548 0.000344142 -0.000261199)
(-0.000331152 0.000264202 -0.000231258)
(-0.000305302 0.000168175 -0.000184627)
(-0.000256674 5.8241e-05 -0.000121662)
(-0.000172598 -5.99036e-05 -4.14517e-05)
(-4.51446e-05 -0.000176411 5.6782e-05)
(0.000125028 -0.000277577 0.000170493)
(0.000324606 -0.000348276 0.000288528)
(0.000525727 -0.000378121 0.000385381)
(0.000690571 -0.000371316 0.000421562)
(0.000784142 -0.000355642 0.000362524)
(0.000687845 -0.000448256 0.000191489)
(0.000690378 -0.000489556 0.000110745)
(0.000664297 -0.000496444 2.85867e-05)
(0.000616947 -0.000469362 -4.76482e-05)
(0.000556882 -0.000418894 -0.000111821)
(0.000493001 -0.000356571 -0.000158943)
(0.000431434 -0.000289363 -0.000185913)
(0.000373522 -0.000219447 -0.000191674)
(0.000315793 -0.000146546 -0.000176761)
(0.00025155 -7.03769e-05 -0.000142639)
(0.000173278 7.85055e-06 -9.12488e-05)
(7.52108e-05 8.50728e-05 -2.50403e-05)
(-4.43531e-05 0.000156973 5.24292e-05)
(-0.000181358 0.000219334 0.000135235)
(-0.000325497 0.000269946 0.000213282)
(-0.000461744 0.000310652 0.00027093)
(-0.000574326 0.000348405 0.000289232)
(-0.000650652 0.000394688 0.000257803)
(-0.000687845 0.000448256 0.000191489)
(-0.000690378 0.000489556 0.000110745)
(-0.000664297 0.000496444 2.85867e-05)
(-0.000616947 0.000469362 -4.76482e-05)
(-0.000556882 0.000418894 -0.000111821)
(-0.000493001 0.000356571 -0.000158943)
(-0.000431434 0.000289363 -0.000185913)
(-0.000373522 0.000219447 -0.000191674)
(-0.000315793 0.000146546 -0.000176761)
(-0.00025155 7.03769e-05 -0.000142639)
(-0.000173278 -7.85055e-06 -9.12488e-05)
(-7.52108e-05 -8.50728e-05 -2.50403e-05)
(4.43531e-05 -0.000156973 5.24292e-05)
(0.000181358 -0.000219334 0.000135235)
(0.000325497 -0.000269946 0.000213282)
(0.000461744 -0.000310652 0.00027093)
(0.000574326 -0.000348405 0.000289232)
(0.000650652 -0.000394688 0.000257803)
(0.000556588 -0.000494272 0.000155685)
(0.000612097 -0.000533288 0.000137278)
(0.000647235 -0.000515448 0.000100516)
(0.000648861 -0.000454267 4.56989e-05)
(0.000616402 -0.000369462 -1.5763e-05)
(0.000557802 -0.000277828 -7.1064e-05)
(0.000482495 -0.000189748 -0.000110701)
(0.00039716 -0.000110073 -0.000129332)
(0.000304827 -4.05469e-05 -0.00012522)
(0.000206078 1.81759e-05 -9.95466e-05)
(0.0001011 6.56827e-05 -5.59902e-05)
(-8.3715e-06 0.000102232 -4.79164e-07)
(-0.000117971 0.000130126 5.91713e-05)
(-0.000221091 0.000155215 0.000114058)
(-0.000310992 0.000187202 0.000155619)
(-0.000384043 0.000237326 0.000177749)
(-0.000442794 0.000312785 0.000179891)
(-0.000497076 0.000409107 0.000169706)
(-0.000556588 0.000494272 0.000155685)
(-0.000612097 0.000533288 0.000137278)
(-0.000647235 0.000515448 0.000100516)
(-0.000648861 0.000454267 4.56989e-05)
(-0.000616402 0.000369462 -1.5763e-05)
(-0.000557802 0.000277828 -7.1064e-05)
(-0.000482495 0.000189748 -0.000110701)
(-0.00039716 0.000110073 -0.000129332)
(-0.000304827 4.05469e-05 -0.00012522)
(-0.000206078 -1.81759e-05 -9.95466e-05)
(-0.0001011 -6.56827e-05 -5.59902e-05)
(8.3715e-06 -0.000102232 -4.79166e-07)
(0.000117971 -0.000130126 5.91713e-05)
(0.000221091 -0.000155215 0.000114058)
(0.000310992 -0.000187202 0.000155619)
(0.000384043 -0.000237326 0.000177749)
(0.000442794 -0.000312785 0.000179891)
(0.000497076 -0.000409107 0.000169706)
(0.00121704 -0.00074571 0.000480737)
(0.00115157 -0.000800006 0.00019555)
(0.00102779 -0.000830187 -6.80712e-05)
(0.000891398 -0.000826751 -0.000277481)
(0.000768827 -0.000789794 -0.000425609)
(0.000672005 -0.000726119 -0.000515179)
(0.00060267 -0.00064142 -0.000552328)
(0.000554154 -0.00053726 -0.000543869)
(0.000512699 -0.000412582 -0.000495562)
(0.000459756 -0.000266754 -0.000410874)
(0.000375259 -0.000102234 -0.000290607)
(0.000241642 7.37689e-05 -0.000133995)
(4.85165e-05 0.000248843 5.81883e-05)
(-0.000202211 0.000406712 0.000278136)
(-0.000491974 0.00053145 0.000503593)
(-0.000784522 0.000614807 0.00069133)
(-0.001031 0.000663394 0.000778741)
(-0.00118259 0.000699368 0.000707568)
(-0.00121704 0.00074571 0.000480737)
(-0.00115157 0.000800006 0.00019555)
(-0.00102779 0.000830187 -6.80712e-05)
(-0.000891398 0.000826751 -0.000277481)
(-0.000768827 0.000789794 -0.000425609)
(-0.000672005 0.000726119 -0.000515179)
(-0.00060267 0.00064142 -0.000552328)
(-0.000554154 0.00053726 -0.000543869)
(-0.000512699 0.000412582 -0.000495562)
(-0.000459756 0.000266754 -0.000410874)
(-0.000375259 0.000102234 -0.000290607)
(-0.000241642 -7.37689e-05 -0.000133995)
(-4.85165e-05 -0.000248843 5.81883e-05)
(0.000202211 -0.000406712 0.000278136)
(0.000491974 -0.00053145 0.000503593)
(0.000784522 -0.000614807 0.00069133)
(0.001031 -0.000663394 0.000778741)
(0.00118259 -0.000699368 0.000707568)
(0.00107495 -0.000759124 0.000435994)
(0.0010849 -0.000810949 0.000272194)
(0.00104776 -0.000812779 9.58132e-05)
(0.000976254 -0.000767853 -6.57312e-05)
(0.000884845 -0.000688824 -0.000198081)
(0.000786689 -0.000590477 -0.000293218)
(0.000690304 -0.000482574 -0.000347385)
(0.000597313 -0.00036895 -0.000360111)
(0.000502619 -0.000250161 -0.000333022)
(0.000396712 -0.000126588 -0.000268775)
(0.000269099 -4.2101e-07 -0.000170656)
(0.000112043 0.000123855 -4.31019e-05)
(-7.60753e-05 0.000240383 0.000106852)
(-0.000288427 0.00034403 0.000267401)
(-0.000509335 0.000433215 0.000419682)
(-0.000716891 0.000512259 0.000537)
(-0.000889139 0.000590427 0.000588685)
(-0.00101013 0.00067503 0.00055181)
(-0.00107495 0.000759124 0.000435994)
(-0.0010849 0.000810949 0.000272194)
(-0.00104776 0.000812779 9.58132e-05)
(-0.000976254 0.000767853 -6.57312e-05)
(-0.000884845 0.000688824 -0.000198081)
(-0.000786689 0.000590477 -0.000293218)
(-0.000690304 0.000482574 -0.000347385)
(-0.000597313 0.00036895 -0.000360111)
(-0.000502619 0.000250161 -0.000333022)
(-0.000396712 0.000126588 -0.000268775)
(-0.000269099 4.21015e-07 -0.000170656)
(-0.000112043 -0.000123855 -4.31019e-05)
(7.60753e-05 -0.000240383 0.000106852)
(0.000288427 -0.00034403 0.000267401)
(0.000509335 -0.000433215 0.000419682)
(0.000716891 -0.000512259 0.000537)
(0.000889139 -0.000590427 0.000588685)
(0.00101013 -0.00067503 0.00055181)
(0.000891207 -0.000761208 0.000373564)
(0.00097032 -0.000821193 0.000316983)
(0.0010158 -0.000807682 0.0002285)
(0.00101149 -0.000731985 0.000119623)
(0.000959231 -0.00061739 8.59074e-06)
(0.000870589 -0.000486248 -8.6811e-05)
(0.000758083 -0.000353635 -0.000153146)
(0.000629997 -0.000227532 -0.000182581)
(0.000489536 -0.000111769 -0.000172527)
(0.000336743 -8.65093e-06 -0.000124894)
(0.000171496 7.99721e-05 -4.56279e-05)
(-3.69098e-06 0.000153328 5.55013e-05)
(-0.000182095 0.000213548 0.000165344)
(-0.000353254 0.000267548 0.000268728)
(-0.000505708 0.000327117 0.000351168)
(-0.000631185 0.000405589 0.000402576)
(-0.000729073 0.000510526 0.000419939)
(-0.000808991 0.000639804 0.000406504)
(-0.000891207 0.000761208 0.000373564)
(-0.00097032 0.000821193 0.000316983)
(-0.0010158 0.000807682 0.0002285)
(-0.00101149 0.000731985 0.000119623)
(-0.000959231 0.00061739 8.59074e-06)
(-0.000870589 0.000486248 -8.6811e-05)
(-0.000758083 0.000353635 -0.000153146)
(-0.000629997 0.000227532 -0.000182581)
(-0.000489536 0.000111769 -0.000172527)
(-0.000336743 8.65094e-06 -0.000124894)
(-0.000171496 -7.99721e-05 -4.56279e-05)
(3.69097e-06 -0.000153328 5.55013e-05)
(0.000182095 -0.000213548 0.000165344)
(0.000353254 -0.000267548 0.000268728)
(0.000505708 -0.000327117 0.000351168)
(0.000631185 -0.000405589 0.000402576)
(0.000729073 -0.000510526 0.000419939)
(0.000808991 -0.000639804 0.000406504)
(0.00152481 -0.00115828 0.000760713)
(0.00146796 -0.00119769 0.000372468)
(0.00133609 -0.00119934 -1.85468e-05)
(0.00117747 -0.0011655 -0.000353291)
(0.00102575 -0.00109818 -0.000604163)
(0.000898495 -0.00100283 -0.000765578)
(0.000799897 -0.000884026 -0.000843739)
(0.000723288 -0.000742842 -0.000848528)
(0.000653363 -0.000577988 -0.000788529)
(0.000569148 -0.000388719 -0.000668743)
(0.000447997 -0.000177635 -0.00049064)
(0.000270535 4.75435e-05 -0.000254637)
(2.63142e-05 0.000273855 3.47999e-05)
(-0.000280522 0.000485414 0.000361755)
(-0.000627352 0.000668837 0.000691059)
(-0.000973767 0.000820621 0.000964312)
(-0.00126842 0.000950656 0.00110521)
(-0.00146104 0.00107047 0.00104072)
(-0.00152481 0.00115828 0.000760713)
(-0.00146796 0.00119769 0.000372468)
(-0.00133609 0.00119934 -1.85468e-05)
(-0.00117747 0.0011655 -0.000353291)
(-0.00102575 0.00109818 -0.000604163)
(-0.000898495 0.00100283 -0.000765578)
(-0.000799897 0.000884026 -0.000843739)
(-0.000723288 0.000742842 -0.000848528)
(-0.000653363 0.000577988 -0.000788529)
(-0.000569148 0.000388719 -0.000668743)
(-0.000447997 0.000177635 -0.00049064)
(-0.000270535 -4.75435e-05 -0.000254637)
(-2.63142e-05 -0.000273855 3.47999e-05)
(0.000280522 -0.000485414 0.000361755)
(0.000627352 -0.000668837 0.000691059)
(0.000973767 -0.000820621 0.000964312)
(0.00126842 -0.000950656 0.00110521)
(0.00146104 -0.00107047 0.00104072)
(0.00137706 -0.00105973 0.000690367)
(0.00139353 -0.00111614 0.000450595)
(0.0013486 -0.00110963 0.00018478)
(0.00126004 -0.00104931 -6.37783e-05)
(0.00114624 -0.000949029 -0.000269297)
(0.00102304 -0.000823543 -0.000417906)
(0.000900017 -0.000683071 -0.000504194)
(0.000778529 -0.000532335 -0.000528086)
(0.000652328 -0.000372908 -0.000492215)
(0.000510377 -0.000206203 -0.000400343)
(0.000340843 -3.54715e-05 -0.000257154)
(0.000135459 0.000133737 -6.94693e-05)
(-0.000106578 0.000294721 0.000151431)
(-0.000376075 0.000442099 0.000387031)
(-0.000653767 0.000574865 0.000609655)
(-0.000913789 0.000698301 0.000783606)
(-0.00113114 0.00082162 0.000871396)
(-0.00128891 0.000948554 0.000843025)
(-0.00137706 0.00105973 0.000690367)
(-0.00139353 0.00111614 0.000450595)
(-0.0013486 0.00110963 0.00018478)
(-0.00126004 0.00104931 -6.37783e-05)
(-0.00114624 0.000949029 -0.000269297)
(-0.00102304 0.000823543 -0.000417906)
(-0.000900017 0.000683071 -0.000504194)
(-0.000778529 0.000532335 -0.000528086)
(-0.000652328 0.000372908 -0.000492215)
(-0.000510377 0.000206203 -0.000400343)
(-0.000340843 3.54716e-05 -0.000257154)
(-0.000135459 -0.000133737 -6.94693e-05)
(0.000106578 -0.000294721 0.000151431)
(0.000376075 -0.000442099 0.000387031)
(0.000653767 -0.000574865 0.000609655)
(0.000913789 -0.000698301 0.000783606)
(0.00113114 -0.00082162 0.000871396)
(0.00128891 -0.000948554 0.000843025)
(0.00119744 -0.00097566 0.000597032)
(0.00127356 -0.0010483 0.000497222)
(0.00130931 -0.00104053 0.000358194)
(0.00129148 -0.000961246 0.000200373)
(0.00122212 -0.000832766 4.5549e-05)
(0.00111253 -0.000678228 -8.51005e-05)
(0.000975013 -0.0005145 -0.000174844)
(0.000817436 -0.000351596 -0.000213581)
(0.000642304 -0.000195345 -0.000197909)
(0.000448985 -4.99655e-05 -0.000130403)
(0.000237118 8.09733e-05 -1.91224e-05)
(9.7525e-06 0.000195358 0.000122617)
(-0.000224961 0.000294474 0.000276916)
(-0.000454392 0.000384685 0.000423304)
(-0.000664384 0.000476919 0.000542505)
(-0.000843549 0.00058276 0.000621155)
(-0.000987689 0.00070797 0.000654926)
(-0.00110226 0.000846894 0.000646736)
(-0.00119744 0.00097566 0.000597032)
(-0.00127356 0.0010483 0.000497222)
(-0.00130931 0.00104053 0.000358194)
(-0.00129148 0.000961246 0.000200373)
(-0.00122212 0.000832766 4.5549e-05)
(-0.00111253 0.000678228 -8.51005e-05)
(-0.000975013 0.0005145 -0.000174844)
(-0.000817436 0.000351596 -0.000213581)
(-0.000642304 0.000195345 -0.000197909)
(-0.000448985 4.99655e-05 -0.000130403)
(-0.000237118 -8.09733e-05 -1.91224e-05)
(-9.75251e-06 -0.000195358 0.000122617)
(0.000224961 -0.000294474 0.000276916)
(0.000454392 -0.000384685 0.000423304)
(0.000664384 -0.000476919 0.000542505)
(0.000843549 -0.00058276 0.000621155)
(0.000987689 -0.00070797 0.000654926)
(0.00110226 -0.000846894 0.000646736)
(0.00170741 -0.00149364 0.000982812)
(0.00167428 -0.00155387 0.000546872)
(0.00155194 -0.00155319 6.21144e-05)
(0.00138844 -0.001504 -0.00038063)
(0.00122223 -0.00141512 -0.000728886)
(0.00107514 -0.0012939 -0.00096441)
(0.00095331 -0.00114529 -0.00109009)
(0.000850431 -0.000970872 -0.00111676)
(0.000751116 -0.000770038 -0.00105461)
(0.000634392 -0.000542545 -0.000909723)
(0.000477998 -0.000291128 -0.00068448)
(0.000263672 -2.32065e-05 -0.000381425)
(-1.68777e-05 0.000249238 -1.01732e-05)
(-0.000356465 0.000512478 0.00040387)
(-0.00072969 0.000756418 0.000812291)
(-0.0010955 0.000979268 0.00114327)
(-0.00140551 0.00118449 0.00131408)
(-0.00161756 0.00136479 0.00126158)
(-0.00170741 0.00149364 0.000982812)
(-0.00167428 0.00155387 0.000546872)
(-0.00155194 0.00155319 6.21144e-05)
(-0.00138844 0.001504 -0.00038063)
(-0.00122223 0.00141512 -0.000728886)
(-0.00107514 0.0012939 -0.00096441)
(-0.00095331 0.00114529 -0.00109009)
(-0.000850431 0.000970872 -0.00111676)
(-0.000751116 0.000770038 -0.00105461)
(-0.000634392 0.000542545 -0.000909723)
(-0.000477998 0.000291128 -0.00068448)
(-0.000263672 2.32066e-05 -0.000381425)
(1.68777e-05 -0.000249238 -1.01732e-05)
(0.000356465 -0.000512478 0.00040387)
(0.00072969 -0.000756418 0.000812291)
(0.0010955 -0.000979268 0.00114327)
(0.00140551 -0.00118449 0.00131408)
(0.00161756 -0.00136479 0.00126158)
(0.00157471 -0.00131018 0.000865832)
(0.00159715 -0.00137563 0.000593062)
(0.00155057 -0.00137241 0.000269312)
(0.00145373 -0.00130846 -4.76149e-05)
(0.00132767 -0.00119818 -0.000316533)
(0.00118954 -0.00105597 -0.000514859)
(0.00104898 -0.000892141 -0.000633707)
(0.000906795 -0.000712179 -0.00067225)
(0.000756173 -0.000518804 -0.000633429)
(0.000585777 -0.000314586 -0.000521773)
(0.000383929 -0.000103732 -0.000343332)
(0.000143106 0.000107562 -0.000107471)
(-0.000136094 0.000312337 0.000170161)
(-0.000442602 0.0005054 0.000464647)
(-0.000755388 0.000686088 0.000740572)
(-0.00104769 0.000858815 0.000954488)
(-0.00129368 0.00102797 0.0010623)
(-0.00147337 0.00118641 0.00103272)
(-0.00157471 0.00131018 0.000865832)
(-0.00159715 0.00137563 0.000593062)
(-0.00155057 0.00137241 0.000269312)
(-0.00145373 0.00130846 -4.76149e-05)
(-0.00132767 0.00119818 -0.000316533)
(-0.00118954 0.00105597 -0.000514859)
(-0.00104898 0.000892141 -0.000633707)
(-0.000906795 0.000712179 -0.00067225)
(-0.000756173 0.000518804 -0.000633429)
(-0.000585777 0.000314586 -0.000521773)
(-0.000383929 0.000103732 -0.000343332)
(-0.000143106 -0.000107562 -0.000107471)
(0.000136094 -0.000312337 0.000170161)
(0.000442602 -0.0005054 0.000464647)
(0.000755388 -0.000686088 0.000740572)
(0.00104769 -0.000858815 0.000954488)
(0.00129368 -0.00102797 0.0010623)
(0.00147337 -0.00118641 0.00103272)
(0.00143293 -0.00115374 0.000737227)
(0.00149383 -0.0012199 0.000615533)
(0.00151035 -0.00121547 0.000450438)
(0.00147648 -0.00114055 0.000262021)
(0.0013939 -0.00101123 7.66622e-05)
(0.00127164 -0.000847742 -8.007e-05)
(0.00111994 -0.000666479 -0.000187965)
(0.000945235 -0.000478265 -0.000234572)
(0.000749006 -0.000290299 -0.000215509)
(0.000529994 -0.000108368 -0.000133791)
(0.000287635 6.24087e-05 7.51331e-07)
(2.51848e-05 0.000218502 0.000171896)
(-0.000248716 0.000359803 0.000358138)
(-0.000520774 0.000490875 0.000535442)
(-0.000775875 0.000619917 0.000681594)
(-0.00100082 0.000754777 0.000780412)
(-0.00118719 0.000897195 0.000823245)
(-0.00133135 0.00103752 0.000807758)
(-0.00143293 0.00115374 0.000737227)
(-0.00149383 0.0012199 0.000615533)
(-0.00151035 0.00121547 0.000450438)
(-0.00147648 0.00114055 0.000262021)
(-0.0013939 0.00101123 7.66622e-05)
(-0.00127164 0.000847742 -8.007e-05)
(-0.00111994 0.000666479 -0.000187965)
(-0.000945235 0.000478265 -0.000234572)
(-0.000749006 0.000290299 -0.000215509)
(-0.000529994 0.000108368 -0.000133791)
(-0.000287635 -6.24087e-05 7.51327e-07)
(-2.51848e-05 -0.000218502 0.000171896)
(0.000248716 -0.000359803 0.000358138)
(0.000520774 -0.000490875 0.000535442)
(0.000775875 -0.000619917 0.000681594)
(0.00100082 -0.000754777 0.000780412)
(0.00118719 -0.000897195 0.000823245)
(0.00133135 -0.00103752 0.000807758)
(0.00177431 -0.00174396 0.00108834)
(0.00176545 -0.00184118 0.000650666)
(0.00166547 -0.00186319 0.000130396)
(0.00151327 -0.00182074 -0.000374559)
(0.00134705 -0.00172616 -0.000792448)
(0.00119131 -0.00158985 -0.00108914)
(0.00105402 -0.00141901 -0.00125951)
(0.000929761 -0.00121727 -0.00131181)
(0.000804157 -0.000985827 -0.00125602)
(0.000657979 -0.000725554 -0.0010987)
(0.000471512 -0.000439425 -0.000843529)
(0.000229759 -0.000134139 -0.000496026)
(-7.18494e-05 0.000179959 -7.17209e-05)
(-0.000422768 0.000491448 0.000394877)
(-0.000796356 0.000791877 0.000845355)
(-0.00115455 0.00107721 0.00120254)
(-0.00145699 0.00134233 0.00138862)
(-0.00167056 0.00157217 0.0013516)
(-0.00177431 0.00174396 0.00108834)
(-0.00176545 0.00184118 0.000650666)
(-0.00166547 0.00186319 0.000130396)
(-0.00151327 0.00182074 -0.000374559)
(-0.00134705 0.00172616 -0.000792448)
(-0.00119131 0.00158985 -0.00108914)
(-0.00105402 0.00141901 -0.00125951)
(-0.000929761 0.00121727 -0.00131181)
(-0.000804157 0.000985827 -0.00125602)
(-0.000657979 0.000725554 -0.0010987)
(-0.000471512 0.000439425 -0.000843529)
(-0.000229759 0.000134139 -0.000496026)
(7.18494e-05 -0.000179959 -7.17209e-05)
(0.000422768 -0.000491448 0.000394877)
(0.000796356 -0.000791877 0.000845355)
(0.00115455 -0.00107721 0.00120254)
(0.00145699 -0.00134233 0.00138862)
(0.00167056 -0.00157217 0.0013516)
(0.0016635 -0.00150353 0.000948475)
(0.00169217 -0.00158362 0.00066703)
(0.00164995 -0.00159411 0.000320508)
(0.00155444 -0.00153913 -3.25775e-05)
(0.00142637 -0.00143078 -0.000342558)
(0.0012829 -0.00128249 -0.000577983)
(0.00113333 -0.00110477 -0.00072444)
(0.000978166 -0.000904134 -0.000778566)
(0.000810752 -0.000684632 -0.000742537)
(0.000620542 -0.00044998 -0.000621171)
(0.000397211 -0.000205112 -0.000421783)
(0.000134953 4.3529e-05 -0.000156232)
(-0.000163862 0.000289082 0.000155848)
(-0.000486771 0.000526384 0.000484269)
(-0.000812286 0.000753779 0.000788208)
(-0.00111431 0.000972099 0.00102078)
(-0.00136815 0.00117908 0.00113869)
(-0.00155494 0.00136277 0.00111482)
(-0.0016635 0.00150353 0.000948475)
(-0.00169217 0.00158362 0.00066703)
(-0.00164995 0.00159411 0.000320508)
(-0.00155444 0.00153913 -3.25775e-05)
(-0.00142637 0.00143078 -0.000342558)
(-0.0012829 0.00128249 -0.000577983)
(-0.00113333 0.00110477 -0.00072444)
(-0.000978166 0.000904134 -0.000778566)
(-0.000810752 0.000684632 -0.000742537)
(-0.000620542 0.00044998 -0.000621171)
(-0.000397211 0.000205112 -0.000421783)
(-0.000134953 -4.3529e-05 -0.000156232)
(0.000163862 -0.000289082 0.000155848)
(0.000486771 -0.000526384 0.000484269)
(0.000812286 -0.000753779 0.000788208)
(0.00111431 -0.000972099 0.00102078)
(0.00136815 -0.00117908 0.00113869)
(0.00155494 -0.00136277 0.00111482)
(0.00155772 -0.00129265 0.000801614)
(0.00160995 -0.00135119 0.000667323)
(0.00161253 -0.00134839 0.000489845)
(0.00156693 -0.0012814 0.000288363)
(0.00147674 -0.00115938 8.85923e-05)
(0.00134912 -0.000997433 -8.23122e-05)
(0.00119195 -0.000809815 -0.000201495)
(0.0010101 -0.000607143 -0.000254178)
(0.000804294 -0.000397283 -0.000234742)
(0.000573049 -0.00018701 -0.000146256)
(0.000315833 1.74714e-05 2.56035e-07)
(3.59584e-05 0.000211419 0.000186606)
(-0.000258075 0.000393074 0.000389144)
(-0.00055325 0.000564366 0.000582087)
(-0.000834186 0.000729478 0.000741884)
(-0.0010857 0.000891209 0.000850787)
(-0.00129498 0.00104679 0.000898275)
(-0.0014533 0.00118579 0.000880941)
(-0.00155772 0.00129265 0.000801614)
(-0.00160995 0.00135119 0.000667323)
(-0.00161253 0.00134839 0.000489845)
(-0.00156693 0.0012814 0.000288363)
(-0.00147674 0.00115938 8.85923e-05)
(-0.00134912 0.000997433 -8.23122e-05)
(-0.00119195 0.000809815 -0.000201495)
(-0.0010101 0.000607143 -0.000254178)
(-0.000804294 0.000397283 -0.000234742)
(-0.000573049 0.00018701 -0.000146256)
(-0.000315833 -1.74714e-05 2.56031e-07)
(-3.59584e-05 -0.000211419 0.000186606)
(0.000258075 -0.000393074 0.000389144)
(0.00055325 -0.000564366 0.000582087)
(0.000834186 -0.000729478 0.000741884)
(0.0010857 -0.000891209 0.000850787)
(0.00129498 -0.00104679 0.000898275)
(0.0014533 -0.00118579 0.000880941)
(0.00174241 -0.00191503 0.00107349)
(0.00175201 -0.00205457 0.000663204)
(0.00167795 -0.00211255 0.000155273)
(0.00154805 -0.00209378 -0.000361038)
(0.00139428 -0.00200912 -0.000809068)
(0.00124046 -0.00187041 -0.00114277)
(0.00109594 -0.00168742 -0.00134651)
(0.000956992 -0.00146663 -0.00142253)
(0.000811298 -0.00121173 -0.00137835)
(0.000642553 -0.000925206 -0.00122039)
(0.000434892 -0.000610523 -0.000953952)
(0.000177791 -0.000273776 -0.000588235)
(-0.000128956 7.61042e-05 -0.000144544)
(-0.000472008 0.000429194 0.000336048)
(-0.000825526 0.000777073 0.000791289)
(-0.0011571 0.00111263 0.00114682)
(-0.00143548 0.00142582 0.0013342)
(-0.00163586 0.00170003 0.00131071)
(-0.00174241 0.00191503 0.00107349)
(-0.00175201 0.00205457 0.000663204)
(-0.00167795 0.00211255 0.000155273)
(-0.00154805 0.00209378 -0.000361038)
(-0.00139428 0.00200912 -0.000809068)
(-0.00124046 0.00187041 -0.00114277)
(-0.00109594 0.00168742 -0.00134651)
(-0.000956992 0.00146663 -0.00142253)
(-0.000811298 0.00121173 -0.00137835)
(-0.000642553 0.000925206 -0.00122039)
(-0.000434892 0.000610523 -0.000953952)
(-0.000177791 0.000273776 -0.000588235)
(0.000128956 -7.61042e-05 -0.000144544)
(0.000472008 -0.000429194 0.000336048)
(0.000825526 -0.000777073 0.000791289)
(0.0011571 -0.00111263 0.00114682)
(0.00143548 -0.00142582 0.0013342)
(0.00163586 -0.00170003 0.00131071)
(0.00165023 -0.00163753 0.000935434)
(0.00168481 -0.00173929 0.000666253)
(0.00165207 -0.00177135 0.00032585)
(0.00156636 -0.00173478 -3.1933e-05)
(0.00144559 -0.00163827 -0.000356481)
(0.00130533 -0.00149352 -0.000611098)
(0.00115438 -0.00131107 -0.000775758)
(0.000993478 -0.00109858 -0.000843281)
(0.000816977 -0.000861469 -0.000814015)
(0.000616049 -0.000604546 -0.000692544)
(0.000382596 -0.000333274 -0.000487249)
(0.000113154 -5.41257e-05 -0.00021221)
(-0.000187996 0.000226156 0.000109866)
(-0.000507559 0.000501974 0.000445728)
(-0.000824873 0.00076972 0.000753042)
(-0.00111632 0.0010263 0.000986371)
(-0.00136051 0.00126536 0.00110648)
(-0.00154157 0.00147454 0.00108987)
(-0.00165023 0.00163753 0.000935434)
(-0.00168481 0.00173929 0.000666253)
(-0.00165207 0.00177135 0.00032585)
(-0.00156636 0.00173478 -3.1933e-05)
(-0.00144559 0.00163827 -0.000356481)
(-0.00130533 0.00149352 -0.000611098)
(-0.00115438 0.00131107 -0.000775758)
(-0.000993478 0.00109858 -0.000843281)
(-0.000816977 0.000861469 -0.000814015)
(-0.000616049 0.000604546 -0.000692544)
(-0.000382596 0.000333274 -0.000487249)
(-0.000113154 5.41257e-05 -0.00021221)
(0.000187996 -0.000226156 0.000109866)
(0.000507559 -0.000501974 0.000445728)
(0.000824873 -0.00076972 0.000753042)
(0.00111632 -0.0010263 0.000986371)
(0.00136051 -0.00126536 0.00110648)
(0.00154157 -0.00147454 0.00108987)
(0.00157477 -0.00138963 0.00079075)
(0.00162311 -0.00144849 0.000656062)
(0.00162018 -0.00145107 0.000478637)
(0.00157063 -0.00139474 0.000277612)
(0.00147961 -0.00128455 7.71864e-05)
(0.00135325 -0.00113092 -9.63127e-05)
(0.00119761 -0.000945276 -0.000219341)
(0.00101644 -0.000737349 -0.000275677)
(0.000810284 -0.000515114 -0.000258566)
(0.000578003 -0.00028579 -0.000170757)
(0.000319537 -5.61668e-05 -2.37259e-05)
(3.83542e-05 0.000168135 0.000163569)
(-0.000257413 0.000383732 0.000367002)
(-0.00055542 0.000589681 0.000560965)
(-0.000840586 0.000786021 0.00072244)
(-0.00109704 0.000971175 0.000833889)
(-0.00131051 0.00113987 0.000884346)
(-0.00147104 0.00128305 0.000869373)
(-0.00157477 0.00138963 0.00079075)
(-0.00162311 0.00144849 0.000656062)
(-0.00162018 0.00145107 0.000478637)
(-0.00157063 0.00139474 0.000277612)
(-0.00147961 0.00128455 7.71864e-05)
(-0.00135325 0.00113092 -9.63127e-05)
(-0.00119761 0.000945276 -0.000219341)
(-0.00101644 0.000737349 -0.000275677)
(-0.000810284 0.000515114 -0.000258566)
(-0.000578003 0.00028579 -0.000170757)
(-0.000319537 5.61668e-05 -2.37259e-05)
(-3.83542e-05 -0.000168134 0.000163569)
(0.000257413 -0.000383732 0.000367002)
(0.00055542 -0.000589681 0.000560965)
(0.000840586 -0.000786021 0.00072244)
(0.00109704 -0.000971175 0.000833889)
(0.00131051 -0.00113987 0.000884346)