/*--------------------------------*- C++ -*----------------------------------*\
| =========                 |                                                 |
| \\      /  F ield         | OpenFOAM: The Open Source CFD Toolbox           |
|  \\    /   O peration     | Version:  2312                                  |
|   \\  /    A nd           | Website:  www.openfoam.com                      |
|    \\/     M anipulation  |                                                 |
\*---------------------------------------------------------------------------*/
FoamFile
{
    version     2.0;
    format      ascii;
    arch        "LSB;label=32;scalar=64";
    class       volVectorField;
    location    "0.3";
    object      D_0_0_0;
}
// * * * * * * * * * * * * * * * * * * * * * * * * * * * * * * * * * * * * * //

dimensions      [0 1 0 0 0 0 0];

internalField   nonuniform List<vector> 
1620
(
(-0.000179405 0.000271513 -5.91285e-05)
(-0.000223827 0.000236235 -5.91286e-05)
(-0.000261449 0.000193779 -5.91286e-05)
(-0.000291126 0.000145435 -5.91285e-05)
(-0.000311958 9.26724e-05 -5.91286e-05)
(-0.000323311 3.70934e-05 -5.91287e-05)
(-0.00032484 -1.96126e-05 -5.91284e-05)
(-0.000316499 -7.57224e-05 -5.91283e-05)
(-0.000298542 -0.000129532 -5.91285e-05)
(-0.000271513 -0.000179405 -5.91285e-05)
(-0.000236235 -0.000223827 -5.91286e-05)
(-0.000193779 -0.000261449 -5.91286e-05)
(-0.000145435 -0.000291126 -5.91285e-05)
(-9.26723e-05 -0.000311958 -5.91286e-05)
(-3.70934e-05 -0.000323311 -5.91287e-05)
(1.96126e-05 -0.00032484 -5.91284e-05)
(7.57224e-05 -0.000316499 -5.91283e-05)
(0.000129532 -0.000298542 -5.91285e-05)
(0.000179405 -0.000271513 -5.91285e-05)
(0.000223827 -0.000236235 -5.91286e-05)
(0.000261449 -0.000193779 -5.91286e-05)
(0.000291126 -0.000145435 -5.91285e-05)
(0.000311958 -9.26724e-05 -5.91286e-05)
(0.000323311 -3.70934e-05 -5.91287e-05)
(0.00032484 1.96126e-05 -5.91284e-05)
(0.000316499 7.57224e-05 -5.91283e-05)
(0.000298542 0.000129532 -5.91285e-05)
(0.000271513 0.000179405 -5.91285e-05)
(0.000236235 0.000223827 -5.91286e-05)
(0.000193779 0.000261449 -5.91286e-05)
(0.000145435 0.000291126 -5.91285e-05)
(9.26724e-05 0.000311958 -5.91286e-05)
(3.70934e-05 0.000323311 -5.91286e-05)
(-1.96126e-05 0.00032484 -5.91284e-05)
(-7.57223e-05 0.000316499 -5.91283e-05)
(-0.000129532 0.000298542 -5.91285e-05)
(-0.000139089 0.000286098 -4.1331e-05)
(-0.000186656 0.000257599 -4.1331e-05)
(-0.000228552 0.000221273 -4.1331e-05)
(-0.000263504 0.000178224 -4.1331e-05)
(-0.000290449 0.00012976 -4.1331e-05)
(-0.000308569 7.7352e-05 -4.1331e-05)
(-0.000317313 2.25946e-05 -4.1331e-05)
(-0.000316416 -3.28495e-05 -4.13309e-05)
(-0.000305904 -8.72955e-05 -4.1331e-05)
(-0.000286098 -0.000139089 -4.1331e-05)
(-0.000257599 -0.000186656 -4.1331e-05)
(-0.000221273 -0.000228552 -4.1331e-05)
(-0.000178224 -0.000263504 -4.1331e-05)
(-0.00012976 -0.000290449 -4.1331e-05)
(-7.7352e-05 -0.000308569 -4.1331e-05)
(-2.25946e-05 -0.000317313 -4.1331e-05)
(3.28495e-05 -0.000316416 -4.13309e-05)
(8.72955e-05 -0.000305904 -4.1331e-05)
(0.000139089 -0.000286098 -4.1331e-05)
(0.000186656 -0.000257599 -4.1331e-05)
(0.000228552 -0.000221273 -4.1331e-05)
(0.000263504 -0.000178224 -4.1331e-05)
(0.000290449 -0.00012976 -4.1331e-05)
(0.000308569 -7.7352e-05 -4.1331e-05)
(0.000317313 -2.25946e-05 -4.1331e-05)
(0.000316416 3.28495e-05 -4.13309e-05)
(0.000305904 8.72955e-05 -4.1331e-05)
(0.000286098 0.000139089 -4.1331e-05)
(0.000257599 0.000186656 -4.1331e-05)
(0.000221273 0.000228552 -4.1331e-05)
(0.000178224 0.000263504 -4.1331e-05)
(0.00012976 0.000290449 -4.1331e-05)
(7.7352e-05 0.000308569 -4.1331e-05)
(2.25946e-05 0.000317313 -4.13309e-05)
(-3.28495e-05 0.000316416 -4.13309e-05)
(-8.72955e-05 0.000305904 -4.1331e-05)
(-0.000111569 0.000298992 -2.38196e-05)
(-0.000161793 0.000275076 -2.38196e-05)
(-0.000207102 0.000242802 -2.38198e-05)
(-0.000246117 0.00020315 -2.38197e-05)
(-0.000277656 0.000157326 -2.38198e-05)
(-0.000300756 0.000106722 -2.38197e-05)
(-0.000314719 5.28744e-05 -2.38197e-05)
(-0.00031912 -2.57933e-06 -2.38198e-05)
(-0.000313823 -5.79546e-05 -2.38197e-05)
(-0.000298992 -0.000111569 -2.38196e-05)
(-0.000275076 -0.000161793 -2.38197e-05)
(-0.000242802 -0.000207102 -2.38198e-05)
(-0.00020315 -0.000246117 -2.38197e-05)
(-0.000157326 -0.000277656 -2.38198e-05)
(-0.000106722 -0.000300756 -2.38197e-05)
(-5.28744e-05 -0.000314719 -2.38197e-05)
(2.57934e-06 -0.00031912 -2.38198e-05)
(5.79546e-05 -0.000313823 -2.38197e-05)
(0.000111569 -0.000298992 -2.38197e-05)
(0.000161793 -0.000275076 -2.38197e-05)
(0.000207102 -0.000242802 -2.38198e-05)
(0.000246117 -0.00020315 -2.38197e-05)
(0.000277656 -0.000157326 -2.38198e-05)
(0.000300756 -0.000106722 -2.38197e-05)
(0.000314719 -5.28744e-05 -2.38197e-05)
(0.00031912 2.57934e-06 -2.38198e-05)
(0.000313823 5.79546e-05 -2.38197e-05)
(0.000298992 0.000111569 -2.38196e-05)
(0.000275076 0.000161793 -2.38196e-05)
(0.000242802 0.000207102 -2.38198e-05)
(0.00020315 0.000246117 -2.38197e-05)
(0.000157326 0.000277656 -2.38198e-05)
(0.000106722 0.000300756 -2.38197e-05)
(5.28744e-05 0.000314719 -2.38197e-05)
(-2.57933e-06 0.00031912 -2.38198e-05)
(-5.79546e-05 0.000313823 -2.38197e-05)
(-0.000451797 0.00081915 -0.00020298)
(-0.000587177 0.000728251 -0.00020298)
(-0.000704716 0.000615226 -0.00020298)
(-0.000800842 0.000483506 -0.000202979)
(-0.000872636 0.000337096 -0.000202979)
(-0.000917914 0.000180443 -0.000202979)
(-0.000935304 1.83076e-05 -0.000202979)
(-0.000924273 -0.000144384 -0.000202979)
(-0.000885159 -0.000302689 -0.000202979)
(-0.00081915 -0.000451797 -0.00020298)
(-0.000728251 -0.000587177 -0.00020298)
(-0.000615226 -0.000704716 -0.00020298)
(-0.000483506 -0.000800842 -0.000202979)
(-0.000337096 -0.000872636 -0.000202979)
(-0.000180443 -0.000917914 -0.000202979)
(-1.83076e-05 -0.000935304 -0.000202979)
(0.000144384 -0.000924273 -0.000202979)
(0.000302689 -0.000885159 -0.000202979)
(0.000451797 -0.00081915 -0.00020298)
(0.000587177 -0.000728251 -0.00020298)
(0.000704716 -0.000615226 -0.00020298)
(0.000800842 -0.000483506 -0.000202979)
(0.000872636 -0.000337096 -0.000202979)
(0.000917914 -0.000180443 -0.000202979)
(0.000935304 -1.83076e-05 -0.000202979)
(0.000924273 0.000144384 -0.000202979)
(0.000885159 0.000302689 -0.000202979)
(0.00081915 0.000451797 -0.00020298)
(0.000728251 0.000587177 -0.00020298)
(0.000615226 0.000704716 -0.00020298)
(0.000483506 0.000800842 -0.000202979)
(0.000337096 0.000872636 -0.000202979)
(0.000180443 0.000917914 -0.000202979)
(1.83076e-05 0.000935304 -0.000202979)
(-0.000144384 0.000924273 -0.000202979)
(-0.000302689 0.000885159 -0.000202979)
(-0.000416595 0.000850665 -0.000155669)
(-0.000557982 0.0007654 -0.000155669)
(-0.000682416 0.00065688 -0.000155669)
(-0.000786114 0.000528401 -0.000155669)
(-0.000865928 0.000383866 -0.000155669)
(-0.00091943 0.000227667 -0.000155669)
(-0.000944995 6.4551e-05 -0.000155669)
(-0.000941847 -0.000100527 -0.000155669)
(-0.000910083 -0.000262549 -0.000155669)
(-0.000850665 -0.000416595 -0.000155669)
(-0.0007654 -0.000557982 -0.000155669)
(-0.00065688 -0.000682416 -0.000155669)
(-0.000528401 -0.000786114 -0.000155669)
(-0.000383866 -0.000865928 -0.000155669)
(-0.000227667 -0.00091943 -0.000155669)
(-6.45509e-05 -0.000944995 -0.000155669)
(0.000100527 -0.000941847 -0.000155669)
(0.000262549 -0.000910083 -0.000155669)
(0.000416595 -0.000850665 -0.000155669)
(0.000557982 -0.0007654 -0.000155669)
(0.000682416 -0.00065688 -0.000155669)
(0.000786114 -0.000528401 -0.000155669)
(0.000865928 -0.000383866 -0.000155669)
(0.00091943 -0.000227667 -0.000155669)
(0.000944995 -6.4551e-05 -0.000155669)
(0.000941847 0.000100527 -0.000155669)
(0.000910083 0.000262549 -0.000155669)
(0.000850665 0.000416595 -0.000155669)
(0.0007654 0.000557982 -0.000155669)
(0.00065688 0.000682416 -0.000155669)
(0.000528401 0.000786114 -0.000155669)
(0.000383866 0.000865928 -0.000155669)
(0.000227667 0.00091943 -0.000155669)
(6.4551e-05 0.000944995 -0.000155669)
(-0.000100527 0.000941847 -0.000155669)
(-0.000262549 0.000910083 -0.000155669)
(-0.000397569 0.000878947 -0.000109461)
(-0.000544157 0.000796556 -0.00010946)
(-0.00067421 0.000689963 -0.000109461)
(-0.000783778 0.000562406 -0.000109461)
(-0.000869531 0.00041776 -0.000109461)
(-0.000928864 0.00026042 -0.000109461)
(-0.000959975 9.51683e-05 -0.000109461)
(-0.000961916 -7.29752e-05 -0.000109461)
(-0.000934631 -0.000238902 -0.000109461)
(-0.000878947 -0.000397569 -0.000109461)
(-0.000796556 -0.000544157 -0.00010946)
(-0.000689963 -0.00067421 -0.000109461)
(-0.000562406 -0.000783778 -0.000109461)
(-0.00041776 -0.000869531 -0.000109461)
(-0.00026042 -0.000928864 -0.000109461)
(-9.51683e-05 -0.000959975 -0.000109461)
(7.29752e-05 -0.000961917 -0.000109461)
(0.000238902 -0.000934631 -0.000109461)
(0.000397569 -0.000878947 -0.000109461)
(0.000544157 -0.000796556 -0.00010946)
(0.00067421 -0.000689963 -0.000109461)
(0.000783778 -0.000562406 -0.000109461)
(0.000869531 -0.00041776 -0.000109461)
(0.000928864 -0.00026042 -0.000109461)
(0.000959975 -9.51683e-05 -0.000109461)
(0.000961917 7.29752e-05 -0.000109461)
(0.000934631 0.000238902 -0.000109461)
(0.000878947 0.000397569 -0.000109461)
(0.000796556 0.000544157 -0.00010946)
(0.000689963 0.00067421 -0.000109461)
(0.000562406 0.000783778 -0.000109461)
(0.00041776 0.000869531 -0.000109461)
(0.00026042 0.000928864 -0.00010946)
(9.51683e-05 0.000959975 -0.000109461)
(-7.29752e-05 0.000961917 -0.000109461)
(-0.000238902 0.000934631 -0.000109461)
(-0.000720717 0.00136059 -0.000397223)
(-0.000946032 0.00121477 -0.000397223)
(-0.0011426 0.00103204 -0.000397223)
(-0.00130446 0.00081795 -0.000397222)
(-0.00142667 0.000579007 -0.000397222)
(-0.00150554 0.000322472 -0.000397222)
(-0.00153867 5.61375e-05 -0.000397222)
(-0.00152504 -0.000211902 -0.000397222)
(-0.00146507 -0.000473504 -0.000397222)
(-0.00136059 -0.000720717 -0.000397223)
(-0.00121477 -0.000946032 -0.000397223)
(-0.00103204 -0.0011426 -0.000397223)
(-0.000817949 -0.00130446 -0.000397222)
(-0.000579007 -0.00142667 -0.000397222)
(-0.000322472 -0.00150554 -0.000397222)
(-5.61375e-05 -0.00153867 -0.000397222)
(0.000211902 -0.00152504 -0.000397222)
(0.000473504 -0.00146507 -0.000397223)
(0.000720717 -0.00136059 -0.000397223)
(0.000946032 -0.00121477 -0.000397223)
(0.0011426 -0.00103204 -0.000397223)
(0.00130446 -0.000817949 -0.000397222)
(0.00142667 -0.000579007 -0.000397222)
(0.00150554 -0.000322472 -0.000397222)
(0.00153867 -5.61375e-05 -0.000397222)
(0.00152504 0.000211902 -0.000397222)
(0.00146507 0.000473504 -0.000397222)
(0.00136059 0.000720717 -0.000397223)
(0.00121477 0.000946032 -0.000397223)
(0.00103204 0.0011426 -0.000397223)
(0.00081795 0.00130446 -0.000397222)
(0.000579007 0.00142667 -0.000397222)
(0.000322472 0.00150554 -0.000397222)
(5.61375e-05 0.00153867 -0.000397222)
(-0.000211902 0.00152504 -0.000397222)
(-0.000473503 0.00146507 -0.000397222)
(-0.00068891 0.00140214 -0.000325623)
(-0.000921922 0.00126121 -0.000325623)
(-0.00112692 0.00108196 -0.000325623)
(-0.00129768 0.000869834 -0.000325623)
(-0.00142901 0.000631279 -0.000325623)
(-0.00151692 0.000373543 -0.000325623)
(-0.00155874 0.000104457 -0.000325623)
(-0.0015532 -0.000167803 -0.000325623)
(-0.00150047 -0.000434964 -0.000325623)
(-0.00140214 -0.00068891 -0.000325623)
(-0.00126121 -0.000921922 -0.000325623)
(-0.00108196 -0.00112692 -0.000325623)
(-0.000869834 -0.00129768 -0.000325623)
(-0.000631279 -0.00142901 -0.000325623)
(-0.000373543 -0.00151692 -0.000325623)
(-0.000104457 -0.00155874 -0.000325623)
(0.000167803 -0.0015532 -0.000325623)
(0.000434964 -0.00150047 -0.000325623)
(0.00068891 -0.00140214 -0.000325623)
(0.000921922 -0.00126121 -0.000325623)
(0.00112692 -0.00108196 -0.000325623)
(0.00129768 -0.000869834 -0.000325623)
(0.00142901 -0.000631279 -0.000325623)
(0.00151692 -0.000373543 -0.000325623)
(0.00155874 -0.000104457 -0.000325623)
(0.0015532 0.000167803 -0.000325623)
(0.00150047 0.000434964 -0.000325623)
(0.00140214 0.00068891 -0.000325623)
(0.00126121 0.000921922 -0.000325623)
(0.00108196 0.00112692 -0.000325623)
(0.000869834 0.00129768 -0.000325623)
(0.000631279 0.00142901 -0.000325623)
(0.000373543 0.00151692 -0.000325623)
(0.000104457 0.00155874 -0.000325623)
(-0.000167803 0.0015532 -0.000325623)
(-0.000434964 0.00150047 -0.000325623)
(-0.00067444 0.00143735 -0.000255993)
(-0.000913787 0.0012984 -0.000255993)
(-0.00112537 0.00112 -0.000255993)
(-0.00130276 0.000907564 -0.000255994)
(-0.00144056 0.000667555 -0.000255994)
(-0.0015346 0.000407261 -0.000255994)
(-0.001582 0.000134594 -0.000255994)
(-0.00158134 -0.000142162 -0.000255993)
(-0.00153263 -0.0004146 -0.000255993)
(-0.00143735 -0.00067444 -0.000255993)
(-0.0012984 -0.000913787 -0.000255993)
(-0.00112 -0.00112537 -0.000255993)
(-0.000907564 -0.00130276 -0.000255994)
(-0.000667555 -0.00144056 -0.000255994)
(-0.000407261 -0.0015346 -0.000255994)
(-0.000134594 -0.001582 -0.000255994)
(0.000142162 -0.00158134 -0.000255993)
(0.0004146 -0.00153263 -0.000255993)
(0.00067444 -0.00143735 -0.000255993)
(0.000913787 -0.0012984 -0.000255993)
(0.00112537 -0.00112 -0.000255993)
(0.00130276 -0.000907564 -0.000255994)
(0.00144056 -0.000667555 -0.000255994)
(0.0015346 -0.000407261 -0.000255994)
(0.001582 -0.000134594 -0.000255994)
(0.00158134 0.000142162 -0.000255993)
(0.00153263 0.0004146 -0.000255993)
(0.00143735 0.00067444 -0.000255993)
(0.0012984 0.000913787 -0.000255993)
(0.00112 0.00112537 -0.000255993)
(0.000907564 0.00130276 -0.000255994)
(0.000667555 0.00144056 -0.000255994)
(0.000407261 0.0015346 -0.000255994)
(0.000134594 0.001582 -0.000255993)
(-0.000142162 0.00158134 -0.000255993)
(-0.0004146 0.00153263 -0.000255993)
(-0.000981115 0.00188922 -0.000633156)
(-0.00129427 0.00169015 -0.000633156)
(-0.0015681 0.00143972 -0.000633156)
(-0.00179428 0.00114555 -0.000633156)
(-0.00196594 0.000816577 -0.000633156)
(-0.00207787 0.000462789 -0.000633156)
(-0.00212667 9.49392e-05 -0.000633155)
(-0.00211085 -0.000275796 -0.000633155)
(-0.00203089 -0.000638151 -0.000633156)
(-0.00188922 -0.000981115 -0.000633156)
(-0.00169015 -0.00129427 -0.000633156)
(-0.00143972 -0.0015681 -0.000633156)
(-0.00114555 -0.00179428 -0.000633156)
(-0.000816577 -0.00196594 -0.000633156)
(-0.000462789 -0.00207787 -0.000633156)
(-9.49391e-05 -0.00212667 -0.000633155)
(0.000275796 -0.00211085 -0.000633155)
(0.000638151 -0.00203089 -0.000633156)
(0.000981115 -0.00188922 -0.000633156)
(0.00129427 -0.00169015 -0.000633156)
(0.0015681 -0.00143972 -0.000633156)
(0.00179428 -0.00114555 -0.000633156)
(0.00196594 -0.000816577 -0.000633156)
(0.00207787 -0.000462789 -0.000633156)
(0.00212667 -9.49392e-05 -0.000633155)
(0.00211085 0.000275796 -0.000633155)
(0.00203089 0.000638151 -0.000633156)
(0.00188922 0.000981115 -0.000633156)
(0.00169015 0.00129427 -0.000633156)
(0.00143972 0.0015681 -0.000633156)
(0.00114555 0.00179428 -0.000633156)
(0.000816577 0.00196594 -0.000633156)
(0.000462789 0.00207787 -0.000633156)
(9.49392e-05 0.00212667 -0.000633155)
(-0.000275796 0.00211085 -0.000633155)
(-0.000638151 0.00203089 -0.000633156)
(-0.000953492 0.00192822 -0.000541085)
(-0.00127384 0.00173335 -0.000541085)
(-0.00155548 0.00148582 -0.000541085)
(-0.00178986 0.00119314 -0.000541085)
(-0.00196985 0.00086421 -0.000541085)
(-0.00208999 0.000509019 -0.000541084)
(-0.00214663 0.000138362 -0.000541084)
(-0.00213805 -0.000236499 -0.000541084)
(-0.0020645 -0.000604174 -0.000541085)
(-0.00192822 -0.000953492 -0.000541085)
(-0.00173335 -0.00127384 -0.000541085)
(-0.00148582 -0.00155548 -0.000541085)
(-0.00119314 -0.00178986 -0.000541085)
(-0.00086421 -0.00196985 -0.000541085)
(-0.000509019 -0.00208999 -0.000541084)
(-0.000138362 -0.00214663 -0.000541084)
(0.000236499 -0.00213805 -0.000541084)
(0.000604174 -0.0020645 -0.000541085)
(0.000953492 -0.00192822 -0.000541085)
(0.00127384 -0.00173335 -0.000541085)
(0.00155548 -0.00148582 -0.000541085)
(0.00178986 -0.00119314 -0.000541085)
(0.00196985 -0.00086421 -0.000541085)
(0.00208999 -0.000509019 -0.000541084)
(0.00214663 -0.000138362 -0.000541084)
(0.00213805 0.000236499 -0.000541084)
(0.0020645 0.000604174 -0.000541084)
(0.00192822 0.000953492 -0.000541085)
(0.00173335 0.00127384 -0.000541085)
(0.00148582 0.00155548 -0.000541085)
(0.00119314 0.00178986 -0.000541084)
(0.00086421 0.00196985 -0.000541084)
(0.000509019 0.00208999 -0.000541084)
(0.000138362 0.00214663 -0.000541084)
(-0.000236499 0.00213805 -0.000541084)
(-0.000604174 0.0020645 -0.000541084)
(-0.000944216 0.00195725 -0.000452014)
(-0.00126974 0.00176355 -0.000452014)
(-0.00155669 0.00151627 -0.000452014)
(-0.00179634 0.00122292 -0.000452014)
(-0.00198141 0.000892409 -0.000452014)
(-0.00210627 0.000534784 -0.000452014)
(-0.00216713 0.000160909 -0.000452014)
(-0.00216215 -0.000217854 -0.000452014)
(-0.00209147 -0.000589999 -0.000452014)
(-0.00195725 -0.000944216 -0.000452014)
(-0.00176355 -0.00126974 -0.000452014)
(-0.00151627 -0.00155669 -0.000452014)
(-0.00122292 -0.00179634 -0.000452014)
(-0.000892409 -0.00198141 -0.000452014)
(-0.000534784 -0.00210627 -0.000452014)
(-0.000160909 -0.00216713 -0.000452014)
(0.000217854 -0.00216215 -0.000452014)
(0.000589999 -0.00209147 -0.000452014)
(0.000944216 -0.00195725 -0.000452014)
(0.00126974 -0.00176355 -0.000452014)
(0.00155669 -0.00151627 -0.000452014)
(0.00179634 -0.00122292 -0.000452014)
(0.00198141 -0.000892409 -0.000452014)
(0.00210627 -0.000534784 -0.000452014)
(0.00216713 -0.000160909 -0.000452014)
(0.00216215 0.000217854 -0.000452014)
(0.00209147 0.000589999 -0.000452014)
(0.00195725 0.000944216 -0.000452014)
(0.00176355 0.00126974 -0.000452014)
(0.00151627 0.00155669 -0.000452014)
(0.00122292 0.00179634 -0.000452014)
(0.000892409 0.00198141 -0.000452014)
(0.000534784 0.00210627 -0.000452014)
(0.000160909 0.00216713 -0.000452014)
(-0.000217854 0.00216215 -0.000452014)
(-0.000589999 0.00209147 -0.000452014)
(-0.00123538 0.00239565 -0.000903484)
(-0.00163261 0.00214473 -0.000903484)
(-0.00198023 0.00182865 -0.000903484)
(-0.00226769 0.001457 -0.000903484)
(-0.00248624 0.00104109 -0.000903484)
(-0.00262926 0.000593539 -0.000903484)
(-0.00269238 0.000127956 -0.000903483)
(-0.00267369 -0.000341515 -0.000903483)
(-0.00257377 -0.000800609 -0.000903484)
(-0.00239565 -0.00123538 -0.000903484)
(-0.00214473 -0.00163261 -0.000903484)
(-0.00182865 -0.00198023 -0.000903484)
(-0.001457 -0.00226769 -0.000903484)
(-0.00104109 -0.00248624 -0.000903484)
(-0.000593538 -0.00262926 -0.000903484)
(-0.000127956 -0.00269238 -0.000903484)
(0.000341515 -0.00267369 -0.000903483)
(0.000800609 -0.00257377 -0.000903484)
(0.00123538 -0.00239565 -0.000903484)
(0.00163261 -0.00214473 -0.000903484)
(0.00198023 -0.00182865 -0.000903484)
(0.00226769 -0.001457 -0.000903484)
(0.00248624 -0.00104109 -0.000903484)
(0.00262926 -0.000593539 -0.000903484)
(0.00269238 -0.000127956 -0.000903483)
(0.00267369 0.000341515 -0.000903483)
(0.00257377 0.000800609 -0.000903484)
(0.00239565 0.00123538 -0.000903484)
(0.00214473 0.00163261 -0.000903484)
(0.00182865 0.00198023 -0.000903484)
(0.001457 0.00226769 -0.000903484)
(0.00104109 0.00248624 -0.000903484)
(0.000593539 0.00262926 -0.000903484)
(0.000127956 0.00269238 -0.000903483)
(-0.000341515 0.00267369 -0.000903483)
(-0.000800609 0.00257377 -0.000903484)
(-0.00121091 0.00241652 -0.000794625)
(-0.00161214 0.00216954 -0.000794625)
(-0.00196438 0.00185663 -0.000794625)
(-0.00225694 0.00148731 -0.000794625)
(-0.00248092 0.00107281 -0.000794625)
(-0.00262952 0.000625701 -0.000794625)
(-0.00269822 0.000159584 -0.000794625)
(-0.00268494 -0.000311382 -0.000794625)
(-0.00259008 -0.000772887 -0.000794624)
(-0.00241652 -0.00121091 -0.000794625)
(-0.00216954 -0.00161214 -0.000794625)
(-0.00185663 -0.00196438 -0.000794625)
(-0.00148731 -0.00225694 -0.000794625)
(-0.00107281 -0.00248092 -0.000794625)
(-0.000625701 -0.00262952 -0.000794625)
(-0.000159584 -0.00269822 -0.000794625)
(0.000311382 -0.00268494 -0.000794625)
(0.000772887 -0.00259008 -0.000794625)
(0.00121091 -0.00241652 -0.000794625)
(0.00161214 -0.00216954 -0.000794625)
(0.00196438 -0.00185663 -0.000794625)
(0.00225694 -0.00148731 -0.000794625)
(0.00248092 -0.00107281 -0.000794625)
(0.00262952 -0.000625701 -0.000794625)
(0.00269822 -0.000159584 -0.000794625)
(0.00268494 0.000311382 -0.000794625)
(0.00259008 0.000772887 -0.000794624)
(0.00241652 0.00121091 -0.000794625)
(0.00216954 0.00161214 -0.000794625)
(0.00185663 0.00196438 -0.000794625)
(0.00148731 0.00225694 -0.000794625)
(0.00107281 0.00248092 -0.000794625)
(0.000625701 0.00262952 -0.000794625)
(0.000159584 0.00269822 -0.000794625)
(-0.000311382 0.00268494 -0.000794625)
(-0.000772887 0.00259008 -0.000794624)
(-0.00120517 0.0024242 -0.000689697)
(-0.00160782 0.0021781 -0.000689697)
(-0.00196162 0.00186581 -0.000689697)
(-0.00225581 0.00149683 -0.000689696)
(-0.00248146 0.00108238 -0.000689697)
(-0.00263172 0.000635033 -0.000689697)
(-0.00270201 0.000168393 -0.000689697)
(-0.0026902 -0.000303364 -0.000689697)
(-0.00259665 -0.000765904 -0.000689697)
(-0.0024242 -0.00120517 -0.000689697)
(-0.0021781 -0.00160782 -0.000689697)
(-0.00186581 -0.00196162 -0.000689697)
(-0.00149683 -0.00225581 -0.000689697)
(-0.00108238 -0.00248146 -0.000689697)
(-0.000635033 -0.00263172 -0.000689697)
(-0.000168393 -0.00270201 -0.000689697)
(0.000303365 -0.0026902 -0.000689697)
(0.000765904 -0.00259665 -0.000689697)
(0.00120517 -0.0024242 -0.000689697)
(0.00160782 -0.0021781 -0.000689697)
(0.00196162 -0.00186581 -0.000689697)
(0.00225581 -0.00149683 -0.000689697)
(0.00248146 -0.00108238 -0.000689697)
(0.00263172 -0.000635033 -0.000689697)
(0.00270201 -0.000168393 -0.000689697)
(0.0026902 0.000303365 -0.000689697)
(0.00259665 0.000765904 -0.000689697)
(0.0024242 0.00120517 -0.000689697)
(0.0021781 0.00160782 -0.000689697)
(0.00186581 0.00196162 -0.000689697)
(0.00149683 0.00225581 -0.000689696)
(0.00108238 0.00248146 -0.000689697)
(0.000635033 0.00263172 -0.000689696)
(0.000168393 0.00270201 -0.000689697)
(-0.000303364 0.0026902 -0.000689697)
(-0.000765904 0.00259665 -0.000689697)
(-0.00148609 0.00286741 -0.00120021)
(-0.00196144 0.00256579 -0.00120021)
(-0.00237718 0.00218621 -0.00120021)
(-0.0027207 0.0017402 -0.00120021)
(-0.00298155 0.00124132 -0.00120021)
(-0.00315181 0.000704721 -0.00120021)
(-0.0032263 0.00014671 -0.00120021)
(-0.00320276 -0.00041576 -0.00120021)
(-0.00308191 -0.000965597 -0.00120021)
(-0.00286741 -0.00148609 -0.00120021)
(-0.00256579 -0.00196144 -0.00120021)
(-0.00218621 -0.00237718 -0.00120021)
(-0.0017402 -0.0027207 -0.00120021)
(-0.00124132 -0.00298155 -0.00120021)
(-0.000704721 -0.00315181 -0.00120021)
(-0.00014671 -0.0032263 -0.00120021)
(0.00041576 -0.00320276 -0.00120021)
(0.000965597 -0.00308191 -0.00120021)
(0.00148609 -0.00286741 -0.00120021)
(0.00196144 -0.00256579 -0.00120021)
(0.00237718 -0.00218621 -0.00120021)
(0.0027207 -0.0017402 -0.00120021)
(0.00298155 -0.00124132 -0.00120021)
(0.00315181 -0.000704721 -0.00120021)
(0.0032263 -0.00014671 -0.00120021)
(0.00320276 0.00041576 -0.00120021)
(0.00308191 0.000965597 -0.00120021)
(0.00286741 0.00148609 -0.00120021)
(0.00256579 0.00196144 -0.00120021)
(0.00218621 0.00237718 -0.00120021)
(0.0017402 0.0027207 -0.00120021)
(0.00124132 0.00298155 -0.00120021)
(0.000704721 0.00315181 -0.00120021)
(0.00014671 0.0032263 -0.00120021)
(-0.00041576 0.00320276 -0.00120021)
(-0.000965597 0.00308191 -0.00120021)
(-0.0014614 0.00285397 -0.00107737)
(-0.00193478 0.00255684 -0.00107737)
(-0.00234938 0.00218202 -0.00107737)
(-0.00269259 0.00174091 -0.00107737)
(-0.00295399 0.0012469 -0.00107737)
(-0.00312563 0.000714998 -0.00107737)
(-0.00320231 0.000161375 -0.00107737)
(-0.00318168 -0.000397151 -0.00107737)
(-0.00306438 -0.000943611 -0.00107737)
(-0.00285397 -0.0014614 -0.00107737)
(-0.00255684 -0.00193478 -0.00107737)
(-0.00218202 -0.00234938 -0.00107737)
(-0.00174091 -0.00269259 -0.00107737)
(-0.0012469 -0.00295399 -0.00107737)
(-0.000714998 -0.00312563 -0.00107737)
(-0.000161375 -0.00320231 -0.00107737)
(0.000397151 -0.00318168 -0.00107737)
(0.000943611 -0.00306438 -0.00107737)
(0.0014614 -0.00285397 -0.00107737)
(0.00193478 -0.00255684 -0.00107737)
(0.00234938 -0.00218202 -0.00107737)
(0.00269259 -0.00174091 -0.00107737)
(0.00295399 -0.0012469 -0.00107737)
(0.00312563 -0.000714998 -0.00107737)
(0.00320231 -0.000161375 -0.00107737)
(0.00318168 0.000397151 -0.00107737)
(0.00306438 0.000943611 -0.00107737)
(0.00285397 0.0014614 -0.00107737)
(0.00255684 0.00193478 -0.00107737)
(0.00218202 0.00234938 -0.00107737)
(0.00174091 0.00269259 -0.00107737)
(0.0012469 0.00295399 -0.00107737)
(0.000714998 0.00312563 -0.00107737)
(0.000161375 0.00320231 -0.00107737)
(-0.000397151 0.00318168 -0.00107737)
(-0.000943611 0.00306438 -0.00107737)
(-0.00145485 0.00282515 -0.000959296)
(-0.00192333 0.0025296 -0.000959297)
(-0.00233337 0.00215719 -0.000959296)
(-0.00267251 0.00171923 -0.000959296)
(-0.00293045 0.00122903 -0.000959296)
(-0.00309935 0.000701494 -0.000959296)
(-0.00317408 0.000152641 -0.000959296)
(-0.00315236 -0.000400852 -0.000959297)
(-0.00303486 -0.000942165 -0.000959296)
(-0.00282515 -0.00145485 -0.000959296)
(-0.0025296 -0.00192333 -0.000959297)
(-0.00215719 -0.00233337 -0.000959296)
(-0.00171923 -0.00267251 -0.000959296)
(-0.00122903 -0.00293045 -0.000959296)
(-0.000701494 -0.00309935 -0.000959296)
(-0.00015264 -0.00317408 -0.000959296)
(0.000400852 -0.00315236 -0.000959297)
(0.000942165 -0.00303487 -0.000959296)
(0.00145485 -0.00282515 -0.000959296)
(0.00192333 -0.0025296 -0.000959297)
(0.00233337 -0.00215719 -0.000959296)
(0.00267251 -0.00171923 -0.000959296)
(0.00293045 -0.00122903 -0.000959296)
(0.00309935 -0.000701494 -0.000959296)
(0.00317408 -0.000152641 -0.000959296)
(0.00315236 0.000400852 -0.000959296)
(0.00303487 0.000942165 -0.000959296)
(0.00282515 0.00145485 -0.000959296)
(0.0025296 0.00192333 -0.000959296)
(0.00215719 0.00233337 -0.000959296)
(0.00171923 0.00267251 -0.000959296)
(0.00122903 0.00293045 -0.000959296)
(0.000701494 0.00309935 -0.000959296)
(0.000152641 0.00317408 -0.000959296)
(-0.000400852 0.00315236 -0.000959296)
(-0.000942165 0.00303487 -0.000959296)
(-0.00173281 0.00328834 -0.00151468)
(-0.0022775 0.00293748 -0.00151468)
(-0.00275299 0.00249737 -0.00151468)
(-0.00314483 0.00198138 -0.00151468)
(-0.00344111 0.00140518 -0.00151468)
(-0.00363284 0.000786289 -0.00151468)
(-0.00371419 0.000143507 -0.00151468)
(-0.00368268 -0.000503636 -0.00151468)
(-0.00353928 -0.00113548 -0.00151468)
(-0.00328834 -0.00173281 -0.00151468)
(-0.00293748 -0.0022775 -0.00151468)
(-0.00249737 -0.00275299 -0.00151468)
(-0.00198138 -0.00314483 -0.00151468)
(-0.00140518 -0.00344111 -0.00151468)
(-0.000786289 -0.00363284 -0.00151468)
(-0.000143507 -0.00371419 -0.00151468)
(0.000503636 -0.00368268 -0.00151468)
(0.00113548 -0.00353928 -0.00151468)
(0.00173281 -0.00328834 -0.00151468)
(0.0022775 -0.00293748 -0.00151468)
(0.00275299 -0.00249737 -0.00151468)
(0.00314483 -0.00198138 -0.00151468)
(0.00344111 -0.00140518 -0.00151468)
(0.00363284 -0.000786289 -0.00151468)
(0.00371419 -0.000143507 -0.00151468)
(0.00368268 0.000503636 -0.00151468)
(0.00353928 0.00113548 -0.00151468)
(0.00328834 0.00173281 -0.00151468)
(0.00293748 0.0022775 -0.00151468)
(0.00249737 0.00275299 -0.00151468)
(0.00198138 0.00314483 -0.00151468)
(0.00140518 0.00344111 -0.00151468)
(0.000786289 0.00363284 -0.00151468)
(0.000143507 0.00371419 -0.00151468)
(-0.000503636 0.00368268 -0.00151468)
(-0.00113548 0.00353928 -0.00151468)
(-0.00170231 0.00322575 -0.00137946)
(-0.0022366 0.00288114 -0.00137946)
(-0.00270292 0.00244899 -0.00137946)
(-0.00308712 0.00194242 -0.00137946)
(-0.00337752 0.00137684 -0.00137946)
(-0.00356529 0.000769423 -0.00137946)
(-0.00364474 0.000138627 -0.00137946)
(-0.00361344 -0.000496381 -0.00137946)
(-0.00347235 -0.00111631 -0.00137946)
(-0.00322575 -0.00170231 -0.00137946)
(-0.00288114 -0.0022366 -0.00137946)
(-0.00244899 -0.00270292 -0.00137946)
(-0.00194242 -0.00308712 -0.00137946)
(-0.00137684 -0.00337752 -0.00137946)
(-0.000769423 -0.00356529 -0.00137946)
(-0.000138627 -0.00364474 -0.00137946)
(0.000496381 -0.00361344 -0.00137946)
(0.00111631 -0.00347235 -0.00137946)
(0.00170231 -0.00322575 -0.00137946)
(0.0022366 -0.00288114 -0.00137946)
(0.00270292 -0.00244899 -0.00137946)
(0.00308712 -0.00194242 -0.00137946)
(0.00337752 -0.00137684 -0.00137946)
(0.00356529 -0.000769423 -0.00137946)
(0.00364474 -0.000138627 -0.00137946)
(0.00361344 0.000496381 -0.00137946)
(0.00347235 0.00111631 -0.00137946)
(0.00322575 0.00170231 -0.00137946)
(0.00288114 0.0022366 -0.00137946)
(0.00244899 0.00270292 -0.00137946)
(0.00194242 0.00308712 -0.00137946)
(0.00137684 0.00337752 -0.00137946)
(0.000769423 0.00356529 -0.00137946)
(0.000138627 0.00364474 -0.00137946)
(-0.000496381 0.00361344 -0.00137946)
(-0.00111631 0.00347235 -0.00137946)
(-0.00168821 0.00314734 -0.00124989)
(-0.00220909 0.00280637 -0.00124989)
(-0.00266285 0.00238013 -0.00124989)
(-0.0030357 0.00188157 -0.00124989)
(-0.00331631 0.00132584 -0.00124989)
(-0.00349616 0.000729827 -0.00124989)
(-0.00356978 0.000111638 -0.00124989)
(-0.00353493 -0.000509944 -0.00124989)
(-0.00339268 -0.00111603 -0.00124989)
(-0.00314734 -0.00168821 -0.00124989)
(-0.00280637 -0.00220909 -0.00124989)
(-0.00238013 -0.00266285 -0.00124989)
(-0.00188157 -0.0030357 -0.00124989)
(-0.00132584 -0.00331631 -0.00124989)
(-0.000729827 -0.00349616 -0.00124989)
(-0.000111637 -0.00356978 -0.00124989)
(0.000509944 -0.00353493 -0.00124989)
(0.00111603 -0.00339268 -0.00124989)
(0.00168821 -0.00314734 -0.00124989)
(0.00220909 -0.00280637 -0.00124989)
(0.00266285 -0.00238013 -0.00124989)
(0.0030357 -0.00188157 -0.00124989)
(0.00331631 -0.00132584 -0.00124989)
(0.00349616 -0.000729827 -0.00124989)
(0.00356978 -0.000111638 -0.00124989)
(0.00353493 0.000509944 -0.00124989)
(0.00339268 0.00111603 -0.00124989)
(0.00314734 0.00168821 -0.00124989)
(0.00280637 0.00220909 -0.00124989)
(0.00238013 0.00266285 -0.00124989)
(0.00188157 0.0030357 -0.00124989)
(0.00132584 0.00331631 -0.00124989)
(0.000729827 0.00349616 -0.00124989)
(0.000111638 0.00356978 -0.00124989)
(-0.000509944 0.00353493 -0.00124989)
(-0.00111603 0.00339268 -0.00124989)
(-0.00196895 0.00363826 -0.00183636)