/*--------------------------------*- C++ -*----------------------------------*\
| =========                 |                                                 |
| \\      /  F ield         | OpenFOAM: The Open Source CFD Toolbox           |
|  \\    /   O peration     | Version:  2312                                  |
|   \\  /    A nd           | Website:  www.openfoam.com                      |
|    \\/     M anipulation  |                                                 |
\*---------------------------------------------------------------------------*/
FoamFile
{
    version     2.0;
    format      ascii;
    arch        "LSB;label=32;scalar=64";
    class       pointVectorField;
    location    "0.3";
    object      pointD;
}
// * * * * * * * * * * * * * * * * * * * * * * * * * * * * * * * * * * * * * //

dimensions      [0 1 0 0 0 0 0];

internalField   nonuniform List<vector> 
2164
(
(0 0 0)
(0 0 0)
(0 0 0)
(0 0 0)
(0 0 0)
(0 0 0)
(0 0 0)
(0 0 0)
(0 0 0)
(0 0 0)
(0 0 0)
(0 0 0)
(0 0 0)
(0 0 0)
(0 0 0)
(0 0 0)
(0 0 0)
(0 0 0)
(0 0 0)
(0 0 0)
(0 0 0)
(0 0 0)
(0 0 0)
(0 0 0)
(0 0 0)
(0 0 0)
(0 0 0)
(0 0 0)
(0 0 0)
(0 0 0)
(0 0 0)
(0 0 0)
(0 0 0)
(0 0 0)
(0 0 0)
(0 0 0)
(-0.000394903 0.000501948 -0.000153458)
(-0.000476065 0.000425748 -0.000153458)
(-0.000542763 0.000336612 -0.000153458)
(-0.00059297 0.000237249 -0.000153458)
(-0.000625159 0.000130677 -0.000153458)
(-0.000638353 2.0134e-05 -0.000153458)
(-0.000632151 -9.10208e-05 -0.000153458)
(-0.000606742 -0.00019941 -0.000153458)
(-0.000562896 -0.00030174 -0.000153458)
(-0.000501948 -0.000394903 -0.000153458)
(-0.000425748 -0.000476065 -0.000153458)
(-0.000336612 -0.000542763 -0.000153458)
(-0.000237249 -0.00059297 -0.000153458)
(-0.000130677 -0.000625159 -0.000153458)
(-2.0134e-05 -0.000638353 -0.000153458)
(9.10209e-05 -0.000632151 -0.000153458)
(0.00019941 -0.000606742 -0.000153458)
(0.000301741 -0.000562897 -0.000153458)
(0.000394903 -0.000501948 -0.000153458)
(0.000476065 -0.000425748 -0.000153458)
(0.000542763 -0.000336612 -0.000153458)
(0.00059297 -0.000237249 -0.000153458)
(0.000625159 -0.000130677 -0.000153458)
(0.000638353 -2.0134e-05 -0.000153458)
(0.000632151 9.10209e-05 -0.000153458)
(0.000606742 0.00019941 -0.000153458)
(0.000562897 0.00030174 -0.000153458)
(0.000501948 0.000394903 -0.000153458)
(0.000425748 0.000476065 -0.000153458)
(0.000336612 0.000542763 -0.000153458)
(0.000237249 0.00059297 -0.000153458)
(0.000130677 0.000625159 -0.000153458)
(2.0134e-05 0.000638353 -0.000153458)
(-9.10208e-05 0.000632151 -0.000153458)
(-0.00019941 0.000606742 -0.000153458)
(-0.00030174 0.000562897 -0.000153458)
(-0.000355656 0.000538484 -0.000117349)
(-0.00044376 0.000468544 -0.000117349)
(-0.00051838 0.000384368 -0.000117349)
(-0.000577249 0.000288513 -0.000117348)
(-0.00061858 0.000183891 -0.000117348)
(-0.000641114 7.3682e-05 -0.000117349)
(-0.000644169 -3.87652e-05 -0.000117349)
(-0.000627651 -0.000150035 -0.000117348)
(-0.000592062 -0.000256746 -0.000117349)
(-0.000538484 -0.000355656 -0.000117349)
(-0.000468544 -0.00044376 -0.000117349)
(-0.000384368 -0.00051838 -0.000117349)
(-0.000288513 -0.000577249 -0.000117348)
(-0.000183891 -0.00061858 -0.000117348)
(-7.3682e-05 -0.000641114 -0.000117349)
(3.87652e-05 -0.000644169 -0.000117349)
(0.000150035 -0.000627651 -0.000117348)
(0.000256746 -0.000592062 -0.000117349)
(0.000355656 -0.000538484 -0.000117349)
(0.00044376 -0.000468544 -0.000117349)
(0.00051838 -0.000384368 -0.000117349)
(0.000577249 -0.000288513 -0.000117348)
(0.00061858 -0.000183891 -0.000117348)
(0.000641114 -7.3682e-05 -0.000117349)
(0.000644169 3.87652e-05 -0.000117349)
(0.000627651 0.000150035 -0.000117348)
(0.000592062 0.000256746 -0.000117349)
(0.000538484 0.000355656 -0.000117349)
(0.000468544 0.00044376 -0.000117349)
(0.000384368 0.00051838 -0.000117349)
(0.000288513 0.000577249 -0.000117348)
(0.000183891 0.00061858 -0.000117348)
(7.3682e-05 0.000641114 -0.000117349)
(-3.87651e-05 0.000644169 -0.000117349)
(-0.000150035 0.000627651 -0.000117348)
(-0.000256746 0.000592062 -0.000117349)
(0 0 0)
(0 0 0)
(0 0 0)
(0 0 0)
(0 0 0)
(0 0 0)
(0 0 0)
(0 0 0)
(0 0 0)
(0 0 0)
(0 0 0)
(0 0 0)
(0 0 0)
(0 0 0)
(0 0 0)
(0 0 0)
(0 0 0)
(0 0 0)
(0 0 0)
(0 0 0)
(0 0 0)
(0 0 0)
(0 0 0)
(0 0 0)
(0 0 0)
(0 0 0)
(0 0 0)
(0 0 0)
(0 0 0)
(0 0 0)
(0 0 0)
(0 0 0)
(0 0 0)
(0 0 0)
(0 0 0)
(0 0 0)
(-0.00032624 0.000573794 -8.04079e-05)
(-0.000420922 0.000508425 -8.04082e-05)
(-0.000502814 0.000427609 -8.04079e-05)
(-0.000569429 0.0003338 -8.04081e-05)
(-0.000618742 0.000229848 -8.04081e-05)
(-0.000649254 0.000118913 -8.04079e-05)
(-0.00066004 4.36481e-06 -8.04082e-05)
(-0.00065077 -0.000110316 -8.04079e-05)
(-0.000621727 -0.000221646 -8.04081e-05)
(-0.000573794 -0.00032624 -8.04079e-05)
(-0.000508425 -0.000420922 -8.04082e-05)
(-0.000427609 -0.000502814 -8.04079e-05)
(-0.0003338 -0.000569429 -8.04081e-05)
(-0.000229848 -0.000618742 -8.04081e-05)
(-0.000118913 -0.000649254 -8.04079e-05)
(-4.36479e-06 -0.00066004 -8.04082e-05)
(0.000110316 -0.00065077 -8.04079e-05)
(0.000221646 -0.000621727 -8.04081e-05)
(0.00032624 -0.000573794 -8.04079e-05)
(0.000420922 -0.000508425 -8.04082e-05)
(0.000502814 -0.000427609 -8.04079e-05)
(0.000569429 -0.0003338 -8.04081e-05)
(0.000618742 -0.000229848 -8.04081e-05)
(0.000649254 -0.000118913 -8.04079e-05)
(0.00066004 -4.3648e-06 -8.04082e-05)
(0.00065077 0.000110316 -8.04079e-05)
(0.000621727 0.000221646 -8.04081e-05)
(0.000573794 0.00032624 -8.04078e-05)
(0.000508425 0.000420922 -8.04082e-05)
(0.000427609 0.000502814 -8.04079e-05)
(0.0003338 0.000569429 -8.04081e-05)
(0.000229848 0.000618742 -8.04081e-05)
(0.000118913 0.000649254 -8.04079e-05)
(4.36482e-06 0.00066004 -8.04082e-05)
(-0.000110316 0.00065077 -8.04079e-05)
(-0.000221646 0.000621727 -8.0408e-05)
(0 0 0)
(0 0 0)
(0 0 0)
(0 0 0)
(0 0 0)
(0 0 0)
(0 0 0)
(0 0 0)
(0 0 0)
(0 0 0)
(0 0 0)
(0 0 0)
(0 0 0)
(0 0 0)
(0 0 0)
(0 0 0)
(0 0 0)
(0 0 0)
(0 0 0)
(0 0 0)
(0 0 0)
(0 0 0)
(0 0 0)
(0 0 0)
(0 0 0)
(0 0 0)
(0 0 0)
(0 0 0)
(0 0 0)
(0 0 0)
(0 0 0)
(0 0 0)
(0 0 0)
(0 0 0)
(0 0 0)
(0 0 0)
(-0.000306704 0.000604325 -4.50542e-05)
(-0.000406984 0.000541886 -4.50543e-05)
(-0.000494898 0.000462982 -4.50544e-05)
(-0.000567776 0.000370009 -4.50544e-05)
(-0.000623401 0.000265795 -4.50544e-05)
(-0.000660086 0.000153504 -4.50544e-05)
(-0.000676713 3.65487e-05 -4.50546e-05)
(-0.000672779 -8.15163e-05 -4.50544e-05)
(-0.000648403 -0.000197105 -4.50545e-05)
(-0.000604325 -0.000306704 -4.50542e-05)
(-0.000541886 -0.000406984 -4.50543e-05)
(-0.000462981 -0.000494898 -4.50544e-05)
(-0.000370009 -0.000567776 -4.50544e-05)
(-0.000265795 -0.000623401 -4.50544e-05)
(-0.000153504 -0.000660086 -4.50544e-05)
(-3.65486e-05 -0.000676713 -4.50546e-05)
(8.15163e-05 -0.000672779 -4.50544e-05)
(0.000197105 -0.000648403 -4.50545e-05)
(0.000306704 -0.000604325 -4.50542e-05)
(0.000406984 -0.000541886 -4.50543e-05)
(0.000494898 -0.000462981 -4.50544e-05)
(0.000567776 -0.000370009 -4.50544e-05)
(0.000623401 -0.000265795 -4.50544e-05)
(0.000660086 -0.000153504 -4.50544e-05)
(0.000676713 -3.65486e-05 -4.50546e-05)
(0.000672779 8.15163e-05 -4.50544e-05)
(0.000648403 0.000197105 -4.50545e-05)
(0.000604325 0.000306704 -4.50542e-05)
(0.000541886 0.000406984 -4.50543e-05)
(0.000462981 0.000494898 -4.50544e-05)
(0.000370009 0.000567776 -4.50544e-05)
(0.000265795 0.000623402 -4.50544e-05)
(0.000153504 0.000660086 -4.50544e-05)
(3.65487e-05 0.000676713 -4.50546e-05)
(-8.15163e-05 0.000672779 -4.50544e-05)
(-0.000197105 0.000648403 -4.50545e-05)
(0 0 0)
(0 0 0)
(0 0 0)
(0 0 0)
(0 0 0)
(0 0 0)
(0 0 0)
(0 0 0)
(0 0 0)
(0 0 0)
(0 0 0)
(0 0 0)
(0 0 0)
(0 0 0)
(0 0 0)
(0 0 0)
(0 0 0)
(0 0 0)
(0 0 0)
(0 0 0)
(0 0 0)
(0 0 0)
(0 0 0)
(0 0 0)
(0 0 0)
(0 0 0)
(0 0 0)
(0 0 0)
(0 0 0)
(0 0 0)
(0 0 0)
(0 0 0)
(0 0 0)
(0 0 0)
(0 0 0)
(0 0 0)
(-0.000719491 0.00101975 -0.000346251)
(-0.000885639 0.000879323 -0.000346251)
(-0.00102488 0.000712175 -0.00034625)
(-0.00113297 0.000523389 -0.00034625)
(-0.00120665 0.000318699 -0.00034625)
(-0.00124366 0.000104325 -0.00034625)
(-0.00124288 -0.000113219 -0.00034625)
(-0.00120434 -0.000327323 -0.00034625)
(-0.0011292 -0.000531481 -0.00034625)
(-0.00101975 -0.000719491 -0.000346251)
(-0.000879323 -0.000885639 -0.000346251)
(-0.000712175 -0.00102488 -0.00034625)
(-0.000523389 -0.00113297 -0.00034625)
(-0.000318699 -0.00120665 -0.00034625)
(-0.000104325 -0.00124366 -0.00034625)
(0.000113219 -0.00124288 -0.00034625)
(0.000327323 -0.00120434 -0.00034625)
(0.000531481 -0.0011292 -0.00034625)
(0.000719491 -0.00101975 -0.000346251)
(0.000885639 -0.000879323 -0.000346251)
(0.00102488 -0.000712175 -0.00034625)
(0.00113297 -0.000523389 -0.00034625)
(0.00120665 -0.000318699 -0.00034625)
(0.00124366 -0.000104325 -0.00034625)
(0.00124288 0.000113219 -0.00034625)
(0.00120434 0.000327323 -0.00034625)
(0.0011292 0.000531481 -0.00034625)
(0.00101975 0.000719491 -0.000346251)
(0.000879323 0.000885639 -0.000346251)
(0.000712175 0.00102488 -0.00034625)
(0.000523389 0.00113297 -0.00034625)
(0.000318699 0.00120665 -0.00034625)
(0.000104325 0.00124366 -0.00034625)
(-0.000113219 0.00124288 -0.00034625)
(-0.000327323 0.00120434 -0.00034625)
(-0.000531481 0.0011292 -0.00034625)
(-0.000687085 0.00107707 -0.00027942)
(-0.000863678 0.000941394 -0.00027942)
(-0.00101403 0.000777116 -0.000279421)
(-0.00113357 0.000589226 -0.00027942)
(-0.00121866 0.000383433 -0.00027942)
(-0.00126673 0.000165988 -0.00027942)
(-0.00127631 -5.64987e-05 -0.00027942)
(-0.00124711 -0.00027727 -0.00027942)
(-0.00118002 -0.000489616 -0.00027942)
(-0.00107707 -0.000687085 -0.00027942)
(-0.000941394 -0.000863678 -0.00027942)
(-0.000777116 -0.00101403 -0.000279421)
(-0.000589226 -0.00113357 -0.00027942)
(-0.000383433 -0.00121866 -0.00027942)
(-0.000165988 -0.00126673 -0.00027942)
(5.64988e-05 -0.00127631 -0.00027942)
(0.00027727 -0.00124711 -0.00027942)
(0.000489616 -0.00118002 -0.00027942)
(0.000687085 -0.00107707 -0.00027942)
(0.000863678 -0.000941394 -0.00027942)
(0.00101403 -0.000777116 -0.000279421)
(0.00113357 -0.000589226 -0.00027942)
(0.00121866 -0.000383433 -0.00027942)
(0.00126673 -0.000165988 -0.00027942)
(0.00127631 5.64988e-05 -0.00027942)
(0.00124711 0.00027727 -0.00027942)
(0.00118002 0.000489616 -0.00027942)
(0.00107707 0.000687085 -0.00027942)
(0.000941394 0.000863678 -0.00027942)
(0.000777116 0.00101403 -0.00027942)
(0.000589226 0.00113357 -0.00027942)
(0.000383433 0.00121866 -0.00027942)
(0.000165988 0.00126673 -0.00027942)
(-5.64987e-05 0.00127631 -0.00027942)
(-0.00027727 0.00124711 -0.00027942)
(-0.000489616 0.00118002 -0.00027942)
(-0.000666329 0.0011327 -0.00021172)
(-0.000852895 0.000999782 -0.00021172)
(-0.00101355 0.00083649 -0.00021172)
(-0.0011434 0.000647781 -0.00021172)
(-0.00123852 0.000439388 -0.00021172)
(-0.001296 0.000217646 -0.00021172)
(-0.00131411 -1.07098e-05 -0.00021172)
(-0.00129228 -0.000238738 -0.00021172)
(-0.00123119 -0.000459515 -0.00021172)
(-0.0011327 -0.000666329 -0.00021172)
(-0.000999782 -0.000852895 -0.00021172)
(-0.00083649 -0.00101355 -0.00021172)
(-0.000647781 -0.0011434 -0.00021172)
(-0.000439388 -0.00123852 -0.00021172)
(-0.000217646 -0.001296 -0.00021172)
(1.07098e-05 -0.00131411 -0.00021172)
(0.000238738 -0.00129228 -0.00021172)
(0.000459515 -0.00123119 -0.00021172)
(0.000666329 -0.0011327 -0.00021172)
(0.000852895 -0.000999782 -0.00021172)
(0.00101355 -0.00083649 -0.00021172)
(0.0011434 -0.000647781 -0.00021172)
(0.00123852 -0.000439388 -0.00021172)
(0.001296 -0.000217646 -0.00021172)
(0.00131411 1.07098e-05 -0.00021172)
(0.00129228 0.000238738 -0.00021172)
(0.00123119 0.000459515 -0.00021172)
(0.0011327 0.000666329 -0.00021172)
(0.000999782 0.000852895 -0.00021172)
(0.00083649 0.00101355 -0.00021172)
(0.000647781 0.0011434 -0.00021172)
(0.000439388 0.00123852 -0.00021172)
(0.000217646 0.001296 -0.00021172)
(-1.07098e-05 0.00131411 -0.00021172)
(-0.000238738 0.00129228 -0.00021172)
(-0.000459515 0.00123119 -0.00021172)
(-0.000656158 0.00117936 -0.000146849)
(-0.000850982 0.0010475 -0.000146849)
(-0.00101995 0.000883813 -0.00014685)
(-0.00115793 0.000693274 -0.00014685)
(-0.00126072 0.000481669 -0.00014685)
(-0.00132521 0.00025543 -0.00014685)
(-0.00134943 2.14298e-05 -0.000146849)
(-0.00133265 -0.000213222 -0.000146849)
(-0.00127538 -0.000441396 -0.00014685)
(-0.00117936 -0.000656158 -0.000146849)
(-0.0010475 -0.000850982 -0.000146849)
(-0.000883813 -0.00101995 -0.00014685)
(-0.000693274 -0.00115793 -0.00014685)
(-0.000481669 -0.00126072 -0.00014685)
(-0.000255429 -0.00132521 -0.00014685)
(-2.14298e-05 -0.00134943 -0.000146849)
(0.000213222 -0.00133265 -0.000146849)
(0.000441396 -0.00127538 -0.00014685)
(0.000656158 -0.00117936 -0.000146849)
(0.000850982 -0.0010475 -0.000146849)
(0.00101995 -0.000883813 -0.00014685)
(0.00115793 -0.000693274 -0.00014685)
(0.00126072 -0.000481669 -0.00014685)
(0.00132521 -0.000255429 -0.00014685)
(0.00134943 -2.14298e-05 -0.000146849)
(0.00133265 0.000213222 -0.000146849)
(0.00127538 0.000441396 -0.00014685)
(0.00117936 0.000656158 -0.000146849)
(0.0010475 0.000850982 -0.000146849)
(0.000883813 0.00101995 -0.00014685)
(0.000693274 0.00115793 -0.00014685)
(0.000481669 0.00126072 -0.00014685)
(0.00025543 0.00132521 -0.00014685)
(2.14298e-05 0.00134943 -0.000146849)
(-0.000213222 0.00133265 -0.000146849)
(-0.000441396 0.00127538 -0.00014685)
(-0.00103655 0.0015371 -0.000593274)
(-0.00128772 0.00133375 -0.000593274)
(-0.00149976 0.00108988 -0.000593274)
(-0.00166623 0.00081289 -0.000593273)
(-0.00178207 0.000511202 -0.000593273)
(-0.00184377 0.000193982 -0.000593273)
(-0.00184944 -0.000129133 -0.000593273)
(-0.00179892 -0.000448324 -0.000593273)
(-0.00169374 -0.000753892 -0.000593274)
(-0.0015371 -0.00103655 -0.000593274)
(-0.00133375 -0.00128772 -0.000593274)
(-0.00108988 -0.00149976 -0.000593274)
(-0.00081289 -0.00166623 -0.000593273)
(-0.000511202 -0.00178207 -0.000593273)
(-0.000193982 -0.00184377 -0.000593273)
(0.000129133 -0.00184944 -0.000593273)
(0.000448324 -0.00179892 -0.000593274)
(0.000753892 -0.00169374 -0.000593274)
(0.00103655 -0.0015371 -0.000593274)
(0.00128772 -0.00133375 -0.000593274)
(0.00149976 -0.00108988 -0.000593274)
(0.00166623 -0.00081289 -0.000593273)
(0.00178207 -0.000511202 -0.000593273)
(0.00184377 -0.000193982 -0.000593273)
(0.00184944 0.000129133 -0.000593273)
(0.00179892 0.000448324 -0.000593273)
(0.00169374 0.000753892 -0.000593274)
(0.0015371 0.00103655 -0.000593274)
(0.00133375 0.00128772 -0.000593274)
(0.00108988 0.00149976 -0.000593274)
(0.00081289 0.00166623 -0.000593273)
(0.000511202 0.00178207 -0.000593273)
(0.000193982 0.00184377 -0.000593273)
(-0.000129133 0.00184944 -0.000593273)
(-0.000448324 0.00179892 -0.000593273)
(-0.000753892 0.00169374 -0.000593274)
(-0.00101049 0.00160338 -0.000501279)
(-0.00127357 0.00140355 -0.000501279)
(-0.00149794 0.00116108 -0.000501279)
(-0.00167681 0.000883322 -0.000501278)
(-0.00180472 0.00057873 -0.000501278)
(-0.0018778 0.000256551 -0.000501278)
(-0.00189382 -7.34225e-05 -0.000501278)
(-0.0018523 -0.000401165 -0.000501278)
(-0.00175449 -0.000716719 -0.000501278)
(-0.00160338 -0.0010105 -0.000501279)
(-0.00140355 -0.00127357 -0.000501279)
(-0.00116108 -0.00149794 -0.000501279)
(-0.000883322 -0.00167681 -0.000501278)
(-0.00057873 -0.00180472 -0.000501278)
(-0.000256551 -0.0018778 -0.000501278)
(7.34226e-05 -0.00189382 -0.000501278)
(0.000401165 -0.0018523 -0.000501278)
(0.000716719 -0.00175449 -0.000501278)
(0.0010105 -0.00160338 -0.000501279)
(0.00127357 -0.00140355 -0.000501279)
(0.00149794 -0.00116108 -0.000501279)
(0.00167681 -0.000883322 -0.000501278)
(0.00180472 -0.00057873 -0.000501278)
(0.0018778 -0.000256551 -0.000501278)
(0.00189382 7.34225e-05 -0.000501278)
(0.0018523 0.000401165 -0.000501278)
(0.00175449 0.000716719 -0.000501278)
(0.00160338 0.0010105 -0.000501279)
(0.00140355 0.00127357 -0.000501279)
(0.00116108 0.00149794 -0.000501279)
(0.000883323 0.00167681 -0.000501278)
(0.00057873 0.00180472 -0.000501278)
(0.000256551 0.0018778 -0.000501278)
(-7.34225e-05 0.00189382 -0.000501278)
(-0.000401165 0.0018523 -0.000501278)
(-0.000716719 0.00175449 -0.000501278)
(-0.00099716 0.00166655 -0.000408949)
(-0.00127141 0.00146808 -0.000408949)
(-0.00150702 0.001225 -0.000408949)
(-0.00169684 0.000944698 -0.000408949)
(-0.00183511 0.000635691 -0.000408949)
(-0.00191762 0.00030737 -0.000408949)
(-0.00194186 -3.02895e-05 -0.000408949)
(-0.0019071 -0.00036703 -0.000408949)
(-0.00181439 -0.000692618 -0.000408949)
(-0.00166655 -0.00099716 -0.000408949)
(-0.00146808 -0.00127141 -0.000408949)
(-0.001225 -0.00150702 -0.000408949)
(-0.000944698 -0.00169684 -0.000408949)
(-0.000635691 -0.00183511 -0.000408949)
(-0.00030737 -0.00191762 -0.000408949)
(3.02896e-05 -0.00194186 -0.000408949)
(0.00036703 -0.0019071 -0.000408949)
(0.000692618 -0.00181439 -0.000408949)
(0.00099716 -0.00166655 -0.000408949)
(0.00127141 -0.00146808 -0.000408949)
(0.00150702 -0.001225 -0.000408949)
(0.00169684 -0.000944698 -0.000408949)
(0.00183511 -0.000635691 -0.000408949)
(0.00191762 -0.00030737 -0.000408949)
(0.00194186 3.02896e-05 -0.000408949)
(0.0019071 0.00036703 -0.000408949)
(0.00181439 0.000692618 -0.000408949)
(0.00166655 0.00099716 -0.000408949)
(0.00146808 0.00127141 -0.000408949)
(0.001225 0.00150702 -0.000408949)
(0.000944698 0.00169684 -0.000408949)
(0.000635691 0.00183511 -0.000408949)
(0.00030737 0.00191762 -0.000408949)
(-3.02895e-05 0.00194186 -0.000408949)
(-0.00036703 0.0019071 -0.000408949)
(-0.000692618 0.00181439 -0.000408949)
(-0.000994057 0.00171604 -0.0003203)
(-0.00127694 0.00151736 -0.0003203)
(-0.00152103 0.00127257 -0.0003203)
(-0.0017189 0.000989111 -0.0003203)
(-0.00186454 0.000675601 -0.0003203)
(-0.00195353 0.000341562 -0.0003203)
(-0.00198317 -2.85473e-06 -0.000320301)
(-0.00195254 -0.000347184 -0.000320301)
(-0.00186259 -0.000680966 -0.0003203)
(-0.00171604 -0.000994057 -0.0003203)
(-0.00151736 -0.00127694 -0.0003203)
(-0.00127257 -0.00152103 -0.0003203)
(-0.000989111 -0.0017189 -0.0003203)
(-0.000675601 -0.00186454 -0.0003203)
(-0.000341562 -0.00195353 -0.0003203)
(2.85479e-06 -0.00198317 -0.000320301)
(0.000347184 -0.00195254 -0.000320301)
(0.000680966 -0.00186259 -0.0003203)
(0.000994057 -0.00171604 -0.0003203)
(0.00127694 -0.00151736 -0.0003203)
(0.00152103 -0.00127257 -0.0003203)
(0.0017189 -0.000989111 -0.0003203)
(0.00186454 -0.000675601 -0.0003203)
(0.00195353 -0.000341562 -0.0003203)
(0.00198317 2.85478e-06 -0.000320301)
(0.00195254 0.000347184 -0.0003203)
(0.00186259 0.000680966 -0.0003203)
(0.00171604 0.000994057 -0.0003203)
(0.00151736 0.00127694 -0.0003203)
(0.00127257 0.00152103 -0.0003203)
(0.000989111 0.0017189 -0.0003203)
(0.000675601 0.00186454 -0.0003203)
(0.000341562 0.00195353 -0.0003203)
(-2.85471e-06 0.00198317 -0.000320301)
(-0.000347184 0.00195254 -0.0003203)
(-0.000680966 0.00186259 -0.0003203)
(-0.00134452 0.00204944 -0.000877861)
(-0.00167998 0.00178483 -0.000877861)
(-0.00196439 0.00146599 -0.000877861)
(-0.00218911 0.00110261 -0.00087786)
(-0.00234732 0.000705722 -0.00087786)
(-0.0024342 0.000287394 -0.00087786)
(-0.00244713 -0.000139667 -0.000877859)
(-0.0023857 -0.000562486 -0.00087786)
(-0.00225178 -0.000968212 -0.00087786)
(-0.00204944 -0.00134452 -0.000877861)
(-0.00178483 -0.00167998 -0.000877861)
(-0.00146599 -0.00196439 -0.000877861)
(-0.00110261 -0.00218911 -0.000877861)
(-0.000705722 -0.00234732 -0.00087786)
(-0.000287394 -0.0024342 -0.00087786)
(0.000139667 -0.00244713 -0.000877859)
(0.000562486 -0.0023857 -0.00087786)
(0.000968212 -0.00225178 -0.00087786)
(0.00134452 -0.00204944 -0.000877861)
(0.00167998 -0.00178483 -0.000877861)
(0.00196439 -0.00146599 -0.000877861)
(0.00218911 -0.00110261 -0.000877861)
(0.00234732 -0.000705722 -0.00087786)
(0.0024342 -0.000287394 -0.00087786)
(0.00244713 0.000139667 -0.000877859)
(0.0023857 0.000562486 -0.00087786)
(0.00225178 0.000968212 -0.00087786)
(0.00204944 0.00134452 -0.000877861)
(0.00178483 0.00167998 -0.000877861)
(0.00146599 0.00196439 -0.00087786)
(0.00110261 0.00218911 -0.00087786)
(0.000705722 0.00234732 -0.00087786)
(0.000287394 0.0024342 -0.00087786)
(-0.000139667 0.00244713 -0.000877859)
(-0.000562486 0.0023857 -0.00087786)
(-0.000968212 0.00225178 -0.00087786)
(-0.00132375 0.00210736 -0.000765263)
(-0.00166958 0.00184548 -0.000765263)
(-0.00196467 0.00152752 -0.000765262)
(-0.00220008 0.00116315 -0.000765263)
(-0.00236863 0.000763442 -0.000765262)
(-0.00246522 0.000340535 -0.000765262)
(-0.0024869 -9.27181e-05 -0.000765262)
(-0.00243302 -0.000523156 -0.000765262)
(-0.00230521 -0.000937697 -0.000765263)
(-0.00210736 -0.00132375 -0.000765263)
(-0.00184548 -0.00166958 -0.000765263)
(-0.00152752 -0.00196467 -0.000765262)
(-0.00116315 -0.00220008 -0.000765263)
(-0.000763442 -0.00236863 -0.000765262)
(-0.000340535 -0.00246522 -0.000765262)
(9.27182e-05 -0.0024869 -0.000765262)
(0.000523156 -0.00243302 -0.000765262)
(0.000937697 -0.00230521 -0.000765263)
(0.00132375 -0.00210736 -0.000765263)
(0.00166958 -0.00184548 -0.000765263)
(0.00196467 -0.00152752 -0.000765262)
(0.00220008 -0.00116315 -0.000765263)
(0.00236863 -0.000763442 -0.000765262)
(0.00246522 -0.000340535 -0.000765262)
(0.0024869 9.27181e-05 -0.000765262)
(0.00243302 0.000523156 -0.000765262)
(0.00230521 0.000937697 -0.000765263)
(0.00210736 0.00132375 -0.000765263)
(0.00184548 0.00166958 -0.000765263)
(0.00152752 0.00196467 -0.000765262)
(0.00116315 0.00220008 -0.000765262)
(0.000763442 0.00236863 -0.000765262)
(0.000340536 0.00246522 -0.000765262)
(-9.2718e-05 0.0024869 -0.000765262)
(-0.000523156 0.00243302 -0.000765262)
(-0.000937697 0.00230521 -0.000765263)
(-0.00131686 0.00216026 -0.00065298)
(-0.00167198 0.00189877 -0.00065298)
(-0.0019763 0.00157959 -0.00065298)
(-0.00222057 0.00121241 -0.00065298)
(-0.00239736 0.000808397 -0.00065298)
(-0.00250132 0.000379818 -0.00065298)
(-0.00252927 -6.03034e-05 -0.00065298)
(-0.00248037 -0.00049859 -0.00065298)
(-0.00235611 -0.000921729 -0.000652979)
(-0.00216026 -0.00131686 -0.00065298)
(-0.00189877 -0.00167198 -0.00065298)
(-0.00157959 -0.0019763 -0.00065298)
(-0.00121241 -0.00222057 -0.00065298)
(-0.000808397 -0.00239736 -0.00065298)
(-0.000379817 -0.00250132 -0.00065298)
(6.03035e-05 -0.00252927 -0.00065298)
(0.00049859 -0.00248037 -0.00065298)
(0.000921729 -0.00235611 -0.000652979)
(0.00131686 -0.00216026 -0.00065298)
(0.00167198 -0.00189877 -0.00065298)
(0.0019763 -0.00157959 -0.00065298)
(0.00222057 -0.00121241 -0.00065298)
(0.00239736 -0.000808397 -0.00065298)
(0.00250132 -0.000379817 -0.00065298)
(0.00252927 6.03035e-05 -0.00065298)
(0.00248037 0.00049859 -0.00065298)
(0.00235611 0.000921729 -0.000652979)
(0.00216026 0.00131686 -0.00065298)
(0.00189877 0.00167198 -0.00065298)
(0.00157959 0.0019763 -0.00065298)
(0.00121241 0.00222057 -0.00065298)
(0.000808397 0.00239736 -0.00065298)
(0.000379818 0.00250132 -0.00065298)
(-6.03034e-05 0.00252927 -0.00065298)
(-0.00049859 0.00248037 -0.00065298)
(-0.000921729 0.00235611 -0.000652979)
(-0.00131923 0.00219548 -0.000545109)
(-0.00168043 0.00193305 -0.000545108)
(-0.00199057 0.00161188 -0.000545109)
(-0.00224023 0.00124173 -0.000545108)
(-0.00242182 0.000833858 -0.000545109)
(-0.00252982 0.000400643 -0.000545109)
(-0.00256096 -4.47415e-05 -0.000545108)
(-0.00251428 -0.000488768 -0.000545109)
(-0.00239121 -0.000917943 -0.000545108)
(-0.00219548 -0.00131923 -0.000545109)
(-0.00193305 -0.00168043 -0.000545108)
(-0.00161188 -0.00199057 -0.000545109)
(-0.00124173 -0.00224023 -0.000545108)
(-0.000833858 -0.00242182 -0.000545109)
(-0.000400643 -0.00252982 -0.000545109)
(4.47416e-05 -0.00256096 -0.000545108)
(0.000488768 -0.00251428 -0.000545109)
(0.000917943 -0.00239121 -0.000545108)
(0.00131923 -0.00219548 -0.000545109)
(0.00168043 -0.00193305 -0.000545108)
(0.00199057 -0.00161188 -0.000545109)
(0.00224023 -0.00124173 -0.000545108)
(0.00242182 -0.000833858 -0.000545109)
(0.00252982 -0.000400643 -0.000545109)
(0.00256096 4.47416e-05 -0.000545108)
(0.00251428 0.000488768 -0.000545109)
(0.00239121 0.000917943 -0.000545108)
(0.00219548 0.00131923 -0.000545109)
(0.00193305 0.00168043 -0.000545108)
(0.00161188 0.00199057 -0.000545109)
(0.00124173 0.00224023 -0.000545108)
(0.000833858 0.00242182 -0.000545108)
(0.000400643 0.00252982 -0.000545109)
(-4.47415e-05 0.00256096 -0.000545108)
(-0.000488768 0.00251428 -0.000545109)
(-0.000917943 0.00239121 -0.000545108)
(-0.00164871 0.00254554 -0.00119222)
(-0.00206569 0.00222057 -0.00119222)
(-0.00241991 0.00182813 -0.00119222)
(-0.0027006 0.00138014 -0.00119222)
(-0.00289923 0.000890223 -0.00119222)
(-0.00300977 0.00037325 -0.00119222)
(-0.00302886 -0.00015506 -0.00119222)
(-0.00295592 -0.00067866 -0.00119222)
(-0.00279316 -0.00118164 -0.00119222)
(-0.00254554 -0.00164871 -0.00119222)
(-0.00222057 -0.00206569 -0.00119222)
(-0.00182813 -0.00241991 -0.00119222)
(-0.00138014 -0.0027006 -0.00119222)
(-0.000890223 -0.00289923 -0.00119222)
(-0.00037325 -0.00300977 -0.00119222)
(0.00015506 -0.00302886 -0.00119222)
(0.00067866 -0.00295592 -0.00119222)
(0.00118164 -0.00279316 -0.00119222)
(0.00164871 -0.00254554 -0.00119222)
(0.00206569 -0.00222057 -0.00119222)
(0.00241991 -0.00182813 -0.00119222)
(0.0027006 -0.00138014 -0.00119222)
(0.00289923 -0.000890223 -0.00119222)
(0.00300977 -0.00037325 -0.00119222)
(0.00302886 0.00015506 -0.00119222)
(0.00295592 0.00067866 -0.00119222)
(0.00279316 0.00118164 -0.00119222)
(0.00254554 0.00164871 -0.00119222)
(0.00222057 0.00206569 -0.00119222)
(0.00182813 0.00241991 -0.00119222)
(0.00138014 0.0027006 -0.00119222)
(0.000890223 0.00289923 -0.00119222)
(0.00037325 0.00300977 -0.00119222)
(-0.00015506 0.00302886 -0.00119222)
(-0.00067866 0.00295592 -0.00119222)
(-0.00118164 0.00279316 -0.00119222)
(-0.00162909 0.00257639 -0.00106311)
(-0.00205173 0.00225436 -0.00106311)
(-0.00241202 0.00186383 -0.00106311)
(-0.00269903 0.00141668 -0.00106311)
(-0.00290403 0.00092647 -0.00106311)
(-0.00302079 0.000408117 -0.00106311)
(-0.00304577 -0.000122639 -0.00106311)
(-0.0029782 -0.000649668 -0.00106311)
(-0.00282014 -0.00115696 -0.00106311)
(-0.00257639 -0.00162909 -0.00106311)
(-0.00225436 -0.00205173 -0.00106311)
(-0.00186383 -0.00241202 -0.00106311)
(-0.00141668 -0.00269903 -0.00106311)
(-0.00092647 -0.00290403 -0.00106311)
(-0.000408117 -0.00302079 -0.00106311)
(0.000122639 -0.00304577 -0.00106311)
(0.000649668 -0.0029782 -0.00106311)
(0.00115696 -0.00282014 -0.00106311)
(0.00162909 -0.00257639 -0.00106311)
(0.00205173 -0.00225436 -0.00106311)
(0.00241202 -0.00186383 -0.00106311)
(0.00269903 -0.00141668 -0.00106311)
(0.00290403 -0.00092647 -0.00106311)
(0.00302079 -0.000408117 -0.00106311)
(0.00304577 0.000122639 -0.00106311)
(0.0029782 0.000649668 -0.00106311)
(0.00282014 0.00115696 -0.00106311)
(0.00257639 0.00162909 -0.00106311)
(0.00225436 0.00205173 -0.00106311)
(0.00186383 0.00241202 -0.00106311)
(0.00141668 0.00269903 -0.00106311)
(0.00092647 0.00290403 -0.00106311)
(0.000408117 0.00302079 -0.00106311)
(-0.000122639 0.00304577 -0.00106311)
(-0.000649667 0.0029782 -0.00106311)
(-0.00115696 0.00282014 -0.00106311)
(-0.00162392 0.00260062 -0.000935019)
(-0.00205084 0.00227912 -0.000935019)
(-0.00241545 0.00188837 -0.000935019)
(-0.00270666 0.00144024 -0.000935018)
(-0.00291564 0.000948354 -0.000935018)
(-0.00303602 0.000427653 -0.000935019)
(-0.00306416 -0.000106045 -0.000935019)
(-0.00299919 -0.000636518 -0.000935019)
(-0.0028431 -0.00114765 -0.000935019)
(-0.00260062 -0.00162392 -0.000935019)
(-0.00227912 -0.00205084 -0.000935019)
(-0.00188837 -0.00241545 -0.000935019)
(-0.00144024 -0.00270666 -0.000935018)
(-0.000948354 -0.00291564 -0.000935018)
(-0.000427653 -0.00303602 -0.000935019)
(0.000106045 -0.00306416 -0.000935019)
(0.000636518 -0.00299919 -0.000935019)
(0.00114765 -0.0028431 -0.000935019)
(0.00162392 -0.00260062 -0.000935019)
(0.00205084 -0.00227912 -0.000935019)
(0.00241545 -0.00188837 -0.000935019)
(0.00270666 -0.00144024 -0.000935018)
(0.00291564 -0.000948354 -0.000935018)
(0.00303602 -0.000427653 -0.000935019)
(0.00306416 0.000106045 -0.000935019)
(0.00299919 0.000636518 -0.000935019)
(0.0028431 0.00114765 -0.000935019)
(0.00260062 0.00162392 -0.000935019)
(0.00227912 0.00205084 -0.000935019)
(0.00188837 0.00241545 -0.000935019)
(0.00144024 0.00270666 -0.000935018)
(0.000948354 0.00291564 -0.000935018)
(0.000427653 0.00303602 -0.000935018)
(-0.000106045 0.00306416 -0.000935018)
(-0.000636518 0.00299919 -0.000935019)
(-0.00114765 0.0028431 -0.000935019)
(-0.0016265 0.00260442 -0.000811744)
(-0.00205404 0.00228242 -0.000811744)
(-0.00241918 0.00189106 -0.000811744)
(-0.0027108 0.00144225 -0.000811744)
(-0.00292006 0.00094961 -0.000811744)
(-0.0030406 0.000428123 -0.000811744)
(-0.00306875 -0.000106376 -0.000811744)
(-0.00300365 -0.000637645 -0.000811744)
(-0.0028473 -0.00114954 -0.000811744)
(-0.00260442 -0.0016265 -0.000811744)
(-0.00228242 -0.00205404 -0.000811744)
(-0.00189106 -0.00241918 -0.000811744)
(-0.00144225 -0.0027108 -0.000811744)
(-0.00094961 -0.00292006 -0.000811744)
(-0.000428123 -0.0030406 -0.000811744)
(0.000106376 -0.00306875 -0.000811744)
(0.000637645 -0.00300365 -0.000811744)
(0.00114954 -0.0028473 -0.000811744)
(0.0016265 -0.00260442 -0.000811744)
(0.00205404 -0.00228242 -0.000811744)
(0.00241918 -0.00189106 -0.000811744)
(0.0027108 -0.00144225 -0.000811744)
(0.00292006 -0.00094961 -0.000811744)
(0.0030406 -0.000428123 -0.000811744)
(0.00306875 0.000106376 -0.000811744)
(0.00300365 0.000637645 -0.000811744)
(0.0028473 0.00114954 -0.000811744)
(0.00260442 0.0016265 -0.000811744)
(0.00228242 0.00205404 -0.000811744)
(0.00189106 0.00241918 -0.000811743)
(0.00144225 0.0027108 -0.000811744)
(0.00094961 0.00292006 -0.000811744)
(0.000428123 0.0030406 -0.000811744)
(-0.000106376 0.00306875 -0.000811744)
(-0.000637645 0.00300365 -0.000811744)
(-0.00114954 0.0028473 -0.000811744)
(-0.00195179 0.00300898 -0.00152869)
(-0.00244464 0.00262434 -0.00152869)
(-0.00286321 0.00215997 -0.00152869)
(-0.00319479 0.00162996 -0.00152869)
(-0.00342929 0.00105043 -0.00152869)
(-0.0035596 0.000438977 -0.00152869)
(-0.00358175 -0.000185809 -0.00152869)
(-0.00349507 -0.000804951 -0.00152869)
(-0.00330219 -0.00139963 -0.00152869)
(-0.00300898 -0.00195179 -0.00152869)