/*--------------------------------*- C++ -*----------------------------------*\
| =========                 |                                                 |
| \\      /  F ield         | OpenFOAM: The Open Source CFD Toolbox           |
|  \\    /   O peration     | Version:  2312                                  |
|   \\  /    A nd           | Website:  www.openfoam.com                      |
|    \\/     M anipulation  |                                                 |
\*---------------------------------------------------------------------------*/
FoamFile
{
    version     2.0;
    format      ascii;
    arch        "LSB;label=32;scalar=64";
    class       volSymmTensorField;
    location    "0.3";
    object      sigma;
}
// * * * * * * * * * * * * * * * * * * * * * * * * * * * * * * * * * * * * * //

dimensions      [1 -1 -2 0 0 0 0];

internalField   nonuniform List<symmTensor> 
1620
(
(-6533.59 -9164.71 -1156.21 -4220.65 944.52 -15210.6)
(5788.69 -8373.8 1899.9 7147.3 -2530.54 -1231.96)
(15011.3 -7245.87 3966.04 14198.1 -4066.87 10610.8)
(21161.3 -6240.86 5285.4 18490.1 -4380.67 18961)
(24403.6 -5431.11 6171.5 20373 -4251.93 23760.4)
(25414.4 -4787.36 6793.21 20411 -4013.13 25794)
(24865.7 -4274.38 7227.21 19180.1 -3779.48 25859.9)
(23254.3 -3870.96 7516.16 17117.7 -3594.6 24556.6)
(20876.8 -3570.23 7698.57 14479.2 -3479.81 22266.5)
(17830.2 -3375.92 7814.09 11326.6 -3445.99 19153.9)
(14006.4 -3301.07 7896.05 7521.46 -3497.82 15153.4)
(9110.82 -3369.84 7963.2 2743.22 -3639.19 9980.83)
(2777.21 -3620.61 8015.41 -3397.64 -3879.7 3237.85)
(-5110.32 -4109.13 8029.98 -11029.5 -4238.01 -5283.87)
(-13813.8 -4905.23 7945.31 -19376.1 -4731.14 -15014.6)
(-21151 -6061.85 7605.72 -26018 -5315.51 -23975.8)
(-23977.7 -7515.66 6646.16 -27132.3 -5644.21 -29098)
(-18568.2 -8833.38 4476.05 -18530 -4508.86 -26212.9)
(-6533.59 -9164.71 1156.21 -4220.65 -944.519 -15210.6)
(5788.69 -8373.8 -1899.9 7147.3 2530.54 -1231.96)
(15011.3 -7245.87 -3966.04 14198.1 4066.87 10610.8)
(21161.3 -6240.86 -5285.4 18490.1 4380.67 18961)
(24403.6 -5431.11 -6171.5 20373 4251.93 23760.4)
(25414.4 -4787.36 -6793.21 20411 4013.13 25794)
(24865.7 -4274.38 -7227.21 19180.1 3779.48 25859.9)
(23254.3 -3870.96 -7516.16 17117.7 3594.6 24556.6)
(20876.8 -3570.23 -7698.57 14479.2 3479.81 22266.5)
(17830.2 -3375.92 -7814.09 11326.6 3445.99 19153.9)
(14006.4 -3301.07 -7896.05 7521.46 3497.82 15153.4)
(9110.82 -3369.84 -7963.2 2743.22 3639.19 9980.83)
(2777.21 -3620.61 -8015.41 -3397.64 3879.7 3237.85)
(-5110.32 -4109.13 -8029.98 -11029.5 4238.01 -5283.87)
(-13813.8 -4905.23 -7945.31 -19376.1 4731.14 -15014.6)
(-21151 -6061.85 -7605.72 -26018 5315.51 -23975.8)
(-23977.7 -7515.66 -6646.16 -27132.3 5644.21 -29098)
(-18568.2 -8833.38 -4476.05 -18530 4508.86 -26212.9)
(-17963.2 -1536.48 -227.994 -1404.01 -2120.86 -18547)
(-12405.5 -1351.71 92.3316 950.38 -6421.1 -9743.01)
(-6235.47 -1265.96 279.199 3532.34 -7997.12 380.821)
(-739.309 -1205.09 401.905 6359.61 -8116.53 9039.33)
(3412.18 -1130.11 505.693 8718.15 -7770.63 15429.1)
(6157.83 -1034.6 610.301 10284.3 -7377.21 19682.8)
(7616.11 -924.697 719.236 10989.6 -7076.31 22084.8)
(7899.31 -811.86 830.667 10841.9 -6906.39 22858.4)
(7071.2 -711.218 944.428 9850.59 -6871.86 22154.8)
(5147.18 -640.607 1062.39 8003.01 -6965.91 20065.2)
(2109.75 -619.288 1184.25 5269.52 -7179.79 16625.8)
(-2058.29 -666.697 1304.4 1636.36 -7508.07 11831.2)
(-7298.02 -800.687 1412.3 -2809.15 -7946.52 5688.26)
(-13320.4 -1031.64 1492.24 -7702.91 -8471.34 -1650.27)
(-19392 -1344.29 1516.33 -12145 -8974.24 -9682.91)
(-24227.8 -1665.26 1431.41 -14540.9 -9090.59 -17397.6)
(-26022.7 -1851.83 1165.06 -12877.1 -7856.44 -22987.6)
(-22900.7 -1780.51 706.482 -6447.98 -3858.14 -23282)
(-17963.2 -1536.48 227.994 -1404.01 2120.86 -18547)
(-12405.5 -1351.71 -92.3315 950.38 6421.1 -9743.01)
(-6235.47 -1265.96 -279.199 3532.34 7997.12 380.82)
(-739.309 -1205.09 -401.905 6359.61 8116.53 9039.33)
(3412.18 -1130.11 -505.693 8718.15 7770.63 15429.1)
(6157.83 -1034.6 -610.301 10284.3 7377.21 19682.8)
(7616.11 -924.697 -719.236 10989.6 7076.31 22084.8)
(7899.31 -811.86 -830.667 10841.9 6906.39 22858.4)
(7071.2 -711.218 -944.428 9850.59 6871.86 22154.8)
(5147.18 -640.607 -1062.39 8003.01 6965.91 20065.2)
(2109.75 -619.288 -1184.25 5269.52 7179.79 16625.8)
(-2058.29 -666.697 -1304.4 1636.36 7508.07 11831.2)
(-7298.02 -800.687 -1412.3 -2809.15 7946.52 5688.26)
(-13320.4 -1031.64 -1492.24 -7702.91 8471.34 -1650.27)
(-19392 -1344.29 -1516.33 -12145 8974.24 -9682.91)
(-24227.8 -1665.26 -1431.41 -14540.9 9090.59 -17397.6)
(-26022.7 -1851.83 -1165.06 -12877.1 7856.44 -22987.6)
(-22900.7 -1780.51 -706.482 -6447.98 3858.14 -23282)
(-15088.5 8534.1 -2647.66 -10975.9 -2697.76 -21560.5)
(-16201.4 7560.77 -4974.29 -14278.7 -4902.25 -20256.6)
(-14925.9 6324.71 -6503.48 -15153.3 -5575.41 -16416.4)
(-11151.5 5275.82 -7411.19 -12973.5 -5485.8 -10722)
(-5970.94 4545.68 -7946.07 -8911.77 -5204.18 -4283.44)
(-613.855 4118 -8256.51 -4333.71 -4971.47 1845.41)
(3938.09 3939.1 -8406.74 -283.13 -4859.47 6827.82)
(7037.47 3949.59 -8418.29 2584.89 -4870.54 10106.5)
(8325.36 4089.96 -8299.15 3919.01 -4978.97 11378.8)
(7680.35 4305.65 -8060.4 3590.8 -5150.08 10558.5)
(5204.88 4557.06 -7720.82 1670.24 -5352.56 7759.76)
(1239.99 4829.6 -7299.05 -1547.77 -5564.57 3302.99)
(-3614.04 5139.04 -6799.25 -5499.63 -5767 -2272.99)
(-8513.18 5535.09 -6195.68 -9344.54 -5918.52 -8229)
(-12507 6101.5 -5412.07 -12074.2 -5899.79 -13746.1)
(-14844.2 6916.52 -4288.33 -12829.5 -5404.13 -18144.7)
(-15316.3 7909.25 -2576.51 -11508.7 -3845.51 -20949.2)
(-14884.7 8649.69 -134.41 -9973.76 -810.104 -22028.4)
(-15088.5 8534.1 2647.66 -10975.9 2697.76 -21560.5)
(-16201.4 7560.77 4974.29 -14278.7 4902.25 -20256.6)
(-14925.9 6324.71 6503.48 -15153.3 5575.41 -16416.4)
(-11151.5 5275.82 7411.19 -12973.5 5485.8 -10722)
(-5970.94 4545.68 7946.07 -8911.77 5204.18 -4283.44)
(-613.855 4118 8256.51 -4333.71 4971.47 1845.41)
(3938.09 3939.1 8406.74 -283.13 4859.47 6827.82)
(7037.47 3949.59 8418.29 2584.89 4870.54 10106.5)
(8325.36 4089.96 8299.15 3919.01 4978.97 11378.8)
(7680.35 4305.65 8060.4 3590.8 5150.08 10558.5)
(5204.89 4557.06 7720.82 1670.24 5352.56 7759.76)
(1239.99 4829.6 7299.05 -1547.77 5564.57 3302.99)
(-3614.04 5139.04 6799.25 -5499.63 5767 -2272.99)
(-8513.18 5535.09 6195.68 -9344.54 5918.52 -8229)
(-12507 6101.5 5412.07 -12074.2 5899.79 -13746.1)
(-14844.2 6916.52 4288.33 -12829.5 5404.13 -18144.7)
(-15316.3 7909.25 2576.51 -11508.7 3845.51 -20949.2)
(-14884.7 8649.69 134.41 -9973.76 810.104 -22028.4)
(9251.04 -8933.72 -1118.74 11654.4 952.906 384.569)
(12638.1 -7522.46 3579.89 11492 -3961.23 6445.64)
(15423.4 -5889.64 5567.7 11167.4 -4284.91 12362)
(16583.7 -4799.48 6521.17 10735.9 -3718.64 15412.5)
(16506.4 -4040.56 7133.95 9675.14 -3170.18 16468.4)
(15672 -3447.21 7599.28 8122.21 -2739.63 16301.3)
(14445.5 -2944.07 7952.47 6357.6 -2402.33 15411.3)
(13145.5 -2506.88 8198.41 4683.12 -2139.07 14200.3)
(12009.1 -2134.02 8353.1 3321.78 -1945.72 12977.1)
(11159.4 -1832.04 8445.59 2373.93 -1820.65 11928.8)
(10590.1 -1612.1 8506.82 1804.46 -1758.07 11099.6)
(10168.8 -1492.09 8560.18 1444.56 -1750.19 10388.2)
(9676.8 -1499.76 8618.66 1020.77 -1794.75 9576.18)
(8923.75 -1674.87 8685.6 256.19 -1905.92 8425.78)
(7974.74 -2069.2 8752.26 -893.263 -2132.77 6902.12)
(7367.49 -2759.79 8782.22 -1858.54 -2617.33 5493.03)
(7613.68 -4023.08 8589.31 -1226.27 -3778.46 4939.05)
(7381 -6751.61 6888.52 3230.88 -5737.87 2821.09)
(9251.04 -8933.72 1118.74 11654.4 -952.906 384.569)
(12638.1 -7522.46 -3579.89 11492 3961.23 6445.64)
(15423.4 -5889.64 -5567.7 11167.4 4284.91 12362)
(16583.7 -4799.48 -6521.17 10735.9 3718.64 15412.5)
(16506.4 -4040.56 -7133.95 9675.14 3170.18 16468.4)
(15672 -3447.21 -7599.28 8122.21 2739.63 16301.3)
(14445.5 -2944.07 -7952.47 6357.6 2402.33 15411.3)
(13145.5 -2506.88 -8198.41 4683.12 2139.07 14200.3)
(12009.1 -2134.02 -8353.1 3321.78 1945.72 12977.1)
(11159.4 -1832.04 -8445.59 2373.93 1820.65 11928.8)
(10590.1 -1612.1 -8506.82 1804.46 1758.07 11099.6)
(10168.8 -1492.09 -8560.18 1444.56 1750.19 10388.2)
(9676.8 -1499.76 -8618.66 1020.77 1794.75 9576.18)
(8923.75 -1674.87 -8685.6 256.19 1905.92 8425.78)
(7974.74 -2069.2 -8752.26 -893.263 2132.77 6902.12)
(7367.49 -2759.79 -8782.22 -1858.54 2617.33 5493.03)
(7613.68 -4023.08 -8589.31 -1226.27 3778.46 4939.05)
(7381 -6751.61 -6888.52 3230.88 5737.87 2821.09)
(-7836.67 -1597.68 114.312 6751.02 -4268.54 -8138.22)
(-6054.4 -1235.86 599.724 1955.98 -8235.18 873.606)
(-4328.77 -1131.98 750.375 7.29998 -7506.15 7492.75)
(-3820.8 -1124.76 839.743 -1213.91 -6337.22 10678.8)
(-3375.81 -1105.94 937.769 -1755.72 -5440.43 12697.1)
(-2883.88 -1035.42 1056.73 -1925.29 -4830.98 14144.5)
(-2461.73 -914.643 1187.86 -1957.9 -4446.83 15089)
(-2198.9 -764.351 1320.35 -1973.69 -4240.32 15524.6)
(-2118.42 -610.024 1450.17 -2006.76 -4180.13 15498.6)
(-2199.4 -476.719 1579.08 -2045.36 -4242.53 15109)
(-2392.81 -389.058 1707.79 -2051.9 -4409.58 14477.4)
(-2625.67 -372.601 1831.48 -1970.11 -4675.25 13719.5)
(-2807.27 -453.358 1939.8 -1732.96 -5054.96 12915.1)
(-2852.92 -651.079 2017.21 -1275.62 -5596.62 12059)
(-2759.81 -962.355 2041.91 -542.115 -6393.1 10943.8)
(-2797.12 -1341.05 1976.91 592.558 -7561.64 8868.38)
(-4367.71 -1716.74 1723.48 2171.37 -8808.31 3404.19)
(-6779.95 -1930.62 974.101 6828.69 -6344.45 -6070.09)
(-7836.67 -1597.68 -114.312 6751.02 4268.54 -8138.22)
(-6054.4 -1235.86 -599.724 1955.98 8235.18 873.606)
(-4328.77 -1131.98 -750.375 7.29998 7506.15 7492.75)
(-3820.8 -1124.76 -839.743 -1213.91 6337.22 10678.8)
(-3375.81 -1105.94 -937.769 -1755.72 5440.43 12697.1)
(-2883.88 -1035.42 -1056.73 -1925.29 4830.98 14144.5)
(-2461.73 -914.643 -1187.86 -1957.9 4446.83 15089)
(-2198.9 -764.351 -1320.35 -1973.69 4240.32 15524.6)
(-2118.42 -610.024 -1450.17 -2006.76 4180.13 15498.6)
(-2199.4 -476.719 -1579.08 -2045.36 4242.53 15109)
(-2392.81 -389.058 -1707.79 -2051.9 4409.58 14477.4)
(-2625.67 -372.601 -1831.48 -1970.11 4675.25 13719.5)
(-2807.27 -453.358 -1939.8 -1732.96 5054.96 12915.1)
(-2852.92 -651.079 -2017.21 -1275.62 5596.62 12059)
(-2759.81 -962.355 -2041.91 -542.115 6393.1 10943.8)
(-2797.12 -1341.05 -1976.91 592.558 7561.64 8868.38)
(-4367.71 -1716.74 -1723.48 2171.37 8808.31 3404.19)
(-6779.95 -1930.62 -974.101 6828.69 6344.45 -6070.09)
(-9801.93 8150.35 -4532.9 -8147.88 -4951.36 -15300.9)
(-11042.2 5814.4 -7669.75 -13681.2 -5873.64 -11275.3)
(-12550.3 3955.15 -8800.42 -16859.8 -4825.23 -9731.9)
(-12670.9 2761.11 -9207.79 -17697.2 -3882.2 -8417.68)
(-10618.4 2047.06 -9404.44 -16202.4 -3262.35 -5759.17)
(-7214.15 1700.97 -9529.38 -13348.4 -2926.46 -2154.59)
(-3565.64 1651.19 -9596.21 -10180.2 -2822.03 1498.42)
(-503.264 1826.51 -9580.42 -7415.8 -2901.49 4468.09)
(1503.96 2147.04 -9452.88 -5430.89 -3115.32 6332.91)
(2295.34 2528.2 -9200.33 -4345.61 -3409.1 6957.29)
(1963.37 2894.21 -8837.83 -4098.43 -3733.07 6438.54)
(805.216 3199.1 -8405.77 -4488.96 -4059.81 5045.53)
(-751.98 3448 -7951.11 -5217.59 -4397.97 3127.21)
(-2286.17 3718.5 -7500.29 -5958.31 -4792.97 958.469)
(-3616.86 4187.1 -7015.55 -6478.58 -5302.11 -1527.49)
(-5057.55 5141.08 -6287.86 -6668.82 -5860.62 -5063.51)
(-7591.68 6853.88 -4663.78 -6559.66 -5624.53 -11256.9)
(-9244.11 8713.05 -826.401 -4891.35 -1485.53 -17023.5)
(-9801.93 8150.35 4532.9 -8147.88 4951.36 -15300.9)
(-11042.2 5814.4 7669.75 -13681.2 5873.64 -11275.3)
(-12550.3 3955.15 8800.42 -16859.8 4825.23 -9731.9)
(-12670.9 2761.11 9207.79 -17697.2 3882.2 -8417.68)
(-10618.4 2047.06 9404.44 -16202.4 3262.35 -5759.17)
(-7214.15 1700.97 9529.38 -13348.4 2926.46 -2154.59)
(-3565.64 1651.19 9596.21 -10180.2 2822.03 1498.42)
(-503.264 1826.51 9580.42 -7415.8 2901.49 4468.09)
(1503.96 2147.04 9452.88 -5430.89 3115.32 6332.91)
(2295.34 2528.2 9200.33 -4345.61 3409.1 6957.29)
(1963.37 2894.21 8837.83 -4098.43 3733.07 6438.54)
(805.216 3199.1 8405.77 -4488.96 4059.81 5045.53)
(-751.98 3448 7951.11 -5217.59 4397.97 3127.21)
(-2286.17 3718.5 7500.29 -5958.31 4792.97 958.469)
(-3616.86 4187.1 7015.55 -6478.58 5302.11 -1527.49)
(-5057.55 5141.08 6287.86 -6668.82 5860.62 -5063.51)
(-7591.68 6853.88 4663.78 -6559.66 5624.53 -11256.9)
(-9244.11 8713.05 826.401 -4891.35 1485.53 -17023.5)
(4593.68 -5114.75 3984.78 8636.94 -6929.13 5561.86)
(12715.9 -4003.91 6947.37 6949.83 -4084.03 12567.7)
(16578.2 -2915.15 7339.08 9309.96 -2670.15 16992.2)
(17868 -2394.03 7487.15 10193.4 -1945.89 19095.7)
(18136.7 -2056.02 7694.25 10119.9 -1505.86 20090.9)
(17744.2 -1729.07 7978.8 9318.06 -1191.86 20180.8)
(16999.5 -1364.41 8273.38 8164.89 -930.804 19608)
(16191 -972.851 8512.92 7027.34 -697.782 18680.3)
(15540.7 -578.964 8669.39 6164.44 -490.05 17687.4)
(15151.5 -201.364 8746.12 5681.82 -305.38 16811.5)
(14978 149.373 8761.01 5519.26 -131.611 16082.7)
(14818.8 467.219 8733.89 5447.44 54.2182 15362)
(14346.7 748.903 8680.38 5086.84 282.436 14355.6)
(13227.8 999.472 8606.66 4006.56 589.807 12702.8)
(11366.8 1260.54 8499.38 1964.68 1030.87 10196.2)
(9094.3 1692.69 8320.75 -729.405 1720.75 7114.42)
(6389.99 2684.47 7973.5 -2928.8 3009.32 4408.61)
(1684.48 3178.01 5810.51 -540.794 5881.99 6460.83)
(4593.68 -5114.75 -3984.78 8636.94 6929.13 5561.86)
(12715.9 -4003.91 -6947.37 6949.83 4084.03 12567.7)
(16578.2 -2915.15 -7339.08 9309.96 2670.15 16992.2)
(17868 -2394.03 -7487.15 10193.4 1945.89 19095.7)
(18136.7 -2056.02 -7694.25 10119.9 1505.86 20090.9)
(17744.2 -1729.07 -7978.8 9318.06 1191.86 20180.8)
(16999.5 -1364.41 -8273.38 8164.89 930.804 19608)
(16191 -972.851 -8512.92 7027.34 697.782 18680.3)
(15540.7 -578.964 -8669.39 6164.44 490.05 17687.4)
(15151.5 -201.364 -8746.12 5681.82 305.38 16811.5)
(14978 149.373 -8761.01 5519.26 131.611 16082.7)
(14818.8 467.219 -8733.89 5447.44 -54.2182 15362)
(14346.7 748.903 -8680.38 5086.84 -282.436 14355.6)
(13227.8 999.472 -8606.66 4006.56 -589.807 12702.8)
(11366.8 1260.54 -8499.38 1964.68 -1030.87 10196.2)
(9094.3 1692.69 -8320.75 -729.405 -1720.75 7114.42)
(6389.99 2684.47 -7973.5 -2928.8 -3009.32 4408.61)
(1684.48 3178.01 -5810.51 -540.794 -5881.99 6460.83)
(-13472.3 -377.219 971.851 -13316.8 -5152.63 -775.689)
(-8044.23 -298.092 1169.5 -8814.6 -2193.16 7248.29)
(-4884.97 -427.109 992.066 -5354.68 -1411.54 11763.9)
(-3878.93 -609.716 882.932 -4218.17 -1052.38 13868)
(-3184.96 -738.714 876.887 -3618.1 -854.794 15446.6)
(-2519.1 -754.714 964.797 -3189.79 -742.177 16720.9)
(-1953.75 -657.842 1109.86 -2884.94 -687.131 17563.2)
(-1585.52 -487.037 1276.23 -2710.02 -681.233 17877.5)
(-1444.56 -287.056 1443.63 -2654.88 -715.661 17688.4)
(-1521.15 -93.6728 1604.13 -2702.83 -771.837 17095)
(-1784.16 65.0332 1753.41 -2833.75 -822.875 16225.2)
(-2174.25 163.185 1884.14 -3017.61 -840.473 15216.9)
(-2598.97 176.279 1982.07 -3223.35 -803.39 14204.7)
(-2976.05 90.6475 2024.44 -3477.33 -707.763 13264)
(-3370.39 -76.3896 1985.79 -3994.33 -578.637 12265.2)
(-4280.62 -252.459 1862.73 -5397.41 -483.174 10623.9)
(-7228.63 -317.78 1723.93 -9079.84 -581.237 6921.47)
(-13061.1 -305.955 1343.17 -14885.5 -2268.28 865.324)
(-13472.3 -377.219 -971.851 -13316.8 5152.63 -775.689)
(-8044.23 -298.092 -1169.5 -8814.6 2193.16 7248.29)
(-4884.97 -427.109 -992.066 -5354.68 1411.54 11763.9)
(-3878.93 -609.716 -882.932 -4218.17 1052.38 13868)
(-3184.96 -738.714 -876.887 -3618.1 854.794 15446.6)
(-2519.1 -754.714 -964.796 -3189.79 742.177 16720.9)
(-1953.75 -657.842 -1109.86 -2884.94 687.131 17563.2)
(-1585.52 -487.037 -1276.23 -2710.02 681.233 17877.5)
(-1444.56 -287.056 -1443.63 -2654.88 715.661 17688.4)
(-1521.15 -93.6728 -1604.13 -2702.83 771.837 17095)
(-1784.16 65.0332 -1753.41 -2833.75 822.875 16225.2)
(-2174.25 163.185 -1884.14 -3017.61 840.473 15216.9)
(-2598.97 176.279 -1982.07 -3223.35 803.39 14204.7)
(-2976.05 90.6475 -2024.44 -3477.33 707.763 13264)
(-3370.39 -76.3896 -1985.79 -3994.33 578.637 12265.2)
(-4280.62 -252.459 -1862.73 -5397.41 483.174 10623.9)
(-7228.63 -317.78 -1723.93 -9079.84 581.237 6921.47)
(-13061.1 -305.955 -1343.17 -14885.5 2268.28 865.324)
(-20055.3 -978.69 -7430.91 -25691.1 2194.21 -11877)
(-16785.5 -901.298 -9563.94 -24221.7 1476.01 -11779.3)
(-16991.2 -810.72 -9983.24 -23962 952.606 -11346)
(-16413.1 -985.96 -10127.9 -23107.7 733.148 -10286.4)
(-14051.5 -1184.62 -10215.7 -20908.6 606.137 -7849.15)
(-10396.7 -1236.48 -10296.3 -17763.4 469.488 -4390.06)
(-6555.73 -1060.31 -10358.3 -14549.1 265.835 -846.895)
(-3445.69 -670.4 -10356.2 -11934.4 -29.4746 1980.08)
(-1591.18 -145.024 -10233.6 -10257.5 -402.452 3624.55)
(-1155.12 403.69 -9955.12 -9594.23 -800.17 3945.45)
(-1996.18 856.69 -9535.25 -9842.61 -1149.28 3080.1)
(-3726.67 1124.5 -9046.25 -10785.8 -1391.54 1380.99)
(-5816.1 1186.41 -8598.04 -12150.1 -1519.4 -693.078)
(-7760.54 1113.42 -8299.97 -13681.2 -1594.83 -2737.59)
(-9316.73 1064.44 -8217.91 -15277.4 -1752.47 -4616.62)
(-10546.7 1296.18 -8315.11 -16935 -2232.45 -6484.29)
(-13661.2 2302.06 -8202.14 -20038.4 -3588.12 -10490.9)
(-20184.9 4767.68 -5215.85 -19076.3 -7253.29 -18275.3)
(-20055.3 -978.69 7430.91 -25691.1 -2194.21 -11877)
(-16785.5 -901.298 9563.94 -24221.7 -1476.01 -11779.3)
(-16991.2 -810.72 9983.24 -23962 -952.606 -11346)
(-16413.1 -985.96 10127.9 -23107.7 -733.148 -10286.4)
(-14051.5 -1184.62 10215.7 -20908.6 -606.137 -7849.15)
(-10396.7 -1236.48 10296.3 -17763.4 -469.488 -4390.06)
(-6555.73 -1060.31 10358.3 -14549.1 -265.835 -846.895)
(-3445.69 -670.4 10356.2 -11934.4 29.4746 1980.08)
(-1591.18 -145.024 10233.6 -10257.5 402.452 3624.55)
(-1155.12 403.69 9955.12 -9594.23 800.17 3945.45)
(-1996.18 856.69 9535.25 -9842.61 1149.28 3080.1)
(-3726.67 1124.5 9046.25 -10785.8 1391.54 1380.99)
(-5816.1 1186.41 8598.04 -12150.1 1519.4 -693.078)
(-7760.54 1113.42 8299.97 -13681.2 1594.83 -2737.59)
(-9316.73 1064.44 8217.91 -15277.4 1752.47 -4616.62)
(-10546.7 1296.18 8315.11 -16935 2232.45 -6484.29)
(-13661.2 2302.06 8202.14 -20038.4 3588.12 -10490.9)
(-20184.9 4767.68 5215.85 -19076.3 7253.29 -18275.3)
(6912.46 5025.14 6572.03 3137.14 5218.73 5260.56)
(12631.5 2003.22 7734.84 5173.38 2438.33 13069.4)
(15515.5 838.084 7664.51 7686.01 1284.91 16476.5)
(16841.1 260.809 7550.71 9007.27 821.775 18610.5)
(17206.3 -19.1519 7585.68 9224.87 625.269 19852.7)
(16991.5 -39.3843 7785.92 8672.16 586.077 20252.9)
(16521.3 154.64 8069.3 7789.35 654.319 19960.8)
(16058.6 487.749 8335.5 6962.08 792.108 19258)
(15786.6 896.756 8518.74 6439.43 973.189 18427.4)
(15775.3 1347.16 8591.22 6315.49 1186.96 17642.7)
(15947.5 1826.09 8549.72 6520.49 1439.64 16920.5)
(16059.8 2333.53 8403.53 6808.13 1753.1 16099.9)
(15725.1 2880.45 8161.2 6772.74 2160.89 14838.4)
(14537.7 3496.72 7806.52 5974.68 2702.8 12676)
(12344.2 4261.21 7251.95 4261 3413.29 9225.31)
(9364.49 5377.7 6255.82 2179.01 4242.49 4280.87)
(5793.25 7177.72 4195.1 1600.76 4450.69 -2214.85)
(4253.83 8561.05 -743.245 6229.21 -432.733 -5190.87)
(6912.46 5025.14 -6572.03 3137.14 -5218.73 5260.56)
(12631.5 2003.22 -7734.84 5173.38 -2438.33 13069.4)
(15515.5 838.084 -7664.51 7686.01 -1284.91 16476.5)
(16841.1 260.809 -7550.71 9007.27 -821.775 18610.5)
(17206.3 -19.1519 -7585.68 9224.87 -625.269 19852.7)
(16991.5 -39.3843 -7785.92 8672.16 -586.077 20252.9)
(16521.3 154.64 -8069.3 7789.35 -654.319 19960.8)
(16058.6 487.749 -8335.5 6962.08 -792.108 19258)
(15786.6 896.756 -8518.74 6439.43 -973.189 18427.4)
(15775.3 1347.16 -8591.22 6315.49 -1186.96 17642.7)
(15947.5 1826.09 -8549.72 6520.49 -1439.64 16920.5)
(16059.8 2333.53 -8403.53 6808.13 -1753.1 16099.9)
(15725.1 2880.45 -8161.2 6772.74 -2160.89 14838.4)
(14537.7 3496.72 -7806.52 5974.68 -2702.8 12676)
(12344.2 4261.21 -7251.95 4261 -3413.29 9225.31)
(9364.49 5377.7 -6255.82 2179.01 -4242.49 4280.87)
(5793.25 7177.72 -4195.1 1600.76 -4450.69 -2214.85)
(4253.83 8561.05 743.245 6229.21 432.733 -5190.87)
(-11971.1 1574.71 810.513 133.667 6836.08 -10289)
(-7521.27 871.464 1182.79 -2718.9 7972.82 2536.25)
(-4746.35 290.347 1054.58 -2586.19 6155.77 9078.06)
(-3595.23 -150.749 861.529 -2473.86 4825.96 12314.3)
(-2666.8 -447.652 758.692 -2206.04 3964.35 14728.9)
(-1843.86 -554.51 792.005 -1959.09 3411.13 16569.9)
(-1219.43 -477.978 926.512 -1817.84 3056.29 17707.2)
(-849.541 -279.466 1105.56 -1780.6 2825.05 18114.8)
(-727.802 -25.5624 1290.58 -1817.81 2681.31 17889.6)
(-837.321 236.948 1463.47 -1914.49 2627.07 17157.9)
(-1165.04 476.669 1615.53 -2064.16 2693.6 16040.5)
(-1669.7 666.507 1736.57 -2236.51 2930.01 14671.8)
(-2243.39 782.306 1805.68 -2350.77 3390.07 13216.6)
(-2733.52 815.313 1787.04 -2288.36 4122.84 11798.1)
(-3065.99 788.883 1635.48 -1942.84 5180.88 10284)
(-3491.39 778.967 1320.99 -1234.33 6618.78 7881.19)
(-5451.1 963.229 894.634 -181.783 8108.91 1875.73)
(-10696 1532.8 295.119 2263.21 5217.29 -11058.3)
(-11971.1 1574.71 -810.513 133.667 -6836.08 -10289)
(-7521.27 871.464 -1182.79 -2718.9 -7972.82 2536.25)
(-4746.35 290.347 -1054.58 -2586.19 -6155.77 9078.06)
(-3595.23 -150.749 -861.529 -2473.86 -4825.96 12314.3)
(-2666.8 -447.652 -758.692 -2206.04 -3964.35 14728.9)
(-1843.86 -554.51 -792.005 -1959.09 -3411.13 16569.9)
(-1219.43 -477.978 -926.512 -1817.84 -3056.29 17707.2)
(-849.541 -279.466 -1105.56 -1780.6 -2825.05 18114.8)
(-727.802 -25.5624 -1290.58 -1817.81 -2681.31 17889.6)
(-837.321 236.948 -1463.47 -1914.49 -2627.07 17157.9)
(-1165.04 476.669 -1615.53 -2064.16 -2693.6 16040.5)
(-1669.7 666.507 -1736.57 -2236.51 -2930.01 14671.8)
(-2243.39 782.306 -1805.68 -2350.77 -3390.07 13216.6)
(-2733.52 815.313 -1787.04 -2288.36 -4122.84 11798.1)
(-3065.99 788.883 -1635.48 -1942.84 -5180.88 10284)
(-3491.39 778.967 -1320.99 -1234.33 -6618.78 7881.19)
(-5451.1 963.229 -894.634 -181.783 -8108.91 1875.73)
(-10696 1532.8 -295.119 2263.21 -5217.29 -11058.3)
(-12986.9 -8493.45 -1318.91 -8265.7 1956.11 -20288.5)
(-14123.8 -6815.5 -6134.96 -13945.8 6276.57 -16071.3)
(-14882.4 -5393.24 -8206.53 -17709 5920.08 -12991.8)
(-15025.6 -4732.53 -9214.59 -19315 5028.56 -11225.7)
(-13209.1 -4475.74 -9780.41 -18602 4285.57 -8590.3)
(-9872.84 -4260.86 -10117.4 -16432.7 3708.56 -5101.54)
(-6231.28 -3869.8 -10324.1 -13955.8 3223.14 -1633.71)
(-3329.96 -3266.06 -10414.7 -11973.4 2753.21 1029.11)
(-1754.15 -2531.85 -10344.1 -10856.2 2272.1 2442.53)
(-1664.44 -1808.47 -10065.3 -10655.5 1825 2492.5)
(-2860.05 -1260.32 -9587.03 -11211.8 1512.74 1366.15)
(-4835.81 -1027.23 -9003.99 -12236.6 1442.56 -493.344)
(-6909.59 -1163.74 -8476.42 -13378.9 1668.64 -2504.62)
(-8440.8 -1623.05 -8155.37 -14274.2 2173.24 -4144.23)
(-9010.9 -2341.41 -8103.13 -14577.2 2928.31 -5130.52)
(-8469.89 -3367.63 -8237.9 -13960.5 3985.58 -5567.05)
(-7812.37 -4932.66 -7996.73 -12465.5 5415.62 -7057.47)
(-10177.5 -7335.87 -5292.15 -9887.7 5701.01 -14343.4)
(-12986.9 -8493.45 1318.91 -8265.7 -1956.11 -20288.5)
(-14123.8 -6815.5 6134.96 -13945.8 -6276.57 -16071.3)
(-14882.4 -5393.24 8206.53 -17709 -5920.08 -12991.8)
(-15025.6 -4732.53 9214.59 -19315 -5028.56 -11225.7)
(-13209.1 -4475.74 9780.41 -18602 -4285.57 -8590.3)
(-9872.84 -4260.86 10117.4 -16432.7 -3708.56 -5101.54)
(-6231.28 -3869.8 10324.1 -13955.8 -3223.14 -1633.71)
(-3329.96 -3266.06 10414.7 -11973.4 -2753.21 1029.11)
(-1754.15 -2531.85 10344.1 -10856.2 -2272.1 2442.53)
(-1664.44 -1808.47 10065.3 -10655.5 -1825 2492.5)
(-2860.05 -1260.32 9587.03 -11211.8 -1512.74 1366.15)
(-4835.81 -1027.23 9003.99 -12236.6 -1442.56 -493.344)
(-6909.59 -1163.74 8476.42 -13378.9 -1668.64 -2504.62)
(-8440.8 -1623.05 8155.37 -14274.2 -2173.24 -4144.23)
(-9010.9 -2341.41 8103.13 -14577.2 -2928.31 -5130.52)
(-8469.89 -3367.63 8237.9 -13960.5 -3985.58 -5567.05)
(-7812.37 -4932.66 7996.73 -12465.5 -5415.62 -7057.47)
(-10177.5 -7335.87 5292.15 -9887.7 -5701.01 -14343.4)
(5415.98 7155.92 4437.75 3261.99 3818.25 -1964.76)
(8767.06 5144.43 6126.86 4266.23 4303.52 4971.41)
(12288.3 3489.45 6735.07 6458.13 3575.97 10922)
(14105 2331.59 6903.77 7631.66 2829.97 14559.7)
(14716.6 1619.29 7002.55 7760.91 2320.69 16685.2)
(14667.5 1331.81 7191.9 7181.15 2057.86 17654.2)
(14402.1 1396.81 7469.41 6364.53 1985.69 17737.4)
(14208.5 1696.63 7750.3 5692.75 2042.09 17280.8)
(14235.8 2135.51 7948.59 5377.9 2184.16 16592.2)
(14508.9 2663.64 8007.33 5480.16 2389.51 15835.9)
(14908 3261.8 7898.46 5910.36 2651.11 15006)
(15145.4 3922.86 7616.68 6407.73 2971.58 13921.6)
(14793.9 4645.16 7163.91 6558.15 3352.83 12229.4)
(13441.4 5432.95 6514.13 5954.44 3773.06 9485.02)
(11008.9 6299.32 5561.97 4559.66 4130.97 5420.22)
(8069.65 7261.78 4084.89 3134.27 4091.85 382.844)
(6095.43 8212 1795.29 3402.62 2799.82 -3809.43)
(5498.96 8464.1 -1374.47 4599.27 -592.064 -4838.85)
(5415.98 7155.92 -4437.75 3261.99 -3818.25 -1964.76)
(8767.06 5144.43 -6126.86 4266.23 -4303.52 4971.41)
(12288.3 3489.45 -6735.07 6458.13 -3575.97 10922)
(14105 2331.59 -6903.77 7631.66 -2829.97 14559.7)
(14716.6 1619.29 -7002.55 7760.91 -2320.69 16685.2)
(14667.5 1331.81 -7191.9 7181.15 -2057.86 17654.2)
(14402.1 1396.81 -7469.41 6364.53 -1985.69 17737.4)
(14208.5 1696.63 -7750.3 5692.75 -2042.09 17280.8)
(14235.8 2135.51 -7948.59 5377.9 -2184.16 16592.2)
(14508.9 2663.64 -8007.33 5480.16 -2389.51 15835.9)
(14908 3261.8 -7898.46 5910.36 -2651.11 15006)
(15145.4 3922.86 -7616.68 6407.73 -2971.58 13921.6)
(14793.9 4645.16 -7163.91 6558.15 -3352.83 12229.4)
(13441.4 5432.95 -6514.13 5954.44 -3773.06 9485.02)
(11008.9 6299.32 -5561.97 4559.66 -4130.97 5420.22)
(8069.65 7261.78 -4084.89 3134.27 -4091.85 382.844)
(6095.43 8212 -1795.29 3402.62 -2799.82 -3809.43)
(5498.96 8464.1 1374.47 4599.27 592.064 -4838.85)
(-6906.64 1616.9 658.052 7764.84 3756.34 -7355.39)
(-7238.71 1224.8 943.302 3771.37 7539.48 -3214.34)
(-5533.15 658.216 967.791 1868.82 8158.05 2829.55)
(-3821.7 98.7606 835.155 1074.85 7544.71 7747.23)
(-2360.46 -330.452 701.57 783.442 6731.52 11603.7)
(-1206.06 -525.278 675.263 619.536 6056.47 14460)
(-428.948 -471.271 761.651 425.842 5581.59 16214.4)
(-14.883 -242.513 909.06 208.112 5273.51 16932.8)
(95.7985 74.4543 1071.28 7.00324 5098.33 16794.2)
(-67.4433 420.77 1224.43 -165.611 5057.56 15948.9)
(-516.95 757.783 1357.34 -317.226 5186.3 14498.1)
(-1248.73 1049.71 1456.54 -425.925 5531.05 12562.6)
(-2160.47 1263.46 1494.03 -377.963 6112.32 10332.8)
(-3037.54 1385.24 1426.66 67.9372 6885.15 7984.66)
(-3690.99 1430.12 1208.31 1223.38 7695.7 5437.43)
(-4219.64 1442.15 818.47 3287.11 8125.79 2109.12)
(-4838.71 1503.83 320.552 6337.86 7057.29 -2467.7)
(-5586.47 1647.71 -183.299 9191.58 2709.42 -6758.78)
(-6906.64 1616.9 -658.052 7764.84 -3756.34 -7355.39)
(-7238.71 1224.8 -943.302 3771.37 -7539.48 -3214.34)
(-5533.15 658.216 -967.791 1868.82 -8158.05 2829.55)
(-3821.7 98.7606 -835.155 1074.85 -7544.71 7747.23)
(-2360.46 -330.452 -701.57 783.442 -6731.52 11603.7)
(-1206.06 -525.278 -675.263 619.536 -6056.47 14460)
(-428.948 -471.271 -761.651 425.842 -5581.59 16214.4)
(-14.883 -242.513 -909.06 208.112 -5273.51 16932.8)
(95.7985 74.4543 -1071.28 7.00325 -5098.33 16794.2)
(-67.4433 420.77 -1224.43 -165.611 -5057.56 15948.9)
(-516.95 757.783 -1357.34 -317.226 -5186.3 14498.1)
(-1248.73 1049.71 -1456.54 -425.925 -5531.05 12562.6)
(-2160.47 1263.46 -1494.03 -377.963 -6112.32 10332.8)
(-3037.54 1385.24 -1426.66 67.9372 -6885.15 7984.66)
(-3690.99 1430.12 -1208.31 1223.38 -7695.7 5437.43)
(-4219.64 1442.15 -818.47 3287.11 -8125.79 2109.12)
(-4838.71 1503.83 -320.552 6337.86 -7057.29 -2467.7)
(-5586.47 1647.71 183.299 9191.58 -2709.42 -6758.78)
(-1556.17 -9088.23 -337.68 3222.1 754.281 -8977.71)
(-5433.35 -8485.82 -3632.94 -1839.52 4459.42 -10596.1)
(-8674.39 -7730.03 -5949.59 -7366.36 6048.45 -10814.6)
(-9972.07 -7248 -7497.88 -10777.3 6273.45 -9738.21)
(-8967.69 -7027.32 -8518.66 -11674.6 5945.44 -7249.01)
(-6241.93 -6801.21 -9162.09 -10841.4 5477.93 -3845.09)
(-3056.87 -6333.42 -9561.34 -9448.28 5020.22 -516.958)
(-544.396 -5589.47 -9783.31 -8347.78 4570.78 1930.75)
(660.034 -4683.13 -9803.56 -7932.86 4108.84 3074.21)
(395.834 -3792.72 -9566.37 -8234.01 3681.04 2822.93)
(-1092.44 -3125.53 -9066.96 -9028.7 3410.35 1393.21)
(-3207.87 -2865.89 -8408.09 -9941.75 3435.65 -710.059)
(-5152.11 -3086.87 -7777.79 -10530 3811.99 -2812.54)
(-6196.61 -3724.5 -7323.43 -10316.5 4463.79 -4317.38)
(-5883.44 -4693.66 -7032.62 -8812.33 5242.34 -4946.39)
(-4172.96 -5998.08 -6701.45 -5707.04 5912.58 -4965.12)
(-1812.96 -7564.87 -5757.44 -1303.6 5807.48 -5400.21)
(-411.326 -8831.07 -3301.2 2849.25 3597.8 -7069.73)
(-1556.17 -9088.23 337.68 3222.1 -754.281 -8977.71)
(-5433.35 -8485.82 3632.94 -1839.52 -4459.42 -10596.1)
(-8674.39 -7730.03 5949.59 -7366.37 -6048.45 -10814.6)
(-9972.07 -7248 7497.88 -10777.3 -6273.45 -9738.21)
(-8967.69 -7027.32 8518.66 -11674.6 -5945.44 -7249.01)
(-6241.93 -6801.21 9162.09 -10841.4 -5477.93 -3845.09)
(-3056.87 -6333.42 9561.34 -9448.28 -5020.22 -516.958)
(-544.396 -5589.47 9783.31 -8347.78 -4570.78 1930.75)
(660.034 -4683.13 9803.56 -7932.86 -4108.84 3074.21)
(395.834 -3792.72 9566.37 -8234.01 -3681.04 2822.93)
(-1092.44 -3125.53 9066.96 -9028.7 -3410.35 1393.21)
(-3207.87 -2865.89 8408.09 -9941.75 -3435.65 -710.059)
(-5152.11 -3086.87 7777.79 -10530 -3811.99 -2812.54)
(-6196.61 -3724.5 7323.43 -10316.5 -4463.79 -4317.38)
(-5883.44 -4693.66 7032.62 -8812.33 -5242.34 -4946.39)
(-4172.96 -5998.08 6701.45 -5707.04 -5912.58 -4965.12)
(-1812.96 -7564.87 5757.44 -1303.6 -5807.48 -5400.21)
(-411.326 -8831.07 3301.2 2849.25 -3597.8 -7069.73)
(4369.09 7449.37 3483.96 2758.4 2590.11 -4057.79)
(6228.36 6207.9 4877.18 3510.41 3768.85 253.875)
(8828.37 4861.76 5698.59 4928.05 3945.34 5290.19)
(10714.5 3669.28 6101.39 5872.59 3651.45 9402.05)
(11575.4 2804.94 6303.05 5942.21 3290.94 12224.1)
(11733.5 2372.93 6486.97 5343.71 3043.64 13776.9)
(11650.6 2352.36 6723.13 4542.14 2937.74 14263.1)
(11652.8 2630.23 6969.07 3925.41 2946.36 14042.1)
(11879.4 3097.42 7138.2 3685.41 3039.63 13445.2)
(12318.3 3691.34 7152.82 3852.76 3194.3 12639.9)
(12810.3 4380.7 6963.09 4320.53 3391.22 11616.1)
(13042.3 5138.87 6551.88 4829.79 3610.57 10214.8)
(12603 5931.09 5924.2 5000.77 3820.71 8168.54)
(11175.2 6712.75 5073.27 4514.78 3954.4 5221.16)
(8856.16 7430.79 3942.04 3443.93 3867.94 1420.96)
(6363.18 8021.71 2433.35 2446.86 3289.76 -2541.64)
(4654.34 8366.01 529.541 2279.63 1870.83 -5379.97)
(3939.4 8231.48 -1570.49 2549.87 -384.282 -6083.63)