/*--------------------------------*- C++ -*----------------------------------*\
| =========                 |                                                 |
| \\      /  F ield         | OpenFOAM: The Open Source CFD Toolbox           |
|  \\    /   O peration     | Version:  2312                                  |
|   \\  /    A nd           | Website:  www.openfoam.com                      |
|    \\/     M anipulation  |                                                 |
\*---------------------------------------------------------------------------*/
FoamFile
{
    version     2.0;
    format      ascii;
    arch        "LSB;label=32;scalar=64";
    class       volSymmTensorField;
    location    "0.3";
    object      sigma;
}
// * * * * * * * * * * * * * * * * * * * * * * * * * * * * * * * * * * * * * //

dimensions      [1 -1 -2 0 0 0 0];

internalField   nonuniform List<symmTensor> 
1620
(
(14772.1 23.8688 92.6444 15398.5 -2002.12 34088)
(13879.2 -412.528 1272.35 15983.2 -5672.94 31375.7)
(11545.4 -1559.07 3084.7 14947.1 -7567.22 25904.5)
(8566.65 -3000.07 4838.7 11637.3 -7818.76 19021.4)
(5005.22 -4114.01 6213.01 5953.36 -7023.96 11301.5)
(119.635 -4502.83 7161.89 -2170.06 -5700.17 2409.8)
(-6845.75 -4063.84 7733.23 -12614.7 -4151.44 -8154.63)
(-16404.5 -2940.33 7920.53 -25343.8 -2514.99 -21126.9)
(-21946.1 -1401.9 6191.84 -35877.3 -752.162 -34550.6)
(-25172.5 1447.32 -7909.27 -37633.5 -983.553 -34449.1)
(-21964.5 2748.16 -8690.79 -29647.6 -2816.71 -23612.3)
(-14622.5 3628.86 -8263.67 -19331.8 -4506.76 -12899.8)
(-8183.76 3895.88 -7456.08 -9812.12 -6041.37 -3047.06)
(-2950.77 3458.63 -6253.26 -1844.47 -7245.19 5850.62)
(1435.21 2452.42 -4654.96 4219.44 -7811.05 13860.9)
(5495.21 1252.79 -2785.9 8444.55 -7323.6 21075.8)
(9024.99 357.846 -1003.45 10894.7 -5450.22 26861.9)
(11479.9 36.4659 135.652 12146.8 -2312.72 30392.3)
(11784.4 30.0704 216.479 12270.9 1317.91 30495.6)
(10094.7 -212.172 -764.636 11477.5 4405.21 27448.7)
(7364.51 -988.847 -2404.22 9682.92 6274.6 22437.2)
(4437.9 -2091.15 -4169.75 6646.06 6867.22 16528.6)
(1490.84 -3058.53 -5717.01 2205.49 6481.45 10194.4)
(-2229.32 -3511.05 -6907.36 -4030.76 5470.85 3008.63)
(-7668.57 -3294.23 -7719.17 -12357.6 4103.89 -5745.34)
(-15884.6 -2500.06 -8144.01 -23463.3 2541.19 -17495.7)
(-19919.7 -1367.39 -6518.73 -33470.5 732.195 -31647.4)
(-23564.3 1419.69 7617.28 -36690.5 864.092 -33924.8)
(-20904 3060.61 8489.82 -30090.2 2602.41 -25474.7)
(-14349.8 4246.43 8238.35 -20402.3 4276.33 -15819.8)
(-8138.89 4729.86 7635.39 -10646.7 5881.23 -6094.35)
(-2768.89 4375.51 6660.26 -1933.19 7279.96 3288.46)
(1970.63 3271.43 5250.38 5058.78 8163.34 12260.9)
(6517.7 1797.54 3430.72 10044.6 7992.45 20822.5)
(10669.4 583.692 1508.38 12918.7 6142.2 28191.9)
(13679.8 90.3456 177.626 14368.6 2481 33018.6)
(5680.39 -709.328 627.729 16532.4 -8934.51 13722.1)
(3672.97 -4107.07 1219.63 18882.6 -4860.03 4366.4)
(2624.53 -6706.31 1340.12 14536.2 -3148.02 357.555)
(2070.05 -8338.79 1403.92 8669.94 -2291.96 -3283.68)
(953.047 -8884.64 1436.89 1400.42 -1726.91 -7710.76)
(-894.031 -8317.01 1443.67 -6577.9 -1287.55 -12800.4)
(-3520.55 -6730.2 1422.46 -14530.9 -908.608 -18244.8)
(-6457.27 -4350.36 1332.95 -21334.2 -553.008 -23253.1)
(-7675.52 -1489.35 731.932 -24649.9 -206.112 -25719.1)
(-8597.56 1579.78 -1365.49 -25612.2 -268.05 -26680.8)
(-9080.97 4441.87 -1778.24 -24059.8 -683.176 -26070.9)
(-7419.21 6831.01 -1842.57 -18545.9 -1120.45 -22412.1)
(-5536.76 8441.5 -1835.18 -11337.5 -1589.73 -17752.3)
(-4024.06 9044.64 -1786.56 -3658.15 -2125.83 -12999.3)
(-2980.8 8533.85 -1696.73 3621.41 -2793.18 -8606.21)
(-2351.15 6920.46 -1558.35 9693.18 -3757.3 -4805.43)
(-844.951 4309.53 -1343.28 14678.9 -5596.33 -187.211)
(1353.42 803.375 -597.671 12641 -9772.75 9723.7)
(1315.29 -654.626 -488.267 11739.8 8676.59 9119.21)
(-939.774 -4054.08 -1118.83 14024.2 4706.46 -469.686)
(-1753.73 -6655.01 -1237.61 9972.1 2985.85 -4233.03)
(-1697.83 -8291.47 -1301.1 4753.81 2138.06 -7232.13)
(-1843.2 -8849.3 -1341.88 -1512.69 1595.35 -10646.8)
(-2477.2 -8299 -1363.66 -8256.78 1183.02 -14481.6)
(-3876.11 -6728.96 -1359.52 -14971 827.74 -18660.2)
(-5879.22 -4360.97 -1280.29 -20832.9 486.527 -22703.2)
(-6734.08 -1504.2 -655.142 -23779.1 141.729 -24786.5)
(-7550.59 1556.84 1422.49 -24619 202.626 -25608.5)
(-7852.86 4414.76 1798.45 -22882 599.883 -24809.1)
(-6211.26 6799.69 1857.33 -17396.7 1019.03 -21164.8)
(-4151.77 8412.84 1856.1 -10037.3 1473.22 -16330.8)
(-2237.89 9029.35 1819.17 -1985.48 1996.07 -11179.3)
(-629.747 8540.07 1743.2 5841.2 2648.53 -6217.1)
(637.306 6952.12 1619.92 12550.3 3590.7 -1769.08)
(2666 4371.05 1426.83 18079.6 5394.44 3370.92)
(5323.47 910.56 760.175 16608.9 9620.71 13729.2)
(-7908.17 -63.2493 -817.18 -7362.31 2025.79 10099.2)
(-9177.27 -584.884 -1939 -7607.37 4915.81 6952.15)
(-11114.2 -1652.13 -3580.66 -8825.37 6339.97 1811.13)
(-12645.1 -2907.19 -5165.56 -11022.5 6445.74 -3543.4)
(-13395.1 -3828.38 -6437.31 -13939.5 5716.87 -8238.58)
(-13127.4 -4062.03 -7357.29 -16753.2 4558 -11664)
(-11412.3 -3514.91 -7965.21 -18230.5 3213.22 -13109.2)
(-8453.12 -2335.11 -8275.9 -18018.9 1803.88 -12879.9)
(-3526.9 -954.71 -6605.01 -17760 343.482 -15706.4)
(-6477.9 861.597 7068.9 -19161 364.594 -16147)
(-10339.5 2558.82 7497.44 -20387.4 1650.36 -16600.8)
(-13510.1 3851.79 7269.99 -20782.7 2941.07 -17329.5)
(-15631.5 4472.87 6805.14 -19532.8 4212.57 -16341)
(-16640.8 4272.57 6068.3 -17218.4 5367.74 -13618.1)
(-16793.9 3313.99 4996.17 -14961 6180.4 -9666.33)
(-16238.7 1935.4 3575.01 -13627.4 6205.65 -4957.74)
(-15173 711.781 2009.77 -13420.4 4793.72 -193.439)
(-14701.1 108.772 917.779 -14206.4 1600.49 2644.39)
(-14866.5 -120.011 976.679 -14314.9 -2460.99 2575.22)
(-15476.5 -752.3 2188.61 -13586 -5607.33 -241.541)
(-16606.9 -2026.49 3870.29 -13847.1 -6948.77 -4992.36)
(-17065.8 -3460.99 5394.13 -15143.8 -6835.36 -9611.89)
(-16639.8 -4464.59 6544.2 -17251.3 -5914.01 -13370.5)
(-15188.3 -4682.2 7325.39 -19296.2 -4636.26 -15790.9)
(-12319.8 -4041.03 7793.95 -19997.3 -3239.91 -16237)
(-8192.18 -2710.08 7940.38 -18912.1 -1828.37 -14989.2)
(-2641 -1103.51 5802.94 -17770.9 -378.456 -16483.5)
(-6025.93 790.514 -7468.53 -17958.4 -464.255 -14125.2)
(-8529.17 2324.49 -7774.43 -17765.5 -1800.02 -12881.8)
(-10591 3478.68 -7453.88 -17233.8 -3115.47 -12488.4)
(-11739.1 4007.04 -6874.97 -15300.9 -4365.98 -10589.7)
(-11875.2 3787.04 -6007.49 -12456 -5435.48 -7113.56)
(-11198.2 2903.07 -4811.35 -9669.41 -6090.35 -2522.58)
(-9892.23 1688.99 -3318.89 -7703.28 -5931.21 2643.74)
(-8306.8 651.575 -1778.91 -6807.76 -4469.45 7544.17)
(-7529.52 143.575 -763.436 -7008.49 -1555.74 10376.3)
(6480.26 99.869 -339.051 7634.67 -1892.19 25814)
(6886.97 -232.278 757.268 9376.2 -5411.4 24705.2)
(6717.17 -1217.11 2523.17 10428.7 -7337.22 21760.8)
(6697 -2525.31 4313.92 10189.8 -7698.17 18154.7)
(7104.92 -3588.81 5783.03 8721.93 -7001.28 14639.9)
(7436.84 -4013.18 6849.09 6103.35 -5722.25 11119.5)
(7070.93 -3681.09 7540.78 2523.28 -4152.8 7237.29)
(4857.87 -2731.65 7859.98 -2685.79 -2434.97 1570.23)
(5593.1 -1448.63 6113.57 -7506.74 -539.348 -6765.39)
(2925.09 1275.75 -8251.75 -7846.9 -810.323 -4275.33)
(3304.9 2339.71 -8493.52 -2987.07 -2643.1 3463.57)
(5075.04 3060.31 -7894.18 1364.16 -4319.93 8392.44)
(5698.68 3261.95 -6963.78 4649.13 -5790.18 12185)
(5774.25 2864.14 -5672.53 7082.77 -6884.23 15622.4)
(5807.42 2000.24 -4041.61 8562.22 -7337.05 18924.1)
(6265.99 1004.78 -2214.4 9199.19 -6811.06 22173.3)
(6844.28 291.029 -530.389 8933 -5052.58 24710.9)
(7222.85 56.6023 527.285 8348.72 -2191.13 26010.5)
(7312.15 82.4749 621.4 8267.78 1116.81 25960.8)
(7276.14 -75.5275 -265.722 8943.89 4010.88 24829.2)
(6803.76 -692.744 -1817.57 9277.96 5870.78 22443.2)
(6504.71 -1634.1 -3562.49 8954.52 6572.19 19557.5)
(6711.49 -2511.8 -5158.39 7948.18 6321.9 16730.8)
(6998.72 -2975.9 -6440.69 6089.51 5407.85 13828.6)
(6795.56 -2869.15 -7367.65 3364.08 4069.39 10498.2)
(4736.22 -2279.82 -7954.98 -1324.74 2466.85 4919.79)
(6506.97 -1478.24 -6341.4 -6339.46 529.973 -5197.56)
(3287 1198.4 8072.28 -8151.48 686.266 -4995.66)
(3434.24 2646.61 8475.64 -4411.4 2448.32 524.248)
(4665.86 3701.08 8064.69 -403.572 4140.35 4656.2)
(4943.88 4123.94 7329.18 3052.01 5712.61 8268.01)
(4737.43 3789.16 6234.91 5852.03 7023.94 11856.5)
(4574.97 2796.62 4740.51 7708.37 7791.09 15646.2)
(4966.07 1511.99 2901.58 8511.71 7538.55 19722.2)
(5646.79 494.132 1032.32 8122.26 5733.09 23306.2)
(6058.43 113.4 -235.897 7230.84 2294.96 25344.6)
(-66.9455 -302.001 265.745 10866.5 -9287.13 9284.04)
(-779.267 -3892.8 1188.23 15671.3 -5505.76 564.8)
(367.993 -6616.55 1374.3 13383 -3577.98 -1454.02)
(3061.48 -8276.86 1474.41 10536.2 -2609.26 -1913.69)
(5931.18 -8819.88 1549.21 7116.13 -1977.28 -2381.22)
(8759.44 -8250.23 1612.72 3768.14 -1477.17 -2810.45)
(11254.9 -6677.6 1662.5 967.292 -1011.43 -3134.53)
(13317.9 -4341.25 1626.77 -758.554 -518.69 -3132.83)
(15804.8 -1550.03 727.577 -394.831 9.72728 -2017.06)
(16193.7 1478.47 -1782.55 -74.6017 -77.3932 -1600.81)
(14431.4 4270.81 -2129.82 -10.1577 -620.68 -2374.94)
(12683.8 6651.84 -2111.64 1853.96 -1171.75 -2249.09)
(10209.5 8315.1 -2025.99 4558.62 -1718.16 -2008.08)
(7232.88 9007 -1920.48 7740.87 -2313.67 -1743.39)
(4119.92 8595.29 -1797.72 11019 -3060.03 -1452.17)
(1131.39 7053.25 -1639.76 13804.4 -4173.49 -1140.47)
(-36.6579 4400.9 -1378.6 16500.2 -6300.11 1125.24)
(204.512 616.514 -297.509 11630.1 -10183.9 9889.11)
(98.3242 -241.713 -115.193 10330.6 8913.66 9220.36)
(-690.293 -3837.22 -1099.25 15335.7 5342.67 401.347)
(534.221 -6583.27 -1296.19 13249.4 3427.07 -1553.04)
(3361.64 -8263.89 -1403.66 10596.8 2474.08 -1869.27)
(6372.16 -8829.69 -1487.5 7350.6 1864.67 -2173.12)
(9303.6 -8283.19 -1559.59 4123.2 1388.71 -2463.94)
(11801 -6729.47 -1610.97 1338.29 943.682 -2738.95)
(13690.6 -4403.95 -1554.56 -536.74 461.947 -2859.72)
(15726.3 -1610.13 -548.292 -582.215 -71.5869 -2146.33)
(15892.9 1412.72 1906.39 -382.189 10.8565 -1822.15)
(14269.2 4199.12 2178.83 -129.865 522.218 -2412.94)
(12435.9 6569.76 2139.17 1661.36 1045.69 -2337.37)
(9927.51 8227.12 2047.59 4299.51 1569.28 -2123.36)
(6981.33 8925.7 1942.79 7453.38 2141.64 -1843.41)
(3955.92 8536.46 1826.33 10754 2859 -1492.27)
(1072.88 7035.63 1683.24 13592.7 3932.42 -1109.42)
(-131.068 4448.57 1456.68 16236.1 6008.09 1072.97)
(78.9271 747.6 485.154 11441.5 10001 9835.05)
(-10094.5 -59.013 -1360.44 -8988.6 2017.51 8010.5)
(-9600.62 -692.602 -2434.77 -7599.43 4898.44 6642.49)
(-8488.92 -1793.85 -4008.85 -5988.84 6290.98 4483.66)
(-6686.93 -3011.35 -5521.38 -5042.45 6357.5 2352.56)
(-4028.02 -3849.83 -6712.12 -4651.93 5592.52 959.649)
(-612.67 -3983.8 -7527.92 -4295.13 4418.67 613.113)
(3611.32 -3361.52 -8003.62 -3098.67 3110.91 1672.38)
(7643.3 -2187.63 -8172.34 -1583.66 1812.59 2969.89)
(14476.9 -1078.27 -5155.57 -197.837 472.806 94.7276)
(11538.7 603.9 7063.03 -304.966 538.697 2298.33)
(8079.63 2249.14 7388.7 -1711.34 1707.89 1550.95)
(4120.79 3558.23 7273.74 -3277.79 2893.72 -134.982)
(350.085 4290.01 6944.26 -3956.74 4117.78 -856.383)
(-3066.58 4250.72 6321.57 -4143.1 5272.68 -493.228)
(-6009.83 3444.76 5335.43 -4580.9 6097.97 791.771)
(-8321.36 2165.25 3987.86 -5873.86 6123 2774.32)
(-10008 951.403 2498.59 -8092.27 4698.8 4888.57)
(-11379.1 249.559 1469.68 -10424.3 1505.44 5934.84)
(-11650.9 -147.885 1531.33 -10534.7 -2530.88 5794.74)
(-10602.1 -907.208 2679.68 -8280.17 -5636.4 4627.39)
(-9250.71 -2214.82 4276.35 -6297.84 -6930.25 2274.06)
(-7278.02 -3607.31 5717.18 -5366.03 -6770.41 -34.8816)
(-4527.95 -4529.74 6781.19 -5260.53 -5808.47 -1583.76)
(-1062.39 -4657.9 7454.34 -5281.64 -4509.82 -2070.91)
(3264.62 -3958.56 7779.76 -4389.79 -3140.43 -1106.24)
(7631.27 -2653.15 7732.11 -2915.44 -1826.81 227.061)
(14627.9 -1297.39 3838.74 -901.893 -459.449 -1388.53)
(11218.1 489.947 -7475.08 227.438 -628.033 3715.91)
(8850.65 1997.65 -7664.28 -97.1475 -1869.51 4235.96)
(5603.85 3188.28 -7445.96 -1115.64 -3091.11 3278.19)
(2360.36 3837.65 -6998.73 -1528.66 -4297.72 3039.86)
(-706.929 3777.56 -6250.56 -1686.15 -5370.46 3641.97)
(-3455.67 3037.6 -5151.35 -2223.15 -6049.76 4925.29)
(-5761.01 1912.84 -3741.69 -3637.96 -5916.53 6611.56)
(-7686.66 882.656 -2275.07 -5956.9 -4475.42 8109.84)
(-9340.76 290.189 -1307.43 -8336.28 -1569.28 8592)
(4398.51 126.164 -179.736 6075.34 -1777.23 23432)
(5138.42 -225.73 829.356 7994.81 -5153.56 22806.6)
(5344.5 -1157.7 2494.22 9244.82 -7038.2 20331.2)
(5502.27 -2382.88 4213.33 9110.22 -7403.76 16957.1)
(6008.54 -3375.9 5643.09 7785.81 -6717.63 13580)
(6506.92 -3761.23 6691.89 5463.58 -5431.55 10266.4)
(6541.08 -3424.13 7379.63 2473.87 -3825.56 6851.29)
(5353.86 -2492.49 7714.67 -1425.33 -2048.23 2418)
(5955.18 -1268.86 6669.74 -5330.84 -223.309 -4376.4)
(3684.95 923.201 -7904.25 -7113.95 -282.515 -4787.64)
(1608.39 1894.45 -8358.05 -4237.92 -2072.9 1769.3)
(3156.86 2626.46 -7723.45 -446.238 -3764.64 6365.56)
(3689.46 2902.48 -6791.44 2465.08 -5225.52 9921.95)
(3899.23 2618.96 -5531.46 4883.09 -6293.43 13381.2)
(4044.77 1890.04 -3967.99 6479.82 -6737.12 16710.8)
(4470.52 1022.53 -2239.07 7259.97 -6264.11 19876.8)
(4780.97 386.212 -657.337 7031.46 -4650.94 22140.1)
(4844.63 145.61 340.5 6413.07 -2010.8 23156.8)
(4953.61 115.106 436.933 6431.01 1073.03 23202.7)
(5294.31 -80.2831 -395.699 7358.58 3812.28 22532.2)
(5211.1 -677.917 -1867.49 7901.14 5597.22 20583.2)
(5094.31 -1561.76 -3538.09 7648.17 6271.16 17912.9)
(5394.53 -2376.24 -5076.47 6729.69 6012.92 15217.1)
(5855.48 -2795.5 -6318.16 5133.9 5086.6 12544.4)
(6102.53 -2671.74 -7216.32 3030.29 3715.38 9771.25)
(5294.03 -2080.39 -7782.36 -82.312 2060.84 5780.33)
(6728.77 -1299.96 -7103.14 -3816.03 251.263 -1958.08)
(4851.07 800.508 7530.18 -6915.38 149.986 -5296.06)
(1993.39 2208.76 8356.5 -5561 1907.06 -1314)
(3035.86 3286.61 7933.75 -1941.5 3638.78 2739.57)
(3210.81 3780.67 7189.08 1190.88 5218.92 6231.87)
(3113.79 3548.63 6108.96 3965.19 6507.09 9884.95)
(3040.93 2680.54 4663.35 5900.82 7251.73 13700.7)
(3384.75 1523.81 2913.15 6813.73 7032.43 17671.1)
(3791.68 588.762 1150.11 6455.59 5367.64 20969.8)
(3944.53 199.13 -56.0049 5586.13 2168.53 22802)
(-709.967 -220.341 369.386 7250.63 -8771.44 12210.9)
(-1156.57 -3556.19 1569.73 15008.2 -7364.4 2070.42)
(-78.8658 -6405.66 1841.93 13445.8 -4829.94 -984.118)
(2528.34 -8119.3 1912.38 10570.9 -3378.95 -1870.82)
(5186.4 -8682.62 1923.55 6937.59 -2431.06 -2699.01)
(7694.33 -8134.65 1914.16 3308.62 -1705.7 -3529.83)
(9817.97 -6598.8 1891.73 213.424 -1056.89 -4278.35)
(11511.8 -4313.85 1800.7 -1777.54 -401.741 -4673.21)
(13678.6 -1609.53 1154.89 -1588.29 244.055 -3821.21)
(14268.1 1250.53 -1686.5 -1229.85 252.309 -3405.24)
(12702.2 4000.85 -2331.66 -1187.82 -421.758 -3966.54)
(11328.5 6388.53 -2384.6 753.887 -1141.43 -3540.16)
(9214.81 8099.9 -2351.87 3597.71 -1866.14 -2959.8)
(6539.98 8865.84 -2307.06 6962.24 -2676.22 -2336.31)
(3646.39 8538.65 -2252.52 10430.2 -3730.49 -1666.65)
(797.412 7069.73 -2148.49 13351.1 -5332.08 -832.831)
(-381.248 4402.34 -1840.44 15527.3 -8089.45 2505.13)
(-478.646 726.492 -446.768 7839.19 -9465.79 12511.9)
(-583.782 -162.54 -195.025 6756.44 8218.92 11776.6)
(-1107.85 -3462.69 -1464.79 14354.7 7082.93 1787.72)
(-33.6103 -6353.64 -1773.85 13030.7 4663.33 -1256.84)
(2665.45 -8110.86 -1869.13 10377.5 3261.62 -2046.22)
(5487.98 -8714.89 -1899.62 6964.95 2345.56 -2694.54)
(8166.45 -8203.44 -1904.34 3524.77 1647.47 -3321.79)
(10385.9 -6697.04 -1888.38 533.581 1024.28 -3920.86)
(12002.7 -4431.03 -1792.26 -1507.46 388.061 -4322.34)
(13699.7 -1734.61 -1113.39 -1707.69 -267.188 -3858.64)
(13979.2 1115.53 1731.38 -1516.99 -330.965 -3637.33)
(12457.2 3867.37 2343.14 -1309.73 283.913 -4049.66)
(10972 6252.27 2388.23 556.567 972.096 -3661.87)
(8848.09 7961.28 2351.84 3355.34 1672.66 -3065.85)
(6256.32 8729.91 2304.7 6720.56 2450.77 -2378.47)
(3501.07 8419.61 2252.46 10215.6 3456.14 -1626.86)
(770.346 6998.3 2165.39 13143.5 4987.79 -762.816)
(-453.362 4433.28 1915.68 15233.5 7684.52 2404.24)
(-584.256 857.08 667 7756.65 9358.96 12503.5)
(-8044.67 87.2412 -656.769 -6158.61 2363.55 10116.6)
(-7837.73 -564.991 -1912.11 -4626.13 5624.51 8439.92)
(-7027.95 -1830.07 -3685.52 -3049.6 7046.53 5862.11)
(-5706.49 -3232 -5316.61 -2606.69 6966.42 3121.77)
(-3844.24 -4200.45 -6548.16 -3198.83 6052.73 838.361)
(-1649.65 -4407.87 -7357.18 -4270.3 4798.55 -789.738)
(806.461 -3827.75 -7804.91 -4998.93 3495.02 -1530.32)
(2989.72 -2669.98 -7967.37 -5365.52 2275.79 -1947.7)
(6605.63 -1276.89 -6984.92 -5245.86 1020.13 -3852.62)
(7125.76 938.192 6364.41 -4626.09 1022.55 -3675.82)
(4678.67 2504.42 7126.12 -4340.99 2200.81 -2150.96)
(2251.23 3785.42 7033.24 -4423.45 3285.92 -2349.2)
(-206.893 4530.57 6735.62 -3804.54 4458.1 -1858.19)
(-2484.36 4507.18 6135.91 -2756.6 5644.32 -412.408)
(-4541.41 3671.72 5132.91 -2149.01 6578.87 1760.7)
(-6234.85 2298.87 3697.6 -2747.77 6740.54 4423.5)
(-7567.83 989.126 2033.04 -4762.13 5331.03 7017.74)
(-8900.04 309.92 812.974 -7287.99 1826.73 8266.8)
(-9395.4 18.6587 847.038 -7491.16 -2770 8030.97)
(-8781.99 -753.766 2157.35 -5217.71 -6246.62 6435.16)
(-7864.17 -2219.4 3932.25 -3398.11 -7555.68 3576.92)
(-6531.24 -3778.26 5477.32 -3144.42 -7258.41 581.222)
(-4704.23 -4807.67 6588.31 -4139.49 -6176.38 -1876.64)
(-2547.37 -4992.08 7285.15 -5629.5 -4825.2 -3595.76)
(-70.2279 -4326.47 7642.67 -6650.16 -3474.03 -4316.31)
(2287.6 -3033.05 7726.6 -7021.89 -2243.12 -4492.78)
(6261.05 -1457.58 6645.96 -6239.09 -1032.27 -5308.54)
(7022.47 824.835 -6685.16 -4185.33 -1142.8 -2721.22)
(5443.79 2249.27 -7375.78 -2724.49 -2441.68 389.679)
(3699.51 3409.31 -7190.92 -2224.25 -3580.31 1016.93)
(1738.4 4063.14 -6781.76 -1346.8 -4746.54 2049.63)
(-188.793 3993.89 -6053.16 -279.22 -5859.19 3811.48)
(-2057.57 3194.59 -4921.96 163.094 -6640.66 6032.94)
(-3793.85 1968.72 -3401.93 -693.543 -6601.02 8378.07)
(-5433.77 869.696 -1748.01 -2912.98 -5092.38 10267.8)
(-7106.58 329.222 -605.16 -5490.54 -1802.68 10820.9)
(2699.61 122.788 447.51 4804.06 -1545.94 21098.3)
(3691.51 -299.531 1314.99 6686.15 -4617.85 20909.8)
(4307.56 -1174.08 2794.91 8022.66 -6410.93 19031.8)
(4836.14 -2272.77 4366.23 8124.3 -6811.87 16171.7)
(5707.86 -3146.82 5699.52 7225.69 -6183.51 13259.4)
(6720.58 -3457 6685.37 5597.79 -4927.77 10536.7)
(7498.84 -3088.6 7324.65 3594.55 -3316.19 7958.45)
(7561.17 -2139.31 7629.19 1300.54 -1513.64 5054.67)
(7877.3 -859.613 7236.99 -1287.75 247.686 491.336)
(8785.77 574.858 -6310.85 -3856.02 312.29 -4223.11)
(2287.4 1289.01 -8368.91 -3315.65 -1297.88 2430.89)
(3804.14 2068.13 -7718.29 101.002 -2994.86 7017.48)
(3665.26 2466.08 -6813.61 1981.44 -4447.03 9716.4)
(3455.87 2348.3 -5621.07 3777.2 -5478.35 12593.1)
(3249.28 1805.66 -4170.98 5018.51 -5890.6 15431.9)
(3285.89 1105.51 -2598.32 5632.88 -5450.27 18093.3)
(3203.74 556.833 -1183.11 5421.8 -4003.21 19888.4)
(2972.76 282.425 -295.41 4910.27 -1679.59 20600.2)
(3102.13 137.658 -207.566 5079.2 1033.88 20720.9)
(3750.68 -149.063 -949.219 6127.1 3475.94 20440.8)
(4151.48 -744.222 -2274.52 6850.84 5098.51 19048.1)
(4487.58 -1547.98 -3800.31 6837.53 5713.43 16893.9)
(5194.27 -2258.84 -5220.22 6269.66 5445.19 14674.5)
(6159.33 -2591.92 -6369.8 5258.41 4518.83 12595.8)
(7093.54 -2410.52 -7190.07 4026.09 3137.66 10656.6)
(7557.49 -1764.73 -7678.3 2566.51 1462.54 8380.23)
(8331.23 -853.836 -7649.12 444.886 -265.919 3776.32)
(10705.7 474.955 4861 -3249 -468.29 -4760.2)
(3204.19 1695.63 8285.21 -4641.81 1199.76 -1333.84)
(3982.43 2818.71 7958.02 -1278.09 2972.44 3056.28)
(3421.25 3418.84 7248.06 916.19 4572.48 5927.63)
(2832.41 3328.17 6222.18 3048.7 5836.56 9093.67)
(2371.28 2624.34 4869.71 4588.59 6538 12469.9)
(2315.18 1624.4 3262.72 5306.79 6322.25 15952.7)
(2321.43 771.07 1671.74 4960.02 4810.76 18768.9)
(2233.17 328.433 584.702 4245.75 1967.34 20351.4)
(-897.522 -277.892 777.078 5141.47 -7412.18 13831.6)
(-1321.11 -3235.34 1971.63 13580.4 -8567.15 3917.28)
(-291.434 -6126.71 2343.57 13236.1 -5957.9 -125.898)
(2209.99 -7904.4 2398.37 10598.9 -4121.51 -1522.83)
(4848.48 -8519.58 2346.02 7080.57 -2869.4 -2548.41)
(7363.65 -8031.79 2250.85 3554.02 -1913.13 -3464.75)
(9568.85 -6568.42 2128.21 611.435 -1081.18 -4196.42)
(11373.9 -4350.99 1938.97 -1213.59 -280.624 -4528.83)
(13421.6 -1692.03 1418.71 -1016.35 468.479 -3737.52)
(14321.5 1018.94 -1304.65 -465.188 602.792 -3252.81)
(12734.7 3741.01 -2530.79 -600.005 -195.93 -3721.09)
(11276.1 6144.24 -2692.47 976.075 -1094.27 -3418.82)
(9176.45 7880.7 -2730.24 3590.94 -2007.68 -2834.77)
(6547.54 8683.59 -2750.41 6793.41 -3033.6 -2107.6)
(3703.72 8408.63 -2755.19 10107.8 -4362.39 -1215.96)
(974.243 6998.77 -2683.19 12835.4 -6306.69 164.557)
(-352.31 4353.29 -2302.33 13858.5 -9082.84 4362.06)
(-559.853 952.308 -861.787 5656.99 -7890.57 13950.3)
(-720.057 -205.894 -572.571 4912.33 6883.78 13252.1)
(-1193.86 -3100.73 -1836.88 12850.3 8147.83 3622.12)
(-177.028 -6040.31 -2269.89 12740.8 5752.21 -366.389)
(2407.05 -7882.55 -2368.64 10375.3 4010.24 -1671.53)
(5220.95 -8557.89 -2347.18 7114.86 2803.96 -2510.85)
(7922.63 -8122.93 -2273.1 3791.46 1881.07 -3213.17)
(10234.7 -6701.19 -2164.21 944.136 1082.73 -3791.41)
(11971.8 -4511.19 -1985.99 -943.221 311.77 -4123.34)
(13507.7 -1868.86 -1489.47 -1152.7 -445.993 -3729.28)
(14003.7 811.763 1196.09 -808.455 -692.136 -3567.96)
(12450.1 3527.25 2477.25 -696.556 -1.82509 -3852.77)
(10800.9 5939.1 2658.72 759.943 862.933 -3624.75)
(8659.24 7685.92 2700.56 3293.71 1758.21 -3038.11)
(6113.8 8494.75 2720.04 6477.9 2748.8 -2246.93)
(3425.92 8231.86 2725.66 9803 4012.92 -1277.84)
(825.783 6868.07 2671.96 12503.6 5864.3 92.3152)
(-500.119 4348.24 2369.54 13488.5 8607.4 4090.68)
(-735.545 1048.26 1086.57 5524.94 7845.56 13883.2)
(-5629.82 276.301 48.6517 -3057.4 2688.77 12205.4)
(-6025.1 -365.795 -1387.16 -1531.24 6343.65 9982.38)
(-5881.78 -1817.77 -3358.84 -248.323 7791.47 6742.23)
(-5101.87 -3435.8 -5101.66 -365.611 7552.15 3432.97)
(-3816.74 -4562.96 -6368.55 -1743.11 6487.95 552.26)
(-2322.78 -4876.89 -7179.48 -3756.43 5158.97 -1789.49)
(-749.565 -4367.38 -7628.33 -5588.97 3855.77 -3426.47)
(898.034 -3235.88 -7814.11 -6625.27 2697.25 -4309.6)
(2542.4 -1752.27 -7439.77 -7591.3 1557.88 -6214.27)
(6261.57 1188.14 4697.3 -6251.99 1255.68 -7536.15)
(3970.74 2814.68 6853.35 -4286.53 2681.95 -3167.92)
(2014.38 4082.84 6778.35 -3843.76 3676 -2837.19)
(151.211 4819.33 6493.72 -2592.27 4779.66 -1842.35)
(-1442.75 4773.51 5913.2 -762.966 5972.79 184.033)
(-2888.1 3881.6 4909.28 587.576 7002.38 2883.73)
(-4065.58 2402.29 3411.97 551.363 7315.58 6022.42)
(-4919.27 989.855 1588.68 -1197.95 5966.73 9129.53)
(-5980.41 355.203 169.63 -3797.51 2189.15 10759.4)
(-6695.16 236.004 161.146 -4083.74 -2978.05 10433)
(-6804.24 -520.117 1634.57 -1908.55 -6851.38 8178.75)
(-6566.66 -2170.58 3588.72 -386.597 -8175.09 4652.62)
(-5804.9 -3933.56 5230.68 -734.358 -7734.27 1114.08)
(-4608.33 -5108.55 6382.99 -2560.66 -6538.27 -1908.64)
(-3232.91 -5394.13 7110.28 -5044.75 -5145.12 -4321.04)
(-1779.04 -4802.86 7517.53 -7261.54 -3810.57 -5951.98)
(-83.7482 -3551.35 7708.29 -8334.98 -2642.2 -6518.08)
(1337.32 -1946.71 7492.7 -9063.1 -1569.23 -7664.77)
(6409.4 1036.84 -4456.12 -6265.84 -1293.11 -7667.61)
(4649.8 2540.55 -7059.09 -2776.48 -2994.95 -947.443)
(3271.84 3678.34 -6915.06 -1754.27 -4073 278.64)
(1819.46 4317.83 -6533.11 -317.926 -5181.96 1814.07)
(519.184 4207.18 -5822.58 1459.13 -6314.71 4174.67)
(-749.941 3322.4 -4671.86 2575.83 -7193.19 6974.67)
(-1957.47 1977.5 -3059.58 2200.88 -7266.43 9843.8)
(-3091.21 802.334 -1228.07 217.411 -5721.06 12243.5)
(-4514.86 343.615 92.8951 -2402.92 -2062.53 13048.5)
(1161.37 127.39 1167.86 3551.43 -1326.75 18757.7)
(2363.12 -363.18 1905.91 5383.76 -4056.39 18945)
(3365.56 -1189.85 3199.08 6804.52 -5716.05 17669.4)
(4272.7 -2169.2 4606.09 7157.88 -6135.16 15384.5)
(5461.09 -2927.94 5822.47 6638.69 -5569.23 12938.1)
(6829.31 -3166.42 6726.12 5540.5 -4361.27 10677.6)
(8056.88 -2769.65 7298.08 4204.27 -2772.25 8639.71)
(8906.97 -1805.88 7546.66 2980.37 -979.438 6713.35)
(9206.43 -468.797 7353.82 1403.59 775.332 3597.62)
(12621.4 781.458 -1533.1 -1693.27 843.66 -4876.46)
(2537.72 685.525 -8451.15 -2918.49 -508.851 2493.51)
(4179.2 1494.59 -7768.59 444.077 -2173.78 7473.85)
(3581.46 2018.94 -6895.98 1501.62 -3625.7 9496.49)
(3043.11 2066.86 -5778.35 2741.61 -4632.61 11835)
(2512.31 1709.16 -4447.34 3628.6 -5024.76 14171.5)
(2156.69 1173.36 -3032.83 4040.37 -4624.75 16293.8)
(1720.06 711.114 -1782.25 3835.19 -3344.13 17633.1)
(1279.78 412.881 -1005.4 3468.09 -1330.88 18104.7)
(1448.18 169.273 -930.585 3802.41 1007.58 18301.4)
(2337.28 -201.84 -1584.66 4935.3 3128.87 18341)
(3170.44 -799.256 -2761.64 5815.72 4559.52 17477.5)
(3948.43 -1530.43 -4134.65 6039.65 5097.88 15865.4)
(5014.67 -2144.91 -5425.87 5769.62 4816.11 14110.6)
(6344.96 -2397.55 -6472.93 5183.71 3899.17 12508.6)
(7703.16 -2161.59 -7205.37 4517.9 2531.4 11128.4)
(8891.06 -1468.47 -7607.3 4053.66 867.833 9876.31)
(9537.54 -467.117 -7655.44 3091.44 -867.801 7156.17)
(13447.9 765.252 -1233.74 -590.875 -1157.52 -3679.43)
(4897.93 1277.86 8080.63 -3673.17 538.301 -1689.11)
(4665.01 2371.32 8020 -933.771 2300.69 2912.75)
(3631.53 3062.83 7365.18 650.641 3914.82 5529.32)
(2612.51 3105.6 6403.86 2200.93 5159.11 8287.82)
(1782.61 2562.25 5151.85 3346.06 5823.12 11244.6)
(1310.89 1714.03 3690.87 3823.93 5612.51 14218.7)
(941.245 938.316 2270.25 3462.77 4246.37 16559.7)
(670.718 451.324 1305.69 2914.48 1745.94 17920.5)
(-754.713 -338.413 1350.5 4153.53 -6062.81 14574.3)
(-1188.61 -2968.6 2405.56 11748.7 -8967.31 5811.7)
(-289.388 -5793.74 2858.36 12607 -6818.21 1005.84)
(1988.32 -7625.32 2915.33 10393.7 -4780.68 -1014.57)
(4537.13 -8314 2809.16 7084.1 -3273.37 -2325.47)
(6995.96 -7912.34 2627.47 3659.41 -2101.14 -3404.51)
(9169.81 -6540.56 2393.86 759.213 -1101.82 -4244.22)
(10919.2 -4398.51 2085.11 -1098.23 -185.49 -4697.45)
(12562.3 -1773.05 1559.78 -1228.08 637.614 -4300.09)
(13613.4 879.368 -593.702 -513.793 919.568 -3829.71)
(12396.7 3481.35 -2735.54 -406.705 33.3344 -3816.87)
(10761.2 5893.29 -3045.43 739.541 -1039.75 -3677.72)
(8785.27 7637.66 -3163.18 3212.14 -2139.1 -2965.7)
(6319.55 8450 -3245.47 6288.97 -3365.66 -2013.31)
(3652.51 8199.8 -3292.18 9421.8 -4906.66 -761.023)
(1173.08 6826.59 -3221.32 11824.2 -6985.25 1291.64)
(-174.149 4238.85 -2756.49 11709.8 -9230.18 6135.97)
(-418.417 1162.67 -1410.09 4518.54 -6364.23 14500.3)
(-633.203 -240.097 -1109.37 4062.49 5629.09 13884.8)
(-1106.68 -2794.13 -2232.34 11008.3 8465.88 5390.03)
(-212.122 -5665.01 -2766.16 11982.1 6564.95 700.593)
(2151.92 -7576.7 -2887.33 10053.4 4665.6 -1214.08)
(4888.82 -8343.89 -2826.2 7028.64 3223.51 -2327.82)
(7561.49 -8011.66 -2674.88 3829.13 2094.56 -3171.79)
(9883.56 -6693.68 -2463.52 1039.42 1138.23 -3830.16)
(11618.5 -4586.2 -2179.21 -863.596 262.19 -4246.03)
(12822.1 -1983.61 -1706.37 -1341.99 -563.609 -4170.25)
(13375.5 628.887 291.693 -834.267 -1002 -4079.78)
(12167.1 3183.61 2574 -420.448 -301.262 -3962.7)
(10252.8 5607.11 2956.28 593.539 728.751 -3925.31)
(8191.68 7375.66 3092.41 2937.67 1820.9 -3235.25)
(5802.82 8203.74 3180.38 5970.6 3016.39 -2223.52)
(3302.41 7967.02 3231.6 9104.51 4488.6 -896.722)
(968.986 6639.58 3184.27 11478.9 6475.34 1124.15)
(-319.629 4188.45 2813.85 11406.2 8755.48 5795.37)
(-563.939 1208.48 1630.57 4392.42 6351.06 14477.7)
(-3321.78 494.802 719.248 -197.572 2998.94 13941.2)
(-4467.96 -106.748 -891.799 1344.17 7025.41 11001.8)
(-5180.48 -1768.46 -3042.9 2262.97 8478.73 6957.33)
(-5091.88 -3634.6 -4875.91 1436.56 8078.13 2999.95)
(-4416.51 -4944.26 -6167.16 -805.634 6875.68 -456.444)
(-3525.81 -5381 -6984.51 -3727.12 5483.39 -3382.64)
(-2616.34 -4948.06 -7452.01 -6519.85 4176.09 -5681.34)
(-1421.22 -3838.11 -7677.77 -8231.11 3050.31 -6970.72)
(-926.197 -2298.91 -7543.79 -10015.7 2003.38 -9109.1)
(5383.76 983.551 717.578 -8306.86 1055.78 -11601.2)
(2763.66 3167.99 6537.82 -4803.5 3105.23 -4824.07)
(1070.96 4423.78 6498.14 -3913.31 4041.12 -4028.15)
(-325.943 5142.26 6211.65 -2121.65 5061.53 -2657.14)
(-1301.92 5053.55 5646.1 439.183 6235.04 -149.291)
(-2102.93 4086.93 4659.79 2566.59 7339.11 3051.72)
(-2645.01 2485.6 3136 3208.5 7816.43 6725.39)
(-2868.54 949.53 1181.43 1812.1 6585.56 10462.3)
(-3440.12 368.583 -437.725 -795.552 2584.02 12692.2)
(-4334.2 488.961 -500.219 -1152.54 -3158.91 12306.7)
(-5306.35 -215.495 1135.11 968.54 -7428.66 9236.12)
(-5923.43 -2078.37 3256.64 2145.68 -8745.7 4894.61)
(-5804.93 -4083.17 4975.16 1124.17 -8157.98 789.089)
(-5177.02 -5435.48 6156.89 -1519.16 -6863.4 -2702.64)
(-4400.64 -5848.35 6916.57 -4889.16 -5443.6 -5619.88)
(-3666.87 -5346.2 7383.27 -8104.42 -4124.55 -7886.97)
(-2562.63 -4138.74 7669.67 -9963.93 -2990.09 -8888.94)
(-2451.77 -2534.14 7772.43 -11621.3 -2009.51 -10318.3)
(5098.29 494.456 1324.51 -8861.36 -932.754 -12053.2)
(3017.18 2873.34 -6667.14 -3836.25 -3448.87 -3452.55)
(1973.04 3974.18 -6604.99 -2085.2 -4541.53 -1391.66)
(1067.37 4586.75 -6243.4 -11.9415 -5584.78 691.753)
(384.324 4418.9 -5553.51 2471.12 -6714.59 3605.47)
(-206.191 3433.06 -4402.69 4342.03 -7677.82 7015.51)
(-707.809 1949.04 -2726.46 4610.98 -7879.7 10544.7)
(-1135.74 677.958 -735.669 2972.32 -6333.49 13632.6)
(-2074.72 322.175 758.701 398.824 -2327.37 14915.3)
(-88.8098 133.031 1929.23 2397.75 -1132.49 16634.9)
(1253.38 -410.32 2558.23 4153.72 -3521.73 17096.2)
(2596.11 -1191.47 3679.19 5655.06 -5016.86 16359.3)
(3870.25 -2058.29 4919.03 6265.45 -5423.19 14649)
(5351.2 -2704.44 6004.18 6105.51 -4909.29 12670)
(6987.53 -2869.58 6808.09 5449.51 -3759.23 10805.8)
(8481.98 -2439.86 7296.26 4593.37 -2218.24 9126.57)
(9618.64 -1458.25 7471.29 3911.05 -469.261 7615.21)
(9751.72 -80.0141 7302.01 2825.69 1266.14 5105.34)
(12030.6 1466.76 3818.61 185.728 1699.28 -2504.73)
(4080.43 123.259 -8586.85 -1543.53 221.65 3236.01)
(4621.15 888.85 -7856.31 946.676 -1304.54 8041.64)
(3829.22 1549.38 -7023.57 1440.82 -2765.2 9617.4)
(2939.63 1763.67 -5989.39 2081.68 -3765.69 11353.2)
(2067.83 1585.55 -4779.72 2569.52 -4160.05 13142.7)
(1307.87 1205.62 -3518.06 2721.07 -3821.58 14704.3)
(540.19 825.149 -2420.97 2467.6 -2713.62 15615.9)
(-34.746 513.689 -1748.01 2231.47 -991.986 15925.9)
(172.127 195.9 -1690.32 2697.84 996.137 16190.6)
(1221.46 -238.898 -2269.09 3873.16 2802.11 16458.3)