/*--------------------------------*- C++ -*----------------------------------*\
| =========                 |                                                 |
| \\      /  F ield         | OpenFOAM: The Open Source CFD Toolbox           |
|  \\    /   O peration     | Version:  2312                                  |
|   \\  /    A nd           | Website:  www.openfoam.com                      |
|    \\/     M anipulation  |                                                 |
\*---------------------------------------------------------------------------*/
FoamFile
{
    version     2.0;
    format      ascii;
    arch        "LSB;label=32;scalar=64";
    class       volScalarField;
    location    "0.3";
    object      sigmaHyd;
}
// * * * * * * * * * * * * * * * * * * * * * * * * * * * * * * * * * * * * * //

dimensions      [1 -1 -2 0 0 0 0];

internalField   nonuniform List<scalar> 
1620
(
13446
13446.1
13446.1
13446
13445.9
13446
13446
13446
13446.1
13446
13446.1
13446.1
13446
13445.9
13446
13446
13446
13446.1
13446
13446.1
13446.1
13446
13445.9
13446
13446
13446
13446
13446
13446.1
13446.1
13446
13445.9
13446
13446
13446
13446
8132.08
8132.09
8132.03
8132.08
8132.06
8132.02
8132.07
8132.08
8132.05
8132.08
8132.09
8132.03
8132.08
8132.06
8132.02
8132.07
8132.08
8132.05
8132.08
8132.09
8132.03
8132.08
8132.06
8132.02
8132.07
8132.08
8132.05
8132.08
8132.09
8132.02
8132.08
8132.05
8132.01
8132.07
8132.08
8132.05
2687.49
2687.5
2687.42
2687.4
2687.46
2687.45
2687.48
2687.42
2687.47
2687.49
2687.5
2687.42
2687.4
2687.46
2687.45
2687.49
2687.42
2687.47
2687.49
2687.5
2687.42
2687.4
2687.46
2687.45
2687.48
2687.42
2687.47
2687.49
2687.5
2687.41
2687.4
2687.46
2687.45
2687.48
2687.42
2687.47
3574
3574.02
3574.09
3573.95
3573.97
3574.03
3573.96
3574.04
3574.02
3574
3574.02
3574.09
3573.95
3573.97
3574.03
3573.96
3574.04
3574.02
3574
3574.02
3574.09
3573.95
3573.97
3574.03
3573.96
3574.04
3574.02
3574
3574.02
3574.09
3573.95
3573.97
3574.03
3573.96
3574.04
3574.02
-1773.09
-1773.1
-1773.13
-1773
-1773.02
-1773.11
-1773.02
-1773.15
-1773.09
-1773.09
-1773.1
-1773.13
-1773
-1773.02
-1773.11
-1773.02
-1773.15
-1773.09
-1773.09
-1773.1
-1773.13
-1773
-1773.02
-1773.11
-1773.02
-1773.15
-1773.09
-1773.09
-1773.1
-1773.13
-1773
-1773.02
-1773.11
-1773.02
-1773.15
-1773.09
-9006.56
-9006.6
-9006.57
-9006.68
-9006.59
-9006.5
-9006.56
-9006.52
-9006.53
-9006.56
-9006.6
-9006.57
-9006.68
-9006.59
-9006.5
-9006.56
-9006.52
-9006.53
-9006.56
-9006.6
-9006.57
-9006.68
-9006.59
-9006.5
-9006.56
-9006.52
-9006.53
-9006.56
-9006.6
-9006.57
-9006.68
-9006.59
-9006.5
-9006.56
-9006.52
-9006.53
3841.93
3841.77
3841.92
3841.81
3841.88
3841.94
3841.78
3841.85
3841.79
3841.93
3841.78
3841.92
3841.81
3841.88
3841.94
3841.78
3841.85
3841.79
3841.93
3841.78
3841.92
3841.81
3841.88
3841.94
3841.78
3841.85
3841.79
3841.93
3841.78
3841.92
3841.81
3841.88
3841.94
3841.78
3841.85
3841.79
-1292.4
-1292.25
-1292.4
-1292.28
-1292.32
-1292.42
-1292.3
-1292.39
-1292.28
-1292.4
-1292.25
-1292.4
-1292.28
-1292.32
-1292.42
-1292.3
-1292.39
-1292.28
-1292.4
-1292.25
-1292.4
-1292.28
-1292.32
-1292.42
-1292.3
-1292.39
-1292.28
-1292.4
-1292.25
-1292.4
-1292.28
-1292.32
-1292.42
-1292.3
-1292.39
-1292.28
-9656.53
-9656.63
-9656.47
-9656.5
-9656.53
-9656.51
-9656.59
-9656.48
-9656.5
-9656.53
-9656.62
-9656.47
-9656.5
-9656.53
-9656.51
-9656.59
-9656.48
-9656.5
-9656.53
-9656.62
-9656.47
-9656.5
-9656.53
-9656.51
-9656.59
-9656.48
-9656.5
-9656.53
-9656.62
-9656.47
-9656.5
-9656.53
-9656.51
-9656.59
-9656.48
-9656.5
3738.26
3738.31
3738.24
3738.31
3738.3
3738.33
3738.31
3738.23
3738.27
3738.27
3738.31
3738.24
3738.31
3738.3
3738.33
3738.31
3738.23
3738.27
3738.27
3738.31
3738.24
3738.31
3738.3
3738.33
3738.31
3738.23
3738.27
3738.27
3738.31
3738.24
3738.31
3738.3
3738.33
3738.31
3738.23
3738.27
-1499.23
-1499.29
-1499.26
-1499.22
-1499.27
-1499.26
-1499.26
-1499.26
-1499.23
-1499.23
-1499.29
-1499.26
-1499.22
-1499.27
-1499.26
-1499.26
-1499.26
-1499.23
-1499.23
-1499.29
-1499.26
-1499.22
-1499.27
-1499.26
-1499.26
-1499.26
-1499.23
-1499.23
-1499.29
-1499.26
-1499.22
-1499.27
-1499.26
-1499.26
-1499.26
-1499.23
-11106.3
-11106.3
-11106.3
-11106.3
-11106.4
-11106.2
-11106.4
-11106.3
-11106.3
-11106.3
-11106.3
-11106.3
-11106.3
-11106.4
-11106.2
-11106.4
-11106.3
-11106.3
-11106.3
-11106.3
-11106.3
-11106.3
-11106.4
-11106.2
-11106.4
-11106.3
-11106.3
-11106.3
-11106.3
-11106.3
-11106.3
-11106.4
-11106.2
-11106.4
-11106.3
-11106.3
3610.49
3610.58
3610.43
3610.57
3610.5
3610.46
3610.62
3610.4
3610.55
3610.49
3610.59
3610.43
3610.57
3610.5
3610.46
3610.62
3610.4
3610.55
3610.49
3610.59
3610.43
3610.57
3610.5
3610.46
3610.62
3610.4
3610.55
3610.49
3610.59
3610.43
3610.57
3610.5
3610.46
3610.62
3610.4
3610.55
-1683.11
-1683.3
-1683.09
-1683.23
-1683.18
-1683.1
-1683.24
-1683.1
-1683.19
-1683.11
-1683.29
-1683.09
-1683.23
-1683.18
-1683.1
-1683.24
-1683.1
-1683.19
-1683.11
-1683.29
-1683.09
-1683.23
-1683.18
-1683.1
-1683.24
-1683.1
-1683.19
-1683.11
-1683.29
-1683.09
-1683.23
-1683.18
-1683.1
-1683.24
-1683.1
-1683.19
-12213.5
-12213.4
-12213.5
-12213.5
-12213.4
-12213.5
-12213.4
-12213.5
-12213.4
-12213.5
-12213.4
-12213.5
-12213.5
-12213.4
-12213.5
-12213.4
-12213.5
-12213.4
-12213.5
-12213.4
-12213.5
-12213.5
-12213.4
-12213.5
-12213.4
-12213.5
-12213.4
-12213.5
-12213.4
-12213.5
-12213.5
-12213.4
-12213.5
-12213.4
-12213.5
-12213.4
3228.84
3228.98
3228.84
3228.93
3228.87
3228.84
3228.9
3228.79
3228.94
3228.84
3228.98
3228.84
3228.93
3228.87
3228.84
3228.9
3228.79
3228.94
3228.84
3228.98
3228.84
3228.93
3228.87
3228.84
3228.9
3228.79
3228.94
3228.84
3228.98
3228.84
3228.93
3228.87
3228.84
3228.9
3228.79
3228.94
-2054.52
-2054.67
-2054.57
-2054.61
-2054.58
-2054.57
-2054.64
-2054.43
-2054.66
-2054.52
-2054.67
-2054.57
-2054.61
-2054.58
-2054.57
-2054.64
-2054.43
-2054.66
-2054.52
-2054.67
-2054.57
-2054.61
-2054.58
-2054.57
-2054.64
-2054.43
-2054.66
-2054.52
-2054.67
-2054.57
-2054.61
-2054.58
-2054.57
-2054.64
-2054.43
-2054.66
-12975.4
-12975.3
-12975.5
-12975.3
-12975.4
-12975.5
-12975.4
-12975.5
-12975.4
-12975.4
-12975.3
-12975.5
-12975.3
-12975.4
-12975.5
-12975.4
-12975.5
-12975.4
-12975.4
-12975.3
-12975.5
-12975.3
-12975.4
-12975.5
-12975.4
-12975.5
-12975.4
-12975.4
-12975.3
-12975.5
-12975.3
-12975.4
-12975.5
-12975.4
-12975.5
-12975.4
2460.38
2460.51
2460.26
2460.56
2460.34
2460.28
2460.5
2460.26
2460.44
2460.38
2460.51
2460.26
2460.56
2460.34
2460.28
2460.5
2460.26
2460.44
2460.38
2460.51
2460.26
2460.56
2460.34
2460.28
2460.5
2460.26
2460.44
2460.38
2460.51
2460.26
2460.56
2460.34
2460.28
2460.5
2460.26
2460.44
-2634.2
-2634.56
-2634.25
-2634.48
-2634.42
-2634.2
-2634.43
-2634.28
-2634.48
-2634.2
-2634.56
-2634.25
-2634.48
-2634.42
-2634.2
-2634.43
-2634.28
-2634.48
-2634.2
-2634.56
-2634.25
-2634.48
-2634.42
-2634.2
-2634.43
-2634.28
-2634.48
-2634.2
-2634.56
-2634.25
-2634.48
-2634.42
-2634.2
-2634.43
-2634.28
-2634.48
-13234.3
-13234
-13234.1
-13234.1
-13234.1
-13234.2
-13234.1
-13234.3
-13233.9
-13234.3
-13234
-13234.1
-13234.1
-13234.1
-13234.2
-13234.1
-13234.3
-13233.9
-13234.3
-13234
-13234.1
-13234.1
-13234.1
-13234.2
-13234.1
-13234.3
-13233.9
-13234.3
-13234
-13234.1
-13234.1
-13234.1
-13234.2
-13234.1
-13234.3
-13233.9
1136.09
1136.03
1135.95
1136.06
1135.96
1135.94
1136.02
1135.94
1135.91
1136.09
1136.03
1135.95
1136.06
1135.96
1135.94
1136.03
1135.94
1135.91
1136.09
1136.03
1135.95
1136.06
1135.96
1135.94
1136.03
1135.94
1135.91
1136.09
1136.03
1135.95
1136.06
1135.96
1135.94
1136.03
1135.94
1135.91
-3406.25
-3406.25
-3406.12
-3406.33
-3406.16
-3406.07
-3406.21
-3406.18
-3406.09
-3406.25
-3406.25
-3406.12
-3406.33
-3406.16
-3406.07
-3406.21
-3406.18
-3406.09
-3406.25
-3406.25
-3406.12
-3406.33
-3406.16
-3406.07
-3406.21
-3406.18
-3406.09
-3406.25
-3406.25
-3406.12
-3406.33
-3406.16
-3406.07
-3406.21
-3406.18
-3406.09
-12781.7
-12781.6
-12781.7
-12781.7
-12781.7
-12781.8
-12781.7
-12781.7
-12781.7
-12781.7
-12781.6
-12781.7
-12781.7
-12781.7
-12781.8
-12781.7
-12781.7
-12781.7
-12781.7
-12781.6
-12781.7
-12781.7
-12781.7
-12781.8
-12781.7
-12781.7
-12781.7
-12781.7
-12781.6
-12781.7
-12781.7
-12781.7
-12781.8
-12781.7
-12781.7
-12781.7
-923.198
-923.145
-923.166
-923.184
-923.183
-923.188
-923.217
-923.181
-923.13
-923.199
-923.146
-923.166
-923.184
-923.182
-923.188
-923.217
-923.181
-923.13
-923.199
-923.145
-923.166
-923.184
-923.182
-923.188
-923.217
-923.181
-923.13
-923.199
-923.146
-923.166
-923.185
-923.183
-923.188
-923.217
-923.181
-923.13
-4284.54
-4284.46
-4284.53
-4284.4
-4284.44
-4284.55
-4284.36
-4284.49
-4284.49
-4284.54
-4284.46
-4284.53
-4284.4
-4284.43
-4284.55
-4284.36
-4284.49
-4284.49
-4284.54
-4284.46
-4284.53
-4284.4
-4284.43
-4284.55
-4284.36
-4284.49
-4284.49
-4284.54
-4284.46
-4284.53
-4284.4
-4284.44
-4284.55
-4284.36
-4284.49
-4284.49
-11253.7
-11253.9
-11253.8
-11254
-11253.9
-11253.9
-11253.8
-11253.9
-11254
-11253.7
-11253.9
-11253.8
-11254
-11253.9
-11253.9
-11253.8
-11253.9
-11254
-11253.7
-11253.9
-11253.8
-11254
-11253.9
-11253.9
-11253.8
-11253.9
-11254
-11253.7
-11253.9
-11253.8
-11254
-11253.9
-11253.9
-11253.8
-11253.9
-11254
-3777.47
-3777.54
-3777.49
-3777.4
-3777.46
-3777.52
-3777.5
-3777.39
-3777.48
-3777.47
-3777.54
-3777.49
-3777.4
-3777.46
-3777.52
-3777.5
-3777.39
-3777.48
-3777.47
-3777.54
-3777.49
-3777.4
-3777.46
-3777.52
-3777.5
-3777.39
-3777.48
-3777.47
-3777.54
-3777.49
-3777.4
-3777.46
-3777.52
-3777.5
-3777.39
-3777.48
-5108.45
-5108.41
-5108.52
-5108.48
-5108.51
-5108.54
-5108.42
-5108.48
-5108.55
-5108.45
-5108.41
-5108.52
-5108.48
-5108.5
-5108.54
-5108.42
-5108.48
-5108.55
-5108.45
-5108.41
-5108.52
-5108.48
-5108.5
-5108.54
-5108.42
-5108.48
-5108.55
-5108.45
-5108.41
-5108.52
-5108.48
-5108.51
-5108.54
-5108.42
-5108.48
-5108.55
-8150.29
-8150.38
-8150.33
-8150.38
-8150.36
-8150.31
-8150.33
-8150.33
-8150.43
-8150.29
-8150.38
-8150.33
-8150.38
-8150.36
-8150.31
-8150.33
-8150.33
-8150.43
-8150.29
-8150.38
-8150.33
-8150.38
-8150.36
-8150.31
-8150.33
-8150.33
-8150.43
-8150.29
-8150.38
-8150.33
-8150.38
-8150.36
-8150.31
-8150.33
-8150.33
-8150.43
-7075.44
-7075.52
-7075.47
-7075.39
-7075.39
-7075.45
-7075.37
-7075.44
-7075.5
-7075.44
-7075.53
-7075.47
-7075.39
-7075.39
-7075.45
-7075.37
-7075.44
-7075.5
-7075.44
-7075.53
-7075.47
-7075.39
-7075.39
-7075.45
-7075.37
-7075.44
-7075.5
-7075.44
-7075.53
-7075.47
-7075.39
-7075.39
-7075.45
-7075.37
-7075.44
-7075.5
-5714.05
-5713.81
-5714
-5713.95
-5713.97
-5713.97
-5713.94
-5714.09
-5713.9
-5714.05
-5713.81
-5714
-5713.95
-5713.97
-5713.96
-5713.94
-5714.09
-5713.9
-5714.05
-5713.81
-5714
-5713.95
-5713.97
-5713.96
-5713.94
-5714.09
-5713.9
-5714.05
-5713.81
-5714
-5713.95
-5713.97
-5713.96
-5713.94
-5714.09
-5713.9
-3104.31
-3104.45
-3104.32
-3104.42
-3104.39
-3104.4
-3104.49
-3104.29
-3104.41
-3104.31
-3104.45
-3104.32
-3104.42
-3104.39
-3104.4
-3104.49
-3104.29
-3104.41
-3104.31
-3104.45
-3104.32
-3104.42
-3104.39
-3104.4
-3104.5
-3104.29
-3104.41
-3104.32
-3104.45
-3104.32
-3104.42
-3104.39
-3104.4
-3104.5
-3104.29
-3104.41
-9735.18
-9735.19
-9735.08
-9735.16
-9735.06
-9735.06
-9735.05
-9735.07
-9735.3
-9735.18
-9735.19
-9735.08
-9735.16
-9735.06
-9735.06
-9735.05
-9735.07
-9735.3
-9735.18
-9735.19
-9735.08
-9735.16
-9735.06
-9735.06
-9735.05
-9735.07
-9735.3
-9735.18
-9735.19
-9735.08
-9735.16
-9735.06
-9735.06
-9735.05
-9735.07
-9735.3
-6029.66
-6029.56
-6029.64
-6029.7
-6029.63
-6029.69
-6029.7
-6029.79
-6029.66
-6029.66
-6029.56
-6029.64
-6029.7
-6029.63
-6029.69
-6029.7
-6029.79
-6029.66
-6029.66
-6029.56
-6029.64
-6029.7
-6029.63
-6029.69
-6029.7
-6029.79
-6029.66
-6029.66
-6029.56
-6029.64
-6029.7
-6029.63
-6029.69
-6029.7
-6029.79
-6029.66
3704.98
3704.86
3704.92
3704.87
3704.89
3704.82
3704.94
3705.03
3705.04
3704.98
3704.86
3704.92
3704.87
3704.89
3704.82
3704.94
3705.03
3705.04
3704.98
3704.86
3704.91
3704.87
3704.88
3704.82
3704.94
3705.03
3705.04
3704.98
3704.86
3704.92
3704.87
3704.89
3704.82
3704.94
3705.03
3705.04
-9754.46
-9754.47
-9754.32
-9754.28
-9754.33
-9754.16
-9754.33
-9754.33
-9754.62
-9754.46
-9754.47
-9754.32
-9754.28
-9754.33
-9754.16
-9754.32
-9754.33
-9754.62
-9754.46
-9754.47
-9754.32
-9754.28
-9754.33
-9754.16
-9754.32
-9754.33
-9754.62
-9754.46
-9754.47
-9754.32
-9754.28
-9754.33
-9754.16
-9754.32
-9754.33
-9754.62
-5391.43
-5391.38
-5391.45
-5391.54
-5391.28
-5391.51
-5391.4
-5391.53
-5391.32
-5391.43
-5391.38
-5391.45
-5391.54
-5391.27
-5391.51
-5391.4
-5391.53
-5391.32
-5391.43
-5391.38
-5391.45
-5391.54
-5391.28
-5391.51
-5391.4
-5391.53
-5391.32
-5391.43
-5391.38
-5391.45
-5391.54
-5391.28
-5391.51
-5391.4
-5391.53
-5391.32
12202.5
12202.3
12202.4
12202.2
12202.2
12202.5
12202.3
12202.7
12202.5
12202.5
12202.3
12202.4
12202.2
12202.2
12202.5
12202.3
12202.7
12202.5
12202.5
12202.3
12202.4
12202.2
12202.2
12202.5
12202.3
12202.7
12202.5
12202.5
12202.3
12202.4
12202.2
12202.2
12202.5
12202.3
12202.7
12202.5
-7675.42
-7674.89
-7674.07
-7674.42
-7675.66
-7674.63
-7673.98
-7675.01
-7675.75
-7675.43
-7674.9
-7674.08
-7674.42
-7675.67
-7674.63
-7673.99
-7675.02
-7675.76
-7675.44
-7674.91
-7674.09
-7674.43
-7675.67
-7674.64
-7674
-7675.02
-7675.76
-7675.44
-7674.92
-7674.09
-7674.43
-7675.68
-7674.64
-7674
-7675.01
-7675.75
-6376.19
-6376.33
-6376.22
-6376.35
-6376.1
-6376.57
-6376.32
-6376.25
-6376.23
-6376.18
-6376.33
-6376.21
-6376.35
-6376.1
-6376.58
-6376.32
-6376.26
-6376.23
-6376.18
-6376.33
-6376.22
-6376.35
-6376.1
-6376.58
-6376.32
-6376.26
-6376.23
-6376.18
-6376.32
-6376.22
-6376.35
-6376.09
-6376.57
-6376.32
-6376.26
-6376.23
17099.3
17099.2
17099.2
17099.2
17099.4
17099.1
17099.4
17099.4
17099.4
17099.3
17099.2
17099.2
17099.2
17099.4
17099.1
17099.4
17099.4
17099.4
17099.3
17099.2
17099.2
17099.2
17099.4
17099.1
17099.4
17099.4
17099.4
17099.3
17099.2
17099.2
17099.2
17099.4
17099.1
17099.4
17099.4
17099.4
9155.48
9157.24
9147.83
9150.41
9158.65
9151.91
9147.87
9153.74
9151.8
9155.5
9157.3
9147.88
9150.44
9158.68
9151.94
9147.88
9153.77
9151.83
9155.52
9157.32
9147.89
9150.44
9158.68
9151.94
9147.88
9153.76
9151.81
9155.51
9157.3
9147.88
9150.44
9158.67
9151.94
9147.89
9153.76
9151.8
5591.99
5591.57
5592.02
5589.58
5595.22
5589.11
5593.06
5591.73
5592.38
5591.99
5591.57
5592.01
5589.57
5595.22
5589.1
5593.06
5591.74
5592.4
5591.99
5591.57
5592.02
5589.58
5595.23
5589.11
5593.06
5591.74
5592.39
5592
5591.58
5592.02
5589.57
5595.22
5589.11
5593.06
5591.73
5592.38
13424.8
13424.1
13422
13429.8
13416.1
13432
13419.3
13426.3
13424
13424.8
13424.1
13422
13429.7
13416.1
13432
13419.3
13426.3
13424
13424.8
13424.1
13422
13429.7
13416.1
13432
13419.3
13426.3
13424
13424.8
13424.1
13422
13429.7
13416.1
13432
13419.3
13426.3
13424
)
;

boundaryField
{
    fixed
    {
        type            zeroGradient;
    }
    inside
    {
        type            zeroGradient;
    }
    outside
    {
        type            zeroGradient;
    }
}


// ************************************************************************* //
