/*--------------------------------*- C++ -*----------------------------------*\
| =========                 |                                                 |
| \\      /  F ield         | OpenFOAM: The Open Source CFD Toolbox           |
|  \\    /   O peration     | Version:  2312                                  |
|   \\  /    A nd           | Website:  www.openfoam.com                      |
|    \\/     M anipulation  |                                                 |
\*---------------------------------------------------------------------------*/
FoamFile
{
    version     2.0;
    format      ascii;
    arch        "LSB;label=32;scalar=64";
    class       volSymmTensorField;
    location    "0.3";
    object      sigma;
}
// * * * * * * * * * * * * * * * * * * * * * * * * * * * * * * * * * * * * * //

dimensions      [1 -1 -2 0 0 0 0];

internalField   nonuniform List<symmTensor> 
1620
(
(13490.5 -1257.45 -366.586 23138.2 7311.1 21709.3)
(14211.5 -2831.46 -1630.56 22417.3 7136.38 21709.3)
(15427.4 -4063.99 -2845.03 21201.4 6744.81 21709.3)
(16991.4 -4806.29 -3973.04 19637.2 6148.3 21709.3)
(18715 -4968.9 -4980.31 17913.6 5365 21709.3)
(20390.3 -4532.21 -5836.26 16238.4 4418.68 21709.3)
(21815.3 -3548.88 -6514.89 14813.5 3338.09 21709.3)
(22817.9 -2137.47 -6995.57 13810.8 2156.08 21709.3)
(23277.4 -468.257 -7263.69 13351.4 908.555 21709.3)
(23138.2 1257.45 -7311.1 13490.5 -366.586 21709.3)
(22417.3 2831.46 -7136.38 14211.5 -1630.56 21709.3)
(21201.4 4063.99 -6744.81 15427.4 -2845.03 21709.3)
(19637.2 4806.29 -6148.31 16991.4 -3973.04 21709.3)
(17913.6 4968.9 -5365 18715 -4980.31 21709.3)
(16238.4 4532.21 -4418.68 20390.3 -5836.26 21709.3)
(14813.5 3548.88 -3338.09 21815.3 -6514.89 21709.3)
(13810.8 2137.47 -2156.08 22817.9 -6995.57 21709.3)
(13351.4 468.257 -908.555 23277.4 -7263.69 21709.3)
(13490.5 -1257.45 366.586 23138.2 -7311.1 21709.3)
(14211.5 -2831.46 1630.56 22417.3 -7136.38 21709.3)
(15427.4 -4063.99 2845.03 21201.4 -6744.81 21709.3)
(16991.4 -4806.29 3973.04 19637.2 -6148.31 21709.3)
(18715 -4968.9 4980.31 17913.6 -5365 21709.3)
(20390.3 -4532.21 5836.26 16238.4 -4418.68 21709.3)
(21815.3 -3548.88 6514.89 14813.5 -3338.09 21709.3)
(22817.9 -2137.47 6995.57 13810.8 -2156.08 21709.3)
(23277.4 -468.257 7263.69 13351.4 -908.555 21709.3)
(23138.2 1257.45 7311.1 13490.5 366.586 21709.3)
(22417.3 2831.46 7136.38 14211.5 1630.56 21709.3)
(21201.4 4063.99 6744.81 15427.4 2845.03 21709.3)
(19637.2 4806.29 6148.3 16991.4 3973.04 21709.3)
(17913.6 4968.9 5365 18715 4980.31 21709.3)
(16238.4 4532.21 4418.68 20390.3 5836.26 21709.3)
(14813.5 3548.88 3338.09 21815.3 6514.89 21709.3)
(13810.8 2137.47 2156.08 22817.9 6995.57 21709.3)
(13351.4 468.257 908.555 23277.4 7263.69 21709.3)
(7974.92 -2101.06 374.673 25913.2 -82.8394 8508.14)
(9234.43 -5041.96 383.366 24653.7 -16.5195 8508.15)
(11423.8 -7374.76 380.413 22464.2 50.2938 8508.08)
(14279.1 -8818.02 365.871 19609 115.627 8508.14)
(17455.7 -9197.7 340.205 16432.4 177.433 8508.13)
(20570.6 -8468.03 304.26 13317.4 233.792 8508.08)
(23248.2 -6716.98 259.086 10639.9 283.054 8508.12)
(25165.3 -4155.74 205.99 8722.76 323.744 8508.14)
(26090.8 -1093.27 146.642 7797.19 354.596 8508.1)
(25913.2 2101.06 82.8393 7974.92 374.673 8508.14)
(24653.7 5041.96 16.5195 9234.43 383.366 8508.15)
(22464.2 7374.76 -50.2939 11423.8 380.413 8508.08)
(19609 8818.02 -115.627 14279.1 365.872 8508.14)
(16432.4 9197.7 -177.433 17455.7 340.205 8508.13)
(13317.4 8468.03 -233.792 20570.6 304.26 8508.08)
(10639.9 6716.98 -283.054 23248.2 259.086 8508.12)
(8722.77 4155.74 -323.744 25165.3 205.99 8508.14)
(7797.19 1093.27 -354.596 26090.8 146.642 8508.11)
(7974.92 -2101.06 -374.673 25913.2 82.8394 8508.14)
(9234.43 -5041.96 -383.366 24653.7 16.5195 8508.15)
(11423.8 -7374.76 -380.413 22464.2 -50.2939 8508.08)
(14279.1 -8818.02 -365.872 19609 -115.627 8508.14)
(17455.7 -9197.7 -340.205 16432.4 -177.433 8508.13)
(20570.6 -8468.03 -304.26 13317.4 -233.792 8508.08)
(23248.2 -6716.98 -259.086 10639.9 -283.054 8508.12)
(25165.3 -4155.74 -205.99 8722.76 -323.744 8508.14)
(26090.8 -1093.27 -146.642 7797.19 -354.596 8508.1)
(25913.2 2101.06 -82.8394 7974.92 -374.673 8508.14)
(24653.7 5041.96 -16.5195 9234.43 -383.366 8508.14)
(22464.2 7374.76 50.2938 11423.8 -380.413 8508.08)
(19609 8818.02 115.627 14279.1 -365.872 8508.14)
(16432.4 9197.7 177.433 17455.7 -340.205 8508.12)
(13317.4 8468.03 233.792 20570.6 -304.26 8508.08)
(10639.9 6716.98 283.054 23248.2 -259.086 8508.12)
(8722.76 4155.74 323.744 25165.3 -205.99 8508.14)
(7797.19 1093.27 354.596 26090.8 -146.642 8508.1)
(954.044 -2130.13 1787.12 15724.4 -12063.2 9383.99)
(2127.98 -4527.55 3854.72 14550.5 -11569.6 9383.99)
(4051.01 -6378.9 5805.21 12627.3 -10724.5 9383.92)
(6491.32 -7460.85 7579.3 10187 -9553.46 9383.89)
(9154.59 -7642.92 9123.07 7523.89 -8092.19 9383.91)
(11719.4 -6903.11 10389.7 4959.02 -6385.06 9383.95)
(13876.6 -5330.7 11340.6 2801.88 -4483.91 9383.99)
(15365.8 -3115.31 11946.9 1312.55 -2446.49 9383.92)
(16007.6 -524.203 12190.3 670.855 -334.773 9383.96)
(15724.4 2130.13 12063.2 954.045 1787.12 9383.99)
(14550.5 4527.55 11569.6 2127.98 3854.72 9383.99)
(12627.3 6378.9 10724.5 4051.01 5805.21 9383.93)
(10187 7460.85 9553.46 6491.33 7579.3 9383.89)
(7523.89 7642.92 8092.19 9154.59 9123.07 9383.91)
(4959.02 6903.11 6385.06 11719.4 10389.7 9383.95)
(2801.89 5330.7 4483.91 13876.6 11340.6 9383.99)
(1312.55 3115.31 2446.49 15365.8 11946.9 9383.92)
(670.855 524.203 334.773 16007.6 12190.3 9383.96)
(954.046 -2130.13 -1787.12 15724.4 12063.2 9383.99)
(2127.98 -4527.55 -3854.72 14550.5 11569.6 9383.99)
(4051.01 -6378.9 -5805.21 12627.3 10724.5 9383.93)
(6491.32 -7460.85 -7579.3 10187 9553.46 9383.89)
(9154.59 -7642.92 -9123.07 7523.89 8092.19 9383.91)
(11719.4 -6903.11 -10389.7 4959.02 6385.06 9383.95)
(13876.6 -5330.7 -11340.6 2801.88 4483.91 9383.99)
(15365.8 -3115.31 -11946.9 1312.55 2446.49 9383.92)
(16007.6 -524.203 -12190.3 670.854 334.773 9383.96)
(15724.4 2130.13 -12063.2 954.044 -1787.12 9383.99)
(14550.5 4527.55 -11569.6 2127.98 -3854.72 9383.99)
(12627.3 6378.9 -10724.5 4051.01 -5805.21 9383.92)
(10187 7460.85 -9553.46 6491.32 -7579.3 9383.89)
(7523.89 7642.92 -8092.19 9154.59 -9123.07 9383.91)
(4959.01 6903.11 -6385.06 11719.4 -10389.7 9383.94)
(2801.88 5330.7 -4483.91 13876.6 -11340.6 9383.99)
(1312.54 3115.31 -2446.49 15365.8 -11946.9 9383.92)
(670.853 524.203 -334.773 16007.6 -12190.3 9383.96)
(3645.56 -1442.19 -518.058 12134.9 7298.95 12941.5)
(4394.79 -2806.94 -1777.61 11385.6 7098.11 12941.6)
(5565.71 -3833.19 -2983.2 10214.9 6681.59 12941.6)
(7016.78 -4397.06 -4098.13 8763.49 6062.05 12941.6)
(8573.36 -4430.59 -5088.53 7206.97 5258.32 12941.6)
(10047.5 -3929.74 -5924.3 5732.92 4294.86 12941.7)
(11261.5 -2954.91 -6580.1 4518.9 3200.85 12941.5)
(12068.8 -1623.65 -7035.96 3711.65 2009.59 12941.6)
(12372.2 -96.5857 -7278.02 3408.3 757.298 12941.6)
(12134.9 1442.19 -7298.95 3645.56 -518.058 12941.5)
(11385.6 2806.94 -7098.11 4394.79 -1777.61 12941.6)
(10214.9 3833.19 -6681.59 5565.71 -2983.2 12941.6)
(8763.49 4397.06 -6062.05 7016.78 -4098.13 12941.6)
(7206.97 4430.59 -5258.32 8573.36 -5088.53 12941.6)
(5732.92 3929.74 -4294.86 10047.5 -5924.3 12941.7)
(4518.9 2954.91 -3200.85 11261.5 -6580.1 12941.5)
(3711.65 1623.65 -2009.59 12068.8 -7035.96 12941.6)
(3408.3 96.5857 -757.298 12372.2 -7278.02 12941.6)
(3645.56 -1442.19 518.058 12134.9 -7298.95 12941.5)
(4394.79 -2806.94 1777.61 11385.6 -7098.11 12941.6)
(5565.71 -3833.19 2983.2 10214.9 -6681.59 12941.6)
(7016.78 -4397.06 4098.13 8763.49 -6062.05 12941.6)
(8573.36 -4430.59 5088.53 7206.97 -5258.32 12941.6)
(10047.5 -3929.74 5924.3 5732.92 -4294.86 12941.7)
(11261.5 -2954.91 6580.1 4518.9 -3200.85 12941.5)
(12068.8 -1623.65 7035.95 3711.65 -2009.59 12941.6)
(12372.2 -96.5857 7278.02 3408.3 -757.298 12941.6)
(12134.9 1442.19 7298.95 3645.56 518.058 12941.5)
(11385.6 2806.94 7098.11 4394.79 1777.61 12941.6)
(10214.9 3833.19 6681.59 5565.71 2983.2 12941.6)
(8763.49 4397.06 6062.05 7016.78 4098.13 12941.6)
(7206.97 4430.59 5258.32 8573.36 5088.53 12941.6)
(5732.92 3929.74 4294.86 10047.5 5924.3 12941.7)
(4518.9 2954.91 3200.85 11261.5 6580.1 12941.5)
(3711.65 1623.65 2009.59 12068.8 7035.95 12941.6)
(3408.3 96.5857 757.298 12372.2 7278.02 12941.6)
(-1638.9 -2460.47 371.583 15467 409.326 -1147.41)
(-281.584 -5237.34 294.844 14109.7 467.685 -1147.4)
(1943.63 -7382.56 209.158 11884.4 511.763 -1147.44)
(4768.48 -8637.3 117.094 9059.81 540.336 -1147.3)
(7851.99 -8850.27 21.5001 5976.26 552.449 -1147.32)
(10822.3 -7995.76 -74.7744 3005.77 547.8 -1147.4)
(13321.4 -6176.85 -168.729 506.839 526.479 -1147.33)
(15047.5 -3612.92 -257.607 -1219.49 489.186 -1147.45)
(15792.7 -613.241 -338.583 -1964.61 437.02 -1147.4)
(15467 2460.47 -409.326 -1638.9 371.583 -1147.4)
(14109.7 5237.34 -467.685 -281.584 294.844 -1147.4)
(11884.4 7382.56 -511.763 1943.62 209.158 -1147.44)
(9059.81 8637.3 -540.336 4768.48 117.094 -1147.3)
(5976.26 8850.27 -552.449 7851.99 21.5002 -1147.32)
(3005.77 7995.76 -547.8 10822.3 -74.7743 -1147.4)
(506.839 6176.85 -526.479 13321.4 -168.729 -1147.33)
(-1219.49 3612.92 -489.186 15047.5 -257.607 -1147.45)
(-1964.61 613.241 -437.02 15792.7 -338.583 -1147.4)
(-1638.9 -2460.47 -371.583 15467 -409.326 -1147.4)
(-281.584 -5237.34 -294.844 14109.7 -467.685 -1147.4)
(1943.62 -7382.56 -209.158 11884.4 -511.763 -1147.44)
(4768.48 -8637.3 -117.094 9059.81 -540.336 -1147.3)
(7851.99 -8850.27 -21.5002 5976.26 -552.449 -1147.33)
(10822.3 -7995.76 74.7743 3005.77 -547.8 -1147.4)
(13321.4 -6176.85 168.729 506.839 -526.479 -1147.33)
(15047.5 -3612.92 257.607 -1219.49 -489.186 -1147.45)
(15792.7 -613.241 338.583 -1964.61 -437.02 -1147.4)
(15467 2460.47 409.326 -1638.9 -371.583 -1147.41)
(14109.7 5237.34 467.685 -281.584 -294.844 -1147.4)
(11884.4 7382.56 511.763 1943.62 -209.158 -1147.44)
(9059.81 8637.3 540.336 4768.48 -117.094 -1147.3)
(5976.26 8850.27 552.449 7851.99 -21.5002 -1147.33)
(3005.77 7995.76 547.8 10822.3 74.7743 -1147.4)
(506.838 6176.85 526.479 13321.4 168.729 -1147.33)
(-1219.49 3612.92 489.186 15047.5 257.607 -1147.45)
(-1964.61 613.241 437.02 15792.7 338.583 -1147.4)
(-10362.5 -2488.5 1962.22 3642.6 -11911.6 -2299.75)
(-9089.15 -4733.44 4000.83 2369.16 -11389.9 -2299.81)
(-7124.7 -6407.44 5917.87 404.749 -10522.1 -2299.75)
(-4706.28 -7308.64 7655.13 -2013.89 -9334.65 -2299.86)
(-2125.3 -7328.31 9159.76 -4594.68 -7863.53 -2299.8)
(306.732 -6464.06 10386.1 -7026.56 -6153.5 -2299.68)
(2296.43 -4820.14 11296.9 -9016.37 -4256.46 -2299.75)
(3603.95 -2594.87 11864.4 -10323.8 -2230.12 -2299.73)
(4071.43 -56.6285 12071.4 -10791.3 -136.042 -2299.71)
(3642.6 2488.5 11911.6 -10362.5 1962.22 -2299.75)
(2369.16 4733.44 11389.9 -9089.15 4000.83 -2299.81)
(404.75 6407.44 10522.1 -7124.7 5917.87 -2299.75)
(-2013.89 7308.64 9334.65 -4706.28 7655.13 -2299.86)
(-4594.68 7328.31 7863.53 -2125.3 9159.76 -2299.8)
(-7026.56 6464.06 6153.5 306.732 10386.1 -2299.68)
(-9016.37 4820.14 4256.46 2296.43 11296.9 -2299.75)
(-10323.8 2594.87 2230.12 3603.95 11864.4 -2299.73)
(-10791.3 56.6284 136.042 4071.43 12071.4 -2299.71)
(-10362.5 -2488.5 -1962.22 3642.6 11911.6 -2299.75)
(-9089.15 -4733.44 -4000.83 2369.16 11389.9 -2299.81)
(-7124.7 -6407.44 -5917.87 404.75 10522.1 -2299.75)
(-4706.28 -7308.64 -7655.13 -2013.89 9334.65 -2299.86)
(-2125.3 -7328.31 -9159.76 -4594.68 7863.53 -2299.8)
(306.732 -6464.06 -10386.1 -7026.56 6153.5 -2299.68)
(2296.43 -4820.14 -11296.9 -9016.37 4256.46 -2299.75)
(3603.95 -2594.87 -11864.4 -10323.8 2230.12 -2299.73)
(4071.43 -56.6284 -12071.4 -10791.3 136.042 -2299.71)
(3642.6 2488.5 -11911.6 -10362.5 -1962.22 -2299.75)
(2369.16 4733.44 -11389.9 -9089.15 -4000.83 -2299.81)
(404.75 6407.44 -10522.1 -7124.7 -5917.87 -2299.75)
(-2013.89 7308.64 -9334.65 -4706.28 -7655.13 -2299.86)
(-4594.68 7328.31 -7863.53 -2125.3 -9159.76 -2299.8)
(-7026.56 6464.06 -6153.5 306.732 -10386.1 -2299.68)
(-9016.37 4820.14 -4256.46 2296.43 -11296.9 -2299.75)
(-10323.8 2594.87 -2230.12 3603.95 -11864.4 -2299.73)
(-10791.3 56.6285 -136.042 4071.43 -12071.4 -2299.71)
(3852.35 -1459.63 -393.502 12111.3 7221.65 13562.2)
(4600.46 -2783.98 -1641.58 11362.8 7043.6 13562)
(5756.68 -3772.52 -2839.73 10206.9 6651.54 13562.1)
(7181.02 -4306.02 -3951.62 8782.3 6057.37 13562.1)
(8702.18 -4320.21 -4943.44 7261.39 5279.15 13562.1)
(10136.3 -3813.25 -5785.05 5827.27 4340.54 13562.2)
(11310.5 -2846.41 -6450.88 4652.85 3270.04 13562)
(12083.3 -1536.21 -6920.72 3880.13 2100.16 13562.1)
(12361.3 -40.7633 -7180.26 3602.02 866.505 13562)
(12111.3 1459.63 -7221.65 3852.35 -393.502 13562.2)
(11362.8 2783.98 -7043.6 4600.46 -1641.58 13562)
(10206.9 3772.52 -6651.54 5756.68 -2839.73 13562.1)
(8782.3 4306.02 -6057.37 7181.02 -3951.62 13562.1)
(7261.39 4320.21 -5279.15 8702.18 -4943.44 13562.1)
(5827.27 3813.25 -4340.54 10136.3 -5785.05 13562.2)
(4652.85 2846.41 -3270.04 11310.5 -6450.88 13562)
(3880.13 1536.21 -2100.16 12083.3 -6920.72 13562.1)
(3602.02 40.7633 -866.505 12361.3 -7180.26 13562)
(3852.35 -1459.63 393.502 12111.3 -7221.65 13562.2)
(4600.46 -2783.98 1641.58 11362.8 -7043.6 13562)
(5756.68 -3772.52 2839.73 10206.9 -6651.54 13562.1)
(7181.02 -4306.02 3951.62 8782.3 -6057.37 13562.1)
(8702.18 -4320.21 4943.44 7261.39 -5279.15 13562.1)
(10136.3 -3813.25 5785.05 5827.27 -4340.54 13562.2)
(11310.5 -2846.41 6450.88 4652.85 -3270.04 13562)
(12083.3 -1536.21 6920.72 3880.13 -2100.16 13562.1)
(12361.3 -40.7633 7180.26 3602.02 -866.505 13562)
(12111.3 1459.63 7221.65 3852.35 393.502 13562.2)
(11362.8 2783.98 7043.6 4600.46 1641.58 13562)
(10206.9 3772.52 6651.54 5756.68 2839.73 13562.1)
(8782.3 4306.02 6057.37 7181.02 3951.62 13562.1)
(7261.39 4320.21 5279.15 8702.18 4943.44 13562.1)
(5827.27 3813.25 4340.54 10136.3 5785.05 13562.2)
(4652.85 2846.41 3270.04 11310.5 6450.88 13562)
(3880.13 1536.21 2100.16 12083.3 6920.72 13562.1)
(3602.02 40.7633 866.505 12361.3 7180.26 13562)
(-937.889 -2708.93 459.888 15508.5 402.351 -447.772)
(484.668 -5358.03 383.024 14086.2 476.131 -447.62)
(2727.22 -7360.91 294.526 11843.3 535.408 -447.77)
(5519.78 -8475.93 197.079 9051.02 578.421 -447.645)
(8525.19 -8568.66 93.6828 6045.56 603.818 -447.698)
(11381 -7627.84 -12.6399 3189.55 610.941 -447.783)
(13743 -5767.03 -118.533 827.818 599.466 -447.665)
(15325.9 -3210.6 -220.813 -755.282 569.771 -447.759)
(15939.2 -266.964 -316.377 -1368.36 522.772 -447.653)
(15508.5 2708.93 -402.351 -937.889 459.888 -447.772)
(14086.2 5358.03 -476.114 484.669 383.03 -447.624)
(11843.3 7360.91 -535.408 2727.22 294.526 -447.769)
(9051.02 8475.93 -578.421 5519.78 197.079 -447.645)
(6045.56 8568.66 -603.818 8525.19 93.6829 -447.698)
(3189.55 7627.84 -610.941 11381 -12.6399 -447.783)
(827.818 5767.03 -599.466 13743 -118.533 -447.665)
(-755.282 3210.6 -569.771 15325.9 -220.812 -447.758)
(-1368.35 266.964 -522.772 15939.2 -316.377 -447.653)
(-937.889 -2708.93 -459.888 15508.5 -402.351 -447.772)
(484.669 -5358.03 -383.03 14086.2 -476.114 -447.624)
(2727.22 -7360.91 -294.526 11843.3 -535.408 -447.769)
(5519.78 -8475.93 -197.079 9051.02 -578.421 -447.645)
(8525.19 -8568.66 -93.6829 6045.56 -603.818 -447.698)
(11381 -7627.84 12.6399 3189.55 -610.941 -447.783)
(13743 -5767.03 118.533 827.818 -599.466 -447.665)
(15325.9 -3210.6 220.812 -755.282 -569.771 -447.759)
(15939.2 -266.964 316.377 -1368.36 -522.772 -447.653)
(15508.5 2708.93 402.351 -937.889 -459.888 -447.772)
(14086.2 5358.03 476.114 484.669 -383.03 -447.624)
(11843.3 7360.91 535.408 2727.22 -294.526 -447.769)
(9051.02 8475.93 578.421 5519.78 -197.079 -447.646)
(6045.56 8568.66 603.818 8525.19 -93.6829 -447.698)
(3189.55 7627.84 610.941 11381 12.6398 -447.783)
(827.818 5767.03 599.466 13743 118.533 -447.665)
(-755.282 3210.6 569.775 15325.9 220.83 -447.755)
(-1368.35 266.964 522.772 15939.2 316.377 -447.653)
(-10683.4 -3595.36 2841.87 2352.61 -12222.6 -2638.78)
(-9060.75 -5607.83 4921.12 729.773 -11543.4 -2638.9)
(-6847.38 -6943.91 6850.86 -1483.29 -10513.5 -2638.74)
(-4310.71 -7442.45 8572.45 -4020.05 -9164.17 -2638.75)
(-1756.49 -7043.33 10033.5 -6574.3 -7536.34 -2638.8)
(507.218 -5794.66 11189.8 -8837.98 -5679.54 -2638.76)
(2207.24 -3847.09 12006 -10538.2 -3650.17 -2638.87)
(3138.8 -1435.51 12457.5 -11469.5 -1509.91 -2638.75)
(3189.25 1149.23 12530.4 -11520 676.253 -2638.76)
(2352.61 3595.36 12222.6 -10683.4 2841.87 -2638.78)
(729.774 5607.83 11543.4 -9060.75 4921.12 -2638.9)
(-1483.29 6943.91 10513.5 -6847.38 6850.86 -2638.74)
(-4020.05 7442.45 9164.17 -4310.71 8572.45 -2638.75)
(-6574.3 7043.33 7536.34 -1756.49 10033.5 -2638.8)
(-8837.98 5794.66 5679.54 507.218 11189.8 -2638.76)
(-10538.2 3847.09 3650.17 2207.24 12006 -2638.87)
(-11469.5 1435.51 1509.91 3138.8 12457.5 -2638.75)
(-11520 -1149.23 -676.253 3189.25 12530.4 -2638.76)
(-10683.4 -3595.36 -2841.87 2352.61 12222.6 -2638.78)
(-9060.75 -5607.83 -4921.12 729.774 11543.4 -2638.9)
(-6847.38 -6943.91 -6850.86 -1483.29 10513.5 -2638.74)
(-4310.71 -7442.45 -8572.45 -4020.05 9164.17 -2638.75)
(-1756.49 -7043.33 -10033.5 -6574.3 7536.34 -2638.8)
(507.218 -5794.66 -11189.8 -8837.98 5679.54 -2638.76)
(2207.24 -3847.09 -12006 -10538.2 3650.17 -2638.87)
(3138.8 -1435.51 -12457.5 -11469.5 1509.91 -2638.75)
(3189.25 1149.23 -12530.4 -11520 -676.253 -2638.76)
(2352.61 3595.36 -12222.6 -10683.4 -2841.87 -2638.78)
(729.774 5607.83 -11543.4 -9060.75 -4921.12 -2638.9)
(-1483.29 6943.91 -10513.5 -6847.38 -6850.86 -2638.74)
(-4020.05 7442.45 -9164.17 -4310.71 -8572.45 -2638.75)
(-6574.3 7043.33 -7536.34 -1756.49 -10033.5 -2638.8)
(-8837.98 5794.66 -5679.54 507.218 -11189.8 -2638.76)
(-10538.2 3847.09 -3650.17 2207.24 -12006 -2638.87)
(-11469.5 1435.52 -1509.91 3138.8 -12457.5 -2638.75)
(-11520 -1149.23 676.253 3189.25 -12530.4 -2638.76)
(3702.78 -1274.57 -64.0945 11768 7154.88 13744)
(4381.96 -2576.96 -1305.57 11089 7035.05 13744)
(5465.53 -3568.53 -2507.38 10005.3 6701.46 13743.9)
(6822.98 -4129.65 -3632.98 8647.92 6164.25 13744)
(8290.4 -4192.69 -4648.17 7180.49 5439.76 13744)
(9690.95 -3750.02 -5522.17 5779.98 4549.96 13744)
(10855.6 -2855.08 -6228.36 4615.34 3521.94 13744)
(11643.9 -1615.71 -6745.33 3826.91 2386.85 13743.9)
(11960.7 -181.506 -7057.32 3510.05 1179.29 13744)
(11768 1274.57 -7154.88 3702.79 -64.0945 13744)
(11089 2576.96 -7035.05 4381.96 -1305.57 13744)
(10005.3 3568.53 -6701.46 5465.53 -2507.38 13743.9)
(8647.92 4129.65 -6164.25 6822.98 -3632.98 13744)
(7180.49 4192.69 -5439.76 8290.4 -4648.17 13744)
(5779.98 3750.02 -4549.96 9690.95 -5522.17 13744)
(4615.34 2855.08 -3521.94 10855.6 -6228.36 13744)
(3826.91 1615.71 -2386.85 11643.9 -6745.33 13743.9)
(3510.05 181.506 -1179.29 11960.7 -7057.32 13744)
(3702.79 -1274.57 64.0944 11768 -7154.88 13744)
(4381.96 -2576.96 1305.57 11089 -7035.05 13744)
(5465.53 -3568.53 2507.38 10005.3 -6701.46 13743.9)
(6822.98 -4129.65 3632.98 8647.92 -6164.25 13744)
(8290.4 -4192.69 4648.17 7180.49 -5439.76 13744)
(9690.95 -3750.02 5522.17 5779.98 -4549.96 13744)
(10855.6 -2855.08 6228.36 4615.34 -3521.94 13744)
(11643.9 -1615.71 6745.33 3826.91 -2386.85 13743.9)
(11960.7 -181.506 7057.32 3510.05 -1179.29 13744)
(11768 1274.57 7154.88 3702.79 64.0945 13744)
(11089 2576.96 7035.05 4381.96 1305.57 13744)
(10005.3 3568.53 6701.46 5465.53 2507.38 13743.9)
(8647.92 4129.65 6164.25 6822.98 3632.98 13744)
(7180.49 4192.69 5439.76 8290.4 4648.17 13744)
(5779.98 3750.02 4549.96 9690.95 5522.17 13744)
(4615.34 2855.08 3521.94 10855.6 6228.36 13744)
(3826.91 1615.71 2386.85 11643.9 6745.33 13743.9)
(3510.05 181.506 1179.29 11960.7 7057.32 13744)
(-859.642 -2914.76 545.701 14826.5 377.182 -464.522)
(610.203 -5421.47 471.912 13356.5 466.213 -464.58)
(2848.83 -7274.26 383.785 11117.9 541.076 -464.556)
(5586.17 -8249.67 283.984 8380.68 599.515 -464.508)
(8491.91 -8230.04 175.567 5474.83 639.722 -464.557)
(11215.8 -7217.76 61.8124 2750.98 660.491 -464.545)
(13429.2 -5334.9 -53.8003 537.599 661.183 -464.551)
(14865.1 -2808.58 -167.795 -898.319 641.796 -464.551)
(15350.4 56.5087 -276.692 -1383.55 602.907 -464.522)
(14826.5 2914.76 -377.183 -859.644 545.701 -464.523)
(13356.5 5421.47 -466.213 610.203 471.912 -464.58)
(11117.9 7274.27 -541.076 2848.83 383.785 -464.554)
(8380.68 8249.67 -599.515 5586.17 283.984 -464.508)
(5474.83 8230.04 -639.722 8491.91 175.567 -464.557)
(2750.98 7217.76 -660.491 11215.8 61.8124 -464.545)
(537.599 5334.9 -661.183 13429.2 -53.8002 -464.55)
(-898.319 2808.58 -641.796 14865.1 -167.795 -464.551)
(-1383.55 -56.5087 -602.907 15350.4 -276.692 -464.522)
(-859.644 -2914.76 -545.701 14826.5 -377.183 -464.523)
(610.203 -5421.47 -471.912 13356.5 -466.213 -464.58)
(2848.83 -7274.27 -383.785 11117.9 -541.076 -464.554)
(5586.17 -8249.67 -283.984 8380.68 -599.515 -464.508)
(8491.91 -8230.04 -175.567 5474.83 -639.722 -464.557)
(11215.8 -7217.76 -61.8124 2750.98 -660.491 -464.545)
(13429.2 -5334.9 53.8002 537.599 -661.183 -464.551)
(14865.1 -2808.58 167.795 -898.319 -641.796 -464.551)
(15350.4 56.5087 276.692 -1383.55 -602.907 -464.522)
(14826.5 2914.76 377.183 -859.644 -545.701 -464.523)
(13356.5 5421.47 466.213 610.203 -471.912 -464.58)
(11117.9 7274.27 541.076 2848.83 -383.785 -464.554)
(8380.68 8249.67 599.515 5586.17 -283.984 -464.508)
(5474.83 8230.04 639.722 8491.91 -175.567 -464.557)
(2750.98 7217.76 660.491 11215.8 -61.8125 -464.545)
(537.6 5334.9 661.183 13429.2 53.8001 -464.549)
(-898.319 2808.58 641.796 14865.1 167.795 -464.551)
(-1383.56 -56.5087 602.907 15350.4 276.692 -464.523)
(-11583.1 -4668.71 3783.62 74.8474 -12431.9 -3810.64)
(-9634.78 -6380.78 5884.92 -1873.49 -11586 -3810.7)
(-7218.33 -7323.23 7807.41 -4289.84 -10388.1 -3810.63)
(-4625.4 -7382.39 9492.69 -6882.92 -8874.55 -3810.68)
(-2168.59 -6551.13 10889.5 -9339.78 -7091.34 -3810.74)
(-144.101 -4929.69 11955.5 -11364 -5092.67 -3810.6)
(1203.51 -2713.67 12658.2 -12711.9 -2939.25 -3810.73)
(1712.15 -170.348 12976.3 -13220.3 -696.53 -3810.66)
(1320.11 2393.54 12900.1 -12828.3 1567.36 -3810.65)
(74.8468 4668.71 12431.9 -11583.1 3783.62 -3810.64)
(-1873.49 6380.78 11586 -9634.78 5884.92 -3810.7)
(-4289.84 7323.23 10388.1 -7218.33 7807.41 -3810.63)
(-6882.92 7382.39 8874.55 -4625.4 9492.69 -3810.68)
(-9339.78 6551.13 7091.34 -2168.59 10889.5 -3810.74)
(-11364 4929.69 5092.67 -144.101 11955.5 -3810.6)
(-12711.9 2713.67 2939.25 1203.51 12658.2 -3810.73)
(-13220.3 170.348 696.53 1712.15 12976.3 -3810.66)
(-12828.3 -2393.54 -1567.36 1320.11 12900.1 -3810.65)
(-11583.1 -4668.71 -3783.62 74.8469 12431.9 -3810.64)
(-9634.78 -6380.78 -5884.92 -1873.49 11586 -3810.7)
(-7218.33 -7323.23 -7807.41 -4289.84 10388.1 -3810.63)
(-4625.4 -7382.39 -9492.69 -6882.92 8874.55 -3810.68)
(-2168.59 -6551.13 -10889.5 -9339.78 7091.34 -3810.75)
(-144.101 -4929.69 -11955.5 -11364 5092.67 -3810.6)
(1203.51 -2713.67 -12658.2 -12711.9 2939.25 -3810.73)
(1712.15 -170.348 -12976.3 -13220.3 696.53 -3810.66)
(1320.11 2393.54 -12900.1 -12828.3 -1567.36 -3810.65)
(74.847 4668.71 -12431.9 -11583.1 -3783.62 -3810.64)
(-1873.49 6380.78 -11586 -9634.78 -5884.92 -3810.7)
(-4289.84 7323.23 -10388.1 -7218.33 -7807.41 -3810.63)
(-6882.92 7382.39 -8874.55 -4625.4 -9492.69 -3810.68)
(-9339.78 6551.13 -7091.34 -2168.59 -10889.5 -3810.75)
(-11364 4929.69 -5092.67 -144.101 -11955.5 -3810.6)
(-12711.9 2713.67 -2939.25 1203.51 -12658.2 -3810.73)
(-13220.3 170.348 -696.53 1712.15 -12976.3 -3810.66)
(-12828.3 -2393.54 1567.36 1320.11 -12900.1 -3810.65)
(3605.48 -1021.53 316.446 11332 7090.96 13893.9)
(4187.94 -2281.25 -919.699 10749.8 7038.19 13894)
(5165.88 -3265.82 -2127.9 9771.53 6771.56 13893.9)
(6421.91 -3856.5 -3271.47 8515.81 6299.16 13894)
(7803.93 -3981.97 -4315.59 7133.58 5635.39 13894)
(9145.63 -3627.23 -5228.6 5791.88 4800.39 13893.9)
(10285.2 -2834.95 -5982.73 4652.59 3819.54 13894)
(11084.8 -1700.73 -6555.1 3852.59 2722.6 13893.8)
(11448.5 -361.381 -6928.29 3489.13 1542.95 13894)
(11332 1021.53 -7090.96 3605.48 316.446 13893.9)
(10749.8 2281.25 -7038.19 4187.94 -919.699 13894)
(9771.53 3265.82 -6771.56 5165.88 -2127.9 13893.9)
(8515.81 3856.5 -6299.16 6421.91 -3271.47 13894)
(7133.58 3981.97 -5635.39 7803.93 -4315.59 13894)
(5791.88 3627.23 -4800.39 9145.63 -5228.6 13893.9)
(4652.59 2834.95 -3819.54 10285.2 -5982.73 13894)
(3852.59 1700.73 -2722.6 11084.8 -6555.1 13893.8)
(3489.13 361.381 -1542.96 11448.5 -6928.29 13894)
(3605.48 -1021.53 -316.446 11332 -7090.96 13893.9)
(4187.94 -2281.25 919.699 10749.8 -7038.19 13894)
(5165.88 -3265.82 2127.9 9771.53 -6771.56 13893.9)
(6421.91 -3856.5 3271.47 8515.82 -6299.16 13894)
(7803.93 -3981.97 4315.59 7133.58 -5635.39 13894)
(9145.63 -3627.23 5228.6 5791.88 -4800.39 13893.9)
(10285.2 -2834.95 5982.73 4652.59 -3819.54 13894)
(11084.8 -1700.73 6555.1 3852.59 -2722.6 13893.8)
(11448.5 -361.381 6928.29 3489.13 -1542.96 13894)
(11332 1021.53 7090.96 3605.48 -316.446 13893.9)
(10749.8 2281.25 7038.19 4187.94 919.699 13894)
(9771.53 3265.82 6771.56 5165.88 2127.9 13893.9)
(8515.81 3856.5 6299.16 6421.91 3271.47 13894)
(7133.58 3981.97 5635.39 7803.93 4315.59 13894)
(5791.88 3627.23 4800.39 9145.63 5228.6 13893.9)
(4652.59 2834.95 3819.54 10285.2 5982.73 13894)
(3852.59 1700.73 2722.6 11084.8 6555.1 13893.8)
(3489.13 361.381 1542.95 11448.5 6928.29 13894)
(-680.548 -3046.89 610.806 14088.4 421.615 -457.201)
(806.708 -5388.78 528.311 12600.8 521.275 -457.383)
(3005.63 -7080.71 429.774 10402.3 605.081 -457.179)
(5650.29 -7918.61 318.182 7757.35 670.505 -457.325)
(8422.17 -7801.37 196.88 4985.57 715.607 -457.258)
(10986.8 -6743.21 69.6723 2421.06 738.897 -457.193)
(13034.7 -4871.7 -59.7124 372.873 739.775 -457.332)
(14319.3 -2412.6 -187.282 -911.398 718.172 -457.189)
(14685.1 337.515 -309.145 -1277.39 674.739 -457.284)
(14088.4 3046.89 -421.616 -680.548 610.806 -457.201)
(12600.8 5388.78 -521.275 806.71 528.311 -457.382)
(10402.3 7080.71 -605.081 3005.63 429.774 -457.177)
(7757.35 7918.61 -670.505 5650.29 318.182 -457.326)
(4985.57 7801.37 -715.607 8422.17 196.88 -457.258)
(2421.06 6743.21 -738.897 10986.8 69.6724 -457.193)
(372.873 4871.7 -739.775 13034.7 -59.7123 -457.332)
(-911.398 2412.6 -718.172 14319.3 -187.282 -457.189)
(-1277.39 -337.515 -674.739 14685.1 -309.145 -457.284)
(-680.548 -3046.89 -610.806 14088.4 -421.616 -457.201)
(806.71 -5388.78 -528.312 12600.8 -521.275 -457.382)
(3005.63 -7080.71 -429.774 10402.3 -605.081 -457.177)
(5650.29 -7918.61 -318.182 7757.35 -670.505 -457.326)
(8422.17 -7801.37 -196.88 4985.57 -715.607 -457.258)
(10986.8 -6743.21 -69.6724 2421.06 -738.897 -457.193)
(13034.7 -4871.7 59.7123 372.873 -739.775 -457.332)
(14319.3 -2412.6 187.282 -911.398 -718.172 -457.189)
(14685.1 337.515 309.145 -1277.39 -674.739 -457.284)
(14088.4 3046.89 421.616 -680.548 -610.806 -457.201)
(12600.8 5388.78 521.275 806.71 -528.311 -457.382)
(10402.3 7080.71 605.081 3005.63 -429.774 -457.178)
(7757.35 7918.61 670.505 5650.29 -318.182 -457.327)
(4985.57 7801.37 715.607 8422.17 -196.88 -457.259)
(2421.06 6743.21 738.897 10986.8 -69.6724 -457.193)
(372.873 4871.7 739.775 13034.7 59.7123 -457.332)
(-911.398 2412.6 718.172 14319.3 187.282 -457.189)
(-1277.39 -337.515 674.739 14685.1 309.145 -457.284)
(-11904 -5600.7 4715.9 -2038.17 -12452.4 -4698.35)
(-9690.82 -6950.11 6806.62 -4251.14 -11444.3 -4698.2)
(-7149.77 -7461.21 8690.49 -6792.29 -10088.5 -4698.31)
(-4587.13 -7072.37 10310.3 -9355 -8426.14 -4698.3)
(-2311.93 -5830.51 11616.9 -11630 -6507.77 -4698.23)
(-598.857 -3885.4 12570.4 -13343.3 -4391.66 -4698.31)
(345.822 -1471.66 13142.1 -14287.8 -2142.1 -4698.26)
(407.771 1119.59 13314.4 -14350 172.533 -4698.34)
(-420.012 3575.82 13082.1 -13522 2481.95 -4698.26)
(-2038.17 5600.7 12452.4 -11904 4715.9 -4698.35)
(-4251.14 6950.11 11444.3 -9690.82 6806.62 -4698.2)
(-6792.3 7461.22 10088.5 -7149.76 8690.5 -4698.29)
(-9355 7072.37 8426.14 -4587.13 10310.3 -4698.3)
(-11630 5830.51 6507.77 -2311.93 11616.9 -4698.23)
(-13343.3 3885.4 4391.66 -598.857 12570.4 -4698.31)
(-14287.8 1471.66 2142.1 345.822 13142.1 -4698.26)
(-14350 -1119.59 -172.533 407.772 13314.4 -4698.34)
(-13522 -3575.82 -2481.95 -420.011 13082.1 -4698.26)
(-11904 -5600.7 -4715.9 -2038.17 12452.4 -4698.35)
(-9690.82 -6950.11 -6806.62 -4251.14 11444.3 -4698.2)
(-7149.76 -7461.22 -8690.5 -6792.3 10088.5 -4698.29)
(-4587.13 -7072.37 -10310.3 -9355 8426.14 -4698.3)
(-2311.93 -5830.51 -11616.9 -11630 6507.77 -4698.23)
(-598.857 -3885.4 -12570.4 -13343.3 4391.66 -4698.31)
(345.822 -1471.66 -13142.1 -14287.8 2142.1 -4698.26)
(407.772 1119.59 -13314.4 -14350 -172.533 -4698.34)
(-420.011 3575.82 -13082.1 -13522 -2481.95 -4698.26)
(-2038.17 5600.7 -12452.4 -11904 -4715.9 -4698.35)
(-4251.14 6950.11 -11444.3 -9690.82 -6806.62 -4698.2)
(-6792.3 7461.22 -10088.5 -7149.76 -8690.5 -4698.29)
(-9355 7072.37 -8426.14 -4587.13 -10310.3 -4698.3)
(-11630 5830.51 -6507.77 -2311.93 -11616.9 -4698.23)
(-13343.3 3885.4 -4391.66 -598.857 -12570.4 -4698.31)
(-14287.8 1471.66 -2142.1 345.823 -13142.1 -4698.26)
(-14350 -1119.59 172.533 407.772 -13314.4 -4698.34)
(-13522 -3575.82 2481.95 -420.011 -13082.1 -4698.26)
(3350.13 -674.604 736.237 10584.8 7047.67 13751.6)
(3799.14 -1871.11 -498.756 10136 7068.44 13751.8)
(4630.03 -2841.92 -1718.59 9304.82 6874.46 13751.7)
(5743.09 -3469.99 -2886.23 8191.98 6471.58 13751.7)
(7003.69 -3679.5 -3966.17 6931.25 5872.07 13751.7)
(8259.96 -3445.22 -4925.59 5674.95 5094.14 13751.6)
(9360.35 -2795.38 -5735.34 4574.62 4161.45 13751.7)
(10172 -1808.4 -6370.83 3762.75 3102.3 13751.6)
(10597.4 -603.276 -6812.75 3337.65 1948.87 13751.7)
(10584.8 674.604 -7047.67 3350.13 736.237 13751.6)
(10136 1871.11 -7068.44 3799.14 -498.756 13751.8)
(9304.82 2841.92 -6874.46 4630.03 -1718.59 13751.7)
(8191.98 3469.99 -6471.58 5743.09 -2886.23 13751.7)
(6931.25 3679.5 -5872.07 7003.69 -3966.17 13751.7)
(5674.95 3445.22 -5094.14 8259.96 -4925.59 13751.6)
(4574.62 2795.38 -4161.45 9360.35 -5735.34 13751.7)
(3762.75 1808.4 -3102.3 10172 -6370.83 13751.6)
(3337.65 603.276 -1948.87 10597.4 -6812.75 13751.7)
(3350.13 -674.604 -736.238 10584.8 -7047.67 13751.6)
(3799.14 -1871.11 498.756 10136 -7068.44 13751.8)
(4630.03 -2841.92 1718.59 9304.82 -6874.46 13751.7)
(5743.09 -3469.99 2886.23 8191.98 -6471.58 13751.7)
(7003.69 -3679.5 3966.17 6931.25 -5872.07 13751.7)
(8259.96 -3445.22 4925.59 5674.95 -5094.14 13751.6)