/*--------------------------------*- C++ -*----------------------------------*\
| =========                 |                                                 |
| \\      /  F ield         | OpenFOAM: The Open Source CFD Toolbox           |
|  \\    /   O peration     | Version:  2312                                  |
|   \\  /    A nd           | Website:  www.openfoam.com                      |
|    \\/     M anipulation  |                                                 |
\*---------------------------------------------------------------------------*/
FoamFile
{
    version     2.0;
    format      ascii;
    arch        "LSB;label=32;scalar=64";
    class       volVectorField;
    location    "0.3";
    object      U;
}
// * * * * * * * * * * * * * * * * * * * * * * * * * * * * * * * * * * * * * //

dimensions      [0 1 -1 0 0 0 0];

internalField   nonuniform List<vector> 
1620
(
(0.000719696 -8.14996e-05 0.000179313)
(0.000610199 -0.000143885 -3.05268e-05)
(0.000496544 -0.000237053 -0.000175488)
(0.000398181 -0.000291702 -0.00024181)
(0.000322101 -0.000293565 -0.000256146)
(0.000267782 -0.000259044 -0.000242678)
(0.000231302 -0.000208151 -0.000214018)
(0.000206129 -0.000153152 -0.00017699)
(0.000183574 -9.84335e-05 -0.000136573)
(0.000154087 -4.32013e-05 -9.58896e-05)
(0.000108299 1.66522e-05 -5.47574e-05)
(3.69576e-05 8.66613e-05 -8.44187e-06)
(-6.93076e-05 0.000169126 5.25629e-05)
(-0.000217212 0.000254542 0.000139652)
(-0.00040165 0.000314499 0.000255733)
(-0.000593311 0.000310134 0.000375472)
(-0.000738136 0.000227112 0.00043312)
(-0.000780966 0.000119281 0.00036262)
(-0.000719696 8.14996e-05 0.000179313)
(-0.000610199 0.000143885 -3.05268e-05)
(-0.000496544 0.000237053 -0.000175488)
(-0.000398181 0.000291702 -0.00024181)
(-0.000322101 0.000293565 -0.000256146)
(-0.000267782 0.000259044 -0.000242678)
(-0.000231302 0.000208151 -0.000214018)
(-0.000206129 0.000153152 -0.00017699)
(-0.000183574 9.84335e-05 -0.000136573)
(-0.000154087 4.32013e-05 -9.58896e-05)
(-0.000108299 -1.66522e-05 -5.47574e-05)
(-3.69576e-05 -8.66613e-05 -8.44187e-06)
(6.93076e-05 -0.000169126 5.25629e-05)
(0.000217212 -0.000254542 0.000139652)
(0.00040165 -0.000314499 0.000255733)
(0.000593311 -0.000310134 0.000375472)
(0.000738136 -0.000227112 0.00043312)
(0.000780966 -0.000119281 0.00036262)
(0.000593372 -0.000229436 0.000118148)
(0.0006023 -0.000258091 3.25652e-05)
(0.000589519 -0.000256918 -3.95878e-05)
(0.00055409 -0.000213289 -9.39196e-05)
(0.000498345 -0.000142201 -0.000135571)
(0.000430267 -6.54496e-05 -0.000164666)
(0.000359357 2.5742e-06 -0.000178391)
(0.000291089 5.73674e-05 -0.000175473)
(0.000225023 0.00010043 -0.000157133)
(0.000156602 0.000134971 -0.00012581)
(8.03028e-05 0.000163657 -8.38442e-05)
(-7.67801e-06 0.000188081 -3.29267e-05)
(-0.000107955 0.000208589 2.56942e-05)
(-0.00021745 0.00022355 8.98756e-05)
(-0.000329105 0.000229084 0.000153444)
(-0.000431913 0.000222264 0.000202483)
(-0.000513132 0.000208851 0.000217582)
(-0.000565495 0.00020829 0.000187828)
(-0.000593372 0.000229436 0.000118148)
(-0.0006023 0.000258091 3.25652e-05)
(-0.000589519 0.000256918 -3.95878e-05)
(-0.00055409 0.000213289 -9.39196e-05)
(-0.000498345 0.000142201 -0.000135571)
(-0.000430268 6.54496e-05 -0.000164666)
(-0.000359357 -2.57419e-06 -0.000178391)
(-0.000291089 -5.73674e-05 -0.000175473)
(-0.000225023 -0.00010043 -0.000157133)
(-0.000156602 -0.000134971 -0.00012581)
(-8.03028e-05 -0.000163657 -8.38442e-05)
(7.67799e-06 -0.000188081 -3.29267e-05)
(0.000107955 -0.000208589 2.56942e-05)
(0.00021745 -0.000223549 8.98756e-05)
(0.000329105 -0.000229084 0.000153444)
(0.000431913 -0.000222264 0.000202483)
(0.000513132 -0.000208851 0.000217582)
(0.000565495 -0.00020829 0.000187828)
(0.000416133 -0.000312142 5.1423e-05)
(0.000502705 -0.000333554 4.20901e-05)
(0.000573515 -0.00027868 2.15956e-05)
(0.000609647 -0.000169681 -1.98392e-05)
(0.00060181 -4.16101e-05 -7.70739e-05)
(0.00055443 7.78537e-05 -0.000134352)
(0.000479792 0.000173772 -0.000176342)
(0.000389905 0.000241311 -0.000193946)
(0.000292577 0.00028082 -0.000184524)
(0.00019194 0.000294032 -0.000150307)
(9.10407e-05 0.000282658 -9.72915e-05)
(-5.7623e-06 0.000249318 -3.47521e-05)
(-9.21233e-05 0.000200012 2.55868e-05)
(-0.000161487 0.000146697 7.15949e-05)
(-0.000210878 0.000107858 9.42178e-05)
(-0.000245141 0.00010477 9.2237e-05)
(-0.00027943 0.000151063 7.62771e-05)
(-0.000334892 0.00023532 6.16588e-05)
(-0.000416133 0.000312142 5.1423e-05)
(-0.000502705 0.000333554 4.20902e-05)
(-0.000573515 0.00027868 2.15956e-05)
(-0.000609647 0.000169681 -1.98392e-05)
(-0.00060181 4.16101e-05 -7.70739e-05)
(-0.00055443 -7.78537e-05 -0.000134352)
(-0.000479792 -0.000173772 -0.000176342)
(-0.000389905 -0.000241311 -0.000193946)
(-0.000292577 -0.00028082 -0.000184524)
(-0.00019194 -0.000294032 -0.000150307)
(-9.10408e-05 -0.000282658 -9.72916e-05)
(5.76229e-06 -0.000249317 -3.47521e-05)
(9.21233e-05 -0.000200012 2.55868e-05)
(0.000161487 -0.000146697 7.15949e-05)
(0.000210878 -0.000107858 9.42177e-05)
(0.000245141 -0.00010477 9.2237e-05)
(0.00027943 -0.000151063 7.62771e-05)
(0.000334892 -0.00023532 6.16588e-05)
(0.00190034 -0.000538439 0.000601876)
(0.00175211 -0.000698779 1.79257e-05)
(0.00154729 -0.000816707 -0.000436451)
(0.00133305 -0.000795065 -0.000713053)
(0.00112698 -0.000655487 -0.000844969)
(0.000937359 -0.000465664 -0.000872812)
(0.000772067 -0.000280855 -0.000828875)
(0.000631626 -0.000125891 -0.000739829)
(0.000505315 -2.547e-06 -0.000626596)
(0.000374292 9.93601e-05 -0.000500682)
(0.000216753 0.000195538 -0.000360893)
(1.13499e-05 0.000303363 -0.000192695)
(-0.000260709 0.000434644 2.81688e-05)
(-0.000610055 0.000581356 0.000323935)
(-0.00102402 0.000701711 0.000688797)
(-0.00144636 0.000730885 0.00104924)
(-0.00177898 0.000640947 0.00124202)
(-0.00193352 0.000519154 0.00108627)
(-0.00190034 0.000538439 0.000601876)
(-0.00175211 0.000698779 1.79257e-05)
(-0.00154729 0.000816707 -0.000436451)
(-0.00133305 0.000795065 -0.000713053)
(-0.00112698 0.000655487 -0.000844969)
(-0.00093736 0.000465664 -0.000872812)
(-0.000772067 0.000280855 -0.000828875)
(-0.000631626 0.000125891 -0.000739829)
(-0.000505315 2.54704e-06 -0.000626596)
(-0.000374292 -9.936e-05 -0.000500682)
(-0.000216753 -0.000195538 -0.000360893)
(-1.13499e-05 -0.000303363 -0.000192695)
(0.000260709 -0.000434643 2.81688e-05)
(0.000610055 -0.000581356 0.000323935)
(0.00102402 -0.000701711 0.000688797)
(0.00144636 -0.000730885 0.00104924)
(0.00177898 -0.000640947 0.00124202)
(0.00193352 -0.000519154 0.00108627)
(0.00168331 -0.000774996 0.000544449)
(0.00170502 -0.000860588 0.000234299)
(0.00166983 -0.000833903 -4.67622e-05)
(0.00157552 -0.000685645 -0.000277436)
(0.00142583 -0.00046391 -0.000451683)
(0.00124072 -0.000229316 -0.000563207)
(0.00104373 -2.13384e-05 -0.000609667)
(0.000848016 0.00014618 -0.000595599)
(0.000652416 0.000274657 -0.000529569)
(0.000446349 0.000370603 -0.000419598)
(0.000217531 0.000440871 -0.000270627)
(-4.15338e-05 0.000492176 -8.48227e-05)
(-0.000330041 0.000531383 0.000135687)
(-0.000637954 0.000563615 0.000383288)
(-0.000945955 0.00058911 0.000635091)
(-0.00122663 0.0006057 0.000840458)
(-0.00145179 0.000622401 0.000919701)
(-0.00160239 0.000675013 0.000807319)
(-0.00168331 0.000774996 0.000544449)
(-0.00170502 0.000860588 0.000234299)
(-0.00166983 0.000833903 -4.67621e-05)
(-0.00157552 0.000685645 -0.000277436)
(-0.00142583 0.00046391 -0.000451683)
(-0.00124072 0.000229316 -0.000563207)
(-0.00104374 2.13384e-05 -0.000609667)
(-0.000848016 -0.00014618 -0.000595599)
(-0.000652416 -0.000274657 -0.000529569)
(-0.000446349 -0.000370603 -0.000419598)
(-0.000217531 -0.000440871 -0.000270627)
(4.15338e-05 -0.000492176 -8.48228e-05)
(0.000330041 -0.000531383 0.000135687)
(0.000637953 -0.000563615 0.000383288)
(0.000945955 -0.00058911 0.000635091)
(0.00122663 -0.0006057 0.000840458)
(0.00145179 -0.000622401 0.000919701)
(0.00160239 -0.000675013 0.000807319)
(0.00134138 -0.000935514 0.000456681)
(0.00151232 -0.000985525 0.000368086)
(0.00164259 -0.000866526 0.000242836)
(0.00168248 -0.000627696 6.51486e-05)
(0.00162079 -0.000339538 -0.000134496)
(0.0014786 -5.87187e-05 -0.000311329)
(0.00128482 0.000183937 -0.000430682)
(0.0010597 0.000377303 -0.000474868)
(0.000811512 0.000519085 -0.000439905)
(0.000541508 0.000608386 -0.000330902)
(0.000251667 0.000643694 -0.000160268)
(-4.85716e-05 0.000625867 5.15973e-05)
(-0.000339718 0.000564699 0.000275794)
(-0.00059649 0.000485635 0.00047734)
(-0.000799009 0.00043029 0.000621357)
(-0.000945673 0.00044485 0.000681472)
(-0.00105909 0.000557045 0.000651025)
(-0.00117972 0.000754143 0.000558902)
(-0.00134138 0.000935515 0.000456681)
(-0.00151232 0.000985525 0.000368086)
(-0.00164259 0.000866526 0.000242836)
(-0.00168248 0.000627696 6.51486e-05)
(-0.00162079 0.000339538 -0.000134496)
(-0.0014786 5.87188e-05 -0.000311329)
(-0.00128482 -0.000183937 -0.000430682)
(-0.0010597 -0.000377303 -0.000474868)
(-0.000811513 -0.000519085 -0.000439905)
(-0.000541508 -0.000608386 -0.000330902)
(-0.000251667 -0.000643694 -0.000160268)
(4.85715e-05 -0.000625867 5.15972e-05)
(0.000339718 -0.000564699 0.000275794)
(0.00059649 -0.000485635 0.00047734)
(0.000799009 -0.00043029 0.000621357)
(0.000945673 -0.00044485 0.000681472)
(0.00105909 -0.000557045 0.000651025)
(0.00117972 -0.000754143 0.000558902)
(0.00290647 -0.00128088 0.00129962)
(0.00273956 -0.00143833 0.000311676)
(0.00246099 -0.0014662 -0.000541957)
(0.00214646 -0.00131254 -0.00113785)
(0.00182585 -0.00102247 -0.00147856)
(0.00151626 -0.000688147 -0.0016112)
(0.00123373 -0.000382411 -0.00159356)
(0.000984066 -0.000136419 -0.00147928)
(0.000756448 5.07256e-05 -0.00130774)
(0.00052659 0.000196947 -0.00109671)
(0.000264239 0.000327606 -0.000839404)
(-6.01052e-05 0.000469611 -0.000507513)
(-0.000470153 0.000642756 -6.25716e-05)
(-0.000976356 0.000844091 0.00051993)
(-0.0015598 0.00103386 0.00121013)
(-0.0021519 0.00114979 0.00187458)
(-0.00263546 0.00116909 0.00225687)
(-0.00289267 0.00117664 0.00207516)
(-0.00290647 0.00128088 0.00129962)
(-0.00273956 0.00143833 0.000311676)
(-0.00246099 0.0014662 -0.000541957)
(-0.00214646 0.00131254 -0.00113785)
(-0.00182585 0.00102247 -0.00147856)
(-0.00151626 0.000688147 -0.0016112)
(-0.00123373 0.000382411 -0.00159356)
(-0.000984066 0.000136419 -0.00147928)
(-0.000756448 -5.07255e-05 -0.00130774)
(-0.00052659 -0.000196947 -0.00109671)
(-0.000264239 -0.000327606 -0.000839404)
(6.01051e-05 -0.000469611 -0.000507513)
(0.000470153 -0.000642756 -6.25716e-05)
(0.000976356 -0.000844091 0.00051993)
(0.0015598 -0.00103386 0.00121013)
(0.0021519 -0.00114979 0.00187458)
(0.00263546 -0.00116909 0.00225687)
(0.00289267 -0.00117664 0.00207516)
(0.00261486 -0.0013836 0.00125541)
(0.00265363 -0.00146758 0.00066555)
(0.00259177 -0.00138529 8.48504e-05)
(0.00243604 -0.00114063 -0.000399219)
(0.00220234 -0.000796953 -0.000756076)
(0.00192106 -0.000434678 -0.000977508)
(0.00162238 -0.000107778 -0.00107072)
(0.0013214 0.000162293 -0.00105289)
(0.00101529 0.000374296 -0.000942149)
(0.000689714 0.000535195 -0.000750221)
(0.000328554 0.000654187 -0.000480566)
(-7.72806e-05 0.000741622 -0.000132228)
(-0.000524466 0.000809264 0.000291686)
(-0.00099585 0.000868527 0.00077183)
(-0.00146163 0.000927508 0.00125786)
(-0.00188339 0.00099359 0.00165687)
(-0.00222576 0.00108316 0.00184166)
(-0.00246971 0.0012183 0.00170024)
(-0.00261486 0.0013836 0.00125541)
(-0.00265363 0.00146758 0.00066555)
(-0.00259177 0.00138529 8.48504e-05)
(-0.00243604 0.00114063 -0.000399219)
(-0.00220234 0.000796953 -0.000756076)
(-0.00192106 0.000434678 -0.000977508)
(-0.00162238 0.000107778 -0.00107072)
(-0.0013214 -0.000162293 -0.00105289)
(-0.00101529 -0.000374296 -0.000942149)
(-0.000689714 -0.000535195 -0.000750221)
(-0.000328554 -0.000654187 -0.000480566)
(7.72805e-05 -0.000741622 -0.000132229)
(0.000524466 -0.000809264 0.000291686)
(0.00099585 -0.000868526 0.00077183)
(0.00146163 -0.000927508 0.00125786)
(0.00188339 -0.00099359 0.00165687)
(0.00222576 -0.00108316 0.00184166)
(0.00246971 -0.0012183 0.00170024)
(0.00214458 -0.00144331 0.00113205)
(0.0023753 -0.00150501 0.000897776)
(0.00253116 -0.00136149 0.000594481)
(0.002553 -0.00105537 0.000241622)
(0.00244013 -0.000669114 -0.000109328)
(0.00222618 -0.00027586 -0.000399311)
(0.0019468 8.19171e-05 -0.000585371)
(0.00162256 0.000385448 -0.000647265)
(0.00125905 0.000626239 -0.000581422)
(0.000854983 0.000798035 -0.000394269)
(0.000412099 0.000895313 -0.00010116)
(-5.62756e-05 0.000917356 0.00026976)
(-0.000521479 0.000876755 0.000673483)
(-0.000944959 0.000808038 0.00104994)
(-0.00129386 0.000766748 0.00133556)
(-0.00155832 0.000809887 0.00148219)
(-0.00175822 0.000961978 0.00147316)
(-0.0019338 0.00120721 0.00133004)
(-0.00214459 0.00144331 0.00113205)
(-0.0023753 0.00150501 0.000897776)
(-0.00253116 0.00136149 0.000594481)
(-0.002553 0.00105537 0.000241622)
(-0.00244013 0.000669114 -0.000109328)
(-0.00222618 0.00027586 -0.000399311)
(-0.0019468 -8.1917e-05 -0.000585371)
(-0.00162256 -0.000385448 -0.000647265)
(-0.00125905 -0.000626239 -0.000581422)
(-0.000854983 -0.000798035 -0.00039427)
(-0.000412099 -0.000895313 -0.00010116)
(5.62755e-05 -0.000917356 0.00026976)
(0.000521479 -0.000876755 0.000673483)
(0.000944959 -0.000808038 0.00104994)
(0.00129386 -0.000766748 0.00133556)
(0.00155832 -0.000809887 0.00148219)
(0.00175822 -0.000961978 0.00147316)
(0.0019338 -0.00120721 0.00133004)
(0.00364827 -0.00215992 0.00209959)
(0.00347324 -0.00223043 0.000826203)
(0.00314377 -0.00213263 -0.000387953)
(0.00275078 -0.00185545 -0.00132001)
(0.00234526 -0.00145002 -0.00190299)
(0.00195241 -0.00100802 -0.00217643)
(0.00158668 -0.000605312 -0.00222319)
(0.00125198 -0.000277109 -0.00212312)
(0.00093729 -2.39265e-05 -0.00193004)
(0.00061782 0.00017442 -0.00166317)
(0.000261544 0.000347903 -0.00130685)
(-0.000162752 0.000528501 -0.000819143)
(-0.000678289 0.000740663 -0.000153369)
(-0.00129137 0.000987696 0.000704108)
(-0.00197629 0.00124419 0.00168494)
(-0.00266059 0.00147696 0.00260024)
(-0.00323176 0.0016943 0.00314842)
(-0.00357535 0.00194676 0.00300942)
(-0.00364827 0.00215992 0.00209959)
(-0.00347324 0.00223043 0.000826203)
(-0.00314377 0.00213263 -0.000387953)
(-0.00275078 0.00185545 -0.00132001)
(-0.00234526 0.00145002 -0.00190299)
(-0.00195241 0.00100802 -0.00217643)
(-0.00158668 0.000605312 -0.00222319)
(-0.00125198 0.000277109 -0.00212312)
(-0.000937291 2.39266e-05 -0.00193004)
(-0.00061782 -0.00017442 -0.00166317)
(-0.000261544 -0.000347903 -0.00130685)
(0.000162752 -0.000528501 -0.000819143)
(0.000678289 -0.000740663 -0.000153369)
(0.00129137 -0.000987696 0.000704108)
(0.00197629 -0.00124419 0.00168494)
(0.00266059 -0.00147696 0.00260024)
(0.00323176 -0.0016943 0.00314842)
(0.00357535 -0.00194676 0.00300942)
(0.0033416 -0.0019826 0.00203159)
(0.00337043 -0.00204341 0.00121842)
(0.00326084 -0.0019024 0.000372351)
(0.00303959 -0.00158748 -0.000357539)
(0.00273741 -0.00116704 -0.000900684)
(0.00238985 -0.000722401 -0.00124025)
(0.00202469 -0.000310948 -0.00139329)
(0.00165273 4.09304e-05 -0.00138984)
(0.00126814 0.00032788 -0.00125588)
(0.000854842 0.000555083 -0.00100426)
(0.000395504 0.000732211 -0.000634762)
(-0.000119436 0.000871374 -0.000142547)
(-0.000685253 0.000986698 0.000466396)
(-0.00128052 0.00109302 0.00115638)
(-0.00186836 0.00120462 0.00184607)
(-0.00240206 0.00133861 0.0024072)
(-0.00283985 0.0015194 0.00269103)
(-0.0031598 0.00175887 0.00257541)
(-0.0033416 0.0019826 0.00203159)
(-0.00337043 0.00204341 0.00121842)
(-0.00326084 0.0019024 0.000372351)
(-0.00303959 0.00158748 -0.000357539)
(-0.00273741 0.00116704 -0.000900684)
(-0.00238985 0.000722401 -0.00124025)
(-0.00202469 0.000310948 -0.00139329)
(-0.00165273 -4.09304e-05 -0.00138984)
(-0.00126814 -0.00032788 -0.00125588)
(-0.000854842 -0.000555082 -0.00100426)
(-0.000395505 -0.000732211 -0.000634762)
(0.000119435 -0.000871374 -0.000142547)
(0.000685253 -0.000986698 0.000466396)
(0.00128052 -0.00109302 0.00115638)
(0.00186836 -0.00120462 0.00184607)
(0.00240206 -0.00133861 0.00240719)
(0.00283985 -0.0015194 0.00269103)
(0.0031598 -0.00175887 0.00257541)
(0.00290068 -0.00184649 0.0018692)
(0.00309152 -0.0019105 0.0014899)
(0.00319198 -0.00175519 0.0010214)
(0.00315623 -0.0014207 0.00051399)
(0.00298764 -0.000988244 3.27212e-05)
(0.00271993 -0.000533468 -0.000353496)
(0.00238575 -0.000102876 -0.000596164)
(0.00200052 0.000280198 -0.000674106)
(0.00156496 0.000602232 -0.000584756)
(0.00107455 0.000852439 -0.000335395)
(0.000529409 0.00102225 5.7094e-05)
(-5.72623e-05 0.0011097 0.000558861)
(-0.000654865 0.00112796 0.00111125)
(-0.00122041 0.00111353 0.00163241)
(-0.00171407 0.00112263 0.00203481)
(-0.00211588 0.00120787 0.00225447)
(-0.00243126 0.00138646 0.0022753)
(-0.00268413 0.00162665 0.00213097)
(-0.00290068 0.00184649 0.0018692)
(-0.00309152 0.0019105 0.0014899)
(-0.00319198 0.00175519 0.0010214)
(-0.00315623 0.0014207 0.00051399)
(-0.00298764 0.000988244 3.27213e-05)
(-0.00271993 0.000533468 -0.000353496)
(-0.00238575 0.000102876 -0.000596164)
(-0.00200052 -0.000280198 -0.000674106)
(-0.00156496 -0.000602232 -0.000584756)
(-0.00107455 -0.000852438 -0.000335395)
(-0.000529409 -0.00102225 5.7094e-05)
(5.72622e-05 -0.0011097 0.000558861)
(0.000654865 -0.00112796 0.00111125)
(0.00122041 -0.00111353 0.00163241)
(0.00171407 -0.00112263 0.00203481)
(0.00211588 -0.00120787 0.00225447)
(0.00243126 -0.00138646 0.0022753)
(0.00268413 -0.00162665 0.00213097)
(0.00410078 -0.00273483 0.00280641)
(0.00394284 -0.00282212 0.00146387)
(0.00357894 -0.0026914 2.48831e-05)
(0.00312445 -0.00237028 -0.00116668)
(0.00266021 -0.00192042 -0.00195939)
(0.00222034 -0.00142691 -0.00237158)
(0.00181032 -0.000963572 -0.00250118)
(0.00142438 -0.000570693 -0.00244616)
(0.00104875 -0.000254877 -0.00226877)
(0.000660556 8.5768e-07 -0.00198702)
(0.000230908 0.000226519 -0.00157753)
(-0.000268456 0.000455845 -0.000988685)
(-0.000857111 0.000715517 -0.000170858)
(-0.00153516 0.00101401 0.000873748)
(-0.00226968 0.00134132 0.00203745)
(-0.00298751 0.00168841 0.0030858)
(-0.00358725 0.00206327 0.00370531)
(-0.00397663 0.00244685 0.0036315)
(-0.00410078 0.00273483 0.00280641)
(-0.00394284 0.00282212 0.00146387)
(-0.00357894 0.0026914 2.48831e-05)
(-0.00312445 0.00237028 -0.00116668)
(-0.00266021 0.00192042 -0.00195939)
(-0.00222034 0.00142691 -0.00237158)
(-0.00181032 0.000963572 -0.00250118)
(-0.00142438 0.000570693 -0.00244616)
(-0.00104875 0.000254878 -0.00226877)
(-0.000660556 -8.57564e-07 -0.00198702)
(-0.000230908 -0.000226519 -0.00157753)
(0.000268456 -0.000455845 -0.000988685)
(0.00085711 -0.000715517 -0.000170858)
(0.00153516 -0.00101401 0.000873748)
(0.00226968 -0.00134132 0.00203745)
(0.00298751 -0.00168841 0.0030858)
(0.00358725 -0.00206327 0.00370531)
(0.00397663 -0.00244685 0.0036315)
(0.00381085 -0.00238655 0.00265047)
(0.0038126 -0.00244832 0.0017832)
(0.00365281 -0.00230324 0.000793606)
(0.00337305 -0.00197873 -0.00010912)
(0.00302137 -0.00154083 -0.0007999)
(0.00263563 -0.0010652 -0.00124361)
(0.00223608 -0.000609038 -0.0014604)
(0.00182586 -0.00020317 -0.00148782)
(0.00139561 0.000142061 -0.00135616)
(0.000929016 0.000428876 -0.00107818)
(0.00040937 0.000666442 -0.000650784)
(-0.00017286 0.00086758 -6.69817e-05)
(-0.000813189 0.00104678 0.000663414)
(-0.00148885 0.00121903 0.00149023)
(-0.00215879 0.00140107 0.00230816)
(-0.00277062 0.0016144 0.00296482)
(-0.00327405 0.00187688 0.00329746)
(-0.00363004 0.00216453 0.00319252)
(-0.00381085 0.00238655 0.00265047)
(-0.0038126 0.00244832 0.0017832)
(-0.00365281 0.00230324 0.000793606)
(-0.00337305 0.00197873 -0.00010912)
(-0.00302137 0.00154083 -0.0007999)
(-0.00263563 0.0010652 -0.00124361)
(-0.00223608 0.000609038 -0.0014604)
(-0.00182586 0.00020317 -0.00148782)
(-0.00139561 -0.000142061 -0.00135616)
(-0.000929016 -0.000428876 -0.00107818)
(-0.00040937 -0.000666442 -0.000650784)
(0.00017286 -0.00086758 -6.69818e-05)
(0.000813189 -0.00104678 0.000663414)
(0.00148885 -0.00121903 0.00149023)
(0.00215879 -0.00140107 0.00230816)
(0.00277062 -0.0016144 0.00296482)
(0.00327405 -0.00187688 0.00329746)
(0.00363004 -0.00216453 0.00319252)
(0.00347749 -0.00213109 0.00245143)
(0.00358102 -0.00215922 0.0020132)
(0.00358925 -0.00200638 0.00146637)
(0.00348184 -0.00168423 0.000866561)
(0.00326193 -0.00125451 0.000296894)
(0.00295578 -0.000785685 -0.000160731)
(0.00258899 -0.000324851 -0.000449966)
(0.00217146 0.000101789 -0.000546589)
(0.00169989 0.00047777 -0.000447984)
(0.00116708 0.000790245 -0.000162264)
(0.000570584 0.00102979 0.000291934)
(-7.98356e-05 0.00119397 0.000875799)
(-0.000757573 0.00129418 0.00152037)
(-0.00142218 0.0013617 0.00212985)
(-0.00203143 0.00144253 0.00260499)
(-0.00255426 0.00157577 0.00287577)
(-0.00297396 0.00176724 0.00292105)
(-0.00328155 0.00197664 0.00276368)
(-0.00347749 0.00213109 0.00245143)
(-0.00358102 0.00215922 0.0020132)
(-0.00358925 0.00200638 0.00146637)
(-0.00348184 0.00168423 0.000866561)
(-0.00326193 0.00125451 0.000296894)
(-0.00295578 0.000785685 -0.000160731)
(-0.00258899 0.000324851 -0.000449966)
(-0.00217146 -0.000101789 -0.000546589)
(-0.00169989 -0.00047777 -0.000447984)
(-0.00116708 -0.000790245 -0.000162264)
(-0.000570584 -0.00102979 0.000291934)
(7.98354e-05 -0.00119397 0.000875799)
(0.000757573 -0.00129418 0.00152037)
(0.00142218 -0.0013617 0.00212985)
(0.00203143 -0.00144253 0.00260499)
(0.00255426 -0.00157577 0.00287577)
(0.00297396 -0.00176724 0.00292105)
(0.00328155 -0.00197664 0.00276368)
(0.00425223 -0.00298985 0.00325247)
(0.00411391 -0.00313608 0.00201161)
(0.00375039 -0.00305634 0.000564187)
(0.00327011 -0.00277687 -0.000728626)
(0.00277559 -0.00235664 -0.00164774)
(0.00231546 -0.0018712 -0.00216775)
(0.00189052 -0.00139108 -0.00237764)
(0.00148434 -0.00096226 -0.00237966)
(0.00107814 -0.000599959 -0.00223921)
(0.000650644 -0.000293774 -0.0019741)
(0.000177508 -1.67479e-05 -0.00155859)
(-0.000365039 0.000264265 -0.000938689)
(-0.000991941 0.000576052 -6.7547e-05)
(-0.00169635 0.000929079 0.00103801)
(-0.00243778 0.0013209 0.00224684)
(-0.00314363 0.00174922 0.00331458)
(-0.00372814 0.00220709 0.00395584)
(-0.00411648 0.00265029 0.00395325)
(-0.00425223 0.00298985 0.00325247)
(-0.00411391 0.00313608 0.00201161)
(-0.00375039 0.00305634 0.000564187)
(-0.00327011 0.00277687 -0.000728626)
(-0.00277559 0.00235664 -0.00164774)
(-0.00231547 0.0018712 -0.00216775)
(-0.00189052 0.00139108 -0.00237764)
(-0.00148434 0.00096226 -0.00237966)
(-0.00107814 0.00059996 -0.00223921)
(-0.000650644 0.000293774 -0.0019741)
(-0.000177508 1.67481e-05 -0.00155859)
(0.000365038 -0.000264264 -0.000938689)
(0.000991941 -0.000576052 -6.7547e-05)
(0.00169635 -0.000929079 0.00103801)
(0.00243778 -0.0013209 0.00224684)
(0.00314363 -0.00174922 0.00331458)
(0.00372814 -0.00220709 0.00395584)
(0.00411648 -0.00265029 0.00395325)
(0.00400683 -0.00257604 0.00309076)
(0.00397978 -0.00265294 0.002261)
(0.00378283 -0.00254499 0.00126415)
(0.003466 -0.00226477 0.000304933)
(0.00308659 -0.00186319 -0.000462761)
(0.00268423 -0.0014045 -0.000977703)
(0.00227317 -0.000943533 -0.0012496)
(0.00184971 -0.000515065 -0.00131447)
(0.00140142 -0.000134747 -0.0012031)
(0.000912463 0.000196006 -0.000928577)
(0.000367702 0.000485094 -0.000488072)
(-0.000241958 0.000745226 0.000123965)
(-0.000912902 0.000989844 0.000893075)
(-0.00162234 0.00123105 0.00176002)
(-0.00232609 0.00148178 0.00260954)
(-0.00296578 0.00175686 0.00328727)
(-0.00348461 0.00205928 0.0036431)
(-0.0038402 0.00235498 0.00358057)
(-0.00400683 0.00257604 0.00309076)
(-0.00397978 0.00265294 0.002261)
(-0.00378283 0.00254499 0.00126415)
(-0.003466 0.00226477 0.000304933)
(-0.00308659 0.00186319 -0.000462761)
(-0.00268423 0.0014045 -0.000977703)
(-0.00227317 0.000943533 -0.0012496)
(-0.00184971 0.000515065 -0.00131447)
(-0.00140142 0.000134747 -0.0012031)
(-0.000912463 -0.000196006 -0.000928577)
(-0.000367703 -0.000485094 -0.000488072)
(0.000241958 -0.000745226 0.000123965)
(0.000912901 -0.000989844 0.000893075)
(0.00162234 -0.00123105 0.00176002)
(0.00232609 -0.00148178 0.00260954)
(0.00296578 -0.00175686 0.00328727)
(0.00348461 -0.00205928 0.0036431)
(0.0038402 -0.00235498 0.00358057)
(0.00377047 -0.00226762 0.00290308)
(0.00380989 -0.00226314 0.00245073)
(0.00373952 -0.00212042 0.0018872)
(0.00356902 -0.00183622 0.00126431)
(0.00330863 -0.00144602 0.000661843)
(0.00297741 -0.00100212 0.000167329)
(0.0025935 -0.000547842 -0.000153469)
(0.00216277 -0.000110829 -0.000269686)
(0.00167998 0.00029072 -0.000176393)
(0.00113667 0.000643452 0.000117748)
(0.000528356 0.00093844 0.000591545)
(-0.000139212 0.00117307 0.0012013)
(-0.000845329 0.00135513 0.0018716)
(-0.00155488 0.00150596 0.0025023)
(-0.00222508 0.001655 0.00299541)
(-0.00281286 0.00182308 0.00328532)
(-0.00328 0.00200513 0.00335235)
(-0.00360013 0.00216798 0.00321374)
(-0.00377047 0.00226762 0.00290308)
(-0.00380989 0.00226314 0.00245073)
(-0.00373952 0.00212042 0.0018872)
(-0.00356902 0.00183622 0.00126431)
(-0.00330863 0.00144602 0.000661843)
(-0.00297741 0.00100212 0.000167329)
(-0.0025935 0.000547842 -0.000153469)
(-0.00216277 0.000110829 -0.000269686)
(-0.00167998 -0.00029072 -0.000176393)
(-0.00113667 -0.000643452 0.000117748)
(-0.000528356 -0.00093844 0.000591544)
(0.000139212 -0.00117307 0.0012013)
(0.000845329 -0.00135513 0.00187159)
(0.00155488 -0.00150596 0.0025023)
(0.00222508 -0.001655 0.00299541)
(0.00281286 -0.00182308 0.00328532)
(0.00328 -0.00200513 0.00335235)
(0.00360013 -0.00216798 0.00321374)
(0.00413432 -0.00299073 0.00345703)
(0.00400592 -0.00320318 0.00240014)
(0.00366566 -0.00321275 0.00110067)
(0.00319983 -0.0030267 -0.00013443)
(0.00270774 -0.0026878 -0.00107561)
(0.00224834 -0.00225869 -0.00165414)
(0.00182702 -0.00180424 -0.00192681)
(0.00142304 -0.00137367 -0.00198322)
(0.00101327 -0.000990087 -0.00188607)
(0.000576793 -0.000650705 -0.00165438)
(9.27637e-05 -0.000333652 -0.00126569)
(-0.000458349 -8.99095e-06 -0.00067141)
(-0.00108636 0.000347378 0.000166577)
(-0.00177735 0.000744561 0.00122072)
(-0.00248516 0.001181 0.00235789)
(-0.00314039 0.00165261 0.00335471)
(-0.00367111 0.00214477 0.00396754)
(-0.00401725 0.00261425 0.00401752)
(-0.00413432 0.00299073 0.00345703)
(-0.00400592 0.00320318 0.00240014)
(-0.00366566 0.00321275 0.00110067)
(-0.00319983 0.0030267 -0.00013443)
(-0.00270774 0.0026878 -0.00107561)
(-0.00224834 0.00225869 -0.00165414)
(-0.00182702 0.00180424 -0.00192681)
(-0.00142304 0.00137367 -0.00198322)
(-0.00101327 0.000990087 -0.00188607)
(-0.000576793 0.000650705 -0.00165438)
(-9.2764e-05 0.000333652 -0.00126569)
(0.000458349 8.99112e-06 -0.00067141)
(0.00108636 -0.000347378 0.000166577)
(0.00177735 -0.000744561 0.00122072)
(0.00248516 -0.001181 0.00235789)
(0.00314039 -0.00165261 0.00335471)
(0.00367111 -0.00214477 0.00396754)
(0.00401725 -0.00261425 0.00401752)
(0.00394036 -0.002577 0.00334698)
(0.00389259 -0.00268274 0.00262165)
(0.00368187 -0.00263259 0.0017158)
(0.00335659 -0.00242647 0.000803993)
(0.00297316 -0.00209621 3.70276e-05)
(0.00257158 -0.00169098 -0.00050519)
(0.00216466 -0.00125975 -0.000813109)
(0.00174579 -0.000838992 -0.000912156)
(0.00130095 -0.000448823 -0.000829501)
(0.00081508 -9.45511e-05 -0.000578855)
(0.000274852 0.00022942 -0.00016069)
(-0.000327735 0.000534185 0.000425623)
(-0.000988874 0.000830443 0.00116047)
(-0.00168512 0.00112551 0.00198231)
(-0.00237069 0.00142555 0.00278183)
(-0.00298627 0.00173631 0.00342169)
(-0.0034762 0.00205347 0.00377328)
(-0.00380118 0.00234976 0.00375295)
(-0.00394036 0.002577 0.00334698)
(-0.00389259 0.00268274 0.00262165)
(-0.00368187 0.00263259 0.0017158)
(-0.00335659 0.00242647 0.000803993)
(-0.00297316 0.00209621 3.70277e-05)
(-0.00257158 0.00169098 -0.00050519)
(-0.00216466 0.00125975 -0.000813109)
(-0.00174579 0.000838993 -0.000912156)
(-0.00130095 0.000448823 -0.000829501)
(-0.00081508 9.45513e-05 -0.000578855)
(-0.000274852 -0.00022942 -0.00016069)
(0.000327735 -0.000534185 0.000425623)
(0.000988874 -0.000830443 0.00116047)
(0.00168512 -0.00112551 0.00198231)
(0.00237069 -0.00142555 0.00278183)
(0.00298627 -0.00173631 0.00342169)
(0.0034762 -0.00205347 0.00377328)
(0.00380118 -0.00234976 0.00375295)
(0.00379637 -0.00226883 0.00320748)
(0.00379528 -0.00225209 0.00279094)
(0.00367763 -0.0021293 0.00226311)
(0.00346749 -0.00189402 0.00167196)
(0.00318269 -0.00156316 0.0010881)
(0.0028396 -0.00117041 0.000595197)
(0.00245131 -0.000750441 0.000263873)
(0.00202138 -0.000329737 0.000132442)
(0.00154438 7.27566e-05 0.000210194)
(0.001012 0.000443534 0.000488684)
(0.000419098 0.000773946 0.000943776)
(-0.000230976 0.00106036 0.00152758)
(-0.00092185 0.00130558 0.0021631)
(-0.00162298 0.00151987 0.0027558)
(-0.00229256 0.00171677 0.00322016)
(-0.00288245 0.00190292 0.00350252)
(-0.00334633 0.0020706 0.00358627)
(-0.00365278 0.00220035 0.00348089)
(-0.00379637 0.00226883 0.00320748)
(-0.00379528 0.00225209 0.00279094)
(-0.00367763 0.0021293 0.00226311)
(-0.00346749 0.00189402 0.00167196)
(-0.00318269 0.00156316 0.0010881)
(-0.0028396 0.00117041 0.000595197)
(-0.00245131 0.000750442 0.000263873)
(-0.00202138 0.000329737 0.000132442)
(-0.00154438 -7.27565e-05 0.000210194)
(-0.001012 -0.000443534 0.000488684)
(-0.000419099 -0.000773946 0.000943776)
(0.000230975 -0.00106036 0.00152758)
(0.00092185 -0.00130558 0.0021631)
(0.00162298 -0.00151987 0.0027558)
(0.00229256 -0.00171677 0.00322016)
(0.00288245 -0.00190292 0.00350252)
(0.00334633 -0.0020706 0.00358627)
(0.00365278 -0.00220035 0.00348089)
(0.00379882 -0.00281881 0.00347362)
(0.0036715 -0.00308979 0.00263131)
(0.00336451 -0.00318977 0.00155852)
(0.00294131 -0.00311038 0.000488267)
(0.00248147 -0.00287524 -0.000382333)
(0.00204233 -0.0025318 -0.00096321)
(0.00163742 -0.00213605 -0.00127182)
(0.00124995 -0.00173572 -0.00137158)
(0.000856259 -0.0013583 -0.0013154)
(0.000435405 -0.00100754 -0.00112253)
(-3.13906e-05 -0.000667939 -0.000776891)
(-0.000559768 -0.000315643 -0.000240961)
(-0.00115357 6.80606e-05 0.000509844)
(-0.0017923 0.000489489 0.00144033)
(-0.00242783 0.000946677 0.00242925)
(-0.00299763 0.00143404 0.0032897)
(-0.00344332 0.00193571 0.00382636)
(-0.0037202 0.00241541 0.00389983)
(-0.00379882 0.00281881 0.00347362)