/*--------------------------------*- C++ -*----------------------------------*\
| =========                 |                                                 |
| \\      /  F ield         | OpenFOAM: The Open Source CFD Toolbox           |
|  \\    /   O peration     | Version:  2312                                  |
|   \\  /    A nd           | Website:  www.openfoam.com                      |
|    \\/     M anipulation  |                                                 |
\*---------------------------------------------------------------------------*/
FoamFile
{
    version     2.0;
    format      ascii;
    arch        "LSB;label=32;scalar=64";
    class       volVectorField;
    location    "0.3";
    object      U;
}
// * * * * * * * * * * * * * * * * * * * * * * * * * * * * * * * * * * * * * //

dimensions      [0 1 -1 0 0 0 0];

internalField   nonuniform List<vector> 
1620
(
(-0.000251271 2.13807e-05 -0.000174892)
(-0.000251166 -2.25774e-05 -0.000174892)
(-0.000243431 -6.58491e-05 -0.000174892)
(-0.000228298 -0.000107119 -0.000174891)
(-0.000206228 -0.000145134 -0.000174891)
(-0.000177893 -0.000178741 -0.000174892)
(-0.000144153 -0.000206916 -0.000174891)
(-0.000106032 -0.000228804 -0.000174891)
(-6.46889e-05 -0.000243741 -0.000174891)
(-2.13805e-05 -0.000251271 -0.000174892)
(2.25776e-05 -0.000251166 -0.000174892)
(6.58493e-05 -0.000243431 -0.000174892)
(0.000107119 -0.000228298 -0.000174891)
(0.000145134 -0.000206228 -0.000174892)
(0.000178741 -0.000177893 -0.000174892)
(0.000206917 -0.000144153 -0.000174891)
(0.000228804 -0.000106032 -0.000174891)
(0.000243741 -6.46889e-05 -0.000174891)
(0.000251271 -2.13805e-05 -0.000174892)
(0.000251166 2.25777e-05 -0.000174892)
(0.000243431 6.58493e-05 -0.000174892)
(0.000228298 0.000107119 -0.000174891)
(0.000206228 0.000145135 -0.000174892)
(0.000177893 0.000178741 -0.000174892)
(0.000144153 0.000206917 -0.000174891)
(0.000106032 0.000228804 -0.000174891)
(6.4689e-05 0.000243741 -0.000174891)
(2.13806e-05 0.000251271 -0.000174892)
(-2.25775e-05 0.000251166 -0.000174892)
(-6.58492e-05 0.000243431 -0.000174892)
(-0.000107119 0.000228298 -0.000174891)
(-0.000145134 0.000206228 -0.000174891)
(-0.000178741 0.000177893 -0.000174892)
(-0.000206916 0.000144153 -0.000174891)
(-0.000228804 0.000106032 -0.000174891)
(-0.000243741 6.46891e-05 -0.000174891)
(-0.000135478 0.000174577 -0.000111063)
(-0.000163735 0.000148398 -0.000111063)
(-0.000187016 0.000117712 -0.000111063)
(-0.000204616 8.34485e-05 -0.000111062)
(-0.000215998 4.66498e-05 -0.000111063)
(-0.000220817 8.43344e-06 -0.000111062)
(-0.000218927 -3.00392e-05 -0.000111062)
(-0.000210385 -6.7599e-05 -0.000111062)
(-0.00019545 -0.000103105 -0.000111063)
(-0.000174576 -0.000135478 -0.000111063)
(-0.000148398 -0.000163735 -0.000111063)
(-0.000117711 -0.000187016 -0.000111063)
(-8.34483e-05 -0.000204616 -0.000111062)
(-4.66497e-05 -0.000215998 -0.000111063)
(-8.43328e-06 -0.000220817 -0.000111063)
(3.00394e-05 -0.000218927 -0.000111062)
(6.75992e-05 -0.000210385 -0.000111062)
(0.000103105 -0.00019545 -0.000111063)
(0.000135479 -0.000174576 -0.000111063)
(0.000163735 -0.000148398 -0.000111063)
(0.000187017 -0.000117711 -0.000111063)
(0.000204616 -8.34483e-05 -0.000111062)
(0.000215999 -4.66496e-05 -0.000111063)
(0.000220817 -8.43319e-06 -0.000111063)
(0.000218927 3.00394e-05 -0.000111062)
(0.000210385 6.75993e-05 -0.000111062)
(0.00019545 0.000103106 -0.000111063)
(0.000174576 0.000135479 -0.000111063)
(0.000148398 0.000163735 -0.000111063)
(0.000117712 0.000187017 -0.000111063)
(8.34484e-05 0.000204616 -0.000111062)
(4.66498e-05 0.000215999 -0.000111063)
(8.43337e-06 0.000220818 -0.000111063)
(-3.00393e-05 0.000218927 -0.000111062)
(-6.75991e-05 0.000210385 -0.000111062)
(-0.000103105 0.00019545 -0.000111063)
(-7.2528e-05 0.000325526 -4.65454e-05)
(-0.000127953 0.000307986 -4.65454e-05)
(-0.000179491 0.000281089 -4.65457e-05)
(-0.000225574 0.00024565 -4.65455e-05)
(-0.000264804 0.000202748 -4.65457e-05)
(-0.000295988 0.000153685 -4.65454e-05)
(-0.000318178 9.9952e-05 -4.65457e-05)
(-0.000330701 4.31824e-05 -4.65458e-05)
(-0.000333175 -1.48992e-05 -4.65455e-05)
(-0.000325526 -7.2528e-05 -4.65455e-05)
(-0.000307986 -0.000127953 -4.65455e-05)
(-0.000281089 -0.00017949 -4.65458e-05)
(-0.00024565 -0.000225574 -4.65455e-05)
(-0.000202748 -0.000264804 -4.65457e-05)
(-0.000153685 -0.000295988 -4.65455e-05)
(-9.99519e-05 -0.000318178 -4.65458e-05)
(-4.31823e-05 -0.000330701 -4.65459e-05)
(1.48993e-05 -0.000333175 -4.65456e-05)
(7.25281e-05 -0.000325526 -4.65455e-05)
(0.000127953 -0.000307986 -4.65455e-05)
(0.000179491 -0.000281089 -4.65458e-05)
(0.000225574 -0.00024565 -4.65456e-05)
(0.000264804 -0.000202748 -4.65458e-05)
(0.000295988 -0.000153685 -4.65455e-05)
(0.000318178 -9.99518e-05 -4.65458e-05)
(0.000330701 -4.31822e-05 -4.65459e-05)
(0.000333175 1.48994e-05 -4.65456e-05)
(0.000325526 7.25282e-05 -4.65455e-05)
(0.000307986 0.000127953 -4.65455e-05)
(0.000281089 0.000179491 -4.65458e-05)
(0.00024565 0.000225574 -4.65455e-05)
(0.000202748 0.000264804 -4.65457e-05)
(0.000153685 0.000295988 -4.65454e-05)
(9.99519e-05 0.000318178 -4.65457e-05)
(4.31823e-05 0.000330701 -4.65458e-05)
(-1.48993e-05 0.000333175 -4.65455e-05)
(-0.000501558 0.000105776 -0.000591715)
(-0.000512306 1.70737e-05 -0.000591716)
(-0.000507489 -7.21468e-05 -0.000591716)
(-0.000487251 -0.000159174 -0.000591713)
(-0.000452208 -0.000241364 -0.000591713)
(-0.000403425 -0.000316222 -0.000591713)
(-0.000342385 -0.000381472 -0.000591714)
(-0.000270941 -0.000435132 -0.000591714)
(-0.000191264 -0.00047557 -0.000591715)
(-0.000105776 -0.000501558 -0.000591715)
(-1.70732e-05 -0.000512306 -0.000591716)
(7.21473e-05 -0.000507489 -0.000591716)
(0.000159174 -0.000487251 -0.000591714)
(0.000241364 -0.000452208 -0.000591713)
(0.000316223 -0.000403425 -0.000591714)
(0.000381473 -0.000342385 -0.000591714)
(0.000435132 -0.000270941 -0.000591714)
(0.000475571 -0.000191263 -0.000591715)
(0.000501558 -0.000105775 -0.000591715)
(0.000512306 -1.7073e-05 -0.000591717)
(0.000507489 7.21476e-05 -0.000591716)
(0.000487251 0.000159174 -0.000591714)
(0.000452209 0.000241365 -0.000591713)
(0.000403426 0.000316223 -0.000591714)
(0.000342386 0.000381473 -0.000591714)
(0.000270942 0.000435132 -0.000591714)
(0.000191264 0.000475571 -0.000591715)
(0.000105776 0.000501559 -0.000591715)
(1.70735e-05 0.000512307 -0.000591716)
(-7.2147e-05 0.000507489 -0.000591716)
(-0.000159174 0.000487252 -0.000591713)
(-0.000241364 0.000452209 -0.000591713)
(-0.000316222 0.000403426 -0.000591713)
(-0.000381473 0.000342386 -0.000591714)
(-0.000435132 0.000270942 -0.000591714)
(-0.00047557 0.000191264 -0.000591715)
(-0.000420698 0.000521027 -0.000401269)
(-0.000504781 0.000440057 -0.00040127)
(-0.000573528 0.000345717 -0.00040127)
(-0.000624848 0.000240874 -0.000401269)
(-0.000657183 0.000128712 -0.000401269)
(-0.000669549 1.26372e-05 -0.000401269)
(-0.000661572 -0.000103821 -0.000401269)
(-0.000633492 -0.000217125 -0.000401269)
(-0.000586165 -0.000323831 -0.000401269)
(-0.000521027 -0.000420698 -0.00040127)
(-0.000440057 -0.000504781 -0.00040127)
(-0.000345717 -0.000573528 -0.00040127)
(-0.000240874 -0.000624848 -0.00040127)
(-0.000128711 -0.000657183 -0.000401269)
(-1.26368e-05 -0.000669549 -0.000401269)
(0.000103821 -0.000661571 -0.000401269)
(0.000217125 -0.000633492 -0.000401269)
(0.000323832 -0.000586165 -0.00040127)
(0.000420698 -0.000521026 -0.00040127)
(0.000504782 -0.000440056 -0.00040127)
(0.000573528 -0.000345717 -0.00040127)
(0.000624849 -0.000240874 -0.00040127)
(0.000657184 -0.000128711 -0.000401269)
(0.00066955 -1.26365e-05 -0.000401269)
(0.000661572 0.000103822 -0.000401269)
(0.000633493 0.000217125 -0.000401269)
(0.000586165 0.000323832 -0.00040127)
(0.000521027 0.000420699 -0.00040127)
(0.000440057 0.000504782 -0.00040127)
(0.000345717 0.000573529 -0.00040127)
(0.000240874 0.000624849 -0.000401269)
(0.000128712 0.000657184 -0.000401269)
(1.2637e-05 0.00066955 -0.000401269)
(-0.000103821 0.000661572 -0.000401269)
(-0.000217125 0.000633493 -0.000401269)
(-0.000323831 0.000586165 -0.000401269)
(-0.000405549 0.000927503 -0.000213923)
(-0.000560446 0.000842989 -0.000213923)
(-0.000698314 0.000732862 -0.000213923)
(-0.000814965 0.000600467 -0.000213923)
(-0.000906854 0.000449828 -0.000213923)
(-0.000971189 0.00028552 -0.000213923)
(-0.00100601 0.000112536 -0.000213923)
(-0.00101027 -6.38658e-05 -0.000213923)
(-0.000983835 -0.000238328 -0.000213923)
(-0.000927503 -0.000405549 -0.000213923)
(-0.000842989 -0.000560446 -0.000213923)
(-0.000732861 -0.000698314 -0.000213923)
(-0.000600467 -0.000814965 -0.000213923)
(-0.000449827 -0.000906854 -0.000213923)
(-0.000285519 -0.000971189 -0.000213923)
(-0.000112536 -0.00100601 -0.000213924)
(6.38662e-05 -0.00101027 -0.000213923)
(0.000238328 -0.000983835 -0.000213924)
(0.000405549 -0.000927502 -0.000213924)
(0.000560446 -0.000842989 -0.000213923)
(0.000698314 -0.000732861 -0.000213923)
(0.000814965 -0.000600467 -0.000213923)
(0.000906854 -0.000449827 -0.000213923)
(0.000971189 -0.000285519 -0.000213923)
(0.00100601 -0.000112536 -0.000213924)
(0.00101027 6.38664e-05 -0.000213923)
(0.000983835 0.000238329 -0.000213924)
(0.000927503 0.000405549 -0.000213923)
(0.000842989 0.000560447 -0.000213923)
(0.000732862 0.000698315 -0.000213923)
(0.000600467 0.000814965 -0.000213923)
(0.000449827 0.000906854 -0.000213923)
(0.00028552 0.000971189 -0.000213923)
(0.000112536 0.00100602 -0.000213923)
(-6.3866e-05 0.00101027 -0.000213923)
(-0.000238328 0.000983835 -0.000213923)
(-0.000719271 0.000256109 -0.00111192)
(-0.000752816 0.000127317 -0.00111192)
(-0.000763488 -5.34181e-06 -0.00111192)
(-0.000750962 -0.000137837 -0.00111192)
(-0.000715619 -0.000266145 -0.00111192)
(-0.000658531 -0.000386367 -0.00111192)
(-0.000581433 -0.00049485 -0.00111192)
(-0.000486669 -0.000588297 -0.00111192)
(-0.000377118 -0.00066387 -0.00111192)
(-0.000256108 -0.000719271 -0.00111192)
(-0.000127316 -0.000752816 -0.00111192)
(5.34267e-06 -0.000763488 -0.00111192)
(0.000137838 -0.000750962 -0.00111192)
(0.000266146 -0.000715619 -0.00111192)
(0.000386368 -0.00065853 -0.00111192)
(0.000494851 -0.000581433 -0.00111192)
(0.000588298 -0.000486669 -0.00111192)
(0.00066387 -0.000377117 -0.00111192)
(0.000719271 -0.000256108 -0.00111192)
(0.000752817 -0.000127316 -0.00111192)
(0.000763489 5.34302e-06 -0.00111192)
(0.000750963 0.000137839 -0.00111192)
(0.000715619 0.000266146 -0.00111192)
(0.000658531 0.000386368 -0.00111192)
(0.000581434 0.000494851 -0.00111192)
(0.00048667 0.000588299 -0.00111192)
(0.000377118 0.000663871 -0.00111192)
(0.000256109 0.000719272 -0.00111192)
(0.000127317 0.000752817 -0.00111192)
(-5.34217e-06 0.000763489 -0.00111192)
(-0.000137838 0.000750963 -0.00111192)
(-0.000266145 0.00071562 -0.00111192)
(-0.000386367 0.000658531 -0.00111192)
(-0.00049485 0.000581434 -0.00111192)
(-0.000588298 0.00048667 -0.00111192)
(-0.00066387 0.000377118 -0.00111192)
(-0.000700488 0.000879132 -0.000814684)
(-0.000842505 0.000744138 -0.000814684)
(-0.000958923 0.000586533 -0.000814684)
(-0.00104621 0.000411108 -0.000814684)
(-0.0011017 0.000223192 -0.000814682)
(-0.00112372 2.84924e-05 -0.000814683)
(-0.00111159 -0.000167073 -0.000814683)
(-0.0010657 -0.000357562 -0.000814683)
(-0.000987414 -0.000537186 -0.000814684)
(-0.000879131 -0.000700488 -0.000814684)
(-0.000744137 -0.000842505 -0.000814685)
(-0.000586532 -0.000958923 -0.000814685)
(-0.000411108 -0.00104621 -0.000814684)
(-0.000223192 -0.0011017 -0.000814683)
(-2.84916e-05 -0.00112372 -0.000814683)
(0.000167073 -0.00111159 -0.000814683)
(0.000357562 -0.00106569 -0.000814684)
(0.000537186 -0.000987414 -0.000814684)
(0.000700488 -0.000879131 -0.000814685)
(0.000842506 -0.000744137 -0.000814685)
(0.000958924 -0.000586532 -0.000814685)
(0.00104621 -0.000411107 -0.000814684)
(0.0011017 -0.000223191 -0.000814683)
(0.00112372 -2.84912e-05 -0.000814683)
(0.00111159 0.000167074 -0.000814683)
(0.0010657 0.000357563 -0.000814684)
(0.000987415 0.000537187 -0.000814684)
(0.000879132 0.000700489 -0.000814684)
(0.000744137 0.000842506 -0.000814685)
(0.000586533 0.000958924 -0.000814685)
(0.000411108 0.00104621 -0.000814684)
(0.000223192 0.0011017 -0.000814682)
(2.84921e-05 0.00112372 -0.000814683)
(-0.000167073 0.0011116 -0.000814683)
(-0.000357562 0.0010657 -0.000814683)
(-0.000537186 0.000987415 -0.000814684)
(-0.000758906 0.00147545 -0.00052543)
(-0.00100359 0.00132126 -0.00052543)
(-0.00121777 0.00112691 -0.00052543)
(-0.00139496 0.000898331 -0.00052543)
(-0.00152976 0.000642451 -0.000525431)
(-0.00161808 0.00036705 -0.000525431)
(-0.00165723 8.04967e-05 -0.000525431)
(-0.00164603 -0.000208502 -0.00052543)
(-0.00158482 -0.000491166 -0.00052543)
(-0.00147545 -0.000758905 -0.00052543)
(-0.00132126 -0.00100359 -0.00052543)
(-0.00112691 -0.00121777 -0.00052543)
(-0.00089833 -0.00139496 -0.000525431)
(-0.00064245 -0.00152976 -0.000525431)
(-0.000367049 -0.00161808 -0.000525431)
(-8.04961e-05 -0.00165723 -0.000525431)
(0.000208502 -0.00164603 -0.000525431)
(0.000491166 -0.00158482 -0.000525431)
(0.000758906 -0.00147545 -0.000525431)
(0.00100359 -0.00132126 -0.00052543)
(0.00121777 -0.00112691 -0.000525431)
(0.00139496 -0.00089833 -0.000525431)
(0.00152976 -0.00064245 -0.000525431)
(0.00161808 -0.000367049 -0.000525431)
(0.00165723 -8.04957e-05 -0.000525431)
(0.00164603 0.000208503 -0.000525431)
(0.00158482 0.000491167 -0.000525431)
(0.00147545 0.000758906 -0.00052543)
(0.00132126 0.00100359 -0.00052543)
(0.00112691 0.00121777 -0.00052543)
(0.00089833 0.00139496 -0.000525431)
(0.000642451 0.00152976 -0.000525431)
(0.00036705 0.00161808 -0.000525431)
(8.04964e-05 0.00165723 -0.00052543)
(-0.000208502 0.00164603 -0.00052543)
(-0.000491166 0.00158482 -0.00052543)
(-0.000913456 0.000500731 -0.00169756)
(-0.000986531 0.000334503 -0.00169756)
(-0.00102963 0.000158113 -0.00169756)
(-0.00104144 -2.30803e-05 -0.00169756)
(-0.00102161 -0.000203574 -0.00169756)
(-0.000970742 -0.000377882 -0.00169756)
(-0.000890375 -0.00054071 -0.00169756)
(-0.000782953 -0.000687107 -0.00169756)
(-0.000651743 -0.000812627 -0.00169756)
(-0.00050073 -0.000913456 -0.00169756)
(-0.000334502 -0.00098653 -0.00169756)
(-0.000158112 -0.00102963 -0.00169756)
(2.30815e-05 -0.00104144 -0.00169756)
(0.000203575 -0.00102161 -0.00169756)
(0.000377883 -0.000970742 -0.00169756)
(0.000540711 -0.000890375 -0.00169756)
(0.000687109 -0.000782953 -0.00169756)
(0.000812628 -0.000651742 -0.00169756)
(0.000913457 -0.000500729 -0.00169756)
(0.000986532 -0.000334502 -0.00169756)
(0.00102963 -0.000158112 -0.00169756)
(0.00104144 2.3082e-05 -0.00169756)
(0.00102161 0.000203575 -0.00169756)
(0.000970743 0.000377884 -0.00169756)
(0.000890376 0.000540711 -0.00169756)
(0.000782954 0.000687109 -0.00169756)
(0.000651744 0.000812629 -0.00169756)
(0.000500731 0.000913458 -0.00169756)
(0.000334503 0.000986532 -0.00169756)
(0.000158113 0.00102963 -0.00169756)
(-2.30808e-05 0.00104144 -0.00169756)
(-0.000203574 0.00102161 -0.00169756)
(-0.000377883 0.000970744 -0.00169756)
(-0.00054071 0.000890376 -0.00169756)
(-0.000687108 0.000782955 -0.00169756)
(-0.000812627 0.000651744 -0.00169756)
(-0.000973474 0.0012414 -0.0013219)
(-0.00117425 0.0010535 -0.0013219)
(-0.00133935 0.000833586 -0.0013219)
(-0.00146375 0.000588347 -0.0013219)
(-0.00154368 0.000325231 -0.0013219)
(-0.0015767 5.22334e-05 -0.0013219)
(-0.00156182 -0.000222352 -0.0013219)
(-0.00149948 -0.000490182 -0.0013219)
(-0.00139158 -0.000743118 -0.0013219)
(-0.0012414 -0.000973474 -0.0013219)
(-0.0010535 -0.00117425 -0.0013219)
(-0.000833585 -0.00133935 -0.0013219)
(-0.000588346 -0.00146375 -0.0013219)
(-0.00032523 -0.00154368 -0.0013219)
(-5.22323e-05 -0.0015767 -0.0013219)
(0.000222353 -0.00156182 -0.0013219)
(0.000490183 -0.00149948 -0.0013219)
(0.000743119 -0.00139158 -0.0013219)
(0.000973475 -0.0012414 -0.0013219)
(0.00117425 -0.0010535 -0.0013219)
(0.00133935 -0.000833585 -0.0013219)
(0.00146375 -0.000588346 -0.0013219)
(0.00154368 -0.00032523 -0.0013219)
(0.0015767 -5.22318e-05 -0.0013219)
(0.00156182 0.000222354 -0.0013219)
(0.00149948 0.000490183 -0.0013219)
(0.00139158 0.000743119 -0.0013219)
(0.0012414 0.000973475 -0.0013219)
(0.0010535 0.00117425 -0.0013219)
(0.000833586 0.00133935 -0.0013219)
(0.000588347 0.00146375 -0.0013219)
(0.000325231 0.00154368 -0.0013219)
(5.2233e-05 0.0015767 -0.0013219)
(-0.000222352 0.00156182 -0.0013219)
(-0.000490182 0.00149948 -0.0013219)
(-0.000743118 0.00139158 -0.0013219)
(-0.00111956 0.00193276 -0.000960522)
(-0.00143817 0.00170899 -0.000960523)
(-0.00171308 0.00143329 -0.000960522)
(-0.00193594 0.00111404 -0.000960522)
(-0.00209998 0.000760944 -0.000960522)
(-0.00220022 0.000384726 -0.000960522)
(-0.0022336 -3.18337e-06 -0.000960523)
(-0.00219911 -0.000390995 -0.000960523)
(-0.0020978 -0.000766927 -0.000960523)
(-0.00193276 -0.00111956 -0.000960522)
(-0.00170899 -0.00143817 -0.000960523)
(-0.00143329 -0.00171308 -0.000960523)
(-0.00111404 -0.00193594 -0.000960523)
(-0.000760943 -0.00209998 -0.000960523)
(-0.000384725 -0.00220022 -0.000960523)
(3.18437e-06 -0.0022336 -0.000960523)
(0.000390996 -0.00219911 -0.000960524)
(0.000766928 -0.0020978 -0.000960523)
(0.00111956 -0.00193276 -0.000960523)
(0.00143817 -0.00170899 -0.000960524)
(0.00171308 -0.00143329 -0.000960523)
(0.00193594 -0.00111404 -0.000960523)
(0.00209998 -0.000760943 -0.000960523)
(0.00220022 -0.000384725 -0.000960523)
(0.0022336 3.18486e-06 -0.000960523)
(0.00219911 0.000390997 -0.000960524)
(0.00209781 0.000766929 -0.000960523)
(0.00193276 0.00111956 -0.000960523)
(0.00170899 0.00143817 -0.000960523)
(0.00143329 0.00171308 -0.000960523)
(0.00111404 0.00193594 -0.000960522)
(0.000760944 0.00209998 -0.000960522)
(0.000384726 0.00220022 -0.000960522)
(-3.18374e-06 0.0022336 -0.000960523)
(-0.000390996 0.00219911 -0.000960523)
(-0.000766928 0.00209781 -0.000960522)
(-0.00111931 0.000835563 -0.00232029)
(-0.00124739 0.000628503 -0.00232029)
(-0.00133758 0.000402348 -0.00232029)
(-0.00138713 0.000163967 -0.00232029)
(-0.00139453 -7.93956e-05 -0.00232029)
(-0.00135955 -0.000320347 -0.00232028)
(-0.00128327 -0.000551564 -0.00232028)
(-0.001168 -0.000766023 -0.00232028)
(-0.00101723 -0.000957206 -0.00232028)
(-0.000835562 -0.0011193 -0.00232029)
(-0.000628501 -0.00124739 -0.00232029)
(-0.000402346 -0.00133758 -0.00232029)
(-0.000163966 -0.00138713 -0.00232029)
(7.93971e-05 -0.00139453 -0.00232029)
(0.000320348 -0.00135955 -0.00232029)
(0.000551566 -0.00128327 -0.00232029)
(0.000766025 -0.001168 -0.00232028)
(0.000957207 -0.00101723 -0.00232029)
(0.00111931 -0.000835561 -0.00232029)
(0.0012474 -0.000628501 -0.00232029)
(0.00133758 -0.000402346 -0.00232029)
(0.00138713 -0.000163965 -0.00232029)
(0.00139453 7.93977e-05 -0.00232029)
(0.00135955 0.000320349 -0.00232029)
(0.00128327 0.000551566 -0.00232029)
(0.001168 0.000766025 -0.00232028)
(0.00101723 0.000957208 -0.00232029)
(0.000835563 0.00111931 -0.00232029)
(0.000628502 0.0012474 -0.00232029)
(0.000402347 0.00133758 -0.00232029)
(0.000163967 0.00138713 -0.00232029)
(-7.93962e-05 0.00139453 -0.00232029)
(-0.000320347 0.00135955 -0.00232028)
(-0.000551565 0.00128327 -0.00232028)
(-0.000766024 0.001168 -0.00232028)
(-0.000957206 0.00101723 -0.00232028)
(-0.00125278 0.00160129 -0.00189613)
(-0.00151181 0.00135942 -0.00189613)
(-0.0017249 0.00107624 -0.00189613)
(-0.00188558 0.000760368 -0.00189613)
(-0.00198897 0.000421389 -0.00189613)
(-0.00203193 6.96064e-05 -0.00189613)
(-0.00201314 -0.000284292 -0.00189613)
(-0.00193319 -0.000629552 -0.00189613)
(-0.0017945 -0.000955683 -0.00189613)
(-0.00160129 -0.00125278 -0.00189613)
(-0.00135941 -0.0015118 -0.00189613)
(-0.00107624 -0.0017249 -0.00189613)
(-0.000760367 -0.00188558 -0.00189613)
(-0.000421388 -0.00198897 -0.00189613)
(-6.9605e-05 -0.00203193 -0.00189613)
(0.000284293 -0.00201314 -0.00189613)
(0.000629553 -0.00193319 -0.00189613)
(0.000955685 -0.0017945 -0.00189613)
(0.00125278 -0.00160128 -0.00189613)
(0.00151181 -0.00135941 -0.00189613)
(0.0017249 -0.00107624 -0.00189613)
(0.00188558 -0.000760366 -0.00189613)
(0.00198897 -0.000421387 -0.00189613)
(0.00203193 -6.96043e-05 -0.00189613)
(0.00201314 0.000284294 -0.00189613)
(0.00193319 0.000629554 -0.00189613)
(0.0017945 0.000955685 -0.00189613)
(0.00160129 0.00125278 -0.00189613)
(0.00135942 0.00151181 -0.00189613)
(0.00107624 0.0017249 -0.00189613)
(0.000760368 0.00188558 -0.00189613)
(0.000421389 0.00198897 -0.00189613)
(6.96059e-05 0.00203193 -0.00189613)
(-0.000284292 0.00201314 -0.00189613)
(-0.000629552 0.00193319 -0.00189613)
(-0.000955684 0.0017945 -0.00189613)
(-0.00147546 0.00229617 -0.00149195)
(-0.00185177 0.00200508 -0.00149195)
(-0.00217181 0.00165306 -0.00149195)
(-0.00242587 0.00125081 -0.00149195)
(-0.00260622 0.000810564 -0.00149195)
(-0.00270737 0.000345685 -0.00149195)
(-0.00272627 -0.000129698 -0.00149195)
(-0.00266233 -0.00060114 -0.00149195)
(-0.0025175 -0.00105432 -0.00149195)
(-0.00229617 -0.00147546 -0.00149195)
(-0.00200507 -0.00185177 -0.00149195)
(-0.00165306 -0.00217181 -0.00149195)
(-0.00125081 -0.00242587 -0.00149195)
(-0.000810563 -0.00260622 -0.00149195)
(-0.000345684 -0.00270737 -0.00149195)
(0.000129699 -0.00272627 -0.00149195)
(0.000601141 -0.00266233 -0.00149195)
(0.00105432 -0.0025175 -0.00149195)
(0.00147546 -0.00229617 -0.00149195)
(0.00185177 -0.00200507 -0.00149195)
(0.00217182 -0.00165306 -0.00149195)
(0.00242587 -0.00125081 -0.00149195)
(0.00260622 -0.000810562 -0.00149195)
(0.00270737 -0.000345683 -0.00149195)
(0.00272627 0.0001297 -0.00149195)
(0.00266233 0.000601142 -0.00149195)
(0.0025175 0.00105432 -0.00149195)
(0.00229617 0.00147546 -0.00149195)
(0.00200507 0.00185177 -0.00149195)
(0.00165306 0.00217182 -0.00149195)
(0.00125081 0.00242587 -0.00149195)
(0.000810563 0.00260622 -0.00149195)
(0.000345685 0.00270737 -0.00149195)
(-0.000129698 0.00272627 -0.00149195)
(-0.00060114 0.00266233 -0.00149195)
(-0.00105432 0.0025175 -0.00149195)
(-0.00136981 0.00122769 -0.00296844)
(-0.00156218 0.000971172 -0.00296844)
(-0.00170709 0.000685147 -0.00296844)
(-0.00180013 0.000378305 -0.00296844)
(-0.00183848 5.99683e-05 -0.00296844)
(-0.00182096 -0.00026019 -0.00296844)
(-0.00174811 -0.000572444 -0.00296844)
(-0.00162215 -0.000867304 -0.00296844)
(-0.0014469 -0.00113581 -0.00296844)
(-0.00122769 -0.00136981 -0.00296844)
(-0.00097117 -0.00156218 -0.00296844)
(-0.000685146 -0.00170709 -0.00296844)
(-0.000378303 -0.00180013 -0.00296844)
(-5.99665e-05 -0.00183847 -0.00296844)
(0.000260192 -0.00182096 -0.00296844)
(0.000572445 -0.00174811 -0.00296844)
(0.000867306 -0.00162215 -0.00296844)
(0.00113581 -0.0014469 -0.00296844)
(0.00136981 -0.00122769 -0.00296844)
(0.00156218 -0.000971169 -0.00296844)
(0.00170709 -0.000685145 -0.00296844)
(0.00180013 -0.000378303 -0.00296844)
(0.00183848 -5.99658e-05 -0.00296844)
(0.00182096 0.000260193 -0.00296844)
(0.00174811 0.000572446 -0.00296844)
(0.00162215 0.000867307 -0.00296844)
(0.0014469 0.00113581 -0.00296844)
(0.00122769 0.00136981 -0.00296844)
(0.000971171 0.00156219 -0.00296844)
(0.000685147 0.00170709 -0.00296844)
(0.000378305 0.00180013 -0.00296844)
(5.99676e-05 0.00183848 -0.00296844)
(-0.000260191 0.00182096 -0.00296844)
(-0.000572444 0.00174811 -0.00296844)
(-0.000867305 0.00162215 -0.00296844)
(-0.00113581 0.0014469 -0.00296844)
(-0.00155551 0.0019486 -0.00251606)
(-0.00187025 0.00164888 -0.00251606)
(-0.00212816 0.00129906 -0.00251606)
(-0.00232141 0.000909779 -0.00251606)
(-0.00244412 0.000492849 -0.00251606)
(-0.00249257 6.09442e-05 -0.00251606)
(-0.00246529 -0.000372812 -0.00251606)
(-0.00236309 -0.000795242 -0.00251606)
(-0.0021891 -0.00119351 -0.00251606)
(-0.00194859 -0.00155551 -0.00251606)
(-0.00164888 -0.00187025 -0.00251606)
(-0.00129906 -0.00212816 -0.00251606)
(-0.000909777 -0.00232141 -0.00251606)
(-0.000492847 -0.00244412 -0.00251606)
(-6.09425e-05 -0.00249257 -0.00251606)
(0.000372814 -0.00246529 -0.00251606)
(0.000795243 -0.00236309 -0.00251606)
(0.00119351 -0.0021891 -0.00251606)
(0.00155551 -0.00194859 -0.00251606)
(0.00187025 -0.00164888 -0.00251606)
(0.00212816 -0.00129906 -0.00251606)
(0.00232141 -0.000909776 -0.00251606)
(0.00244412 -0.000492847 -0.00251606)
(0.00249257 -6.09418e-05 -0.00251606)
(0.00246529 0.000372815 -0.00251606)
(0.0023631 0.000795244 -0.00251606)
(0.0021891 0.00119351 -0.00251606)
(0.0019486 0.00155551 -0.00251606)
(0.00164888 0.00187025 -0.00251606)
(0.00129906 0.00212816 -0.00251606)
(0.000909778 0.00232141 -0.00251606)
(0.000492849 0.00244412 -0.00251606)
(6.09436e-05 0.00249257 -0.00251606)
(-0.000372813 0.00246529 -0.00251606)
(-0.000795242 0.0023631 -0.00251606)
(-0.00119351 0.0021891 -0.00251606)
(-0.00182714 0.00258179 -0.00208808)
(-0.0022477 0.00222529 -0.00208809)
(-0.00259997 0.00180117 -0.00208808)
(-0.00287324 0.00132233 -0.00208808)
(-0.00305921 0.000803308 -0.00208808)
(-0.00315223 0.000259877 -0.00208808)
(-0.00314946 -0.000291449 -0.00208808)
(-0.00305101 -0.000833921 -0.00208809)
(-0.00285985 -0.00135105 -0.00208809)
(-0.00258179 -0.00182714 -0.00208809)
(-0.00222529 -0.0022477 -0.00208809)
(-0.00180117 -0.00259997 -0.00208808)
(-0.00132233 -0.00287324 -0.00208809)
(-0.000803306 -0.00305921 -0.00208809)
(-0.000259875 -0.00315223 -0.00208809)
(0.00029145 -0.00314946 -0.00208809)
(0.000833923 -0.00305101 -0.00208809)
(0.00135106 -0.00285985 -0.00208809)
(0.00182714 -0.00258179 -0.00208809)
(0.0022477 -0.00222529 -0.00208809)
(0.00259997 -0.00180117 -0.00208809)
(0.00287325 -0.00132233 -0.00208809)
(0.00305921 -0.000803306 -0.00208809)
(0.00315223 -0.000259875 -0.00208809)
(0.00314947 0.000291451 -0.00208809)
(0.00305101 0.000833923 -0.00208809)
(0.00285985 0.00135106 -0.00208809)
(0.00258179 0.00182714 -0.00208809)
(0.00222529 0.0022477 -0.00208809)
(0.00180117 0.00259997 -0.00208808)
(0.00132233 0.00287325 -0.00208808)
(0.000803307 0.00305921 -0.00208808)
(0.000259877 0.00315223 -0.00208808)
(-0.000291449 0.00314947 -0.00208808)
(-0.000833922 0.00305101 -0.00208809)
(-0.00135105 0.00285985 -0.00208808)
(-0.00168105 0.00162506 -0.00364191)
(-0.0019377 0.00130846 -0.00364191)
(-0.00213548 0.0009521 -0.00364191)
(-0.00226837 0.000566814 -0.00364191)
(-0.00233233 0.000164305 -0.00364191)
(-0.00232543 -0.000243195 -0.00364191)
(-0.00224787 -0.000643306 -0.00364191)
(-0.00210201 -0.00102387 -0.00364191)
(-0.00189228 -0.00137333 -0.00364191)
(-0.00162506 -0.00168105 -0.00364191)
(-0.00130846 -0.0019377 -0.00364191)
(-0.000952098 -0.00213548 -0.00364191)
(-0.000566812 -0.00226837 -0.00364191)
(-0.000164303 -0.00233233 -0.00364191)
(0.000243197 -0.00232543 -0.00364191)
(0.000643309 -0.00224787 -0.00364191)
(0.00102387 -0.00210201 -0.00364191)
(0.00137333 -0.00189228 -0.00364191)
(0.00168106 -0.00162506 -0.00364191)
(0.0019377 -0.00130845 -0.00364191)
(0.00213548 -0.000952097 -0.00364191)
(0.00226837 -0.000566811 -0.00364191)
(0.00233233 -0.000164302 -0.00364191)
(0.00232543 0.000243198 -0.00364191)
(0.00224787 0.000643309 -0.00364191)
(0.00210201 0.00102387 -0.00364191)
(0.00189228 0.00137333 -0.00364191)
(0.00162506 0.00168106 -0.00364191)
(0.00130846 0.00193771 -0.00364191)
(0.000952099 0.00213548 -0.00364191)
(0.000566814 0.00226837 -0.00364191)
(0.000164304 0.00233233 -0.00364191)
(-0.000243196 0.00232543 -0.00364191)
(-0.000643307 0.00224787 -0.00364191)
(-0.00102387 0.00210201 -0.00364191)
(-0.00137333 0.00189228 -0.00364191)
(-0.00189337 0.00226462 -0.00316969)
(-0.00225785 0.00190143 -0.00316969)
(-0.00255373 0.00148047 -0.00316969)
(-0.00277201 0.00101453 -0.00316969)
(-0.00290607 0.000517763 -0.00316969)
(-0.00295183 5.26479e-06 -0.00316969)
(-0.0029079 -0.000507395 -0.00316969)
(-0.00277561 -0.00100464 -0.00316969)
(-0.00255899 -0.00147136 -0.00316969)
(-0.00226461 -0.00189337 -0.00316969)
(-0.00190143 -0.00225785 -0.00316969)
(-0.00148047 -0.00255373 -0.00316969)
(-0.00101453 -0.00277201 -0.00316969)
(-0.000517761 -0.00290607 -0.00316969)
(-5.26277e-06 -0.00295183 -0.00316969)
(0.000507397 -0.0029079 -0.00316969)
(0.00100464 -0.00277561 -0.00316969)
(0.00147136 -0.00255899 -0.00316969)
(0.00189337 -0.00226461 -0.00316969)
(0.00225785 -0.00190143 -0.00316969)
(0.00255373 -0.00148047 -0.00316969)
(0.00277201 -0.00101453 -0.00316969)
(0.00290607 -0.00051776 -0.00316969)
(0.00295183 -5.26199e-06 -0.00316969)
(0.0029079 0.000507398 -0.00316969)
(0.00277561 0.00100464 -0.00316969)
(0.00255899 0.00147136 -0.00316969)
(0.00226462 0.00189337 -0.00316969)
(0.00190143 0.00225785 -0.00316969)
(0.00148047 0.00255373 -0.00316969)
(0.00101453 0.00277201 -0.00316969)
(0.000517762 0.00290607 -0.00316969)
(5.26416e-06 0.00295183 -0.00316969)
(-0.000507396 0.0029079 -0.00316969)
(-0.00100464 0.00277561 -0.00316969)
(-0.00147136 0.00255899 -0.00316969)
(-0.0021824 0.00280752 -0.00272511)
(-0.00263677 0.00238589 -0.00272511)
(-0.00301101 0.00189178 -0.00272511)
(-0.00329377 0.00134018 -0.00272511)
(-0.00347645 0.000747863 -0.00272511)
(-0.0035535 0.000132823 -0.00272511)
(-0.00352258 -0.000486254 -0.00272511)
(-0.00338463 -0.00109056 -0.00272511)
(-0.00314383 -0.00166172 -0.00272511)
(-0.00280751 -0.0021824 -0.00272511)
(-0.00238589 -0.00263676 -0.00272511)
(-0.00189178 -0.00301101 -0.00272511)
(-0.00134018 -0.00329377 -0.00272511)
(-0.000747861 -0.00347645 -0.00272511)
(-0.000132821 -0.0035535 -0.00272511)
(0.000486256 -0.00352258 -0.00272511)
(0.00109056 -0.00338463 -0.00272511)
(0.00166173 -0.00314383 -0.00272511)
(0.0021824 -0.00280751 -0.00272511)
(0.00263677 -0.00238589 -0.00272511)
(0.00301101 -0.00189178 -0.00272511)
(0.00329377 -0.00134018 -0.00272511)
(0.00347645 -0.000747861 -0.00272511)
(0.0035535 -0.00013282 -0.00272511)
(0.00352258 0.000486257 -0.00272511)
(0.00338463 0.00109056 -0.00272511)
(0.00314383 0.00166173 -0.00272511)
(0.00280752 0.0021824 -0.00272511)
(0.00238589 0.00263677 -0.00272511)
(0.00189178 0.00301102 -0.00272511)
(0.00134018 0.00329377 -0.00272511)
(0.000747863 0.00347645 -0.00272511)
(0.000132823 0.0035535 -0.00272511)
(-0.000486255 0.00352258 -0.00272511)
(-0.00109056 0.00338463 -0.00272511)
(-0.00166172 0.00314384 -0.00272511)
(-0.00204116 0.00196718 -0.00434048)
(-0.00235175 0.00158285 -0.00434048)
(-0.00259088 0.00115043 -0.00434048)