/*--------------------------------*- C++ -*----------------------------------*\
| =========                 |                                                 |
| \\      /  F ield         | OpenFOAM: The Open Source CFD Toolbox           |
|  \\    /   O peration     | Version:  2312                                  |
|   \\  /    A nd           | Website:  www.openfoam.com                      |
|    \\/     M anipulation  |                                                 |
\*---------------------------------------------------------------------------*/
FoamFile
{
    version     2.0;
    format      ascii;
    arch        "LSB;label=32;scalar=64";
    class       volVectorField;
    location    "0.3";
    object      U;
}
// * * * * * * * * * * * * * * * * * * * * * * * * * * * * * * * * * * * * * //

dimensions      [0 1 -1 0 0 0 0];

internalField   nonuniform List<vector> 
1620
(
(-0.000189109 0.000133239 -0.000214577)
(-0.000158698 0.000276994 -0.00019827)
(-0.000122528 0.000370928 -0.000165524)
(-8.14749e-05 0.00041903 -0.000115981)
(-3.06332e-05 0.000438743 -4.52154e-05)
(2.82242e-05 0.000451077 5.07255e-05)
(8.26869e-05 0.000472969 0.000175773)
(0.000112527 0.000508909 0.000327453)
(0.000119344 0.000538397 0.00046328)
(0.000101277 0.000547787 0.000454051)
(5.54641e-05 0.000528593 0.000323792)
(2.5831e-05 0.000492041 0.000194782)
(2.03785e-05 0.000458828 9.10701e-05)
(2.43235e-05 0.000430548 9.98318e-06)
(2.69652e-05 0.000396046 -5.38878e-05)
(2.61015e-05 0.000339771 -0.000105777)
(2.37273e-05 0.000247835 -0.000150175)
(1.33226e-05 0.000115282 -0.000182933)
(-1.48196e-05 -4.1666e-05 -0.000177885)
(-5.34616e-05 -0.000180143 -0.000135862)
(-8.52239e-05 -0.000281364 -8.69361e-05)
(-0.000104863 -0.000345042 -3.62861e-05)
(-0.000118591 -0.000380092 1.96636e-05)
(-0.000132343 -0.000401167 8.7397e-05)
(-0.000144872 -0.000424202 0.00017777)
(-0.000145825 -0.000457705 0.000300617)
(-0.0001443 -0.000484827 0.000426773)
(-0.000132579 -0.000493427 0.000424459)
(-0.000103285 -0.000474359 0.000310901)
(-9.7035e-05 -0.000440489 0.000192699)
(-0.000118011 -0.000410557 9.30135e-05)
(-0.000148996 -0.000384869 1.26383e-05)
(-0.000175706 -0.000350197 -5.15101e-05)
(-0.000193328 -0.000288307 -0.000104509)
(-0.000204237 -0.000183936 -0.000152941)
(-0.0002051 -3.4635e-05 -0.000197141)
(3.83763e-05 6.60416e-05 -0.000127832)
(5.08986e-05 0.000201677 -8.7117e-05)
(5.10056e-05 0.000286169 -5.08843e-05)
(4.65413e-05 0.000326307 -8.64944e-06)
(4.51052e-05 0.000330319 4.19059e-05)
(4.9816e-05 0.000311898 9.76451e-05)
(6.04393e-05 0.00028411 0.000153365)
(7.65435e-05 0.000257629 0.000202292)
(0.000102435 0.000243788 0.000234194)
(0.000118375 0.000251854 0.000232296)
(0.000120516 0.000277691 0.000202541)
(0.000105636 0.000309914 0.000160568)
(8.21647e-05 0.000342155 0.000115359)
(5.01511e-05 0.000367038 7.15761e-05)
(8.23283e-06 0.000373523 3.25421e-05)
(-4.25585e-05 0.000348492 -1.84479e-07)
(-9.63547e-05 0.000282183 -2.93074e-05)
(-0.000145741 0.000161146 -6.19755e-05)
(-0.000175193 7.62498e-06 -5.14633e-05)
(-0.000179787 -0.000120901 -3.29444e-06)
(-0.000169179 -0.00020476 3.17567e-05)
(-0.000149609 -0.000250183 6.42847e-05)
(-0.000128521 -0.000262895 9.80441e-05)
(-0.000111178 -0.000253333 0.000132795)
(-0.000101405 -0.000231774 0.000167832)
(-0.000103305 -0.000207268 0.00020122)
(-0.000124323 -0.000191512 0.000224581)
(-0.00014542 -0.000194756 0.000217911)
(-0.00015995 -0.000216916 0.000185652)
(-0.000164666 -0.000249283 0.000141119)
(-0.000163608 -0.000284852 9.19572e-05)
(-0.00015311 -0.000314201 4.29998e-05)
(-0.000128761 -0.000323681 -2.1807e-06)
(-8.988e-05 -0.000297889 -4.22517e-05)
(-4.22385e-05 -0.000226025 -8.0595e-05)
(5.3559e-06 -9.65241e-05 -0.000125663)
(0.000211006 -1.05095e-05 -1.32185e-05)
(0.000198254 0.000111765 1.47967e-05)
(0.000154942 0.000185666 4.39883e-05)
(0.000102359 0.000209941 7.30043e-05)
(5.33146e-05 0.000192949 0.000100145)
(1.67918e-05 0.000148451 0.000118708)
(1.64683e-06 9.23169e-05 0.000118759)
(1.78094e-05 4.18073e-05 9.35159e-05)
(7.56189e-05 1.47353e-05 5.51801e-05)
(0.000157116 1.93779e-05 5.46424e-05)
(0.000208185 5.95313e-05 9.52478e-05)
(0.000217461 0.000127654 0.000117296)
(0.000191274 0.000206049 0.000116342)
(0.000136836 0.000277862 0.000103078)
(5.98178e-05 0.000326971 8.79909e-05)
(-3.37469e-05 0.000337188 7.78823e-05)
(-0.000132079 0.000295125 7.44895e-05)
(-0.000209422 0.000195458 7.58017e-05)
(-0.000237227 6.87958e-05 8.83402e-05)
(-0.000214827 -4.13517e-05 0.000106503)
(-0.000166914 -0.000105639 0.000119705)
(-0.00011442 -0.000125765 0.00013144)
(-6.78526e-05 -0.000111401 0.000142822)
(-3.34959e-05 -7.48496e-05 0.000148769)
(-1.89613e-05 -2.80064e-05 0.000139836)
(-3.5105e-05 1.60898e-05 0.000107951)
(-9.27573e-05 4.08682e-05 6.24137e-05)
(-0.000174253 3.56642e-05 5.18089e-05)
(-0.000228304 -6.34185e-06 8.1502e-05)
(-0.000247472 -7.78784e-05 9.35582e-05)
(-0.000233388 -0.000161743 8.33047e-05)
(-0.000188519 -0.000239599 6.0259e-05)
(-0.00011584 -0.000292885 3.37201e-05)
(-2.08889e-05 -0.000303555 9.64237e-06)
(8.37055e-05 -0.000257634 -9.94602e-06)
(0.000171279 -0.000150342 -2.28177e-05)
(-0.000323596 0.000365867 -0.000596964)
(-0.000277069 0.000807346 -0.000556907)
(-0.000241951 0.00109569 -0.000455522)
(-0.000201072 0.00123219 -0.000302134)
(-0.000134453 0.00126083 -9.06861e-05)
(-3.83241e-05 0.00123722 0.000186686)
(7.17411e-05 0.00121042 0.000531751)
(0.000169722 0.00120783 0.000918345)
(0.00025558 0.00121758 0.00123662)
(0.000315479 0.00122476 0.00126471)
(0.000295206 0.0012197 0.00100655)
(0.000256598 0.00121077 0.000682882)
(0.000224292 0.00120868 0.000388636)
(0.00018869 0.00119844 0.000144722)
(0.00013875 0.00114621 -5.3279e-05)
(7.31884e-05 0.00100995 -0.00021716)
(-1.28395e-06 0.000750335 -0.000354177)
(-8.20923e-05 0.000355751 -0.000445352)
(-0.000158192 -0.000108068 -0.00043531)
(-0.000213743 -0.000520095 -0.000325022)
(-0.00024122 -0.000803512 -0.000181373)
(-0.000245466 -0.000958557 -3.00061e-05)
(-0.000243408 -0.00101794 0.000133821)
(-0.000248741 -0.00102485 0.000328053)
(-0.000265628 -0.00102131 0.000575032)
(-0.000290506 -0.00103496 0.000877848)
(-0.000343528 -0.00105599 0.0011553)
(-0.00041071 -0.00107007 0.00119423)
(-0.00043291 -0.00107012 0.000970202)
(-0.000459158 -0.00107015 0.000670203)
(-0.000500579 -0.00107954 0.000383518)
(-0.000535879 -0.00107859 0.000136538)
(-0.000542955 -0.00102606 -6.96989e-05)
(-0.000514171 -0.000872997 -0.000246119)
(-0.000458385 -0.00057831 -0.00040561)
(-0.000388038 -0.000137303 -0.000539809)
(4.83527e-05 0.000176029 -0.000398571)
(7.82734e-05 0.000569289 -0.000306858)
(7.00375e-05 0.000820677 -0.000183235)
(5.0908e-05 0.000939125 -3.17382e-05)
(4.4086e-05 0.000953069 0.000146967)
(6.11055e-05 0.000903989 0.000346275)
(0.000104119 0.000832534 0.00055201)
(0.000172121 0.000770995 0.000739332)
(0.000265967 0.000741851 0.000866901)
(0.000350465 0.000760211 0.000884751)
(0.000389365 0.000822941 0.000793645)
(0.00037442 0.000909575 0.000642139)
(0.00031961 0.001001 0.000471618)
(0.000229618 0.001072 0.000305498)
(0.000106773 0.00108835 0.000155766)
(-4.14901e-05 0.00101149 2.68285e-05)
(-0.000197113 0.000809963 -8.14833e-05)
(-0.000335127 0.000461571 -0.000161739)
(-0.000417662 3.72173e-05 -0.000137052)
(-0.000433183 -0.000332233 -1.90685e-05)
(-0.000404413 -0.000574616 0.000104235)
(-0.000353346 -0.000700686 0.000226567)
(-0.000300979 -0.000734366 0.00035102)
(-0.000262731 -0.000709276 0.000479786)
(-0.000250578 -0.00065829 0.000612124)
(-0.000275995 -0.000608561 0.000738554)
(-0.000349546 -0.000581412 0.000828312)
(-0.000440255 -0.000594794 0.000830322)
(-0.000509926 -0.000654145 0.000734006)
(-0.000546406 -0.000745206 0.000577063)
(-0.000551777 -0.000848033 0.000395614)
(-0.000519107 -0.000932257 0.00021268)
(-0.000441401 -0.000956332 4.07884e-05)
(-0.000321405 -0.000875247 -0.000116053)
(-0.000178098 -0.000655034 -0.000259107)
(-4.17184e-05 -0.000278348 -0.000381446)
(0.00036443 -2.5681e-05 -0.00016228)
(0.000374488 0.000307914 -6.17399e-05)
(0.000321336 0.000526224 7.08519e-05)
(0.000242138 0.000624101 0.000214003)
(0.000164663 0.000621667 0.000354857)
(0.000110893 0.000551882 0.000474222)
(0.000100515 0.000453179 0.000545937)
(0.000150093 0.000365617 0.000551237)
(0.000272861 0.000325932 0.000515556)
(0.000418412 0.000353278 0.000528275)
(0.000513253 0.000451016 0.000575749)
(0.00052739 0.000601519 0.000577783)
(0.000461405 0.000769536 0.000523929)
(0.000327238 0.000916237 0.000435003)
(0.000139257 0.00100122 0.000336886)
(-8.36572e-05 0.000984621 0.000249168)
(-0.000310757 0.000835695 0.000183776)
(-0.000491308 0.000549118 0.000154049)
(-0.000576997 0.000195341 0.000188465)
(-0.000563229 -0.000116483 0.000271235)
(-0.000487267 -0.000319503 0.000362645)
(-0.00038847 -0.00041247 0.00045177)
(-0.0002934 -0.000416781 0.000533869)
(-0.000222193 -0.000361765 0.000596037)
(-0.000195104 -0.000278076 0.000616607)
(-0.00023219 -0.000198345 0.00057882)
(-0.000348872 -0.000157962 0.000508778)
(-0.000493904 -0.000182027 0.000490104)
(-0.000602336 -0.000280192 0.000504883)
(-0.000648047 -0.000437388 0.00047673)
(-0.00062183 -0.00061888 0.000394238)
(-0.000524582 -0.000781762 0.000274417)
(-0.000363423 -0.000879083 0.000139354)
(-0.000154925 -0.000865588 6.85798e-06)
(6.96306e-05 -0.000708751 -0.000108276)
(0.000259486 -0.000405073 -0.000180877)
(-0.000415859 0.000508674 -0.000872001)
(-0.000352249 0.00117817 -0.000829371)
(-0.000314534 0.00162692 -0.000671697)
(-0.000269419 0.00185084 -0.000412966)
(-0.000187747 0.00190789 -4.79114e-05)
(-6.38283e-05 0.00187301 0.00042822)
(8.57208e-05 0.00181384 0.00100223)
(0.000234604 0.00177493 0.00161476)
(0.000375964 0.00176505 0.00211626)
(0.000488969 0.00178043 0.00224499)
(0.000506186 0.00180774 0.00193166)
(0.000459058 0.00184103 0.00144067)
(0.000392924 0.00187449 0.000944045)
(0.000312003 0.00187697 0.000506922)
(0.00020984 0.00180091 0.000144252)
(8.34975e-05 0.0015899 -0.00015055)
(-5.98563e-05 0.00119167 -0.000382082)
(-0.000206679 0.000594551 -0.000522582)
(-0.000326959 -0.000101111 -0.000511937)
(-0.000397569 -0.000724201 -0.000354046)
(-0.00042103 -0.00115716 -0.000128167)
(-0.000414275 -0.00139668 0.000124419)
(-0.000401276 -0.00149013 0.000404499)
(-0.000399048 -0.00149838 0.000732797)
(-0.000415811 -0.00147831 0.00112964)
(-0.00045579 -0.00147028 0.00158108)
(-0.000538855 -0.00148337 0.0019846)
(-0.000653554 -0.00151396 0.00210488)
(-0.000735513 -0.00155194 0.00183229)
(-0.000787416 -0.00159842 0.00137412)
(-0.000834879 -0.00164926 0.000887879)
(-0.000862278 -0.00166646 0.000443145)
(-0.000845897 -0.00159103 6.14889e-05)
(-0.000773642 -0.00135687 -0.000263042)
(-0.000656655 -0.000909667 -0.000543735)
(-0.00052345 -0.000247241 -0.000766632)
(-7.48086e-06 0.000238386 -0.000614908)
(5.20593e-05 0.000823595 -0.00049092)
(5.85489e-05 0.0012073 -0.00028118)
(5.08107e-05 0.00139831 -8.95683e-06)
(6.05233e-05 0.00143656 0.00031765)
(0.000103149 0.00138021 0.000684867)
(0.000180835 0.00128776 0.00106532)
(0.000289291 0.00120692 0.00141243)
(0.000423198 0.00117054 0.00165723)
(0.000545793 0.00119869 0.00172116)
(0.000613074 0.00129261 0.00158845)
(0.000599358 0.00142736 0.00133026)
(0.000519497 0.00156755 0.00102124)
(0.000383878 0.00167126 0.00071027)
(0.000200034 0.00168752 0.000425045)
(-1.95549e-05 0.00156215 0.000179263)
(-0.000249482 0.0012522 -1.79822e-05)
(-0.000453869 0.00073465 -0.000138502)
(-0.000584979 0.00011513 -0.000103221)
(-0.00062603 -0.00043231 6.88753e-05)
(-0.000602189 -0.00080037 0.000279956)
(-0.000545872 -0.000999253 0.000500914)
(-0.000486789 -0.00106353 0.000728472)
(-0.000446622 -0.00104143 0.00096375)
(-0.000441416 -0.000980984 0.00120258)
(-0.000484217 -0.000922274 0.00142538)
(-0.000583729 -0.000895053 0.00158552)
(-0.00071204 -0.000921106 0.00160917)
(-0.00082447 -0.00101223 0.00146211)
(-0.000886756 -0.00115422 0.00119321)
(-0.000897116 -0.00131156 0.000864423)
(-0.00084843 -0.00143518 0.000521594)
(-0.000733639 -0.00146319 0.000192691)
(-0.000557638 -0.00133125 -0.000108648)
(-0.000347396 -0.000992207 -0.000373782)
(-0.000146761 -0.000429911 -0.000573472)
(0.000370215 -4.41128e-05 -0.000318185)
(0.00041969 0.00044403 -0.000150548)
(0.000392036 0.000771155 9.56479e-05)
(0.000329323 0.000929951 0.000375011)
(0.000265967 0.000947855 0.00065825)
(0.000229968 0.000870476 0.000913005)
(0.000243488 0.000751607 0.00110035)
(0.000320909 0.000646 0.00118934)
(0.000465221 0.000602923 0.00119484)
(0.000632669 0.000653487 0.00121459)
(0.000748499 0.000798753 0.00124074)
(0.000766054 0.00101228 0.00119798)
(0.00067707 0.00124642 0.00107224)
(0.000491997 0.0014463 0.000889086)
(0.000230765 0.00155328 0.000686006)
(-7.70619e-05 0.00151087 0.000496917)
(-0.000387344 0.001279 0.000351178)
(-0.000638115 0.000857005 0.000284633)
(-0.000775587 0.000343407 0.000338231)
(-0.000792374 -0.000112667 0.000486872)
(-0.000726472 -0.000421604 0.000669427)
(-0.000624384 -0.000577804 0.000854422)
(-0.000522387 -0.000608321 0.00102626)
(-0.000449514 -0.000553272 0.00116567)
(-0.000430621 -0.000456556 0.00124517)
(-0.000484542 -0.000363391 0.00124161)
(-0.000617342 -0.000320097 0.0011727)
(-0.000787562 -0.000364869 0.00113144)
(-0.00092748 -0.000508096 0.0011013)
(-0.000992572 -0.000729822 0.00100735)
(-0.000964196 -0.000983528 0.000830636)
(-0.000838299 -0.00120833 0.000589621)
(-0.000623731 -0.00133505 0.000316208)
(-0.000345261 -0.00129746 4.34039e-05)
(-4.65724e-05 -0.00105131 -0.000192388)
(0.000210629 -0.000598592 -0.000336357)
(-0.000491165 0.000538134 -0.000906764)
(-0.000406086 0.00133582 -0.000895858)
(-0.000354473 0.0018923 -0.000723267)
(-0.000297216 0.00219413 -0.000397219)
(-0.000201825 0.00229759 8.4512e-05)
(-6.03816e-05 0.00228087 0.000716348)
(0.000113254 0.00221886 0.00146555)
(0.000295133 0.00216887 0.00224854)
(0.000470252 0.00216155 0.00290346)
(0.000623363 0.00220413 0.00315977)
(0.000693453 0.00227435 0.00287964)
(0.000638207 0.00235093 0.00231005)
(0.000531906 0.00241624 0.00167279)
(0.000397418 0.00242317 0.0010776)
(0.000239927 0.00231697 0.000571137)
(5.90894e-05 0.00203979 0.000164699)
(-0.00013759 0.00154348 -0.000137837)
(-0.000330502 0.000828013 -0.000309916)
(-0.000483872 8.69998e-06 -0.000309652)
(-0.000571602 -0.000731653 -0.00014581)
(-0.000598795 -0.00126237 0.000114488)
(-0.000590232 -0.00157123 0.000426995)
(-0.000574591 -0.00170639 0.000786331)
(-0.000571178 -0.00173393 0.00120703)
(-0.000590801 -0.00171729 0.00169968)
(-0.00064106 -0.00170668 0.00223872)
(-0.000734804 -0.00173127 0.00272331)
(-0.000875242 -0.00179896 0.00292686)
(-0.0010191 -0.00188941 0.00268351)
(-0.0010862 -0.00198442 0.0021521)
(-0.00112132 -0.00207161 0.00152807)
(-0.00112106 -0.00209727 0.0009224)
(-0.00107057 -0.00199371 0.00038619)
(-0.000959739 -0.00169233 -6.99056e-05)
(-0.000800813 -0.00114257 -0.000451862)
(-0.000629242 -0.00035387 -0.000746494)
(-0.000127453 0.000237447 -0.000640395)
(-3.07282e-05 0.000930661 -0.000518204)
(1.05014e-05 0.00140286 -0.000260401)
(3.6813e-05 0.00165684 9.92391e-05)
(8.10215e-05 0.00173584 0.000544241)
(0.000158536 0.00170321 0.00105132)
(0.000269857 0.0016245 0.00157954)
(0.000407371 0.00155516 0.00206534)
(0.000562074 0.00153468 0.00242267)
(0.000705049 0.00158246 0.00255269)
(0.000791294 0.00170161 0.00242314)
(0.00077508 0.0018689 0.00210784)
(0.000672935 0.00203552 0.00169984)
(0.000502625 0.00214901 0.00127127)
(0.000277827 0.00215035 0.000869791)
(1.47256e-05 0.0019805 0.000524429)
(-0.000259018 0.00159521 0.000257791)
(-0.000504781 0.000982053 0.000111472)
(-0.000675506 0.000260532 0.000145827)
(-0.00075147 -0.000385174 0.000335856)
(-0.000753579 -0.000836801 0.000594899)
(-0.000717438 -0.00109675 0.000880467)
(-0.000676 -0.00120241 0.00118156)
(-0.000652816 -0.00120732 0.00149482)
(-0.000663592 -0.00116628 0.00181069)
(-0.000719154 -0.00112619 0.0021023)
(-0.000826571 -0.00112242 0.00231631)
(-0.000970592 -0.00117346 0.0023685)
(-0.00110836 -0.0012924 0.00220863)
(-0.00118348 -0.00146965 0.00187579)
(-0.00119153 -0.00165714 0.00144028)
(-0.00112868 -0.00179461 0.000966103)
(-0.000990941 -0.00181052 0.000499238)
(-0.000785168 -0.00163348 6.88311e-05)
(-0.00054045 -0.00121373 -0.000301189)
(-0.000303881 -0.000545631 -0.000564699)
(0.000236998 -7.44148e-05 -0.000340851)
(0.000334279 0.000503216 -0.00013643)
(0.000357296 0.000899744 0.000189851)
(0.000346156 0.00110743 0.000576936)
(0.000333469 0.00115869 0.000981796)
(0.000344162 0.00110524 0.00136134)
(0.000394956 0.0010067 0.00166711)
(0.000493904 0.000920739 0.00185683)
(0.000636853 0.000896684 0.00192765)
(0.000805337 0.000970768 0.00195849)
(0.00092035 0.00114337 0.00196483)
(0.000934354 0.00138625 0.00188799)
(0.000833792 0.00164764 0.00170615)
(0.000626194 0.00186606 0.00144606)
(0.000332476 0.00197401 0.00115396)
(-1.39403e-05 0.00190694 0.000877895)
(-0.000364688 0.0016214 0.000665442)
(-0.00065744 0.00112303 0.000569422)
(-0.000839185 0.000522988 0.00063098)
(-0.000900244 -1.52205e-05 0.000818557)
(-0.000874972 -0.000393545 0.00106226)
(-0.000808913 -0.000602801 0.0013169)
(-0.00073977 -0.000672201 0.00155776)
(-0.000696994 -0.000646666 0.0017614)
(-0.000702065 -0.000575624 0.00189811)
(-0.000768047 -0.000506716 0.00193976)
(-0.000893295 -0.000484655 0.00188877)
(-0.00106862 -0.000551953 0.00182055)
(-0.00121422 -0.000720638 0.00174581)
(-0.00128487 -0.000971923 0.00159952)
(-0.00125811 -0.0012557 0.00134641)
(-0.00112562 -0.00150366 0.00100217)
(-0.000894289 -0.00163548 0.000605922)
(-0.000590201 -0.00157361 0.000206321)
(-0.000259929 -0.00126805 -0.000137222)
(3.4354e-05 -0.000727281 -0.000345677)
(-0.000563954 0.000466825 -0.000652888)
(-0.000462329 0.00130013 -0.000703934)
(-0.00039009 0.00190752 -0.000565515)
(-0.000311226 0.00226721 -0.000229849)
(-0.000195774 0.00242574 0.000305195)
(-3.50847e-05 0.00245485 0.00102402)
(0.000159408 0.00242786 0.00187854)
(0.000364877 0.00240671 0.00277158)
(0.000560189 0.00243462 0.00353942)
(0.000737115 0.00252547 0.00392916)
(0.000843243 0.00264516 0.0037655)
(0.000775273 0.00275554 0.00320819)
(0.000628811 0.00283937 0.00250907)
(0.000440671 0.00283965 0.00181886)
(0.000230598 0.00270011 0.00121764)
(6.50571e-06 0.00237091 0.000738857)
(-0.00022222 0.00182009 0.000395202)
(-0.000436483 0.00106572 0.000203134)
(-0.000605908 0.000221847 0.000178068)
(-0.000708416 -0.000546719 0.000307141)
(-0.000749057 -0.00111922 0.000546395)
(-0.00075382 -0.00147522 0.000861293)
(-0.000751953 -0.0016548 0.00124335)
(-0.000762945 -0.00172015 0.00169831)
(-0.000796904 -0.00173481 0.00222615)
(-0.000859635 -0.00175344 0.00279518)
(-0.000957693 -0.00181689 0.0033121)
(-0.00110369 -0.00194051 0.00358691)
(-0.00127077 -0.00209212 0.00344278)
(-0.00133903 -0.00222999 0.00292554)
(-0.00134815 -0.00234007 0.00224477)
(-0.00130716 -0.002363 0.00154631)
(-0.00121633 -0.00223055 0.000909371)
(-0.00107482 -0.00188209 0.000364606)
(-0.000896237 -0.00128198 -8.48939e-05)
(-0.0007133 -0.000455211 -0.000433098)
(-0.000294699 0.000177205 -0.000417268)
(-0.000163135 0.000903958 -0.000330562)
(-7.83098e-05 0.00142042 -7.62223e-05)
(-4.47908e-06 0.00172197 0.000315187)
(8.68153e-05 0.00185032 0.000823586)
(0.000207459 0.00186646 0.0014185)
(0.000354594 0.0018342 0.00204867)
(0.000517244 0.00180856 0.00263869)
(0.000684038 0.00182887 0.00309216)
(0.000834877 0.0019104 0.00330298)
(0.000924777 0.00205498 0.00322369)
(0.000900679 0.00224118 0.00290893)
(0.00077908 0.00241388 0.00245762)
(0.000584174 0.00251792 0.00196093)
(0.000335481 0.00249457 0.00148623)
(5.21369e-05 0.00228886 0.00107874)
(-0.000239547 0.00186304 0.00077266)
(-0.000504601 0.00121979 0.000610713)
(-0.000702553 0.000475957 0.000628735)
(-0.000814079 -0.000197823 0.00079862)
(-0.000854698 -0.000689776 0.00105328)
(-0.000857505 -0.000993709 0.00135121)
(-0.000853821 -0.00114483 0.00167776)
(-0.000864984 -0.00119538 0.00202498)
(-0.000902851 -0.00119988 0.00237797)
(-0.000973717 -0.00120543 0.0027049)
(-0.00108235 -0.00124689 0.00295066)
(-0.00122411 -0.00133791 0.0030363)
(-0.00136214 -0.0014874 0.00290323)
(-0.00143569 -0.0016859 0.00256187)
(-0.0014342 -0.00188172 0.00207808)
(-0.00135772 -0.0020121 0.00152738)
(-0.00120737 -0.00200578 0.000971309)
(-0.000992593 -0.00179491 0.000454344)
(-0.000740378 -0.00133509 1.38612e-05)
(-0.000492882 -0.000633928 -0.000298069)
(5.07096e-06 -0.000122949 -0.000156565)
(0.000150416 0.000488159 4.67667e-05)
(0.000233925 0.00091955 0.000401314)
(0.000291153 0.00116369 0.000842793)
(0.000348367 0.00125652 0.00132283)
(0.000421833 0.00125073 0.00179275)
(0.000518852 0.00120327 0.00219738)
(0.000640404 0.00116575 0.0024836)
(0.000779754 0.00117972 0.00262763)
(0.000938334 0.00127907 0.00267925)
(0.0010409 0.00146864 0.00268441)
(0.00104713 0.00172055 0.00260022)
(0.000942866 0.00198193 0.002393)
(0.000733608 0.00219279 0.00209027)
(0.000438137 0.00228683 0.00174521)
(8.74693e-05 0.00219996 0.001417)
(-0.000273427 0.00188953 0.00116563)
(-0.000587604 0.00136599 0.00105009)
(-0.000805421 0.000739881 0.00110462)
(-0.000914864 0.000170938 0.00129475)
(-0.000945131 -0.000243515 0.00155219)
(-0.000937589 -0.00049255 0.00182984)
(-0.00092603 -0.000606502 0.0021005)
(-0.000934155 -0.000630744 0.00233953)
(-0.000975785 -0.000613154 0.00251646)
(-0.00105717 -0.000596128 0.00259887)
(-0.00117421 -0.000615182 0.00257181)
(-0.00133617 -0.000706419 0.0024805)
(-0.00146949 -0.000889771 0.00237784)
(-0.00153615 -0.00114903 0.00220721)
(-0.00151283 -0.001433 0.00191193)
(-0.00138857 -0.00167446 0.00150436)
(-0.00116651 -0.00179358 0.00102797)
(-0.000868803 -0.00171193 0.000542841)
(-0.000537486 -0.00137873 0.00012465)
(-0.000229071 -0.000807022 -0.000134498)
(-0.000640104 0.000319689 -0.000125182)
(-0.000534063 0.00111909 -0.000257411)
(-0.000442546 0.00172811 -0.000194323)
(-0.000335894 0.00212132 9.34e-05)
(-0.00019153 0.00233437 0.000613333)
(-3.98852e-06 0.00242866 0.0013451)
(0.000215209 0.00247008 0.00223288)
(0.000443444 0.002517 0.00317586)
(0.000655688 0.00261292 0.00401767)
(0.00083834 0.00276977 0.00454101)
(0.000941067 0.00294197 0.00454762)
(0.000862757 0.00307687 0.00407543)
(0.000682822 0.00316468 0.00339116)
(0.000448332 0.00314978 0.00267762)
(0.000194482 0.00297958 0.00204112)
(-5.87544e-05 0.00261778 0.00153413)
(-0.000298707 0.00205346 0.00117513)
(-0.000511256 0.00132203 0.000967115)
(-0.000678665 0.000525877 0.000902199)
(-0.000789768 -0.000203604 0.000965765)
(-0.000851253 -0.00076881 0.00113756)
(-0.000885515 -0.00114641 0.00140007)
(-0.000917028 -0.00136628 0.00174713)
(-0.000961369 -0.00148222 0.00217816)
(-0.00102441 -0.00155286 0.00268517)
(-0.00110702 -0.00163112 0.00323509)
(-0.00120988 -0.0017584 0.00374895)
(-0.00133925 -0.00195005 0.0040857)
(-0.00147727 -0.00216633 0.00407122)
(-0.00153921 -0.0023456 0.00364044)
(-0.00151454 -0.00246632 0.0029854)
(-0.0014283 -0.00247959 0.00227235)
(-0.00129731 -0.0023244 0.00160135)
(-0.00113364 -0.00195393 0.00102032)
(-0.000953147 -0.00135128 0.000539178)
(-0.000780775 -0.000554676 0.000154305)
(-0.000488888 7.08139e-05 5.51409e-05)
(-0.000332688 0.000775369 7.93374e-05)
(-0.00020663 0.00129774 0.00028288)
(-8.18828e-05 0.00162836 0.000648673)
(6.2673e-05 0.00180566 0.00115946)
(0.000232596 0.00188503 0.00178241)
(0.00041983 0.0019232 0.0024611)
(0.000609283 0.00196788 0.00311455)
(0.000786184 0.00205147 0.00364331)
(0.000934261 0.00218358 0.00394385)
(0.00101316 0.00235905 0.00395025)
(0.000979604 0.00255455 0.003685)
(0.000843555 0.00271964 0.00324634)
(0.000633307 0.00280316 0.00273815)
(0.000373802 0.00275296 0.00224213)
(8.711e-05 0.00252386 0.00181568)
(-0.0002033 0.00208914 0.00149918)
(-0.000469499 0.00146494 0.00132745)
(-0.000680861 0.000755885 0.00131408)
(-0.000822146 0.000106152 0.00143151)
(-0.000905166 -0.000387992 0.00163456)
(-0.000957816 -0.000715531 0.00189333)
(-0.00100622 -0.000908067 0.00219524)
(-0.00106605 -0.00101351 0.00252999)
(-0.00114263 -0.00108145 0.00287907)
(-0.0012357 -0.0011535 0.00320876)
(-0.00134512 -0.00125799 0.00346767)
(-0.0014695 -0.00140453 0.00358999)
(-0.00158561 -0.00159126 0.00351054)
(-0.00164692 -0.00180213 0.00320808)
(-0.00163054 -0.00199318 0.00273637)
(-0.00154012 -0.00210574 0.00217333)
(-0.00138316 -0.00207615 0.00158921)
(-0.00117247 -0.00184683 0.00103895)
(-0.000931175 -0.00138355 0.000567425)
(-0.000692271 -0.000704851 0.000223588)
(-0.000284472 -0.000188533 0.000252064)
(-9.80041e-05 0.000413363 0.000418564)
(4.36608e-05 0.000851164 0.000749816)
(0.000170903 0.00111823 0.00118885)
(0.000302761 0.00125286 0.0016901)
(0.000445281 0.00130599 0.00220465)
(0.000595168 0.00132736 0.002674)
(0.000745722 0.00135752 0.00303686)
(0.000888586 0.0014258 0.0032517)
(0.00102937 0.00155674 0.00333784)
(0.0011166 0.00176196 0.00336144)
(0.00111666 0.00201466 0.00329491)
(0.00101535 0.00226281 0.00309652)
(0.000817386 0.0024528 0.00279241)
(0.000538494 0.00252666 0.00243857)
(0.000204305 0.00242724 0.00209971)
(-0.000147615 0.00211574 0.00183978)
(-0.000468328 0.00160464 0.00171401)
(-0.000712941 0.00099537 0.00174658)
(-0.000867403 0.000433699 0.00190418)
(-0.000955389 1.12814e-05 0.00212864)
(-0.00101366 -0.000261591 0.00238128)
(-0.00107032 -0.000416784 0.00263903)
(-0.00114073 -0.000498248 0.00287883)
(-0.0012294 -0.000548338 0.00307046)
(-0.00133488 -0.000600083 0.00317865)
(-0.00145217 -0.000676058 0.00317648)
(-0.00158532 -0.000798123 0.00308171)
(-0.00169878 -0.000994635 0.00296838)
(-0.00175869 -0.00125204 0.00279492)
(-0.00173887 -0.00152131 0.00249563)
(-0.00162862 -0.00174115 0.00207481)
(-0.0014285 -0.00183987 0.00157381)
(-0.00115515 -0.00174598 0.00105656)
(-0.000842335 -0.00141215 0.000604797)
(-0.000537387 -0.000853623 0.000312178)
(-0.000722544 0.000123887 0.000627298)
(-0.000622561 0.000844481 0.000407931)
(-0.000515806 0.00141877 0.000370462)
(-0.000379069 0.00182331 0.000566363)
(-0.000199784 0.00208495 0.00101386)
(2.0326e-05 0.00225384 0.00169451)
(0.000266042 0.00238485 0.00255295)
(0.000512663 0.00252628 0.00349476)
(0.000731574 0.00271272 0.00438182)
(0.000901062 0.00294792 0.00502958)
(0.000979804 0.00317712 0.00521455)
(0.000903219 0.0033355 0.00487552)
(0.000699097 0.0034182 0.00427229)
(0.000430128 0.00338491 0.00360212)
(0.000146284 0.0031923 0.00298598)
(-0.000120216 0.00281979 0.00248937)
(-0.000353052 0.00227636 0.0021334)
(-0.000545517 0.00160951 0.00190947)
(-0.000697064 0.000904835 0.00179429)
(-0.000811812 0.000256874 0.00177378)
(-0.000899696 -0.000264848 0.00184735)
(-0.000976822 -0.00064028 0.00201657)
(-0.00105855 -0.000891304 0.00228261)
(-0.00115213 -0.00106221 0.00264318)
(-0.00125553 -0.00120325 0.00308674)
(-0.00136126 -0.00135979 0.00358371)
(-0.00146179 -0.0015655 0.00407435)
(-0.00155463 -0.00183052 0.00445564)
(-0.00163892 -0.00211411 0.00456004)
(-0.00168508 -0.00234185 0.00427041)
(-0.00162334 -0.00247002 0.00371364)
(-0.0014956 -0.00247431 0.00305695)
(-0.00133158 -0.00230832 0.00241445)
(-0.00115581 -0.00194172 0.00184602)
(-0.000986777 -0.00137522 0.00136531)
(-0.000840134 -0.000654702 0.000960298)
(-0.000690516 -6.46521e-05 0.00074)
(-0.000522496 0.000580661 0.000686298)
(-0.000363866 0.00107909 0.000806091)
(-0.000192119 0.00142059 0.00110099)
(5.5464e-06 0.00164039 0.00156182)
(0.000226542 0.00178753 0.00215833)
(0.00045578 0.00190904 0.00283484)
(0.00067249 0.0020412 0.00351197)
(0.000857386 0.00220481 0.004094)
(0.000995556 0.00240142 0.00448092)
(0.00105856 0.00261435 0.00458739)
(0.00101834 0.00281674 0.00440559)
(0.000872999 0.00296983 0.00402738)
(0.000654837 0.00303072 0.00356)
(0.000394151 0.00295838 0.00309104)
(0.000115776 0.00272047 0.00268397)
(-0.000159867 0.00230282 0.00237975)
(-0.00041315 0.00173045 0.00220126)
(-0.000625273 0.00109135 0.00214563)
(-0.000788037 0.000499906 0.00218901)
(-0.000911654 3.34786e-05 0.00230747)
(-0.0010182 -0.000297359 0.0024882)
(-0.00112652 -0.000521591 0.00272525)
(-0.00124416 -0.00068216 0.00300901)
(-0.00136768 -0.000821355 0.0033201)
(-0.00148823 -0.000971735 0.00362659)
(-0.00159868 -0.00115161 0.00388407)
(-0.00169803 -0.00136395 0.00403768)
(-0.00178115 -0.00159323 0.00402091)
(-0.00182118 -0.00181709 0.0037929)
(-0.00178478 -0.00200227 0.00338536)
(-0.00167962 -0.00209776 0.0028686)
(-0.00151949 -0.0020522 0.00231417)
(-0.00132031 -0.00182179 0.0017812)
(-0.00110108 -0.00138432 0.00131546)
(-0.000884532 -0.000765112 0.000957081)
(-0.000591717 -0.000264078 0.000861777)
(-0.000377224 0.000298858 0.000965506)
(-0.000188409 0.000720046 0.00123366)
(5.85426e-07 0.000995623 0.00162392)
(0.000202253 0.00116581 0.00209862)
(0.000412955 0.00127881 0.00261249)
(0.000618918 0.00137563 0.0031075)
(0.000804917 0.00148389 0.00351852)
(0.000959729 0.00161844 0.0037924)
(0.00108509 0.00179116 0.00392489)
(0.00115995 0.00201627 0.00397933)
(0.00115468 0.0022687 0.00394581)
(0.00105856 0.00250129 0.00378579)
(0.000876443 0.0026683 0.00351877)
(0.00062147 0.00272346 0.00319731)
(0.000313348 0.00262039 0.00288517)
(-1.90155e-05 0.00232605 0.00264264)
(-0.000335484 0.00185218 0.00251433)
(-0.000596435 0.00128725 0.00251383)
(-0.000786781 0.000759465 0.00261291)
(-0.000925833 0.000352402 0.0027697)
(-0.00104674 7.27856e-05 0.00296065)
(-0.001172 -0.000113963 0.0031708)
(-0.00130827 -0.00025009 0.0033805)
(-0.00145025 -0.000371097 0.00356107)
(-0.00158766 -0.000498997 0.00367693)
(-0.00171223 -0.000642083 0.00369579)
(-0.00182064 -0.000806656 0.00361686)
(-0.00191697 -0.00102093 0.00350416)
(-0.00196394 -0.0012747 0.00334304)
(-0.00194098 -0.00152675 0.00307427)
(-0.00184125 -0.00172329 0.00268704)
(-0.00166462 -0.00180386 0.00221441)
(-0.00142206 -0.00170777 0.00171683)
(-0.00113805 -0.00139383 0.001272)
(-0.000849489 -0.000877695 0.000965001)
(-0.000809151 -9.39615e-05 0.00154026)
(-0.000717977 0.000524122 0.00124083)
(-0.000597751 0.00104112 0.00109654)
(-0.000432018 0.00144017 0.00117781)
(-0.000218235 0.00174204 0.00151617)
(3.32293e-05 0.00198597 0.00210071)
(0.000301022 0.00221381 0.00288337)
(0.000555884 0.00245978 0.00378232)
(0.000766062 0.00274437 0.00467969)
(0.000908176 0.00306257 0.0054143)
(0.000966434 0.00335759 0.00575537)
(0.000905798 0.00354975 0.00558632)
(0.000684847 0.0036242 0.00511817)
(0.000396468 0.00357486 0.00454463)
(9.91822e-05 0.00337242 0.00399307)