/*--------------------------------*- C++ -*----------------------------------*\
| =========                 |                                                 |
| \\      /  F ield         | OpenFOAM: The Open Source CFD Toolbox           |
|  \\    /   O peration     | Version:  2412                                  |
|   \\  /    A nd           | Website:  www.openfoam.com                      |
|    \\/     M anipulation  |                                                 |
\*---------------------------------------------------------------------------*/
FoamFile
{
    version     2.0;
    format      ascii;
    arch        "LSB;label=32;scalar=64";
    class       volScalarField;
    location    "0.0400007";
    object      ionicCurrent;
}
// * * * * * * * * * * * * * * * * * * * * * * * * * * * * * * * * * * * * * //

dimensions      [1 2 -4 0 0 -1 0];

internalField   nonuniform List<scalar> 
8835
(
2.20704
2.14474
1.67701
1.23514
0.958028
0.780862
0.636602
0.506795
0.392627
0.297514
0.223963
0.171488
0.134491
0.106098
0.00124406
0.000941455
0.000704456
0.000527125
2.20322
2.13463
1.63396
1.20852
0.942307
0.769643
0.62684
0.49825
0.385511
0.291786
0.219727
0.168649
0.132476
0.104445
0.00122285
0.000924931
0.000692377
0.000518578
2.18793
2.12881
1.54983
1.15418
0.90981
0.745703
0.605749
0.479801
0.37004
0.279754
0.211072
0.162747
0.128186
0.101283
0.00117983
0.000890814
0.000667065
0.000500544
2.16937
2.11415
1.42956
1.07886
0.863431
0.708828
0.572763
0.450936
0.346225
0.261583
0.198355
0.154066
0.121735
0.0963412
0.00111324
0.000838949
0.000628621
0.000472685
2.14811
1.741
1.28523
0.99119
0.806537
0.661352
0.530805
0.414954
0.316808
0.239195
0.182701
0.143084
0.113258
0.089498
0.00102466
0.000770948
0.000578471
0.000436365
2.12585
1.50995
1.13289
0.90015
0.740672
0.603317
0.479459
0.371301
0.28207
0.21371
0.165244
0.130562
0.103631
0.00121349
0.000920629
0.000692014
0.000520505
0.000394078
1.712
1.27382
0.989319
0.808461
0.665375
0.536094
0.420838
0.322803
0.244623
0.187311
0.14698
0.116798
0.0923994
0.00106821
0.000807244
0.000607347
0.000458873
0.000348828
1.39142
1.06536
0.861726
0.712847
0.580764
0.461609
0.358027
0.272832
0.208042
0.161991
0.128636
0.102417
0.00120304
0.000916072
0.00069142
0.000522216
0.000396939
0.000302524
1.11725
0.898326
0.745097
0.611892
0.490918
0.38434
0.294943
0.225047
0.174401
0.138276
0.110452
0.0875967
0.001009
0.000765244
0.000579085
0.00044047
0.000336675
0.000256516
0.915261
0.760448
0.627628
0.506755
0.399347
0.30826
0.236029
0.18289
0.144981
0.116104
0.0925501
0.00107906
0.00082263
0.000624344
0.000475546
0.000364327
0.00027896
0.000211388
0.761288
0.630265
0.510846
0.404438
0.313766
0.2412
0.187259
0.148575
0.119228
0.0956345
0.00112222
0.000859805
0.000654943
0.000500016
0.000384039
0.000295237
0.000225145
0.000169373
0.622516
0.505604
0.401293
0.312356
0.241074
0.187875
0.149531
0.120366
0.0968943
0.00114199
0.000878851
0.000672035
0.000514723
0.000396526
0.000306021
0.000234416
0.000177238
0.000132839
0.498321
0.395991
0.30893
0.239386
0.187474
0.149832
0.12099
0.0976926
0.00115503
0.000891835
0.000684453
0.000526106
0.000406623
0.000314806
0.000242227
0.000183957
0.000138439
0.000103746
0.402081
0.314786
0.244597
0.19208
0.153886
0.124664
0.100654
0.0012002
0.000930466
0.000716201
0.000551764
0.000427361
0.000331843
0.000256424
0.000195743
0.000147901
0.000111228
8.35062e-05
0.349328
0.272264
0.21293
0.169625
0.137341
0.111438
0.0897294
0.00105113
0.000812121
0.000626149
0.000484857
0.000377234
0.000292889
0.000225295
0.000171125
0.000129118
9.71735e-05
7.30561e-05
-66.9637
-119.507
-195.852
-198.536
-100.095
-15.4739
2.34006
2.27361
2.20377
2.1471
1.63197
1.14061
0.841144
0.667992
0.532637
0.412274
0.308125
0.224248
-70.9436
-124.928
-199.571
-198.631
-91.493
-11.7174
2.3372
2.27105
2.20162
2.13777
1.59299
1.11542
0.826964
0.658477
0.524461
0.405259
0.302562
0.220257
-77.8729
-137.473
-210.492
-180.825
-72.0937
-4.65859
2.32242
2.25722
2.18837
2.13352
1.51039
1.06161
0.798914
0.639424
0.507884
0.390625
0.290485
0.21143
-90.5532
-158.539
-217.677
-155.82
-49.2537
2.38118
2.31048
2.23914
2.17937
2.11966
1.39147
0.988468
0.758889
0.609759
0.481697
0.36814
0.272487
0.198346
-111.3
-189.337
-209.634
-115.189
-24.7788
2.35602
2.28204
2.21935
2.15399
1.76677
1.24302
0.901811
0.708952
0.569427
0.445994
0.33768
0.248336
0.181186
-146.196
-211.696
-172.549
-69.007
-3.11177
2.32134
2.2569
2.196
2.13421
1.53515
1.0831
0.813132
0.651617
0.520282
0.403067
0.301997
0.220807
0.162152
-192.641
-207.188
-113.577
-24.3284
2.357
2.29064
2.22091
2.16313
1.8079
1.28375
0.929453
0.72794
0.587144
0.463491
0.354044
0.262182
0.191417
0.142743
-215.679
-148.622
-47.5477
2.38216
2.31339
2.24305
2.18384
2.13063
1.48215
1.05304
0.800189
0.644887
0.516171
0.400914
0.301462
0.221386
0.163194
0.124172
-171.817
-67.1892
-4.02499
2.3311
2.26057
2.20064
2.14581
1.64049
1.16494
0.864735
0.690768
0.558031
0.439308
0.334725
0.248168
0.182654
0.137692
0.10669
-73.7312
-8.03592
2.33631
2.27315
2.20549
2.1502
1.73267
1.2398
0.912863
0.723751
0.587987
0.467524
0.360154
0.269477
0.198775
0.148975
0.11506
0.0901956
-8.26866
2.33756
2.27494
2.21505
2.15241
1.7803
1.28194
0.940064
0.742472
0.605279
0.4846
0.376506
0.283992
0.210278
0.157301
0.121243
0.0952229
0.00109637
2.33567
2.27352
2.21404
2.15193
1.77777
1.28594
0.946208
0.748344
0.611765
0.492058
0.384467
0.291628
0.217021
0.162587
0.125394
0.0984295
0.0011453
0.000861194
2.26448
2.20522
2.1507
1.75853
1.27792
0.946717
0.751762
0.616156
0.496883
0.389409
0.296715
0.221843
0.16661
0.128635
0.101344
0.00118545
0.000896027
0.000667063
2.2088
2.15337
1.79726
1.31482
0.97584
0.773462
0.635417
0.514909
0.405811
0.310702
0.233146
0.175217
0.135098
0.106422
0.00125641
0.000955804
0.000714912
0.000531213
2.18247
2.13032
1.50506
1.10097
0.851712
0.696374
0.570565
0.455987
0.353978
0.267803
0.200736
0.153128
0.120002
0.095162
0.00110364
0.000831704
0.000619887
0.00046176
-4.14649
-8.08235
-13.1385
-18.8748
-22.1374
-25.8304
-29.5343
-38.521
-56.2929
-99.4134
-180.805
-210.443
-102.321
-8.20982
2.32113
2.24548
2.18257
2.12033
-4.18251
-8.22395
-14.1935
-18.7461
-23.0318
-25.527
-30.5809
-38.5609
-59.0346
-103.199
-185.855
-212.483
-93.0568
-4.79066
2.31759
2.24243
2.17264
2.11862
-5.1522
-9.49368
-14.5587
-19.9675
-22.9229
-26.6943
-30.9123
-41.3507
-62.7855
-114.375
-195.34
-197.253
-77.0721
1.60145
2.30365
2.23624
2.16729
1.77442
-5.64213
-11.0681
-16.0357
-21.1048
-23.9728
-26.9231
-33.3129
-44.3868
-71.9035
-132.309
-210.029
-176.141
-52.7291
2.36792
2.2933
2.22002
2.1529
1.65115
-7.89069
-12.7887
-17.65
-22.2144
-24.7062
-29.1777
-35.5703
-51.6979
-86.2635
-159.501
-216.214
-135.954
-25.3003
2.3422
2.27191
2.20037
2.13591
1.47446
-9.67798
-15.6739
-20.0275
-22.9824
-26.7507
-30.9896
-41.3369
-62.2445
-112.345
-192.6
-203.848
-82.9269
-2.03418
2.31544
2.24121
2.17209
2.11857
1.27573
-13.027
-17.7464
-22.2332
-24.7134
-29.1554
-35.6208
-49.7651
-84.4189
-151.44
-218.058
-151.772
-33.8681
2.35689
2.27917
2.20747
2.14913
1.57803
1.06901
-16.3512
-21.2398
-23.952
-26.7717
-32.7536
-42.7619
-67.7967
-119.725
-203.041
-194.666
-77.1478
0.242957
2.31373
2.24023
2.17174
2.11865
1.28306
0.892327
-20.153
-23.0103
-26.7314
-30.8632
-39.1207
-59.0965
-100.69
-179.621
-214.775
-117.11
-16.3103
2.33739
2.26211
2.19905
2.13562
1.48761
1.01963
0.753903
-23.1202
-25.8359
-29.6604
-38.4036
-55.0992
-91.9116
-164.426
-215.902
-141.676
-31.0338
2.35693
2.28024
2.21636
2.15112
1.64952
1.13227
0.815867
0.638178
-25.7591
-29.4993
-37.8764
-53.495
-87.8995
-157.527
-218.053
-151.222
-41.3481
2.36474
2.29449
2.22346
2.16468
1.76193
1.21912
0.86686
0.672449
0.531292
-30.5449
-37.9283
-53.9342
-88.488
-157.735
-218.15
-154.113
-44.3628
2.36781
2.29765
2.22661
2.16763
1.82518
1.27366
0.900767
0.69542
0.552411
0.428066
-38.1451
-54.7095
-90.281
-160.188
-217.89
-153.513
-45.7741
2.37075
2.30015
2.23616
2.16981
2.11832
1.31172
0.928003
0.713769
0.56873
0.443498
0.333882
-51.9028
-85.7964
-151.396
-218.471
-167.19
-56.3366
2.38954
2.31633
2.24406
2.1832
2.12246
1.3978
0.984068
0.749557
0.598638
0.470359
0.357242
0.262357
-66.5049
-117.936
-195.529
-199.128
-101.94
-16.9473
2.34781
2.2805
2.20969
2.1515
1.6552
1.15565
0.84852
0.671861
0.535106
0.413657
0.308604
0.22399
5.01025
4.38321
4.2256
4.08077
3.36015
2.44352
1.78723
-0.118233
-2.25032
-6.43932
-12.3379
-17.8326
-22.7427
-26.6655
-32.4756
-44.6708
-74.3033
-142.338
5.07507
4.45345
4.35224
3.66314
3.4912
2.50779
1.83745
-0.0305772
-2.92133
-6.53198
-12.5205
-18.8944
-22.7241
-26.817
-32.928
-45.8627
-77.042
-146.807
4.84053
4.69542
4.03513
3.91583
3.1086
2.72306
1.3747
-0.642984
-3.01669
-7.69314
-13.0868
-19.189
-23.6607
-27.7831
-34.8396
-48.6199
-84.1036
-158.992
4.6543
4.54466
3.88196
3.74877
2.88521
2.391
0.831886
-0.736655
-4.07925
-9.04412
-14.583
-20.385
-24.5952
-29.1669
-36.1106
-53.8165
-95.4559
-178.191
4.65558
4.49564
3.80181
3.63058
2.7051
2.13179
0.454722
-2.0921
-5.22276
-10.8266
-16.4089
-21.6964
-25.7086
-30.9824
-39.929
-62.8833
-115.649
-203.408
4.29706
4.12613
3.932
3.08922
2.66423
1.22844
-0.125005
-3.11929
-7.62975
-12.8939
-19.0466
-23.7662
-26.8087
-33.1668
-46.2645
-77.4681
-146.7
-224.984
4.06147
3.87425
3.65264
2.69445
2.0939
0.331785
-1.52737
-5.32944
-9.9022
-16.2255
-21.6696
-24.6978
-29.4596
-38.0039
-57.3529
-104.022
-187.523
-203.331
3.89619
3.73625
2.83499
2.28697
1.36286
-0.842374
-3.32009
-7.95915
-14.0845
-19.1564
-23.6629
-27.8388
-33.2176
-46.6115
-77.7745
-146.499
-218.306
-138.675
3.9256
3.07077
2.65895
1.24234
-0.0572623
-2.97306
-6.43443
-12.2456
-17.6105
-22.7088
-25.6606
-31.0575
-41.5798
-63.5761
-115.962
-202.132
-194.682
-57.9508
3.49261
2.43929
1.72528
-0.186196
-2.30898
-5.61602
-11.1427
-16.4429
-21.6076
-25.6193
-29.3213
-38.1506
-55.528
-98.0369
-178.716
-218.33
-93.7503
0.141977
2.41802
1.65207
0.417977
-2.27882
-5.38289
-10.7511
-16.0812
-21.5364
-24.5372
-29.0919
-35.5164
-51.3831
-88.2766
-160.33
-222.251
-127.885
-12.609
2.32239
1.79441
-0.148619
-2.23951
-5.42795
-10.8105
-16.2135
-20.6617
-24.803
-27.9947
-35.1361
-50.0692
-82.2756
-151.928
-224.923
-143.41
-23.8083
2.33946
2.26089
-0.0947173
-2.31481
-5.60169
-10.9939
-16.2978
-20.6291
-24.7195
-27.8539
-34.9263
-47.6859
-79.1095
-145.989
-218.465
-157.633
-32.391
2.34689
2.26734
2.20259
-2.13282
-5.47543
-10.0529
-16.1036
-20.3559
-24.4078
-27.3576
-32.4803
-44.8318
-70.8676
-130.585
-215.159
-177.877
-51.5418
2.36972
2.28649
2.21248
2.15255
-3.90054
-8.07865
-13.2879
-19.1099
-22.5339
-25.1121
-29.8133
-36.8934
-55.0952
-95.1935
-176.594
-213.974
-109.603
-10.8658
2.3288
2.25104
2.18649
2.12298
5.8306
6.00831
5.84564
5.99759
5.75908
5.87562
5.5666
5.18511
5.20508
4.72318
4.2355
3.70986
3.09025
2.17738
1.4414
-0.674374
-4.01418
-9.26124
5.895
6.07388
5.94147
5.75368
5.8922
5.59667
5.67912
5.30953
4.85216
4.83708
4.31225
3.78917
3.16115
2.30707
0.99313
-1.12159
-4.64331
-9.28208
5.81203
5.98096
5.80801
5.95938
5.70772
5.8169
5.48868
5.088
5.09639
4.59133
4.05614
3.44647
3.31343
2.35445
0.94566
-1.32376
-4.97061
-10.5721
6.05376
5.90719
6.06945
5.87899
5.62765
5.72231
5.34612
5.37687
4.91722
4.4239
3.84906
3.7866
3.03252
2.03024
0.478722
-1.99749
-5.96116
-11.9096
5.83984
5.99781
5.79486
5.92757
5.64061
5.72155
5.35918
4.91769
4.90178
4.36702
3.8099
3.1478
2.90199
1.70529
-0.103361
-2.97502
-7.51961
-13.9522
6.02465
5.83657
5.9699
5.70077
5.7866
5.41132
5.43813
4.98429
4.45242
4.40279
3.82243
3.18446
2.2932
0.954669
-1.19102
-4.73138
-9.36438
-16.3058
6.00834
5.79294
5.90726
5.60368
5.66537
5.24906
5.24195
4.74739
4.18098
4.1239
3.50037
2.7432
1.66626
-0.0656372
-2.11425
-6.41803
-12.6828
-19.4032
6.0573
5.8103
5.90565
5.55839
5.59161
5.13073
5.10495
4.57748
3.98929
3.91275
3.20524
2.29535
0.928186
-1.22043
-4.74748
-9.32146
-16.2425
-22.2051
5.90396
5.97363
5.63395
5.66754
5.22226
5.20317
4.67542
4.09163
4.00807
3.30725
2.3893
1.74242
-0.146862
-3.05076
-7.53407
-13.8489
-20.3587
-25.4726
5.89029
5.5299
5.52485
5.49308
4.97059
4.90454
4.33131
3.7056
3.59209
2.75164
1.55819
0.456868
-2.1978
-6.2257
-12.184
-18.0493
-23.4901
-28.1626
5.53815
5.52295
5.47683
4.93722
4.856
4.21876
4.10568
3.37487
3.11395
2.00514
0.349288
-1.43156
-5.17174
-10.6822
-17.323
-23.0835
-26.6696
-33.3169
5.63779
5.13561
5.0283
4.89244
4.23116
4.09472
3.33765
3.08067
1.97201
0.395093
-1.29183
-4.95199
-10.3567
-16.1334
-21.9581
-26.337
-32.1394
-44.2098
5.23808
5.11866
4.47946
4.30722
4.12853
3.35137
3.06786
1.89954
0.972102
-1.3644
-4.92813
-9.35806
-15.9617
-21.9035
-25.3672
-30.7679
-40.9794
-64.7213
5.02406
4.86282
4.19398
4.0655
3.31315
3.00516
2.48595
0.999131
-1.20769
-3.87494
-8.93868
-14.5606
-20.6368
-25.1845
-28.9019
-37.4573
-56.5427
-102.493
4.82329
4.64103
3.95136
3.82269
3.01957
2.60332
1.92047
0.133824
-2.58644
-6.07039
-12.1156
-17.8109
-22.9015
-27.0572
-31.9043
-44.0619
-73.185
-140.324
5.0931
5.19191
5.26745
5.5217
5.56725
5.82541
5.86526
5.8884
5.88477
5.83845
6.09206
6.00132
5.88437
5.71738
5.48378
5.19269
4.8438
4.44072
4.99909
5.24874
5.32285
5.57851
5.64049
5.67376
5.93733
5.95594
5.96487
5.94096
5.89195
5.81159
5.68199
5.47275
5.64854
5.38023
4.57214
4.17057
5.12385
5.20328
5.45333
5.52442
5.57009
5.82915
5.86032
5.86821
5.83532
6.09195
6.02838
5.94312
5.82169
5.64589
5.40287
5.10051
4.72978
4.2898
5.14643
5.21825
5.46654
5.51904
5.77621
5.81717
5.83833
5.82458
6.08148
6.03345
5.97536
5.88
5.74521
5.55977
5.31141
4.99174
4.59796
4.13249
5.22903
5.29833
5.5465
5.60676
5.63892
5.89421
5.91098
5.90099
5.84799
6.09548
6.00783
5.8944
5.73849
5.52177
5.24437
4.89831
4.47659
4.00475
5.21925
5.46188
5.52515
5.56189
5.81436
5.82346
5.80293
6.05354
6.01319
5.94465
5.84479
5.69416
5.46257
5.60611
5.26404
4.87931
4.44516
4.01665
5.29071
5.5301
5.56434
5.80624
5.82368
5.81138
6.05512
6.02057
5.96505
5.87098
5.71533
5.90452
5.65577
5.36131
5.00255
4.58162
4.10706
3.58715
5.45102
5.47809
5.7088
5.70487
5.93662
5.91544
5.85483
6.08812
6.0042
5.88596
5.72279
5.47576
5.60721
5.25579
4.85653
4.39111
3.881
3.29739
5.48323
5.70345
5.69658
5.92003
5.89691
5.83735
6.05799
5.95848
5.80806
5.99851
5.78939
5.5423
5.24704
4.88455
4.45307
3.95619
3.39914
2.68419
5.61552
5.81603
5.78388
5.99425
5.94229
5.8526
6.05963
5.92346
5.73028
5.89172
5.62534
5.32698
4.96939
4.53453
3.98174
3.9108
3.18903
2.24515
5.81864
5.77462
5.96732
5.88584
6.08083
5.96785
5.80282
5.97103
5.73676
5.43551
5.52877
5.13265
4.70174
4.22967
3.70066
3.05418
2.10754
1.37255
5.86754
5.78571
5.9673
5.83284
6.00324
5.80523
5.94486
5.66737
5.77508
5.43534
5.04195
4.55108
4.52352
3.93396
3.31869
2.52282
1.33114
-0.595426
5.86346
6.01755
5.87514
6.02739
5.82082
5.94906
5.65881
5.7477
5.37595
4.94608
4.94627
4.39852
3.84448
3.23216
2.37105
1.77443
-0.0911957
-3.02976
5.98182
5.82178
5.96608
5.75607
5.87846
5.58059
5.64798
5.24681
5.26782
4.76698
4.2034
4.14225
3.51026
2.78119
1.73725
0.100248
-2.63411
-6.25559
5.72633
5.83867
5.96087
5.71453
5.82387
5.49045
5.55468
5.15279
4.67882
4.63799
4.05702
3.4231
3.30547
2.41216
1.12793
-0.92611
-4.38861
-9.06808
3.60489
3.76601
4.02035
4.19576
4.36615
4.53344
4.6935
4.99227
5.1526
5.30722
5.45357
5.59198
5.71973
5.8347
5.93666
6.02841
6.11952
5.85278
3.64016
3.80843
3.97054
4.23498
4.40717
4.58323
4.74987
4.91032
5.05893
5.37275
5.51911
5.66037
5.79292
5.91629
6.03707
5.85539
5.92276
5.9594
3.64496
3.80398
4.05772
4.23057
4.39657
4.55643
4.84794
5.01254
5.17793
5.33041
5.47596
5.61179
5.73461
5.83654
5.92699
6.00101
6.05903
6.11277
3.68597
3.84251
4.10002
4.26324
4.4224
4.70497
4.86987
5.038
5.19602
5.34818
5.49187
5.62374
5.74069
5.83988
5.91889
5.97163
6.00834
6.02645
3.76857
3.92464
4.17971
4.34913
4.51058
4.66498
4.95723
5.11587
5.27475
5.41929
5.55392
5.6772
5.78593
5.87166
5.94339
5.995
6.02647
6.03534
3.81418
4.06013
4.22404
4.37908
4.65363
4.81863
4.97551
5.12549
5.26439
5.38298
5.69524
5.80223
5.89974
5.98172
6.05389
6.12713
5.84419
5.84847
3.91372
4.16501
4.31877
4.46743
4.74118
4.89849
5.04637
5.18619
5.30842
5.61351
5.71826
5.81048
5.8913
5.95841
6.01035
6.04929
6.0885
5.72172
4.07264
4.21695
4.47727
4.62334
4.76072
5.04087
5.1843
5.31575
5.43794
5.54351
5.62173
5.92504
5.97974
6.02662
6.05808
6.07331
6.08552
5.67489
4.18753
4.43327
4.57838
4.71023
4.97927
5.11121
5.22404
5.51343
5.62177
5.72129
5.80888
5.88486
5.93691
5.96671
5.96468
5.93655
5.8721
5.76474
4.36648
4.611
4.74607
4.86602
5.13277
5.25073
5.34733
5.63146
5.71977
5.79723
5.86915
5.92041
5.95081
5.95368
5.92246
5.84939
5.72961
5.56424
4.6107
4.73506
4.84418
5.10307
5.19803
5.46626
5.55472
5.63274
5.67898
5.95836
5.98508
6.00257
6
5.96843
5.90435
5.79806
5.63934
5.41416
4.78185
4.88709
5.13379
5.23181
5.3067
5.56521
5.62587
5.6573
5.92169
5.93493
5.93968
5.90744
5.82252
6.06705
5.9317
5.76921
5.56005
5.29762
4.95351
5.03355
5.26916
5.33505
5.58362
5.62915
5.65551
5.90751
5.90502
5.89202
5.83191
6.08046
5.97649
5.84365
5.67019
5.43968
5.14842
4.78567
5.01831
5.24458
5.29741
5.53453
5.56861
5.58346
5.81658
5.78112
6.02614
5.97514
5.90865
5.80181
5.63509
5.83643
5.58549
5.2893
4.92824
4.49062
5.13447
5.18205
5.40363
5.42691
5.65315
5.64037
5.87673
5.84166
5.77343
6.01145
5.91759
5.80702
5.65315
5.43739
5.12263
5.20627
4.75263
4.25329
2.18841
2.34749
2.51312
2.73827
2.92262
3.11253
3.31303
3.51432
3.72148
3.92891
4.14603
4.36777
4.59537
4.83109
4.92049
5.13651
5.35161
5.56593
2.2115
2.37406
2.5462
2.71959
2.89918
3.14855
3.347
3.55051
3.75892
3.97177
4.1897
4.41398
4.64637
4.74732
4.96707
5.18953
5.40977
5.62796
2.22721
2.38695
2.55316
2.77927
2.96333
3.15778
3.35351
3.55532
3.76247
3.9739
4.18897
4.40166
4.62161
4.8435
5.06804
5.29947
5.34462
5.56019
2.26414
2.42424
2.6407
2.81841
3.00638
3.19592
3.39211
3.59445
3.80166
4.01272
4.22647
4.44199
4.65313
4.87008
5.08927
5.31545
5.35046
5.55463
2.33279
2.49398
2.66138
2.89146
3.07691
3.27218
3.468
3.66916
3.87519
4.08517
4.29832
4.50857
4.72505
4.94142
5.15892
5.38207
5.4083
5.60811
2.38644
2.59648
2.76841
2.95058
3.1334
3.32073
3.51134
3.78993
3.99648
4.20661
4.42119
4.64319
4.73308
4.94518
5.14797
5.3525
5.55594
5.76102
2.47892
2.69138
2.86841
3.04544
3.22684
3.41179
3.68055
3.88011
4.08215
4.28668
4.49441
4.70583
4.92203
5.14446
5.19469
5.38865
5.57762
5.76156
2.61472
2.77703
3.00349
3.18148
3.3682
3.55381
3.74266
3.93249
4.22614
4.42937
4.63499
4.84338
5.05845
5.11143
5.30306
5.48866
5.66538
5.83831
2.74253
2.90276
3.13008
3.30881
3.4849
3.7466
3.93674
4.12917
4.32473
4.5226
4.72128
4.91909
5.1146
5.306
5.49117
5.67155
5.85469
5.77761
2.91631
3.07644
3.30785
3.48578
3.66045
3.83645
4.11093
4.29862
4.48826
4.6786
4.86877
5.05677
5.2403
5.41751
5.58749
5.7528
5.9221
5.81241
3.07471
3.29868
3.46882
3.63487
3.89056
4.06727
4.24983
4.42564
4.59565
4.89957
5.07546
5.25049
5.42134
5.58601
5.74563
5.90717
5.79598
5.91027
3.26811
3.49538
3.6613
3.82224
4.07934
4.24625
4.41456
4.70105
4.87021
5.03889
5.2046
5.36336
5.51118
5.64515
5.76686
5.87593
5.97199
6.05601
3.47143
3.70093
3.85559
4.01338
4.27109
4.42883
4.58552
4.87123
5.0285
5.18376
5.33163
5.46742
5.59258
5.70451
5.80037
5.87796
5.93558
5.97294
3.61764
3.84498
3.99301
4.24125
4.38986
4.53796
4.81354
4.95744
5.09586
5.22609
5.33846
5.65383
5.75319
5.84182
5.91825
5.97429
6.02131
6.0663
3.75194
3.88718
4.12798
4.2641
4.52571
4.66724
4.80314
4.92787
5.22209
5.34245
5.45901
5.56587
5.65899
5.73382
5.78539
5.80996
5.81129
5.789
1.05399
1.18492
1.32664
1.4723
1.62665
1.79027
1.96335
2.14145
2.3338
2.53619
2.74931
2.97362
3.13856
3.37612
3.62507
3.88067
4.0542
4.3266
1.05158
1.20656
1.34701
1.4941
1.64959
1.81415
1.98813
2.17149
2.36476
2.56846
2.72855
2.94184
3.17078
3.41092
3.66237
3.8305
4.09306
4.36231
1.08684
1.22166
1.35979
1.50662
1.6625
1.82727
2.00128
2.18459
2.37249
2.57429
2.78556
3.00719
3.24013
3.40552
3.65214
3.91086
4.07573
4.34411
1.11619
1.25204
1.39132
1.53921
1.69604
1.8621
2.03703
2.221
2.41413
2.61107
2.82178
3.04207
3.27322
3.51618
3.68211
3.93763
4.20076
4.36641
1.1659
1.30071
1.44646
1.59587
1.75425
1.92126
2.09729
2.2825
2.47225
2.67582
2.88879
3.11196
3.34615
3.50843
3.75346
4.00892
4.27187
4.43483
1.21651
1.35127
1.49358
1.64493
1.83901
2.01061
2.18932
2.37643
2.57363
2.78142
2.94003
3.15633
3.38742
3.62796
3.87878
4.0365
4.29534
4.56432
1.28953
1.42596
1.5708
1.75682
1.92156
2.09278
2.27224
2.46019
2.65769
2.86603
3.08486
3.24519
3.47008
3.70868
3.957
4.21036
4.36335
4.62476
1.38857
1.53311
1.67945
1.83365
1.99601
2.16675
2.39094
2.58422
2.78585
2.93741
3.15097
3.36903
3.60075
3.84194
4.09248
4.23799
4.48986
4.74749
1.4969
1.64193
1.78987
1.94598
2.14973
2.32567
2.50837
2.69925
2.89879
3.10747
3.32529
3.55278
3.79053
3.93823
4.18067
4.42953
4.68275
4.80946
1.63879
1.78377
1.93892
2.09664
2.26258
2.48289
2.66897
2.86207
3.06348
3.27305
3.49112
3.71826
3.95496
4.09382
4.33267
4.57719
4.83146
4.93763
1.78055
1.93154
2.08449
2.28792
2.45992
2.63848
2.8245
3.01792
3.21815
3.42462
3.6371
3.85527
4.07906
4.30802
4.54332
4.78259
4.88748
5.12439
1.9546
2.10847
2.26349
2.47264
2.64673
2.82664
3.01338
3.21182
3.41212
3.61859
3.82475
4.03918
4.25585
4.47398
4.69369
4.91588
5.13724
5.37197
2.1037
2.29515
2.45271
2.62066
2.84601
3.02729
3.21415
3.40705
3.60549
3.8084
4.01491
4.22373
4.4338
4.64448
4.85542
5.06683
5.27401
5.49224
2.25704
2.45277
2.61039
2.77694
3.0055
3.18356
3.36585
3.55232
3.74102
4.02872
4.23084
4.43501
4.64236
4.85364
5.07142
5.11888
5.31821
5.50467
2.38311
2.53368
2.68745
2.91011
3.07764
3.24861
3.50228
3.69414
3.88429
4.07844
4.27583
4.47488
4.6739
4.87149
5.06653
5.25336
5.44326
5.63741
0.231528
0.325447
0.426732
0.536126
0.654229
0.776323
0.911834
1.05696
1.21222
1.37797
1.5198
1.70486
1.89863
2.07027
2.28947
2.47052
2.713
2.96736
0.244119
0.338723
0.440723
0.550731
0.669365
0.796488
0.932784
1.07768
1.20753
1.36523
1.54031
1.72713
1.88567
2.09294
2.30963
2.49717
2.73639
2.93726
0.252524
0.347486
0.45032
0.560907
0.67986
0.807777
0.940007
1.08634
1.24204
1.40818
1.55024
1.73487
1.93242
2.09865
2.31804
2.54732
2.74209
2.99393
0.27501
0.371416
0.475315
0.586512
0.706083
0.834609
0.97187
1.11389
1.27039
1.43751
1.61516
1.76579
1.96297
2.16943
2.34963
2.58326
2.77272
3.02552
0.309038
0.407044
0.512231
0.625373
0.746885
0.877283
1.01192
1.1605
1.31925
1.4884
1.63207
1.81934
2.02018
2.22957
2.41089
2.64166
2.8363
3.09074
0.343265
0.460708
0.5709
0.687248
0.811077
0.943087
1.08378
1.20869
1.36149
1.53096
1.71225
1.90495
2.06583
2.27849
2.5002
2.68861
2.93232
3.13162
0.395148
0.515111
0.62737
0.745815
0.871445
1.00549
1.14942
1.30229
1.43718
1.6029
1.78585
1.98085
2.18299
2.35711
2.58417
2.82094
3.01553
3.27358
0.467316
0.571375
0.682939
0.802358
0.930083
1.06681
1.21276
1.3684
1.52944
1.70554
1.89339
2.09252
2.25581
2.47398
2.70111
2.88916
3.13629
3.33141
0.545371
0.653558
0.789132
0.914661
1.04696
1.18806
1.33848
1.49813
1.63635
1.80775
1.99658
2.19743
2.41057
2.58087
2.81306
3.05403
3.2457
3.50645
0.647881
0.762441
0.880274
1.00625
1.14079
1.28408
1.43662
1.59898
1.76607
1.9479
2.14081
2.34523
2.55698
2.73178
2.96608
3.20884
3.39624
3.65611
0.761566
0.874649
0.996723
1.15139
1.2931
1.44177
1.59959
1.76737
1.94564
2.13434
2.32866
2.48993
2.70455
2.93096
3.16517
3.34525
3.59571
3.86467
0.893331
1.01094
1.14048
1.27509
1.44656
1.6015
1.76426
1.9368
2.11929
2.31245
2.5107
2.67084
2.88698
3.1132
3.34542
3.59494
3.76926
4.02796
1.01915
1.16564
1.29756
1.4361
1.58347
1.7392
1.90431
2.1187
2.30708
2.45575
2.65641
2.86625
3.08469
3.31227
3.54554
3.79625
3.9623
4.21919
1.14781
1.27356
1.43953
1.58247
1.73232
1.88999
2.05624
2.23189
2.46417
2.6101
2.81055
3.02014
3.2385
3.46622
3.69971
3.95031
4.10582
4.35821
1.22943
1.38452
1.52546
1.66725
1.81624
1.97353
2.18145
2.35959
2.54589
2.74146
2.94661
3.16174
3.38728
3.5395
3.76837
4.01073
4.26382
4.39721
-0.310889
-0.246357
-0.17547
-0.102671
-0.0187447
0.0723124
0.17024
0.256786
0.369743
0.492846
0.603471
0.745026
0.895141
1.0384
1.20995
1.36725
1.53756
1.74614
1.93506
-0.299531
-0.238481
-0.167573
-0.0903377
-0.00574354
0.0853465
0.165271
0.269442
0.382919
0.485637
0.61748
0.756343
0.889867
1.0485
1.20096
1.3839
1.55216
1.76704
1.95697
-0.296903
-0.232156
-0.160906
-0.0834967
-0.00289741
0.08903
0.189122
0.296512
0.391907
0.515013
0.644551
0.769735
0.9183
1.06156
1.23296
1.3913
1.59306
1.7723
1.95992
-0.265919
-0.199848
-0.128861
-0.0633475
0.019482
0.10755
0.207703
0.315526
0.411392
0.535062
0.665392
0.790867
0.944748
1.08444
1.25691
1.42069
1.61918
1.79949
2.03075
-0.261364
-0.194384
-0.120823
-0.0409756
0.0421148
0.136263
0.2379
0.328056
0.444511
0.572216
0.705172
0.832866
0.984599
1.13045
1.30518
1.47093
1.67202
1.85356
2.04307
-0.223675
-0.154991
-0.0803995
0.00128683
0.088832
0.169695
0.266215
0.377617
0.49791
0.605634
0.743631
0.888712
1.02694
1.19216
1.34947
1.53911
1.7119
1.93357
2.12709
-0.188934
-0.11827
-0.0417834
0.0417967
0.131287
0.213868
0.312522
0.426526
0.550152
0.678429
0.801105
0.951273
1.08675
1.26012
1.44338
1.60844
1.7857
2.00467
2.1991
-0.157116
-0.0843611
-0.00495785
0.0809026
0.170043
0.270569
0.379927
0.498128
0.620608
0.737251
0.881594
1.03368
1.17699
1.3489
1.5108
1.70734
1.8839
2.11221
2.30885
-0.103221
-0.0139427
0.0703164
0.145264
0.239286
0.338112
0.449956
0.571134
0.700882
0.81521
0.962788
1.1233
1.29085
1.44668
1.63574
1.80512
2.02408
2.21313
2.45549
-0.031608
0.0468329
0.131856
0.223846
0.323062
0.430678
0.547404
0.673225
0.803442
0.926009
1.07787
1.23769
1.38681
1.56737
1.76753
1.93952
2.16316
2.35362
2.60028
0.045323
0.130943
0.219495
0.311506
0.414951
0.526196
0.64661
0.776352
0.916256
1.06051
1.19505
1.3627
1.53843
1.69931
1.89675
2.11366
2.29669
2.53827
2.73831
0.14335
0.229117
0.32159
0.421739
0.530451
0.647149
0.772716
0.907861
1.05293
1.20364
1.34157
1.51448
1.69628
1.89475
2.06224
2.28289
2.46644
2.71249
2.91138
0.235077
0.324912
0.421711
0.527071
0.659762
0.784292
0.915203
1.032
1.17868
1.3372
1.50621
1.68238
1.8744
2.03476
2.2475
2.47542
2.6602
2.90681
3.10945
0.342288
0.438068
0.539107
0.647281
0.764106
0.889143
1.02287
1.16563
1.31843
1.47703
1.65138
1.83647
1.99407
2.19341
2.41152
2.63948
2.8284
3.07866
3.27751
0.393786
0.506573
0.615009
0.724941
0.842746
0.969359
1.10477
1.24948
1.39949
1.56481
1.74087
1.92816
2.08551
2.28703
2.50675
2.73539
2.92103
3.1714
3.36485
-0.637138
-0.599002
-0.552822
-0.502347
-0.460049
-0.400064
-0.333309
-0.274629
-0.195206
-0.111245
-0.0325748
0.0573433
0.164223
0.267886
0.399392
0.521511
0.652059
0.794675
0.970456
-0.634446
-0.592321
-0.546708
-0.50477
-0.454165
-0.392374
-0.328672
-0.265066
-0.190376
-0.113727
-0.0237563
0.0681675
0.17639
0.280136
0.391911
0.534154
0.666523
0.808323
0.96197
-0.627844
-0.58859
-0.54642
-0.494604
-0.438182
-0.389651
-0.322641
-0.252716
-0.182353
-0.0996822
-0.0152328
0.0842589
0.180785
0.303698
0.417373
0.539261
0.672047
0.83555
0.991755
-0.612308
-0.579293
-0.53788
-0.48614
-0.427828
-0.36881
-0.310018
-0.237005
-0.170475
-0.0869325
-0.00149145
0.0985855
0.200087
0.319772
0.434903
0.558816
0.711637
0.862561
1.01809
-0.609191
-0.570499
-0.522276
-0.468267
-0.409648
-0.359283
-0.290324
-0.218072
-0.145359
-0.060179
0.0264639
0.128508
0.227466
0.353547
0.470371
0.596115
0.751557
0.899841
1.06186
-0.586459
-0.543035
-0.503626
-0.455457
-0.395529
-0.330313
-0.273243
-0.195513
-0.113955
-0.032506
0.0629297
0.159629
0.273185
0.382289
0.499378
0.648156
0.78666
0.935592
1.1192
-0.564238
-0.51933
-0.478703
-0.429135
-0.367754
-0.300932
-0.242358
-0.1629
-0.0794724
0.00399227
0.101536
0.199884
0.316214
0.428231
0.569812
0.701197
0.842074
1.01641
1.18189
-0.545896
-0.501276
-0.448267
-0.389346
-0.325773
-0.270788
-0.196436
-0.114242
-0.0396329
0.0574541
0.160782
0.258427
0.382942
0.497187
0.619907
0.775753
0.919803
1.07464
1.26617
-0.512917
-0.466211
-0.410944
-0.349905
-0.283007
-0.214577
-0.146531
-0.0614963
0.0278426
0.116493
0.220787
0.32513
0.448607
0.566238
0.715575
0.852818
0.999961
1.18178
1.35248
-0.465048
-0.412291
-0.353808
-0.290987
-0.237177
-0.163267
-0.080813
0.00496937
0.0899251
0.189718
0.304903
0.408943
0.541636
0.663942
0.818579
0.959701
1.11073
1.29858
1.47349
-0.413449
-0.357827
-0.29654
-0.228964
-0.160984
-0.0938718
-0.00932408
0.0849812
0.182873
0.278505
0.391663
0.504
0.638108
0.788879
0.92522
1.07013
1.24974
1.42171
1.59902
-0.365097
-0.306508
-0.242313
-0.171811
-0.0941413
-0.00983824
0.0778755
0.177153
0.269569
0.379656
0.504679
0.616925
0.760167
0.891202
1.05682
1.20751
1.39444
1.5717
1.78735
-0.297777
-0.223589
-0.154277
-0.0921335
-0.0132318
0.0745909
0.170117
0.270009
0.383201
0.505331
0.613931
0.752019
0.877721
1.03855
1.20889
1.36953
1.56462
1.74185
1.92778
-0.219294
-0.151609
-0.0799061
-0.00225777
0.0829494
0.175469
0.274829
0.36645
0.476438
0.60231
0.737527
0.857556
1.01206
1.17544
1.32867
1.51472
1.68838
1.90197
2.09158
-0.168944
-0.102719
-0.0304964
0.0485019
0.134758
0.228931
0.326404
0.436522
0.555364
0.684551
0.818704
0.944722
1.10244
1.2694
1.42377
1.61329
1.78263
2.00433
2.19372
-0.817491
-0.792845
-0.775651
-0.744494
-0.712462
-0.680084
-0.641203
-0.605869
-0.561511
-0.506554
-0.452746
-0.384125
-0.313959
-0.242993
-0.164247
-0.0770281
0.0209612
0.1435
0.260078
-0.813768
-0.799618
-0.772895
-0.745259
-0.716691
-0.682334
-0.645559
-0.601957
-0.555597
-0.499991
-0.446523
-0.387063
-0.310981
-0.237132
-0.157591
-0.0696806
0.0273212
0.133818
0.250757
-0.816035
-0.792031
-0.774417
-0.743095
-0.710997
-0.678474
-0.638954
-0.597065
-0.54693
-0.499107
-0.446355
-0.374107
-0.307711
-0.235171
-0.153687
-0.0515644
0.048925
0.157979
0.276775
-0.814934
-0.788691
-0.759407
-0.737736
-0.703026
-0.673782
-0.633796
-0.591121
-0.540345
-0.491223
-0.424414
-0.363452
-0.297387
-0.222479
-0.128391
-0.036125
0.0632509
0.171958
0.291565
-0.805605
-0.779692
-0.760818
-0.728237
-0.694486
-0.660215
-0.619344
-0.575908
-0.524044
-0.474916
-0.416056
-0.345768
-0.276997
-0.200822
-0.104939
-0.0108344
0.0905463
0.201596
0.323074
-0.800053
-0.774434
-0.74472
-0.721889
-0.683789
-0.6444
-0.604382
-0.556674
-0.51081
-0.447423
-0.3905
-0.327508
-0.246997
-0.168896
-0.0803493
0.0125472
0.115371
0.223683
0.347075
-0.787115
-0.760571
-0.729836
-0.706115
-0.666962
-0.626415
-0.585281
-0.536293
-0.48507
-0.424053
-0.365274
-0.300598
-0.218281
-0.133798
-0.047078
0.0495014
0.170072
0.289277
0.417383
-0.768008
-0.738123