/*--------------------------------*- C++ -*----------------------------------*\
| =========                 |                                                 |
| \\      /  F ield         | OpenFOAM: The Open Source CFD Toolbox           |
|  \\    /   O peration     | Version:  2412                                  |
|   \\  /    A nd           | Website:  www.openfoam.com                      |
|    \\/     M anipulation  |                                                 |
\*---------------------------------------------------------------------------*/
FoamFile
{
    version     2.0;
    format      ascii;
    arch        "LSB;label=32;scalar=64";
    class       volScalarField;
    location    "0.0400007";
    object      Jsi;
}
// * * * * * * * * * * * * * * * * * * * * * * * * * * * * * * * * * * * * * //

dimensions      [0 0 0 0 0 0 0];

internalField   nonuniform List<scalar> 
8835
(
-0.0126756
-0.0125648
0
0
0
0
0
0
0
0
0
0
0
0
0
0
0
0
-0.0126441
-0.0126218
0
0
0
0
0
0
0
0
0
0
0
0
0
0
0
0
-0.0126641
-0.012561
0
0
0
0
0
0
0
0
0
0
0
0
0
0
0
0
-0.0126493
-0.0125557
0
0
0
0
0
0
0
0
0
0
0
0
0
0
0
0
-0.0126029
0
0
0
0
0
0
0
0
0
0
0
0
0
0
0
0
0
-0.0125282
0
0
0
0
0
0
0
0
0
0
0
0
0
0
0
0
0
0
0
0
0
0
0
0
0
0
0
0
0
0
0
0
0
0
0
0
0
0
0
0
0
0
0
0
0
0
0
0
0
0
0
0
0
0
0
0
0
0
0
0
0
0
0
0
0
0
0
0
0
0
0
0
0
0
0
0
0
0
0
0
0
0
0
0
0
0
0
0
0
0
0
0
0
0
0
0
0
0
0
0
0
0
0
0
0
0
0
0
0
0
0
0
0
0
0
0
0
0
0
0
0
0
0
0
0
0
0
0
0
0
0
0
0
0
0
0
0
0
0
0
0
0
0
0
0
0
0
0
0
0
0
0
0
0
0
0
0
0
0
0
0
0
0
0
0
0
0
0
0
0
0
0
0
0
0
0
0
0
0
-0.0233524
-0.0198305
-0.0165598
-0.0144347
-0.0135304
-0.0131482
-0.0129709
-0.0127529
-0.0126557
-0.0125092
0
0
0
0
0
0
0
0
-0.0230823
-0.0195123
-0.0162965
-0.0143161
-0.0134747
-0.0131923
-0.0129359
-0.0127215
-0.0126276
-0.0125702
0
0
0
0
0
0
0
0
-0.0223835
-0.0189028
-0.0158942
-0.0140692
-0.0134404
-0.0131083
-0.0129465
-0.0127381
-0.0126525
-0.0125127
0
0
0
0
0
0
0
0
-0.0214317
-0.0180459
-0.0152948
-0.0138355
-0.0133609
-0.0130619
-0.0128277
-0.0127137
-0.0125531
-0.0125107
0
0
0
0
0
0
0
0
-0.020109
-0.0169631
-0.0146087
-0.0135752
-0.0132408
-0.0129776
-0.0128444
-0.0126612
-0.0125994
0
0
0
0
0
0
0
0
0
-0.0186014
-0.0156699
-0.0140619
-0.013409
-0.0130929
-0.0129388
-0.0127378
-0.0125727
-0.012525
0
0
0
0
0
0
0
0
0
-0.0167924
-0.0145572
-0.0135735
-0.0132516
-0.0129952
-0.0127811
-0.012685
-0.0125392
0
0
0
0
0
0
0
0
0
0
-0.0150927
-0.0137871
-0.0133599
-0.0130801
-0.012859
-0.0127579
-0.0126038
-0.0124814
0
0
0
0
0
0
0
0
0
0
-0.0140041
-0.0134074
-0.0131123
-0.012889
-0.0127839
-0.0126273
-0.0125015
0
0
0
0
0
0
0
0
0
0
0
-0.0134705
-0.0131668
-0.0129443
-0.0127585
-0.0126891
-0.0125612
0
0
0
0
0
0
0
0
0
0
0
0
-0.0131679
-0.0129522
-0.0127723
-0.0126225
-0.0125869
0
0
0
0
0
0
0
0
0
0
0
0
0
-0.0129229
-0.0127518
-0.0126095
-0.0125796
0
0
0
0
0
0
0
0
0
0
0
0
0
0
-0.0128057
-0.0126699
-0.012561
0
0
0
0
0
0
0
0
0
0
0
0
0
0
0
-0.0126899
-0.0125849
0
0
0
0
0
0
0
0
0
0
0
0
0
0
0
0
-0.0125576
-0.0124715
0
0
0
0
0
0
0
0
0
0
0
0
0
0
0
0
-0.0547139
-0.0512004
-0.0476637
-0.0440936
-0.0403675
-0.0367123
-0.032793
-0.0289391
-0.0249358
-0.0209466
-0.0172808
-0.0145734
-0.0134418
-0.0130901
-0.0128805
-0.0127216
-0.0125184
-0.0124408
-0.0543766
-0.0508457
-0.0474293
-0.0437904
-0.0402232
-0.0364063
-0.0326418
-0.02864
-0.0247219
-0.0207425
-0.0170162
-0.0144495
-0.0134697
-0.0130532
-0.0128481
-0.0126931
-0.0125814
-0.0124204
-0.0538912
-0.0503709
-0.0467679
-0.0432758
-0.0395452
-0.0358753
-0.0319602
-0.0281092
-0.0240442
-0.0201571
-0.0165454
-0.0141692
-0.0133592
-0.0130621
-0.0128673
-0.0126303
-0.0125229
0
-0.0528521
-0.0494306
-0.0458603
-0.0423774
-0.0386276
-0.0348372
-0.0309771
-0.0270416
-0.0230797
-0.0192814
-0.0158066
-0.0139079
-0.013287
-0.0130298
-0.0127591
-0.0126198
-0.0125238
0
-0.051668
-0.0481464
-0.0445359
-0.041035
-0.0372907
-0.0336069
-0.0296854
-0.0258408
-0.0218203
-0.0180934
-0.0150684
-0.0136123
-0.0131736
-0.0129505
-0.0126961
-0.0125707
-0.012487
0
-0.0499913
-0.0466382
-0.0430391
-0.0393427
-0.0357317
-0.0318766
-0.0280909
-0.0241039
-0.0202891
-0.0166406
-0.0142857
-0.0134208
-0.0130303
-0.0128337
-0.0126856
-0.01258
-0.0124242
0
-0.0480295
-0.0444906
-0.0410601
-0.037384
-0.033769
-0.0298906
-0.0259969
-0.0220958
-0.0183373
-0.0152359
-0.0137354
-0.0132526
-0.0129383
-0.0127696
-0.0126448
-0.0124716
0
0
-0.0455724
-0.0422272
-0.0386322
-0.0349138
-0.0312794
-0.0274131
-0.0236466
-0.0197795
-0.0164053
-0.0141384
-0.0133721
-0.0130901
-0.0128183
-0.0126772
-0.0125782
-0.0124279
0
0
-0.0428839
-0.0393476
-0.0359002
-0.0321981
-0.0283924
-0.0246945
-0.020852
-0.0173614
-0.0146446
-0.0135507
-0.0131057
-0.0129048
-0.0127555
-0.0125593
-0.0124873
0
0
0
-0.0397532
-0.0361808
-0.0326055
-0.0289725
-0.0251808
-0.0214376
-0.0178687
-0.0150598
-0.0136679
-0.0132396
-0.0129438
-0.0127887
-0.0125876
-0.01251
0
0
0
0
-0.0361869
-0.0326753
-0.0291076
-0.0254022
-0.0216572
-0.0182012
-0.0152373
-0.0137835
-0.0132283
-0.0130139
-0.0127727
-0.0126578
-0.0124951
0
0
0
0
0
-0.0324869
-0.0289193
-0.0252575
-0.0216528
-0.0181788
-0.0152576
-0.0138052
-0.0132479
-0.0130367
-0.0128016
-0.012693
-0.0125308
0
0
0
0
0
0
-0.0285905
-0.0249755
-0.0214272
-0.0180328
-0.0151997
-0.0137987
-0.0132523
-0.0130468
-0.0128159
-0.0126237
-0.0125527
-0.0124291
0
0
0
0
0
0
-0.025193
-0.0216954
-0.0182341
-0.015413
-0.0138368
-0.0133264
-0.0130265
-0.0127951
-0.0126865
-0.012528
-0.0124891
0
0
0
0
0
0
0
-0.0231175
-0.0196969
-0.0164951
-0.0143404
-0.0134589
-0.0131703
-0.0129216
-0.0127149
-0.0126302
-0.0124923
0
0
0
0
0
0
0
0
-0.0830514
-0.0800493
-0.0767584
-0.07342
-0.0700468
-0.0666661
-0.0629989
-0.0593949
-0.0555974
-0.0517519
-0.0479261
-0.0439165
-0.0399238
-0.0357803
-0.0316127
-0.0273561
-0.0230516
-0.018836
-0.082773
-0.0796865
-0.0764212
-0.0732184
-0.0697499
-0.0663393
-0.0627353
-0.0590727
-0.0554003
-0.0515337
-0.0476153
-0.0437143
-0.0396276
-0.0355444
-0.0313105
-0.0270707
-0.022785
-0.0186019
-0.0823236
-0.0791795
-0.0759858
-0.072606
-0.0692915
-0.0657854
-0.062217
-0.0586385
-0.054784
-0.0509996
-0.0470444
-0.0431273
-0.0390741
-0.0350121
-0.0308389
-0.026486
-0.0221914
-0.0180809
-0.0814836
-0.0782869
-0.075169
-0.0717882
-0.0684728
-0.0648831
-0.0613644
-0.057659
-0.0538983
-0.0501492
-0.0462112
-0.0422171
-0.0382432
-0.0341645
-0.0298874
-0.0256239
-0.0213033
-0.0172975
-0.0803368
-0.077168
-0.0739555
-0.070631
-0.0672277
-0.0637069
-0.0601279
-0.0565415
-0.0526828
-0.048899
-0.0449472
-0.0409479
-0.0369584
-0.0328637
-0.0285681
-0.0243054
-0.0201119
-0.016317
-0.0789797
-0.0757483
-0.0724737
-0.0691462
-0.0657053
-0.0621831
-0.0585486
-0.0548648
-0.0511809
-0.0473116
-0.0433883
-0.0394728
-0.0353613
-0.0312443
-0.0269798
-0.0227553
-0.0186284
-0.0151832
-0.0772339
-0.0739913
-0.0706343
-0.0673673
-0.0638365
-0.0603767
-0.0566511
-0.0530128
-0.0492024
-0.0453406
-0.0414999
-0.0374654
-0.0334225
-0.0292302
-0.025045
-0.0208539
-0.0168678
-0.0142098
-0.0749765
-0.0717384
-0.0685589
-0.0651019
-0.0615943
-0.0580386
-0.0543779
-0.0506786
-0.0469891
-0.0431208
-0.0391832
-0.035237
-0.0311014
-0.0268856
-0.0227279
-0.018663
-0.0152088
-0.0135881
-0.0723975
-0.0692154
-0.0658571
-0.0625621
-0.0590077
-0.0555251
-0.0517996
-0.0481589
-0.0442814
-0.0404784
-0.0364978
-0.032436
-0.0283794
-0.0241776
-0.0201024
-0.0163296
-0.013993
-0.013226
-0.0695093
-0.0663096
-0.0629237
-0.0596064
-0.0560191
-0.0524058
-0.0487538
-0.0450292
-0.0412462
-0.0374652
-0.0334047
-0.0294004
-0.0252502
-0.0211907
-0.0172929
-0.0144742
-0.0133776
-0.0130271
-0.0662947
-0.0629735
-0.0596114
-0.0562039
-0.052624
-0.0491264
-0.0453925
-0.0417393
-0.0378409
-0.0340069
-0.0300009
-0.0259273
-0.0219284
-0.0180133
-0.0148676
-0.0134993
-0.0130781
-0.0128516
-0.0627555
-0.0595034
-0.0560616
-0.0525225
-0.049086
-0.0454026
-0.0416999
-0.0379446
-0.0340963
-0.0301834
-0.0262822
-0.022268
-0.018359
-0.0151834
-0.0136305
-0.0130804
-0.0128501
-0.0126794
-0.0591355
-0.0557361
-0.0523306
-0.0488863
-0.0452733
-0.0416376
-0.0379452
-0.034163
-0.0302969
-0.0263618
-0.0224083
-0.0186353
-0.0153898
-0.0136563
-0.0131429
-0.0129089
-0.0127395
-0.0125275
-0.0558407
-0.0524856
-0.0489904
-0.0455574
-0.042043
-0.0384302
-0.0346362
-0.0308095
-0.0269314
-0.0230083
-0.0192381
-0.0158287
-0.0138855
-0.0131847
-0.0129311
-0.0127549
-0.0126256
-0.0124483
-0.0538513
-0.0504184
-0.0469249
-0.0434854
-0.0399493
-0.0362166
-0.0325735
-0.0286933
-0.0248305
-0.0209593
-0.0172732
-0.0145523
-0.0134717
-0.0130364
-0.012834
-0.0126839
-0.0124899
-0.0124198
-0.107517
-0.104749
-0.102043
-0.0990616
-0.0961388
-0.0930127
-0.0898377
-0.0866528
-0.0832383
-0.0798292
-0.0762714
-0.0726894
-0.0689989
-0.0651759
-0.0611172
-0.057056
-0.0529331
-0.0487358
-0.107212
-0.104497
-0.101739
-0.0989526
-0.0958811
-0.0928579
-0.0896362
-0.086365
-0.0830693
-0.0795525
-0.076049
-0.0724
-0.0687162
-0.0649208
-0.0610095
-0.0569999
-0.052884
-0.0485604
-0.10692
-0.104131
-0.101405
-0.0984236
-0.0955
-0.0923078
-0.0892029
-0.0860081
-0.0825964
-0.0791069
-0.0756164
-0.0720095
-0.0681802
-0.064348
-0.0604429
-0.0564437
-0.0523499
-0.0481621
-0.106113
-0.103396
-0.100565
-0.097679
-0.0947762
-0.0915848
-0.0884573
-0.0851302
-0.0817368
-0.0783507
-0.0748506
-0.0711271
-0.0673978
-0.0635226
-0.0596258
-0.0556282
-0.051533
-0.0473458
-0.105212
-0.102405
-0.0996567
-0.0966539
-0.0937116
-0.0905709
-0.087377
-0.0841628
-0.0807304
-0.0772233
-0.0737139
-0.0700867
-0.0662393
-0.0623884
-0.0584647
-0.0543733
-0.0502645
-0.0460733
-0.103871
-0.101212
-0.0982947
-0.0954399
-0.0923133
-0.0892508
-0.0859878
-0.0826693
-0.0793305
-0.0757671
-0.0722162
-0.0685145
-0.0647751
-0.0609237
-0.056965
-0.0528957
-0.0486282
-0.0443856
-0.102371
-0.099696
-0.096753
-0.0938741
-0.090727
-0.0876467
-0.0843611
-0.0810238
-0.0776684
-0.0740884
-0.0704333
-0.0667663
-0.0629968
-0.059105
-0.0549962
-0.050893
-0.0467408
-0.0425314
-0.100504
-0.0977314
-0.094768
-0.0918672
-0.0886947
-0.0855896
-0.0822844
-0.0789243
-0.0755468
-0.0719428
-0.0683454
-0.0645904
-0.0608053
-0.0569177
-0.0529135
-0.048712
-0.044531
-0.0403043
-0.0982946
-0.0954354
-0.0925319
-0.0895095
-0.0864166
-0.0832015
-0.0799215
-0.0766263
-0.0731074
-0.0695058
-0.0658881
-0.0620575
-0.0582407
-0.054287
-0.050326
-0.0462747
-0.0421406
-0.0378983
-0.0957777
-0.0930116
-0.0899701
-0.0868825
-0.0837505
-0.0805048
-0.0772017
-0.0738818
-0.070268
-0.0667231
-0.0630885
-0.0592463
-0.0553421
-0.0514512
-0.0474576
-0.0432582
-0.0390625
-0.0348005
-0.0930001
-0.0900325
-0.086943
-0.0839494
-0.0807034
-0.0775243
-0.0741572
-0.070699
-0.0671145
-0.0634683
-0.0598034
-0.0559339
-0.0520906
-0.0481201
-0.0441522
-0.0400727
-0.0357812
-0.0314699
-0.0897162
-0.0868934
-0.0837947
-0.0806603
-0.0774652
-0.0741613
-0.0707649
-0.0672562
-0.0636729
-0.0600883
-0.0563099
-0.0524458
-0.0485823
-0.0445463
-0.0405304
-0.0363696
-0.0321842
-0.0278951
-0.0864943
-0.0835131
-0.0804762
-0.0772416
-0.0739679
-0.0706325
-0.0671868
-0.0636585
-0.060024
-0.0564091
-0.052632
-0.0487471
-0.0448878
-0.0408736
-0.0367345
-0.0325863
-0.0283786
-0.0241187
-0.0835097
-0.0804063
-0.077347
-0.0741813
-0.0709264
-0.0675434
-0.0639556
-0.0604911
-0.0568693
-0.0531358
-0.0493214
-0.0454105
-0.0415367
-0.0375925
-0.0333566
-0.0291972
-0.0249895
-0.0207809
-0.0815541
-0.0784314
-0.0753483
-0.0721621
-0.0688884
-0.0654843
-0.0618839
-0.0584105
-0.0547903
-0.051051
-0.0472354
-0.0433313
-0.0394471
-0.0354837
-0.0312373
-0.0270701
-0.0228724
-0.0187498
-0.127843
-0.125573
-0.123282
-0.12071
-0.118205
-0.115501
-0.112758
-0.110016
-0.107171
-0.104196
-0.100978
-0.0977611
-0.0944698
-0.0910748
-0.0875634
-0.0839453
-0.0802252
-0.0763971
-0.127729
-0.125334
-0.123008
-0.120488
-0.117935
-0.115361
-0.112571
-0.109802
-0.10689
-0.103932
-0.100867
-0.0976959
-0.0944095
-0.09099
-0.0873359
-0.0837015
-0.0801111
-0.0763154
-0.127264
-0.125025
-0.1226
-0.120137
-0.11766
-0.11497
-0.112221
-0.109471
-0.106597
-0.103497
-0.100403
-0.0972295
-0.0938798
-0.0904884
-0.0870505
-0.083427
-0.0796915
-0.0758422
-0.126732
-0.124486
-0.121978
-0.119548
-0.11693
-0.11426
-0.111603
-0.108834
-0.105838
-0.102845
-0.0997117
-0.0965463
-0.0932686
-0.0898753
-0.0863624
-0.0827295
-0.0789781
-0.0751842
-0.125848
-0.123585
-0.121136
-0.118654
-0.116151
-0.113434
-0.110664
-0.107888
-0.10499
-0.101867
-0.0987498
-0.0955546
-0.092182
-0.0887653
-0.0852354
-0.0815902
-0.077901
-0.0740247
-0.124875
-0.122505
-0.120098
-0.117677
-0.114971
-0.112341
-0.10962
-0.106685
-0.103686
-0.100668
-0.097544
-0.0943053
-0.0909346
-0.0873256
-0.0837127
-0.080031
-0.0762598
-0.0724012
-0.123619
-0.121164
-0.118781
-0.116207
-0.113579
-0.11094
-0.108078
-0.105156
-0.102229
-0.0991882
-0.0960128
-0.0925956
-0.0891734
-0.0856757
-0.0820844
-0.0783957
-0.0746098
-0.0707219
-0.122022
-0.119717
-0.117155
-0.114654
-0.111964
-0.10922
-0.106444
-0.103454
-0.100406
-0.0973422
-0.0941679
-0.0908471
-0.0872886
-0.0837313
-0.0801011
-0.0763788
-0.0725611
-0.068643
-0.120183
-0.117679
-0.115253
-0.112637
-0.109968
-0.107276
-0.10436
-0.101368
-0.0983509
-0.0951099
-0.0918838
-0.0885861
-0.0851147
-0.0816089
-0.0779908
-0.0742562
-0.0704096
-0.0664485
-0.118029
-0.115524
-0.112985
-0.110331
-0.107633
-0.104914
-0.101971
-0.0989532
-0.0959094
-0.0926425
-0.0893886
-0.0859962
-0.0825802
-0.079051
-0.0753846
-0.0714777
-0.0675558
-0.0635473
-0.115506
-0.113029
-0.11044
-0.10778
-0.104996
-0.102162
-0.0993023
-0.0962266
-0.0930717
-0.089882
-0.0864767
-0.0830829
-0.0796205
-0.0759868
-0.0723149
-0.0685185
-0.0645856
-0.0604227
-0.112735
-0.110307
-0.107622
-0.104999
-0.102117
-0.099291
-0.0962723
-0.0931596
-0.0899195
-0.0867036
-0.0833354
-0.0799213
-0.0762738
-0.072616
-0.0688847
-0.0650532
-0.0611167
-0.0570719
-0.109891
-0.107282
-0.104633
-0.101871
-0.0990322
-0.0960748
-0.0930351
-0.0898637
-0.0867081
-0.0833982
-0.0799349
-0.0764687
-0.072929
-0.0692125
-0.0654385
-0.061434
-0.0574222
-0.0533382
-0.10721
-0.104608
-0.101905
-0.099132
-0.0962436
-0.0932721
-0.0901683
-0.086983
-0.0836725
-0.0803796
-0.0769222
-0.0733158
-0.0697105
-0.0660275
-0.0622427
-0.0583441
-0.0542462
-0.05001
-0.105527
-0.102882
-0.100052
-0.0973233
-0.0943271
-0.0914001
-0.0882008
-0.0850935
-0.0818155
-0.0783966
-0.0749839
-0.0713997
-0.0676847
-0.063964
-0.0601559
-0.0562346
-0.0521922
-0.0479353
-0.144664
-0.14276
-0.140682
-0.138575
-0.136498
-0.134342
-0.132072
-0.129576
-0.127096
-0.124546
-0.121902
-0.119159
-0.11631
-0.113358
-0.110297
-0.10712
-0.10384
-0.100573
-0.144477
-0.142528
-0.140573
-0.138425
-0.136314
-0.134083
-0.13183
-0.12948
-0.12701
-0.124309
-0.121614
-0.118849
-0.115995
-0.113043
-0.109999
-0.106973
-0.103801
-0.100407
-0.144189
-0.142322
-0.140256
-0.138156
-0.136071
-0.133878
-0.131481
-0.129105
-0.126596
-0.124055
-0.121415
-0.118668
-0.115809
-0.112902
-0.109814
-0.106617
-0.103306
-0.0998941
-0.143762
-0.141883
-0.139736
-0.137689
-0.135571
-0.133254
-0.13096
-0.128548
-0.126114
-0.123578
-0.120938
-0.118185
-0.115316
-0.112331
-0.109229
-0.106086
-0.102759
-0.0993126
-0.143064
-0.141137
-0.139035
-0.136913
-0.134804
-0.13259
-0.130168
-0.127768
-0.125238
-0.122678
-0.120014
-0.117245
-0.114365
-0.111437
-0.108327
-0.105104
-0.101767
-0.0983071
-0.142272
-0.140231
-0.13817
-0.136106
-0.133837
-0.131532
-0.129223
-0.126819
-0.124315
-0.121681
-0.118819
-0.115969
-0.113057
-0.110044
-0.106926
-0.103715
-0.100525
-0.0971908
-0.14122
-0.139106
-0.137094
-0.135011
-0.132724
-0.130391
-0.128053
-0.125624
-0.12307
-0.120283
-0.117496
-0.11464
-0.111702
-0.108674
-0.105544
-0.1023
-0.0989594
-0.0956272
-0.139818
-0.137886
-0.135694
-0.13359
-0.131396
-0.129002
-0.126558
-0.124102
-0.121549
-0.118886
-0.116096
-0.113072
-0.110059
-0.106985
-0.103812
-0.100526
-0.0971453
-0.0937843
-0.138322
-0.136248
-0.134135
-0.132008
-0.129674
-0.127279
-0.12486
-0.122223
-0.119611
-0.116937
-0.114174
-0.111235
-0.108258
-0.105168
-0.102035
-0.0987147
-0.0952792
-0.0917353
-0.136439
-0.134321
-0.132187
-0.130038
-0.12768
-0.125267
-0.122821
-0.120155
-0.117512
-0.114806
-0.111948
-0.109056
-0.106054
-0.102933
-0.0996947
-0.0963389
-0.0929447
-0.0893658
-0.134308
-0.132216
-0.130121
-0.127762
-0.12545
-0.122954
-0.120492
-0.117885
-0.115217
-0.112318
-0.10943
-0.106478
-0.103428
-0.100267
-0.0969941
-0.0936088
-0.0901127
-0.0864917
-0.131967
-0.129837
-0.127592
-0.125309
-0.122999
-0.120482
-0.117905
-0.115297
-0.112474
-0.109665
-0.106718
-0.10373
-0.100608
-0.0972447
-0.0938728
-0.0904165
-0.0868525
-0.0831757
-0.129489
-0.1273
-0.125011
-0.122663
-0.120194
-0.117747
-0.11514
-0.112378
-0.10963
-0.106749
-0.103814
-0.100649
-0.0974813
-0.0942237
-0.0908615
-0.0873824
-0.0837857
-0.0800679
-0.127241
-0.124898
-0.122589
-0.120171
-0.117779
-0.115236
-0.112539
-0.109829
-0.10685
-0.10396
-0.101
-0.0979221
-0.0947144
-0.0911972
-0.0877434
-0.0842095
-0.0805751
-0.0768317
-0.125569
-0.123343
-0.120992
-0.118576
-0.116035
-0.113502
-0.110701
-0.107988
-0.105175
-0.10207
-0.099054
-0.0959703
-0.0927814
-0.0894703
-0.0860206
-0.0823311
-0.0786257
-0.0748327
-0.158676
-0.15707
-0.155385
-0.153515
-0.151687
-0.149817
-0.14782
-0.145801
-0.143698
-0.141569
-0.139285
-0.136915
-0.134458
-0.131923
-0.12941
-0.12675
-0.123887
-0.1209
-0.158546
-0.156903
-0.155178
-0.153442
-0.15162
-0.149604
-0.147616
-0.145582
-0.143475
-0.141281
-0.139006
-0.136641
-0.134199
-0.131792
-0.129247
-0.126501
-0.123626
-0.120716
-0.15831
-0.156707
-0.155023
-0.153165
-0.151343
-0.149414
-0.147473
-0.145457
-0.143354
-0.14116
-0.138869
-0.136548
-0.134066
-0.131489
-0.128808
-0.12604
-0.123373
-0.120421
-0.157949
-0.156318
-0.154512
-0.152747
-0.150893
-0.149035
-0.147103
-0.145085
-0.142978
-0.140777
-0.138478
-0.136078
-0.133646
-0.131049
-0.128359
-0.125584
-0.122898
-0.119935
-0.157323
-0.155698
-0.153993
-0.152112
-0.150271
-0.148328
-0.14637
-0.144331
-0.14221
-0.139998
-0.137691
-0.135355
-0.13286
-0.130261
-0.127556
-0.124761
-0.122063
-0.119085
-0.156684
-0.154914
-0.153191
-0.151364
-0.149526
-0.147609
-0.145583
-0.143352
-0.141146
-0.138898
-0.136585
-0.134212
-0.131867
-0.129321
-0.126703
-0.123904
-0.120992
-0.117974
-0.155792
-0.15401
-0.152208
-0.150426
-0.148571
-0.146613
-0.144447
-0.142298
-0.140101
-0.137835
-0.135498
-0.133082
-0.130573
-0.127986
-0.125417
-0.1227
-0.119774
-0.116719
-0.154607
-0.152932
-0.151077
-0.149268
-0.147351
-0.145407
-0.143367
-0.141221
-0.138866
-0.136543
-0.134163
-0.131702
-0.129173
-0.126682
-0.124054
-0.121217
-0.118248
-0.115156
-0.153346
-0.151658
-0.14979
-0.147889
-0.145965
-0.143844
-0.141751
-0.139614
-0.137405
-0.135113
-0.132732
-0.130253
-0.127678
-0.125007
-0.122221
-0.119319
-0.116328
-0.113425
-0.151751
-0.150012
-0.148118
-0.146208
-0.144298
-0.14228
-0.14006
-0.137867
-0.135625
-0.133303
-0.130893
-0.128387
-0.12578
-0.123075
-0.120255
-0.117321
-0.114301
-0.111361
-0.149993
-0.148145
-0.146276
-0.144394
-0.142324
-0.140289
-0.138139
-0.135967
-0.13368
-0.131169
-0.128671
-0.126111
-0.123458
-0.120698
-0.11783
-0.114877
-0.112014
-0.108861
-0.147967
-0.146094
-0.144205
-0.142303
-0.140205
-0.138135
-0.135926
-0.133569
-0.131238
-0.128851
-0.12638
-0.123811
-0.12113
-0.11833
-0.115411
-0.112377
-0.109229
-0.105962
-0.145739
-0.14384
-0.141988
-0.14
-0.137872
-0.135777
-0.133534
-0.131143
-0.128782
-0.126369
-0.123864
-0.121248
-0.118524
-0.115687
-0.112731
-0.109656
-0.106462
-0.103147
-0.143733
-0.141804
-0.139831
-0.137752
-0.1357
-0.133516
-0.131193
-0.128886
-0.12651
-0.124039
-0.121444
-0.118551
-0.115724
-0.112821
-0.109825
-0.106792
-0.103573
-0.10025
-0.142264
-0.140415
-0.138331
-0.136316
-0.134066
-0.131914
-0.129694
-0.12737
-0.124766
-0.12224
-0.119652
-0.116965
-0.114171
-0.111265
-0.108242
-0.105098
-0.101839
-0.0984678
-0.170763
-0.169293
-0.167747
-0.166205
-0.16461
-0.162951
-0.161222
-0.159477
-0.157605
-0.155663
-0.153654
-0.151592
-0.149636
-0.147442
-0.145129
-0.142795
-0.140428
-0.137876
-0.170661
-0.169082
-0.167556
-0.166008
-0.164408
-0.162742
-0.16101
-0.159218
-0.157365
-0.155458
-0.153597
-0.151622
-0.149483
-0.147249
-0.144937
-0.142717
-0.140245
-0.137724
-0.170386
-0.168899
-0.167427
-0.165897
-0.164304
-0.162647
-0.160919
-0.159119
-0.157304
-0.155361
-0.153346
-0.151253
-0.149099
-0.147053
-0.144762
-0.142373
-0.140061
-0.137486
-0.170079
-0.16859
-0.167113
-0.165584
-0.163994
-0.162333
-0.160603
-0.1588
-0.156919
-0.155025
-0.152996
-0.150888
-0.148701
-0.146459
-0.144321
-0.141936
-0.139513
-0.137039
-0.169568
-0.16809
-0.166534
-0.164983
-0.16337
-0.161699
-0.159961
-0.158154
-0.156333
-0.154382
-0.152357
-0.150251
-0.148077
-0.146008
-0.143697
-0.141268
-0.138816
-0.136329
-0.168962
-0.167482
-0.165953
-0.16434
-0.162554
-0.160809
-0.159037
-0.157218
-0.155342
-0.153418
-0.151547
-0.149563
-0.147405
-0.145142
-0.1428
-0.140548
-0.138044
-0.135426
-0.168177
-0.166687
-0.165126
-0.163391
-0.161691
-0.159964
-0.15818
-0.156349
-0.154464
-0.15251
-0.150506
-0.14854
-0.146449
-0.144178
-0.141801
-0.13941
-0.136981
-0.134342
-0.167198
-0.165648
-0.164125
-0.162544
-0.160888
-0.159142
-0.157209
-0.155312
-0.153401
-0.151557
-0.149543
-0.147483
-0.145273
-0.142972
-0.140592
-0.138297
-0.135742
-0.133045
-0.166023
-0.164493
-0.162958
-0.161336
-0.159531
-0.157749
-0.15594
-0.154085
-0.152171
-0.150179
-0.148099
-0.145935
-0.143708
-0.141594
-0.139214
-0.136709
-0.134174
-0.131591
-0.164605
-0.163093
-0.161499
-0.159901
-0.158207
-0.156327
-0.154477
-0.152593
-0.150644
-0.148618
-0.146508
-0.144314
-0.142062
-0.139922
-0.137514
-0.134975
-0.132347
-0.129792
-0.163104
-0.16152
-0.159935
-0.158169
-0.156444
-0.15469
-0.15288
-0.150999
-0.149036
-0.146986
-0.144859
-0.142651
-0.140345
-0.137949
-0.135451
-0.132943
-0.130387
-0.127622
-0.161289
-0.159684
-0.158086
-0.156306
-0.154559
-0.152788
-0.150958
-0.148989
-0.147004
-0.144939
-0.142857
-0.140627
-0.138292
-0.135853
-0.133307
-0.130654
-0.127969
-0.125117
-0.159404
-0.157741
-0.156127
-0.154385
-0.152523
-0.150702
-0.148841
-0.146904
-0.144894
-0.142805
-0.140628
-0.138353
-0.135978
-0.133498
-0.130911
-0.128223
-0.125493
-0.122598
-0.157542
-0.15585
-0.154204
-0.152439
-0.150564
-0.148728
-0.146838
-0.14487
-0.142791
-0.140513
-0.138243
-0.13591
-0.13349
-0.130974
-0.128377
-0.125807
-0.123028
-0.120172
-0.156112
-0.154514
-0.152866
-0.150989
-0.149197
-0.147336
-0.145275
-0.143181
-0.141099
-0.138943
-0.136704
-0.134373
-0.13195
-0.129429
-0.126796
-0.124122
-0.121269
-0.118322
-0.18144
-0.180099
-0.178713
-0.177272
-0.175773
-0.174278
-0.172674
-0.171015
-0.169305
-0.167557
-0.165933
-0.164094
-0.162241
-0.160375
-0.158354
-0.156404
-0.154214
-0.151982
-0.181266
-0.179922
-0.178533
-0.177093
-0.175595
-0.174049
-0.172453
-0.170828
-0.169259
-0.167608
-0.165816
-0.163964
-0.162209
-0.160239
-0.158243
-0.156223
-0.154103
-0.151922
-0.181135
-0.179804
-0.178421
-0.176986
-0.175495
-0.173944
-0.172396
-0.170736
-0.169032
-0.167284
-0.16565
-0.163815
-0.161908
-0.16009
-0.158047
-0.155974
-0.153873
-0.151669
-0.180812
-0.179476
-0.178094
-0.176669
-0.175188
-0.173644
-0.172047
-0.170448
-0.168735
-0.166965
-0.165158
-0.163463
-0.161556
-0.159633
-0.15769
-0.155591
-0.153556
-0.151353
-0.180341
-0.178989
-0.177595
-0.176154
-0.17466
-0.173112
-0.171572
-0.169922
-0.168212
-0.166456
-0.164811
-0.162959
-0.161015
-0.159069
-0.157112
-0.155064
-0.152963
-0.150757
-0.179793
-0.17829
-0.176831
-0.175355
-0.173847
-0.172309
-0.170741
-0.169235
-0.167638
-0.165896
-0.16408
-0.162211
-0.160441
-0.158452
-0.156443
-0.154401
-0.152265
-0.150056
-0.179088
-0.177581
-0.176119
-0.174637
-0.17313
-0.171583
-0.169984
-0.168356
-0.166779
-0.165109
-0.163287
-0.161394
-0.159504
-0.157593
-0.155506
-0.153396
-0.151262
-0.149011
-0.178203
-0.176842
-0.175435
-0.173981
-0.172473
-0.170905
-0.169278
-0.167601
-0.165931
-0.164146
-0.162286
-0.160379
-0.158582
-0.15657
-0.154531
-0.15246
-0.150289
-0.148035
-0.177152
-0.175761
-0.174217
-0.172718
-0.171192
-0.169619
-0.167999
-0.166347
-0.16475
-0.16306
-0.161205
-0.159272
-0.157289
-0.155416
-0.153305
-0.151163
-0.148983
-0.1467
-0.175878
-0.174464
-0.173059
-0.171601
-0.170085
-0.168509
-0.166876
-0.165183
-0.163497
-0.161689
-0.159807
-0.157861
-0.15592
-0.153963
-0.151828
-0.149657
-0.147441
-0.1451
-0.174418
-0.17306
-0.171625
-0.170021
-0.168452
-0.166861
-0.16522
-0.163517
-0.161747
-0.159922
-0.158114
-0.156299
-0.154304
-0.152204
-0.150079
-0.147922
-0.145654
-0.143199
-0.172784
-0.171416
-0.169944
-0.168437
-0.166764
-0.165131
-0.163467
-0.161743
-0.159965
-0.15813
-0.156313
-0.154477
-0.152453
-0.150313
-0.148137
-0.145826
-0.143554
-0.14114
-0.17106
-0.169556
-0.168101
-0.166618
-0.165069
-0.163461
-0.16177
-0.159907
-0.158095
-0.156369
-0.154476
-0.15248
-0.150386
-0.148198
-0.145978
-0.143621
-0.14131
-0.138862
-0.169327
-0.167897
-0.166271
-0.164754
-0.163206
-0.161605
-0.159928
-0.158156
-0.156222
-0.15443
-0.1525
-0.150471
-0.148355
-0.146149
-0.143907
-0.141531
-0.139183
-0.136702
-0.168025
-0.16648
-0.164939
-0.163442
-0.161893
-0.160252
-0.15842
-0.156617
-0.154772
-0.152865
-0.150887
-0.148836
-0.146728
-0.144656
-0.14245
-0.140056
-0.137578
-0.135177
-0.191091
-0.189783
-0.188428
-0.187085
-0.185647
-0.184169
-0.182669
-0.181287
-0.179719
-0.178095
-0.176578
-0.174867
-0.173135
-0.171406
-0.169598
-0.167844
-0.165977
-0.163988
-0.162023
-0.190888
-0.189631
-0.188284
-0.186895
-0.185457
-0.183995
-0.182654
-0.181144
-0.179585
-0.178116
-0.176458
-0.174791
-0.173117
-0.171372
-0.169589
-0.167723
-0.165873
-0.163812
-0.161844
-0.190772
-0.189481
-0.188142
-0.186763
-0.185383
-0.183908
-0.182386
-0.180839
-0.179413
-0.177804
-0.176192
-0.174573
-0.172883
-0.171164
-0.16936
-0.167575
-0.165583
-0.163677
-0.16171
-0.190258
-0.188968
-0.187659
-0.186404
-0.185024
-0.183619
-0.182116
-0.180581
-0.179159
-0.177553
-0.175942
-0.174327
-0.172584
-0.170916
-0.169114
-0.167267
-0.165321
-0.16339
-0.161244
-0.190042
-0.188744
-0.187401
-0.186021
-0.184646
-0.183185
-0.18169
-0.180303
-0.178735
-0.177093
-0.175466
-0.173838
-0.172141
-0.170411
-0.168602
-0.166749
-0.164803
-0.162891
-0.160914
-0.189353
-0.188045
-0.186705
-0.185324
-0.183927
-0.182593
-0.181189
-0.179656
-0.178077
-0.176599
-0.174933
-0.173261
-0.171585
-0.16983
-0.168034
-0.166156
-0.164285
-0.1622
-0.160197
-0.188699
-0.187388
-0.186048
-0.184667
-0.18327
-0.181933
-0.180523
-0.178976
-0.177374
-0.175792
-0.17421
-0.172507
-0.170877
-0.169037
-0.167175
-0.165377
-0.163467
-0.161431
-0.159399
-0.188078
-0.186774
-0.185425
-0.184041
-0.182662
-0.181191
-0.179661
-0.178085
-0.176531
-0.174986
-0.1733
-0.171604
-0.169909
-0.168142
-0.166332
-0.164437
-0.16255
-0.160442
-0.158409
-0.187091
-0.185665
-0.184294
-0.183018
-0.181621
-0.180211
-0.178693
-0.177123
-0.175525
-0.17404
-0.172347
-0.170568
-0.168799
-0.16703
-0.165175
-0.163344
-0.161295
-0.159308
-0.157157
-0.185878
-0.184581
-0.183246
-0.181869
-0.180449
-0.178973
-0.177438
-0.175857
-0.1743
-0.172751
-0.171063
-0.169358
-0.167631
-0.16582
-0.163856
-0.161996
-0.159923
-0.157915
-0.15574
-0.184551
-0.183212
-0.18188
-0.180547
-0.179121
-0.177646
-0.176113
-0.174528
-0.172893
-0.171292
-0.169688
-0.167938
-0.166166
-0.164357
-0.162455
-0.160412
-0.158455
-0.156279
-0.154169
-0.18296
-0.181672
-0.180345
-0.178965
-0.177522
-0.176033
-0.174495
-0.172904
-0.171266
-0.169645
-0.168029
-0.166261
-0.164449
-0.162523
-0.160695
-0.158656
-0.156691
-0.154491
-0.152348
-0.181361
-0.180069
-0.178734
-0.177331
-0.175765
-0.174241
-0.172712
-0.17124
-0.169631
-0.167938
-0.166182
-0.164408
-0.162526
-0.160737
-0.158722
-0.156619
-0.154623
-0.152457
-0.15023
-0.179566
-0.178231
-0.176887
-0.175508
-0.174074
-0.172591
-0.171055
-0.169462
-0.167804
-0.166141
-0.164356
-0.162525
-0.160737
-0.158841
-0.15678
-0.154703
-0.152619
-0.150426
-0.148176
-0.178439
-0.177017
-0.175597
-0.174217
-0.172793
-0.171306
-0.169757
-0.168147
-0.16653
-0.164789
-0.162991
-0.161151
-0.159359
-0.157458
-0.155389
-0.153307
-0.151209
-0.149009
-0.14674
-0.199854
-0.198607
-0.197282
-0.195934
-0.194692
-0.193289
-0.191844
-0.190505
-0.188994
-0.187483
-0.186045
-0.184516
-0.182907
-0.181326
-0.179566
-0.177903
-0.176208
-0.174422
-0.17247
-0.199745
-0.198458
-0.197151
-0.195892
-0.194577
-0.193157
-0.191755
-0.190362
-0.18892
-0.187455
-0.185931
-0.184379
-0.18276
-0.18119
-0.179581
-0.177777
-0.176063
-0.174303
-0.172462
-0.199524
-0.198291
-0.197038
-0.195687
-0.194309
-0.193033
-0.191596
-0.19017
-0.188744
-0.187264
-0.185759
-0.184189
-0.182646
-0.180929
-0.179313
-0.177664
-0.175941
-0.174065
-0.172222
-0.199159
-0.197995
-0.196766
-0.195429
-0.194038
-0.192677
-0.191324
-0.189877
-0.188514
-0.187037
-0.185531
-0.183965
-0.18237
-0.180703
-0.179075
-0.177402
-0.175575
-0.173728
-0.171909
-0.198892
-0.197681
-0.196372
-0.195015
-0.193635
-0.192362
-0.190932
-0.189507
-0.188077
-0.186594
-0.185088
-0.183516
-0.18197
-0.180243
-0.178611
-0.176934
-0.175101
-0.173309
-0.171433
-0.198296
-0.197043
-0.195844
-0.194585
-0.193209
-0.191806
-0.190506
-0.189029
-0.187554
-0.186081
-0.184551
-0.182996
-0.181379
-0.1798
-0.178182
-0.176365
-0.174626
-0.172826
-0.170868
-0.197662
-0.196408
-0.195212
-0.193957
-0.192585
-0.191186
-0.189888
-0.188414
-0.18694
-0.185463
-0.183934
-0.182381
-0.180753
-0.179152
-0.177368
-0.17567
-0.173921
-0.172005
-0.17012
-0.197047
-0.195809
-0.194494
-0.193136
-0.191759
-0.190491
-0.189061
-0.187581
-0.186188
-0.18463
-0.183058
-0.181544
-0.179858
-0.178274
-0.176646
-0.174816
-0.173068
-0.171248
-0.169264
-0.196135
-0.194897
-0.193581
-0.192225
-0.190836
-0.189472
-0.188109
-0.186629
-0.185154
-0.183678
-0.182141
-0.18058
-0.178944
-0.177344
-0.175553
-0.173854
-0.172092
-0.170171
-0.168272
-0.194944
-0.193668
-0.192353
-0.191024
-0.189806
-0.188416
-0.186961
-0.185519
-0.184077
-0.182577
-0.180952
-0.179437
-0.177739
-0.17612
-0.174315
-0.172612
-0.170844
-0.168907
-0.166999
-0.193656
-0.192386
-0.191077
-0.18973
-0.188422
-0.187115
-0.185685
-0.184184
-0.182705
-0.181236
-0.1797
-0.178129
-0.176463
-0.174679
-0.173007
-0.171289
-0.169419
-0.167509
-0.165589
-0.192372
-0.191111
-0.18981
-0.188466
-0.187071
-0.185639
-0.184217
-0.182714
-0.181273
-0.179761
-0.178139
-0.176623
-0.174919
-0.17328
-0.171457
-0.1697
-0.167793
-0.165838