/*--------------------------------*- C++ -*----------------------------------*\
| =========                 |                                                 |
| \\      /  F ield         | OpenFOAM: The Open Source CFD Toolbox           |
|  \\    /   O peration     | Version:  2412                                  |
|   \\  /    A nd           | Website:  www.openfoam.com                      |
|    \\/     M anipulation  |                                                 |
\*---------------------------------------------------------------------------*/
FoamFile
{
    version     2.0;
    format      ascii;
    arch        "LSB;label=32;scalar=64";
    class       volScalarField;
    location    "0.0400007";
    object      Vm_0;
}
// * * * * * * * * * * * * * * * * * * * * * * * * * * * * * * * * * * * * * //

dimensions      [1 2 -3 0 0 -1 0];

internalField   nonuniform List<scalar> 
8835
(
-0.0667227
-0.0704871
-0.073938
-0.0765891
-0.0782518
-0.0793148
-0.0801804
-0.0809592
-0.0816442
-0.0822149
-0.0826562
-0.0829711
-0.0831931
-0.0833634
-0.0835024
-0.0836234
-0.0837182
-0.0837892
-0.0670381
-0.0707889
-0.0741962
-0.0767489
-0.0783462
-0.0793821
-0.080239
-0.0810105
-0.0816869
-0.0822493
-0.0826816
-0.0829881
-0.0832051
-0.0833733
-0.0835109
-0.08363
-0.083723
-0.0837926
-0.0677109
-0.0714415
-0.074701
-0.0770749
-0.0785411
-0.0795258
-0.0803655
-0.0811212
-0.0817798
-0.0823215
-0.0827336
-0.0830235
-0.0832309
-0.0833923
-0.0835281
-0.0836437
-0.0837332
-0.0837998
-0.0687326
-0.0723691
-0.0754226
-0.0775268
-0.0788194
-0.079747
-0.0805634
-0.0812944
-0.0819226
-0.0824305
-0.0828099
-0.0830756
-0.0832696
-0.083422
-0.0835547
-0.0836644
-0.0837486
-0.0838109
-0.0701098
-0.073554
-0.0762886
-0.0780529
-0.0791608
-0.0800319
-0.0808152
-0.0815103
-0.0820991
-0.0825648
-0.0829038
-0.0831415
-0.0833205
-0.083463
-0.0835901
-0.0836916
-0.0837686
-0.0838255
-0.0717908
-0.0749403
-0.0772027
-0.0785991
-0.079556
-0.0803801
-0.0811232
-0.0817722
-0.0823076
-0.0827177
-0.0830085
-0.0832166
-0.0833782
-0.0835146
-0.0836317
-0.0837232
-0.0837918
-0.0838424
-0.073728
-0.0763571
-0.0780641
-0.0791492
-0.0800077
-0.0807834
-0.081475
-0.0820632
-0.0825323
-0.0828761
-0.0831181
-0.0832992
-0.0834456
-0.0835727
-0.0836771
-0.0837571
-0.0838165
-0.0838605
-0.0756515
-0.0776078
-0.0788296
-0.0797229
-0.0805154
-0.0812303
-0.0818518
-0.082363
-0.0827518
-0.0830281
-0.0832282
-0.0833855
-0.0835188
-0.0836336
-0.0837234
-0.0837911
-0.0838412
-0.083879
-0.0772965
-0.07861
-0.0795294
-0.0803286
-0.0810545
-0.081694
-0.0822303
-0.0826497
-0.0829536
-0.0831703
-0.0833373
-0.0834744
-0.0835964
-0.0836939
-0.0837684
-0.0838238
-0.0838653
-0.0838974
-0.0785084
-0.0794373
-0.0802342
-0.0809595
-0.0816039
-0.0821504
-0.0825838
-0.0829027
-0.0831301
-0.0833034
-0.0834447
-0.0835684
-0.0836709
-0.0837503
-0.0838098
-0.0838543
-0.0838884
-0.0839154
-0.0794323
-0.0802184
-0.0809349
-0.0815734
-0.0821174
-0.0825528
-0.0828764
-0.0831085
-0.0832846
-0.0834262
-0.0835511
-0.0836561
-0.083738
-0.0838
-0.0838464
-0.0838819
-0.0839099
-0.0839323
-0.0802649
-0.0809664
-0.0815922
-0.0821259
-0.0825536
-0.0828728
-0.0831028
-0.0832778
-0.0834186
-0.0835432
-0.0836485
-0.0837312
-0.0837941
-0.0838414
-0.0838776
-0.0839062
-0.0839291
-0.0839469
-0.0810101
-0.0816241
-0.0821464
-0.0825637
-0.0828752
-0.083101
-0.0832741
-0.0834138
-0.083538
-0.0836433
-0.0837262
-0.0837896
-0.0838374
-0.0838741
-0.0839031
-0.0839264
-0.0839446
-0.0839585
-0.0815875
-0.0821113
-0.0825324
-0.0828475
-0.0830767
-0.083252
-0.0833961
-0.0835199
-0.0836278
-0.0837135
-0.0837793
-0.0838291
-0.0838673
-0.0838974
-0.0839217
-0.0839408
-0.0839555
-0.0839666
-0.081904
-0.0823664
-0.0827224
-0.0829823
-0.083176
-0.0833314
-0.0834616
-0.0835795
-0.0836752
-0.0837495
-0.0838061
-0.0838491
-0.0838828
-0.0839099
-0.0839316
-0.0839484
-0.0839611
-0.0839708
0.0309054
0.0230608
0.00425045
-0.0241187
-0.0465029
-0.0565895
-0.0602246
-0.0634702
-0.0669631
-0.0706258
-0.0742082
-0.0771563
-0.0789531
-0.0799921
-0.0808042
-0.0815264
-0.0821513
-0.0826545
0.0306945
0.0218545
0.00193647
-0.0259131
-0.047619
-0.0569522
-0.060433
-0.0636879
-0.067186
-0.0708641
-0.0744421
-0.0773075
-0.0790382
-0.0800491
-0.0808532
-0.0815684
-0.0821846
-0.0826785
0.0293694
0.0188483
-0.00244166
-0.0305628
-0.0500347
-0.0576449
-0.0609341
-0.0642106
-0.0677389
-0.0714069
-0.0749377
-0.0776303
-0.0792065
-0.0801635
-0.0809527
-0.0816562
-0.0822571
-0.0827314
0.0275121
0.01439
-0.0096976
-0.0367628
-0.0528884
-0.058562
-0.0617583
-0.065089
-0.0686402
-0.0722655
-0.0756512
-0.0780692
-0.0794467
-0.0803414
-0.0811098
-0.0817912
-0.0823651
-0.0828099
0.0239648
0.00741233
-0.0199511
-0.043983
-0.0556812
-0.0596481
-0.0628105
-0.0661974
-0.0697974
-0.0733994
-0.0765419
-0.0785891
-0.0797463
-0.0805834
-0.081324
-0.0819739
-0.08251
-0.0829129
0.0178177
-0.00479322
-0.0324492
-0.0506513
-0.0577871
-0.0609979
-0.0642251
-0.0676989
-0.0713027
-0.0747891
-0.0775014
-0.0791212
-0.0800903
-0.0808783
-0.0815816
-0.082188
-0.0826752
-0.0830271
0.00591
-0.0209711
-0.044215
-0.0556483
-0.0595627
-0.0626843
-0.0660296
-0.0695771
-0.0731526
-0.0762975
-0.0784233
-0.0796324
-0.0804771
-0.0812191
-0.0818757
-0.0824269
-0.0828515
-0.0831435
-0.0123744
-0.0380547
-0.0530767
-0.0584791
-0.0615468
-0.0647494
-0.0681818
-0.0717437
-0.0751071
-0.0776818
-0.0791989
-0.0801307
-0.080903
-0.0815945
-0.0821912
-0.0826717
-0.0830208
-0.083255
-0.0336782
-0.0508618
-0.0577032
-0.0607973
-0.0639023
-0.0672354
-0.0707386
-0.0741571
-0.0770104
-0.0788116
-0.0798554
-0.0806518
-0.0813642
-0.0819916
-0.082511
-0.0829041
-0.0831738
-0.0833599
-0.0498362
-0.0573331
-0.0604391
-0.0634698
-0.0667415
-0.0701937
-0.073604
-0.0765612
-0.0785228
-0.0796575
-0.0804721
-0.0811949
-0.0818391
-0.0823831
-0.0828074
-0.0831061
-0.0833096
-0.0834588
-0.0573116
-0.0603701
-0.0633476
-0.0665573
-0.0699451
-0.0733182
-0.0763084
-0.0783596
-0.0795452
-0.0803683
-0.0810924
-0.081741
-0.082296
-0.0827383
-0.0830562
-0.0832725
-0.0834287
-0.0835615
-0.0605275
-0.0634779
-0.0666588
-0.0700073
-0.0733334
-0.0762844
-0.0783227
-0.0795099
-0.0803294
-0.0810477
-0.0816932
-0.0822502
-0.0826979
-0.0830245
-0.0832476
-0.0834094
-0.0835419
-0.0836555
-0.0636609
-0.0668341
-0.0701665
-0.0734488
-0.0763325
-0.0783197
-0.0794894
-0.0803031
-0.0810187
-0.0816635
-0.0822197
-0.0826689
-0.0830003
-0.0832282
-0.0833919
-0.0835258
-0.0836416
-0.0837332
-0.0665802
-0.0699012
-0.0732164
-0.0761111
-0.078145
-0.0793592
-0.0801875
-0.0809105
-0.0815651
-0.0821358
-0.0826011
-0.0829487
-0.0831894
-0.0833615
-0.0834974
-0.0836177
-0.083714
-0.0837875
-0.0684582
-0.0718145
-0.0749696
-0.0773942
-0.0788897
-0.0798218
-0.0805766
-0.0812641
-0.0818761
-0.0823932
-0.0827956
-0.0830812
-0.08328
-0.083429
-0.0835585
-0.0836673
-0.083752
-0.0838153
0.0346919
0.0343881
0.0338798
0.0337256
0.0339743
0.0345749
0.0348462
0.0345471
0.0324362
0.026447
0.0106959
-0.0196009
-0.0462089
-0.0573165
-0.0611894
-0.0647791
-0.0686283
-0.0725996
0.034671
0.0343359
0.0339455
0.0337535
0.0341409
0.0346372
0.0350079
0.0345346
0.0324049
0.0256786
0.00883898
-0.0213357
-0.047419
-0.0576323
-0.0614243
-0.065021
-0.0688681
-0.0728203
0.0346833
0.0342929
0.033826
0.0338089
0.0341537
0.0347481
0.0349286
0.0344008
0.031703
0.0241613
0.00453723
-0.0263126
-0.0497055
-0.0582182
-0.0618895
-0.0655405
-0.0694263
-0.0733535
0.0345001
0.0341606
0.033769
0.0338864
0.034271
0.034679
0.0348119
0.0338111
0.0305158
0.0211749
-0.0018275
-0.0327839
-0.0526776
-0.0590919
-0.0626536
-0.0663328
-0.0702221
-0.0740931
0.0344589
0.0339928
0.0336779
0.0339689
0.0344586
0.0349351
0.034734
0.033301
0.0283609
0.015594
-0.0118067
-0.0408592
-0.0556295
-0.0602107
-0.0637426
-0.067489
-0.0713958
-0.0751532
0.0342277
0.033888
0.0337879
0.034135
0.0347331
0.0349114
0.0344031
0.0318039
0.0245856
0.00593085
-0.0243278
-0.0487026
-0.0578855
-0.0615511
-0.0651039
-0.0689033
-0.0728032
-0.0763456
0.0339208
0.0336504
0.0339647
0.0344588
0.0349422
0.0347276
0.0332147
0.0287201
0.0164267
-0.0088633
-0.0382782
-0.0546704
-0.059734
-0.0631842
-0.0668293
-0.0706947
-0.0745318
-0.0775859
0.033674
0.0338486
0.0342756
0.0347136
0.0349279
0.0341242
0.031286
0.0230137
0.00365414
-0.0270396
-0.0496966
-0.0580945
-0.0616657
-0.0651795
-0.0689303
-0.0727771
-0.0763017
-0.078646
0.0337516
0.0341283
0.0347405
0.0349428
0.0344232
0.0323932
0.0261886
0.011104
-0.0175085
-0.0441997
-0.0565081
-0.0605216
-0.0639401
-0.0676036
-0.0714118
-0.0750743
-0.0778822
-0.0794766
0.0341096
0.0345634
0.0348165
0.0345701
0.0326623
0.0272434
0.0141826
-0.0121534
-0.0399478
-0.0549629
-0.0597164
-0.0630743
-0.0666377
-0.0703907
-0.0741029
-0.0772064
-0.0791048
-0.0801709
0.0345808
0.0348514
0.0346725
0.0329633
0.0280391
0.0161357
-0.00885493
-0.0375957
-0.0538895
-0.0592448
-0.0625598
-0.0660191
-0.0697004
-0.0734284
-0.0766853
-0.0787988
-0.0799653
-0.0808122
0.035012
0.03466
0.0328798
0.0279247
0.016079
-0.00858023
-0.0370758
-0.0535715
-0.0590759
-0.0623386
-0.0657346
-0.0693705
-0.0730489
-0.076358
-0.0785954
-0.0798275
-0.0806855
-0.0814316
0.0346132
0.0327315
0.0275677
0.0154019
-0.00926991
-0.0371844
-0.0534218
-0.0589488
-0.0621939
-0.0655698
-0.0691513
-0.072792
-0.0761297
-0.078432
-0.0797174
-0.0805876
-0.081339
-0.0819967
0.0332533
0.0284492
0.0164364
-0.0066968
-0.0346051
-0.0520985
-0.0583886
-0.0616427
-0.0649743
-0.0685522
-0.0722061
-0.0756132
-0.0780956
-0.0795027
-0.0804082
-0.0811778
-0.0818566
-0.0824259
0.0315142
0.0233996
0.00443249
-0.0239212
-0.0462595
-0.0564469
-0.0601006
-0.0633212
-0.0667825
-0.0704558
-0.0740688
-0.0770661
-0.0789089
-0.0799688
-0.0807894
-0.0815181
-0.0821484
-0.0826561
0.0298508
0.030685
0.0314516
0.0322251
0.0330619
0.0338393
0.0344133
0.0348752
0.0350056
0.034903
0.0344824
0.0340011
0.0342063
0.0347541
0.0349903
0.0341845
0.0306269
0.0199331
0.0298748
0.0307062
0.0315014
0.0323461
0.0331084
0.033854
0.0344238
0.0348965
0.0351052
0.0348693
0.0344236
0.0340993
0.0342046
0.0347165
0.0348952
0.0339602
0.0301204
0.0188746
0.0300485
0.030814
0.0316529
0.0324401
0.0332472
0.0339222
0.0345491
0.0349892
0.0350582
0.0348471
0.0342508
0.0340101
0.0343544
0.0348767
0.0348965
0.0334386
0.0287844
0.0157394
0.030235
0.0310235
0.0318726
0.0326555
0.0334442
0.0340757
0.0346393
0.0349291
0.0350228
0.0347723
0.0341815
0.0340673
0.0345035
0.0349478
0.0346329
0.0329086
0.0272353
0.0115873
0.0305141
0.0312781
0.0321134
0.032881
0.0336457
0.0342523
0.0347822
0.0350834
0.0349644
0.0345772
0.0340269
0.0340975
0.0346075
0.0349306
0.0342718
0.0316896
0.023896
0.00345126
0.0309231
0.0316882
0.0324424
0.0332334
0.0338953
0.0344937
0.034848
0.0350275
0.0348701
0.0343112
0.0340525
0.0343376
0.0347149
0.0348465
0.0338844
0.0300412
0.018901
-0.00794675
0.0313882
0.0321496
0.0328911
0.0336463
0.0342415
0.034746
0.0349528
0.0349398
0.0344982
0.0340854
0.0341154
0.034465
0.034874
0.0346517
0.0327175
0.0262709
0.00817747
-0.0244942
0.0318715
0.0326478
0.0334257
0.034042
0.0345253
0.0349037
0.0349496
0.0347599
0.0343371
0.0340179
0.0343561
0.0348689
0.034834
0.0338186
0.029984
0.01895
-0.00810245
-0.0404302
0.0324363
0.0332276
0.0338984
0.0345109
0.0348849
0.0350921
0.0349058
0.0345134
0.0340679
0.0342256
0.0346099
0.0349083
0.0343627
0.0315584
0.0238286
0.00416712
-0.0285481
-0.0521104
0.0331
0.0338252
0.034387
0.0348578
0.0349979
0.0348357
0.0344832
0.0340191
0.0341254
0.0346373
0.0349025
0.0346259
0.0325847
0.0267259
0.011411
-0.0189164
-0.0473296
-0.0580848
0.0338161
0.0343609
0.0347538
0.0350129
0.0349135
0.034604
0.0341257
0.0341536
0.034509
0.0349606
0.0347508
0.0333612
0.0286185
0.0153655
-0.0123469
-0.0426676
-0.0568657
-0.0612346
0.0344078
0.0348678
0.0350218
0.0348969
0.034586
0.0340901
0.033986
0.0344497
0.0348152
0.0348279
0.033606
0.0291331
0.0176055
-0.00818759
-0.0396689
-0.0557758
-0.0606153
-0.0642686
0.0348756
0.0349884
0.0348381
0.034529
0.0340642
0.033993
0.034469
0.0348465
0.0348706
0.0336105
0.0297307
0.0190716
-0.00609565
-0.0372688
-0.0549248
-0.0601711
-0.0637782
-0.0675628
0.0350509
0.0348812
0.0344492
0.0341235
0.0340714
0.0345504
0.034961
0.0349757
0.0341482
0.0307102
0.0215638
-0.000417535
-0.0324182
-0.052805
-0.0593165
-0.0629395
-0.0666677
-0.0706124
0.0350777
0.0347178
0.0341912
0.0340381
0.0342574
0.0347276
0.0351633
0.0348543
0.0331219
0.0272816
0.0121036
-0.017929
-0.0452334
-0.0570693
-0.0610536
-0.0646774
-0.068551
-0.0725461
0.0230619
0.0238914
0.0247635
0.0256083
0.0264956
0.0273485
0.0282489
0.0291471
0.0299746
0.0308599
0.031766
0.0326739
0.0335506
0.034319
0.0348537
0.0352494
0.0353431
0.03502
0.0230975
0.02393
0.0248215
0.0257224
0.0265787
0.0274663
0.0283119
0.0292086
0.0300926
0.0309086
0.0317948
0.0326989
0.0335703
0.0343607
0.0350007
0.0354132
0.0354728
0.0350103
0.0232908
0.0241195
0.024996
0.0258477
0.0267377
0.0275872
0.0284896
0.029385
0.0302091
0.0310858
0.0319774
0.0328518
0.0336151
0.0343604
0.0349671
0.0353324
0.0353615
0.034982
0.0234474
0.0243029
0.0251509
0.0260506
0.0269566
0.0278029
0.0286851
0.0295143
0.0303958
0.0312939
0.0321733
0.0329711
0.0337878
0.0345227
0.0350902
0.0354076
0.0353725
0.0349425
0.0237776
0.024611
0.0254879
0.026337
0.0272241
0.0280682
0.028964
0.0298528
0.0306696
0.0315443
0.0324354
0.0332939
0.0340105
0.0346781
0.0351688
0.0353822
0.0352177
0.0347158
0.0241381
0.0250058
0.0258473
0.0267289
0.0275665
0.0284415
0.0292679
0.0301486
0.0310224
0.0318278
0.032707
0.0335728
0.0343505
0.0349845
0.0353896
0.0354467
0.0349881
0.034417
0.0246175
0.0254886
0.0263281
0.0272078
0.0280394
0.028909
0.029723
0.0305981
0.031469
0.032274
0.0331391
0.0339647
0.0346826
0.0351998
0.0353532
0.0352221
0.0347175
0.034324
0.0251367
0.0260013
0.0268368
0.0277068
0.0285282
0.0293892
0.0301988
0.0310702
0.0319418
0.0327376
0.0335755
0.0343452
0.0349715
0.0353788
0.0354424
0.0350023
0.0344365
0.0343449
0.0257958
0.0266109
0.0274728
0.0282971
0.0291576
0.0299713
0.030838
0.031709
0.0325043
0.0333415
0.0341099
0.034681
0.0351471
0.0353558
0.035215
0.034748
0.0344545
0.0346795
0.0265703
0.0274288
0.0282284
0.0290214
0.0298631
0.0306601
0.0315252
0.0323932
0.0331732
0.0339666
0.0346451
0.0350713
0.0353356
0.0352923
0.03487
0.0343091
0.034396
0.0347932
0.0274339
0.0282307
0.0290145
0.0298531
0.0306428
0.031482
0.0322681
0.0330934
0.0338113
0.0345114
0.0350506
0.0352831
0.0352945
0.0349505
0.0345162
0.0345118
0.0347542
0.0348215
0.0282891
0.0291289
0.029899
0.0306608
0.0314857
0.032263
0.0330795
0.0338026
0.0345055
0.0350749
0.0353386
0.0353692
0.0350514
0.0344655
0.0344092
0.0348375
0.0350672
0.0342782
0.0291714
0.0299376
0.0307577
0.0315147
0.0322713
0.0330806
0.0337949
0.0344777
0.0349638
0.0353178
0.0353811
0.0349928
0.0345184
0.0344295
0.0346813
0.0349708
0.0344767
0.0318564
0.0298822
0.0306329
0.0314616
0.0322499
0.0330748
0.0337816
0.0343982
0.0349871
0.0353816
0.035391
0.0351255
0.0345374
0.0343731
0.0347382
0.03499
0.0347563
0.0328646
0.0265699
0.0303347
0.0310819
0.0319153
0.0327049
0.0335168
0.0341808
0.0347417
0.0352477
0.035514
0.0353283
0.0348839
0.0343728
0.0345421
0.0350409
0.0350981
0.0342929
0.0308287
0.0203955
0.0169716
0.0176748
0.0184082
0.0191407
0.019921
0.0207091
0.0215621
0.0224579
0.0233773
0.0243035
0.0251993
0.0261512
0.0271238
0.0280952
0.029053
0.0300035
0.0309441
0.0318744
0.0170411
0.0177197
0.0184458
0.0191839
0.0199757
0.0207967
0.0216187
0.0225053
0.023428
0.0243718
0.0253374
0.0263176
0.0272966
0.0282526
0.0291443
0.0301004
0.0311221
0.0320634
0.0171481
0.0178459
0.0185586
0.0193252
0.0201241
0.0209237
0.0217825
0.0226776
0.0235824
0.0244689
0.0254151
0.0263872
0.0273638
0.028339
0.0293031
0.030253
0.0311868
0.0321022
0.0173232
0.0180261
0.0187385
0.0195032
0.0202791
0.0211104
0.0219832
0.0228719
0.0237443
0.0246735
0.0256356
0.0266124
0.0275955
0.028574
0.0295393
0.0304862
0.0314129
0.0323238
0.0175388
0.0182509
0.0189775
0.0197595
0.0205709
0.0213818
0.0222529
0.0231565
0.0240684
0.024959
0.025908
0.026879
0.0278498
0.0288149
0.0297698
0.0307087
0.0316308
0.0325404
0.0178497
0.0185591
0.0193223
0.0201165
0.0209084
0.0217562
0.0226281
0.0234922
0.0244155
0.0253661
0.0263329
0.0272989
0.0282427
0.0291168
0.0300334
0.0309543
0.0318708
0.0328041
0.0182452
0.0189614
0.0197243
0.0204972
0.0213228
0.0221794
0.0230262
0.0239335
0.0248767
0.0258306
0.0267763
0.0276661
0.0285973
0.0295339
0.0304612
0.031379
0.0322881
0.0331889
0.0187246
0.0194733
0.0202272
0.0210295
0.0218364
0.0227018
0.0235881
0.0244625
0.0253959
0.0263509
0.0273108
0.0282465
0.0291155
0.0300291
0.0309453
0.031849
0.0327482
0.0336258
0.0192828
0.0200205
0.0208108
0.0216066
0.0224621
0.0233422
0.024204
0.0251172
0.0260412
0.0269272
0.0278671
0.0288182
0.0297652
0.030702
0.0316224
0.0325266
0.0334148
0.0342461
0.019957
0.020701
0.0214998
0.0223058
0.0231743
0.0240668
0.0249367
0.0258559
0.0267808
0.02766
0.0285895
0.0295298
0.0304665
0.0313833
0.0322596
0.0330411
0.0338586
0.0346058
0.0207021
0.0214943
0.0222888
0.0231341
0.0239744
0.0248742
0.0257847
0.0266597
0.0275774
0.0284933
0.0293502
0.0302545
0.0311684
0.0320785
0.0329786
0.0338367
0.0345871
0.0351182
0.0215624
0.0223837
0.0231964
0.024056
0.0249004
0.0257858
0.0266432
0.0275344
0.0283921
0.0293048
0.0302151
0.0311023
0.0319104
0.0327746
0.0336435
0.0344491
0.0351242
0.0355865
0.0224239
0.0232161
0.0240655
0.0249029
0.025781
0.0266341
0.027521
0.0283709
0.0292685
0.0301633
0.0309859
0.0318565
0.0327459
0.0336189
0.0344033
0.0349846
0.035454
0.0356548
0.0231777
0.0240176
0.0248545
0.0257371
0.0265924
0.0274806
0.0283223
0.0292035
0.0300336
0.0309094
0.0317782
0.0325763
0.0334373
0.0342701
0.0349958
0.035543
0.0357982
0.0355758
0.0237023
0.0245121
0.0253371
0.02622
0.0270715
0.0279613
0.0288051
0.0297082
0.0305985
0.0314082
0.0322796
0.0331423
0.0339111
0.0346819
0.0353311
0.0357646
0.0358491
0.0353939
0.0125398
0.0130216
0.0135274
0.0140797
0.0146758
0.0153076
0.0159681
0.0166427
0.0173706
0.01814
0.0189467
0.0197915
0.0206715
0.021584
0.022528
0.0235043
0.0245185
0.0255977
0.0125696
0.0130557
0.0135755
0.0141181
0.0147117
0.0153457
0.0160157
0.0167204
0.0174522
0.0181943
0.0189937
0.0198379
0.0207201
0.0216387
0.0225992
0.0236302
0.0246501
0.0256713
0.012656
0.01315
0.0136643
0.0142253
0.0148264
0.0154567
0.0161062
0.0168102
0.0175558
0.0183378
0.0191581
0.0200136
0.0209009
0.0218179
0.0227617
0.0237328
0.0247294
0.0257577
0.0127827
0.013282
0.0137995
0.014365
0.0149652
0.0155861
0.01626
0.0169788
0.0177372
0.0185341
0.0193666
0.0202313
0.0211255
0.0220465
0.0229921
0.0239613
0.0249513
0.0259613
0.01294
0.0134428
0.0139695
0.0145459
0.015162
0.0158077
0.0164726
0.017193
0.0179555
0.0187539
0.0195873
0.0204551
0.0213535
0.02228
0.0232309
0.0242054
0.0252018
0.0262139
0.0131589
0.0136647
0.0142177
0.0148062
0.0154132
0.0160731
0.0167757
0.0175143
0.0182855
0.0190777
0.0198733
0.0207276
0.0216234
0.0225503
0.0235119
0.0245158
0.0255877
0.0266308
0.0134371
0.0139569
0.0145247
0.0151268
0.0157479
0.0164209
0.0171362
0.017888
0.0186636
0.0194403
0.0202695
0.0211377
0.0220444
0.0229846
0.0239545
0.0249523
0.025986
0.0270785
0.0137695
0.0143227
0.0148942
0.0155141
0.0161653
0.0168351
0.0175593
0.0183248
0.0191275
0.0199592
0.0208085
0.02165
0.0225496
0.0234919
0.0244637
0.0254609
0.0264899
0.0275777
0.0141838
0.0147402
0.0153448
0.0159832
0.0166365
0.0173383
0.0180722
0.018818
0.0196245
0.020474
0.0213602
0.0222757
0.0232192
0.0241857
0.0251697
0.0261646
0.0271656
0.0281658
0.0146692
0.0152437
0.0158701
0.0165301
0.0172047
0.0179292
0.0186841
0.0194482
0.0202727
0.0211387
0.022043
0.0229794
0.0239402
0.024918
0.0259054
0.0268957
0.0278888
0.0288756
0.0152416
0.0158587
0.016511
0.0171762
0.0178843
0.01861
0.0193943
0.020213
0.0210532
0.0218889
0.0227854
0.0237236
0.0246882
0.0256685
0.0266598
0.0276533
0.0286396
0.0296088
0.0158929
0.0165351
0.0171965
0.0179106
0.0186545
0.0194052
0.0202078
0.0210376
0.0218655
0.0227568
0.0236855
0.0246321
0.0255761
0.0264824
0.0274419
0.0284171
0.02939
0.0303543
0.0165826
0.0172436
0.0179249
0.0186539
0.0193981
0.0201966
0.0210222
0.0218436
0.0227262
0.0236458
0.0245745
0.0254751
0.0264294
0.0274009
0.028377
0.029344
0.0302987
0.0312342
0.0172181
0.0178836
0.0186026
0.0193406
0.0201342
0.0209563
0.0217672
0.0226252
0.0234809
0.0244038
0.0253608
0.0263257
0.0272827
0.028183
0.0291275
0.0300737
0.0310066
0.0319186
0.0176048
0.018314
0.0190341
0.0198028
0.0205764
0.0214007
0.0222239
0.023111
0.0240186
0.024905
0.0258592
0.026842
0.0278274
0.0288005
0.0297383
0.0305883
0.0314786
0.0323684
0.00978567
0.0100752
0.0103903
0.0107275
0.0111029
0.0115133
0.0119574
0.012436
0.0129514
0.0135048
0.0140964
0.0147291
0.0154067
0.0161346
0.0169238
0.0177319
0.0185698
0.0194472
0.00980652
0.0100965
0.0104165
0.0107651
0.0111421
0.0115422
0.0119837
0.0124633
0.0129793
0.013532
0.0141251
0.0147612
0.0154463
0.0161931
0.0169655
0.0177707
0.0186121
0.0194992
0.00985932
0.0101567
0.0104797
0.0108253
0.0112087
0.0116264
0.0120793
0.0125685
0.0130938
0.0136553
0.014254
0.0148914
0.0155678
0.0162856
0.0170458
0.017857
0.0187369
0.0196341
0.00993199
0.0102323
0.0105539
0.0109121
0.0113054
0.0117336
0.0121975
0.0126969
0.0132319
0.0138027
0.0144096
0.0150535
0.0157361
0.0164581
0.0172239
0.0180411
0.0189269
0.0198243
0.0100217
0.0103312
0.010667
0.0110264
0.0114251
0.011859
0.0123277
0.0128321
0.0133736
0.0139523
0.014569
0.015225
0.0159197
0.0166533
0.017428
0.0182526
0.0191449
0.0200495
0.0101524
0.0104634
0.0108108
0.0111907
0.0116025
0.0120457
0.0125169
0.0130106
0.0135515
0.0141361
0.0147646
0.0154432
0.0161828
0.0169455
0.017741
0.0185725
0.0194445
0.0203605
0.0103192
0.0106424
0.0110018
0.0113954
0.0118198
0.0122721
0.0127453
0.0132623
0.0138196
0.0144171
0.0150574
0.015742
0.0164726
0.017253
0.0180949
0.0189513
0.0198345
0.020753
0.0105236
0.0108695
0.0112372
0.0116445
0.0120859
0.0125594
0.0130652
0.0136015
0.0141605
0.014771
0.0154263
0.0161256
0.016877
0.0176938
0.0185295
0.0193905
0.0202826
0.0212127
0.0107896
0.0111533
0.011538
0.0119599
0.0124119
0.0128868
0.013407
0.0139686
0.0145716
0.0152158
0.0159
0.0166233
0.0173857
0.0181865
0.0190221
0.0198952
0.0208157
0.0218046
0.0111015
0.0114817
0.0118873
0.0123337
0.0128142
0.0133244
0.0138567
0.0144378
0.0150639
0.0157309
0.0164387
0.0171858
0.0179706
0.0187919
0.0196484
0.0205435
0.0214871
0.0224971
0.0114761
0.0118763
0.0123162
0.0127876
0.0132814
0.0138213
0.0144015
0.0150174
0.0156623
0.016323
0.0170404
0.0178043
0.0186085
0.01945
0.0203307
0.0212588
0.022255
0.0232432
0.0119056
0.0123336
0.0128033
0.013306
0.0138285
0.0143958
0.014997
0.0156178
0.0162922
0.0170133
0.0177764
0.018576
0.0194075
0.0202684
0.0211618
0.0220866
0.0230421
0.0240271
0.0123606
0.0128162
0.0133157
0.0138475
0.0143993
0.0149992
0.0156318
0.0162828
0.0169929
0.0177498
0.018544
0.0193695
0.0202297
0.0211216
0.0220424
0.0229888
0.0239587
0.0249503
0.012797
0.0132761
0.0137965
0.0143418
0.0149359
0.0155656
0.0162129
0.0169139
0.017657
0.0184374
0.0192428
0.0200494
0.0209136
0.0218169
0.0227551
0.0237235
0.0247177
0.0257459
0.0130641
0.0135717
0.0140994
0.0146704
0.0152651
0.015916
0.0166066
0.0173285
0.018061
0.0188526
0.0196919
0.0205687
0.0214781
0.0224143
0.0233719
0.0243468
0.0253415
0.0263525
0.00841658
0.00854661
0.00869842
0.00887327
0.0090722
0.00929598
0.00954584
0.00982379
0.0101309
0.0104702
0.0108456
0.011261
0.0117245
0.0122184
0.0127504
0.0133279
0.0139615
0.0146322
0.00842497
0.00855317
0.00870576
0.00888217
0.00908222
0.00930657
0.00955757
0.00983743
0.0101488
0.0104954
0.0108839
0.0113023
0.0117553
0.0122473
0.0127825
0.0133723
0.0139955
0.0146644
0.00844658
0.00858458
0.008745
0.00892775
0.00913404
0.00936487
0.0096216
0.00990591
0.01022
0.0105648
0.0109432
0.0113576
0.0118139
0.0123218
0.0128631
0.0134485
0.0140913
0.0147653
0.00848205
0.00862487
0.0087904
0.00897928
0.0091921
0.00942966
0.00969311
0.00998379
0.0103033
0.010654
0.0110367
0.0114548
0.0119122
0.0124156
0.0129732
0.0135651
0.0142045
0.0149016
0.0085236
0.00866974
0.00883849
0.00903079
0.00924757
0.00949022
0.00975994
0.0100582
0.0103871
0.0107475
0.0111421
0.011573
0.0120456
0.0125694
0.0131252
0.0137213
0.0143672
0.0150741
0.00858495
0.00873806
0.00891276
0.00910788
0.00932214
0.00956672
0.00984138
0.0101471
0.0104871
0.0108654
0.0112888
0.011743
0.0122312
0.0127565
0.0133256
0.0139507
0.0146081
0.0153107
0.00866292
0.00882504
0.00900766
0.00920853
0.00943761
0.00969477
0.00998062
0.0102987
0.0106514
0.0110411
0.0114711
0.0119477
0.0124539
0.0129949
0.0135767
0.0142056
0.0148902
0.0156048
0.0087616
0.00893708
0.00913689
0.00936055
0.00960779
0.00987834
0.0101707
0.0105007
0.0108703
0.0112858
0.0117316
0.0122128
0.0127318
0.0132923
0.0138971
0.0145575
0.0152453
0.0159715
0.00888957
0.00908153
0.00929623
0.0095324
0.0097871
0.0100729
0.0103914
0.0107442
0.0111322
0.0115557
0.0120153
0.0125142
0.0130584
0.0136579
0.014285
0.0149501
0.0156639
0.0164401
0.00904979
0.00925786
0.00949123
0.00974978
0.0100316
0.0103342
0.0106723
0.0110462
0.0114555
0.0119006
0.0123828
0.0129055
0.0134746
0.0141
0.0147524
0.015443
0.0161837
0.0169879
0.0092539
0.00948125
0.00973356
0.0100061
0.0103121
0.0106517
0.0110247
0.0114308
0.0118699
0.0123427
0.0128527
0.0134008
0.0139874
0.0146145
0.0152849
0.0160066
0.0167919
0.0175992
0.00948713
0.00973786
0.0100153
0.0103136
0.0106467
0.0110151
0.0114177
0.0118533
0.0123255
0.0128347
0.0133815
0.0139642
0.0145822
0.0152366
0.0159295
0.0166643
0.0174456
0.0182776
0.00974685
0.0100189
0.0103237
0.0106552
0.0110096
0.0114047
0.0118369
0.0123042
0.0128087
0.0133503
0.0139289
0.014544
0.0151959
0.0158856
0.0166146
0.0173851
0.0181989
0.0190613
0.00998891
0.0102832
0.0106118
0.0109685
0.0113498
0.0117722
0.0122306
0.0127238
0.0132474
0.0137934
0.0143878
0.0150244
0.0157042
0.0164288
0.0172042
0.0180447
0.0189034
0.0197925
0.0101316
0.010449
0.0107945
0.0111611
0.0115655
0.0120023
0.0124624
0.0129679
0.0135152
0.0141039
0.0147341
0.0154046
0.0161149
0.0168643
0.0176518
0.0184787
0.0193453
0.0202606
0.00804693
0.00806431
0.00809495
0.00813982
0.00820022
0.00827811
0.00837415
0.00849093
0.00863117
0.0087985
0.00899835
0.00922355
0.0094807
0.00977479
0.0101
0.0104669
0.0108655
0.011306
0.00804257
0.0080607
0.00809235
0.00813838
0.00820001
0.00827909
0.00837798
0.00849969
0.00864853
0.0088203
0.00901742
0.00924338
0.00950476
0.00979415
0.0101185
0.0104858
0.0108885
0.0113374
0.00805093
0.00807343
0.00810933
0.00815947
0.00822497
0.00830736
0.00840892
0.00853076
0.00867605
0.00884794
0.00905183
0.00928123
0.00954185
0.00984086
0.0101691
0.0105348
0.0109463
0.0113946
0.00805513
0.00808112
0.0081212
0.00817616
0.00824668
0.00833399
0.00843992
0.00856669
0.00871545
0.00888938
0.00909278
0.00933066
0.00959582
0.00989602
0.0102378
0.0106136
0.0110352
0.0114931
0.00805756
0.00808578
0.0081284
0.00818642
0.00826105
0.00835385
0.00846691
0.00860088
0.00875787
0.00894153
0.00915747
0.00939849
0.00966959
0.00997693
0.0103264
0.0107113
0.0111415
0.0116093
0.00806367
0.00809065
0.00813415
0.00819494
0.00827417
0.00837413
0.00849718
0.00864683
0.0088181
0.0090128
0.00923465
0.0094872
0.00977698
0.0100956
0.010451
0.0108514
0.0112882
0.0117717
0.00807939
0.00811344
0.00816435
0.00823288
0.00832051
0.00842864
0.00855896
0.00871448
0.00889894
0.00910651
0.00933965
0.00960279
0.00990033
0.0102362
0.0106028
0.0110094
0.0114641
0.0119557
0.00810609
0.00815586
0.00822112
0.00830308
0.00840277
0.00852146
0.00866111
0.00882489
0.00901547
0.00923269
0.0094782
0.00975679
0.0100757
0.010425
0.0108117
0.0112446
0.0117135
0.0122285
0.00813785
0.00819697
0.00826897
0.00836044
0.00847155
0.00860387
0.00875968
0.00894224
0.00915582
0.00939332
0.00965671
0.00995126
0.0102833
0.0106597
0.0110664
0.011513
0.0120095
0.0125445
0.00818433
0.00825875
0.00835091
0.0084611
0.00859036
0.00874014
0.00891291
0.00911088
0.0093363
0.00958922
0.00987201
0.0101884
0.0105433
0.0109419
0.0113712
0.0118408
0.0123599
0.0129138
0.0082497
0.00834058
0.00844726
0.00856835
0.00871258
0.00888102
0.00907432
0.00929363
0.00954088
0.00981898
0.0101322
0.0104845
0.0108641
0.0112773
0.0117311
0.012235
0.0127748
0.0133562
0.00833137
0.00844052
0.00856755
0.00871237
0.00887462
0.00906398
0.00928043
0.00952464
0.00979913
0.0101066
0.0104499
0.0108323
0.0112402
0.0116795
0.0121573
0.0126799
0.0132582
0.0138718
0.00842828
0.00855282
0.00870095
0.00887191
0.00906533
0.00928293
0.00952462
0.00978944
0.0100922
0.0104366
0.0108082
0.0112098
0.0116436
0.0121132
0.0126234
0.0131805
0.0137967
0.0144473
0.00851624
0.00866111
0.00882413
0.00901492
0.00923177
0.00947449
0.00974262
0.0100368
0.0103574
0.0107239
0.0111208
0.0115509
0.0120174
0.012523
0.0130714
0.0136684
0.0143244
0.0150126
0.00856416
0.00871747
0.00889709
0.00910306
0.00933381
0.00958672
0.00985886
0.0101658
0.0105074
0.010885
0.0112991
0.0117525
0.01225
0.0127994
0.0133789
0.0139967
0.0146638
0.0153931
0.00833103
0.00826781
0.0082121
0.00816549
0.0081283
0.00810268
0.00809136
0.00809741
0.00811711
0.00815438
0.0082136
0.00829064
0.00839068
0.00851867
0.00867306
0.00886093
0.00907956
0.00932806
0.0096174
0.00831968
0.00825822
0.00820381
0.00815793
0.00812218
0.00809905
0.008092
0.00809813
0.00812043
0.00816226
0.0082205
0.00829969
0.00840399
0.00853194
0.00868832
0.00887221
0.00908977
0.00933833
0.00962899
0.00831224
0.00825293
0.00820127
0.00815832
0.00812541
0.00810313
0.00809371
0.00809999
0.00812564
0.00816709
0.00822843
0.00831295
0.00841954
0.0085528
0.00871108
0.00890062
0.00911872
0.00937515
0.00966855
0.00828781
0.00823103
0.00818379
0.00814745
0.00811976
0.00810277
0.00809793
0.00810847
0.00813799
0.00818298
0.00824806
0.00833701
0.00844767
0.0085864
0.00875026
0.00894489
0.00916845
0.00942897
0.00972281
0.00827459
0.00821986
0.00817363
0.00813716
0.00811193
0.0080986
0.00809931
0.00811724
0.008149
0.00819774
0.00826759
0.00836166
0.00847847
0.00862275
0.00879326
0.0089955
0.0092281
0.00949968
0.00980827
0.0082413
0.00818898
0.00814613
0.00811401
0.00809466
0.00809057
0.00809939
0.00812185
0.00816094
0.00822093
0.00829858
0.00839878
0.0085257
0.00867701
0.00885813
0.0090678
0.0093124
0.0095883
0.00990656
0.00821551
0.00816809
0.00813063
0.00810432
0.0080911
0.0080933
0.00810831
0.00813688
0.00818247
0.00824848
0.00833734
0.00844741
0.00858442
0.00874416