/*--------------------------------*- C++ -*----------------------------------*\
| =========                 |                                                 |
| \\      /  F ield         | OpenFOAM: The Open Source CFD Toolbox           |
|  \\    /   O peration     | Version:  2312                                  |
|   \\  /    A nd           | Website:  www.openfoam.com                      |
|    \\/     M anipulation  |                                                 |
\*---------------------------------------------------------------------------*/
FoamFile
{
    version     2.0;
    format      ascii;
    arch        "LSB;label=32;scalar=64";
    class       volVectorField;
    location    "0.9";
    object      D_0;
}
// * * * * * * * * * * * * * * * * * * * * * * * * * * * * * * * * * * * * * //

dimensions      [0 1 0 0 0 0 0];

internalField   nonuniform List<vector> 
1620
(
(-0.000262336 0.000161546 -0.000180416)
(-0.000286402 0.000113537 -0.000180416)
(-0.000301767 6.20786e-05 -0.000180416)
(-0.000307963 8.73502e-06 -0.000180416)
(-0.000304801 -4.48743e-05 -0.000180416)
(-0.000292378 -9.7121e-05 -0.000180416)
(-0.000271071 -0.000146417 -0.000180416)
(-0.000241528 -0.000191263 -0.000180415)
(-0.000204646 -0.000230298 -0.000180416)
(-0.000161546 -0.000262336 -0.000180416)
(-0.000113537 -0.000286402 -0.000180416)
(-6.20786e-05 -0.000301767 -0.000180416)
(-8.73499e-06 -0.000307963 -0.000180416)
(4.48743e-05 -0.000304801 -0.000180416)
(9.7121e-05 -0.000292378 -0.000180416)
(0.000146417 -0.000271071 -0.000180416)
(0.000191263 -0.000241528 -0.000180415)
(0.000230299 -0.000204646 -0.000180416)
(0.000262336 -0.000161546 -0.000180416)
(0.000286403 -0.000113537 -0.000180416)
(0.000301767 -6.20786e-05 -0.000180416)
(0.000307963 -8.73499e-06 -0.000180416)
(0.000304801 4.48743e-05 -0.000180416)
(0.000292378 9.7121e-05 -0.000180416)
(0.000271071 0.000146417 -0.000180416)
(0.000241528 0.000191263 -0.000180415)
(0.000204646 0.000230299 -0.000180416)
(0.000161546 0.000262336 -0.000180416)
(0.000113537 0.000286402 -0.000180416)
(6.20786e-05 0.000301767 -0.000180416)
(8.73502e-06 0.000307963 -0.000180416)
(-4.48743e-05 0.000304801 -0.000180416)
(-9.7121e-05 0.000292378 -0.000180416)
(-0.000146416 0.000271071 -0.000180416)
(-0.000191263 0.000241528 -0.000180415)
(-0.000230298 0.000204646 -0.000180416)
(-0.000170684 0.000285612 -0.000123877)
(-0.000217687 0.000251633 -0.000123877)
(-0.000258075 0.000210009 -0.000123877)
(-0.000290622 0.000162005 -0.000123877)
(-0.00031434 0.000109078 -0.000123877)
(-0.000328505 5.2836e-05 -0.000123877)
(-0.000332689 -5.01089e-06 -0.000123877)
(-0.000326765 -6.27055e-05 -0.000123877)
(-0.000310912 -0.000118495 -0.000123877)
(-0.000285612 -0.000170684 -0.000123877)
(-0.000251633 -0.000217687 -0.000123877)
(-0.000210009 -0.000258075 -0.000123877)
(-0.000162005 -0.000290622 -0.000123877)
(-0.000109078 -0.00031434 -0.000123877)
(-5.2836e-05 -0.000328505 -0.000123877)
(5.0109e-06 -0.000332689 -0.000123877)
(6.27055e-05 -0.000326765 -0.000123877)
(0.000118495 -0.000310912 -0.000123877)
(0.000170684 -0.000285612 -0.000123877)
(0.000217687 -0.000251633 -0.000123877)
(0.000258075 -0.000210009 -0.000123877)
(0.000290622 -0.000162005 -0.000123877)
(0.00031434 -0.000109078 -0.000123877)
(0.000328505 -5.2836e-05 -0.000123877)
(0.000332689 5.01091e-06 -0.000123877)
(0.000326765 6.27055e-05 -0.000123877)
(0.000310912 0.000118495 -0.000123877)
(0.000285612 0.000170684 -0.000123877)
(0.000251633 0.000217687 -0.000123877)
(0.000210009 0.000258075 -0.000123877)
(0.000162005 0.000290622 -0.000123877)
(0.000109078 0.00031434 -0.000123877)
(5.2836e-05 0.000328505 -0.000123877)
(-5.01089e-06 0.000332689 -0.000123877)
(-6.27055e-05 0.000326765 -0.000123877)
(-0.000118495 0.000310912 -0.000123877)
(-0.000111261 0.000415363 -8.26562e-05)
(-0.000181698 0.000389733 -8.26562e-05)
(-0.000246614 0.000352261 -8.26565e-05)
(-0.000304036 0.000304085 -8.26563e-05)
(-0.000352222 0.00024667 -8.26564e-05)
(-0.000389704 0.00018176 -8.26563e-05)
(-0.000415346 0.000111327 -8.26565e-05)
(-0.000428368 3.75113e-05 -8.26566e-05)
(-0.000428373 -3.74438e-05 -8.26563e-05)
(-0.000415363 -0.000111261 -8.26562e-05)
(-0.000389733 -0.000181698 -8.26562e-05)
(-0.000352261 -0.000246614 -8.26565e-05)
(-0.000304085 -0.000304036 -8.26563e-05)
(-0.00024667 -0.000352222 -8.26564e-05)
(-0.00018176 -0.000389704 -8.26563e-05)
(-0.000111327 -0.000415346 -8.26565e-05)
(-3.75113e-05 -0.000428368 -8.26566e-05)
(3.74438e-05 -0.000428373 -8.26563e-05)
(0.000111261 -0.000415363 -8.26563e-05)
(0.000181698 -0.000389733 -8.26562e-05)
(0.000246614 -0.000352261 -8.26565e-05)
(0.000304036 -0.000304085 -8.26563e-05)
(0.000352222 -0.00024667 -8.26564e-05)
(0.000389704 -0.00018176 -8.26563e-05)
(0.000415346 -0.000111327 -8.26565e-05)
(0.000428368 -3.75113e-05 -8.26566e-05)
(0.000428373 3.74438e-05 -8.26563e-05)
(0.000415363 0.000111261 -8.26562e-05)
(0.000389733 0.000181698 -8.26562e-05)
(0.000352261 0.000246614 -8.26565e-05)
(0.000304085 0.000304036 -8.26563e-05)
(0.00024667 0.000352222 -8.26564e-05)
(0.00018176 0.000389704 -8.26562e-05)
(0.000111327 0.000415346 -8.26565e-05)
(3.75113e-05 0.000428368 -8.26566e-05)
(-3.74438e-05 0.000428373 -8.26563e-05)
(-0.000587856 0.000620972 -0.000515539)
(-0.000686755 0.000509458 -0.00051554)
(-0.000764789 0.000382464 -0.00051554)
(-0.000819585 0.00024385 -0.000515537)
(-0.000849477 9.78274e-05 -0.000515537)
(-0.000853559 -5.11688e-05 -0.000515537)
(-0.000831707 -0.000198611 -0.000515538)
(-0.000784583 -0.000340018 -0.000515538)
(-0.000713618 -0.000471094 -0.000515539)
(-0.000620972 -0.000587856 -0.000515539)
(-0.000509457 -0.000686755 -0.00051554)
(-0.000382464 -0.000764789 -0.00051554)
(-0.00024385 -0.000819585 -0.000515537)
(-9.78274e-05 -0.000849477 -0.000515537)
(5.11689e-05 -0.000853559 -0.000515537)
(0.000198611 -0.000831707 -0.000515538)
(0.000340018 -0.000784583 -0.000515538)
(0.000471094 -0.000713618 -0.000515539)
(0.000587856 -0.000620972 -0.000515539)
(0.000686756 -0.000509457 -0.00051554)
(0.000764789 -0.000382464 -0.00051554)
(0.000819585 -0.00024385 -0.000515537)
(0.000849477 -9.78274e-05 -0.000515537)
(0.000853559 5.11689e-05 -0.000515537)
(0.000831707 0.000198611 -0.000515538)
(0.000784583 0.000340018 -0.000515538)
(0.000713618 0.000471094 -0.000515538)
(0.000620972 0.000587856 -0.000515539)
(0.000509458 0.000686756 -0.00051554)
(0.000382464 0.000764789 -0.000515539)
(0.00024385 0.000819585 -0.000515537)
(9.78274e-05 0.000849477 -0.000515537)
(-5.11688e-05 0.000853559 -0.000515537)
(-0.000198611 0.000831707 -0.000515538)
(-0.000340018 0.000784583 -0.000515538)
(-0.000471094 0.000713618 -0.000515538)
(-0.000515547 0.000863141 -0.000385408)
(-0.000657597 0.000760504 -0.000385409)
(-0.000779667 0.00063476 -0.000385409)
(-0.000878047 0.00048973 -0.000385408)
(-0.000949749 0.000329819 -0.000385408)
(-0.000992593 0.000159885 -0.000385408)
(-0.00100528 -1.49056e-05 -0.000385408)
(-0.000987415 -0.000189244 -0.000385408)
(-0.000939552 -0.000357832 -0.000385408)
(-0.000863141 -0.000515547 -0.000385408)
(-0.000760504 -0.000657597 -0.000385409)
(-0.00063476 -0.000779667 -0.000385409)
(-0.00048973 -0.000878047 -0.000385408)
(-0.000329819 -0.000949749 -0.000385408)
(-0.000159885 -0.000992593 -0.000385408)
(1.49056e-05 -0.00100528 -0.000385408)
(0.000189244 -0.000987415 -0.000385408)
(0.000357832 -0.000939552 -0.000385408)
(0.000515547 -0.000863141 -0.000385408)
(0.000657597 -0.000760504 -0.000385409)
(0.000779667 -0.00063476 -0.000385409)
(0.000878047 -0.00048973 -0.000385408)
(0.000949749 -0.000329819 -0.000385408)
(0.000992593 -0.000159885 -0.000385408)
(0.00100528 1.49056e-05 -0.000385408)
(0.000987415 0.000189244 -0.000385408)
(0.000939552 0.000357832 -0.000385408)
(0.000863141 0.000515547 -0.000385408)
(0.000760504 0.000657597 -0.000385409)
(0.00063476 0.000779667 -0.000385409)
(0.00048973 0.000878047 -0.000385408)
(0.000329819 0.000949749 -0.000385408)
(0.000159885 0.000992593 -0.000385408)
(-1.49056e-05 0.00100528 -0.000385408)
(-0.000189244 0.000987415 -0.000385408)
(-0.000357832 0.000939552 -0.000385408)
(-0.000486297 0.0011036 -0.000259439)
(-0.000670546 0.00100239 -0.000259438)
(-0.00083442 0.000870718 -0.000259438)
(-0.000972942 0.000712594 -0.000259438)
(-0.0010819 0.000532818 -0.000259438)
(-0.00115799 0.000336853 -0.000259438)
(-0.00119889 0.000130652 -0.000259439)
(-0.00120336 -7.95172e-05 -0.000259439)
(-0.00117127 -0.000287271 -0.000259439)
(-0.0011036 -0.000486297 -0.000259439)
(-0.00100238 -0.000670546 -0.000259438)
(-0.000870718 -0.00083442 -0.000259438)
(-0.000712594 -0.000972942 -0.000259438)
(-0.000532818 -0.0010819 -0.000259439)
(-0.000336853 -0.00115799 -0.000259438)
(-0.000130652 -0.00119889 -0.000259439)
(7.95172e-05 -0.00120336 -0.000259439)
(0.000287271 -0.00117127 -0.000259439)
(0.000486297 -0.0011036 -0.000259439)
(0.000670546 -0.00100238 -0.000259438)
(0.00083442 -0.000870718 -0.000259438)
(0.000972942 -0.000712594 -0.000259438)
(0.0010819 -0.000532818 -0.000259438)
(0.00115799 -0.000336853 -0.000259438)
(0.00119889 -0.000130652 -0.000259439)
(0.00120336 7.95173e-05 -0.000259439)
(0.00117127 0.000287271 -0.000259439)
(0.0011036 0.000486297 -0.000259439)
(0.00100238 0.000670546 -0.000259438)
(0.000870718 0.00083442 -0.000259438)
(0.000712594 0.000972942 -0.000259438)
(0.000532818 0.0010819 -0.000259438)
(0.000336853 0.00115799 -0.000259438)
(0.000130652 0.00119889 -0.000259439)
(-7.95172e-05 0.00120336 -0.000259439)
(-0.000287271 0.00117127 -0.000259439)
(-0.000893729 0.00112621 -0.00092284)
(-0.00107572 0.000953902 -0.00092284)
(-0.00122502 0.000752615 -0.00092284)
(-0.0013371 0.00052846 -0.000922839)
(-0.00140855 0.000288248 -0.000922837)
(-0.0014372 3.92774e-05 -0.000922837)
(-0.00142219 -0.000210888 -0.000922837)
(-0.00136396 -0.000454645 -0.000922838)
(-0.00126429 -0.000684588 -0.000922839)
(-0.00112621 -0.000893729 -0.00092284)
(-0.000953902 -0.00107572 -0.00092284)
(-0.000752614 -0.00122502 -0.00092284)
(-0.000528459 -0.0013371 -0.000922839)
(-0.000288248 -0.00140855 -0.000922837)
(-3.92773e-05 -0.0014372 -0.000922837)
(0.000210888 -0.00142219 -0.000922837)
(0.000454645 -0.00136396 -0.000922838)
(0.000684588 -0.00126429 -0.00092284)
(0.000893729 -0.00112621 -0.00092284)
(0.00107572 -0.000953902 -0.00092284)
(0.00122502 -0.000752614 -0.00092284)
(0.0013371 -0.000528459 -0.000922839)
(0.00140855 -0.000288248 -0.000922837)
(0.0014372 -3.92773e-05 -0.000922837)
(0.00142219 0.000210888 -0.000922837)
(0.00136396 0.000454645 -0.000922838)
(0.00126429 0.000684588 -0.000922839)
(0.00112621 0.00089373 -0.00092284)
(0.000953902 0.00107572 -0.00092284)
(0.000752614 0.00122502 -0.00092284)
(0.000528459 0.0013371 -0.000922838)
(0.000288248 0.00140855 -0.000922837)
(3.92774e-05 0.0014372 -0.000922837)
(-0.000210888 0.00142219 -0.000922837)
(-0.000454645 0.00136396 -0.000922838)
(-0.000684588 0.00126429 -0.000922839)
(-0.000854786 0.00144805 -0.000731633)
(-0.00109325 0.00127762 -0.000731634)
(-0.0012985 0.00106837 -0.000731634)
(-0.00146429 0.000826656 -0.000731633)
(-0.00158559 0.000559826 -0.000731632)
(-0.00165872 0.000275985 -0.000731632)
(-0.00168144 -1.62408e-05 -0.000731632)
(-0.00165308 -0.000307974 -0.000731633)
(-0.00157448 -0.000590349 -0.000731633)
(-0.00144805 -0.000854786 -0.000731634)
(-0.00127762 -0.00109325 -0.000731634)
(-0.00106837 -0.0012985 -0.000731634)
(-0.000826656 -0.00146429 -0.000731633)
(-0.000559826 -0.00158559 -0.000731632)
(-0.000275985 -0.00165872 -0.000731632)
(1.62409e-05 -0.00168144 -0.000731633)
(0.000307974 -0.00165308 -0.000731633)
(0.000590349 -0.00157448 -0.000731633)
(0.000854786 -0.00144805 -0.000731634)
(0.00109325 -0.00127762 -0.000731634)
(0.0012985 -0.00106837 -0.000731634)
(0.00146429 -0.000826656 -0.000731633)
(0.00158559 -0.000559826 -0.000731632)
(0.00165872 -0.000275985 -0.000731632)
(0.00168144 1.62409e-05 -0.000731632)
(0.00165308 0.000307974 -0.000731633)
(0.00157448 0.000590349 -0.000731633)
(0.00144805 0.000854786 -0.000731633)
(0.00127762 0.00109325 -0.000731634)
(0.00106837 0.0012985 -0.000731634)
(0.000826656 0.00146429 -0.000731633)
(0.000559826 0.00158559 -0.000731632)
(0.000275985 0.00165872 -0.000731632)
(-1.62408e-05 0.00168144 -0.000731632)
(-0.000307974 0.00165308 -0.000731633)
(-0.000590349 0.00157448 -0.000731633)
(-0.000868002 0.00175512 -0.000546467)
(-0.00115959 0.00157773 -0.000546466)
(-0.00141594 0.0013524 -0.000546467)
(-0.00162927 0.00108598 -0.000546467)
(-0.0017931 0.000786563 -0.000546467)
(-0.00190244 0.000463244 -0.000546467)
(-0.00195398 0.00012585 -0.000546467)
(-0.00194615 -0.000215367 -0.000546467)
(-0.00187919 -0.000550041 -0.000546467)
(-0.00175512 -0.000868002 -0.000546467)
(-0.00157773 -0.00115959 -0.000546467)
(-0.0013524 -0.00141594 -0.000546467)
(-0.00108598 -0.00162927 -0.000546467)
(-0.000786563 -0.0017931 -0.000546467)
(-0.000463244 -0.00190244 -0.000546467)
(-0.00012585 -0.00195398 -0.000546467)
(0.000215367 -0.00194615 -0.000546467)
(0.000550041 -0.00187919 -0.000546467)
(0.000868002 -0.00175512 -0.000546467)
(0.00115959 -0.00157773 -0.000546467)
(0.00141594 -0.0013524 -0.000546467)
(0.00162927 -0.00108598 -0.000546467)
(0.0017931 -0.000786563 -0.000546467)
(0.00190244 -0.000463244 -0.000546467)
(0.00195398 -0.00012585 -0.000546467)
(0.00194615 0.000215367 -0.000546467)
(0.00187919 0.000550041 -0.000546467)
(0.00175512 0.000868002 -0.000546467)
(0.00157773 0.00115959 -0.000546467)
(0.0013524 0.00141594 -0.000546467)
(0.00108598 0.00162927 -0.000546467)
(0.000786563 0.0017931 -0.000546467)
(0.000463244 0.00190244 -0.000546467)
(0.00012585 0.00195398 -0.000546467)
(-0.000215367 0.00194615 -0.000546467)
(-0.000550041 0.00187919 -0.000546467)
(-0.00117769 0.00169162 -0.00136463)
(-0.00145355 0.00146142 -0.00136463)
(-0.00168524 0.00118681 -0.00136463)
(-0.00186573 0.000876141 -0.00136462)
(-0.00198952 0.000538851 -0.00136462)
(-0.00205287 0.000185188 -0.00136462)
(-0.00205384 -0.000174102 -0.00136462)
(-0.0019924 -0.000528102 -0.00136462)
(-0.00187043 -0.000866056 -0.00136462)
(-0.00169162 -0.00117769 -0.00136463)
(-0.00146142 -0.00145355 -0.00136463)
(-0.00118681 -0.00168524 -0.00136463)
(-0.000876141 -0.00186573 -0.00136463)
(-0.000538851 -0.00198952 -0.00136462)
(-0.000185188 -0.00205287 -0.00136462)
(0.000174102 -0.00205384 -0.00136462)
(0.000528103 -0.0019924 -0.00136462)
(0.000866056 -0.00187043 -0.00136462)
(0.00117769 -0.00169162 -0.00136463)
(0.00145355 -0.00146142 -0.00136463)
(0.00168524 -0.00118681 -0.00136463)
(0.00186573 -0.000876141 -0.00136463)
(0.00198952 -0.000538851 -0.00136462)
(0.00205287 -0.000185188 -0.00136462)
(0.00205384 0.000174102 -0.00136462)
(0.0019924 0.000528103 -0.00136462)
(0.00187043 0.000866056 -0.00136462)
(0.00169162 0.00117769 -0.00136463)
(0.00146142 0.00145355 -0.00136463)
(0.00118681 0.00168524 -0.00136463)
(0.000876141 0.00186573 -0.00136462)
(0.000538851 0.00198952 -0.00136462)
(0.000185188 0.00205287 -0.00136462)
(-0.000174102 0.00205384 -0.00136462)
(-0.000528102 0.0019924 -0.00136462)
(-0.000866056 0.00187043 -0.00136462)
(-0.00118021 0.00203541 -0.00113121)
(-0.00151573 0.00179954 -0.00113121)
(-0.00180519 0.001509 -0.00113121)
(-0.0020398 0.00117261 -0.00113121)
(-0.00221243 0.000800586 -0.00113121)
(-0.00231784 0.000404239 -0.00113121)
(-0.00235282 -4.39004e-06 -0.00113121)
(-0.00231631 -0.000412887 -0.00113121)
(-0.00220942 -0.000808838 -0.00113121)
(-0.00203541 -0.00118021 -0.00113121)
(-0.00179954 -0.00151573 -0.00113121)
(-0.001509 -0.00180519 -0.00113121)
(-0.00117261 -0.0020398 -0.00113121)
(-0.000800586 -0.00221243 -0.00113121)
(-0.000404239 -0.00231784 -0.00113121)
(4.39017e-06 -0.00235282 -0.00113121)
(0.000412887 -0.00231631 -0.00113121)
(0.000808838 -0.00220942 -0.00113121)
(0.00118021 -0.0020354 -0.00113121)
(0.00151573 -0.00179954 -0.00113121)
(0.00180519 -0.001509 -0.00113121)
(0.0020398 -0.00117261 -0.00113121)
(0.00221243 -0.000800586 -0.00113121)
(0.00231784 -0.000404239 -0.00113121)
(0.00235282 4.3902e-06 -0.00113121)
(0.00231631 0.000412887 -0.00113121)
(0.00220942 0.000808838 -0.00113121)
(0.00203541 0.00118021 -0.00113121)
(0.00179954 0.00151573 -0.00113121)
(0.001509 0.00180519 -0.00113121)
(0.00117261 0.0020398 -0.00113121)
(0.000800586 0.00221243 -0.00113121)
(0.000404239 0.00231784 -0.00113121)
(-4.39007e-06 0.00235282 -0.00113121)
(-0.000412887 0.00231631 -0.00113121)
(-0.000808838 0.00220942 -0.00113121)
(-0.00124035 0.00234788 -0.000908982)
(-0.00162922 0.00209682 -0.000908983)
(-0.00196857 0.00178206 -0.000908982)
(-0.00224812 0.00141315 -0.000908982)
(-0.00245935 0.0010013 -0.000908982)
(-0.00259586 0.000559023 -0.000908982)
(-0.0026535 9.97618e-05 -0.000908983)
(-0.00263051 -0.00036253 -0.000908983)
(-0.0025276 -0.000813806 -0.000908982)
(-0.00234788 -0.00124035 -0.000908982)
(-0.00209682 -0.00162922 -0.000908983)
(-0.00178206 -0.00196857 -0.000908983)
(-0.00141315 -0.00224812 -0.000908982)
(-0.0010013 -0.00245935 -0.000908982)
(-0.000559023 -0.00259586 -0.000908983)
(-9.97617e-05 -0.0026535 -0.000908983)
(0.00036253 -0.00263051 -0.000908983)
(0.000813806 -0.0025276 -0.000908983)
(0.00124035 -0.00234788 -0.000908982)
(0.00162922 -0.00209682 -0.000908983)
(0.00196857 -0.00178206 -0.000908983)
(0.00224812 -0.00141315 -0.000908982)
(0.00245935 -0.0010013 -0.000908982)
(0.00259586 -0.000559023 -0.000908982)
(0.0026535 -9.97616e-05 -0.000908983)
(0.00263051 0.00036253 -0.000908983)
(0.0025276 0.000813806 -0.000908982)
(0.00234788 0.00124035 -0.000908982)
(0.00209682 0.00162922 -0.000908983)
(0.00178206 0.00196857 -0.000908982)
(0.00141315 0.00224812 -0.000908982)
(0.0010013 0.00245935 -0.000908982)
(0.000559023 0.00259586 -0.000908982)
(9.97618e-05 0.0026535 -0.000908983)
(-0.00036253 0.00263051 -0.000908983)
(-0.000813806 0.0025276 -0.000908982)
(-0.00145438 0.00230557 -0.00182346)
(-0.00183265 0.00201799 -0.00182346)
(-0.00215523 0.00166909 -0.00182346)
(-0.00241232 0.00126949 -0.00182346)
(-0.00259611 0.000831307 -0.00182346)
(-0.00270103 0.000367867 -0.00182346)
(-0.00272387 -0.00010675 -0.00182346)
(-0.00266395 -0.000578125 -0.00182346)
(-0.00252309 -0.00103193 -0.00182346)
(-0.00230557 -0.00145438 -0.00182346)
(-0.00201799 -0.00183265 -0.00182346)
(-0.00166909 -0.00215523 -0.00182346)
(-0.00126949 -0.00241232 -0.00182346)
(-0.000831307 -0.00259611 -0.00182346)
(-0.000367867 -0.00270103 -0.00182346)
(0.00010675 -0.00272387 -0.00182346)
(0.000578125 -0.00266395 -0.00182346)
(0.00103193 -0.00252309 -0.00182346)
(0.00145439 -0.00230557 -0.00182346)
(0.00183265 -0.00201799 -0.00182346)
(0.00215523 -0.00166909 -0.00182346)
(0.00241232 -0.00126949 -0.00182346)
(0.00259611 -0.000831307 -0.00182346)
(0.00270103 -0.000367867 -0.00182346)
(0.00272387 0.00010675 -0.00182346)
(0.00266395 0.000578125 -0.00182346)
(0.00252309 0.00103193 -0.00182346)
(0.00230557 0.00145439 -0.00182346)
(0.00201799 0.00183265 -0.00182346)
(0.00166909 0.00215523 -0.00182346)
(0.00126949 0.00241232 -0.00182346)
(0.000831307 0.00259611 -0.00182346)
(0.000367867 0.00270103 -0.00182346)
(-0.00010675 0.00272387 -0.00182346)
(-0.000578125 0.00266395 -0.00182346)
(-0.00103193 0.00252309 -0.00182346)
(-0.00149298 0.00261773 -0.00156422)
(-0.00192486 0.00231871 -0.00156422)
(-0.00229826 0.00194923 -0.00156422)
(-0.00260182 0.00152053 -0.00156422)
(-0.00282633 0.00104563 -0.00156422)
(-0.00296497 0.000538956 -0.00156422)
(-0.00301351 1.59065e-05 -0.00156422)
(-0.00297049 -0.000507626 -0.00156422)
(-0.00283721 -0.00101573 -0.00156422)
(-0.00261773 -0.00149298 -0.00156422)
(-0.00231871 -0.00192486 -0.00156422)
(-0.00194923 -0.00229826 -0.00156422)
(-0.00152053 -0.00260182 -0.00156422)
(-0.00104563 -0.00282633 -0.00156422)
(-0.000538956 -0.00296497 -0.00156422)
(-1.59063e-05 -0.00301351 -0.00156422)
(0.000507626 -0.00297049 -0.00156422)
(0.00101573 -0.00283721 -0.00156422)
(0.00149298 -0.00261773 -0.00156422)
(0.00192486 -0.00231871 -0.00156422)
(0.00229826 -0.00194923 -0.00156422)
(0.00260182 -0.00152053 -0.00156422)
(0.00282633 -0.00104563 -0.00156422)
(0.00296497 -0.000538956 -0.00156422)
(0.00301351 -1.59063e-05 -0.00156422)
(0.00297049 0.000507626 -0.00156422)
(0.00283721 0.00101573 -0.00156422)
(0.00261773 0.00149298 -0.00156422)
(0.00231871 0.00192486 -0.00156422)
(0.00194923 0.00229826 -0.00156422)
(0.00152053 0.00260182 -0.00156422)
(0.00104563 0.00282633 -0.00156422)
(0.000538956 0.00296497 -0.00156422)
(1.59065e-05 0.00301351 -0.00156422)
(-0.000507626 0.00297049 -0.00156422)
(-0.00101573 0.00283721 -0.00156422)
(-0.00158982 0.00288299 -0.00132213)
(-0.00206629 0.00256312 -0.00132213)
(-0.00247998 0.00216537 -0.00132213)
(-0.00281832 0.00170183 -0.00132213)
(-0.00307102 0.00118658 -0.00132213)
(-0.00323041 0.00063528 -0.00132213)
(-0.00329165 6.46736e-05 -0.00132213)
(-0.00325287 -0.000507898 -0.00132213)
(-0.00311526 -0.00106504 -0.00132213)
(-0.00288299 -0.00158982 -0.00132213)
(-0.00256312 -0.00206629 -0.00132213)
(-0.00216537 -0.00247998 -0.00132213)
(-0.00170183 -0.00281832 -0.00132213)
(-0.00118658 -0.00307102 -0.00132213)
(-0.00063528 -0.00323041 -0.00132213)
(-6.46734e-05 -0.00329165 -0.00132213)
(0.000507899 -0.00325287 -0.00132213)
(0.00106504 -0.00311526 -0.00132213)
(0.00158982 -0.00288299 -0.00132213)
(0.00206629 -0.00256312 -0.00132213)
(0.00247998 -0.00216537 -0.00132213)
(0.00281832 -0.00170183 -0.00132213)
(0.00307102 -0.00118658 -0.00132213)
(0.00323041 -0.00063528 -0.00132213)
(0.00329165 -6.46734e-05 -0.00132213)
(0.00325287 0.000507899 -0.00132213)
(0.00311526 0.00106504 -0.00132213)
(0.00288299 0.00158982 -0.00132213)
(0.00256312 0.00206629 -0.00132213)
(0.00216537 0.00247998 -0.00132213)
(0.00170183 0.00281832 -0.00132213)
(0.00118658 0.00307102 -0.00132213)
(0.00063528 0.00323041 -0.00132213)
(6.46736e-05 0.00329165 -0.00132213)
(-0.000507898 0.00325287 -0.00132213)
(-0.00106504 0.00311526 -0.00132213)
(-0.00173997 0.00293733 -0.00229739)
(-0.0022236 0.00259056 -0.00229739)
(-0.00263966 0.00216508 -0.00229739)
(-0.00297552 0.00167381 -0.00229739)
(-0.00322097 0.00113169 -0.00229739)
(-0.00336855 0.000555181 -0.00229739)
(-0.00341378 -3.81969e-05 -0.00229739)
(-0.00335529 -0.000630415 -0.00229739)
(-0.00319484 -0.00120348 -0.00229739)
(-0.00293733 -0.00173997 -0.00229739)
(-0.00259056 -0.0022236 -0.00229739)
(-0.00216508 -0.00263966 -0.00229739)
(-0.00167381 -0.00297552 -0.00229739)
(-0.00113169 -0.00322097 -0.00229739)
(-0.000555181 -0.00336855 -0.00229739)
(3.81971e-05 -0.00341378 -0.00229739)
(0.000630415 -0.00335529 -0.00229739)
(0.00120348 -0.00319484 -0.00229739)
(0.00173997 -0.00293733 -0.00229739)
(0.0022236 -0.00259056 -0.00229739)
(0.00263966 -0.00216508 -0.00229739)
(0.00297552 -0.00167381 -0.00229739)
(0.00322097 -0.00113169 -0.00229739)
(0.00336855 -0.000555181 -0.00229739)
(0.00341378 3.81971e-05 -0.00229739)
(0.00335529 0.000630415 -0.00229739)
(0.00319484 0.00120348 -0.00229739)
(0.00293733 0.00173997 -0.00229739)
(0.00259056 0.0022236 -0.00229739)
(0.00216508 0.00263966 -0.00229739)
(0.00167381 0.00297552 -0.00229739)
(0.00113169 0.00322097 -0.00229739)
(0.000555181 0.00336855 -0.00229739)
(-3.81969e-05 0.00341378 -0.00229739)
(-0.000630415 0.00335529 -0.00229739)
(-0.00120348 0.00319484 -0.00229739)
(-0.00179972 0.00318009 -0.00202011)
(-0.00232459 0.00281926 -0.00202011)
(-0.00277883 0.00237276 -0.00202011)
(-0.00314864 0.00185418 -0.00202011)
(-0.00342278 0.00127925 -0.00202011)
(-0.00359292 0.000665459 -0.00202011)
(-0.00365389 3.14454e-05 -0.00202011)
(-0.00360384 -0.000603524 -0.00202011)
(-0.00344429 -0.00122016 -0.00202011)
(-0.00318009 -0.00179972 -0.00202011)
(-0.00281926 -0.00232459 -0.00202011)
(-0.00237276 -0.00277883 -0.00202011)
(-0.00185418 -0.00314864 -0.00202011)
(-0.00127925 -0.00342278 -0.00202011)
(-0.000665459 -0.00359292 -0.00202011)
(-3.14452e-05 -0.00365389 -0.00202011)
(0.000603525 -0.00360384 -0.00202011)
(0.00122016 -0.00344429 -0.00202011)
(0.00179972 -0.00318009 -0.00202011)
(0.00232459 -0.00281926 -0.00202011)
(0.00277883 -0.00237276 -0.00202011)
(0.00314864 -0.00185418 -0.00202011)
(0.00342278 -0.00127925 -0.00202011)
(0.00359292 -0.000665459 -0.00202011)
(0.00365389 -3.14452e-05 -0.00202011)
(0.00360384 0.000603525 -0.00202011)
(0.00344429 0.00122016 -0.00202011)
(0.00318009 0.00179972 -0.00202011)
(0.00281926 0.00232459 -0.00202011)
(0.00237276 0.00277883 -0.00202011)
(0.00185418 0.00314864 -0.00202011)
(0.00127925 0.00342278 -0.00202011)
(0.000665459 0.00359292 -0.00202011)
(3.14454e-05 0.00365389 -0.00202011)
(-0.000603524 0.00360384 -0.00202011)
(-0.00122016 0.00344429 -0.00202011)
(-0.00191452 0.00336368 -0.00176562)
(-0.00246953 0.00298012 -0.00176562)
(-0.0029495 0.00250602 -0.00176562)
(-0.00333986 0.00195577 -0.00176562)
(-0.00362874 0.0013461 -0.00176562)
(-0.00380736 0.000695524 -0.00176562)
(-0.00387029 2.38187e-05 -0.00176562)
(-0.00381563 -0.000648613 -0.00176562)
(-0.00364503 -0.00130134 -0.00176562)
(-0.00336368 -0.00191452 -0.00176562)
(-0.00298012 -0.00246953 -0.00176562)
(-0.00250602 -0.0029495 -0.00176562)
(-0.00195577 -0.00333986 -0.00176562)
(-0.0013461 -0.00362874 -0.00176562)
(-0.000695524 -0.00380736 -0.00176562)
(-2.38185e-05 -0.00387029 -0.00176562)
(0.000648613 -0.00381563 -0.00176562)
(0.00130134 -0.00364503 -0.00176562)
(0.00191452 -0.00336368 -0.00176562)
(0.00246953 -0.00298012 -0.00176562)
(0.00294951 -0.00250602 -0.00176562)
(0.00333986 -0.00195577 -0.00176562)
(0.00362874 -0.0013461 -0.00176562)
(0.00380736 -0.000695524 -0.00176562)
(0.00387029 -2.38185e-05 -0.00176562)
(0.00381563 0.000648613 -0.00176562)
(0.00364503 0.00130134 -0.00176562)
(0.00336368 0.00191452 -0.00176562)
(0.00298012 0.00246953 -0.00176562)
(0.00250602 0.00294951 -0.00176562)
(0.00195577 0.00333986 -0.00176562)
(0.0013461 0.00362874 -0.00176562)
(0.000695524 0.00380736 -0.00176562)
(2.38187e-05 0.00387029 -0.00176562)
(-0.000648613 0.00381563 -0.00176562)
(-0.00130134 0.00364503 -0.00176562)
(-0.00204681 0.00354475 -0.00279013)
(-0.00263125 0.00313547 -0.00279014)
(-0.00313575 0.00263093 -0.00279014)
(-0.00354496 0.00204644 -0.00279014)
(-0.00384647 0.00139977 -0.00279014)
(-0.0040311 0.000710575 -0.00279014)
(-0.00409325 -2.12427e-07 -0.00279014)
(-0.00403102 -0.000710995 -0.00279014)
(-0.00384632 -0.00140017 -0.00279013)
(-0.00354475 -0.00204681 -0.00279013)
(-0.00313547 -0.00263125 -0.00279014)
(-0.00263093 -0.00313575 -0.00279014)
(-0.00204644 -0.00354496 -0.00279014)
(-0.00139977 -0.00384647 -0.00279014)
(-0.000710575 -0.0040311 -0.00279014)
(2.12718e-07 -0.00409325 -0.00279014)
(0.000710995 -0.00403102 -0.00279014)
(0.00140017 -0.00384632 -0.00279013)
(0.00204681 -0.00354475 -0.00279014)
(0.00263125 -0.00313547 -0.00279014)
(0.00313575 -0.00263093 -0.00279014)
(0.00354496 -0.00204644 -0.00279014)
(0.00384647 -0.00139977 -0.00279014)
(0.0040311 -0.000710575 -0.00279014)
(0.00409325 2.12695e-07 -0.00279014)
(0.00403102 0.000710995 -0.00279014)
(0.00384632 0.00140017 -0.00279013)
(0.00354475 0.00204681 -0.00279013)
(0.00313547 0.00263125 -0.00279014)
(0.00263093 0.00313575 -0.00279014)
(0.00204644 0.00354496 -0.00279014)
(0.00139977 0.00384647 -0.00279014)
(0.000710575 0.0040311 -0.00279014)
(-2.12431e-07 0.00409325 -0.00279014)
(-0.000710995 0.00403102 -0.00279014)
(-0.00140017 0.00384632 -0.00279013)
(-0.00210809 0.00369617 -0.00249467)
(-0.0027179 0.00327395 -0.00249468)
(-0.00324512 0.00275226 -0.00249468)
(-0.00367375 0.00214694 -0.00249468)
(-0.00399074 0.00147638 -0.00249468)
(-0.00418649 0.000760967 -0.00249468)
(-0.00425502 2.24294e-05 -0.00249468)
(-0.00419428 -0.000716789 -0.00249468)
(-0.00400609 -0.00143423 -0.00249467)
(-0.00369617 -0.00210809 -0.00249467)
(-0.00327395 -0.0027179 -0.00249468)
(-0.00275226 -0.00324512 -0.00249468)
(-0.00214694 -0.00367375 -0.00249468)
(-0.00147638 -0.00399074 -0.00249468)
(-0.000760967 -0.00418649 -0.00249468)
(-2.24291e-05 -0.00425502 -0.00249468)
(0.000716789 -0.00419428 -0.00249468)
(0.00143423 -0.00400609 -0.00249467)
(0.00210809 -0.00369617 -0.00249468)
(0.0027179 -0.00327395 -0.00249468)
(0.00324512 -0.00275226 -0.00249468)
(0.00367375 -0.00214694 -0.00249468)
(0.00399074 -0.00147638 -0.00249468)
(0.00418649 -0.000760967 -0.00249468)
(0.00425502 -2.24291e-05 -0.00249468)
(0.00419428 0.000716789 -0.00249467)
(0.00400609 0.00143423 -0.00249467)
(0.00369617 0.00210809 -0.00249467)
(0.00327395 0.0027179 -0.00249468)
(0.00275226 0.00324512 -0.00249468)
(0.00214694 0.00367375 -0.00249468)
(0.00147638 0.00399074 -0.00249468)
(0.000760967 0.00418649 -0.00249467)
(2.24294e-05 0.00425502 -0.00249467)
(-0.000716789 0.00419428 -0.00249467)
(-0.00143423 0.00400609 -0.00249467)
(-0.0022184 0.00378141 -0.00222658)
(-0.00284134 0.00333874 -0.00222658)
(-0.00337793 0.00279462 -0.00222658)
(-0.0038119 0.00216559 -0.00222658)
(-0.00413004 0.00147076 -0.00222658)
(-0.00432269 0.000731248 -0.00222658)
(-0.004384 -3.04886e-05 -0.00222658)
(-0.0043121 -0.000791298 -0.00222658)
(-0.00410918 -0.00152807 -0.00222658)
(-0.00378141 -0.0022184 -0.00222658)
(-0.00333874 -0.00284134 -0.00222658)
(-0.00279462 -0.00337793 -0.00222658)
(-0.00216559 -0.0038119 -0.00222658)
(-0.00147076 -0.00413004 -0.00222658)
(-0.000731248 -0.00432269 -0.00222658)
(3.04888e-05 -0.004384 -0.00222658)
(0.000791299 -0.0043121 -0.00222658)
(0.00152807 -0.00410918 -0.00222658)
(0.0022184 -0.00378141 -0.00222658)
(0.00284134 -0.00333874 -0.00222658)
(0.00337793 -0.00279462 -0.00222658)
(0.0038119 -0.00216559 -0.00222658)
(0.00413004 -0.00147076 -0.00222658)
(0.00432269 -0.000731248 -0.00222658)
(0.004384 3.04888e-05 -0.00222658)
(0.0043121 0.000791299 -0.00222658)
(0.00410918 0.00152807 -0.00222658)
(0.00378141 0.0022184 -0.00222658)
(0.00333874 0.00284134 -0.00222658)
(0.00279462 0.00337793 -0.00222658)
(0.00216559 0.0038119 -0.00222658)
(0.00147076 0.00413004 -0.00222658)
(0.000731248 0.00432269 -0.00222658)
(-3.04886e-05 0.004384 -0.00222658)
(-0.000791298 0.0043121 -0.00222658)
(-0.00152807 0.00410918 -0.00222658)
(-0.00237623 0.00407666 -0.00330229)
(-0.00304804 0.0036021 -0.00330229)
(-0.00362723 0.00301809 -0.00330229)
(-0.00409621 0.00234237 -0.00330229)
(-0.00444073 0.00159549 -0.00330229)
(-0.00465032 0.000800124 -0.00330229)
(-0.00471861 -1.95509e-05 -0.00330229)