/*--------------------------------*- C++ -*----------------------------------*\
| =========                 |                                                 |
| \\      /  F ield         | OpenFOAM: The Open Source CFD Toolbox           |
|  \\    /   O peration     | Version:  2312                                  |
|   \\  /    A nd           | Website:  www.openfoam.com                      |
|    \\/     M anipulation  |                                                 |
\*---------------------------------------------------------------------------*/
FoamFile
{
    version     2.0;
    format      ascii;
    arch        "LSB;label=32;scalar=64";
    class       volVectorField;
    location    "0.9";
    object      D_0_0;
}
// * * * * * * * * * * * * * * * * * * * * * * * * * * * * * * * * * * * * * //

dimensions      [0 1 0 0 0 0 0];

internalField   nonuniform List<vector> 
1620
(
(-0.000261375 0.000163547 -0.000178932)
(-0.000285803 0.000115675 -0.000178932)
(-0.000301548 6.42883e-05 -0.000178932)
(-0.000308131 1.09491e-05 -0.000178932)
(-0.000305351 -4.2723e-05 -0.000178932)
(-0.000293293 -9.50979e-05 -0.000178932)
(-0.000272324 -0.000144583 -0.000178932)
(-0.00024308 -0.000189675 -0.000178931)
(-0.00020645 -0.000229004 -0.000178932)
(-0.000163547 -0.000261375 -0.000178932)
(-0.000115675 -0.000285803 -0.000178932)
(-6.42882e-05 -0.000301548 -0.000178932)
(-1.09491e-05 -0.000308131 -0.000178932)
(4.2723e-05 -0.000305351 -0.000178932)
(9.50979e-05 -0.000293293 -0.000178932)
(0.000144583 -0.000272324 -0.000178932)
(0.000189675 -0.00024308 -0.000178931)
(0.000229004 -0.00020645 -0.000178932)
(0.000261375 -0.000163547 -0.000178932)
(0.000285803 -0.000115675 -0.000178932)
(0.000301548 -6.42882e-05 -0.000178932)
(0.000308131 -1.09491e-05 -0.000178932)
(0.000305351 4.2723e-05 -0.000178932)
(0.000293293 9.50979e-05 -0.000178932)
(0.000272324 0.000144583 -0.000178932)
(0.00024308 0.000189675 -0.000178931)
(0.00020645 0.000229004 -0.000178932)
(0.000163547 0.000261375 -0.000178932)
(0.000115675 0.000285803 -0.000178932)
(6.42883e-05 0.000301548 -0.000178932)
(1.09491e-05 0.000308131 -0.000178932)
(-4.2723e-05 0.000305351 -0.000178932)
(-9.50979e-05 0.000293293 -0.000178932)
(-0.000144583 0.000272324 -0.000178932)
(-0.000189675 0.00024308 -0.000178931)
(-0.000229004 0.00020645 -0.000178932)
(-0.000170366 0.000286418 -0.00012275)
(-0.000217513 0.000252483 -0.00012275)
(-0.000258052 0.000210876 -0.00012275)
(-0.00029075 0.000162862 -0.000122749)
(-0.000314614 0.0001099 -0.00012275)
(-0.000328918 5.35984e-05 -0.00012275)
(-0.000333229 -4.3319e-06 -0.000122749)
(-0.000327414 -6.21305e-05 -0.000122749)
(-0.000311651 -0.000118042 -0.00012275)
(-0.000286418 -0.000170366 -0.00012275)
(-0.000252483 -0.000217513 -0.00012275)
(-0.000210876 -0.000258052 -0.00012275)
(-0.000162862 -0.00029075 -0.000122749)
(-0.0001099 -0.000314614 -0.00012275)
(-5.35983e-05 -0.000328918 -0.00012275)
(4.33192e-06 -0.000333229 -0.000122749)
(6.21305e-05 -0.000327414 -0.000122749)
(0.000118042 -0.000311651 -0.00012275)
(0.000170366 -0.000286418 -0.00012275)
(0.000217513 -0.000252483 -0.00012275)
(0.000258052 -0.000210876 -0.00012275)
(0.00029075 -0.000162862 -0.000122749)
(0.000314614 -0.0001099 -0.00012275)
(0.000328918 -5.35983e-05 -0.00012275)
(0.000333229 4.33193e-06 -0.000122749)
(0.000327414 6.21305e-05 -0.000122749)
(0.000311651 0.000118042 -0.00012275)
(0.000286418 0.000170366 -0.00012275)
(0.000252483 0.000217513 -0.00012275)
(0.000210876 0.000258052 -0.00012275)
(0.000162862 0.00029075 -0.000122749)
(0.0001099 0.000314614 -0.00012275)
(5.35983e-05 0.000328918 -0.000122749)
(-4.33191e-06 0.000333229 -0.000122749)
(-6.21305e-05 0.000327414 -0.000122749)
(-0.000118042 0.000311651 -0.00012275)
(-0.000111456 0.000414823 -8.17477e-05)
(-0.000181796 0.000389167 -8.17477e-05)
(-0.000246612 0.000351687 -8.17479e-05)
(-0.000303935 0.00030352 -8.17477e-05)
(-0.000352024 0.000246131 -8.17479e-05)
(-0.000389416 0.000181264 -8.17477e-05)
(-0.000414976 0.000110888 -8.17479e-05)
(-0.000427927 3.71438e-05 -8.1748e-05)
(-0.000427875 -3.77292e-05 -8.17478e-05)
(-0.000414823 -0.000111456 -8.17477e-05)
(-0.000389167 -0.000181796 -8.17477e-05)
(-0.000351687 -0.000246612 -8.1748e-05)
(-0.00030352 -0.000303935 -8.17478e-05)
(-0.000246131 -0.000352024 -8.17479e-05)
(-0.000181264 -0.000389416 -8.17477e-05)
(-0.000110888 -0.000414976 -8.17479e-05)
(-3.71438e-05 -0.000427927 -8.1748e-05)
(3.77292e-05 -0.000427875 -8.17478e-05)
(0.000111456 -0.000414823 -8.17477e-05)
(0.000181796 -0.000389167 -8.17477e-05)
(0.000246612 -0.000351687 -8.1748e-05)
(0.000303935 -0.00030352 -8.17478e-05)
(0.000352024 -0.000246131 -8.17479e-05)
(0.000389416 -0.000181264 -8.17477e-05)
(0.000414976 -0.000110888 -8.17479e-05)
(0.000427927 -3.71438e-05 -8.1748e-05)
(0.000427875 3.77292e-05 -8.17478e-05)
(0.000414823 0.000111456 -8.17477e-05)
(0.000389167 0.000181796 -8.17477e-05)
(0.000351687 0.000246612 -8.17479e-05)
(0.00030352 0.000303935 -8.17477e-05)
(0.000246131 0.000352024 -8.17479e-05)
(0.000181264 0.000389416 -8.17477e-05)
(0.000110888 0.000414976 -8.17479e-05)
(3.71438e-05 0.000427927 -8.1748e-05)
(-3.77292e-05 0.000427875 -8.17478e-05)
(-0.000586398 0.000625428 -0.000511709)
(-0.000686094 0.000514099 -0.00051171)
(-0.000764944 0.00038715 -0.00051171)
(-0.000820551 0.000248438 -0.000511708)
(-0.000851225 0.000102177 -0.000511707)
(-0.000856036 -4.71884e-05 -0.000511708)
(-0.000834837 -0.000195121 -0.000511708)
(-0.000788271 -0.000337125 -0.000511708)
(-0.000717753 -0.000468885 -0.000511709)
(-0.000625428 -0.000586398 -0.000511709)
(-0.000514099 -0.000686094 -0.00051171)
(-0.000387149 -0.000764944 -0.00051171)
(-0.000248438 -0.000820551 -0.000511708)
(-0.000102177 -0.000851225 -0.000511707)
(4.71885e-05 -0.000856036 -0.000511708)
(0.000195121 -0.000834837 -0.000511708)
(0.000337125 -0.000788271 -0.000511708)
(0.000468885 -0.000717753 -0.000511709)
(0.000586398 -0.000625428 -0.000511709)
(0.000686094 -0.000514099 -0.00051171)
(0.000764944 -0.000387149 -0.00051171)
(0.000820551 -0.000248438 -0.000511708)
(0.000851225 -0.000102177 -0.000511707)
(0.000856036 4.71885e-05 -0.000511708)
(0.000834837 0.000195121 -0.000511708)
(0.000788271 0.000337125 -0.000511708)
(0.000717753 0.000468885 -0.000511709)
(0.000625428 0.000586399 -0.000511709)
(0.000514099 0.000686094 -0.00051171)
(0.000387149 0.000764944 -0.00051171)
(0.000248438 0.000820551 -0.000511708)
(0.000102177 0.000851225 -0.000511707)
(-4.71884e-05 0.000856036 -0.000511708)
(-0.000195121 0.000834837 -0.000511708)
(-0.000337125 0.000788271 -0.000511708)
(-0.000468885 0.000717753 -0.000511709)
(-0.000514597 0.000865312 -0.000382344)
(-0.000657039 0.000762806 -0.000382344)
(-0.000779517 0.000637124 -0.000382344)
(-0.00087831 0.000492084 -0.000382344)
(-0.000950417 0.000332092 -0.000382343)
(-0.000993645 0.000162008 -0.000382343)
(-0.00100668 -1.29982e-05 -0.000382343)
(-0.00098913 -0.000187609 -0.000382343)
(-0.000941525 -0.00035652 -0.000382344)
(-0.000865312 -0.000514597 -0.000382344)
(-0.000762806 -0.000657039 -0.000382344)
(-0.000637124 -0.000779517 -0.000382344)
(-0.000492084 -0.00087831 -0.000382344)
(-0.000332092 -0.000950417 -0.000382343)
(-0.000162008 -0.000993645 -0.000382343)
(1.29983e-05 -0.00100668 -0.000382343)
(0.000187609 -0.00098913 -0.000382343)
(0.00035652 -0.000941525 -0.000382344)
(0.000514597 -0.000865312 -0.000382344)
(0.000657039 -0.000762806 -0.000382344)
(0.000779517 -0.000637124 -0.000382344)
(0.00087831 -0.000492084 -0.000382344)
(0.000950417 -0.000332092 -0.000382343)
(0.000993645 -0.000162008 -0.000382343)
(0.00100668 1.29983e-05 -0.000382343)
(0.00098913 0.000187609 -0.000382343)
(0.000941525 0.00035652 -0.000382344)
(0.000865312 0.000514597 -0.000382344)
(0.000762806 0.000657039 -0.000382344)
(0.000637124 0.000779517 -0.000382344)
(0.000492084 0.00087831 -0.000382344)
(0.000332092 0.000950417 -0.000382343)
(0.000162008 0.000993645 -0.000382343)
(-1.29982e-05 0.00100668 -0.000382343)
(-0.000187609 0.00098913 -0.000382343)
(-0.00035652 0.000941525 -0.000382344)
(-0.000485598 0.00110335 -0.000257136)
(-0.000669814 0.00100226 -0.000257135)
(-0.000833678 0.000870723 -0.000257136)
(-0.000972211 0.000712728 -0.000257136)
(-0.00108121 0.000533077 -0.000257136)
(-0.00115735 0.000337229 -0.000257136)
(-0.00119832 0.000131134 -0.000257136)
(-0.00120289 -7.89451e-05 -0.000257136)
(-0.00117091 -0.000286626 -0.000257136)
(-0.00110335 -0.000485598 -0.000257136)
(-0.00100226 -0.000669814 -0.000257136)
(-0.000870723 -0.000833678 -0.000257136)
(-0.000712728 -0.000972211 -0.000257136)
(-0.000533077 -0.00108121 -0.000257136)
(-0.000337229 -0.00115735 -0.000257136)
(-0.000131134 -0.00119832 -0.000257136)
(7.89452e-05 -0.00120289 -0.000257136)
(0.000286626 -0.00117091 -0.000257136)
(0.000485598 -0.00110335 -0.000257136)
(0.000669814 -0.00100226 -0.000257136)
(0.000833678 -0.000870723 -0.000257136)
(0.000972211 -0.000712728 -0.000257136)
(0.00108121 -0.000533077 -0.000257136)
(0.00115735 -0.000337229 -0.000257136)
(0.00119832 -0.000131134 -0.000257136)
(0.00120289 7.89452e-05 -0.000257136)
(0.00117091 0.000286626 -0.000257136)
(0.00110335 0.000485598 -0.000257136)
(0.00100226 0.000669814 -0.000257135)
(0.000870723 0.000833678 -0.000257136)
(0.000712728 0.000972211 -0.000257136)
(0.000533077 0.00108121 -0.000257136)
(0.000337229 0.00115735 -0.000257136)
(0.000131134 0.00119832 -0.000257136)
(-7.89452e-05 0.00120289 -0.000257136)
(-0.000286626 0.00117091 -0.000257136)
(-0.000892008 0.00113223 -0.000916698)
(-0.00107507 0.000960136 -0.000916698)
(-0.00122546 0.000758867 -0.000916697)
(-0.00133862 0.00053454 -0.000916696)
(-0.0014111 0.000293971 -0.000916695)
(-0.00144071 4.44699e-05 -0.000916695)
(-0.00142655 -0.000206384 -0.000916695)
(-0.00136904 -0.000450966 -0.000916695)
(-0.00126993 -0.000681846 -0.000916697)
(-0.00113223 -0.000892008 -0.000916698)
(-0.000960136 -0.00107507 -0.000916698)
(-0.000758867 -0.00122546 -0.000916698)
(-0.000534539 -0.00133862 -0.000916696)
(-0.000293971 -0.0014111 -0.000916695)
(-4.44698e-05 -0.00144071 -0.000916695)
(0.000206384 -0.00142655 -0.000916695)
(0.000450966 -0.00136904 -0.000916695)
(0.000681846 -0.00126993 -0.000916697)
(0.000892008 -0.00113223 -0.000916698)
(0.00107507 -0.000960136 -0.000916698)
(0.00122546 -0.000758867 -0.000916698)
(0.00133862 -0.000534539 -0.000916696)
(0.00141111 -0.000293971 -0.000916695)
(0.00144071 -4.44698e-05 -0.000916695)
(0.00142655 0.000206384 -0.000916695)
(0.00136904 0.000450966 -0.000916695)
(0.00126993 0.000681846 -0.000916697)
(0.00113223 0.000892008 -0.000916698)
(0.000960136 0.00107507 -0.000916698)
(0.000758867 0.00122546 -0.000916697)
(0.00053454 0.00133862 -0.000916696)
(0.000293971 0.00141111 -0.000916694)
(4.44699e-05 0.00144071 -0.000916694)
(-0.000206384 0.00142655 -0.000916695)
(-0.000450966 0.00136904 -0.000916695)
(-0.000681846 0.00126993 -0.000916697)
(-0.000853224 0.00145114 -0.00072656)
(-0.00109225 0.00128094 -0.00072656)
(-0.00129809 0.00107181 -0.00072656)
(-0.00146448 0.000830115 -0.00072656)
(-0.00158638 0.000563199 -0.000726559)
(-0.00166008 0.00027917 -0.000726559)
(-0.00168334 -1.33417e-05 -0.000726559)
(-0.00165545 -0.000305448 -0.000726559)
(-0.00157726 -0.000588273 -0.00072656)
(-0.00145114 -0.000853224 -0.00072656)
(-0.00128093 -0.00109225 -0.00072656)
(-0.00107181 -0.00129809 -0.00072656)
(-0.000830115 -0.00146448 -0.00072656)
(-0.000563199 -0.00158638 -0.000726559)
(-0.00027917 -0.00166008 -0.000726559)
(1.33418e-05 -0.00168334 -0.000726559)
(0.000305448 -0.00165545 -0.000726559)
(0.000588273 -0.00157726 -0.00072656)
(0.000853224 -0.00145114 -0.00072656)
(0.00109225 -0.00128093 -0.00072656)
(0.00129809 -0.00107181 -0.00072656)
(0.00146448 -0.000830115 -0.00072656)
(0.00158638 -0.000563199 -0.000726559)
(0.00166008 -0.00027917 -0.000726559)
(0.00168334 1.33418e-05 -0.000726559)
(0.00165545 0.000305448 -0.000726559)
(0.00157726 0.000588273 -0.00072656)
(0.00145114 0.000853224 -0.00072656)
(0.00128093 0.00109225 -0.00072656)
(0.00107181 0.00129809 -0.00072656)
(0.000830115 0.00146448 -0.000726559)
(0.000563199 0.00158638 -0.000726559)
(0.00027917 0.00166008 -0.000726559)
(-1.33417e-05 0.00168334 -0.000726559)
(-0.000305448 0.00165545 -0.000726559)
(-0.000588273 0.00157726 -0.00072656)
(-0.000866203 0.00175528 -0.00054244)
(-0.00115784 0.0015782 -0.00054244)
(-0.0014143 0.00135317 -0.000542441)
(-0.00162779 0.00108702 -0.000542441)
(-0.00179182 0.000787839 -0.000542441)
(-0.00190141 0.000464723 -0.000542441)
(-0.00195322 0.000127486 -0.000542441)
(-0.00194568 -0.000213623 -0.000542441)
(-0.00187903 -0.000548242 -0.000542441)
(-0.00175528 -0.000866203 -0.00054244)
(-0.0015782 -0.00115784 -0.00054244)
(-0.00135316 -0.0014143 -0.000542441)
(-0.00108702 -0.00162779 -0.000542441)
(-0.000787839 -0.00179182 -0.000542441)
(-0.000464723 -0.00190141 -0.000542441)
(-0.000127486 -0.00195322 -0.000542441)
(0.000213623 -0.00194568 -0.000542441)
(0.000548242 -0.00187903 -0.000542441)
(0.000866203 -0.00175528 -0.000542441)
(0.00115784 -0.0015782 -0.00054244)
(0.0014143 -0.00135316 -0.000542441)
(0.00162779 -0.00108702 -0.000542441)
(0.00179182 -0.000787839 -0.000542441)
(0.00190141 -0.000464723 -0.000542441)
(0.00195322 -0.000127486 -0.000542441)
(0.00194568 0.000213623 -0.000542441)
(0.00187903 0.000548242 -0.000542441)
(0.00175528 0.000866203 -0.00054244)
(0.0015782 0.00115784 -0.00054244)
(0.00135317 0.0014143 -0.000542441)
(0.00108702 0.00162779 -0.000542441)
(0.000787839 0.00179182 -0.000542441)
(0.000464723 0.00190141 -0.000542441)
(0.000127486 0.00195322 -0.000542441)
(-0.000213623 0.00194568 -0.00054244)
(-0.000548242 0.00187903 -0.000542441)
(-0.00117599 0.00169798 -0.00135663)
(-0.00145298 0.00146798 -0.00135663)
(-0.00168581 0.00119337 -0.00135663)
(-0.00186743 0.000882504 -0.00135663)
(-0.0019923 0.000544821 -0.00135663)
(-0.00205664 0.000190584 -0.00135662)
(-0.00205849 -0.000169444 -0.00135662)
(-0.00199779 -0.000524323 -0.00135662)
(-0.0018764 -0.000863271 -0.00135663)
(-0.00169798 -0.00117599 -0.00135663)
(-0.00146798 -0.00145298 -0.00135663)
(-0.00119337 -0.00168581 -0.00135663)
(-0.000882504 -0.00186743 -0.00135663)
(-0.000544821 -0.0019923 -0.00135663)
(-0.000190584 -0.00205664 -0.00135662)
(0.000169444 -0.00205849 -0.00135662)
(0.000524324 -0.00199779 -0.00135662)
(0.000863271 -0.0018764 -0.00135663)
(0.00117599 -0.00169798 -0.00135663)
(0.00145298 -0.00146798 -0.00135663)
(0.00168581 -0.00119337 -0.00135663)
(0.00186743 -0.000882503 -0.00135663)
(0.0019923 -0.000544821 -0.00135663)
(0.00205664 -0.000190584 -0.00135662)
(0.00205849 0.000169444 -0.00135662)
(0.00199779 0.000524324 -0.00135662)
(0.0018764 0.000863271 -0.00135663)
(0.00169798 0.00117599 -0.00135663)
(0.00146798 0.00145298 -0.00135663)
(0.00119337 0.00168581 -0.00135663)
(0.000882504 0.00186743 -0.00135663)
(0.000544821 0.0019923 -0.00135663)
(0.000190584 0.00205664 -0.00135662)
(-0.000169444 0.00205849 -0.00135662)
(-0.000524323 0.00199779 -0.00135662)
(-0.000863271 0.0018764 -0.00135663)
(-0.00117821 0.00203875 -0.00112441)
(-0.00151434 0.00180318 -0.00112441)
(-0.00180445 0.00151283 -0.00112441)
(-0.00203974 0.0011765 -0.00112441)
(-0.00221305 0.000804434 -0.00112441)
(-0.00231911 0.000407921 -0.00112441)
(-0.00235472 -9.86171e-07 -0.00112441)
(-0.00231877 -0.000409864 -0.00112441)
(-0.00221237 -0.000806288 -0.00112441)
(-0.00203875 -0.00117821 -0.00112441)
(-0.00180318 -0.00151434 -0.00112441)
(-0.00151283 -0.00180445 -0.00112441)
(-0.0011765 -0.00203974 -0.00112441)
(-0.000804433 -0.00221305 -0.00112441)
(-0.000407921 -0.00231911 -0.00112441)
(9.86293e-07 -0.00235472 -0.00112441)
(0.000409864 -0.00231877 -0.00112441)
(0.000806288 -0.00221237 -0.00112441)
(0.00117821 -0.00203875 -0.00112441)
(0.00151434 -0.00180318 -0.00112441)
(0.00180445 -0.00151283 -0.00112441)
(0.00203974 -0.0011765 -0.00112441)
(0.00221305 -0.000804433 -0.00112441)
(0.00231911 -0.000407921 -0.00112441)
(0.00235472 9.86336e-07 -0.00112441)
(0.00231877 0.000409864 -0.00112441)
(0.00221237 0.000806288 -0.00112441)
(0.00203875 0.00117821 -0.00112441)
(0.00180318 0.00151434 -0.00112441)
(0.00151283 0.00180445 -0.00112441)
(0.0011765 0.00203974 -0.00112441)
(0.000804433 0.00221305 -0.00112441)
(0.000407921 0.00231911 -0.00112441)
(-9.86206e-07 0.00235472 -0.00112441)
(-0.000409864 0.00231877 -0.00112441)
(-0.000806288 0.00221237 -0.00112441)
(-0.00123761 0.0023484 -0.000903285)
(-0.0016266 0.00209781 -0.000903286)
(-0.00196617 0.00178349 -0.000903285)
(-0.002246 0.00141497 -0.000903285)
(-0.00245758 0.00100346 -0.000903285)
(-0.00259449 0.000561462 -0.000903285)
(-0.00265258 0.000102402 -0.000903286)
(-0.00263006 -0.000359769 -0.000903286)
(-0.00252763 -0.000811009 -0.000903285)
(-0.0023484 -0.00123761 -0.000903285)
(-0.00209781 -0.0016266 -0.000903286)
(-0.00178349 -0.00196617 -0.000903285)
(-0.00141497 -0.002246 -0.000903285)
(-0.00100346 -0.00245758 -0.000903285)
(-0.000561462 -0.00259449 -0.000903285)
(-0.000102402 -0.00265258 -0.000903286)
(0.000359769 -0.00263006 -0.000903286)
(0.000811009 -0.00252763 -0.000903285)
(0.00123761 -0.0023484 -0.000903285)
(0.0016266 -0.00209781 -0.000903286)
(0.00196617 -0.00178349 -0.000903285)
(0.002246 -0.00141497 -0.000903285)
(0.00245758 -0.00100346 -0.000903285)
(0.00259449 -0.000561462 -0.000903285)
(0.00265258 -0.000102402 -0.000903286)
(0.00263006 0.000359769 -0.000903286)
(0.00252763 0.000811009 -0.000903285)
(0.0023484 0.00123761 -0.000903285)
(0.00209781 0.0016266 -0.000903286)
(0.00178349 0.00196617 -0.000903285)
(0.00141497 0.002246 -0.000903285)
(0.00100346 0.00245758 -0.000903285)
(0.000561462 0.0025945 -0.000903285)
(0.000102402 0.00265258 -0.000903285)
(-0.000359769 0.00263006 -0.000903286)
(-0.000811009 0.00252763 -0.000903285)
(-0.00145292 0.00231108 -0.00181411)
(-0.00183216 0.00202367 -0.00181411)
(-0.00215574 0.00167477 -0.00181411)
(-0.00241381 0.00127499 -0.00181411)
(-0.00259853 0.000836467 -0.00181411)
(-0.00270431 0.000372528 -0.00181411)
(-0.00272791 -0.00010273 -0.00181411)
(-0.00266863 -0.000574867 -0.00181411)
(-0.00252826 -0.00102954 -0.00181411)
(-0.00231108 -0.00145292 -0.00181411)
(-0.00202367 -0.00183216 -0.00181411)
(-0.00167477 -0.00215574 -0.00181411)
(-0.00127499 -0.00241381 -0.00181411)
(-0.000836467 -0.00259853 -0.00181411)
(-0.000372528 -0.00270431 -0.00181411)
(0.00010273 -0.00272791 -0.00181411)
(0.000574867 -0.00266863 -0.00181411)
(0.00102954 -0.00252826 -0.00181411)
(0.00145292 -0.00231108 -0.00181411)
(0.00183216 -0.00202367 -0.00181411)
(0.00215574 -0.00167477 -0.00181411)
(0.00241381 -0.00127499 -0.00181411)
(0.00259853 -0.000836467 -0.00181411)
(0.00270431 -0.000372528 -0.00181411)
(0.00272791 0.00010273 -0.00181411)
(0.00266863 0.000574867 -0.00181411)
(0.00252826 0.00102954 -0.00181411)
(0.00231108 0.00145292 -0.00181411)
(0.00202367 0.00183216 -0.00181411)
(0.00167477 0.00215574 -0.00181411)
(0.00127499 0.00241381 -0.00181411)
(0.000836467 0.00259853 -0.00181411)
(0.000372528 0.00270431 -0.00181411)
(-0.00010273 0.00272791 -0.00181411)
(-0.000574867 0.00266863 -0.00181411)
(-0.00102954 0.00252826 -0.00181411)
(-0.00149081 0.00262051 -0.00155607)
(-0.00192321 0.00232183 -0.00155607)
(-0.00229717 0.00195259 -0.00155607)
(-0.00260134 0.00152403 -0.00155607)
(-0.00282646 0.00104916 -0.00155607)
(-0.0029657 0.00054241 -0.00155607)
(-0.00301484 1.918e-05 -0.00155607)
(-0.00297236 -0.000504632 -0.00155607)
(-0.00283958 -0.00101311 -0.00155607)
(-0.00262051 -0.00149081 -0.00155607)
(-0.00232183 -0.00192321 -0.00155607)
(-0.00195259 -0.00229717 -0.00155607)
(-0.00152403 -0.00260134 -0.00155607)
(-0.00104916 -0.00282646 -0.00155607)
(-0.00054241 -0.0029657 -0.00155607)
(-1.91799e-05 -0.00301484 -0.00155607)
(0.000504632 -0.00297236 -0.00155607)
(0.00101311 -0.00283958 -0.00155607)
(0.00149081 -0.00262051 -0.00155607)
(0.00192321 -0.00232183 -0.00155607)
(0.00229717 -0.00195259 -0.00155607)
(0.00260134 -0.00152403 -0.00155607)
(0.00282646 -0.00104916 -0.00155607)
(0.0029657 -0.00054241 -0.00155607)
(0.00301484 -1.91798e-05 -0.00155607)
(0.00297236 0.000504632 -0.00155607)
(0.00283958 0.00101311 -0.00155607)
(0.00262051 0.00149081 -0.00155607)
(0.00232183 0.00192321 -0.00155607)
(0.00195259 0.00229717 -0.00155607)
(0.00152403 0.00260134 -0.00155607)
(0.00104916 0.00282646 -0.00155607)
(0.00054241 0.0029657 -0.00155607)
(1.918e-05 0.00301484 -0.00155607)
(-0.000504632 0.00297236 -0.00155607)
(-0.00101311 0.00283958 -0.00155607)
(-0.00158649 0.00288343 -0.00131498)
(-0.00206309 0.00256414 -0.00131498)
(-0.002477 0.00216693 -0.00131498)
(-0.00281566 0.00170388 -0.00131498)
(-0.00306876 0.00118906 -0.00131498)
(-0.00322861 0.000638116 -0.00131498)
(-0.00329037 6.77787e-05 -0.00131498)
(-0.00325215 -0.000504619 -0.00131498)
(-0.00311512 -0.00106168 -0.00131498)
(-0.00288343 -0.00158649 -0.00131498)
(-0.00256414 -0.00206309 -0.00131498)
(-0.00216693 -0.002477 -0.00131498)
(-0.00170388 -0.00281566 -0.00131498)
(-0.00118906 -0.00306876 -0.00131498)
(-0.000638116 -0.00322861 -0.00131498)
(-6.77785e-05 -0.00329037 -0.00131498)
(0.000504619 -0.00325215 -0.00131498)
(0.00106168 -0.00311512 -0.00131498)
(0.00158649 -0.00288343 -0.00131498)
(0.00206309 -0.00256414 -0.00131498)
(0.002477 -0.00216693 -0.00131498)
(0.00281566 -0.00170388 -0.00131498)
(0.00306876 -0.00118906 -0.00131498)
(0.00322861 -0.000638116 -0.00131498)
(0.00329037 -6.77785e-05 -0.00131498)
(0.00325215 0.000504619 -0.00131498)
(0.00311512 0.00106168 -0.00131498)
(0.00288343 0.00158649 -0.00131498)
(0.00256414 0.00206309 -0.00131498)
(0.00216693 0.002477 -0.00131498)
(0.00170388 0.00281566 -0.00131498)
(0.00118906 0.00306876 -0.00131498)
(0.000638116 0.00322861 -0.00131498)
(6.77787e-05 0.00329037 -0.00131498)
(-0.000504619 0.00325215 -0.00131498)
(-0.00106168 0.00311512 -0.00131498)
(-0.00173884 0.00294106 -0.00228697)
(-0.00222314 0.00259443 -0.00228697)
(-0.00263988 0.00216897 -0.00228697)
(-0.00297641 0.00167761 -0.00228697)
(-0.00322251 0.00113528 -0.00228697)
(-0.00337069 0.000558446 -0.00228697)
(-0.00341645 -3.53517e-05 -0.00228697)
(-0.00335841 -0.000628076 -0.00228697)
(-0.00319832 -0.00120172 -0.00228696)
(-0.00294106 -0.00173884 -0.00228697)
(-0.00259443 -0.00222314 -0.00228697)
(-0.00216897 -0.00263988 -0.00228697)
(-0.00167761 -0.00297641 -0.00228697)
(-0.00113528 -0.00322251 -0.00228697)
(-0.000558446 -0.00337069 -0.00228697)
(3.53519e-05 -0.00341645 -0.00228697)
(0.000628076 -0.00335841 -0.00228697)
(0.00120172 -0.00319832 -0.00228697)
(0.00173884 -0.00294106 -0.00228697)
(0.00222314 -0.00259443 -0.00228697)
(0.00263988 -0.00216897 -0.00228697)
(0.00297641 -0.00167761 -0.00228697)
(0.00322251 -0.00113528 -0.00228697)
(0.00337069 -0.000558446 -0.00228697)
(0.00341645 3.53519e-05 -0.00228697)
(0.00335841 0.000628076 -0.00228697)
(0.00319832 0.00120172 -0.00228696)
(0.00294106 0.00173884 -0.00228697)
(0.00259443 0.00222314 -0.00228697)
(0.00216897 0.00263988 -0.00228697)
(0.00167761 0.00297641 -0.00228697)
(0.00113528 0.00322251 -0.00228697)
(0.000558446 0.00337069 -0.00228697)
(-3.53517e-05 0.00341645 -0.00228697)
(-0.000628076 0.00335841 -0.00228697)
(-0.00120172 0.00319833 -0.00228696)
(-0.00179759 0.00318154 -0.00201087)
(-0.00232275 0.00282105 -0.00201087)
(-0.00277733 0.00237486 -0.00201087)
(-0.00314752 0.0018565 -0.00201087)
(-0.00342208 0.00128173 -0.00201087)
(-0.00359266 0.000668023 -0.00201087)
(-0.00365408 3.40148e-05 -0.00201087)
(-0.00360448 -0.000601027 -0.00201087)
(-0.00344535 -0.00121781 -0.00201087)
(-0.00318154 -0.00179759 -0.00201087)
(-0.00282105 -0.00232275 -0.00201087)
(-0.00237486 -0.00277733 -0.00201087)
(-0.0018565 -0.00314752 -0.00201087)
(-0.00128173 -0.00342208 -0.00201087)
(-0.000668023 -0.00359266 -0.00201087)
(-3.40146e-05 -0.00365408 -0.00201087)
(0.000601027 -0.00360448 -0.00201087)
(0.00121781 -0.00344535 -0.00201087)
(0.00179759 -0.00318154 -0.00201087)
(0.00232275 -0.00282105 -0.00201087)
(0.00277733 -0.00237486 -0.00201087)
(0.00314752 -0.0018565 -0.00201087)
(0.00342208 -0.00128173 -0.00201087)
(0.00359266 -0.000668023 -0.00201087)
(0.00365408 -3.40146e-05 -0.00201087)
(0.00360448 0.000601027 -0.00201087)
(0.00344535 0.00121781 -0.00201087)
(0.00318154 0.00179759 -0.00201087)
(0.00282105 0.00232275 -0.00201087)
(0.00237486 0.00277733 -0.00201087)
(0.0018565 0.00314752 -0.00201087)
(0.00128173 0.00342208 -0.00201087)
(0.000668023 0.00359266 -0.00201087)
(3.40148e-05 0.00365408 -0.00201087)
(-0.000601027 0.00360448 -0.00201087)
(-0.00121781 0.00344535 -0.00201087)
(-0.00191099 0.00336339 -0.00175724)
(-0.002466 0.00298046 -0.00175724)
(-0.00294609 0.00250696 -0.00175724)
(-0.00333666 0.00195729 -0.00175724)
(-0.00362585 0.00134815 -0.00175724)
(-0.00380487 0.000698049 -0.00175724)
(-0.00386828 2.67368e-05 -0.00175724)
(-0.00381415 -0.00064539 -0.00175724)
(-0.00364414 -0.00129791 -0.00175724)
(-0.00336339 -0.00191099 -0.00175724)
(-0.00298046 -0.002466 -0.00175724)
(-0.00250696 -0.00294609 -0.00175724)
(-0.00195729 -0.00333666 -0.00175724)
(-0.00134815 -0.00362585 -0.00175724)
(-0.000698049 -0.00380487 -0.00175724)
(-2.67366e-05 -0.00386828 -0.00175724)
(0.00064539 -0.00381415 -0.00175724)
(0.00129791 -0.00364414 -0.00175724)
(0.00191099 -0.00336339 -0.00175724)
(0.002466 -0.00298046 -0.00175724)
(0.00294609 -0.00250696 -0.00175724)
(0.00333666 -0.00195729 -0.00175724)
(0.00362585 -0.00134815 -0.00175724)
(0.00380487 -0.000698049 -0.00175724)
(0.00386828 -2.67365e-05 -0.00175724)
(0.00381415 0.00064539 -0.00175724)
(0.00364414 0.00129791 -0.00175724)
(0.00336339 0.00191099 -0.00175724)
(0.00298046 0.002466 -0.00175724)
(0.00250696 0.00294609 -0.00175724)
(0.00195729 0.00333666 -0.00175724)
(0.00134815 0.00362585 -0.00175724)
(0.000698049 0.00380487 -0.00175724)
(2.67367e-05 0.00386828 -0.00175724)
(-0.00064539 0.00381415 -0.00175724)
(-0.00129791 0.00364414 -0.00175724)
(-0.00204585 0.00354613 -0.00277867)
(-0.00263055 0.003137 -0.00277867)
(-0.00313532 0.00263255 -0.00277868)
(-0.00354482 0.00204811 -0.00277868)
(-0.00384662 0.00140144 -0.00277867)
(-0.00403154 0.000712195 -0.00277867)
(-0.00409396 1.30624e-06 -0.00277867)
(-0.00403199 -0.000709623 -0.00277867)
(-0.00384751 -0.00139899 -0.00277867)
(-0.00354613 -0.00204585 -0.00277867)
(-0.003137 -0.00263055 -0.00277867)
(-0.00263255 -0.00313532 -0.00277868)
(-0.00204811 -0.00354482 -0.00277868)
(-0.00140144 -0.00384662 -0.00277868)
(-0.000712195 -0.00403154 -0.00277867)
(-1.30596e-06 -0.00409396 -0.00277867)
(0.000709624 -0.00403199 -0.00277867)
(0.00139899 -0.00384751 -0.00277867)
(0.00204585 -0.00354613 -0.00277867)
(0.00263055 -0.003137 -0.00277867)
(0.00313532 -0.00263255 -0.00277868)
(0.00354482 -0.00204811 -0.00277868)
(0.00384662 -0.00140144 -0.00277868)
(0.00403154 -0.000712195 -0.00277867)
(0.00409396 -1.30595e-06 -0.00277867)
(0.00403199 0.000709624 -0.00277867)
(0.00384751 0.00139899 -0.00277867)
(0.00354613 0.00204585 -0.00277867)
(0.003137 0.00263055 -0.00277867)
(0.00263255 0.00313532 -0.00277868)
(0.00204811 0.00354482 -0.00277868)
(0.00140144 0.00384662 -0.00277867)
(0.000712195 0.00403154 -0.00277867)
(1.30621e-06 0.00409396 -0.00277867)
(-0.000709623 0.00403199 -0.00277867)
(-0.00139899 0.00384751 -0.00277867)
(-0.00210602 0.00369574 -0.00248441)
(-0.00271578 0.00327388 -0.00248441)
(-0.00324303 0.00275255 -0.00248441)
(-0.00367174 0.00214759 -0.00248441)
(-0.00398888 0.00147737 -0.00248441)
(-0.00418482 0.00076227 -0.00248441)
(-0.00425361 2.40015e-05 -0.00248441)
(-0.00419316 -0.000714995 -0.00248441)
(-0.0040053 -0.00143227 -0.00248441)
(-0.00369574 -0.00210602 -0.00248441)
(-0.00327388 -0.00271578 -0.00248441)
(-0.00275255 -0.00324303 -0.00248441)
(-0.00214759 -0.00367174 -0.00248441)
(-0.00147737 -0.00398888 -0.00248441)
(-0.000762269 -0.00418482 -0.00248441)
(-2.40012e-05 -0.00425361 -0.00248441)
(0.000714995 -0.00419316 -0.00248441)
(0.00143227 -0.0040053 -0.00248441)
(0.00210602 -0.00369574 -0.00248441)
(0.00271578 -0.00327388 -0.00248441)
(0.00324303 -0.00275255 -0.00248441)
(0.00367174 -0.00214759 -0.00248441)
(0.00398888 -0.00147737 -0.00248441)
(0.00418482 -0.000762269 -0.00248441)
(0.00425361 -2.40012e-05 -0.00248441)
(0.00419316 0.000714995 -0.00248441)
(0.0040053 0.00143227 -0.00248441)
(0.00369574 0.00210602 -0.00248441)
(0.00327388 0.00271578 -0.00248441)
(0.00275255 0.00324303 -0.00248441)
(0.00214759 0.00367174 -0.00248441)
(0.00147737 0.00398888 -0.00248441)
(0.00076227 0.00418482 -0.00248441)
(2.40015e-05 0.00425361 -0.00248441)
(-0.000714995 0.00419316 -0.00248441)
(-0.00143227 0.0040053 -0.00248441)
(-0.00221488 0.00377982 -0.0022171)
(-0.00283759 0.00333779 -0.0022171)
(-0.00337408 0.00279434 -0.0022171)
(-0.00380805 0.00216598 -0.0022171)
(-0.00412631 0.00147182 -0.0022171)
(-0.0043192 0.00073293 -0.0022171)
(-0.00438086 -2.8227e-05 -0.0022171)
(-0.0043094 -0.000788526 -0.0022171)
(-0.00410701 -0.00152487 -0.0022171)
(-0.00377982 -0.00221488 -0.0022171)
(-0.00333779 -0.00283759 -0.0022171)
(-0.00279434 -0.00337408 -0.0022171)
(-0.00216598 -0.00380805 -0.0022171)
(-0.00147182 -0.00412631 -0.0022171)
(-0.00073293 -0.0043192 -0.0022171)
(2.82272e-05 -0.00438086 -0.0022171)
(0.000788526 -0.0043094 -0.0022171)
(0.00152487 -0.00410701 -0.0022171)
(0.00221488 -0.00377982 -0.0022171)
(0.00283759 -0.00333779 -0.0022171)
(0.00337408 -0.00279434 -0.0022171)
(0.00380805 -0.00216598 -0.0022171)
(0.00412631 -0.00147182 -0.0022171)
(0.0043192 -0.00073293 -0.0022171)
(0.00438086 2.82272e-05 -0.0022171)
(0.0043094 0.000788526 -0.0022171)
(0.00410701 0.00152487 -0.0022171)
(0.00377982 0.00221488 -0.0022171)
(0.00333779 0.00283759 -0.0022171)
(0.00279434 0.00337408 -0.0022171)
(0.00216598 0.00380805 -0.0022171)
(0.00147182 0.00412631 -0.0022171)
(0.00073293 0.0043192 -0.0022171)
(-2.8227e-05 0.00438086 -0.0022171)
(-0.000788526 0.0043094 -0.0022171)
(-0.00152487 0.00410701 -0.0022171)
(-0.002375 0.00407552 -0.00328962)
(-0.00304662 0.00360119 -0.00328962)
(-0.00362568 0.00301744 -0.00328962)
(-0.00409457 0.002342 -0.00328962)
(-0.00443905 0.00159541 -0.00328962)
(-0.00464865 0.000800339 -0.00328962)
(-0.004717 -1.9049e-05 -0.00328962)
(-0.00464203 -0.00083786 -0.00328962)
(-0.00442602 -0.00163121 -0.00328962)