/*--------------------------------*- C++ -*----------------------------------*\
| =========                 |                                                 |
| \\      /  F ield         | OpenFOAM: The Open Source CFD Toolbox           |
|  \\    /   O peration     | Version:  2312                                  |
|   \\  /    A nd           | Website:  www.openfoam.com                      |
|    \\/     M anipulation  |                                                 |
\*---------------------------------------------------------------------------*/
FoamFile
{
    version     2.0;
    format      ascii;
    arch        "LSB;label=32;scalar=64";
    class       volTensorField;
    location    "0.9";
    object      F;
}
// * * * * * * * * * * * * * * * * * * * * * * * * * * * * * * * * * * * * * //

dimensions      [0 0 0 0 0 0 0];

internalField   nonuniform List<tensor> 
1620
(
(0.909323 -0.025235 0.161065 -0.121288 0.960835 -0.245252 -0.0567751 -0.00496741 1.16969)
(0.935933 -0.0296261 0.201205 -0.125679 0.934225 -0.213558 -0.0550504 -0.0147508 1.16969)
(0.96244 -0.0246512 0.235232 -0.120704 0.907718 -0.175374 -0.0516524 -0.0240856 1.16969)
(0.985647 -0.01091 0.262112 -0.106963 0.884511 -0.131863 -0.0466849 -0.0326891 1.16969)
(1.00276 0.00993987 0.281028 -0.0861132 0.867403 -0.0843444 -0.0402994 -0.0402996 1.16969)
(1.0117 0.0353832 0.291405 -0.0606697 0.858458 -0.0342631 -0.0326895 -0.0466852 1.16969)
(1.0114 0.0623513 0.292927 -0.0337013 0.858755 0.0168594 -0.0240859 -0.0516519 1.16969)
(1.0019 0.087592 0.285549 -0.00846067 0.868257 0.0674697 -0.0147504 -0.0550497 1.16969)
(0.984339 0.108061 0.269495 0.0120077 0.885819 0.11603 -0.00496703 -0.056775 1.16969)
(0.960835 0.121288 0.245252 0.025235 0.909323 0.161065 0.00496741 -0.0567751 1.16969)
(0.934225 0.125679 0.213558 0.0296261 0.935933 0.201205 0.0147508 -0.0550504 1.16969)
(0.907718 0.120704 0.175374 0.0246512 0.96244 0.235232 0.0240856 -0.0516524 1.16969)
(0.884511 0.106963 0.131863 0.01091 0.985647 0.262112 0.0326891 -0.0466849 1.16969)
(0.867403 0.0861132 0.0843444 -0.00993986 1.00276 0.281028 0.0402996 -0.0402994 1.16969)
(0.858458 0.0606697 0.0342631 -0.0353832 1.0117 0.291405 0.0466852 -0.0326895 1.16969)
(0.858755 0.0337013 -0.0168595 -0.0623513 1.0114 0.292927 0.0516519 -0.0240859 1.16969)
(0.868257 0.00846067 -0.0674697 -0.087592 1.0019 0.285549 0.0550497 -0.0147504 1.16969)
(0.885819 -0.0120077 -0.11603 -0.108061 0.984339 0.269495 0.056775 -0.00496703 1.16969)
(0.909323 -0.025235 -0.161065 -0.121288 0.960835 0.245252 0.0567751 0.00496741 1.16969)
(0.935933 -0.0296261 -0.201205 -0.125679 0.934225 0.213558 0.0550504 0.0147508 1.16969)
(0.96244 -0.0246512 -0.235232 -0.120704 0.907718 0.175374 0.0516524 0.0240856 1.16969)
(0.985647 -0.01091 -0.262112 -0.106963 0.884511 0.131863 0.0466849 0.032689 1.16969)
(1.00276 0.00993986 -0.281028 -0.0861132 0.867403 0.0843444 0.0402994 0.0402996 1.16969)
(1.0117 0.0353832 -0.291405 -0.0606697 0.858458 0.0342631 0.0326895 0.0466852 1.16969)
(1.0114 0.0623513 -0.292927 -0.0337013 0.858755 -0.0168595 0.0240859 0.0516519 1.16969)
(1.0019 0.087592 -0.285549 -0.00846067 0.868257 -0.0674697 0.0147504 0.0550497 1.16969)
(0.984339 0.108061 -0.269495 0.0120077 0.885819 -0.11603 0.00496703 0.056775 1.16969)
(0.960835 0.121288 -0.245252 0.025235 0.909323 -0.161065 -0.00496741 0.0567751 1.16969)
(0.934225 0.125679 -0.213558 0.0296261 0.935933 -0.201205 -0.0147507 0.0550504 1.16969)
(0.907718 0.120704 -0.175374 0.0246512 0.96244 -0.235232 -0.0240856 0.0516524 1.16969)
(0.884511 0.106963 -0.131863 0.01091 0.985647 -0.262112 -0.032689 0.0466849 1.16969)
(0.867403 0.0861131 -0.0843444 -0.00993987 1.00276 -0.281028 -0.0402996 0.0402994 1.16969)
(0.858458 0.0606697 -0.0342631 -0.0353832 1.0117 -0.291405 -0.0466852 0.0326895 1.16969)
(0.858755 0.0337013 0.0168594 -0.0623513 1.0114 -0.292927 -0.0516519 0.0240859 1.16969)
(0.868257 0.00846066 0.0674697 -0.087592 1.0019 -0.285549 -0.0550497 0.0147504 1.16969)
(0.885819 -0.0120077 0.11603 -0.108061 0.984339 -0.269495 -0.056775 0.00496703 1.16969)
(0.926119 -0.041063 0.172783 -0.125477 0.968247 -0.30756 -0.0495109 -0.00433171 1.13246)
(0.955869 -0.0432454 0.223565 -0.12766 0.938497 -0.272884 -0.0480069 -0.0128634 1.13246)
(0.984572 -0.0351213 0.267555 -0.119535 0.909794 -0.229917 -0.0450436 -0.0210041 1.13246)
(1.00876 -0.0176702 0.303414 -0.102084 0.885601 -0.179964 -0.0407118 -0.0285066 1.13246)
(1.02553 0.00700321 0.330055 -0.0774106 0.868836 -0.124543 -0.0351433 -0.0351434 1.13246)
(1.03285 0.0359227 0.346668 -0.0484911 0.86152 -0.0653367 -0.0285069 -0.040712 1.13246)
(1.02983 0.0655997 0.352747 -0.0188138 0.864537 -0.0041459 -0.0210041 -0.0450433 1.13246)
(1.01684 0.0924556 0.348107 0.00804202 0.877522 0.057171 -0.0128632 -0.0480063 1.13246)
(0.995456 0.113251 0.332891 0.028837 0.89891 0.116751 -0.00433157 -0.0495108 1.13246)
(0.968247 0.125477 0.30756 0.041063 0.926119 0.172783 0.00433171 -0.0495109 1.13246)
(0.938497 0.12766 0.272884 0.0432455 0.955869 0.223565 0.0128634 -0.0480069 1.13246)
(0.909794 0.119535 0.229917 0.0351213 0.984572 0.267555 0.0210041 -0.0450436 1.13246)
(0.885601 0.102084 0.179964 0.0176702 1.00876 0.303414 0.0285066 -0.0407118 1.13246)
(0.868836 0.0774107 0.124543 -0.0070032 1.02553 0.330055 0.0351434 -0.0351433 1.13246)
(0.86152 0.0484911 0.0653367 -0.0359227 1.03285 0.346668 0.040712 -0.0285069 1.13246)
(0.864537 0.0188138 0.00414588 -0.0655997 1.02983 0.352747 0.0450433 -0.0210041 1.13246)
(0.877522 -0.00804201 -0.057171 -0.0924556 1.01684 0.348107 0.0480063 -0.0128632 1.13246)
(0.89891 -0.028837 -0.116751 -0.113251 0.995456 0.332891 0.0495108 -0.00433157 1.13246)
(0.926119 -0.041063 -0.172783 -0.125477 0.968247 0.30756 0.0495109 0.0043317 1.13246)
(0.955869 -0.0432455 -0.223565 -0.12766 0.938497 0.272884 0.0480069 0.0128634 1.13246)
(0.984572 -0.0351213 -0.267555 -0.119535 0.909794 0.229917 0.0450436 0.0210041 1.13246)
(1.00876 -0.0176702 -0.303414 -0.102084 0.885601 0.179964 0.0407118 0.0285066 1.13246)
(1.02553 0.0070032 -0.330055 -0.0774106 0.868836 0.124543 0.0351433 0.0351434 1.13246)
(1.03285 0.0359227 -0.346668 -0.0484911 0.86152 0.0653367 0.0285069 0.040712 1.13246)
(1.02983 0.0655997 -0.352747 -0.0188138 0.864537 0.00414587 0.0210041 0.0450433 1.13246)
(1.01684 0.0924556 -0.348107 0.00804202 0.877522 -0.057171 0.0128632 0.0480062 1.13246)
(0.995456 0.113251 -0.332891 0.028837 0.89891 -0.116751 0.00433158 0.0495108 1.13246)
(0.968247 0.125477 -0.30756 0.041063 0.926119 -0.172783 -0.0043317 0.0495109 1.13246)
(0.938497 0.12766 -0.272884 0.0432454 0.955869 -0.223565 -0.0128634 0.0480069 1.13246)
(0.909794 0.119535 -0.229917 0.0351213 0.984572 -0.267555 -0.0210041 0.0450436 1.13246)
(0.885601 0.102084 -0.179964 0.0176702 1.00876 -0.303414 -0.0285066 0.0407118 1.13246)
(0.868836 0.0774106 -0.124543 -0.00700321 1.02553 -0.330055 -0.0351434 0.0351433 1.13246)
(0.86152 0.0484911 -0.0653367 -0.0359227 1.03285 -0.346668 -0.040712 0.0285069 1.13246)
(0.864537 0.0188138 -0.00414589 -0.0655997 1.02983 -0.352747 -0.0450433 0.0210041 1.13246)
(0.877522 -0.00804202 0.057171 -0.0924556 1.01684 -0.348107 -0.0480063 0.0128632 1.13246)
(0.89891 -0.028837 0.116751 -0.113251 0.995456 -0.332891 -0.0495108 0.00433157 1.13246)
(0.945211 -0.0622129 0.190591 -0.128004 0.973466 -0.366893 -0.0411832 -0.00360297 1.08936)
(0.978591 -0.0613092 0.251405 -0.1271 0.940085 -0.328224 -0.0399321 -0.0106998 1.08936)
(1.00965 -0.0490432 0.304581 -0.114834 0.909027 -0.279581 -0.0374671 -0.0174713 1.08936)
(1.03464 -0.0268941 0.348503 -0.092685 0.884036 -0.222444 -0.0338641 -0.0237118 1.08936)
(1.05055 0.0024665 0.381835 -0.0633243 0.868128 -0.158548 -0.0292322 -0.0292322 1.08936)
(1.05546 0.0354975 0.403566 -0.0302931 0.863222 -0.0898337 -0.0237118 -0.0338641 1.08936)
(1.04877 0.0682142 0.413034 0.00242379 0.869908 -0.0183904 -0.017471 -0.037467 1.08936)
(1.0313 0.0966715 0.409953 0.0308808 0.887381 0.0536116 -0.0106996 -0.0399315 1.08936)
(1.00514 0.117436 0.394415 0.0516454 0.913534 0.123985 -0.00360313 -0.041183 1.08936)
(0.973466 0.128004 0.366893 0.0622129 0.945211 0.190591 0.00360297 -0.0411832 1.08936)
(0.940085 0.1271 0.328224 0.0613092 0.978591 0.251405 0.0106998 -0.0399321 1.08936)
(0.909027 0.114834 0.279581 0.0490432 1.00965 0.304581 0.0174713 -0.0374671 1.08936)
(0.884036 0.092685 0.222444 0.0268941 1.03464 0.348503 0.0237118 -0.0338641 1.08936)
(0.868128 0.0633243 0.158548 -0.0024665 1.05055 0.381835 0.0292322 -0.0292322 1.08936)
(0.863222 0.0302931 0.0898337 -0.0354975 1.05546 0.403566 0.0338641 -0.0237118 1.08936)
(0.869908 -0.00242379 0.0183904 -0.0682142 1.04877 0.413034 0.037467 -0.017471 1.08936)
(0.887381 -0.0308808 -0.0536116 -0.0966715 1.0313 0.409953 0.0399315 -0.0106996 1.08936)
(0.913534 -0.0516454 -0.123985 -0.117436 1.00514 0.394415 0.041183 -0.00360313 1.08936)
(0.945211 -0.0622129 -0.190591 -0.128004 0.973466 0.366893 0.0411832 0.00360297 1.08936)
(0.978591 -0.0613092 -0.251405 -0.1271 0.940085 0.328224 0.0399321 0.0106998 1.08936)
(1.00965 -0.0490432 -0.304581 -0.114834 0.909027 0.279581 0.0374671 0.0174713 1.08936)
(1.03464 -0.0268941 -0.348503 -0.092685 0.884036 0.222444 0.0338641 0.0237118 1.08936)
(1.05055 0.00246649 -0.381835 -0.0633243 0.868128 0.158548 0.0292322 0.0292322 1.08936)
(1.05546 0.0354975 -0.403566 -0.0302931 0.863222 0.0898337 0.0237118 0.0338641 1.08936)
(1.04877 0.0682142 -0.413034 0.00242379 0.869908 0.0183904 0.017471 0.037467 1.08936)
(1.0313 0.0966715 -0.409953 0.0308808 0.887381 -0.0536117 0.0106996 0.0399315 1.08936)
(1.00514 0.117436 -0.394415 0.0516454 0.913534 -0.123985 0.00360313 0.041183 1.08936)
(0.973466 0.128004 -0.366893 0.0622129 0.945211 -0.190591 -0.00360296 0.0411832 1.08936)
(0.940085 0.1271 -0.328224 0.0613092 0.978591 -0.251405 -0.0106998 0.0399321 1.08936)
(0.909027 0.114834 -0.279581 0.0490432 1.00965 -0.304581 -0.0174713 0.0374671 1.08936)
(0.884036 0.092685 -0.222444 0.0268941 1.03464 -0.348503 -0.0237118 0.0338641 1.08936)
(0.868128 0.0633243 -0.158548 -0.0024665 1.05055 -0.381835 -0.0292321 0.0292322 1.08936)
(0.863222 0.0302931 -0.0898337 -0.0354975 1.05546 -0.403566 -0.0338641 0.0237118 1.08936)
(0.869908 -0.0024238 -0.0183904 -0.0682142 1.04877 -0.413034 -0.037467 0.017471 1.08936)
(0.887381 -0.0308808 0.0536116 -0.0966715 1.0313 -0.409953 -0.0399315 0.0106996 1.08936)
(0.913534 -0.0516454 0.123985 -0.117436 1.00514 -0.394415 -0.041183 0.00360313 1.08936)
(0.933412 -0.0716259 0.159345 -0.236881 0.916377 -0.260717 -0.128474 -0.0112404 1.18628)
(0.985656 -0.0594103 0.202197 -0.224665 0.864133 -0.229087 -0.124571 -0.0333788 1.18628)
(1.03057 -0.0300633 0.238905 -0.195318 0.819218 -0.190495 -0.116883 -0.0545025 1.18628)
(1.06274 0.0128762 0.268355 -0.152378 0.787049 -0.146116 -0.105642 -0.0739702 1.18628)
(1.07828 0.0642291 0.289651 -0.101025 0.771507 -0.0972965 -0.0911911 -0.0911911 1.18628)
(1.07533 0.117801 0.302146 -0.0474532 0.774465 -0.0455211 -0.0739708 -0.105642 1.18628)
(1.05422 0.16713 0.30546 0.00187597 0.795567 0.00763754 -0.0545025 -0.116881 1.18628)
(1.01752 0.206267 0.299493 0.0410128 0.832268 0.0605642 -0.033378 -0.12457 1.18628)
(0.969649 0.230492 0.284426 0.0652367 0.880141 0.111651 -0.0112397 -0.128474 1.18628)
(0.916377 0.236881 0.260717 0.071626 0.933412 0.159345 0.0112404 -0.128474 1.18628)
(0.864133 0.224665 0.229086 0.0594103 0.985656 0.202197 0.0333788 -0.124571 1.18628)
(0.819218 0.195318 0.190495 0.0300633 1.03057 0.238905 0.0545025 -0.116883 1.18628)
(0.787049 0.152378 0.146116 -0.0128762 1.06274 0.268355 0.0739702 -0.105642 1.18628)
(0.771507 0.101025 0.0972964 -0.0642291 1.07828 0.289651 0.0911911 -0.0911911 1.18628)
(0.774465 0.0474532 0.045521 -0.117801 1.07533 0.302146 0.105642 -0.0739708 1.18628)
(0.795567 -0.00187597 -0.00763757 -0.16713 1.05422 0.30546 0.116881 -0.0545025 1.18628)
(0.832268 -0.0410128 -0.0605643 -0.206267 1.01752 0.299493 0.12457 -0.0333781 1.18628)
(0.880141 -0.0652367 -0.111651 -0.230492 0.969649 0.284426 0.128474 -0.0112397 1.18628)
(0.933412 -0.071626 -0.159345 -0.236881 0.916377 0.260717 0.128474 0.0112404 1.18628)
(0.985656 -0.0594103 -0.202197 -0.224665 0.864133 0.229086 0.124571 0.0333788 1.18628)
(1.03057 -0.0300633 -0.238905 -0.195318 0.819218 0.190495 0.116883 0.0545024 1.18628)
(1.06274 0.0128762 -0.268355 -0.152378 0.787049 0.146116 0.105642 0.0739701 1.18628)
(1.07828 0.0642291 -0.289651 -0.101025 0.771507 0.0972964 0.0911911 0.0911911 1.18628)
(1.07533 0.117801 -0.302146 -0.0474532 0.774465 0.045521 0.0739708 0.105642 1.18628)
(1.05422 0.16713 -0.30546 0.00187597 0.795567 -0.00763757 0.0545025 0.116881 1.18628)
(1.01752 0.206267 -0.299493 0.0410128 0.832268 -0.0605643 0.0333781 0.12457 1.18628)
(0.969649 0.230492 -0.284426 0.0652367 0.880141 -0.111651 0.0112397 0.128474 1.18628)
(0.916377 0.236881 -0.260717 0.071626 0.933412 -0.159345 -0.0112404 0.128474 1.18628)
(0.864133 0.224665 -0.229087 0.0594103 0.985656 -0.202197 -0.0333788 0.124571 1.18628)
(0.819218 0.195318 -0.190495 0.0300633 1.03057 -0.238905 -0.0545024 0.116883 1.18628)
(0.787049 0.152378 -0.146116 -0.0128762 1.06274 -0.268355 -0.0739701 0.105642 1.18628)
(0.771507 0.101025 -0.0972964 -0.0642291 1.07828 -0.289651 -0.0911911 0.0911911 1.18628)
(0.774465 0.0474532 -0.0455211 -0.117801 1.07533 -0.302146 -0.105642 0.0739708 1.18628)
(0.795567 -0.00187599 0.00763755 -0.16713 1.05422 -0.30546 -0.116881 0.0545025 1.18628)
(0.832268 -0.0410129 0.0605643 -0.206267 1.01752 -0.299493 -0.12457 0.033378 1.18628)
(0.880141 -0.0652367 0.111651 -0.230492 0.969649 -0.284426 -0.128474 0.0112397 1.18628)
(0.957669 -0.106482 0.175359 -0.238448 0.917479 -0.314017 -0.127376 -0.0111441 1.15279)
(1.01544 -0.089208 0.227224 -0.221174 0.859705 -0.278796 -0.123506 -0.0330933 1.15279)
(1.06383 -0.0532162 0.272184 -0.185183 0.811322 -0.235104 -0.115883 -0.0540368 1.15279)
(1.09698 -0.00284766 0.308874 -0.134813 0.778168 -0.184268 -0.104738 -0.073338 1.15279)
(1.11091 0.0558235 0.336179 -0.0761414 0.76424 -0.127833 -0.0904116 -0.0904114 1.15279)
(1.10393 0.11572 0.35327 -0.0162448 0.771219 -0.0675139 -0.0733382 -0.104738 1.15279)
(1.07689 0.169617 0.359627 0.0376524 0.798263 -0.00514343 -0.0540365 -0.115882 1.15279)
(1.03304 0.211015 0.355056 0.0790497 0.842109 0.0573835 -0.0330928 -0.123505 1.15279)
(0.977677 0.23492 0.339698 0.102954 0.897471 0.118167 -0.0111438 -0.127376 1.15279)
(0.917479 0.238448 0.314017 0.106482 0.957669 0.175359 0.0111441 -0.127376 1.15279)
(0.859705 0.221174 0.278796 0.089208 1.01544 0.227224 0.0330933 -0.123506 1.15279)
(0.811322 0.185183 0.235104 0.0532162 1.06382 0.272184 0.0540368 -0.115883 1.15279)
(0.778168 0.134813 0.184268 0.00284767 1.09698 0.308874 0.073338 -0.104738 1.15279)
(0.76424 0.0761414 0.127833 -0.0558235 1.11091 0.336179 0.0904114 -0.0904116 1.15279)
(0.771219 0.0162448 0.0675139 -0.11572 1.10393 0.35327 0.104738 -0.0733382 1.15279)
(0.798263 -0.0376524 0.00514341 -0.169617 1.07689 0.359627 0.115882 -0.0540365 1.15279)
(0.842109 -0.0790496 -0.0573835 -0.211015 1.03304 0.355056 0.123505 -0.0330928 1.15279)
(0.897471 -0.102954 -0.118167 -0.23492 0.977677 0.339698 0.127376 -0.0111438 1.15279)
(0.957669 -0.106482 -0.175359 -0.238448 0.917479 0.314017 0.127376 0.0111441 1.15279)
(1.01544 -0.089208 -0.227224 -0.221174 0.859705 0.278796 0.123506 0.0330933 1.15279)
(1.06382 -0.0532162 -0.272184 -0.185183 0.811322 0.235104 0.115883 0.0540368 1.15279)
(1.09698 -0.00284767 -0.308874 -0.134813 0.778168 0.184268 0.104738 0.073338 1.15279)
(1.11091 0.0558235 -0.336179 -0.0761414 0.76424 0.127833 0.0904116 0.0904114 1.15279)
(1.10393 0.11572 -0.35327 -0.0162448 0.771219 0.0675138 0.0733382 0.104738 1.15279)
(1.07689 0.169617 -0.359627 0.0376524 0.798263 0.0051434 0.0540365 0.115882 1.15279)
(1.03304 0.211015 -0.355056 0.0790497 0.842109 -0.0573835 0.0330928 0.123505 1.15279)
(0.977677 0.23492 -0.339698 0.102954 0.897471 -0.118167 0.0111438 0.127376 1.15279)
(0.917479 0.238448 -0.314017 0.106482 0.957669 -0.175359 -0.0111441 0.127376 1.15279)
(0.859705 0.221174 -0.278796 0.089208 1.01544 -0.227224 -0.0330933 0.123506 1.15279)
(0.811322 0.185183 -0.235104 0.0532162 1.06382 -0.272184 -0.0540368 0.115883 1.15279)
(0.778168 0.134813 -0.184268 0.00284767 1.09698 -0.308874 -0.073338 0.104738 1.15279)
(0.76424 0.0761414 -0.127833 -0.0558235 1.11091 -0.336179 -0.0904114 0.0904116 1.15279)
(0.771219 0.0162448 -0.0675139 -0.11572 1.10393 -0.35327 -0.104738 0.0733382 1.15279)
(0.798263 -0.0376524 -0.00514342 -0.169617 1.07689 -0.359627 -0.115882 0.0540365 1.15279)
(0.842109 -0.0790497 0.0573835 -0.211015 1.03304 -0.355056 -0.123505 0.0330928 1.15279)
(0.897471 -0.102954 0.118167 -0.23492 0.977677 -0.339698 -0.127376 0.0111438 1.15279)
(0.984404 -0.150765 0.197347 -0.235944 0.913441 -0.363038 -0.124248 -0.0108702 1.11664)
(1.0484 -0.126969 0.257389 -0.212149 0.84945 -0.323254 -0.120474 -0.0322807 1.11664)
(1.10039 -0.0827219 0.309611 -0.167901 0.797457 -0.273647 -0.113038 -0.0527104 1.11664)
(1.13411 -0.0233605 0.352426 -0.108539 0.763732 -0.215727 -0.102167 -0.0715379 1.11664)
(1.1455 0.0439556 0.384532 -0.0412226 0.752344 -0.151251 -0.0881919 -0.0881919 1.11664)
(1.13318 0.111107 0.404955 0.0259293 0.764667 -0.08218 -0.0715377 -0.102166 1.11664)
(1.09863 0.169994 0.413073 0.0848163 0.799214 -0.0106117 -0.0527098 -0.113037 1.11664)
(1.04603 0.213515 0.40864 0.128336 0.851817 0.0612791 -0.0322805 -0.120473 1.11664)
(0.981712 0.236419 0.391791 0.15124 0.916133 0.131308 -0.0108703 -0.124248 1.11664)
(0.913441 0.235944 0.363038 0.150765 0.984404 0.197347 0.0108702 -0.124248 1.11664)
(0.84945 0.212149 0.323254 0.126969 1.0484 0.257389 0.0322807 -0.120474 1.11664)
(0.797457 0.167901 0.273647 0.0827219 1.10039 0.309611 0.0527104 -0.113038 1.11664)
(0.763732 0.108539 0.215727 0.0233605 1.13411 0.352426 0.0715379 -0.102167 1.11664)
(0.752344 0.0412226 0.151251 -0.0439555 1.1455 0.384532 0.0881919 -0.0881919 1.11664)
(0.764667 -0.0259293 0.0821799 -0.111107 1.13318 0.404955 0.102166 -0.0715377 1.11664)
(0.799214 -0.0848163 0.0106116 -0.169994 1.09863 0.413073 0.113037 -0.0527098 1.11664)
(0.851817 -0.128336 -0.0612791 -0.213515 1.04603 0.40864 0.120473 -0.0322805 1.11664)
(0.916133 -0.15124 -0.131308 -0.236419 0.981712 0.391791 0.124248 -0.0108704 1.11664)
(0.984404 -0.150765 -0.197347 -0.235944 0.913441 0.363038 0.124248 0.0108702 1.11664)
(1.0484 -0.126969 -0.257389 -0.212149 0.84945 0.323254 0.120474 0.0322807 1.11664)
(1.10039 -0.0827219 -0.309611 -0.167901 0.797457 0.273647 0.113038 0.0527104 1.11664)
(1.13411 -0.0233605 -0.352426 -0.108539 0.763732 0.215727 0.102167 0.0715379 1.11664)
(1.1455 0.0439555 -0.384532 -0.0412226 0.752344 0.151251 0.0881919 0.0881918 1.11664)
(1.13318 0.111107 -0.404955 0.0259293 0.764667 0.0821799 0.0715377 0.102166 1.11664)
(1.09863 0.169994 -0.413073 0.0848163 0.799214 0.0106116 0.0527098 0.113037 1.11664)
(1.04603 0.213515 -0.40864 0.128336 0.851817 -0.0612791 0.0322805 0.120473 1.11664)
(0.981712 0.236419 -0.391791 0.15124 0.916133 -0.131308 0.0108704 0.124248 1.11664)
(0.913441 0.235944 -0.363038 0.150765 0.984404 -0.197347 -0.0108702 0.124248 1.11664)
(0.84945 0.212149 -0.323254 0.126969 1.0484 -0.257389 -0.0322807 0.120474 1.11664)
(0.797457 0.167901 -0.273647 0.0827219 1.10039 -0.309611 -0.0527104 0.113038 1.11664)
(0.763732 0.108539 -0.215727 0.0233605 1.13411 -0.352426 -0.0715379 0.102167 1.11664)
(0.752344 0.0412225 -0.151251 -0.0439555 1.1455 -0.384532 -0.0881918 0.0881919 1.11664)
(0.764667 -0.0259293 -0.08218 -0.111107 1.13318 -0.404955 -0.102166 0.0715377 1.11664)
(0.799214 -0.0848163 -0.0106117 -0.169994 1.09863 -0.413073 -0.113037 0.0527098 1.11664)
(0.851817 -0.128336 0.0612791 -0.213515 1.04603 -0.40864 -0.120473 0.0322805 1.11664)
(0.916133 -0.15124 0.131308 -0.236419 0.981712 -0.391791 -0.124248 0.0108703 1.11664)
(0.974278 -0.121126 0.152554 -0.318596 0.877097 -0.277814 -0.184511 -0.0161428 1.22023)
(1.04654 -0.0912481 0.198479 -0.288718 0.804831 -0.247103 -0.178904 -0.0479373 1.22023)
(1.10423 -0.0384556 0.238372 -0.235926 0.747142 -0.208883 -0.167862 -0.0782749 1.22023)
(1.14039 0.0308841 0.271023 -0.166586 0.710987 -0.164317 -0.151719 -0.106234 1.22023)
(1.15065 0.108408 0.295439 -0.0890619 0.700729 -0.114758 -0.130966 -0.130966 1.22023)
(1.13377 0.184765 0.310878 -0.0127046 0.717604 -0.0617118 -0.106234 -0.151718 1.22023)
(1.0918 0.250745 0.316871 0.0532761 0.759578 -0.00679092 -0.0782744 -0.167861 1.22023)
(1.02979 0.298391 0.313236 0.100922 0.821586 0.0483364 -0.0479363 -0.178903 1.22023)
(0.955224 0.321956 0.300084 0.124486 0.896151 0.101995 -0.0161419 -0.18451 1.22023)
(0.877097 0.318596 0.277814 0.121126 0.974278 0.152554 0.0161428 -0.184511 1.22023)
(0.804831 0.288718 0.247103 0.0912481 1.04654 0.198479 0.0479372 -0.178904 1.22023)
(0.747142 0.235926 0.208883 0.0384556 1.10423 0.238372 0.0782748 -0.167862 1.22023)
(0.710987 0.166586 0.164317 -0.0308841 1.14039 0.271023 0.106234 -0.151719 1.22023)
(0.700729 0.0890619 0.114758 -0.108408 1.15065 0.295439 0.130966 -0.130966 1.22023)
(0.717604 0.0127046 0.0617117 -0.184765 1.13377 0.310878 0.151718 -0.106234 1.22023)
(0.759578 -0.0532761 0.0067909 -0.250745 1.0918 0.316871 0.167861 -0.0782744 1.22023)
(0.821586 -0.100922 -0.0483364 -0.298391 1.02979 0.313236 0.178903 -0.0479363 1.22023)
(0.896151 -0.124486 -0.101995 -0.321956 0.955224 0.300084 0.18451 -0.0161419 1.22023)
(0.974278 -0.121126 -0.152554 -0.318596 0.877097 0.277814 0.184511 0.0161428 1.22023)
(1.04654 -0.0912481 -0.198479 -0.288718 0.804831 0.247103 0.178904 0.0479372 1.22023)
(1.10423 -0.0384556 -0.238372 -0.235926 0.747142 0.208883 0.167862 0.0782748 1.22023)
(1.14039 0.0308841 -0.271023 -0.166586 0.710987 0.164317 0.151719 0.106234 1.22023)
(1.15065 0.108408 -0.295439 -0.0890619 0.700729 0.114758 0.130966 0.130966 1.22023)
(1.13377 0.184765 -0.310878 -0.0127046 0.717604 0.0617117 0.106234 0.151718 1.22023)
(1.0918 0.250745 -0.316871 0.0532761 0.759578 0.00679089 0.0782744 0.167861 1.22023)
(1.02979 0.298391 -0.313236 0.100922 0.821586 -0.0483364 0.0479363 0.178903 1.22023)
(0.955224 0.321956 -0.300084 0.124486 0.896151 -0.101995 0.0161419 0.18451 1.22023)
(0.877097 0.318596 -0.277814 0.121126 0.974278 -0.152554 -0.0161428 0.184511 1.22023)
(0.804831 0.288718 -0.247103 0.0912481 1.04654 -0.198479 -0.0479372 0.178904 1.22023)
(0.747142 0.235926 -0.208883 0.0384556 1.10423 -0.238372 -0.0782748 0.167862 1.22023)
(0.710987 0.166586 -0.164317 -0.0308841 1.14039 -0.271023 -0.106234 0.151719 1.22023)
(0.700729 0.0890619 -0.114758 -0.108408 1.15065 -0.295439 -0.130966 0.130966 1.22023)
(0.717604 0.0127046 -0.0617118 -0.184765 1.13377 -0.310878 -0.151718 0.106234 1.22023)
(0.759578 -0.0532762 -0.00679091 -0.250745 1.0918 -0.316871 -0.167861 0.0782744 1.22023)
(0.821586 -0.100922 0.0483364 -0.298391 1.02979 -0.313236 -0.178903 0.0479363 1.22023)
(0.896151 -0.124486 0.101995 -0.321956 0.955224 -0.300084 -0.18451 0.0161418 1.22023)
(1.00525 -0.170962 0.174675 -0.315024 0.870842 -0.308928 -0.183112 -0.0160204 1.19645)
(1.08431 -0.133323 0.225667 -0.277384 0.791787 -0.273903 -0.177548 -0.0475739 1.19645)
(1.14572 -0.0709144 0.269801 -0.214976 0.730373 -0.230555 -0.16659 -0.0776819 1.19645)
(1.18209 0.00873465 0.305737 -0.135326 0.694007 -0.180202 -0.150569 -0.105429 1.19645)
(1.18902 0.0960186 0.332384 -0.048042 0.687076 -0.124374 -0.129973 -0.129973 1.19645)
(1.16568 0.180409 0.348932 0.0363489 0.710416 -0.0647662 -0.105429 -0.150568 1.19645)
(1.11488 0.251728 0.354877 0.107668 0.761212 -0.00319097 -0.0776813 -0.166588 1.19645)
(1.04276 0.301372 0.35004 0.157312 0.833337 0.0584813 -0.0475732 -0.177547 1.19645)
(0.958004 0.323355 0.334567 0.179294 0.918091 0.118377 -0.0160199 -0.183112 1.19645)
(0.870842 0.315024 0.308928 0.170962 1.00525 0.174675 0.0160204 -0.183112 1.19645)
(0.791787 0.277384 0.273903 0.133323 1.08431 0.225667 0.0475739 -0.177548 1.19645)
(0.730373 0.214976 0.230555 0.0709144 1.14572 0.269801 0.0776819 -0.16659 1.19645)
(0.694007 0.135326 0.180202 -0.00873464 1.18209 0.305737 0.105429 -0.150569 1.19645)
(0.687076 0.048042 0.124374 -0.0960186 1.18902 0.332384 0.129973 -0.129973 1.19645)
(0.710416 -0.0363489 0.0647661 -0.180409 1.16568 0.348932 0.150568 -0.105429 1.19645)
(0.761212 -0.107668 0.00319095 -0.251728 1.11488 0.354877 0.166588 -0.0776813 1.19645)
(0.833337 -0.157312 -0.0584813 -0.301372 1.04276 0.35004 0.177547 -0.0475732 1.19645)
(0.918091 -0.179294 -0.118377 -0.323355 0.958004 0.334567 0.183112 -0.0160199 1.19645)
(1.00525 -0.170962 -0.174675 -0.315024 0.870842 0.308928 0.183112 0.0160204 1.19645)
(1.08431 -0.133323 -0.225667 -0.277384 0.791787 0.273903 0.177548 0.0475739 1.19645)
(1.14572 -0.0709144 -0.269801 -0.214976 0.730373 0.230555 0.16659 0.0776819 1.19645)
(1.18209 0.00873463 -0.305737 -0.135326 0.694007 0.180202 0.150569 0.105429 1.19645)
(1.18902 0.0960186 -0.332384 -0.048042 0.687076 0.124374 0.129973 0.129973 1.19645)
(1.16568 0.180409 -0.348932 0.0363489 0.710416 0.0647661 0.105429 0.150568 1.19645)
(1.11488 0.251728 -0.354877 0.107668 0.761212 0.00319095 0.0776813 0.166588 1.19645)
(1.04276 0.301372 -0.35004 0.157312 0.833337 -0.0584813 0.0475733 0.177547 1.19645)
(0.958004 0.323355 -0.334567 0.179294 0.918091 -0.118377 0.01602 0.183112 1.19645)
(0.870842 0.315024 -0.308928 0.170962 1.00525 -0.174675 -0.0160204 0.183112 1.19645)
(0.791787 0.277384 -0.273903 0.133323 1.08431 -0.225667 -0.0475739 0.177548 1.19645)
(0.730373 0.214976 -0.230555 0.0709144 1.14572 -0.269801 -0.0776819 0.16659 1.19645)
(0.694007 0.135326 -0.180202 -0.00873463 1.18209 -0.305737 -0.105429 0.150569 1.19645)
(0.687076 0.048042 -0.124374 -0.0960186 1.18902 -0.332384 -0.129973 0.129973 1.19645)
(0.710416 -0.0363489 -0.0647662 -0.180409 1.16568 -0.348932 -0.150568 0.105429 1.19645)
(0.761212 -0.107668 -0.00319097 -0.251728 1.11488 -0.354877 -0.166588 0.0776813 1.19645)
(0.833337 -0.157312 0.0584813 -0.301372 1.04276 -0.35004 -0.177547 0.0475732 1.19645)
(0.918091 -0.179294 0.118377 -0.323355 0.958004 -0.334567 -0.183112 0.0160199 1.19645)
(1.0386 -0.232457 0.202009 -0.304857 0.856438 -0.333343 -0.179218 -0.0156795 1.174)
(1.12499 -0.185104 0.256825 -0.257504 0.770045 -0.293201 -0.173773 -0.0465623 1.174)
(1.18998 -0.111059 0.303837 -0.183458 0.705058 -0.244149 -0.163047 -0.0760303 1.174)
(1.22572 -0.0192518 0.341617 -0.0916507 0.669315 -0.187679 -0.147367 -0.103188 1.174)
(1.22791 0.0792434 0.369017 0.00684515 0.667127 -0.125507 -0.12721 -0.12721 1.174)
(1.19628 0.172547 0.385204 0.100149 0.698759 -0.059521 -0.103187 -0.147366 1.174)
(1.13464 0.249405 0.389688 0.177007 0.760395 0.00827331 -0.0760295 -0.163046 1.174)
(1.05044 0.300548 0.382331 0.228149 0.844601 0.0758162 -0.046562 -0.173772 1.174)
(0.953817 0.319806 0.363357 0.247407 0.94122 0.141056 -0.0156796 -0.179218 1.174)
(0.856438 0.304857 0.333343 0.232457 1.0386 0.202009 0.0156795 -0.179218 1.174)
(0.770045 0.257504 0.293201 0.185104 1.12499 0.256825 0.0465623 -0.173773 1.174)
(0.705058 0.183458 0.244149 0.111059 1.18998 0.303837 0.0760302 -0.163047 1.174)
(0.669315 0.0916508 0.187679 0.0192519 1.22572 0.341617 0.103188 -0.147367 1.174)
(0.667127 -0.00684513 0.125507 -0.0792434 1.22791 0.369017 0.12721 -0.12721 1.174)
(0.698759 -0.100149 0.059521 -0.172547 1.19628 0.385204 0.147366 -0.103187 1.174)
(0.760395 -0.177007 -0.00827333 -0.249405 1.13464 0.389688 0.163046 -0.0760295 1.174)
(0.844601 -0.228149 -0.0758162 -0.300548 1.05044 0.382331 0.173772 -0.046562 1.174)
(0.94122 -0.247407 -0.141056 -0.319806 0.953817 0.363357 0.179218 -0.0156796 1.174)
(1.0386 -0.232457 -0.202009 -0.304857 0.856438 0.333343 0.179218 0.0156795 1.174)
(1.12499 -0.185104 -0.256825 -0.257504 0.770045 0.293201 0.173773 0.0465623 1.174)
(1.18998 -0.111059 -0.303837 -0.183458 0.705058 0.244149 0.163047 0.0760302 1.174)
(1.22572 -0.0192519 -0.341617 -0.0916508 0.669315 0.187679 0.147367 0.103188 1.174)
(1.22791 0.0792434 -0.369017 0.00684513 0.667127 0.125507 0.12721 0.12721 1.174)
(1.19628 0.172547 -0.385204 0.100149 0.698759 0.059521 0.103187 0.147366 1.174)
(1.13464 0.249405 -0.389688 0.177007 0.760395 -0.00827333 0.0760295 0.163046 1.174)
(1.05044 0.300548 -0.382331 0.228149 0.844601 -0.0758162 0.046562 0.173772 1.174)
(0.953817 0.319806 -0.363357 0.247407 0.94122 -0.141056 0.0156796 0.179218 1.174)
(0.856438 0.304857 -0.333343 0.232457 1.0386 -0.202009 -0.0156795 0.179218 1.174)
(0.770045 0.257504 -0.293201 0.185104 1.12499 -0.256825 -0.0465623 0.173773 1.174)
(0.705058 0.183458 -0.244149 0.111059 1.18998 -0.303837 -0.0760302 0.163047 1.174)
(0.669315 0.0916507 -0.187679 0.0192519 1.22572 -0.341617 -0.103188 0.147367 1.174)
(0.667127 -0.00684515 -0.125507 -0.0792434 1.22791 -0.369017 -0.12721 0.12721 1.174)
(0.698759 -0.100149 -0.059521 -0.172547 1.19628 -0.385204 -0.147366 0.103187 1.174)
(0.760395 -0.177007 0.0082733 -0.249405 1.13464 -0.389688 -0.163046 0.0760295 1.174)
(0.844601 -0.228149 0.0758162 -0.300548 1.05044 -0.382331 -0.173772 0.046562 1.174)
(0.94122 -0.247407 0.141056 -0.319806 0.953817 -0.363357 -0.179218 0.0156796 1.174)
(1.02593 -0.177314 0.145245 -0.348862 0.843798 -0.290615 -0.217452 -0.0190252 1.24492)
(1.11042 -0.130302 0.193503 -0.30185 0.759308 -0.260979 -0.210846 -0.056496 1.24492)
(1.17373 -0.057227 0.235882 -0.228776 0.695993 -0.223413 -0.197832 -0.0922503 1.24492)
(1.20824 0.0330952 0.271093 -0.138453 0.66149 -0.179058 -0.178807 -0.125202 1.24492)
(1.20977 0.129771 0.298067 -0.0417767 0.659959 -0.129263 -0.154349 -0.154349 1.24492)
(1.17814 0.221141 0.315985 0.0495929 0.691585 -0.0755398 -0.125202 -0.178806 1.24492)
(1.11717 0.296183 0.324302 0.124635 0.752555 -0.0195217 -0.0922501 -0.19783 1.24492)
(1.03421 0.345847 0.322765 0.174299 0.835514 0.0370893 -0.0564951 -0.210844 1.24492)
(0.939271 0.364142 0.311422 0.192594 0.930456 0.0925734 -0.0190239 -0.217452 1.24492)
(0.843798 0.348862 0.290615 0.177314 1.02593 0.145245 0.0190251 -0.217452 1.24492)
(0.759308 0.30185 0.260979 0.130302 1.11042 0.193503 0.056496 -0.210846 1.24492)
(0.695993 0.228776 0.223413 0.0572271 1.17373 0.235882 0.0922502 -0.197832 1.24492)
(0.66149 0.138453 0.179058 -0.0330952 1.20824 0.271093 0.125202 -0.178807 1.24492)