/*--------------------------------*- C++ -*----------------------------------*\
| =========                 |                                                 |
| \\      /  F ield         | OpenFOAM: The Open Source CFD Toolbox           |
|  \\    /   O peration     | Version:  2312                                  |
|   \\  /    A nd           | Website:  www.openfoam.com                      |
|    \\/     M anipulation  |                                                 |
\*---------------------------------------------------------------------------*/
FoamFile
{
    version     2.0;
    format      ascii;
    arch        "LSB;label=32;scalar=64";
    class       pointVectorField;
    location    "0.9";
    object      pointD;
}
// * * * * * * * * * * * * * * * * * * * * * * * * * * * * * * * * * * * * * //

dimensions      [0 1 0 0 0 0 0];

internalField   nonuniform List<vector> 
2164
(
(0 0 0)
(0 0 0)
(0 0 0)
(0 0 0)
(0 0 0)
(0 0 0)
(0 0 0)
(0 0 0)
(0 0 0)
(0 0 0)
(0 0 0)
(0 0 0)
(0 0 0)
(0 0 0)
(0 0 0)
(0 0 0)
(0 0 0)
(0 0 0)
(0 0 0)
(0 0 0)
(0 0 0)
(0 0 0)
(0 0 0)
(0 0 0)
(0 0 0)
(0 0 0)
(0 0 0)
(0 0 0)
(0 0 0)
(0 0 0)
(0 0 0)
(0 0 0)
(0 0 0)
(0 0 0)
(0 0 0)
(0 0 0)
(-0.000494533 0.000248463 -0.000386808)
(-0.000530165 0.000158815 -0.000386808)
(-0.000549689 6.43407e-05 -0.000386806)
(-0.000552511 -3.20891e-05 -0.000386806)
(-0.000538544 -0.000127543 -0.000386806)
(-0.000508216 -0.000219122 -0.000386806)
(-0.000462445 -0.000304044 -0.000386806)
(-0.000402621 -0.000379728 -0.000386807)
(-0.000330565 -0.000443874 -0.000386807)
(-0.000248463 -0.000494533 -0.000386808)
(-0.000158815 -0.000530165 -0.000386808)
(-6.43406e-05 -0.000549689 -0.000386806)
(3.20892e-05 -0.000552511 -0.000386806)
(0.000127543 -0.000538544 -0.000386806)
(0.000219122 -0.000508216 -0.000386806)
(0.000304044 -0.000462445 -0.000386806)
(0.000379728 -0.000402621 -0.000386807)
(0.000443874 -0.000330565 -0.000386807)
(0.000494533 -0.000248463 -0.000386808)
(0.000530165 -0.000158815 -0.000386808)
(0.000549689 -6.43406e-05 -0.000386806)
(0.000552511 3.20892e-05 -0.000386806)
(0.000538544 0.000127543 -0.000386806)
(0.000508216 0.000219122 -0.000386806)
(0.000462445 0.000304044 -0.000386806)
(0.000402621 0.000379728 -0.000386807)
(0.000330565 0.000443874 -0.000386807)
(0.000248463 0.000494533 -0.000386808)
(0.000158815 0.000530165 -0.000386808)
(6.43407e-05 0.000549689 -0.000386806)
(-3.20891e-05 0.000552511 -0.000386806)
(-0.000127543 0.000538544 -0.000386806)
(-0.000219122 0.000508216 -0.000386806)
(-0.000304044 0.000462445 -0.000386806)
(-0.000379728 0.000402621 -0.000386807)
(-0.000443874 0.000330565 -0.000386807)
(-0.000423624 0.000442393 -0.000292517)
(-0.000494009 0.000362109 -0.000292517)
(-0.000549383 0.000270825 -0.000292516)
(-0.000588066 0.000171312 -0.000292515)
(-0.00060888 6.65928e-05 -0.000292516)
(-0.000611193 -4.01505e-05 -0.000292516)
(-0.000594936 -0.000145673 -0.000292516)
(-0.000560602 -0.000246769 -0.000292516)
(-0.000509233 -0.000340368 -0.000292516)
(-0.000442393 -0.000423624 -0.000292517)
(-0.000362109 -0.000494009 -0.000292517)
(-0.000270825 -0.000549383 -0.000292516)
(-0.000171312 -0.000588066 -0.000292515)
(-6.65928e-05 -0.00060888 -0.000292516)
(4.01506e-05 -0.000611193 -0.000292516)
(0.000145673 -0.000594936 -0.000292516)
(0.000246769 -0.000560602 -0.000292516)
(0.000340368 -0.000509233 -0.000292516)
(0.000423624 -0.000442393 -0.000292517)
(0.000494009 -0.000362109 -0.000292517)
(0.000549383 -0.000270825 -0.000292516)
(0.000588066 -0.000171312 -0.000292515)
(0.00060888 -6.65928e-05 -0.000292516)
(0.000611193 4.01506e-05 -0.000292516)
(0.000594936 0.000145673 -0.000292516)
(0.000560602 0.000246769 -0.000292516)
(0.000509233 0.000340368 -0.000292516)
(0.000442393 0.000423624 -0.000292517)
(0.000362109 0.000494009 -0.000292517)
(0.000270825 0.000549384 -0.000292516)
(0.000171312 0.000588066 -0.000292515)
(6.65928e-05 0.00060888 -0.000292516)
(-4.01505e-05 0.000611193 -0.000292516)
(-0.000145673 0.000594936 -0.000292516)
(-0.000246769 0.000560602 -0.000292516)
(-0.000340368 0.000509233 -0.000292516)
(0 0 0)
(0 0 0)
(0 0 0)
(0 0 0)
(0 0 0)
(0 0 0)
(0 0 0)
(0 0 0)
(0 0 0)
(0 0 0)
(0 0 0)
(0 0 0)
(0 0 0)
(0 0 0)
(0 0 0)
(0 0 0)
(0 0 0)
(0 0 0)
(0 0 0)
(0 0 0)
(0 0 0)
(0 0 0)
(0 0 0)
(0 0 0)
(0 0 0)
(0 0 0)
(0 0 0)
(0 0 0)
(0 0 0)
(0 0 0)
(0 0 0)
(0 0 0)
(0 0 0)
(0 0 0)
(0 0 0)
(0 0 0)
(-0.000374987 0.000640779 -0.000200759)
(-0.00048056 0.000565927 -0.00020076)
(-0.000571531 0.000473883 -0.000200759)
(-0.000645137 0.000367437 -0.000200759)
(-0.000699141 0.000249828 -0.000200759)
(-0.000731903 0.000124629 -0.000200759)
(-0.000742424 -4.35886e-06 -0.00020076)
(-0.000730389 -0.000133213 -0.000200759)
(-0.000696159 -0.00025802 -0.000200759)
(-0.000640779 -0.000374987 -0.000200759)
(-0.000565927 -0.00048056 -0.00020076)
(-0.000473883 -0.000571531 -0.000200759)
(-0.000367437 -0.000645137 -0.000200759)
(-0.000249828 -0.000699141 -0.000200759)
(-0.000124629 -0.000731903 -0.000200759)
(4.35889e-06 -0.000742424 -0.00020076)
(0.000133213 -0.000730389 -0.000200759)
(0.00025802 -0.000696159 -0.000200759)
(0.000374987 -0.000640779 -0.000200759)
(0.00048056 -0.000565927 -0.00020076)
(0.000571531 -0.000473883 -0.000200759)
(0.000645137 -0.000367437 -0.000200759)
(0.000699141 -0.000249828 -0.000200759)
(0.000731903 -0.000124629 -0.000200759)
(0.000742424 4.35891e-06 -0.00020076)
(0.000730389 0.000133213 -0.000200759)
(0.00069616 0.00025802 -0.000200759)
(0.000640779 0.000374987 -0.000200759)
(0.000565927 0.00048056 -0.00020076)
(0.000473883 0.000571531 -0.000200759)
(0.000367437 0.000645137 -0.000200759)
(0.000249828 0.000699141 -0.000200759)
(0.000124629 0.000731903 -0.000200759)
(-4.35889e-06 0.000742424 -0.00020076)
(-0.000133213 0.000730389 -0.000200759)
(-0.00025802 0.00069616 -0.000200759)
(0 0 0)
(0 0 0)
(0 0 0)
(0 0 0)
(0 0 0)
(0 0 0)
(0 0 0)
(0 0 0)
(0 0 0)
(0 0 0)
(0 0 0)
(0 0 0)
(0 0 0)
(0 0 0)
(0 0 0)
(0 0 0)
(0 0 0)
(0 0 0)
(0 0 0)
(0 0 0)
(0 0 0)
(0 0 0)
(0 0 0)
(0 0 0)
(0 0 0)
(0 0 0)
(0 0 0)
(0 0 0)
(0 0 0)
(0 0 0)
(0 0 0)
(0 0 0)
(0 0 0)
(0 0 0)
(0 0 0)
(0 0 0)
(-0.000351236 0.000831713 -0.000117577)
(-0.000490325 0.000758085 -0.000117577)
(-0.000614516 0.000661425 -0.000117578)
(-0.000720036 0.000544666 -0.000117578)
(-0.000803677 0.000411359 -0.000117578)
(-0.0008629 0.000265551 -0.000117578)
(-0.000895902 0.000111676 -0.000117578)
(-0.000901685 -4.55921e-05 -0.000117578)
(-0.000880068 -0.000201476 -0.000117578)
(-0.000831713 -0.000351236 -0.000117577)
(-0.000758085 -0.000490325 -0.000117578)
(-0.000661425 -0.000614516 -0.000117578)
(-0.000544666 -0.000720036 -0.000117578)
(-0.000411359 -0.000803677 -0.000117578)
(-0.000265551 -0.000862899 -0.000117578)
(-0.000111676 -0.000895902 -0.000117578)
(4.55921e-05 -0.000901685 -0.000117578)
(0.000201476 -0.000880068 -0.000117578)
(0.000351236 -0.000831713 -0.000117577)
(0.000490325 -0.000758085 -0.000117578)
(0.000614516 -0.000661425 -0.000117578)
(0.000720036 -0.000544666 -0.000117578)
(0.000803677 -0.000411359 -0.000117578)
(0.0008629 -0.000265551 -0.000117578)
(0.000895902 -0.000111676 -0.000117578)
(0.000901685 4.55921e-05 -0.000117578)
(0.000880068 0.000201476 -0.000117578)
(0.000831713 0.000351236 -0.000117577)
(0.000758085 0.000490325 -0.000117577)
(0.000661425 0.000614516 -0.000117578)
(0.000544666 0.000720036 -0.000117578)
(0.000411359 0.000803677 -0.000117578)
(0.000265551 0.0008629 -0.000117578)
(0.000111676 0.000895902 -0.000117578)
(-4.55921e-05 0.000901685 -0.000117578)
(-0.000201476 0.000880068 -0.000117578)
(0 0 0)
(0 0 0)
(0 0 0)
(0 0 0)
(0 0 0)
(0 0 0)
(0 0 0)
(0 0 0)
(0 0 0)
(0 0 0)
(0 0 0)
(0 0 0)
(0 0 0)
(0 0 0)
(0 0 0)
(0 0 0)
(0 0 0)
(0 0 0)
(0 0 0)
(0 0 0)
(0 0 0)
(0 0 0)
(0 0 0)
(0 0 0)
(0 0 0)
(0 0 0)
(0 0 0)
(0 0 0)
(0 0 0)
(0 0 0)
(0 0 0)
(0 0 0)
(0 0 0)
(0 0 0)
(0 0 0)
(0 0 0)
(-0.000837348 0.000648748 -0.000788619)
(-0.000937281 0.000493488 -0.000788619)
(-0.00100874 0.000323235 -0.000788617)
(-0.00104954 0.000143161 -0.000788615)
(-0.00105846 -4.12634e-05 -0.000788614)
(-0.00103521 -0.000224435 -0.000788615)
(-0.000980509 -0.000400788 -0.000788616)
(-0.000896015 -0.000564963 -0.000788617)
(-0.000784298 -0.000711972 -0.000788617)
(-0.000648748 -0.000837348 -0.000788619)
(-0.000493488 -0.000937281 -0.000788619)
(-0.000323235 -0.00100874 -0.000788617)
(-0.000143161 -0.00104954 -0.000788615)
(4.12635e-05 -0.00105846 -0.000788615)
(0.000224435 -0.00103521 -0.000788615)
(0.000400788 -0.000980509 -0.000788616)
(0.000564964 -0.000896015 -0.000788617)
(0.000711972 -0.000784298 -0.000788617)
(0.000837348 -0.000648748 -0.000788619)
(0.000937281 -0.000493488 -0.000788619)
(0.00100874 -0.000323235 -0.000788617)
(0.00104954 -0.000143161 -0.000788615)
(0.00105846 4.12636e-05 -0.000788614)
(0.00103521 0.000224435 -0.000788615)
(0.000980509 0.000400788 -0.000788616)
(0.000896015 0.000564964 -0.000788617)
(0.000784298 0.000711972 -0.000788617)
(0.000648748 0.000837348 -0.000788619)
(0.000493488 0.000937281 -0.000788619)
(0.000323235 0.00100874 -0.000788617)
(0.000143161 0.00104954 -0.000788615)
(-4.12634e-05 0.00105846 -0.000788614)
(-0.000224435 0.00103521 -0.000788614)
(-0.000400788 0.000980509 -0.000788615)
(-0.000564963 0.000896015 -0.000788617)
(-0.000711972 0.000784298 -0.000788617)
(-0.000799934 0.000944506 -0.000626154)
(-0.000951793 0.00079125 -0.000626153)
(-0.00107473 0.00061395 -0.000626154)
(-0.00116502 0.000418 -0.000626152)
(-0.0012199 0.000209347 -0.000626152)
(-0.00123772 -5.66841e-06 -0.000626153)
(-0.00121794 -0.000220509 -0.000626152)
(-0.00116114 -0.000428653 -0.000626153)
(-0.00106906 -0.00062377 -0.000626153)
(-0.000944506 -0.000799934 -0.000626154)
(-0.00079125 -0.000951793 -0.000626154)
(-0.00061395 -0.00107473 -0.000626154)
(-0.000418 -0.00116502 -0.000626152)
(-0.000209347 -0.0012199 -0.000626152)
(5.6685e-06 -0.00123772 -0.000626153)
(0.000220509 -0.00121794 -0.000626152)
(0.000428653 -0.00116114 -0.000626153)
(0.00062377 -0.00106906 -0.000626153)
(0.000799934 -0.000944506 -0.000626154)
(0.000951794 -0.00079125 -0.000626154)
(0.00107473 -0.00061395 -0.000626154)
(0.00116502 -0.000418 -0.000626152)
(0.0012199 -0.000209347 -0.000626152)
(0.00123772 5.66852e-06 -0.000626153)
(0.00121794 0.000220509 -0.000626152)
(0.00116114 0.000428653 -0.000626153)
(0.00106906 0.00062377 -0.000626153)
(0.000944506 0.000799934 -0.000626154)
(0.00079125 0.000951794 -0.000626153)
(0.00061395 0.00107473 -0.000626154)
(0.000418 0.00116502 -0.000626152)
(0.000209347 0.0012199 -0.000626152)
(-5.66842e-06 0.00123772 -0.000626153)
(-0.000220509 0.00121794 -0.000626151)
(-0.000428653 0.00116114 -0.000626153)
(-0.00062377 0.00106906 -0.000626153)
(-0.000791306 0.00124226 -0.000461511)
(-0.000994999 0.00108598 -0.000461512)
(-0.00116846 0.000896705 -0.000461511)
(-0.00130642 0.000680182 -0.000461511)
(-0.00140469 0.000442989 -0.00046151)
(-0.00146027 0.000192337 -0.000461511)
(-0.00147148 -6.41596e-05 -0.000461511)
(-0.00143799 -0.000318704 -0.000461511)
(-0.0013608 -0.000563567 -0.000461512)
(-0.00124226 -0.000791306 -0.000461512)
(-0.00108598 -0.000994999 -0.000461512)
(-0.000896705 -0.00116846 -0.000461511)
(-0.000680182 -0.00130642 -0.000461511)
(-0.000442989 -0.00140469 -0.00046151)
(-0.000192336 -0.00146027 -0.000461511)
(6.41597e-05 -0.00147148 -0.000461511)
(0.000318704 -0.00143799 -0.000461511)
(0.000563567 -0.0013608 -0.000461512)
(0.000791306 -0.00124226 -0.000461512)
(0.000994999 -0.00108598 -0.000461512)
(0.00116846 -0.000896705 -0.000461511)
(0.00130642 -0.000680182 -0.000461511)
(0.00140469 -0.000442989 -0.00046151)
(0.00146027 -0.000192336 -0.000461511)
(0.00147148 6.41597e-05 -0.000461511)
(0.00143799 0.000318704 -0.000461511)
(0.0013608 0.000563567 -0.000461512)
(0.00124226 0.000791306 -0.000461512)
(0.00108598 0.000994999 -0.000461512)
(0.000896705 0.00116846 -0.000461511)
(0.000680182 0.00130642 -0.00046151)
(0.000442989 0.00140469 -0.00046151)
(0.000192336 0.00146027 -0.000461511)
(-6.41596e-05 0.00147148 -0.000461511)
(-0.000318704 0.00143799 -0.000461511)
(-0.000563567 0.0013608 -0.000461512)
(-0.000811866 0.00151899 -0.000304378)
(-0.0010633 0.00135493 -0.000304378)
(-0.00128243 0.00114971 -0.000304379)
(-0.00146259 0.000909549 -0.00030438)
(-0.00159831 0.000641755 -0.00030438)
(-0.00168547 0.000354461 -0.00030438)
(-0.00172141 5.6399e-05 -0.000304379)
(-0.00170506 -0.000243379 -0.000304379)
(-0.00163689 -0.000535762 -0.00030438)
(-0.00151899 -0.000811866 -0.000304378)
(-0.00135493 -0.0010633 -0.000304378)
(-0.00114971 -0.00128243 -0.00030438)
(-0.000909549 -0.00146259 -0.00030438)
(-0.000641755 -0.00159831 -0.00030438)
(-0.000354461 -0.00168547 -0.00030438)
(-5.6399e-05 -0.00172141 -0.000304379)
(0.000243379 -0.00170506 -0.000304379)
(0.000535762 -0.00163689 -0.00030438)
(0.000811866 -0.00151899 -0.000304378)
(0.0010633 -0.00135493 -0.000304378)
(0.00128243 -0.00114971 -0.00030438)
(0.00146259 -0.000909549 -0.00030438)
(0.00159831 -0.000641755 -0.00030438)
(0.00168547 -0.000354461 -0.00030438)
(0.00172141 -5.63989e-05 -0.000304379)
(0.00170506 0.000243379 -0.000304379)
(0.00163689 0.000535762 -0.00030438)
(0.00151899 0.000811866 -0.000304378)
(0.00135493 0.0010633 -0.000304378)
(0.00114971 0.00128243 -0.000304379)
(0.000909549 0.00146259 -0.00030438)
(0.000641755 0.00159831 -0.00030438)
(0.000354461 0.00168547 -0.00030438)
(5.6399e-05 0.00172141 -0.000304379)
(-0.000243379 0.00170506 -0.000304379)
(-0.000535762 0.00163689 -0.000304379)
(-0.00115778 0.00113495 -0.00124762)
(-0.00133727 0.000916658 -0.00124762)
(-0.00147613 0.000670518 -0.00124762)
(-0.00157014 0.000404007 -0.00124761)
(-0.00161644 0.000125217 -0.00124761)
(-0.00161363 -0.000157377 -0.00124761)
(-0.00156178 -0.000435191 -0.00124761)
(-0.00146248 -0.00069978 -0.00124762)
(-0.00131875 -0.000943106 -0.00124762)
(-0.00113495 -0.00115778 -0.00124762)
(-0.000916657 -0.00133727 -0.00124762)
(-0.000670518 -0.00147613 -0.00124762)
(-0.000404006 -0.00157014 -0.00124762)
(-0.000125217 -0.00161644 -0.00124761)
(0.000157377 -0.00161363 -0.00124761)
(0.000435191 -0.00156178 -0.00124761)
(0.00069978 -0.00146248 -0.00124762)
(0.000943107 -0.00131875 -0.00124762)
(0.00115778 -0.00113495 -0.00124762)
(0.00133727 -0.000916657 -0.00124762)
(0.00147613 -0.000670518 -0.00124762)
(0.00157014 -0.000404006 -0.00124761)
(0.00161644 -0.000125217 -0.00124761)
(0.00161363 0.000157377 -0.00124761)
(0.00156178 0.000435191 -0.00124761)
(0.00146248 0.00069978 -0.00124762)
(0.00131875 0.000943107 -0.00124762)
(0.00113495 0.00115778 -0.00124762)
(0.000916657 0.00133727 -0.00124762)
(0.000670518 0.00147613 -0.00124762)
(0.000404007 0.00157014 -0.00124761)
(0.000125217 0.00161644 -0.00124761)
(-0.000157377 0.00161363 -0.00124761)
(-0.000435191 0.00156178 -0.00124761)
(-0.00069978 0.00146248 -0.00124762)
(-0.000943106 0.00131875 -0.00124762)
(-0.00116282 0.00148109 -0.00103269)
(-0.00140235 0.00125667 -0.00103269)
(-0.00159926 0.000994063 -0.00103269)
(-0.00174758 0.000701254 -0.00103269)
(-0.0018428 0.000387138 -0.00103269)
(-0.00188203 6.12563e-05 -0.00103269)
(-0.00186408 -0.000266486 -0.00103269)
(-0.00178948 -0.000586131 -0.00103269)
(-0.00166051 -0.000887967 -0.00103269)
(-0.00148109 -0.00116282 -0.00103269)
(-0.00125667 -0.00140235 -0.00103269)
(-0.000994063 -0.00159926 -0.00103269)
(-0.000701254 -0.00174758 -0.00103269)
(-0.000387138 -0.0018428 -0.00103269)
(-6.12561e-05 -0.00188203 -0.00103269)
(0.000266486 -0.00186408 -0.00103269)
(0.000586131 -0.00178948 -0.00103269)
(0.000887967 -0.00166051 -0.00103269)
(0.00116282 -0.00148109 -0.00103269)
(0.00140235 -0.00125667 -0.00103269)
(0.00159926 -0.000994063 -0.00103269)
(0.00174758 -0.000701254 -0.00103269)
(0.0018428 -0.000387138 -0.00103269)
(0.00188203 -6.12561e-05 -0.00103269)
(0.00186408 0.000266486 -0.00103269)
(0.00178948 0.000586131 -0.00103269)
(0.00166051 0.000887967 -0.00103269)
(0.00148109 0.00116282 -0.00103269)
(0.00125667 0.00140235 -0.00103269)
(0.000994063 0.00159926 -0.00103269)
(0.000701254 0.00174758 -0.00103269)
(0.000387138 0.0018428 -0.00103269)
(6.12562e-05 0.00188203 -0.00103269)
(-0.000266486 0.00186408 -0.00103269)
(-0.000586131 0.00178948 -0.00103269)
(-0.000887967 0.00166051 -0.00103269)
(-0.00120271 0.00182049 -0.000818074)
(-0.00150056 0.00158398 -0.000818074)
(-0.00175282 0.00129935 -0.000818074)
(-0.00195182 0.000975233 -0.000818074)
(-0.00209151 0.000621486 -0.000818074)
(-0.00216766 0.000248857 -0.000818073)
(-0.00217794 -0.000131334 -0.000818074)
(-0.00212205 -0.000507535 -0.000818073)
(-0.00200167 -0.000868314 -0.000818074)
(-0.00182049 -0.00120271 -0.000818074)
(-0.00158398 -0.00150056 -0.000818074)
(-0.00129935 -0.00175282 -0.000818074)
(-0.000975233 -0.00195182 -0.000818074)
(-0.000621486 -0.00209151 -0.000818074)
(-0.000248857 -0.00216766 -0.000818073)
(0.000131334 -0.00217794 -0.000818074)
(0.000507535 -0.00212205 -0.000818073)
(0.000868314 -0.00200167 -0.000818074)
(0.00120271 -0.00182049 -0.000818074)
(0.00150056 -0.00158398 -0.000818074)
(0.00175282 -0.00129935 -0.000818074)
(0.00195182 -0.000975233 -0.000818074)
(0.00209151 -0.000621486 -0.000818074)
(0.00216766 -0.000248857 -0.000818073)
(0.00217794 0.000131334 -0.000818074)
(0.00212205 0.000507535 -0.000818073)
(0.00200167 0.000868314 -0.000818074)
(0.00182049 0.00120271 -0.000818074)
(0.00158398 0.00150056 -0.000818074)
(0.00129935 0.00175282 -0.000818074)
(0.000975233 0.00195182 -0.000818074)
(0.000621486 0.00209151 -0.000818074)
(0.000248857 0.00216766 -0.000818073)
(-0.000131334 0.00217794 -0.000818074)
(-0.000507535 0.00212205 -0.000818073)
(-0.000868314 0.00200167 -0.000818074)
(-0.00127238 0.00212589 -0.000613887)
(-0.0016222 0.00187265 -0.000613887)
(-0.00192274 0.00156251 -0.000613886)
(-0.00216486 0.00120489 -0.000613887)
(-0.0023412 0.000810664 -0.000613887)
(-0.0024464 0.000391803 -0.000613887)
(-0.00247727 -3.89637e-05 -0.000613888)
(-0.00243287 -0.000468544 -0.000613887)
(-0.00231455 -0.00088389 -0.000613886)
(-0.00212589 -0.00127238 -0.000613887)
(-0.00187265 -0.0016222 -0.000613887)
(-0.00156251 -0.00192274 -0.000613886)
(-0.00120489 -0.00216486 -0.000613887)
(-0.000810663 -0.0023412 -0.000613887)
(-0.000391803 -0.0024464 -0.000613887)
(3.89638e-05 -0.00247727 -0.000613888)
(0.000468544 -0.00243287 -0.000613888)
(0.00088389 -0.00231455 -0.000613886)
(0.00127238 -0.00212589 -0.000613887)
(0.0016222 -0.00187265 -0.000613887)
(0.00192274 -0.00156251 -0.000613886)
(0.00216486 -0.00120489 -0.000613887)
(0.0023412 -0.000810663 -0.000613887)
(0.0024464 -0.000391803 -0.000613887)
(0.00247727 3.89639e-05 -0.000613888)
(0.00243287 0.000468544 -0.000613887)
(0.00231455 0.00088389 -0.000613886)
(0.00212589 0.00127238 -0.000613887)
(0.00187265 0.0016222 -0.000613887)
(0.00156251 0.00192274 -0.000613886)
(0.00120489 0.00216486 -0.000613887)
(0.000810664 0.0023412 -0.000613887)
(0.000391803 0.0024464 -0.000613887)
(-3.89638e-05 0.00247727 -0.000613888)
(-0.000468544 0.00243287 -0.000613887)
(-0.00088389 0.00231455 -0.000613886)
(-0.00146813 0.00171146 -0.00171882)
(-0.00174302 0.00143053 -0.00171882)
(-0.00196494 0.00110612 -0.00171882)
(-0.00212717 0.000748109 -0.00171882)
(-0.00222476 0.000367366 -0.00171882)
(-0.00225475 -2.45399e-05 -0.00171881)
(-0.00221624 -0.000415701 -0.00171881)
(-0.00211038 -0.000794233 -0.00171882)
(-0.0019404 -0.00114863 -0.00171881)
(-0.00171146 -0.00146813 -0.00171882)
(-0.00143053 -0.00174302 -0.00171882)
(-0.00110612 -0.00196494 -0.00171882)
(-0.000748109 -0.00212717 -0.00171882)
(-0.000367365 -0.00222476 -0.00171882)
(2.45401e-05 -0.00225475 -0.00171881)
(0.000415701 -0.00221624 -0.00171881)
(0.000794233 -0.00211038 -0.00171882)
(0.00114863 -0.0019404 -0.00171882)
(0.00146813 -0.00171146 -0.00171882)
(0.00174302 -0.00143053 -0.00171882)
(0.00196494 -0.00110612 -0.00171882)
(0.00212717 -0.000748109 -0.00171882)
(0.00222476 -0.000367365 -0.00171882)
(0.00225475 2.45402e-05 -0.00171881)
(0.00221624 0.000415701 -0.00171881)
(0.00211038 0.000794233 -0.00171882)
(0.0019404 0.00114863 -0.00171881)
(0.00171146 0.00146813 -0.00171882)
(0.00143053 0.00174302 -0.00171882)
(0.00110612 0.00196494 -0.00171882)
(0.000748109 0.00212717 -0.00171882)
(0.000367366 0.00222476 -0.00171881)
(-2.454e-05 0.00225475 -0.00171881)
(-0.000415701 0.00221624 -0.00171881)
(-0.000794233 0.00211038 -0.00171881)
(-0.00114863 0.0019404 -0.00171881)
(-0.00151276 0.00204948 -0.00146989)
(-0.00184567 0.00175565 -0.00146989)
(-0.00212249 0.00140848 -0.00146989)
(-0.00233483 0.00101852 -0.00146989)
(-0.00247622 0.000597604 -0.00146989)
(-0.00254237 0.000158535 -0.00146988)
(-0.00253128 -0.000285352 -0.00146989)
(-0.00244327 -0.00072057 -0.00146989)
(-0.00228103 -0.00113389 -0.00146989)
(-0.00204948 -0.00151276 -0.00146989)
(-0.00175565 -0.00184567 -0.00146989)
(-0.00140848 -0.00212249 -0.00146989)
(-0.00101852 -0.00233483 -0.00146989)
(-0.000597604 -0.00247622 -0.00146989)
(-0.000158535 -0.00254237 -0.00146988)
(0.000285352 -0.00253128 -0.00146989)
(0.00072057 -0.00244327 -0.00146989)
(0.00113389 -0.00228103 -0.00146989)
(0.00151276 -0.00204948 -0.00146989)
(0.00184567 -0.00175565 -0.00146989)
(0.00212249 -0.00140848 -0.00146989)
(0.00233483 -0.00101852 -0.00146989)
(0.00247622 -0.000597604 -0.00146989)
(0.00254237 -0.000158535 -0.00146988)
(0.00253128 0.000285353 -0.00146989)
(0.00244327 0.00072057 -0.00146989)
(0.00228103 0.00113389 -0.00146989)
(0.00204948 0.00151276 -0.00146989)
(0.00175565 0.00184567 -0.00146989)
(0.00140848 0.00212249 -0.00146989)
(0.00101852 0.00233483 -0.00146989)
(0.000597604 0.00247622 -0.00146989)
(0.000158535 0.00254238 -0.00146988)
(-0.000285352 0.00253128 -0.00146989)
(-0.00072057 0.00244327 -0.00146989)
(-0.00113389 0.00228103 -0.00146989)
(-0.00159522 0.00236909 -0.00122555)
(-0.00198237 0.0020561 -0.00122555)
(-0.00230929 0.00168062 -0.00122555)
(-0.00256605 0.00125408 -0.00122555)
(-0.00274483 0.000789446 -0.00122555)
(-0.00284022 0.000300817 -0.00122555)
(-0.0028493 -0.000196953 -0.00122555)
(-0.00277182 -0.000688737 -0.00122555)
(-0.00261011 -0.0011596 -0.00122555)
(-0.00236909 -0.00159522 -0.00122555)
(-0.0020561 -0.00198237 -0.00122555)
(-0.00168062 -0.00230929 -0.00122555)
(-0.00125408 -0.00256605 -0.00122555)
(-0.000789446 -0.00274483 -0.00122555)
(-0.000300817 -0.00284022 -0.00122555)
(0.000196954 -0.0028493 -0.00122555)
(0.000688738 -0.00277182 -0.00122555)
(0.0011596 -0.00261011 -0.00122555)
(0.00159522 -0.00236909 -0.00122555)
(0.00198237 -0.0020561 -0.00122555)
(0.00230929 -0.00168062 -0.00122555)
(0.00256605 -0.00125408 -0.00122555)
(0.00274483 -0.000789446 -0.00122555)
(0.00284022 -0.000300817 -0.00122555)
(0.0028493 0.000196954 -0.00122555)
(0.00277182 0.000688738 -0.00122555)
(0.00261011 0.0011596 -0.00122555)
(0.00236909 0.00159522 -0.00122555)
(0.0020561 0.00198237 -0.00122555)
(0.00168062 0.00230929 -0.00122555)
(0.00125408 0.00256605 -0.00122555)
(0.000789446 0.00274483 -0.00122555)
(0.000300817 0.00284022 -0.00122555)
(-0.000196953 0.0028493 -0.00122555)
(-0.000688737 0.00277182 -0.00122555)
(-0.0011596 0.00261011 -0.00122555)
(-0.00170532 0.00264451 -0.000994581)
(-0.00213863 0.00230821 -0.00099458)
(-0.00250695 0.00190177 -0.000994581)
(-0.0027991 0.00143755 -0.000994581)
(-0.0030062 0.000929656 -0.000994581)
(-0.00312197 0.000393506 -0.000994582)
(-0.00314287 -0.000154595 -0.000994581)
(-0.00306828 -0.000698 -0.000994582)
(-0.00290046 -0.0012202 -0.00099458)
(-0.00264451 -0.00170532 -0.000994581)
(-0.00230821 -0.00213863 -0.00099458)
(-0.00190177 -0.00250695 -0.000994581)
(-0.00143755 -0.0027991 -0.000994581)
(-0.000929655 -0.0030062 -0.000994581)
(-0.000393506 -0.00312197 -0.000994582)
(0.000154595 -0.00314287 -0.000994581)
(0.000698 -0.00306828 -0.000994582)
(0.0012202 -0.00290046 -0.00099458)
(0.00170532 -0.00264451 -0.000994581)
(0.00213863 -0.00230821 -0.00099458)
(0.00250695 -0.00190177 -0.000994581)
(0.0027991 -0.00143755 -0.000994581)
(0.0030062 -0.000929655 -0.000994581)
(0.00312197 -0.000393506 -0.000994582)
(0.00314287 0.000154595 -0.000994581)
(0.00306828 0.000698 -0.000994582)
(0.00290046 0.0012202 -0.00099458)
(0.00264451 0.00170532 -0.000994581)
(0.00230821 0.00213863 -0.00099458)
(0.00190177 0.00250695 -0.000994581)
(0.00143755 0.0027991 -0.000994581)
(0.000929656 0.0030062 -0.000994581)
(0.000393506 0.00312197 -0.000994582)
(-0.000154595 0.00314287 -0.00099458)
(-0.000698 0.00306828 -0.000994581)
(-0.0012202 0.00290046 -0.00099458)
(-0.00178969 0.00234813 -0.00219706)
(-0.00217025 0.00200168 -0.00219706)
(-0.00248487 0.00159441 -0.00219706)
(-0.00272398 0.00113869 -0.00219706)
(-0.00288033 0.000648379 -0.00219706)
(-0.00294916 0.000138363 -0.00219706)
(-0.00292838 -0.000375855 -0.00219706)
(-0.00281863 -0.000878654 -0.00219706)
(-0.00262323 -0.00135475 -0.00219706)
(-0.00234813 -0.00178969 -0.00219706)
(-0.00200168 -0.00217025 -0.00219706)
(-0.00159441 -0.00248487 -0.00219706)
(-0.00113869 -0.00272398 -0.00219706)
(-0.000648379 -0.00288033 -0.00219706)
(-0.000138362 -0.00294916 -0.00219706)
(0.000375855 -0.00292838 -0.00219706)
(0.000878654 -0.00281863 -0.00219706)
(0.00135475 -0.00262323 -0.00219706)
(0.00178969 -0.00234813 -0.00219706)
(0.00217025 -0.00200168 -0.00219706)
(0.00248487 -0.00159441 -0.00219706)
(0.00272398 -0.00113869 -0.00219706)
(0.00288033 -0.000648379 -0.00219706)
(0.00294916 -0.000138362 -0.00219706)
(0.00292838 0.000375855 -0.00219706)
(0.00281863 0.000878654 -0.00219706)
(0.00262323 0.00135475 -0.00219706)
(0.00234813 0.00178969 -0.00219706)
(0.00200168 0.00217025 -0.00219706)
(0.00159441 0.00248487 -0.00219706)
(0.00113869 0.00272398 -0.00219706)
(0.000648379 0.00288033 -0.00219706)
(0.000138363 0.00294916 -0.00219706)
(-0.000375855 0.00292838 -0.00219706)
(-0.000878654 0.00281863 -0.00219706)
(-0.00135475 0.00262323 -0.00219706)
(-0.00185959 0.00263165 -0.00192671)
(-0.00228832 0.00226875 -0.00192671)
(-0.00264752 0.00183692 -0.00192671)
(-0.00292628 0.00134928 -0.0019267)
(-0.00311612 0.000820641 -0.0019267)
(-0.00321128 0.000267066 -0.0019267)
(-0.00320887 -0.000294625 -0.0019267)
(-0.00310896 -0.000847363 -0.0019267)
(-0.00291458 -0.00137436 -0.0019267)
(-0.00263165 -0.00185959 -0.00192671)
(-0.00226875 -0.00228832 -0.00192671)
(-0.00183692 -0.00264752 -0.00192671)
(-0.00134928 -0.00292628 -0.0019267)
(-0.000820641 -0.00311612 -0.0019267)
(-0.000267066 -0.00321128 -0.0019267)
(0.000294626 -0.00320887 -0.0019267)
(0.000847364 -0.00310896 -0.0019267)
(0.00137436 -0.00291458 -0.0019267)
(0.00185959 -0.00263165 -0.00192671)
(0.00228832 -0.00226875 -0.00192671)
(0.00264752 -0.00183692 -0.00192671)
(0.00292628 -0.00134928 -0.0019267)
(0.00311612 -0.000820641 -0.0019267)
(0.00321128 -0.000267066 -0.0019267)
(0.00320887 0.000294626 -0.0019267)
(0.00310896 0.000847364 -0.0019267)
(0.00291458 0.00137436 -0.0019267)
(0.00263165 0.00185959 -0.00192671)
(0.00226875 0.00228832 -0.00192671)
(0.00183692 0.00264752 -0.00192671)
(0.00134928 0.00292628 -0.0019267)
(0.000820641 0.00311612 -0.0019267)
(0.000267066 0.00321128 -0.0019267)
(-0.000294626 0.00320887 -0.0019267)
(-0.000847363 0.00310896 -0.0019267)
(-0.00137436 0.00291458 -0.0019267)
(-0.00196683 0.0028864 -0.00166557)
(-0.00243817 0.00250101 -0.00166557)
(-0.00283542 0.00203963 -0.00166557)
(-0.00314652 0.00151628 -0.00166557)
(-0.00336202 0.000946858 -0.00166557)
(-0.00347536 0.000348666 -0.00166557)
(-0.00348311 -0.000260124 -0.00166557)
(-0.00338502 -0.000861006 -0.00166557)
(-0.00318409 -0.00143573 -0.00166557)
(-0.0028864 -0.00196683 -0.00166557)
(-0.00250101 -0.00243817 -0.00166557)
(-0.00203963 -0.00283542 -0.00166557)
(-0.00151628 -0.00314652 -0.00166557)
(-0.000946858 -0.00336202 -0.00166557)
(-0.000348665 -0.00347536 -0.00166557)
(0.000260124 -0.00348311 -0.00166557)
(0.000861006 -0.00338502 -0.00166557)
(0.00143573 -0.00318409 -0.00166557)
(0.00196683 -0.0028864 -0.00166557)
(0.00243817 -0.00250101 -0.00166557)
(0.00283542 -0.00203963 -0.00166557)
(0.00314652 -0.00151628 -0.00166557)
(0.00336202 -0.000946858 -0.00166557)
(0.00347536 -0.000348665 -0.00166557)
(0.00348311 0.000260124 -0.00166557)
(0.00338502 0.000861006 -0.00166557)
(0.00318409 0.00143573 -0.00166557)
(0.0028864 0.00196683 -0.00166557)
(0.00250101 0.00243817 -0.00166557)
(0.00203963 0.00283542 -0.00166557)
(0.00151628 0.00314652 -0.00166557)
(0.000946858 0.00336202 -0.00166557)
(0.000348666 0.00347536 -0.00166557)
(-0.000260124 0.00348311 -0.00166557)
(-0.000861006 0.00338502 -0.00166557)
(-0.00143573 0.00318409 -0.00166557)
(-0.00209788 0.00308975 -0.00142032)
(-0.00260254 0.00267852 -0.00142032)
(-0.00302812 0.0021859 -0.00142032)
(-0.00336169 0.00162687 -0.00142032)
(-0.00359312 0.0010184 -0.00142032)
(-0.00371538 0.000378988 -0.00142032)
(-0.00372474 -0.000271939 -0.00142032)
(-0.00362094 -0.000914606 -0.00142032)
(-0.00340711 -0.00152948 -0.00142032)
(-0.00308975 -0.00209788 -0.00142032)
(-0.00267852 -0.00260254 -0.00142032)
(-0.0021859 -0.00302812 -0.00142032)
(-0.00162687 -0.00336169 -0.00142032)
(-0.0010184 -0.00359312 -0.00142032)
(-0.000378988 -0.00371538 -0.00142032)
(0.00027194 -0.00372474 -0.00142033)
(0.000914606 -0.00362094 -0.00142033)
(0.00152948 -0.00340711 -0.00142032)
(0.00209788 -0.00308975 -0.00142032)
(0.00260254 -0.00267852 -0.00142032)
(0.00302812 -0.0021859 -0.00142032)
(0.00336169 -0.00162687 -0.00142032)
(0.00359312 -0.0010184 -0.00142032)
(0.00371538 -0.000378988 -0.00142032)
(0.00372474 0.00027194 -0.00142032)
(0.00362094 0.000914606 -0.00142032)
(0.00340711 0.00152948 -0.00142032)
(0.00308975 0.00209788 -0.00142032)
(0.00267852 0.00260254 -0.00142032)
(0.0021859 0.00302812 -0.00142032)
(0.00162687 0.00336169 -0.00142032)
(0.0010184 0.00359312 -0.00142032)
(0.000378988 0.00371538 -0.00142032)
(-0.000271939 0.00372474 -0.00142032)
(-0.000914606 0.00362094 -0.00142032)
(-0.00152948 0.00340711 -0.00142032)
(-0.00213819 0.00299749 -0.00269004)
(-0.00262622 0.00258065 -0.00269004)
(-0.00303444 0.00208541 -0.00269004)
(-0.00335047 0.0015268 -0.00269004)
(-0.0035647 0.000921803 -0.00269004)
(-0.00367061 0.000288797 -0.00269004)
(-0.00366499 -0.000352985 -0.00269004)
(-0.00354802 -0.000984043 -0.00269004)
(-0.00332324 -0.0015852 -0.00269004)
(-0.00299748 -0.00213819 -0.00269004)
(-0.00258065 -0.00262622 -0.00269004)