/*--------------------------------*- C++ -*----------------------------------*\
| =========                 |                                                 |
| \\      /  F ield         | OpenFOAM: The Open Source CFD Toolbox           |
|  \\    /   O peration     | Version:  2312                                  |
|   \\  /    A nd           | Website:  www.openfoam.com                      |
|    \\/     M anipulation  |                                                 |
\*---------------------------------------------------------------------------*/
FoamFile
{
    version     2.0;
    format      ascii;
    arch        "LSB;label=32;scalar=64";
    class       volVectorField;
    location    "0.9";
    object      traction;
}
// * * * * * * * * * * * * * * * * * * * * * * * * * * * * * * * * * * * * * //

dimensions      [1 -1 -2 0 0 0 0];

internalField   uniform (0 0 0);

boundaryField
{
    fixed
    {
        type            calculated;
        value           nonuniform List<vector> 
108
(
(2234.16 -1727.7 26541.2)
(2500.25 -1313.5 26541.3)
(2690.36 -859.415 26541.3)
(2798.69 -379.187 26541)
(2822.01 112.583 26541)
(2759.6 600.908 26541.1)
(2613.33 1070.97 26541.2)
(2387.64 1508.51 26541.2)
(2089.41 1900.21 26541.3)
(1727.7 2234.16 26541.2)
(1313.5 2500.25 26541.3)
(859.415 2690.36 26541.3)
(379.187 2798.69 26541)
(-112.583 2822.01 26541)
(-600.908 2759.6 26541.1)
(-1070.97 2613.33 26541.2)
(-1508.51 2387.64 26541.2)
(-1900.21 2089.41 26541.3)
(-2234.16 1727.7 26541.2)
(-2500.25 1313.5 26541.3)
(-2690.36 859.415 26541.3)
(-2798.69 379.187 26541)
(-2822.01 -112.583 26541)
(-2759.6 -600.907 26541.1)
(-2613.33 -1070.96 26541.2)
(-2387.64 -1508.51 26541.2)
(-2089.41 -1900.21 26541.3)
(-1727.7 -2234.16 26541.2)
(-1313.5 -2500.25 26541.3)
(-859.416 -2690.36 26541.3)
(-379.187 -2798.69 26541)
(112.582 -2822.01 26541)
(600.907 -2759.6 26541.1)
(1070.96 -2613.33 26541.1)
(1508.51 -2387.64 26541.2)
(1900.21 -2089.41 26541.3)
(1660.9 -2299.8 16712.1)
(2035.03 -1976.45 16712)
(2347.32 -1593.06 16711.9)
(2588.29 -1161.25 16712.1)
(2750.61 -694.152 16712)
(2829.35 -205.969 16711.9)
(2822.14 288.474 16712.1)
(2729.17 774.153 16712.1)
(2553.28 1236.3 16712)
(2299.8 1660.9 16712.1)
(1976.45 2035.03 16712)
(1593.06 2347.32 16711.9)
(1161.25 2588.29 16712.1)
(694.151 2750.61 16712)
(205.969 2829.35 16711.9)
(-288.474 2822.14 16712.1)
(-774.153 2729.17 16712.1)
(-1236.3 2553.28 16712)
(-1660.9 2299.8 16712.1)
(-2035.03 1976.45 16712)
(-2347.32 1593.06 16711.9)
(-2588.29 1161.25 16712.1)
(-2750.61 694.152 16712)
(-2829.35 205.969 16711.9)
(-2822.14 -288.473 16712.1)
(-2729.17 -774.153 16712.1)
(-2553.28 -1236.3 16712)
(-2299.8 -1660.9 16712.1)
(-1976.45 -2035.03 16712)
(-1593.06 -2347.32 16711.9)
(-1161.25 -2588.29 16712.1)
(-694.152 -2750.61 16712)
(-205.969 -2829.35 16711.9)
(288.473 -2822.14 16712.1)
(774.153 -2729.17 16712.1)
(1236.3 -2553.28 16712)
(1005.55 -2970.06 -598.511)
(1506.01 -2750.32 -598.511)
(1960.72 -2447.02 -598.714)
(2355.85 -2069.38 -598.739)
(2679.41 -1628.84 -598.568)
(2921.54 -1138.82 -598.579)
(3074.91 -614.195 -598.551)
(3134.86 -70.9151 -598.683)
(3099.55 474.527 -598.566)
(2970.06 1005.55 -598.506)
(2750.32 1506.01 -598.506)
(2447.02 1960.72 -598.71)
(2069.38 2355.85 -598.735)
(1628.84 2679.41 -598.564)
(1138.82 2921.54 -598.575)
(614.194 3074.91 -598.548)
(70.9149 3134.86 -598.68)
(-474.527 3099.55 -598.564)
(-1005.55 2970.06 -598.504)
(-1506.01 2750.32 -598.505)
(-1960.72 2447.02 -598.709)
(-2355.85 2069.38 -598.735)
(-2679.41 1628.84 -598.565)
(-2921.54 1138.82 -598.577)
(-3074.91 614.195 -598.55)
(-3134.86 70.915 -598.683)
(-3099.55 -474.527 -598.567)
(-2970.06 -1005.55 -598.508)
(-2750.32 -1506.01 -598.509)
(-2447.02 -1960.72 -598.713)
(-2069.38 -2355.85 -598.74)
(-1628.84 -2679.41 -598.57)
(-1138.82 -2921.54 -598.582)
(-614.195 -3074.91 -598.555)
(-70.9153 -3134.86 -598.687)
(474.527 -3099.55 -598.571)
)
;
    }
    inside
    {
        type            calculated;
        value           nonuniform List<vector> 
540
(
(2181.5 -1467.13 -673.428)
(2403.04 -1065.75 -673.451)
(2551.96 -632.533 -673.426)
(2622.86 -179.503 -673.447)
(2614.17 278.454 -673.435)
(2526.21 728.099 -673.43)
(2361.08 1155.82 -673.452)
(2124.92 1548.3 -673.426)
(1823.47 1893.66 -673.441)
(1467.13 2181.5 -673.428)
(1065.75 2403.03 -673.45)
(632.535 2551.96 -673.426)
(179.505 2622.85 -673.447)
(-278.451 2614.16 -673.435)
(-728.096 2526.21 -673.43)
(-1155.82 2361.08 -673.452)
(-1548.3 2124.92 -673.426)
(-1893.66 1823.47 -673.441)
(-2181.5 1467.13 -673.428)
(-2403.03 1065.75 -673.45)
(-2551.96 632.535 -673.426)
(-2622.85 179.506 -673.447)
(-2614.16 -278.452 -673.435)
(-2526.21 -728.097 -673.43)
(-2361.08 -1155.82 -673.452)
(-2124.92 -1548.3 -673.426)
(-1823.47 -1893.66 -673.441)
(-1467.13 -2181.5 -673.428)
(-1065.75 -2403.04 -673.451)
(-632.533 -2551.96 -673.426)
(-179.503 -2622.86 -673.448)
(278.455 -2614.17 -673.435)
(728.102 -2526.21 -673.431)
(1155.82 -2361.08 -673.452)
(1548.31 -2124.92 -673.426)
(1893.67 -1823.47 -673.441)
(24840.1 378.077 -1788.27)
(24397.2 4685.99 -1788.39)
(23212.8 8851.18 -1788.33)
(21323.2 12747.7 -1788.27)
(18785.6 16256.6 -1788.25)
(15677.2 19271.5 -1788.24)
(12092.5 21701.2 -1788.3)
(8140.53 23471.3 -1788.32)
(3940.93 24528.3 -1788.39)
(-378.077 24840.1 -1788.27)
(-4685.99 24397.2 -1788.39)
(-8851.18 23212.8 -1788.33)
(-12747.7 21323.2 -1788.27)
(-16256.6 18785.6 -1788.25)
(-19271.5 15677.1 -1788.24)
(-21701.2 12092.5 -1788.3)
(-23471.3 8140.53 -1788.32)
(-24528.3 3940.93 -1788.39)
(-24840.1 -378.077 -1788.27)
(-24397.2 -4685.99 -1788.39)
(-23212.8 -8851.18 -1788.33)
(-21323.2 -12747.7 -1788.27)
(-18785.6 -16256.6 -1788.25)
(-15677.2 -19271.5 -1788.24)
(-12092.5 -21701.2 -1788.3)
(-8140.53 -23471.3 -1788.32)
(-3940.93 -24528.3 -1788.39)
(378.077 -24840.1 -1788.27)
(4685.99 -24397.2 -1788.39)
(8851.18 -23212.8 -1788.33)
(12747.7 -21323.2 -1788.27)
(16256.6 -18785.6 -1788.25)
(19271.5 -15677.2 -1788.24)
(21701.2 -12092.5 -1788.3)
(23471.3 -8140.53 -1788.32)
(24528.3 -3940.93 -1788.39)
(27526.9 1019.67 -2121.75)
(26931.8 5784.33 -2121.73)
(25518 10372.9 -2121.77)
(23329.2 14646.5 -2121.84)
(20431.5 18475.1 -2121.82)
(16912.9 21742.3 -2121.81)
(12880.4 24349 -2121.78)
(8456.59 26215.4 -2121.67)
(3775.8 27285.7 -2121.78)
(-1019.67 27526.9 -2121.75)
(-5784.33 26931.8 -2121.73)
(-10372.9 25518 -2121.77)
(-14646.5 23329.2 -2121.84)
(-18475.1 20431.5 -2121.82)
(-21742.3 16912.9 -2121.81)
(-24349 12880.4 -2121.78)
(-26215.4 8456.59 -2121.67)
(-27285.7 3775.8 -2121.78)
(-27526.9 -1019.67 -2121.75)
(-26931.8 -5784.33 -2121.73)
(-25518 -10372.9 -2121.77)
(-23329.2 -14646.5 -2121.84)
(-20431.5 -18475.1 -2121.83)
(-16912.9 -21742.3 -2121.81)
(-12880.4 -24349 -2121.78)
(-8456.59 -26215.4 -2121.67)
(-3775.8 -27285.7 -2121.78)
(1019.67 -27526.9 -2121.75)
(5784.33 -26931.8 -2121.73)
(10372.9 -25518 -2121.77)
(14646.5 -23329.2 -2121.84)
(18475.1 -20431.5 -2121.82)
(21742.3 -16912.9 -2121.81)
(24349 -12880.4 -2121.78)
(26215.4 -8456.59 -2121.67)
(27285.7 -3775.8 -2121.78)
(29887.7 3330.58 -2104.41)
(28855.5 8469.98 -2104.41)
(26946.2 13351.9 -2104.39)
(24218.3 17828.3 -2104.36)
(20754.6 21763 -2104.4)
(16660.1 25036.1 -2104.37)
(12059.5 27549 -2104.41)
(7092.54 29224.4 -2104.44)
(1910.04 30012 -2104.32)
(-3330.58 29887.7 -2104.41)
(-8469.98 28855.5 -2104.41)
(-13351.9 26946.2 -2104.39)
(-17828.3 24218.3 -2104.36)
(-21763 20754.6 -2104.4)
(-25036.1 16660.1 -2104.37)
(-27549 12059.5 -2104.41)
(-29224.4 7092.54 -2104.45)
(-30012 1910.04 -2104.32)
(-29887.7 -3330.58 -2104.41)
(-28855.5 -8469.98 -2104.41)
(-26946.2 -13351.9 -2104.39)
(-24218.3 -17828.3 -2104.36)
(-20754.6 -21763 -2104.4)
(-16660.1 -25036.1 -2104.37)
(-12059.5 -27549 -2104.41)
(-7092.54 -29224.4 -2104.45)
(-1910.04 -30012 -2104.32)
(3330.58 -29887.7 -2104.41)
(8469.98 -28855.5 -2104.41)
(13351.9 -26946.2 -2104.39)
(17828.3 -24218.3 -2104.36)
(21763 -20754.6 -2104.4)
(25036.1 -16660.1 -2104.37)
(27549 -12059.5 -2104.41)
(29224.4 -7092.54 -2104.44)
(30012 -1910.04 -2104.32)
(29993.2 5672.93 -1690.06)
(28552.3 10794.8 -1689.92)
(26244.1 15589 -1690.01)
(23138.4 19909.4 -1690.01)
(19329.6 23624.7 -1689.99)
(14933.5 26622.4 -1690.02)
(10083.8 28811.1 -1689.99)
(4927.45 30124.6 -1690.01)
(-378.364 30522.4 -1689.95)
(-5672.94 29993.2 -1690.06)
(-10794.8 28552.3 -1689.92)
(-15589 26244 -1690.01)
(-19909.4 23138.4 -1690.01)
(-23624.7 19329.6 -1689.99)
(-26622.4 14933.5 -1690.02)
(-28811.1 10083.8 -1689.99)
(-30124.6 4927.45 -1690.01)
(-30522.4 -378.364 -1689.95)
(-29993.2 -5672.94 -1690.06)
(-28552.3 -10794.8 -1689.92)
(-26244 -15589 -1690.01)
(-23138.4 -19909.4 -1690.01)
(-19329.6 -23624.7 -1689.99)
(-14933.5 -26622.4 -1690.02)
(-10083.8 -28811.1 -1689.99)
(-4927.45 -30124.6 -1690.01)
(378.364 -30522.4 -1689.95)
(5672.94 -29993.2 -1690.06)
(10794.8 -28552.3 -1689.92)
(15589 -26244 -1690.01)
(19909.4 -23138.4 -1690.01)
(23624.7 -19329.6 -1689.99)
(26622.4 -14933.5 -1690.02)
(28811.1 -10083.8 -1689.99)
(30124.6 -4927.45 -1690.01)
(30522.4 378.364 -1689.95)
(28606.4 7343.48 -1248.86)
(26896.5 12199.2 -1248.83)
(24369.7 16684.7 -1248.84)
(21102.1 20662.8 -1248.92)
(17193.5 24013.3 -1248.93)
(12762.4 26634.3 -1248.92)
(7943.58 28445.6 -1248.92)
(2883.34 29393 -1248.9)
(-2264.45 29447 -1248.8)
(-7343.48 28606.4 -1248.86)
(-12199.2 26896.5 -1248.83)
(-16684.7 24369.7 -1248.84)
(-20662.8 21102.1 -1248.92)
(-24013.3 17193.5 -1248.93)
(-26634.3 12762.4 -1248.92)
(-28445.6 7943.58 -1248.93)
(-29393 2883.34 -1248.9)
(-29447 -2264.45 -1248.8)
(-28606.4 -7343.48 -1248.86)
(-26896.5 -12199.2 -1248.83)
(-24369.7 -16684.7 -1248.84)
(-21102.1 -20662.8 -1248.92)
(-17193.5 -24013.3 -1248.93)
(-12762.4 -26634.3 -1248.92)
(-7943.58 -28445.6 -1248.92)
(-2883.34 -29393 -1248.9)
(2264.45 -29447 -1248.8)
(7343.48 -28606.4 -1248.86)
(12199.2 -26896.5 -1248.83)
(16684.7 -24369.7 -1248.84)
(20662.8 -21102.1 -1248.92)
(24013.3 -17193.5 -1248.93)
(26634.3 -12762.4 -1248.92)
(28445.6 -7943.58 -1248.92)
(29393 -2883.34 -1248.9)
(29447 2264.45 -1248.8)
(26232.9 8014.05 -1122.27)
(24442.6 12447.3 -1122.24)
(21909.9 16502.8 -1122.21)
(18711.3 20056.6 -1122.13)
(14944.2 23001.1 -1122.17)
(10723.1 25246.8 -1122.18)
(6176.17 26725.1 -1122.19)
(1441.48 27391.8 -1122.3)
(-3336.69 27225.6 -1122.26)
(-8014.05 26232.9 -1122.27)
(-12447.3 24442.6 -1122.24)
(-16502.8 21909.9 -1122.21)
(-20056.6 18711.3 -1122.13)
(-23001.1 14944.2 -1122.17)
(-25246.8 10723.1 -1122.18)
(-26725.1 6176.17 -1122.19)
(-27391.8 1441.48 -1122.3)
(-27225.6 -3336.68 -1122.26)
(-26232.9 -8014.05 -1122.27)
(-24442.6 -12447.3 -1122.24)
(-21909.9 -16502.8 -1122.21)
(-18711.3 -20056.6 -1122.13)
(-14944.2 -23001.1 -1122.17)
(-10723.1 -25246.8 -1122.18)
(-6176.17 -26725.1 -1122.19)
(-1441.48 -27391.8 -1122.3)
(3336.69 -27225.6 -1122.26)
(8014.05 -26232.9 -1122.27)
(12447.3 -24442.6 -1122.24)
(16502.8 -21909.9 -1122.21)
(20056.6 -18711.3 -1122.13)
(23001.1 -14944.2 -1122.17)
(25246.8 -10723.1 -1122.18)
(26725.1 -6176.17 -1122.19)
(27391.8 -1441.48 -1122.3)
(27225.6 3336.68 -1122.26)
(23163 7468.15 -1519.41)
(21514.1 11376.7 -1519.34)
(19211.8 14939.7 -1519.49)
(16325.7 18048.9 -1519.43)
(12943.5 20609.7 -1519.44)
(9168.01 22544.3 -1519.49)
(5113.93 23793.8 -1519.44)
(904.532 24320.3 -1519.43)
(-3332.38 24107.9 -1519.39)
(-7468.15 23163 -1519.41)
(-11376.7 21514.1 -1519.35)
(-14939.7 19211.8 -1519.49)
(-18048.9 16325.7 -1519.43)
(-20609.7 12943.5 -1519.44)
(-22544.3 9168.01 -1519.49)
(-23793.8 5113.93 -1519.44)
(-24320.3 904.532 -1519.43)
(-24107.9 -3332.38 -1519.39)
(-23163 -7468.15 -1519.41)
(-21514.1 -11376.7 -1519.35)
(-19211.8 -14939.7 -1519.49)
(-16325.7 -18048.9 -1519.43)
(-12943.5 -20609.7 -1519.44)
(-9168.01 -22544.3 -1519.49)
(-5113.93 -23793.8 -1519.44)
(-904.532 -24320.3 -1519.43)
(3332.38 -24107.9 -1519.39)
(7468.15 -23163 -1519.41)
(11376.7 -21514.1 -1519.34)
(14939.7 -19211.8 -1519.49)
(18048.9 -16325.7 -1519.43)
(20609.7 -12943.5 -1519.43)
(22544.3 -9168.01 -1519.49)
(23793.8 -5113.93 -1519.44)
(24320.3 -904.533 -1519.43)
(24107.9 3332.38 -1519.39)
(19446.5 5319.4 -2527.82)
(18227.5 8615.7 -2527.72)
(16454.4 11649.8 -2527.7)
(14181.5 14330.4 -2527.78)
(11477.6 16575.2 -2527.82)
(8425.04 18316.4 -2527.8)
(5116.47 19501 -2527.74)
(1652.33 20093.3 -2527.78)
(-1862.08 20075.1 -2527.79)
(-5319.4 19446.5 -2527.82)
(-8615.7 18227.5 -2527.72)
(-11649.8 16454.4 -2527.71)
(-14330.4 14181.5 -2527.78)
(-16575.2 11477.6 -2527.82)
(-18316.4 8425.04 -2527.8)
(-19501 5116.47 -2527.74)
(-20093.3 1652.33 -2527.78)
(-20075.1 -1862.08 -2527.79)
(-19446.5 -5319.4 -2527.82)
(-18227.5 -8615.7 -2527.72)
(-16454.4 -11649.8 -2527.7)
(-14181.5 -14330.4 -2527.78)
(-11477.6 -16575.2 -2527.82)
(-8425.04 -18316.4 -2527.8)
(-5116.47 -19501 -2527.74)
(-1652.33 -20093.3 -2527.78)
(1862.08 -20075.1 -2527.79)
(5319.4 -19446.5 -2527.82)
(8615.7 -18227.5 -2527.72)
(11649.8 -16454.4 -2527.7)
(14330.4 -14181.5 -2527.77)
(16575.2 -11477.6 -2527.82)
(18316.4 -8425.04 -2527.8)
(19501 -5116.47 -2527.74)
(20093.3 -1652.33 -2527.78)
(20075.1 1862.08 -2527.79)
(14827.4 672.617 -4127.8)
(14485.4 3237.3 -4127.83)
(13703.2 5703.53 -4127.77)
(12504.6 7996.46 -4127.76)
(10926.1 10046.3 -4127.71)
(9015.57 11790.8 -4127.73)
(6831.11 13177.3 -4127.8)
(4439.12 14163.3 -4127.81)
(1912.06 14719.1 -4127.8)
(-672.617 14827.4 -4127.8)
(-3237.3 14485.4 -4127.84)
(-5703.53 13703.2 -4127.77)
(-7996.46 12504.6 -4127.76)
(-10046.3 10926.1 -4127.71)
(-11790.8 9015.57 -4127.73)
(-13177.3 6831.11 -4127.8)
(-14163.3 4439.12 -4127.81)
(-14719.1 1912.06 -4127.8)
(-14827.4 -672.618 -4127.8)
(-14485.4 -3237.3 -4127.84)
(-13703.2 -5703.53 -4127.77)
(-12504.6 -7996.46 -4127.76)
(-10926.1 -10046.3 -4127.71)
(-9015.57 -11790.8 -4127.73)
(-6831.11 -13177.3 -4127.8)
(-4439.12 -14163.3 -4127.81)
(-1912.06 -14719.1 -4127.79)
(672.618 -14827.4 -4127.8)
(3237.3 -14485.4 -4127.83)
(5703.53 -13703.2 -4127.77)
(7996.46 -12504.6 -4127.76)
(10046.3 -10926.1 -4127.71)
(11790.8 -9015.57 -4127.73)
(13177.3 -6831.11 -4127.8)
(14163.3 -4439.12 -4127.81)
(14719.1 -1912.06 -4127.8)
(9038.71 -7979.17 -5926.7)
(10287 -6288.09 -5926.8)
(11222.7 -4406.46 -5926.72)
(11817.3 -2390.56 -5926.79)
(12052.9 -302.216 -5926.79)
(11922.2 1795.41 -5926.79)
(11429.2 3838.52 -5926.83)
(10589.3 5764.58 -5926.71)
(9427.24 7515.99 -5926.77)
(7979.17 9038.71 -5926.7)
(6288.09 10287 -5926.8)
(4406.46 11222.7 -5926.72)
(2390.56 11817.3 -5926.79)
(302.215 12052.9 -5926.79)
(-1795.41 11922.2 -5926.79)
(-3838.52 11429.2 -5926.83)
(-5764.58 10589.3 -5926.71)
(-7515.99 9427.24 -5926.77)
(-9038.71 7979.17 -5926.7)
(-10287 6288.09 -5926.8)
(-11222.7 4406.46 -5926.72)
(-11817.3 2390.56 -5926.79)
(-12052.9 302.214 -5926.79)
(-11922.2 -1795.41 -5926.79)
(-11429.2 -3838.52 -5926.83)
(-10589.3 -5764.58 -5926.71)
(-9427.24 -7515.99 -5926.76)
(-7979.17 -9038.71 -5926.7)
(-6288.09 -10287 -5926.8)
(-4406.46 -11222.7 -5926.72)
(-2390.56 -11817.3 -5926.79)
(-302.216 -12052.9 -5926.79)
(1795.41 -11922.2 -5926.79)
(3838.52 -11429.2 -5926.83)
(5764.58 -10589.3 -5926.71)
(7515.99 -9427.24 -5926.77)
(2265.45 -22235.8 -5922.56)
(6092.23 -21504.3 -5922.66)
(9733.99 -20119.9 -5922.6)
(13079.8 -18123.7 -5922.67)
(16028.2 -15577.1 -5922.67)
(18489.6 -12557.1 -5922.73)
(20389.4 -9155.92 -5922.6)
(21669.7 -5476.3 -5922.53)
(22291.5 -1630.27 -5922.51)
(22235.8 2265.45 -5922.56)
(21504.3 6092.22 -5922.66)
(20119.9 9733.99 -5922.6)
(18123.7 13079.8 -5922.67)
(15577.1 16028.2 -5922.67)
(12557.1 18489.6 -5922.73)
(9155.92 20389.4 -5922.6)
(5476.3 21669.7 -5922.53)
(1630.26 22291.5 -5922.51)
(-2265.45 22235.8 -5922.56)
(-6092.22 21504.3 -5922.66)
(-9733.98 20119.9 -5922.6)
(-13079.8 18123.7 -5922.67)
(-16028.2 15577.1 -5922.67)
(-18489.6 12557.1 -5922.73)
(-20389.4 9155.92 -5922.6)
(-21669.7 5476.3 -5922.53)
(-22291.5 1630.27 -5922.5)
(-22235.8 -2265.45 -5922.55)
(-21504.3 -6092.22 -5922.66)
(-20119.9 -9733.98 -5922.59)
(-18123.7 -13079.8 -5922.66)
(-15577.1 -16028.2 -5922.67)
(-12557.1 -18489.6 -5922.73)
(-9155.92 -20389.4 -5922.6)
(-5476.3 -21669.7 -5922.53)
(-1630.26 -22291.5 -5922.51)
(-4512.53 -41478.1 1550.16)
(2758.61 -41631.2 1549.94)
(9946.04 -40519.7 1549.98)
(16831.2 -38176.9 1549.96)
(23204.7 -34674.1 1549.83)
(28873.7 -30118.4 1550.21)
(33664.9 -24646.8 1550.06)
(37434 -18426.8 1550.52)
(40064.5 -11646.5 1550.19)
(41478.2 -4512.53 1550.16)
(41631.2 2758.61 1549.94)
(40519.7 9946.04 1549.98)
(38176.9 16831.2 1549.96)
(34674.1 23204.7 1549.83)
(30118.4 28873.7 1550.21)
(24646.8 33664.9 1550.06)
(18426.8 37434 1550.52)
(11646.5 40064.5 1550.18)
(4512.53 41478.2 1550.16)
(-2758.61 41631.2 1549.94)
(-9946.04 40519.7 1549.98)
(-16831.2 38176.9 1549.96)
(-23204.7 34674.1 1549.83)
(-28873.7 30118.4 1550.21)
(-33664.9 24646.8 1550.06)
(-37434 18426.8 1550.52)
(-40064.5 11646.5 1550.19)
(-41478.2 4512.54 1550.17)
(-41631.2 -2758.61 1549.94)
(-40519.7 -9946.04 1549.99)
(-38176.9 -16831.2 1549.96)
(-34674.1 -23204.7 1549.83)
(-30118.4 -28873.7 1550.21)
(-24646.8 -33664.9 1550.06)
(-18426.8 -37434 1550.51)
(-11646.5 -40064.5 1550.18)
(-8835.87 -56691.7 25979.5)
(1143.6 -57364.5 25979.1)
(11086.8 -56294.4 25979.2)
(20694.5 -53514.2 25979.7)
(29672.6 -49107.5 25979.5)
(37749.6 -43209.2 25980)
(44679.9 -35997.4 25980.5)
(50251.4 -27692.5 25980.1)
(54296.8 -18545 25979.7)
(56691.7 -8835.87 25979.5)
(57364.5 1143.6 25979.1)
(56294.4 11086.8 25979.2)
(53514.2 20694.5 25979.7)
(49107.5 29672.6 25979.5)
(43209.2 37749.6 25980)
(35997.4 44679.9 25980.5)
(27692.5 50251.4 25980.1)
(18545 54296.8 25979.7)
(8835.87 56691.7 25979.5)
(-1143.6 57364.5 25979.1)
(-11086.8 56294.4 25979.2)
(-20694.5 53514.2 25979.7)
(-29672.6 49107.5 25979.5)
(-37749.6 43209.2 25980)
(-44679.9 35997.4 25980.5)
(-50251.4 27692.5 25980.1)
(-54296.8 18545 25979.7)
(-56691.7 8835.87 25979.5)
(-57364.5 -1143.6 25979.1)
(-56294.4 -11086.8 25979.2)
(-53514.2 -20694.5 25979.7)
(-49107.5 -29672.6 25979.5)
(-43209.2 -37749.6 25980)
(-35997.4 -44679.9 25980.5)
(-27692.5 -50251.4 25980.1)
(-18545 -54296.8 25979.7)
(-8705.5 -37613.4 37194.2)
(-2041.47 -38553.7 37193.7)
(4683.89 -38321 37191.2)
(11269.8 -36929.8 37202.8)
(17505.2 -34405 37181.2)
(23223 -30849.5 37209.8)
(28218.8 -26343.5 37185.3)
(32369.6 -21045.6 37199.3)
(35530.2 -15104 37193.4)
(37613.4 -8705.5 37194.2)
(38553.7 -2041.47 37193.7)
(38321 4683.89 37191.2)
(36929.8 11269.8 37202.8)
(34405 17505.2 37181.1)
(30849.5 23223 37209.8)
(26343.5 28218.8 37185.3)
(21045.6 32369.6 37199.3)
(15104 35530.3 37193.5)
(8705.49 37613.4 37194.2)
(2041.47 38553.7 37193.7)
(-4683.9 38321.1 37191.2)
(-11269.8 36929.8 37202.8)
(-17505.2 34405 37181.2)
(-23223 30849.5 37209.8)
(-28218.9 26343.5 37185.3)
(-32369.6 21045.6 37199.3)
(-35530.3 15104 37193.5)
(-37613.4 8705.49 37194.2)
(-38553.7 2041.47 37193.7)
(-38321.1 -4683.9 37191.2)
(-36929.8 -11269.8 37202.8)
(-34405 -17505.2 37181.1)
(-30849.5 -23223 37209.8)
(-26343.5 -28218.8 37185.3)
(-21045.6 -32369.6 37199.3)
(-15104 -35530.2 37193.4)
)
;
    }
    outside
    {
        type            calculated;
        value           nonuniform List<vector> 
540
(
(24386.3 2939.14 -476.598)
(23505.4 7129.41 -476.581)
(21910.4 11102.5 -476.61)
(19649.5 14738.2 -476.558)
(16791.6 17926.6 -476.504)
(13423.4 20570.3 -476.547)
(9647.67 22588.7 -476.603)
(5578.89 23920.8 -476.594)
(1340.05 24526.3 -476.598)
(-2939.14 24386.3 -476.598)
(-7129.41 23505.4 -476.582)
(-11102.5 21910.4 -476.611)
(-14738.2 19649.5 -476.559)
(-17926.6 16791.6 -476.505)
(-20570.3 13423.4 -476.547)
(-22588.7 9647.67 -476.603)
(-23920.8 5578.89 -476.594)
(-24526.3 1340.05 -476.599)
(-24386.3 -2939.14 -476.598)
(-23505.4 -7129.41 -476.582)
(-21910.4 -11102.5 -476.611)
(-19649.5 -14738.2 -476.559)
(-16791.6 -17926.6 -476.505)
(-13423.4 -20570.3 -476.547)
(-9647.67 -22588.7 -476.603)
(-5578.89 -23920.8 -476.594)
(-1340.05 -24526.3 -476.599)
(2939.14 -24386.3 -476.598)
(7129.41 -23505.4 -476.582)
(11102.5 -21910.4 -476.611)
(14738.2 -19649.5 -476.559)
(17926.6 -16791.6 -476.505)
(20570.3 -13423.4 -476.547)
(22588.7 -9647.67 -476.603)
(23920.8 -5578.88 -476.594)
(24526.3 -1340.05 -476.598)
(7173.75 3641.91 -193.106)
(6432.26 4832.67 -193.092)
(5495.54 5876.19 -193.097)
(4391.65 6740.77 -193.094)
(3154.24 7401.22 -193.109)
(1820.9 7836.76 -193.104)
(432.627 8033.59 -193.073)
(-968.826 7986.83 -193.09)
(-2341.41 7697.25 -193.109)
(-3641.91 7173.75 -193.106)
(-4832.67 6432.26 -193.092)
(-5876.19 5495.54 -193.097)
(-6740.77 4391.65 -193.094)
(-7401.22 3154.24 -193.109)
(-7836.76 1820.9 -193.104)
(-8033.59 432.627 -193.074)
(-7986.83 -968.826 -193.09)
(-7697.25 -2341.41 -193.109)
(-7173.75 -3641.91 -193.106)
(-6432.26 -4832.67 -193.092)
(-5495.54 -5876.19 -193.097)
(-4391.65 -6740.77 -193.094)
(-3154.24 -7401.22 -193.109)
(-1820.9 -7836.75 -193.104)
(-432.627 -8033.59 -193.074)
(968.826 -7986.83 -193.09)
(2341.41 -7697.25 -193.109)
(3641.91 -7173.75 -193.106)
(4832.67 -6432.26 -193.092)
(5876.19 -5495.54 -193.097)
(6740.77 -4391.65 -193.094)
(7401.22 -3154.24 -193.109)
(7836.76 -1820.9 -193.104)
(8033.59 -432.627 -193.073)
(7986.83 968.827 -193.09)
(7697.25 2341.41 -193.109)
(8264.84 6426.5 -636.985)
(7023.01 7764.05 -636.982)
(5568.26 8865.85 -637.004)
(3944.03 9697.85 -636.997)
(2200.22 10235.6 -637.017)
(389.451 10462.2 -637.012)
(-1433.21 10370.5 -636.977)
(-3212.33 9964.29 -636.984)
(-4893.93 9254.91 -636.959)
(-6426.5 8264.84 -636.985)
(-7764.05 7023.01 -636.981)
(-8865.85 5568.27 -637.004)
(-9697.85 3944.03 -636.997)
(-10235.6 2200.22 -637.017)
(-10462.2 389.451 -637.013)
(-10370.5 -1433.21 -636.977)
(-9964.29 -3212.33 -636.984)
(-9254.91 -4893.93 -636.959)
(-8264.84 -6426.5 -636.985)
(-7023.01 -7764.05 -636.982)
(-5568.27 -8865.85 -637.004)
(-3944.03 -9697.85 -636.997)
(-2200.22 -10235.6 -637.017)
(-389.451 -10462.2 -637.013)
(1433.21 -10370.5 -636.977)
(3212.33 -9964.29 -636.984)
(4893.93 -9254.91 -636.959)
(6426.5 -8264.84 -636.985)
(7764.05 -7023.01 -636.981)
(8865.85 -5568.27 -637.004)
(9697.85 -3944.03 -636.997)
(10235.6 -2200.22 -637.017)
(10462.2 -389.451 -637.012)
(10370.5 1433.21 -636.977)
(9964.29 3212.33 -636.983)
(9254.91 4893.93 -636.959)
(8263.76 9215.56 -1179.28)
(6537.86 10510.8 -1179.29)
(4613.37 11486.2 -1179.28)
(2548.84 12112.9 -1179.26)
(406.73 12371.5 -1179.26)
(-1747.73 12254.2 -1179.26)
(-3849.08 11764.6 -1179.29)
(-5833.29 10917.2 -1179.26)
(-7640.71 9738.48 -1179.28)
(-9215.56 8263.76 -1179.28)
(-10510.8 6537.86 -1179.29)
(-11486.2 4613.37 -1179.28)
(-12112.9 2548.85 -1179.26)
(-12371.5 406.731 -1179.26)
(-12254.2 -1747.73 -1179.26)
(-11764.6 -3849.08 -1179.29)
(-10917.2 -5833.29 -1179.26)
(-9738.48 -7640.71 -1179.28)
(-8263.76 -9215.56 -1179.28)
(-6537.86 -10510.8 -1179.29)
(-4613.37 -11486.2 -1179.28)
(-2548.85 -12112.9 -1179.26)
(-406.731 -12371.5 -1179.26)
(1747.73 -12254.2 -1179.26)
(3849.08 -11764.6 -1179.29)
(5833.29 -10917.2 -1179.26)
(7640.71 -9738.48 -1179.28)
(9215.56 -8263.76 -1179.28)
(10510.8 -6537.86 -1179.29)
(11486.2 -4613.37 -1179.28)
(12112.9 -2548.85 -1179.26)
(12371.5 -406.73 -1179.26)
(12254.2 1747.74 -1179.26)
(11764.6 3849.08 -1179.28)
(10917.2 5833.29 -1179.26)
(9738.48 7640.71 -1179.28)
(7606.52 12207.4 -1818.98)
(5371.15 13343.1 -1819.01)
(2972.53 14072.7 -1818.98)
(483.862 14375.3 -1818.99)
(-2019.9 14240.9 -1818.98)
(-4462.27 13673.8 -1818.97)
(-6768.78 12691.5 -1819)
(-8869.53 11322.8 -1818.97)
(-10701.3 9610.8 -1818.99)
(-12207.4 7606.52 -1818.98)
(-13343.1 5371.15 -1819.01)
(-14072.7 2972.53 -1818.98)
(-14375.3 483.863 -1818.99)
(-14240.9 -2019.9 -1818.98)
(-13673.8 -4462.27 -1818.97)
(-12691.5 -6768.78 -1819)
(-11322.8 -8869.53 -1818.97)
(-9610.8 -10701.3 -1818.99)
(-7606.52 -12207.4 -1818.98)
(-5371.15 -13343.1 -1819.01)
(-2972.53 -14072.7 -1818.98)
(-483.863 -14375.3 -1818.99)
(2019.9 -14240.9 -1818.98)
(4462.27 -13673.8 -1818.97)
(6768.78 -12691.5 -1819)
(8869.53 -11322.8 -1818.97)
(10701.3 -9610.8 -1818.99)
(12207.4 -7606.52 -1818.98)
(13343.1 -5371.15 -1819.01)
(14072.7 -2972.53 -1818.98)
(14375.3 -483.862 -1818.99)
(14240.9 2019.9 -1818.98)
(13673.8 4462.27 -1818.97)
(12691.5 6768.78 -1819)
(11322.8 8869.53 -1818.97)
(9610.8 10701.3 -1818.99)
(6270.74 15386.2 -2478.16)
(3503.76 16241.6 -2478.17)
(630.083 16603.2 -2478.17)
(-2262.43 16460.4 -2478.19)
(-5086.46 15817.4 -2478.18)
(-7755.9 14693.8 -2478.16)
(-10189.5 13123.8 -2478.16)
(-12313.7 11154.9 -2478.14)
(-14063.8 8847.41 -2478.18)
(-15386.2 6270.74 -2478.16)
(-16241.6 3503.76 -2478.17)
(-16603.2 630.083 -2478.17)
(-16460.4 -2262.43 -2478.19)
(-15817.4 -5086.46 -2478.18)
(-14693.8 -7755.9 -2478.16)
(-13123.8 -10189.5 -2478.16)
(-11154.9 -12313.7 -2478.14)
(-8847.41 -14063.8 -2478.18)
(-6270.74 -15386.2 -2478.16)
(-3503.76 -16241.6 -2478.17)
(-630.083 -16603.2 -2478.17)
(2262.43 -16460.4 -2478.19)
(5086.46 -15817.4 -2478.18)
(7755.9 -14693.8 -2478.16)
(10189.5 -13123.8 -2478.16)
(12313.7 -11154.9 -2478.14)
(14063.8 -8847.41 -2478.18)
(15386.2 -6270.74 -2478.16)
(16241.6 -3503.76 -2478.17)
(16603.2 -630.083 -2478.17)
(16460.4 2262.43 -2478.19)
(15817.4 5086.46 -2478.18)
(14693.8 7755.9 -2478.16)
(13123.8 10189.5 -2478.16)
(11154.9 12313.7 -2478.14)
(8847.41 14063.8 -2478.18)
(4274.12 18552.6 -3062.14)
(987.672 19013 -3062.18)
(-2329.22 18895.5 -3062.13)
(-5574.76 18204.4 -3062.21)
(-8651.27 16959.4 -3062.16)
(-11464.7 15199.3 -3062.14)
(-13929.9 12977.9 -3062.17)
(-15972 10361.6 -3062.14)
(-17528.6 7430.87 -3062.15)
(-18552.6 4274.12 -3062.14)
(-19013 987.672 -3062.18)
(-18895.5 -2329.22 -3062.13)
(-18204.4 -5574.76 -3062.21)
(-16959.4 -8651.27 -3062.16)
(-15199.3 -11464.7 -3062.14)
(-12977.9 -13929.9 -3062.17)
(-10361.6 -15972 -3062.14)
(-7430.87 -17528.6 -3062.15)
(-4274.12 -18552.6 -3062.14)
(-987.672 -19013 -3062.18)
(2329.22 -18895.5 -3062.13)
(5574.76 -18204.4 -3062.21)
(8651.27 -16959.4 -3062.16)
(11464.7 -15199.3 -3062.14)
(13929.9 -12977.9 -3062.17)
(15972 -10361.6 -3062.14)
(17528.6 -7430.87 -3062.15)
(18552.6 -4274.12 -3062.14)
(19013 -987.672 -3062.18)
(18895.5 2329.22 -3062.13)
(18204.4 5574.76 -3062.21)
(16959.4 8651.27 -3062.16)
(15199.3 11464.7 -3062.14)
(12977.9 13929.9 -3062.17)
(10361.6 15972 -3062.14)
(7430.87 17528.6 -3062.15)
(1584.28 21402.4 -3388.21)
(-2156.32 21352.3 -3388.18)
(-5831.43 20653.5 -3388.18)
(-9329.28 19327.3 -3388.2)
(-12543.7 17413.4 -3388.17)
(-15376.8 14970.7 -3388.17)
(-17742.9 12073.2 -3388.2)
(-19569.9 8808.69 -3388.18)
(-20802.2 5276.56 -3388.18)
(-21402.4 1584.28 -3388.21)
(-21352.3 -2156.32 -3388.18)
(-20653.5 -5831.43 -3388.18)
(-19327.3 -9329.28 -3388.2)
(-17413.4 -12543.7 -3388.17)
(-14970.7 -15376.8 -3388.17)
(-12073.2 -17742.9 -3388.2)
(-8808.69 -19569.9 -3388.18)
(-5276.56 -20802.2 -3388.18)
(-1584.28 -21402.4 -3388.21)
(2156.32 -21352.3 -3388.18)
(5831.43 -20653.5 -3388.18)
(9329.28 -19327.3 -3388.2)
(12543.7 -17413.4 -3388.17)
(15376.8 -14970.7 -3388.17)
(17742.9 -12073.2 -3388.2)
(19569.9 -8808.69 -3388.18)
(20802.2 -5276.56 -3388.18)
(21402.4 -1584.28 -3388.21)
(21352.3 2156.32 -3388.18)
(20653.5 5831.43 -3388.18)
(19327.2 9329.28 -3388.2)
(17413.4 12543.7 -3388.17)
(14970.7 15376.8 -3388.17)
(12073.2 17742.9 -3388.2)
(8808.69 19569.9 -3388.18)
(5276.56 20802.2 -3388.18)
(-1848.12 23458.6 -3039.61)
(-5893.49 22781.5 -3039.62)
(-9759.99 21412 -3039.63)
(-13329.8 19391.8 -3039.64)
(-16494.7 16782.5 -3039.64)
(-19158.4 13663.4 -3039.64)
(-21239.9 10128.8 -3039.61)
(-22676.2 6286.79 -3039.63)
(-23423.5 2253.75 -3039.65)
(-23458.6 -1848.12 -3039.61)
(-22781.5 -5893.49 -3039.62)
(-21412 -9759.99 -3039.63)
(-19391.8 -13329.8 -3039.64)
(-16782.5 -16494.7 -3039.64)
(-13663.4 -19158.4 -3039.64)
(-10128.8 -21239.9 -3039.61)
(-6286.79 -22676.2 -3039.63)
(-2253.75 -23423.5 -3039.65)
(1848.12 -23458.6 -3039.61)
(5893.49 -22781.5 -3039.62)
(9759.99 -21412 -3039.63)
(13329.8 -19391.8 -3039.64)
(16494.7 -16782.5 -3039.64)
(19158.4 -13663.4 -3039.64)
(21239.9 -10128.8 -3039.61)
(22676.2 -6286.79 -3039.63)
(23423.5 -2253.75 -3039.65)
(23458.6 1848.12 -3039.61)
(22781.5 5893.49 -3039.62)
(21412 9759.99 -3039.63)
(19391.8 13329.8 -3039.64)
(16782.5 16494.7 -3039.64)
(13663.4 19158.4 -3039.64)
(10128.8 21239.9 -3039.61)
(6286.79 22676.2 -3039.63)
(2253.75 23423.5 -3039.65)
(-5893.67 23689.8 -1154.68)
(-9917.83 22306.5 -1154.65)
(-13640.6 20245.4 -1154.67)
(-16949 17569.2 -1154.71)
(-19742.3 14359.1 -1154.7)
(-21935.8 10712.7 -1154.67)
(-23462.8 6740.85 -1154.67)
(-24277 2564.25 -1154.73)
(-24353.3 -1690.42 -1154.69)
(-23689.8 -5893.67 -1154.68)
(-22306.5 -9917.83 -1154.65)
(-20245.4 -13640.6 -1154.67)
(-17569.2 -16949 -1154.71)
(-14359.1 -19742.3 -1154.7)
(-10712.7 -21935.8 -1154.67)
(-6740.85 -23462.8 -1154.67)
(-2564.25 -24277 -1154.73)
(1690.42 -24353.3 -1154.69)
(5893.67 -23689.8 -1154.68)
(9917.83 -22306.5 -1154.65)
(13640.6 -20245.4 -1154.67)
(16949 -17569.2 -1154.71)
(19742.3 -14359.1 -1154.7)
(21935.8 -10712.7 -1154.67)
(23462.8 -6740.85 -1154.67)
(24277 -2564.25 -1154.73)
(24353.3 1690.42 -1154.69)
(23689.8 5893.67 -1154.68)
(22306.5 9917.83 -1154.65)
(20245.4 13640.6 -1154.67)
(17569.2 16949 -1154.71)
(14359.1 19742.3 -1154.7)
(10712.7 21935.8 -1154.67)
(6740.85 23462.8 -1154.67)
(2564.25 24277 -1154.73)
(-1690.42 24353.3 -1154.69)
(-9516.35 21130.1 3293.42)
(-13041 19156.4 3293.5)
(-16169.5 16600.6 3293.48)
(-18806.5 13540.9 3293.44)
(-20872.1 10069.5 3293.41)
(-22303.6 6292.08 3293.45)
(-23057.4 2323.69 3293.41)
(-23110.4 -1715.87 3293.45)
(-22461.3 -5702.95 3293.47)
(-21130.1 -9516.35 3293.42)
(-19156.4 -13041 3293.5)
(-16600.6 -16169.5 3293.49)
(-13540.9 -18806.5 3293.44)
(-10069.5 -20872.1 3293.42)
(-6292.08 -22303.6 3293.45)
(-2323.7 -23057.4 3293.41)
(1715.87 -23110.4 3293.44)
(5702.95 -22461.3 3293.47)
(9516.35 -21130.1 3293.42)
(13041 -19156.4 3293.5)
(16169.5 -16600.6 3293.48)
(18806.5 -13540.9 3293.44)
(20872.1 -10069.5 3293.41)
(22303.6 -6292.08 3293.45)
(23057.4 -2323.69 3293.41)
(23110.4 1715.87 3293.44)
(22461.3 5702.95 3293.47)
(21130.1 9516.36 3293.42)
(19156.4 13041 3293.5)
(16600.6 16169.5 3293.48)
(13540.9 18806.5 3293.44)
(10069.5 20872.1 3293.41)
(6292.08 22303.6 3293.45)
(2323.69 23057.4 3293.41)
(-1715.87 23110.4 3293.44)
(-5702.95 22461.3 3293.47)
(-11033.8 16803.8 10477.5)
(-13784.3 14632.3 10477.5)
(-16115.8 12016.6 10477.4)
(-17957.6 9035.52 10477.5)
(-19253.8 5780 10477.4)