/*--------------------------------*- C++ -*----------------------------------*\
| =========                 |                                                 |
| \\      /  F ield         | OpenFOAM: The Open Source CFD Toolbox           |
|  \\    /   O peration     | Version:  2312                                  |
|   \\  /    A nd           | Website:  www.openfoam.com                      |
|    \\/     M anipulation  |                                                 |
\*---------------------------------------------------------------------------*/
FoamFile
{
    version     2.0;
    format      ascii;
    arch        "LSB;label=32;scalar=64";
    class       volVectorField;
    location    "0.9";
    object      U;
}
// * * * * * * * * * * * * * * * * * * * * * * * * * * * * * * * * * * * * * //

dimensions      [0 1 -1 0 0 0 0];

internalField   nonuniform List<vector> 
1620
(
(-9.58979e-05 -0.000200373 -0.00014743)
(-5.96466e-05 -0.000213982 -0.00014743)
(-2.15833e-05 -0.000221088 -0.00014743)
(1.71362e-05 -0.000221477 -0.000147429)
(5.5335e-05 -0.000215136 -0.00014743)
(9.18522e-05 -0.000202259 -0.00014743)
(0.000125578 -0.000183236 -0.000147429)
(0.000155489 -0.000158646 -0.000147429)
(0.000180676 -0.000129235 -0.00014743)
(0.000200373 -9.58979e-05 -0.00014743)
(0.000213982 -5.96466e-05 -0.000147431)
(0.000221088 -2.15833e-05 -0.00014743)
(0.000221477 1.71361e-05 -0.00014743)
(0.000215136 5.53349e-05 -0.00014743)
(0.000202259 9.18521e-05 -0.00014743)
(0.000183236 0.000125578 -0.000147429)
(0.000158646 0.000155489 -0.00014743)
(0.000129236 0.000180676 -0.00014743)
(9.58984e-05 0.000200373 -0.00014743)
(5.96471e-05 0.000213982 -0.000147431)
(2.15838e-05 0.000221089 -0.00014743)
(-1.71357e-05 0.000221477 -0.00014743)
(-5.53346e-05 0.000215136 -0.00014743)
(-9.18518e-05 0.000202259 -0.00014743)
(-0.000125578 0.000183236 -0.000147429)
(-0.000155489 0.000158646 -0.000147429)
(-0.000180676 0.000129236 -0.00014743)
(-0.000200373 9.58984e-05 -0.00014743)
(-0.000213982 5.9647e-05 -0.00014743)
(-0.000221088 2.15837e-05 -0.00014743)
(-0.000221477 -1.71358e-05 -0.000147429)
(-0.000215136 -5.53346e-05 -0.00014743)
(-0.000202259 -9.18518e-05 -0.00014743)
(-0.000183236 -0.000125578 -0.000147429)
(-0.000158646 -0.000155489 -0.000147429)
(-0.000129235 -0.000180676 -0.00014743)
(-3.21252e-05 -8.23624e-05 -0.000112648)
(-1.73349e-05 -8.66898e-05 -0.000112648)
(-2.01802e-06 -8.83829e-05 -0.000112648)
(1.336e-05 -8.73906e-05 -0.000112648)
(2.8332e-05 -8.37429e-05 -0.000112648)
(4.24431e-05 -7.75506e-05 -0.000112648)
(5.52648e-05 -6.90023e-05 -0.000112648)
(6.64073e-05 -5.83572e-05 -0.000112648)
(7.55326e-05 -4.59392e-05 -0.000112648)
(8.23627e-05 -3.21251e-05 -0.000112648)
(8.66901e-05 -1.73348e-05 -0.000112648)
(8.83832e-05 -2.01798e-06 -0.000112648)
(8.73908e-05 1.33601e-05 -0.000112648)
(8.37431e-05 2.83321e-05 -0.000112648)
(7.75508e-05 4.24432e-05 -0.000112648)
(6.90026e-05 5.52648e-05 -0.000112648)
(5.83575e-05 6.64074e-05 -0.000112648)
(4.59395e-05 7.55326e-05 -0.000112648)
(3.21254e-05 8.23628e-05 -0.000112649)
(1.73351e-05 8.66902e-05 -0.000112649)
(2.01826e-06 8.83833e-05 -0.000112648)
(-1.33598e-05 8.73909e-05 -0.000112648)
(-2.83318e-05 8.37432e-05 -0.000112648)
(-4.24429e-05 7.75509e-05 -0.000112648)
(-5.52645e-05 6.90026e-05 -0.000112648)
(-6.64071e-05 5.83576e-05 -0.000112648)
(-7.55324e-05 4.59395e-05 -0.000112648)
(-8.23625e-05 3.21255e-05 -0.000112648)
(-8.66899e-05 1.73352e-05 -0.000112648)
(-8.8383e-05 2.01831e-06 -0.000112648)
(-8.73906e-05 -1.33597e-05 -0.000112648)
(-8.37429e-05 -2.83318e-05 -0.000112648)
(-7.75506e-05 -4.24428e-05 -0.000112648)
(-6.90024e-05 -5.52645e-05 -0.000112648)
(-5.83573e-05 -6.64071e-05 -0.000112648)
(-4.59392e-05 -7.55323e-05 -0.000112648)
(1.92369e-05 5.10975e-05 -9.15675e-05)
(1.0072e-05 5.36613e-05 -9.15675e-05)
(6.00661e-07 5.45953e-05 -9.15678e-05)
(-8.88887e-06 5.38704e-05 -9.15676e-05)
(-1.81085e-05 5.15082e-05 -9.15677e-05)
(-2.67782e-05 4.75814e-05 -9.15676e-05)
(-3.46336e-05 4.22082e-05 -9.15678e-05)
(-4.14369e-05 3.5553e-05 -9.15679e-05)
(-4.69807e-05 2.78176e-05 -9.15677e-05)
(-5.10973e-05 1.92371e-05 -9.15677e-05)
(-5.36611e-05 1.00721e-05 -9.15677e-05)
(-5.45951e-05 6.00823e-07 -9.1568e-05)
(-5.38702e-05 -8.88871e-06 -9.15679e-05)
(-5.15081e-05 -1.81083e-05 -9.1568e-05)
(-4.75813e-05 -2.6778e-05 -9.15679e-05)
(-4.22082e-05 -3.46334e-05 -9.15681e-05)
(-3.55529e-05 -4.14368e-05 -9.15682e-05)
(-2.78175e-05 -4.69807e-05 -9.15679e-05)
(-1.9237e-05 -5.10972e-05 -9.15679e-05)
(-1.0072e-05 -5.36611e-05 -9.15679e-05)
(-6.00672e-07 -5.45951e-05 -9.15682e-05)
(8.88889e-06 -5.38702e-05 -9.1568e-05)
(1.81085e-05 -5.1508e-05 -9.15681e-05)
(2.67782e-05 -4.75813e-05 -9.15679e-05)
(3.46337e-05 -4.22081e-05 -9.15681e-05)
(4.14371e-05 -3.55528e-05 -9.15681e-05)
(4.69809e-05 -2.78174e-05 -9.15679e-05)
(5.10974e-05 -1.92368e-05 -9.15678e-05)
(5.36613e-05 -1.00718e-05 -9.15678e-05)
(5.45953e-05 -6.00502e-07 -9.1568e-05)
(5.38703e-05 8.88905e-06 -9.15678e-05)
(5.15081e-05 1.81087e-05 -9.15678e-05)
(4.75813e-05 2.67784e-05 -9.15676e-05)
(4.22082e-05 3.46338e-05 -9.15678e-05)
(3.55529e-05 4.14371e-05 -9.15679e-05)
(2.78174e-05 4.6981e-05 -9.15676e-05)
(-0.000146212 -0.000446611 -0.000379929)
(-6.64374e-05 -0.000465216 -0.00037993)
(1.53552e-05 -0.000469685 -0.000379929)
(9.66811e-05 -0.000459882 -0.000379927)
(0.00017507 -0.000436106 -0.000379926)
(0.000248139 -0.00039908 -0.000379926)
(0.000313669 -0.000349928 -0.000379927)
(0.000369669 -0.000290144 -0.000379928)
(0.000414437 -0.000221544 -0.000379929)
(0.000446612 -0.000146212 -0.000379929)
(0.000465217 -6.64374e-05 -0.00037993)
(0.000469686 1.53552e-05 -0.00037993)
(0.000459883 9.66811e-05 -0.000379927)
(0.000436107 0.00017507 -0.000379927)
(0.000399081 0.000248139 -0.000379927)
(0.000349929 0.000313669 -0.000379928)
(0.000290145 0.000369669 -0.000379929)
(0.000221545 0.000414437 -0.00037993)
(0.000146213 0.000446612 -0.00037993)
(6.64384e-05 0.000465218 -0.000379931)
(-1.53542e-05 0.000469686 -0.00037993)
(-9.66801e-05 0.000459883 -0.000379928)
(-0.000175069 0.000436107 -0.000379927)
(-0.000248138 0.000399081 -0.000379927)
(-0.000313668 0.000349929 -0.000379928)
(-0.000369668 0.000290145 -0.000379928)
(-0.000414436 0.000221545 -0.000379929)
(-0.000446611 0.000146213 -0.000379929)
(-0.000465217 6.64385e-05 -0.00037993)
(-0.000469685 -1.53542e-05 -0.000379929)
(-0.000459882 -9.66801e-05 -0.000379927)
(-0.000436106 -0.000175069 -0.000379926)
(-0.00039908 -0.000248138 -0.000379926)
(-0.000349928 -0.000313668 -0.000379927)
(-0.000290144 -0.000369668 -0.000379928)
(-0.000221544 -0.000414436 -0.000379928)
(-9.55759e-05 -0.00022182 -0.000305527)
(-5.56048e-05 -0.000235047 -0.000305527)
(-1.39443e-05 -0.000241132 -0.000305527)
(2.81392e-05 -0.00023989 -0.000305526)
(6.93675e-05 -0.000231358 -0.000305526)
(0.000108488 -0.000215798 -0.000305526)
(0.000144313 -0.000193681 -0.000305526)
(0.000175753 -0.000165679 -0.000305526)
(0.000201854 -0.000132643 -0.000305527)
(0.000221821 -9.55757e-05 -0.000305527)
(0.000235048 -5.56046e-05 -0.000305528)
(0.000241133 -1.39442e-05 -0.000305528)
(0.000239891 2.81393e-05 -0.000305527)
(0.000231359 6.93676e-05 -0.000305526)
(0.000215799 0.000108489 -0.000305527)
(0.000193682 0.000144313 -0.000305527)
(0.00016568 0.000175753 -0.000305527)
(0.000132643 0.000201854 -0.000305528)
(9.55765e-05 0.000221821 -0.000305528)
(5.56054e-05 0.000235048 -0.000305528)
(1.3945e-05 0.000241133 -0.000305528)
(-2.81385e-05 0.000239891 -0.000305527)
(-6.93668e-05 0.000231359 -0.000305527)
(-0.000108488 0.000215799 -0.000305527)
(-0.000144313 0.000193682 -0.000305527)
(-0.000175753 0.00016568 -0.000305527)
(-0.000201853 0.000132644 -0.000305527)
(-0.00022182 9.55767e-05 -0.000305527)
(-0.000235048 5.56056e-05 -0.000305528)
(-0.000241132 1.39452e-05 -0.000305527)
(-0.00023989 -2.81384e-05 -0.000305527)
(-0.000231358 -6.93666e-05 -0.000305526)
(-0.000215798 -0.000108488 -0.000305526)
(-0.000193681 -0.000144312 -0.000305526)
(-0.000165679 -0.000175752 -0.000305526)
(-0.000132643 -0.000201853 -0.000305527)
(-7.0106e-05 1.68611e-05 -0.000231279)
(-7.1968e-05 4.43094e-06 -0.000231279)
(-7.16435e-05 -8.13365e-06 -0.000231279)
(-6.91428e-05 -2.04505e-05 -0.000231279)
(-6.45415e-05 -3.21464e-05 -0.000231279)
(-5.79796e-05 -4.28658e-05 -0.000231279)
(-4.96553e-05 -5.22832e-05 -0.000231279)
(-3.98223e-05 -6.01113e-05 -0.000231279)
(-2.87784e-05 -6.61131e-05 -0.000231279)
(-1.68604e-05 -7.01057e-05 -0.000231279)
(-4.43027e-06 -7.19677e-05 -0.000231279)
(8.13431e-06 -7.16432e-05 -0.000231279)
(2.04512e-05 -6.91426e-05 -0.00023128)
(3.21471e-05 -6.45412e-05 -0.00023128)
(4.28664e-05 -5.79794e-05 -0.00023128)
(5.22838e-05 -4.96551e-05 -0.00023128)
(6.01118e-05 -3.98221e-05 -0.00023128)
(6.61137e-05 -2.87782e-05 -0.00023128)
(7.01063e-05 -1.68602e-05 -0.00023128)
(7.19683e-05 -4.43011e-06 -0.00023128)
(7.16439e-05 8.13446e-06 -0.00023128)
(6.91432e-05 2.04513e-05 -0.00023128)
(6.45419e-05 3.21472e-05 -0.00023128)
(5.79801e-05 4.28666e-05 -0.00023128)
(4.96557e-05 5.22839e-05 -0.00023128)
(3.98228e-05 6.0112e-05 -0.00023128)
(2.87789e-05 6.61139e-05 -0.00023128)
(1.68609e-05 7.01066e-05 -0.00023128)
(4.43079e-06 7.19686e-05 -0.000231279)
(-8.1338e-06 7.16441e-05 -0.000231279)
(-2.04507e-05 6.91435e-05 -0.000231279)
(-3.21466e-05 6.45422e-05 -0.000231279)
(-4.2866e-05 5.79803e-05 -0.000231279)
(-5.22834e-05 4.9656e-05 -0.000231279)
(-6.01115e-05 3.9823e-05 -0.000231279)
(-6.61133e-05 2.87791e-05 -0.000231279)
(-0.000173418 -0.000604943 -0.000608443)
(-6.57355e-05 -0.000625867 -0.000608443)
(4.39435e-05 -0.000627773 -0.000608442)
(0.000152287 -0.000610604 -0.000608441)
(0.000256003 -0.000574882 -0.000608439)
(0.000351941 -0.000521694 -0.000608439)
(0.000437186 -0.000452655 -0.00060844)
(0.000509148 -0.000369861 -0.000608441)
(0.00056564 -0.00027583 -0.000608443)
(0.000604945 -0.000173417 -0.000608444)
(0.000625869 -6.57353e-05 -0.000608444)
(0.000627775 4.39437e-05 -0.000608444)
(0.000610606 0.000152287 -0.000608442)
(0.000574884 0.000256003 -0.000608441)
(0.000521696 0.000351941 -0.000608441)
(0.000452656 0.000437186 -0.000608441)
(0.000369863 0.000509148 -0.000608442)
(0.000275831 0.00056564 -0.000608444)
(0.000173419 0.000604945 -0.000608445)
(6.57369e-05 0.000625869 -0.000608445)
(-4.39421e-05 0.000627775 -0.000608444)
(-0.000152286 0.000610606 -0.000608443)
(-0.000256001 0.000574884 -0.000608441)
(-0.00035194 0.000521696 -0.000608441)
(-0.000437185 0.000452656 -0.000608441)
(-0.000509147 0.000369863 -0.000608442)
(-0.000565639 0.000275831 -0.000608443)
(-0.000604944 0.000173419 -0.000608444)
(-0.000625867 6.57371e-05 -0.000608444)
(-0.000627774 -4.39419e-05 -0.000608443)
(-0.000610604 -0.000152285 -0.000608441)
(-0.000574883 -0.000256001 -0.00060844)
(-0.000521694 -0.000351939 -0.000608439)
(-0.000452655 -0.000437185 -0.000608439)
(-0.000369861 -0.000509147 -0.00060844)
(-0.00027583 -0.000565639 -0.000608442)
(-0.000157124 -0.000316688 -0.000504395)
(-9.97445e-05 -0.000339161 -0.000504395)
(-3.93341e-05 -0.000351329 -0.000504395)
(2.22708e-05 -0.000352821 -0.000504395)
(8.31985e-05 -0.000343593 -0.000504394)
(0.000141599 -0.000323926 -0.000504394)
(0.000195697 -0.000294417 -0.000504394)
(0.000243849 -0.000255962 -0.000504395)
(0.000284593 -0.000209729 -0.000504395)
(0.000316689 -0.000157124 -0.000504396)
(0.000339162 -9.97442e-05 -0.000504396)
(0.00035133 -3.93339e-05 -0.000504396)
(0.000352822 2.22711e-05 -0.000504396)
(0.000343594 8.31987e-05 -0.000504395)
(0.000323927 0.000141599 -0.000504395)
(0.000294418 0.000195697 -0.000504395)
(0.000255963 0.000243849 -0.000504396)
(0.000209731 0.000284593 -0.000504397)
(0.000157125 0.000316689 -0.000504397)
(9.97456e-05 0.000339163 -0.000504397)
(3.93352e-05 0.00035133 -0.000504397)
(-2.22697e-05 0.000352823 -0.000504396)
(-8.31974e-05 0.000343594 -0.000504395)
(-0.000141598 0.000323928 -0.000504395)
(-0.000195696 0.000294419 -0.000504395)
(-0.000243848 0.000255963 -0.000504396)
(-0.000284592 0.000209731 -0.000504396)
(-0.000316688 0.000157126 -0.000504396)
(-0.000339161 9.97458e-05 -0.000504396)
(-0.000351329 3.93354e-05 -0.000504396)
(-0.000352821 -2.22695e-05 -0.000504395)
(-0.000343593 -8.31971e-05 -0.000504394)
(-0.000323926 -0.000141598 -0.000504394)
(-0.000294417 -0.000195696 -0.000504394)
(-0.000255962 -0.000243848 -0.000504394)
(-0.00020973 -0.000284591 -0.000504395)
(-0.000179764 -2.77182e-05 -0.000402297)
(-0.000172219 -5.85131e-05 -0.000402297)
(-0.000159441 -8.75295e-05 -0.000402298)
(-0.00014182 -0.000113886 -0.000402298)
(-0.000119889 -0.000136783 -0.000402298)
(-9.43164e-05 -0.000155524 -0.000402298)
(-6.58772e-05 -0.000169539 -0.000402298)
(-3.54362e-05 -0.000178403 -0.000402298)
(-3.91793e-06 -0.000181847 -0.000402298)
(2.77194e-05 -0.000179764 -0.000402298)
(5.85143e-05 -0.000172219 -0.000402298)
(8.75307e-05 -0.000159441 -0.000402299)
(0.000113887 -0.000141819 -0.000402299)
(0.000136784 -0.000119889 -0.000402299)
(0.000155525 -9.4316e-05 -0.000402299)
(0.000169541 -6.58769e-05 -0.000402299)
(0.000178405 -3.54359e-05 -0.000402299)
(0.000181848 -3.91765e-06 -0.000402299)
(0.000179765 2.77197e-05 -0.000402299)
(0.00017222 5.85146e-05 -0.000402299)
(0.000159442 8.7531e-05 -0.000402299)
(0.00014182 0.000113888 -0.0004023)
(0.00011989 0.000136784 -0.000402299)
(9.43172e-05 0.000155525 -0.000402299)
(6.58781e-05 0.000169541 -0.000402299)
(3.54371e-05 0.000178405 -0.000402299)
(3.91887e-06 0.000181848 -0.000402299)
(-2.77185e-05 0.000179765 -0.000402298)
(-5.85133e-05 0.00017222 -0.000402298)
(-8.75298e-05 0.000159442 -0.000402298)
(-0.000113886 0.000141821 -0.000402298)
(-0.000136783 0.00011989 -0.000402298)
(-0.000155524 9.43176e-05 -0.000402298)
(-0.00016954 6.58784e-05 -0.000402298)
(-0.000178404 3.54374e-05 -0.000402297)
(-0.000181847 3.91918e-06 -0.000402297)
(-0.000172262 -0.000640086 -0.000790837)
(-5.84949e-05 -0.000660275 -0.000790838)
(5.70494e-05 -0.000660401 -0.000790837)
(0.00017086 -0.000640461 -0.000790836)
(0.000279479 -0.000601061 -0.000790836)
(0.000379606 -0.000543399 -0.000790835)
(0.0004682 -0.000469226 -0.000790835)
(0.000542568 -0.000380795 -0.000790836)
(0.000600451 -0.000280794 -0.000790837)
(0.000640088 -0.000172262 -0.000790838)
(0.000660277 -5.84947e-05 -0.000790839)
(0.000660403 5.70496e-05 -0.000790839)
(0.000640463 0.00017086 -0.000790838)
(0.000601064 0.000279479 -0.000790838)
(0.000543401 0.000379606 -0.000790837)
(0.000469228 0.0004682 -0.000790837)
(0.000380798 0.000542568 -0.000790838)
(0.000280796 0.000600451 -0.000790839)
(0.000172264 0.000640089 -0.00079084)
(5.84968e-05 0.000660278 -0.00079084)
(-5.70475e-05 0.000660404 -0.00079084)
(-0.000170858 0.000640464 -0.000790839)
(-0.000279477 0.000601064 -0.000790838)
(-0.000379604 0.000543402 -0.000790837)
(-0.000468198 0.000469229 -0.000790837)
(-0.000542566 0.000380798 -0.000790837)
(-0.000600449 0.000280797 -0.000790838)
(-0.000640087 0.000172264 -0.000790839)
(-0.000660276 5.8497e-05 -0.000790839)
(-0.000660402 -5.70473e-05 -0.000790838)
(-0.000640461 -0.000170858 -0.000790837)
(-0.000601062 -0.000279477 -0.000790836)
(-0.000543399 -0.000379604 -0.000790835)
(-0.000469227 -0.000468198 -0.000790835)
(-0.000380796 -0.000542566 -0.000790835)
(-0.000280794 -0.000600449 -0.000790836)
(-0.000200757 -0.000343944 -0.000673911)
(-0.000137981 -0.00037358 -0.000673911)
(-7.10128e-05 -0.000391864 -0.000673911)
(-1.88715e-06 -0.000398242 -0.000673911)
(6.72957e-05 -0.00039252 -0.00067391)
(0.000134433 -0.000374871 -0.00067391)
(0.000197487 -0.000345832 -0.00067391)
(0.00025454 -0.000306285 -0.000673911)
(0.000303859 -0.000257432 -0.000673911)
(0.000343946 -0.000200756 -0.000673912)
(0.000373582 -0.000137981 -0.000673912)
(0.000391866 -7.10125e-05 -0.000673912)
(0.000398244 -1.88688e-06 -0.000673912)
(0.000392522 6.7296e-05 -0.000673912)
(0.000374873 0.000134434 -0.000673912)
(0.000345834 0.000197487 -0.000673912)
(0.000306287 0.00025454 -0.000673912)
(0.000257434 0.00030386 -0.000673913)
(0.000200758 0.000343946 -0.000673913)
(0.000137982 0.000373582 -0.000673914)
(7.10144e-05 0.000391867 -0.000673913)
(1.88873e-06 0.000398244 -0.000673913)
(-6.72941e-05 0.000392522 -0.000673913)
(-0.000134432 0.000374873 -0.000673912)
(-0.000197485 0.000345834 -0.000673912)
(-0.000254538 0.000306288 -0.000673912)
(-0.000303858 0.000257434 -0.000673912)
(-0.000343945 0.000200758 -0.000673912)
(-0.00037358 0.000137983 -0.000673912)
(-0.000391865 7.10146e-05 -0.000673912)
(-0.000398242 1.88899e-06 -0.000673911)
(-0.00039252 -6.72938e-05 -0.000673911)
(-0.000374871 -0.000134431 -0.00067391)
(-0.000345832 -0.000197485 -0.00067391)
(-0.000306286 -0.000254538 -0.00067391)
(-0.000257432 -0.000303857 -0.00067391)
(-0.000274271 -6.6352e-05 -0.000566697)
(-0.000258582 -0.000112971 -0.000566698)
(-0.000235036 -0.000156157 -0.000566697)
(-0.000204348 -0.000194598 -0.000566698)
(-0.000167452 -0.000227126 -0.000566698)
(-0.000125468 -0.000252754 -0.000566698)
(-7.9672e-05 -0.000270702 -0.000566698)
(-3.14545e-05 -0.000280425 -0.000566698)
(1.77186e-05 -0.000281627 -0.000566698)
(6.63538e-05 -0.000274271 -0.000566698)
(0.000112973 -0.000258581 -0.000566699)
(0.000156158 -0.000235035 -0.000566699)
(0.000194599 -0.000204348 -0.000566699)
(0.000227128 -0.000167452 -0.000566699)
(0.000252756 -0.000125468 -0.000566699)
(0.000270704 -7.96717e-05 -0.0005667)
(0.000280426 -3.14541e-05 -0.0005667)
(0.000281628 1.77189e-05 -0.0005667)
(0.000274273 6.63542e-05 -0.0005667)
(0.000258583 0.000112973 -0.0005667)
(0.000235037 0.000156159 -0.0005667)
(0.00020435 0.0001946 -0.0005667)
(0.000167453 0.000227128 -0.0005667)
(0.00012547 0.000252756 -0.0005667)
(7.96734e-05 0.000270704 -0.0005667)
(3.14559e-05 0.000280427 -0.000566699)
(-1.77172e-05 0.000281629 -0.000566699)
(-6.63524e-05 0.000274273 -0.000566699)
(-0.000112971 0.000258583 -0.000566699)
(-0.000156157 0.000235037 -0.000566699)
(-0.000194598 0.00020435 -0.000566698)
(-0.000227126 0.000167454 -0.000566698)
(-0.000252754 0.00012547 -0.000566698)
(-0.000270702 7.96738e-05 -0.000566698)
(-0.000280425 3.14563e-05 -0.000566698)
(-0.000281627 -1.77168e-05 -0.000566697)
(-0.000147231 -0.000556805 -0.000922943)
(-4.83053e-05 -0.000573913 -0.000922944)
(5.20876e-05 -0.000573581 -0.000922943)
(0.000150898 -0.000555822 -0.000922943)
(0.000245124 -0.000521175 -0.000922942)
(0.000331901 -0.000470692 -0.000922942)
(0.000408594 -0.000405908 -0.000922942)
(0.000472872 -0.00032879 -0.000922943)
(0.000522782 -0.000241682 -0.000922943)
(0.000556808 -0.00014723 -0.000922944)
(0.000573915 -4.83051e-05 -0.000922945)
(0.000573584 5.20877e-05 -0.000922945)
(0.000555825 0.000150898 -0.000922945)
(0.000521178 0.000245124 -0.000922945)
(0.000470695 0.000331901 -0.000922945)
(0.000405911 0.000408594 -0.000922945)
(0.000328793 0.000472873 -0.000922945)
(0.000241685 0.000522783 -0.000922945)
(0.000147233 0.000556808 -0.000922946)
(4.83077e-05 0.000573916 -0.000922947)
(-5.20852e-05 0.000573585 -0.000922946)
(-0.000150896 0.000555826 -0.000922946)
(-0.000245121 0.000521178 -0.000922945)
(-0.000331899 0.000470696 -0.000922945)
(-0.000408592 0.000405911 -0.000922945)
(-0.00047287 0.000328793 -0.000922944)
(-0.00052278 0.000241685 -0.000922944)
(-0.000556806 0.000147233 -0.000922945)
(-0.000573913 4.83079e-05 -0.000922945)
(-0.000573582 -5.2085e-05 -0.000922945)
(-0.000555823 -0.000150895 -0.000922944)
(-0.000521176 -0.000245121 -0.000922943)
(-0.000470693 -0.000331899 -0.000922943)
(-0.000405909 -0.000408591 -0.000922942)
(-0.000328791 -0.00047287 -0.000922942)
(-0.000241682 -0.00052278 -0.000922942)
(-0.00021722 -0.000289516 -0.000805654)
(-0.000163645 -0.000322838 -0.000805655)
(-0.000105099 -0.000346349 -0.000805654)
(-4.33589e-05 -0.000359337 -0.000805654)
(1.96984e-05 -0.000361408 -0.000805654)
(8.21572e-05 -0.000352497 -0.000805654)
(0.00014212 -0.000332876 -0.000805654)
(0.000197765 -0.00030314 -0.000805654)
(0.0002474 -0.000264194 -0.000805655)
(0.000289518 -0.000217219 -0.000805655)
(0.00032284 -0.000163645 -0.000805656)
(0.000346352 -0.000105099 -0.000805656)
(0.00035934 -4.33587e-05 -0.000805656)
(0.00036141 1.96987e-05 -0.000805656)
(0.0003525 8.21575e-05 -0.000805656)
(0.000332878 0.00014212 -0.000805656)
(0.000303143 0.000197765 -0.000805656)
(0.000264196 0.0002474 -0.000805657)
(0.000217222 0.000289519 -0.000805657)
(0.000163647 0.000322841 -0.000805658)
(0.000105101 0.000346352 -0.000805657)
(4.3361e-05 0.00035934 -0.000805657)
(-1.96963e-05 0.000361411 -0.000805656)
(-8.21552e-05 0.0003525 -0.000805656)
(-0.000142118 0.000332879 -0.000805656)
(-0.000197763 0.000303143 -0.000805656)
(-0.000247398 0.000264196 -0.000805656)
(-0.000289516 0.000217222 -0.000805656)
(-0.000322838 0.000163648 -0.000805656)
(-0.00034635 0.000105101 -0.000805655)
(-0.000359338 4.33613e-05 -0.000805655)
(-0.000361408 -1.96961e-05 -0.000805654)
(-0.000352497 -8.21549e-05 -0.000805654)
(-0.000332876 -0.000142118 -0.000805654)
(-0.000303141 -0.000197762 -0.000805654)
(-0.000264194 -0.000247397 -0.000805654)
(-0.000331281 -6.00415e-05 -0.000708939)
(-0.000315822 -0.000116656 -0.000708939)
(-0.000290766 -0.000169725 -0.000708939)
(-0.000256876 -0.000217638 -0.000708939)
(-0.000215181 -0.000258937 -0.000708939)
(-0.000166947 -0.00029237 -0.000708939)
(-0.000113641 -0.000316919 -0.000708939)
(-5.68821e-05 -0.000331838 -0.00070894)
(1.60495e-06 -0.000336674 -0.00070894)
(6.00438e-05 -0.000331281 -0.00070894)
(0.000116658 -0.000315821 -0.00070894)
(0.000169727 -0.000290766 -0.00070894)
(0.00021764 -0.000256875 -0.000708941)
(0.00025894 -0.00021518 -0.000708941)
(0.000292372 -0.000166947 -0.000708941)
(0.000316921 -0.000113641 -0.000708941)
(0.00033184 -5.68817e-05 -0.000708941)
(0.000336677 1.60535e-06 -0.000708942)
(0.000331283 6.00442e-05 -0.000708942)
(0.000315824 0.000116658 -0.000708942)
(0.000290768 0.000169728 -0.000708942)
(0.000256878 0.00021764 -0.000708941)
(0.000215183 0.00025894 -0.000708942)
(0.000166949 0.000292372 -0.000708941)
(0.000113643 0.000316921 -0.000708941)
(5.68839e-05 0.000331841 -0.000708941)
(-1.60305e-06 0.000336677 -0.000708941)
(-6.00419e-05 0.000331283 -0.000708941)
(-0.000116656 0.000315824 -0.00070894)
(-0.000169725 0.000290768 -0.00070894)
(-0.000217638 0.000256878 -0.00070894)
(-0.000258938 0.000215183 -0.00070894)
(-0.00029237 0.00016695 -0.000708939)
(-0.000316919 0.000113644 -0.000708939)
(-0.000331838 5.68844e-05 -0.000708939)
(-0.000336674 -1.6026e-06 -0.000708939)
(-0.00011252 -0.000381156 -0.0010265)
(-4.4623e-05 -0.000394905 -0.0010265)
(2.46297e-05 -0.000396654 -0.0010265)
(9.31338e-05 -0.000386351 -0.0010265)
(0.000158809 -0.000364309 -0.0010265)
(0.000219659 -0.000331198 -0.0010265)
(0.000273834 -0.000288023 -0.0010265)
(0.000319689 -0.000236097 -0.0010265)
(0.00035583 -0.000176998 -0.0010265)
(0.000381159 -0.00011252 -0.0010265)
(0.000394908 -4.46229e-05 -0.0010265)
(0.000396657 2.46298e-05 -0.0010265)
(0.000386354 9.31339e-05 -0.0010265)
(0.000364312 0.000158809 -0.0010265)
(0.000331201 0.000219659 -0.0010265)
(0.000288026 0.000273834 -0.0010265)
(0.0002361 0.000319689 -0.0010265)
(0.000177001 0.00035583 -0.0010265)
(0.000112523 0.00038116 -0.0010265)
(4.46261e-05 0.000394908 -0.00102651)
(-2.46267e-05 0.000396657 -0.00102651)
(-9.31309e-05 0.000386355 -0.0010265)
(-0.000158806 0.000364313 -0.0010265)
(-0.000219656 0.000331201 -0.0010265)
(-0.000273831 0.000288027 -0.0010265)
(-0.000319686 0.000236101 -0.0010265)
(-0.000355827 0.000177001 -0.0010265)
(-0.000381157 0.000112523 -0.0010265)
(-0.000394905 4.46262e-05 -0.0010265)
(-0.000396654 -2.46266e-05 -0.0010265)
(-0.000386351 -9.31308e-05 -0.0010265)
(-0.00036431 -0.000158806 -0.0010265)
(-0.000331198 -0.000219656 -0.0010265)
(-0.000288023 -0.000273831 -0.0010265)
(-0.000236097 -0.000319686 -0.0010265)
(-0.000176998 -0.000355827 -0.0010265)
(-0.000211429 -0.000157195 -0.000912113)
(-0.00018092 -0.000191521 -0.000912114)
(-0.000144914 -0.000220028 -0.000912114)
(-0.000104505 -0.000241849 -0.000912114)
(-6.09199e-05 -0.000256322 -0.000912113)
(-1.54838e-05 -0.000263007 -0.000912113)
(3.0423e-05 -0.000261701 -0.000912114)
(7.54049e-05 -0.000252443 -0.000912114)
(0.000118095 -0.000235514 -0.000912114)
(0.000157198 -0.000211429 -0.000912115)
(0.000191524 -0.00018092 -0.000912115)
(0.000220031 -0.000144914 -0.000912116)
(0.000241852 -0.000104504 -0.000912116)
(0.000256326 -6.09197e-05 -0.000912116)
(0.00026301 -1.54835e-05 -0.000912116)
(0.000261704 3.04233e-05 -0.000912116)
(0.000252446 7.54053e-05 -0.000912116)
(0.000235517 0.000118096 -0.000912116)
(0.000211432 0.000157199 -0.000912117)
(0.000180923 0.000191525 -0.000912117)
(0.000144917 0.000220032 -0.000912117)
(0.000104507 0.000241853 -0.000912117)
(6.09226e-05 0.000256326 -0.000912116)
(1.54863e-05 0.000263011 -0.000912116)
(-3.04205e-05 0.000261704 -0.000912116)
(-7.54025e-05 0.000252446 -0.000912116)
(-0.000118093 0.000235517 -0.000912115)
(-0.000157196 0.000211433 -0.000912115)
(-0.000191522 0.000180923 -0.000912115)
(-0.000220029 0.000144917 -0.000912115)
(-0.00024185 0.000104508 -0.000912115)
(-0.000256323 6.09227e-05 -0.000912114)
(-0.000263008 1.54865e-05 -0.000912114)
(-0.000261701 -3.04202e-05 -0.000912113)
(-0.000252443 -7.54021e-05 -0.000912113)
(-0.000235514 -0.000118093 -0.000912113)
(-0.000350194 1.23345e-05 -0.000829479)
(-0.000347016 -4.86634e-05 -0.000829479)
(-0.000333293 -0.000108183 -0.000829479)
(-0.000309444 -0.000164415 -0.000829479)
(-0.000276192 -0.000215652 -0.000829479)
(-0.000234548 -0.000260336 -0.000829479)
(-0.000185777 -0.00029711 -0.000829479)
(-0.000131362 -0.000324857 -0.00082948)
(-7.29551e-05 -0.000342732 -0.00082948)
(-1.23316e-05 -0.000350194 -0.00082948)
(4.86663e-05 -0.000347016 -0.00082948)
(0.000108186 -0.000333293 -0.000829481)
(0.000164418 -0.000309444 -0.000829481)
(0.000215655 -0.000276192 -0.000829481)
(0.000260339 -0.000234548 -0.000829481)
(0.000297113 -0.000185777 -0.000829481)
(0.00032486 -0.000131361 -0.000829482)
(0.000342735 -7.29547e-05 -0.000829482)
(0.000350197 -1.23312e-05 -0.000829482)
(0.000347018 4.86668e-05 -0.000829482)
(0.000333296 0.000108186 -0.000829482)
(0.000309446 0.000164418 -0.000829482)
(0.000276195 0.000215655 -0.000829482)
(0.000234551 0.000260339 -0.000829481)
(0.00018578 0.000297113 -0.000829481)
(0.000131364 0.00032486 -0.000829481)
(7.29575e-05 0.000342735 -0.000829481)
(1.23341e-05 0.000350197 -0.000829481)
(-4.86638e-05 0.000347019 -0.00082948)
(-0.000108183 0.000333296 -0.00082948)
(-0.000164415 0.000309447 -0.00082948)
(-0.000215652 0.000276195 -0.00082948)
(-0.000260336 0.000234551 -0.000829479)
(-0.00029711 0.00018578 -0.000829479)
(-0.000324857 0.000131364 -0.000829479)
(-0.000342733 7.2958e-05 -0.000829479)
(-9.29246e-05 -0.000147605 -0.00112748)
(-6.58811e-05 -0.000161499 -0.00112748)
(-3.6836e-05 -0.000170485 -0.00112748)
(-6.67212e-06 -0.000174292 -0.00112748)
(2.36956e-05 -0.000172803 -0.00112748)
(5.33428e-05 -0.000166063 -0.00112748)
(8.13698e-05 -0.000154277 -0.00112748)
(0.000106924 -0.000137804 -0.00112748)
(0.000129229 -0.000117144 -0.00112748)
(0.000147608 -9.29245e-05 -0.00112748)
(0.000161502 -6.5881e-05 -0.00112748)
(0.000170489 -3.6836e-05 -0.00112748)
(0.000174295 -6.67211e-06 -0.00112748)
(0.000172807 2.36957e-05 -0.00112748)
(0.000166066 5.33429e-05 -0.00112748)
(0.000154281 8.137e-05 -0.00112748)
(0.000137808 0.000106925 -0.00112748)
(0.000117148 0.00012923 -0.00112748)
(9.29283e-05 0.000147609 -0.00112748)
(6.58848e-05 0.000161503 -0.00112748)
(3.68396e-05 0.000170489 -0.00112749)
(6.67562e-06 0.000174296 -0.00112749)
(-2.36923e-05 0.000172807 -0.00112748)
(-5.33395e-05 0.000166067 -0.00112748)
(-8.13667e-05 0.000154281 -0.00112748)
(-0.000106921 0.000137808 -0.00112748)
(-0.000129226 0.000117148 -0.00112748)
(-0.000147605 9.29284e-05 -0.00112748)
(-0.000161499 6.58848e-05 -0.00112748)
(-0.000170486 3.68396e-05 -0.00112748)
(-0.000174292 6.67562e-06 -0.00112748)
(-0.000172803 -2.36922e-05 -0.00112748)
(-0.000166063 -5.33394e-05 -0.00112748)
(-0.000154277 -8.13665e-05 -0.00112748)
(-0.000137804 -0.000106921 -0.00112748)
(-0.000117144 -0.000129226 -0.00112748)
(-0.000203018 3.04748e-05 -0.00101151)
(-0.000205225 -5.2422e-06 -0.00101151)
(-0.000201196 -4.07992e-05 -0.00101151)
(-0.000191055 -7.51171e-05 -0.00101151)
(-0.000175107 -0.000107153 -0.00101151)
(-0.00015384 -0.000135932 -0.00101151)
(-0.000127898 -0.000160581 -0.00101151)
(-9.80696e-05 -0.000180351 -0.00101151)
(-6.52624e-05 -0.000194642 -0.00101151)
(-3.04714e-05 -0.000203018 -0.00101151)
(5.24572e-06 -0.000205225 -0.00101151)
(4.08028e-05 -0.000201196 -0.00101151)
(7.51208e-05 -0.000191055 -0.00101151)
(0.000107156 -0.000175107 -0.00101151)
(0.000135936 -0.00015384 -0.00101151)
(0.000160585 -0.000127898 -0.00101151)
(0.000180355 -9.80693e-05 -0.00101151)
(0.000194645 -6.5262e-05 -0.00101151)
(0.000203021 -3.04709e-05 -0.00101151)
(0.000205228 5.24621e-06 -0.00101151)
(0.0002012 4.08033e-05 -0.00101151)
(0.000191058 7.51212e-05 -0.00101151)
(0.00017511 0.000107157 -0.00101151)
(0.000153843 0.000135936 -0.00101151)
(0.000127901 0.000160585 -0.00101151)
(9.80726e-05 0.000180355 -0.00101151)
(6.52654e-05 0.000194645 -0.00101151)
(3.04743e-05 0.000203021 -0.00101151)
(-5.24271e-06 0.000205228 -0.00101151)
(-4.07997e-05 0.0002012 -0.00101151)
(-7.51175e-05 0.000191058 -0.00101151)
(-0.000107153 0.000175111 -0.00101151)
(-0.000135932 0.000153843 -0.00101151)
(-0.000160581 0.000127901 -0.00101151)
(-0.000180351 9.80729e-05 -0.00101151)
(-0.000194642 6.52658e-05 -0.00101151)
(-0.000347594 0.000142402 -0.000936083)
(-0.000367041 7.98799e-05 -0.000936083)
(-0.000375335 1.49304e-05 -0.000936083)
(-0.000372225 -5.04731e-05 -0.000936083)
(-0.000357805 -0.000114343 -0.000936083)
(-0.000332514 -0.000174738 -0.000936083)
(-0.000297119 -0.000229824 -0.000936083)
(-0.000252696 -0.000277927 -0.000936083)
(-0.000200595 -0.000317585 -0.000936084)
(-0.000142399 -0.000347594 -0.000936084)
(-7.98764e-05 -0.000367041 -0.000936084)
(-1.49268e-05 -0.000375335 -0.000936085)
(5.04767e-05 -0.000372225 -0.000936085)
(0.000114347 -0.000357805 -0.000936085)
(0.000174742 -0.000332514 -0.000936085)
(0.000229828 -0.000297118 -0.000936085)
(0.000277931 -0.000252695 -0.000936085)