/*--------------------------------*- C++ -*----------------------------------*\
| =========                 |                                                 |
| \\      /  F ield         | OpenFOAM: The Open Source CFD Toolbox           |
|  \\    /   O peration     | Version:  2312                                  |
|   \\  /    A nd           | Website:  www.openfoam.com                      |
|    \\/     M anipulation  |                                                 |
\*---------------------------------------------------------------------------*/
FoamFile
{
    version     2.0;
    format      ascii;
    arch        "LSB;label=32;scalar=64";
    class       volVectorField;
    location    "0";
    object      dx_du;
}
// * * * * * * * * * * * * * * * * * * * * * * * * * * * * * * * * * * * * * //

dimensions      [0 0 0 0 0 0 0];

internalField   nonuniform List<vector> 
1620
(
(0.000195268 0.0230588 -0.999734)
(0.000562185 0.0223508 -0.99975)
(0.000861128 0.0209582 -0.99978)
(0.00105601 0.0189268 -0.99982)
(0.00112341 0.0163224 -0.999866)
(0.0010553 0.0132274 -0.999912)
(0.000860033 0.00973793 -0.999952)
(0.000561223 0.00595996 -0.999982)
(0.000194888 0.00200632 -0.999998)
(-0.000194888 -0.00200632 -0.999998)
(-0.000561223 -0.00595996 -0.999982)
(-0.000860033 -0.00973793 -0.999952)
(-0.0010553 -0.0132274 -0.999912)
(-0.00112341 -0.0163224 -0.999866)
(-0.00105601 -0.0189268 -0.99982)
(-0.000861128 -0.0209582 -0.99978)
(-0.000562185 -0.0223508 -0.99975)
(-0.000195268 -0.0230588 -0.999734)
(0.000195268 -0.0230588 -0.999734)
(0.000562185 -0.0223508 -0.99975)
(0.000861128 -0.0209582 -0.99978)
(0.00105601 -0.0189268 -0.99982)
(0.00112341 -0.0163224 -0.999866)
(0.0010553 -0.0132274 -0.999912)
(0.000860033 -0.00973793 -0.999952)
(0.000561223 -0.00595996 -0.999982)
(0.000194888 -0.00200632 -0.999998)
(-0.000194888 0.00200632 -0.999998)
(-0.000561223 0.00595996 -0.999982)
(-0.000860033 0.00973793 -0.999952)
(-0.0010553 0.0132274 -0.999912)
(-0.00112341 0.0163224 -0.999866)
(-0.00105601 0.0189268 -0.99982)
(-0.000861128 0.0209582 -0.99978)
(-0.000562185 0.0223508 -0.99975)
(-0.000195268 0.0230588 -0.999734)
(0.000171028 0.0204822 -0.99979)
(0.000492406 0.0198536 -0.999803)
(0.000754262 0.018617 -0.999826)
(0.000924995 0.0168131 -0.999858)
(0.000984063 0.0145001 -0.999894)
(0.000924439 0.0117511 -0.999931)
(0.000753411 0.00865132 -0.999962)
(0.000491658 0.00529504 -0.999986)
(0.000170733 0.0017825 -0.999998)
(-0.000170733 -0.0017825 -0.999998)
(-0.000491658 -0.00529504 -0.999986)
(-0.000753411 -0.00865132 -0.999962)
(-0.000924439 -0.0117511 -0.999931)
(-0.000984063 -0.0145001 -0.999894)
(-0.000924995 -0.0168131 -0.999858)
(-0.000754262 -0.018617 -0.999826)
(-0.000492406 -0.0198536 -0.999803)
(-0.000171028 -0.0204822 -0.99979)
(0.000171028 -0.0204822 -0.99979)
(0.000492406 -0.0198536 -0.999803)
(0.000754262 -0.018617 -0.999826)
(0.000924995 -0.0168131 -0.999858)
(0.000984063 -0.0145001 -0.999894)
(0.000924439 -0.0117511 -0.999931)
(0.000753411 -0.00865132 -0.999962)
(0.000491658 -0.00529504 -0.999986)
(0.000170733 -0.0017825 -0.999998)
(-0.000170733 0.0017825 -0.999998)
(-0.000491658 0.00529504 -0.999986)
(-0.000753411 0.00865132 -0.999962)
(-0.000924439 0.0117511 -0.999931)
(-0.000984063 0.0145001 -0.999894)
(-0.000924995 0.0168131 -0.999858)
(-0.000754262 0.018617 -0.999826)
(-0.000492406 0.0198536 -0.999803)
(-0.000171028 0.0204822 -0.99979)
(0.000148303 0.0177839 -0.999842)
(0.000426982 0.0172381 -0.999851)
(0.000654062 0.0161647 -0.999869)
(0.000802139 0.0145986 -0.999893)
(0.000853393 0.0125904 -0.99992)
(0.000801715 0.0102036 -0.999948)
(0.000653412 0.00751214 -0.999972)
(0.00042641 0.00459785 -0.999989)
(0.000148077 0.00154781 -0.999999)
(-0.000148077 -0.00154781 -0.999999)
(-0.00042641 -0.00459785 -0.999989)
(-0.000653412 -0.00751214 -0.999972)
(-0.000801715 -0.0102036 -0.999948)
(-0.000853393 -0.0125904 -0.99992)
(-0.000802139 -0.0145986 -0.999893)
(-0.000654062 -0.0161647 -0.999869)
(-0.000426982 -0.0172381 -0.999851)
(-0.000148303 -0.0177839 -0.999842)
(0.000148303 -0.0177839 -0.999842)
(0.000426982 -0.0172381 -0.999851)
(0.000654062 -0.0161647 -0.999869)
(0.000802139 -0.0145986 -0.999893)
(0.000853393 -0.0125904 -0.99992)
(0.000801715 -0.0102036 -0.999948)
(0.000653412 -0.00751214 -0.999972)
(0.00042641 -0.00459785 -0.999989)
(0.000148077 -0.00154781 -0.999999)
(-0.000148077 0.00154781 -0.999999)
(-0.00042641 0.00459785 -0.999989)
(-0.000653412 0.00751214 -0.999972)
(-0.000801715 0.0102036 -0.999948)
(-0.000853393 0.0125904 -0.99992)
(-0.000802139 0.0145986 -0.999893)
(-0.000654062 0.0161647 -0.999869)
(-0.000426982 0.0172381 -0.999851)
(-0.000148303 0.0177839 -0.999842)
(0.000200066 0.0234338 -0.999725)
(0.000575997 0.0227142 -0.999742)
(0.000882279 0.0212987 -0.999773)
(0.00108195 0.0192341 -0.999814)
(0.00115098 0.0165871 -0.999862)
(0.0010812 0.0134417 -0.999909)
(0.000881131 0.00989554 -0.999951)
(0.000574987 0.00605636 -0.999981)
(0.000199667 0.00203875 -0.999998)
(-0.000199667 -0.00203875 -0.999998)
(-0.000574987 -0.00605636 -0.999981)
(-0.000881131 -0.00989554 -0.999951)
(-0.0010812 -0.0134417 -0.999909)
(-0.00115098 -0.0165871 -0.999862)
(-0.00108195 -0.0192341 -0.999814)
(-0.000882279 -0.0212987 -0.999773)
(-0.000575997 -0.0227142 -0.999742)
(-0.000200066 -0.0234338 -0.999725)
(0.000200066 -0.0234338 -0.999725)
(0.000575997 -0.0227142 -0.999742)
(0.000882279 -0.0212987 -0.999773)
(0.00108195 -0.0192341 -0.999814)
(0.00115098 -0.0165871 -0.999862)
(0.0010812 -0.0134417 -0.999909)
(0.000881131 -0.00989554 -0.999951)
(0.000574987 -0.00605636 -0.999981)
(0.000199667 -0.00203875 -0.999998)
(-0.000199667 0.00203875 -0.999998)
(-0.000574987 0.00605636 -0.999981)
(-0.000881131 0.00989554 -0.999951)
(-0.0010812 0.0134417 -0.999909)
(-0.00115098 0.0165871 -0.999862)
(-0.00108195 0.0192341 -0.999814)
(-0.000882279 0.0212987 -0.999773)
(-0.000575997 0.0227142 -0.999742)
(-0.000200066 0.0234338 -0.999725)
(0.000176324 0.0208521 -0.999783)
(0.000507651 0.0202119 -0.999796)
(0.000777609 0.0189528 -0.99982)
(0.000953619 0.017116 -0.999853)
(0.00101451 0.0147609 -0.999891)
(0.000953028 0.0119621 -0.999928)
(0.000776705 0.00880655 -0.999961)
(0.000506855 0.00538996 -0.999985)
(0.00017601 0.00181444 -0.999998)
(-0.00017601 -0.00181444 -0.999998)
(-0.000506855 -0.00538996 -0.999985)
(-0.000776705 -0.00880655 -0.999961)
(-0.000953028 -0.0119621 -0.999928)
(-0.00101451 -0.0147609 -0.999891)
(-0.000953619 -0.017116 -0.999853)
(-0.000777609 -0.0189528 -0.99982)
(-0.000507651 -0.0202119 -0.999796)
(-0.000176324 -0.0208521 -0.999783)
(0.000176324 -0.0208521 -0.999783)
(0.000507651 -0.0202119 -0.999796)
(0.000777609 -0.0189528 -0.99982)
(0.000953619 -0.017116 -0.999853)
(0.00101451 -0.0147609 -0.999891)
(0.000953028 -0.0119621 -0.999928)
(0.000776705 -0.00880655 -0.999961)
(0.000506855 -0.00538996 -0.999985)
(0.00017601 -0.00181444 -0.999998)
(-0.00017601 0.00181444 -0.999998)
(-0.000506855 0.00538996 -0.999985)
(-0.000776705 0.00880655 -0.999961)
(-0.000953028 0.0119621 -0.999928)
(-0.00101451 0.0147609 -0.999891)
(-0.000953619 0.017116 -0.999853)
(-0.000777609 0.0189528 -0.99982)
(-0.000507651 0.0202119 -0.999796)
(-0.000176324 0.0208521 -0.999783)
(0.000154046 0.0181459 -0.999835)
(0.000443515 0.0175889 -0.999845)
(0.000679382 0.0164932 -0.999864)
(0.000833184 0.0148949 -0.999889)
(0.000886412 0.0128455 -0.999917)
(0.000832726 0.01041 -0.999945)
(0.00067868 0.00766386 -0.99997)
(0.000442898 0.00469062 -0.999989)
(0.000153802 0.00157902 -0.999999)
(-0.000153802 -0.00157902 -0.999999)
(-0.000442898 -0.00469062 -0.999989)
(-0.00067868 -0.00766386 -0.99997)
(-0.000832726 -0.01041 -0.999945)
(-0.000886412 -0.0128455 -0.999917)
(-0.000833184 -0.0148949 -0.999889)
(-0.000679382 -0.0164932 -0.999864)
(-0.000443515 -0.0175889 -0.999845)
(-0.000154046 -0.0181459 -0.999835)
(0.000154046 -0.0181459 -0.999835)
(0.000443515 -0.0175889 -0.999845)
(0.000679382 -0.0164932 -0.999864)
(0.000833184 -0.0148949 -0.999889)
(0.000886412 -0.0128455 -0.999917)
(0.000832726 -0.01041 -0.999945)
(0.00067868 -0.00766386 -0.99997)
(0.000442898 -0.00469062 -0.999989)
(0.000153802 -0.00157902 -0.999999)
(-0.000153802 0.00157902 -0.999999)
(-0.000442898 0.00469062 -0.999989)
(-0.00067868 0.00766386 -0.99997)
(-0.000832726 0.01041 -0.999945)
(-0.000886412 0.0128455 -0.999917)
(-0.000833184 0.0148949 -0.999889)
(-0.000679382 0.0164932 -0.999864)
(-0.000443515 0.0175889 -0.999845)
(-0.000154046 0.0181459 -0.999835)
(0.000202359 0.0235681 -0.999722)
(0.000582599 0.0228443 -0.999739)
(0.000892389 0.0214206 -0.99977)
(0.00109434 0.0193439 -0.999812)
(0.00116416 0.0166816 -0.99986)
(0.00109357 0.0135182 -0.999908)
(0.000891214 0.00995172 -0.99995)
(0.000581566 0.0060907 -0.999981)
(0.000201951 0.0020503 -0.999998)
(-0.000201951 -0.0020503 -0.999998)
(-0.000581566 -0.0060907 -0.999981)
(-0.000891214 -0.00995172 -0.99995)
(-0.00109357 -0.0135182 -0.999908)
(-0.00116416 -0.0166816 -0.99986)
(-0.00109434 -0.0193439 -0.999812)
(-0.000892389 -0.0214206 -0.99977)
(-0.000582599 -0.0228443 -0.999739)
(-0.000202359 -0.0235681 -0.999722)
(0.000202359 -0.0235681 -0.999722)
(0.000582599 -0.0228443 -0.999739)
(0.000892389 -0.0214206 -0.99977)
(0.00109434 -0.0193439 -0.999812)
(0.00116416 -0.0166816 -0.99986)
(0.00109357 -0.0135182 -0.999908)
(0.000891214 -0.00995172 -0.99995)
(0.000581566 -0.0060907 -0.999981)
(0.000201951 -0.0020503 -0.999998)
(-0.000201951 0.0020503 -0.999998)
(-0.000581566 0.0060907 -0.999981)
(-0.000891214 0.00995172 -0.99995)
(-0.00109357 0.0135182 -0.999908)
(-0.00116416 0.0166816 -0.99986)
(-0.00109434 0.0193439 -0.999812)
(-0.000892389 0.0214206 -0.99977)
(-0.000582599 0.0228443 -0.999739)
(-0.000202359 0.0235681 -0.999722)
(0.00017839 0.0209838 -0.99978)
(0.000513596 0.0203395 -0.999793)
(0.000786714 0.0190723 -0.999818)
(0.000964782 0.0172237 -0.999851)
(0.00102638 0.0148537 -0.999889)
(0.000964177 0.0120372 -0.999927)
(0.000785789 0.00886173 -0.99996)
(0.000512782 0.0054237 -0.999985)
(0.000178068 0.00182579 -0.999998)
(-0.000178068 -0.00182579 -0.999998)
(-0.000512782 -0.0054237 -0.999985)
(-0.000785789 -0.00886173 -0.99996)
(-0.000964177 -0.0120372 -0.999927)
(-0.00102638 -0.0148537 -0.999889)
(-0.000964782 -0.0172237 -0.999851)
(-0.000786714 -0.0190723 -0.999818)
(-0.000513596 -0.0203395 -0.999793)
(-0.00017839 -0.0209838 -0.99978)
(0.00017839 -0.0209838 -0.99978)
(0.000513596 -0.0203395 -0.999793)
(0.000786714 -0.0190723 -0.999818)
(0.000964782 -0.0172237 -0.999851)
(0.00102638 -0.0148537 -0.999889)
(0.000964177 -0.0120372 -0.999927)
(0.000785789 -0.00886173 -0.99996)
(0.000512782 -0.0054237 -0.999985)
(0.000178068 -0.00182579 -0.999998)
(-0.000178068 0.00182579 -0.999998)
(-0.000512782 0.0054237 -0.999985)
(-0.000785789 0.00886173 -0.99996)
(-0.000964177 0.0120372 -0.999927)
(-0.00102638 0.0148537 -0.999889)
(-0.000964782 0.0172237 -0.999851)
(-0.000786714 0.0190723 -0.999818)
(-0.000513596 0.0203395 -0.999793)
(-0.00017839 0.0209838 -0.99978)
(0.000156156 0.0182785 -0.999833)
(0.000449588 0.0177173 -0.999843)
(0.000688684 0.0166135 -0.999862)
(0.000844589 0.0150034 -0.999887)
(0.000898543 0.0129389 -0.999916)
(0.000844118 0.0104855 -0.999945)
(0.000687963 0.00771943 -0.99997)
(0.000448955 0.00472459 -0.999989)
(0.000155905 0.00159045 -0.999999)
(-0.000155905 -0.00159045 -0.999999)
(-0.000448955 -0.00472459 -0.999989)
(-0.000687963 -0.00771943 -0.99997)
(-0.000844118 -0.0104855 -0.999945)
(-0.000898543 -0.0129389 -0.999916)
(-0.000844589 -0.0150034 -0.999887)
(-0.000688684 -0.0166135 -0.999862)
(-0.000449588 -0.0177173 -0.999843)
(-0.000156156 -0.0182785 -0.999833)
(0.000156156 -0.0182785 -0.999833)
(0.000449588 -0.0177173 -0.999843)
(0.000688684 -0.0166135 -0.999862)
(0.000844589 -0.0150034 -0.999887)
(0.000898543 -0.0129389 -0.999916)
(0.000844118 -0.0104855 -0.999945)
(0.000687963 -0.00771943 -0.99997)
(0.000448955 -0.00472459 -0.999989)
(0.000155905 -0.00159045 -0.999999)
(-0.000155905 0.00159045 -0.999999)
(-0.000448955 0.00472459 -0.999989)
(-0.000687963 0.00771943 -0.99997)
(-0.000844118 0.0104855 -0.999945)
(-0.000898543 0.0129389 -0.999916)
(-0.000844589 0.0150034 -0.999887)
(-0.000688684 0.0166135 -0.999862)
(-0.000449588 0.0177173 -0.999843)
(-0.000156156 0.0182785 -0.999833)
(0.000200824 0.0234706 -0.999725)
(0.000578181 0.0227497 -0.999741)
(0.000885624 0.021332 -0.999772)
(0.00108605 0.0192641 -0.999814)
(0.00115534 0.0166129 -0.999861)
(0.00108529 0.0134625 -0.999909)
(0.000884467 0.00991086 -0.99995)
(0.000577164 0.00606571 -0.999981)
(0.000200423 0.0020419 -0.999998)
(-0.000200423 -0.0020419 -0.999998)
(-0.000577164 -0.00606571 -0.999981)
(-0.000884467 -0.00991086 -0.99995)
(-0.00108529 -0.0134625 -0.999909)
(-0.00115534 -0.0166129 -0.999861)
(-0.00108605 -0.0192641 -0.999814)
(-0.000885624 -0.021332 -0.999772)
(-0.000578181 -0.0227497 -0.999741)
(-0.000200824 -0.0234706 -0.999725)
(0.000200824 -0.0234706 -0.999725)
(0.000578181 -0.0227497 -0.999741)
(0.000885624 -0.021332 -0.999772)
(0.00108605 -0.0192641 -0.999814)
(0.00115534 -0.0166129 -0.999861)
(0.00108529 -0.0134625 -0.999909)
(0.000884467 -0.00991086 -0.99995)
(0.000577164 -0.00606571 -0.999981)
(0.000200423 -0.0020419 -0.999998)
(-0.000200423 0.0020419 -0.999998)
(-0.000577164 0.00606571 -0.999981)
(-0.000884467 0.00991086 -0.99995)
(-0.00108529 0.0134625 -0.999909)
(-0.00115534 0.0166129 -0.999861)
(-0.00108605 0.0192641 -0.999814)
(-0.000885624 0.021332 -0.999772)
(-0.000578181 0.0227497 -0.999741)
(-0.000200824 0.0234706 -0.999725)
(0.000176802 0.0208937 -0.999782)
(0.000509026 0.0202522 -0.999795)
(0.000779716 0.0189906 -0.999819)
(0.000956201 0.0171501 -0.999852)
(0.00101725 0.0147903 -0.99989)
(0.000955608 0.011986 -0.999928)
(0.000778807 0.00882406 -0.999961)
(0.000508227 0.00540068 -0.999985)
(0.000176486 0.00181805 -0.999998)
(-0.000176486 -0.00181805 -0.999998)
(-0.000508227 -0.00540068 -0.999985)
(-0.000778807 -0.00882406 -0.999961)
(-0.000955608 -0.011986 -0.999928)
(-0.00101725 -0.0147903 -0.99989)
(-0.000956201 -0.0171501 -0.999852)
(-0.000779716 -0.0189906 -0.999819)
(-0.000509026 -0.0202522 -0.999795)
(-0.000176802 -0.0208937 -0.999782)
(0.000176802 -0.0208937 -0.999782)
(0.000509026 -0.0202522 -0.999795)
(0.000779716 -0.0189906 -0.999819)
(0.000956201 -0.0171501 -0.999852)
(0.00101725 -0.0147903 -0.99989)
(0.000955608 -0.011986 -0.999928)
(0.000778807 -0.00882406 -0.999961)
(0.000508227 -0.00540068 -0.999985)
(0.000176486 -0.00181805 -0.999998)
(-0.000176486 0.00181805 -0.999998)
(-0.000508227 0.00540068 -0.999985)
(-0.000778807 0.00882406 -0.999961)
(-0.000955608 0.011986 -0.999928)
(-0.00101725 0.0147903 -0.99989)
(-0.000956201 0.0171501 -0.999852)
(-0.000779716 0.0189906 -0.999819)
(-0.000509026 0.0202522 -0.999795)
(-0.000176802 0.0208937 -0.999782)
(0.000154723 0.0182011 -0.999834)
(0.000445464 0.0176423 -0.999844)
(0.000682367 0.0165433 -0.999863)
(0.000836844 0.0149401 -0.999888)
(0.000890305 0.0128844 -0.999917)
(0.000836382 0.0104415 -0.999945)
(0.00068166 0.00768707 -0.99997)
(0.000444842 0.00470481 -0.999989)
(0.000154477 0.0015838 -0.999999)
(-0.000154477 -0.0015838 -0.999999)
(-0.000444842 -0.00470481 -0.999989)
(-0.00068166 -0.00768707 -0.99997)
(-0.000836382 -0.0104415 -0.999945)
(-0.000890305 -0.0128844 -0.999917)
(-0.000836844 -0.0149401 -0.999888)
(-0.000682367 -0.0165433 -0.999863)
(-0.000445464 -0.0176423 -0.999844)
(-0.000154723 -0.0182011 -0.999834)
(0.000154723 -0.0182011 -0.999834)
(0.000445464 -0.0176423 -0.999844)
(0.000682367 -0.0165433 -0.999863)
(0.000836844 -0.0149401 -0.999888)
(0.000890305 -0.0128844 -0.999917)
(0.000836382 -0.0104415 -0.999945)
(0.00068166 -0.00768707 -0.99997)
(0.000444842 -0.00470481 -0.999989)
(0.000154477 -0.0015838 -0.999999)
(-0.000154477 0.0015838 -0.999999)
(-0.000444842 0.00470481 -0.999989)
(-0.00068166 0.00768707 -0.99997)
(-0.000836382 0.0104415 -0.999945)
(-0.000890305 0.0128844 -0.999917)
(-0.000836844 0.0149401 -0.999888)
(-0.000682367 0.0165433 -0.999863)
(-0.000445464 0.0176423 -0.999844)
(-0.000154723 0.0182011 -0.999834)
(0.000195365 0.0231421 -0.999732)
(0.000562465 0.0224315 -0.999748)
(0.000861556 0.021034 -0.999778)
(0.00105654 0.0189954 -0.999819)
(0.00112397 0.0163816 -0.999865)
(0.00105583 0.0132754 -0.999911)
(0.000860461 0.00977334 -0.999952)
(0.000561502 0.00598165 -0.999982)
(0.000194985 0.00201362 -0.999998)
(-0.000194985 -0.00201362 -0.999998)
(-0.000561502 -0.00598165 -0.999982)
(-0.000860461 -0.00977334 -0.999952)
(-0.00105583 -0.0132754 -0.999911)
(-0.00112397 -0.0163816 -0.999865)
(-0.00105654 -0.0189954 -0.999819)
(-0.000861556 -0.021034 -0.999778)
(-0.000562465 -0.0224315 -0.999748)
(-0.000195365 -0.0231421 -0.999732)
(0.000195365 -0.0231421 -0.999732)
(0.000562465 -0.0224315 -0.999748)
(0.000861556 -0.021034 -0.999778)
(0.00105654 -0.0189954 -0.999819)
(0.00112397 -0.0163816 -0.999865)
(0.00105583 -0.0132754 -0.999911)
(0.000860461 -0.00977334 -0.999952)
(0.000561502 -0.00598165 -0.999982)
(0.000194985 -0.00201362 -0.999998)
(-0.000194985 0.00201362 -0.999998)
(-0.000561502 0.00598165 -0.999982)
(-0.000860461 0.00977334 -0.999952)
(-0.00105583 0.0132754 -0.999911)
(-0.00112397 0.0163816 -0.999865)
(-0.00105654 0.0189954 -0.999819)
(-0.000861556 0.021034 -0.999778)
(-0.000562465 0.0224315 -0.999748)
(-0.000195365 0.0231421 -0.999732)
(0.000171596 0.0205886 -0.999788)
(0.000494038 0.0199567 -0.999801)
(0.000756761 0.0187137 -0.999825)
(0.000928059 0.0169005 -0.999857)
(0.000987322 0.0145755 -0.999893)
(0.0009275 0.0118122 -0.99993)
(0.000755905 0.00869636 -0.999962)
(0.000493285 0.00532263 -0.999986)
(0.000171298 0.00179179 -0.999998)
(-0.000171298 -0.00179179 -0.999998)
(-0.000493285 -0.00532263 -0.999986)
(-0.000755905 -0.00869636 -0.999962)
(-0.0009275 -0.0118122 -0.99993)
(-0.000987322 -0.0145755 -0.999893)
(-0.000928059 -0.0169005 -0.999857)
(-0.000756761 -0.0187137 -0.999825)
(-0.000494038 -0.0199567 -0.999801)
(-0.000171596 -0.0205886 -0.999788)
(0.000171596 -0.0205886 -0.999788)
(0.000494038 -0.0199567 -0.999801)
(0.000756761 -0.0187137 -0.999825)
(0.000928059 -0.0169005 -0.999857)
(0.000987322 -0.0145755 -0.999893)
(0.0009275 -0.0118122 -0.99993)
(0.000755905 -0.00869636 -0.999962)
(0.000493285 -0.00532263 -0.999986)
(0.000171298 -0.00179179 -0.999998)
(-0.000171298 0.00179179 -0.999998)
(-0.000493285 0.00532263 -0.999986)
(-0.000755905 0.00869636 -0.999962)
(-0.0009275 0.0118122 -0.99993)
(-0.000987322 0.0145755 -0.999893)
(-0.000928059 0.0169005 -0.999857)
(-0.000756761 0.0187137 -0.999825)
(-0.000494038 0.0199567 -0.999801)
(-0.000171596 0.0205886 -0.999788)
(0.000149938 0.017925 -0.999839)
(0.00043169 0.0173749 -0.999849)
(0.000661272 0.0162928 -0.999867)
(0.000810979 0.0147142 -0.999891)
(0.000862795 0.01269 -0.999919)
(0.000810545 0.0102843 -0.999947)
(0.000660607 0.00757153 -0.999971)
(0.000431106 0.00463418 -0.999989)
(0.000149708 0.00156004 -0.999999)
(-0.000149708 -0.00156004 -0.999999)
(-0.000431106 -0.00463418 -0.999989)
(-0.000660607 -0.00757153 -0.999971)
(-0.000810545 -0.0102843 -0.999947)
(-0.000862795 -0.01269 -0.999919)
(-0.000810979 -0.0147142 -0.999891)
(-0.000661272 -0.0162928 -0.999867)
(-0.00043169 -0.0173749 -0.999849)
(-0.000149938 -0.017925 -0.999839)
(0.000149938 -0.017925 -0.999839)
(0.00043169 -0.0173749 -0.999849)
(0.000661272 -0.0162928 -0.999867)
(0.000810979 -0.0147142 -0.999891)
(0.000862795 -0.01269 -0.999919)
(0.000810545 -0.0102843 -0.999947)
(0.000660607 -0.00757153 -0.999971)
(0.000431106 -0.00463418 -0.999989)
(0.000149708 -0.00156004 -0.999999)
(-0.000149708 0.00156004 -0.999999)
(-0.000431106 0.00463418 -0.999989)
(-0.000660607 0.00757153 -0.999971)
(-0.000810545 0.0102843 -0.999947)
(-0.000862795 0.01269 -0.999919)
(-0.000810979 0.0147142 -0.999891)
(-0.000661272 0.0162928 -0.999867)
(-0.00043169 0.0173749 -0.999849)
(-0.000149938 0.017925 -0.999839)
(0.000186052 0.0225783 -0.999745)
(0.000535656 0.0218854 -0.99976)
(0.0008205 0.0205225 -0.999789)
(0.00100621 0.0185342 -0.999828)
(0.00107044 0.0159846 -0.999872)
(0.00100556 0.0129543 -0.999916)
(0.000819507 0.00953731 -0.999954)
(0.000534783 0.00583737 -0.999983)
(0.000185707 0.00196508 -0.999998)
(-0.000185707 -0.00196508 -0.999998)
(-0.000534783 -0.00583737 -0.999983)
(-0.000819507 -0.00953731 -0.999954)
(-0.00100556 -0.0129543 -0.999916)
(-0.00107044 -0.0159846 -0.999872)
(-0.00100621 -0.0185342 -0.999828)
(-0.0008205 -0.0205225 -0.999789)
(-0.000535656 -0.0218854 -0.99976)
(-0.000186052 -0.0225783 -0.999745)
(0.000186052 -0.0225783 -0.999745)
(0.000535656 -0.0218854 -0.99976)
(0.0008205 -0.0205225 -0.999789)
(0.00100621 -0.0185342 -0.999828)
(0.00107044 -0.0159846 -0.999872)
(0.00100556 -0.0129543 -0.999916)
(0.000819507 -0.00953731 -0.999954)
(0.000534783 -0.00583737 -0.999983)
(0.000185707 -0.00196508 -0.999998)
(-0.000185707 0.00196508 -0.999998)
(-0.000534783 0.00583737 -0.999983)
(-0.000819507 0.00953731 -0.999954)
(-0.00100556 0.0129543 -0.999916)
(-0.00107044 0.0159846 -0.999872)
(-0.00100621 0.0185342 -0.999828)
(-0.0008205 0.0205225 -0.999789)
(-0.000535656 0.0218854 -0.99976)
(-0.000186052 0.0225783 -0.999745)
(0.000162918 0.0200691 -0.999799)
(0.000469057 0.0194535 -0.999811)
(0.000718502 0.0182424 -0.999833)
(0.000881152 0.0164756 -0.999864)
(0.000937434 0.0142096 -0.999899)
(0.000880648 0.0115163 -0.999933)
(0.000717731 0.00847885 -0.999964)
(0.000468378 0.00518965 -0.999986)
(0.00016265 0.00174705 -0.999998)
(-0.00016265 -0.00174705 -0.999998)
(-0.000468378 -0.00518965 -0.999986)
(-0.000717731 -0.00847885 -0.999964)
(-0.000880648 -0.0115163 -0.999933)
(-0.000937434 -0.0142096 -0.999899)
(-0.000881152 -0.0164756 -0.999864)
(-0.000718502 -0.0182424 -0.999833)
(-0.000469057 -0.0194535 -0.999811)
(-0.000162918 -0.0200691 -0.999799)
(0.000162918 -0.0200691 -0.999799)
(0.000469057 -0.0194535 -0.999811)
(0.000718502 -0.0182424 -0.999833)
(0.000881152 -0.0164756 -0.999864)
(0.000937434 -0.0142096 -0.999899)
(0.000880648 -0.0115163 -0.999933)
(0.000717731 -0.00847885 -0.999964)
(0.000468378 -0.00518965 -0.999986)
(0.00016265 -0.00174705 -0.999998)
(-0.00016265 0.00174705 -0.999998)
(-0.000468378 0.00518965 -0.999986)
(-0.000717731 0.00847885 -0.999964)
(-0.000880648 0.0115163 -0.999933)
(-0.000937434 0.0142096 -0.999899)
(-0.000881152 0.0164756 -0.999864)
(-0.000718502 0.0182424 -0.999833)
(-0.000469057 0.0194535 -0.999811)
(-0.000162918 0.0200691 -0.999799)
(0.000142039 0.0174555 -0.999848)
(0.00040895 0.0169201 -0.999857)
(0.000626443 0.0158669 -0.999874)
(0.000768274 0.0143302 -0.999897)
(0.000817373 0.0123594 -0.999923)
(0.000767885 0.0100168 -0.99995)
(0.000625847 0.00737495 -0.999973)
(0.000408425 0.00451401 -0.99999)
(0.000141832 0.00151961 -0.999999)
(-0.000141832 -0.00151961 -0.999999)
(-0.000408425 -0.00451401 -0.99999)
(-0.000625847 -0.00737495 -0.999973)
(-0.000767885 -0.0100168 -0.99995)
(-0.000817373 -0.0123594 -0.999923)
(-0.000768274 -0.0143302 -0.999897)
(-0.000626443 -0.0158669 -0.999874)
(-0.00040895 -0.0169201 -0.999857)
(-0.000142039 -0.0174555 -0.999848)
(0.000142039 -0.0174555 -0.999848)
(0.00040895 -0.0169201 -0.999857)
(0.000626443 -0.0158669 -0.999874)
(0.000768274 -0.0143302 -0.999897)
(0.000817373 -0.0123594 -0.999923)
(0.000767885 -0.0100168 -0.99995)
(0.000625847 -0.00737495 -0.999973)
(0.000408425 -0.00451401 -0.99999)
(0.000141832 -0.00151961 -0.999999)
(-0.000141832 0.00151961 -0.999999)
(-0.000408425 0.00451401 -0.99999)
(-0.000625847 0.00737495 -0.999973)
(-0.000767885 0.0100168 -0.99995)
(-0.000817373 0.0123594 -0.999923)
(-0.000768274 0.0143302 -0.999897)
(-0.000626443 0.0158669 -0.999874)
(-0.00040895 0.0169201 -0.999857)
(-0.000142039 0.0174555 -0.999848)
(0.000173015 0.0217699 -0.999763)
(0.000498125 0.0211023 -0.999777)
(0.000763022 0.019789 -0.999804)
(0.000935739 0.0178727 -0.99984)
(0.000995494 0.0154151 -0.999881)
(0.000935178 0.0124936 -0.999922)
(0.000762163 0.0091986 -0.999957)
(0.00049737 0.00563029 -0.999984)
(0.000172716 0.00189541 -0.999998)
(-0.000172716 -0.00189541 -0.999998)
(-0.00049737 -0.00563029 -0.999984)
(-0.000762163 -0.0091986 -0.999957)
(-0.000935178 -0.0124936 -0.999922)
(-0.000995494 -0.0154151 -0.999881)
(-0.000935739 -0.0178727 -0.99984)
(-0.000763022 -0.019789 -0.999804)
(-0.000498125 -0.0211023 -0.999777)
(-0.000173015 -0.0217699 -0.999763)
(0.000173015 -0.0217699 -0.999763)
(0.000498125 -0.0211023 -0.999777)
(0.000763022 -0.019789 -0.999804)
(0.000935739 -0.0178727 -0.99984)
(0.000995494 -0.0154151 -0.999881)
(0.000935178 -0.0124936 -0.999922)
(0.000762163 -0.0091986 -0.999957)
(0.00049737 -0.00563029 -0.999984)
(0.000172716 -0.00189541 -0.999998)
(-0.000172716 0.00189541 -0.999998)
(-0.00049737 0.00563029 -0.999984)
(-0.000762163 0.0091986 -0.999957)
(-0.000935178 0.0124936 -0.999922)
(-0.000995494 0.0154151 -0.999881)
(-0.000935739 0.0178727 -0.99984)
(-0.000763022 0.019789 -0.999804)
(-0.000498125 0.0211023 -0.999777)
(-0.000173015 0.0217699 -0.999763)
(0.000150955 0.0193307 -0.999813)
(0.000434618 0.0187382 -0.999824)
(0.000665758 0.0175724 -0.999845)
(0.000816483 0.0158713 -0.999874)
(0.000868653 0.0136894 -0.999906)
(0.000816051 0.0110954 -0.999938)
(0.000665095 0.00816941 -0.999966)
(0.000434036 0.00500047 -0.999987)
(0.000150725 0.0016834 -0.999999)
(-0.000150725 -0.0016834 -0.999999)
(-0.000434036 -0.00500047 -0.999987)
(-0.000665095 -0.00816941 -0.999966)
(-0.000816051 -0.0110954 -0.999938)
(-0.000868653 -0.0136894 -0.999906)
(-0.000816483 -0.0158713 -0.999874)
(-0.000665758 -0.0175724 -0.999845)
(-0.000434618 -0.0187382 -0.999824)
(-0.000150955 -0.0193307 -0.999813)
(0.000150955 -0.0193307 -0.999813)
(0.000434618 -0.0187382 -0.999824)
(0.000665758 -0.0175724 -0.999845)
(0.000816483 -0.0158713 -0.999874)
(0.000868653 -0.0136894 -0.999906)
(0.000816051 -0.0110954 -0.999938)
(0.000665095 -0.00816941 -0.999966)
(0.000434036 -0.00500047 -0.999987)
(0.000150725 -0.0016834 -0.999999)
(-0.000150725 0.0016834 -0.999999)
(-0.000434036 0.00500047 -0.999987)
(-0.000665095 0.00816941 -0.999966)
(-0.000816051 0.0110954 -0.999938)
(-0.000868653 0.0136894 -0.999906)
(-0.000816483 0.0158713 -0.999874)
(-0.000665758 0.0175724 -0.999845)
(-0.000434618 0.0187382 -0.999824)
(-0.000150955 0.0193307 -0.999813)
(0.000131285 0.0167928 -0.999859)
(0.00037799 0.0162781 -0.999867)
(0.000579026 0.0152654 -0.999883)
(0.000710134 0.0137878 -0.999905)
(0.000755532 0.0118924 -0.999929)
(0.000709801 0.009639 -0.999953)
(0.000578516 0.00709717 -0.999975)
(0.000377542 0.00434418 -0.99999)
(0.000131109 0.00146247 -0.999999)
(-0.000131109 -0.00146247 -0.999999)
(-0.000377542 -0.00434418 -0.99999)
(-0.000578516 -0.00709717 -0.999975)
(-0.000709801 -0.009639 -0.999953)
(-0.000755532 -0.0118924 -0.999929)
(-0.000710134 -0.0137878 -0.999905)
(-0.000579026 -0.0152654 -0.999883)
(-0.00037799 -0.0162781 -0.999867)
(-0.000131285 -0.0167928 -0.999859)
(0.000131285 -0.0167928 -0.999859)
(0.00037799 -0.0162781 -0.999867)
(0.000579026 -0.0152654 -0.999883)
(0.000710134 -0.0137878 -0.999905)
(0.000755532 -0.0118924 -0.999929)
(0.000709801 -0.009639 -0.999953)
(0.000578516 -0.00709717 -0.999975)
(0.000377542 -0.00434418 -0.99999)
(0.000131109 -0.00146247 -0.999999)
(-0.000131109 0.00146247 -0.999999)
(-0.000377542 0.00434418 -0.99999)
(-0.000578516 0.00709717 -0.999975)
(-0.000709801 0.009639 -0.999953)
(-0.000755532 0.0118924 -0.999929)
(-0.000710134 0.0137878 -0.999905)
(-0.000579026 0.0152654 -0.999883)
(-0.00037799 0.0162781 -0.999867)
(-0.000131285 0.0167928 -0.999859)
(0.000156447 0.0207012 -0.999786)
(0.000450429 0.0200669 -0.999799)
(0.000689975 0.018819 -0.999823)
(0.000846179 0.0169979 -0.999855)
(0.00090024 0.0146617 -0.999892)
(0.00084572 0.0118839 -0.999929)
(0.000689273 0.00875037 -0.999961)
(0.000449811 0.00535622 -0.999986)
(0.000156203 0.00180319 -0.999998)
(-0.000156203 -0.00180319 -0.999998)
(-0.000449811 -0.00535622 -0.999986)
(-0.000689273 -0.00875037 -0.999961)
(-0.00084572 -0.0118839 -0.999929)
(-0.00090024 -0.0146617 -0.999892)
(-0.000846179 -0.0169979 -0.999855)
(-0.000689975 -0.018819 -0.999823)
(-0.000450429 -0.0200669 -0.999799)
(-0.000156447 -0.0207012 -0.999786)
(0.000156447 -0.0207012 -0.999786)
(0.000450429 -0.0200669 -0.999799)
(0.000689975 -0.018819 -0.999823)
(0.000846179 -0.0169979 -0.999855)
(0.00090024 -0.0146617 -0.999892)
(0.00084572 -0.0118839 -0.999929)
(0.000689273 -0.00875037 -0.999961)
(0.000449811 -0.00535622 -0.999986)
(0.000156203 -0.00180319 -0.999998)
(-0.000156203 0.00180319 -0.999998)
(-0.000449811 0.00535622 -0.999986)
(-0.000689273 0.00875037 -0.999961)
(-0.00084572 0.0118839 -0.999929)
(-0.00090024 0.0146617 -0.999892)
(-0.000846179 0.0169979 -0.999855)
(-0.000689975 0.018819 -0.999823)
(-0.000450429 0.0200669 -0.999799)
(-0.000156447 0.0207012 -0.999786)
(0.000135937 0.018363 -0.999831)
(0.000391383 0.0178006 -0.999841)
(0.000599541 0.016694 -0.99986)
(0.000735292 0.015079 -0.999886)
(0.000782295 0.0130071 -0.999915)
(0.000734941 0.0105432 -0.999944)
(0.000599004 0.00776343 -0.99997)
(0.000390911 0.00475222 -0.999989)
(0.000135751 0.00159988 -0.999999)
(-0.000135751 -0.00159988 -0.999999)
(-0.000390911 -0.00475222 -0.999989)
(-0.000599004 -0.00776343 -0.99997)
(-0.000734941 -0.0105432 -0.999944)
(-0.000782295 -0.0130071 -0.999915)
(-0.000735292 -0.015079 -0.999886)
(-0.000599541 -0.016694 -0.99986)
(-0.000391383 -0.0178006 -0.999841)
(-0.000135937 -0.018363 -0.999831)
(0.000135937 -0.018363 -0.999831)
(0.000391383 -0.0178006 -0.999841)
(0.000599541 -0.016694 -0.99986)
(0.000735292 -0.015079 -0.999886)
(0.000782295 -0.0130071 -0.999915)
(0.000734941 -0.0105432 -0.999944)
(0.000599004 -0.00776343 -0.99997)
(0.000390911 -0.00475222 -0.999989)
(0.000135751 -0.00159988 -0.999999)
(-0.000135751 0.00159988 -0.999999)
(-0.000390911 0.00475222 -0.999989)
(-0.000599004 0.00776343 -0.99997)
(-0.000734941 0.0105432 -0.999944)
(-0.000782295 0.0130071 -0.999915)
(-0.000735292 0.015079 -0.999886)
(-0.000599541 0.016694 -0.99986)
(-0.000391383 0.0178006 -0.999841)
(-0.000135937 0.018363 -0.999831)
(0.000117959 0.0159312 -0.999873)
(0.000339624 0.0154433 -0.999881)
(0.000520263 0.0144834 -0.999895)
(0.00063808 0.0130824 -0.999914)
(0.000678887 0.0112849 -0.999936)