/*--------------------------------*- C++ -*----------------------------------*\
| =========                 |                                                 |
| \\      /  F ield         | OpenFOAM: The Open Source CFD Toolbox           |
|  \\    /   O peration     | Version:  2312                                  |
|   \\  /    A nd           | Website:  www.openfoam.com                      |
|    \\/     M anipulation  |                                                 |
\*---------------------------------------------------------------------------*/
FoamFile
{
    version     2.0;
    format      ascii;
    arch        "LSB;label=32;scalar=64";
    class       volScalarField;
    location    "0";
    object      dxu;
}
// * * * * * * * * * * * * * * * * * * * * * * * * * * * * * * * * * * * * * //

dimensions      [0 0 0 0 0 0 0];

internalField   nonuniform List<scalar> 
1620
(
-0.0798646
-0.0813076
-0.0838634
-0.0869605
-0.0900086
-0.0925813
-0.0944557
-0.0955631
-0.0959213
-0.0955834
-0.0946111
-0.0930676
-0.0910255
-0.0885877
-0.0859213
-0.0832968
-0.0811092
-0.0798327
-0.0798646
-0.0813076
-0.0838634
-0.0869605
-0.0900086
-0.0925813
-0.0944557
-0.0955631
-0.0959213
-0.0955834
-0.0944406
-0.0927263
-0.0905162
-0.0879687
-0.0852993
-0.0827972
-0.0808214
-0.0797489
-0.0652955
-0.0677636
-0.0725142
-0.0782589
-0.083763
-0.0882536
-0.0914183
-0.0932351
-0.0938103
-0.0932788
-0.091758
-0.0893383
-0.086095
-0.0821227
-0.0775959
-0.0728668
-0.0685812
-0.065714
-0.0652955
-0.0677636
-0.0725142
-0.0782589
-0.083763
-0.0882536
-0.0914183
-0.0932351
-0.0938103
-0.0932788
-0.0921736
-0.0901917
-0.0874304
-0.0838639
-0.0795163
-0.074592
-0.0697017
-0.0660757
-0.0697986
-0.0722084
-0.0766739
-0.081454
-0.0854348
-0.0882976
-0.0901275
-0.0911115
-0.0914126
-0.0911371
-0.090334
-0.0890027
-0.0871013
-0.0845638
-0.0813432
-0.0775231
-0.0735448
-0.0704744
-0.0697986
-0.0722084
-0.0766739
-0.081454
-0.0854348
-0.0882976
-0.0901275
-0.0911115
-0.0914126
-0.0911371
-0.0901551
-0.0886252
-0.0864878
-0.0837247
-0.0803645
-0.076589
-0.0729024
-0.0702583
-0.0823997
-0.0836368
-0.0857907
-0.0884026
-0.090991
-0.0931957
-0.0948169
-0.0957823
-0.0960963
-0.0957986
-0.0949411
-0.0935823
-0.0917927
-0.0896731
-0.0873815
-0.0851606
-0.0833469
-0.0823249
-0.0823997
-0.0836368
-0.0857907
-0.0884026
-0.090991
-0.0931957
-0.0948169
-0.0957823
-0.0960963
-0.0957986
-0.0948206
-0.0933409
-0.0914332
-0.0892382
-0.0869474
-0.0848148
-0.0831496
-0.0822679
-0.072342
-0.0743827
-0.0781665
-0.0825994
-0.0867147
-0.0899795
-0.092232
-0.0935083
-0.0939104
-0.0935376
-0.0924617
-0.0907252
-0.0883545
-0.0853883
-0.0819326
-0.0782497
-0.0748684
-0.072612
-0.072342
-0.0743827
-0.0781665
-0.0825994
-0.0867147
-0.0899795
-0.092232
-0.0935083
-0.0939104
-0.0935376
-0.0922105
-0.0902135
-0.0875667
-0.0843875
-0.0808686
-0.0773379
-0.0743072
-0.0724396
-0.0834499
-0.0841728
-0.0853782
-0.0868472
-0.088338
-0.0896475
-0.0906406
-0.0912478
-0.091449
-0.0912553
-0.0906972
-0.08982
-0.0886856
-0.0873805
-0.0860239
-0.0847735
-0.0838159
-0.0833336
-0.0834499
-0.0841728
-0.0853782
-0.0868472
-0.088338
-0.0896475
-0.0906406
-0.0912478
-0.091449
-0.0912553
-0.0907189
-0.0898635
-0.0887502
-0.087458
-0.0861003
-0.0848333
-0.0838493
-0.0833431
-0.0758181
-0.0776866
-0.0811061
-0.0851768
-0.0890489
-0.0921971
-0.094415
-0.0956913
-0.0960971
-0.0957187
-0.0946282
-0.09288
-0.0905216
-0.0876227
-0.0843243
-0.0809119
-0.0778887
-0.0759629
-0.0758181
-0.0776866
-0.0811061
-0.0851768
-0.0890489
-0.0921971
-0.094415
-0.0956913
-0.0960971
-0.0957187
-0.0944449
-0.0925084
-0.0899548
-0.086912
-0.0835815
-0.080288
-0.0775127
-0.0758494
-0.0863059
-0.0869907
-0.0881244
-0.08951
-0.0909261
-0.0921809
-0.0931406
-0.0937316
-0.0939283
-0.0937383
-0.093191
-0.0923335
-0.0912313
-0.0899738
-0.0886808
-0.0875042
-0.0866171
-0.0861824
-0.0863059
-0.0869907
-0.0881244
-0.08951
-0.0909261
-0.0921809
-0.0931406
-0.0937316
-0.0939283
-0.0937383
-0.0931427
-0.0922378
-0.0910916
-0.0898099
-0.0885236
-0.0873844
-0.0865515
-0.0861641
-0.0327132
-0.0367591
-0.0457498
-0.0570207
-0.0683838
-0.0782721
-0.0856584
-0.090057
-0.0914641
-0.0901967
-0.0867071
-0.0814471
-0.0748045
-0.0671026
-0.0586491
-0.0498463
-0.0414235
-0.0348733
-0.0327132
-0.0367591
-0.0457498
-0.0570207
-0.0683838
-0.0782721
-0.0856584
-0.090057
-0.0914641
-0.0901967
-0.0855756
-0.0793524
-0.0718876
-0.0637194
-0.0552838
-0.0470319
-0.0396343
-0.0342767
-0.0327003
-0.036159
-0.0440304
-0.0547134
-0.0666166
-0.0781803
-0.0877825
-0.0939991
-0.0960821
-0.0941953
-0.0891718
-0.0820432
-0.073703
-0.0648074
-0.0558379
-0.0472462
-0.0396756
-0.0342633
-0.0327003
-0.036159
-0.0440304
-0.0547134
-0.0666166
-0.0781803
-0.0877825
-0.0939991
-0.0960821
-0.0941953
-0.0861794
-0.0770257
-0.0674319
-0.0582718
-0.0499647
-0.0427836
-0.0370862
-0.0334662
-0.0380279
-0.0408741
-0.0471576
-0.0560199
-0.0663441
-0.0768037
-0.0858305
-0.0918679
-0.0939346
-0.0920409
-0.0870308
-0.0800428
-0.0720765
-0.0638568
-0.0559003
-0.0486628
-0.0427076
-0.0388417
-0.0380279
-0.0408741
-0.0471576
-0.0560199
-0.0663441
-0.0768037
-0.0858305
-0.0918679
-0.0939346
-0.0920409
-0.0860213
-0.0783263
-0.069914
-0.0616038
-0.0538959
-0.0471722
-0.0418717
-0.0385942
-0.0449827
-0.0477032
-0.053454
-0.0613376
-0.0701621
-0.0786468
-0.0855719
-0.0899966
-0.0914755
-0.0901129
-0.0864089
-0.0810211
-0.074586
-0.0676534
-0.06071
-0.054262
-0.0489389
-0.0455568
-0.0449827
-0.0477032
-0.053454
-0.0613376
-0.0701621
-0.0786468
-0.0855719
-0.0899966
-0.0914755
-0.0901129
-0.0856272
-0.0796239
-0.0727386
-0.065648
-0.0588728
-0.0528743
-0.0481591
-0.0453278
-0.0225657
-0.0246568
-0.0295701
-0.0371754
-0.0475196
-0.0607171
-0.0760801
-0.0901321
-0.096068
-0.0906206
-0.0786545
-0.0658558
-0.0545656
-0.0451418
-0.037384
-0.0310967
-0.0262873
-0.0232596
-0.0225657
-0.0246568
-0.0295701
-0.0371754
-0.0475196
-0.0607171
-0.0760801
-0.0901321
-0.096068
-0.0906206
-0.0759535
-0.0624187
-0.0511711
-0.0422083
-0.0351069
-0.0295548
-0.0254705
-0.023024
-0.0250501
-0.0271359
-0.0319475
-0.0393922
-0.0494603
-0.0620836
-0.0763216
-0.088823
-0.0939434
-0.0892296
-0.0785538
-0.066705
-0.0559491
-0.0468122
-0.039234
-0.0331038
-0.0284698
-0.0256247
-0.0250501
-0.0271359
-0.0319475
-0.0393922
-0.0494603
-0.0620836
-0.0763216
-0.088823
-0.0939434
-0.0892296
-0.058535
-0.0449516
-0.036663
-0.0314815
-0.0821029
-0.0709758
-0.0487702
-0.024696
-0.0513085
-0.0719607
-0.0816794
-0.0863634
-0.088821
-0.090192
-0.0909657
-0.0913649
-0.0914885
-0.0913649
-0.0909657
-0.090192
-0.088821
-0.0863634
-0.0816794
-0.0719607
-0.0513085
-0.0278338
-0.0513085
-0.0719607
-0.0816794
-0.0863634
-0.088821
-0.090192
-0.0909657
-0.0913649
-0.0914885
-0.0913649
-0.0909657
-0.090192
-0.088821
-0.0863634
-0.0816794
-0.0719607
-0.0513085
-0.0278338
-0.0483422
-0.0705832
-0.082558
-0.0888004
-0.0922203
-0.0941753
-0.0952943
-0.0958763
-0.0960571
-0.0958763
-0.0952943
-0.0941753
-0.0922203
-0.0888004
-0.082558
-0.0705832
-0.0483422
-0.0266341
-0.0483422
-0.0705832
-0.082558
-0.0888004
-0.0922203
-0.0941753
-0.0952943
-0.0958763
-0.0960571
-0.0958763
-0.0952943
-0.0941753
-0.0922203
-0.0888004
-0.082558
-0.0705832
-0.0483422
-0.0266341
-0.0673304
-0.0772317
-0.0842822
-0.0885074
-0.0909998
-0.092485
-0.0933556
-0.0938145
-0.093958
-0.0938145
-0.0933556
-0.092485
-0.0909998
-0.0885074
-0.0842822
-0.0772317
-0.0673304
-0.0612847
-0.0673304
-0.0772317
-0.0842822
-0.0885074
-0.0909998
-0.092485
-0.0933556
-0.0938145
-0.093958
-0.0938145
-0.0933556
-0.092485
-0.0909998
-0.0885074
-0.0842822
-0.0772317
-0.0673304
-0.0612847
-0.0702126
-0.0781257
-0.0837765
-0.0871575
-0.0891479
-0.090332
-0.0910254
-0.0913906
-0.0915048
-0.0913906
-0.0910254
-0.090332
-0.0891479
-0.0871575
-0.0837765
-0.0781257
-0.0702126
-0.0654269
-0.0702126
-0.0781257
-0.0837765
-0.0871575
-0.0891479
-0.090332
-0.0910254
-0.0913906
-0.0915048
-0.0913906
-0.0910254
-0.090332
-0.0891479
-0.0871575
-0.0837765
-0.0781257
-0.0702126
-0.0654269
-0.0705462
-0.078981
-0.0856994
-0.0900457
-0.0927331
-0.0943808
-0.0953634
-0.0958864
-0.0960506
-0.0958864
-0.0953634
-0.0943808
-0.0927331
-0.0900457
-0.0856994
-0.078981
-0.0705462
-0.0659159
-0.0705462
-0.078981
-0.0856994
-0.0900457
-0.0927331
-0.0943808
-0.0953634
-0.0958864
-0.0960506
-0.0958864
-0.0953634
-0.0943808
-0.0927331
-0.0900457
-0.0856994
-0.078981
-0.0705462
-0.0659159
-0.0734564
-0.0800653
-0.0854653
-0.0890144
-0.0912288
-0.0925936
-0.09341
-0.0938453
-0.0939821
-0.0938453
-0.09341
-0.0925936
-0.0912288
-0.0890144
-0.0854653
-0.0800653
-0.0734564
-0.0699235
-0.0734564
-0.0800653
-0.0854653
-0.0890144
-0.0912288
-0.0925936
-0.09341
-0.0938453
-0.0939821
-0.0938453
-0.09341
-0.0925936
-0.0912288
-0.0890144
-0.0854653
-0.0800653
-0.0734564
-0.0699235
-0.0796197
-0.0828411
-0.085868
-0.0880815
-0.0895636
-0.0905188
-0.0911062
-0.0914245
-0.0915252
-0.0914245
-0.0911062
-0.0905188
-0.0895636
-0.0880815
-0.085868
-0.0828411
-0.0796197
-0.0780879
-0.0796197
-0.0828411
-0.085868
-0.0880815
-0.0895636
-0.0905188
-0.0911062
-0.0914245
-0.0915252
-0.0914245
-0.0911062
-0.0905188
-0.0895636
-0.0880815
-0.085868
-0.0828411
-0.0796197
-0.0780879
-0.0814952
-0.0850326
-0.0886072
-0.0913923
-0.0933457
-0.0946449
-0.0954602
-0.0959073
-0.0960496
-0.0959073
-0.0954602
-0.0946449
-0.0933457
-0.0913923
-0.0886072
-0.0850326
-0.0814952
-0.0799011
-0.0814952
-0.0850326
-0.0886072
-0.0913923
-0.0933457
-0.0946449
-0.0954602
-0.0959073
-0.0960496
-0.0959073
-0.0954602
-0.0946449
-0.0933457
-0.0913923
-0.0886072
-0.0850326
-0.0814952
-0.0799011
-0.0827875
-0.0853914
-0.0881044
-0.0902758
-0.0918291
-0.0928762
-0.0935391
-0.0939044
-0.094021
-0.0939044
-0.0935391
-0.0928762
-0.0918291
-0.0902758
-0.0881044
-0.0853914
-0.0827875
-0.0816402
-0.0827875
-0.0853914
-0.0881044
-0.0902758
-0.0918291
-0.0928762
-0.0935391
-0.0939044
-0.094021
-0.0939044
-0.0935391
-0.0928762
-0.0918291
-0.0902758
-0.0881044
-0.0853914
-0.0827875
-0.0816402
-0.0835768
-0.0853211
-0.0872038
-0.08876
-0.0899011
-0.0906836
-0.0911846
-0.0914627
-0.0915517
-0.0914627
-0.0911846
-0.0906836
-0.0899011
-0.08876
-0.0872038
-0.0853211
-0.0835768
-0.0828273
-0.0835768
-0.0853211
-0.0872038
-0.08876
-0.0899011
-0.0906836
-0.0911846
-0.0914627
-0.0915517
-0.0914627
-0.0911846
-0.0906836
-0.0899011
-0.08876
-0.0872038
-0.0853211
-0.0835768
-0.0828273
-0.0867567
-0.0885561
-0.0906333
-0.0924672
-0.0938851
-0.0948962
-0.095561
-0.0959359
-0.0960568
-0.0959359
-0.095561
-0.0948962
-0.0938851
-0.0924671
-0.0906333
-0.0885561
-0.0867567
-0.0860175
-0.0867567
-0.0885561
-0.0906333
-0.0924672
-0.0938851
-0.0948962
-0.095561
-0.0959359
-0.0960568
-0.0959359
-0.095561
-0.0948962
-0.0938851
-0.0924671
-0.0906333
-0.0885561
-0.0867567
-0.0860175
-0.0869384
-0.0882576
-0.089817
-0.091227
-0.0923391
-0.0931439
-0.0936784
-0.0939819
-0.0940801
-0.0939819
-0.0936785
-0.0931439
-0.0923391
-0.091227
-0.089817
-0.0882576
-0.0869384
-0.0864048
-0.0869384
-0.0882576
-0.089817
-0.091227
-0.0923391
-0.0931439
-0.0936784
-0.0939819
-0.0940801
-0.0939819
-0.0936785
-0.0931439
-0.0923391
-0.091227
-0.089817
-0.0882576
-0.0869384
-0.0864048
-0.0865429
-0.0874271
-0.0884991
-0.0894942
-0.0902969
-0.0908878
-0.0912851
-0.0915123
-0.0915861
-0.0915123
-0.0912851
-0.0908878
-0.0902969
-0.0894942
-0.0884991
-0.0874271
-0.0865429
-0.0861911
-0.0865429
-0.0874271
-0.0884991
-0.0894942
-0.0902969
-0.0908878
-0.0912851
-0.0915123
-0.0915861
-0.0915123
-0.0912851
-0.0908878
-0.0902969
-0.0894942
-0.0884991
-0.0874271
-0.0865429
-0.0861911
-0.0900677
-0.0910252
-0.0922371
-0.0934157
-0.0944065
-0.0951602
-0.095679
-0.0959802
-0.0960788
-0.0959802
-0.095679
-0.0951602
-0.0944065
-0.0934157
-0.0922371
-0.0910252
-0.0900677
-0.0896968
-0.0900677
-0.0910252
-0.0922371
-0.0934157
-0.0944065
-0.0951602
-0.095679
-0.0959802
-0.0960788
-0.0959802
-0.095679
-0.0951602
-0.0944065
-0.0934157
-0.0922371
-0.0910252
-0.0900677
-0.0896968
-0.0892512
-0.0900207
-0.0910017
-0.0919632
-0.0927772
-0.0933999
-0.0938303
-0.0940808
-0.0941629
-0.0940808
-0.0938303
-0.0933999
-0.0927772
-0.0919632
-0.0910017
-0.0900207
-0.0892512
-0.0889544
-0.0892512
-0.0900207
-0.0910017
-0.0919632
-0.0927772
-0.0933999
-0.0938303
-0.0940808
-0.0941629
-0.0940808
-0.0938303
-0.0933999
-0.0927772
-0.0919632
-0.0910017
-0.0900207
-0.0892512
-0.0889544
-0.0881449
-0.0886686
-0.0893478
-0.0900264
-0.0906112
-0.0910651
-0.0913822
-0.091568
-0.0916291
-0.091568
-0.0913822
-0.0910651
-0.0906112
-0.0900264
-0.0893478
-0.0886686
-0.0881449
-0.0879451
-0.0881449
-0.0886686
-0.0893478
-0.0900264
-0.0906112
-0.0910651
-0.0913822
-0.091568
-0.0916291
-0.091568
-0.0913822
-0.0910651
-0.0906112
-0.0900264
-0.0893478
-0.0886686
-0.0881449
-0.0879451
-0.091866
-0.0924619
-0.093257
-0.0940776
-0.0948066
-0.0953871
-0.0958003
-0.0960456
-0.0961268
-0.0960456
-0.0958003
-0.0953871
-0.0948066
-0.0940775
-0.093257
-0.0924619
-0.091866
-0.0916424
-0.091866
-0.0924619
-0.093257
-0.0940776
-0.0948066
-0.0953871
-0.0958003
-0.0960456
-0.0961268
-0.0960456
-0.0958003
-0.0953871
-0.0948066
-0.0940775
-0.093257
-0.0924619
-0.091866
-0.0916424
-0.0911566
-0.0915696
-0.0921315
-0.0927245
-0.0932629
-0.0936997
-0.0940151
-0.094204
-0.0942668
-0.094204
-0.0940151
-0.0936997
-0.0932629
-0.0927245
-0.0921315
-0.0915696
-0.0911566
-0.0910033
-0.0911566
-0.0915696
-0.0921315
-0.0927245
-0.0932629
-0.0936997
-0.0940151
-0.094204
-0.0942668
-0.094204
-0.0940151
-0.0936997
-0.0932629
-0.0927245
-0.0921315
-0.0915696
-0.0911566
-0.0910033
-0.0891853
-0.0895187
-0.089971
-0.0904472
-0.0908785
-0.0912274
-0.091479
-0.0916296
-0.0916796
-0.0916296
-0.091479
-0.0912274
-0.0908785
-0.0904472
-0.089971
-0.0895187
-0.0891853
-0.0890615
-0.0891853
-0.0895187
-0.089971
-0.0904472
-0.0908785
-0.0912274
-0.091479
-0.0916296
-0.0916796
-0.0916296
-0.091479
-0.0912274
-0.0908785
-0.0904472
-0.089971
-0.0895187
-0.0891853
-0.0890615
-0.0930928
-0.0934892
-0.0940373
-0.0946274
-0.0951739
-0.0956247
-0.0959545
-0.0961539
-0.0962205
-0.096154
-0.0959545
-0.0956247
-0.0951739
-0.0946274
-0.0940373
-0.0934892
-0.0930928
-0.0929471
-0.0930928
-0.0934892
-0.0940373
-0.0946274
-0.0951739
-0.0956247
-0.0959545
-0.0961539
-0.0962205
-0.096154
-0.0959545
-0.0956247
-0.0951739
-0.0946274
-0.0940373
-0.0934892
-0.0930928
-0.0929471
-0.092047
-0.0923324
-0.0927321
-0.0931691
-0.09358
-0.0939236
-0.0941778
-0.0943325
-0.0943844
-0.0943325
-0.0941778
-0.0939236
-0.09358
-0.0931691
-0.0927321
-0.0923324
-0.092047
-0.0919429
-0.092047
-0.0923324
-0.0927321
-0.0931691
-0.09358
-0.0939236
-0.0941778
-0.0943325
-0.0943844
-0.0943325
-0.0941778
-0.0939236
-0.09358
-0.0931691
-0.0927321
-0.0923324
-0.092047
-0.0919429
-0.0901747
-0.0903579
-0.0906178
-0.0909064
-0.0911821
-0.091416
-0.091591
-0.0916984
-0.0917345
-0.0916984
-0.091591
-0.091416
-0.0911821
-0.0909064
-0.0906178
-0.0903579
-0.0901747
-0.0901083
-0.0901747
-0.0903579
-0.0906178
-0.0909064
-0.0911821
-0.091416
-0.091591
-0.0916984
-0.0917345
-0.0916984
-0.091591
-0.091416
-0.0911821
-0.0909064
-0.0906178
-0.0903579
-0.0901747
-0.0901083
-0.0940799
-0.0943494
-0.0947322
-0.0951581
-0.0955659
-0.0959125
-0.0961721
-0.0963316
-0.0963853
-0.0963316
-0.0961721
-0.0959125
-0.0955659
-0.0951581
-0.0947322
-0.0943494
-0.0940799
-0.0939824
-0.0940799
-0.0943494
-0.0947322
-0.0951581
-0.0955659
-0.0959125
-0.0961721
-0.0963316
-0.0963853
-0.0963316
-0.0961721
-0.0959125
-0.0955659
-0.0951581
-0.0947322
-0.0943494
-0.0940799
-0.0939824
-0.092752
-0.0929514
-0.093237
-0.0935581
-0.0938688
-0.0941353
-0.0943366
-0.0944609
-0.0945029
-0.0944609
-0.0943366
-0.0941353
-0.0938688
-0.0935581
-0.093237
-0.0929514
-0.092752
-0.0926801
-0.092752
-0.0929514
-0.093237
-0.0935581
-0.0938688
-0.0941353
-0.0943366
-0.0944609
-0.0945029
-0.0944609
-0.0943366
-0.0941353
-0.0938688
-0.0935581
-0.093237
-0.0929514
-0.092752
-0.0926801
-0.0905973
-0.0907295
-0.0909205
-0.0911374
-0.0913496
-0.0915334
-0.0916733
-0.0917602
-0.0917896
-0.0917602
-0.0916733
-0.0915334
-0.0913496
-0.0911374
-0.0909205
-0.0907295
-0.0905973
-0.0905498
-0.0905973
-0.0907295
-0.0909205
-0.0911374
-0.0913496
-0.0915334
-0.0916733
-0.0917602
-0.0917896
-0.0917602
-0.0916733
-0.0915334
-0.0913496
-0.0911374
-0.0909205
-0.0907295
-0.0905973
-0.0905498
-0.0951537
-0.0953105
-0.0955396
-0.0958035
-0.0960656
-0.096296
-0.0964733
-0.0965844
-0.0966221
-0.0965844
-0.0964733
-0.096296
-0.0960656
-0.0958035
-0.0955396
-0.0953105
-0.0951537
-0.0950978
-0.0951537
-0.0953105
-0.0955396
-0.0958035
-0.0960656
-0.096296
-0.0964733
-0.0965844
-0.0966221
-0.0965844
-0.0964733
-0.096296
-0.0960656
-0.0958035
-0.0955396
-0.0953105
-0.0951537
-0.0950978
-0.0933396
-0.0934759
-0.0936747
-0.0939034
-0.0941302
-0.0943293
-0.0944824
-0.0945782
-0.0946108
-0.0945782
-0.0944824
-0.0943293
-0.0941302
-0.0939034
-0.0936747
-0.0934759
-0.0933396
-0.0932911
-0.0933396
-0.0934759
-0.0936747
-0.0939034
-0.0941302
-0.0943293
-0.0944824
-0.0945782
-0.0946108
-0.0945782
-0.0944824
-0.0943293
-0.0941302
-0.0939034
-0.0936747
-0.0934759
-0.0933396
-0.0932911
-0.0909636
-0.0910564
-0.0911924
-0.0913499
-0.0915072
-0.0916462
-0.0917537
-0.0918212
-0.0918442
-0.0918212
-0.0917537
-0.0916462
-0.0915073
-0.0913499
-0.0911924
-0.0910564
-0.0909636
-0.0909306
-0.0909636
-0.0910564
-0.0911924
-0.0913499
-0.0915072
-0.0916462
-0.0917537
-0.0918212
-0.0918442
-0.0918212
-0.0917537
-0.0916462
-0.0915073
-0.0913499
-0.0911924
-0.0910564
-0.0909636
-0.0909306
-0.095846
-0.0959631
-0.096136
-0.0963383
-0.0965424
-0.0967245
-0.0968664
-0.0969561
-0.0969868
-0.0969561
-0.0968664
-0.0967245
-0.0965424
-0.0963383
-0.096136
-0.095963
-0.095846
-0.0958045
-0.095846
-0.0959631
-0.096136
-0.0963383
-0.0965424
-0.0967245
-0.0968664
-0.0969561
-0.0969868
-0.0969561
-0.0968664
-0.0967245
-0.0965424
-0.0963383
-0.096136
-0.095963
-0.095846
-0.0958045
-0.093927
-0.0940083
-0.0941292
-0.0942714
-0.094416
-0.094546
-0.0946479
-0.0947126
-0.0947347
-0.0947126
-0.0946479
-0.094546
-0.094416
-0.0942714
-0.0941292
-0.0940083
-0.093927
-0.0938983
-0.093927
-0.0940083
-0.0941292
-0.0942714
-0.094416
-0.094546
-0.0946479
-0.0947126
-0.0947347
-0.0947126
-0.0946479
-0.094546
-0.094416
-0.0942714
-0.0941292
-0.0940083
-0.093927
-0.0938983
-0.0912895
-0.0913507
-0.0914417
-0.0915489
-0.091658
-0.0917561
-0.0918331
-0.091882
-0.0918987
-0.091882
-0.0918331
-0.0917561
-0.091658
-0.0915489
-0.0914417
-0.0913507
-0.0912895
-0.0912679
-0.0912895
-0.0913507
-0.0914417
-0.0915489
-0.091658
-0.0917561
-0.0918331
-0.091882
-0.0918987
-0.091882
-0.0918331
-0.0917561
-0.091658
-0.0915489
-0.0914417
-0.0913507
-0.0912895
-0.0912679
)
;

boundaryField
{
    fixed
    {
        type            calculated;
        value           uniform -0;
    }
    inside
    {
        type            calculated;
        value           nonuniform List<scalar> 
540
(
-0.09
-0.09
-0.09
-0.09
-0.09
-0.09
-0.09
-0.09
-0.09
-0.09
-0.09
-0.09
-0.09
-0.09
-0.09
-0.09
-0.09
-0.09
-0.09
-0.09
-0.09
-0.09
-0.09
-0.09
-0.09
-0.09
-0.09
-0.09
-0.09
-0.09
-0.09
-0.09
-0.09
-0.09
-0.09
-0.09
-0.09
-0.09
-0.09
-0.09
-0.09
-0.09
-0.09
-0.09
-0.09
-0.09
-0.09
-0.09
-0.09
-0.09
-0.09
-0.09
-0.09
-0.09
-0.09
-0.09
-0.09
-0.09
-0.09
-0.09
-0.09
-0.09
-0.09
-0.09
-0.09
-0.09
-0.09
-0.09
-0.09
-0.09
-0.09
-0.09
-0.09
-0.09
-0.09
-0.09
-0.09
-0.09
-0.09
-0.09
-0.09
-0.09
-0.09
-0.09
-0.09
-0.09
-0.09
-0.09
-0.09
-0.09
-0.09
-0.09
-0.09
-0.09
-0.09
-0.09
-0.09
-0.09
-0.09
-0.09
-0.09
-0.09
-0.09
-0.09
-0.09
-0.09
-0.09
-0.09
-0.09
-0.09
-0.09
-0.09
-0.09
-0.09
-0.09
-0.09
-0.09
-0.09
-0.09
-0.09
-0.09
-0.09
-0.09
-0.09
-0.09
-0.09
-0.09
-0.09
-0.09
-0.09
-0.09
-0.09
-0.09
-0.09
-0.09
-0.09
-0.09
-0.09
-0.09
-0.09
-0.09
-0.09
-0.09
-0.09
-0.09
-0.09
-0.09
-0.09
-0.09
-0.09
-0.09
-0.09
-0.09
-0.09
-0.09
-0.09
-0.09
-0.09
-0.09
-0.09
-0.09
-0.09
-0.09
-0.09
-0.09
-0.09
-0.09
-0.09
-0.09
-0.09
-0.09
-0.09
-0.09
-0.09
-0.09
-0.09
-0.09
-0.09
-0.09
-0.09
-0.09
-0.09
-0.09
-0.09
-0.09
-0.09
-0.09
-0.09
-0.09
-0.09
-0.09
-0.09
-0.09
-0.09
-0.09
-0.09
-0.09
-0.09
-0.09
-0.09
-0.09
-0.09
-0.09
-0.09
-0.09
-0.09
-0.09
-0.09
-0.09
-0.09
-0.09
-0.09
-0.09
-0.09
-0.09
-0.09
-0.09
-0.09
-0.09
-0.09
-0.09
-0.09
-0.09
-0.09
-0.09
-0.09
-0.09
-0.09
-0.09
-0.09
-0.09
-0.09
-0.09
-0.09
-0.09
-0.09
-0.09
-0.09
-0.09
-0.09
-0.09
-0.09
-0.09
-0.09
-0.09
-0.09
-0.09
-0.09
-0.09
-0.09
-0.09
-0.09
-0.09
-0.09
-0.09
-0.09
-0.09
-0.09
-0.09
-0.09
-0.09
-0.09
-0.09
-0.09
-0.09
-0.09
-0.09
-0.09
-0.09
-0.09
-0.09
-0.09
-0.09
-0.09
-0.09
-0.09
-0.09
-0.09
-0.09
-0.09
-0.09
-0.09
-0.09
-0.09
-0.09
-0.09
-0.09
-0.09
-0.09
-0.09
-0.09
-0.09
-0.09
-0.09
-0.09
-0.09
-0.09
-0.09
-0.09
-0.09
-0.09
-0.09
-0.09
-0.09
-0.09
-0.09
-0.09
-0.09
-0.09
-0.09
-0.09
-0.09
-0.09
-0.09
-0.09
-0.09
-0.09
-0.09
-0.09
-0.09
-0.09
-0.09
-0.09
-0.09
-0.09
-0.09
-0.09
-0.09
-0.09
-0.09
-0.09
-0.09
-0.09
-0.09
-0.09
-0.09
-0.09
-0.09
-0.09
-0.09
-0.09
-0.09
-0.09
-0.09
-0.09
-0.09
-0.09
-0.09
-0.09
-0.09
-0.09
-0.09
-0.09
-0.09
-0.09
-0.09
-0.09
-0.09
-0.09
-0.09
-0.09
-0.09
-0.09
-0.09
-0.09
-0.09
-0.09
-0.09
-0.09
-0.09
-0.09
-0.09
-0.09
-0.09
-0.09
-0.09
-0.09
-0.09
-0.09
-0.09
-0.09
-0.09
-0.09
-0.09
-0.09
-0.09
-0.09
-0.09
-0.09
-0.09
-0.09
-0.09
-0.09
-0.09
-0.09
-0.09
-0.09
-0.09
-0.09
-0.09
-0.09
-0.09
-0.09
-0.09
-0.09
-0.09
-0.09
-0.09
-0.09
-0.09
-0.09
-0.09
-0.09
-0.09
-0.09
-0.09
-0.09
-0.09
-0.09
-0.09
-0.09
-0.09
-0.09
-0.09
-0.09
-0.09
-0.09
-0.09
-0.09
-0.09
-0.09
-0.09
-0.09
-0.09
-0.09
-0.09
-0.09
-0.09
-0.09
-0.09
-0.09
-0.09
-0.09
-0.09
-0.09
-0.09
-0.09
-0.09
-0.09
-0.09
-0.09
-0.09
-0.09
-0.09
-0.09
-0.09
-0.09
-0.09
-0.09
-0.09
-0.09
-0.09
-0.09
-0.09
-0.09
-0.09
-0.09
-0.09
-0.09
-0.09
-0.09
-0.09
-0.09
-0.09
-0.09
-0.09
-0.09
-0.09
-0.09
-0.09
-0.09
-0.09
-0.09
-0.09
-0.09
-0.09
-0.09
-0.09
-0.09
-0.09
-0.09
-0.09
-0.09
-0.09
-0.09
-0.09
-0.09
-0.09
-0.09
-0.09
-0
-0
-0
-0
-0
-0
-0
-0
-0
-0
-0
-0
-0
-0
-0
-0
-0
-0
-0
-0
-0
-0
-0
-0
-0
-0
-0
-0
-0
-0
-0
-0
-0
-0
-0
-0
-0
-0
-0
-0
)
;
    }
    outside
    {
        type            calculated;
        value           uniform -0;
    }
}


// ************************************************************************* //
