/*--------------------------------*- C++ -*----------------------------------*\
| =========                 |                                                 |
| \\      /  F ield         | OpenFOAM: The Open Source CFD Toolbox           |
|  \\    /   O peration     | Version:  2312                                  |
|   \\  /    A nd           | Website:  www.openfoam.com                      |
|    \\/     M anipulation  |                                                 |
\*---------------------------------------------------------------------------*/
FoamFile
{
    version     2.0;
    format      ascii;
    arch        "LSB;label=32;scalar=64";
    class       volScalarField;
    location    "0";
    object      dzv;
}
// * * * * * * * * * * * * * * * * * * * * * * * * * * * * * * * * * * * * * //

dimensions      [0 0 0 0 0 0 0];

internalField   nonuniform List<scalar> 
1620
(
7.89158e-18
-0.00471394
-0.00921694
-0.0132443
-0.0166196
-0.0192696
-0.0212009
-0.0224638
-0.02312
-0.0232222
-0.0228042
-0.0218772
-0.020431
-0.0184384
-0.0158649
-0.0126863
-0.00891425
-0.00462843
-4.47994e-18
0.00471394
0.00921694
0.0132443
0.0166196
0.0192696
0.0212009
0.0224638
0.02312
0.0232222
0.0210396
0.0200814
0.0186145
0.0166438
0.014173
0.0112156
0.00780865
0.00402832
6.00255e-18
-0.0051121
-0.0100231
-0.0143981
-0.0180122
-0.0207806
-0.0227284
-0.0239368
-0.0244983
-0.0244899
-0.0239623
-0.0229364
-0.021405
-0.019337
-0.016686
-0.013406
-0.00947948
-0.00495748
-3.40756e-18
0.0051121
0.0100231
0.0143981
0.0180122
0.0207806
0.0227284
0.0239368
0.0244983
0.0244899
0.0253963
0.024516
0.0231605
0.0212516
0.0186765
0.0153025
0.0110232
0.00584567
5.84394e-18
-0.00582714
-0.0110578
-0.0152343
-0.0182904
-0.0203917
-0.0217565
-0.0225672
-0.0229497
-0.0229772
-0.0226789
-0.0220449
-0.021026
-0.0195294
-0.0174144
-0.0144991
-0.0106066
-0.0056872
-3.31752e-18
0.00582714
0.0110578
0.0152343
0.0182904
0.0203917
0.0217565
0.0225672
0.0229497
0.0229772
0.0218818
0.0211741
0.0200563
0.0184543
0.0162617
0.0133543
0.00963266
0.00510727
8.18798e-18
-0.004497
-0.00879288
-0.0126461
-0.0158932
-0.0184616
-0.020351
-0.0216014
-0.0222647
-0.0223868
-0.0219971
-0.0211052
-0.0197019
-0.0177638
-0.0152627
-0.0121823
-0.00854242
-0.00442646
1.76989e-18
0.004497
0.00879288
0.0126461
0.0158932
0.0184616
0.020351
0.0216014
0.0222647
0.0223868
0.0204029
0.0194956
0.0180897
0.0161873
0.013791
0.0109143
0.00759627
0.00391565
6.67444e-18
-0.00530001
-0.0102843
-0.014591
-0.0180368
-0.0206082
-0.0223913
-0.0235014
-0.0240418
-0.0240855
-0.0236709
-0.022802
-0.0214499
-0.0195567
-0.0170421
-0.0138226
-0.00985033
-0.00517384
-3.78898e-18
0.00530001
0.0102843
0.014591
0.0180368
0.0206082
0.0223913
0.0235014
0.0240418
0.0240855
0.0222679
0.0213189
0.0198756
0.0179156
0.0154072
0.0123244
0.00867109
0.00451212
1.51257e-18
-0.00294468
-0.00576808
-0.00833417
-0.0105425
-0.012336
-0.013695
-0.0146254
-0.0151446
-0.0152716
-0.0150201
-0.0143966
-0.0133996
-0.012024
-0.0102664
-0.00813518
-0.00566253
-0.00291532
1.51257e-18
0.00294468
0.00576808
0.00833417
0.0105425
0.012336
0.013695
0.0146254
0.0151446
0.0152716
0.015498
0.014872
0.0138667
0.0124711
0.0106751
0.00848062
0.00591615
0.00305057
7.53417e-18
-0.00544626
-0.010606
-0.0151314
-0.0188224
-0.0216328
-0.0236185
-0.0248763
-0.0255017
-0.0255667
-0.0251119
-0.0241455
-0.0226445
-0.0205595
-0.0178238
-0.0143737
-0.0101853
-0.00532542
-4.27704e-18
0.00544626
0.010606
0.0151314
0.0188224
0.0216328
0.0236185
0.0248763
0.0255017
0.0255667
0.0238337
0.0228102
0.0212477
0.0191268
0.01642
0.0131079
0.00920294
0.00477989
1.72232e-18
-0.00314351
-0.00616406
-0.00892224
-0.0113114
-0.0132664
-0.0147591
-0.0157886
-0.0163677
-0.0165134
-0.0162393
-0.0155531
-0.0144565
-0.0129487
-0.0110321
-0.00872231
-0.00605863
-0.0031143
1.72232e-18
0.00314351
0.00616406
0.00892224
0.0113114
0.0132664
0.0147591
0.0157886
0.0163677
0.0165134
0.0148255
0.0141609
0.0131096
0.0116834
0.00989935
0.00778436
0.00538214
0.00275786
2.74485e-18
-0.00440468
-0.00890185
-0.0132844
-0.0172865
-0.0206328
-0.0231088
-0.0246135
-0.025166
-0.0248687
-0.0238571
-0.0222603
-0.0201806
-0.0176885
-0.0148257
-0.011613
-0.00806005
-0.00417872
-3.70974e-18
0.00440468
0.00890185
0.0132844
0.0172865
0.0206328
0.0231088
0.0246135
0.025166
0.0248687
0.023049
0.0211932
0.0188889
0.0162677
0.0134083
0.0103482
0.00709746
0.00365067
3.24792e-18
-0.00453489
-0.00929776
-0.0142118
-0.0190876
-0.0235904
-0.0272683
-0.0296843
-0.0306018
-0.0300803
-0.0284009
-0.0259087
-0.0228947
-0.0195552
-0.0159992
-0.0122722
-0.00837816
-0.00429715
-4.38965e-18
0.00453489
0.00929776
0.0142118
0.0190876
0.0235904
0.0272683
0.0296843
0.0306018
0.0300803
0.0259237
0.0228753
0.0195423
0.0161896
0.0129089
0.00970093
0.00652357
0.00331438
3.5116e-18
-0.00372727
-0.00765156
-0.0117371
-0.0158591
-0.0197606
-0.0230487
-0.0252898
-0.0261973
-0.0257736
-0.0242719
-0.0220345
-0.0193553
-0.0164296
-0.0133626
-0.0101957
-0.00692953
-0.00354193
-1.99349e-18
0.00372727
0.00765156
0.0117371
0.0158591
0.0197606
0.0230487
0.0252898
0.0261973
0.0257736
0.0232463
0.0208487
0.0180827
0.0151711
0.0122166
0.00924687
0.0062476
0.00318152
3.77613e-18
-0.00352538
-0.00716555
-0.0108265
-0.0143461
-0.0174942
-0.0200085
-0.0216681
-0.0223671
-0.0221407
-0.0211282
-0.0195071
-0.0174397
-0.0150488
-0.0124135
-0.00957759
-0.0065603
-0.00336676
-2.14365e-18
0.00352538
0.00716555
0.0108265
0.0143461
0.0174942
0.0200085
0.0216681
0.0223671
0.0221407
0.0200839
0.018342
0.0161972
0.0138064
0.0112625
0.00860824
0.0058539
0.0029903
-1.45277e-18
-0.00259935
-0.00546872
-0.00875929
-0.0126487
-0.0172796
-0.0225016
-0.027255
-0.029388
-0.0278217
-0.0240611
-0.0199141
-0.0161384
-0.012847
-0.00995082
-0.00732702
-0.00486159
-0.00245205
-1.45277e-18
0.00259935
0.00546872
0.00875929
0.0126487
0.0172796
0.0225016
0.027255
0.029388
0.0278217
0.0224235
0.01817
0.0145024
0.0114252
0.00878708
0.00643915
0.004259
0.00214418
-1.50051e-18
-0.00244672
-0.00513631
-0.0081949
-0.0117579
-0.0159022
-0.0204183
-0.0243704
-0.026119
-0.0249112
-0.0218402
-0.0183019
-0.014968
-0.0119906
-0.00932685
-0.00688672
-0.00457719
-0.00231047
-1.50051e-18
0.00244672
0.00513631
0.0081949
0.0117579
0.0159022
0.0204183
0.0243704
0.026119
0.0249112
-3.50628e-18
-2.69262e-18
-2.19613e-18
-1.88576e-18
-0.0263595
-0.0224006
-0.0141577
-2.29367e-17
0.0133562
0.0205629
0.0237951
0.0253335
0.0261366
0.0265836
0.0268355
0.0269655
0.0270057
0.0269655
0.0268355
0.0265836
0.0261366
0.0253335
0.0237951
0.0205629
0.0133562
1.31438e-17
-0.0133562
-0.0205629
-0.0237951
-0.0253335
-0.0261366
-0.0265836
-0.0268355
-0.0269655
-0.0270057
-0.0269655
-0.0268355
-0.0265836
-0.0261366
-0.0253335
-0.0237951
-0.0205629
-0.0133562
-2.35058e-17
0.0146363
0.0237139
0.0283499
0.0307328
0.032031
0.0327712
0.0331942
0.033414
0.0334823
0.033414
0.0331942
0.0327712
0.032031
0.0307328
0.0283499
0.0237139
0.0146363
1.48612e-17
-0.0146363
-0.0237139
-0.0283499
-0.0307328
-0.032031
-0.0327712
-0.0331942
-0.033414
-0.0334823
-0.033414
-0.0331942
-0.0327712
-0.032031
-0.0307328
-0.0283499
-0.0237139
-0.0146363
-2.65771e-17
0.0115554
0.0194762
0.0239765
0.0264621
0.0278761
0.0287032
0.0291832
0.0294348
0.0295132
0.0294348
0.0291832
0.0287032
0.0278761
0.0264621
0.0239765
0.0194762
0.0115554
-3.67292e-18
-0.0115554
-0.0194762
-0.0239765
-0.0264621
-0.0278761
-0.0287032
-0.0291832
-0.0294348
-0.0295132
-0.0294348
-0.0291832
-0.0287032
-0.0278761
-0.0264621
-0.0239765
-0.0194762
-0.0115554
-2.14315e-17
0.0103468
0.0173393
0.0212495
0.023385
0.0245913
0.0252939
0.0257006
0.0259135
0.0259799
0.0259135
0.0257006
0.0252939
0.0245913
0.023385
0.0212495
0.0173393
0.0103468
-3.56599e-18
-0.0103468
-0.0173393
-0.0212495
-0.023385
-0.0245913
-0.0252939
-0.0257006
-0.0259135
-0.0259799
-0.0259135
-0.0257006
-0.0252939
-0.0245913
-0.023385
-0.0212495
-0.0173393
-0.0103468
-2.08076e-17
0.0114937
0.0198946
0.0250422
0.0280502
0.0298246
0.0308863
0.0315111
0.0318411
0.0319445
0.0318411
0.0315111
0.0308863
0.0298246
0.0280502
0.0250422
0.0198946
0.0114937
-4.24127e-18
-0.0114937
-0.0198946
-0.0250422
-0.0280502
-0.0298246
-0.0308863
-0.0315111
-0.0318411
-0.0319445
-0.0318411
-0.0315111
-0.0308863
-0.0298246
-0.0280502
-0.0250422
-0.0198946
-0.0114937
-2.47479e-17
0.010337
0.0179131
0.0225707
0.0252995
0.026912
0.0278779
0.0284466
0.0287473
0.0288414
0.0287473
0.0284466
0.0278779
0.026912
0.0252995
0.0225707
0.0179131
0.010337
-4.19429e-18
-0.010337
-0.0179131
-0.0225707
-0.0252995
-0.026912
-0.0278779
-0.0284466
-0.0287473
-0.0288414
-0.0287473
-0.0284466
-0.0278779
-0.026912
-0.0252995
-0.0225707
-0.0179131
-0.010337
-2.44738e-17
0.0079593
0.0141632
0.0182897
0.0208683
0.0224617
0.0234443
0.0240336
0.0243485
0.0244475
0.0243485
0.0240336
0.0234443
0.0224617
0.0208683
0.0182897
0.0141632
0.0079593
-4.25967e-18
-0.0079593
-0.0141632
-0.0182897
-0.0208683
-0.0224617
-0.0234443
-0.0240336
-0.0243485
-0.0244475
-0.0243485
-0.0240336
-0.0234443
-0.0224617
-0.0208683
-0.0182897
-0.0141632
-0.0079593
-4.25967e-18
0.00896334
0.0162568
0.0214032
0.024792
0.026969
0.0283477
0.0291889
0.0296429
0.0297865
0.0296429
0.0291889
0.0283477
0.026969
0.024792
0.0214032
0.0162568
0.00896334
-5.14096e-18
-0.00896334
-0.0162568
-0.0214032
-0.024792
-0.026969
-0.0283477
-0.0291889
-0.0296429
-0.0297865
-0.0296429
-0.0291889
-0.0283477
-0.026969
-0.024792
-0.0214032
-0.0162568
-0.00896334
-5.14096e-18
0.00785831
0.0143215
0.0189522
0.0220449
0.0240535
0.0253354
0.0261215
0.0265471
0.0266818
0.0265471
0.0261215
0.0253354
0.0240535
0.0220449
0.0189522
0.0143215
0.00785831
-4.90394e-18
-0.00785831
-0.0143215
-0.0189522
-0.0220449
-0.0240535
-0.0253354
-0.0261215
-0.0265471
-0.0266818
-0.0265471
-0.0261215
-0.0253354
-0.0240535
-0.0220449
-0.0189522
-0.0143215
-0.00785831
-4.90394e-18
0.00658958
0.0120826
0.0160957
0.0188259
0.0206249
0.021785
0.0225014
0.0228908
0.0230144
0.0228908
0.0225014
0.021785
0.0206249
0.0188259
0.0160957
0.0120826
0.00658958
-4.52319e-18
-0.00658958
-0.0120826
-0.0160957
-0.0188259
-0.0206249
-0.021785
-0.0225014
-0.0228908
-0.0230144
-0.0228908
-0.0225014
-0.021785
-0.0206249
-0.0188259
-0.0160957
-0.0120826
-0.00658958
-4.52319e-18
0.00727058
0.013544
0.0183713
0.0218286
0.0242046
0.0257851
0.0267819
0.0273311
0.0275064
0.0273311
0.026782
0.0257851
0.0242046
0.0218286
0.0183713
0.013544
0.00727058
-5.53579e-18
-0.00727058
-0.013544
-0.0183713
-0.0218286
-0.0242046
-0.0257851
-0.0267819
-0.0273311
-0.0275064
-0.0273311
-0.026782
-0.0257851
-0.0242046
-0.0218286
-0.0183713
-0.013544
-0.00727058
-5.53579e-18
0.0063399
0.0118593
0.0161654
0.0192939
0.0214702
0.0229313
0.0238589
0.024372
0.0245361
0.024372
0.0238589
0.0229313
0.0214702
0.0192939
0.0161654
0.0118593
0.0063399
-5.20113e-18
-0.0063399
-0.0118593
-0.0161654
-0.0192939
-0.0214702
-0.0229313
-0.0238589
-0.024372
-0.0245361
-0.024372
-0.0238589
-0.0229313
-0.0214702
-0.0192939
-0.0161654
-0.0118593
-0.0063399
-5.20113e-18
0.00528489
0.00993119
0.0136127
0.0163313
0.0182493
0.0195512
0.0203841
0.0208471
0.0209955
0.0208471
0.0203841
0.0195512
0.0182493
0.0163313
0.0136127
0.00993119
0.00528489
-4.71362e-18
-0.00528489
-0.00993119
-0.0136127
-0.0163313
-0.0182493
-0.0195512
-0.0203841
-0.0208471
-0.0209955
-0.0208471
-0.0203841
-0.0195512
-0.0182493
-0.0163313
-0.0136127
-0.00993119
-0.00528489
-4.71362e-18
0.00589823
0.011192
0.0155289
0.0188497
0.0212701
0.0229559
0.0240547
0.0246729
0.0248722
0.0246729
0.0240547
0.0229559
0.0212701
0.0188497
0.0155289
0.011192
0.00589822
-5.77663e-18
-0.00589823
-0.011192
-0.0155289
-0.0188497
-0.0212701
-0.0229559
-0.0240547
-0.0246729
-0.0248722
-0.0246729
-0.0240547
-0.0229559
-0.0212701
-0.0188497
-0.0155289
-0.011192
-0.00589822
-5.77663e-18
0.00529234
0.0100532
0.0139682
0.0169785
0.0191809
0.0207197
0.021725
0.0222914
0.0224741
0.0222914
0.021725
0.0207197
0.0191809
0.0169785
0.0139682
0.0100532
0.00529234
-5.37041e-18
-0.00529234
-0.0100532
-0.0139682
-0.0169785
-0.0191809
-0.0207197
-0.021725
-0.0222914
-0.0224741
-0.0222914
-0.021725
-0.0207197
-0.0191809
-0.0169785
-0.0139682
-0.0100532
-0.00529234
-5.37041e-18
0.00441295
0.00840898
0.0117312
0.0143172
0.0162309
0.0175806
0.0184685
0.0189709
0.0191334
0.0189709
0.0184685
0.0175806
0.0162309
0.0143172
0.0117312
0.00840897
0.00441295
-4.8181e-18
-0.00441295
-0.00840898
-0.0117312
-0.0143172
-0.0162309
-0.0175806
-0.0184685
-0.0189709
-0.0191334
-0.0189709
-0.0184685
-0.0175806
-0.0162309
-0.0143172
-0.0117312
-0.00840897
-0.00441295
-4.8181e-18
0.00499039
0.00956863
0.0134596
0.016566
0.0189207
0.0206151
0.0217469
0.0223938
0.022604
0.0223938
0.0217469
0.0206151
0.0189207
0.016566
0.0134596
0.00956863
0.00499038
-5.91099e-18
-0.00499039
-0.00956863
-0.0134596
-0.016566
-0.0189207
-0.0206151
-0.0217469
-0.0223938
-0.022604
-0.0223938
-0.0217469
-0.0206151
-0.0189207
-0.016566
-0.0134596
-0.00956863
-0.00499038
-5.91099e-18
0.00423448
0.00814866
0.0115185
0.0142501
0.0163517
0.0178833
0.0189163
0.0195107
0.0197045
0.0195107
0.0189163
0.0178833
0.0163517
0.0142501
0.0115185
0.00814866
0.00423448
-5.51439e-18
-0.00423448
-0.00814866
-0.0115185
-0.0142501
-0.0163517
-0.0178833
-0.0189163
-0.0195107
-0.0197045
-0.0195107
-0.0189163
-0.0178833
-0.0163517
-0.0142501
-0.0115185
-0.00814866
-0.00423448
-5.51439e-18
0.00374513
0.00720214
0.0101712
0.0125711
0.0144124
0.0157509
0.0166521
0.01717
0.0173387
0.01717
0.0166521
0.0157509
0.0144124
0.0125711
0.0101712
0.00720214
0.00374513
-4.88945e-18
-0.00374513
-0.00720214
-0.0101712
-0.0125711
-0.0144124
-0.0157509
-0.0166521
-0.01717
-0.0173387
-0.01717
-0.0166521
-0.0157509
-0.0144124
-0.0125711
-0.0101712
-0.00720214
-0.00374513
-4.88945e-18
0.00429065
0.0082851
0.0117667
0.0146311
0.0168674
0.0185183
0.019643
0.0202945
0.0205076
0.0202945
0.019643
0.0185183
0.0168674
0.0146311
0.0117667
0.0082851
0.00429065
-6.01307e-18
-0.00429065
-0.0082851
-0.0117667
-0.0146311
-0.0168674
-0.0185183
-0.019643
-0.0202945
-0.0205076
-0.0202945
-0.019643
-0.0185183
-0.0168674
-0.0146311
-0.0117667
-0.0082851
-0.00429065
-6.01307e-18
0.00368076
0.00712424
0.0101515
0.0126682
0.014654
0.0161336
0.0171491
0.0177403
0.0179343
0.0177404
0.0171491
0.0161336
0.014654
0.0126682
0.0101515
0.00712424
0.00368076
-5.59443e-18
-0.00368076
-0.00712424
-0.0101515
-0.0126682
-0.014654
-0.0161336
-0.0171491
-0.0177403
-0.0179343
-0.0177404
-0.0171491
-0.0161336
-0.014654
-0.0126682
-0.0101515
-0.00712424
-0.00368076
-5.59443e-18
0.00297014
0.00576246
0.00823872
0.0103195
0.0119793
0.0132284
0.0140924
0.0145981
0.0147645
0.0145981
0.0140924
0.0132284
0.0119793
0.0103195
0.00823872
0.00576246
0.00297014
-4.95812e-18
-0.00297014
-0.00576246
-0.00823872
-0.0103195
-0.0119793
-0.0132284
-0.0140924
-0.0145981
-0.0147645
-0.0145981
-0.0140924
-0.0132284
-0.0119793
-0.0103195
-0.00823872
-0.00576246
-0.00297014
-4.95812e-18
0.00369487
0.00717233
0.0102622
0.0128648
0.0149462
0.0165159
0.0176038
0.0182413
0.0184512
0.0182413
0.0176038
0.0165159
0.0149462
0.0128648
0.0102622
0.00717233
0.00369487
-6.11181e-18
-0.00369487
-0.00717233
-0.0102622
-0.0128648
-0.0149462
-0.0165159
-0.0176038
-0.0182413
-0.0184512
-0.0182413
-0.0176038
-0.0165159
-0.0149462
-0.0128648
-0.0102622
-0.00717233
-0.00369487
-6.11181e-18
0.00319275
0.00620705
0.00890027
0.0111847
0.0130247
0.0144216
0.0153949
0.0159674
0.0161562
0.0159674
0.0153949
0.0144216
0.0130247
0.0111847
0.00890027
0.00620705
0.00319275
-5.66271e-18
-0.00319275
-0.00620705
-0.00890027
-0.0111847
-0.0130247
-0.0144216
-0.0153949
-0.0159674
-0.0161562
-0.0159674
-0.0153949
-0.0144216
-0.0130247
-0.0111847
-0.00890027
-0.00620705
-0.00319275
-5.66271e-18
0.00260029
0.00506289
0.00727549
0.00916539
0.0106989
0.0118711
0.0126922
0.0131771
0.0133373
0.0131771
0.0126922
0.0118711
0.0106989
0.00916539
0.00727549
0.00506289
0.00260029
-4.9937e-18
-0.00260029
-0.00506289
-0.00727549
-0.00916539
-0.0106989
-0.0118711
-0.0126922
-0.0131771
-0.0133373
-0.0131771
-0.0126922
-0.0118711
-0.0106989
-0.00916539
-0.00727549
-0.00506289
-0.00260029
-4.9937e-18
0.00295902
0.00577486
0.00832704
0.0105313
0.0123411
0.0137396
0.0147282
0.0153158
0.0155105
0.0153158
0.0147282
0.0137396
0.0123411
0.0105313
0.00832705
0.00577486
0.00295902
-6.23036e-18
-0.00295902
-0.00577486
-0.00832704
-0.0105313
-0.0123411
-0.0137396
-0.0147282
-0.0153158
-0.0155105
-0.0153158
-0.0147282
-0.0137396
-0.0123411
-0.0105313
-0.00832705
-0.00577486
-0.00295902
-6.23036e-18
0.0027254
0.00531761
0.00766486
0.00968967
0.01135
0.0126315
0.0135364
0.0140739
0.0142519
0.0140739
0.0135364
0.0126315
0.01135
0.00968967
0.00766485
0.00531761
0.0027254
-5.72146e-18
-0.0027254
-0.00531761
-0.00766486
-0.00968967
-0.01135
-0.0126315
-0.0135364
-0.0140739
-0.0142519
-0.0140739
-0.0135364
-0.0126315
-0.01135
-0.00968967
-0.00766485
-0.00531761
-0.0027254
-5.72146e-18
0.00223724
0.00436917
0.0063063
0.00798475
0.00936757
0.0104396
0.0111994
0.0116519
0.011802
0.0116519
0.0111994
0.0104396
0.00936757
0.00798475
0.0063063
0.00436917
0.00223724
-5.0259e-18
-0.00223724
-0.00436917
-0.0063063
-0.00798475
-0.00936757
-0.0104396
-0.0111994
-0.0116519
-0.011802
-0.0116519
-0.0111994
-0.0104396
-0.00936757
-0.00798475
-0.0063063
-0.00436917
-0.00223724
-5.0259e-18
0.00261525
0.00511535
0.00740026
0.00939499
0.0110517
0.012346
0.0132693
0.0138216
0.0140053
0.0138216
0.0132693
0.012346
0.0110517
0.00939499
0.00740026
0.00511535
0.00261525
-6.34759e-18
-0.00261525
-0.00511535
-0.00740026
-0.00939499
-0.0110517
-0.012346
-0.0132693
-0.0138216
-0.0140053
-0.0138216
-0.0132693
-0.012346
-0.0110517
-0.00939499
-0.00740026
-0.00511535
-0.00261525
-6.34759e-18
0.00217668
0.00426173
0.00617438
0.00785215
0.00925298
0.0103528
0.0111407
0.0116133
0.0117708
0.0116133
0.0111407
0.0103528
0.00925298
0.00785215
0.00617438
0.00426173
0.00217668
-5.78341e-18
-0.00217668
-0.00426173
-0.00617438
-0.00785215
-0.00925298
-0.0103528
-0.0111407
-0.0116133
-0.0117708
-0.0116133
-0.0111407
-0.0103528
-0.00925298
-0.00785215
-0.00617438
-0.00426173
-0.00217668
-5.78341e-18
0.00186271
0.00364734
0.00528494
0.00672204
0.00792248
0.00886537
0.0095411
0.00994662
0.0100817
0.00994662
0.0095411
0.00886537
0.00792248
0.00672204
0.00528494
0.00364734
0.00186271
-5.05575e-18
-0.00186271
-0.00364734
-0.00528494
-0.00672204
-0.00792248
-0.00886537
-0.0095411
-0.00994662
-0.0100817
-0.00994662
-0.0095411
-0.00886537
-0.00792248
-0.00672204
-0.00528494
-0.00364734
-0.00186271
-5.05575e-18
)
;

boundaryField
{
    fixed
    {
        type            calculated;
        value           uniform 0;
    }
    inside
    {
        type            calculated;
        value           nonuniform List<scalar> 
540
(
0.00802893
0.00791927
0.00759066
0.00704468
0.00628591
0.00532454
0.00417936
0.00288035
0.00146965
-4.59243e-18
-0.00146965
-0.00288035
-0.00417936
-0.00532454
-0.00628591
-0.00704468
-0.00759066
-0.00791927
-0.00802893
-0.00791927
-0.00759066
-0.00704468
-0.00628591
-0.00532454
-0.00417936
-0.00288035
-0.00146965
-4.59243e-18
0.00134575
0.00263963
0.00383465
0.00489231
0.00578406
0.00649085
0.00700125
0.00730926
0.00741217
0.00730926
0.00700125
0.00649085
0.00578406
0.00489231
0.00383465
0.00263963
0.00134575
-4.59243e-18
-0.00134575
-0.00263963
-0.00383465
-0.00489231
-0.00578406
-0.00649085
-0.00700125
-0.00730926
-0.00741217
-0.00730926
-0.00700125
-0.00649085
-0.00578406
-0.00489231
-0.00383465
-0.00263963
-0.00134575
-4.59243e-18
0.00125021
0.00245361
0.00356745
0.00455605
0.00539218
0.00605689
0.00653817
0.00682914
0.00692647
0.00682914
0.00653817
0.00605689
0.00539218
0.00455605
0.00356745
0.00245361
0.00125021
-4.59243e-18
-0.00125021
-0.00245361
-0.00356745
-0.00455605
-0.00539218
-0.00605689
-0.00653817
-0.00682914
-0.00692647
-0.00682914
-0.00653817
-0.00605689
-0.00539218
-0.00455605
-0.00356745
-0.00245361
-0.00125021
-4.59243e-18
0.00117394
0.00230491
0.00335339
0.00428594
0.00507652
0.00570648
0.00616348
0.00644018
0.00653279
0.00644018
0.00616348
0.00570648
0.00507652
0.00428594
0.00335339
0.00230491
0.00117394
-4.59243e-18
-0.00117394
-0.00230491
-0.00335339
-0.00428594
-0.00507652
-0.00570648
-0.00616348
-0.00644018
-0.00653279
-0.00644018
-0.00616348
-0.00570648
-0.00507652
-0.00428594
-0.00335339
-0.00230491
-0.00117394
-4.59243e-18
0.00109185
0.00214464
0.00312221
0.00399357
0.00473402
0.00532541
0.0057553
0.00601595
0.00610327
0.00601595
0.0057553
0.00532541
0.00473402
0.00399357
0.00312221
0.00214464
0.00109185
-4.59243e-18
-0.00109185
-0.00214464
-0.00312221
-0.00399357
-0.00473402
-0.00532541
-0.0057553
-0.00601595
-0.00610327
-0.00601595
-0.0057553
-0.00532541
-0.00473402
-0.00399357
-0.00312221
-0.00214464
-0.00109185
-4.59243e-18
0.00100282
0.00197061
0.00287071
0.00367474
0.00435964
0.00490793
0.00530731
0.00554982
0.00563114
0.00554982
0.00530731
0.00490793
0.00435964
0.00367474
0.00287071
0.00197061
0.00100282
-4.59243e-18
-0.00100282
-0.00197061
-0.00287071
-0.00367474
-0.00435964
-0.00490793
-0.00530731
-0.00554982
-0.00563114
-0.00554982
-0.00530731
-0.00490793
-0.00435964
-0.00367474
-0.00287071
-0.00197061
-0.00100282
-4.59243e-18
0.000833895
0.00163983
0.00239142
0.00306522
0.0036415
0.00410469
0.00444323
0.00464934
0.00471852
0.00464934
0.00444323
0.00410469
0.0036415
0.00306522
0.00239142
0.00163983
0.000833895
-4.59243e-18
-0.000833895
-0.00163983
-0.00239142
-0.00306522
-0.0036415
-0.00410469
-0.00444323
-0.00464934
-0.00471852
-0.00464934
-0.00444323
-0.00410469
-0.0036415
-0.00306522
-0.00239142
-0.00163983
-0.000833895
-4.59243e-18
0.000785257
0.00154447
0.00225297
0.00288871
0.00343302
0.00387095
0.00419132
0.00438649
0.00445203
0.00438649
0.00419132
0.00387095
0.00343302
0.00288871
0.00225297
0.00154447
0.000785257
-4.59243e-18
-0.000785257
-0.00154447
-0.00225297
-0.00288871
-0.00343302
-0.00387095
-0.00419132
-0.00438649
-0.00445203
-0.00438649
-0.00419132
-0.00387095
-0.00343302
-0.00288871
-0.00225297
-0.00154447
-0.000785257
-4.59243e-18
0.000732715
0.00144139
0.00210319
0.00269759
0.00320702
0.00361734
0.00391777
0.00410091
0.00416243
0.00410091
0.00391777
0.00361734
0.00320702
0.00269759
0.00210319
0.00144139
0.000732715
-4.59243e-18
-0.000732715
-0.00144139
-0.00210319
-0.00269759
-0.00320702
-0.00361734
-0.00391777
-0.00410091
-0.00416243
-0.00410091
-0.00391777
-0.00361734
-0.00320702
-0.00269759
-0.00210319
-0.00144139
-0.000732715
-4.59243e-18
0.000675536
0.00132915
0.00193997
0.0024891
0.00296022
0.00334007
0.00361847
0.0037883
0.00384536
0.0037883
0.00361847
0.00334007
0.00296022
0.0024891
0.00193997
0.00132915
0.000675536
-4.59243e-18
-0.000675536
-0.00132915
-0.00193997
-0.0024891
-0.00296022
-0.00334007
-0.00361847
-0.0037883
-0.00384536
-0.0037883
-0.00361847
-0.00334007
-0.00296022
-0.0024891
-0.00193997
-0.00132915
-0.000675536
-4.59243e-18
0.000420665
0.00082821
0.00121001
0.00155437
0.00185092
0.0020909
0.00226735
0.00237525
0.00241155
0.00237525
0.00226735
0.0020909
0.00185092
0.00155437
0.00121001
0.00082821
0.000420665
-4.59243e-18
-0.000420665
-0.00082821
-0.00121001
-0.00155437
-0.00185092
-0.0020909
-0.00226735
-0.00237525
-0.00241155
-0.00237525
-0.00226735
-0.0020909
-0.00185092
-0.00155437
-0.00121001
-0.00082821
-0.000420665
-4.59243e-18
0.00039715
0.000781949
0.0011425
0.00146777
0.00174795
0.00197474
0.00214154
0.00224355
0.00227787
0.00224355
0.00214154
0.00197474
0.00174795
0.00146777
0.0011425
0.000781949
0.00039715
-4.59243e-18
-0.00039715
-0.000781949
-0.0011425
-0.00146777
-0.00174795
-0.00197474
-0.00214154
-0.00224355
-0.00227787
-0.00224355
-0.00214154
-0.00197474
-0.00174795
-0.00146777
-0.0011425
-0.000781949
-0.00039715
-4.59243e-18
0.000371695
0.000731866
0.00106939
0.00137397
0.00163639
0.00184887
0.00200516
0.00210077
0.00213295
0.00210077
0.00200516
0.00184887
0.00163639
0.00137397
0.00106939
0.000731866
0.000371695
-4.59243e-18
-0.000371695
-0.000731866
-0.00106939
-0.00137397
-0.00163639
-0.00184887
-0.00200516
-0.00210077
-0.00213295
-0.00210077
-0.00200516
-0.00184887
-0.00163639
-0.00137397
-0.00106939
-0.000731866
-0.000371695
-4.59243e-18
0.000343951
0.000677264
0.000989683
0.00127166
0.00151469
0.0017115
0.00185631
0.00194491
0.00197472
0.00194491
0.00185631
0.0017115
0.00151469
0.00127166
0.000989683
0.000677264
0.000343951
-4.59243e-18
-0.000343951
-0.000677264
-0.000989683
-0.00127166
-0.00151469
-0.0017115
-0.00185631
-0.00194491
-0.00197472
-0.00194491
-0.00185631
-0.0017115
-0.00151469
-0.00127166
-0.000989683
-0.000677264
-0.000343951
-4.59243e-18
-4.59243e-18
-4.59243e-18
-4.59243e-18
-4.59243e-18
0
0
0
0
0
0
0
0
0
0
0
0
0
0
0
0
0
0
0
0
0
0
0
0
0
0
0
0
0
0
0
0
0
0
0
0
0
0
0
0
)
;
    }
    outside
    {
        type            calculated;
        value           uniform 0;
    }
}


// ************************************************************************* //
