/*--------------------------------*- C++ -*----------------------------------*\
| =========                 |                                                 |
| \\      /  F ield         | OpenFOAM: The Open Source CFD Toolbox           |
|  \\    /   O peration     | Version:  2312                                  |
|   \\  /    A nd           | Website:  www.openfoam.com                      |
|    \\/     M anipulation  |                                                 |
\*---------------------------------------------------------------------------*/
FoamFile
{
    version     2.0;
    format      ascii;
    arch        "LSB;label=32;scalar=64";
    class       surfaceVectorField;
    location    "0";
    object      f0f;
}
// * * * * * * * * * * * * * * * * * * * * * * * * * * * * * * * * * * * * * //

dimensions      [0 0 0 0 0 0 0];

internalField   nonuniform List<vector> 
4212
(
(0.093447 -0.456123 -0.884997)
(0.0128225 -0.46542 -0.884997)
(0.0808675 -0.81928 -0.567663)
(0.0540833 -0.427328 -0.902478)
(0.171233 -0.432967 -0.884997)
(0.221905 -0.792791 -0.567663)
(0.127465 -0.411443 -0.902478)
(0.243814 -0.396653 -0.884998)
(0.356201 -0.742212 -0.567664)
(0.196976 -0.383059 -0.902478)
(0.308987 -0.348288 -0.884999)
(0.479672 -0.669081 -0.567667)
(0.260499 -0.343031 -0.90248)
(0.364772 -0.289342 -0.884999)
(0.588569 -0.575623 -0.567666)
(0.316108 -0.292585 -0.90248)
(0.409476 -0.221605 -0.884998)
(0.679582 -0.464675 -0.567667)
(0.362111 -0.23325 -0.90248)
(0.441738 -0.147135 -0.884997)
(0.74995 -0.339607 -0.567664)
(0.397118 -0.166827 -0.902478)
(0.460576 -0.0681921 -0.884997)
(0.797529 -0.20422 -0.567663)
(0.420052 -0.0953338 -0.902478)
(0.46542 0.0128225 -0.884997)
(0.820875 -0.0626281 -0.567663)
(0.430227 -0.0209442 -0.902478)
(0.456123 0.093447 -0.884997)
(0.81928 0.0808675 -0.567663)
(0.427328 0.0540833 -0.902478)
(0.432967 0.171233 -0.884997)
(0.792791 0.221905 -0.567663)
(0.411443 0.127465 -0.902478)
(0.396653 0.243814 -0.884998)
(0.742212 0.356201 -0.567664)
(0.383059 0.196976 -0.902478)
(0.348288 0.308987 -0.884999)
(0.669081 0.479672 -0.567667)
(0.343031 0.260499 -0.90248)
(0.289342 0.364772 -0.884999)
(0.575623 0.588569 -0.567666)
(0.292585 0.316108 -0.90248)
(0.221605 0.409476 -0.884998)
(0.464675 0.679582 -0.567667)
(0.23325 0.362111 -0.90248)
(0.147135 0.441738 -0.884997)
(0.339607 0.74995 -0.567664)
(0.166827 0.397118 -0.902478)
(0.0681921 0.460576 -0.884997)
(0.20422 0.797529 -0.567663)
(0.0953338 0.420052 -0.902478)
(-0.0128225 0.46542 -0.884997)
(0.0626281 0.820875 -0.567663)
(0.0209442 0.430227 -0.902478)
(-0.093447 0.456123 -0.884997)
(-0.0808675 0.81928 -0.567663)
(-0.0540833 0.427328 -0.902478)
(-0.171233 0.432967 -0.884997)
(-0.221905 0.792791 -0.567663)
(-0.127465 0.411443 -0.902478)
(-0.243814 0.396653 -0.884998)
(-0.356201 0.742212 -0.567664)
(-0.196976 0.383059 -0.902478)
(-0.308987 0.348288 -0.884999)
(-0.479672 0.669081 -0.567667)
(-0.260499 0.343031 -0.90248)
(-0.364772 0.289342 -0.884999)
(-0.588569 0.575623 -0.567666)
(-0.316108 0.292585 -0.90248)
(-0.409476 0.221605 -0.884998)
(-0.679582 0.464675 -0.567667)
(-0.362111 0.23325 -0.90248)
(-0.441738 0.147135 -0.884997)
(-0.74995 0.339607 -0.567664)
(-0.397118 0.166827 -0.902478)
(-0.460576 0.0681921 -0.884997)
(-0.797529 0.20422 -0.567663)
(-0.420052 0.0953338 -0.902478)
(-0.46542 -0.0128225 -0.884997)
(-0.820875 0.0626281 -0.567663)
(-0.430227 0.0209442 -0.902478)
(-0.456123 -0.093447 -0.884997)
(-0.81928 -0.0808675 -0.567663)
(-0.427328 -0.0540833 -0.902478)
(-0.432967 -0.171233 -0.884997)
(-0.792791 -0.221905 -0.567663)
(-0.411443 -0.127465 -0.902478)
(-0.396653 -0.243814 -0.884998)
(-0.742212 -0.356201 -0.567664)
(-0.383059 -0.196976 -0.902478)
(-0.348288 -0.308987 -0.884999)
(-0.669081 -0.479672 -0.567667)
(-0.343031 -0.260499 -0.90248)
(-0.289342 -0.364772 -0.884999)
(-0.575623 -0.588569 -0.567666)
(-0.292585 -0.316108 -0.90248)
(-0.221605 -0.409476 -0.884998)
(-0.464675 -0.679582 -0.567667)
(-0.23325 -0.362111 -0.90248)
(-0.147135 -0.441738 -0.884997)
(-0.339607 -0.74995 -0.567664)
(-0.166827 -0.397118 -0.902478)
(-0.0681921 -0.460576 -0.884997)
(-0.20422 -0.797529 -0.567663)
(-0.0953338 -0.420052 -0.902478)
(-0.0626281 -0.820875 -0.567663)
(-0.0209442 -0.430227 -0.902478)
(0.174396 -0.974842 -0.138812)
(0.00246739 -0.990316 -0.138812)
(0.0701343 -0.914215 0.399115)
(0.0904981 -0.982797 -0.160996)
(0.341027 -0.929748 -0.138812)
(0.22782 -0.888147 0.399116)
(0.259783 -0.952151 -0.160998)
(0.497296 -0.856404 -0.138813)
(0.378585 -0.835092 0.399117)
(0.421177 -0.892575 -0.160997)
(0.638453 -0.757039 -0.138817)
(0.517847 -0.756666 0.399113)
(0.569772 -0.805878 -0.161)
(0.760211 -0.634673 -0.138817)
(0.641374 -0.655249 0.399109)
(0.701055 -0.694695 -0.161002)
(0.858871 -0.493022 -0.138813)
(0.745411 -0.533921 0.399113)
(0.811036 -0.562405 -0.161)
(0.931436 -0.33639 -0.138812)
(0.826799 -0.396369 0.399117)
(0.896376 -0.413026 -0.160997)
(0.975699 -0.169536 -0.138812)
(0.883068 -0.246774 0.399116)
(0.954479 -0.251096 -0.160998)
(0.990316 0.00246739 -0.138812)
(0.912504 -0.0896824 0.399115)
(0.983581 -0.0815388 -0.160996)
(0.974842 0.174396 -0.138812)
(0.914215 0.0701343 0.399115)
(0.982797 0.0904981 -0.160996)
(0.929748 0.341027 -0.138812)
(0.888147 0.22782 0.399116)
(0.952151 0.259783 -0.160998)
(0.856404 0.497296 -0.138813)
(0.835092 0.378585 0.399117)
(0.892575 0.421177 -0.160997)
(0.757039 0.638453 -0.138817)
(0.756666 0.517847 0.399113)
(0.805878 0.569772 -0.161)
(0.634673 0.760211 -0.138817)
(0.655249 0.641374 0.399109)
(0.694695 0.701055 -0.161002)
(0.493022 0.858871 -0.138813)
(0.533921 0.745411 0.399113)
(0.562405 0.811036 -0.161)
(0.33639 0.931436 -0.138812)
(0.396369 0.826799 0.399117)
(0.413026 0.896376 -0.160997)
(0.169536 0.975699 -0.138812)
(0.246774 0.883068 0.399116)
(0.251096 0.954479 -0.160998)
(-0.00246739 0.990316 -0.138812)
(0.0896824 0.912504 0.399115)
(0.0815388 0.983581 -0.160996)
(-0.174396 0.974842 -0.138812)
(-0.0701343 0.914215 0.399115)
(-0.0904981 0.982797 -0.160996)
(-0.341027 0.929748 -0.138812)
(-0.22782 0.888147 0.399116)
(-0.259783 0.952151 -0.160998)
(-0.497296 0.856404 -0.138813)
(-0.378585 0.835092 0.399117)
(-0.421177 0.892575 -0.160997)
(-0.638453 0.757039 -0.138817)
(-0.517847 0.756666 0.399113)
(-0.569772 0.805878 -0.161)
(-0.760211 0.634673 -0.138817)
(-0.641374 0.655249 0.399109)
(-0.701055 0.694695 -0.161002)
(-0.858871 0.493022 -0.138813)
(-0.745411 0.533921 0.399113)
(-0.811036 0.562405 -0.161)
(-0.931436 0.33639 -0.138812)
(-0.826799 0.396369 0.399117)
(-0.896376 0.413026 -0.160997)
(-0.975699 0.169536 -0.138812)
(-0.883068 0.246774 0.399116)
(-0.954479 0.251096 -0.160998)
(-0.990316 -0.00246739 -0.138812)
(-0.912504 0.0896824 0.399115)
(-0.983581 0.0815388 -0.160996)
(-0.974842 -0.174396 -0.138812)
(-0.914215 -0.0701343 0.399115)
(-0.982797 -0.0904981 -0.160996)
(-0.929748 -0.341027 -0.138812)
(-0.888147 -0.22782 0.399116)
(-0.952151 -0.259783 -0.160998)
(-0.856404 -0.497296 -0.138813)
(-0.835092 -0.378585 0.399117)
(-0.892575 -0.421177 -0.160997)
(-0.757039 -0.638453 -0.138817)
(-0.756666 -0.517847 0.399113)
(-0.805878 -0.569772 -0.161)
(-0.634673 -0.760211 -0.138817)
(-0.655249 -0.641374 0.399109)
(-0.694695 -0.701055 -0.161002)
(-0.493022 -0.858871 -0.138813)
(-0.533921 -0.745411 0.399113)
(-0.562405 -0.811036 -0.161)
(-0.33639 -0.931436 -0.138812)
(-0.396369 -0.826799 0.399117)
(-0.413026 -0.896376 -0.160997)
(-0.169536 -0.975699 -0.138812)
(-0.246774 -0.883068 0.399116)
(-0.251096 -0.954479 -0.160998)
(-0.0896824 -0.912504 0.399115)
(-0.0815388 -0.983581 -0.160996)
(0.0788445 -0.587602 0.8053)
(-0.0243888 -0.592366 0.8053)
(0.0192473 -0.599565 0.800095)
(0.179683 -0.564983 0.8053)
(0.123068 -0.587114 0.800095)
(0.275062 -0.525198 0.8053)
(0.223149 -0.556823 0.800095)
(0.362084 -0.469456 0.805299)
(0.316451 -0.509614 0.800095)
(0.438103 -0.39945 0.805299)
(0.400138 -0.446923 0.800093)
(0.500809 -0.317304 0.8053)
(0.471664 -0.370649 0.800095)
(0.5483 -0.225518 0.8053)
(0.528862 -0.283113 0.800095)
(0.579132 -0.126881 0.8053)
(0.56999 -0.186976 0.800095)
(0.592366 -0.0243888 0.8053)
(0.593798 -0.0851589 0.800095)
(0.587602 0.0788445 0.8053)
(0.599565 0.0192473 0.800095)
(0.564983 0.179683 0.8053)
(0.587114 0.123068 0.800095)
(0.525198 0.275062 0.8053)
(0.556823 0.223149 0.800095)
(0.469456 0.362084 0.805299)
(0.509614 0.316451 0.800095)
(0.39945 0.438103 0.805299)
(0.446923 0.400138 0.800093)
(0.317304 0.500809 0.8053)
(0.370649 0.471664 0.800095)
(0.225518 0.5483 0.8053)
(0.283113 0.528862 0.800095)
(0.126881 0.579132 0.8053)
(0.186976 0.56999 0.800095)
(0.0243888 0.592366 0.8053)
(0.0851589 0.593798 0.800095)
(-0.0788445 0.587602 0.8053)
(-0.0192473 0.599565 0.800095)
(-0.179683 0.564983 0.8053)
(-0.123068 0.587114 0.800095)
(-0.275062 0.525198 0.8053)
(-0.223149 0.556823 0.800095)
(-0.362084 0.469456 0.805299)
(-0.316451 0.509614 0.800095)
(-0.438103 0.39945 0.805299)
(-0.400138 0.446923 0.800093)
(-0.500809 0.317304 0.8053)
(-0.471664 0.370649 0.800095)
(-0.5483 0.225518 0.8053)
(-0.528862 0.283113 0.800095)
(-0.579132 0.126881 0.8053)
(-0.56999 0.186976 0.800095)
(-0.592366 0.0243888 0.8053)
(-0.593798 0.0851589 0.800095)
(-0.587602 -0.0788445 0.8053)
(-0.599565 -0.0192473 0.800095)
(-0.564983 -0.179683 0.8053)
(-0.587114 -0.123068 0.800095)
(-0.525198 -0.275062 0.8053)
(-0.556823 -0.223149 0.800095)
(-0.469456 -0.362084 0.805299)
(-0.509614 -0.316451 0.800095)
(-0.39945 -0.438103 0.805299)
(-0.446923 -0.400138 0.800093)
(-0.317304 -0.500809 0.8053)
(-0.370649 -0.471664 0.800095)
(-0.225518 -0.5483 0.8053)
(-0.283113 -0.528862 0.800095)
(-0.126881 -0.579132 0.8053)
(-0.186976 -0.56999 0.800095)
(-0.0851589 -0.593798 0.800095)
(0.0893421 -0.384862 -0.91864)
(0.0211542 -0.394532 -0.918639)
(0.0877818 -0.7829 -0.615923)
(0.0460663 -0.391843 -0.918878)
(0.154815 -0.363501 -0.91864)
(0.222395 -0.755761 -0.615926)
(0.113409 -0.377888 -0.918879)
(0.215584 -0.331094 -0.918641)
(0.350254 -0.705661 -0.615926)
(0.177306 -0.352456 -0.918878)
(0.269801 -0.288625 -0.918642)
(0.467468 -0.634117 -0.61593)
(0.235813 -0.316308 -0.91888)
(0.315821 -0.237391 -0.918642)
(0.570481 -0.543309 -0.615928)
(0.28716 -0.270556 -0.918879)
(0.352247 -0.178944 -0.918641)
(0.656156 -0.435993 -0.61593)
(0.329775 -0.21658 -0.91888)
(0.377971 -0.115059 -0.91864)
(0.7219 -0.31543 -0.615926)
(0.362378 -0.156027 -0.918878)
(0.392209 -0.0476771 -0.91864)
(0.765706 -0.185281 -0.615926)
(0.383965 -0.090729 -0.918879)
(0.394532 0.0211542 -0.918639)
(0.786249 -0.0495036 -0.615923)
(0.393889 -0.0226773 -0.918878)
(0.384862 0.0893421 -0.91864)
(0.7829 0.0877818 -0.615923)
(0.391843 0.0460663 -0.918878)
(0.363501 0.154815 -0.91864)
(0.755761 0.222395 -0.615926)
(0.377888 0.113409 -0.918879)
(0.331094 0.215584 -0.918641)
(0.705661 0.350254 -0.615926)
(0.352456 0.177306 -0.918878)
(0.288625 0.269801 -0.918642)
(0.634117 0.467468 -0.61593)
(0.316308 0.235813 -0.91888)
(0.237391 0.315821 -0.918642)
(0.543309 0.570481 -0.615928)
(0.270556 0.28716 -0.918879)
(0.178944 0.352247 -0.918641)
(0.435993 0.656156 -0.61593)
(0.21658 0.329775 -0.91888)
(0.115059 0.377971 -0.91864)
(0.31543 0.7219 -0.615926)
(0.156027 0.362378 -0.918878)
(0.0476771 0.392209 -0.91864)
(0.185281 0.765706 -0.615926)
(0.090729 0.383965 -0.918879)
(-0.0211542 0.394532 -0.918639)
(0.0495036 0.786249 -0.615923)
(0.0226773 0.393889 -0.918878)
(-0.0893421 0.384862 -0.91864)
(-0.0877818 0.7829 -0.615923)
(-0.0460663 0.391843 -0.918878)
(-0.154815 0.363501 -0.91864)
(-0.222395 0.755761 -0.615926)
(-0.113409 0.377888 -0.918879)
(-0.215584 0.331094 -0.918641)
(-0.350254 0.705661 -0.615926)
(-0.177306 0.352456 -0.918878)
(-0.269801 0.288625 -0.918642)
(-0.467468 0.634117 -0.61593)
(-0.235813 0.316308 -0.91888)
(-0.315821 0.237391 -0.918642)
(-0.570481 0.543309 -0.615928)
(-0.28716 0.270556 -0.918879)
(-0.352247 0.178944 -0.918641)
(-0.656156 0.435993 -0.61593)
(-0.329775 0.21658 -0.91888)
(-0.377971 0.115059 -0.91864)
(-0.7219 0.31543 -0.615926)
(-0.362378 0.156027 -0.918878)
(-0.392209 0.0476771 -0.91864)
(-0.765706 0.185281 -0.615926)
(-0.383965 0.090729 -0.918879)
(-0.394532 -0.0211542 -0.918639)
(-0.786249 0.0495036 -0.615923)
(-0.393889 0.0226773 -0.918878)
(-0.384862 -0.0893421 -0.91864)
(-0.7829 -0.0877818 -0.615923)
(-0.391843 -0.0460663 -0.918878)
(-0.363501 -0.154815 -0.91864)
(-0.755761 -0.222395 -0.615926)
(-0.377888 -0.113409 -0.918879)
(-0.331094 -0.215584 -0.918641)
(-0.705661 -0.350254 -0.615926)
(-0.352456 -0.177306 -0.918878)
(-0.288625 -0.269801 -0.918642)
(-0.634117 -0.467468 -0.61593)
(-0.316308 -0.235813 -0.91888)
(-0.237391 -0.315821 -0.918642)
(-0.543309 -0.570481 -0.615928)
(-0.270556 -0.28716 -0.918879)
(-0.178944 -0.352247 -0.918641)
(-0.435993 -0.656156 -0.61593)
(-0.21658 -0.329775 -0.91888)
(-0.115059 -0.377971 -0.91864)
(-0.31543 -0.7219 -0.615926)
(-0.156027 -0.362378 -0.918878)
(-0.0476771 -0.392209 -0.91864)
(-0.185281 -0.765706 -0.615926)
(-0.090729 -0.383965 -0.918879)
(-0.0495036 -0.786249 -0.615923)
(-0.0226773 -0.393889 -0.918878)
(0.177556 -0.966944 -0.183012)
(0.00694939 -0.983087 -0.18301)
(0.0639374 -0.925996 0.372081)
(0.0891813 -0.978288 -0.187082)
(0.342766 -0.921422 -0.183013)
(0.223763 -0.900827 0.372078)
(0.257703 -0.947939 -0.187085)
(0.497562 -0.847903 -0.183013)
(0.376789 -0.848284 0.37208)
(0.418396 -0.888788 -0.187084)
(0.637239 -0.74862 -0.183014)
(0.518369 -0.769968 0.37208)
(0.566376 -0.802632 -0.187086)
(0.757555 -0.626592 -0.183014)
(0.644197 -0.668257 0.372079)
(0.697147 -0.692088 -0.187083)
(0.854852 -0.485525 -0.183013)
(0.750451 -0.546241 0.37208)
(0.806736 -0.560514 -0.187086)
(0.926175 -0.329705 -0.183013)
(0.833905 -0.407627 0.37208)
(0.891812 -0.411912 -0.187084)
(0.969358 -0.163868 -0.183012)
(0.89202 -0.256628 0.372078)
(0.949791 -0.250792 -0.187085)
(0.983087 0.00694939 -0.18301)
(0.92303 -0.0978335 0.372081)
(0.978911 -0.0820535 -0.187082)
(0.966944 0.177556 -0.183012)
(0.925996 0.0639374 0.372081)
(0.978288 0.0891813 -0.187082)
(0.921422 0.342766 -0.183013)
(0.900827 0.223763 0.372078)
(0.947939 0.257703 -0.187085)
(0.847903 0.497562 -0.183013)
(0.848284 0.376789 0.37208)
(0.888788 0.418396 -0.187084)
(0.74862 0.637239 -0.183014)
(0.769968 0.518369 0.37208)
(0.802632 0.566376 -0.187086)
(0.626592 0.757555 -0.183014)
(0.668257 0.644197 0.372079)
(0.692088 0.697147 -0.187083)
(0.485525 0.854852 -0.183013)
(0.546241 0.750451 0.37208)
(0.560514 0.806736 -0.187086)
(0.329705 0.926175 -0.183013)
(0.407627 0.833905 0.37208)
(0.411912 0.891812 -0.187084)
(0.163868 0.969358 -0.183012)
(0.256628 0.89202 0.372078)
(0.250792 0.949791 -0.187085)
(-0.00694939 0.983087 -0.18301)
(0.0978335 0.92303 0.372081)
(0.0820535 0.978911 -0.187082)
(-0.177556 0.966944 -0.183012)
(-0.0639374 0.925996 0.372081)
(-0.0891813 0.978288 -0.187082)
(-0.342766 0.921422 -0.183013)
(-0.223763 0.900827 0.372078)
(-0.257703 0.947939 -0.187085)
(-0.497562 0.847903 -0.183013)
(-0.376789 0.848284 0.37208)
(-0.418396 0.888788 -0.187084)
(-0.637239 0.74862 -0.183014)
(-0.518369 0.769968 0.37208)
(-0.566376 0.802632 -0.187086)
(-0.757555 0.626592 -0.183014)
(-0.644197 0.668257 0.372079)
(-0.697147 0.692088 -0.187083)
(-0.854852 0.485525 -0.183013)
(-0.750451 0.546241 0.37208)
(-0.806736 0.560514 -0.187086)
(-0.926175 0.329705 -0.183013)
(-0.833905 0.407627 0.37208)
(-0.891812 0.411912 -0.187084)
(-0.969358 0.163868 -0.183012)
(-0.89202 0.256628 0.372078)
(-0.949791 0.250792 -0.187085)
(-0.983087 -0.00694939 -0.18301)
(-0.92303 0.0978335 0.372081)
(-0.978911 0.0820535 -0.187082)
(-0.966944 -0.177556 -0.183012)
(-0.925996 -0.0639374 0.372081)
(-0.978288 -0.0891813 -0.187082)
(-0.921422 -0.342766 -0.183013)
(-0.900827 -0.223763 0.372078)
(-0.947939 -0.257703 -0.187085)
(-0.847903 -0.497562 -0.183013)
(-0.848284 -0.376789 0.37208)
(-0.888788 -0.418396 -0.187084)
(-0.74862 -0.637239 -0.183014)
(-0.769968 -0.518369 0.37208)
(-0.802632 -0.566376 -0.187086)
(-0.626592 -0.757555 -0.183014)
(-0.668257 -0.644197 0.372079)
(-0.692088 -0.697147 -0.187083)
(-0.485525 -0.854852 -0.183013)
(-0.546241 -0.750451 0.37208)
(-0.560514 -0.806736 -0.187086)
(-0.329705 -0.926175 -0.183013)
(-0.407627 -0.833905 0.37208)
(-0.411912 -0.891812 -0.187084)
(-0.163868 -0.969358 -0.183012)
(-0.256628 -0.89202 0.372078)
(-0.250792 -0.949791 -0.187085)
(-0.0978335 -0.92303 0.372081)
(-0.0820535 -0.978911 -0.187082)
(0.0641533 -0.60347 0.7948)
(-0.0416134 -0.605442 0.794801)
(0.0303228 -0.607826 0.793491)
(0.16797 -0.583163 0.7948)
(0.13541 -0.593327 0.79349)
(0.266682 -0.545135 0.794801)
(0.236382 -0.5608 0.79349)
(0.357293 -0.490545 0.7948)
(0.330173 -0.511232 0.793491)
(0.437047 -0.421049 0.7948)
(0.413932 -0.446132 0.79349)
(0.503521 -0.338759 0.794801)
(0.485113 -0.367475 0.793491)
(0.554698 -0.246177 0.7948)
(0.541555 -0.277653 0.79349)
(0.589018 -0.146115 0.7948)
(0.581542 -0.179395 0.79349)
(0.605442 -0.0416134 0.794801)
(0.603858 -0.0756867 0.793491)
(0.60347 0.0641533 0.7948)
(0.607826 0.0303228 0.793491)
(0.583163 0.16797 0.7948)
(0.593327 0.13541 0.79349)
(0.545135 0.266682 0.794801)
(0.5608 0.236382 0.79349)
(0.490545 0.357293 0.7948)
(0.511232 0.330173 0.793491)
(0.421049 0.437047 0.7948)
(0.446132 0.413932 0.79349)
(0.338759 0.503521 0.794801)
(0.367475 0.485113 0.793491)
(0.246177 0.554698 0.7948)
(0.277653 0.541555 0.79349)
(0.146115 0.589018 0.7948)
(0.179395 0.581542 0.79349)
(0.0416134 0.605442 0.794801)
(0.0756867 0.603858 0.793491)
(-0.0641533 0.60347 0.7948)
(-0.0303228 0.607826 0.793491)
(-0.16797 0.583163 0.7948)
(-0.13541 0.593327 0.79349)
(-0.266682 0.545135 0.794801)
(-0.236382 0.5608 0.79349)
(-0.357293 0.490545 0.7948)
(-0.330173 0.511232 0.793491)
(-0.437047 0.421049 0.7948)
(-0.413932 0.446132 0.79349)
(-0.503521 0.338759 0.794801)
(-0.485113 0.367475 0.793491)
(-0.554698 0.246177 0.7948)
(-0.541555 0.277653 0.79349)
(-0.589018 0.146115 0.7948)
(-0.581542 0.179395 0.79349)
(-0.605442 0.0416134 0.794801)
(-0.603858 0.0756867 0.793491)
(-0.60347 -0.0641533 0.7948)
(-0.607826 -0.0303228 0.793491)
(-0.583163 -0.16797 0.7948)
(-0.593327 -0.13541 0.79349)
(-0.545135 -0.266682 0.794801)
(-0.5608 -0.236382 0.79349)
(-0.490545 -0.357293 0.7948)
(-0.511232 -0.330173 0.793491)
(-0.421049 -0.437047 0.7948)
(-0.446132 -0.413932 0.79349)
(-0.338759 -0.503521 0.794801)
(-0.367475 -0.485113 0.793491)
(-0.246177 -0.554698 0.7948)
(-0.277653 -0.541555 0.79349)
(-0.146115 -0.589018 0.7948)
(-0.179395 -0.581542 0.79349)
(-0.0756867 -0.603858 0.793491)
(0.070772 -0.387804 -0.919021)
(0.00235408 -0.394202 -0.919021)
(0.0693438 -0.782546 -0.618719)
(0.0162881 -0.397411 -0.917496)
(0.137039 -0.369622 -0.919021)
(0.204178 -0.758615 -0.61872)
(0.0850524 -0.388546 -0.917496)
(0.19914 -0.340209 -0.919022)
(0.332808 -0.711634 -0.618722)
(0.151231 -0.367875 -0.917495)
(0.255193 -0.300461 -0.919021)
(0.451324 -0.643029 -0.618725)
(0.212813 -0.336022 -0.917497)
(0.30349 -0.251583 -0.919021)
(0.556131 -0.554891 -0.61872)
(0.26793 -0.293966 -0.917495)
(0.342565 -0.19506 -0.919022)
(0.644035 -0.449887 -0.618725)
(0.314904 -0.242971 -0.917497)
(0.371234 -0.132611 -0.919021)
(0.712375 -0.331219 -0.618722)
(0.352314 -0.1846 -0.917495)
(0.388622 -0.0661328 -0.919021)
(0.759069 -0.202484 -0.61872)
(0.379017 -0.120615 -0.917496)
(0.394202 0.00235408 -0.919021)
(0.782698 -0.0675982 -0.618719)
(0.394202 -0.0529687 -0.917496)
(0.387804 0.070772 -0.919021)
(0.782546 0.0693438 -0.618719)
(0.397411 0.0162881 -0.917496)
(0.369622 0.137039 -0.919021)
(0.758615 0.204178 -0.61872)
(0.388546 0.0850524 -0.917496)
(0.340209 0.19914 -0.919022)
(0.711634 0.332808 -0.618722)
(0.367875 0.151231 -0.917495)
(0.300461 0.255193 -0.919021)
(0.643029 0.451324 -0.618725)
(0.336022 0.212813 -0.917497)
(0.251583 0.30349 -0.919021)
(0.554891 0.556131 -0.61872)
(0.293966 0.26793 -0.917495)
(0.19506 0.342565 -0.919022)
(0.449887 0.644035 -0.618725)
(0.242971 0.314904 -0.917497)
(0.132611 0.371234 -0.919021)
(0.331219 0.712375 -0.618722)
(0.1846 0.352314 -0.917495)
(0.0661328 0.388622 -0.919021)
(0.202484 0.759069 -0.61872)
(0.120615 0.379017 -0.917496)
(-0.00235408 0.394202 -0.919021)
(0.0675982 0.782698 -0.618719)
(0.0529687 0.394202 -0.917496)
(-0.070772 0.387804 -0.919021)
(-0.0693438 0.782546 -0.618719)
(-0.0162881 0.397411 -0.917496)
(-0.137039 0.369622 -0.919021)
(-0.204178 0.758615 -0.61872)
(-0.0850524 0.388546 -0.917496)
(-0.19914 0.340209 -0.919022)
(-0.332808 0.711634 -0.618722)
(-0.151231 0.367875 -0.917495)
(-0.255193 0.300461 -0.919021)
(-0.451324 0.643029 -0.618725)
(-0.212813 0.336022 -0.917497)
(-0.30349 0.251583 -0.919021)
(-0.556131 0.554891 -0.61872)
(-0.26793 0.293966 -0.917495)
(-0.342565 0.19506 -0.919022)
(-0.644035 0.449887 -0.618725)
(-0.314904 0.242971 -0.917497)
(-0.371234 0.132611 -0.919021)
(-0.712375 0.331219 -0.618722)
(-0.352314 0.1846 -0.917495)
(-0.388622 0.0661328 -0.919021)
(-0.759069 0.202484 -0.61872)
(-0.379017 0.120615 -0.917496)
(-0.394202 -0.00235408 -0.919021)
(-0.782698 0.0675982 -0.618719)
(-0.394202 0.0529687 -0.917496)
(-0.387804 -0.070772 -0.919021)
(-0.782546 -0.0693438 -0.618719)
(-0.397411 -0.0162881 -0.917496)
(-0.369622 -0.137039 -0.919021)
(-0.758615 -0.204178 -0.61872)
(-0.388546 -0.0850524 -0.917496)
(-0.340209 -0.19914 -0.919022)
(-0.711634 -0.332808 -0.618722)
(-0.367875 -0.151231 -0.917495)
(-0.300461 -0.255193 -0.919021)
(-0.643029 -0.451324 -0.618725)
(-0.336022 -0.212813 -0.917497)
(-0.251583 -0.30349 -0.919021)
(-0.554891 -0.556131 -0.61872)
(-0.293966 -0.26793 -0.917495)
(-0.19506 -0.342565 -0.919022)
(-0.449887 -0.644035 -0.618725)
(-0.242971 -0.314904 -0.917497)
(-0.132611 -0.371234 -0.919021)
(-0.331219 -0.712375 -0.618722)
(-0.1846 -0.352314 -0.917495)
(-0.0661328 -0.388622 -0.919021)
(-0.202484 -0.759069 -0.61872)
(-0.120615 -0.379017 -0.917496)
(-0.0675982 -0.782698 -0.618719)
(-0.0529687 -0.394202 -0.917496)
(0.170546 -0.96665 -0.191054)
(9.75733e-05 -0.98158 -0.191053)
(0.0798226 -0.926892 0.366743)
(0.0811849 -0.977952 -0.192404)
(0.335812 -0.922349 -0.191055)
(0.239562 -0.898949 0.366742)
(0.249771 -0.948997 -0.192405)
(0.490874 -0.850024 -0.191056)
(0.392024 -0.843693 0.366743)
(0.410768 -0.891207 -0.192405)
(0.631022 -0.751871 -0.191054)
(0.532573 -0.762801 0.366744)
(0.559284 -0.806339 -0.192406)
(0.751997 -0.630872 -0.191054)
(0.656941 -0.658731 0.366746)
(0.690806 -0.69697 -0.192404)
(0.850122 -0.490705 -0.191056)
(0.761349 -0.534646 0.366744)
(0.801339 -0.566424 -0.192406)
(0.922416 -0.335628 -0.191055)
(0.842623 -0.394318 0.366743)
(0.887523 -0.418668 -0.192405)
(0.966684 -0.170354 -0.191054)
(0.898294 -0.242008 0.366742)
(0.946741 -0.25819 -0.192405)
(0.98158 9.75746e-05 -0.191053)
(0.926671 -0.0823444 0.366743)
(0.977192 -0.0898686 -0.192404)
(0.96665 0.170546 -0.191054)
(0.926892 0.0798226 0.366743)
(0.977952 0.0811849 -0.192404)
(0.922349 0.335812 -0.191055)
(0.898949 0.239562 0.366742)
(0.948997 0.249771 -0.192405)
(0.850024 0.490874 -0.191056)
(0.843693 0.392024 0.366743)
(0.891207 0.410768 -0.192405)
(0.751871 0.631022 -0.191054)
(0.762801 0.532573 0.366744)
(0.806339 0.559284 -0.192406)
(0.630872 0.751997 -0.191054)
(0.658731 0.656941 0.366746)
(0.69697 0.690806 -0.192404)
(0.490705 0.850122 -0.191056)
(0.534646 0.761349 0.366744)
(0.566424 0.801339 -0.192406)
(0.335628 0.922416 -0.191055)
(0.394318 0.842623 0.366743)
(0.418668 0.887523 -0.192405)
(0.170354 0.966684 -0.191054)
(0.242008 0.898294 0.366742)
(0.25819 0.946741 -0.192405)
(-9.75745e-05 0.98158 -0.191053)
(0.0823444 0.926671 0.366743)
(0.0898686 0.977192 -0.192404)
(-0.170546 0.96665 -0.191054)
(-0.0798226 0.926892 0.366743)
(-0.0811849 0.977952 -0.192404)
(-0.335812 0.922349 -0.191055)
(-0.239562 0.898949 0.366742)
(-0.249771 0.948997 -0.192405)
(-0.490874 0.850024 -0.191056)
(-0.392024 0.843693 0.366743)
(-0.410768 0.891207 -0.192405)
(-0.631022 0.751871 -0.191054)
(-0.532573 0.762801 0.366744)
(-0.559284 0.806339 -0.192406)
(-0.751997 0.630872 -0.191054)
(-0.656941 0.658731 0.366746)
(-0.690806 0.69697 -0.192404)
(-0.850122 0.490705 -0.191056)
(-0.761349 0.534646 0.366744)
(-0.801339 0.566424 -0.192406)
(-0.922416 0.335628 -0.191055)
(-0.842623 0.394318 0.366743)
(-0.887523 0.418668 -0.192405)
(-0.966684 0.170354 -0.191054)
(-0.898294 0.242008 0.366742)
(-0.946741 0.25819 -0.192405)
(-0.98158 -9.75744e-05 -0.191053)
(-0.926671 0.0823444 0.366743)
(-0.977192 0.0898686 -0.192404)
(-0.96665 -0.170546 -0.191054)
(-0.926892 -0.0798226 0.366743)
(-0.977952 -0.0811849 -0.192404)
(-0.922349 -0.335812 -0.191055)
(-0.898949 -0.239562 0.366742)
(-0.948997 -0.249771 -0.192405)
(-0.850024 -0.490874 -0.191056)
(-0.843693 -0.392024 0.366743)
(-0.891207 -0.410768 -0.192405)
(-0.751871 -0.631022 -0.191054)
(-0.762801 -0.532573 0.366744)
(-0.806339 -0.559284 -0.192406)
(-0.630872 -0.751997 -0.191054)
(-0.658731 -0.656941 0.366746)
(-0.69697 -0.690806 -0.192404)
(-0.490705 -0.850122 -0.191056)
(-0.534646 -0.761349 0.366744)
(-0.566424 -0.801339 -0.192406)
(-0.335628 -0.922416 -0.191055)
(-0.394318 -0.842623 0.366743)
(-0.418668 -0.887523 -0.192405)
(-0.170354 -0.966684 -0.191054)
(-0.242008 -0.898294 0.366742)
(-0.25819 -0.946741 -0.192405)
(-0.0823444 -0.926671 0.366743)
(-0.0898686 -0.977192 -0.192404)
(0.101519 -0.602339 0.791758)
(-0.00461874 -0.610817 0.791759)
(0.0671738 -0.609322 0.790072)
(0.204571 -0.57556 0.791758)
(0.171961 -0.588402 0.790072)
(0.301409 -0.531292 0.791758)
(0.271523 -0.549601 0.790072)
(0.389088 -0.470882 0.791758)
(0.362836 -0.494101 0.790072)
(0.464945 -0.396163 0.791758)
(0.443124 -0.42359 0.790071)
(0.526674 -0.309408 0.791758)
(0.509947 -0.340207 0.790072)
(0.572401 -0.213252 0.791758)
(0.561276 -0.246487 0.790072)
(0.600735 -0.110616 0.791758)
(0.595551 -0.145279 0.790072)
(0.610817 -0.00461874 0.791759)
(0.61173 -0.0396545 0.790072)
(0.602339 0.101519 0.791758)
(0.609322 0.0671738 0.790072)
(0.57556 0.204571 0.791758)
(0.588402 0.171961 0.790072)
(0.531292 0.301409 0.791758)
(0.549601 0.271523 0.790072)
(0.470882 0.389088 0.791758)
(0.494101 0.362836 0.790072)
(0.396163 0.464945 0.791758)
(0.42359 0.443124 0.790071)
(0.309408 0.526674 0.791758)
(0.340207 0.509947 0.790072)
(0.213252 0.572401 0.791758)
(0.246487 0.561276 0.790072)
(0.110616 0.600735 0.791758)
(0.145279 0.595551 0.790072)
(0.00461874 0.610817 0.791759)
(0.0396545 0.61173 0.790072)
(-0.101519 0.602339 0.791758)
(-0.0671738 0.609322 0.790072)
(-0.204571 0.57556 0.791758)
(-0.171961 0.588402 0.790072)
(-0.301409 0.531292 0.791758)
(-0.271523 0.549601 0.790072)
(-0.389088 0.470882 0.791758)
(-0.362836 0.494101 0.790072)
(-0.464945 0.396163 0.791758)
(-0.443124 0.42359 0.790071)
(-0.526674 0.309408 0.791758)
(-0.509947 0.340207 0.790072)
(-0.572401 0.213252 0.791758)
(-0.561276 0.246487 0.790072)
(-0.600735 0.110616 0.791758)
(-0.595551 0.145279 0.790072)
(-0.610817 0.00461874 0.791759)
(-0.61173 0.0396545 0.790072)
(-0.602339 -0.101519 0.791758)
(-0.609322 -0.0671738 0.790072)
(-0.57556 -0.204571 0.791758)
(-0.588402 -0.171961 0.790072)
(-0.531292 -0.301409 0.791758)
(-0.549601 -0.271523 0.790072)
(-0.470882 -0.389088 0.791758)
(-0.494101 -0.362836 0.790072)
(-0.396163 -0.464945 0.791758)
(-0.42359 -0.443124 0.790071)
(-0.309408 -0.526674 0.791758)
(-0.340207 -0.509947 0.790072)
(-0.213252 -0.572401 0.791758)
(-0.246487 -0.561276 0.790072)
(-0.110616 -0.600735 0.791758)
(-0.145279 -0.595551 0.790072)
(-0.0396545 -0.61173 0.790072)
(0.0311573 -0.4011 -0.915504)
(-0.0389664 -0.400415 -0.915505)
(0.0415141 -0.786756 -0.615867)
(-0.0264188 -0.407172 -0.912969)
(0.100336 -0.389597 -0.915503)
(0.177503 -0.767595 -0.615866)
(0.0446883 -0.405577 -0.912968)
(0.166464 -0.366254 -0.915504)
(0.308099 -0.72511 -0.615865)
(0.114437 -0.391655 -0.912968)
(0.227533 -0.331784 -0.915504)
(0.429332 -0.660592 -0.615867)
(0.18071 -0.365832 -0.912968)
(0.28169 -0.287233 -0.915504)
(0.537518 -0.576005 -0.615867)
(0.241488 -0.328894 -0.912969)
(0.327289 -0.233954 -0.915504)
(0.629375 -0.473914 -0.615867)
(0.294933 -0.281963 -0.912968)
(0.362943 -0.173567 -0.915503)
(0.702108 -0.357426 -0.615865)
(0.339415 -0.226467 -0.912968)
(0.387567 -0.107905 -0.915504)
(0.753509 -0.230074 -0.615865)
(0.373584 -0.164086 -0.912968)
(0.400415 -0.0389664 -0.915505)
(0.782012 -0.0957342 -0.615867)
(0.396399 -0.0967213 -0.912969)
(0.4011 0.0311573 -0.915504)
(0.786756 0.0415141 -0.615867)
(0.407172 -0.0264188 -0.912969)
(0.389597 0.100336 -0.915503)
(0.767595 0.177503 -0.615865)
(0.405577 0.0446883 -0.912968)
(0.366254 0.166464 -0.915504)
(0.72511 0.308099 -0.615865)
(0.391655 0.114437 -0.912968)
(0.331784 0.227533 -0.915504)
(0.660592 0.429332 -0.615867)
(0.365832 0.18071 -0.912968)
(0.287233 0.28169 -0.915504)
(0.576005 0.537518 -0.615867)
(0.328894 0.241488 -0.912969)
(0.233954 0.327289 -0.915504)
(0.473914 0.629375 -0.615867)
(0.281963 0.294933 -0.912968)
(0.173567 0.362943 -0.915503)
(0.357426 0.702108 -0.615865)
(0.226467 0.339415 -0.912968)
(0.107905 0.387567 -0.915504)
(0.230074 0.753509 -0.615865)
(0.164086 0.373584 -0.912968)
(0.0389664 0.400415 -0.915505)
(0.0957342 0.782012 -0.615867)
(0.0967213 0.396399 -0.912969)
(-0.0311573 0.4011 -0.915504)
(-0.0415141 0.786756 -0.615867)
(0.0264188 0.407172 -0.912969)
(-0.100336 0.389597 -0.915503)
(-0.177503 0.767595 -0.615865)
(-0.0446883 0.405577 -0.912968)
(-0.166464 0.366254 -0.915504)
(-0.308099 0.72511 -0.615865)
(-0.114437 0.391655 -0.912968)
(-0.227533 0.331784 -0.915504)
(-0.429332 0.660592 -0.615867)
(-0.18071 0.365832 -0.912968)
(-0.28169 0.287233 -0.915504)
(-0.537518 0.576005 -0.615867)
(-0.241488 0.328894 -0.912969)
(-0.327289 0.233954 -0.915504)
(-0.629375 0.473914 -0.615867)
(-0.294933 0.281963 -0.912968)
(-0.362943 0.173567 -0.915503)
(-0.702108 0.357426 -0.615865)
(-0.339415 0.226467 -0.912968)
(-0.387567 0.107905 -0.915504)
(-0.753509 0.230074 -0.615865)
(-0.373584 0.164086 -0.912968)
(-0.400415 0.0389664 -0.915505)
(-0.782012 0.0957342 -0.615867)
(-0.396399 0.0967213 -0.912969)
(-0.4011 -0.0311573 -0.915504)
(-0.786756 -0.0415141 -0.615867)
(-0.407172 0.0264188 -0.912969)
(-0.389597 -0.100336 -0.915503)
(-0.767595 -0.177503 -0.615865)
(-0.405577 -0.0446883 -0.912968)
(-0.366254 -0.166464 -0.915504)
(-0.72511 -0.308099 -0.615865)