/*--------------------------------*- C++ -*----------------------------------*\
| =========                 |                                                 |
| \\      /  F ield         | OpenFOAM: The Open Source CFD Toolbox           |
|  \\    /   O peration     | Version:  2312                                  |
|   \\  /    A nd           | Website:  www.openfoam.com                      |
|    \\/     M anipulation  |                                                 |
\*---------------------------------------------------------------------------*/
FoamFile
{
    version     2.0;
    format      ascii;
    arch        "LSB;label=32;scalar=64";
    class       volVectorField;
    location    "0";
    object      f1;
}
// * * * * * * * * * * * * * * * * * * * * * * * * * * * * * * * * * * * * * //

dimensions      [0 0 0 0 0 0 0];

internalField   nonuniform List<vector> 
1620
(
(0.465231 -0.0243503 0.884854)
(0.464775 -0.0314854 0.884869)
(0.464267 -0.0376569 0.884895)
(0.46376 -0.0426794 0.884932)
(0.463324 -0.046404 0.884973)
(0.463009 -0.0487214 0.885014)
(0.462855 -0.0495645 0.885047)
(0.462874 -0.0489086 0.885074)
(0.463068 -0.0467736 0.885088)
(0.463412 -0.0432221 0.885088)
(0.463867 -0.0383584 0.885074)
(0.464378 -0.0323267 0.885047)
(0.464877 -0.0253065 0.885014)
(0.465313 -0.0175104 0.884973)
(0.465629 -0.00917543 0.884932)
(0.465791 -0.000557172 0.884895)
(0.465771 0.00807949 0.884869)
(0.465576 0.0164679 0.884854)
(0.465231 0.0243503 0.884854)
(0.464775 0.0314854 0.884869)
(0.464267 0.0376569 0.884895)
(0.46376 0.0426794 0.884932)
(0.463324 0.046404 0.884973)
(0.463009 0.0487214 0.885014)
(0.462855 0.0495645 0.885047)
(0.462874 0.0489086 0.885074)
(0.463068 0.0467736 0.885088)
(0.463412 0.0432221 0.885088)
(0.463867 0.0383584 0.885074)
(0.464378 0.0323267 0.885047)
(0.464877 0.0253065 0.885014)
(0.465313 0.0175104 0.884973)
(0.465629 0.00917543 0.884932)
(0.465791 0.000557172 0.884895)
(0.465771 -0.00807949 0.884869)
(0.465576 -0.0164679 0.884854)
(0.990257 -0.0111126 0.138805)
(0.989943 -0.0273105 0.138807)
(0.989399 -0.0426741 0.138809)
(0.988691 -0.0567354 0.138818)
(0.987905 -0.0690678 0.138826)
(0.987137 -0.0792982 0.138828)
(0.986477 -0.0871187 0.138828)
(0.986006 -0.0922945 0.138832)
(0.98578 -0.0946705 0.138834)
(0.985828 -0.0941755 0.138834)
(0.986142 -0.0908242 0.138832)
(0.986686 -0.0847166 0.138828)
(0.987393 -0.0760353 0.138828)
(0.988179 -0.0650414 0.138826)
(0.988948 -0.0520668 0.138818)
(0.989609 -0.0375048 0.138809)
(0.99008 -0.0217978 0.138807)
(0.990305 -0.00542531 0.138805)
(0.990257 0.0111126 0.138805)
(0.989943 0.0273105 0.138807)
(0.989399 0.0426741 0.138809)
(0.988691 0.0567354 0.138818)
(0.987905 0.0690678 0.138826)
(0.987137 0.0792982 0.138828)
(0.986477 0.0871187 0.138828)
(0.986006 0.0922945 0.138832)
(0.98578 0.0946705 0.138834)
(0.985828 0.0941755 0.138834)
(0.986142 0.0908242 0.138832)
(0.986686 0.0847166 0.138828)
(0.987393 0.0760353 0.138828)
(0.988179 0.0650414 0.138826)
(0.988948 0.0520668 0.138818)
(0.989609 0.0375048 0.138809)
(0.99008 0.0217978 0.138807)
(0.990305 0.00542531 0.138805)
(0.592465 0.00938825 -0.805542)
(0.592528 -0.000779961 -0.805549)
(0.592408 -0.0109256 -0.805564)
(0.59212 -0.0207378 -0.805583)
(0.591701 -0.029916 -0.805603)
(0.591192 -0.0381796 -0.805627)
(0.590663 -0.0452783 -0.805647)
(0.590178 -0.0509977 -0.80566)
(0.589793 -0.0551663 -0.805668)
(0.589554 -0.0576604 -0.805668)
(0.589491 -0.0584064 -0.80566)
(0.589611 -0.0573829 -0.805647)
(0.5899 -0.0546211 -0.805627)
(0.590325 -0.0502033 -0.805603)
(0.590827 -0.044261 -0.805583)
(0.591354 -0.0369724 -0.805564)
(0.59184 -0.0285564 -0.805549)
(0.592226 -0.0192676 -0.805542)
(0.592465 -0.00938825 -0.805542)
(0.592528 0.000779961 -0.805549)
(0.592408 0.0109256 -0.805564)
(0.59212 0.0207378 -0.805583)
(0.591701 0.029916 -0.805603)
(0.591192 0.0381796 -0.805627)
(0.590663 0.0452783 -0.805647)
(0.590178 0.0509977 -0.80566)
(0.589793 0.0551663 -0.805668)
(0.589554 0.0576604 -0.805668)
(0.589491 0.0584064 -0.80566)
(0.589611 0.0573829 -0.805647)
(0.5899 0.0546211 -0.805627)
(0.590325 0.0502033 -0.805603)
(0.590827 0.044261 -0.805583)
(0.591354 0.0369724 -0.805564)
(0.59184 0.0285564 -0.805549)
(0.592226 0.0192676 -0.805542)
(0.394333 -0.0249011 0.91863)
(0.393872 -0.0308731 0.918647)
(0.393382 -0.0359001 0.918674)
(0.392908 -0.0398315 0.918715)
(0.392521 -0.0425522 0.918758)
(0.392261 -0.0439832 0.918802)
(0.392166 -0.0440847 0.918838)
(0.392233 -0.0428537 0.918867)
(0.392469 -0.0403282 0.91888)
(0.392836 -0.0365815 0.91888)
(0.39329 -0.0317235 0.918867)
(0.393785 -0.025899 0.918838)
(0.394248 -0.0192804 0.918802)
(0.394636 -0.0120689 0.918758)
(0.394896 -0.00448364 0.918715)
(0.395003 0.003242 0.918674)
(0.39493 0.0108703 0.918647)
(0.394701 0.0181648 0.91863)
(0.394333 0.0249011 0.91863)
(0.393872 0.0308731 0.918647)
(0.393382 0.0359001 0.918674)
(0.392908 0.0398315 0.918715)
(0.392521 0.0425522 0.918758)
(0.392261 0.0439832 0.918802)
(0.392166 0.0440847 0.918838)
(0.392233 0.0428537 0.918867)
(0.392469 0.0403282 0.91888)
(0.392836 0.0365815 0.91888)
(0.39329 0.0317235 0.918867)
(0.393785 0.025899 0.918838)
(0.394248 0.0192804 0.918802)
(0.394636 0.0120689 0.918758)
(0.394896 0.00448364 0.918715)
(0.395003 -0.003242 0.918674)
(0.39493 -0.0108703 0.918647)
(0.394701 -0.0181648 0.91863)
(0.983019 -0.0121315 0.183102)
(0.982683 -0.0283855 0.183108)
(0.982117 -0.043772 0.183111)
(0.981389 -0.0578226 0.18312)
(0.980586 -0.0701112 0.183125)
(0.979806 -0.0802662 0.183133)
(0.979143 -0.0879821 0.183137)
(0.978675 -0.0930274 0.183143)
(0.978461 -0.0952512 0.183141)
(0.978526 -0.0945866 0.183141)
(0.978861 -0.0910531 0.183143)
(0.979427 -0.0847564 0.183137)
(0.980155 -0.0758846 0.183133)
(0.980958 -0.0647044 0.183125)
(0.981738 -0.0515532 0.18312)
(0.982402 -0.0368299 0.183111)
(0.982869 -0.0209821 0.183108)
(0.983084 -0.00449375 0.183102)
(0.983019 0.0121315 0.183102)
(0.982683 0.0283855 0.183108)
(0.982117 0.043772 0.183111)
(0.981389 0.0578226 0.18312)
(0.980586 0.0701112 0.183125)
(0.979806 0.0802662 0.183133)
(0.979143 0.0879821 0.183137)
(0.978675 0.0930274 0.183143)
(0.978461 0.0952512 0.183141)
(0.978526 0.0945866 0.183141)
(0.978861 0.0910531 0.183143)
(0.979427 0.0847564 0.183137)
(0.980155 0.0758846 0.183133)
(0.980958 0.0647044 0.183125)
(0.981738 0.0515532 0.18312)
(0.982402 0.0368299 0.183111)
(0.982869 0.0209821 0.183108)
(0.983084 0.00449375 0.183102)
(0.605543 0.00930257 -0.795758)
(0.605603 -0.001263 -0.795766)
(0.60547 -0.0117913 -0.795781)
(0.60516 -0.0219595 -0.795801)
(0.604713 -0.0314564 -0.795822)
(0.604176 -0.0399918 -0.795846)
(0.603622 -0.0473069 -0.795866)
(0.603114 -0.0531808 -0.79588)
(0.602713 -0.0574376 -0.795888)
(0.602468 -0.0599511 -0.795888)
(0.602409 -0.0606472 -0.79588)
(0.602542 -0.0595061 -0.795866)
(0.602851 -0.0565621 -0.795846)
(0.603302 -0.0519036 -0.795822)
(0.603833 -0.0456688 -0.795801)
(0.604389 -0.0380448 -0.795781)
(0.604897 -0.0292606 -0.795766)
(0.605298 -0.0195817 -0.795758)
(0.605543 -0.00930257 -0.795758)
(0.605603 0.001263 -0.795766)
(0.60547 0.0117913 -0.795781)
(0.60516 0.0219595 -0.795801)
(0.604713 0.0314564 -0.795822)
(0.604176 0.0399918 -0.795846)
(0.603622 0.0473069 -0.795866)
(0.603114 0.0531808 -0.79588)
(0.602713 0.0574376 -0.795888)
(0.602468 0.0599511 -0.795888)
(0.602409 0.0606472 -0.79588)
(0.602542 0.0595061 -0.795866)
(0.602851 0.0565621 -0.795846)
(0.603302 0.0519036 -0.795822)
(0.603833 0.0456688 -0.795801)
(0.604389 0.0380448 -0.795781)
(0.604897 0.0292606 -0.795766)
(0.605298 0.0195817 -0.795758)
(0.394002 -0.0250442 0.918768)
(0.393538 -0.0310445 0.918784)
(0.39304 -0.0360944 0.918813)
(0.392563 -0.0400428 0.918853)
(0.392178 -0.0427745 0.918894)
(0.39191 -0.044209 0.918941)
(0.391812 -0.0443074 0.918978)
(0.391882 -0.0430671 0.919007)
(0.392118 -0.0405255 0.919022)
(0.39249 -0.0367569 0.919022)
(0.392951 -0.0318721 0.919007)
(0.39345 -0.0260157 0.918978)
(0.39392 -0.0193619 0.918941)
(0.394318 -0.0121129 0.918894)
(0.394575 -0.00448774 0.918853)
(0.39468 0.00327763 0.918813)
(0.394609 0.0109443 0.918784)
(0.394374 0.0182751 0.918768)
(0.394002 0.0250442 0.918768)
(0.393538 0.0310445 0.918784)
(0.39304 0.0360944 0.918813)
(0.392563 0.0400428 0.918853)
(0.392178 0.0427745 0.918894)
(0.39191 0.044209 0.918941)
(0.391812 0.0443074 0.918978)
(0.391882 0.0430671 0.919007)
(0.392118 0.0405255 0.919022)
(0.39249 0.0367569 0.919022)
(0.392951 0.0318721 0.919007)
(0.39345 0.0260157 0.918978)
(0.39392 0.0193619 0.918941)
(0.394318 0.0121129 0.918894)
(0.394575 0.00448774 0.918853)
(0.39468 -0.00327763 0.918813)
(0.394609 -0.0109443 0.918784)
(0.394374 -0.0182751 0.918768)
(0.98151 -0.0123534 0.191011)
(0.981168 -0.0286641 0.191016)
(0.980595 -0.0440988 0.191021)
(0.979858 -0.0581875 0.191028)
(0.979049 -0.070503 0.19103)
(0.978261 -0.080673 0.191042)
(0.977593 -0.0883917 0.191048)
(0.977123 -0.0934274 0.191052)
(0.97691 -0.0956294 0.191053)
(0.976978 -0.0949318 0.191053)
(0.977319 -0.0913549 0.191052)
(0.977893 -0.0850055 0.191048)
(0.97863 -0.0760735 0.191042)
(0.979441 -0.0648273 0.19103)
(0.980227 -0.0516061 0.191028)
(0.980896 -0.036811 0.191021)
(0.981365 -0.0208922 0.191016)
(0.981578 -0.00433539 0.191011)
(0.98151 0.0123534 0.191011)
(0.981168 0.0286641 0.191016)
(0.980595 0.0440988 0.191021)
(0.979858 0.0581875 0.191028)
(0.979049 0.070503 0.19103)
(0.978261 0.080673 0.191042)
(0.977593 0.0883917 0.191048)
(0.977123 0.0934274 0.191052)
(0.97691 0.0956294 0.191053)
(0.976978 0.0949318 0.191053)
(0.977319 0.0913549 0.191052)
(0.977893 0.0850055 0.191048)
(0.97863 0.0760735 0.191042)
(0.979441 0.0648273 0.19103)
(0.980227 0.0516061 0.191028)
(0.980896 0.036811 0.191021)
(0.981365 0.0208922 0.191016)
(0.981578 0.00433539 0.191011)
(0.610918 0.00925435 -0.79164)
(0.610977 -0.00146682 -0.791647)
(0.610838 -0.0121445 -0.791662)
(0.61052 -0.0224513 -0.791683)
(0.610061 -0.0320717 -0.791705)
(0.609515 -0.0407119 -0.791728)
(0.608951 -0.0481097 -0.791748)
(0.608433 -0.0540419 -0.791763)
(0.608026 -0.0583309 -0.791771)
(0.607779 -0.0608495 -0.791771)
(0.607723 -0.0615235 -0.791763)
(0.607861 -0.0603338 -0.791748)
(0.608179 -0.0573162 -0.791728)
(0.608638 -0.052561 -0.791705)
(0.609183 -0.0462098 -0.791683)
(0.609748 -0.0384527 -0.791662)
(0.610265 -0.029523 -0.791647)
(0.610671 -0.0196905 -0.79164)
(0.610918 -0.00925435 -0.79164)
(0.610977 0.00146682 -0.791647)
(0.610838 0.0121445 -0.791662)
(0.61052 0.0224513 -0.791683)
(0.610061 0.0320717 -0.791705)
(0.609515 0.0407119 -0.791728)
(0.608951 0.0481097 -0.791748)
(0.608433 0.0540419 -0.791763)
(0.608026 0.0583309 -0.791771)
(0.607779 0.0608495 -0.791771)
(0.607723 0.0615235 -0.791763)
(0.607861 0.0603338 -0.791748)
(0.608179 0.0573162 -0.791728)
(0.608638 0.052561 -0.791705)
(0.609183 0.0462098 -0.791683)
(0.609748 0.0384527 -0.791662)
(0.610265 0.029523 -0.791647)
(0.610671 0.0196905 -0.79164)
(0.400216 -0.0249329 0.916081)
(0.399759 -0.0310196 0.916095)
(0.399263 -0.0361568 0.916123)
(0.398786 -0.0401907 0.916163)
(0.398393 -0.0430028 0.916206)
(0.398127 -0.0445116 0.91625)
(0.398024 -0.0446745 0.916287)
(0.398089 -0.0434874 0.916316)
(0.398316 -0.0409858 0.916332)
(0.398684 -0.0372437 0.916332)
(0.399147 -0.032371 0.916316)
(0.399644 -0.0265112 0.916287)
(0.400116 -0.0198392 0.91625)
(0.400511 -0.012557 0.916206)
(0.400777 -0.00488603 0.916163)
(0.400886 0.00293767 0.916123)
(0.400819 0.0106731 0.916095)
(0.400584 0.0180809 0.916081)
(0.400216 0.0249329 0.916081)
(0.399759 0.0310196 0.916095)
(0.399263 0.0361568 0.916123)
(0.398786 0.0401907 0.916163)
(0.398393 0.0430028 0.916206)
(0.398127 0.0445116 0.91625)
(0.398024 0.0446745 0.916287)
(0.398089 0.0434874 0.916316)
(0.398316 0.0409858 0.916332)
(0.398684 0.0372437 0.916332)
(0.399147 0.032371 0.916316)
(0.399644 0.0265112 0.916287)
(0.400116 0.0198392 0.91625)
(0.400511 0.012557 0.916206)
(0.400777 0.00488603 0.916163)
(0.400886 -0.00293767 0.916123)
(0.400819 -0.0106731 0.916095)
(0.400584 -0.0180809 0.916081)
(0.980965 -0.0123511 0.193793)
(0.980626 -0.0285754 0.193795)
(0.980057 -0.0439265 0.193799)
(0.979327 -0.0579369 0.193807)
(0.978525 -0.0701818 0.193815)
(0.977746 -0.0802911 0.193821)
(0.977085 -0.0879606 0.193826)
(0.976621 -0.0929603 0.193831)
(0.97641 -0.0951404 0.193835)
(0.976478 -0.0944356 0.193835)
(0.976818 -0.0908666 0.193831)
(0.977387 -0.0845398 0.193826)
(0.978116 -0.0756445 0.193821)
(0.978919 -0.064448 0.193815)
(0.979698 -0.0512884 0.193807)
(0.98036 -0.0365645 0.193799)
(0.980823 -0.0207243 0.193795)
(0.981033 -0.00425125 0.193793)
(0.980965 0.0123511 0.193793)
(0.980626 0.0285754 0.193795)
(0.980057 0.0439265 0.193799)
(0.979327 0.0579369 0.193807)
(0.978525 0.0701818 0.193815)
(0.977746 0.0802911 0.193821)
(0.977085 0.0879606 0.193826)
(0.976621 0.0929603 0.193831)
(0.97641 0.0951404 0.193835)
(0.976478 0.0944356 0.193835)
(0.976818 0.0908666 0.193831)
(0.977387 0.0845398 0.193826)
(0.978116 0.0756445 0.193821)
(0.978919 0.064448 0.193815)
(0.979698 0.0512884 0.193807)
(0.98036 0.0365645 0.193799)
(0.980823 0.0207243 0.193795)
(0.981033 0.00425125 0.193793)
(0.614951 0.00912768 -0.788513)
(0.615007 -0.00160638 -0.78852)
(0.614867 -0.0122927 -0.788535)
(0.614548 -0.0226036 -0.788556)
(0.614092 -0.0322236 -0.788577)
(0.613547 -0.0408587 -0.788601)
(0.612985 -0.0482471 -0.78862)
(0.612472 -0.0541659 -0.788634)
(0.612069 -0.0584377 -0.788642)
(0.611825 -0.0609358 -0.788642)
(0.611771 -0.0615867 -0.788634)
(0.61191 -0.0603718 -0.78862)
(0.612228 -0.0573279 -0.788601)
(0.612687 -0.052546 -0.788577)
(0.613228 -0.0461684 -0.788556)
(0.61379 -0.0383862 -0.788535)
(0.614304 -0.0294334 -0.78852)
(0.614707 -0.0195807 -0.788513)
(0.614951 -0.00912768 -0.788513)
(0.615007 0.00160638 -0.78852)
(0.614867 0.0122927 -0.788535)
(0.614548 0.0226036 -0.788556)
(0.614092 0.0322236 -0.788577)
(0.613547 0.0408587 -0.788601)
(0.612985 0.0482471 -0.78862)
(0.612472 0.0541659 -0.788634)
(0.612069 0.0584377 -0.788642)
(0.611825 0.0609358 -0.788642)
(0.611771 0.0615867 -0.788634)
(0.61191 0.0603718 -0.78862)
(0.612228 0.0573279 -0.788601)
(0.612687 0.052546 -0.788577)
(0.613228 0.0461684 -0.788556)
(0.61379 0.0383862 -0.788535)
(0.614304 0.0294334 -0.78852)
(0.614707 0.0195807 -0.788513)
(0.406001 -0.0245759 0.913542)
(0.405555 -0.0306797 0.913556)
(0.405068 -0.0358445 0.913584)
(0.404605 -0.0399159 0.91362)
(0.404213 -0.0427734 0.913664)
(0.403954 -0.044335 0.913704)
(0.403844 -0.0445551 0.913742)
(0.403906 -0.043429 0.913769)
(0.404125 -0.0409899 0.913785)
(0.404481 -0.0373098 0.913785)
(0.404932 -0.0324972 0.913769)
(0.405417 -0.0266936 0.913742)
(0.405883 -0.0200732 0.913704)
(0.406267 -0.0128349 0.913664)
(0.406536 -0.00520051 0.91362)
(0.406643 0.00259664 0.913584)
(0.406583 0.0103155 0.913556)
(0.406358 0.0177179 0.913542)
(0.406001 0.0245759 0.913542)
(0.405555 0.0306797 0.913556)
(0.405068 0.0358445 0.913584)
(0.404605 0.0399159 0.91362)
(0.404213 0.0427734 0.913664)
(0.403954 0.044335 0.913704)
(0.403844 0.0445551 0.913742)
(0.403906 0.043429 0.913769)
(0.404125 0.0409899 0.913785)
(0.404481 0.0373098 0.913785)
(0.404932 0.0324972 0.913769)
(0.405417 0.0266936 0.913742)
(0.405883 0.0200732 0.913704)
(0.406267 0.0128349 0.913664)
(0.406536 0.00520051 0.91362)
(0.406643 -0.00259664 0.913584)
(0.406583 -0.0103155 0.913556)
(0.406358 -0.0177179 0.913542)
(0.980202 -0.0122394 0.197623)
(0.979872 -0.0282044 0.197626)
(0.97932 -0.0433076 0.197629)
(0.978612 -0.0570892 0.197634)
(0.977833 -0.0691313 0.197645)
(0.977079 -0.0790699 0.197649)
(0.976438 -0.0866058 0.197656)
(0.975989 -0.091513 0.197662)
(0.975787 -0.0936443 0.197664)
(0.975854 -0.092936 0.197664)
(0.976184 -0.0894088 0.197662)
(0.976737 -0.0831679 0.197656)
(0.977445 -0.0744002 0.197649)
(0.978223 -0.0633691 0.197645)
(0.978979 -0.050408 0.197634)
(0.979619 -0.0359095 0.197629)
(0.980067 -0.0203149 0.197626)
(0.98027 -0.00410014 0.197623)
(0.980202 0.0122394 0.197623)
(0.979872 0.0282044 0.197626)
(0.97932 0.0433076 0.197629)
(0.978612 0.0570892 0.197634)
(0.977833 0.0691313 0.197645)
(0.977079 0.0790699 0.197649)
(0.976438 0.0866058 0.197656)
(0.975989 0.091513 0.197662)
(0.975787 0.0936443 0.197664)
(0.975854 0.092936 0.197664)
(0.976184 0.0894088 0.197662)
(0.976737 0.0831679 0.197656)
(0.977445 0.0744002 0.197649)
(0.978223 0.0633691 0.197645)
(0.978979 0.050408 0.197634)
(0.979619 0.0359095 0.197629)
(0.980067 0.0203149 0.197626)
(0.98027 0.00410014 0.197623)
(0.619558 0.00889012 -0.784901)
(0.619608 -0.00174639 -0.78491)
(0.619471 -0.0123309 -0.784923)
(0.619158 -0.0225389 -0.784943)
(0.618711 -0.032058 -0.784964)
(0.618181 -0.0405977 -0.784986)
(0.617635 -0.0478989 -0.785005)
(0.617135 -0.053741 -0.78502)
(0.616747 -0.0579495 -0.785026)
(0.616512 -0.0603988 -0.785026)
(0.616458 -0.0610169 -0.78502)
(0.616598 -0.0597866 -0.785005)
(0.616909 -0.0567446 -0.784986)
(0.617356 -0.0519821 -0.784964)
(0.617885 -0.0456411 -0.784943)
(0.618432 -0.0379115 -0.784923)
(0.61893 -0.0290259 -0.78491)
(0.619322 -0.0192531 -0.784901)
(0.619558 -0.00889012 -0.784901)
(0.619608 0.00174639 -0.78491)
(0.619471 0.0123309 -0.784923)
(0.619158 0.0225389 -0.784943)
(0.618711 0.032058 -0.784964)
(0.618181 0.0405977 -0.784986)
(0.617635 0.0478989 -0.785005)
(0.617135 0.053741 -0.78502)
(0.616747 0.0579495 -0.785026)
(0.616512 0.0603988 -0.785026)
(0.616458 0.0610169 -0.78502)
(0.616598 0.0597866 -0.785005)
(0.616909 0.0567446 -0.784986)
(0.617356 0.0519821 -0.784964)
(0.617885 0.0456411 -0.784943)
(0.618432 0.0379115 -0.784923)
(0.61893 0.0290259 -0.78491)
(0.619322 0.0192531 -0.784901)
(0.410465 -0.0239705 0.911561)
(0.410036 -0.0300028 0.911576)
(0.40957 -0.035117 0.911603)
(0.409129 -0.0391604 0.911636)
(0.408754 -0.042013 0.911677)
(0.408502 -0.0435921 0.911716)
(0.408391 -0.0438518 0.911753)
(0.408447 -0.0427865 0.911778)
(0.408658 -0.0404274 0.911792)
(0.408996 -0.0368439 0.911792)
(0.409423 -0.0321416 0.911778)
(0.409885 -0.0264597 0.911753)
(0.410335 -0.0199688 0.911716)
(0.410706 -0.0128636 0.911677)
(0.410964 -0.00536168 0.911636)
(0.411066 0.00230766 0.911603)
(0.411013 0.00990724 0.911576)
(0.410804 0.017203 0.911561)
(0.410465 0.0239705 0.911561)
(0.410036 0.0300028 0.911576)
(0.40957 0.035117 0.911603)
(0.409129 0.0391604 0.911636)
(0.408754 0.042013 0.911677)
(0.408502 0.0435921 0.911716)
(0.408391 0.0438518 0.911753)
(0.408447 0.0427865 0.911778)
(0.408658 0.0404274 0.911792)
(0.408996 0.0368439 0.911792)
(0.409423 0.0321416 0.911778)
(0.409885 0.0264597 0.911753)
(0.410335 0.0199688 0.911716)
(0.410706 0.0128637 0.911677)
(0.410964 0.00536168 0.911636)
(0.411066 -0.00230766 0.911603)
(0.411013 -0.00990724 0.911576)
(0.410804 -0.017203 0.911561)
(0.978887 -0.0120426 0.204048)
(0.978572 -0.0275676 0.204051)
(0.978047 -0.0422505 0.204057)
(0.977375 -0.0556444 0.204061)
(0.976638 -0.0673431 0.204068)
(0.975923 -0.0769928 0.204075)
(0.975317 -0.084303 0.204083)
(0.974894 -0.0890542 0.204087)
(0.974704 -0.0911041 0.204089)
(0.97477 -0.090391 0.204089)
(0.975085 -0.0869359 0.204087)
(0.97561 -0.0808421 0.204083)
(0.976282 -0.0722921 0.204075)
(0.97702 -0.061543 0.204068)
(0.977735 -0.0489195 0.204061)
(0.97834 -0.0348043 0.204057)
(0.978764 -0.0196271 0.204051)
(0.978953 -0.00385082 0.204048)
(0.978887 0.0120426 0.204048)
(0.978572 0.0275676 0.204051)
(0.978047 0.0422505 0.204057)
(0.977375 0.0556444 0.204061)
(0.976638 0.0673431 0.204068)
(0.975923 0.0769928 0.204075)
(0.975317 0.084303 0.204083)
(0.974894 0.0890542 0.204087)
(0.974704 0.0911041 0.204089)
(0.97477 0.090391 0.204089)
(0.975085 0.0869359 0.204087)
(0.97561 0.0808421 0.204083)
(0.976282 0.0722921 0.204075)
(0.97702 0.061543 0.204068)
(0.977735 0.0489195 0.204061)
(0.97834 0.0348043 0.204057)
(0.978764 0.0196271 0.204051)
(0.978953 0.00385082 0.204048)
(0.625255 0.008537 -0.780374)
(0.625301 -0.00189942 -0.780381)
(0.625167 -0.0122791 -0.780394)
(0.624867 -0.0222838 -0.780413)
(0.62444 -0.0316078 -0.780433)
(0.623935 -0.0399664 -0.780454)
(0.623415 -0.0471061 -0.780471)
(0.62294 -0.0528112 -0.780485)
(0.62257 -0.0569109 -0.780492)
(0.622349 -0.059283 -0.780492)
(0.622302 -0.0598576 -0.780485)
(0.622438 -0.0586183 -0.780471)
(0.622736 -0.0556026 -0.780454)
(0.623164 -0.0509007 -0.780433)
(0.623668 -0.044653 -0.780413)
(0.62419 -0.037047 -0.780394)
(0.624663 -0.0283115 -0.780381)
(0.625033 -0.0187108 -0.780374)
(0.625255 -0.008537 -0.780374)
(0.625301 0.00189942 -0.780381)
(0.625167 0.0122791 -0.780394)
(0.624867 0.0222838 -0.780413)
(0.62444 0.0316078 -0.780433)
(0.623935 0.0399664 -0.780454)
(0.623415 0.0471061 -0.780471)
(0.62294 0.0528112 -0.780485)
(0.62257 0.0569109 -0.780492)
(0.622349 0.059283 -0.780492)
(0.622302 0.0598576 -0.780485)
(0.622438 0.0586183 -0.780471)
(0.622736 0.0556026 -0.780454)
(0.623164 0.0509007 -0.780433)
(0.623668 0.044653 -0.780413)
(0.62419 0.037047 -0.780394)
(0.624663 0.0283115 -0.780381)
(0.625033 0.0187108 -0.780374)
(0.41314 -0.0231081 0.910374)
(0.41274 -0.0289691 0.910388)
(0.412306 -0.0339441 0.910413)
(0.411895 -0.0378844 0.910444)
(0.411545 -0.0406726 0.910481)
(0.411307 -0.0422278 0.910518)
(0.411202 -0.0425044 0.910553)
(0.411252 -0.0414962 0.910576)
(0.411448 -0.0392329 0.910588)
(0.411762 -0.035781 0.910588)
(0.412158 -0.0312424 0.910576)
(0.41259 -0.0257521 0.910553)
(0.413011 -0.0194747 0.910518)
(0.413358 -0.012599 0.910481)
(0.413599 -0.00533491 0.910444)
(0.413696 0.00209521 0.910413)
(0.413647 0.00946204 0.910388)
(0.413455 0.0165388 0.910374)
(0.41314 0.0231081 0.910374)
(0.41274 0.0289691 0.910388)
(0.412306 0.0339441 0.910413)
(0.411895 0.0378844 0.910444)
(0.411545 0.0406726 0.910481)
(0.411307 0.0422278 0.910518)
(0.411202 0.0425044 0.910553)
(0.411252 0.0414962 0.910576)
(0.411448 0.0392329 0.910588)
(0.411762 0.035781 0.910588)
(0.412158 0.0312424 0.910576)
(0.41259 0.0257521 0.910553)
(0.413011 0.0194747 0.910518)
(0.413358 0.012599 0.910481)
(0.413599 0.00533491 0.910444)
(0.413696 -0.00209521 0.910413)
(0.413647 -0.00946204 0.910388)
(0.413455 -0.0165388 0.910374)
(0.976623 -0.0117766 0.214637)
(0.976329 -0.0266701 0.214642)
(0.975841 -0.0407492 0.214647)
(0.97522 -0.0535854 0.214652)
(0.974538 -0.0647894 0.214659)
(0.973879 -0.0740225 0.214666)
(0.973321 -0.0810063 0.214673)
(0.972933 -0.0855312 0.214677)
(0.972761 -0.0874613 0.214677)
(0.972826 -0.0867385 0.214677)
(0.973119 -0.0833842 0.214677)
(0.973606 -0.0774987 0.214673)
(0.974229 -0.0692586 0.214666)
(0.974911 -0.0589118 0.214659)
(0.97557 -0.0467709 0.214652)
(0.976127 -0.0332043 0.214647)
(0.976515 -0.0186247 0.214642)
(0.976688 -0.0034769 0.214637)
(0.976623 0.0117766 0.214637)
(0.976329 0.0266701 0.214642)
(0.975841 0.0407492 0.214647)
(0.97522 0.0535854 0.214652)
(0.974538 0.0647894 0.214659)
(0.973879 0.0740225 0.214666)
(0.973321 0.0810063 0.214673)
(0.972933 0.0855312 0.214677)
(0.972761 0.0874613 0.214677)
(0.972826 0.0867385 0.214677)
(0.973119 0.0833842 0.214677)
(0.973606 0.0774987 0.214673)
(0.974229 0.0692586 0.214666)
(0.974911 0.0589118 0.214659)
(0.97557 0.0467709 0.214652)
(0.976127 0.0332043 0.214647)
(0.976515 0.0186247 0.214642)
(0.976688 0.0034769 0.214637)
(0.632378 0.00806671 -0.774618)
(0.632419 -0.00206746 -0.774624)
(0.632291 -0.0121395 -0.774636)
(0.632009 -0.0218412 -0.774653)
(0.631609 -0.0308758 -0.774672)
(0.631138 -0.038968 -0.774691)
(0.630655 -0.0458721 -0.774707)
(0.630215 -0.0513795 -0.774719)
(0.629871 -0.0553249 -0.774726)
(0.629668 -0.057591 -0.774726)
(0.62963 -0.0581106 -0.774719)
(0.629758 -0.0568688 -0.774707)
(0.630038 -0.0539032 -0.774691)
(0.630438 -0.0493026 -0.774672)
(0.630909 -0.0432047 -0.774653)
(0.631394 -0.0357926 -0.774636)
(0.631833 -0.0272895 -0.774624)
(0.632175 -0.0179529 -0.774618)
(0.632378 -0.00806671 -0.774618)
(0.632419 0.00206746 -0.774624)
(0.632291 0.0121395 -0.774636)
(0.632009 0.0218412 -0.774653)
(0.631609 0.0308758 -0.774672)
(0.631138 0.038968 -0.774691)
(0.630655 0.0458721 -0.774707)
(0.630215 0.0513795 -0.774719)
(0.629871 0.0553249 -0.774726)
(0.629668 0.057591 -0.774726)
(0.62963 0.0581106 -0.774719)
(0.629758 0.0568688 -0.774707)
(0.630038 0.0539032 -0.774691)
(0.630438 0.0493026 -0.774672)
(0.630909 0.0432047 -0.774653)
(0.631394 0.0357926 -0.774636)
(0.631833 0.0272895 -0.774624)
(0.632175 0.0179529 -0.774618)
(0.413578 -0.021973 0.910204)
(0.413214 -0.0275533 0.910217)
(0.412823 -0.0322915 0.910239)
(0.412449 -0.0360455 0.910267)
(0.412134 -0.0387037 0.910301)
(0.411917 -0.040188 0.910335)
(0.411824 -0.0404555 0.910365)
(0.411867 -0.039499 0.910387)
(0.412046 -0.0373477 0.910397)
(0.412331 -0.0340645 0.910397)
(0.412686 -0.0297464 0.910387)
(0.413079 -0.0245228 0.910365)
(0.413457 -0.0185497 0.910335)
(0.413773 -0.0120076 0.910301)
(0.413989 -0.00509578 0.910267)
(0.41408 0.00197412 0.910239)
(0.414034 0.00898454 0.910217)
(0.413863 0.0157197 0.910204)
(0.413578 0.021973 0.910204)
(0.413214 0.0275533 0.910217)
(0.412823 0.0322915 0.910239)
(0.412449 0.0360455 0.910267)
(0.412134 0.0387037 0.910301)
(0.411917 0.040188 0.910335)
(0.411824 0.0404555 0.910365)
(0.411867 0.039499 0.910387)
(0.412046 0.0373477 0.910397)
(0.412331 0.0340645 0.910397)
(0.412686 0.0297464 0.910387)
(0.413079 0.0245228 0.910365)
(0.413457 0.0185497 0.910335)
(0.413773 0.0120076 0.910301)
(0.413989 0.00509578 0.910267)
(0.41408 -0.00197412 0.910239)
(0.414034 -0.00898454 0.910217)
(0.413863 -0.0157197 0.910204)
(0.972731 -0.0114557 0.231651)
(0.972463 -0.025508 0.231657)
(0.972024 -0.0387817 0.23166)
(0.971464 -0.050873 0.231666)
(0.970853 -0.0614152 0.231672)
(0.970264 -0.0700893 0.23168)
(0.969768 -0.0766339 0.231685)
(0.969424 -0.080852 0.231692)
(0.969275 -0.082617 0.23169)
(0.969338 -0.0818757 0.23169)
(0.969605 -0.0786499 0.231692)
(0.970045 -0.0730365 0.231685)
(0.970604 -0.0652038 0.23168)
(0.971216 -0.0553879 0.231672)
(0.971805 -0.0438856 0.231666)
(0.972301 -0.0310459 0.23166)
(0.972644 -0.0172594 0.231657)
(0.972794 -0.00294665 0.231651)
(0.972731 0.0114557 0.231651)
(0.972463 0.025508 0.231657)
(0.972024 0.0387817 0.23166)
(0.971464 0.050873 0.231666)
(0.970853 0.0614152 0.231672)
(0.970264 0.0700893 0.23168)
(0.969768 0.0766339 0.231685)
(0.969424 0.080852 0.231692)
(0.969275 0.082617 0.23169)
(0.969338 0.0818757 0.23169)
(0.969605 0.0786499 0.231692)
(0.970045 0.0730365 0.231685)
(0.970604 0.0652038 0.23168)
(0.971216 0.0553879 0.231672)
(0.971805 0.0438856 0.231666)
(0.972301 0.0310459 0.23166)
(0.972644 0.0172594 0.231657)
(0.972794 0.00294665 0.231651)
(0.641527 0.00747245 -0.767064)
(0.64156 -0.00225569 -0.76707)
(0.64144 -0.0119159 -0.767081)
(0.641181 -0.0212127 -0.767096)
(0.640816 -0.029862 -0.767113)
(0.640389 -0.0376003 -0.76713)
(0.639951 -0.0441927 -0.767144)
(0.639554 -0.0494399 -0.767155)
(0.639246 -0.0531843 -0.767161)
(0.639065 -0.0553141 -0.767161)
(0.639033 -0.0557661 -0.767155)
(0.639153 -0.0545274 -0.767144)
(0.639411 -0.0516353 -0.76713)
(0.639775 -0.0471767 -0.767113)
(0.640202 -0.0412853 -0.767096)
(0.640641 -0.0341381 -0.767081)
(0.641038 -0.0259507 -0.76707)
(0.641346 -0.0169712 -0.767064)
(0.641527 -0.00747245 -0.767064)
(0.64156 0.00225569 -0.76707)
(0.64144 0.0119159 -0.767081)
(0.641181 0.0212127 -0.767096)
(0.640816 0.029862 -0.767113)
(0.640389 0.0376003 -0.76713)
(0.639951 0.0441927 -0.767144)
(0.639554 0.0494399 -0.767155)
(0.639246 0.0531843 -0.767161)
(0.639065 0.0553141 -0.767161)
(0.639033 0.0557661 -0.767155)
(0.639153 0.0545274 -0.767144)
(0.639411 0.0516353 -0.76713)
(0.639775 0.0471767 -0.767113)
(0.640202 0.0412853 -0.767096)
(0.640641 0.0341381 -0.767081)
(0.641038 0.0259507 -0.76707)
(0.641346 0.0169712 -0.767064)
(0.410627 -0.0205413 0.911572)
(0.410308 -0.0257134 0.911585)
(0.40997 -0.0301003 0.911602)
(0.40964 -0.0335699 0.911629)
(0.409367 -0.0360192 0.911659)
(0.409179 -0.0373758 0.911688)
(0.409104 -0.0376005 0.911713)
(0.409141 -0.0366867 0.911734)
(0.409299 -0.0346627 0.911742)
(0.409548 -0.0315877 0.911742)
(0.409857 -0.027553 0.911734)
(0.410201 -0.02268 0.911713)
(0.410526 -0.0171139 0.911688)
(0.410801 -0.0110237 0.911659)
(0.410987 -0.00459441 0.911629)
(0.411068 0.00197681 0.911602)
(0.411025 0.00848867 0.911585)
(0.410876 0.0147406 0.911572)
(0.410627 0.0205413 0.911572)
(0.410308 0.0257134 0.911585)
(0.40997 0.0301003 0.911602)
(0.40964 0.0335699 0.911629)
(0.409367 0.0360192 0.911659)
(0.409179 0.0373758 0.911688)
(0.409104 0.0376005 0.911713)
(0.409141 0.0366867 0.911734)
(0.409299 0.0346627 0.911742)
(0.409548 0.0315877 0.911742)
(0.409857 0.027553 0.911734)
(0.410201 0.02268 0.911713)
(0.410526 0.0171139 0.911688)
(0.410801 0.0110237 0.911659)
(0.410987 0.00459441 0.911629)
(0.411068 -0.00197681 0.911602)
(0.411025 -0.00848867 0.911585)
(0.410876 -0.0147406 0.911572)
(0.966248 -0.0110732 0.257374)
(0.966012 -0.0240531 0.257377)
(0.965628 -0.0362994 0.25738)
(0.965143 -0.0474394 0.25739)
(0.964616 -0.0571354 0.257395)
(0.964109 -0.0650937 0.257403)
(0.963686 -0.0710745 0.257404)
(0.963395 -0.0748973 0.25741)
(0.963273 -0.0764473 0.257411)
(0.963334 -0.0756777 0.257411)
(0.96357 -0.0726114 0.25741)
(0.963955 -0.0673404 0.257404)
(0.964438 -0.060023 0.257403)
(0.964966 -0.0508803 0.257395)
(0.965472 -0.0401886 0.25739)
(0.965897 -0.0282728 0.25738)
(0.966187 -0.015495 0.257377)
(0.966309 -0.00224495 0.257374)
(0.966248 0.0110732 0.257374)
(0.966012 0.0240531 0.257377)
(0.965628 0.0362994 0.25738)
(0.965143 0.0474394 0.25739)
(0.964616 0.0571354 0.257395)
(0.964109 0.0650937 0.257403)
(0.963686 0.0710745 0.257404)
(0.963395 0.0748973 0.25741)
(0.963273 0.0764473 0.257411)
(0.963334 0.0756777 0.257411)
(0.96357 0.0726114 0.25741)
(0.963955 0.0673404 0.257404)
(0.964438 0.060023 0.257403)
(0.964966 0.0508803 0.257395)
(0.965472 0.0401886 0.25739)
(0.965897 0.0282728 0.25738)
(0.966187 0.015495 0.257377)
(0.966309 0.00224495 0.257374)
(0.65329 0.00674944 -0.757077)
(0.653316 -0.00245968 -0.757082)
(0.653205 -0.0115944 -0.757092)
(0.652977 -0.0203759 -0.757104)
(0.652655 -0.0285358 -0.757117)
(0.652278 -0.0358256 -0.757133)
(0.651892 -0.042024 -0.757146)
(0.651547 -0.0469439 -0.757155)
(0.651279 -0.0504369 -0.75716)
(0.651124 -0.0523984 -0.75716)
(0.651101 -0.0527704 -0.757155)
(0.651209 -0.0515417 -0.757146)
(0.65144 -0.04875 -0.757133)
(0.651763 -0.0444788 -0.757117)