/*--------------------------------*- C++ -*----------------------------------*\
| =========                 |                                                 |
| \\      /  F ield         | OpenFOAM: The Open Source CFD Toolbox           |
|  \\    /   O peration     | Version:  2312                                  |
|   \\  /    A nd           | Website:  www.openfoam.com                      |
|    \\/     M anipulation  |                                                 |
\*---------------------------------------------------------------------------*/
FoamFile
{
    version     2.0;
    format      ascii;
    arch        "LSB;label=32;scalar=64";
    class       volVectorField;
    location    "0";
    object      ns;
}
// * * * * * * * * * * * * * * * * * * * * * * * * * * * * * * * * * * * * * //

dimensions      [0 0 0 0 0 0 0];

internalField   nonuniform List<vector> 
1620
(
(0.226035 2.75946e-16 0.974119)
(0.213306 -0.162384 0.963396)
(0.190127 -0.30933 0.931755)
(0.160282 -0.430979 0.888013)
(0.127446 -0.525028 0.841488)
(0.0941194 -0.594044 0.798908)
(0.0615699 -0.642249 0.76402)
(0.0302151 -0.673591 0.738486)
(2.13589e-17 -0.690993 0.722861)
(-0.029346 -0.696203 0.717245)
(-0.0581545 -0.689824 0.721638)
(-0.0867129 -0.67136 0.736041)
(-0.115162 -0.639188 0.760379)
(-0.143346 -0.59053 0.794182)
(-0.170582 -0.521586 0.835972)
(-0.195353 -0.428212 0.882311)
(-0.215068 -0.307704 0.926857)
(-0.226314 -0.161897 0.960506)
(-0.226035 -1.5665e-16 0.974119)
(-0.213306 0.162384 0.963396)
(-0.190127 0.30933 0.931755)
(-0.160282 0.430979 0.888013)
(-0.127446 0.525028 0.841488)
(-0.0941194 0.594044 0.798908)
(-0.0615699 0.642249 0.76402)
(-0.0302151 0.673591 0.738486)
(-5.60941e-17 0.690993 0.722861)
(0.029346 0.696203 0.717245)
(0.0618908 0.637451 0.768002)
(0.0919626 0.618227 0.780601)
(0.121428 0.585196 0.801749)
(0.149923 0.536277 0.83062)
(0.176596 0.468855 0.865442)
(0.199915 0.380496 0.902916)
(0.217618 0.270344 0.937847)
(0.227048 0.141029 0.963618)
(0.317448 2.68625e-16 0.948276)
(0.296688 -0.222 0.928812)
(0.257374 -0.411581 0.874277)
(0.209737 -0.554319 0.805444)
(0.161497 -0.653933 0.739114)
(0.116167 -0.720666 0.683481)
(0.0745141 -0.763986 0.640915)
(0.0360811 -0.790611 0.611255)
(1.98711e-17 -0.804717 0.593659)
(-0.0346741 -0.80854 0.587418)
(-0.0688561 -0.802807 0.59225)
(-0.103402 -0.786885 0.608375)
(-0.139067 -0.758672 0.636457)
(-0.176382 -0.714203 0.677351)
(-0.215308 -0.647091 0.73138)
(-0.254471 -0.548266 0.796649)
(-0.289875 -0.407642 0.86591)
(-0.313904 -0.220717 0.923444)
(-0.317448 -1.52494e-16 0.948276)
(-0.296688 0.222 0.928812)
(-0.257374 0.411581 0.874277)
(-0.209737 0.554319 0.805444)
(-0.161497 0.653933 0.739114)
(-0.116167 0.720666 0.683481)
(-0.0745141 0.763986 0.640915)
(-0.0360811 0.790611 0.611255)
(-5.21868e-17 0.804717 0.593659)
(0.0346741 0.80854 0.587418)
(0.0613113 0.84743 0.527355)
(0.0924482 0.834023 0.543929)
(0.125223 0.809861 0.5731)
(0.160561 0.770733 0.616596)
(0.199074 0.709277 0.676236)
(0.240254 0.613647 0.752141)
(0.280579 0.467756 0.838141)
(0.310849 0.25911 0.914459)
(0.242497 2.74822e-16 0.970152)
(0.223634 -0.266121 0.937639)
(0.188429 -0.479209 0.857236)
(0.148875 -0.625743 0.765691)
(0.111777 -0.719798 0.685126)
(0.0789512 -0.778932 0.622119)
(0.050027 -0.815717 0.576284)
(0.0240414 -0.837783 0.545474)
(1.80979e-17 -0.849421 0.527715)
(-0.022996 -0.852785 0.521756)
(-0.0457628 -0.848531 0.527162)
(-0.0690789 -0.836024 0.544328)
(-0.0937233 -0.813144 0.574467)
(-0.120456 -0.775681 0.619523)
(-0.149836 -0.71616 0.681663)
(-0.18161 -0.622272 0.761443)
(-0.213167 -0.476735 0.852809)
(-0.237202 -0.265243 0.934549)
(-0.242497 -1.56012e-16 0.970152)
(-0.223634 0.266121 0.937639)
(-0.188429 0.479209 0.857236)
(-0.148875 0.625743 0.765691)
(-0.111777 0.719798 0.685126)
(-0.0789512 0.778932 0.622119)
(-0.050027 0.815717 0.576284)
(-0.0240414 0.837783 0.545474)
(-4.75299e-17 0.849421 0.527715)
(0.022996 0.852785 0.521756)
(0.0494774 0.820187 0.569953)
(0.0745023 0.806106 0.587062)
(0.100639 0.780615 0.616856)
(0.128462 0.739574 0.660703)
(0.1582 0.676005 0.719715)
(0.189107 0.579294 0.792879)
(0.218202 0.436279 0.872954)
(0.238894 0.238827 0.941218)
(0.205978 2.77203e-16 0.978557)
(0.194678 -0.150347 0.969276)
(0.174316 -0.287707 0.941721)
(0.147857 -0.403322 0.903034)
(0.118309 -0.494437 0.861124)
(0.0878567 -0.562537 0.822091)
(0.057725 -0.610852 0.789637)
(0.0284165 -0.642658 0.765626)
(2.14793e-17 -0.660497 0.750829)
(-0.0276696 -0.665928 0.745503)
(-0.0548055 -0.659504 0.7497)
(-0.0815824 -0.640775 0.763382)
(-0.108033 -0.608292 0.786327)
(-0.13391 -0.559635 0.817849)
(-0.158496 -0.49164 0.856253)
(-0.180381 -0.401115 0.898092)
(-0.197348 -0.286434 0.937555)
(-0.206654 -0.149971 0.966852)
(-0.205978 5.99193e-17 0.978557)
(-0.194678 0.150347 0.969276)
(-0.174316 0.287707 0.941721)
(-0.147857 0.403322 0.903034)
(-0.118309 0.494437 0.861124)
(-0.0878567 0.562537 0.822091)
(-0.057725 0.610852 0.789637)
(-0.0284165 0.642658 0.765626)
(-5.64104e-17 0.660497 0.750829)
(0.0276696 0.665928 0.745503)
(0.0576385 0.612387 0.788454)
(0.0855459 0.593238 0.800469)
(0.112728 0.560416 0.820504)
(0.138787 0.512107 0.847635)
(0.162895 0.446128 0.88002)
(0.183668 0.360605 0.914456)
(0.199157 0.255218 0.94615)
(0.207169 0.132742 0.969258)
(0.260303 2.73512e-16 0.965527)
(0.243462 -0.212189 0.946415)
(0.211948 -0.394783 0.893994)
(0.173513 -0.534141 0.827398)
(0.134184 -0.63286 0.76255)
(0.0968605 -0.699902 0.707641)
(0.0622952 -0.743944 0.665332)
(0.030221 -0.771317 0.635734)
(1.99431e-17 -0.786033 0.618185)
(-0.0290962 -0.790267 0.612072)
(-0.0577841 -0.78472 0.617152)
(-0.0867297 -0.768761 0.633628)
(-0.116505 -0.740316 0.662087)
(-0.14747 -0.69552 0.70321)
(-0.179473 -0.628266 0.757015)
(-0.211246 -0.530128 0.821182)
(-0.239447 -0.392209 0.888165)
(-0.258076 -0.211361 0.942721)
(-0.260303 -1.55269e-16 0.965527)
(-0.243462 0.212189 0.946415)
(-0.211948 0.394783 0.893994)
(-0.173513 0.534141 0.827398)
(-0.134184 0.63286 0.76255)
(-0.0968605 0.699902 0.707641)
(-0.0622952 0.743944 0.665332)
(-0.030221 0.771317 0.635734)
(-5.2376e-17 0.786033 0.618185)
(0.0290962 0.790267 0.612072)
(0.0627023 0.739998 0.66968)
(0.0937771 0.722374 0.685114)
(0.125206 0.691411 0.71153)
(0.157061 0.643749 0.748945)
(0.188826 0.574443 0.796467)
(0.21891 0.477416 0.850972)
(0.244086 0.347449 0.905373)
(0.259498 0.184694 0.947918)
(0.131526 6.07004e-17 0.991313)
(0.124731 -0.11726 0.985237)
(0.11287 -0.226773 0.967385)
(0.0971695 -0.322654 0.941516)
(0.0790019 -0.401909 0.912265)
(0.0595358 -0.464038 0.883812)
(0.039593 -0.510023 0.859249)
(0.0196646 -0.541368 0.840556)
(1.81255e-17 -0.559461 0.828856)
(-0.0192936 -0.565243 0.824699)
(-0.0381647 -0.559054 0.828253)
(-0.0565423 -0.540607 0.839373)
(-0.0742634 -0.509014 0.857549)
(-0.0909971 -0.462934 0.881709)
(-0.106169 -0.400891 0.909953)
(-0.118913 -0.321888 0.939281)
(-0.128112 -0.22635 0.965584)
(-0.1326 -0.11714 0.984223)
(-0.131526 6.07004e-17 0.991313)
(-0.124731 0.11726 0.985237)
(-0.11287 0.226773 0.967385)
(-0.0971695 0.322654 0.941516)
(-0.0790019 0.401909 0.912265)
(-0.0595358 0.464038 0.883812)
(-0.039593 0.510023 0.859249)
(-0.0196646 0.541368 0.840556)
(-4.76024e-17 0.559461 0.828856)
(0.0192936 0.565243 0.824699)
(0.0376038 0.576715 0.816079)
(0.0557641 0.558213 0.827821)
(0.0733552 0.526409 0.847061)
(0.0900737 0.479764 0.872762)
(0.105358 0.416519 0.903002)
(0.118325 0.335344 0.934636)
(0.127798 0.236404 0.963214)
(0.132512 0.122562 0.983575)
(0.263529 2.73263e-16 0.964651)
(0.247469 -0.193633 0.94935)
(0.21758 -0.363844 0.905691)
(0.180237 -0.49812 0.848169)
(0.140886 -0.596544 0.790118)
(0.102563 -0.665347 0.739455)
(0.0663662 -0.711544 0.699501)
(0.0323255 -0.740689 0.67107)
(2.14799e-17 -0.756498 0.653996)
(-0.0312112 -0.761054 0.647938)
(-0.0619297 -0.755046 0.65274)
(-0.092725 -0.737883 0.668528)
(-0.124038 -0.707609 0.695632)
(-0.156033 -0.660682 0.73427)
(-0.188298 -0.591775 0.783802)
(-0.219303 -0.494086 0.8413)
(-0.245723 -0.361346 0.899472)
(-0.262289 -0.192852 0.945522)
(-0.263529 -1.55128e-16 0.964651)
(-0.247469 0.193633 0.94935)
(-0.21758 0.363844 0.905691)
(-0.180237 0.49812 0.848169)
(-0.140886 0.596544 0.790118)
(-0.102563 0.665347 0.739455)
(-0.0663662 0.711544 0.699501)
(-0.0323255 0.740689 0.67107)
(-5.64118e-17 0.756498 0.653996)
(0.0312112 0.761054 0.647938)
(0.0657596 0.717828 0.693108)
(0.0981785 0.69951 0.707847)
(0.130699 0.667568 0.732987)
(0.163262 0.618936 0.768286)
(0.1952 0.549259 0.812534)
(0.224814 0.453491 0.862441)
(0.248969 0.327799 0.911352)
(0.263262 0.173308 0.94903)
(0.138614 6.06412e-17 0.990346)
(0.131576 -0.109915 0.985194)
(0.119356 -0.213089 0.969715)
(0.103104 -0.30422 0.947006)
(0.0841391 -0.380358 0.921004)
(0.0636291 -0.440693 0.8954)
(0.0424387 -0.485775 0.873053)
(0.0211229 -0.516733 0.855886)
(1.9956e-17 -0.534686 0.845051)
(-0.020759 -0.54042 0.841139)
(-0.0410429 -0.534235 0.844339)
(-0.0607224 -0.515894 0.854497)
(-0.0795773 -0.484671 0.871069)
(-0.0972205 -0.439496 0.892968)
(-0.113035 -0.379265 0.918358)
(-0.126138 -0.303407 0.944475)
(-0.135444 -0.212646 0.967697)
(-0.13986 -0.109789 0.984066)
(-0.138614 6.06412e-17 0.990346)
(-0.131576 0.109915 0.985194)
(-0.119356 0.213089 0.969715)
(-0.103104 0.30422 0.947006)
(-0.0841391 0.380358 0.921004)
(-0.0636291 0.440693 0.8954)
(-0.0424387 0.485775 0.873053)
(-0.0211229 0.516733 0.855886)
(-5.24098e-17 0.534686 0.845051)
(0.020759 0.54042 0.841139)
(0.0423798 0.487951 0.871842)
(0.0625607 0.470151 0.880366)
(0.0816922 0.440112 0.894219)
(0.0993302 0.397191 0.912345)
(0.114846 0.340856 0.933074)
(0.12742 0.271107 0.954078)
(0.136115 0.189028 0.972492)
(0.140043 0.0972415 0.985359)
(0.611767 2.24083e-16 0.791038)
(0.559395 -0.335327 0.758046)
(0.456279 -0.584545 0.670908)
(0.348236 -0.737319 0.578872)
(0.254433 -0.825351 0.504044)
(0.176265 -0.876021 0.448908)
(0.110211 -0.905252 0.410332)
(0.0524916 -0.921452 0.384931)
(1.8137e-17 -0.928922 0.370276)
(-0.0497674 -0.929695 0.364953)
(-0.0989639 -0.924362 0.368458)
(-0.149648 -0.912333 0.381122)
(-0.204015 -0.891644 0.404163)
(-0.264572 -0.858242 0.439798)
(-0.334094 -0.804398 0.491248)
(-0.414672 -0.715739 0.56193)
(-0.503719 -0.567485 0.651328)
(-0.583327 -0.328586 0.742806)
(-0.611767 -3.02854e-16 0.791038)
(-0.559395 0.335327 0.758046)
(-0.456279 0.584545 0.670908)
(-0.348236 0.737319 0.578872)
(-0.254433 0.825351 0.504044)
(-0.176265 0.876021 0.448908)
(-0.110211 0.905252 0.410332)
(-0.0524916 0.921452 0.384931)
(-4.76324e-17 0.928922 0.370276)
(0.0497674 0.929695 0.364953)
(0.111065 0.903699 0.413513)
(0.167387 0.888961 0.426299)
(0.226924 0.863952 0.449547)
(0.291748 0.82443 0.484972)
(0.363668 0.762762 0.534733)
(0.442931 0.66599 0.600224)
(0.524496 0.514741 0.678193)
(0.591072 0.29004 0.752669)
(0.695785 2.03464e-16 0.71825)
(0.653426 -0.27077 0.706908)
(0.562341 -0.498013 0.660118)
(0.451597 -0.660978 0.599306)
(0.342397 -0.767803 0.54152)
(0.242984 -0.834797 0.494038)
(0.154166 -0.875359 0.458235)
(0.0740173 -0.898192 0.433328)
(2.14695e-17 -0.908372 0.418162)
(-0.0703534 -0.908519 0.411877)
(-0.139312 -0.899514 0.414085)
(-0.208992 -0.880773 0.424924)
(-0.281393 -0.850152 0.445039)
(-0.358295 -0.803452 0.475488)
(-0.44073 -0.733549 0.517361)
(-0.527481 -0.629378 0.570655)
(-0.611746 -0.476421 0.631498)
(-0.676493 -0.263422 0.687726)
(-0.695785 -2.74987e-16 0.71825)
(-0.653426 0.27077 0.706908)
(-0.562341 0.498013 0.660118)
(-0.451597 0.660978 0.599306)
(-0.342397 0.767803 0.54152)
(-0.242984 0.834797 0.494038)
(-0.154166 0.875359 0.458235)
(-0.0740173 0.898192 0.433328)
(-5.63846e-17 0.908372 0.418162)
(0.0703534 0.908519 0.411877)
(0.170322 0.845396 0.506256)
(0.252945 0.819467 0.514289)
(0.33529 0.778706 0.53028)
(0.417658 0.719965 0.554267)
(0.499065 0.638535 0.585839)
(0.576228 0.528531 0.623391)
(0.64229 0.384523 0.663028)
(0.686303 0.205436 0.697699)
(0.59291 2.28114e-16 0.805268)
(0.559194 -0.231912 0.795939)
(0.489649 -0.433993 0.756237)
(0.401792 -0.588565 0.701537)
(0.310586 -0.69704 0.646275)
(0.223726 -0.769265 0.59848)
(0.143464 -0.815262 0.561041)
(0.0693668 -0.842445 0.534298)
(1.99606e-17 -0.855536 0.517743)
(-0.0663191 -0.857124 0.510823)
(-0.131247 -0.848136 0.513264)
(-0.196319 -0.828046 0.525166)
(-0.262861 -0.794814 0.546969)
(-0.331764 -0.744569 0.579267)
(-0.402909 -0.67115 0.622271)
(-0.47394 -0.565958 0.674591)
(-0.538217 -0.419502 0.730986)
(-0.583127 -0.227253 0.779948)
(-0.59291 -1.29497e-16 0.805268)
(-0.559194 0.231912 0.795939)
(-0.489649 0.433993 0.756237)
(-0.401792 0.588565 0.701537)
(-0.310586 0.69704 0.646275)
(-0.223726 0.769265 0.59848)
(-0.143464 0.815262 0.561041)
(-0.0693668 0.842445 0.534298)
(-5.24218e-17 0.855536 0.517743)
(0.0663191 0.857124 0.510823)
(0.141565 0.820653 0.553614)
(0.210947 0.798168 0.564296)
(0.280747 0.761518 0.584185)
(0.351323 0.707313 0.613417)
(0.421889 0.630435 0.651584)
(0.489495 0.524367 0.696731)
(0.54771 0.38296 0.743879)
(0.586089 0.204898 0.783911)
(0.464648 2.5084e-16 0.885496)
(0.436292 -0.224397 0.871375)
(0.380565 -0.418317 0.824731)
(0.31155 -0.565978 0.763286)
(0.240621 -0.669716 0.702554)
(0.173362 -0.739257 0.650726)
(0.111264 -0.784129 0.610543)
(0.0538644 -0.811286 0.582163)
(1.81456e-17 -0.825116 0.564964)
(-0.0516595 -0.828008 0.558332)
(-0.102416 -0.820777 0.561993)
(-0.153481 -0.802839 0.576102)
(-0.205905 -0.772121 0.601193)
(-0.260387 -0.72473 0.637938)
(-0.316798 -0.65445 0.686538)
(-0.373141 -0.552603 0.745249)
(-0.423859 -0.409711 0.807763)
(-0.458547 -0.22162 0.860592)
(-0.464648 -1.42399e-16 0.885496)
(-0.436292 0.224397 0.871375)
(-0.380565 0.418317 0.824731)
(-0.31155 0.565978 0.763286)
(-0.240621 0.669716 0.702554)
(-0.173362 0.739257 0.650726)
(-0.111264 0.784129 0.610543)
(-0.0538644 0.811286 0.582163)
(-4.76551e-17 0.825116 0.564964)
(0.0516595 0.828008 0.558332)
(0.110695 0.786628 0.607423)
(0.165289 0.766653 0.620421)
(0.220427 0.732941 0.643591)
(0.276362 0.682051 0.677075)
(0.332376 0.608847 0.720299)
(0.385949 0.506822 0.770828)
(0.431673 0.369996 0.822655)
(0.460973 0.197554 0.865145)
(0.823263 -1.04277e-16 -0.56766)
(0.797036 -0.181664 -0.575961)
(0.7348 -0.35793 -0.576156)
(0.640989 -0.51603 -0.568196)
(0.524336 -0.646722 -0.553915)
(0.394811 -0.746071 -0.536193)
(0.260859 -0.814691 -0.517911)
(0.128203 -0.855701 -0.501338)
(2.14598e-17 -0.872863 -0.487965)
(-0.122404 -0.869427 -0.478659)
(-0.238673 -0.847637 -0.473863)
(-0.348837 -0.808621 -0.473755)
(-0.452795 -0.752442 -0.478339)
(-0.549894 -0.678243 -0.487446)
(-0.638499 -0.584528 -0.500646)
(-0.715583 -0.469626 -0.517101)
(-0.776399 -0.332578 -0.535346)
(-0.814603 -0.174471 -0.553156)
(-0.823263 -1.04277e-16 -0.56766)
(-0.797036 0.181664 -0.575961)
(-0.7348 0.35793 -0.576156)
(-0.640989 0.51603 -0.568196)
(-0.524336 0.646722 -0.553915)
(-0.394811 0.746071 -0.536193)
(-0.260859 0.814691 -0.517911)
(-0.128203 0.855701 -0.501338)
(-1.34178e-16 0.872863 -0.487965)
(0.122404 0.869427 -0.478659)
(0.261944 0.812968 -0.520065)
(0.379377 0.768512 -0.515231)
(0.486509 0.706512 -0.513955)
(0.582463 0.627818 -0.516316)
(0.66595 0.532774 -0.522171)
(0.734993 0.421533 -0.531127)
(0.78675 0.294511 -0.542483)
(0.817549 0.15302 -0.555156)
(0.762519 -1.18846e-16 -0.646966)
(0.734001 -0.187792 -0.652669)
(0.669669 -0.366164 -0.646117)
(0.576737 -0.521183 -0.629081)
(0.465917 -0.645064 -0.605651)
(0.347269 -0.736625 -0.580334)
(0.227871 -0.79885 -0.556699)
(0.111603 -0.836156 -0.537018)
(1.99668e-17 -0.852632 -0.522512)
(-0.106768 -0.851269 -0.513753)
(-0.209148 -0.833775 -0.510956)
(-0.307682 -0.800595 -0.514179)
(-0.402608 -0.751003 -0.523356)
(-0.493467 -0.68321 -0.538252)
(-0.578615 -0.594596 -0.558266)
(-0.654649 -0.482268 -0.58211)
(-0.715916 -0.344237 -0.607425)
(-0.754642 -0.181429 -0.630555)
(-0.762519 -1.18846e-16 -0.646966)
(-0.734001 0.187792 -0.652669)
(-0.669669 0.366164 -0.646117)
(-0.576737 0.521183 -0.629081)
(-0.465917 0.645064 -0.605651)
(-0.347269 0.736625 -0.580334)
(-0.227871 0.79885 -0.556699)
(-0.111603 0.836156 -0.537018)
(-1.24843e-16 0.852632 -0.522512)
(0.106768 0.851269 -0.513753)
(0.378819 -1.70006e-16 -0.925471)
(0.513483 -1.5763e-16 -0.8581)
(0.609736 -1.45599e-16 -0.792604)
(0.675776 -1.35404e-16 -0.737107)
(0.178419 -0.968779 -0.172145)
(0.272088 -0.931361 -0.241939)
(0.472993 -0.784362 -0.401315)
(0.767377 -1.82628e-15 -0.641196)
(0.400993 0.804268 -0.438585)
(0.22672 0.938648 -0.25988)
(0.147964 0.97172 -0.184032)
(0.1031 0.98405 -0.144968)
(0.0730152 0.989797 -0.122353)
(0.0503918 0.992812 -0.108557)
(0.0318204 0.994457 -0.100213)
(0.0154284 0.99529 -0.095702)
(1.81555e-17 0.995546 -0.0942723)
(-0.0154284 0.99529 -0.095702)
(-0.0318204 0.994457 -0.100213)
(-0.0503918 0.992812 -0.108557)
(-0.0730152 0.989797 -0.122353)
(-0.1031 0.98405 -0.144968)
(-0.147964 0.97172 -0.184032)
(-0.22672 0.938648 -0.25988)
(-0.400993 0.804268 -0.438585)
(-0.68038 1.1672e-15 -0.732859)
(-0.400993 -0.804268 -0.438585)
(-0.22672 -0.938648 -0.25988)
(-0.147964 -0.97172 -0.184032)
(-0.1031 -0.98405 -0.144968)
(-0.0730152 -0.989797 -0.122353)
(-0.0503918 -0.992812 -0.108557)
(-0.0318204 -0.994457 -0.100213)
(-0.0154284 -0.99529 -0.095702)
(-4.76811e-17 -0.995546 -0.0942723)
(0.0154284 -0.99529 -0.095702)
(0.0318204 -0.994457 -0.100213)
(0.0503918 -0.992812 -0.108557)
(0.0730152 -0.989797 -0.122353)
(0.1031 -0.98405 -0.144968)
(0.147964 -0.97172 -0.184032)
(0.22672 -0.938648 -0.25988)
(0.400993 -0.804268 -0.438585)
(0.68038 -2.08735e-15 -0.732859)
(0.515478 0.740527 -0.431164)
(0.307703 0.912449 -0.269731)
(0.203994 0.959551 -0.194031)
(0.143015 0.9777 -0.153784)
(0.101578 0.986274 -0.130172)
(0.0702127 0.990803 -0.115673)
(0.0443739 0.993282 -0.106871)
(0.0215245 0.994541 -0.102104)
(2.14524e-17 0.994928 -0.100592)
(-0.0215244 0.994541 -0.102104)
(-0.0443739 0.993282 -0.106871)
(-0.0702127 0.990803 -0.115673)
(-0.101578 0.986274 -0.130172)
(-0.143015 0.9777 -0.153784)
(-0.203994 0.959551 -0.194031)
(-0.307703 0.912449 -0.269731)
(-0.515478 0.740527 -0.431164)
(-0.771854 1.01261e-15 -0.635799)
(-0.515478 -0.740527 -0.431164)
(-0.307703 -0.912449 -0.269731)
(-0.203994 -0.959551 -0.194031)
(-0.143015 -0.9777 -0.153784)
(-0.101578 -0.986274 -0.130172)
(-0.0702127 -0.990803 -0.115673)
(-0.0443739 -0.993282 -0.106871)
(-0.0215245 -0.994541 -0.102104)
(-5.63396e-17 -0.994928 -0.100592)
(0.0215244 -0.994541 -0.102104)
(0.0443739 -0.993282 -0.106871)
(0.0702127 -0.990803 -0.115673)
(0.101578 -0.986274 -0.130172)
(0.143015 -0.9777 -0.153784)
(0.203994 -0.959551 -0.194031)
(0.307703 -0.912449 -0.269731)
(0.515478 -0.740527 -0.431164)
(0.771854 -1.8109e-15 -0.635799)
(0.302657 0.501367 -0.810574)
(0.220485 0.75393 -0.61885)
(0.158718 0.860901 -0.483381)
(0.115471 0.910277 -0.39757)
(0.083568 0.935648 -0.342898)
(0.0583599 0.949644 -0.307849)
(0.0370951 0.957493 -0.28606)
(0.0180466 0.96153 -0.274106)
(1.99773e-17 0.962778 -0.270292)
(-0.0180466 0.96153 -0.274106)
(-0.0370951 0.957493 -0.28606)
(-0.0583599 0.949644 -0.307849)
(-0.083568 0.935648 -0.342898)
(-0.115471 0.910277 -0.39757)
(-0.158718 0.860901 -0.483381)
(-0.220485 0.75393 -0.61885)
(-0.302657 0.501367 -0.810574)
(-0.35452 -1.71766e-16 -0.935048)
(-0.302657 -0.501367 -0.810574)
(-0.220485 -0.75393 -0.61885)
(-0.158718 -0.860901 -0.483381)
(-0.115471 -0.910277 -0.39757)
(-0.083568 -0.935648 -0.342898)
(-0.0583599 -0.949644 -0.307849)
(-0.0370951 -0.957493 -0.28606)
(-0.0180466 -0.96153 -0.274106)
(-5.24658e-17 -0.962778 -0.270292)
(0.0180466 -0.96153 -0.274106)
(0.0370951 -0.957493 -0.28606)
(0.0583599 -0.949644 -0.307849)
(0.083568 -0.935648 -0.342898)
(0.115471 -0.910277 -0.39757)
(0.158718 -0.860901 -0.483381)
(0.220485 -0.75393 -0.61885)
(0.302657 -0.501367 -0.810574)
(0.35452 -1.00226e-15 -0.935048)
(0.240679 0.482074 -0.842424)
(0.178032 0.736076 -0.653067)
(0.129256 0.847708 -0.514474)
(0.0944483 0.900254 -0.424996)
(0.0685145 0.927529 -0.367418)
(0.047911 0.942659 -0.330302)
(0.0304766 0.951171 -0.307156)
(0.0148326 0.955556 -0.294436)
(1.81678e-17 0.956913 -0.290375)
(-0.0148326 0.955556 -0.294436)
(-0.0304766 0.951171 -0.307156)
(-0.047911 0.942659 -0.330302)
(-0.0685145 0.927529 -0.367418)
(-0.0944483 0.900254 -0.424996)
(-0.129256 0.847708 -0.514474)
(-0.178032 0.736076 -0.653067)
(-0.240679 0.482074 -0.842424)
(-0.278618 -1.76423e-16 -0.960402)
(-0.240679 -0.482074 -0.842424)
(-0.178032 -0.736076 -0.653067)
(-0.129256 -0.847708 -0.514474)
(-0.0944483 -0.900254 -0.424996)
(-0.0685145 -0.927529 -0.367418)
(-0.047911 -0.942659 -0.330302)
(-0.0304766 -0.951171 -0.307156)
(-0.0148326 -0.955556 -0.294436)
(-4.77134e-17 -0.956913 -0.290375)
(0.0148326 -0.955556 -0.294436)
(0.0304766 -0.951171 -0.307156)
(0.047911 -0.942659 -0.330302)
(0.0685145 -0.927529 -0.367418)
(0.0944483 -0.900254 -0.424996)
(0.129256 -0.847708 -0.514474)
(0.178032 -0.736076 -0.653067)
(0.240679 -0.482074 -0.842424)
(0.278618 -1.02943e-15 -0.960402)
(0.307921 0.442539 -0.842225)
(0.235587 0.698891 -0.675314)
(0.174558 0.821432 -0.542936)
(0.12895 0.881916 -0.453427)
(0.094108 0.914122 -0.394365)
(0.0660355 0.932245 -0.355752)
(0.0420888 0.942524 -0.331478)
(0.0205052 0.947843 -0.318077)
(2.14479e-17 0.949492 -0.31379)
(-0.0205052 0.947843 -0.318077)
(-0.0420888 0.942524 -0.331478)
(-0.0660356 0.932245 -0.355752)
(-0.0941079 0.914122 -0.394365)
(-0.12895 0.881916 -0.453427)
(-0.174558 0.821432 -0.542936)
(-0.235587 0.698891 -0.675314)
(-0.307922 0.442539 -0.842225)
(-0.348035 -1.72213e-16 -0.937482)
(-0.307921 -0.442539 -0.842225)
(-0.235587 -0.698891 -0.675314)
(-0.174558 -0.821432 -0.542936)
(-0.12895 -0.881916 -0.453427)
(-0.094108 -0.914122 -0.394365)
(-0.0660355 -0.932245 -0.355752)
(-0.0420888 -0.942524 -0.331478)
(-0.0205052 -0.947843 -0.318077)
(-5.63278e-17 -0.949492 -0.31379)
(0.0205052 -0.947843 -0.318077)
(0.0420888 -0.942524 -0.331478)
(0.0660356 -0.932245 -0.355752)
(0.0941079 -0.914122 -0.394365)
(0.12895 -0.881916 -0.453427)
(0.174558 -0.821432 -0.542936)
(0.235587 -0.698891 -0.675314)
(0.307922 -0.442539 -0.842225)
(0.348035 -1.00486e-15 -0.937482)
(0.252181 0.417027 -0.873209)
(0.196796 0.671762 -0.714148)
(0.147726 0.79989 -0.581681)
(0.109933 0.865122 -0.489366)
(0.0805652 0.900464 -0.427403)
(0.05667 0.92055 -0.386493)
(0.0361703 0.932008 -0.360628)
(0.0176347 0.937957 -0.346303)
(1.99947e-17 0.939804 -0.341714)
(-0.0176347 0.937957 -0.346303)
(-0.0361703 0.932008 -0.360628)
(-0.05667 0.92055 -0.386493)
(-0.0805652 0.900464 -0.427403)
(-0.109933 0.865122 -0.489366)
(-0.147726 0.79989 -0.581681)
(-0.196796 0.671762 -0.714148)
(-0.252181 0.417027 -0.873209)
(-0.281402 -1.76274e-16 -0.95959)
(-0.252181 -0.417027 -0.873209)
(-0.196796 -0.671762 -0.714148)
(-0.147726 -0.79989 -0.581681)
(-0.109933 -0.865122 -0.489366)
(-0.0805652 -0.900464 -0.427403)
(-0.05667 -0.92055 -0.386493)
(-0.0361703 -0.932008 -0.360628)
(-0.0176347 -0.937957 -0.346303)
(-5.25113e-17 -0.939804 -0.341714)
(0.0176347 -0.937957 -0.346303)
(0.0361703 -0.932008 -0.360628)
(0.05667 -0.92055 -0.386493)
(0.0805652 -0.900464 -0.427403)
(0.109933 -0.865122 -0.489366)
(0.147726 -0.79989 -0.581681)
(0.196796 -0.671762 -0.714148)
(0.252181 -0.417027 -0.873209)
(0.281402 -1.02856e-15 -0.95959)
(0.166019 0.331967 -0.928566)
(0.138151 0.570215 -0.809795)
(0.108902 0.713007 -0.692648)
(0.0835521 0.795042 -0.600773)
(0.062369 0.842895 -0.534451)
(0.044361 0.871326 -0.488695)
(0.0285004 0.887982 -0.458993)
(0.0139436 0.896761 -0.442296)
(1.81833e-17 0.899505 -0.43691)
(-0.0139436 0.896761 -0.442296)
(-0.0285004 0.887982 -0.458993)
(-0.044361 0.871326 -0.488695)
(-0.062369 0.842895 -0.534451)
(-0.0835521 0.795042 -0.600773)
(-0.108902 0.713007 -0.692648)
(-0.138151 0.570215 -0.809795)
(-0.166019 0.331967 -0.928566)
(-0.178629 -1.80743e-16 -0.983917)
(-0.166019 -0.331967 -0.928566)
(-0.138151 -0.570215 -0.809795)
(-0.108902 -0.713007 -0.692648)
(-0.0835521 -0.795042 -0.600773)
(-0.062369 -0.842895 -0.534451)
(-0.044361 -0.871326 -0.488695)
(-0.0285004 -0.887982 -0.458993)
(-0.0139436 -0.896761 -0.442296)
(1.81833e-17 -0.899505 -0.43691)
(0.0139436 -0.896761 -0.442296)
(0.0285004 -0.887982 -0.458993)
(0.044361 -0.871326 -0.488695)
(0.062369 -0.842895 -0.534451)
(0.0835521 -0.795042 -0.600773)
(0.108902 -0.713007 -0.692648)
(0.138151 -0.570215 -0.809795)
(0.166019 -0.331967 -0.928566)
(0.178629 -1.80743e-16 -0.983917)
(0.213443 0.306777 -0.92754)
(0.180944 0.536824 -0.824063)
(0.144993 0.68235 -0.716502)
(0.112515 0.769565 -0.628578)
(0.0846083 0.821902 -0.56331)
(0.0604581 0.853563 -0.51747)
(0.0389512 0.872319 -0.487383)
(0.0190853 0.882268 -0.47036)
(2.14472e-17 0.885388 -0.464852)
(-0.0190853 0.882268 -0.47036)
(-0.0389512 0.872319 -0.487383)
(-0.0604581 0.853563 -0.51747)
(-0.0846083 0.821902 -0.56331)
(-0.112515 0.769565 -0.628578)
(-0.144993 0.68235 -0.716502)
(-0.180944 0.536824 -0.824063)
(-0.213443 0.306777 -0.92754)
(-0.227538 -1.78878e-16 -0.973769)
(-0.213443 -0.306777 -0.92754)
(-0.180944 -0.536824 -0.824063)
(-0.144993 -0.68235 -0.716502)
(-0.112515 -0.769565 -0.628578)
(-0.0846083 -0.821902 -0.56331)
(-0.0604581 -0.853563 -0.51747)
(-0.0389512 -0.872319 -0.487383)
(-0.0190853 -0.882268 -0.47036)
(-5.6326e-17 -0.885388 -0.464852)
(0.0190853 -0.882268 -0.47036)
(0.0389512 -0.872319 -0.487383)
(0.0604581 -0.853563 -0.51747)
(0.0846083 -0.821902 -0.56331)
(0.112515 -0.769565 -0.628578)
(0.144993 -0.68235 -0.716502)
(0.180944 -0.536824 -0.824063)
(0.213443 -0.306777 -0.92754)
(0.227538 -1.78878e-16 -0.973769)
(0.173363 0.28589 -0.94245)
(0.148995 0.507177 -0.848865)
(0.120938 0.653016 -0.747626)
(0.0947339 0.74343 -0.66207)
(0.0716856 0.798988 -0.597059)
(0.0514312 0.833122 -0.550692)
(0.0332177 0.853544 -0.519961)
(0.0162979 0.864439 -0.502474)
(2.00226e-17 0.867864 -0.496801)
(-0.0162979 0.864439 -0.502474)
(-0.0332177 0.853544 -0.519961)
(-0.0514312 0.833122 -0.550692)
(-0.0716856 0.798988 -0.597059)
(-0.0947339 0.74343 -0.66207)
(-0.120938 0.653016 -0.747626)
(-0.148995 0.507177 -0.848865)
(-0.173364 0.28589 -0.94245)
(-0.183612 -1.80574e-16 -0.982999)
(-0.173363 -0.28589 -0.94245)
(-0.148995 -0.507177 -0.848865)
(-0.120938 -0.653016 -0.747626)
(-0.0947339 -0.74343 -0.66207)
(-0.0716856 -0.798988 -0.597059)
(-0.0514312 -0.833122 -0.550692)
(-0.0332177 -0.853544 -0.519961)
(-0.0162979 -0.864439 -0.502474)
(-5.25846e-17 -0.867864 -0.496801)
(0.0162979 -0.864439 -0.502474)
(0.0332177 -0.853544 -0.519961)
(0.0514312 -0.833122 -0.550692)
(0.0716856 -0.798988 -0.597059)
(0.0947339 -0.74343 -0.66207)
(0.120938 -0.653016 -0.747626)
(0.148995 -0.507177 -0.848865)
(0.173364 -0.28589 -0.94245)
(0.183612 -1.80574e-16 -0.982999)
(0.131771 0.262905 -0.955781)
(0.1149 0.473205 -0.873427)
(0.0946131 0.618092 -0.780391)
(0.0749326 0.711453 -0.698728)
(0.0571346 0.770457 -0.634927)
(0.0411973 0.807404 -0.588559)
(0.0266912 0.829781 -0.557451)
(0.013118 0.841805 -0.539622)
(1.82033e-17 0.845599 -0.533819)
(-0.013118 0.841805 -0.539622)
(-0.0266912 0.829781 -0.557451)
(-0.0411973 0.807404 -0.588559)
(-0.0571346 0.770457 -0.634927)
(-0.0749325 0.711453 -0.698728)
(-0.0946131 0.618092 -0.780391)
(-0.1149 0.473205 -0.873427)
(-0.131771 0.262905 -0.955781)
(-0.138642 -1.81923e-16 -0.990343)
(-0.131771 -0.262905 -0.955781)
(-0.1149 -0.473205 -0.873427)
(-0.0946131 -0.618092 -0.780391)
(-0.0749326 -0.711453 -0.698728)
(-0.0571346 -0.770457 -0.634927)
(-0.0411973 -0.807404 -0.588559)
(-0.0266912 -0.829781 -0.557451)
(-0.013118 -0.841805 -0.539622)
(1.82033e-17 -0.845599 -0.533819)
(0.013118 -0.841805 -0.539622)
(0.0266912 -0.829781 -0.557451)
(0.0411973 -0.807404 -0.588559)
(0.0571346 -0.770457 -0.634927)
(0.0749325 -0.711453 -0.698728)
(0.0946131 -0.618092 -0.780391)
(0.1149 -0.473205 -0.873427)
(0.131771 -0.262905 -0.955781)
(0.138642 -1.81923e-16 -0.990343)
(0.164248 0.235959 -0.957782)
(0.145646 0.4319 -0.890084)
(0.12208 0.57425 -0.809527)
(0.0980881 0.670576 -0.735327)
(0.0755721 0.733781 -0.675169)
(0.0548775 0.774415 -0.630294)
(0.0357143 0.799455 -0.599664)
(0.0175962 0.813052 -0.581925)
(2.14522e-17 0.817363 -0.576123)
(-0.0175962 0.813052 -0.581925)
(-0.0357143 0.799455 -0.599664)
(-0.0548775 0.774415 -0.630294)
(-0.0755721 0.733781 -0.675169)
(-0.0980881 0.670576 -0.735327)
(-0.12208 0.57425 -0.809527)
(-0.145646 0.4319 -0.890084)
(-0.164248 0.235959 -0.957782)
(-0.171552 -1.80974e-16 -0.985175)
(-0.164248 -0.235959 -0.957782)
(-0.145646 -0.4319 -0.890084)
(-0.12208 -0.57425 -0.809527)
(-0.0980881 -0.670576 -0.735327)
(-0.0755721 -0.733781 -0.675169)
(-0.0548775 -0.774415 -0.630294)
(-0.0357143 -0.799455 -0.599664)
(-0.0175962 -0.813052 -0.581925)
(-5.63391e-17 -0.817363 -0.576123)
(0.0175962 -0.813052 -0.581925)
(0.0357143 -0.799455 -0.599664)
(0.0548775 -0.774415 -0.630294)
(0.0755721 -0.733781 -0.675169)
(0.0980881 -0.670576 -0.735327)
(0.12208 -0.57425 -0.809527)
(0.145646 -0.4319 -0.890084)
(0.164248 -0.235959 -0.957782)
(0.171552 -1.80974e-16 -0.985175)
(0.134294 0.220527 -0.966092)
(0.1201 0.407092 -0.905457)
(0.101623 0.546408 -0.831331)
(0.0823122 0.643224 -0.761241)
(0.0638023 0.708121 -0.703203)
(0.0465266 0.750492 -0.659239)
(0.0303623 0.776878 -0.628918)
(0.0149822 0.791299 -0.611246)
(2.0065e-17 0.795885 -0.605448)
(-0.0149822 0.791299 -0.611246)
(-0.0303623 0.776878 -0.628918)
(-0.0465265 0.750492 -0.659239)
(-0.0638023 0.708121 -0.703203)
(-0.0823121 0.643224 -0.761241)
(-0.101623 0.546408 -0.831331)
(-0.1201 0.407092 -0.905457)
(-0.134294 0.220527 -0.966092)
(-0.139767 -1.81894e-16 -0.990184)
(-0.134294 -0.220527 -0.966092)
(-0.1201 -0.407092 -0.905457)
(-0.101623 -0.546408 -0.831331)
(-0.0823122 -0.643224 -0.761241)
(-0.0638023 -0.708121 -0.703203)
(-0.0465266 -0.750492 -0.659239)
(-0.0303623 -0.776878 -0.628918)
(-0.0149822 -0.791299 -0.611246)
(2.0065e-17 -0.795885 -0.605448)
(0.0149822 -0.791299 -0.611246)
(0.0303623 -0.776878 -0.628918)
(0.0465265 -0.750492 -0.659239)
(0.0638023 -0.708121 -0.703203)
(0.0823121 -0.643224 -0.761241)
(0.101623 -0.546408 -0.831331)
(0.1201 -0.407092 -0.905457)
(0.134294 -0.220527 -0.966092)
(0.139767 -1.81894e-16 -0.990184)
(0.102561 0.204042 -0.973575)
(0.0925148 0.379926 -0.920379)
(0.0790668 0.515056 -0.853502)
(0.0646089 0.611684 -0.78846)
(0.0504225 0.678003 -0.733327)