/*--------------------------------*- C++ -*----------------------------------*\
| =========                 |                                                 |
| \\      /  F ield         | OpenFOAM: The Open Source CFD Toolbox           |
|  \\    /   O peration     | Version:  2312                                  |
|   \\  /    A nd           | Website:  www.openfoam.com                      |
|    \\/     M anipulation  |                                                 |
\*---------------------------------------------------------------------------*/
FoamFile
{
    version     2.0;
    format      ascii;
    arch        "LSB;label=32;scalar=64";
    class       volVectorField;
    location    "0.8";
    object      D;
}
// * * * * * * * * * * * * * * * * * * * * * * * * * * * * * * * * * * * * * //

dimensions      [0 1 0 0 0 0 0];

internalField   nonuniform List<vector> 
1620
(
(0.000126333 0.000315664 4.56272e-05)
(6.95992e-05 0.000332806 4.56269e-05)
(1.0751e-05 0.000339835 4.56271e-05)
(-4.84239e-05 0.00033654 4.56276e-05)
(-0.000106128 0.000323019 4.56277e-05)
(-0.000160607 0.000299683 4.56275e-05)
(-0.000210206 0.00026724 4.56277e-05)
(-0.000253419 0.000226678 4.56277e-05)
(-0.000288931 0.000179228 4.56272e-05)
(-0.000315664 0.000126333 4.56272e-05)
(-0.000332806 6.95992e-05 4.56269e-05)
(-0.000339835 1.0751e-05 4.56271e-05)
(-0.00033654 -4.84239e-05 4.56276e-05)
(-0.000323019 -0.000106128 4.56277e-05)
(-0.000299683 -0.000160607 4.56274e-05)
(-0.00026724 -0.000210206 4.56277e-05)
(-0.000226678 -0.000253419 4.56276e-05)
(-0.000179228 -0.000288931 4.56272e-05)
(-0.000126333 -0.000315664 4.56271e-05)
(-6.95992e-05 -0.000332806 4.56269e-05)
(-1.0751e-05 -0.000339835 4.56271e-05)
(4.84239e-05 -0.00033654 4.56276e-05)
(0.000106128 -0.000323019 4.56277e-05)
(0.000160607 -0.000299683 4.56275e-05)
(0.000210206 -0.00026724 4.56277e-05)
(0.000253419 -0.000226678 4.56277e-05)
(0.000288931 -0.000179228 4.56272e-05)
(0.000315664 -0.000126333 4.56272e-05)
(0.000332806 -6.95992e-05 4.56269e-05)
(0.000339835 -1.0751e-05 4.56271e-05)
(0.00033654 4.84239e-05 4.56276e-05)
(0.000323019 0.000106128 4.56277e-05)
(0.000299683 0.000160607 4.56275e-05)
(0.00026724 0.000210206 4.56277e-05)
(0.000226678 0.000253419 4.56277e-05)
(0.000179228 0.000288931 4.56272e-05)
(5.87624e-05 0.000354295 7.97782e-05)
(-3.65305e-06 0.000359117 7.97781e-05)
(-6.59571e-05 0.000353026 7.97782e-05)
(-0.000126257 0.00033621 7.97785e-05)
(-0.000182722 0.000309178 7.97786e-05)
(-0.000233634 0.000272751 7.97784e-05)
(-0.000277447 0.000228037 7.97784e-05)
(-0.000312831 0.000176395 7.97783e-05)
(-0.000338709 0.000119392 7.97781e-05)
(-0.000354295 5.87623e-05 7.97781e-05)
(-0.000359117 -3.65307e-06 7.97781e-05)
(-0.000353026 -6.59571e-05 7.97782e-05)
(-0.00033621 -0.000126257 7.97785e-05)
(-0.000309178 -0.000182722 7.97786e-05)
(-0.000272751 -0.000233634 7.97784e-05)
(-0.000228037 -0.000277447 7.97784e-05)
(-0.000176395 -0.000312831 7.97783e-05)
(-0.000119392 -0.000338709 7.97781e-05)
(-5.87623e-05 -0.000354295 7.97781e-05)
(3.65308e-06 -0.000359117 7.97781e-05)
(6.59571e-05 -0.000353026 7.97782e-05)
(0.000126257 -0.00033621 7.97785e-05)
(0.000182722 -0.000309178 7.97786e-05)
(0.000233634 -0.000272751 7.97784e-05)
(0.000277447 -0.000228037 7.97784e-05)
(0.000312831 -0.000176395 7.97783e-05)
(0.000338709 -0.000119392 7.97781e-05)
(0.000354295 -5.87623e-05 7.97782e-05)
(0.000359117 3.65307e-06 7.97781e-05)
(0.000353026 6.59571e-05 7.97782e-05)
(0.00033621 0.000126257 7.97785e-05)
(0.000309178 0.000182722 7.97786e-05)
(0.000272751 0.000233634 7.97784e-05)
(0.000228037 0.000277447 7.97784e-05)
(0.000176395 0.000312831 7.97783e-05)
(0.000119392 0.000338709 7.97781e-05)
(-4.45968e-05 0.000379109 9.8638e-05)
(-0.000109751 0.000365606 9.86382e-05)
(-0.00017157 0.000340994 9.86381e-05)
(-0.000228176 0.00030602 9.86381e-05)
(-0.00027785 0.000261749 9.86384e-05)
(-0.000319081 0.000209523 9.86383e-05)
(-0.000350617 0.000150933 9.86383e-05)
(-0.000371499 8.77555e-05 9.86379e-05)
(-0.000381093 2.19122e-05 9.86379e-05)
(-0.000379109 -4.45968e-05 9.8638e-05)
(-0.000365606 -0.000109751 9.86382e-05)
(-0.000340993 -0.00017157 9.86381e-05)
(-0.00030602 -0.000228176 9.86381e-05)
(-0.000261749 -0.00027785 9.86384e-05)
(-0.000209523 -0.000319081 9.86383e-05)
(-0.000150933 -0.000350617 9.86383e-05)
(-8.77555e-05 -0.000371499 9.86379e-05)
(-2.19122e-05 -0.000381093 9.86379e-05)
(4.45968e-05 -0.000379109 9.8638e-05)
(0.000109751 -0.000365606 9.86382e-05)
(0.00017157 -0.000340993 9.86381e-05)
(0.000228176 -0.00030602 9.86381e-05)
(0.00027785 -0.000261749 9.86384e-05)
(0.000319081 -0.000209523 9.86383e-05)
(0.000350617 -0.000150933 9.86383e-05)
(0.000371499 -8.77555e-05 9.86379e-05)
(0.000381093 -2.19122e-05 9.86379e-05)
(0.000379109 4.45968e-05 9.8638e-05)
(0.000365606 0.000109751 9.86382e-05)
(0.000340994 0.00017157 9.86381e-05)
(0.00030602 0.000228176 9.86381e-05)
(0.000261749 0.00027785 9.86384e-05)
(0.000209523 0.000319081 9.86383e-05)
(0.000150933 0.000350617 9.86383e-05)
(8.77555e-05 0.000371499 9.86379e-05)
(2.19122e-05 0.000381093 9.8638e-05)
(0.000239779 0.000940115 0.0001895)
(7.28877e-05 0.00096747 0.0001895)
(-9.62188e-05 0.000965429 0.0001895)
(-0.000262402 0.000934053 0.000189502)
(-0.000420612 0.000874298 0.000189503)
(-0.000566042 0.000787977 0.000189502)
(-0.000694274 0.000677714 0.000189502)
(-0.00080141 0.000546858 0.000189502)
(-0.000884195 0.000399386 0.000189501)
(-0.000940115 0.000239779 0.0001895)
(-0.00096747 7.28876e-05 0.0001895)
(-0.000965429 -9.62189e-05 0.0001895)
(-0.000934053 -0.000262402 0.000189502)
(-0.000874298 -0.000420612 0.000189503)
(-0.000787977 -0.000566042 0.000189502)
(-0.000677714 -0.000694274 0.000189502)
(-0.000546858 -0.00080141 0.000189502)
(-0.000399386 -0.000884195 0.000189501)
(-0.000239779 -0.000940115 0.0001895)
(-7.28876e-05 -0.00096747 0.0001895)
(9.62189e-05 -0.000965429 0.0001895)
(0.000262402 -0.000934053 0.000189502)
(0.000420612 -0.000874298 0.000189503)
(0.000566042 -0.000787977 0.000189502)
(0.000694274 -0.000677714 0.000189502)
(0.00080141 -0.000546858 0.000189502)
(0.000884195 -0.000399386 0.000189501)
(0.000940115 -0.000239779 0.0001895)
(0.00096747 -7.28876e-05 0.0001895)
(0.000965429 9.62189e-05 0.0001895)
(0.000934053 0.000262402 0.000189502)
(0.000874298 0.000420612 0.000189503)
(0.000787977 0.000566042 0.000189502)
(0.000677714 0.000694274 0.000189502)
(0.000546858 0.00080141 0.000189502)
(0.000399386 0.000884195 0.000189501)
(0.000121696 0.00104015 0.000281344)
(-6.07726e-05 0.00104548 0.000281344)
(-0.000241395 0.00101904 0.000281344)
(-0.000414682 0.000961645 0.000281345)
(-0.000575371 0.000875027 0.000281345)
(-0.000718576 0.000761821 0.000281345)
(-0.000839948 0.000625467 0.000281345)
(-0.000935798 0.000470109 0.000281344)
(-0.00100322 0.000300467 0.000281344)
(-0.00104015 0.000121696 0.000281344)
(-0.00104548 -6.07726e-05 0.000281344)
(-0.00101904 -0.000241395 0.000281344)
(-0.000961645 -0.000414682 0.000281345)
(-0.000875027 -0.000575371 0.000281345)
(-0.000761821 -0.000718576 0.000281345)
(-0.000625467 -0.000839948 0.000281345)
(-0.000470109 -0.000935798 0.000281344)
(-0.000300467 -0.00100322 0.000281344)
(-0.000121696 -0.00104015 0.000281344)
(6.07727e-05 -0.00104548 0.000281344)
(0.000241395 -0.00101904 0.000281344)
(0.000414682 -0.000961645 0.000281345)
(0.000575371 -0.000875027 0.000281345)
(0.000718576 -0.000761821 0.000281345)
(0.000839948 -0.000625467 0.000281345)
(0.000935798 -0.000470109 0.000281344)
(0.00100322 -0.000300467 0.000281344)
(0.00104015 -0.000121696 0.000281344)
(0.00104548 6.07726e-05 0.000281344)
(0.00101904 0.000241395 0.000281344)
(0.000961645 0.000414682 0.000281345)
(0.000875027 0.000575371 0.000281345)
(0.000761821 0.000718576 0.000281345)
(0.000625467 0.000839948 0.000281345)
(0.000470109 0.000935798 0.000281344)
(0.000300467 0.00100322 0.000281344)
(-3.81197e-05 0.00112377 0.000351071)
(-0.000232681 0.00110008 0.000351071)
(-0.000420171 0.00104296 0.000351071)
(-0.000594895 0.000954152 0.000351071)
(-0.000751544 0.000836354 0.000351071)
(-0.000885358 0.000693143 0.000351071)
(-0.000992271 0.000528871 0.000351071)
(-0.00106903 0.000348531 0.000351071)
(-0.00111332 0.0001576 0.000351071)
(-0.00112377 -3.81198e-05 0.000351071)
(-0.00110008 -0.000232681 0.000351071)
(-0.00104296 -0.000420171 0.000351071)
(-0.000954152 -0.000594896 0.000351071)
(-0.000836354 -0.000751544 0.000351071)
(-0.000693143 -0.000885358 0.000351071)
(-0.000528871 -0.000992271 0.000351071)
(-0.000348531 -0.00106903 0.000351071)
(-0.0001576 -0.00111332 0.000351071)
(3.81198e-05 -0.00112377 0.000351071)
(0.000232681 -0.00110008 0.000351071)
(0.000420171 -0.00104296 0.000351071)
(0.000594896 -0.000954152 0.000351071)
(0.000751544 -0.000836354 0.000351071)
(0.000885358 -0.000693143 0.000351071)
(0.000992271 -0.000528871 0.000351071)
(0.00106903 -0.000348531 0.000351071)
(0.00111332 -0.0001576 0.000351071)
(0.00112377 3.81198e-05 0.000351071)
(0.00110008 0.000232681 0.000351071)
(0.00104296 0.000420171 0.000351071)
(0.000954152 0.000594896 0.000351071)
(0.000836354 0.000751544 0.000351071)
(0.000693143 0.000885358 0.000351071)
(0.000528871 0.000992271 0.000351071)
(0.000348531 0.00106903 0.000351071)
(0.0001576 0.00111332 0.000351071)
(0.000285693 0.00157321 0.000430295)
(8.16782e-06 0.00159892 0.000430295)
(-0.000269606 0.00157605 0.000430295)
(-0.000539188 0.00150529 0.000430297)
(-0.000792386 0.00138879 0.000430298)
(-0.00102151 0.0012301 0.000430298)
(-0.00121959 0.00103402 0.000430298)
(-0.00138062 0.000806534 0.000430297)
(-0.0014997 0.000554538 0.000430295)
(-0.00157321 0.000285693 0.000430295)
(-0.00159892 8.16772e-06 0.000430295)
(-0.00157605 -0.000269606 0.000430295)
(-0.00150529 -0.000539188 0.000430297)
(-0.00138879 -0.000792386 0.000430298)
(-0.00123009 -0.00102151 0.000430298)
(-0.00103402 -0.00121959 0.000430298)
(-0.000806534 -0.00138062 0.000430297)
(-0.000554538 -0.0014997 0.000430295)
(-0.000285693 -0.00157321 0.000430295)
(-8.16765e-06 -0.00159892 0.000430295)
(0.000269606 -0.00157605 0.000430295)
(0.000539188 -0.00150529 0.000430297)
(0.000792386 -0.00138879 0.000430298)
(0.00102151 -0.00123009 0.000430298)
(0.00121959 -0.00103402 0.000430298)
(0.00138062 -0.000806534 0.000430297)
(0.0014997 -0.000554538 0.000430295)
(0.00157321 -0.000285693 0.000430295)
(0.00159892 -8.16772e-06 0.000430295)
(0.00157605 0.000269606 0.000430295)
(0.00150529 0.000539188 0.000430297)
(0.00138879 0.000792386 0.000430298)
(0.0012301 0.00102151 0.000430298)
(0.00103402 0.00121959 0.000430298)
(0.000806534 0.00138062 0.000430297)
(0.000554538 0.0014997 0.000430295)
(0.000126434 0.00169999 0.000550984)
(-0.000170687 0.00169612 0.000550984)
(-0.000462622 0.00164071 0.000550984)
(-0.0007405 0.00153545 0.000550984)
(-0.000995879 0.00138354 0.000550985)
(-0.001221 0.00118959 0.000550985)
(-0.00140902 0.000959492 0.000550985)
(-0.00155423 0.000700241 0.000550985)
(-0.00165221 0.000419714 0.000550984)
(-0.00169999 0.000126433 0.000550984)
(-0.00169612 -0.000170687 0.000550984)
(-0.00164071 -0.000462622 0.000550984)
(-0.00153545 -0.0007405 0.000550984)
(-0.00138354 -0.00099588 0.000550985)
(-0.00118959 -0.001221 0.000550985)
(-0.000959492 -0.00140902 0.000550985)
(-0.000700241 -0.00155423 0.000550985)
(-0.000419714 -0.00165221 0.000550984)
(-0.000126433 -0.00169999 0.000550983)
(0.000170688 -0.00169612 0.000550984)
(0.000462622 -0.00164071 0.000550984)
(0.0007405 -0.00153545 0.000550984)
(0.00099588 -0.00138354 0.000550985)
(0.001221 -0.00118959 0.000550985)
(0.00140902 -0.000959492 0.000550985)
(0.00155423 -0.000700241 0.000550985)
(0.00165221 -0.000419714 0.000550984)
(0.00169999 -0.000126433 0.000550984)
(0.00169612 0.000170687 0.000550984)
(0.00164071 0.000462622 0.000550984)
(0.00153545 0.0007405 0.000550984)
(0.00138354 0.00099588 0.000550985)
(0.00118959 0.001221 0.000550985)
(0.000959492 0.00140902 0.000550985)
(0.000700241 0.00155423 0.000550985)
(0.000419714 0.00165221 0.000550984)
(-6.95464e-05 0.00180731 0.000650296)
(-0.000382325 0.00176777 0.000650296)
(-0.000683487 0.00167453 0.000650296)
(-0.000963882 0.0015304 0.000650296)
(-0.00121499 0.00133978 0.000650296)
(-0.00142918 0.00110844 0.000650297)
(-0.00159995 0.000843426 0.000650296)
(-0.0017221 0.000552784 0.000650296)
(-0.00179193 0.000245346 0.000650296)
(-0.00180731 -6.95465e-05 0.000650296)
(-0.00176777 -0.000382325 0.000650296)
(-0.00167453 -0.000683487 0.000650296)
(-0.0015304 -0.000963882 0.000650296)
(-0.00133978 -0.00121499 0.000650296)
(-0.00110844 -0.00142918 0.000650297)
(-0.000843426 -0.00159995 0.000650296)
(-0.000552784 -0.0017221 0.000650296)
(-0.000245346 -0.00179193 0.000650296)
(6.95465e-05 -0.00180731 0.000650296)
(0.000382325 -0.00176777 0.000650296)
(0.000683487 -0.00167453 0.000650296)
(0.000963882 -0.0015304 0.000650296)
(0.00121499 -0.00133978 0.000650296)
(0.00142918 -0.00110844 0.000650297)
(0.00159995 -0.000843426 0.000650296)
(0.0017221 -0.000552784 0.000650296)
(0.00179193 -0.000245346 0.000650296)
(0.00180731 6.95465e-05 0.000650296)
(0.00176777 0.000382325 0.000650296)
(0.00167453 0.000683487 0.000650296)
(0.0015304 0.000963882 0.000650296)
(0.00133978 0.00121499 0.000650297)
(0.00110844 0.00142918 0.000650297)
(0.000843426 0.00159995 0.000650296)
(0.000552784 0.0017221 0.000650296)
(0.000245346 0.00179193 0.000650296)
(0.000235707 0.00219464 0.000712547)
(-0.000148969 0.00220223 0.000712546)
(-0.000529119 0.0021429 0.000712547)
(-0.000893191 0.00201847 0.000712548)
(-0.00123012 0.0018327 0.000712548)
(-0.00152968 0.00159125 0.000712549)
(-0.00178276 0.00130145 0.000712549)
(-0.00198167 0.000972102 0.000712549)
(-0.00212037 0.000613221 0.000712547)
(-0.00219464 0.000235707 0.000712547)
(-0.00220223 -0.000148969 0.000712546)
(-0.0021429 -0.000529119 0.000712547)
(-0.00201847 -0.000893191 0.000712548)
(-0.0018327 -0.00123012 0.000712548)
(-0.00159125 -0.00152968 0.000712549)
(-0.00130145 -0.00178276 0.000712549)
(-0.000972102 -0.00198167 0.000712549)
(-0.000613221 -0.00212037 0.000712547)
(-0.000235707 -0.00219464 0.000712547)
(0.000148969 -0.00220223 0.000712546)
(0.000529119 -0.0021429 0.000712547)
(0.000893191 -0.00201847 0.000712548)
(0.00123012 -0.0018327 0.000712548)
(0.00152968 -0.00159125 0.000712549)
(0.00178276 -0.00130145 0.000712549)
(0.00198167 -0.000972102 0.000712549)
(0.00212037 -0.000613221 0.000712547)
(0.00219464 -0.000235707 0.000712547)
(0.00220223 0.000148969 0.000712546)
(0.0021429 0.000529119 0.000712547)
(0.00201847 0.000893191 0.000712548)
(0.0018327 0.00123012 0.000712549)
(0.00159125 0.00152968 0.000712549)
(0.00130145 0.00178276 0.000712549)
(0.000972102 0.00198167 0.000712549)
(0.000613221 0.00212037 0.000712547)
(6.20572e-05 0.00231304 0.000843023)
(-0.00034054 0.00228867 0.000843023)
(-0.00073279 0.00219477 0.000843023)
(-0.00110277 0.00203418 0.000843023)
(-0.00143925 0.00181178 0.000843024)
(-0.001732 0.00153433 0.000843024)
(-0.00197212 0.00121026 0.000843024)
(-0.00215232 0.00084942 0.000843024)
(-0.00226712 0.000462769 0.000843023)
(-0.00231304 6.20571e-05 0.000843023)
(-0.00228867 -0.00034054 0.000843022)
(-0.00219477 -0.00073279 0.000843023)
(-0.00203418 -0.00110277 0.000843023)
(-0.00181178 -0.00143925 0.000843023)
(-0.00153433 -0.001732 0.000843024)
(-0.00121026 -0.00197212 0.000843024)
(-0.00084942 -0.00215232 0.000843024)
(-0.000462769 -0.00226712 0.000843023)
(-6.2057e-05 -0.00231304 0.000843023)
(0.00034054 -0.00228867 0.000843022)
(0.00073279 -0.00219477 0.000843023)
(0.00110277 -0.00203418 0.000843023)
(0.00143925 -0.00181178 0.000843024)
(0.001732 -0.00153433 0.000843024)
(0.00197212 -0.00121026 0.000843024)
(0.00215232 -0.00084942 0.000843024)
(0.00226712 -0.000462769 0.000843023)
(0.00231304 -6.20571e-05 0.000843023)
(0.00228867 0.00034054 0.000843023)
(0.00219477 0.00073279 0.000843023)
(0.00203418 0.00110277 0.000843023)
(0.00181178 0.00143925 0.000843024)
(0.00153433 0.001732 0.000843024)
(0.00121026 0.00197212 0.000843024)
(0.00084942 0.00215232 0.000843024)
(0.000462769 0.00226712 0.000843023)
(-0.000143316 0.00241173 0.000952823)
(-0.000559931 0.00235021 0.000952823)
(-0.000959534 0.00221727 0.000952823)
(-0.00132998 0.00201697 0.000952823)
(-0.00166002 0.00175537 0.000952823)
(-0.00193962 0.00144045 0.000952823)
(-0.00216028 0.00108175 0.000952823)
(-0.0023153 0.000690189 0.000952823)
(-0.00239998 0.000277655 0.000952823)
(-0.00241173 -0.000143316 0.000952823)
(-0.00235021 -0.000559932 0.000952823)
(-0.00221727 -0.000959534 0.000952823)
(-0.00201696 -0.00132998 0.000952823)
(-0.00175537 -0.00166002 0.000952823)
(-0.00144045 -0.00193962 0.000952823)
(-0.00108175 -0.00216028 0.000952823)
(-0.000690189 -0.0023153 0.000952823)
(-0.000277655 -0.00239998 0.000952823)
(0.000143316 -0.00241173 0.000952823)
(0.000559932 -0.00235021 0.000952823)
(0.000959534 -0.00221727 0.000952823)
(0.00132998 -0.00201697 0.000952823)
(0.00166002 -0.00175537 0.000952823)
(0.00193962 -0.00144045 0.000952823)
(0.00216028 -0.00108175 0.000952823)
(0.0023153 -0.000690189 0.000952823)
(0.00239998 -0.000277655 0.000952823)
(0.00241173 0.000143316 0.000952823)
(0.00235021 0.000559932 0.000952823)
(0.00221727 0.000959534 0.000952823)
(0.00201697 0.00132998 0.000952823)
(0.00175537 0.00166002 0.000952823)
(0.00144045 0.00193962 0.000952823)
(0.00108175 0.00216028 0.000952823)
(0.000690189 0.0023153 0.000952823)
(0.000277655 0.00239998 0.000952823)
(0.000105214 0.00277281 0.00100692)
(-0.000377878 0.00274896 0.00100692)
(-0.000849489 0.00264158 0.00100692)
(-0.00129529 0.00245393 0.00100692)
(-0.00170173 0.00219173 0.00100692)
(-0.00205646 0.00186293 0.00100692)
(-0.00234872 0.00147752 0.00100692)
(-0.0025696 0.00104723 0.00100692)
(-0.00271242 0.000585109 0.00100692)
(-0.00277281 0.000105214 0.00100692)
(-0.00274896 -0.000377878 0.00100692)
(-0.00264158 -0.000849489 0.00100692)
(-0.00245393 -0.00129529 0.00100692)
(-0.00219173 -0.00170173 0.00100692)
(-0.00186293 -0.00205646 0.00100692)
(-0.00147752 -0.00234872 0.00100692)
(-0.00104723 -0.0025696 0.00100692)
(-0.000585109 -0.00271242 0.00100692)
(-0.000105214 -0.00277281 0.00100692)
(0.000377878 -0.00274896 0.00100692)
(0.000849489 -0.00264158 0.00100692)
(0.00129529 -0.00245393 0.00100692)
(0.00170173 -0.00219173 0.00100692)
(0.00205646 -0.00186293 0.00100692)
(0.00234872 -0.00147752 0.00100692)
(0.0025696 -0.00104723 0.00100692)
(0.00271242 -0.000585109 0.00100692)
(0.00277281 -0.000105214 0.00100692)
(0.00274896 0.000377878 0.00100692)
(0.00264158 0.000849489 0.00100692)
(0.00245393 0.00129529 0.00100692)
(0.00219173 0.00170173 0.00100692)
(0.00186293 0.00205646 0.00100692)
(0.00147752 0.00234872 0.00100692)
(0.00104723 0.0025696 0.00100692)
(0.000585109 0.00271242 0.00100692)
(-6.51125e-05 0.0028594 0.00113503)
(-0.000560653 0.00280465 0.00113503)
(-0.00103916 0.00266469 0.00113503)
(-0.00148609 0.00244375 0.00113503)
(-0.00188786 0.00214857 0.00113503)
(-0.00223228 0.00178811 0.00113503)
(-0.00250887 0.00137331 0.00113503)
(-0.00270922 0.000916787 0.00113503)
(-0.00282726 0.000432406 0.00113503)
(-0.0028594 -6.51126e-05 0.00113503)
(-0.00280465 -0.000560653 0.00113503)
(-0.00266469 -0.00103916 0.00113503)
(-0.00244375 -0.00148609 0.00113503)
(-0.00214857 -0.00188786 0.00113503)
(-0.00178811 -0.00223228 0.00113503)
(-0.00137331 -0.00250887 0.00113503)
(-0.000916786 -0.00270922 0.00113503)
(-0.000432406 -0.00282726 0.00113503)
(6.51127e-05 -0.0028594 0.00113503)
(0.000560653 -0.00280465 0.00113503)
(0.00103916 -0.00266469 0.00113503)
(0.00148609 -0.00244375 0.00113503)
(0.00188786 -0.00214857 0.00113503)
(0.00223228 -0.00178811 0.00113503)
(0.00250887 -0.00137331 0.00113503)
(0.00270922 -0.000916786 0.00113503)
(0.00282726 -0.000432406 0.00113503)
(0.0028594 6.51126e-05 0.00113503)
(0.00280465 0.000560653 0.00113503)
(0.00266469 0.00103916 0.00113503)
(0.00244375 0.00148609 0.00113503)
(0.00214857 0.00188786 0.00113503)
(0.00178811 0.00223228 0.00113503)
(0.00137331 0.00250887 0.00113503)
(0.000916787 0.00270922 0.00113503)
(0.000432406 0.00282726 0.00113503)
(-0.00026251 0.00292781 0.00124313)
(-0.00076693 0.00283775 0.00124313)
(-0.00124805 0.00266146 0.00124313)
(-0.00169124 0.0024043 0.00124313)
(-0.00208305 0.00207409 0.00124313)
(-0.00241157 0.00168087 0.00124313)
(-0.00266681 0.00123657 0.00124313)
(-0.00284102 0.000754692 0.00124313)
(-0.00292891 0.000249888 0.00124313)
(-0.00292781 -0.00026251 0.00124313)
(-0.00283774 -0.00076693 0.00124313)
(-0.00266146 -0.00124805 0.00124313)
(-0.0024043 -0.00169124 0.00124313)
(-0.00207409 -0.00208305 0.00124313)
(-0.00168087 -0.00241157 0.00124313)
(-0.00123657 -0.00266681 0.00124313)
(-0.000754692 -0.00284102 0.00124313)
(-0.000249888 -0.00292891 0.00124313)
(0.00026251 -0.00292781 0.00124313)
(0.00076693 -0.00283775 0.00124313)
(0.00124805 -0.00266146 0.00124313)
(0.00169124 -0.0024043 0.00124313)
(0.00208305 -0.00207409 0.00124313)
(0.00241157 -0.00168087 0.00124313)
(0.00266681 -0.00123657 0.00124313)
(0.00284102 -0.000754692 0.00124313)
(0.00292891 -0.000249888 0.00124313)
(0.00292781 0.00026251 0.00124313)
(0.00283775 0.00076693 0.00124313)
(0.00266146 0.00124805 0.00124313)
(0.0024043 0.00169124 0.00124313)
(0.00207409 0.00208305 0.00124313)
(0.00168087 0.00241157 0.00124313)
(0.00123657 0.00266681 0.00124313)
(0.000754692 0.00284102 0.00124313)
(0.000249888 0.00292891 0.00124313)
(-7.92163e-05 0.00327683 0.00130038)
(-0.000647028 0.00321329 0.00130038)
(-0.00119518 0.00305212 0.00130038)
(-0.00170702 0.00279821 0.00130038)
(-0.00216699 0.00245928 0.00130038)
(-0.00256111 0.00204562 0.00130038)
(-0.00287742 0.00156981 0.00130038)
(-0.0031063 0.0010463 0.00130038)
(-0.0032408 0.000491003 0.00130038)
(-0.00327683 -7.92165e-05 0.00130038)
(-0.00321329 -0.000647028 0.00130038)
(-0.00305212 -0.00119518 0.00130038)
(-0.00279821 -0.00170702 0.00130038)
(-0.00245928 -0.00216699 0.00130038)
(-0.00204562 -0.00256111 0.00130038)
(-0.00156981 -0.00287742 0.00130038)
(-0.0010463 -0.0031063 0.00130038)
(-0.000491002 -0.0032408 0.00130038)
(7.92167e-05 -0.00327683 0.00130038)
(0.000647028 -0.00321329 0.00130038)
(0.00119518 -0.00305212 0.00130038)
(0.00170702 -0.00279821 0.00130038)
(0.00216699 -0.00245928 0.00130038)
(0.00256111 -0.00204562 0.00130038)
(0.00287742 -0.00156981 0.00130038)
(0.0031063 -0.0010463 0.00130038)
(0.0032408 -0.000491002 0.00130038)
(0.00327683 7.92165e-05 0.00130038)
(0.00321329 0.000647028 0.00130038)
(0.00305212 0.00119518 0.00130038)
(0.00279821 0.00170702 0.00130038)
(0.00245928 0.00216699 0.00130038)
(0.00204562 0.00256111 0.00130038)
(0.00156981 0.00287742 0.00130038)
(0.0010463 0.0031063 0.00130038)
(0.000491003 0.0032408 0.00130038)
(-0.000238916 0.00331881 0.00141823)
(-0.000811593 0.00322691 0.00141823)
(-0.00135961 0.00303695 0.00141823)
(-0.00186631 0.00275472 0.00141823)
(-0.00231631 0.00238879 0.00141823)
(-0.00269593 0.00195027 0.00141823)
(-0.00299363 0.0014525 0.00141823)
(-0.00320038 0.000910595 0.00141823)
(-0.00330988 0.00034102 0.00141823)
(-0.00331881 -0.000238916 0.00141823)
(-0.00322691 -0.000811593 0.00141823)
(-0.00303695 -0.00135961 0.00141823)
(-0.00275472 -0.00186631 0.00141823)
(-0.00238879 -0.00231631 0.00141823)
(-0.00195027 -0.00269593 0.00141823)
(-0.0014525 -0.00299363 0.00141823)
(-0.000910594 -0.00320038 0.00141823)
(-0.000341019 -0.00330988 0.00141823)
(0.000238916 -0.00331881 0.00141823)
(0.000811594 -0.00322691 0.00141823)
(0.00135961 -0.00303695 0.00141823)
(0.00186631 -0.00275472 0.00141823)
(0.00231631 -0.00238879 0.00141823)
(0.00269593 -0.00195027 0.00141823)
(0.00299363 -0.0014525 0.00141823)
(0.00320038 -0.000910595 0.00141823)
(0.00330988 -0.00034102 0.00141824)
(0.00331882 0.000238916 0.00141823)
(0.00322691 0.000811594 0.00141823)
(0.00303695 0.00135961 0.00141823)
(0.00275472 0.00186631 0.00141823)
(0.00238879 0.00231631 0.00141823)
(0.00195027 0.00269593 0.00141823)
(0.0014525 0.00299363 0.00141823)
(0.000910595 0.00320038 0.00141823)
(0.00034102 0.00330988 0.00141824)
(-0.000420516 0.00334569 0.00151623)
(-0.000995102 0.00322184 0.00151623)
(-0.00153945 0.0030001 0.00151623)
(-0.00203702 0.0026872 0.00151623)
(-0.0024727 0.00229265 0.00151623)
(-0.00283325 0.00182844 0.00151623)
(-0.00310771 0.00130867 0.00151623)
(-0.00328775 0.000749139 0.00151623)
(-0.00336789 0.000166846 0.00151623)
(-0.00334569 -0.000420516 0.00151623)
(-0.00322184 -0.000995102 0.00151623)
(-0.0030001 -0.00153945 0.00151623)
(-0.0026872 -0.00203702 0.00151623)
(-0.00229265 -0.0024727 0.00151623)
(-0.00182844 -0.00283325 0.00151623)
(-0.00130867 -0.00310771 0.00151623)
(-0.000749139 -0.00328775 0.00151623)
(-0.000166846 -0.00336789 0.00151623)
(0.000420517 -0.00334569 0.00151623)
(0.000995102 -0.00322184 0.00151623)
(0.00153945 -0.0030001 0.00151623)
(0.00203702 -0.0026872 0.00151623)
(0.0024727 -0.00229265 0.00151623)
(0.00283325 -0.00182844 0.00151623)
(0.00310771 -0.00130867 0.00151623)
(0.00328775 -0.000749139 0.00151623)
(0.00336789 -0.000166846 0.00151623)
(0.00334569 0.000420516 0.00151623)
(0.00322184 0.000995102 0.00151623)
(0.0030001 0.00153945 0.00151623)
(0.0026872 0.00203702 0.00151623)
(0.00229265 0.0024727 0.00151623)
(0.00182844 0.00283325 0.00151623)
(0.00130867 0.00310771 0.00151623)
(0.000749139 0.00328775 0.00151623)
(0.000166846 0.00336789 0.00151623)
(-0.000286546 0.00368196 0.00159548)
(-0.000921558 0.00357627 0.00159548)
(-0.00152857 0.00336191 0.00159548)
(-0.00208914 0.0030454 0.00159548)
(-0.00258623 0.00263636 0.00159548)
(-0.00300473 0.00214721 0.00159548)
(-0.00333194 0.00159283 0.00159548)
(-0.00355792 0.00099004 0.00159548)
(-0.00367578 0.000357172 0.00159548)
(-0.00368196 -0.000286546 0.00159548)
(-0.00357627 -0.000921559 0.00159548)
(-0.00336191 -0.00152857 0.00159548)
(-0.0030454 -0.00208914 0.00159548)
(-0.00263636 -0.00258623 0.00159548)
(-0.00214721 -0.00300473 0.00159548)
(-0.00159282 -0.00333194 0.00159548)
(-0.000990039 -0.00355792 0.00159548)
(-0.000357172 -0.00367578 0.00159548)
(0.000286546 -0.00368196 0.00159548)
(0.000921559 -0.00357627 0.00159548)
(0.00152857 -0.00336191 0.00159548)
(0.00208914 -0.0030454 0.00159548)
(0.00258623 -0.00263636 0.00159548)
(0.00300473 -0.00214721 0.00159548)
(0.00333195 -0.00159283 0.00159548)
(0.00355792 -0.000990039 0.00159548)
(0.00367578 -0.000357172 0.00159548)
(0.00368196 0.000286546 0.00159548)
(0.00357627 0.000921559 0.00159548)
(0.00336191 0.00152857 0.00159548)
(0.0030454 0.00208914 0.00159548)
(0.00263636 0.00258623 0.00159548)
(0.00214721 0.00300473 0.00159548)
(0.00159283 0.00333195 0.00159548)
(0.00099004 0.00355792 0.00159548)
(0.000357173 0.00367578 0.00159548)
(-0.000436016 0.00367177 0.00169622)
(-0.00106699 0.00354027 0.00169622)
(-0.00166554 0.00330121 0.00169622)
(-0.00221349 0.00296184 0.00169622)
(-0.00269417 0.00253247 0.00169622)
(-0.003093 0.00202616 0.00169622)
(-0.00339785 0.00145828 0.00169622)
(-0.00359946 0.000846098 0.00169622)
(-0.0036917 0.000208203 0.00169622)
(-0.00367177 -0.000436016 0.00169622)
(-0.00354027 -0.00106699 0.00169622)
(-0.00330121 -0.00166554 0.00169622)
(-0.00296184 -0.00221349 0.00169622)
(-0.00253247 -0.00269417 0.00169622)
(-0.00202616 -0.003093 0.00169622)
(-0.00145828 -0.00339785 0.00169622)
(-0.000846098 -0.00359946 0.00169622)
(-0.000208202 -0.0036917 0.00169622)
(0.000436017 -0.00367177 0.00169622)
(0.00106699 -0.00354027 0.00169622)
(0.00166554 -0.00330121 0.00169622)
(0.00221349 -0.00296184 0.00169622)
(0.00269417 -0.00253247 0.00169622)
(0.003093 -0.00202616 0.00169622)
(0.00339785 -0.00145828 0.00169622)
(0.00359946 -0.000846098 0.00169622)
(0.0036917 -0.000208202 0.00169622)
(0.00367177 0.000436017 0.00169622)
(0.00354027 0.00106699 0.00169622)
(0.00330121 0.00166554 0.00169622)
(0.00296184 0.00221349 0.00169622)
(0.00253247 0.00269417 0.00169622)
(0.00202616 0.003093 0.00169622)
(0.00145828 0.00339785 0.00169622)
(0.000846098 0.00359946 0.00169622)
(0.000208203 0.0036917 0.00169622)
(-0.000601022 0.00365181 0.00177645)
(-0.00122602 0.00349197 0.00177645)
(-0.00181377 0.00322602 0.00177645)
(-0.00234641 0.00286205 0.00177645)
(-0.00280775 0.00241112 0.00177645)
(-0.00318378 0.00188693 0.00177645)
(-0.00346307 0.00130541 0.00177645)
(-0.00363714 0.000684219 0.00177645)
(-0.0037007 4.22408e-05 0.00177645)
(-0.00365181 -0.000601022 0.00177645)
(-0.00349197 -0.00122602 0.00177645)
(-0.00322602 -0.00181377 0.00177645)
(-0.00286205 -0.00234641 0.00177645)
(-0.00241112 -0.00280775 0.00177645)
(-0.00188693 -0.00318378 0.00177645)
(-0.00130541 -0.00346307 0.00177645)
(-0.000684219 -0.00363714 0.00177645)
(-4.22406e-05 -0.0037007 0.00177645)
(0.000601023 -0.00365181 0.00177645)
(0.00122602 -0.00349197 0.00177645)
(0.00181377 -0.00322602 0.00177645)
(0.00234641 -0.00286205 0.00177645)
(0.00280775 -0.00241112 0.00177645)
(0.00318378 -0.00188693 0.00177645)
(0.00346307 -0.00130541 0.00177645)
(0.00363714 -0.000684219 0.00177645)
(0.0037007 -4.22407e-05 0.00177645)
(0.00365181 0.000601022 0.00177645)
(0.00349197 0.00122602 0.00177645)
(0.00322602 0.00181377 0.00177645)
(0.00286205 0.00234641 0.00177645)
(0.00241112 0.00280775 0.00177645)
(0.00188693 0.00318378 0.00177645)
(0.00130541 0.00346307 0.00177645)
(0.000684219 0.00363714 0.00177645)
(4.2241e-05 0.0037007 0.00177645)
(-0.000483546 0.00396845 0.00190529)
(-0.00116531 0.00382419 0.00190529)
(-0.00181167 0.00356374 0.00190529)
(-0.00240299 0.003195 0.00190529)
(-0.00292129 0.00272919 0.00190529)
(-0.00335082 0.00218045 0.00190529)
(-0.00367855 0.00156546 0.00190529)
(-0.0038945 0.000902903 0.00190529)
(-0.00399212 0.000212912 0.00190529)
(-0.00396845 -0.000483546 0.00190529)
(-0.00382419 -0.00116531 0.00190529)
(-0.00356374 -0.00181167 0.00190529)
(-0.003195 -0.00240299 0.00190529)
(-0.00272919 -0.00292129 0.00190529)
(-0.00218045 -0.00335082 0.00190529)
(-0.00156546 -0.00367855 0.00190529)
(-0.000902902 -0.0038945 0.00190529)
(-0.000212912 -0.00399212 0.00190529)
(0.000483546 -0.00396845 0.00190529)
(0.00116531 -0.00382419 0.00190529)
(0.00181167 -0.00356374 0.00190529)
(0.00240299 -0.003195 0.00190529)
(0.00292129 -0.00272919 0.00190529)
(0.00335082 -0.00218045 0.00190529)
(0.00367855 -0.00156546 0.00190529)
(0.0038945 -0.000902903 0.00190529)
(0.00399212 -0.000212912 0.00190529)