/*--------------------------------*- C++ -*----------------------------------*\
| =========                 |                                                 |
| \\      /  F ield         | OpenFOAM: The Open Source CFD Toolbox           |
|  \\    /   O peration     | Version:  2312                                  |
|   \\  /    A nd           | Website:  www.openfoam.com                      |
|    \\/     M anipulation  |                                                 |
\*---------------------------------------------------------------------------*/
FoamFile
{
    version     2.0;
    format      ascii;
    arch        "LSB;label=32;scalar=64";
    class       volVectorField;
    location    "0.8";
    object      D_0_0_0;
}
// * * * * * * * * * * * * * * * * * * * * * * * * * * * * * * * * * * * * * //

dimensions      [0 1 0 0 0 0 0];

internalField   nonuniform List<vector> 
1620
(
(0.000124631 0.000313141 4.59419e-05)
(6.83608e-05 0.000330025 4.59417e-05)
(1.00144e-05 0.000336882 4.59418e-05)
(-4.86364e-05 0.000333503 4.59424e-05)
(-0.00010581 0.000319991 4.59425e-05)
(-0.000159768 0.000296756 4.59422e-05)
(-0.000208872 0.000264504 4.59424e-05)
(-0.00025163 0.000224215 4.59424e-05)
(-0.000286741 0.000177113 4.5942e-05)
(-0.000313141 0.000124631 4.59419e-05)
(-0.000330025 6.83608e-05 4.59417e-05)
(-0.000336882 1.00143e-05 4.59418e-05)
(-0.000333503 -4.86365e-05 4.59424e-05)
(-0.000319991 -0.00010581 4.59425e-05)
(-0.000296756 -0.000159768 4.59422e-05)
(-0.000264504 -0.000208872 4.59424e-05)
(-0.000224215 -0.00025163 4.59424e-05)
(-0.000177113 -0.000286741 4.5942e-05)
(-0.000124631 -0.000313141 4.59419e-05)
(-6.83608e-05 -0.000330025 4.59417e-05)
(-1.00143e-05 -0.000336882 4.59418e-05)
(4.86365e-05 -0.000333503 4.59424e-05)
(0.00010581 -0.000319991 4.59425e-05)
(0.000159768 -0.000296756 4.59422e-05)
(0.000208872 -0.000264504 4.59424e-05)
(0.00025163 -0.000224215 4.59424e-05)
(0.000286741 -0.000177114 4.5942e-05)
(0.000313141 -0.000124631 4.59419e-05)
(0.000330025 -6.83608e-05 4.59417e-05)
(0.000336882 -1.00144e-05 4.59418e-05)
(0.000333503 4.86365e-05 4.59424e-05)
(0.000319991 0.00010581 4.59425e-05)
(0.000296756 0.000159768 4.59422e-05)
(0.000264504 0.000208872 4.59424e-05)
(0.000224215 0.00025163 4.59424e-05)
(0.000177114 0.000286741 4.5942e-05)
(5.78808e-05 0.000349846 7.83276e-05)
(-3.74862e-06 0.000354582 7.83275e-05)
(-6.52638e-05 0.000348544 7.83276e-05)
(-0.000124796 0.000331916 7.83279e-05)
(-0.000180537 0.000305203 7.8328e-05)
(-0.000230792 0.000269216 7.83278e-05)
(-0.000274035 0.000225049 7.83278e-05)
(-0.000308951 0.000174044 7.83277e-05)
(-0.00033448 0.000117751 7.83275e-05)
(-0.000349846 5.78808e-05 7.83276e-05)
(-0.000354582 -3.74863e-06 7.83275e-05)
(-0.000348544 -6.52638e-05 7.83276e-05)
(-0.000331916 -0.000124796 7.83279e-05)
(-0.000305203 -0.000180537 7.8328e-05)
(-0.000269216 -0.000230792 7.83278e-05)
(-0.000225049 -0.000274035 7.83278e-05)
(-0.000174044 -0.000308951 7.83277e-05)
(-0.000117751 -0.00033448 7.83275e-05)
(-5.78807e-05 -0.000349846 7.83276e-05)
(3.74865e-06 -0.000354582 7.83275e-05)
(6.52638e-05 -0.000348544 7.83276e-05)
(0.000124796 -0.000331916 7.83279e-05)
(0.000180537 -0.000305203 7.8328e-05)
(0.000230792 -0.000269216 7.83278e-05)
(0.000274035 -0.000225049 7.83278e-05)
(0.000308951 -0.000174044 7.83277e-05)
(0.00033448 -0.000117751 7.83275e-05)
(0.000349846 -5.78808e-05 7.83276e-05)
(0.000354582 3.74864e-06 7.83275e-05)
(0.000348544 6.52638e-05 7.83276e-05)
(0.000331916 0.000124796 7.83279e-05)
(0.000305203 0.000180537 7.8328e-05)
(0.000269216 0.000230792 7.83278e-05)
(0.000225049 0.000274035 7.83278e-05)
(0.000174044 0.000308951 7.83277e-05)
(0.000117751 0.00033448 7.83275e-05)
(-4.34441e-05 0.0003733 9.61172e-05)
(-0.000107607 0.000360086 9.61174e-05)
(-0.0001685 0.00033593 9.61173e-05)
(-0.000224274 0.000301566 9.61173e-05)
(-0.000273233 0.00025804 9.61175e-05)
(-0.00031389 0.000206673 9.61175e-05)
(-0.00034501 0.000149027 9.61175e-05)
(-0.000365647 8.6852e-05 9.61171e-05)
(-0.000375173 2.20388e-05 9.61171e-05)
(-0.0003733 -4.34441e-05 9.61172e-05)
(-0.000360086 -0.000107607 9.61174e-05)
(-0.00033593 -0.0001685 9.61173e-05)
(-0.000301566 -0.000224274 9.61173e-05)
(-0.00025804 -0.000273233 9.61175e-05)
(-0.000206673 -0.00031389 9.61174e-05)
(-0.000149027 -0.00034501 9.61175e-05)
(-8.6852e-05 -0.000365647 9.61171e-05)
(-2.20388e-05 -0.000375173 9.61171e-05)
(4.34441e-05 -0.0003733 9.61172e-05)
(0.000107607 -0.000360086 9.61174e-05)
(0.0001685 -0.00033593 9.61173e-05)
(0.000224274 -0.000301566 9.61173e-05)
(0.000273233 -0.00025804 9.61175e-05)
(0.00031389 -0.000206673 9.61174e-05)
(0.00034501 -0.000149027 9.61175e-05)
(0.000365647 -8.6852e-05 9.61171e-05)
(0.000375173 -2.20388e-05 9.61171e-05)
(0.0003733 4.34441e-05 9.61172e-05)
(0.000360086 0.000107607 9.61174e-05)
(0.00033593 0.0001685 9.61173e-05)
(0.000301566 0.000224274 9.61173e-05)
(0.00025804 0.000273233 9.61175e-05)
(0.000206673 0.00031389 9.61175e-05)
(0.000149027 0.00034501 9.61175e-05)
(8.6852e-05 0.000365647 9.61171e-05)
(2.20388e-05 0.000375173 9.61171e-05)
(0.000236782 0.000932084 0.000189472)
(7.1331e-05 0.00095904 0.000189471)
(-9.62881e-05 0.000956857 0.000189472)
(-0.000260981 0.0009256 0.000189473)
(-0.000417745 0.000866219 0.000189474)
(-0.000561816 0.000780519 0.000189473)
(-0.000688817 0.000671103 0.000189473)
(-0.000794888 0.000541295 0.000189473)
(-0.000876806 0.00039504 0.000189472)
(-0.000932084 0.000236782 0.000189472)
(-0.00095904 7.13309e-05 0.000189471)
(-0.000956857 -9.62882e-05 0.000189472)
(-0.0009256 -0.000260982 0.000189473)
(-0.000866219 -0.000417745 0.000189474)
(-0.000780519 -0.000561816 0.000189473)
(-0.000671103 -0.000688817 0.000189473)
(-0.000541295 -0.000794888 0.000189473)
(-0.00039504 -0.000876806 0.000189472)
(-0.000236782 -0.000932084 0.000189472)
(-7.13308e-05 -0.00095904 0.000189471)
(9.62882e-05 -0.000956857 0.000189472)
(0.000260982 -0.0009256 0.000189473)
(0.000417745 -0.000866219 0.000189474)
(0.000561816 -0.000780519 0.000189473)
(0.000688817 -0.000671103 0.000189473)
(0.000794888 -0.000541295 0.000189473)
(0.000876806 -0.00039504 0.000189472)
(0.000932084 -0.000236782 0.000189472)
(0.00095904 -7.13309e-05 0.000189471)
(0.000956857 9.62882e-05 0.000189472)
(0.0009256 0.000260982 0.000189473)
(0.000866219 0.000417745 0.000189474)
(0.000780519 0.000561816 0.000189473)
(0.000671103 0.000688817 0.000189473)
(0.000541295 0.000794888 0.000189473)
(0.00039504 0.000876806 0.000189472)
(0.000120752 0.00102738 0.000277208)
(-5.94843e-05 0.00103274 0.000277207)
(-0.000237913 0.00100672 0.000277208)
(-0.000409113 0.000950111 0.000277209)
(-0.000567883 0.000864635 0.000277209)
(-0.000709398 0.000752887 0.000277209)
(-0.000829358 0.000618263 0.000277208)
(-0.000924118 0.000464853 0.000277208)
(-0.0009908 0.000297319 0.000277208)
(-0.00102738 0.000120752 0.000277207)
(-0.00103274 -5.94844e-05 0.000277207)
(-0.00100672 -0.000237913 0.000277208)
(-0.000950111 -0.000409113 0.000277209)
(-0.000864635 -0.000567883 0.000277209)
(-0.000752887 -0.000709398 0.000277209)
(-0.000618263 -0.000829358 0.000277208)
(-0.000464853 -0.000924118 0.000277208)
(-0.000297319 -0.0009908 0.000277208)
(-0.000120752 -0.00102738 0.000277207)
(5.94844e-05 -0.00103274 0.000277207)
(0.000237913 -0.00100672 0.000277208)
(0.000409113 -0.000950111 0.000277209)
(0.000567883 -0.000864635 0.000277209)
(0.000709398 -0.000752887 0.000277209)
(0.000829358 -0.000618263 0.000277208)
(0.000924118 -0.000464853 0.000277208)
(0.0009908 -0.000297319 0.000277208)
(0.00102738 -0.000120752 0.000277208)
(0.00103274 5.94844e-05 0.000277207)
(0.00100672 0.000237913 0.000277208)
(0.000950111 0.000409113 0.000277209)
(0.000864635 0.000567883 0.000277209)
(0.000752887 0.000709398 0.000277209)
(0.000618263 0.000829358 0.000277208)
(0.000464853 0.000924118 0.000277208)
(0.000297319 0.0009908 0.000277208)
(-3.55754e-05 0.00110694 0.000343818)
(-0.000227252 0.00108394 0.000343818)
(-0.000412023 0.00102801 0.000343818)
(-0.000584275 0.000940846 0.000343818)
(-0.000738775 0.000825094 0.000343818)
(-0.000870828 0.000684271 0.000343818)
(-0.000976421 0.000522658 0.000343818)
(-0.00105235 0.000345164 0.000343818)
(-0.0010963 0.000157183 0.000343818)
(-0.00110694 -3.55754e-05 0.000343818)
(-0.00108394 -0.000227252 0.000343818)
(-0.00102801 -0.000412023 0.000343818)
(-0.000940846 -0.000584275 0.000343818)
(-0.000825094 -0.000738775 0.000343818)
(-0.000684271 -0.000870828 0.000343818)
(-0.000522658 -0.000976421 0.000343818)
(-0.000345164 -0.00105235 0.000343818)
(-0.000157183 -0.0010963 0.000343818)
(3.55754e-05 -0.00110694 0.000343818)
(0.000227252 -0.00108394 0.000343818)
(0.000412023 -0.00102801 0.000343818)
(0.000584276 -0.000940846 0.000343818)
(0.000738775 -0.000825094 0.000343818)
(0.000870828 -0.000684271 0.000343818)
(0.000976421 -0.000522658 0.000343818)
(0.00105235 -0.000345164 0.000343818)
(0.0010963 -0.000157183 0.000343818)
(0.00110694 3.55754e-05 0.000343818)
(0.00108394 0.000227252 0.000343818)
(0.00102801 0.000412023 0.000343818)
(0.000940846 0.000584275 0.000343818)
(0.000825094 0.000738775 0.000343818)
(0.000684272 0.000870828 0.000343818)
(0.000522658 0.000976421 0.000343818)
(0.000345164 0.00105235 0.000343818)
(0.000157183 0.0010963 0.000343818)
(0.000284086 0.00155882 0.000429202)
(9.08388e-06 0.00158447 0.000429202)
(-0.000266194 0.00156198 0.000429203)
(-0.000533384 0.00149202 0.000429204)
(-0.000784368 0.00137673 0.000429205)
(-0.00101152 0.00121961 0.000429205)
(-0.00120793 0.00102544 0.000429205)
(-0.00136765 0.000800102 0.000429204)
(-0.00148581 0.000550456 0.000429203)
(-0.00155882 0.000284086 0.000429202)
(-0.00158447 9.08379e-06 0.000429202)
(-0.00156198 -0.000266194 0.000429203)
(-0.00149202 -0.000533385 0.000429204)
(-0.00137673 -0.000784368 0.000429205)
(-0.00121961 -0.00101152 0.000429205)
(-0.00102544 -0.00120793 0.000429205)
(-0.000800102 -0.00136765 0.000429204)
(-0.000550456 -0.00148581 0.000429203)
(-0.000284086 -0.00155882 0.000429202)
(-9.08371e-06 -0.00158447 0.000429202)
(0.000266194 -0.00156198 0.000429203)
(0.000533385 -0.00149202 0.000429204)
(0.000784368 -0.00137673 0.000429205)
(0.00101152 -0.00121961 0.000429205)
(0.00120793 -0.00102544 0.000429205)
(0.00136765 -0.000800102 0.000429204)
(0.00148581 -0.000550456 0.000429203)
(0.00155882 -0.000284086 0.000429202)
(0.00158447 -9.08378e-06 0.000429202)
(0.00156198 0.000266194 0.000429203)
(0.00149202 0.000533385 0.000429205)
(0.00137673 0.000784368 0.000429205)
(0.00121961 0.00101152 0.000429205)
(0.00102544 0.00120793 0.000429205)
(0.000800102 0.00136765 0.000429204)
(0.000550456 0.00148581 0.000429203)
(0.000127257 0.00167927 0.000544637)
(-0.000166278 0.00167586 0.000544638)
(-0.000454761 0.00162152 0.000544638)
(-0.000729426 0.00151792 0.000544638)
(-0.000981928 0.0013682 0.000544639)
(-0.0012046 0.0011769 0.000544639)
(-0.00139066 0.000949843 0.000544639)
(-0.00153447 0.000693927 0.000544638)
(-0.00163166 0.000416926 0.000544638)
(-0.00167927 0.000127257 0.000544637)
(-0.00167586 -0.000166278 0.000544637)
(-0.00162152 -0.000454761 0.000544637)
(-0.00151792 -0.000729426 0.000544638)
(-0.0013682 -0.000981929 0.000544639)
(-0.0011769 -0.0012046 0.000544639)
(-0.000949843 -0.00139066 0.000544639)
(-0.000693927 -0.00153447 0.000544638)
(-0.000416926 -0.00163166 0.000544638)
(-0.000127257 -0.00167927 0.000544637)
(0.000166278 -0.00167586 0.000544637)
(0.000454761 -0.00162152 0.000544637)
(0.000729426 -0.00151792 0.000544638)
(0.000981929 -0.0013682 0.000544639)
(0.0012046 -0.0011769 0.000544639)
(0.00139066 -0.000949843 0.000544639)
(0.00153447 -0.000693927 0.000544638)
(0.00163166 -0.000416926 0.000544638)
(0.00167927 -0.000127257 0.000544637)
(0.00167586 0.000166278 0.000544638)
(0.00162152 0.000454761 0.000544638)
(0.00151792 0.000729426 0.000544638)
(0.0013682 0.000981929 0.000544639)
(0.0011769 0.0012046 0.000544639)
(0.000949843 0.00139066 0.000544639)
(0.000693927 0.00153447 0.000544638)
(0.000416926 0.00163166 0.000544638)
(-6.50098e-05 0.00178103 0.000639615)
(-0.000373294 0.00174268 0.000639615)
(-0.000670235 0.00165138 0.000639615)
(-0.000946812 0.00150991 0.000639616)
(-0.00119462 0.00132256 0.000639616)
(-0.00140613 0.00109502 0.000639616)
(-0.00157492 0.000834213 0.000639616)
(-0.00169585 0.000548058 0.000639615)
(-0.00176526 0.00024525 0.000639615)
(-0.00178103 -6.50099e-05 0.000639615)
(-0.00174268 -0.000373294 0.000639615)
(-0.00165138 -0.000670235 0.000639615)
(-0.00150991 -0.000946812 0.000639616)
(-0.00132256 -0.00119462 0.000639616)
(-0.00109502 -0.00140613 0.000639616)
(-0.000834213 -0.00157492 0.000639616)
(-0.000548058 -0.00169585 0.000639615)
(-0.00024525 -0.00176526 0.000639615)
(6.501e-05 -0.00178103 0.000639615)
(0.000373294 -0.00174268 0.000639615)
(0.000670235 -0.00165138 0.000639615)
(0.000946812 -0.00150991 0.000639616)
(0.00119462 -0.00132256 0.000639616)
(0.00140613 -0.00109502 0.000639616)
(0.00157492 -0.000834213 0.000639616)
(0.00169585 -0.000548058 0.000639616)
(0.00176526 -0.00024525 0.000639615)
(0.00178103 6.50099e-05 0.000639615)
(0.00174268 0.000373294 0.000639615)
(0.00165138 0.000670235 0.000639616)
(0.00150991 0.000946812 0.000639616)
(0.00132256 0.00119462 0.000639616)
(0.00109502 0.00140613 0.000639616)
(0.000834213 0.00157492 0.000639616)
(0.000548058 0.00169585 0.000639616)
(0.00024525 0.00176526 0.000639616)
(0.00023858 0.00217368 0.000711505)
(-0.000142501 0.00218209 0.000711504)
(-0.000519252 0.00212419 0.000711505)
(-0.000880225 0.00200175 0.000711506)
(-0.00121445 0.00181849 0.000711507)
(-0.00151178 0.00157998 0.000711507)
(-0.00176317 0.00129346 0.000711507)
(-0.00196099 0.000967635 0.000711507)
(-0.00209923 0.000612411 0.000711505)
(-0.00217368 0.00023858 0.000711505)
(-0.00218209 -0.000142501 0.000711504)
(-0.00212419 -0.000519252 0.000711505)
(-0.00200175 -0.000880225 0.000711506)
(-0.00181849 -0.00121445 0.000711506)
(-0.00157998 -0.00151178 0.000711507)
(-0.00129346 -0.00176317 0.000711507)
(-0.000967635 -0.00196099 0.000711507)
(-0.000612411 -0.00209923 0.000711505)
(-0.00023858 -0.00217368 0.000711505)
(0.000142501 -0.00218209 0.000711504)
(0.000519252 -0.00212419 0.000711505)
(0.000880225 -0.00200175 0.000711506)
(0.00121445 -0.00181849 0.000711506)
(0.00151178 -0.00157998 0.000711507)
(0.00176317 -0.00129346 0.000711507)
(0.00196099 -0.000967635 0.000711507)
(0.00209923 -0.000612411 0.000711505)
(0.00217368 -0.00023858 0.000711505)
(0.00218209 0.000142501 0.000711504)
(0.00212419 0.000519252 0.000711505)
(0.00200176 0.000880225 0.000711506)
(0.00181849 0.00121445 0.000711507)
(0.00157998 0.00151178 0.000711507)
(0.00129346 0.00176317 0.000711507)
(0.000967635 0.00196099 0.000711507)
(0.000612411 0.00209923 0.000711505)
(6.66951e-05 0.00228512 0.000836183)
(-0.000331125 0.00226198 0.000836182)
(-0.000718883 0.00217012 0.000836182)
(-0.0010848 0.00201232 0.000836183)
(-0.00141775 0.00179337 0.000836183)
(-0.00170763 0.00151994 0.000836183)
(-0.00194562 0.00120032 0.000836184)
(-0.0021245 0.00084423 0.000836183)
(-0.00223882 0.000462488 0.000836183)
(-0.00228512 6.6695e-05 0.000836182)
(-0.00226198 -0.000331125 0.000836182)
(-0.00217012 -0.000718883 0.000836182)
(-0.00201232 -0.0010848 0.000836183)
(-0.00179337 -0.00141775 0.000836183)
(-0.00151994 -0.00170763 0.000836183)
(-0.00120032 -0.00194562 0.000836183)
(-0.000844229 -0.0021245 0.000836183)
(-0.000462488 -0.00223882 0.000836183)
(-6.66949e-05 -0.00228512 0.000836182)
(0.000331125 -0.00226198 0.000836182)
(0.000718883 -0.00217012 0.000836182)
(0.0010848 -0.00201232 0.000836183)
(0.00141775 -0.00179337 0.000836183)
(0.00170763 -0.00151994 0.000836183)
(0.00194562 -0.00120032 0.000836184)
(0.0021245 -0.00084423 0.000836183)
(0.00223882 -0.000462488 0.000836183)
(0.00228512 -6.6695e-05 0.000836183)
(0.00226198 0.000331125 0.000836182)
(0.00217012 0.000718883 0.000836182)
(0.00201232 0.0010848 0.000836183)
(0.00179337 0.00141775 0.000836183)
(0.00151994 0.00170763 0.000836183)
(0.00120032 0.00194562 0.000836184)
(0.00084423 0.0021245 0.000836183)
(0.000462489 0.00223882 0.000836183)
(-0.000135733 0.00237764 0.000941015)
(-0.000546543 0.00231795 0.000941015)
(-0.000940747 0.00218783 0.000941015)
(-0.00130637 0.00199123 0.000941015)
(-0.00163229 0.00173413 0.000941014)
(-0.00190862 0.00142434 0.000941015)
(-0.00212696 0.00107127 0.000941015)
(-0.00228067 0.000685654 0.000941015)
(-0.00236509 0.000279202 0.000941015)
(-0.00237764 -0.000135733 0.000941015)
(-0.00231795 -0.000546543 0.000941014)
(-0.00218783 -0.000940747 0.000941015)
(-0.00199123 -0.00130637 0.000941015)
(-0.00173413 -0.00163229 0.000941014)
(-0.00142434 -0.00190862 0.000941015)
(-0.00107127 -0.00212696 0.000941015)
(-0.000685654 -0.00228067 0.000941015)
(-0.000279202 -0.00236509 0.000941015)
(0.000135733 -0.00237764 0.000941015)
(0.000546544 -0.00231795 0.000941014)
(0.000940747 -0.00218783 0.000941015)
(0.00130637 -0.00199123 0.000941015)
(0.00163229 -0.00173413 0.000941014)
(0.00190862 -0.00142434 0.000941015)
(0.00212696 -0.00107127 0.000941015)
(0.00228067 -0.000685654 0.000941015)
(0.00236509 -0.000279202 0.000941015)
(0.00237764 0.000135733 0.000941015)
(0.00231795 0.000546543 0.000941015)
(0.00218783 0.000940747 0.000941015)
(0.00199123 0.00130637 0.000941015)
(0.00173413 0.00163229 0.000941014)
(0.00142434 0.00190862 0.000941015)
(0.00107127 0.00212696 0.000941015)
(0.000685654 0.00228067 0.000941015)
(0.000279202 0.00236509 0.000941015)
(0.000114659 0.00274617 0.00100807)
(-0.00036395 0.00272436 0.00100807)
(-0.000831502 0.00261977 0.00100807)
(-0.00127379 0.00243558 0.00100807)
(-0.00167737 0.00217739 0.00100807)
(-0.00202999 0.00185304 0.00100807)
(-0.00232092 0.00147238 0.00100807)
(-0.00254134 0.00104699 0.00100807)
(-0.00268454 0.000589785 0.00100807)
(-0.00274617 0.000114659 0.00100807)
(-0.00272436 -0.00036395 0.00100807)
(-0.00261977 -0.000831502 0.00100807)
(-0.00243558 -0.00127379 0.00100807)
(-0.00217739 -0.00167737 0.00100807)
(-0.00185304 -0.00202999 0.00100807)
(-0.00147238 -0.00232092 0.00100807)
(-0.00104699 -0.00254134 0.00100807)
(-0.000589785 -0.00268454 0.00100807)
(-0.000114659 -0.00274617 0.00100807)
(0.00036395 -0.00272436 0.00100807)
(0.000831502 -0.00261977 0.00100807)
(0.00127379 -0.00243558 0.00100807)
(0.00167737 -0.00217739 0.00100807)
(0.00202999 -0.00185304 0.00100807)
(0.00232092 -0.00147238 0.00100807)
(0.00254134 -0.00104699 0.00100807)
(0.00268454 -0.000589785 0.00100807)
(0.00274617 -0.000114659 0.00100807)
(0.00272436 0.00036395 0.00100807)
(0.00261977 0.000831502 0.00100807)
(0.00243558 0.00127379 0.00100807)
(0.00217739 0.00167737 0.00100807)
(0.00185304 0.00202999 0.00100807)
(0.00147238 0.00232092 0.00100807)
(0.00104699 0.00254134 0.00100807)
(0.000589785 0.00268454 0.00100807)
(-5.49496e-05 0.00282541 0.00113003)
(-0.000544742 0.00277294 0.00113003)
(-0.00101798 0.00263622 0.00113003)
(-0.00146029 0.0024194 0.00113003)
(-0.00185823 0.00212907 0.00113003)
(-0.00219971 0.00177404 0.00113003)
(-0.00247435 0.00136512 0.00113003)
(-0.00267381 0.000914712 0.00113003)
(-0.00279203 0.000436513 0.00113003)
(-0.00282541 -5.49497e-05 0.00113003)
(-0.00277294 -0.000544742 0.00113003)
(-0.00263622 -0.00101798 0.00113003)
(-0.0024194 -0.00146029 0.00113003)
(-0.00212907 -0.00185823 0.00113003)
(-0.00177404 -0.00219971 0.00113003)
(-0.00136512 -0.00247435 0.00113003)
(-0.000914712 -0.00267381 0.00113003)
(-0.000436512 -0.00279203 0.00113003)
(5.49499e-05 -0.00282541 0.00113003)
(0.000544742 -0.00277294 0.00113003)
(0.00101798 -0.00263622 0.00113003)
(0.00146029 -0.0024194 0.00113003)
(0.00185823 -0.00212907 0.00113003)
(0.00219971 -0.00177404 0.00113003)
(0.00247435 -0.00136512 0.00113003)
(0.00267381 -0.000914712 0.00113003)
(0.00279203 -0.000436513 0.00113003)
(0.00282541 5.49498e-05 0.00113003)
(0.00277294 0.000544742 0.00113003)
(0.00263622 0.00101798 0.00113003)
(0.0024194 0.00146029 0.00113003)
(0.00212907 0.00185823 0.00113003)
(0.00177404 0.00219971 0.00113003)
(0.00136512 0.00247435 0.00113003)
(0.000914712 0.00267381 0.00113003)
(0.000436513 0.00279203 0.00113003)
(-0.000250534 0.00288728 0.00123273)
(-0.000748098 0.00279991 0.00123273)
(-0.00122293 0.00262747 0.00123273)
(-0.00166061 0.00237519 0.00123273)
(-0.00204783 0.00205074 0.00123273)
(-0.00237282 0.00166399 0.00123273)
(-0.00262572 0.00122667 0.00123273)
(-0.00279884 0.000752083 0.00123273)
(-0.00288692 0.000254644 0.00123273)
(-0.00288728 -0.000250534 0.00123273)
(-0.00279991 -0.000748098 0.00123273)
(-0.00262747 -0.00122293 0.00123273)
(-0.00237519 -0.00166061 0.00123273)
(-0.00205074 -0.00204783 0.00123273)
(-0.00166399 -0.00237282 0.00123273)
(-0.00122667 -0.00262572 0.00123273)
(-0.000752083 -0.00279884 0.00123273)
(-0.000254644 -0.00288692 0.00123273)
(0.000250534 -0.00288728 0.00123273)
(0.000748099 -0.00279991 0.00123273)
(0.00122293 -0.00262747 0.00123273)
(0.00166061 -0.00237519 0.00123273)
(0.00204783 -0.00205074 0.00123273)
(0.00237282 -0.00166399 0.00123273)
(0.00262572 -0.00122667 0.00123273)
(0.00279884 -0.000752083 0.00123273)
(0.00288692 -0.000254644 0.00123273)
(0.00288728 0.000250534 0.00123273)
(0.00279991 0.000748098 0.00123273)
(0.00262747 0.00122293 0.00123273)
(0.00237519 0.00166061 0.00123273)
(0.00205074 0.00204783 0.00123273)
(0.00166399 0.00237282 0.00123273)
(0.00122667 0.00262572 0.00123273)
(0.000752084 0.00279884 0.00123273)
(0.000254644 0.00288692 0.00123273)
(-6.22467e-05 0.00324617 0.00130612)
(-0.000624992 0.00318605 0.00130612)
(-0.00116875 0.00302911 0.00130612)
(-0.00167699 0.00278014 0.00130612)
(-0.00213428 0.0024467 0.00130612)
(-0.00252672 0.00203891 0.00130612)
(-0.00284239 0.00156918 0.00130612)
(-0.00307169 0.00105176 0.00130612)
(-0.00320766 0.00050239 0.00130612)
(-0.00324617 -6.22469e-05 0.00130612)
(-0.00318605 -0.000624993 0.00130612)
(-0.00302911 -0.00116875 0.00130612)
(-0.00278014 -0.00167699 0.00130612)
(-0.0024467 -0.00213428 0.00130612)
(-0.00203891 -0.00252672 0.00130612)
(-0.00156918 -0.00284239 0.00130612)
(-0.00105176 -0.00307169 0.00130612)
(-0.00050239 -0.00320766 0.00130612)
(6.22471e-05 -0.00324617 0.00130612)
(0.000624993 -0.00318605 0.00130612)
(0.00116875 -0.00302911 0.00130612)
(0.00167699 -0.00278014 0.00130612)
(0.00213428 -0.0024467 0.00130612)
(0.00252672 -0.00203891 0.00130612)
(0.00284239 -0.00156918 0.00130612)
(0.00307169 -0.00105176 0.00130612)
(0.00320766 -0.00050239 0.00130612)
(0.00324617 6.2247e-05 0.00130612)
(0.00318605 0.000624993 0.00130612)
(0.00302911 0.00116875 0.00130612)
(0.00278014 0.00167699 0.00130612)
(0.0024467 0.00213428 0.00130612)
(0.00203891 0.00252672 0.00130612)
(0.00156918 0.00284239 0.00130612)
(0.00105176 0.00307169 0.00130612)
(0.000502391 0.00320766 0.00130612)
(-0.000222089 0.00328029 0.00141748)
(-0.000788332 0.00319189 0.00141748)
(-0.00133062 0.0030065 0.00141748)
(-0.00183248 0.00272977 0.00141748)
(-0.00227866 0.00237009 0.00141748)
(-0.0026556 0.0019384 0.00141748)
(-0.00295185 0.00144781 0.00141748)
(-0.00315842 0.000913229 0.00141748)
(-0.00326902 0.0003509 0.00141748)
(-0.00328029 -0.00022209 0.00141748)
(-0.00319189 -0.000788332 0.00141748)
(-0.0030065 -0.00133062 0.00141748)
(-0.00272977 -0.00183248 0.00141748)
(-0.00237009 -0.00227866 0.00141748)
(-0.0019384 -0.0026556 0.00141748)
(-0.00144781 -0.00295185 0.00141748)
(-0.000913229 -0.00315842 0.00141748)
(-0.0003509 -0.00326902 0.00141748)
(0.00022209 -0.00328029 0.00141748)
(0.000788332 -0.00319189 0.00141748)
(0.00133062 -0.0030065 0.00141748)
(0.00183248 -0.00272977 0.00141748)
(0.00227866 -0.00237009 0.00141748)
(0.0026556 -0.0019384 0.00141748)
(0.00295185 -0.00144781 0.00141748)
(0.00315842 -0.000913229 0.00141748)
(0.00326902 -0.0003509 0.00141748)
(0.00328029 0.00022209 0.00141748)
(0.00319189 0.000788332 0.00141748)
(0.0030065 0.00133062 0.00141748)
(0.00272977 0.00183248 0.00141748)
(0.00237009 0.00227866 0.00141748)
(0.0019384 0.0026556 0.00141748)
(0.00144781 0.00295185 0.00141748)
(0.000913229 0.00315842 0.00141748)
(0.000350901 0.00326902 0.00141748)
(-0.000402873 0.00330011 0.00150968)
(-0.000969811 0.00318002 0.00150968)
(-0.00150728 0.0029633 0.00150968)
(-0.00199895 0.00265654 0.00150968)
(-0.00242989 0.00226907 0.00150968)
(-0.00278699 0.00181265 0.00150968)
(-0.00305941 0.00130116 0.00150968)
(-0.00323888 0.000750128 0.00150968)
(-0.00331993 0.000176306 0.00150968)
(-0.00330011 -0.000402873 0.00150968)
(-0.00318002 -0.000969811 0.00150968)
(-0.0029633 -0.00150728 0.00150968)
(-0.00265654 -0.00199895 0.00150968)
(-0.00226907 -0.00242989 0.00150968)
(-0.00181265 -0.00278699 0.00150968)
(-0.00130116 -0.00305941 0.00150968)
(-0.000750128 -0.00323888 0.00150968)
(-0.000176306 -0.00331993 0.00150968)
(0.000402873 -0.00330011 0.00150968)
(0.000969811 -0.00318002 0.00150968)
(0.00150728 -0.0029633 0.00150968)
(0.00199895 -0.00265654 0.00150968)
(0.00242989 -0.00226907 0.00150968)
(0.00278699 -0.00181265 0.00150968)
(0.00305941 -0.00130116 0.00150968)
(0.00323888 -0.000750128 0.00150968)
(0.00331993 -0.000176306 0.00150968)
(0.00330011 0.000402873 0.00150968)
(0.00318002 0.000969811 0.00150968)
(0.0029633 0.00150728 0.00150968)
(0.00265654 0.00199895 0.00150968)
(0.00226907 0.00242989 0.00150968)
(0.00181265 0.00278699 0.00150968)
(0.00130116 0.00305941 0.00150968)
(0.000750129 0.00323888 0.00150968)
(0.000176306 0.00331993 0.00150968)
(-0.000262173 0.0036493 0.00160782)
(-0.000891885 0.00354834 0.00160782)
(-0.0014945 0.00333956 0.00160782)
(-0.0020517 0.0030293 0.00160782)
(-0.00254656 0.00262701 0.00160782)
(-0.00296405 0.00214489 0.00160782)
(-0.00329148 0.0015976 0.00160782)
(-0.00351889 0.00100177 0.00160782)
(-0.00363939 0.000375504 0.00160782)
(-0.0036493 -0.000262173 0.00160782)
(-0.00354834 -0.000891885 0.00160782)
(-0.00333956 -0.0014945 0.00160782)
(-0.0030293 -0.0020517 0.00160782)
(-0.00262701 -0.00254656 0.00160782)
(-0.00214489 -0.00296405 0.00160782)
(-0.0015976 -0.00329148 0.00160782)
(-0.00100177 -0.00351889 0.00160782)
(-0.000375504 -0.00363939 0.00160782)
(0.000262173 -0.0036493 0.00160782)
(0.000891885 -0.00354834 0.00160782)
(0.0014945 -0.00333956 0.00160782)
(0.0020517 -0.0030293 0.00160782)
(0.00254656 -0.00262701 0.00160782)
(0.00296405 -0.00214489 0.00160782)
(0.00329148 -0.0015976 0.00160782)
(0.00351889 -0.00100177 0.00160782)
(0.00363939 -0.000375504 0.00160782)
(0.0036493 0.000262173 0.00160782)
(0.00354834 0.000891885 0.00160782)
(0.00333956 0.0014945 0.00160782)
(0.0030293 0.0020517 0.00160782)
(0.00262701 0.00254656 0.00160782)
(0.00214489 0.00296405 0.00160782)
(0.0015976 0.00329148 0.00160782)
(0.00100177 0.00351889 0.00160782)
(0.000375504 0.00363939 0.00160782)
(-0.000412131 0.00363059 0.00170173)
(-0.00103632 0.00350387 0.00170173)
(-0.00162901 0.00327068 0.00170173)
(-0.00217221 0.00293812 0.00170172)
(-0.00264941 0.00251628 0.00170172)
(-0.00304611 0.00201799 0.00170172)
(-0.00335025 0.00145838 0.00170173)
(-0.0035526 0.00085446 0.00170173)
(-0.003647 0.000224575 0.00170173)
(-0.00363059 -0.000412131 0.00170173)
(-0.00350387 -0.00103632 0.00170173)
(-0.00327068 -0.00162901 0.00170173)
(-0.00293812 -0.00217221 0.00170172)
(-0.00251628 -0.00264941 0.00170172)
(-0.00201799 -0.00304611 0.00170172)
(-0.00145838 -0.00335025 0.00170173)
(-0.00085446 -0.0035526 0.00170173)
(-0.000224575 -0.003647 0.00170173)
(0.000412131 -0.00363059 0.00170173)
(0.00103632 -0.00350387 0.00170173)
(0.00162901 -0.00327068 0.00170173)
(0.00217221 -0.00293812 0.00170172)
(0.00264941 -0.00251628 0.00170172)
(0.00304611 -0.00201799 0.00170173)
(0.00335025 -0.00145838 0.00170173)
(0.0035526 -0.00085446 0.00170173)
(0.003647 -0.000224575 0.00170173)
(0.00363059 0.000412131 0.00170173)
(0.00350387 0.00103632 0.00170173)
(0.00327068 0.00162901 0.00170173)
(0.00293812 0.00217221 0.00170172)
(0.00251628 0.00264941 0.00170172)
(0.00201799 0.00304611 0.00170173)
(0.00145838 0.00335025 0.00170173)
(0.00085446 0.0035526 0.00170173)
(0.000224575 0.003647 0.00170173)
(-0.000576901 0.00360284 0.00177585)
(-0.00119376 0.00344793 0.00177585)
(-0.00177435 0.00318825 0.00177585)
(-0.00230103 0.0028317 0.00177585)
(-0.00275779 0.00238911 0.00177585)
(-0.00313076 0.00187393 0.00177585)
(-0.0034086 0.00130181 0.00177585)
(-0.00358288 0.000690137 0.00177585)
(-0.00364829 5.74921e-05 0.00177585)
(-0.00360284 -0.000576901 0.00177585)
(-0.00344793 -0.00119376 0.00177585)
(-0.00318825 -0.00177435 0.00177585)
(-0.0028317 -0.00230103 0.00177585)
(-0.00238911 -0.00275779 0.00177585)
(-0.00187393 -0.00313076 0.00177585)
(-0.00130181 -0.0034086 0.00177585)
(-0.000690136 -0.00358288 0.00177585)
(-5.74918e-05 -0.00364829 0.00177585)
(0.000576901 -0.00360284 0.00177585)
(0.00119376 -0.00344793 0.00177585)
(0.00177435 -0.00318825 0.00177585)
(0.00230103 -0.0028317 0.00177585)
(0.00275779 -0.00238911 0.00177585)
(0.00313076 -0.00187393 0.00177585)
(0.0034086 -0.00130181 0.00177585)
(0.00358288 -0.000690137 0.00177585)
(0.00364829 -5.7492e-05 0.00177585)
(0.00360284 0.000576901 0.00177585)
(0.00344793 0.00119376 0.00177585)
(0.00318825 0.00177435 0.00177585)
(0.0028317 0.00230103 0.00177585)
(0.00238911 0.00275779 0.00177585)
(0.00187393 0.00313076 0.00177585)
(0.00130181 0.0034086 0.00177585)
(0.000690137 0.00358288 0.00177585)
(5.74922e-05 0.00364829 0.00177585)
(-0.000453005 0.00393592 0.00192528)
(-0.00112959 0.00379746 0.00192528)
(-0.00177185 0.00354362 0.00192528)
(-0.00236027 0.00318211 0.00192528)
(-0.00287698 0.0027239 0.00192528)
(-0.00330628 0.00218294 0.00192528)
(-0.00363511 0.00157565 0.00192528)
(-0.00385349 0.000920477 0.00192528)
(-0.00395479 0.000237341 0.00192528)
(-0.00393592 -0.000453005 0.00192528)
(-0.00379746 -0.00112959 0.00192528)
(-0.00354362 -0.00177185 0.00192528)
(-0.00318211 -0.00236028 0.00192528)
(-0.0027239 -0.00287698 0.00192528)
(-0.00218294 -0.00330628 0.00192528)
(-0.00157565 -0.00363511 0.00192528)
(-0.000920477 -0.00385349 0.00192528)
(-0.00023734 -0.00395479 0.00192528)
(0.000453005 -0.00393592 0.00192528)
(0.00112959 -0.00379746 0.00192528)
(0.00177185 -0.00354362 0.00192528)
(0.00236028 -0.00318211 0.00192528)
(0.00287698 -0.0027239 0.00192528)
(0.00330628 -0.00218294 0.00192528)
(0.00363511 -0.00157565 0.00192528)
(0.00385349 -0.000920477 0.00192528)