/*--------------------------------*- C++ -*----------------------------------*\
| =========                 |                                                 |
| \\      /  F ield         | OpenFOAM: The Open Source CFD Toolbox           |
|  \\    /   O peration     | Version:  2312                                  |
|   \\  /    A nd           | Website:  www.openfoam.com                      |
|    \\/     M anipulation  |                                                 |
\*---------------------------------------------------------------------------*/
FoamFile
{
    version     2.0;
    format      ascii;
    arch        "LSB;label=32;scalar=64";
    class       volVectorField;
    location    "0.8";
    object      D_0_0;
}
// * * * * * * * * * * * * * * * * * * * * * * * * * * * * * * * * * * * * * //

dimensions      [0 1 0 0 0 0 0];

internalField   nonuniform List<vector> 
1620
(
(0.0001252 0.000313999 4.58432e-05)
(6.87729e-05 0.000330969 4.58429e-05)
(1.02563e-05 0.000337883 4.58431e-05)
(-4.8572e-05 0.000334531 4.58436e-05)
(-0.000105925 0.000321015 4.58437e-05)
(-0.000160059 0.000297744 4.58434e-05)
(-0.00020933 0.000265426 4.58437e-05)
(-0.000252241 0.000225044 4.58436e-05)
(-0.000287487 0.000177824 4.58432e-05)
(-0.000313998 0.0001252 4.58431e-05)
(-0.000330969 6.87729e-05 4.58429e-05)
(-0.000337883 1.02563e-05 4.58431e-05)
(-0.000334531 -4.8572e-05 4.58436e-05)
(-0.000321015 -0.000105925 4.58437e-05)
(-0.000297744 -0.000160059 4.58434e-05)
(-0.000265426 -0.00020933 4.58437e-05)
(-0.000225044 -0.000252241 4.58436e-05)
(-0.000177824 -0.000287487 4.58432e-05)
(-0.0001252 -0.000313998 4.58431e-05)
(-6.87729e-05 -0.000330969 4.58429e-05)
(-1.02563e-05 -0.000337883 4.58431e-05)
(4.8572e-05 -0.000334531 4.58436e-05)
(0.000105925 -0.000321015 4.58437e-05)
(0.000160059 -0.000297744 4.58434e-05)
(0.00020933 -0.000265426 4.58437e-05)
(0.000252241 -0.000225044 4.58436e-05)
(0.000287487 -0.000177824 4.58432e-05)
(0.000313999 -0.0001252 4.58432e-05)
(0.000330969 -6.87729e-05 4.58429e-05)
(0.000337883 -1.02563e-05 4.58431e-05)
(0.000334531 4.8572e-05 4.58436e-05)
(0.000321015 0.000105925 4.58437e-05)
(0.000297744 0.000160059 4.58435e-05)
(0.000265426 0.00020933 4.58437e-05)
(0.000225044 0.000252241 4.58436e-05)
(0.000177824 0.000287487 4.58432e-05)
(5.81691e-05 0.000351348 7.88162e-05)
(-3.72553e-06 0.000356111 7.88162e-05)
(-6.55067e-05 0.000350054 7.88163e-05)
(-0.000125297 0.000333361 7.88165e-05)
(-0.000181282 0.000306539 7.88167e-05)
(-0.000231758 0.000270403 7.88165e-05)
(-0.000275192 0.00022605 7.88164e-05)
(-0.000310264 0.000174829 7.88164e-05)
(-0.000335909 0.000118296 7.88162e-05)
(-0.000351348 5.81691e-05 7.88162e-05)
(-0.000356111 -3.72555e-06 7.88162e-05)
(-0.000350054 -6.55067e-05 7.88163e-05)
(-0.000333361 -0.000125298 7.88165e-05)
(-0.000306539 -0.000181282 7.88167e-05)
(-0.000270402 -0.000231758 7.88165e-05)
(-0.00022605 -0.000275192 7.88164e-05)
(-0.000174829 -0.000310264 7.88164e-05)
(-0.000118296 -0.000335909 7.88162e-05)
(-5.81691e-05 -0.000351348 7.88162e-05)
(3.72556e-06 -0.000356111 7.88162e-05)
(6.55067e-05 -0.000350054 7.88163e-05)
(0.000125298 -0.000333361 7.88165e-05)
(0.000181282 -0.000306539 7.88167e-05)
(0.000231758 -0.000270403 7.88165e-05)
(0.000275192 -0.00022605 7.88164e-05)
(0.000310264 -0.000174829 7.88164e-05)
(0.000335909 -0.000118296 7.88162e-05)
(0.000351348 -5.81691e-05 7.88162e-05)
(0.000356111 3.72555e-06 7.88162e-05)
(0.000350054 6.55067e-05 7.88163e-05)
(0.000333361 0.000125298 7.88165e-05)
(0.000306539 0.000181282 7.88167e-05)
(0.000270403 0.000231758 7.88165e-05)
(0.00022605 0.000275192 7.88165e-05)
(0.000174829 0.000310264 7.88164e-05)
(0.000118296 0.000335909 7.88162e-05)
(-4.38436e-05 0.000375259 9.69623e-05)
(-0.000108341 0.000361945 9.69625e-05)
(-0.000169546 0.000337633 9.69624e-05)
(-0.000225599 0.000303062 9.69624e-05)
(-0.000274798 0.000259284 9.69627e-05)
(-0.000315647 0.000207625 9.69626e-05)
(-0.000346906 0.00014966 9.69626e-05)
(-0.000367623 8.71463e-05 9.69622e-05)
(-0.000377171 2.19853e-05 9.69623e-05)
(-0.000375259 -4.38436e-05 9.69623e-05)
(-0.000361945 -0.000108341 9.69625e-05)
(-0.000337633 -0.000169546 9.69624e-05)
(-0.000303062 -0.000225599 9.69624e-05)
(-0.000259284 -0.000274798 9.69627e-05)
(-0.000207625 -0.000315647 9.69626e-05)
(-0.00014966 -0.000346906 9.69626e-05)
(-8.71463e-05 -0.000367623 9.69622e-05)
(-2.19853e-05 -0.000377171 9.69623e-05)
(4.38436e-05 -0.000375259 9.69623e-05)
(0.000108341 -0.000361945 9.69625e-05)
(0.000169546 -0.000337633 9.69624e-05)
(0.000225599 -0.000303062 9.69624e-05)
(0.000274798 -0.000259284 9.69627e-05)
(0.000315647 -0.000207625 9.69626e-05)
(0.000346906 -0.00014966 9.69626e-05)
(0.000367623 -8.71463e-05 9.69622e-05)
(0.000377171 -2.19853e-05 9.69623e-05)
(0.000375259 4.38436e-05 9.69623e-05)
(0.000361945 0.000108341 9.69625e-05)
(0.000337633 0.000169546 9.69624e-05)
(0.000303062 0.000225599 9.69624e-05)
(0.000259284 0.000274798 9.69627e-05)
(0.000207625 0.000315647 9.69626e-05)
(0.00014966 0.000346906 9.69626e-05)
(8.71463e-05 0.000367623 9.69622e-05)
(2.19853e-05 0.000377171 9.69623e-05)
(0.000237779 0.000934809 0.000189504)
(7.18393e-05 0.000961897 0.000189504)
(-9.62836e-05 0.000959759 0.000189504)
(-0.000261481 0.000928458 0.000189506)
(-0.000418733 0.000868947 0.000189506)
(-0.000563263 0.000783034 0.000189506)
(-0.000690679 0.000673329 0.000189506)
(-0.000797108 0.000543164 0.000189505)
(-0.000879317 0.000396495 0.000189504)
(-0.000934809 0.000237779 0.000189504)
(-0.000961897 7.18392e-05 0.000189504)
(-0.000959759 -9.62837e-05 0.000189504)
(-0.000928458 -0.000261481 0.000189506)
(-0.000868947 -0.000418733 0.000189506)
(-0.000783034 -0.000563263 0.000189506)
(-0.000673328 -0.000690679 0.000189506)
(-0.000543164 -0.000797108 0.000189505)
(-0.000396495 -0.000879317 0.000189504)
(-0.000237779 -0.000934809 0.000189504)
(-7.18392e-05 -0.000961897 0.000189504)
(9.62837e-05 -0.000959759 0.000189504)
(0.000261481 -0.000928458 0.000189506)
(0.000418733 -0.000868947 0.000189506)
(0.000563263 -0.000783034 0.000189506)
(0.000690679 -0.000673329 0.000189506)
(0.000797108 -0.000543164 0.000189505)
(0.000879317 -0.000396495 0.000189504)
(0.000934809 -0.000237779 0.000189504)
(0.000961897 -7.18392e-05 0.000189504)
(0.000959759 9.62837e-05 0.000189504)
(0.000928458 0.000261481 0.000189506)
(0.000868948 0.000418733 0.000189506)
(0.000783034 0.000563263 0.000189506)
(0.000673329 0.000690679 0.000189506)
(0.000543164 0.000797108 0.000189505)
(0.000396495 0.000879317 0.000189504)
(0.000121049 0.00103169 0.000278609)
(-5.99411e-05 0.00103704 0.000278609)
(-0.00023911 0.00101087 0.000278609)
(-0.000411013 0.000953997 0.00027861)
(-0.000570429 0.000868132 0.00027861)
(-0.000712513 0.000755888 0.00027861)
(-0.000832946 0.000620678 0.00027861)
(-0.000928071 0.000466608 0.000278609)
(-0.000994998 0.000298361 0.000278609)
(-0.00103169 0.000121049 0.000278609)
(-0.00103704 -5.99411e-05 0.000278609)
(-0.00101087 -0.00023911 0.000278609)
(-0.000953997 -0.000411013 0.00027861)
(-0.000868131 -0.000570429 0.00027861)
(-0.000755888 -0.000712513 0.00027861)
(-0.000620678 -0.000832946 0.00027861)
(-0.000466608 -0.000928071 0.000278609)
(-0.000298361 -0.000994998 0.000278609)
(-0.000121049 -0.00103169 0.000278609)
(5.99412e-05 -0.00103704 0.000278609)
(0.00023911 -0.00101087 0.000278609)
(0.000411013 -0.000953997 0.00027861)
(0.000570429 -0.000868131 0.00027861)
(0.000712513 -0.000755888 0.00027861)
(0.000832946 -0.000620678 0.00027861)
(0.000928072 -0.000466608 0.000278609)
(0.000994998 -0.000298361 0.000278609)
(0.00103169 -0.000121049 0.000278609)
(0.00103704 5.99411e-05 0.000278609)
(0.00101087 0.00023911 0.000278609)
(0.000953997 0.000411013 0.00027861)
(0.000868132 0.000570429 0.00027861)
(0.000755888 0.000712513 0.00027861)
(0.000620678 0.000832946 0.00027861)
(0.000466608 0.000928072 0.000278609)
(0.000298361 0.000994998 0.000278609)
(-3.64592e-05 0.00111261 0.000346258)
(-0.000229108 0.00108938 0.000346258)
(-0.000414795 0.00103304 0.000346258)
(-0.00058788 0.000945322 0.000346258)
(-0.000743102 0.000828876 0.000346259)
(-0.000875745 0.000687244 0.000346259)
(-0.00098178 0.000524732 0.000346258)
(-0.00105798 0.000346276 0.000346258)
(-0.00110204 0.000157298 0.000346258)
(-0.00111261 -3.64593e-05 0.000346258)
(-0.00108938 -0.000229108 0.000346258)
(-0.00103304 -0.000414795 0.000346258)
(-0.000945321 -0.00058788 0.000346258)
(-0.000828875 -0.000743102 0.000346258)
(-0.000687244 -0.000875745 0.000346259)
(-0.000524731 -0.00098178 0.000346258)
(-0.000346276 -0.00105798 0.000346258)
(-0.000157298 -0.00110204 0.000346258)
(3.64593e-05 -0.00111261 0.000346258)
(0.000229108 -0.00108938 0.000346258)
(0.000414795 -0.00103304 0.000346258)
(0.00058788 -0.000945321 0.000346258)
(0.000743102 -0.000828875 0.000346259)
(0.000875745 -0.000687244 0.000346259)
(0.00098178 -0.000524731 0.000346258)
(0.00105798 -0.000346276 0.000346258)
(0.00110204 -0.000157298 0.000346258)
(0.00111261 3.64593e-05 0.000346258)
(0.00108938 0.000229108 0.000346258)
(0.00103304 0.000414795 0.000346258)
(0.000945322 0.00058788 0.000346258)
(0.000828876 0.000743102 0.000346259)
(0.000687244 0.000875745 0.000346259)
(0.000524732 0.00098178 0.000346258)
(0.000346276 0.00105798 0.000346258)
(0.000157298 0.00110204 0.000346258)
(0.000284618 0.0015637 0.000429617)
(8.76084e-06 0.00158937 0.000429617)
(-0.000267363 0.00156674 0.000429617)
(-0.000535363 0.00149651 0.000429619)
(-0.000787095 0.00138081 0.00042962)
(-0.00101491 0.00122316 0.00042962)
(-0.00121189 0.00102834 0.000429619)
(-0.00137205 0.00080227 0.000429619)
(-0.00149052 0.000551827 0.000429617)
(-0.0015637 0.000284618 0.000429617)
(-0.00158937 8.76074e-06 0.000429617)
(-0.00156674 -0.000267363 0.000429617)
(-0.00149651 -0.000535363 0.000429619)
(-0.00138081 -0.000787095 0.00042962)
(-0.00122316 -0.00101491 0.00042962)
(-0.00102834 -0.00121189 0.000429619)
(-0.00080227 -0.00137205 0.000429618)
(-0.000551827 -0.00149052 0.000429617)
(-0.000284618 -0.0015637 0.000429617)
(-8.76067e-06 -0.00158937 0.000429617)
(0.000267363 -0.00156674 0.000429617)
(0.000535363 -0.00149651 0.000429619)
(0.000787095 -0.00138081 0.00042962)
(0.00101491 -0.00122316 0.00042962)
(0.00121189 -0.00102834 0.000429619)
(0.00137205 -0.00080227 0.000429619)
(0.00149052 -0.000551827 0.000429617)
(0.0015637 -0.000284618 0.000429617)
(0.00158937 -8.76074e-06 0.000429617)
(0.00156674 0.000267363 0.000429617)
(0.00149651 0.000535363 0.000429619)
(0.00138081 0.000787095 0.00042962)
(0.00122316 0.00101491 0.00042962)
(0.00102834 0.00121189 0.00042962)
(0.00080227 0.00137205 0.000429619)
(0.000551827 0.00149052 0.000429617)
(0.000126953 0.00168627 0.000546803)
(-0.000167793 0.0016827 0.000546803)
(-0.000457441 0.001628 0.000546803)
(-0.00073319 0.00152383 0.000546804)
(-0.000986662 0.00137336 0.000546804)
(-0.00121015 0.00118117 0.000546804)
(-0.00139688 0.000953082 0.000546804)
(-0.00154116 0.000696037 0.000546804)
(-0.00163861 0.000417843 0.000546803)
(-0.00168627 0.000126953 0.000546803)
(-0.0016827 -0.000167793 0.000546803)
(-0.001628 -0.000457441 0.000546803)
(-0.00152383 -0.00073319 0.000546804)
(-0.00137336 -0.000986662 0.000546804)
(-0.00118117 -0.00121015 0.000546804)
(-0.000953082 -0.00139688 0.000546804)
(-0.000696036 -0.00154116 0.000546804)
(-0.000417843 -0.00163861 0.000546803)
(-0.000126953 -0.00168627 0.000546803)
(0.000167793 -0.0016827 0.000546803)
(0.000457441 -0.001628 0.000546803)
(0.00073319 -0.00152383 0.000546804)
(0.000986662 -0.00137336 0.000546804)
(0.00121015 -0.00118117 0.000546804)
(0.00139688 -0.000953082 0.000546804)
(0.00154116 -0.000696037 0.000546804)
(0.00163861 -0.000417843 0.000546803)
(0.00168627 -0.000126953 0.000546803)
(0.0016827 0.000167793 0.000546803)
(0.001628 0.000457441 0.000546803)
(0.00152383 0.00073319 0.000546804)
(0.00137336 0.000986662 0.000546804)
(0.00118117 0.00121015 0.000546804)
(0.000953082 0.00139688 0.000546804)
(0.000696037 0.00154116 0.000546804)
(0.000417843 0.00163861 0.000546803)
(-6.65782e-05 0.00178989 0.000643226)
(-0.000376378 0.00175114 0.000643226)
(-0.000674742 0.00165918 0.000643226)
(-0.000952604 0.00151681 0.000643226)
(-0.00120152 0.00132834 0.000643226)
(-0.00141393 0.00109952 0.000643226)
(-0.00158338 0.000837289 0.000643226)
(-0.00170472 0.000549617 0.000643226)
(-0.00177426 0.000245245 0.000643226)
(-0.00178989 -6.65782e-05 0.000643226)
(-0.00175114 -0.000376378 0.000643226)
(-0.00165918 -0.000674742 0.000643226)
(-0.00151681 -0.000952604 0.000643226)
(-0.00132834 -0.00120152 0.000643226)
(-0.00109952 -0.00141393 0.000643226)
(-0.000837289 -0.00158338 0.000643226)
(-0.000549617 -0.00170472 0.000643226)
(-0.000245245 -0.00177426 0.000643226)
(6.65783e-05 -0.00178989 0.000643226)
(0.000376378 -0.00175114 0.000643226)
(0.000674742 -0.00165918 0.000643226)
(0.000952604 -0.00151681 0.000643226)
(0.00120152 -0.00132834 0.000643226)
(0.00141393 -0.00109952 0.000643226)
(0.00158338 -0.000837289 0.000643226)
(0.00170472 -0.000549617 0.000643226)
(0.00177426 -0.000245245 0.000643226)
(0.00178989 6.65782e-05 0.000643226)
(0.00175114 0.000376378 0.000643226)
(0.00165918 0.000674742 0.000643226)
(0.00151681 0.000952604 0.000643226)
(0.00132834 0.00120152 0.000643226)
(0.00109952 0.00141393 0.000643226)
(0.000837289 0.00158338 0.000643226)
(0.000549617 0.00170472 0.000643226)
(0.000245246 0.00177426 0.000643226)
(0.000237617 0.00218078 0.000711939)
(-0.000144682 0.00218892 0.000711938)
(-0.000522585 0.00213054 0.000711939)
(-0.000884609 0.00200742 0.00071194)
(-0.00121975 0.00182332 0.00071194)
(-0.00151784 0.00158381 0.000711941)
(-0.0017698 0.00129617 0.000711941)
(-0.001968 0.000969159 0.000711941)
(-0.00210639 0.000612696 0.000711939)
(-0.00218078 0.000237617 0.000711938)
(-0.00218892 -0.000144682 0.000711938)
(-0.00213054 -0.000522585 0.000711939)
(-0.00200742 -0.000884609 0.00071194)
(-0.00182332 -0.00121975 0.00071194)
(-0.00158381 -0.00151784 0.000711941)
(-0.00129617 -0.0017698 0.000711941)
(-0.000969159 -0.001968 0.00071194)
(-0.000612696 -0.00210639 0.000711939)
(-0.000237617 -0.00218078 0.000711938)
(0.000144682 -0.00218892 0.000711938)
(0.000522585 -0.00213054 0.000711939)
(0.000884609 -0.00200742 0.00071194)
(0.00121976 -0.00182332 0.00071194)
(0.00151784 -0.00158381 0.000711941)
(0.0017698 -0.00129617 0.000711941)
(0.001968 -0.000969159 0.000711941)
(0.00210639 -0.000612696 0.000711939)
(0.00218078 -0.000237617 0.000711939)
(0.00218892 0.000144682 0.000711938)
(0.00213054 0.000522585 0.000711939)
(0.00200742 0.000884609 0.00071194)
(0.00182332 0.00121975 0.00071194)
(0.00158381 0.00151784 0.000711941)
(0.00129617 0.0017698 0.000711941)
(0.000969159 0.001968 0.000711941)
(0.000612696 0.00210639 0.000711939)
(6.51105e-05 0.00229455 0.000838548)
(-0.000334324 0.002271 0.000838547)
(-0.000723599 0.00217844 0.000838548)
(-0.00109089 0.0020197 0.000838548)
(-0.00142503 0.00179958 0.000838548)
(-0.00171588 0.00152479 0.000838548)
(-0.00195458 0.00120366 0.000838549)
(-0.0021339 0.000845968 0.000838548)
(-0.00224839 0.000462566 0.000838548)
(-0.00229455 6.51104e-05 0.000838548)
(-0.002271 -0.000334324 0.000838547)
(-0.00217844 -0.0007236 0.000838547)
(-0.0020197 -0.00109089 0.000838548)
(-0.00179958 -0.00142503 0.000838548)
(-0.00152479 -0.00171588 0.000838548)
(-0.00120366 -0.00195459 0.000838549)
(-0.000845968 -0.0021339 0.000838548)
(-0.000462566 -0.00224839 0.000838548)
(-6.51103e-05 -0.00229455 0.000838548)
(0.000334324 -0.002271 0.000838547)
(0.0007236 -0.00217844 0.000838547)
(0.00109089 -0.0020197 0.000838548)
(0.00142503 -0.00179958 0.000838548)
(0.00171588 -0.00152479 0.000838548)
(0.00195459 -0.00120366 0.000838549)
(0.0021339 -0.000845968 0.000838548)
(0.00224839 -0.000462566 0.000838548)
(0.00229455 -6.51103e-05 0.000838548)
(0.002271 0.000334324 0.000838547)
(0.00217844 0.0007236 0.000838548)
(0.0020197 0.00109089 0.000838548)
(0.00179958 0.00142503 0.000838548)
(0.00152479 0.00171588 0.000838548)
(0.00120366 0.00195459 0.000838549)
(0.000845968 0.0021339 0.000838548)
(0.000462567 0.00224839 0.000838548)
(-0.000138333 0.00238915 0.000945033)
(-0.000551103 0.00232883 0.000945033)
(-0.000947126 0.00219775 0.000945033)
(-0.00131437 0.0019999 0.000945033)
(-0.00164168 0.00174127 0.000945033)
(-0.00191911 0.00142975 0.000945033)
(-0.00213823 0.00107477 0.000945033)
(-0.00229238 0.000687146 0.000945033)
(-0.00237687 0.000278639 0.000945033)
(-0.00238915 -0.000138333 0.000945033)
(-0.00232883 -0.000551103 0.000945033)
(-0.00219775 -0.000947127 0.000945033)
(-0.0019999 -0.00131437 0.000945033)
(-0.00174127 -0.00164168 0.000945033)
(-0.00142975 -0.00191911 0.000945033)
(-0.00107477 -0.00213823 0.000945033)
(-0.000687146 -0.00229238 0.000945033)
(-0.000278639 -0.00237687 0.000945033)
(0.000138333 -0.00238915 0.000945033)
(0.000551103 -0.00232883 0.000945033)
(0.000947127 -0.00219775 0.000945033)
(0.00131437 -0.0019999 0.000945033)
(0.00164168 -0.00174127 0.000945033)
(0.00191911 -0.00142975 0.000945033)
(0.00213823 -0.00107477 0.000945033)
(0.00229238 -0.000687146 0.000945033)
(0.00237687 -0.000278639 0.000945033)
(0.00238915 0.000138333 0.000945033)
(0.00232883 0.000551103 0.000945033)
(0.00219775 0.000947127 0.000945033)
(0.0019999 0.00131437 0.000945033)
(0.00174127 0.00164168 0.000945033)
(0.00142975 0.00191911 0.000945033)
(0.00107477 0.00213823 0.000945033)
(0.000687146 0.00229238 0.000945033)
(0.000278639 0.00237687 0.000945033)
(0.000111504 0.0027552 0.00100782)
(-0.000368625 0.00273271 0.00100782)
(-0.000837556 0.00262718 0.00100782)
(-0.00128104 0.00244183 0.00100782)
(-0.00168559 0.00218228 0.00100782)
(-0.00203893 0.00185643 0.00100782)
(-0.00233032 0.00147417 0.00100782)
(-0.00255091 0.00104711 0.00100782)
(-0.00269398 0.000588247 0.00100782)
(-0.0027552 0.000111504 0.00100782)
(-0.00273271 -0.000368626 0.00100782)
(-0.00262718 -0.000837556 0.00100782)
(-0.00244183 -0.00128104 0.00100782)
(-0.00218228 -0.00168559 0.00100782)
(-0.00185643 -0.00203893 0.00100782)
(-0.00147417 -0.00233032 0.00100782)
(-0.00104711 -0.00255091 0.00100782)
(-0.000588246 -0.00269398 0.00100782)
(-0.000111504 -0.0027552 0.00100782)
(0.000368626 -0.00273271 0.00100782)
(0.000837556 -0.00262718 0.00100782)
(0.00128104 -0.00244183 0.00100782)
(0.00168559 -0.00218228 0.00100782)
(0.00203893 -0.00185643 0.00100782)
(0.00233032 -0.00147417 0.00100782)
(0.00255091 -0.00104711 0.00100782)
(0.00269398 -0.000588247 0.00100782)
(0.0027552 -0.000111504 0.00100782)
(0.00273271 0.000368626 0.00100782)
(0.00262718 0.000837556 0.00100782)
(0.00244183 0.00128104 0.00100782)
(0.00218228 0.00168559 0.00100782)
(0.00185643 0.00203893 0.00100782)
(0.00147417 0.00233032 0.00100782)
(0.00104712 0.00255091 0.00100782)
(0.000588247 0.00269398 0.00100782)
(-5.83828e-05 0.0028369 0.00113182)
(-0.000550118 0.00278366 0.00113182)
(-0.00102514 0.00264585 0.00113182)
(-0.00146901 0.00242764 0.00113182)
(-0.00186825 0.00213566 0.00113183)
(-0.00221072 0.0017788 0.00113183)
(-0.00248602 0.00136789 0.00113183)
(-0.00268578 0.000915415 0.00113183)
(-0.00280394 0.000435127 0.00113182)
(-0.0028369 -5.8383e-05 0.00113182)
(-0.00278366 -0.000550118 0.00113182)
(-0.00264585 -0.00102514 0.00113182)
(-0.00242764 -0.00146901 0.00113182)
(-0.00213566 -0.00186825 0.00113183)
(-0.0017788 -0.00221072 0.00113183)
(-0.00136789 -0.00248602 0.00113183)
(-0.000915415 -0.00268578 0.00113182)
(-0.000435127 -0.00280394 0.00113182)
(5.83831e-05 -0.0028369 0.00113182)
(0.000550119 -0.00278366 0.00113182)
(0.00102514 -0.00264585 0.00113182)
(0.00146901 -0.00242764 0.00113182)
(0.00186825 -0.00213566 0.00113183)
(0.00221072 -0.0017788 0.00113183)
(0.00248602 -0.00136789 0.00113183)
(0.00268578 -0.000915415 0.00113183)
(0.00280394 -0.000435127 0.00113183)
(0.0028369 5.8383e-05 0.00113182)
(0.00278366 0.000550118 0.00113182)
(0.00264585 0.00102514 0.00113182)
(0.00242764 0.00146901 0.00113182)
(0.00213566 0.00186825 0.00113183)
(0.0017788 0.00221072 0.00113183)
(0.00136789 0.00248602 0.00113183)
(0.000915416 0.00268578 0.00113183)
(0.000435127 0.00280394 0.00113183)
(-0.000254609 0.00290096 0.00123632)
(-0.000754487 0.00281267 0.00123632)
(-0.00123144 0.00263893 0.00123632)
(-0.00167098 0.002385 0.00123632)
(-0.00205974 0.0020586 0.00123632)
(-0.00238592 0.00166966 0.00123632)
(-0.00263961 0.00122998 0.00123632)
(-0.00281309 0.000752932 0.00123632)
(-0.0029011 0.000253005 0.00123632)
(-0.00290096 -0.000254609 0.00123632)
(-0.00281267 -0.000754487 0.00123632)
(-0.00263893 -0.00123144 0.00123632)
(-0.002385 -0.00167098 0.00123632)
(-0.0020586 -0.00205974 0.00123632)
(-0.00166966 -0.00238592 0.00123632)
(-0.00122998 -0.00263961 0.00123632)
(-0.000752932 -0.00281309 0.00123632)
(-0.000253005 -0.0029011 0.00123632)
(0.00025461 -0.00290096 0.00123632)
(0.000754488 -0.00281267 0.00123632)
(0.00123144 -0.00263893 0.00123632)
(0.00167098 -0.002385 0.00123632)
(0.00205974 -0.0020586 0.00123632)
(0.00238592 -0.00166966 0.00123632)
(0.00263961 -0.00122998 0.00123632)
(0.00281309 -0.000752932 0.00123632)
(0.0029011 -0.000253005 0.00123632)
(0.00290096 0.000254609 0.00123632)
(0.00281267 0.000754488 0.00123632)
(0.00263893 0.00123144 0.00123632)
(0.002385 0.00167098 0.00123632)
(0.0020586 0.00205974 0.00123632)
(0.00166966 0.00238592 0.00123632)
(0.00122998 0.00263961 0.00123632)
(0.000752932 0.00281309 0.00123632)
(0.000253006 0.0029011 0.00123632)
(-6.79085e-05 0.00325658 0.0013044)
(-0.000632375 0.00319531 0.0013044)
(-0.00117763 0.00303696 0.0013044)
(-0.0016871 0.00278632 0.0013044)
(-0.00214531 0.00245103 0.0013044)
(-0.00253833 0.00204127 0.0013044)
(-0.00285423 0.00156948 0.0013044)
(-0.0030834 0.00105 0.0013044)
(-0.00321889 0.000498622 0.0013044)
(-0.00325658 -6.79087e-05 0.0013044)
(-0.00319531 -0.000632375 0.0013044)
(-0.00303695 -0.00117763 0.0013044)
(-0.00278632 -0.0016871 0.0013044)
(-0.00245103 -0.00214531 0.0013044)
(-0.00204127 -0.00253833 0.0013044)
(-0.00156948 -0.00285423 0.0013044)
(-0.00105 -0.0030834 0.0013044)
(-0.000498621 -0.00321889 0.0013044)
(6.79089e-05 -0.00325658 0.0013044)
(0.000632375 -0.00319531 0.0013044)
(0.00117763 -0.00303696 0.0013044)
(0.0016871 -0.00278632 0.0013044)
(0.00214531 -0.00245103 0.0013044)
(0.00253833 -0.00204127 0.0013044)
(0.00285423 -0.00156948 0.0013044)
(0.0030834 -0.00105 0.0013044)
(0.00321889 -0.000498622 0.0013044)
(0.00325658 6.79087e-05 0.0013044)
(0.00319531 0.000632375 0.0013044)
(0.00303696 0.00117763 0.0013044)
(0.00278632 0.0016871 0.0013044)
(0.00245103 0.00214531 0.0013044)
(0.00204127 0.00253833 0.0013044)
(0.00156948 0.00285423 0.0013044)
(0.00105 0.0030834 0.0013044)
(0.000498622 0.00321889 0.0013044)
(-0.000227746 0.00329332 0.00141791)
(-0.000796165 0.00320374 0.0014179)
(-0.00134039 0.00301681 0.0014179)
(-0.00184389 0.00273822 0.0014179)
(-0.00229137 0.00237643 0.0014179)
(-0.00266922 0.00194244 0.0014179)
(-0.00296597 0.00144942 0.0014179)
(-0.0031726 0.00091237 0.00141791)
(-0.00328283 0.000347592 0.00141791)
(-0.00329332 -0.000227746 0.00141791)
(-0.00320374 -0.000796165 0.0014179)
(-0.00301681 -0.00134039 0.0014179)
(-0.00273822 -0.00184389 0.0014179)
(-0.00237643 -0.00229137 0.0014179)
(-0.00194244 -0.00266922 0.0014179)
(-0.00144942 -0.00296597 0.0014179)
(-0.00091237 -0.0031726 0.00141791)
(-0.000347592 -0.00328283 0.00141791)
(0.000227746 -0.00329332 0.00141791)
(0.000796165 -0.00320374 0.0014179)
(0.00134039 -0.00301681 0.0014179)
(0.00184389 -0.00273822 0.0014179)
(0.00229137 -0.00237643 0.0014179)
(0.00266922 -0.00194244 0.0014179)
(0.00296597 -0.00144942 0.0014179)
(0.0031726 -0.00091237 0.00141791)
(0.00328283 -0.000347592 0.00141791)
(0.00329332 0.000227746 0.00141791)
(0.00320374 0.000796165 0.0014179)
(0.00301681 0.00134039 0.0014179)
(0.00273822 0.00184389 0.0014179)
(0.00237643 0.00229137 0.0014179)
(0.00194244 0.00266922 0.00141791)
(0.00144943 0.00296597 0.0014179)
(0.00091237 0.0031726 0.00141791)
(0.000347593 0.00328283 0.00141791)
(-0.000408841 0.00331549 0.00151202)
(-0.00097836 0.00319413 0.00151202)
(-0.00151815 0.00297571 0.00151202)
(-0.00201181 0.00266688 0.00151202)
(-0.00244435 0.00227702 0.00151202)
(-0.00280261 0.00181797 0.00151202)
(-0.00307572 0.00130368 0.00151202)
(-0.00325538 0.000749781 0.00151202)
(-0.00333612 0.0001731 0.00151202)
(-0.00331549 -0.000408841 0.00151202)
(-0.00319413 -0.00097836 0.00151202)
(-0.00297571 -0.00151815 0.00151202)
(-0.00266688 -0.00201181 0.00151202)
(-0.00227702 -0.00244435 0.00151202)
(-0.00181797 -0.00280261 0.00151202)
(-0.00130368 -0.00307572 0.00151202)
(-0.000749781 -0.00325538 0.00151202)
(-0.0001731 -0.00333612 0.00151202)
(0.000408841 -0.00331549 0.00151202)
(0.00097836 -0.00319413 0.00151202)
(0.00151815 -0.00297571 0.00151202)
(0.00201181 -0.00266688 0.00151202)
(0.00244435 -0.00227702 0.00151202)
(0.00280261 -0.00181797 0.00151202)
(0.00307572 -0.00130368 0.00151202)
(0.00325538 -0.000749781 0.00151202)
(0.00333612 -0.0001731 0.00151202)
(0.00331549 0.000408841 0.00151202)
(0.00319413 0.00097836 0.00151202)
(0.00297571 0.00151815 0.00151202)
(0.00266688 0.00201181 0.00151202)
(0.00227702 0.00244435 0.00151202)
(0.00181797 0.00280261 0.00151202)
(0.00130368 0.00307572 0.00151202)
(0.000749782 0.00325538 0.00151202)
(0.0001731 0.00333612 0.00151202)
(-0.000270294 0.0036604 0.00160397)
(-0.00090181 0.00355786 0.00160397)
(-0.00150593 0.00334721 0.00160397)
(-0.00206428 0.00303486 0.00160396)
(-0.00255992 0.00263029 0.00160396)
(-0.00297777 0.0021458 0.00160397)
(-0.00330515 0.00159612 0.00160397)
(-0.0035321 0.000997937 0.00160397)
(-0.00365173 0.000369433 0.00160397)
(-0.0036604 -0.000270294 0.00160397)
(-0.00355786 -0.00090181 0.00160397)
(-0.00334721 -0.00150593 0.00160397)
(-0.00303486 -0.00206428 0.00160396)
(-0.00263029 -0.00255992 0.00160396)
(-0.0021458 -0.00297777 0.00160397)
(-0.00159612 -0.00330515 0.00160397)
(-0.000997937 -0.0035321 0.00160397)
(-0.000369433 -0.00365173 0.00160397)
(0.000270295 -0.0036604 0.00160397)
(0.00090181 -0.00355786 0.00160397)
(0.00150593 -0.00334721 0.00160397)
(0.00206428 -0.00303486 0.00160396)
(0.00255992 -0.00263029 0.00160396)
(0.00297777 -0.0021458 0.00160397)
(0.00330515 -0.00159612 0.00160397)
(0.0035321 -0.000997937 0.00160397)
(0.00365173 -0.000369433 0.00160397)
(0.0036604 0.000270294 0.00160397)
(0.00355786 0.00090181 0.00160397)
(0.00334721 0.00150593 0.00160397)
(0.00303486 0.00206428 0.00160396)
(0.00263029 0.00255992 0.00160396)
(0.0021458 0.00297777 0.00160397)
(0.00159612 0.00330515 0.00160397)
(0.000997937 0.0035321 0.00160397)
(0.000369433 0.00365173 0.00160397)
(-0.000420134 0.00364452 0.00170013)
(-0.00104662 0.0035162 0.00170013)
(-0.0016413 0.00328104 0.00170012)
(-0.00218611 0.00294618 0.00170012)
(-0.00266449 0.00252181 0.00170012)
(-0.00306192 0.00202081 0.00170012)
(-0.00336632 0.00145841 0.00170013)
(-0.00356842 0.000851704 0.00170013)
(-0.00366211 0.000219112 0.00170013)
(-0.00364452 -0.000420134 0.00170013)
(-0.0035162 -0.00104662 0.00170012)
(-0.00328104 -0.0016413 0.00170012)
(-0.00294618 -0.00218611 0.00170012)
(-0.00252181 -0.00266449 0.00170012)
(-0.00202081 -0.00306192 0.00170012)
(-0.00145841 -0.00336632 0.00170012)
(-0.000851703 -0.00356842 0.00170013)
(-0.000219112 -0.00366211 0.00170013)
(0.000420134 -0.00364452 0.00170013)
(0.00104662 -0.0035162 0.00170012)
(0.0016413 -0.00328104 0.00170012)
(0.00218611 -0.00294618 0.00170012)
(0.00266449 -0.00252181 0.00170012)
(0.00306192 -0.00202081 0.00170012)
(0.00336632 -0.00145841 0.00170013)
(0.00356842 -0.000851704 0.00170013)
(0.00366211 -0.000219112 0.00170013)
(0.00364452 0.000420134 0.00170013)
(0.0035162 0.00104662 0.00170013)
(0.00328104 0.0016413 0.00170013)
(0.00294618 0.00218611 0.00170012)
(0.00252181 0.00266449 0.00170012)
(0.00202081 0.00306192 0.00170012)
(0.00145841 0.00336632 0.00170013)
(0.000851704 0.00356842 0.00170013)
(0.000219113 0.00366211 0.00170013)
(-0.000585024 0.00361937 0.00177626)
(-0.00120463 0.00346279 0.00177626)
(-0.00178764 0.003201 0.00177626)
(-0.00231633 0.00284195 0.00177626)
(-0.00277464 0.00239655 0.00177626)
(-0.00314864 0.00187833 0.00177626)
(-0.00342698 0.00130304 0.00177626)
(-0.00360118 0.000688156 0.00177626)
(-0.00366597 5.23621e-05 0.00177626)
(-0.00361937 -0.000585024 0.00177626)
(-0.00346279 -0.00120463 0.00177626)
(-0.003201 -0.00178764 0.00177626)
(-0.00284195 -0.00231633 0.00177626)
(-0.00239655 -0.00277464 0.00177626)
(-0.00187833 -0.00314864 0.00177626)
(-0.00130304 -0.00342698 0.00177626)
(-0.000688155 -0.00360118 0.00177626)
(-5.23618e-05 -0.00366597 0.00177626)
(0.000585024 -0.00361937 0.00177626)
(0.00120463 -0.00346279 0.00177626)
(0.00178764 -0.003201 0.00177626)
(0.00231633 -0.00284195 0.00177626)
(0.00277464 -0.00239655 0.00177626)
(0.00314864 -0.00187833 0.00177626)
(0.00342698 -0.00130304 0.00177626)
(0.00360118 -0.000688156 0.00177626)
(0.00366597 -5.2362e-05 0.00177626)
(0.00361937 0.000585024 0.00177626)
(0.00346279 0.00120463 0.00177626)
(0.003201 0.00178764 0.00177626)
(0.00284195 0.00231633 0.00177626)
(0.00239655 0.00277464 0.00177626)
(0.00187833 0.00314864 0.00177626)
(0.00130304 0.00342698 0.00177626)
(0.000688156 0.00360118 0.00177626)
(5.23623e-05 0.00366597 0.00177626)
(-0.000463165 0.00394699 0.00191895)
(-0.00114152 0.0038066 0.00191895)
(-0.00178518 0.00355055 0.00191895)
(-0.00237461 0.00318661 0.00191895)
(-0.00289188 0.00272586 0.00191895)
(-0.00332129 0.00218227 0.00191895)
(-0.00364978 0.00157238 0.00191895)
(-0.00386737 0.000914717 0.00191895)
(-0.00396746 0.000229258 0.00191895)
(-0.00394699 -0.000463165 0.00191895)
(-0.0038066 -0.00114152 0.00191895)
(-0.00355055 -0.00178518 0.00191895)
(-0.00318661 -0.00237461 0.00191895)
(-0.00272586 -0.00289188 0.00191895)
(-0.00218227 -0.00332129 0.00191895)
(-0.00157238 -0.00364978 0.00191895)
(-0.000914717 -0.00386737 0.00191895)
(-0.000229258 -0.00396746 0.00191895)
(0.000463165 -0.00394699 0.00191895)
(0.00114152 -0.0038066 0.00191895)
(0.00178518 -0.00355055 0.00191895)
(0.00237461 -0.00318661 0.00191895)
(0.00289188 -0.00272586 0.00191895)
(0.00332129 -0.00218227 0.00191895)
(0.00364978 -0.00157238 0.00191895)
(0.00386737 -0.000914717 0.00191895)
(0.00396746 -0.000229258 0.00191895)
(0.00394699 0.000463165 0.00191895)
(0.0038066 0.00114152 0.00191895)