/*--------------------------------*- C++ -*----------------------------------*\
| =========                 |                                                 |
| \\      /  F ield         | OpenFOAM: The Open Source CFD Toolbox           |
|  \\    /   O peration     | Version:  2312                                  |
|   \\  /    A nd           | Website:  www.openfoam.com                      |
|    \\/     M anipulation  |                                                 |
\*---------------------------------------------------------------------------*/
FoamFile
{
    version     2.0;
    format      ascii;
    arch        "LSB;label=32;scalar=64";
    class       pointVectorField;
    location    "0.8";
    object      pointD;
}
// * * * * * * * * * * * * * * * * * * * * * * * * * * * * * * * * * * * * * //

dimensions      [0 1 0 0 0 0 0];

internalField   nonuniform List<vector> 
2164
(
(0 0 0)
(0 0 0)
(0 0 0)
(0 0 0)
(0 0 0)
(0 0 0)
(0 0 0)
(0 0 0)
(0 0 0)
(0 0 0)
(0 0 0)
(0 0 0)
(0 0 0)
(0 0 0)
(0 0 0)
(0 0 0)
(0 0 0)
(0 0 0)
(0 0 0)
(0 0 0)
(0 0 0)
(0 0 0)
(0 0 0)
(0 0 0)
(0 0 0)
(0 0 0)
(0 0 0)
(0 0 0)
(0 0 0)
(0 0 0)
(0 0 0)
(0 0 0)
(0 0 0)
(0 0 0)
(0 0 0)
(0 0 0)
(0.000185821 0.000611915 7.30698e-05)
(7.67398e-05 0.000634886 7.30699e-05)
(-3.46729e-05 0.000638567 7.30711e-05)
(-0.000145031 0.000622845 7.3072e-05)
(-0.000250983 0.000588199 7.30718e-05)
(-0.000349311 0.00053568 7.30718e-05)
(-0.000437024 0.000466884 7.30718e-05)
(-0.000511458 0.000383902 7.30708e-05)
(-0.000570351 0.000289256 7.30705e-05)
(-0.000611915 0.000185821 7.30698e-05)
(-0.000634886 7.67397e-05 7.30699e-05)
(-0.000638567 -3.46729e-05 7.30711e-05)
(-0.000622845 -0.000145031 7.3072e-05)
(-0.000588199 -0.000250983 7.30718e-05)
(-0.00053568 -0.000349311 7.30718e-05)
(-0.000466884 -0.000437024 7.30718e-05)
(-0.000383902 -0.000511458 7.30708e-05)
(-0.000289256 -0.000570352 7.30705e-05)
(-0.000185821 -0.000611915 7.30698e-05)
(-7.67397e-05 -0.000634886 7.30699e-05)
(3.46729e-05 -0.000638567 7.30711e-05)
(0.000145031 -0.000622845 7.3072e-05)
(0.000250983 -0.000588199 7.30718e-05)
(0.000349311 -0.00053568 7.30718e-05)
(0.000437024 -0.000466884 7.30718e-05)
(0.000511458 -0.000383902 7.30708e-05)
(0.000570352 -0.000289256 7.30706e-05)
(0.000611915 -0.000185821 7.30698e-05)
(0.000634886 -7.67397e-05 7.30699e-05)
(0.000638567 3.46729e-05 7.30711e-05)
(0.000622845 0.000145031 7.3072e-05)
(0.000588199 0.000250983 7.30718e-05)
(0.00053568 0.000349311 7.30718e-05)
(0.000466884 0.000437024 7.30718e-05)
(0.000383903 0.000511458 7.30708e-05)
(0.000289256 0.000570352 7.30706e-05)
(9.11234e-05 0.000677698 0.00014055)
(-2.79415e-05 0.000683226 0.00014055)
(-0.000146157 0.000667994 0.00014055)
(-0.000259933 0.000632466 0.000140551)
(-0.000365811 0.00057772 0.000140551)
(-0.000460574 0.000505421 0.000140551)
(-0.000541342 0.000417765 0.00014055)
(-0.000605662 0.000317414 0.00014055)
(-0.000651579 0.00020742 0.00014055)
(-0.000677698 9.11234e-05 0.00014055)
(-0.000683226 -2.79416e-05 0.000140549)
(-0.000667994 -0.000146157 0.00014055)
(-0.000632466 -0.000259933 0.000140551)
(-0.00057772 -0.000365811 0.000140551)
(-0.000505421 -0.000460574 0.000140551)
(-0.000417765 -0.000541342 0.00014055)
(-0.000317414 -0.000605662 0.00014055)
(-0.00020742 -0.000651579 0.00014055)
(-9.11234e-05 -0.000677698 0.00014055)
(2.79416e-05 -0.000683226 0.000140549)
(0.000146157 -0.000667994 0.00014055)
(0.000259933 -0.000632466 0.000140551)
(0.000365811 -0.00057772 0.000140551)
(0.000460574 -0.000505421 0.000140551)
(0.000541342 -0.000417765 0.00014055)
(0.000605662 -0.000317414 0.00014055)
(0.000651579 -0.00020742 0.00014055)
(0.000677698 -9.11234e-05 0.00014055)
(0.000683226 2.79416e-05 0.00014055)
(0.000667994 0.000146157 0.00014055)
(0.000632466 0.000259933 0.000140551)
(0.00057772 0.000365811 0.000140551)
(0.000505421 0.000460574 0.000140551)
(0.000417765 0.000541342 0.00014055)
(0.000317414 0.000605662 0.00014055)
(0.00020742 0.000651579 0.00014055)
(0 0 0)
(0 0 0)
(0 0 0)
(0 0 0)
(0 0 0)
(0 0 0)
(0 0 0)
(0 0 0)
(0 0 0)
(0 0 0)
(0 0 0)
(0 0 0)
(0 0 0)
(0 0 0)
(0 0 0)
(0 0 0)
(0 0 0)
(0 0 0)
(0 0 0)
(0 0 0)
(0 0 0)
(0 0 0)
(0 0 0)
(0 0 0)
(0 0 0)
(0 0 0)
(0 0 0)
(0 0 0)
(0 0 0)
(0 0 0)
(0 0 0)
(0 0 0)
(0 0 0)
(0 0 0)
(0 0 0)
(0 0 0)
(-2.8718e-05 0.000735308 0.000197814)
(-0.000155966 0.000719151 0.000197813)
(-0.000278476 0.000681142 0.000197814)
(-0.000392523 0.000622437 0.000197814)
(-0.000494645 0.00054482 0.000197814)
(-0.000581738 0.000450648 0.000197814)
(-0.000651154 0.000342785 0.000197814)
(-0.000700786 0.000224504 0.000197814)
(-0.000729124 9.94038e-05 0.000197813)
(-0.000735308 -2.8718e-05 0.000197814)
(-0.000719151 -0.000155966 0.000197813)
(-0.000681142 -0.000278476 0.000197814)
(-0.000622437 -0.000392523 0.000197814)
(-0.00054482 -0.000494645 0.000197814)
(-0.000450648 -0.000581738 0.000197814)
(-0.000342784 -0.000651154 0.000197814)
(-0.000224504 -0.000700786 0.000197814)
(-9.94037e-05 -0.000729124 0.000197813)
(2.8718e-05 -0.000735308 0.000197814)
(0.000155966 -0.000719151 0.000197813)
(0.000278476 -0.000681142 0.000197814)
(0.000392523 -0.000622437 0.000197814)
(0.000494645 -0.00054482 0.000197814)
(0.000581738 -0.000450648 0.000197814)
(0.000651154 -0.000342784 0.000197814)
(0.000700786 -0.000224504 0.000197814)
(0.000729124 -9.94038e-05 0.000197813)
(0.000735308 2.8718e-05 0.000197814)
(0.000719151 0.000155966 0.000197813)
(0.000681142 0.000278476 0.000197814)
(0.000622437 0.000392523 0.000197814)
(0.00054482 0.000494645 0.000197814)
(0.000450648 0.000581738 0.000197814)
(0.000342785 0.000651154 0.000197814)
(0.000224504 0.000700786 0.000197814)
(9.94038e-05 0.000729124 0.000197813)
(0 0 0)
(0 0 0)
(0 0 0)
(0 0 0)
(0 0 0)
(0 0 0)
(0 0 0)
(0 0 0)
(0 0 0)
(0 0 0)
(0 0 0)
(0 0 0)
(0 0 0)
(0 0 0)
(0 0 0)
(0 0 0)
(0 0 0)
(0 0 0)
(0 0 0)
(0 0 0)
(0 0 0)
(0 0 0)
(0 0 0)
(0 0 0)
(0 0 0)
(0 0 0)
(0 0 0)
(0 0 0)
(0 0 0)
(0 0 0)
(0 0 0)
(0 0 0)
(0 0 0)
(0 0 0)
(0 0 0)
(0 0 0)
(-0.00016986 0.000776634 0.000241264)
(-0.00030214 0.000735339 0.000241263)
(-0.00042524 0.000671702 0.000241264)
(-0.00053542 0.000587654 0.000241264)
(-0.00062933 0.000485752 0.000241264)
(-0.00070412 0.000369089 0.000241264)
(-0.000757514 0.000241213 0.000241263)
(-0.000787892 0.000106007 0.000241263)
(-0.00079433 -3.24181e-05 0.000241263)
(-0.000776634 -0.00016986 0.000241264)
(-0.000735339 -0.00030214 0.000241263)
(-0.000671702 -0.00042524 0.000241263)
(-0.000587654 -0.00053542 0.000241264)
(-0.000485752 -0.00062933 0.000241264)
(-0.000369089 -0.00070412 0.000241264)
(-0.000241213 -0.000757514 0.000241263)
(-0.000106007 -0.000787892 0.000241263)
(3.24182e-05 -0.00079433 0.000241263)
(0.00016986 -0.000776634 0.000241264)
(0.00030214 -0.000735339 0.000241263)
(0.00042524 -0.000671702 0.000241263)
(0.00053542 -0.000587654 0.000241264)
(0.00062933 -0.000485752 0.000241264)
(0.00070412 -0.000369089 0.000241264)
(0.000757514 -0.000241213 0.000241263)
(0.000787892 -0.000106007 0.000241263)
(0.00079433 3.24182e-05 0.000241263)
(0.000776634 0.00016986 0.000241264)
(0.000735339 0.00030214 0.000241263)
(0.000671702 0.00042524 0.000241264)
(0.000587654 0.00053542 0.000241264)
(0.000485752 0.00062933 0.000241264)
(0.000369089 0.00070412 0.000241264)
(0.000241213 0.000757514 0.000241263)
(0.000106007 0.000787892 0.000241263)
(-3.24181e-05 0.00079433 0.000241263)
(0 0 0)
(0 0 0)
(0 0 0)
(0 0 0)
(0 0 0)
(0 0 0)
(0 0 0)
(0 0 0)
(0 0 0)
(0 0 0)
(0 0 0)
(0 0 0)
(0 0 0)
(0 0 0)
(0 0 0)
(0 0 0)
(0 0 0)
(0 0 0)
(0 0 0)
(0 0 0)
(0 0 0)
(0 0 0)
(0 0 0)
(0 0 0)
(0 0 0)
(0 0 0)
(0 0 0)
(0 0 0)
(0 0 0)
(0 0 0)
(0 0 0)
(0 0 0)
(0 0 0)
(0 0 0)
(0 0 0)
(0 0 0)
(0.000245543 0.00123257 0.000240044)
(2.77789e-05 0.00125648 0.000240045)
(-0.00019083 0.00124222 0.000240047)
(-0.000403638 0.00119021 0.000240049)
(-0.000604183 0.00110204 0.000240049)
(-0.000786371 0.000980378 0.000240048)
(-0.000944665 0.000828932 0.000240047)
(-0.00107426 0.000652299 0.000240046)
(-0.00117121 0.000455845 0.000240045)
(-0.00123257 0.000245542 0.000240044)
(-0.00125648 2.77788e-05 0.000240044)
(-0.00124222 -0.00019083 0.000240046)
(-0.00119021 -0.000403638 0.000240048)
(-0.00110204 -0.000604183 0.000240049)
(-0.000980378 -0.000786371 0.000240048)
(-0.000828932 -0.000944665 0.000240047)
(-0.000652299 -0.00107426 0.000240046)
(-0.000455845 -0.00117121 0.000240045)
(-0.000245542 -0.00123257 0.000240044)
(-2.77788e-05 -0.00125648 0.000240044)
(0.00019083 -0.00124222 0.000240047)
(0.000403638 -0.00119021 0.000240049)
(0.000604184 -0.00110204 0.000240049)
(0.000786371 -0.000980378 0.000240048)
(0.000944665 -0.000828932 0.000240047)
(0.00107426 -0.000652299 0.000240046)
(0.00117121 -0.000455845 0.000240045)
(0.00123257 -0.000245542 0.000240044)
(0.00125648 -2.77788e-05 0.000240045)
(0.00124222 0.00019083 0.000240047)
(0.00119021 0.000403638 0.000240049)
(0.00110204 0.000604183 0.000240049)
(0.000980378 0.000786371 0.000240048)
(0.000828932 0.000944665 0.000240047)
(0.000652299 0.00107426 0.000240046)
(0.000455845 0.00117121 0.000240045)
(9.9003e-05 0.00133985 0.000352351)
(-0.000135164 0.00133669 0.000352351)
(-0.000365222 0.00129291 0.000352351)
(-0.000584185 0.00120985 0.000352353)
(-0.000785397 0.00109002 0.000352353)
(-0.000962745 0.00093708 0.000352352)
(-0.00111084 0.000755664 0.000352353)
(-0.00122519 0.000551287 0.000352352)
(-0.0013023 0.00033016 0.000352351)
(-0.00133985 9.90029e-05 0.000352351)
(-0.00133669 -0.000135165 0.000352351)
(-0.00129291 -0.000365222 0.000352351)
(-0.00120985 -0.000584186 0.000352353)
(-0.00109002 -0.000785397 0.000352353)
(-0.00093708 -0.000962745 0.000352352)
(-0.000755664 -0.00111084 0.000352353)
(-0.000551287 -0.00122519 0.000352351)
(-0.00033016 -0.0013023 0.000352351)
(-9.90029e-05 -0.00133985 0.000352351)
(0.000135165 -0.00133669 0.000352351)
(0.000365222 -0.00129291 0.000352351)
(0.000584186 -0.00120985 0.000352353)
(0.000785397 -0.00109002 0.000352353)
(0.000962745 -0.00093708 0.000352352)
(0.00111084 -0.000755664 0.000352353)
(0.00122519 -0.000551287 0.000352352)
(0.0013023 -0.00033016 0.000352351)
(0.00133985 -9.90029e-05 0.000352351)
(0.00133669 0.000135165 0.000352351)
(0.00129291 0.000365222 0.000352351)
(0.00120985 0.000584186 0.000352353)
(0.00109002 0.000785397 0.000352353)
(0.00093708 0.000962745 0.000352352)
(0.000755664 0.00111084 0.000352353)
(0.000551287 0.00122519 0.000352352)
(0.00033016 0.0013023 0.000352351)
(-7.48069e-05 0.0014395 0.000453683)
(-0.000323636 0.00140465 0.000453683)
(-0.000562633 0.00132711 0.000453683)
(-0.000784536 0.00120925 0.000453684)
(-0.000982601 0.00105464 0.000453684)
(-0.00115081 0.00086799 0.000453684)
(-0.00128405 0.000654967 0.000453683)
(-0.00137828 0.000422045 0.000453683)
(-0.00143062 0.000176297 0.000453683)
(-0.0014395 -7.48069e-05 0.000453683)
(-0.00140465 -0.000323636 0.000453683)
(-0.00132711 -0.000562633 0.000453683)
(-0.00120925 -0.000784536 0.000453684)
(-0.00105464 -0.000982601 0.000453684)
(-0.00086799 -0.00115081 0.000453684)
(-0.000654967 -0.00128405 0.000453683)
(-0.000422045 -0.00137828 0.000453683)
(-0.000176297 -0.00143062 0.000453682)
(7.4807e-05 -0.0014395 0.000453683)
(0.000323636 -0.00140465 0.000453683)
(0.000562633 -0.00132711 0.000453683)
(0.000784536 -0.00120925 0.000453684)
(0.000982601 -0.00105464 0.000453684)
(0.00115081 -0.00086799 0.000453684)
(0.00128405 -0.000654967 0.000453683)
(0.00137828 -0.000422045 0.000453683)
(0.00143062 -0.000176297 0.000453683)
(0.0014395 7.48069e-05 0.000453683)
(0.00140465 0.000323636 0.000453683)
(0.00132711 0.000562633 0.000453683)
(0.00120925 0.000784536 0.000453684)
(0.00105464 0.000982601 0.000453684)
(0.00086799 0.00115081 0.000453684)
(0.000654967 0.00128405 0.000453683)
(0.000422045 0.00137828 0.000453683)
(0.000176297 0.00143062 0.000453683)
(-0.000267017 0.00151709 0.000537354)
(-0.000526399 0.00144767 0.000537354)
(-0.000769785 0.00133427 0.000537354)
(-0.000989783 0.00118033 0.000537353)
(-0.00117971 0.000990521 0.000537353)
(-0.00133379 0.000770618 0.000537353)
(-0.00144734 0.0005273 0.000537354)
(-0.00151692 0.000267961 0.000537354)
(-0.0015404 4.80143e-07 0.000537353)
(-0.00151709 -0.000267017 0.000537354)
(-0.00144767 -0.000526399 0.000537354)
(-0.00133427 -0.000769785 0.000537354)
(-0.00118033 -0.000989783 0.000537353)
(-0.000990521 -0.00117971 0.000537353)
(-0.000770618 -0.00133379 0.000537353)
(-0.0005273 -0.00144734 0.000537354)
(-0.000267961 -0.00151692 0.000537354)
(-4.80099e-07 -0.0015404 0.000537353)
(0.000267017 -0.00151709 0.000537354)
(0.000526399 -0.00144767 0.000537354)
(0.000769785 -0.00133427 0.000537354)
(0.000989783 -0.00118033 0.000537353)
(0.00117971 -0.000990521 0.000537353)
(0.00133379 -0.000770618 0.000537353)
(0.00144734 -0.0005273 0.000537354)
(0.00151692 -0.000267961 0.000537354)
(0.0015404 -4.80114e-07 0.000537353)
(0.00151709 0.000267017 0.000537354)
(0.00144767 0.000526399 0.000537354)
(0.00133427 0.000769785 0.000537354)
(0.00118033 0.000989783 0.000537353)
(0.000990521 0.00117971 0.000537353)
(0.000770618 0.00133379 0.000537353)
(0.0005273 0.00144734 0.000537354)
(0.000267961 0.00151692 0.000537354)
(4.8018e-07 0.0015404 0.000537353)
(0.000203457 0.00186436 0.000503036)
(-0.000123376 0.00187136 0.000503036)
(-0.000446462 0.00182151 0.000503038)
(-0.000755979 0.00171631 0.00050304)
(-0.00104253 0.00155896 0.000503041)
(-0.0012974 0.00135424 0.000503041)
(-0.00151285 0.00110838 0.00050304)
(-0.00168233 0.000828833 0.000503038)
(-0.0018007 0.000524107 0.000503037)
(-0.00186436 0.000203457 0.000503036)
(-0.00187136 -0.000123376 0.000503036)
(-0.00182151 -0.000446462 0.000503038)
(-0.00171631 -0.000755979 0.00050304)
(-0.00155896 -0.00104253 0.000503041)
(-0.00135424 -0.0012974 0.000503041)
(-0.00110838 -0.00151285 0.00050304)
(-0.000828833 -0.00168233 0.000503038)
(-0.000524107 -0.0018007 0.000503037)
(-0.000203457 -0.00186436 0.000503036)
(0.000123376 -0.00187136 0.000503036)
(0.000446462 -0.00182151 0.000503038)
(0.00075598 -0.00171631 0.00050304)
(0.00104253 -0.00155896 0.000503041)
(0.0012974 -0.00135424 0.000503041)
(0.00151285 -0.00110838 0.00050304)
(0.00168233 -0.000828833 0.000503038)
(0.0018007 -0.000524107 0.000503037)
(0.00186436 -0.000203457 0.000503036)
(0.00187136 0.000123376 0.000503037)
(0.00182151 0.000446462 0.000503038)
(0.00171631 0.000755979 0.00050304)
(0.00155896 0.00104253 0.000503041)
(0.00135424 0.0012974 0.000503041)
(0.00110838 0.00151285 0.00050304)
(0.000828833 0.00168233 0.000503038)
(0.000524107 0.0018007 0.000503037)
(2.7042e-05 0.00197723 0.000633622)
(-0.000316711 0.00195189 0.000633623)
(-0.000650841 0.00186724 0.000633623)
(-0.000965196 0.00172585 0.000633624)
(-0.00125022 0.00153203 0.000633625)
(-0.00149726 0.00129166 0.000633624)
(-0.00169881 0.00101203 0.000633625)
(-0.00184874 0.000701664 0.000633624)
(-0.0019425 0.000369973 0.000633623)
(-0.00197723 2.70419e-05 0.000633622)
(-0.00195189 -0.000316712 0.000633623)
(-0.00186724 -0.000650841 0.000633623)
(-0.00172585 -0.000965196 0.000633624)
(-0.00153203 -0.00125022 0.000633625)
(-0.00129166 -0.00149726 0.000633624)
(-0.00101203 -0.00169881 0.000633625)
(-0.000701664 -0.00184874 0.000633624)
(-0.000369973 -0.0019425 0.000633623)
(-2.70418e-05 -0.00197723 0.000633622)
(0.000316712 -0.00195189 0.000633623)
(0.000650841 -0.00186724 0.000633623)
(0.000965196 -0.00172585 0.000633624)
(0.00125022 -0.00153203 0.000633625)
(0.00149726 -0.00129166 0.000633625)
(0.00169881 -0.00101203 0.000633625)
(0.00184874 -0.000701664 0.000633624)
(0.0019425 -0.000369973 0.000633623)
(0.00197723 -2.70419e-05 0.000633622)
(0.00195189 0.000316712 0.000633623)
(0.00186724 0.000650841 0.000633623)
(0.00172585 0.000965196 0.000633624)
(0.00153203 0.00125022 0.000633625)
(0.00129166 0.00149726 0.000633625)
(0.00101203 0.00169881 0.000633625)
(0.000701664 0.00184874 0.000633624)
(0.000369973 0.0019425 0.000633623)
(-0.000173167 0.00208173 0.000753135)
(-0.000532024 0.00202003 0.000753135)
(-0.000874715 0.00189696 0.000753135)
(-0.00119083 0.00171625 0.000753135)
(-0.00147076 0.00148339 0.000753136)
(-0.001706 0.00120545 0.000753136)
(-0.00188941 0.000890897 0.000753136)
(-0.00201541 0.000549267 0.000753136)
(-0.00208017 0.000190952 0.000753135)
(-0.00208173 -0.000173167 0.000753135)
(-0.00202003 -0.000532024 0.000753135)
(-0.00189696 -0.000874716 0.000753135)
(-0.00171625 -0.00119083 0.000753135)
(-0.00148339 -0.00147076 0.000753135)
(-0.00120545 -0.001706 0.000753136)
(-0.000890896 -0.00188941 0.000753136)
(-0.000549267 -0.00201541 0.000753136)
(-0.000190952 -0.00208017 0.000753135)
(0.000173167 -0.00208173 0.000753135)
(0.000532025 -0.00202003 0.000753135)
(0.000874716 -0.00189696 0.000753135)
(0.00119083 -0.00171625 0.000753135)
(0.00147076 -0.00148339 0.000753136)
(0.001706 -0.00120545 0.000753136)
(0.00188941 -0.000890897 0.000753136)
(0.00201541 -0.000549267 0.000753136)
(0.00208017 -0.000190952 0.000753135)
(0.00208173 0.000173167 0.000753135)
(0.00202003 0.000532025 0.000753135)
(0.00189696 0.000874716 0.000753135)
(0.00171625 0.00119083 0.000753135)
(0.00148339 0.00147076 0.000753136)
(0.00120545 0.001706 0.000753136)
(0.000890897 0.00188941 0.000753136)
(0.000549268 0.00201541 0.000753136)
(0.000190952 0.00208017 0.000753135)
(-0.000387278 0.00216231 0.000855863)
(-0.000756874 0.00206221 0.000855863)
(-0.00110348 0.00189945 0.000855863)
(-0.00141655 0.00167898 0.000855863)
(-0.00168658 0.00140749 0.000855863)
(-0.00190536 0.00109324 0.000855863)
(-0.00206625 0.000745766 0.000855862)
(-0.00216436 0.000375635 0.000855863)
(-0.00219671 -5.91231e-06 0.000855863)
(-0.00216231 -0.000387278 0.000855863)
(-0.00206221 -0.000756874 0.000855862)
(-0.00189945 -0.00110348 0.000855863)
(-0.00167898 -0.00141655 0.000855863)
(-0.00140749 -0.00168658 0.000855863)
(-0.00109324 -0.00190536 0.000855863)
(-0.000745766 -0.00206626 0.000855862)
(-0.000375635 -0.00216437 0.000855863)
(5.91238e-06 -0.00219671 0.000855863)
(0.000387278 -0.00216231 0.000855863)
(0.000756874 -0.00206221 0.000855862)
(0.00110348 -0.00189945 0.000855863)
(0.00141655 -0.00167898 0.000855863)
(0.00168658 -0.00140749 0.000855863)
(0.00190536 -0.00109324 0.000855863)
(0.00206626 -0.000745766 0.000855862)
(0.00216437 -0.000375635 0.000855863)
(0.00219671 5.91235e-06 0.000855863)
(0.00216231 0.000387278 0.000855863)
(0.00206221 0.000756874 0.000855863)
(0.00189945 0.00110348 0.000855863)
(0.00167898 0.00141655 0.000855863)
(0.00140749 0.00168658 0.000855863)
(0.00109324 0.00190536 0.000855863)
(0.000745766 0.00206626 0.000855862)
(0.000375635 0.00216437 0.000855863)
(-5.91224e-06 0.00219671 0.000855863)
(5.62997e-05 0.00247503 0.000795277)
(-0.000374344 0.00244721 0.000795278)
(-0.000793609 0.00234502 0.000795278)
(-0.00118876 0.00217159 0.000795279)
(-0.00154779 0.00193217 0.00079528)
(-0.00185979 0.00163405 0.00079528)
(-0.00211529 0.00128627 0.000795281)
(-0.00230651 0.000899413 0.000795279)
(-0.00242765 0.000485227 0.000795279)
(-0.00247503 5.62996e-05 0.000795277)
(-0.00244721 -0.000374344 0.000795277)
(-0.00234502 -0.000793609 0.000795278)
(-0.00217159 -0.00118876 0.000795279)
(-0.00193217 -0.00154779 0.00079528)
(-0.00163405 -0.00185979 0.00079528)
(-0.00128627 -0.00211529 0.000795281)
(-0.000899413 -0.00230651 0.000795279)
(-0.000485227 -0.00242765 0.000795279)
(-5.62994e-05 -0.00247503 0.000795277)
(0.000374344 -0.00244721 0.000795277)
(0.000793609 -0.00234502 0.000795278)
(0.00118876 -0.00217159 0.000795279)
(0.00154779 -0.00193217 0.00079528)
(0.00185979 -0.00163405 0.000795281)
(0.00211529 -0.00128627 0.000795281)
(0.00230651 -0.000899413 0.000795279)
(0.00242766 -0.000485227 0.000795279)
(0.00247503 -5.62996e-05 0.000795277)
(0.00244721 0.000374344 0.000795278)
(0.00234502 0.000793609 0.000795278)
(0.00217159 0.00118876 0.000795279)
(0.00193217 0.00154779 0.00079528)
(0.00163405 0.00185979 0.000795281)
(0.00128627 0.00211529 0.000795281)
(0.000899413 0.00230651 0.000795279)
(0.000485227 0.00242765 0.000795279)
(-0.000123158 0.00256517 0.000928803)
(-0.000566724 0.00250481 0.000928802)
(-0.000993069 0.00236835 0.000928803)
(-0.00138924 0.00215992 0.000928803)
(-0.0017432 0.00188587 0.000928804)
(-0.0020442 0.00155451 0.000928805)
(-0.00228308 0.00117593 0.000928804)
(-0.00245259 0.000761608 0.000928804)
(-0.00254758 0.00032415 0.000928803)
(-0.00256517 -0.000123158 0.000928803)
(-0.00250481 -0.000566724 0.000928802)
(-0.00236835 -0.000993069 0.000928803)
(-0.00215992 -0.00138924 0.000928803)
(-0.00188587 -0.0017432 0.000928804)
(-0.00155451 -0.0020442 0.000928805)
(-0.00117593 -0.00228308 0.000928804)
(-0.000761608 -0.00245259 0.000928804)
(-0.00032415 -0.00254758 0.000928803)
(0.000123158 -0.00256517 0.000928803)
(0.000566724 -0.00250481 0.000928802)
(0.00099307 -0.00236835 0.000928803)
(0.00138924 -0.00215992 0.000928803)
(0.0017432 -0.00188587 0.000928804)
(0.0020442 -0.00155451 0.000928805)
(0.00228308 -0.00117593 0.000928804)
(0.00245259 -0.000761608 0.000928804)
(0.00254758 -0.00032415 0.000928803)
(0.00256517 0.000123158 0.000928803)
(0.00250481 0.000566724 0.000928802)
(0.00236835 0.000993069 0.000928803)
(0.00215992 0.00138924 0.000928803)
(0.00188587 0.0017432 0.000928804)
(0.00155451 0.0020442 0.000928805)
(0.00117593 0.00228308 0.000928804)
(0.000761608 0.00245259 0.000928804)
(0.000324151 0.00254758 0.000928803)
(-0.000322258 0.00264724 0.00105102)
(-0.00077705 0.00255106 0.00105102)
(-0.00120823 0.00237737 0.00105102)
(-0.0016027 0.00213144 0.00105102)
(-0.00194847 0.00182076 0.00105102)
(-0.00223504 0.00145475 0.00105102)
(-0.0024537 0.00104453 0.00105103)
(-0.00259781 0.000602586 0.00105102)
(-0.00266298 0.000142325 0.00105103)
(-0.00264724 -0.000322258 0.00105102)
(-0.00255106 -0.00077705 0.00105102)
(-0.00237737 -0.00120823 0.00105102)
(-0.00213144 -0.0016027 0.00105102)
(-0.00182076 -0.00194847 0.00105102)
(-0.00145475 -0.00223504 0.00105102)
(-0.00104453 -0.0024537 0.00105102)
(-0.000602586 -0.00259781 0.00105102)
(-0.000142325 -0.00266298 0.00105102)
(0.000322258 -0.00264724 0.00105102)
(0.00077705 -0.00255106 0.00105102)
(0.00120823 -0.00237737 0.00105102)
(0.0016027 -0.00213144 0.00105102)
(0.00194847 -0.00182076 0.00105102)
(0.00223504 -0.00145475 0.00105102)
(0.0024537 -0.00104453 0.00105103)
(0.00259781 -0.000602586 0.00105102)
(0.00266298 -0.000142325 0.00105103)
(0.00264724 0.000322258 0.00105102)
(0.00255106 0.00077705 0.00105102)
(0.00237737 0.00120823 0.00105102)
(0.00213144 0.0016027 0.00105102)
(0.00182076 0.00194847 0.00105102)
(0.00145475 0.00223504 0.00105102)
(0.00104453 0.0024537 0.00105103)
(0.000602586 0.00259781 0.00105102)
(0.000142325 0.00266298 0.00105103)
(-0.000533051 0.00270611 0.00115722)
(-0.000994864 0.00257243 0.00115722)
(-0.00142645 0.00236059 0.00115722)
(-0.00181469 0.00207703 0.00115722)
(-0.00214779 0.00173036 0.00115722)
(-0.00241564 0.00133111 0.00115722)
(-0.00261008 0.000891417 0.00115722)
(-0.00272522 0.000424639 0.00115722)
(-0.00275756 -5.50431e-05 0.00115722)
(-0.00270611 -0.000533051 0.00115722)
(-0.00257243 -0.000994864 0.00115722)
(-0.00236059 -0.00142645 0.00115722)
(-0.00207703 -0.00181469 0.00115722)
(-0.00173036 -0.00214779 0.00115722)
(-0.00133111 -0.00241564 0.00115722)
(-0.000891417 -0.00261008 0.00115722)
(-0.000424639 -0.00272522 0.00115722)
(5.50432e-05 -0.00275756 0.00115722)
(0.000533051 -0.00270611 0.00115722)
(0.000994864 -0.00257243 0.00115722)
(0.00142645 -0.00236059 0.00115722)
(0.00181469 -0.00207703 0.00115722)
(0.00214779 -0.00173036 0.00115722)
(0.00241564 -0.00133111 0.00115722)
(0.00261008 -0.000891417 0.00115722)
(0.00272522 -0.000424639 0.00115722)
(0.00275756 5.50432e-05 0.00115722)
(0.00270611 0.000533051 0.00115722)
(0.00257243 0.000994864 0.00115722)
(0.00236059 0.00142645 0.00115722)
(0.00207703 0.00181469 0.00115722)
(0.00173036 0.00214779 0.00115722)
(0.00133111 0.00241564 0.00115722)
(0.000891417 0.00261008 0.00115722)
(0.000424639 0.00272522 0.00115722)
(-5.5043e-05 0.00275756 0.00115722)
(-0.000161974 0.00302829 0.00109403)
(-0.000685371 0.00295416 0.00109403)
(-0.00118794 0.00279026 0.00109403)
(-0.00165442 0.00254159 0.00109403)
(-0.00207062 0.00221569 0.00109403)
(-0.00242392 0.00182246 0.00109403)
(-0.00270356 0.00137387 0.00109403)
(-0.00290106 0.000883527 0.00109403)
(-0.00301041 0.000366342 0.00109403)
(-0.00302829 -0.000161974 0.00109403)
(-0.00295415 -0.000685371 0.00109403)
(-0.00279026 -0.00118794 0.00109403)
(-0.00254159 -0.00165442 0.00109403)
(-0.00221569 -0.00207062 0.00109403)
(-0.00182246 -0.00242392 0.00109403)
(-0.00137387 -0.00270356 0.00109403)
(-0.000883527 -0.00290106 0.00109403)
(-0.000366342 -0.00301041 0.00109403)
(0.000161975 -0.00302829 0.00109403)
(0.000685371 -0.00295415 0.00109403)
(0.00118794 -0.00279026 0.00109403)
(0.00165442 -0.00254159 0.00109403)
(0.00207062 -0.00221569 0.00109403)
(0.00242392 -0.00182246 0.00109403)
(0.00270356 -0.00137387 0.00109403)
(0.00290106 -0.000883527 0.00109403)
(0.00301041 -0.000366342 0.00109403)
(0.00302829 0.000161974 0.00109403)
(0.00295416 0.000685371 0.00109403)
(0.00279026 0.00118794 0.00109403)
(0.00254159 0.00165442 0.00109403)
(0.00221569 0.00207062 0.00109403)
(0.00182246 0.00242392 0.00109403)
(0.00137387 0.00270356 0.00109403)
(0.000883528 0.00290106 0.00109403)
(0.000366342 0.00301041 0.00109403)
(-0.000330233 0.00307873 0.00122087)
(-0.000859832 0.00297462 0.00122087)
(-0.00136331 0.00278012 0.00122087)
(-0.00182536 0.00250115 0.00122087)
(-0.00223194 0.00214618 0.00122087)
(-0.00257071 0.001726 0.00122087)
(-0.00283138 0.00125338 0.00122087)
(-0.00300601 0.000742673 0.00122088)
(-0.00308931 0.000209401 0.00122088)
(-0.00307873 -0.000330233 0.00122087)
(-0.00297462 -0.000859832 0.00122087)
(-0.00278012 -0.00136331 0.00122087)
(-0.00250115 -0.00182536 0.00122087)
(-0.00214618 -0.00223194 0.00122087)
(-0.001726 -0.00257071 0.00122087)
(-0.00125338 -0.00283138 0.00122087)
(-0.000742673 -0.00300601 0.00122087)
(-0.0002094 -0.00308931 0.00122088)
(0.000330234 -0.00307873 0.00122087)
(0.000859832 -0.00297462 0.00122087)
(0.00136331 -0.00278012 0.00122087)
(0.00182536 -0.00250115 0.00122087)
(0.00223194 -0.00214618 0.00122087)
(0.00257071 -0.001726 0.00122087)
(0.00283138 -0.00125338 0.00122087)
(0.00300601 -0.000742673 0.00122088)
(0.00308931 -0.000209401 0.00122088)
(0.00307874 0.000330233 0.00122087)
(0.00297462 0.000859832 0.00122087)
(0.00278012 0.00136331 0.00122087)
(0.00250115 0.00182536 0.00122087)
(0.00214618 0.00223194 0.00122087)
(0.001726 0.00257071 0.00122087)
(0.00125338 0.00283138 0.00122087)
(0.000742673 0.00300601 0.00122088)
(0.000209401 0.00308931 0.00122088)
(-0.000514434 0.00312279 0.00133635)
(-0.00104888 0.00298602 0.00133635)
(-0.00155146 0.00275851 0.00133635)
(-0.0020069 0.0024472 0.00133635)
(-0.00240137 0.00206152 0.00133635)
(-0.00272286 0.00161321 0.00133635)
(-0.00296163 0.00111588 0.00133635)
(-0.00311041 0.000584649 0.00133635)
(-0.00316468 3.5649e-05 0.00133635)
(-0.00312279 -0.000514434 0.00133635)
(-0.00298602 -0.00104888 0.00133635)
(-0.00275851 -0.00155146 0.00133635)
(-0.0024472 -0.0020069 0.00133635)
(-0.00206152 -0.00240137 0.00133635)
(-0.00161321 -0.00272286 0.00133635)
(-0.00111588 -0.00296163 0.00133635)
(-0.000584649 -0.00311041 0.00133635)
(-3.56488e-05 -0.00316468 0.00133635)
(0.000514434 -0.00312279 0.00133635)
(0.00104888 -0.00298602 0.00133635)
(0.00155147 -0.00275851 0.00133635)
(0.00200691 -0.0024472 0.00133635)
(0.00240137 -0.00206152 0.00133635)
(0.00272286 -0.00161321 0.00133635)
(0.00296163 -0.00111588 0.00133635)
(0.00311041 -0.000584649 0.00133635)
(0.00316468 -3.56489e-05 0.00133635)
(0.00312279 0.000514434 0.00133635)
(0.00298602 0.00104888 0.00133635)
(0.00275851 0.00155146 0.00133635)
(0.0024472 0.0020069 0.00133635)
(0.00206152 0.00240137 0.00133635)
(0.00161321 0.00272286 0.00133635)
(0.00111588 0.00296163 0.00133635)
(0.000584649 0.00311041 0.00133635)
(3.56491e-05 0.00316468 0.00133635)
(-0.000708084 0.00314542 0.00143624)
(-0.00124353 0.00297468 0.00143624)
(-0.00174118 0.00271355 0.00143624)
(-0.00218593 0.00236997 0.00143624)
(-0.00256426 0.00195438 0.00143624)
(-0.00286468 0.00147942 0.00143624)
(-0.00307806 0.000959494 0.00143624)
(-0.00319791 0.000410416 0.00143624)
(-0.00322059 -0.000151131 0.00143624)
(-0.00314542 -0.000708084 0.00143624)
(-0.00297468 -0.00124353 0.00143624)
(-0.00271355 -0.00174118 0.00143624)
(-0.00236997 -0.00218593 0.00143624)
(-0.00195438 -0.00256426 0.00143624)
(-0.00147942 -0.00286468 0.00143624)
(-0.000959494 -0.00307806 0.00143624)
(-0.000410415 -0.00319791 0.00143624)
(0.000151131 -0.00322059 0.00143624)
(0.000708084 -0.00314542 0.00143624)
(0.00124353 -0.00297468 0.00143624)
(0.00174118 -0.00271355 0.00143624)
(0.00218593 -0.00236997 0.00143624)
(0.00256426 -0.00195438 0.00143624)
(0.00286468 -0.00147942 0.00143624)
(0.00307806 -0.000959494 0.00143624)
(0.00319791 -0.000410416 0.00143624)
(0.00322059 0.000151131 0.00143624)
(0.00314542 0.000708084 0.00143624)
(0.00297468 0.00124353 0.00143624)
(0.00271355 0.00174118 0.00143624)
(0.00236997 0.00218593 0.00143624)
(0.00195438 0.00256426 0.00143624)
(0.00147942 0.00286468 0.00143624)
(0.000959494 0.00307806 0.00143624)
(0.000410416 0.00319791 0.00143624)
(-0.000151131 0.00322059 0.00143624)
(-0.000414187 0.00349487 0.00139348)
(-0.00101477 0.00336985 0.00139348)
(-0.00158453 0.00314244 0.00139348)
(-0.00210613 0.00281955 0.00139348)
(-0.00256374 0.00241099 0.00139348)
(-0.00294346 0.00192917 0.00139348)
(-0.00323374 0.00138874 0.00139348)
(-0.00342576 0.000806107 0.00139348)
(-0.0035137 0.000198982 0.00139348)
(-0.00349487 -0.000414187 0.00139348)
(-0.00336985 -0.00101477 0.00139348)
(-0.00314244 -0.00158453 0.00139348)
(-0.00281955 -0.00210613 0.00139348)
(-0.00241099 -0.00256374 0.00139348)
(-0.00192917 -0.00294346 0.00139348)
(-0.00138874 -0.00323374 0.00139348)
(-0.000806106 -0.00342576 0.00139348)
(-0.000198982 -0.0035137 0.00139348)
(0.000414188 -0.00349487 0.00139348)
(0.00101477 -0.00336985 0.00139348)
(0.00158453 -0.00314244 0.00139348)
(0.00210613 -0.00281955 0.00139348)
(0.00256374 -0.00241099 0.00139348)
(0.00294346 -0.00192917 0.00139348)
(0.00323374 -0.00138874 0.00139348)
(0.00342576 -0.000806107 0.00139348)
(0.0035137 -0.000198982 0.00139348)
(0.00349487 0.000414187 0.00139348)