/*--------------------------------*- C++ -*----------------------------------*\
| =========                 |                                                 |
| \\      /  F ield         | OpenFOAM: The Open Source CFD Toolbox           |
|  \\    /   O peration     | Version:  2312                                  |
|   \\  /    A nd           | Website:  www.openfoam.com                      |
|    \\/     M anipulation  |                                                 |
\*---------------------------------------------------------------------------*/
FoamFile
{
    version     2.0;
    format      ascii;
    arch        "LSB;label=32;scalar=64";
    class       volVectorField;
    location    "0.4";
    object      D_0;
}
// * * * * * * * * * * * * * * * * * * * * * * * * * * * * * * * * * * * * * //

dimensions      [0 1 0 0 0 0 0];

internalField   nonuniform List<vector> 
1620
(
(0.000130463 1.14141e-05 -5.563e-05)
(0.000126499 3.38953e-05 -5.56301e-05)
(0.000118691 5.53466e-05 -5.56301e-05)
(0.000107277 7.51163e-05 -5.56302e-05)
(9.26037e-05 9.26037e-05 -5.56303e-05)
(7.51163e-05 0.000107277 -5.56302e-05)
(5.53466e-05 0.000118691 -5.56301e-05)
(3.38953e-05 0.000126499 -5.56301e-05)
(1.14141e-05 0.000130463 -5.563e-05)
(-1.14141e-05 0.000130463 -5.563e-05)
(-3.38953e-05 0.000126499 -5.56301e-05)
(-5.53466e-05 0.000118691 -5.56301e-05)
(-7.51163e-05 0.000107277 -5.56302e-05)
(-9.26037e-05 9.26037e-05 -5.56303e-05)
(-0.000107277 7.51163e-05 -5.56302e-05)
(-0.000118691 5.53466e-05 -5.56301e-05)
(-0.000126499 3.38953e-05 -5.56301e-05)
(-0.000130463 1.14141e-05 -5.563e-05)
(-0.000130463 -1.14141e-05 -5.563e-05)
(-0.000126499 -3.38953e-05 -5.56301e-05)
(-0.000118691 -5.53466e-05 -5.56301e-05)
(-0.000107277 -7.51163e-05 -5.56302e-05)
(-9.26037e-05 -9.26037e-05 -5.56303e-05)
(-7.51163e-05 -0.000107277 -5.56302e-05)
(-5.53466e-05 -0.000118691 -5.56301e-05)
(-3.38953e-05 -0.000126499 -5.56301e-05)
(-1.14141e-05 -0.000130463 -5.563e-05)
(1.14141e-05 -0.000130463 -5.563e-05)
(3.38953e-05 -0.000126499 -5.56301e-05)
(5.53466e-05 -0.000118691 -5.56301e-05)
(7.51163e-05 -0.000107277 -5.56302e-05)
(9.26037e-05 -9.26037e-05 -5.56303e-05)
(0.000107277 -7.51163e-05 -5.56302e-05)
(0.000118691 -5.53466e-05 -5.56301e-05)
(0.000126499 -3.38953e-05 -5.56301e-05)
(0.000130463 -1.14141e-05 -5.563e-05)
(0.000202661 1.77305e-05 -6.14956e-05)
(0.000196503 5.26528e-05 -6.14957e-05)
(0.000184375 8.59752e-05 -6.14957e-05)
(0.000166644 0.000116685 -6.14957e-05)
(0.00014385 0.00014385 -6.14958e-05)
(0.000116685 0.000166644 -6.14957e-05)
(8.59752e-05 0.000184375 -6.14957e-05)
(5.26528e-05 0.000196503 -6.14957e-05)
(1.77305e-05 0.000202661 -6.14956e-05)
(-1.77305e-05 0.000202661 -6.14956e-05)
(-5.26528e-05 0.000196503 -6.14957e-05)
(-8.59752e-05 0.000184375 -6.14957e-05)
(-0.000116685 0.000166644 -6.14957e-05)
(-0.00014385 0.00014385 -6.14958e-05)
(-0.000166644 0.000116685 -6.14957e-05)
(-0.000184375 8.59752e-05 -6.14957e-05)
(-0.000196503 5.26528e-05 -6.14957e-05)
(-0.000202661 1.77305e-05 -6.14956e-05)
(-0.000202661 -1.77305e-05 -6.14956e-05)
(-0.000196503 -5.26528e-05 -6.14957e-05)
(-0.000184375 -8.59752e-05 -6.14957e-05)
(-0.000166644 -0.000116685 -6.14957e-05)
(-0.00014385 -0.00014385 -6.14958e-05)
(-0.000116685 -0.000166644 -6.14957e-05)
(-8.59752e-05 -0.000184375 -6.14957e-05)
(-5.26528e-05 -0.000196503 -6.14957e-05)
(-1.77305e-05 -0.000202661 -6.14956e-05)
(1.77305e-05 -0.000202661 -6.14956e-05)
(5.26528e-05 -0.000196503 -6.14957e-05)
(8.59752e-05 -0.000184375 -6.14957e-05)
(0.000116685 -0.000166644 -6.14957e-05)
(0.00014385 -0.00014385 -6.14958e-05)
(0.000166644 -0.000116685 -6.14957e-05)
(0.000184375 -8.59752e-05 -6.14957e-05)
(0.000196503 -5.26528e-05 -6.14957e-05)
(0.000202661 -1.77305e-05 -6.14956e-05)
(0.000303344 2.6539e-05 -5.95367e-05)
(0.000294127 7.88107e-05 -5.95368e-05)
(0.000275973 0.000128688 -5.95369e-05)
(0.000249434 0.000174655 -5.95367e-05)
(0.000215316 0.000215316 -5.95369e-05)
(0.000174655 0.000249434 -5.95367e-05)
(0.000128688 0.000275973 -5.95369e-05)
(7.88107e-05 0.000294127 -5.95368e-05)
(2.6539e-05 0.000303344 -5.95367e-05)
(-2.6539e-05 0.000303344 -5.95367e-05)
(-7.88107e-05 0.000294127 -5.95368e-05)
(-0.000128688 0.000275973 -5.95369e-05)
(-0.000174655 0.000249434 -5.95367e-05)
(-0.000215316 0.000215316 -5.95369e-05)
(-0.000249434 0.000174655 -5.95367e-05)
(-0.000275973 0.000128688 -5.95369e-05)
(-0.000294127 7.88107e-05 -5.95368e-05)
(-0.000303344 2.6539e-05 -5.95367e-05)
(-0.000303344 -2.6539e-05 -5.95367e-05)
(-0.000294127 -7.88107e-05 -5.95368e-05)
(-0.000275973 -0.000128688 -5.95369e-05)
(-0.000249434 -0.000174655 -5.95367e-05)
(-0.000215316 -0.000215316 -5.95369e-05)
(-0.000174655 -0.000249434 -5.95367e-05)
(-0.000128688 -0.000275973 -5.95369e-05)
(-7.88107e-05 -0.000294127 -5.95368e-05)
(-2.6539e-05 -0.000303344 -5.95367e-05)
(2.6539e-05 -0.000303344 -5.95367e-05)
(7.88107e-05 -0.000294127 -5.95368e-05)
(0.000128688 -0.000275973 -5.95369e-05)
(0.000174655 -0.000249434 -5.95367e-05)
(0.000215316 -0.000215316 -5.95369e-05)
(0.000249434 -0.000174655 -5.95367e-05)
(0.000275973 -0.000128688 -5.95369e-05)
(0.000294127 -7.88107e-05 -5.95368e-05)
(0.000303344 -2.6539e-05 -5.95367e-05)
(0.000469824 4.11043e-05 -0.000182668)
(0.000455549 0.000122064 -0.000182669)
(0.000427432 0.000199315 -0.000182669)
(0.000386327 0.000270509 -0.000182669)
(0.000333484 0.000333484 -0.000182669)
(0.000270509 0.000386327 -0.000182669)
(0.000199315 0.000427432 -0.000182669)
(0.000122064 0.000455549 -0.000182669)
(4.11043e-05 0.000469824 -0.000182668)
(-4.11043e-05 0.000469824 -0.000182668)
(-0.000122064 0.000455549 -0.000182669)
(-0.000199315 0.000427432 -0.000182669)
(-0.000270509 0.000386327 -0.000182669)
(-0.000333484 0.000333484 -0.000182669)
(-0.000386327 0.000270509 -0.000182669)
(-0.000427432 0.000199315 -0.000182669)
(-0.000455549 0.000122064 -0.000182669)
(-0.000469824 4.11043e-05 -0.000182668)
(-0.000469824 -4.11043e-05 -0.000182668)
(-0.000455549 -0.000122064 -0.000182669)
(-0.000427432 -0.000199315 -0.000182669)
(-0.000386327 -0.000270509 -0.000182669)
(-0.000333484 -0.000333484 -0.000182669)
(-0.000270509 -0.000386327 -0.000182669)
(-0.000199315 -0.000427432 -0.000182669)
(-0.000122064 -0.000455549 -0.000182669)
(-4.11043e-05 -0.000469824 -0.000182668)
(4.11043e-05 -0.000469824 -0.000182668)
(0.000122064 -0.000455549 -0.000182669)
(0.000199315 -0.000427432 -0.000182669)
(0.000270509 -0.000386327 -0.000182669)
(0.000333484 -0.000333484 -0.000182669)
(0.000386327 -0.000270509 -0.000182669)
(0.000427432 -0.000199315 -0.000182669)
(0.000455549 -0.000122064 -0.000182669)
(0.000469824 -4.11043e-05 -0.000182668)
(0.00060101 5.25815e-05 -0.000213122)
(0.000582748 0.000156147 -0.000213122)
(0.00054678 0.000254967 -0.000213122)
(0.000494198 0.000346041 -0.000213122)
(0.000426601 0.000426601 -0.000213122)
(0.000346041 0.000494198 -0.000213122)
(0.000254967 0.00054678 -0.000213122)
(0.000156147 0.000582748 -0.000213122)
(5.25815e-05 0.00060101 -0.000213122)
(-5.25815e-05 0.00060101 -0.000213122)
(-0.000156147 0.000582748 -0.000213122)
(-0.000254967 0.00054678 -0.000213122)
(-0.000346041 0.000494198 -0.000213122)
(-0.000426601 0.000426601 -0.000213122)
(-0.000494198 0.000346041 -0.000213122)
(-0.00054678 0.000254967 -0.000213122)
(-0.000582748 0.000156147 -0.000213122)
(-0.00060101 5.25815e-05 -0.000213122)
(-0.00060101 -5.25815e-05 -0.000213122)
(-0.000582748 -0.000156147 -0.000213122)
(-0.00054678 -0.000254967 -0.000213122)
(-0.000494198 -0.000346041 -0.000213122)
(-0.000426601 -0.000426601 -0.000213122)
(-0.000346041 -0.000494198 -0.000213122)
(-0.000254967 -0.00054678 -0.000213122)
(-0.000156147 -0.000582748 -0.000213122)
(-5.25815e-05 -0.00060101 -0.000213122)
(5.25815e-05 -0.00060101 -0.000213122)
(0.000156147 -0.000582748 -0.000213122)
(0.000254967 -0.00054678 -0.000213122)
(0.000346041 -0.000494198 -0.000213122)
(0.000426601 -0.000426601 -0.000213122)
(0.000494198 -0.000346041 -0.000213122)
(0.00054678 -0.000254967 -0.000213122)
(0.000582748 -0.000156147 -0.000213122)
(0.00060101 -5.25815e-05 -0.000213122)
(0.000772553 6.75896e-05 -0.00023508)
(0.000749079 0.000200715 -0.00023508)
(0.000702845 0.000327741 -0.000235079)
(0.000635255 0.00044481 -0.000235079)
(0.000548363 0.000548363 -0.000235079)
(0.00044481 0.000635255 -0.000235079)
(0.000327741 0.000702845 -0.000235079)
(0.000200715 0.000749079 -0.00023508)
(6.75896e-05 0.000772553 -0.00023508)
(-6.75896e-05 0.000772553 -0.00023508)
(-0.000200715 0.000749079 -0.00023508)
(-0.000327741 0.000702845 -0.000235079)
(-0.00044481 0.000635255 -0.000235079)
(-0.000548363 0.000548363 -0.000235079)
(-0.000635255 0.00044481 -0.000235079)
(-0.000702845 0.000327741 -0.000235079)
(-0.000749079 0.000200715 -0.00023508)
(-0.000772553 6.75896e-05 -0.00023508)
(-0.000772553 -6.75896e-05 -0.00023508)
(-0.000749079 -0.000200715 -0.00023508)
(-0.000702845 -0.000327741 -0.000235079)
(-0.000635255 -0.00044481 -0.000235079)
(-0.000548363 -0.000548363 -0.000235079)
(-0.00044481 -0.000635255 -0.000235079)
(-0.000327741 -0.000702845 -0.000235079)
(-0.000200715 -0.000749079 -0.00023508)
(-6.75896e-05 -0.000772553 -0.00023508)
(6.75896e-05 -0.000772553 -0.00023508)
(0.000200715 -0.000749079 -0.00023508)
(0.000327741 -0.000702845 -0.000235079)
(0.00044481 -0.000635255 -0.000235079)
(0.000548363 -0.000548363 -0.000235079)
(0.000635255 -0.00044481 -0.000235079)
(0.000702845 -0.000327741 -0.000235079)
(0.000749079 -0.000200715 -0.00023508)
(0.000772553 -6.75896e-05 -0.00023508)
(0.000777641 6.80347e-05 -0.000369534)
(0.000754012 0.000202037 -0.000369534)
(0.000707473 0.0003299 -0.000369534)
(0.000639438 0.00044774 -0.000369535)
(0.000551975 0.000551975 -0.000369535)
(0.00044774 0.000639438 -0.000369535)
(0.0003299 0.000707473 -0.000369534)
(0.000202037 0.000754012 -0.000369534)
(6.80347e-05 0.000777641 -0.000369534)
(-6.80347e-05 0.000777641 -0.000369534)
(-0.000202037 0.000754012 -0.000369534)
(-0.0003299 0.000707473 -0.000369534)
(-0.00044774 0.000639438 -0.000369535)
(-0.000551975 0.000551975 -0.000369535)
(-0.000639438 0.00044774 -0.000369535)
(-0.000707473 0.0003299 -0.000369534)
(-0.000754012 0.000202037 -0.000369534)
(-0.000777641 6.80347e-05 -0.000369534)
(-0.000777641 -6.80347e-05 -0.000369534)
(-0.000754012 -0.000202037 -0.000369534)
(-0.000707473 -0.0003299 -0.000369534)
(-0.000639438 -0.00044774 -0.000369535)
(-0.000551975 -0.000551975 -0.000369535)
(-0.00044774 -0.000639438 -0.000369535)
(-0.0003299 -0.000707473 -0.000369534)
(-0.000202037 -0.000754012 -0.000369534)
(-6.80347e-05 -0.000777641 -0.000369534)
(6.80347e-05 -0.000777641 -0.000369534)
(0.000202037 -0.000754012 -0.000369534)
(0.0003299 -0.000707473 -0.000369534)
(0.00044774 -0.000639438 -0.000369535)
(0.000551975 -0.000551975 -0.000369535)
(0.000639438 -0.00044774 -0.000369535)
(0.000707473 -0.0003299 -0.000369534)
(0.000754012 -0.000202037 -0.000369534)
(0.000777641 -6.80347e-05 -0.000369534)
(0.000950633 8.31696e-05 -0.000413296)
(0.000921748 0.000246981 -0.000413296)
(0.000864856 0.000403289 -0.000413296)
(0.000781686 0.000547342 -0.000413296)
(0.000674766 0.000674766 -0.000413296)
(0.000547342 0.000781686 -0.000413296)
(0.000403289 0.000864856 -0.000413296)
(0.000246981 0.000921748 -0.000413296)
(8.31696e-05 0.000950633 -0.000413296)
(-8.31696e-05 0.000950633 -0.000413296)
(-0.000246981 0.000921748 -0.000413296)
(-0.000403289 0.000864856 -0.000413296)
(-0.000547342 0.000781686 -0.000413296)
(-0.000674766 0.000674766 -0.000413296)
(-0.000781686 0.000547342 -0.000413296)
(-0.000864856 0.000403289 -0.000413296)
(-0.000921748 0.000246981 -0.000413296)
(-0.000950633 8.31696e-05 -0.000413296)
(-0.000950633 -8.31696e-05 -0.000413296)
(-0.000921748 -0.000246981 -0.000413296)
(-0.000864856 -0.000403289 -0.000413296)
(-0.000781686 -0.000547342 -0.000413296)
(-0.000674766 -0.000674766 -0.000413296)
(-0.000547342 -0.000781686 -0.000413296)
(-0.000403289 -0.000864856 -0.000413296)
(-0.000246981 -0.000921748 -0.000413296)
(-8.31696e-05 -0.000950633 -0.000413296)
(8.31696e-05 -0.000950633 -0.000413296)
(0.000246981 -0.000921748 -0.000413296)
(0.000403289 -0.000864856 -0.000413296)
(0.000547342 -0.000781686 -0.000413296)
(0.000674766 -0.000674766 -0.000413296)
(0.000781686 -0.000547342 -0.000413296)
(0.000864856 -0.000403289 -0.000413296)
(0.000921748 -0.000246981 -0.000413296)
(0.000950633 -8.31696e-05 -0.000413296)
(0.00116791 0.000102179 -0.000449896)
(0.00113242 0.000303431 -0.000449896)
(0.00106253 0.000495464 -0.000449896)
(0.000960349 0.000672443 -0.000449897)
(0.00082899 0.00082899 -0.000449897)
(0.000672443 0.000960349 -0.000449897)
(0.000495464 0.00106253 -0.000449896)
(0.000303431 0.00113242 -0.000449896)
(0.000102179 0.00116791 -0.000449896)
(-0.000102179 0.00116791 -0.000449896)
(-0.000303431 0.00113242 -0.000449896)
(-0.000495464 0.00106253 -0.000449896)
(-0.000672443 0.000960349 -0.000449897)
(-0.00082899 0.00082899 -0.000449897)
(-0.000960349 0.000672443 -0.000449897)
(-0.00106253 0.000495464 -0.000449896)
(-0.00113242 0.000303431 -0.000449896)
(-0.00116791 0.000102179 -0.000449896)
(-0.00116791 -0.000102179 -0.000449896)
(-0.00113242 -0.000303431 -0.000449896)
(-0.00106253 -0.000495464 -0.000449896)
(-0.000960349 -0.000672443 -0.000449897)
(-0.00082899 -0.00082899 -0.000449897)
(-0.000672443 -0.000960349 -0.000449897)
(-0.000495464 -0.00106253 -0.000449896)
(-0.000303431 -0.00113242 -0.000449896)
(-0.000102179 -0.00116791 -0.000449896)
(0.000102179 -0.00116791 -0.000449896)
(0.000303431 -0.00113242 -0.000449896)
(0.000495464 -0.00106253 -0.000449896)
(0.000672443 -0.000960349 -0.000449897)
(0.00082899 -0.00082899 -0.000449897)
(0.000960349 -0.000672443 -0.000449897)
(0.00106253 -0.000495464 -0.000449896)
(0.00113242 -0.000303431 -0.000449896)
(0.00116791 -0.000102179 -0.000449896)
(0.00102104 8.93294e-05 -0.000587525)
(0.000990016 0.000265274 -0.000587525)
(0.000928911 0.000433158 -0.000587525)
(0.000839582 0.000587881 -0.000587526)
(0.000724742 0.000724742 -0.000587526)
(0.000587881 0.000839582 -0.000587526)
(0.000433158 0.000928911 -0.000587525)
(0.000265274 0.000990016 -0.000587525)
(8.93294e-05 0.00102104 -0.000587525)
(-8.93294e-05 0.00102104 -0.000587525)
(-0.000265274 0.000990016 -0.000587525)
(-0.000433158 0.000928911 -0.000587525)
(-0.000587881 0.000839582 -0.000587526)
(-0.000724742 0.000724742 -0.000587526)
(-0.000839582 0.000587881 -0.000587526)
(-0.000928911 0.000433158 -0.000587525)
(-0.000990016 0.000265274 -0.000587525)
(-0.00102104 8.93294e-05 -0.000587525)
(-0.00102104 -8.93294e-05 -0.000587525)
(-0.000990016 -0.000265274 -0.000587525)
(-0.000928911 -0.000433158 -0.000587525)
(-0.000839582 -0.000587881 -0.000587526)
(-0.000724742 -0.000724742 -0.000587526)
(-0.000587881 -0.000839582 -0.000587526)
(-0.000433158 -0.000928911 -0.000587525)
(-0.000265274 -0.000990016 -0.000587525)
(-8.93294e-05 -0.00102104 -0.000587525)
(8.93294e-05 -0.00102104 -0.000587525)
(0.000265274 -0.000990016 -0.000587525)
(0.000433158 -0.000928911 -0.000587525)
(0.000587881 -0.000839582 -0.000587526)
(0.000724742 -0.000724742 -0.000587526)
(0.000839582 -0.000587881 -0.000587526)
(0.000928911 -0.000433158 -0.000587525)
(0.000990016 -0.000265274 -0.000587525)
(0.00102104 -8.93294e-05 -0.000587525)
(0.00121578 0.000106367 -0.000637783)
(0.00117884 0.000315868 -0.000637783)
(0.00110608 0.000515772 -0.000637783)
(0.00099971 0.000700005 -0.000637783)
(0.000862968 0.000862968 -0.000637783)
(0.000700005 0.00099971 -0.000637783)
(0.000515772 0.00110608 -0.000637783)
(0.000315868 0.00117884 -0.000637783)
(0.000106367 0.00121578 -0.000637783)
(-0.000106367 0.00121578 -0.000637783)
(-0.000315868 0.00117884 -0.000637783)
(-0.000515772 0.00110608 -0.000637783)
(-0.000700005 0.00099971 -0.000637783)
(-0.000862968 0.000862968 -0.000637783)
(-0.00099971 0.000700005 -0.000637783)
(-0.00110608 0.000515772 -0.000637783)
(-0.00117884 0.000315868 -0.000637783)
(-0.00121578 0.000106367 -0.000637783)
(-0.00121578 -0.000106367 -0.000637783)
(-0.00117884 -0.000315868 -0.000637783)
(-0.00110608 -0.000515772 -0.000637783)
(-0.00099971 -0.000700005 -0.000637783)
(-0.000862968 -0.000862968 -0.000637783)
(-0.000700005 -0.00099971 -0.000637783)
(-0.000515772 -0.00110608 -0.000637783)
(-0.000315868 -0.00117884 -0.000637783)
(-0.000106367 -0.00121578 -0.000637783)
(0.000106367 -0.00121578 -0.000637783)
(0.000315868 -0.00117884 -0.000637783)
(0.000515772 -0.00110608 -0.000637783)
(0.000700005 -0.00099971 -0.000637783)
(0.000862968 -0.000862968 -0.000637783)
(0.00099971 -0.000700005 -0.000637783)
(0.00110608 -0.000515772 -0.000637783)
(0.00117884 -0.000315868 -0.000637783)
(0.00121578 -0.000106367 -0.000637783)
(0.00145773 0.000127535 -0.000683843)
(0.00141344 0.000378731 -0.000683844)
(0.0013262 0.000618418 -0.000683844)
(0.00119867 0.000839316 -0.000683844)
(0.00103471 0.00103471 -0.000683843)
(0.000839316 0.00119867 -0.000683844)
(0.000618418 0.0013262 -0.000683844)
(0.000378731 0.00141344 -0.000683844)
(0.000127535 0.00145773 -0.000683843)
(-0.000127535 0.00145773 -0.000683843)
(-0.000378731 0.00141344 -0.000683844)
(-0.000618418 0.0013262 -0.000683844)
(-0.000839316 0.00119867 -0.000683844)
(-0.00103471 0.00103471 -0.000683843)
(-0.00119867 0.000839316 -0.000683844)
(-0.0013262 0.000618418 -0.000683844)
(-0.00141344 0.000378731 -0.000683844)
(-0.00145773 0.000127535 -0.000683843)
(-0.00145773 -0.000127535 -0.000683843)
(-0.00141344 -0.000378731 -0.000683844)
(-0.0013262 -0.000618418 -0.000683844)
(-0.00119867 -0.000839316 -0.000683844)
(-0.00103471 -0.00103471 -0.000683843)
(-0.000839316 -0.00119867 -0.000683844)
(-0.000618418 -0.0013262 -0.000683844)
(-0.000378731 -0.00141344 -0.000683844)
(-0.000127535 -0.00145773 -0.000683843)
(0.000127535 -0.00145773 -0.000683843)
(0.000378731 -0.00141344 -0.000683844)
(0.000618418 -0.0013262 -0.000683844)
(0.000839316 -0.00119867 -0.000683844)
(0.00103471 -0.00103471 -0.000683843)
(0.00119867 -0.000839316 -0.000683844)
(0.0013262 -0.000618418 -0.000683844)
(0.00141344 -0.000378731 -0.000683844)
(0.00145773 -0.000127535 -0.000683843)
(0.00117871 0.000103123 -0.000812537)
(0.00114289 0.000306237 -0.000812537)
(0.00107235 0.000500045 -0.000812537)
(0.000969227 0.00067866 -0.000812537)
(0.000836654 0.000836654 -0.000812537)
(0.00067866 0.000969227 -0.000812537)
(0.000500045 0.00107235 -0.000812537)
(0.000306237 0.00114289 -0.000812537)
(0.000103123 0.00117871 -0.000812537)
(-0.000103123 0.00117871 -0.000812537)
(-0.000306237 0.00114289 -0.000812537)
(-0.000500045 0.00107235 -0.000812537)
(-0.00067866 0.000969227 -0.000812537)
(-0.000836654 0.000836654 -0.000812537)
(-0.000969227 0.00067866 -0.000812537)
(-0.00107235 0.000500045 -0.000812537)
(-0.00114289 0.000306237 -0.000812537)
(-0.00117871 0.000103123 -0.000812537)
(-0.00117871 -0.000103123 -0.000812537)
(-0.00114289 -0.000306237 -0.000812537)
(-0.00107235 -0.000500045 -0.000812537)
(-0.000969227 -0.00067866 -0.000812537)
(-0.000836654 -0.000836654 -0.000812537)
(-0.00067866 -0.000969227 -0.000812537)
(-0.000500045 -0.00107235 -0.000812537)
(-0.000306237 -0.00114289 -0.000812537)
(-0.000103123 -0.00117871 -0.000812537)
(0.000103123 -0.00117871 -0.000812537)
(0.000306237 -0.00114289 -0.000812537)
(0.000500045 -0.00107235 -0.000812537)
(0.00067866 -0.000969227 -0.000812537)
(0.000836654 -0.000836654 -0.000812537)
(0.000969227 -0.00067866 -0.000812537)
(0.00107235 -0.000500045 -0.000812537)
(0.00114289 -0.000306237 -0.000812537)
(0.00117871 -0.000103123 -0.000812537)
(0.00138125 0.000120844 -0.000866631)
(0.00133929 0.000358861 -0.000866631)
(0.00125662 0.000585973 -0.000866631)
(0.00113578 0.000795281 -0.000866632)
(0.000980425 0.000980425 -0.000866632)
(0.000795281 0.00113578 -0.000866632)
(0.000585973 0.00125662 -0.000866631)
(0.000358861 0.00133929 -0.000866631)
(0.000120844 0.00138125 -0.000866631)
(-0.000120844 0.00138125 -0.000866631)
(-0.000358861 0.00133929 -0.000866631)
(-0.000585973 0.00125662 -0.000866631)
(-0.000795281 0.00113578 -0.000866632)
(-0.000980425 0.000980425 -0.000866632)
(-0.00113578 0.000795281 -0.000866632)
(-0.00125662 0.000585973 -0.000866631)
(-0.00133929 0.000358861 -0.000866631)
(-0.00138125 0.000120844 -0.000866631)
(-0.00138125 -0.000120844 -0.000866631)
(-0.00133929 -0.000358861 -0.000866631)
(-0.00125662 -0.000585973 -0.000866631)
(-0.00113578 -0.000795281 -0.000866632)
(-0.000980425 -0.000980425 -0.000866632)
(-0.000795281 -0.00113578 -0.000866632)
(-0.000585973 -0.00125662 -0.000866631)
(-0.000358861 -0.00133929 -0.000866631)
(-0.000120844 -0.00138125 -0.000866631)
(0.000120844 -0.00138125 -0.000866631)
(0.000358861 -0.00133929 -0.000866631)
(0.000585973 -0.00125662 -0.000866631)
(0.000795281 -0.00113578 -0.000866632)
(0.000980425 -0.000980425 -0.000866632)
(0.00113578 -0.000795281 -0.000866632)
(0.00125662 -0.000585973 -0.000866631)
(0.00133929 -0.000358861 -0.000866631)
(0.00138125 -0.000120844 -0.000866631)
(0.0016339 0.000142948 -0.000920618)
(0.00158425 0.0004245 -0.000920618)
(0.00148647 0.000693154 -0.000920619)
(0.00134352 0.000940746 -0.000920619)
(0.00115975 0.00115975 -0.000920619)
(0.000940746 0.00134352 -0.000920619)
(0.000693154 0.00148647 -0.000920619)
(0.0004245 0.00158425 -0.000920618)
(0.000142948 0.0016339 -0.000920618)
(-0.000142948 0.0016339 -0.000920618)
(-0.0004245 0.00158425 -0.000920618)
(-0.000693154 0.00148647 -0.000920619)
(-0.000940746 0.00134352 -0.000920619)
(-0.00115975 0.00115975 -0.000920619)
(-0.00134352 0.000940746 -0.000920619)
(-0.00148647 0.000693154 -0.000920619)
(-0.00158425 0.0004245 -0.000920618)
(-0.0016339 0.000142948 -0.000920618)
(-0.0016339 -0.000142948 -0.000920618)
(-0.00158425 -0.0004245 -0.000920618)
(-0.00148647 -0.000693154 -0.000920619)
(-0.00134352 -0.000940746 -0.000920619)
(-0.00115975 -0.00115975 -0.000920619)
(-0.000940746 -0.00134352 -0.000920619)
(-0.000693154 -0.00148647 -0.000920619)
(-0.0004245 -0.00158425 -0.000920618)
(-0.000142948 -0.0016339 -0.000920618)
(0.000142948 -0.0016339 -0.000920618)
(0.0004245 -0.00158425 -0.000920618)
(0.000693154 -0.00148647 -0.000920619)
(0.000940746 -0.00134352 -0.000920619)
(0.00115975 -0.00115975 -0.000920619)
(0.00134352 -0.000940746 -0.000920619)
(0.00148647 -0.000693154 -0.000920619)
(0.00158425 -0.0004245 -0.000920618)
(0.0016339 -0.000142948 -0.000920618)
(0.00124441 0.000108872 -0.0010259)
(0.0012066 0.000323307 -0.0010259)
(0.00113212 0.000527919 -0.0010259)
(0.00102325 0.00071649 -0.0010259)
(0.00088329 0.00088329 -0.0010259)
(0.00071649 0.00102325 -0.0010259)
(0.000527919 0.00113212 -0.0010259)
(0.000323307 0.0012066 -0.0010259)
(0.000108872 0.00124441 -0.0010259)
(-0.000108872 0.00124441 -0.0010259)
(-0.000323307 0.0012066 -0.0010259)
(-0.000527919 0.00113212 -0.0010259)
(-0.00071649 0.00102325 -0.0010259)
(-0.00088329 0.00088329 -0.0010259)
(-0.00102325 0.00071649 -0.0010259)
(-0.00113212 0.000527919 -0.0010259)
(-0.0012066 0.000323307 -0.0010259)
(-0.00124441 0.000108872 -0.0010259)
(-0.00124441 -0.000108872 -0.0010259)
(-0.0012066 -0.000323307 -0.0010259)
(-0.00113212 -0.000527919 -0.0010259)
(-0.00102325 -0.00071649 -0.0010259)
(-0.00088329 -0.00088329 -0.0010259)
(-0.00071649 -0.00102325 -0.0010259)
(-0.000527919 -0.00113212 -0.0010259)
(-0.000323307 -0.0012066 -0.0010259)
(-0.000108872 -0.00124441 -0.0010259)
(0.000108872 -0.00124441 -0.0010259)
(0.000323307 -0.0012066 -0.0010259)
(0.000527919 -0.00113212 -0.0010259)
(0.00071649 -0.00102325 -0.0010259)
(0.00088329 -0.00088329 -0.0010259)
(0.00102325 -0.00071649 -0.0010259)
(0.00113212 -0.000527919 -0.0010259)
(0.0012066 -0.000323307 -0.0010259)
(0.00124441 -0.000108872 -0.0010259)
(0.0014458 0.000126492 -0.00108329)
(0.00140187 0.000375631 -0.00108329)
(0.00131535 0.000613357 -0.00108329)
(0.00118886 0.000832446 -0.00108329)
(0.00102624 0.00102624 -0.00108329)
(0.000832446 0.00118886 -0.00108329)
(0.000613357 0.00131535 -0.00108329)
(0.000375631 0.00140187 -0.00108329)
(0.000126492 0.0014458 -0.00108329)
(-0.000126492 0.0014458 -0.00108329)
(-0.000375631 0.00140187 -0.00108329)
(-0.000613357 0.00131535 -0.00108329)
(-0.000832446 0.00118886 -0.00108329)
(-0.00102624 0.00102624 -0.00108329)
(-0.00118886 0.000832446 -0.00108329)
(-0.00131535 0.000613357 -0.00108329)
(-0.00140187 0.000375631 -0.00108329)
(-0.0014458 0.000126492 -0.00108329)
(-0.0014458 -0.000126492 -0.00108329)
(-0.00140187 -0.000375631 -0.00108329)
(-0.00131535 -0.000613357 -0.00108329)
(-0.00118886 -0.000832446 -0.00108329)
(-0.00102624 -0.00102624 -0.00108329)
(-0.000832446 -0.00118886 -0.00108329)
(-0.000613357 -0.00131535 -0.00108329)
(-0.000375631 -0.00140187 -0.00108329)
(-0.000126492 -0.0014458 -0.00108329)
(0.000126492 -0.0014458 -0.00108329)
(0.000375631 -0.00140187 -0.00108329)
(0.000613357 -0.00131535 -0.00108329)
(0.000832446 -0.00118886 -0.00108329)
(0.00102624 -0.00102624 -0.00108329)
(0.00118886 -0.000832446 -0.00108329)
(0.00131535 -0.000613357 -0.00108329)
(0.00140187 -0.000375631 -0.00108329)
(0.0014458 -0.000126492 -0.00108329)
(0.00169978 0.000148711 -0.00114546)
(0.00164813 0.000441616 -0.00114546)
(0.00154641 0.000721101 -0.00114546)
(0.00139769 0.000978676 -0.00114547)
(0.00120652 0.00120652 -0.00114547)
(0.000978676 0.00139769 -0.00114547)
(0.000721101 0.00154641 -0.00114546)
(0.000441616 0.00164813 -0.00114546)
(0.000148711 0.00169978 -0.00114546)
(-0.000148711 0.00169978 -0.00114546)
(-0.000441616 0.00164813 -0.00114546)
(-0.000721101 0.00154641 -0.00114546)
(-0.000978676 0.00139769 -0.00114547)
(-0.00120652 0.00120652 -0.00114547)
(-0.00139769 0.000978676 -0.00114547)
(-0.00154641 0.000721101 -0.00114546)
(-0.00164813 0.000441616 -0.00114546)
(-0.00169978 0.000148711 -0.00114546)
(-0.00169978 -0.000148711 -0.00114546)
(-0.00164813 -0.000441616 -0.00114546)
(-0.00154641 -0.000721101 -0.00114546)
(-0.00139769 -0.000978676 -0.00114547)
(-0.00120652 -0.00120652 -0.00114547)
(-0.000978676 -0.00139769 -0.00114547)
(-0.000721101 -0.00154641 -0.00114546)
(-0.000441616 -0.00164813 -0.00114546)
(-0.000148711 -0.00169978 -0.00114546)
(0.000148711 -0.00169978 -0.00114546)
(0.000441616 -0.00164813 -0.00114546)
(0.000721101 -0.00154641 -0.00114546)
(0.000978676 -0.00139769 -0.00114547)
(0.00120652 -0.00120652 -0.00114547)
(0.00139769 -0.000978676 -0.00114547)
(0.00154641 -0.000721101 -0.00114546)
(0.00164813 -0.000441616 -0.00114546)
(0.00169978 -0.000148711 -0.00114546)
(0.0012229 0.00010699 -0.00121413)
(0.00118574 0.000317719 -0.00121413)
(0.00111256 0.000518795 -0.00121413)
(0.00100557 0.000704107 -0.00121413)
(0.000868025 0.000868025 -0.00121413)
(0.000704107 0.00100557 -0.00121413)
(0.000518795 0.00111256 -0.00121413)
(0.000317719 0.00118574 -0.00121413)
(0.00010699 0.0012229 -0.00121413)
(-0.00010699 0.0012229 -0.00121413)
(-0.000317719 0.00118574 -0.00121413)
(-0.000518795 0.00111256 -0.00121413)
(-0.000704107 0.00100557 -0.00121413)
(-0.000868025 0.000868025 -0.00121413)
(-0.00100557 0.000704107 -0.00121413)
(-0.00111256 0.000518795 -0.00121413)
(-0.00118574 0.000317719 -0.00121413)
(-0.0012229 0.00010699 -0.00121413)
(-0.0012229 -0.00010699 -0.00121413)
(-0.00118574 -0.000317719 -0.00121413)
(-0.00111256 -0.000518795 -0.00121413)
(-0.00100557 -0.000704107 -0.00121413)
(-0.000868025 -0.000868025 -0.00121413)
(-0.000704107 -0.00100557 -0.00121413)
(-0.000518795 -0.00111256 -0.00121413)
(-0.000317719 -0.00118574 -0.00121413)
(-0.00010699 -0.0012229 -0.00121413)
(0.00010699 -0.0012229 -0.00121413)
(0.000317719 -0.00118574 -0.00121413)
(0.000518795 -0.00111256 -0.00121413)
(0.000704107 -0.00100557 -0.00121413)
(0.000868025 -0.000868025 -0.00121413)
(0.00100557 -0.000704107 -0.00121413)
(0.00111256 -0.000518795 -0.00121413)
(0.00118574 -0.000317719 -0.00121413)
(0.0012229 -0.00010699 -0.00121413)
(0.00141754 0.000124019 -0.00127496)
(0.00137447 0.000368289 -0.00127496)
(0.00128964 0.000601369 -0.00127496)
(0.00116562 0.000816177 -0.00127496)
(0.00100618 0.00100618 -0.00127496)
(0.000816177 0.00116562 -0.00127496)
(0.000601369 0.00128964 -0.00127496)
(0.000368289 0.00137447 -0.00127496)
(0.000124019 0.00141754 -0.00127496)
(-0.000124019 0.00141754 -0.00127496)
(-0.000368289 0.00137447 -0.00127496)
(-0.000601369 0.00128964 -0.00127496)
(-0.000816177 0.00116562 -0.00127496)
(-0.00100618 0.00100618 -0.00127496)
(-0.00116562 0.000816177 -0.00127496)
(-0.00128964 0.000601369 -0.00127496)
(-0.00137447 0.000368289 -0.00127496)
(-0.00141754 0.000124019 -0.00127496)
(-0.00141754 -0.000124019 -0.00127496)
(-0.00137447 -0.000368289 -0.00127496)
(-0.00128964 -0.000601369 -0.00127496)
(-0.00116562 -0.000816177 -0.00127496)
(-0.00100618 -0.00100618 -0.00127496)
(-0.000816177 -0.00116562 -0.00127496)
(-0.000601369 -0.00128964 -0.00127496)
(-0.000368289 -0.00137447 -0.00127496)
(-0.000124019 -0.00141754 -0.00127496)
(0.000124019 -0.00141754 -0.00127496)
(0.000368289 -0.00137447 -0.00127496)
(0.000601369 -0.00128964 -0.00127496)
(0.000816177 -0.00116562 -0.00127496)
(0.00100618 -0.00100618 -0.00127496)
(0.00116562 -0.000816177 -0.00127496)
(0.00128964 -0.000601369 -0.00127496)
(0.00137447 -0.000368289 -0.00127496)
(0.00141754 -0.000124019 -0.00127496)
(0.00166658 0.000145808 -0.00134601)
(0.00161595 0.000432992 -0.00134601)
(0.00151621 0.000707019 -0.00134601)
(0.0013704 0.000959565 -0.00134601)
(0.00118295 0.00118295 -0.00134601)
(0.000959565 0.0013704 -0.00134601)
(0.000707019 0.00151621 -0.00134601)
(0.000432992 0.00161595 -0.00134601)
(0.000145808 0.00166658 -0.00134601)
(-0.000145808 0.00166658 -0.00134601)
(-0.000432992 0.00161595 -0.00134601)
(-0.000707019 0.00151621 -0.00134601)
(-0.000959565 0.0013704 -0.00134601)
(-0.00118295 0.00118295 -0.00134601)
(-0.0013704 0.000959565 -0.00134601)
(-0.00151621 0.000707019 -0.00134601)
(-0.00161595 0.000432992 -0.00134601)
(-0.00166658 0.000145808 -0.00134601)
(-0.00166658 -0.000145808 -0.00134601)
(-0.00161595 -0.000432992 -0.00134601)
(-0.00151621 -0.000707019 -0.00134601)
(-0.0013704 -0.000959565 -0.00134601)
(-0.00118295 -0.00118295 -0.00134601)
(-0.000959565 -0.0013704 -0.00134601)
(-0.000707019 -0.00151621 -0.00134601)
(-0.000432992 -0.00161595 -0.00134601)
(-0.000145808 -0.00166658 -0.00134601)
(0.000145808 -0.00166658 -0.00134601)
(0.000432992 -0.00161595 -0.00134601)