/*--------------------------------*- C++ -*----------------------------------*\
| =========                 |                                                 |
| \\      /  F ield         | OpenFOAM: The Open Source CFD Toolbox           |
|  \\    /   O peration     | Version:  2312                                  |
|   \\  /    A nd           | Website:  www.openfoam.com                      |
|    \\/     M anipulation  |                                                 |
\*---------------------------------------------------------------------------*/
FoamFile
{
    version     2.0;
    format      ascii;
    arch        "LSB;label=32;scalar=64";
    class       volVectorField;
    location    "0.4";
    object      D_0_0_0;
}
// * * * * * * * * * * * * * * * * * * * * * * * * * * * * * * * * * * * * * //

dimensions      [0 1 0 0 0 0 0];

internalField   nonuniform List<vector> 
1620
(
(0.000119483 1.04534e-05 -4.90025e-05)
(0.000115852 3.10426e-05 -4.90026e-05)
(0.000108702 5.06884e-05 -4.90026e-05)
(9.82485e-05 6.87942e-05 -4.90027e-05)
(8.48098e-05 8.48098e-05 -4.90028e-05)
(6.87942e-05 9.82485e-05 -4.90027e-05)
(5.06884e-05 0.000108702 -4.90026e-05)
(3.10426e-05 0.000115852 -4.90026e-05)
(1.04534e-05 0.000119483 -4.90025e-05)
(-1.04534e-05 0.000119483 -4.90025e-05)
(-3.10426e-05 0.000115852 -4.90026e-05)
(-5.06884e-05 0.000108702 -4.90026e-05)
(-6.87942e-05 9.82485e-05 -4.90027e-05)
(-8.48098e-05 8.48098e-05 -4.90028e-05)
(-9.82485e-05 6.87942e-05 -4.90027e-05)
(-0.000108702 5.06884e-05 -4.90026e-05)
(-0.000115852 3.10426e-05 -4.90026e-05)
(-0.000119483 1.04534e-05 -4.90025e-05)
(-0.000119483 -1.04534e-05 -4.90025e-05)
(-0.000115852 -3.10426e-05 -4.90026e-05)
(-0.000108702 -5.06884e-05 -4.90026e-05)
(-9.82485e-05 -6.87942e-05 -4.90027e-05)
(-8.48098e-05 -8.48098e-05 -4.90028e-05)
(-6.87942e-05 -9.82485e-05 -4.90027e-05)
(-5.06884e-05 -0.000108702 -4.90026e-05)
(-3.10426e-05 -0.000115852 -4.90026e-05)
(-1.04534e-05 -0.000119483 -4.90025e-05)
(1.04534e-05 -0.000119483 -4.90025e-05)
(3.10426e-05 -0.000115852 -4.90026e-05)
(5.06884e-05 -0.000108702 -4.90026e-05)
(6.87942e-05 -9.82485e-05 -4.90027e-05)
(8.48098e-05 -8.48098e-05 -4.90028e-05)
(9.82485e-05 -6.87942e-05 -4.90027e-05)
(0.000108702 -5.06884e-05 -4.90026e-05)
(0.000115852 -3.10426e-05 -4.90026e-05)
(0.000119483 -1.04534e-05 -4.90025e-05)
(0.00018521 1.62037e-05 -5.57084e-05)
(0.000179583 4.81189e-05 -5.57085e-05)
(0.000168498 7.85719e-05 -5.57085e-05)
(0.000152294 0.000106638 -5.57085e-05)
(0.000131463 0.000131463 -5.57085e-05)
(0.000106638 0.000152294 -5.57085e-05)
(7.85719e-05 0.000168498 -5.57085e-05)
(4.81189e-05 0.000179583 -5.57085e-05)
(1.62037e-05 0.00018521 -5.57084e-05)
(-1.62037e-05 0.00018521 -5.57084e-05)
(-4.81189e-05 0.000179583 -5.57085e-05)
(-7.85719e-05 0.000168498 -5.57085e-05)
(-0.000106638 0.000152294 -5.57085e-05)
(-0.000131463 0.000131463 -5.57085e-05)
(-0.000152294 0.000106638 -5.57085e-05)
(-0.000168498 7.85719e-05 -5.57085e-05)
(-0.000179583 4.81189e-05 -5.57085e-05)
(-0.00018521 1.62037e-05 -5.57084e-05)
(-0.00018521 -1.62037e-05 -5.57084e-05)
(-0.000179583 -4.81189e-05 -5.57085e-05)
(-0.000168498 -7.85719e-05 -5.57085e-05)
(-0.000152294 -0.000106638 -5.57085e-05)
(-0.000131463 -0.000131463 -5.57085e-05)
(-0.000106638 -0.000152294 -5.57085e-05)
(-7.85719e-05 -0.000168498 -5.57085e-05)
(-4.81189e-05 -0.000179583 -5.57085e-05)
(-1.62037e-05 -0.00018521 -5.57084e-05)
(1.62037e-05 -0.00018521 -5.57084e-05)
(4.81189e-05 -0.000179583 -5.57085e-05)
(7.85719e-05 -0.000168498 -5.57085e-05)
(0.000106638 -0.000152294 -5.57085e-05)
(0.000131463 -0.000131463 -5.57085e-05)
(0.000152294 -0.000106638 -5.57085e-05)
(0.000168498 -7.85719e-05 -5.57085e-05)
(0.000179583 -4.81189e-05 -5.57085e-05)
(0.00018521 -1.62037e-05 -5.57084e-05)
(0.000278133 2.43334e-05 -5.54327e-05)
(0.000269683 7.22609e-05 -5.54329e-05)
(0.000253038 0.000117993 -5.54329e-05)
(0.000228704 0.00016014 -5.54328e-05)
(0.000197421 0.000197421 -5.54329e-05)
(0.00016014 0.000228704 -5.54328e-05)
(0.000117993 0.000253038 -5.54329e-05)
(7.22609e-05 0.000269683 -5.54329e-05)
(2.43334e-05 0.000278133 -5.54327e-05)
(-2.43334e-05 0.000278133 -5.54327e-05)
(-7.22609e-05 0.000269683 -5.54329e-05)
(-0.000117993 0.000253038 -5.54329e-05)
(-0.00016014 0.000228704 -5.54328e-05)
(-0.000197421 0.000197421 -5.54329e-05)
(-0.000228704 0.00016014 -5.54328e-05)
(-0.000253038 0.000117993 -5.54329e-05)
(-0.000269683 7.22609e-05 -5.54329e-05)
(-0.000278133 2.43334e-05 -5.54327e-05)
(-0.000278133 -2.43334e-05 -5.54327e-05)
(-0.000269683 -7.22609e-05 -5.54329e-05)
(-0.000253038 -0.000117993 -5.54329e-05)
(-0.000228704 -0.00016014 -5.54328e-05)
(-0.000197421 -0.000197421 -5.54329e-05)
(-0.00016014 -0.000228704 -5.54328e-05)
(-0.000117993 -0.000253038 -5.54329e-05)
(-7.22609e-05 -0.000269683 -5.54329e-05)
(-2.43334e-05 -0.000278133 -5.54327e-05)
(2.43334e-05 -0.000278133 -5.54327e-05)
(7.22609e-05 -0.000269683 -5.54329e-05)
(0.000117993 -0.000253038 -5.54329e-05)
(0.00016014 -0.000228704 -5.54328e-05)
(0.000197421 -0.000197421 -5.54329e-05)
(0.000228704 -0.00016014 -5.54328e-05)
(0.000253038 -0.000117993 -5.54329e-05)
(0.000269683 -7.22609e-05 -5.54329e-05)
(0.000278133 -2.43334e-05 -5.54327e-05)
(0.000429491 3.75756e-05 -0.000162793)
(0.000416441 0.000111585 -0.000162793)
(0.000390738 0.000182204 -0.000162793)
(0.000353161 0.000247286 -0.000162793)
(0.000304855 0.000304855 -0.000162793)
(0.000247286 0.000353161 -0.000162793)
(0.000182204 0.000390738 -0.000162793)
(0.000111585 0.000416441 -0.000162793)
(3.75756e-05 0.000429491 -0.000162793)
(-3.75756e-05 0.000429491 -0.000162793)
(-0.000111585 0.000416441 -0.000162793)
(-0.000182204 0.000390738 -0.000162793)
(-0.000247286 0.000353161 -0.000162793)
(-0.000304855 0.000304855 -0.000162793)
(-0.000353161 0.000247286 -0.000162793)
(-0.000390738 0.000182204 -0.000162793)
(-0.000416441 0.000111585 -0.000162793)
(-0.000429491 3.75756e-05 -0.000162793)
(-0.000429491 -3.75756e-05 -0.000162793)
(-0.000416441 -0.000111585 -0.000162793)
(-0.000390738 -0.000182204 -0.000162793)
(-0.000353161 -0.000247286 -0.000162793)
(-0.000304855 -0.000304855 -0.000162793)
(-0.000247286 -0.000353161 -0.000162793)
(-0.000182204 -0.000390738 -0.000162793)
(-0.000111585 -0.000416441 -0.000162793)
(-3.75756e-05 -0.000429491 -0.000162793)
(3.75756e-05 -0.000429491 -0.000162793)
(0.000111585 -0.000416441 -0.000162793)
(0.000182204 -0.000390738 -0.000162793)
(0.000247286 -0.000353161 -0.000162793)
(0.000304855 -0.000304855 -0.000162793)
(0.000353161 -0.000247286 -0.000162793)
(0.000390738 -0.000182204 -0.000162793)
(0.000416441 -0.000111585 -0.000162793)
(0.000429491 -3.75756e-05 -0.000162793)
(0.000549712 4.80935e-05 -0.000193156)
(0.000533009 0.000142819 -0.000193156)
(0.000500111 0.000233205 -0.000193156)
(0.000452018 0.000316506 -0.000193157)
(0.000390189 0.000390189 -0.000193157)
(0.000316506 0.000452018 -0.000193157)
(0.000233205 0.000500111 -0.000193156)
(0.000142819 0.000533009 -0.000193156)
(4.80935e-05 0.000549712 -0.000193156)
(-4.80935e-05 0.000549712 -0.000193156)
(-0.000142819 0.000533009 -0.000193156)
(-0.000233205 0.000500111 -0.000193156)
(-0.000316506 0.000452018 -0.000193157)
(-0.000390189 0.000390189 -0.000193157)
(-0.000452018 0.000316506 -0.000193157)
(-0.000500111 0.000233205 -0.000193156)
(-0.000533009 0.000142819 -0.000193156)
(-0.000549712 4.80935e-05 -0.000193156)
(-0.000549712 -4.80935e-05 -0.000193156)
(-0.000533009 -0.000142819 -0.000193156)
(-0.000500111 -0.000233205 -0.000193156)
(-0.000452018 -0.000316506 -0.000193157)
(-0.000390189 -0.000390189 -0.000193157)
(-0.000316506 -0.000452018 -0.000193157)
(-0.000233205 -0.000500111 -0.000193156)
(-0.000142819 -0.000533009 -0.000193156)
(-4.80935e-05 -0.000549712 -0.000193156)
(4.80935e-05 -0.000549712 -0.000193156)
(0.000142819 -0.000533009 -0.000193156)
(0.000233205 -0.000500111 -0.000193156)
(0.000316506 -0.000452018 -0.000193157)
(0.000390189 -0.000390189 -0.000193157)
(0.000452018 -0.000316506 -0.000193157)
(0.000500111 -0.000233205 -0.000193156)
(0.000533009 -0.000142819 -0.000193156)
(0.000549712 -4.80935e-05 -0.000193156)
(0.000708312 6.19693e-05 -0.000216053)
(0.00068679 0.000184025 -0.000216053)
(0.000644401 0.000300488 -0.000216053)
(0.000582431 0.000407822 -0.000216052)
(0.000502765 0.000502765 -0.000216052)
(0.000407822 0.000582431 -0.000216052)
(0.000300488 0.000644401 -0.000216053)
(0.000184025 0.00068679 -0.000216053)
(6.19693e-05 0.000708312 -0.000216053)
(-6.19693e-05 0.000708312 -0.000216053)
(-0.000184025 0.00068679 -0.000216053)
(-0.000300488 0.000644401 -0.000216053)
(-0.000407822 0.000582431 -0.000216052)
(-0.000502765 0.000502765 -0.000216052)
(-0.000582431 0.000407822 -0.000216052)
(-0.000644401 0.000300488 -0.000216053)
(-0.00068679 0.000184025 -0.000216053)
(-0.000708312 6.19693e-05 -0.000216053)
(-0.000708312 -6.19693e-05 -0.000216053)
(-0.00068679 -0.000184025 -0.000216053)
(-0.000644401 -0.000300488 -0.000216053)
(-0.000582431 -0.000407822 -0.000216052)
(-0.000502765 -0.000502765 -0.000216052)
(-0.000407822 -0.000582431 -0.000216052)
(-0.000300488 -0.000644401 -0.000216053)
(-0.000184025 -0.00068679 -0.000216053)
(-6.19693e-05 -0.000708312 -0.000216053)
(6.19693e-05 -0.000708312 -0.000216053)
(0.000184025 -0.00068679 -0.000216053)
(0.000300488 -0.000644401 -0.000216053)
(0.000407822 -0.000582431 -0.000216052)
(0.000502765 -0.000502765 -0.000216052)
(0.000582431 -0.000407822 -0.000216052)
(0.000644401 -0.000300488 -0.000216053)
(0.00068679 -0.000184025 -0.000216053)
(0.000708312 -6.19693e-05 -0.000216053)
(0.000710481 6.2159e-05 -0.000331282)
(0.000688893 0.000184588 -0.000331282)
(0.000646374 0.000301409 -0.000331282)
(0.000584214 0.000409071 -0.000331282)
(0.000504304 0.000504304 -0.000331282)
(0.000409071 0.000584214 -0.000331282)
(0.000301409 0.000646374 -0.000331282)
(0.000184588 0.000688893 -0.000331282)
(6.2159e-05 0.000710481 -0.000331282)
(-6.2159e-05 0.000710481 -0.000331282)
(-0.000184588 0.000688893 -0.000331282)
(-0.000301409 0.000646374 -0.000331282)
(-0.000409071 0.000584214 -0.000331282)
(-0.000504304 0.000504304 -0.000331282)
(-0.000584214 0.000409071 -0.000331282)
(-0.000646374 0.000301409 -0.000331282)
(-0.000688893 0.000184588 -0.000331282)
(-0.000710481 6.2159e-05 -0.000331282)
(-0.000710481 -6.2159e-05 -0.000331282)
(-0.000688893 -0.000184588 -0.000331282)
(-0.000646374 -0.000301409 -0.000331282)
(-0.000584214 -0.000409071 -0.000331282)
(-0.000504304 -0.000504304 -0.000331282)
(-0.000409071 -0.000584214 -0.000331282)
(-0.000301409 -0.000646374 -0.000331282)
(-0.000184588 -0.000688893 -0.000331282)
(-6.2159e-05 -0.000710481 -0.000331282)
(6.2159e-05 -0.000710481 -0.000331282)
(0.000184588 -0.000688893 -0.000331282)
(0.000301409 -0.000646374 -0.000331282)
(0.000409071 -0.000584214 -0.000331282)
(0.000504304 -0.000504304 -0.000331282)
(0.000584214 -0.000409071 -0.000331282)
(0.000646374 -0.000301409 -0.000331282)
(0.000688893 -0.000184588 -0.000331282)
(0.000710481 -6.2159e-05 -0.000331282)
(0.000869387 7.60615e-05 -0.000374414)
(0.000842971 0.000225873 -0.000374414)
(0.000790941 0.000368822 -0.000374414)
(0.00071488 0.000500563 -0.000374414)
(0.000617097 0.000617097 -0.000374415)
(0.000500563 0.00071488 -0.000374414)
(0.000368822 0.000790941 -0.000374414)
(0.000225873 0.000842971 -0.000374414)
(7.60615e-05 0.000869387 -0.000374414)
(-7.60615e-05 0.000869387 -0.000374414)
(-0.000225873 0.000842971 -0.000374414)
(-0.000368822 0.000790941 -0.000374414)
(-0.000500563 0.00071488 -0.000374414)
(-0.000617097 0.000617097 -0.000374415)
(-0.00071488 0.000500563 -0.000374414)
(-0.000790941 0.000368822 -0.000374414)
(-0.000842971 0.000225873 -0.000374414)
(-0.000869387 7.60615e-05 -0.000374414)
(-0.000869387 -7.60615e-05 -0.000374414)
(-0.000842971 -0.000225873 -0.000374414)
(-0.000790941 -0.000368822 -0.000374414)
(-0.00071488 -0.000500563 -0.000374414)
(-0.000617097 -0.000617097 -0.000374415)
(-0.000500563 -0.00071488 -0.000374414)
(-0.000368822 -0.000790941 -0.000374414)
(-0.000225873 -0.000842971 -0.000374414)
(-7.60615e-05 -0.000869387 -0.000374414)
(7.60615e-05 -0.000869387 -0.000374414)
(0.000225873 -0.000842971 -0.000374414)
(0.000368822 -0.000790941 -0.000374414)
(0.000500563 -0.00071488 -0.000374414)
(0.000617097 -0.000617097 -0.000374415)
(0.00071488 -0.000500563 -0.000374414)
(0.000790941 -0.000368822 -0.000374414)
(0.000842971 -0.000225873 -0.000374414)
(0.000869387 -7.60615e-05 -0.000374414)
(0.00107017 9.3628e-05 -0.00041135)
(0.00103766 0.000278039 -0.00041135)
(0.000973611 0.000454001 -0.00041135)
(0.000879983 0.00061617 -0.00041135)
(0.000759617 0.000759617 -0.00041135)
(0.00061617 0.000879983 -0.00041135)
(0.000454001 0.000973611 -0.00041135)
(0.000278039 0.00103766 -0.00041135)
(9.3628e-05 0.00107017 -0.00041135)
(-9.3628e-05 0.00107017 -0.00041135)
(-0.000278039 0.00103766 -0.00041135)
(-0.000454001 0.000973611 -0.00041135)
(-0.00061617 0.000879983 -0.00041135)
(-0.000759617 0.000759617 -0.00041135)
(-0.000879983 0.00061617 -0.00041135)
(-0.000973611 0.000454001 -0.00041135)
(-0.00103766 0.000278039 -0.00041135)
(-0.00107017 9.3628e-05 -0.00041135)
(-0.00107017 -9.3628e-05 -0.00041135)
(-0.00103766 -0.000278039 -0.00041135)
(-0.000973611 -0.000454001 -0.00041135)
(-0.000879983 -0.00061617 -0.00041135)
(-0.000759617 -0.000759617 -0.00041135)
(-0.00061617 -0.000879983 -0.00041135)
(-0.000454001 -0.000973611 -0.00041135)
(-0.000278039 -0.00103766 -0.00041135)
(-9.3628e-05 -0.00107017 -0.00041135)
(9.3628e-05 -0.00107017 -0.00041135)
(0.000278039 -0.00103766 -0.00041135)
(0.000454001 -0.000973611 -0.00041135)
(0.00061617 -0.000879983 -0.00041135)
(0.000759617 -0.000759617 -0.00041135)
(0.000879983 -0.00061617 -0.00041135)
(0.000973611 -0.000454001 -0.00041135)
(0.00103766 -0.000278039 -0.00041135)
(0.00107017 -9.3628e-05 -0.00041135)
(0.000932504 8.15835e-05 -0.000527622)
(0.00090417 0.000242272 -0.000527623)
(0.000848364 0.000395599 -0.000527623)
(0.00076678 0.000536905 -0.000527623)
(0.000661898 0.000661898 -0.000527623)
(0.000536905 0.00076678 -0.000527623)
(0.000395599 0.000848364 -0.000527623)
(0.000242272 0.00090417 -0.000527623)
(8.15835e-05 0.000932504 -0.000527622)
(-8.15835e-05 0.000932504 -0.000527622)
(-0.000242272 0.00090417 -0.000527623)
(-0.000395599 0.000848364 -0.000527623)
(-0.000536905 0.00076678 -0.000527623)
(-0.000661898 0.000661898 -0.000527623)
(-0.00076678 0.000536905 -0.000527623)
(-0.000848364 0.000395599 -0.000527623)
(-0.00090417 0.000242272 -0.000527623)
(-0.000932504 8.15835e-05 -0.000527622)
(-0.000932504 -8.15835e-05 -0.000527622)
(-0.00090417 -0.000242272 -0.000527623)
(-0.000848364 -0.000395599 -0.000527623)
(-0.00076678 -0.000536905 -0.000527623)
(-0.000661898 -0.000661898 -0.000527623)
(-0.000536905 -0.00076678 -0.000527623)
(-0.000395599 -0.000848364 -0.000527623)
(-0.000242272 -0.00090417 -0.000527623)
(-8.15835e-05 -0.000932504 -0.000527622)
(8.15835e-05 -0.000932504 -0.000527622)
(0.000242272 -0.00090417 -0.000527623)
(0.000395599 -0.000848364 -0.000527623)
(0.000536905 -0.00076678 -0.000527623)
(0.000661898 -0.000661898 -0.000527623)
(0.00076678 -0.000536905 -0.000527623)
(0.000848364 -0.000395599 -0.000527623)
(0.00090417 -0.000242272 -0.000527623)
(0.000932504 -8.15835e-05 -0.000527622)
(0.00111137 9.72321e-05 -0.000576615)
(0.0010776 0.000288742 -0.000576615)
(0.00101109 0.000471478 -0.000576615)
(0.000913856 0.000639889 -0.000576615)
(0.000788857 0.000788857 -0.000576615)
(0.000639889 0.000913856 -0.000576615)
(0.000471478 0.00101109 -0.000576615)
(0.000288742 0.0010776 -0.000576615)
(9.72321e-05 0.00111137 -0.000576615)
(-9.72321e-05 0.00111137 -0.000576615)
(-0.000288742 0.0010776 -0.000576615)
(-0.000471478 0.00101109 -0.000576615)
(-0.000639889 0.000913856 -0.000576615)
(-0.000788857 0.000788857 -0.000576615)
(-0.000913856 0.000639889 -0.000576615)
(-0.00101109 0.000471478 -0.000576615)
(-0.0010776 0.000288742 -0.000576615)
(-0.00111137 9.72321e-05 -0.000576615)
(-0.00111137 -9.72321e-05 -0.000576615)
(-0.0010776 -0.000288742 -0.000576615)
(-0.00101109 -0.000471478 -0.000576615)
(-0.000913856 -0.000639889 -0.000576615)
(-0.000788857 -0.000788857 -0.000576615)
(-0.000639889 -0.000913856 -0.000576615)
(-0.000471478 -0.00101109 -0.000576615)
(-0.000288742 -0.0010776 -0.000576615)
(-9.72321e-05 -0.00111137 -0.000576615)
(9.72321e-05 -0.00111137 -0.000576615)
(0.000288742 -0.0010776 -0.000576615)
(0.000471478 -0.00101109 -0.000576615)
(0.000639889 -0.000913856 -0.000576615)
(0.000788857 -0.000788857 -0.000576615)
(0.000913856 -0.000639889 -0.000576615)
(0.00101109 -0.000471478 -0.000576615)
(0.0010776 -0.000288742 -0.000576615)
(0.00111137 -9.72321e-05 -0.000576615)
(0.00133462 0.000116764 -0.000622134)
(0.00129407 0.000346745 -0.000622134)
(0.0012142 0.00056619 -0.000622134)
(0.00109744 0.000768432 -0.000622134)
(0.000947325 0.000947325 -0.000622134)
(0.000768432 0.00109744 -0.000622134)
(0.00056619 0.0012142 -0.000622134)
(0.000346745 0.00129407 -0.000622134)
(0.000116764 0.00133462 -0.000622134)
(-0.000116764 0.00133462 -0.000622134)
(-0.000346745 0.00129407 -0.000622134)
(-0.00056619 0.0012142 -0.000622134)
(-0.000768432 0.00109744 -0.000622134)
(-0.000947325 0.000947325 -0.000622134)
(-0.00109744 0.000768432 -0.000622134)
(-0.0012142 0.00056619 -0.000622134)
(-0.00129407 0.000346745 -0.000622134)
(-0.00133462 0.000116764 -0.000622134)
(-0.00133462 -0.000116764 -0.000622134)
(-0.00129407 -0.000346745 -0.000622134)
(-0.0012142 -0.00056619 -0.000622134)
(-0.00109744 -0.000768432 -0.000622134)
(-0.000947325 -0.000947325 -0.000622134)
(-0.000768432 -0.00109744 -0.000622134)
(-0.00056619 -0.0012142 -0.000622134)
(-0.000346745 -0.00129407 -0.000622134)
(-0.000116764 -0.00133462 -0.000622134)
(0.000116764 -0.00133462 -0.000622134)
(0.000346745 -0.00129407 -0.000622134)
(0.00056619 -0.0012142 -0.000622134)
(0.000768432 -0.00109744 -0.000622134)
(0.000947325 -0.000947325 -0.000622134)
(0.00109744 -0.000768432 -0.000622134)
(0.0012142 -0.00056619 -0.000622134)
(0.00129407 -0.000346745 -0.000622134)
(0.00133462 -0.000116764 -0.000622134)
(0.00107598 9.41361e-05 -0.000729441)
(0.00104329 0.000279548 -0.000729441)
(0.000978894 0.000456466 -0.000729441)
(0.000884758 0.000619514 -0.000729441)
(0.000763739 0.000763739 -0.000729441)
(0.000619514 0.000884758 -0.000729441)
(0.000456466 0.000978894 -0.000729441)
(0.000279548 0.00104329 -0.000729441)
(9.41361e-05 0.00107598 -0.000729441)
(-9.41361e-05 0.00107598 -0.000729441)
(-0.000279548 0.00104329 -0.000729441)
(-0.000456466 0.000978894 -0.000729441)
(-0.000619514 0.000884758 -0.000729441)
(-0.000763739 0.000763739 -0.000729441)
(-0.000884758 0.000619514 -0.000729441)
(-0.000978894 0.000456466 -0.000729441)
(-0.00104329 0.000279548 -0.000729441)
(-0.00107598 9.41361e-05 -0.000729441)
(-0.00107598 -9.41361e-05 -0.000729441)
(-0.00104329 -0.000279548 -0.000729441)
(-0.000978894 -0.000456466 -0.000729441)
(-0.000884758 -0.000619514 -0.000729441)
(-0.000763739 -0.000763739 -0.000729441)
(-0.000619514 -0.000884758 -0.000729441)
(-0.000456466 -0.000978894 -0.000729441)
(-0.000279548 -0.00104329 -0.000729441)
(-9.41361e-05 -0.00107598 -0.000729441)
(9.41361e-05 -0.00107598 -0.000729441)
(0.000279548 -0.00104329 -0.000729441)
(0.000456466 -0.000978894 -0.000729441)
(0.000619514 -0.000884758 -0.000729441)
(0.000763739 -0.000763739 -0.000729441)
(0.000884758 -0.000619514 -0.000729441)
(0.000978894 -0.000456466 -0.000729441)
(0.00104329 -0.000279548 -0.000729441)
(0.00107598 -9.41361e-05 -0.000729441)
(0.00126178 0.000110392 -0.000781335)
(0.00122344 0.00032782 -0.000781335)
(0.00114793 0.000535288 -0.000781335)
(0.00103754 0.000726492 -0.000781335)
(0.000895621 0.000895621 -0.000781335)
(0.000726492 0.00103754 -0.000781335)
(0.000535288 0.00114793 -0.000781335)
(0.00032782 0.00122344 -0.000781335)
(0.000110392 0.00126178 -0.000781335)
(-0.000110392 0.00126178 -0.000781335)
(-0.00032782 0.00122344 -0.000781335)
(-0.000535288 0.00114793 -0.000781335)
(-0.000726492 0.00103754 -0.000781335)
(-0.000895621 0.000895621 -0.000781335)
(-0.00103754 0.000726492 -0.000781335)
(-0.00114793 0.000535288 -0.000781335)
(-0.00122344 0.00032782 -0.000781335)
(-0.00126178 0.000110392 -0.000781335)
(-0.00126178 -0.000110392 -0.000781335)
(-0.00122344 -0.00032782 -0.000781335)
(-0.00114793 -0.000535288 -0.000781335)
(-0.00103754 -0.000726492 -0.000781335)
(-0.000895621 -0.000895621 -0.000781335)
(-0.000726492 -0.00103754 -0.000781335)
(-0.000535288 -0.00114793 -0.000781335)
(-0.00032782 -0.00122344 -0.000781335)
(-0.000110392 -0.00126178 -0.000781335)
(0.000110392 -0.00126178 -0.000781335)
(0.00032782 -0.00122344 -0.000781335)
(0.000535288 -0.00114793 -0.000781335)
(0.000726492 -0.00103754 -0.000781335)
(0.000895621 -0.000895621 -0.000781335)
(0.00103754 -0.000726492 -0.000781335)
(0.00114793 -0.000535288 -0.000781335)
(0.00122344 -0.00032782 -0.000781335)
(0.00126178 -0.000110392 -0.000781335)
(0.00149447 0.000130749 -0.000833478)
(0.00144906 0.000388274 -0.000833478)
(0.00135962 0.000634002 -0.000833478)
(0.00122887 0.000860465 -0.000833478)
(0.00106078 0.00106078 -0.000833478)
(0.000860465 0.00122887 -0.000833478)
(0.000634002 0.00135962 -0.000833478)
(0.000388274 0.00144906 -0.000833478)
(0.000130749 0.00149447 -0.000833478)
(-0.000130749 0.00149447 -0.000833478)
(-0.000388274 0.00144906 -0.000833478)
(-0.000634002 0.00135962 -0.000833478)
(-0.000860465 0.00122887 -0.000833478)
(-0.00106078 0.00106078 -0.000833478)
(-0.00122887 0.000860465 -0.000833478)
(-0.00135962 0.000634002 -0.000833478)
(-0.00144906 0.000388274 -0.000833478)
(-0.00149447 0.000130749 -0.000833478)
(-0.00149447 -0.000130749 -0.000833478)
(-0.00144906 -0.000388274 -0.000833478)
(-0.00135962 -0.000634002 -0.000833478)
(-0.00122887 -0.000860465 -0.000833478)
(-0.00106078 -0.00106078 -0.000833478)
(-0.000860465 -0.00122887 -0.000833478)
(-0.000634002 -0.00135962 -0.000833478)
(-0.000388274 -0.00144906 -0.000833478)
(-0.000130749 -0.00149447 -0.000833478)
(0.000130749 -0.00149447 -0.000833478)
(0.000388274 -0.00144906 -0.000833478)
(0.000634002 -0.00135962 -0.000833478)
(0.000860465 -0.00122887 -0.000833478)
(0.00106078 -0.00106078 -0.000833478)
(0.00122887 -0.000860465 -0.000833478)
(0.00135962 -0.000634002 -0.000833478)
(0.00144906 -0.000388274 -0.000833478)
(0.00149447 -0.000130749 -0.000833478)
(0.00113511 9.93091e-05 -0.0009196)
(0.00110062 0.000294909 -0.0009196)
(0.00103268 0.000481549 -0.0009196)
(0.000933376 0.000653557 -0.000919601)
(0.000805707 0.000805707 -0.000919601)
(0.000653557 0.000933376 -0.000919601)
(0.000481549 0.00103268 -0.0009196)
(0.000294909 0.00110062 -0.0009196)
(9.93091e-05 0.00113511 -0.0009196)
(-9.93091e-05 0.00113511 -0.0009196)
(-0.000294909 0.00110062 -0.0009196)
(-0.000481549 0.00103268 -0.0009196)
(-0.000653557 0.000933376 -0.000919601)
(-0.000805707 0.000805707 -0.000919601)
(-0.000933376 0.000653557 -0.000919601)
(-0.00103268 0.000481549 -0.0009196)
(-0.00110062 0.000294909 -0.0009196)
(-0.00113511 9.93091e-05 -0.0009196)
(-0.00113511 -9.93091e-05 -0.0009196)
(-0.00110062 -0.000294909 -0.0009196)
(-0.00103268 -0.000481549 -0.0009196)
(-0.000933376 -0.000653557 -0.000919601)
(-0.000805707 -0.000805707 -0.000919601)
(-0.000653557 -0.000933376 -0.000919601)
(-0.000481549 -0.00103268 -0.0009196)
(-0.000294909 -0.00110062 -0.0009196)
(-9.93091e-05 -0.00113511 -0.0009196)
(9.93091e-05 -0.00113511 -0.0009196)
(0.000294909 -0.00110062 -0.0009196)
(0.000481549 -0.00103268 -0.0009196)
(0.000653557 -0.000933376 -0.000919601)
(0.000805707 -0.000805707 -0.000919601)
(0.000933376 -0.000653557 -0.000919601)
(0.00103268 -0.000481549 -0.0009196)
(0.00110062 -0.000294909 -0.0009196)
(0.00113511 -9.93091e-05 -0.0009196)
(0.00131956 0.000115446 -0.000973582)
(0.00127946 0.000342832 -0.000973583)
(0.00120049 0.000559799 -0.000973583)
(0.00108505 0.000759758 -0.000973583)
(0.000936632 0.000936632 -0.000973583)
(0.000759758 0.00108505 -0.000973583)
(0.000559799 0.00120049 -0.000973583)
(0.000342832 0.00127946 -0.000973583)
(0.000115446 0.00131956 -0.000973582)
(-0.000115446 0.00131956 -0.000973582)
(-0.000342832 0.00127946 -0.000973583)
(-0.000559799 0.00120049 -0.000973583)
(-0.000759758 0.00108505 -0.000973583)
(-0.000936632 0.000936632 -0.000973583)
(-0.00108505 0.000759758 -0.000973583)
(-0.00120049 0.000559799 -0.000973583)
(-0.00127946 0.000342832 -0.000973583)
(-0.00131956 0.000115446 -0.000973582)
(-0.00131956 -0.000115446 -0.000973582)
(-0.00127946 -0.000342832 -0.000973583)
(-0.00120049 -0.000559799 -0.000973583)
(-0.00108505 -0.000759758 -0.000973583)
(-0.000936632 -0.000936632 -0.000973583)
(-0.000759758 -0.00108505 -0.000973583)
(-0.000559799 -0.00120049 -0.000973583)
(-0.000342832 -0.00127946 -0.000973583)
(-0.000115446 -0.00131956 -0.000973582)
(0.000115446 -0.00131956 -0.000973582)
(0.000342832 -0.00127946 -0.000973583)
(0.000559799 -0.00120049 -0.000973583)
(0.000759758 -0.00108505 -0.000973583)
(0.000936632 -0.000936632 -0.000973583)
(0.00108505 -0.000759758 -0.000973583)
(0.00120049 -0.000559799 -0.000973583)
(0.00127946 -0.000342832 -0.000973583)
(0.00131956 -0.000115446 -0.000973582)
(0.00155309 0.000135878 -0.00103225)
(0.0015059 0.000403505 -0.00103225)
(0.00141295 0.000658872 -0.00103225)
(0.00127708 0.000894219 -0.00103226)
(0.0011024 0.0011024 -0.00103226)
(0.000894219 0.00127708 -0.00103226)
(0.000658872 0.00141295 -0.00103225)
(0.000403505 0.0015059 -0.00103225)
(0.000135878 0.00155309 -0.00103225)
(-0.000135878 0.00155309 -0.00103225)
(-0.000403505 0.0015059 -0.00103225)
(-0.000658872 0.00141295 -0.00103225)
(-0.000894219 0.00127708 -0.00103226)
(-0.0011024 0.0011024 -0.00103226)
(-0.00127708 0.000894219 -0.00103226)
(-0.00141295 0.000658872 -0.00103225)
(-0.0015059 0.000403505 -0.00103225)
(-0.00155309 0.000135878 -0.00103225)
(-0.00155309 -0.000135878 -0.00103225)
(-0.0015059 -0.000403505 -0.00103225)
(-0.00141295 -0.000658872 -0.00103225)
(-0.00127708 -0.000894219 -0.00103226)
(-0.0011024 -0.0011024 -0.00103226)
(-0.000894219 -0.00127708 -0.00103226)
(-0.000658872 -0.00141295 -0.00103225)
(-0.000403505 -0.0015059 -0.00103225)
(-0.000135878 -0.00155309 -0.00103225)
(0.000135878 -0.00155309 -0.00103225)
(0.000403505 -0.0015059 -0.00103225)
(0.000658872 -0.00141295 -0.00103225)
(0.000894219 -0.00127708 -0.00103226)
(0.0011024 -0.0011024 -0.00103226)
(0.00127708 -0.000894219 -0.00103226)
(0.00141295 -0.000658872 -0.00103225)
(0.0015059 -0.000403505 -0.00103225)
(0.00155309 -0.000135878 -0.00103225)
(0.00111419 9.74789e-05 -0.00108592)
(0.00108033 0.000289475 -0.00108592)
(0.00101366 0.000472676 -0.00108592)
(0.000916177 0.000641514 -0.00108592)
(0.000790861 0.000790861 -0.00108592)
(0.000641514 0.000916177 -0.00108592)
(0.000472676 0.00101366 -0.00108592)
(0.000289475 0.00108033 -0.00108592)
(9.74789e-05 0.00111419 -0.00108592)
(-9.74789e-05 0.00111419 -0.00108592)
(-0.000289475 0.00108033 -0.00108592)
(-0.000472676 0.00101366 -0.00108592)
(-0.000641514 0.000916177 -0.00108592)
(-0.000790861 0.000790861 -0.00108592)
(-0.000916177 0.000641514 -0.00108592)
(-0.00101366 0.000472676 -0.00108592)
(-0.00108033 0.000289475 -0.00108592)
(-0.00111419 9.74789e-05 -0.00108592)
(-0.00111419 -9.74789e-05 -0.00108592)
(-0.00108033 -0.000289475 -0.00108592)
(-0.00101366 -0.000472676 -0.00108592)
(-0.000916177 -0.000641514 -0.00108592)
(-0.000790861 -0.000790861 -0.00108592)
(-0.000641514 -0.000916177 -0.00108592)
(-0.000472676 -0.00101366 -0.00108592)
(-0.000289475 -0.00108033 -0.00108592)
(-9.74789e-05 -0.00111419 -0.00108592)
(9.74789e-05 -0.00111419 -0.00108592)
(0.000289475 -0.00108033 -0.00108592)
(0.000472676 -0.00101366 -0.00108592)
(0.000641514 -0.000916177 -0.00108592)
(0.000790861 -0.000790861 -0.00108592)
(0.000916177 -0.000641514 -0.00108592)
(0.00101366 -0.000472676 -0.00108592)
(0.00108033 -0.000289475 -0.00108592)
(0.00111419 -9.74789e-05 -0.00108592)
(0.00129224 0.000113056 -0.00114203)
(0.00125297 0.000335734 -0.00114202)
(0.00117564 0.00054821 -0.00114203)
(0.00106258 0.000744029 -0.00114203)
(0.00091724 0.00091724 -0.00114203)
(0.000744029 0.00106258 -0.00114203)
(0.00054821 0.00117564 -0.00114203)
(0.000335734 0.00125297 -0.00114202)
(0.000113056 0.00129224 -0.00114203)
(-0.000113056 0.00129224 -0.00114203)
(-0.000335734 0.00125297 -0.00114202)
(-0.00054821 0.00117564 -0.00114203)
(-0.000744029 0.00106258 -0.00114203)
(-0.00091724 0.00091724 -0.00114203)
(-0.00106258 0.000744029 -0.00114203)
(-0.00117564 0.00054821 -0.00114203)
(-0.00125297 0.000335734 -0.00114202)
(-0.00129224 0.000113056 -0.00114203)
(-0.00129224 -0.000113056 -0.00114203)
(-0.00125297 -0.000335734 -0.00114202)
(-0.00117564 -0.00054821 -0.00114203)
(-0.00106258 -0.000744029 -0.00114203)
(-0.00091724 -0.00091724 -0.00114203)
(-0.000744029 -0.00106258 -0.00114203)
(-0.00054821 -0.00117564 -0.00114203)
(-0.000335734 -0.00125297 -0.00114202)
(-0.000113056 -0.00129224 -0.00114203)
(0.000113056 -0.00129224 -0.00114203)
(0.000335734 -0.00125297 -0.00114202)
(0.00054821 -0.00117564 -0.00114203)
(0.000744029 -0.00106258 -0.00114203)
(0.00091724 -0.00091724 -0.00114203)
(0.00106258 -0.000744029 -0.00114203)
(0.00117564 -0.00054821 -0.00114203)
(0.00125297 -0.000335734 -0.00114202)
(0.00129224 -0.000113056 -0.00114203)
(0.00152101 0.000133071 -0.00120775)
(0.00147479 0.00039517 -0.00120775)
(0.00138377 0.000645262 -0.00120775)
(0.0012507 0.000875747 -0.00120775)
(0.00107962 0.00107962 -0.00120775)
(0.000875747 0.0012507 -0.00120775)
(0.000645262 0.00138377 -0.00120775)
(0.00039517 0.00147479 -0.00120775)
(0.000133071 0.00152101 -0.00120775)
(-0.000133071 0.00152101 -0.00120775)
(-0.00039517 0.00147479 -0.00120775)
(-0.000645262 0.00138377 -0.00120775)
(-0.000875747 0.0012507 -0.00120775)
(-0.00107962 0.00107962 -0.00120775)
(-0.0012507 0.000875747 -0.00120775)
(-0.00138377 0.000645262 -0.00120775)
(-0.00147479 0.00039517 -0.00120775)
(-0.00152101 0.000133071 -0.00120775)
(-0.00152101 -0.000133071 -0.00120775)
(-0.00147479 -0.00039517 -0.00120775)
(-0.00138377 -0.000645262 -0.00120775)
(-0.0012507 -0.000875747 -0.00120775)
(-0.00107962 -0.00107962 -0.00120775)
(-0.000875747 -0.0012507 -0.00120775)
(-0.000645262 -0.00138377 -0.00120775)