/*--------------------------------*- C++ -*----------------------------------*\
| =========                 |                                                 |
| \\      /  F ield         | OpenFOAM: The Open Source CFD Toolbox           |
|  \\    /   O peration     | Version:  2312                                  |
|   \\  /    A nd           | Website:  www.openfoam.com                      |
|    \\/     M anipulation  |                                                 |
\*---------------------------------------------------------------------------*/
FoamFile
{
    version     2.0;
    format      ascii;
    arch        "LSB;label=32;scalar=64";
    class       volVectorField;
    location    "0.4";
    object      U;
}
// * * * * * * * * * * * * * * * * * * * * * * * * * * * * * * * * * * * * * //

dimensions      [0 1 -1 0 0 0 0];

internalField   nonuniform List<vector> 
1620
(
(0.000596997 5.22304e-05 -0.00037115)
(0.000578857 0.000155104 -0.00037115)
(0.000543129 0.000253265 -0.000371151)
(0.000490899 0.000343731 -0.000371152)
(0.000423753 0.000423753 -0.000371152)
(0.000343731 0.000490899 -0.000371152)
(0.000253265 0.000543129 -0.000371151)
(0.000155104 0.000578857 -0.00037115)
(5.22304e-05 0.000596997 -0.00037115)
(-5.22304e-05 0.000596997 -0.00037115)
(-0.000155104 0.000578857 -0.00037115)
(-0.000253265 0.000543129 -0.000371151)
(-0.000343731 0.000490899 -0.000371152)
(-0.000423753 0.000423753 -0.000371152)
(-0.000490899 0.000343731 -0.000371152)
(-0.000543129 0.000253265 -0.000371151)
(-0.000578857 0.000155104 -0.00037115)
(-0.000596997 5.22304e-05 -0.00037115)
(-0.000596997 -5.22304e-05 -0.00037115)
(-0.000578857 -0.000155104 -0.00037115)
(-0.000543129 -0.000253265 -0.000371151)
(-0.000490899 -0.000343731 -0.000371152)
(-0.000423753 -0.000423753 -0.000371152)
(-0.000343731 -0.000490899 -0.000371152)
(-0.000253265 -0.000543129 -0.000371151)
(-0.000155104 -0.000578857 -0.00037115)
(-5.22304e-05 -0.000596997 -0.00037115)
(5.22304e-05 -0.000596997 -0.00037115)
(0.000155104 -0.000578857 -0.00037115)
(0.000253265 -0.000543129 -0.000371151)
(0.000343731 -0.000490899 -0.000371152)
(0.000423753 -0.000423753 -0.000371152)
(0.000490899 -0.000343731 -0.000371152)
(0.000543129 -0.000253265 -0.000371151)
(0.000578857 -0.000155104 -0.00037115)
(0.000596997 -5.22304e-05 -0.00037115)
(0.000942844 8.24877e-05 -0.000314243)
(0.000914196 0.000244957 -0.000314243)
(0.000857769 0.000399984 -0.000314243)
(0.000775281 0.000542857 -0.000314244)
(0.000669237 0.000669237 -0.000314244)
(0.000542857 0.000775281 -0.000314244)
(0.000399984 0.000857769 -0.000314243)
(0.000244957 0.000914196 -0.000314243)
(8.24877e-05 0.000942844 -0.000314243)
(-8.24877e-05 0.000942844 -0.000314243)
(-0.000244957 0.000914196 -0.000314243)
(-0.000399984 0.000857769 -0.000314243)
(-0.000542857 0.000775281 -0.000314244)
(-0.000669237 0.000669237 -0.000314244)
(-0.000775281 0.000542857 -0.000314244)
(-0.000857769 0.000399984 -0.000314243)
(-0.000914196 0.000244957 -0.000314243)
(-0.000942844 8.24877e-05 -0.000314243)
(-0.000942844 -8.24877e-05 -0.000314243)
(-0.000914196 -0.000244957 -0.000314243)
(-0.000857769 -0.000399984 -0.000314243)
(-0.000775281 -0.000542857 -0.000314244)
(-0.000669237 -0.000669237 -0.000314244)
(-0.000542857 -0.000775281 -0.000314244)
(-0.000399984 -0.000857769 -0.000314243)
(-0.000244957 -0.000914196 -0.000314243)
(-8.24877e-05 -0.000942844 -0.000314243)
(8.24877e-05 -0.000942844 -0.000314243)
(0.000244957 -0.000914196 -0.000314243)
(0.000399984 -0.000857769 -0.000314243)
(0.000542857 -0.000775281 -0.000314244)
(0.000669237 -0.000669237 -0.000314244)
(0.000775281 -0.000542857 -0.000314244)
(0.000857769 -0.000399984 -0.000314243)
(0.000914196 -0.000244957 -0.000314243)
(0.000942844 -8.24877e-05 -0.000314243)
(0.00134766 0.000117904 -0.000212744)
(0.00130671 0.00035013 -0.000212744)
(0.00122606 0.000571719 -0.000212744)
(0.00110815 0.000775936 -0.000212744)
(0.000956577 0.000956577 -0.000212745)
(0.000775936 0.00110815 -0.000212744)
(0.000571719 0.00122606 -0.000212744)
(0.00035013 0.00130671 -0.000212744)
(0.000117904 0.00134766 -0.000212744)
(-0.000117904 0.00134766 -0.000212744)
(-0.00035013 0.00130671 -0.000212744)
(-0.000571719 0.00122606 -0.000212744)
(-0.000775936 0.00110815 -0.000212744)
(-0.000956577 0.000956577 -0.000212745)
(-0.00110815 0.000775936 -0.000212744)
(-0.00122606 0.000571719 -0.000212744)
(-0.00130671 0.00035013 -0.000212744)
(-0.00134766 0.000117904 -0.000212744)
(-0.00134766 -0.000117904 -0.000212744)
(-0.00130671 -0.00035013 -0.000212744)
(-0.00122606 -0.000571719 -0.000212744)
(-0.00110815 -0.000775936 -0.000212744)
(-0.000956577 -0.000956577 -0.000212745)
(-0.000775936 -0.00110815 -0.000212744)
(-0.000571719 -0.00122606 -0.000212744)
(-0.00035013 -0.00130671 -0.000212744)
(-0.000117904 -0.00134766 -0.000212744)
(0.000117904 -0.00134766 -0.000212744)
(0.00035013 -0.00130671 -0.000212744)
(0.000571719 -0.00122606 -0.000212744)
(0.000775936 -0.00110815 -0.000212744)
(0.000956577 -0.000956577 -0.000212745)
(0.00110815 -0.000775936 -0.000212744)
(0.00122606 -0.000571719 -0.000212744)
(0.00130671 -0.00035013 -0.000212744)
(0.00134766 -0.000117904 -0.000212744)
(0.00218714 0.00019135 -0.00109908)
(0.00212068 0.000568235 -0.00109909)
(0.00198979 0.000927854 -0.00109909)
(0.00179844 0.00125928 -0.00109909)
(0.00155244 0.00155244 -0.00109909)
(0.00125928 0.00179844 -0.00109909)
(0.000927854 0.00198979 -0.00109909)
(0.000568235 0.00212068 -0.00109909)
(0.00019135 0.00218714 -0.00109908)
(-0.00019135 0.00218714 -0.00109908)
(-0.000568235 0.00212068 -0.00109909)
(-0.000927854 0.00198979 -0.00109909)
(-0.00125928 0.00179844 -0.00109909)
(-0.00155244 0.00155244 -0.00109909)
(-0.00179844 0.00125928 -0.00109909)
(-0.00198979 0.000927854 -0.00109909)
(-0.00212068 0.000568235 -0.00109909)
(-0.00218714 0.00019135 -0.00109908)
(-0.00218714 -0.00019135 -0.00109908)
(-0.00212068 -0.000568235 -0.00109909)
(-0.00198979 -0.000927854 -0.00109909)
(-0.00179844 -0.00125928 -0.00109909)
(-0.00155244 -0.00155244 -0.00109909)
(-0.00125928 -0.00179844 -0.00109909)
(-0.000927854 -0.00198979 -0.00109909)
(-0.000568235 -0.00212068 -0.00109909)
(-0.00019135 -0.00218714 -0.00109908)
(0.00019135 -0.00218714 -0.00109908)
(0.000568235 -0.00212068 -0.00109909)
(0.000927854 -0.00198979 -0.00109909)
(0.00125928 -0.00179844 -0.00109909)
(0.00155244 -0.00155244 -0.00109909)
(0.00179844 -0.00125928 -0.00109909)
(0.00198979 -0.000927854 -0.00109909)
(0.00212068 -0.000568235 -0.00109909)
(0.00218714 -0.00019135 -0.00109908)
(0.0027665 0.000242037 -0.00108173)
(0.00268244 0.000718757 -0.00108173)
(0.00251688 0.00117364 -0.00108173)
(0.00227484 0.00159286 -0.00108173)
(0.00196368 0.00196368 -0.00108174)
(0.00159286 0.00227484 -0.00108173)
(0.00117364 0.00251688 -0.00108173)
(0.000718757 0.00268244 -0.00108173)
(0.000242037 0.0027665 -0.00108173)
(-0.000242037 0.0027665 -0.00108173)
(-0.000718757 0.00268244 -0.00108173)
(-0.00117364 0.00251688 -0.00108173)
(-0.00159286 0.00227484 -0.00108173)
(-0.00196368 0.00196368 -0.00108174)
(-0.00227484 0.00159286 -0.00108173)
(-0.00251688 0.00117364 -0.00108173)
(-0.00268244 0.000718757 -0.00108173)
(-0.0027665 0.000242037 -0.00108173)
(-0.0027665 -0.000242037 -0.00108173)
(-0.00268244 -0.000718757 -0.00108173)
(-0.00251688 -0.00117364 -0.00108173)
(-0.00227484 -0.00159286 -0.00108173)
(-0.00196368 -0.00196368 -0.00108174)
(-0.00159286 -0.00227484 -0.00108173)
(-0.00117364 -0.00251688 -0.00108173)
(-0.000718757 -0.00268244 -0.00108173)
(-0.000242037 -0.0027665 -0.00108173)
(0.000242037 -0.0027665 -0.00108173)
(0.000718757 -0.00268244 -0.00108173)
(0.00117364 -0.00251688 -0.00108173)
(0.00159286 -0.00227484 -0.00108173)
(0.00196368 -0.00196368 -0.00108174)
(0.00227484 -0.00159286 -0.00108173)
(0.00251688 -0.00117364 -0.00108173)
(0.00268244 -0.000718757 -0.00108173)
(0.0027665 -0.000242037 -0.00108173)
(0.00343832 0.000300813 -0.0010091)
(0.00333384 0.000893299 -0.0010091)
(0.00312807 0.00145864 -0.0010091)
(0.00282726 0.00197967 -0.00100909)
(0.00244054 0.00244054 -0.0010091)
(0.00197967 0.00282726 -0.00100909)
(0.00145864 0.00312807 -0.0010091)
(0.000893299 0.00333384 -0.0010091)
(0.000300813 0.00343832 -0.0010091)
(-0.000300813 0.00343832 -0.0010091)
(-0.000893299 0.00333384 -0.0010091)
(-0.00145864 0.00312807 -0.0010091)
(-0.00197967 0.00282726 -0.00100909)
(-0.00244054 0.00244054 -0.0010091)
(-0.00282726 0.00197967 -0.00100909)
(-0.00312807 0.00145864 -0.0010091)
(-0.00333384 0.000893299 -0.0010091)
(-0.00343832 0.000300813 -0.0010091)
(-0.00343832 -0.000300813 -0.0010091)
(-0.00333384 -0.000893299 -0.0010091)
(-0.00312807 -0.00145864 -0.0010091)
(-0.00282726 -0.00197967 -0.00100909)
(-0.00244054 -0.00244054 -0.0010091)
(-0.00197967 -0.00282726 -0.00100909)
(-0.00145864 -0.00312807 -0.0010091)
(-0.000893299 -0.00333384 -0.0010091)
(-0.000300813 -0.00343832 -0.0010091)
(0.000300813 -0.00343832 -0.0010091)
(0.000893299 -0.00333384 -0.0010091)
(0.00145864 -0.00312807 -0.0010091)
(0.00197967 -0.00282726 -0.00100909)
(0.00244054 -0.00244054 -0.0010091)
(0.00282726 -0.00197967 -0.00100909)
(0.00312807 -0.00145864 -0.0010091)
(0.00333384 -0.000893299 -0.0010091)
(0.00343832 -0.000300813 -0.0010091)
(0.00364018 0.000318474 -0.00209836)
(0.00352958 0.000945746 -0.00209836)
(0.00331173 0.00154428 -0.00209836)
(0.00299325 0.0020959 -0.00209836)
(0.00258383 0.00258383 -0.00209836)
(0.0020959 0.00299325 -0.00209836)
(0.00154428 0.00331173 -0.00209836)
(0.000945746 0.00352958 -0.00209836)
(0.000318474 0.00364018 -0.00209836)
(-0.000318474 0.00364018 -0.00209836)
(-0.000945746 0.00352958 -0.00209836)
(-0.00154428 0.00331173 -0.00209836)
(-0.0020959 0.00299325 -0.00209836)
(-0.00258383 0.00258383 -0.00209836)
(-0.00299325 0.0020959 -0.00209836)
(-0.00331173 0.00154428 -0.00209836)
(-0.00352958 0.000945746 -0.00209836)
(-0.00364018 0.000318474 -0.00209836)
(-0.00364018 -0.000318474 -0.00209836)
(-0.00352958 -0.000945746 -0.00209836)
(-0.00331173 -0.00154428 -0.00209836)
(-0.00299325 -0.0020959 -0.00209836)
(-0.00258383 -0.00258383 -0.00209836)
(-0.0020959 -0.00299325 -0.00209836)
(-0.00154428 -0.00331173 -0.00209836)
(-0.000945746 -0.00352958 -0.00209836)
(-0.000318474 -0.00364018 -0.00209836)
(0.000318474 -0.00364018 -0.00209836)
(0.000945746 -0.00352958 -0.00209836)
(0.00154428 -0.00331173 -0.00209836)
(0.0020959 -0.00299325 -0.00209836)
(0.00258383 -0.00258383 -0.00209836)
(0.00299325 -0.0020959 -0.00209836)
(0.00331173 -0.00154428 -0.00209836)
(0.00352958 -0.000945746 -0.00209836)
(0.00364018 -0.000318474 -0.00209836)
(0.00438119 0.000383305 -0.00210327)
(0.00424807 0.00113827 -0.00210327)
(0.00398587 0.00185864 -0.00210327)
(0.00360257 0.00252254 -0.00210327)
(0.0031098 0.0031098 -0.00210328)
(0.00252254 0.00360257 -0.00210327)
(0.00185864 0.00398587 -0.00210327)
(0.00113827 0.00424807 -0.00210327)
(0.000383305 0.00438119 -0.00210327)
(-0.000383305 0.00438119 -0.00210327)
(-0.00113827 0.00424807 -0.00210327)
(-0.00185864 0.00398587 -0.00210327)
(-0.00252254 0.00360257 -0.00210327)
(-0.0031098 0.0031098 -0.00210328)
(-0.00360257 0.00252254 -0.00210327)
(-0.00398587 0.00185864 -0.00210327)
(-0.00424807 0.00113827 -0.00210327)
(-0.00438119 0.000383305 -0.00210327)
(-0.00438119 -0.000383305 -0.00210327)
(-0.00424807 -0.00113827 -0.00210327)
(-0.00398587 -0.00185864 -0.00210327)
(-0.00360257 -0.00252254 -0.00210327)
(-0.0031098 -0.0031098 -0.00210328)
(-0.00252254 -0.00360257 -0.00210327)
(-0.00185864 -0.00398587 -0.00210327)
(-0.00113827 -0.00424807 -0.00210327)
(-0.000383305 -0.00438119 -0.00210327)
(0.000383305 -0.00438119 -0.00210327)
(0.00113827 -0.00424807 -0.00210327)
(0.00185864 -0.00398587 -0.00210327)
(0.00252254 -0.00360257 -0.00210327)
(0.0031098 -0.0031098 -0.00210328)
(0.00360257 -0.00252254 -0.00210327)
(0.00398587 -0.00185864 -0.00210327)
(0.00424807 -0.00113827 -0.00210327)
(0.00438119 -0.000383305 -0.00210327)
(0.00523674 0.000458155 -0.00205556)
(0.00507762 0.00136054 -0.00205556)
(0.00476422 0.00222159 -0.00205556)
(0.00430607 0.00301514 -0.00205556)
(0.00371707 0.00371707 -0.00205557)
(0.00301514 0.00430607 -0.00205556)
(0.00222159 0.00476422 -0.00205556)
(0.00136054 0.00507762 -0.00205556)
(0.000458155 0.00523674 -0.00205556)
(-0.000458155 0.00523674 -0.00205556)
(-0.00136054 0.00507762 -0.00205556)
(-0.00222159 0.00476422 -0.00205556)
(-0.00301514 0.00430607 -0.00205556)
(-0.00371707 0.00371707 -0.00205557)
(-0.00430607 0.00301514 -0.00205556)
(-0.00476422 0.00222159 -0.00205556)
(-0.00507762 0.00136054 -0.00205556)
(-0.00523674 0.000458155 -0.00205556)
(-0.00523674 -0.000458155 -0.00205556)
(-0.00507762 -0.00136054 -0.00205556)
(-0.00476422 -0.00222159 -0.00205556)
(-0.00430607 -0.00301514 -0.00205556)
(-0.00371707 -0.00371707 -0.00205557)
(-0.00301514 -0.00430607 -0.00205556)
(-0.00222159 -0.00476422 -0.00205556)
(-0.00136054 -0.00507762 -0.00205556)
(-0.000458155 -0.00523674 -0.00205556)
(0.000458155 -0.00523674 -0.00205556)
(0.00136054 -0.00507762 -0.00205556)
(0.00222159 -0.00476422 -0.00205556)
(0.00301514 -0.00430607 -0.00205556)
(0.00371707 -0.00371707 -0.00205557)
(0.00430607 -0.00301514 -0.00205556)
(0.00476422 -0.00222159 -0.00205556)
(0.00507762 -0.00136054 -0.00205556)
(0.00523674 -0.000458155 -0.00205556)
(0.00479846 0.00041981 -0.00327637)
(0.00465266 0.00124667 -0.00327637)
(0.00436549 0.00203566 -0.00327637)
(0.00394568 0.00276279 -0.00327637)
(0.00340598 0.00340598 -0.00327637)
(0.00276279 0.00394568 -0.00327637)
(0.00203566 0.00436549 -0.00327637)
(0.00124667 0.00465266 -0.00327637)
(0.00041981 0.00479846 -0.00327637)
(-0.00041981 0.00479846 -0.00327637)
(-0.00124667 0.00465266 -0.00327637)
(-0.00203566 0.00436549 -0.00327637)
(-0.00276279 0.00394568 -0.00327637)
(-0.00340598 0.00340598 -0.00327637)
(-0.00394568 0.00276279 -0.00327637)
(-0.00436549 0.00203566 -0.00327637)
(-0.00465266 0.00124667 -0.00327637)
(-0.00479846 0.00041981 -0.00327637)
(-0.00479846 -0.00041981 -0.00327637)
(-0.00465266 -0.00124667 -0.00327637)
(-0.00436549 -0.00203566 -0.00327637)
(-0.00394568 -0.00276279 -0.00327637)
(-0.00340598 -0.00340598 -0.00327637)
(-0.00276279 -0.00394568 -0.00327637)
(-0.00203566 -0.00436549 -0.00327637)
(-0.00124667 -0.00465266 -0.00327637)
(-0.00041981 -0.00479846 -0.00327637)
(0.00041981 -0.00479846 -0.00327637)
(0.00124667 -0.00465266 -0.00327637)
(0.00203566 -0.00436549 -0.00327637)
(0.00276279 -0.00394568 -0.00327637)
(0.00340598 -0.00340598 -0.00327637)
(0.00394568 -0.00276279 -0.00327637)
(0.00436549 -0.00203566 -0.00327637)
(0.00465266 -0.00124667 -0.00327637)
(0.00479846 -0.00041981 -0.00327637)
(0.0056343 0.000492937 -0.0033134)
(0.0054631 0.00146383 -0.0033134)
(0.00512591 0.00239025 -0.0033134)
(0.00463298 0.00324404 -0.0033134)
(0.00399927 0.00399927 -0.0033134)
(0.00324404 0.00463298 -0.0033134)
(0.00239025 0.00512591 -0.0033134)
(0.00146383 0.0054631 -0.0033134)
(0.000492937 0.0056343 -0.0033134)
(-0.000492937 0.0056343 -0.0033134)
(-0.00146383 0.0054631 -0.0033134)
(-0.00239025 0.00512591 -0.0033134)
(-0.00324404 0.00463298 -0.0033134)
(-0.00399927 0.00399927 -0.0033134)
(-0.00463298 0.00324404 -0.0033134)
(-0.00512591 0.00239025 -0.0033134)
(-0.0054631 0.00146383 -0.0033134)
(-0.0056343 0.000492937 -0.0033134)
(-0.0056343 -0.000492937 -0.0033134)
(-0.0054631 -0.00146383 -0.0033134)
(-0.00512591 -0.00239025 -0.0033134)
(-0.00463298 -0.00324404 -0.0033134)
(-0.00399927 -0.00399927 -0.0033134)
(-0.00324404 -0.00463298 -0.0033134)
(-0.00239025 -0.00512591 -0.0033134)
(-0.00146383 -0.0054631 -0.0033134)
(-0.000492937 -0.0056343 -0.0033134)
(0.000492937 -0.0056343 -0.0033134)
(0.00146383 -0.0054631 -0.0033134)
(0.00239025 -0.00512591 -0.0033134)
(0.00324404 -0.00463298 -0.0033134)
(0.00399927 -0.00399927 -0.0033134)
(0.00463298 -0.00324404 -0.0033134)
(0.00512591 -0.00239025 -0.0033134)
(0.0054631 -0.00146383 -0.0033134)
(0.0056343 -0.000492937 -0.0033134)
(0.00660762 0.000578092 -0.00330976)
(0.00640685 0.00171671 -0.00330976)
(0.00601141 0.00280316 -0.00330976)
(0.00543332 0.00380445 -0.00330976)
(0.00469013 0.00469013 -0.00330976)
(0.00380445 0.00543332 -0.00330976)
(0.00280316 0.00601141 -0.00330976)
(0.00171671 0.00640685 -0.00330976)
(0.000578092 0.00660762 -0.00330976)
(-0.000578092 0.00660762 -0.00330976)
(-0.00171671 0.00640685 -0.00330976)
(-0.00280316 0.00601141 -0.00330976)
(-0.00380445 0.00543332 -0.00330976)
(-0.00469013 0.00469013 -0.00330976)
(-0.00543332 0.00380445 -0.00330976)
(-0.00601141 0.00280316 -0.00330976)
(-0.00640685 0.00171671 -0.00330976)
(-0.00660762 0.000578092 -0.00330976)
(-0.00660762 -0.000578092 -0.00330976)
(-0.00640685 -0.00171671 -0.00330976)
(-0.00601141 -0.00280316 -0.00330976)
(-0.00543332 -0.00380445 -0.00330976)
(-0.00469013 -0.00469013 -0.00330976)
(-0.00380445 -0.00543332 -0.00330976)
(-0.00280316 -0.00601141 -0.00330976)
(-0.00171671 -0.00640685 -0.00330976)
(-0.000578092 -0.00660762 -0.00330976)
(0.000578092 -0.00660762 -0.00330976)
(0.00171671 -0.00640685 -0.00330976)
(0.00280316 -0.00601141 -0.00330976)
(0.00380445 -0.00543332 -0.00330976)
(0.00469013 -0.00469013 -0.00330976)
(0.00543332 -0.00380445 -0.00330976)
(0.00601141 -0.00280316 -0.00330976)
(0.00640685 -0.00171671 -0.00330976)
(0.00660762 -0.000578092 -0.00330976)
(0.00557091 0.000487391 -0.0045449)
(0.00540164 0.00144736 -0.0045449)
(0.00506824 0.00236336 -0.00454491)
(0.00458085 0.00320755 -0.00454491)
(0.00395427 0.00395427 -0.00454491)
(0.00320755 0.00458085 -0.00454491)
(0.00236336 0.00506824 -0.00454491)
(0.00144736 0.00540164 -0.0045449)
(0.000487391 0.00557091 -0.0045449)
(-0.000487391 0.00557091 -0.0045449)
(-0.00144736 0.00540164 -0.0045449)
(-0.00236336 0.00506824 -0.00454491)
(-0.00320755 0.00458085 -0.00454491)
(-0.00395427 0.00395427 -0.00454491)
(-0.00458085 0.00320755 -0.00454491)
(-0.00506824 0.00236336 -0.00454491)
(-0.00540164 0.00144736 -0.0045449)
(-0.00557091 0.000487391 -0.0045449)
(-0.00557091 -0.000487391 -0.0045449)
(-0.00540164 -0.00144736 -0.0045449)
(-0.00506824 -0.00236336 -0.00454491)
(-0.00458085 -0.00320755 -0.00454491)
(-0.00395427 -0.00395427 -0.00454491)
(-0.00320755 -0.00458085 -0.00454491)
(-0.00236336 -0.00506824 -0.00454491)
(-0.00144736 -0.00540164 -0.0045449)
(-0.000487391 -0.00557091 -0.0045449)
(0.000487391 -0.00557091 -0.0045449)
(0.00144736 -0.00540164 -0.0045449)
(0.00236336 -0.00506824 -0.00454491)
(0.00320755 -0.00458085 -0.00454491)
(0.00395427 -0.00395427 -0.00454491)
(0.00458085 -0.00320755 -0.00454491)
(0.00506824 -0.00236336 -0.00454491)
(0.00540164 -0.00144736 -0.0045449)
(0.00557091 -0.000487391 -0.0045449)
(0.00645621 0.000564846 -0.00463422)
(0.00626004 0.00167737 -0.00463422)
(0.00587366 0.00273893 -0.00463422)
(0.00530882 0.00371728 -0.00463423)
(0.00458267 0.00458267 -0.00463423)
(0.00371728 0.00530882 -0.00463423)
(0.00273893 0.00587366 -0.00463422)
(0.00167737 0.00626004 -0.00463422)
(0.000564846 0.00645621 -0.00463422)
(-0.000564846 0.00645621 -0.00463422)
(-0.00167737 0.00626004 -0.00463422)
(-0.00273893 0.00587366 -0.00463422)
(-0.00371728 0.00530882 -0.00463423)
(-0.00458267 0.00458267 -0.00463423)
(-0.00530882 0.00371728 -0.00463423)
(-0.00587366 0.00273893 -0.00463422)
(-0.00626004 0.00167737 -0.00463422)
(-0.00645621 0.000564846 -0.00463422)
(-0.00645621 -0.000564846 -0.00463422)
(-0.00626004 -0.00167737 -0.00463422)
(-0.00587366 -0.00273893 -0.00463422)
(-0.00530882 -0.00371728 -0.00463423)
(-0.00458267 -0.00458267 -0.00463423)
(-0.00371728 -0.00530882 -0.00463423)
(-0.00273893 -0.00587366 -0.00463422)
(-0.00167737 -0.00626004 -0.00463422)
(-0.000564846 -0.00645621 -0.00463422)
(0.000564846 -0.00645621 -0.00463422)
(0.00167737 -0.00626004 -0.00463422)
(0.00273893 -0.00587366 -0.00463422)
(0.00371728 -0.00530882 -0.00463423)
(0.00458267 -0.00458267 -0.00463423)
(0.00530882 -0.00371728 -0.00463423)
(0.00587366 -0.00273893 -0.00463422)
(0.00626004 -0.00167737 -0.00463422)
(0.00645621 -0.000564846 -0.00463422)
(0.00749995 0.000656161 -0.0047017)
(0.00727207 0.00194855 -0.0047017)
(0.00682323 0.00318172 -0.0047017)
(0.00616707 0.00431823 -0.0047017)
(0.00532353 0.00532353 -0.00470171)
(0.00431823 0.00616707 -0.0047017)
(0.00318172 0.00682323 -0.0047017)
(0.00194855 0.00727207 -0.0047017)
(0.000656161 0.00749995 -0.0047017)
(-0.000656161 0.00749995 -0.0047017)
(-0.00194855 0.00727207 -0.0047017)
(-0.00318172 0.00682323 -0.0047017)
(-0.00431823 0.00616707 -0.0047017)
(-0.00532353 0.00532353 -0.00470171)
(-0.00616707 0.00431823 -0.0047017)
(-0.00682323 0.00318172 -0.0047017)
(-0.00727207 0.00194855 -0.0047017)
(-0.00749995 0.000656161 -0.0047017)
(-0.00749995 -0.000656161 -0.0047017)
(-0.00727207 -0.00194855 -0.0047017)
(-0.00682323 -0.00318172 -0.0047017)
(-0.00616707 -0.00431823 -0.0047017)
(-0.00532353 -0.00532353 -0.00470171)
(-0.00431823 -0.00616707 -0.0047017)
(-0.00318172 -0.00682323 -0.0047017)
(-0.00194855 -0.00727207 -0.0047017)
(-0.000656161 -0.00749995 -0.0047017)
(0.000656161 -0.00749995 -0.0047017)
(0.00194855 -0.00727207 -0.0047017)
(0.00318172 -0.00682323 -0.0047017)
(0.00431823 -0.00616707 -0.0047017)
(0.00532353 -0.00532353 -0.00470171)
(0.00616707 -0.00431823 -0.0047017)
(0.00682323 -0.00318172 -0.0047017)
(0.00727207 -0.00194855 -0.0047017)
(0.00749995 -0.000656161 -0.0047017)
(0.00593662 0.000519388 -0.00582436)
(0.00575623 0.00154238 -0.00582437)
(0.00540095 0.00251851 -0.00582437)
(0.00488157 0.00341811 -0.00582437)
(0.00421386 0.00421386 -0.00582437)
(0.00341811 0.00488157 -0.00582437)
(0.00251851 0.00540095 -0.00582437)
(0.00154238 0.00575623 -0.00582437)
(0.000519388 0.00593662 -0.00582436)
(-0.000519388 0.00593662 -0.00582436)
(-0.00154238 0.00575623 -0.00582437)
(-0.00251851 0.00540095 -0.00582437)
(-0.00341811 0.00488157 -0.00582437)
(-0.00421386 0.00421386 -0.00582437)
(-0.00488157 0.00341811 -0.00582437)
(-0.00540095 0.00251851 -0.00582437)
(-0.00575623 0.00154238 -0.00582437)
(-0.00593662 0.000519388 -0.00582436)
(-0.00593662 -0.000519388 -0.00582436)
(-0.00575623 -0.00154238 -0.00582437)
(-0.00540095 -0.00251851 -0.00582437)
(-0.00488157 -0.00341811 -0.00582437)
(-0.00421386 -0.00421386 -0.00582437)
(-0.00341811 -0.00488157 -0.00582437)
(-0.00251851 -0.00540095 -0.00582437)
(-0.00154238 -0.00575623 -0.00582437)
(-0.000519388 -0.00593662 -0.00582436)
(0.000519388 -0.00593662 -0.00582436)
(0.00154238 -0.00575623 -0.00582437)
(0.00251851 -0.00540095 -0.00582437)
(0.00341811 -0.00488157 -0.00582437)
(0.00421386 -0.00421386 -0.00582437)
(0.00488157 -0.00341811 -0.00582437)
(0.00540095 -0.00251851 -0.00582437)
(0.00575623 -0.00154238 -0.00582437)
(0.00593662 -0.000519388 -0.00582436)
(0.00683654 0.00059812 -0.00598342)
(0.00662881 0.00177619 -0.00598342)
(0.00621967 0.00290028 -0.00598342)
(0.00562155 0.00393626 -0.00598342)
(0.00485263 0.00485263 -0.00598342)
(0.00393626 0.00562155 -0.00598342)
(0.00290028 0.00621967 -0.00598342)
(0.00177619 0.00662881 -0.00598342)
(0.00059812 0.00683654 -0.00598342)
(-0.00059812 0.00683654 -0.00598342)
(-0.00177619 0.00662881 -0.00598342)
(-0.00290028 0.00621967 -0.00598342)
(-0.00393626 0.00562155 -0.00598342)
(-0.00485263 0.00485263 -0.00598342)
(-0.00562155 0.00393626 -0.00598342)
(-0.00621967 0.00290028 -0.00598342)
(-0.00662881 0.00177619 -0.00598342)
(-0.00683654 0.00059812 -0.00598342)
(-0.00683654 -0.00059812 -0.00598342)
(-0.00662881 -0.00177619 -0.00598342)
(-0.00621967 -0.00290028 -0.00598342)
(-0.00562155 -0.00393626 -0.00598342)
(-0.00485263 -0.00485263 -0.00598342)
(-0.00393626 -0.00562155 -0.00598342)
(-0.00290028 -0.00621967 -0.00598342)
(-0.00177619 -0.00662881 -0.00598342)
(-0.00059812 -0.00683654 -0.00598342)
(0.00059812 -0.00683654 -0.00598342)
(0.00177619 -0.00662881 -0.00598342)
(0.00290028 -0.00621967 -0.00598342)
(0.00393626 -0.00562155 -0.00598342)
(0.00485263 -0.00485263 -0.00598342)
(0.00562155 -0.00393626 -0.00598342)
(0.00621967 -0.00290028 -0.00598342)
(0.00662881 -0.00177619 -0.00598342)
(0.00683654 -0.00059812 -0.00598342)
(0.00791082 0.000692108 -0.00614425)
(0.00767045 0.00205529 -0.00614426)
(0.00719703 0.00335603 -0.00614426)
(0.00650492 0.00455479 -0.00614426)
(0.00561516 0.00561516 -0.00614426)
(0.00455479 0.00650492 -0.00614426)
(0.00335603 0.00719703 -0.00614426)
(0.00205529 0.00767045 -0.00614426)
(0.000692108 0.00791082 -0.00614425)
(-0.000692108 0.00791082 -0.00614425)
(-0.00205529 0.00767045 -0.00614426)
(-0.00335603 0.00719703 -0.00614426)
(-0.00455479 0.00650492 -0.00614426)
(-0.00561516 0.00561516 -0.00614426)
(-0.00650492 0.00455479 -0.00614426)
(-0.00719703 0.00335603 -0.00614426)
(-0.00767045 0.00205529 -0.00614426)
(-0.00791082 0.000692108 -0.00614425)
(-0.00791082 -0.000692108 -0.00614425)
(-0.00767045 -0.00205529 -0.00614426)
(-0.00719703 -0.00335603 -0.00614426)
(-0.00650492 -0.00455479 -0.00614426)
(-0.00561516 -0.00561516 -0.00614426)
(-0.00455479 -0.00650492 -0.00614426)
(-0.00335603 -0.00719703 -0.00614426)
(-0.00205529 -0.00767045 -0.00614426)
(-0.000692108 -0.00791082 -0.00614425)
(0.000692108 -0.00791082 -0.00614425)
(0.00205529 -0.00767045 -0.00614426)
(0.00335603 -0.00719703 -0.00614426)
(0.00455479 -0.00650492 -0.00614426)
(0.00561516 -0.00561516 -0.00614426)
(0.00650492 -0.00455479 -0.00614426)
(0.00719703 -0.00335603 -0.00614426)
(0.00767045 -0.00205529 -0.00614426)
(0.00791082 -0.000692108 -0.00614425)
(0.00592018 0.000517949 -0.00704411)
(0.0057403 0.00153811 -0.00704411)
(0.005386 0.00251154 -0.00704411)
(0.00486806 0.00340865 -0.00704411)
(0.00420219 0.00420219 -0.00704411)
(0.00340865 0.00486806 -0.00704411)
(0.00251154 0.005386 -0.00704411)
(0.00153811 0.0057403 -0.00704411)
(0.000517949 0.00592018 -0.00704411)
(-0.000517949 0.00592018 -0.00704411)
(-0.00153811 0.0057403 -0.00704411)
(-0.00251154 0.005386 -0.00704411)
(-0.00340865 0.00486806 -0.00704411)
(-0.00420219 0.00420219 -0.00704411)
(-0.00486806 0.00340865 -0.00704411)
(-0.005386 0.00251154 -0.00704411)
(-0.0057403 0.00153811 -0.00704411)
(-0.00592018 0.000517949 -0.00704411)
(-0.00592018 -0.000517949 -0.00704411)
(-0.0057403 -0.00153811 -0.00704411)
(-0.005386 -0.00251154 -0.00704411)
(-0.00486806 -0.00340865 -0.00704411)
(-0.00420219 -0.00420219 -0.00704411)
(-0.00340865 -0.00486806 -0.00704411)
(-0.00251154 -0.005386 -0.00704411)
(-0.00153811 -0.0057403 -0.00704411)
(-0.000517949 -0.00592018 -0.00704411)
(0.000517949 -0.00592018 -0.00704411)
(0.00153811 -0.0057403 -0.00704411)
(0.00251154 -0.005386 -0.00704411)
(0.00340865 -0.00486806 -0.00704411)
(0.00420219 -0.00420219 -0.00704411)
(0.00486806 -0.00340865 -0.00704411)
(0.005386 -0.00251154 -0.00704411)
(0.0057403 -0.00153811 -0.00704411)
(0.00592018 -0.000517949 -0.00704411)
(0.00680562 0.000595415 -0.00728094)
(0.00659883 0.00176815 -0.00728094)
(0.00619155 0.00288717 -0.00728094)
(0.00559613 0.00391846 -0.00728094)
(0.00483068 0.00483068 -0.00728094)
(0.00391846 0.00559613 -0.00728094)
(0.00288717 0.00619155 -0.00728094)
(0.00176815 0.00659883 -0.00728094)
(0.000595415 0.00680562 -0.00728094)
(-0.000595415 0.00680562 -0.00728094)
(-0.00176815 0.00659883 -0.00728094)
(-0.00288717 0.00619155 -0.00728094)
(-0.00391846 0.00559613 -0.00728094)
(-0.00483068 0.00483068 -0.00728094)
(-0.00559613 0.00391846 -0.00728094)
(-0.00619155 0.00288717 -0.00728094)
(-0.00659883 0.00176815 -0.00728094)
(-0.00680562 0.000595415 -0.00728094)
(-0.00680562 -0.000595415 -0.00728094)
(-0.00659883 -0.00176815 -0.00728094)
(-0.00619155 -0.00288717 -0.00728094)
(-0.00559613 -0.00391846 -0.00728094)
(-0.00483068 -0.00483068 -0.00728094)
(-0.00391846 -0.00559613 -0.00728094)
(-0.00288717 -0.00619155 -0.00728094)
(-0.00176815 -0.00659883 -0.00728094)
(-0.000595415 -0.00680562 -0.00728094)
(0.000595415 -0.00680562 -0.00728094)
(0.00176815 -0.00659883 -0.00728094)
(0.00288717 -0.00619155 -0.00728094)
(0.00391846 -0.00559613 -0.00728094)
(0.00483068 -0.00483068 -0.00728094)
(0.00559613 -0.00391846 -0.00728094)
(0.00619155 -0.00288717 -0.00728094)
(0.00659883 -0.00176815 -0.00728094)
(0.00680562 -0.000595415 -0.00728094)
(0.00787527 0.000688999 -0.00754581)
(0.00763598 0.00204606 -0.00754581)
(0.00716468 0.00334095 -0.00754581)
(0.00647569 0.00453433 -0.00754581)
(0.00558993 0.00558993 -0.00754581)
(0.00453433 0.00647569 -0.00754581)
(0.00334095 0.00716468 -0.00754581)
(0.00204606 0.00763598 -0.00754581)
(0.000688999 0.00787527 -0.00754581)
(-0.000688999 0.00787527 -0.00754581)
(-0.00204606 0.00763598 -0.00754581)
(-0.00334095 0.00716468 -0.00754581)
(-0.00453433 0.00647569 -0.00754581)
(-0.00558993 0.00558993 -0.00754581)
(-0.00647569 0.00453433 -0.00754581)
(-0.00716468 0.00334095 -0.00754581)
(-0.00763598 0.00204606 -0.00754581)
(-0.00787527 0.000688999 -0.00754581)
(-0.00787527 -0.000688999 -0.00754581)
(-0.00763598 -0.00204606 -0.00754581)
(-0.00716468 -0.00334095 -0.00754581)
(-0.00647569 -0.00453433 -0.00754581)
(-0.00558993 -0.00558993 -0.00754581)
(-0.00453433 -0.00647569 -0.00754581)
(-0.00334095 -0.00716468 -0.00754581)
(-0.00204606 -0.00763598 -0.00754581)
(-0.000688999 -0.00787527 -0.00754581)
(0.000688999 -0.00787527 -0.00754581)
(0.00204606 -0.00763598 -0.00754581)
(0.00334095 -0.00716468 -0.00754581)
(0.00453433 -0.00647569 -0.00754581)
(0.00558993 -0.00558993 -0.00754581)
(0.00647569 -0.00453433 -0.00754581)
(0.00716468 -0.00334095 -0.00754581)
(0.00763598 -0.00204606 -0.00754581)
(0.00787527 -0.000688999 -0.00754581)
(0.00557335 0.000487605 -0.00814227)
(0.00540401 0.001448 -0.00814227)
(0.00507047 0.0023644 -0.00814227)
(0.00458286 0.00320896 -0.00814227)
(0.00395601 0.00395601 -0.00814227)
(0.00320896 0.00458286 -0.00814227)
(0.0023644 0.00507047 -0.00814227)
(0.001448 0.00540401 -0.00814227)
(0.000487605 0.00557335 -0.00814227)
(-0.000487605 0.00557335 -0.00814227)
(-0.001448 0.00540401 -0.00814227)
(-0.0023644 0.00507047 -0.00814227)
(-0.00320896 0.00458286 -0.00814227)
(-0.00395601 0.00395601 -0.00814227)
(-0.00458286 0.00320896 -0.00814227)
(-0.00507047 0.0023644 -0.00814227)
(-0.00540401 0.001448 -0.00814227)
(-0.00557335 0.000487605 -0.00814227)
(-0.00557335 -0.000487605 -0.00814227)
(-0.00540401 -0.001448 -0.00814227)
(-0.00507047 -0.0023644 -0.00814227)
(-0.00458286 -0.00320896 -0.00814227)
(-0.00395601 -0.00395601 -0.00814227)
(-0.00320896 -0.00458286 -0.00814226)