time Vm
0.0000500 -75.0073648
0.0001000 -75.0147304
0.0001500 -75.0220969
0.0002000 -75.0294641
0.0002500 -75.0368321
0.0003000 -75.0442008
0.0003500 -75.0515702
0.0004000 -75.0589403
0.0004500 -75.0663110
0.0005000 -75.0736822
0.0005500 -75.0810540
0.0006000 -75.0884264
0.0006500 -75.0957992
0.0007000 -75.1031725
0.0007500 -75.1105462
0.0008000 -75.1179203
0.0008500 -75.1252948
0.0009000 -75.1326696
0.0009500 -75.1400447
0.0010000 -75.1474200
0.0010500 -75.1547956
0.0011000 -75.1621713
0.0011500 -75.1695472
0.0012000 -75.1769232
0.0012500 -75.1842993
0.0013000 -75.1916755
0.0013500 -75.1990517
0.0014000 -75.2064279
0.0014500 -75.2138040
0.0015000 -75.2211801
0.0015500 -75.2285560
0.0016000 -75.2359319
0.0016500 -75.2433075
0.0017000 -75.2506829
0.0017500 -75.2580581
0.0018000 -75.2654330
0.0018500 -75.2728076
0.0019000 -75.2801818
0.0019500 -75.2875557
0.0020000 -75.2949292
0.0020500 -75.3023022
0.0021000 -75.3096747
0.0021500 -75.3170468
0.0022000 -75.3244182
0.0022500 -75.3317892
0.0023000 -75.3391595
0.0023500 -75.3465291
0.0024000 -75.3538981
0.0024500 -75.3612663
0.0025000 -75.3686339
0.0025500 -75.3760006
0.0026000 -75.3833665
0.0026500 -75.3907316
0.0027000 -75.3980958
0.0027500 -75.4054591
0.0028000 -75.4128215
0.0028500 -75.4201829
0.0029000 -75.4275433
0.0029500 -75.4349026
0.0030000 -75.4422608
0.0030500 -75.4496180
0.0031000 -75.4569740
0.0031500 -75.4643288
0.0032000 -75.4716824
0.0032500 -75.4790347
0.0033000 -75.4863858
0.0033500 -75.4937356
0.0034000 -75.5010840
0.0034500 -75.5084311
0.0035000 -75.5157768
0.0035500 -75.5231210
0.0036000 -75.5304637
0.0036500 -75.5378049
0.0037000 -75.5451446
0.0037500 -75.5524827
0.0038000 -75.5598192
0.0038500 -75.5671541
0.0039000 -75.5744873
0.0039500 -75.5818188
0.0040000 -75.5891485
0.0040500 -75.5964765
0.0041000 -75.6038027
0.0041500 -75.6111270
0.0042000 -75.6184495
0.0042500 -75.6257701
0.0043000 -75.6330887
0.0043500 -75.6404053
0.0044000 -75.6477200
0.0044500 -75.6550326
0.0045000 -75.6623432
0.0045500 -75.6696517
0.0046000 -75.6769580
0.0046500 -75.6842622
0.0047000 -75.6915642
0.0047500 -75.6988639
0.0048000 -75.7061614
0.0048500 -75.7134566
0.0049000 -75.7207495
0.0049500 -75.7280400
0.0050000 -75.7353281
0.0050500 -75.7426138
0.0051000 -75.7498970
0.0051500 -75.7571778
0.0052000 -75.7644560
0.0052500 -75.7717317
0.0053000 -75.7790048
0.0053500 -75.7862753
0.0054000 -75.7935432
0.0054500 -75.8008084
0.0055000 -75.8080708
0.0055500 -75.8153305
0.0056000 -75.8225875
0.0056500 -75.8298416
0.0057000 -75.8370929
0.0057500 -75.8443414
0.0058000 -75.8515869
0.0058500 -75.8588295
0.0059000 -75.8660691
0.0059500 -75.8733058
0.0060000 -75.8805394
0.0060500 -75.8877700
0.0061000 -75.8949974
0.0061500 -75.9022218
0.0062000 -75.9094430
0.0062500 -75.9166610
0.0063000 -75.9238758
0.0063500 -75.9310874
0.0064000 -75.9382957
0.0064500 -75.9455006
0.0065000 -75.9527023
0.0065500 -75.9599005
0.0066000 -75.9670954
0.0066500 -75.9742869
0.0067000 -75.9814748
0.0067500 -75.9886593
0.0068000 -75.9958403
0.0068500 -76.0030177
0.0069000 -76.0101915
0.0069500 -76.0173618
0.0070000 -76.0245283
0.0070500 -76.0316912
0.0071000 -76.0388504
0.0071500 -76.0460059
0.0072000 -76.0531576
0.0072500 -76.0603055
0.0073000 -76.0674496
0.0073500 -76.0745898
0.0074000 -76.0817262
0.0074500 -76.0888586
0.0075000 -76.0959871
0.0075500 -76.1031116
0.0076000 -76.1102321
0.0076500 -76.1173486
0.0077000 -76.1244610
0.0077500 -76.1315693
0.0078000 -76.1386735
0.0078500 -76.1457736
0.0079000 -76.1528694
0.0079500 -76.1599611
0.0080000 -76.1670485
0.0080500 -76.1741317
0.0081000 -76.1812105
0.0081500 -76.1882851
0.0082000 -76.1953553
0.0082500 -76.2024211
0.0083000 -76.2094825
0.0083500 -76.2165394
0.0084000 -76.2235919
0.0084500 -76.2306399
0.0085000 -76.2376834
0.0085500 -76.2447223
0.0086000 -76.2517566
0.0086500 -76.2587863
0.0087000 -76.2658114
0.0087500 -76.2728318
0.0088000 -76.2798475
0.0088500 -76.2868585
0.0089000 -76.2938648
0.0089500 -76.3008663
0.0090000 -76.3078629
0.0090500 -76.3148548
0.0091000 -76.3218418
0.0091500 -76.3288239
0.0092000 -76.3358010
0.0092500 -76.3427733
0.0093000 -76.3497405
0.0093500 -76.3567028
0.0094000 -76.3636601
0.0094500 -76.3706123
0.0095000 -76.3775594
0.0095500 -76.3845014
0.0096000 -76.3914383
0.0096500 -76.3983700
0.0097000 -76.4052966
0.0097500 -76.4122179
0.0098000 -76.4191340
0.0098500 -76.4260449
0.0099000 -76.4329504
0.0099500 -76.4398507
0.0100000 -76.4467456
0.0100500 -76.4536351
0.0101000 -76.4605192
0.0101500 -76.4673980
0.0102000 -76.4742712
0.0102500 -76.4811391
0.0103000 -76.4880014
0.0103500 -76.4948582
0.0104000 -76.5017094
0.0104500 -76.5085551
0.0105000 -76.5153952
0.0105500 -76.5222296
0.0106000 -76.5290584
0.0106500 -76.5358816
0.0107000 -76.5426990
0.0107500 -76.5495108
0.0108000 -76.5563167
0.0108500 -76.5631169
0.0109000 -76.5699114
0.0109500 -76.5767000
0.0110000 -76.5834827
0.0110500 -76.5902596
0.0111000 -76.5970306
0.0111500 -76.6037957
0.0112000 -76.6105548
0.0112500 -76.6173080
0.0113000 -76.6240552
0.0113500 -76.6307964
0.0114000 -76.6375315
0.0114500 -76.6442606
0.0115000 -76.6509836
0.0115500 -76.6577005
0.0116000 -76.6644113
0.0116500 -76.6711159
0.0117000 -76.6778144
0.0117500 -76.6845066
0.0118000 -76.6911927
0.0118500 -76.6978725
0.0119000 -76.7045460
0.0119500 -76.7112133
0.0120000 -76.7178742
0.0120500 -76.7245288
0.0121000 -76.7311771
0.0121500 -76.7378190
0.0122000 -76.7444544
0.0122500 -76.7510835
0.0123000 -76.7577061
0.0123500 -76.7643223
0.0124000 -76.7709320
0.0124500 -76.7775351
0.0125000 -76.7841318
0.0125500 -76.7907219
0.0126000 -76.7973054
0.0126500 -76.8038823
0.0127000 -76.8104526
0.0127500 -76.8170163
0.0128000 -76.8235734
0.0128500 -76.8301237
0.0129000 -76.8366674
0.0129500 -76.8432043
0.0130000 -76.8497345
0.0130500 -76.8562580
0.0131000 -76.8627747
0.0131500 -76.8692845
0.0132000 -76.8757876
0.0132500 -76.8822838
0.0133000 -76.8887732
0.0133500 -76.8952557
0.0134000 -76.9017313
0.0134500 -76.9082000
0.0135000 -76.9146617
0.0135500 -76.9211165
0.0136000 -76.9275643
0.0136500 -76.9340052
0.0137000 -76.9404390
0.0137500 -76.9468658
0.0138000 -76.9532855
0.0138500 -76.9596982
0.0139000 -76.9661038
0.0139500 -76.9725022
0.0140000 -76.9788936
0.0140500 -76.9852778
0.0141000 -76.9916549
0.0141500 -76.9980247
0.0142000 -77.0043874
0.0142500 -77.0107429
0.0143000 -77.0170911
0.0143500 -77.0234321
0.0144000 -77.0297658
0.0144500 -77.0360923
0.0145000 -77.0424114
0.0145500 -77.0487232
0.0146000 -77.0550277
0.0146500 -77.0613248
0.0147000 -77.0676146
0.0147500 -77.0738970
0.0148000 -77.0801719
0.0148500 -77.0864395
0.0149000 -77.0926996
0.0149500 -77.0989522
0.0150000 -77.1051974
0.0150500 -77.1114351
0.0151000 -77.1176653
0.0151500 -77.1238880
0.0152000 -77.1301032
0.0152500 -77.1363108
0.0153000 -77.1425108
0.0153500 -77.1487033
0.0154000 -77.1548882
0.0154500 -77.1610654
0.0155000 -77.1672350
0.0155500 -77.1733970
0.0156000 -77.1795514
0.0156500 -77.1856980
0.0157000 -77.1918370
0.0157500 -77.1979683
0.0158000 -77.2040918
0.0158500 -77.2102077
0.0159000 -77.2163158
0.0159500 -77.2224161
0.0160000 -77.2285086
0.0160500 -77.2345934
0.0161000 -77.2406704
0.0161500 -77.2467395
0.0162000 -77.2528009
0.0162500 -77.2588544
0.0163000 -77.2649000
0.0163500 -77.2709377
0.0164000 -77.2769676
0.0164500 -77.2829896
0.0165000 -77.2890037
0.0165500 -77.2950098
0.0166000 -77.3010081
0.0166500 -77.3069983
0.0167000 -77.3129807
0.0167500 -77.3189550
0.0168000 -77.3249214
0.0168500 -77.3308797
0.0169000 -77.3368301
0.0169500 -77.3427724
0.0170000 -77.3487067
0.0170500 -77.3546330
0.0171000 -77.3605511
0.0171500 -77.3664613
0.0172000 -77.3723633
0.0172500 -77.3782573
0.0173000 -77.3841431
0.0173500 -77.3900208
0.0174000 -77.3958905
0.0174500 -77.4017519
0.0175000 -77.4076052
0.0175500 -77.4134504
0.0176000 -77.4192874
0.0176500 -77.4251162
0.0177000 -77.4309368
0.0177500 -77.4367493
0.0178000 -77.4425535
0.0178500 -77.4483495
0.0179000 -77.4541372
0.0179500 -77.4599167
0.0180000 -77.4656880
0.0180500 -77.4714510
0.0181000 -77.4772057
0.0181500 -77.4829521
0.0182000 -77.4886903
0.0182500 -77.4944201
0.0183000 -77.5001417
0.0183500 -77.5058549
0.0184000 -77.5115598
0.0184500 -77.5172563
0.0185000 -77.5229445
0.0185500 -77.5286244
0.0186000 -77.5342959
0.0186500 -77.5399590
0.0187000 -77.5456137
0.0187500 -77.5512601
0.0188000 -77.5568980
0.0188500 -77.5625276
0.0189000 -77.5681487
0.0189500 -77.5737614
0.0190000 -77.5793657
0.0190500 -77.5849615
0.0191000 -77.5905489
0.0191500 -77.5961278
0.0192000 -77.6016983
0.0192500 -77.6072603
0.0193000 -77.6128139
0.0193500 -77.6183589
0.0194000 -77.6238955
0.0194500 -77.6294236
0.0195000 -77.6349431
0.0195500 -77.6404542
0.0196000 -77.6459567
0.0196500 -77.6514507
0.0197000 -77.6569362
0.0197500 -77.6624131
0.0198000 -77.6678815
0.0198500 -77.6733414
0.0199000 -77.6787927
0.0199500 -77.6842354
0.0200000 -77.6896696
0.0200500 -77.6950952
0.0201000 -77.7005122
0.0201500 -77.7059207
0.0202000 -77.7113205
0.0202500 -77.7167117
0.0203000 -77.7220944
0.0203500 -77.7274684
0.0204000 -77.7328339
0.0204500 -77.7381907
0.0205000 -77.7435389
0.0205500 -77.7488785
0.0206000 -77.7542094
0.0206500 -77.7595317
0.0207000 -77.7648454
0.0207500 -77.7701504
0.0208000 -77.7754468
0.0208500 -77.7807345
0.0209000 -77.7860136
0.0209500 -77.7912840
0.0210000 -77.7965457
0.0210500 -77.8017988
0.0211000 -77.8070432
0.0211500 -77.8122789
0.0212000 -77.8175059
0.0212500 -77.8227243
0.0213000 -77.8279339
0.0213500 -77.8331349
0.0214000 -77.8383272
0.0214500 -77.8435108
0.0215000 -77.8486857
0.0215500 -77.8538519
0.0216000 -77.8590094
0.0216500 -77.8641581
0.0217000 -77.8692982
0.0217500 -77.8744296
0.0218000 -77.8795522
0.0218500 -77.8846661
0.0219000 -77.8897713
0.0219500 -77.8948678
0.0220000 -77.8999555
0.0220500 -77.9050345
0.0221000 -77.9101048
0.0221500 -77.9151664
0.0222000 -77.9202192
0.0222500 -77.9252633
0.0223000 -77.9302986
0.0223500 -77.9353253
0.0224000 -77.9403431
0.0224500 -77.9453523
0.0225000 -77.9503527
0.0225500 -77.9553443
0.0226000 -77.9603272
0.0226500 -77.9653014
0.0227000 -77.9702668
0.0227500 -77.9752235
0.0228000 -77.9801714
0.0228500 -77.9851106
0.0229000 -77.9900410
0.0229500 -77.9949626
0.0230000 -77.9998756
0.0230500 -78.0047797
0.0231000 -78.0096752
0.0231500 -78.0145618
0.0232000 -78.0194398
0.0232500 -78.0243089
0.0233000 -78.0291693
0.0233500 -78.0340210
0.0234000 -78.0388639
0.0234500 -78.0436981
0.0235000 -78.0485235
0.0235500 -78.0533402
0.0236000 -78.0581481
0.0236500 -78.0629473
0.0237000 -78.0677377
0.0237500 -78.0725194
0.0238000 -78.0772923
0.0238500 -78.0820565
0.0239000 -78.0868119
0.0239500 -78.0915586
0.0240000 -78.0962966
0.0240500 -78.1010258
0.0241000 -78.1057463
0.0241500 -78.1104580
0.0242000 -78.1151610
0.0242500 -78.1198553
0.0243000 -78.1245408
0.0243500 -78.1292176
0.0244000 -78.1338857
0.0244500 -78.1385451
0.0245000 -78.1431957
0.0245500 -78.1478376
0.0246000 -78.1524708
0.0246500 -78.1570952
0.0247000 -78.1617110
0.0247500 -78.1663180
0.0248000 -78.1709164
0.0248500 -78.1755060
0.0249000 -78.1800869
0.0249500 -78.1846591
0.0250000 -78.1892226
0.0250500 -78.1937774
0.0251000 -78.1983235
0.0251500 -78.2028609
0.0252000 -78.2073896
0.0252500 -78.2119097
0.0253000 -78.2164210
0.0253500 -78.2209237
0.0254000 -78.2254177
0.0254500 -78.2299030
0.0255000 -78.2343796
0.0255500 -78.2388476
0.0256000 -78.2433069
0.0256500 -78.2477576
0.0257000 -78.2521996
0.0257500 -78.2566330
0.0258000 -78.2610577
0.0258500 -78.2654737
0.0259000 -78.2698811
0.0259500 -78.2742799
0.0260000 -78.2786701
0.0260500 -78.2830516
0.0261000 -78.2874245
0.0261500 -78.2917888
0.0262000 -78.2961444
0.0262500 -78.3004915
0.0263000 -78.3048299
0.0263500 -78.3091598
0.0264000 -78.3134810
0.0264500 -78.3177937
0.0265000 -78.3220977
0.0265500 -78.3263932
0.0266000 -78.3306801
0.0266500 -78.3349584
0.0267000 -78.3392282
0.0267500 -78.3434894
0.0268000 -78.3477420
0.0268500 -78.3519861
0.0269000 -78.3562216
0.0269500 -78.3604486
0.0270000 -78.3646671
0.0270500 -78.3688770
0.0271000 -78.3730784
0.0271500 -78.3772713
0.0272000 -78.3814556
0.0272500 -78.3856315
0.0273000 -78.3897988
0.0273500 -78.3939577
0.0274000 -78.3981080
0.0274500 -78.4022499
0.0275000 -78.4063833
0.0275500 -78.4105082
0.0276000 -78.4146246
0.0276500 -78.4187326
0.0277000 -78.4228322
0.0277500 -78.4269232
0.0278000 -78.4310059
0.0278500 -78.4350801
0.0279000 -78.4391458
0.0279500 -78.4432032
0.0280000 -78.4472521
0.0280500 -78.4512926
0.0281000 -78.4553247
0.0281500 -78.4593484
0.0282000 -78.4633637
0.0282500 -78.4673706
0.0283000 -78.4713692
0.0283500 -78.4753594
0.0284000 -78.4793412
0.0284500 -78.4833147
0.0285000 -78.4872798
0.0285500 -78.4912365
0.0286000 -78.4951850
0.0286500 -78.4991251
0.0287000 -78.5030568
0.0287500 -78.5069803
0.0288000 -78.5108954
0.0288500 -78.5148023
0.0289000 -78.5187009
0.0289500 -78.5225911
0.0290000 -78.5264731
0.0290500 -78.5303469
0.0291000 -78.5342123
0.0291500 -78.5380696
0.0292000 -78.5419185
0.0292500 -78.5457593
0.0293000 -78.5495918
0.0293500 -78.5534160
0.0294000 -78.5572321
0.0294500 -78.5610399
0.0295000 -78.5648396
0.0295500 -78.5686310
0.0296000 -78.5724143
0.0296500 -78.5761894
0.0297000 -78.5799563
0.0297500 -78.5837151
0.0298000 -78.5874657
0.0298500 -78.5912082
0.0299000 -78.5949425
0.0299500 -78.5986688
0.0300000 -78.6023868
0.0300500 -78.6060968
0.0301000 -78.6097987
0.0301500 -78.6134925
0.0302000 -78.6171782
0.0302500 -78.6208559
0.0303000 -78.6245254
0.0303500 -78.6281869
0.0304000 -78.6318404
0.0304500 -78.6354858
0.0305000 -78.6391232
0.0305500 -78.6427526
0.0306000 -78.6463739
0.0306500 -78.6499873
0.0307000 -78.6535926
0.0307500 -78.6571900
0.0308000 -78.6607794
0.0308500 -78.6643608
0.0309000 -78.6679342
0.0309500 -78.6714998
0.0310000 -78.6750573
0.0310500 -78.6786069
0.0311000 -78.6821487
0.0311500 -78.6856824
0.0312000 -78.6892083
0.0312500 -78.6927263
0.0313000 -78.6962364
0.0313500 -78.6997387
0.0314000 -78.7032330
0.0314500 -78.7067195
0.0315000 -78.7101982
0.0315500 -78.7136690
0.0316000 -78.7171320
0.0316500 -78.7205872
0.0317000 -78.7240346
0.0317500 -78.7274741
0.0318000 -78.7309059
0.0318500 -78.7343299
0.0319000 -78.7377461
0.0319500 -78.7411546
0.0320000 -78.7445553
0.0320500 -78.7479483
0.0321000 -78.7513335
0.0321500 -78.7547110
0.0322000 -78.7580808
0.0322500 -78.7614429
0.0323000 -78.7647973
0.0323500 -78.7681441
0.0324000 -78.7714831
0.0324500 -78.7748145
0.0325000 -78.7781383
0.0325500 -78.7814544
0.0326000 -78.7847628
0.0326500 -78.7880637
0.0327000 -78.7913569
0.0327500 -78.7946426
0.0328000 -78.7979206
0.0328500 -78.8011911
0.0329000 -78.8044540
0.0329500 -78.8077094
0.0330000 -78.8109572
0.0330500 -78.8141974
0.0331000 -78.8174302
0.0331500 -78.8206554
0.0332000 -78.8238731
0.0332500 -78.8270833
0.0333000 -78.8302860
0.0333500 -78.8334813
0.0334000 -78.8366691
0.0334500 -78.8398494
0.0335000 -78.8430223
0.0335500 -78.8461877
0.0336000 -78.8493458
0.0336500 -78.8524964
0.0337000 -78.8556396
0.0337500 -78.8587755
0.0338000 -78.8619039
0.0338500 -78.8650250
0.0339000 -78.8681387
0.0339500 -78.8712451
0.0340000 -78.8743442
0.0340500 -78.8774359
0.0341000 -78.8805203
0.0341500 -78.8835974
0.0342000 -78.8866672
0.0342500 -78.8897297
0.0343000 -78.8927850
0.0343500 -78.8958330
0.0344000 -78.8988737
0.0344500 -78.9019073
0.0345000 -78.9049336
0.0345500 -78.9079526
0.0346000 -78.9109645
0.0346500 -78.9139692
0.0347000 -78.9169667
0.0347500 -78.9199570
0.0348000 -78.9229401
0.0348500 -78.9259162
0.0349000 -78.9288850
0.0349500 -78.9318468
0.0350000 -78.9348014
0.0350500 -78.9377489
0.0351000 -78.9406894
0.0351500 -78.9436227
0.0352000 -78.9465490
0.0352500 -78.9494682
0.0353000 -78.9523804
0.0353500 -78.9552856
0.0354000 -78.9581837
0.0354500 -78.9610748
0.0355000 -78.9639589
0.0355500 -78.9668360
0.0356000 -78.9697061
0.0356500 -78.9725693
0.0357000 -78.9754255
0.0357500 -78.9782747
0.0358000 -78.9811171
0.0358500 -78.9839525
0.0359000 -78.9867810
0.0359500 -78.9896025
0.0360000 -78.9924172
0.0360500 -78.9952251
0.0361000 -78.9980260
0.0361500 -79.0008201
0.0362000 -79.0036074
0.0362500 -79.0063878
0.0363000 -79.0091614
0.0363500 -79.0119282
0.0364000 -79.0146882
0.0364500 -79.0174415
0.0365000 -79.0201879
0.0365500 -79.0229276
0.0366000 -79.0256605
0.0366500 -79.0283867
0.0367000 -79.0311062
0.0367500 -79.0338189
0.0368000 -79.0365250
0.0368500 -79.0392243
0.0369000 -79.0419170
0.0369500 -79.0446030
0.0370000 -79.0472824
0.0370500 -79.0499551
0.0371000 -79.0526212
0.0371500 -79.0552806
0.0372000 -79.0579334
0.0372500 -79.0605797
0.0373000 -79.0632193
0.0373500 -79.0658524
0.0374000 -79.0684789
0.0374500 -79.0710989
0.0375000 -79.0737123
0.0375500 -79.0763192
0.0376000 -79.0789195
0.0376500 -79.0815134
0.0377000 -79.0841008
0.0377500 -79.0866817
0.0378000 -79.0892561
0.0378500 -79.0918241
0.0379000 -79.0943856
0.0379500 -79.0969406
0.0380000 -79.0994893
0.0380500 -79.1020315
0.0381000 -79.1045674
0.0381500 -79.1070968
0.0382000 -79.1096199
0.0382500 -79.1121366
0.0383000 -79.1146470
0.0383500 -79.1171510
0.0384000 -79.1196487
0.0384500 -79.1221401
0.0385000 -79.1246251
0.0385500 -79.1271039
0.0386000 -79.1295764
0.0386500 -79.1320426
0.0387000 -79.1345026
0.0387500 -79.1369563
0.0388000 -79.1394038
0.0388500 -79.1418450
0.0389000 -79.1442801
0.0389500 -79.1467089
0.0390000 -79.1491316
0.0390500 -79.1515481
0.0391000 -79.1539584
0.0391500 -79.1563626
0.0392000 -79.1587606
0.0392500 -79.1611525
0.0393000 -79.1635383
0.0393500 -79.1659179
0.0394000 -79.1682915
0.0394500 -79.1706590
0.0395000 -79.1730204
0.0395500 -79.1753758
0.0396000 -79.1777251
0.0396500 -79.1800684
0.0397000 -79.1824057
0.0397500 -79.1847369
0.0398000 -79.1870622
0.0398500 -79.1893814
0.0399000 -79.1916947
0.0399500 -79.1940021
0.0400000 -79.1963034
0.0400500 -79.1985989
0.0401000 -79.2008884
0.0401500 -79.2031719
0.0402000 -79.2054496
0.0402500 -79.2077214
0.0403000 -79.2099873
0.0403500 -79.2122473
0.0404000 -79.2145015
0.0404500 -79.2167499
0.0405000 -79.2189923
0.0405500 -79.2212290
0.0406000 -79.2234599
0.0406500 -79.2256849
0.0407000 -79.2279042
0.0407500 -79.2301177
0.0408000 -79.2323254
0.0408500 -79.2345274
0.0409000 -79.2367237
0.0409500 -79.2389142
0.0410000 -79.2410989
0.0410500 -79.2432780
0.0411000 -79.2454514
0.0411500 -79.2476191
0.0412000 -79.2497812
0.0412500 -79.2519375
0.0413000 -79.2540883
0.0413500 -79.2562334
0.0414000 -79.2583728
0.0414500 -79.2605067
0.0415000 -79.2626349
0.0415500 -79.2647576
0.0416000 -79.2668747
0.0416500 -79.2689862
0.0417000 -79.2710922
0.0417500 -79.2731926
0.0418000 -79.2752875
0.0418500 -79.2773768
0.0419000 -79.2794607
0.0419500 -79.2815390
0.0420000 -79.2836119
0.0420500 -79.2856793
0.0421000 -79.2877413
0.0421500 -79.2897978
0.0422000 -79.2918488
0.0422500 -79.2938944
0.0423000 -79.2959346
0.0423500 -79.2979694
0.0424000 -79.2999989
0.0424500 -79.3020229
0.0425000 -79.3040415
0.0425500 -79.3060548
0.0426000 -79.3080628
0.0426500 -79.3100654
0.0427000 -79.3120627
0.0427500 -79.3140547
0.0428000 -79.3160414
0.0428500 -79.3180227
0.0429000 -79.3199988
0.0429500 -79.3219697
0.0430000 -79.3239353
0.0430500 -79.3258956
0.0431000 -79.3278507
0.0431500 -79.3298006
0.0432000 -79.3317453
0.0432500 -79.3336848
0.0433000 -79.3356190
0.0433500 -79.3375482
0.0434000 -79.3394721
0.0434500 -79.3413909
0.0435000 -79.3433046
0.0435500 -79.3452131
0.0436000 -79.3471165
0.0436500 -79.3490148
0.0437000 -79.3509080
0.0437500 -79.3527961
0.0438000 -79.3546791
0.0438500 -79.3565571
0.0439000 -79.3584300
0.0439500 -79.3602979
0.0440000 -79.3621607
0.0440500 -79.3640185
0.0441000 -79.3658714
0.0441500 -79.3677192
0.0442000 -79.3695620
0.0442500 -79.3713999
0.0443000 -79.3732328
0.0443500 -79.3750607
0.0444000 -79.3768837
0.0444500 -79.3787018
0.0445000 -79.3805150
0.0445500 -79.3823232
0.0446000 -79.3841266
0.0446500 -79.3859251
0.0447000 -79.3877187
0.0447500 -79.3895074
0.0448000 -79.3912913
0.0448500 -79.3930703
0.0449000 -79.3948445
0.0449500 -79.3966139
0.0450000 -79.3983785
0.0450500 -79.4001383
0.0451000 -79.4018932
0.0451500 -79.4036435
0.0452000 -79.4053889
0.0452500 -79.4071296
0.0453000 -79.4088656
0.0453500 -79.4105968
0.0454000 -79.4123233
0.0454500 -79.4140451
0.0455000 -79.4157622
0.0455500 -79.4174746
0.0456000 -79.4191823
0.0456500 -79.4208854
0.0457000 -79.4225838
0.0457500 -79.4242775
0.0458000 -79.4259667
0.0458500 -79.4276511
0.0459000 -79.4293310
0.0459500 -79.4310063
0.0460000 -79.4326770
0.0460500 -79.4343431
0.0461000 -79.4360046
0.0461500 -79.4376616
0.0462000 -79.4393140
0.0462500 -79.4409619
0.0463000 -79.4426053
0.0463500 -79.4442441
0.0464000 -79.4458785
0.0464500 -79.4475083
0.0465000 -79.4491337
0.0465500 -79.4507545
0.0466000 -79.4523709
0.0466500 -79.4539829
0.0467000 -79.4555904
0.0467500 -79.4571935
0.0468000 -79.4587921
0.0468500 -79.4603864
0.0469000 -79.4619762
0.0469500 -79.4635617
0.0470000 -79.4651427
0.0470500 -79.4667194
0.0471000 -79.4682918
0.0471500 -79.4698598
0.0472000 -79.4714234
0.0472500 -79.4729827
0.0473000 -79.4745377
0.0473500 -79.4760884
0.0474000 -79.4776348
0.0474500 -79.4791769
0.0475000 -79.4807148
0.0475500 -79.4822483
0.0476000 -79.4837776
0.0476500 -79.4853027
0.0477000 -79.4868235
0.0477500 -79.4883401
0.0478000 -79.4898525
0.0478500 -79.4913606
0.0479000 -79.4928646
0.0479500 -79.4943644
0.0480000 -79.4958600
0.0480500 -79.4973514
0.0481000 -79.4988387
0.0481500 -79.5003219
0.0482000 -79.5018009
0.0482500 -79.5032758
0.0483000 -79.5047465
0.0483500 -79.5062132
0.0484000 -79.5076757
0.0484500 -79.5091342
0.0485000 -79.5105886
0.0485500 -79.5120390
0.0486000 -79.5134852
0.0486500 -79.5149275
0.0487000 -79.5163657
0.0487500 -79.5177998
0.0488000 -79.5192300
0.0488500 -79.5206561
0.0489000 -79.5220783
0.0489500 -79.5234965
0.0490000 -79.5249107
0.0490500 -79.5263209
0.0491000 -79.5277271
0.0491500 -79.5291295
0.0492000 -79.5305278
0.0492500 -79.5319223
0.0493000 -79.5333128
0.0493500 -79.5346994
0.0494000 -79.5360822
0.0494500 -79.5374610
0.0495000 -79.5388360
0.0495500 -79.5402070
0.0496000 -79.5415743
0.0496500 -79.5429376
0.0497000 -79.5442972
0.0497500 -79.5456529
0.0498000 -79.5470047
0.0498500 -79.5483528
0.0499000 -79.5496971
0.0499500 -79.5510375
0.0500000 -79.5523742
0.0500500 -79.5537071
0.0501000 -79.5550363
0.0501500 -79.5563617
0.0502000 -79.5576833
0.0502500 -79.5590012
0.0503000 -79.5603154
0.0503500 -79.5616258
0.0504000 -79.5629326
0.0504500 -79.5642356
0.0505000 -79.5655350
0.0505500 -79.5668306
0.0506000 -79.5681226
0.0506500 -79.5694110
0.0507000 -79.5706957
0.0507500 -79.5719767
0.0508000 -79.5732541
0.0508500 -79.5745279
0.0509000 -79.5757981
0.0509500 -79.5770646
0.0510000 -79.5783276
0.0510500 -79.5795870
0.0511000 -79.5808428
0.0511500 -79.5820950
0.0512000 -79.5833436
0.0512500 -79.5845887
0.0513000 -79.5858303
0.0513500 -79.5870683
0.0514000 -79.5883028
0.0514500 -79.5895338
0.0515000 -79.5907613
0.0515500 -79.5919853
0.0516000 -79.5932057
0.0516500 -79.5944228
0.0517000 -79.5956363
0.0517500 -79.5968464
0.0518000 -79.5980530
0.0518500 -79.5992562
0.0519000 -79.6004559
0.0519500 -79.6016522
0.0520000 -79.6028451
0.0520500 -79.6040346
0.0521000 -79.6052206
0.0521500 -79.6064033
0.0522000 -79.6075826
0.0522500 -79.6087586
0.0523000 -79.6099311
0.0523500 -79.6111003
0.0524000 -79.6122662
0.0524500 -79.6134287
0.0525000 -79.6145879
0.0525500 -79.6157437
0.0526000 -79.6168963
0.0526500 -79.6180455
0.0527000 -79.6191914
0.0527500 -79.6203341
0.0528000 -79.6214735
0.0528500 -79.6226096
0.0529000 -79.6237424
0.0529500 -79.6248720
0.0530000 -79.6259983
0.0530500 -79.6271214
0.0531000 -79.6282413
0.0531500 -79.6293579
0.0532000 -79.6304714
0.0532500 -79.6315816
0.0533000 -79.6326887
0.0533500 -79.6337925
0.0534000 -79.6348932
0.0534500 -79.6359907
0.0535000 -79.6370850
0.0535500 -79.6381762
0.0536000 -79.6392642
0.0536500 -79.6403491
0.0537000 -79.6414309
0.0537500 -79.6425096
0.0538000 -79.6435851
0.0538500 -79.6446575
0.0539000 -79.6457269
0.0539500 -79.6467931
0.0540000 -79.6478563
0.0540500 -79.6489164
0.0541000 -79.6499734
0.0541500 -79.6510274
0.0542000 -79.6520783
0.0542500 -79.6531262
0.0543000 -79.6541711
0.0543500 -79.6552129
0.0544000 -79.6562517
0.0544500 -79.6572875
0.0545000 -79.6583203
0.0545500 -79.6593502
0.0546000 -79.6603770
0.0546500 -79.6614008
0.0547000 -79.6624217
0.0547500 -79.6634397
0.0548000 -79.6644547
0.0548500 -79.6654667
0.0549000 -79.6664758
0.0549500 -79.6674820
0.0550000 -79.6684852
0.0550500 -79.6694855
0.0551000 -79.6704830
0.0551500 -79.6714775
0.0552000 -79.6724691
0.0552500 -79.6734579
0.0553000 -79.6744438
0.0553500 -79.6754268
0.0554000 -79.6764070
0.0554500 -79.6773843
0.0555000 -79.6783587
0.0555500 -79.6793304
0.0556000 -79.6802992
0.0556500 -79.6812652
0.0557000 -79.6822283
0.0557500 -79.6831887
0.0558000 -79.6841462
0.0558500 -79.6851010
0.0559000 -79.6860530
0.0559500 -79.6870022
0.0560000 -79.6879487
0.0560500 -79.6888924
0.0561000 -79.6898333
0.0561500 -79.6907715
0.0562000 -79.6917069
0.0562500 -79.6926396
0.0563000 -79.6935696
0.0563500 -79.6944969
0.0564000 -79.6954215
0.0564500 -79.6963433
0.0565000 -79.6972625
0.0565500 -79.6981790
0.0566000 -79.6990928
0.0566500 -79.7000039
0.0567000 -79.7009124
0.0567500 -79.7018182
0.0568000 -79.7027213
0.0568500 -79.7036219
0.0569000 -79.7045197
0.0569500 -79.7054150
0.0570000 -79.7063076
0.0570500 -79.7071976
0.0571000 -79.7080850
0.0571500 -79.7089698
0.0572000 -79.7098520
0.0572500 -79.7107316
0.0573000 -79.7116087
0.0573500 -79.7124832
0.0574000 -79.7133551
0.0574500 -79.7142244
0.0575000 -79.7150912
0.0575500 -79.7159554
0.0576000 -79.7168172
0.0576500 -79.7176763
0.0577000 -79.7185330
0.0577500 -79.7193871
0.0578000 -79.7202388
0.0578500 -79.7210879
0.0579000 -79.7219345
0.0579500 -79.7227787
0.0580000 -79.7236203
0.0580500 -79.7244595
0.0581000 -79.7252962
0.0581500 -79.7261305
0.0582000 -79.7269623
0.0582500 -79.7277916
0.0583000 -79.7286185
0.0583500 -79.7294430
0.0584000 -79.7302650
0.0584500 -79.7310846
0.0585000 -79.7319019
0.0585500 -79.7327166
0.0586000 -79.7335290
0.0586500 -79.7343390
0.0587000 -79.7351467
0.0587500 -79.7359519
0.0588000 -79.7367547
0.0588500 -79.7375552
0.0589000 -79.7383533
0.0589500 -79.7391491
0.0590000 -79.7399425
0.0590500 -79.7407336
0.0591000 -79.7415223
0.0591500 -79.7423088
0.0592000 -79.7430928
0.0592500 -79.7438746
0.0593000 -79.7446541
0.0593500 -79.7454312
0.0594000 -79.7462061
0.0594500 -79.7469786
0.0595000 -79.7477489
0.0595500 -79.7485169
0.0596000 -79.7492827
0.0596500 -79.7500461
0.0597000 -79.7508073
0.0597500 -79.7515663
0.0598000 -79.7523230
0.0598500 -79.7530774
0.0599000 -79.7538297
0.0599500 -79.7545797
0.0600000 -79.7553275
0.0600500 -79.7560730
0.0601000 -79.7568164
0.0601500 -79.7575575
0.0602000 -79.7582965
0.0602500 -79.7590332
0.0603000 -79.7597678
0.0603500 -79.7605002
0.0604000 -79.7612304
0.0604500 -79.7619585
0.0605000 -79.7626844
0.0605500 -79.7634081
0.0606000 -79.7641297
0.0606500 -79.7648492
0.0607000 -79.7655665
0.0607500 -79.7662817
0.0608000 -79.7669947
0.0608500 -79.7677057
0.0609000 -79.7684145
0.0609500 -79.7691212
0.0610000 -79.7698258
0.0610500 -79.7705284
0.0611000 -79.7712288
0.0611500 -79.7719272
0.0612000 -79.7726234
0.0612500 -79.7733176
0.0613000 -79.7740098
0.0613500 -79.7746999
0.0614000 -79.7753879
0.0614500 -79.7760739
0.0615000 -79.7767578
0.0615500 -79.7774397
0.0616000 -79.7781196
0.0616500 -79.7787974
0.0617000 -79.7794732
0.0617500 -79.7801470
0.0618000 -79.7808188
0.0618500 -79.7814886
0.0619000 -79.7821564
0.0619500 -79.7828222
0.0620000 -79.7834861
0.0620500 -79.7841479
0.0621000 -79.7848078
0.0621500 -79.7854657
0.0622000 -79.7861216
0.0622500 -79.7867756
0.0623000 -79.7874276
0.0623500 -79.7880777
0.0624000 -79.7887258
0.0624500 -79.7893720
0.0625000 -79.7900163
0.0625500 -79.7906587
0.0626000 -79.7912991
0.0626500 -79.7919376
0.0627000 -79.7925742
0.0627500 -79.7932089
0.0628000 -79.7938417
0.0628500 -79.7944727
0.0629000 -79.7951017
0.0629500 -79.7957288
0.0630000 -79.7963541
0.0630500 -79.7969775
0.0631000 -79.7975990
0.0631500 -79.7982187
0.0632000 -79.7988366
0.0632500 -79.7994525
0.0633000 -79.8000667
0.0633500 -79.8006789
0.0634000 -79.8012894
0.0634500 -79.8018980
0.0635000 -79.8025048
0.0635500 -79.8031098
0.0636000 -79.8037130
0.0636500 -79.8043144
0.0637000 -79.8049140
0.0637500 -79.8055117
0.0638000 -79.8061077
0.0638500 -79.8067019
0.0639000 -79.8072943
0.0639500 -79.8078849
0.0640000 -79.8084738
0.0640500 -79.8090609
0.0641000 -79.8096462
0.0641500 -79.8102298
0.0642000 -79.8108116
0.0642500 -79.8113917
0.0643000 -79.8119701
0.0643500 -79.8125467
0.0644000 -79.8131215
0.0644500 -79.8136947
0.0645000 -79.8142661
0.0645500 -79.8148358
0.0646000 -79.8154038
0.0646500 -79.8159701
0.0647000 -79.8165347
0.0647500 -79.8170976
0.0648000 -79.8176588
0.0648500 -79.8182183
0.0649000 -79.8187761
0.0649500 -79.8193323
0.0650000 -79.8198867
0.0650500 -79.8204396
0.0651000 -79.8209907
0.0651500 -79.8215402
0.0652000 -79.8220880
0.0652500 -79.8226342
0.0653000 -79.8231788
0.0653500 -79.8237217
0.0654000 -79.8242630
0.0654500 -79.8248026
0.0655000 -79.8253406
0.0655500 -79.8258770
0.0656000 -79.8264118
0.0656500 -79.8269450
0.0657000 -79.8274765
0.0657500 -79.8280065
0.0658000 -79.8285349
0.0658500 -79.8290617
0.0659000 -79.8295868
0.0659500 -79.8301104
0.0660000 -79.8306325
0.0660500 -79.8311529
0.0661000 -79.8316718
0.0661500 -79.8321891
0.0662000 -79.8327049
0.0662500 -79.8332191
0.0663000 -79.8337317
0.0663500 -79.8342428
0.0664000 -79.8347524
0.0664500 -79.8352604
0.0665000 -79.8357669
0.0665500 -79.8362719
0.0666000 -79.8367753
0.0666500 -79.8372772
0.0667000 -79.8377776
0.0667500 -79.8382765
0.0668000 -79.8387739
0.0668500 -79.8392698
0.0669000 -79.8397642
0.0669500 -79.8402571
0.0670000 -79.8407485
0.0670500 -79.8412384
0.0671000 -79.8417268
0.0671500 -79.8422138
0.0672000 -79.8426993
0.0672500 -79.8431833
0.0673000 -79.8436659
0.0673500 -79.8441470
0.0674000 -79.8446266
0.0674500 -79.8451048
0.0675000 -79.8455815
0.0675500 -79.8460568
0.0676000 -79.8465307
0.0676500 -79.8470031
0.0677000 -79.8474741
0.0677500 -79.8479437
0.0678000 -79.8484119
0.0678500 -79.8488786
0.0679000 -79.8493439
0.0679500 -79.8498078
0.0680000 -79.8502703
0.0680500 -79.8507315
0.0681000 -79.8511912
0.0681500 -79.8516495