/*--------------------------------*- C++ -*----------------------------------*\
| =========                 |                                                 |
| \\      /  F ield         | OpenFOAM: The Open Source CFD Toolbox           |
|  \\    /   O peration     | Version:  2312                                  |
|   \\  /    A nd           | Website:  www.openfoam.com                      |
|    \\/     M anipulation  |                                                 |
\*---------------------------------------------------------------------------*/
FoamFile
{
    version     2.0;
    format      ascii;
    arch        "LSB;label=32;scalar=64";
    class       pointVectorField;
    location    "0.3";
    object      pointD;
}
// * * * * * * * * * * * * * * * * * * * * * * * * * * * * * * * * * * * * * //

dimensions      [0 1 0 0 0 0 0];

internalField   nonuniform List<vector> 
112333
(
(0 0 0)
(0 0 0)
(0 0 0)
(0 0 0)
(0 0 0)
(0 0 0)
(0 0 0)
(0 0 0)
(0 0 0)
(0 0 0)
(0 0 0)
(0 0 0)
(0 0 0)
(0 0 0)
(0 0 0)
(0 0 0)
(0 0 0)
(0 0 0)
(0 0 0)
(0 0 0)
(0 0 0)
(0 0 0)
(0 0 0)
(0 0 0)
(0 0 0)
(0 0 0)
(0 0 0)
(0 0 0)
(0 0 0)
(0 0 0)
(0 0 0)
(0 0 0)
(0 0 0)
(0 0 0)
(0 0 0)
(0 0 0)
(0 0 0)
(0 0 0)
(0 0 0)
(0 0 0)
(0 0 0)
(0 0 0)
(0 0 0)
(0 0 0)
(0 0 0)
(0 0 0)
(0 0 0)
(0 0 0)
(0 0 0)
(0 0 0)
(0 0 0)
(0 0 0)
(0 0 0)
(0 0 0)
(0 0 0)
(0 0 0)
(0 0 0)
(0 0 0)
(0 0 0)
(0 0 0)
(0 0 0)
(0 0 0)
(0 0 0)
(0 0 0)
(0 0 0)
(0 0 0)
(0 0 0)
(0 0 0)
(0 0 0)
(0 0 0)
(0 0 0)
(0 0 0)
(0 0 0)
(0 0 0)
(0 0 0)
(0 0 0)
(0 0 0)
(0 0 0)
(0 0 0)
(0 0 0)
(0 0 0)
(0 0 0)
(0 0 0)
(0 0 0)
(0 0 0)
(0 0 0)
(0 0 0)
(0 0 0)
(0 0 0)
(0 0 0)
(0 0 0)
(0 0 0)
(0 0 0)
(0 0 0)
(0 0 0)
(0 0 0)
(0 0 0)
(0 0 0)
(0 0 0)
(0 0 0)
(0 0 0)
(0 0 0)
(0 0 0)
(0 0 0)
(0 0 0)
(0 0 0)
(0 0 0)
(0 0 0)
(0 0 0)
(0 0 0)
(0 0 0)
(0 0 0)
(0 0 0)
(0 0 0)
(0 0 0)
(0 0 0)
(0 0 0)
(0 0 0)
(0 0 0)
(0 0 0)
(0 0 0)
(0 0 0)
(0 0 0)
(0 0 0)
(0 0 0)
(0 0 0)
(0 0 0)
(0 0 0)
(0 0 0)
(0 0 0)
(0 0 0)
(0 0 0)
(0 0 0)
(0 0 0)
(0 0 0)
(0 0 0)
(0 0 0)
(0 0 0)
(0 0 0)
(0 0 0)
(0 0 0)
(0 0 0)
(0 0 0)
(0 0 0)
(0.000109672 -0.000103104 -4.49616e-06)
(0.000114065 -9.82225e-05 -4.49628e-06)
(0.00011824 -9.31538e-05 -4.49654e-06)
(0.000122191 -8.79079e-05 -4.49633e-06)
(0.000125909 -8.24941e-05 -4.49615e-06)
(0.000129388 -7.69235e-05 -4.49636e-06)
(0.00013262 -7.12065e-05 -4.49646e-06)
(0.0001356 -6.53539e-05 -4.49623e-06)
(0.000138322 -5.93768e-05 -4.496e-06)
(0.00014078 -5.3287e-05 -4.49582e-06)
(0.00014297 -4.70957e-05 -4.49596e-06)
(0.000144888 -4.08146e-05 -4.49634e-06)
(0.000146531 -3.44556e-05 -4.49645e-06)
(0.000147894 -2.80312e-05 -4.49629e-06)
(0.000148976 -2.15535e-05 -4.4961e-06)
(0.000149774 -1.50345e-05 -4.49656e-06)
(0.000150288 -8.48709e-06 -4.49666e-06)
(0.000150515 -1.92348e-06 -4.49658e-06)
(0.000150456 4.64337e-06 -4.4962e-06)
(0.00015011 1.12018e-05 -4.49628e-06)
(0.000149478 1.77387e-05 -4.4962e-06)
(0.000148562 2.42423e-05 -4.49636e-06)
(0.000147363 3.06993e-05 -4.4963e-06)
(0.000145884 3.70978e-05 -4.4963e-06)
(0.000144127 4.34256e-05 -4.49614e-06)
(0.000142095 4.96712e-05 -4.49609e-06)
(0.000139794 5.58223e-05 -4.49623e-06)
(0.000137226 6.18668e-05 -4.49631e-06)
(0.000134397 6.77936e-05 -4.49639e-06)
(0.000131311 7.35915e-05 -4.49628e-06)
(0.000127977 7.9249e-05 -4.49619e-06)
(0.000124398 8.4756e-05 -4.4963e-06)
(0.000120582 9.01016e-05 -4.49628e-06)
(0.000116538 9.52755e-05 -4.49606e-06)
(0.000112271 0.000100268 -4.49613e-06)
(0.00010779 0.00010507 -4.4961e-06)
(0.000103104 0.000109672 -4.49616e-06)
(9.82225e-05 0.000114065 -4.49628e-06)
(9.31538e-05 0.00011824 -4.49654e-06)
(8.79079e-05 0.000122191 -4.49633e-06)
(8.24941e-05 0.000125909 -4.49615e-06)
(7.69235e-05 0.000129388 -4.49636e-06)
(7.12065e-05 0.00013262 -4.49646e-06)
(6.53539e-05 0.0001356 -4.49623e-06)
(5.93768e-05 0.000138322 -4.496e-06)
(5.3287e-05 0.00014078 -4.49582e-06)
(4.70957e-05 0.00014297 -4.49596e-06)
(4.08146e-05 0.000144888 -4.49634e-06)
(3.44556e-05 0.000146531 -4.49645e-06)
(2.80312e-05 0.000147894 -4.49629e-06)
(2.15535e-05 0.000148976 -4.4961e-06)
(1.50345e-05 0.000149774 -4.49656e-06)
(8.48709e-06 0.000150288 -4.49666e-06)
(1.92348e-06 0.000150515 -4.49658e-06)
(-4.64337e-06 0.000150456 -4.4962e-06)
(-1.12018e-05 0.00015011 -4.49628e-06)
(-1.77387e-05 0.000149478 -4.4962e-06)
(-2.42423e-05 0.000148562 -4.49636e-06)
(-3.06993e-05 0.000147363 -4.4963e-06)
(-3.70978e-05 0.000145884 -4.4963e-06)
(-4.34256e-05 0.000144127 -4.49614e-06)
(-4.96712e-05 0.000142095 -4.49609e-06)
(-5.58223e-05 0.000139794 -4.49623e-06)
(-6.18668e-05 0.000137226 -4.49631e-06)
(-6.77936e-05 0.000134397 -4.49639e-06)
(-7.35915e-05 0.000131311 -4.49628e-06)
(-7.9249e-05 0.000127977 -4.49619e-06)
(-8.4756e-05 0.000124398 -4.4963e-06)
(-9.01016e-05 0.000120582 -4.49628e-06)
(-9.52755e-05 0.000116538 -4.49606e-06)
(-0.000100268 0.000112271 -4.49613e-06)
(-0.00010507 0.00010779 -4.4961e-06)
(-0.000109672 0.000103104 -4.49616e-06)
(-0.000114065 9.82225e-05 -4.49628e-06)
(-0.00011824 9.31538e-05 -4.49654e-06)
(-0.000122191 8.79079e-05 -4.49633e-06)
(-0.000125909 8.24941e-05 -4.49615e-06)
(-0.000129388 7.69235e-05 -4.49636e-06)
(-0.00013262 7.12065e-05 -4.49646e-06)
(-0.0001356 6.53539e-05 -4.49623e-06)
(-0.000138322 5.93768e-05 -4.496e-06)
(-0.00014078 5.3287e-05 -4.49582e-06)
(-0.00014297 4.70957e-05 -4.49596e-06)
(-0.000144888 4.08146e-05 -4.49634e-06)
(-0.000146531 3.44556e-05 -4.49645e-06)
(-0.000147894 2.80312e-05 -4.49629e-06)
(-0.000148976 2.15535e-05 -4.4961e-06)
(-0.000149774 1.50345e-05 -4.49656e-06)
(-0.000150288 8.48709e-06 -4.49666e-06)
(-0.000150515 1.92348e-06 -4.49658e-06)
(-0.000150456 -4.64337e-06 -4.4962e-06)
(-0.00015011 -1.12018e-05 -4.49628e-06)
(-0.000149478 -1.77387e-05 -4.4962e-06)
(-0.000148562 -2.42423e-05 -4.49636e-06)
(-0.000147363 -3.06993e-05 -4.4963e-06)
(-0.000145884 -3.70978e-05 -4.4963e-06)
(-0.000144127 -4.34256e-05 -4.49614e-06)
(-0.000142095 -4.96712e-05 -4.49609e-06)
(-0.000139794 -5.58223e-05 -4.49623e-06)
(-0.000137226 -6.18668e-05 -4.49631e-06)
(-0.000134397 -6.77936e-05 -4.49639e-06)
(-0.000131311 -7.35915e-05 -4.49628e-06)
(-0.000127977 -7.9249e-05 -4.49619e-06)
(-0.000124398 -8.4756e-05 -4.4963e-06)
(-0.000120582 -9.01016e-05 -4.49628e-06)
(-0.000116538 -9.52755e-05 -4.49606e-06)
(-0.000112271 -0.000100268 -4.49613e-06)
(-0.00010779 -0.00010507 -4.4961e-06)
(-0.000103104 -0.000109672 -4.49616e-06)
(-9.82225e-05 -0.000114065 -4.49628e-06)
(-9.31538e-05 -0.00011824 -4.49654e-06)
(-8.79079e-05 -0.000122191 -4.49633e-06)
(-8.24941e-05 -0.000125909 -4.49615e-06)
(-7.69235e-05 -0.000129388 -4.49636e-06)
(-7.12065e-05 -0.00013262 -4.49646e-06)
(-6.53539e-05 -0.0001356 -4.49623e-06)
(-5.93768e-05 -0.000138322 -4.496e-06)
(-5.3287e-05 -0.00014078 -4.49582e-06)
(-4.70957e-05 -0.00014297 -4.49596e-06)
(-4.08146e-05 -0.000144888 -4.49634e-06)
(-3.44556e-05 -0.000146531 -4.49645e-06)
(-2.80312e-05 -0.000147894 -4.49629e-06)
(-2.15535e-05 -0.000148976 -4.4961e-06)
(-1.50345e-05 -0.000149774 -4.49656e-06)
(-8.48709e-06 -0.000150288 -4.49666e-06)
(-1.92348e-06 -0.000150515 -4.49658e-06)
(4.64337e-06 -0.000150456 -4.4962e-06)
(1.12018e-05 -0.00015011 -4.49628e-06)
(1.77387e-05 -0.000149478 -4.4962e-06)
(2.42423e-05 -0.000148562 -4.49636e-06)
(3.06993e-05 -0.000147363 -4.4963e-06)
(3.70978e-05 -0.000145884 -4.4963e-06)
(4.34256e-05 -0.000144127 -4.49614e-06)
(4.96712e-05 -0.000142095 -4.49609e-06)
(5.58223e-05 -0.000139794 -4.49623e-06)
(6.18668e-05 -0.000137226 -4.49631e-06)
(6.77936e-05 -0.000134397 -4.49639e-06)
(7.35915e-05 -0.000131311 -4.49628e-06)
(7.9249e-05 -0.000127977 -4.49619e-06)
(8.4756e-05 -0.000124398 -4.4963e-06)
(9.01016e-05 -0.000120582 -4.49628e-06)
(9.52755e-05 -0.000116538 -4.49606e-06)
(0.000100268 -0.000112271 -4.49613e-06)
(0.00010507 -0.00010779 -4.4961e-06)
(0.000105328 -0.000111794 3.36916e-06)
(0.000110104 -0.000107094 3.36916e-06)
(0.00011467 -0.000102189 3.36913e-06)
(0.000119019 -9.709e-05 3.36896e-06)
(0.00012314 -9.18062e-05 3.36923e-06)
(0.000127028 -8.63472e-05 3.36899e-06)
(0.000130673 -8.07243e-05 3.36898e-06)
(0.00013407 -7.49478e-05 3.36921e-06)
(0.000137211 -6.90284e-05 3.36946e-06)
(0.000140092 -6.29777e-05 3.36948e-06)
(0.000142706 -5.68071e-05 3.36935e-06)
(0.000145048 -5.05282e-05 3.3691e-06)
(0.000147114 -4.41531e-05 3.36901e-06)
(0.000148899 -3.7694e-05 3.36916e-06)
(0.000150402 -3.1163e-05 3.36911e-06)
(0.000151618 -2.45731e-05 3.36908e-06)
(0.000152546 -1.79359e-05 3.36886e-06)
(0.000153183 -1.12653e-05 3.36909e-06)
(0.000153528 -4.57284e-06 3.36912e-06)
(0.000153582 2.12833e-06 3.36925e-06)
(0.000153343 8.82571e-06 3.36906e-06)
(0.000152812 1.55059e-05 3.36913e-06)
(0.00015199 2.21566e-05 3.36908e-06)
(0.000150879 2.87651e-05 3.36911e-06)
(0.000149481 3.53188e-05 3.36923e-06)
(0.000147798 4.18056e-05 3.36932e-06)
(0.000145833 4.82127e-05 3.36931e-06)
(0.000143592 5.45281e-05 3.36915e-06)
(0.000141076 6.07395e-05 3.36902e-06)
(0.000138293 6.68355e-05 3.36905e-06)
(0.000135246 7.2804e-05 3.36921e-06)
(0.000131941 7.86343e-05 3.36899e-06)
(0.000128386 8.43142e-05 3.36931e-06)
(0.000124586 8.98342e-05 3.3693e-06)
(0.000120549 9.51832e-05 3.36919e-06)
(0.000116282 0.000100351 3.36929e-06)
(0.000111794 0.000105328 3.36916e-06)
(0.000107094 0.000110104 3.36916e-06)
(0.000102189 0.00011467 3.36913e-06)
(9.709e-05 0.000119019 3.36896e-06)
(9.18062e-05 0.00012314 3.36923e-06)
(8.63472e-05 0.000127028 3.36899e-06)
(8.07243e-05 0.000130673 3.36898e-06)
(7.49478e-05 0.00013407 3.36921e-06)
(6.90284e-05 0.000137211 3.36946e-06)
(6.29777e-05 0.000140092 3.36948e-06)
(5.68071e-05 0.000142706 3.36935e-06)
(5.05282e-05 0.000145048 3.3691e-06)
(4.41531e-05 0.000147114 3.36901e-06)
(3.7694e-05 0.000148899 3.36916e-06)
(3.1163e-05 0.000150402 3.36911e-06)
(2.45731e-05 0.000151618 3.36908e-06)
(1.79359e-05 0.000152546 3.36886e-06)
(1.12653e-05 0.000153183 3.36909e-06)
(4.57284e-06 0.000153528 3.36912e-06)
(-2.12833e-06 0.000153582 3.36925e-06)
(-8.82571e-06 0.000153343 3.36906e-06)
(-1.55059e-05 0.000152812 3.36913e-06)
(-2.21566e-05 0.00015199 3.36908e-06)
(-2.87651e-05 0.000150879 3.36911e-06)
(-3.53188e-05 0.000149481 3.36923e-06)
(-4.18056e-05 0.000147798 3.36932e-06)
(-4.82127e-05 0.000145833 3.36931e-06)
(-5.45281e-05 0.000143592 3.36915e-06)
(-6.07395e-05 0.000141076 3.36902e-06)
(-6.68355e-05 0.000138293 3.36905e-06)
(-7.2804e-05 0.000135246 3.36921e-06)
(-7.86343e-05 0.000131941 3.36899e-06)
(-8.43142e-05 0.000128386 3.36931e-06)
(-8.98342e-05 0.000124586 3.3693e-06)
(-9.51832e-05 0.000120549 3.36919e-06)
(-0.000100351 0.000116282 3.36929e-06)
(-0.000105328 0.000111794 3.36916e-06)
(-0.000110104 0.000107094 3.36916e-06)
(-0.00011467 0.000102189 3.36913e-06)
(-0.000119019 9.709e-05 3.36896e-06)
(-0.00012314 9.18062e-05 3.36923e-06)
(-0.000127028 8.63472e-05 3.36899e-06)
(-0.000130673 8.07243e-05 3.36898e-06)
(-0.00013407 7.49478e-05 3.36921e-06)
(-0.000137211 6.90284e-05 3.36946e-06)
(-0.000140092 6.29777e-05 3.36948e-06)
(-0.000142706 5.68071e-05 3.36935e-06)
(-0.000145048 5.05282e-05 3.3691e-06)
(-0.000147114 4.41531e-05 3.36901e-06)
(-0.000148899 3.7694e-05 3.36916e-06)
(-0.000150402 3.1163e-05 3.36911e-06)
(-0.000151618 2.45731e-05 3.36908e-06)
(-0.000152546 1.79359e-05 3.36886e-06)
(-0.000153183 1.12653e-05 3.36909e-06)
(-0.000153528 4.57284e-06 3.36912e-06)
(-0.000153582 -2.12833e-06 3.36925e-06)
(-0.000153343 -8.82571e-06 3.36906e-06)
(-0.000152812 -1.55059e-05 3.36913e-06)
(-0.00015199 -2.21566e-05 3.36908e-06)
(-0.000150879 -2.87651e-05 3.36911e-06)
(-0.000149481 -3.53188e-05 3.36923e-06)
(-0.000147798 -4.18056e-05 3.36932e-06)
(-0.000145833 -4.82127e-05 3.36931e-06)
(-0.000143592 -5.45281e-05 3.36915e-06)
(-0.000141076 -6.07395e-05 3.36902e-06)
(-0.000138293 -6.68355e-05 3.36905e-06)
(-0.000135246 -7.2804e-05 3.36921e-06)
(-0.000131941 -7.86343e-05 3.36899e-06)
(-0.000128386 -8.43142e-05 3.36931e-06)
(-0.000124586 -8.98342e-05 3.3693e-06)
(-0.000120549 -9.51832e-05 3.36919e-06)
(-0.000116282 -0.000100351 3.36929e-06)
(-0.000111794 -0.000105328 3.36916e-06)
(-0.000107094 -0.000110104 3.36916e-06)
(-0.000102189 -0.00011467 3.36913e-06)
(-9.709e-05 -0.000119019 3.36896e-06)
(-9.18062e-05 -0.00012314 3.36923e-06)
(-8.63472e-05 -0.000127028 3.36899e-06)
(-8.07243e-05 -0.000130673 3.36898e-06)
(-7.49478e-05 -0.00013407 3.36921e-06)
(-6.90284e-05 -0.000137211 3.36946e-06)
(-6.29777e-05 -0.000140092 3.36948e-06)
(-5.68071e-05 -0.000142706 3.36935e-06)
(-5.05282e-05 -0.000145048 3.3691e-06)
(-4.41531e-05 -0.000147114 3.36901e-06)
(-3.7694e-05 -0.000148899 3.36916e-06)
(-3.1163e-05 -0.000150402 3.36911e-06)
(-2.45731e-05 -0.000151618 3.36908e-06)
(-1.79359e-05 -0.000152546 3.36886e-06)
(-1.12653e-05 -0.000153183 3.36909e-06)
(-4.57284e-06 -0.000153528 3.36912e-06)
(2.12833e-06 -0.000153582 3.36925e-06)
(8.82571e-06 -0.000153343 3.36906e-06)
(1.55059e-05 -0.000152812 3.36913e-06)
(2.21566e-05 -0.00015199 3.36908e-06)
(2.87651e-05 -0.000150879 3.36911e-06)
(3.53188e-05 -0.000149481 3.36923e-06)
(4.18056e-05 -0.000147798 3.36932e-06)
(4.82127e-05 -0.000145833 3.36931e-06)
(5.45281e-05 -0.000143592 3.36915e-06)
(6.07395e-05 -0.000141076 3.36902e-06)
(6.68355e-05 -0.000138293 3.36905e-06)
(7.2804e-05 -0.000135246 3.36921e-06)
(7.86343e-05 -0.000131941 3.36899e-06)
(8.43142e-05 -0.000128386 3.36931e-06)
(8.98342e-05 -0.000124586 3.3693e-06)
(9.51832e-05 -0.000120549 3.36919e-06)
(0.000100351 -0.000116282 3.36929e-06)
(0 0 0)
(0 0 0)
(0 0 0)
(0 0 0)
(0 0 0)
(0 0 0)
(0 0 0)
(0 0 0)
(0 0 0)
(0 0 0)
(0 0 0)
(0 0 0)
(0 0 0)
(0 0 0)
(0 0 0)
(0 0 0)
(0 0 0)
(0 0 0)
(0 0 0)
(0 0 0)
(0 0 0)
(0 0 0)
(0 0 0)
(0 0 0)
(0 0 0)
(0 0 0)
(0 0 0)
(0 0 0)
(0 0 0)
(0 0 0)
(0 0 0)
(0 0 0)
(0 0 0)
(0 0 0)
(0 0 0)
(0 0 0)
(0 0 0)
(0 0 0)
(0 0 0)
(0 0 0)
(0 0 0)
(0 0 0)
(0 0 0)
(0 0 0)
(0 0 0)
(0 0 0)
(0 0 0)
(0 0 0)
(0 0 0)
(0 0 0)
(0 0 0)
(0 0 0)
(0 0 0)
(0 0 0)
(0 0 0)
(0 0 0)
(0 0 0)
(0 0 0)
(0 0 0)
(0 0 0)
(0 0 0)
(0 0 0)
(0 0 0)
(0 0 0)
(0 0 0)
(0 0 0)
(0 0 0)
(0 0 0)
(0 0 0)
(0 0 0)
(0 0 0)
(0 0 0)
(0 0 0)
(0 0 0)
(0 0 0)
(0 0 0)
(0 0 0)
(0 0 0)
(0 0 0)
(0 0 0)
(0 0 0)
(0 0 0)
(0 0 0)
(0 0 0)
(0 0 0)
(0 0 0)
(0 0 0)
(0 0 0)
(0 0 0)
(0 0 0)
(0 0 0)
(0 0 0)
(0 0 0)
(0 0 0)
(0 0 0)
(0 0 0)
(0 0 0)
(0 0 0)
(0 0 0)
(0 0 0)
(0 0 0)
(0 0 0)
(0 0 0)
(0 0 0)
(0 0 0)
(0 0 0)
(0 0 0)
(0 0 0)
(0 0 0)
(0 0 0)
(0 0 0)
(0 0 0)
(0 0 0)
(0 0 0)
(0 0 0)
(0 0 0)
(0 0 0)
(0 0 0)
(0 0 0)
(0 0 0)
(0 0 0)
(0 0 0)
(0 0 0)
(0 0 0)
(0 0 0)
(0 0 0)
(0 0 0)
(0 0 0)
(0 0 0)
(0 0 0)
(0 0 0)
(0 0 0)
(0 0 0)
(0 0 0)
(0 0 0)
(0 0 0)
(0 0 0)
(0 0 0)
(0 0 0)
(0 0 0)
(0 0 0)
(0 0 0)
(0 0 0)
(0 0 0)
(9.95657e-05 -0.000120572 9.78597e-06)
(0.00010473 -0.000116114 9.78584e-06)
(0.000109696 -0.000111435 9.7858e-06)
(0.000114452 -0.000106545 9.78599e-06)
(0.00011899 -0.000101451 9.78609e-06)
(0.000123302 -9.61641e-05 9.78595e-06)
(0.00012738 -9.06942e-05 9.78593e-06)
(0.000131214 -8.50518e-05 9.78603e-06)
(0.000134799 -7.92472e-05 9.78602e-06)
(0.000138128 -7.32922e-05 9.78611e-06)
(0.000141193 -6.71973e-05 9.78602e-06)
(0.00014399 -6.09746e-05 9.78591e-06)
(0.000146513 -5.46357e-05 9.78585e-06)
(0.000148756 -4.81926e-05 9.78586e-06)
(0.000150717 -4.16584e-05 9.78609e-06)
(0.00015239 -3.50447e-05 9.78608e-06)
(0.000153774 -2.83638e-05 9.78582e-06)
(0.000154865 -2.16293e-05 9.78581e-06)
(0.000155661 -1.48536e-05 9.7859e-06)
(0.000156161 -8.05004e-06 9.78615e-06)
(0.000156363 -1.23063e-06 9.7861e-06)
(0.000156268 5.5914e-06 9.78586e-06)
(0.000155875 1.24023e-05 9.78586e-06)
(0.000155186 1.91896e-05 9.78589e-06)
(0.000154201 2.59402e-05 9.78597e-06)
(0.000152923 3.26417e-05 9.78604e-06)
(0.000151354 3.92812e-05 9.78595e-06)
(0.000149496 4.58457e-05 9.78599e-06)
(0.000147354 5.23231e-05 9.78593e-06)
(0.000144932 5.87009e-05 9.78597e-06)
(0.000142233 6.49667e-05 9.78608e-06)
(0.000139264 7.11089e-05 9.786e-06)
(0.00013603 7.7116e-05 9.78588e-06)
(0.000132536 8.29762e-05 9.78592e-06)
(0.000128791 8.86783e-05 9.78599e-06)
(0.0001248 9.42117e-05 9.78592e-06)
(0.000120572 9.95657e-05 9.78597e-06)
(0.000116114 0.00010473 9.78584e-06)
(0.000111435 0.000109696 9.7858e-06)
(0.000106545 0.000114452 9.78599e-06)
(0.000101451 0.00011899 9.78609e-06)
(9.61641e-05 0.000123302 9.78595e-06)
(9.06942e-05 0.00012738 9.78593e-06)
(8.50518e-05 0.000131214 9.78603e-06)
(7.92472e-05 0.000134799 9.78602e-06)
(7.32922e-05 0.000138128 9.78611e-06)
(6.71973e-05 0.000141193 9.78602e-06)
(6.09746e-05 0.00014399 9.78591e-06)
(5.46357e-05 0.000146513 9.78585e-06)
(4.81926e-05 0.000148756 9.78586e-06)
(4.16584e-05 0.000150717 9.78609e-06)
(3.50447e-05 0.00015239 9.78608e-06)
(2.83638e-05 0.000153774 9.78582e-06)
(2.16293e-05 0.000154865 9.78581e-06)
(1.48536e-05 0.000155661 9.7859e-06)
(8.05004e-06 0.000156161 9.78615e-06)
(1.23063e-06 0.000156363 9.7861e-06)
(-5.5914e-06 0.000156268 9.78586e-06)
(-1.24023e-05 0.000155875 9.78586e-06)
(-1.91896e-05 0.000155186 9.78589e-06)
(-2.59402e-05 0.000154201 9.78597e-06)
(-3.26417e-05 0.000152923 9.78604e-06)
(-3.92812e-05 0.000151354 9.78595e-06)
(-4.58457e-05 0.000149496 9.78599e-06)
(-5.23231e-05 0.000147354 9.78593e-06)
(-5.87009e-05 0.000144932 9.78597e-06)
(-6.49667e-05 0.000142233 9.78608e-06)
(-7.11089e-05 0.000139264 9.786e-06)
(-7.7116e-05 0.00013603 9.78588e-06)
(-8.29762e-05 0.000132536 9.78592e-06)
(-8.86783e-05 0.000128791 9.78599e-06)
(-9.42117e-05 0.0001248 9.78592e-06)
(-9.95657e-05 0.000120572 9.78597e-06)
(-0.00010473 0.000116114 9.78584e-06)
(-0.000109696 0.000111435 9.7858e-06)
(-0.000114452 0.000106545 9.78599e-06)
(-0.00011899 0.000101451 9.78609e-06)
(-0.000123302 9.61641e-05 9.78595e-06)
(-0.00012738 9.06942e-05 9.78593e-06)
(-0.000131214 8.50518e-05 9.78603e-06)
(-0.000134799 7.92472e-05 9.78602e-06)
(-0.000138128 7.32922e-05 9.78611e-06)
(-0.000141193 6.71973e-05 9.78602e-06)
(-0.00014399 6.09746e-05 9.78591e-06)
(-0.000146513 5.46357e-05 9.78585e-06)
(-0.000148756 4.81926e-05 9.78586e-06)
(-0.000150717 4.16584e-05 9.78609e-06)
(-0.00015239 3.50447e-05 9.78608e-06)
(-0.000153774 2.83638e-05 9.78582e-06)
(-0.000154865 2.16293e-05 9.78581e-06)
(-0.000155661 1.48536e-05 9.7859e-06)
(-0.000156161 8.05004e-06 9.78615e-06)
(-0.000156363 1.23063e-06 9.7861e-06)
(-0.000156268 -5.5914e-06 9.78586e-06)
(-0.000155875 -1.24023e-05 9.78586e-06)
(-0.000155186 -1.91896e-05 9.78589e-06)
(-0.000154201 -2.59402e-05 9.78597e-06)
(-0.000152923 -3.26417e-05 9.78604e-06)
(-0.000151354 -3.92812e-05 9.78595e-06)
(-0.000149496 -4.58457e-05 9.78599e-06)
(-0.000147354 -5.23231e-05 9.78593e-06)
(-0.000144932 -5.87009e-05 9.78597e-06)
(-0.000142233 -6.49667e-05 9.78608e-06)
(-0.000139264 -7.11089e-05 9.786e-06)
(-0.00013603 -7.7116e-05 9.78588e-06)
(-0.000132536 -8.29762e-05 9.78592e-06)
(-0.000128791 -8.86783e-05 9.78599e-06)
(-0.0001248 -9.42117e-05 9.78592e-06)
(-0.000120572 -9.95657e-05 9.78597e-06)
(-0.000116114 -0.00010473 9.78584e-06)
(-0.000111435 -0.000109696 9.7858e-06)
(-0.000106545 -0.000114452 9.78599e-06)
(-0.000101451 -0.00011899 9.78609e-06)
(-9.61641e-05 -0.000123302 9.78595e-06)
(-9.06942e-05 -0.00012738 9.78593e-06)
(-8.50518e-05 -0.000131214 9.78603e-06)
(-7.92472e-05 -0.000134799 9.78602e-06)
(-7.32922e-05 -0.000138128 9.78611e-06)
(-6.71973e-05 -0.000141193 9.78602e-06)
(-6.09746e-05 -0.00014399 9.78591e-06)
(-5.46357e-05 -0.000146513 9.78585e-06)
(-4.81926e-05 -0.000148756 9.78586e-06)
(-4.16584e-05 -0.000150717 9.78609e-06)
(-3.50447e-05 -0.00015239 9.78608e-06)
(-2.83638e-05 -0.000153774 9.78582e-06)
(-2.16293e-05 -0.000154865 9.78581e-06)
(-1.48536e-05 -0.000155661 9.7859e-06)
(-8.05004e-06 -0.000156161 9.78615e-06)
(-1.23063e-06 -0.000156363 9.7861e-06)
(5.5914e-06 -0.000156268 9.78586e-06)
(1.24023e-05 -0.000155875 9.78586e-06)
(1.91896e-05 -0.000155186 9.78589e-06)
(2.59402e-05 -0.000154201 9.78597e-06)
(3.26417e-05 -0.000152923 9.78604e-06)
(3.92812e-05 -0.000151354 9.78595e-06)
(4.58457e-05 -0.000149496 9.78599e-06)
(5.23231e-05 -0.000147354 9.78593e-06)
(5.87009e-05 -0.000144932 9.78597e-06)
(6.49667e-05 -0.000142233 9.78608e-06)
(7.11089e-05 -0.000139264 9.786e-06)
(7.7116e-05 -0.00013603 9.78588e-06)
(8.29762e-05 -0.000132536 9.78592e-06)
(8.86783e-05 -0.000128791 9.78599e-06)
(9.42117e-05 -0.0001248 9.78592e-06)
(0 0 0)
(0 0 0)
(0 0 0)
(0 0 0)
(0 0 0)
(0 0 0)
(0 0 0)
(0 0 0)
(0 0 0)
(0 0 0)
(0 0 0)
(0 0 0)
(0 0 0)
(0 0 0)
(0 0 0)
(0 0 0)
(0 0 0)
(0 0 0)
(0 0 0)
(0 0 0)
(0 0 0)
(0 0 0)
(0 0 0)
(0 0 0)
(0 0 0)
(0 0 0)
(0 0 0)
(0 0 0)
(0 0 0)
(0 0 0)
(0 0 0)
(0 0 0)
(0 0 0)
(0 0 0)
(0 0 0)
(0 0 0)
(0 0 0)
(0 0 0)
(0 0 0)
(0 0 0)
(0 0 0)
(0 0 0)
(0 0 0)
(0 0 0)
(0 0 0)
(0 0 0)
(0 0 0)
(0 0 0)
(0 0 0)
(0 0 0)
(0 0 0)
(0 0 0)
(0 0 0)
(0 0 0)
(0 0 0)
(0 0 0)
(0 0 0)
(0 0 0)
(0 0 0)
(0 0 0)
(0 0 0)
(0 0 0)
(0 0 0)
(0 0 0)
(0 0 0)
(0 0 0)
(0 0 0)
(0 0 0)
(0 0 0)
(0 0 0)
(0 0 0)
(0 0 0)
(0 0 0)
(0 0 0)
(0 0 0)
(0 0 0)
(0 0 0)
(0 0 0)
(0 0 0)
(0 0 0)
(0 0 0)
(0 0 0)
(0 0 0)
(0 0 0)
(0 0 0)
(0 0 0)
(0 0 0)
(0 0 0)
(0 0 0)
(0 0 0)
(0 0 0)
(0 0 0)
(0 0 0)
(0 0 0)
(0 0 0)
(0 0 0)
(0 0 0)
(0 0 0)
(0 0 0)
(0 0 0)
(0 0 0)
(0 0 0)
(0 0 0)
(0 0 0)
(0 0 0)
(0 0 0)
(0 0 0)
(0 0 0)
(0 0 0)
(0 0 0)
(0 0 0)
(0 0 0)
(0 0 0)
(0 0 0)
(0 0 0)
(0 0 0)
(0 0 0)
(0 0 0)
(0 0 0)
(0 0 0)
(0 0 0)
(0 0 0)
(0 0 0)
(0 0 0)
(0 0 0)
(0 0 0)
(0 0 0)
(0 0 0)
(0 0 0)
(0 0 0)
(0 0 0)
(0 0 0)
(0 0 0)
(0 0 0)
(0 0 0)
(0 0 0)
(0 0 0)
(0 0 0)
(0 0 0)
(0 0 0)
(0 0 0)
(0 0 0)
(0 0 0)
(0 0 0)
(9.11652e-05 -0.000129269 1.32291e-05)
(9.67171e-05 -0.000125169 1.32291e-05)
(0.000102085 -0.000120832 1.32291e-05)
(0.000107258 -0.000116264 1.32292e-05)
(0.000112227 -0.000111474 1.32292e-05)
(0.000116983 -0.000106473 1.32293e-05)
(0.000121516 -0.000101269 1.32292e-05)
(0.000125818 -9.58723e-05 1.32292e-05)
(0.00012988 -9.02928e-05 1.32291e-05)
(0.000133695 -8.45415e-05 1.32291e-05)
(0.000137255 -7.86296e-05 1.32292e-05)
(0.000140554 -7.25677e-05 1.32292e-05)
(0.000143586 -6.63676e-05 1.32291e-05)
(0.000146344 -6.00413e-05 1.32291e-05)
(0.000148824 -5.36007e-05 1.32292e-05)
(0.00015102 -4.70584e-05 1.32293e-05)
(0.000152929 -4.04261e-05 1.32292e-05)
(0.000154547 -3.37165e-05 1.32291e-05)
(0.00015587 -2.69438e-05 1.32292e-05)
(0.000156897 -2.01191e-05 1.32293e-05)
(0.000157625 -1.32558e-05 1.32292e-05)
(0.000158054 -6.36778e-06 1.32291e-05)
(0.000158181 5.32422e-07 1.32291e-05)
(0.000158007 7.43152e-06 1.32291e-05)
(0.000157533 1.43167e-05 1.32291e-05)
(0.000156758 2.11748e-05 1.32291e-05)
(0.000155685 2.79923e-05 1.32291e-05)
(0.000154316 3.47563e-05 1.32292e-05)
(0.000152653 4.14545e-05 1.32292e-05)
(0.0001507 4.80736e-05 1.32292e-05)
(0.000148459 5.46014e-05 1.32292e-05)
(0.000145937 6.10249e-05 1.32292e-05)
(0.000143136 6.73327e-05 1.32292e-05)
(0.000140062 7.35123e-05 1.32291e-05)
(0.000136723 7.95517e-05 1.32291e-05)
(0.000133122 8.54398e-05 1.32291e-05)
(0.000129269 9.11652e-05 1.32291e-05)
(0.000125169 9.67171e-05 1.32291e-05)
(0.000120832 0.000102085 1.32291e-05)
(0.000116264 0.000107258 1.32292e-05)
(0.000111474 0.000112227 1.32292e-05)
(0.000106473 0.000116983 1.32293e-05)
(0.000101269 0.000121516 1.32292e-05)
(9.58723e-05 0.000125818 1.32292e-05)
(9.02928e-05 0.00012988 1.32291e-05)
(8.45415e-05 0.000133695 1.32291e-05)
(7.86296e-05 0.000137255 1.32292e-05)
(7.25677e-05 0.000140554 1.32292e-05)
(6.63676e-05 0.000143586 1.32291e-05)
(6.00413e-05 0.000146344 1.32291e-05)
(5.36007e-05 0.000148824 1.32292e-05)
(4.70584e-05 0.00015102 1.32293e-05)
(4.04261e-05 0.000152929 1.32292e-05)
(3.37165e-05 0.000154547 1.32291e-05)
(2.69438e-05 0.00015587 1.32292e-05)
(2.01191e-05 0.000156897 1.32293e-05)
(1.32558e-05 0.000157625 1.32292e-05)
(6.36778e-06 0.000158054 1.32291e-05)
(-5.32422e-07 0.000158181 1.32291e-05)
(-7.43152e-06 0.000158007 1.32291e-05)
(-1.43167e-05 0.000157533 1.32291e-05)
(-2.11748e-05 0.000156758 1.32291e-05)
(-2.79923e-05 0.000155685 1.32291e-05)
(-3.47563e-05 0.000154316 1.32292e-05)
(-4.14545e-05 0.000152653 1.32292e-05)
(-4.80736e-05 0.0001507 1.32292e-05)
(-5.46014e-05 0.000148459 1.32292e-05)
(-6.10249e-05 0.000145937 1.32292e-05)
(-6.73327e-05 0.000143136 1.32292e-05)
(-7.35123e-05 0.000140062 1.32291e-05)
(-7.95517e-05 0.000136723 1.32291e-05)
(-8.54398e-05 0.000133122 1.32291e-05)
(-9.11652e-05 0.000129269 1.32291e-05)
(-9.67171e-05 0.000125169 1.32291e-05)
(-0.000102085 0.000120832 1.32291e-05)
(-0.000107258 0.000116264 1.32292e-05)
(-0.000112227 0.000111474 1.32292e-05)
(-0.000116983 0.000106473 1.32293e-05)
(-0.000121516 0.000101269 1.32292e-05)
(-0.000125818 9.58723e-05 1.32292e-05)
(-0.00012988 9.02928e-05 1.32291e-05)
(-0.000133695 8.45415e-05 1.32291e-05)
(-0.000137255 7.86296e-05 1.32292e-05)
(-0.000140554 7.25677e-05 1.32292e-05)
(-0.000143586 6.63676e-05 1.32291e-05)
(-0.000146344 6.00413e-05 1.32291e-05)
(-0.000148824 5.36007e-05 1.32292e-05)
(-0.00015102 4.70584e-05 1.32293e-05)
(-0.000152929 4.04261e-05 1.32292e-05)
(-0.000154547 3.37165e-05 1.32291e-05)
(-0.00015587 2.69438e-05 1.32292e-05)
(-0.000156897 2.01191e-05 1.32293e-05)
(-0.000157625 1.32558e-05 1.32292e-05)
(-0.000158054 6.36778e-06 1.32291e-05)
(-0.000158181 -5.32422e-07 1.32291e-05)
(-0.000158007 -7.43152e-06 1.32291e-05)
(-0.000157533 -1.43167e-05 1.32291e-05)
(-0.000156758 -2.11748e-05 1.32291e-05)
(-0.000155685 -2.79923e-05 1.32291e-05)
(-0.000154316 -3.47563e-05 1.32292e-05)
(-0.000152653 -4.14545e-05 1.32292e-05)
(-0.0001507 -4.80736e-05 1.32292e-05)
(-0.000148459 -5.46014e-05 1.32292e-05)
(-0.000145937 -6.10249e-05 1.32292e-05)
(-0.000143136 -6.73327e-05 1.32292e-05)
(-0.000140062 -7.35123e-05 1.32291e-05)
(-0.000136723 -7.95517e-05 1.32291e-05)
(-0.000133122 -8.54398e-05 1.32291e-05)
(-0.000129269 -9.11652e-05 1.32291e-05)
(-0.000125169 -9.67171e-05 1.32291e-05)
(-0.000120832 -0.000102085 1.32291e-05)
(-0.000116264 -0.000107258 1.32292e-05)
(-0.000111474 -0.000112227 1.32292e-05)
(-0.000106473 -0.000116983 1.32293e-05)
(-0.000101269 -0.000121516 1.32292e-05)
(-9.58723e-05 -0.000125818 1.32292e-05)
(-9.02928e-05 -0.00012988 1.32291e-05)
(-8.45415e-05 -0.000133695 1.32291e-05)
(-7.86296e-05 -0.000137255 1.32292e-05)
(-7.25677e-05 -0.000140554 1.32292e-05)
(-6.63676e-05 -0.000143586 1.32291e-05)
(-6.00413e-05 -0.000146344 1.32291e-05)
(-5.36007e-05 -0.000148824 1.32292e-05)
(-4.70584e-05 -0.00015102 1.32293e-05)
(-4.04261e-05 -0.000152929 1.32292e-05)
(-3.37165e-05 -0.000154547 1.32291e-05)
(-2.69438e-05 -0.00015587 1.32292e-05)
(-2.01191e-05 -0.000156897 1.32293e-05)
(-1.32558e-05 -0.000157625 1.32292e-05)
(-6.36778e-06 -0.000158054 1.32291e-05)
(5.32421e-07 -0.000158181 1.32291e-05)
(7.43152e-06 -0.000158007 1.32291e-05)
(1.43167e-05 -0.000157533 1.32291e-05)
(2.11748e-05 -0.000156758 1.32291e-05)
(2.79923e-05 -0.000155685 1.32291e-05)
(3.47563e-05 -0.000154316 1.32292e-05)
(4.14545e-05 -0.000152653 1.32292e-05)
(4.80736e-05 -0.0001507 1.32292e-05)
(5.46014e-05 -0.000148459 1.32292e-05)
(6.10249e-05 -0.000145937 1.32292e-05)
(6.73327e-05 -0.000143136 1.32292e-05)
(7.35123e-05 -0.000140062 1.32291e-05)
(7.95517e-05 -0.000136723 1.32291e-05)
(8.54398e-05 -0.000133122 1.32291e-05)
(0 0 0)
(0 0 0)
(0 0 0)
(0 0 0)
(0 0 0)
(0 0 0)
(0 0 0)
(0 0 0)
(0 0 0)
(0 0 0)
(0 0 0)
(0 0 0)
(0 0 0)
(0 0 0)
(0 0 0)
(0 0 0)
(0 0 0)
(0 0 0)
(0 0 0)
(0 0 0)
(0 0 0)
(0 0 0)
(0 0 0)
(0 0 0)
(0 0 0)
(0 0 0)
(0 0 0)
(0 0 0)
(0 0 0)
(0 0 0)
(0 0 0)
(0 0 0)
(0 0 0)
(0 0 0)
(0 0 0)
(0 0 0)
(0 0 0)
(0 0 0)
(0 0 0)
(0 0 0)
(0 0 0)
(0 0 0)
(0 0 0)
(0 0 0)
(0 0 0)
(0 0 0)
(0 0 0)
(0 0 0)
(0 0 0)
(0 0 0)
(0 0 0)
(0 0 0)
(0 0 0)
(0 0 0)
(0 0 0)
(0 0 0)
(0 0 0)
(0 0 0)
(0 0 0)
(0 0 0)
(0 0 0)
(0 0 0)
(0 0 0)
(0 0 0)
(0 0 0)
(0 0 0)
(0 0 0)
(0 0 0)
(0 0 0)
(0 0 0)
(0 0 0)
(0 0 0)
(0 0 0)
(0 0 0)
(0 0 0)
(0 0 0)
(0 0 0)
(0 0 0)
(0 0 0)
(0 0 0)
(0 0 0)
(0 0 0)
(0 0 0)
(0 0 0)
(0 0 0)
(0 0 0)
(0 0 0)
(0 0 0)
(0 0 0)
(0 0 0)
(0 0 0)
(0 0 0)
(0 0 0)
(0 0 0)
(0 0 0)
(0 0 0)
(0 0 0)
(0 0 0)
(0 0 0)
(0 0 0)
(0 0 0)
(0 0 0)
(0 0 0)
(0 0 0)
(0 0 0)
(0 0 0)
(0 0 0)
(0 0 0)
(0 0 0)
(0 0 0)
(0 0 0)
(0 0 0)
(0 0 0)
(0 0 0)
(0 0 0)
(0 0 0)
(0 0 0)
(0 0 0)
(0 0 0)
(0 0 0)
(0 0 0)
(0 0 0)
(0 0 0)
(0 0 0)
(0 0 0)
(0 0 0)
(0 0 0)
(0 0 0)
(0 0 0)
(0 0 0)
(0 0 0)
(0 0 0)
(0 0 0)
(0 0 0)
(0 0 0)
(0 0 0)
(0 0 0)
(0 0 0)
(0 0 0)
(0 0 0)
(0 0 0)
(0 0 0)
(0 0 0)
(0 0 0)
(8.13892e-05 -0.000137515 1.45402e-05)
(8.731e-05 -0.000133834 1.45402e-05)
(9.30646e-05 -0.000129899 1.45402e-05)
(9.86422e-05 -0.000125715 1.45403e-05)
(0.000104032 -0.000121293 1.45403e-05)
(0.000109223 -0.00011664 1.45403e-05)
(0.000114207 -0.000111765 1.45403e-05)
(0.000118974 -0.000106677 1.45402e-05)
(0.000123514 -0.000101386 1.45402e-05)
(0.000127819 -9.59015e-05 1.45402e-05)
(0.00013188 -9.02347e-05 1.45402e-05)
(0.00013569 -8.43964e-05 1.45402e-05)
(0.000139243 -7.83971e-05 1.45402e-05)
(0.00014253 -7.22487e-05 1.45402e-05)
(0.000145546 -6.59631e-05 1.45402e-05)
(0.000148284 -5.95519e-05 1.45403e-05)
(0.000150741 -5.30273e-05 1.45403e-05)
(0.00015291 -4.64015e-05 1.45403e-05)
(0.000154789 -3.96875e-05 1.45403e-05)
(0.000156373 -3.28979e-05 1.45403e-05)
(0.000157659 -2.60456e-05 1.45403e-05)
(0.000158645 -1.91436e-05 1.45402e-05)
(0.000159329 -1.22056e-05 1.45402e-05)
(0.00015971 -5.24395e-06 1.45402e-05)
(0.000159786 1.72745e-06 1.45402e-05)
(0.000159559 8.69556e-06 1.45402e-05)
(0.000159028 1.56468e-05 1.45402e-05)
(0.000158194 2.25686e-05 1.45402e-05)
(0.000157059 2.94475e-05 1.45403e-05)
(0.000155625 3.62705e-05 1.45403e-05)
(0.000153895 4.30243e-05 1.45403e-05)
(0.000151871 4.96961e-05 1.45402e-05)
(0.000149559 5.62733e-05 1.45402e-05)
(0.000146962 6.27435e-05 1.45402e-05)
(0.000144085 6.90942e-05 1.45402e-05)
(0.000140935 7.53133e-05 1.45402e-05)
(0.000137515 8.13892e-05 1.45402e-05)
(0.000133834 8.731e-05 1.45402e-05)
(0.000129899 9.30646e-05 1.45402e-05)
(0.000125715 9.86422e-05 1.45403e-05)
(0.000121293 0.000104032 1.45403e-05)
(0.00011664 0.000109223 1.45403e-05)
(0.000111765 0.000114207 1.45403e-05)
(0.000106677 0.000118974 1.45402e-05)
(0.000101386 0.000123514 1.45402e-05)
(9.59015e-05 0.000127819 1.45402e-05)
(9.02347e-05 0.00013188 1.45402e-05)
(8.43964e-05 0.00013569 1.45402e-05)
(7.83971e-05 0.000139243 1.45402e-05)
(7.22487e-05 0.00014253 1.45402e-05)
(6.59631e-05 0.000145546 1.45402e-05)
(5.95519e-05 0.000148284 1.45403e-05)
(5.30273e-05 0.000150741 1.45403e-05)
(4.64015e-05 0.00015291 1.45403e-05)