/*--------------------------------*- C++ -*----------------------------------*\
| =========                 |                                                 |
| \\      /  F ield         | OpenFOAM: The Open Source CFD Toolbox           |
|  \\    /   O peration     | Version:  2412                                  |
|   \\  /    A nd           | Website:  www.openfoam.com                      |
|    \\/     M anipulation  |                                                 |
\*---------------------------------------------------------------------------*/
FoamFile
{
    version     2.0;
    format      ascii;
    arch        "LSB;label=32;scalar=64";
    class       volScalarField;
    location    "0.030011";
    object      Vm;
}
// * * * * * * * * * * * * * * * * * * * * * * * * * * * * * * * * * * * * * //

dimensions      [0 0 0 0 0 0 0];

internalField   nonuniform List<scalar> 
8679
(
1.09862
1.09857
1.09842
1.0982
1.09794
1.09761
1.09723
1.0968
1.0963
1.09573
1.09508
1.09439
1.09367
1.09291
1.0921
1.09124
1.09036
1.08946
1.08853
1.08755
1.08656
1.08555
1.08451
1.08349
1.08251
1.08153
1.0806
1.0797
1.07883
1.078
1.07724
1.07656
1.07595
1.09853
1.09845
1.09831
1.09811
1.09784
1.0975
1.09712
1.09667
1.09615
1.09559
1.09497
1.09429
1.09357
1.09279
1.09197
1.09112
1.09022
1.08931
1.08837
1.0874
1.08641
1.08541
1.08441
1.08343
1.08244
1.08148
1.08053
1.07962
1.07876
1.07792
1.07716
1.07648
1.07589
1.09823
1.09816
1.09803
1.09783
1.09756
1.09723
1.09683
1.09636
1.09584
1.09525
1.09462
1.09395
1.09324
1.09248
1.09169
1.09086
1.09
1.0891
1.08816
1.08719
1.08622
1.08525
1.08425
1.08326
1.08229
1.08133
1.0804
1.0795
1.07862
1.07781
1.07708
1.07643
1.07586
1.11258
1.1125
1.11236
1.11214
1.11186
1.11149
1.11106
1.11056
1.11
1.10937
1.10868
1.10791
1.10708
1.10619
1.10525
1.10425
1.10321
1.10212
1.10099
1.09981
1.09859
1.09736
1.09609
1.0948
1.09348
1.09216
1.09085
1.08955
1.08823
1.08692
1.08562
1.08435
1.08311
1.11244
1.11236
1.11222
1.112
1.1117
1.11134
1.11091
1.11041
1.10984
1.1092
1.10851
1.10775
1.10694
1.10606
1.10512
1.10413
1.10306
1.10196
1.10082
1.09965
1.09847
1.09723
1.09597
1.09469
1.09338
1.09205
1.09073
1.0894
1.08809
1.08678
1.08548
1.08422
1.08299
1.11221
1.11213
1.11197
1.11176
1.11148
1.11111
1.11066
1.11014
1.10956
1.10889
1.10819
1.10743
1.10664
1.10577
1.10484
1.10385
1.10282
1.10174
1.10062
1.09945
1.09825
1.09703
1.09577
1.0945
1.09318
1.09187
1.09056
1.08922
1.08788
1.08657
1.08531
1.08406
1.08285
1.1118
1.11171
1.11155
1.11134
1.11105
1.11069
1.11024
1.10972
1.10914
1.10847
1.10776
1.10701
1.10621
1.10534
1.10442
1.10343
1.1024
1.10133
1.10021
1.09905
1.09786
1.09665
1.0954
1.09413
1.09282
1.09152
1.0902
1.08886
1.08754
1.08625
1.08499
1.08378
1.08259
1.11112
1.11104
1.11089
1.11066
1.11037
1.11001
1.10957
1.10908
1.1085
1.10786
1.10716
1.10641
1.10559
1.10472
1.10379
1.1028
1.10175
1.10067
1.09955
1.0984
1.09724
1.09603
1.09479
1.09354
1.09228
1.09098
1.08969
1.08841
1.08713
1.08587
1.08462
1.0834
1.08223
1.12653
1.12648
1.12633
1.12611
1.12581
1.12542
1.12495
1.1244
1.12381
1.12315
1.12243
1.12164
1.12078
1.11987
1.11889
1.11784
1.11673
1.11555
1.11432
1.11303
1.11171
1.11033
1.10891
1.10743
1.10592
1.10439
1.10283
1.10125
1.09964
1.09801
1.0964
1.09476
1.09313
1.12645
1.12637
1.12621
1.12598
1.12568
1.1253
1.12484
1.12431
1.1237
1.12303
1.1223
1.1215
1.12065
1.11972
1.11874
1.11769
1.11658
1.1154
1.11416
1.11288
1.11155
1.11017
1.10877
1.10732
1.10582
1.10427
1.1027
1.10111
1.09952
1.0979
1.09626
1.09461
1.09298
1.12619
1.12611
1.12596
1.12573
1.12542
1.12504
1.1246
1.12408
1.12349
1.12282
1.12209
1.12128
1.1204
1.11947
1.11846
1.1174
1.11629
1.11513
1.11391
1.11264
1.11131
1.10994
1.10853
1.10706
1.10557
1.10404
1.10249
1.1009
1.0993
1.09767
1.09605
1.09441
1.09277
1.1258
1.12571
1.12556
1.12531
1.125
1.12463
1.12419
1.12367
1.12308
1.12241
1.12167
1.12086
1.11998
1.11905
1.11804
1.11698
1.11587
1.11471
1.1135
1.11223
1.1109
1.10953
1.1081
1.10665
1.10517
1.10366
1.10211
1.10053
1.09893
1.09731
1.09569
1.09408
1.09245
1.12518
1.1251
1.12493
1.1247
1.12439
1.12401
1.12354
1.12301
1.1224
1.12172
1.12099
1.12019
1.11933
1.1184
1.11742
1.11637
1.11526
1.11409
1.11286
1.11159
1.11028
1.10892
1.10752
1.10608
1.10458
1.10305
1.10151
1.09995
1.09838
1.0968
1.0952
1.09359
1.09199
1.12424
1.12415
1.12398
1.12375
1.12345
1.12307
1.12261
1.12208
1.12147
1.1208
1.12007
1.11929
1.11842
1.11749
1.1165
1.11547
1.11437
1.1132
1.11197
1.1107
1.1094
1.10805
1.10666
1.10523
1.10374
1.10223
1.1007
1.09916
1.09759
1.09602
1.09444
1.09285
1.09127
1.12294
1.12286
1.12271
1.12248
1.12218
1.1218
1.12135
1.12084
1.12024
1.11957
1.11883
1.11804
1.11718
1.11625
1.11527
1.11424
1.11315
1.11199
1.11078
1.10951
1.10822
1.10687
1.10549
1.10405
1.1026
1.10113
1.09963
1.09811
1.09658
1.09503
1.09348
1.09193
1.09038
1.12118
1.12112
1.12098
1.12077
1.12049
1.12012
1.11967
1.11915
1.11857
1.11792
1.11719
1.1164
1.11556
1.11464
1.11367
1.11265
1.11156
1.11042
1.10921
1.10795
1.10665
1.10533
1.10396
1.10257
1.10116
1.09972
1.09824
1.09675
1.09526
1.09378
1.09228
1.09077
1.08926
1.11896
1.11889
1.11876
1.11854
1.11825
1.1179
1.11749
1.11699
1.11641
1.11576
1.11504
1.11427
1.11344
1.11254
1.11158
1.11058
1.10952
1.10841
1.10723
1.10601
1.10474
1.10345
1.10211
1.10075
1.09936
1.09795
1.09653
1.0951
1.09365
1.0922
1.09075
1.08929
1.08784
1.11631
1.11625
1.1161
1.11588
1.11557
1.1152
1.11477
1.11428
1.11371
1.11309
1.1124
1.11165
1.11083
1.10995
1.10903
1.10805
1.10701
1.10593
1.10479
1.1036
1.10238
1.10113
1.09983
1.0985
1.09716
1.09581
1.09443
1.09304
1.09165
1.09026
1.08888
1.0875
1.08615
1.1131
1.11302
1.11286
1.11265
1.11237
1.11201
1.11158
1.11107
1.11051
1.10989
1.10922
1.10849
1.10769
1.10684
1.10595
1.105
1.10401
1.10295
1.10184
1.1007
1.09953
1.09832
1.09707
1.0958
1.09451
1.09321
1.09191
1.09062
1.08932
1.08802
1.08671
1.08544
1.0842
1.10916
1.10909
1.10895
1.10874
1.10847
1.10812
1.1077
1.10721
1.10667
1.10607
1.10542
1.10472
1.10395
1.10313
1.10228
1.10136
1.10039
1.09937
1.09832
1.09722
1.0961
1.09494
1.09376
1.09257
1.09134
1.09011
1.08889
1.08767
1.08645
1.08526
1.0841
1.08296
1.08186
1.1046
1.10454
1.10442
1.10421
1.10394
1.10361
1.1032
1.10273
1.10221
1.10164
1.10101
1.10032
1.09959
1.09882
1.09799
1.09711
1.09618
1.09521
1.09421
1.09317
1.0921
1.09102
1.08991
1.08879
1.08765
1.08653
1.08541
1.0843
1.0832
1.08215
1.08115
1.08019
1.07928
1.09977
1.09971
1.09958
1.09939
1.09912
1.0988
1.09841
1.09796
1.09746
1.09691
1.0963
1.09564
1.09494
1.09418
1.09338
1.09252
1.09164
1.09071
1.08976
1.08878
1.08776
1.08674
1.08574
1.08473
1.08371
1.08268
1.08168
1.08069
1.07974
1.07882
1.07797
1.0772
1.0765
1.09606
1.09599
1.09584
1.09564
1.09536
1.09503
1.09465
1.09421
1.09373
1.09321
1.09263
1.09201
1.09135
1.09062
1.08984
1.08901
1.08816
1.08727
1.08635
1.0854
1.08445
1.08349
1.08253
1.08157
1.0806
1.07966
1.07875
1.07786
1.07701
1.07621
1.07547
1.07481
1.07422
1.13998
1.1399
1.13975
1.1395
1.13918
1.13879
1.13834
1.13779
1.13719
1.13652
1.13579
1.135
1.13413
1.1332
1.1322
1.13113
1.12999
1.12878
1.12751
1.12618
1.12481
1.12339
1.12191
1.12037
1.11876
1.1171
1.1154
1.11365
1.11186
1.11003
1.10817
1.10628
1.10436
1.13988
1.1398
1.13965
1.13942
1.1391
1.13872
1.13826
1.13773
1.13712
1.13645
1.13572
1.13492
1.13404
1.13309
1.13208
1.131
1.12986
1.12867
1.1274
1.12607
1.12468
1.12323
1.12174
1.1202
1.1186
1.11694
1.11524
1.11349
1.11171
1.10989
1.10803
1.10615
1.10424
1.13969
1.13961
1.13944
1.13921
1.1389
1.13851
1.13804
1.13753
1.13694
1.13627
1.13552
1.1347
1.13383
1.1329
1.13188
1.1308
1.12966
1.12845
1.12718
1.12585
1.12446
1.123
1.12149
1.11994
1.11835
1.11671
1.11502
1.11327
1.11149
1.10967
1.10782
1.10593
1.10401
1.13932
1.13924
1.13907
1.13883
1.13852
1.13813
1.13767
1.13715
1.13655
1.13588
1.13513
1.13431
1.13343
1.13249
1.13147
1.1304
1.12926
1.12804
1.12677
1.12545
1.12406
1.1226
1.1211
1.11955
1.11796
1.11632
1.11464
1.1129
1.11112
1.10931
1.10745
1.10558
1.10367
1.13871
1.13862
1.13846
1.13822
1.1379
1.13751
1.13705
1.13651
1.1359
1.13522
1.13447
1.13367
1.13278
1.13184
1.13083
1.12976
1.12861
1.1274
1.12613
1.12481
1.12344
1.12201
1.12053
1.11899
1.11739
1.11574
1.11404
1.11231
1.11053
1.10872
1.10688
1.10501
1.10312
1.13781
1.13772
1.13757
1.13733
1.13702
1.13665
1.13619
1.13566
1.13504
1.13436
1.13363
1.13282
1.13193
1.13096
1.12994
1.12886
1.12772
1.12652
1.12526
1.12394
1.12257
1.12114
1.11966
1.11812
1.11652
1.11488
1.11318
1.11146
1.1097
1.1079
1.10607
1.10422
1.10235
1.13656
1.13649
1.13634
1.1361
1.1358
1.13542
1.13496
1.13444
1.13385
1.13317
1.13242
1.1316
1.13071
1.12974
1.12872
1.12764
1.1265
1.1253
1.12404
1.12271
1.12134
1.11992
1.11844
1.11689
1.1153
1.11367
1.11202
1.11032
1.10857
1.1068
1.10498
1.10313
1.10127
1.13484
1.13476
1.13461
1.13438
1.13408
1.13371
1.13326
1.13273
1.13213
1.13147
1.13073
1.12993
1.12906
1.12811
1.1271
1.12602
1.12488
1.12368
1.12242
1.12109
1.11973
1.11831
1.11682
1.1153
1.11374
1.11214
1.11049
1.10881
1.1071
1.10535
1.10357
1.10176
1.09992
1.13259
1.13252
1.13239
1.13216
1.13186
1.13149
1.13104
1.13052
1.12993
1.12927
1.12853
1.12773
1.12687
1.12593
1.12494
1.12389
1.12277
1.12158
1.12034
1.11904
1.11768
1.11628
1.11481
1.11332
1.11178
1.11021
1.1086
1.10694
1.10524
1.10352
1.10178
1.10001
1.09823
1.12984
1.12976
1.12961
1.12938
1.12907
1.12869
1.12824
1.12773
1.12713
1.12647
1.12574
1.12496
1.12411
1.1232
1.12223
1.1212
1.12011
1.11894
1.11771
1.11642
1.11509
1.11372
1.11231
1.11084
1.10933
1.10779
1.10621
1.10459
1.10293
1.10124
1.09954
1.09784
1.09612
1.12641
1.12633
1.12617
1.12593
1.12563
1.12526
1.12482
1.12431
1.12371
1.12306
1.12235
1.12157
1.12073
1.11983
1.11887
1.11784
1.11676
1.11562
1.11442
1.11316
1.11186
1.11052
1.10913
1.1077
1.10621
1.1047
1.10317
1.10161
1.10002
1.09841
1.09678
1.09514
1.0935
1.12222
1.12214
1.12198
1.12176
1.12146
1.12108
1.12064
1.12012
1.11953
1.11889
1.11819
1.11742
1.11659
1.11569
1.11475
1.11375
1.11267
1.11154
1.11036
1.10913
1.10787
1.10656
1.10521
1.10381
1.10239
1.10094
1.09945
1.09793
1.09642
1.09488
1.09334
1.0918
1.09028
1.11718
1.1171
1.11694
1.11671
1.11639
1.11602
1.11558
1.1151
1.11454
1.11392
1.11324
1.11248
1.11166
1.11078
1.10984
1.10885
1.10779
1.10669
1.10554
1.10434
1.10311
1.10183
1.10052
1.09919
1.09782
1.09644
1.09504
1.0936
1.09216
1.09072
1.08929
1.08787
1.08647
1.11163
1.11156
1.11141
1.11119
1.11089
1.11052
1.11009
1.1096
1.10905
1.10846
1.10779
1.10706
1.10626
1.10539
1.10445
1.10346
1.10243
1.10135
1.10021
1.09905
1.09785
1.09664
1.0954
1.09412
1.09282
1.0915
1.09016
1.08882
1.08747
1.08612
1.08481
1.08354
1.0823
1.10732
1.10723
1.10706
1.10683
1.10651
1.10615
1.10573
1.10525
1.10472
1.10413
1.10348
1.10278
1.102
1.10115
1.10023
1.09925
1.09825
1.09719
1.09608
1.09495
1.09379
1.09261
1.09139
1.09015
1.08888
1.08762
1.08634
1.08507
1.08379
1.08255
1.08135
1.08018
1.07905
1.15257
1.15251
1.15236
1.15213
1.15182
1.15143
1.15097
1.15043
1.14983
1.14918
1.14845
1.14765
1.14678
1.14585
1.14486
1.1438
1.14267
1.14145
1.14016
1.13882
1.13741
1.13595
1.13441
1.13282
1.13117
1.12945
1.12766
1.12583
1.12394
1.12198
1.11998
1.11793
1.11584
1.15251
1.15243
1.15227
1.15205
1.15174
1.15136
1.15091
1.15037
1.14978
1.14913
1.1484
1.1476
1.14672
1.14577
1.14476
1.1437
1.14255
1.14134
1.14004
1.13869
1.13728
1.13581
1.13427
1.13267
1.13102
1.12931
1.12753
1.12569
1.12379
1.12183
1.11983
1.11778
1.11569
1.15231
1.15223
1.15209
1.15187
1.15157
1.15119
1.15073
1.15021
1.14962
1.14896
1.14823
1.14742
1.14656
1.14562
1.1446
1.14352
1.14238
1.14116
1.13989
1.13854
1.13713
1.13565
1.1341
1.13249
1.13082
1.1291
1.12731
1.12547
1.12357
1.12163
1.11964
1.1176
1.1155
1.15198
1.1519
1.15174
1.15151
1.15121
1.15084
1.15039
1.14987
1.14927
1.14861
1.14786
1.14706
1.14619
1.14526
1.14425
1.14317
1.14203
1.14081
1.13954
1.1382
1.13679
1.1353
1.13374
1.13212
1.13045
1.12873
1.12695
1.12511
1.12321
1.12127
1.11928
1.11723
1.11513
1.15142
1.15134
1.1512
1.15097
1.15066
1.15028
1.14981
1.14928
1.14868
1.14801
1.14727
1.14646
1.14558
1.14464
1.14363
1.14256
1.14142
1.1402
1.13891
1.13756
1.13615
1.13467
1.13312
1.13151
1.12983
1.12811
1.12633
1.1245
1.12261
1.12067
1.11868
1.11664
1.11456
1.15062
1.15055
1.1504
1.15017
1.14986
1.14948
1.14902
1.14848
1.14788
1.14722
1.14648
1.14566
1.14477
1.14381
1.14279
1.14171
1.14056
1.13934
1.13805
1.13669
1.13528
1.1338
1.13226
1.13065
1.12897
1.12725
1.12547
1.12363
1.12175
1.11981
1.11784
1.11582
1.11374
1.14946
1.14937
1.14921
1.14898
1.14867
1.14829
1.14785
1.14733
1.14674
1.14607
1.14532
1.1445
1.14361
1.14265
1.14163
1.14053
1.13937
1.13814
1.13685
1.1355
1.1341
1.13262
1.13108
1.12947
1.1278
1.12609
1.12431
1.12248
1.1206
1.11867
1.11668
1.11465
1.11258
1.14779
1.14771
1.14755
1.14732
1.14701
1.14663
1.14618
1.14565
1.14506
1.1444
1.14366
1.14284
1.14196
1.141
1.13999
1.13889
1.13773
1.13652
1.13524
1.13388
1.13247
1.13101
1.12947
1.12788
1.12623
1.12452
1.12277
1.12096
1.1191
1.11718
1.11521
1.1132
1.11113
1.14556
1.14549
1.14534
1.14511
1.14481
1.14443
1.14398
1.14346
1.14287
1.14221
1.14147
1.14066
1.13978
1.13883
1.13782
1.13674
1.13558
1.13438
1.1331
1.13175
1.13034
1.12887
1.12736
1.12579
1.12416
1.12248
1.12074
1.11894
1.11709
1.11519
1.11324
1.11126
1.10925
1.14273
1.14265
1.14248
1.14225
1.14195
1.14158
1.14114
1.14063
1.14004
1.13938
1.13863
1.13782
1.13695
1.136
1.13497
1.13389
1.13276
1.13157
1.13031
1.12899
1.12761
1.12617
1.12467
1.12312
1.12151
1.11984
1.11811
1.11633
1.1145
1.11264
1.11074
1.1088
1.10682
1.13914
1.13905
1.13888
1.13864
1.13833
1.13795
1.13751
1.137
1.13642
1.13575
1.13501
1.13421
1.13334
1.13239
1.13137
1.1303
1.12917
1.12798
1.12674
1.12543
1.12405
1.12262
1.12115
1.11961
1.118
1.11636
1.11468
1.11296
1.11118
1.10937
1.10752
1.10562
1.10369
1.13461
1.13454
1.13437
1.13413
1.13381
1.13343
1.13299
1.13248
1.1319
1.13124
1.13051
1.1297
1.12882
1.12787
1.12687
1.12581
1.12469
1.1235
1.12225
1.12093
1.11957
1.11817
1.11672
1.1152
1.11365
1.11204
1.1104
1.10871
1.10699
1.10523
1.10345
1.10163
1.09978
1.12905
1.12897
1.12881
1.12858
1.12827
1.12789
1.12744
1.12692
1.12633
1.12568
1.12494
1.12414
1.12328
1.12236
1.12136
1.1203
1.11918
1.118
1.11675
1.11545
1.11411
1.11273
1.1113
1.10984
1.10832
1.10676
1.10515
1.10351
1.10184
1.10014
1.09844
1.09673
1.09501
1.12276
1.12269
1.12253
1.1223
1.12198
1.12159
1.12115
1.12065
1.12007
1.11943
1.11872
1.11793
1.11707
1.11613
1.11513
1.11407
1.11296
1.11177
1.11054
1.10927
1.10797
1.10662
1.10522
1.10379
1.10231
1.1008
1.09925
1.09766
1.09606
1.09445
1.09285
1.09124
1.08963
1.11774
1.11766
1.1175
1.11726
1.11695
1.11657
1.11614
1.11563
1.11505
1.1144
1.11368
1.1129
1.11206
1.11115
1.11017
1.10912
1.10802
1.10685
1.10563
1.10436
1.10307
1.10175
1.10038
1.09897
1.09753
1.09605
1.09454
1.09301
1.09146
1.08992
1.08839
1.08685
1.08534
1.16423
1.16415
1.164
1.16377
1.16348
1.1631
1.16265
1.16213
1.16155
1.16092
1.16021
1.15943
1.15859
1.15769
1.15671
1.15564
1.1545
1.15328
1.152
1.15064
1.14923
1.14774
1.14619
1.14456
1.14285
1.14108
1.13925
1.13733
1.13534
1.13329
1.13118
1.12899
1.12674
1.16415
1.16408
1.16394
1.16372
1.16343
1.16307
1.16263
1.16213
1.16155
1.1609
1.16019
1.1594
1.15855
1.15762
1.15662
1.15555
1.1544
1.15318
1.15189
1.15054
1.14913
1.14764
1.14606
1.14443
1.14272
1.14095
1.13911
1.1372
1.13522
1.13317
1.13104
1.12885
1.12659
1.16397
1.1639
1.16376
1.16354
1.16325
1.16289
1.16246
1.16196
1.16138
1.16073
1.16002
1.15924
1.15838
1.15746
1.15646
1.15539
1.15425
1.15304
1.15176
1.15039
1.14896
1.14745
1.14588
1.14423
1.14252
1.14073
1.13887
1.13695
1.13496
1.13291
1.1308
1.12862
1.12638
1.16367
1.1636
1.16347
1.16326
1.16297
1.1626
1.16217
1.16167
1.16109
1.16043
1.15972
1.15893
1.15808
1.15715
1.15616
1.15509
1.15395
1.15274
1.15145
1.15008
1.14863
1.14712
1.14554
1.14389
1.14217
1.14037
1.13851
1.13659
1.1346
1.13254
1.13042
1.12824
1.12601
1.1632
1.16313
1.16299
1.16277
1.16247
1.1621
1.16166
1.16115
1.16057
1.15992
1.15919
1.15839
1.15753
1.15659
1.15559
1.15451
1.15337
1.15215
1.15086
1.1495
1.14806
1.14656
1.14498
1.14332
1.1416
1.13981
1.13795
1.13602
1.13403
1.13197
1.12987
1.12769
1.12544
1.16248
1.16241
1.16226
1.16204
1.16175
1.16138
1.16094
1.16042
1.15982
1.15917
1.15844
1.15764
1.15677
1.15584
1.15483
1.15375
1.15258
1.15135
1.15005
1.14868
1.14724
1.14574
1.14416
1.14249
1.14077
1.13898
1.13711
1.13518
1.1332
1.13115
1.12904
1.12687
1.12463
1.16141
1.16133
1.16118
1.16096
1.16066
1.16029
1.15985
1.15934
1.15874
1.15808
1.15735
1.15655
1.15568
1.15473
1.1537
1.15261
1.15144
1.1502
1.1489
1.14753
1.1461
1.1446
1.14302
1.14136
1.13963
1.13784
1.13599
1.13407
1.13209
1.13004
1.12792
1.12574
1.12349
1.15979
1.15972
1.15957
1.15935
1.15905
1.15868
1.15825
1.15774
1.15715
1.15648
1.15575
1.15494
1.15406
1.15312
1.1521
1.15101
1.14985
1.14861
1.1473
1.14592
1.14449
1.14299
1.14142
1.13977
1.13806
1.13628
1.13444
1.13254
1.13057
1.12853
1.12643
1.12425
1.12202
1.1576
1.15753
1.15738
1.15715
1.15686
1.15649
1.15606
1.15556
1.15498
1.15432
1.15358
1.15276
1.15188
1.15093
1.14991
1.14882
1.14767
1.14644
1.14513
1.14375
1.14231
1.14081
1.13924
1.13762
1.13593
1.13416
1.13233
1.13043
1.12846
1.12642
1.12433
1.12218
1.11999
1.15472
1.15463
1.15446
1.15423
1.15393
1.15356
1.15314
1.15264
1.15206
1.1514
1.15065
1.14984
1.14894
1.14798
1.14696
1.14588
1.14472
1.1435
1.14221
1.14085
1.13942
1.13792
1.13637
1.13475
1.13307
1.13131
1.12949
1.12761
1.12567
1.12368
1.12162
1.11951
1.11734
1.15093
1.15084
1.15067
1.15043
1.15011
1.14973
1.14929
1.14877
1.14818
1.14752
1.1468
1.14598
1.1451
1.14413
1.14309
1.142
1.14086
1.13964
1.13834
1.13699
1.13558
1.13409
1.13253
1.13091
1.12925
1.12752
1.12573
1.12388
1.12197
1.12001
1.11799
1.11591
1.11378
1.14601
1.14593
1.14577
1.14552
1.14521
1.14482
1.14437
1.14385
1.14325
1.14259
1.14184
1.14101
1.14011
1.13913
1.1381
1.13701
1.13586
1.13463
1.13335
1.132
1.13059
1.12912
1.12756
1.12597
1.12432
1.12262
1.12087
1.11906
1.1172
1.11529
1.11333
1.11131
1.10926
1.13976
1.1397
1.13955
1.13932
1.13901
1.13862
1.13815
1.1376
1.137
1.13634
1.13559
1.13477
1.13389
1.13293
1.1319
1.13081
1.12966
1.12842
1.12713
1.12578
1.12437
1.12291
1.1214
1.11985
1.11823
1.11657
1.11484
1.11306
1.11123
1.10937
1.10747
1.10553
1.10358
1.13256
1.13248
1.13233
1.13209
1.13178
1.13139
1.13094
1.13042
1.12982
1.12916
1.12842
1.1276
1.12671
1.12576
1.12473
1.12363
1.12248
1.12125
1.11996
1.11861
1.11722
1.11578
1.11429
1.11276
1.11118
1.10956
1.10789
1.10617
1.1044
1.10261
1.10079
1.09895
1.09708
1.12678
1.1267
1.12653
1.12629
1.12597
1.12559
1.12515
1.12464
1.12404
1.12338
1.12265
1.12184
1.12095
1.12
1.11898
1.11788
1.11673
1.11551
1.11422
1.11289
1.11151
1.11007
1.10858
1.10706
1.1055
1.10391
1.10228
1.10062
1.09892
1.09719
1.09543
1.09365
1.09186
1.17483
1.17476
1.17463
1.17442
1.17413
1.17377
1.17336
1.17288
1.17234
1.17172
1.17104
1.17029
1.16947
1.16857
1.1676
1.16654
1.16541
1.1642
1.16291
1.16155
1.1601
1.15858
1.15697
1.15528
1.15352
1.15167
1.14974
1.14774
1.14567
1.14351
1.14128
1.13896
1.13656
1.17478
1.17471
1.17458
1.17437
1.17409
1.17375
1.17333
1.17286
1.17232
1.1717
1.17101
1.17026
1.16943
1.16852
1.16753
1.16646
1.16533
1.16412
1.16282
1.16145
1.16001
1.15848
1.15686
1.15517
1.15341
1.15156
1.14964
1.14764
1.14556
1.14341
1.14117
1.13885
1.13645
1.17465
1.17458
1.17443
1.17423
1.17396
1.17362
1.17321
1.17273
1.17218
1.17156
1.17087
1.17011
1.16927
1.16836
1.16739
1.16633
1.16519
1.16396
1.16266
1.16129
1.15983
1.1583
1.15669
1.15501
1.15324
1.15139
1.14946
1.14745
1.14537
1.14321
1.14097
1.13864
1.13624
1.17439
1.17432
1.17418
1.17398
1.1737
1.17337
1.17296
1.17248
1.17193
1.1713
1.17061
1.16984
1.169
1.1681
1.16712
1.16606
1.16491
1.16368
1.16237
1.16099
1.15953
1.158
1.15639
1.15471
1.15293
1.15107
1.14913
1.14711
1.14501
1.14284
1.14059
1.13828
1.13589
1.17399
1.17392
1.17378
1.17357
1.17329
1.17295
1.17253
1.17205
1.17148
1.17086
1.17016
1.16939
1.16855
1.16763
1.16664
1.16556
1.16441
1.16318
1.16188
1.1605
1.15904
1.15749
1.15587
1.15418
1.1524
1.15054
1.14859
1.14657
1.14448
1.14231
1.14006
1.13773
1.13533
1.17334
1.17327
1.17313
1.17292
1.17264
1.17229
1.17187
1.17137
1.17081
1.17017
1.16947
1.1687
1.16785
1.16693
1.16593
1.16485
1.16368
1.16244
1.16112
1.15973
1.15826
1.15671
1.1551
1.1534
1.15162
1.14976
1.14781
1.14578
1.14368
1.14151
1.13925
1.13693
1.13454
1.17236
1.17229
1.17215
1.17193
1.17163
1.17126
1.17083
1.17033
1.16977
1.16913
1.16842
1.16765
1.16679
1.16585
1.16485
1.16376
1.1626
1.16136
1.16004
1.15865
1.15717
1.15563
1.154
1.15229
1.1505
1.14862
1.14669
1.14466
1.14257
1.14039
1.13814
1.13581
1.1334
1.17081
1.17074
1.17059
1.17038
1.1701
1.16974
1.16932
1.16882
1.16824
1.16761
1.16689
1.16611
1.16524
1.16431
1.16329
1.16221
1.16104
1.15979
1.15846
1.15706
1.15559
1.15404
1.15241
1.1507
1.14891
1.14704
1.1451
1.1431
1.14101
1.13884
1.1366
1.13428
1.13188
1.16866
1.16858
1.16843
1.16821
1.16793
1.16758
1.16715
1.16665
1.16607
1.16542
1.16469
1.16389
1.16302
1.16208
1.16106
1.15996
1.15878
1.15753
1.15621
1.15483
1.15336
1.1518
1.15018
1.14848
1.14671
1.14486
1.14293
1.14093
1.13884
1.13667
1.13444
1.13214
1.12976
1.16565
1.16557
1.16543
1.16521
1.16492
1.16455
1.16412
1.16361
1.16302
1.16236
1.16162
1.16082
1.15993
1.15897
1.15794
1.15683
1.15566
1.15442
1.15311
1.15173
1.15026
1.14871
1.14709
1.1454
1.14365
1.1418
1.13989
1.13791
1.13585
1.13372
1.13151
1.12925
1.1269
1.16157
1.16149
1.16133
1.1611
1.16079
1.16042
1.15997
1.15945
1.15885
1.15817
1.15744
1.15662
1.15572
1.15475
1.15371
1.15261
1.15144
1.15019
1.14887
1.14747
1.146
1.14446
1.14286
1.14119
1.13945
1.13763
1.13574
1.13379
1.13176
1.12967
1.12751
1.12528
1.123
1.15608
1.156
1.15584
1.15561
1.1553
1.15492
1.15445
1.15391
1.15331
1.15263
1.15187
1.15104
1.15013
1.14916
1.14811
1.14699
1.14582
1.14457
1.14324
1.14185
1.14039
1.13886
1.13727
1.13561
1.13391
1.13213
1.13028
1.12837
1.1264
1.12437
1.12227
1.1201
1.11788
1.14895
1.14887
1.14872
1.14848
1.14816
1.14777
1.14731
1.14677
1.14616
1.14548
1.14472
1.14389
1.14299
1.14201
1.14096
1.13984
1.13867
1.13741
1.13609
1.13471
1.13327
1.13176
1.13018
1.12855
1.12686
1.12512
1.12332
1.12145
1.11952
1.11754
1.11551
1.11343
1.11132
1.1407
1.14063
1.14048
1.14025
1.13994
1.13956
1.13911
1.13858
1.13798
1.1373
1.13654
1.1357
1.13479
1.13382
1.13277
1.13165
1.13047
1.12922
1.1279
1.12653
1.1251
1.12362
1.12206
1.12045
1.11879
1.11708
1.11533
1.11352
1.11166
1.10974
1.10779
1.1058
1.10377
1.13417
1.13409
1.13395
1.13371
1.13341
1.13303
1.13257
1.13205
1.13144
1.13077
1.13002
1.12919
1.12829
1.12732
1.12628
1.12517
1.12399
1.12274
1.12143
1.12006
1.11862
1.11713
1.11559
1.114
1.11238
1.11071
1.10899
1.10722
1.1054
1.10354
1.10165
1.09973
1.09777
1.18446
1.1844
1.18427
1.18407
1.18381
1.1835
1.18311
1.18266
1.18215
1.18157
1.18092
1.1802
1.1794
1.17851
1.17754
1.17647
1.17531
1.17407
1.17274
1.17134
1.16984
1.16825
1.16658
1.16482
1.16296
1.16102
1.15898
1.15685
1.15464
1.15234
1.14996
1.14749
1.14495
1.18441
1.18435
1.18422
1.18403
1.18378
1.18346
1.18307
1.18261
1.1821
1.18153
1.18088
1.18015
1.17934
1.17844
1.17746
1.17639
1.17524
1.174
1.17267
1.17125
1.16974
1.16816
1.16649
1.16472
1.16286
1.16091
1.15887
1.15674
1.15453
1.15223
1.14985
1.14738
1.14483
1.18433
1.18426
1.18413
1.18394
1.18368
1.18335
1.18296
1.18251
1.18199
1.18141
1.18075
1.18001
1.17919
1.17829
1.17732
1.17625
1.1751
1.17385
1.17252
1.1711
1.16959
1.16799
1.1663
1.16452
1.16266
1.16071
1.15868
1.15656
1.15436
1.15206
1.14967
1.14719
1.14463
1.18412
1.18405
1.18392
1.18372
1.18347
1.18315
1.18276
1.1823
1.18178
1.18119
1.18052
1.17978
1.17895
1.17804
1.17706
1.17599
1.17482
1.17357
1.17224
1.17083
1.16932
1.16771
1.16601
1.16423
1.16237
1.16041
1.15838
1.15626
1.15405
1.15174
1.14934
1.14686
1.14428
1.1838
1.18373
1.18359
1.18339
1.18314
1.18281
1.18241
1.18195
1.18142
1.18081
1.18014
1.17939
1.17857
1.17766
1.17666
1.17557
1.1744
1.17314
1.1718
1.17037
1.16885
1.16724
1.16554
1.16376
1.16189
1.15993
1.15788
1.15575
1.15353
1.15122
1.14882
1.14634
1.14377
1.18324
1.18317
1.18303
1.18283
1.18255
1.18222
1.18183
1.18138
1.18085
1.18024
1.17956
1.1788
1.17796
1.17704
1.17604
1.17494
1.17376
1.17249
1.17113
1.16969
1.16817
1.16654
1.16483
1.16304
1.16116
1.15919
1.15713
1.155
1.15278
1.15047
1.14806
1.14557
1.14299
1.18229
1.18222
1.18208
1.18188
1.18162
1.18128
1.18088
1.1804
1.17986
1.17925
1.17856
1.1778
1.17696
1.17604
1.17502
1.17392
1.17274
1.17147
1.17011
1.16867
1.16714
1.16552
1.16381
1.16201
1.16012
1.15814
1.15607
1.15391
1.15167
1.14935
1.14694
1.14446
1.14189
1.18082
1.18077
1.18064
1.18043
1.18016
1.17982
1.17941
1.17892
1.17837
1.17775
1.17705
1.17628
1.17542
1.17449
1.17346
1.17236
1.17118
1.1699
1.16854
1.16708
1.16554
1.16392
1.16221
1.16041
1.15854
1.15657
1.15451
1.15236
1.15012
1.1478
1.1454
1.14291
1.14035
1.17864
1.17858
1.17844
1.17823
1.17795
1.17759
1.17717
1.17668
1.17611
1.17546
1.17475
1.17396
1.1731
1.17216
1.17113
1.17002
1.16883
1.16754
1.16618
1.16474
1.16321
1.16159
1.15989
1.15811
1.15624
1.15429
1.15224
1.15011
1.1479
1.14559
1.14319
1.14072
1.13817
1.17541
1.17534
1.1752
1.17499
1.1747
1.17434
1.17391
1.1734
1.17282
1.17215
1.17141
1.1706
1.16971
1.16875
1.16772
1.16659
1.1654
1.16414
1.16279
1.16136
1.15985
1.15824
1.15655
1.15479
1.15294
1.151
1.14898
1.14689
1.1447
1.14243
1.14009
1.13766
1.13514
1.17081
1.17074
1.17059
1.17037
1.17007
1.16969
1.16924
1.16872
1.16811
1.16743
1.16669
1.16587
1.16497
1.16399
1.16294
1.16181
1.16061
1.15934
1.158
1.15658
1.15508
1.1535
1.15183
1.15009
1.14826
1.14636
1.14438
1.14232
1.14019
1.13798
1.13569
1.13331
1.13086
1.16446
1.16438
1.16422
1.16398
1.16368
1.1633
1.16283
1.16229
1.16168
1.16101
1.16026
1.15945
1.15855
1.15757
1.15651
1.15537
1.15417
1.15289
1.15154
1.15013
1.14865
1.1471
1.14546
1.14375
1.14197
1.14012
1.13818
1.13618
1.13411
1.13198
1.12977
1.12748
1.12512
1.15629
1.15621
1.15605
1.15581
1.15551
1.15512
1.15466
1.15411
1.15349
1.15281
1.15207
1.15125
1.15035
1.14939
1.14834
1.14721
1.14602
1.14475
1.14342
1.14203
1.14057
1.13904
1.13743
1.13575
1.134
1.1322
1.13032
1.12839
1.12639
1.12431
1.12217
1.11999
1.11775
1.14719
1.14711
1.14698
1.14677
1.14646
1.14608
1.14561
1.14507
1.14443
1.14374
1.14298
1.14217
1.14127
1.14031
1.13926
1.13815
1.13696
1.13569
1.13437
1.13298
1.13153
1.13002
1.12845
1.1268
1.12509
1.12333
1.12149
1.1196
1.11766
1.11568
1.11365
1.11157
1.10943
1.14016
1.1401
1.13995
1.13974
1.13944
1.13905
1.13858
1.13803
1.13741
1.13672
1.13596
1.13512
1.13422
1.13324
1.13219
1.13107
1.12988
1.12863
1.1273
1.12592
1.12448
1.12297
1.1214
1.11977
1.11809
1.11635
1.11456
1.11271
1.11083
1.10891
1.10694
1.10492
1.10286
1.19316
1.19311
1.19298
1.19279
1.19256
1.19227
1.19191
1.19149
1.19101
1.19046
1.18983
1.18912
1.18831
1.18741
1.18643
1.18532
1.18411
1.1828
1.18139
1.1799
1.1783
1.17661
1.17482
1.17293
1.17093
1.16883
1.16664
1.16437
1.162
1.15955
1.15701
1.15437
1.15165
1.19312
1.19306
1.19294
1.19276
1.19252
1.19222
1.19186
1.19144
1.19096
1.19039
1.18976
1.18905
1.18825
1.18735
1.18635
1.18525
1.18404
1.18272
1.18132
1.17982
1.17821
1.17651
1.17471
1.17281
1.17082
1.16872
1.16653
1.16426
1.16189
1.15943
1.15689
1.15425
1.15152
1.19304
1.19298
1.19285
1.19266
1.1924
1.19209
1.19172
1.19131
1.19083
1.19029
1.18966
1.18894
1.18813
1.18722
1.1862
1.18508
1.18387
1.18256
1.18116
1.17964
1.17803
1.17632
1.17451
1.17261
1.17062
1.16853
1.16635
1.16407
1.1617
1.15924
1.15667
1.15402
1.15129
1.19291
1.19284
1.1927
1.1925
1.19224
1.19192
1.19155
1.19112
1.19064
1.19008
1.18945
1.18872
1.1879
1.18698
1.18596
1.18483
1.18362
1.18231
1.1809
1.17938
1.17776
1.17604
1.17423
1.17232
1.17032
1.16824
1.16605
1.16377
1.16139
1.15892
1.15635
1.15369
1.15096
1.19265
1.19258
1.19245
1.19225
1.192
1.19167
1.19129
1.19085
1.19034
1.18977
1.18912
1.18839
1.18756
1.18664
1.18561
1.18449
1.18326
1.18193
1.1805
1.17897
1.17734
1.17562
1.1738
1.17189
1.16989
1.16779
1.16559
1.16329
1.16091
1.15844
1.15588
1.15321
1.15046
1.19216
1.19209
1.19196
1.19177
1.19152
1.19121
1.19084
1.1904
1.18989
1.18931
1.18865
1.18789
1.18704
1.1861
1.18505
1.1839
1.18266
1.18132
1.17989
1.17835
1.17672
1.17498
1.17314
1.17122
1.16919
1.16707
1.16487
1.16258
1.16019
1.15771
1.15513
1.15246
1.14972
1.19129
1.19122
1.19108
1.19088
1.19063
1.19031
1.18993
1.18948
1.18897
1.18838
1.18771
1.18696
1.18611
1.18516
1.1841
1.18295
1.1817
1.18036
1.17893
1.17739
1.17574
1.174
1.17216
1.17023
1.1682
1.16607
1.16385
1.16154
1.15913
1.15665
1.15408
1.15142
1.14866
1.18985
1.18979
1.18965
1.18945
1.18918
1.18885
1.18846
1.188
1.18747
1.18686
1.18617
1.1854
1.18454
1.18358
1.18252
1.18138
1.18013
1.17878
1.17734
1.1758
1.17417
1.17243
1.17059
1.16866
1.16664
1.16453
1.16232
1.16
1.1576
1.15511
1.15253
1.14985
1.14709
1.18752
1.18745
1.18732
1.18711
1.18683
1.18649
1.18607
1.1856
1.18504
1.1844
1.18369
1.18289
1.18201
1.18104
1.17999
1.17884
1.1776
1.17626
1.17484
1.17331
1.17169
1.16998
1.16817
1.16627
1.16428
1.16218
1.15999
1.1577
1.15532
1.15284
1.15027
1.14761
1.14486
1.18383
1.18376
1.18362
1.18341
1.18312
1.18277
1.18235
1.18185
1.18127
1.18061
1.17987
1.17905
1.17815
1.17717
1.17611
1.17497
1.17375
1.17243
1.17103
1.16953
1.16794
1.16625
1.16446
1.16259
1.16063
1.15859
1.15645
1.1542
1.15188
1.14945
1.14692
1.14432
1.14163
1.17837
1.17829
1.17815
1.17793
1.17764
1.17728
1.17684
1.17632
1.17572
1.17505
1.17431
1.17347
1.17257
1.17159
1.17053
1.16939
1.16817
1.16688
1.16549
1.16403
1.16247
1.16083
1.1591
1.15728
1.15538
1.1534
1.15132
1.14914
1.14687
1.14453
1.14211
1.1396
1.13702
1.17095
1.17086
1.1707
1.17047
1.17018
1.16982
1.16938
1.16886
1.16826
1.16758
1.16683
1.16601
1.16511
1.16412
1.16306
1.16193
1.16074
1.15946
1.15811
1.15667
1.15516
1.15357
1.1519
1.15015
1.14833
1.14641
1.14442
1.14234
1.14018
1.13795
1.13563
1.13325
1.13079
1.16191
1.16183
1.16168
1.16146
1.16116
1.16078
1.16033
1.15979
1.15919
1.15851
1.15776
1.15694
1.15603
1.15505
1.15401
1.1529
1.15171
1.15045
1.14913
1.14773
1.14626
1.14471
1.14307
1.14137
1.1396
1.13774
1.13583
1.13386
1.13181
1.12968
1.12748
1.1252
1.12286
1.15229
1.15221
1.15206
1.15183
1.15153
1.15115
1.15069
1.15015
1.14953
1.14884
1.14809
1.14726
1.14636
1.14539
1.14434
1.14323
1.14205
1.14079
1.13947
1.13808
1.13663
1.13511
1.13352