/*--------------------------------*- C++ -*----------------------------------*\
| =========                 |                                                 |
| \\      /  F ield         | OpenFOAM: The Open Source CFD Toolbox           |
|  \\    /   O peration     | Version:  2412                                  |
|   \\  /    A nd           | Website:  www.openfoam.com                      |
|    \\/     M anipulation  |                                                 |
\*---------------------------------------------------------------------------*/
FoamFile
{
    version     2.0;
    format      ascii;
    arch        "LSB;label=32;scalar=64";
    class       volScalarField;
    location    "0.030011";
    object      Vm_0;
}
// * * * * * * * * * * * * * * * * * * * * * * * * * * * * * * * * * * * * * //

dimensions      [1 2 -3 0 0 -1 0];

internalField   nonuniform List<scalar> 
8679
(
0.0101517
0.0101471
0.0101347
0.010116
0.0100932
0.0100655
0.010033
0.00999592
0.00995265
0.00990373
0.00984831
0.00978951
0.00972739
0.00966226
0.0095926
0.00951889
0.00944392
0.00936689
0.0092868
0.00920342
0.00911844
0.00903123
0.00894288
0.00885537
0.00877076
0.00868719
0.00860752
0.0085307
0.00845539
0.00838427
0.00831934
0.00826083
0.00820934
0.010144
0.0101376
0.0101253
0.0101083
0.0100852
0.0100561
0.0100231
0.00998448
0.00993986
0.00989167
0.00983888
0.00978096
0.00971914
0.00965245
0.00958181
0.00950877
0.00943176
0.0093535
0.00927311
0.00919027
0.00910568
0.00901982
0.00893391
0.00884975
0.00876532
0.00868279
0.00860132
0.00852382
0.00844935
0.00837762
0.00831227
0.00825421
0.00820416
0.0101179
0.0101121
0.0101014
0.0100838
0.0100612
0.0100328
0.00999819
0.00995794
0.00991328
0.00986258
0.00980895
0.00975177
0.00969059
0.00962564
0.00955826
0.00948652
0.00941281
0.00933604
0.00925519
0.00917195
0.00908948
0.00900582
0.00892041
0.00883527
0.00875235
0.00866968
0.00859016
0.00851296
0.00843746
0.00836839
0.00830601
0.00825
0.00820084
0.0113477
0.0113417
0.0113296
0.0113107
0.011286
0.0112549
0.0112177
0.0111752
0.0111267
0.0110731
0.0110136
0.0109481
0.0108769
0.0108005
0.0107202
0.0106342
0.0105449
0.0104518
0.0103546
0.0102535
0.0101495
0.0100439
0.00993466
0.00982399
0.00971092
0.0095984
0.00948626
0.00937403
0.00926143
0.00914909
0.00903779
0.0089284
0.00882225
0.0113361
0.0113296
0.0113175
0.0112981
0.0112731
0.0112419
0.0112048
0.0111624
0.011113
0.0110588
0.0109995
0.0109345
0.0108643
0.0107894
0.0107091
0.0106237
0.0105324
0.0104381
0.0103406
0.0102404
0.0101386
0.0100327
0.00992439
0.00981463
0.00970308
0.00958882
0.00947516
0.009362
0.00924906
0.00913671
0.00902586
0.00891766
0.00881248
0.0113164
0.0113093
0.011296
0.0112777
0.0112534
0.0112221
0.0111837
0.011139
0.011089
0.0110322
0.0109716
0.010907
0.0108388
0.0107643
0.0106847
0.0106
0.0105116
0.0104194
0.010323
0.0102229
0.0101202
0.0100159
0.00990792
0.00979829
0.00968594
0.0095735
0.00946057
0.00934649
0.00923154
0.00911932
0.00901096
0.00890431
0.00880004
0.0112809
0.0112736
0.01126
0.0112417
0.0112173
0.0111861
0.0111477
0.011103
0.0110529
0.0109961
0.0109352
0.0108705
0.0108019
0.0107279
0.0106486
0.0105641
0.0104759
0.0103839
0.0102879
0.0101885
0.0100864
0.00998276
0.00987543
0.00976665
0.00965508
0.00954313
0.00943017
0.0093156
0.00920236
0.00909142
0.00898367
0.00887975
0.00877778
0.0112226
0.011216
0.0112036
0.011184
0.0111589
0.0111277
0.0110905
0.0110478
0.010998
0.0109435
0.0108839
0.0108191
0.0107492
0.0106749
0.0105951
0.0105102
0.0104203
0.0103272
0.0102313
0.0101331
0.0100335
0.00992964
0.00982325
0.0097167
0.00960823
0.00949702
0.00938639
0.00927643
0.0091671
0.00905873
0.00895194
0.00884766
0.00874706
0.0125438
0.012539
0.0125266
0.012508
0.0124822
0.0124488
0.0124081
0.0123613
0.0123102
0.012254
0.012192
0.0121241
0.0120512
0.0119725
0.0118887
0.0117988
0.0117035
0.0116027
0.0114972
0.0113868
0.0112733
0.011155
0.0110332
0.010907
0.0107776
0.010646
0.0105124
0.0103769
0.010239
0.0100998
0.00996108
0.00982087
0.0096811
0.0125367
0.0125295
0.0125158
0.0124966
0.0124708
0.012438
0.0123987
0.0123535
0.0123012
0.0122439
0.0121812
0.0121129
0.0120399
0.0119603
0.0118759
0.0117863
0.011691
0.01159
0.0114839
0.0113735
0.01126
0.011142
0.0110214
0.0108972
0.0107688
0.0106361
0.0105013
0.0103654
0.0102287
0.0100898
0.0099496
0.00980831
0.00966811
0.0125142
0.0125075
0.0124952
0.0124754
0.0124483
0.0124157
0.0123779
0.0123332
0.0122828
0.0122257
0.0121628
0.0120934
0.0120182
0.0119382
0.0118517
0.0117611
0.0116659
0.0115662
0.0114624
0.0113533
0.0112392
0.0111222
0.0110012
0.0108753
0.0107471
0.0106165
0.0104831
0.0103472
0.0102097
0.0100706
0.00993143
0.00979119
0.00965021
0.0124807
0.0124735
0.0124602
0.0124393
0.0124128
0.0123805
0.0123427
0.0122983
0.0122479
0.0121905
0.012127
0.0120577
0.0119824
0.0119023
0.0118158
0.0117252
0.0116301
0.0115305
0.0114269
0.011318
0.011204
0.0110866
0.0109645
0.0108402
0.0107132
0.0105834
0.0104508
0.0103156
0.0101785
0.0100397
0.00990044
0.00976227
0.00962334
0.012428
0.0124209
0.0124065
0.0123866
0.0123603
0.0123272
0.0122875
0.0122417
0.0121894
0.0121317
0.0120684
0.0119999
0.0119266
0.0118469
0.0117627
0.011673
0.0115776
0.0114775
0.0113723
0.011263
0.011151
0.0110342
0.0109146
0.010791
0.0106624
0.0105318
0.0103995
0.0102661
0.010131
0.00999541
0.00985853
0.00972065
0.00958381
0.0123473
0.0123397
0.0123253
0.0123057
0.0122798
0.0122472
0.0122078
0.0121623
0.0121101
0.0120526
0.0119902
0.0119227
0.0118489
0.0117686
0.0116844
0.0115955
0.0115011
0.0114011
0.0112962
0.0111874
0.0110759
0.0109598
0.0108409
0.0107181
0.0105905
0.010461
0.0103301
0.0101979
0.0100637
0.00992849
0.00979341
0.00965761
0.0095215
0.0122361
0.0122294
0.0122164
0.0121967
0.0121709
0.0121385
0.0120998
0.0120559
0.012005
0.0119471
0.0118841
0.0118164
0.0117426
0.0116626
0.0115789
0.0114906
0.011397
0.0112978
0.0111935
0.0110852
0.0109745
0.0108591
0.0107405
0.0106175
0.0104929
0.0103666
0.0102384
0.0101082
0.00997656
0.00984426
0.00971095
0.00957817
0.00944548
0.0120849
0.0120798
0.0120682
0.0120501
0.0120257
0.0119943
0.0119558
0.0119115
0.0118617
0.0118054
0.0117435
0.0116759
0.0116031
0.011525
0.0114416
0.0113538
0.0112611
0.0111629
0.0110594
0.0109514
0.0108401
0.0107268
0.0106095
0.0104906
0.0103696
0.0102458
0.010119
0.00999158
0.00986413
0.00973692
0.00960817
0.00947899
0.00934994
0.0118947
0.011889
0.0118777
0.0118587
0.0118343
0.0118044
0.0117687
0.0117261
0.0116766
0.0116204
0.011559
0.0114926
0.0114216
0.0113448
0.0112624
0.0111764
0.011086
0.0109905
0.01089
0.0107849
0.0106762
0.0105655
0.0104508
0.0103344
0.0102152
0.0100944
0.00997263
0.00984986
0.00972611
0.00960167
0.00947707
0.009352
0.00922805
0.0116679
0.0116625
0.0116502
0.0116309
0.0116047
0.011573
0.011536
0.011494
0.0114452
0.0113917
0.0113328
0.0112681
0.0111977
0.0111225
0.0110439
0.0109602
0.0108712
0.0107779
0.0106803
0.0105786
0.0104737
0.0103668
0.0102555
0.0101418
0.0100268
0.00991057
0.00979226
0.00967364
0.00955479
0.00943564
0.00931662
0.00919868
0.00908308
0.0113925
0.0113854
0.0113721
0.011354
0.0113298
0.0112992
0.0112621
0.0112189
0.0111705
0.0111176
0.0110602
0.0109975
0.0109292
0.0108564
0.0107802
0.0106986
0.0106133
0.0105232
0.0104278
0.0103296
0.0102295
0.0101258
0.0100187
0.00990974
0.00979982
0.00968796
0.00957686
0.00946598
0.00935468
0.00924292
0.00913103
0.00902256
0.00891594
0.0110553
0.011049
0.0110371
0.0110191
0.0109956
0.010966
0.01093
0.0108881
0.0108416
0.0107902
0.0107347
0.0106742
0.0106085
0.0105385
0.010465
0.0103867
0.0103037
0.0102162
0.0101256
0.010032
0.00993542
0.00983615
0.00973488
0.00963287
0.00952824
0.00942278
0.00931774
0.00921356
0.00910915
0.009007
0.00890723
0.00881001
0.00871579
0.0106644
0.0106593
0.0106485
0.010631
0.0106077
0.010579
0.0105444
0.0105041
0.0104593
0.0104104
0.0103567
0.0102974
0.0102347
0.0101686
0.0100975
0.010022
0.00994271
0.00985944
0.00977363
0.00968458
0.00959331
0.00949999
0.00940535
0.00930895
0.00921184
0.00911595
0.00901936
0.00892443
0.00883059
0.00874059
0.00865465
0.00857256
0.00849454
0.0102504
0.0102448
0.0102342
0.0102173
0.0101948
0.0101671
0.0101339
0.0100953
0.0100524
0.0100052
0.00995312
0.00989661
0.00983626
0.00977146
0.00970249
0.00962919
0.00955339
0.0094742
0.00939277
0.00930852
0.00922097
0.00913388
0.00904769
0.00896145
0.00887356
0.0087857
0.00870001
0.00861497
0.00853338
0.0084547
0.00838216
0.00831583
0.00825587
0.00993263
0.00992605
0.00991386
0.00989608
0.00987244
0.00984448
0.00981175
0.0097742
0.00973258
0.00968805
0.00963828
0.00958553
0.00952853
0.00946646
0.00939944
0.0093285
0.00925529
0.00917901
0.00910061
0.00901893
0.00893732
0.00885551
0.00877314
0.0086903
0.00860759
0.00852682
0.00844881
0.00837282
0.00830016
0.00823099
0.0081679
0.00811156
0.00806097
0.0136961
0.0136895
0.0136765
0.0136554
0.013628
0.0135946
0.0135554
0.0135088
0.0134572
0.0134001
0.0133373
0.0132694
0.0131947
0.0131149
0.0130295
0.0129378
0.0128398
0.0127361
0.0126279
0.012514
0.0123964
0.0122744
0.0121475
0.0120153
0.011878
0.0117358
0.0115897
0.0114395
0.0112863
0.0111295
0.0109699
0.0108084
0.0106441
0.0136876
0.0136808
0.0136682
0.0136481
0.0136211
0.0135884
0.0135492
0.0135033
0.013451
0.0133937
0.0133313
0.0132627
0.0131876
0.0131061
0.0130194
0.0129271
0.0128294
0.012727
0.0126181
0.0125043
0.0123847
0.0122611
0.0121334
0.012001
0.0118636
0.0117216
0.0115757
0.0114258
0.0112736
0.0111172
0.0109585
0.0107967
0.0106331
0.0136717
0.0136642
0.01365
0.0136301
0.0136035
0.0135701
0.0135304
0.0134859
0.0134354
0.0133781
0.0133142
0.0132441
0.0131696
0.0130893
0.0130023
0.0129099
0.012812
0.0127082
0.0125994
0.0124853
0.012366
0.0122411
0.012112
0.011979
0.0118423
0.0117021
0.011557
0.0114076
0.0112543
0.0110988
0.0109398
0.010778
0.0106138
0.0136401
0.0136329
0.0136184
0.0135981
0.0135714
0.013538
0.0134985
0.0134537
0.0134026
0.0133453
0.0132809
0.0132105
0.0131353
0.013054
0.0129667
0.0128749
0.0127774
0.0126733
0.0125641
0.0124508
0.0123322
0.0122071
0.0120781
0.0119453
0.0118089
0.0116683
0.0115243
0.0113759
0.0112232
0.0110679
0.0109088
0.010748
0.0105847
0.0135873
0.01358
0.0135661
0.0135451
0.0135179
0.0134845
0.0134453
0.0133987
0.0133464
0.0132883
0.0132244
0.0131554
0.0130796
0.0129988
0.0129123
0.01282
0.0127217
0.0126178
0.0125096
0.0123959
0.0122785
0.0121565
0.0120296
0.0118974
0.0117603
0.0116188
0.0114737
0.0113247
0.0111728
0.0110176
0.0108594
0.0106993
0.0105376
0.0135101
0.013503
0.0134893
0.0134688
0.0134426
0.0134107
0.0133719
0.0133258
0.0132729
0.0132149
0.0131518
0.0130824
0.0130062
0.0129236
0.0128361
0.0127434
0.0126457
0.0125432
0.0124352
0.0123219
0.0122039
0.0120818
0.0119549
0.0118229
0.011686
0.0115448
0.0113999
0.0112522
0.0111014
0.0109473
0.0107904
0.0106316
0.0104713
0.0134032
0.0133972
0.013384
0.0133641
0.0133379
0.0133051
0.0132663
0.0132216
0.0131706
0.0131129
0.0130486
0.0129784
0.0129018
0.012819
0.0127314
0.0126387
0.0125409
0.0124383
0.0123299
0.012216
0.0120989
0.0119774
0.0118502
0.0117173
0.0115808
0.0114415
0.0112997
0.0111542
0.0110048
0.0108528
0.0106965
0.0105382
0.0103792
0.013256
0.0132492
0.0132361
0.0132162
0.0131906
0.0131591
0.01312
0.0130745
0.0130237
0.0129669
0.0129039
0.0128352
0.0127602
0.0126791
0.0125924
0.0124997
0.0124026
0.0122996
0.0121912
0.0120775
0.0119606
0.0118391
0.0117117
0.0115811
0.0114472
0.0113101
0.0111691
0.0110248
0.0108783
0.0107286
0.0105757
0.0104205
0.0102635
0.0130634
0.0130572
0.0130456
0.0130264
0.0130003
0.0129687
0.01293
0.0128852
0.0128348
0.0127783
0.0127154
0.0126465
0.0125724
0.0124925
0.0124077
0.0123174
0.0122214
0.0121197
0.0120127
0.0119017
0.0117852
0.0116649
0.0115394
0.0114112
0.0112798
0.0111451
0.011007
0.0108648
0.0107191
0.0105715
0.0104221
0.0102709
0.0101181
0.0128277
0.0128208
0.0128076
0.0127875
0.0127612
0.0127287
0.0126901
0.0126461
0.0125948
0.0125384
0.0124763
0.0124087
0.0123366
0.0122581
0.012175
0.0120869
0.011993
0.0118932
0.0117877
0.0116772
0.011563
0.0114457
0.0113246
0.011199
0.01107
0.0109374
0.0108022
0.0106632
0.0105211
0.0103766
0.010231
0.0100847
0.00993721
0.012533
0.0125261
0.0125131
0.0124926
0.0124666
0.0124346
0.0123969
0.012353
0.0123022
0.0122466
0.0121856
0.0121188
0.0120468
0.0119695
0.0118868
0.011799
0.0117066
0.0116089
0.0115059
0.0113981
0.0112867
0.0111717
0.0110526
0.0109296
0.0108022
0.010673
0.0105418
0.0104081
0.010272
0.0101339
0.00999384
0.00985343
0.00971303
0.0121744
0.0121677
0.012154
0.0121347
0.0121087
0.0120768
0.012039
0.0119943
0.0119438
0.0118892
0.0118292
0.0117632
0.0116914
0.0116149
0.0115339
0.011448
0.0113556
0.011259
0.011158
0.0110528
0.0109444
0.0108325
0.0107164
0.0105965
0.0104747
0.0103504
0.0102226
0.0100929
0.00996294
0.00983152
0.00969933
0.00956731
0.00943711
0.0117423
0.0117356
0.0117217
0.0117019
0.0116747
0.0116426
0.0116055
0.0115639
0.0115159
0.0114632
0.0114044
0.0113392
0.0112696
0.0111941
0.0111132
0.0110282
0.0109378
0.010843
0.0107444
0.0106421
0.0105364
0.0104269
0.0103145
0.0102005
0.0100834
0.00996521
0.00984472
0.00972165
0.00959825
0.00947496
0.00935227
0.00923059
0.00911071
0.011267
0.0112605
0.0112479
0.0112286
0.0112033
0.0111717
0.0111348
0.011093
0.0110457
0.0109946
0.0109378
0.0108752
0.0108065
0.0107316
0.0106515
0.0105665
0.0104786
0.0103861
0.0102883
0.0101882
0.0100859
0.00998197
0.00987583
0.00976646
0.0096548
0.00954172
0.00942709
0.00931197
0.00919597
0.00908027
0.00896785
0.00885913
0.00875344
0.0108971
0.0108895
0.0108752
0.0108553
0.0108283
0.0107968
0.0107607
0.0107202
0.0106747
0.0106236
0.0105684
0.010508
0.0104414
0.0103685
0.0102897
0.0102061
0.0101198
0.0100289
0.00993439
0.00983752
0.00973821
0.00963633
0.00953187
0.00942549
0.00931712
0.00920863
0.00909948
0.00899052
0.00888094
0.00877451
0.00867133
0.00857125
0.00847455
0.0147756
0.0147701
0.014757
0.0147374
0.0147109
0.0146774
0.0146378
0.0145918
0.0145408
0.014485
0.0144225
0.0143533
0.0142791
0.0141998
0.0141147
0.0140239
0.0139264
0.0138223
0.0137121
0.0135968
0.0134764
0.0133506
0.0132193
0.0130831
0.0129416
0.0127941
0.0126409
0.0124837
0.0123216
0.012154
0.0119824
0.0118068
0.0116272
0.0147701
0.0147635
0.0147498
0.0147303
0.0147042
0.0146714
0.0146326
0.0145868
0.0145359
0.0144801
0.014418
0.014349
0.0142735
0.0141925
0.0141062
0.0140149
0.0139166
0.0138125
0.0137016
0.013586
0.0134651
0.0133387
0.0132071
0.0130701
0.0129284
0.0127816
0.0126296
0.0124714
0.0123088
0.0121408
0.0119691
0.0117936
0.0116144
0.0147529
0.0147464
0.0147343
0.0147151
0.0146893
0.0146567
0.0146174
0.0145728
0.0145222
0.0144655
0.0144029
0.0143342
0.0142599
0.0141793
0.0140925
0.0139999
0.0139021
0.0137976
0.0136882
0.0135732
0.0134522
0.0133251
0.0131922
0.0130543
0.0129111
0.0127639
0.0126107
0.012453
0.0122902
0.0121235
0.0119529
0.011778
0.0115988
0.0147246
0.0147177
0.0147045
0.0146845
0.0146585
0.0146267
0.0145884
0.014544
0.0144928
0.0144355
0.014372
0.0143034
0.0142289
0.0141485
0.0140623
0.0139698
0.0138717
0.0137678
0.0136585
0.0135436
0.0134226
0.0132952
0.0131618
0.013023
0.0128797
0.012732
0.0125793
0.012422
0.0122595
0.0120929
0.011922
0.0117465
0.0115664
0.0146764
0.01467
0.0146578
0.0146382
0.0146118
0.0145787
0.0145386
0.0144932
0.0144418
0.0143843
0.014321
0.0142516
0.0141765
0.0140957
0.0140093
0.0139175
0.0138194
0.013715
0.0136046
0.013489
0.013368
0.0132411
0.0131082
0.01297
0.0128265
0.0126791
0.0125262
0.0123694
0.0122079
0.0120412
0.0118707
0.0116962
0.0115177
0.0146082
0.0146021
0.0145891
0.0145691
0.0145429
0.0145103
0.0144709
0.014425
0.0143734
0.0143166
0.0142533
0.0141833
0.0141066
0.0140245
0.0139371
0.0138446
0.013746
0.0136413
0.0135305
0.0134147
0.0132937
0.013167
0.0130343
0.0128963
0.0127529
0.0126056
0.0124525
0.0122955
0.0121337
0.0119681
0.0117988
0.0116254
0.0114478
0.0145088
0.0145014
0.0144875
0.0144675
0.0144412
0.0144087
0.0143705
0.0143263
0.0142754
0.0142178
0.0141539
0.0140839
0.0140077
0.013925
0.0138373
0.0137435
0.013644
0.0135389
0.0134282
0.0133126
0.013192
0.0130657
0.0129335
0.0127955
0.0126528
0.0125057
0.0123537
0.0121966
0.0120353
0.0118698
0.0116992
0.0115251
0.011348
0.0143659
0.0143586
0.0143448
0.0143251
0.014299
0.0142663
0.0142276
0.0141823
0.0141316
0.014075
0.0140113
0.0139413
0.0138658
0.0137841
0.0136969
0.0136032
0.0135038
0.0133999
0.0132898
0.0131738
0.013053
0.0129272
0.0127958
0.0126591
0.0125177
0.0123715
0.0122216
0.0120662
0.0119068
0.0117424
0.0115738
0.0114009
0.0112235
0.0141748
0.0141688
0.0141559
0.0141363
0.0141103
0.0140776
0.0140391
0.0139946
0.0139443
0.0138875
0.0138244
0.0137549
0.0136793
0.0135981
0.0135111
0.0134182
0.0133196
0.013216
0.0131065
0.0129914
0.0128699
0.0127444
0.0126145
0.0124803
0.0123407
0.0121961
0.0120476
0.0118931
0.0117342
0.0115716
0.0114049
0.0112353
0.0110628
0.013932
0.0139248
0.0139104
0.0138907
0.013865
0.0138332
0.0137957
0.0137518
0.0137016
0.0136446
0.0135808
0.013511
0.0134363
0.0133553
0.0132672
0.0131746
0.0130777
0.0129758
0.0128678
0.0127549
0.012636
0.0125128
0.0123845
0.0122516
0.0121138
0.0119705
0.0118223
0.0116698
0.011513
0.0113536
0.0111904
0.0110244
0.0108547
0.013624
0.0136163
0.0136018
0.0135813
0.013555
0.0135227
0.013485
0.0134412
0.013391
0.0133337
0.0132705
0.013202
0.0131272
0.013046
0.0129586
0.0128666
0.0127698
0.012668
0.0125617
0.012449
0.0123311
0.0122089
0.0120824
0.0119505
0.011813
0.0116719
0.0115279
0.0113805
0.0112284
0.011073
0.0109144
0.0107515
0.0105865
0.0132363
0.0132298
0.0132157
0.0131952
0.0131678
0.013135
0.0130974
0.0130536
0.0130037
0.0129476
0.0128847
0.0128152
0.0127397
0.0126581
0.0125726
0.0124822
0.0123861
0.0122843
0.0121768
0.0120641
0.0119474
0.0118271
0.0117025
0.0115729
0.0114395
0.0113022
0.0111611
0.0110164
0.0108688
0.010718
0.0105655
0.0104093
0.0102514
0.0127599
0.0127529
0.0127392
0.0127193
0.012693
0.0126602
0.0126213
0.0125769
0.0125269
0.0124709
0.0124077
0.012339
0.0122655
0.0121859
0.0121005
0.0120095
0.0119136
0.0118124
0.0117058
0.0115943
0.011479
0.0113609
0.0112383
0.0111129
0.0109833
0.010849
0.0107115
0.0105708
0.0104275
0.0102824
0.0101365
0.00999
0.00984259
0.0122203
0.0122144
0.012201
0.0121811
0.0121534
0.0121205
0.0120829
0.0120397
0.01199
0.0119353
0.0118744
0.0118067
0.0117326
0.0116521
0.0115664
0.0114759
0.0113805
0.0112791
0.0111733
0.0110643
0.0109527
0.0108372
0.0107174
0.0105947
0.0104678
0.0103384
0.0102058
0.0100695
0.009932
0.00979433
0.00965734
0.00951951
0.00938155
0.0117907
0.0117834
0.0117696
0.0117495
0.011723
0.0116902
0.011653
0.0116095
0.01156
0.0115045
0.0114428
0.0113759
0.0113035
0.0112257
0.0111413
0.0110517
0.0109575
0.0108574
0.0107521
0.0106439
0.0105332
0.0104199
0.0103028
0.0101817
0.0100583
0.00993131
0.00980247
0.00967084
0.00953823
0.00940623
0.00927461
0.00914334
0.00901337
0.0157743
0.0157677
0.0157547
0.0157353
0.0157101
0.0156779
0.0156388
0.0155946
0.0155452
0.0154909
0.0154296
0.015363
0.0152912
0.0152137
0.0151297
0.0150385
0.0149404
0.0148362
0.0147261
0.0146101
0.0144888
0.0143616
0.0142282
0.0140888
0.0139423
0.0137907
0.0136336
0.0134695
0.0132988
0.0131232
0.012942
0.0127543
0.0125615
0.015768
0.0157617
0.0157498
0.0157311
0.015706
0.0156748
0.0156375
0.0155942
0.0155448
0.0154895
0.0154279
0.0153603
0.0152876
0.0152083
0.0151228
0.0150309
0.0149318
0.0148274
0.0147172
0.0146017
0.0144804
0.0143525
0.0142176
0.0140774
0.013931
0.0137792
0.0136217
0.013458
0.0132881
0.0131125
0.0129304
0.0127427
0.0125491
0.0157521
0.0157463
0.0157342
0.0157158
0.0156908
0.0156593
0.0156226
0.0155796
0.01553
0.0154741
0.0154133
0.0153466
0.0152734
0.015194
0.0151087
0.0150171
0.0149196
0.0148158
0.0147054
0.0145886
0.0144656
0.0143362
0.0142016
0.0140602
0.0139136
0.0137609
0.0136013
0.0134364
0.0132664
0.0130905
0.0129094
0.012723
0.0125309
0.0157267
0.0157207
0.0157092
0.0156912
0.0156663
0.015635
0.0155982
0.0155548
0.0155052
0.0154491
0.0153878
0.0153204
0.0152474
0.0151679
0.0150825
0.0149909
0.0148933
0.0147895
0.0146789
0.0145616
0.0144379
0.0143084
0.014173
0.0140314
0.013884
0.0137301
0.0135707
0.0134057
0.0132354
0.0130589
0.0128768
0.0126901
0.0124987
0.0156862
0.0156805
0.0156681
0.0156493
0.0156236
0.0155916
0.0155542
0.0155107
0.0154607
0.0154048
0.0153425
0.0152743
0.0152001
0.01512
0.0150345
0.0149419
0.0148438
0.0147395
0.0146289
0.0145119
0.0143891
0.0142601
0.0141245
0.0139825
0.0138349
0.0136819
0.0135227
0.0133572
0.0131862
0.0130101
0.0128297
0.0126428
0.0124503
0.0156246
0.0156187
0.015606
0.0155868
0.0155618
0.0155304
0.0154921
0.0154476
0.0153969
0.0153405
0.0152779
0.0152096
0.0151355
0.0150556
0.0149693
0.0148762
0.0147764
0.0146707
0.0145592
0.0144417
0.0143187
0.0141898
0.0140542
0.0139117
0.0137642
0.0136108
0.0134507
0.0132853
0.013115
0.0129392
0.0127585
0.0125726
0.0123809
0.015533
0.0155262
0.0155134
0.0154939
0.0154686
0.0154367
0.0153992
0.0153551
0.0153042
0.0152471
0.0151848
0.0151165
0.0150415
0.0149599
0.0148723
0.0147784
0.0146782
0.0145725
0.0144609
0.0143436
0.0142209
0.0140924
0.013957
0.0138145
0.0136667
0.0135129
0.013354
0.0131898
0.01302
0.0128447
0.012663
0.0124758
0.012283
0.0153938
0.0153877
0.0153752
0.0153564
0.0153309
0.0152991
0.0152618
0.0152181
0.0151675
0.0151104
0.0150475
0.014978
0.0149029
0.0148224
0.014735
0.0146415
0.0145421
0.014436
0.0143233
0.0142056
0.0140825
0.0139541
0.0138194
0.0136781
0.0135315
0.013379
0.0132216
0.0130589
0.0128902
0.0127154
0.012535
0.0123485
0.0121571
0.0152063
0.0152002
0.0151873
0.015168
0.0151429
0.0151113
0.0150742
0.0150312
0.0149814
0.014925
0.0148618
0.0147919
0.0147163
0.0146348
0.0145474
0.0144543
0.0143549
0.0142495
0.0141374
0.0140197
0.0138962
0.0137672
0.013633
0.0134941
0.0133491
0.0131978
0.0130406
0.012878
0.0127092
0.0125342
0.012355
0.0121709
0.0119827
0.0149593
0.0149516
0.0149371
0.0149173
0.0148916
0.0148603
0.0148242
0.0147817
0.0147319
0.0146748
0.0146109
0.0145411
0.0144645
0.0143819
0.0142945
0.0142017
0.0141025
0.0139977
0.0138874
0.0137711
0.0136479
0.0135197
0.0133869
0.0132481
0.0131037
0.0129532
0.0127972
0.0126359
0.0124699
0.0122991
0.0121231
0.0119423
0.0117558
0.0146349
0.0146273
0.0146128
0.0145916
0.0145647
0.0145322
0.0144946
0.0144498
0.0143994
0.0143428
0.0142806
0.0142108
0.0141346
0.0140516
0.0139632
0.0138698
0.0137714
0.0136668
0.0135559
0.0134403
0.0133189
0.0131914
0.0130574
0.012919
0.0127767
0.0126284
0.012475
0.0123165
0.0121531
0.0119851
0.011812
0.0116331
0.0114507
0.0142132
0.0142061
0.0141923
0.0141714
0.0141443
0.0141113
0.0140727
0.0140278
0.0139769
0.0139196
0.0138553
0.0137843
0.0137076
0.0136238
0.0135354
0.0134418
0.013343
0.013238
0.0131278
0.0130121
0.0128916
0.0127653
0.0126322
0.0124955
0.0123542
0.0122082
0.0120583
0.0119033
0.0117436
0.01158
0.0114123
0.0112395
0.0110636
0.0136776
0.0136722
0.0136592
0.0136397
0.0136133
0.0135797
0.0135393
0.0134927
0.0134413
0.013384
0.0133201
0.0132499
0.0131745
0.013092
0.0130042
0.0129108
0.0128115
0.012706
0.0125948
0.0124789
0.0123585
0.0122334
0.0121042
0.0119708
0.0118327
0.0116897
0.0115417
0.0113889
0.0112324
0.0110734
0.0109104
0.0107439
0.0105766
0.01306
0.0130535
0.0130408
0.0130201
0.0129934
0.0129605
0.0129217
0.0128772
0.0128256
0.0127687
0.0127053
0.0126353
0.0125593
0.0124773
0.012389
0.0122952
0.0121961
0.0120911
0.0119805
0.0118649
0.0117455
0.011622
0.0114944
0.0113633
0.0112279
0.011089
0.0109458
0.0107984
0.0106474
0.0104938
0.0103374
0.01018
0.01002
0.0125654
0.0125585
0.012544
0.0125229
0.0124955
0.012463
0.0124254
0.0123813
0.01233
0.0122735
0.0122109
0.0121415
0.0120656
0.0119836
0.0118964
0.0118026
0.0117038
0.0115993
0.011489
0.0113751
0.0112561
0.0111326
0.0110055
0.010875
0.0107414
0.0106052
0.0104656
0.010323
0.0101773
0.0100288
0.00987846
0.00972593
0.00957252
0.0166829
0.0166769
0.0166656
0.0166478
0.0166233
0.0165925
0.0165567
0.0165156
0.0164691
0.0164164
0.0163578
0.0162934
0.0162232
0.0161464
0.016063
0.0159727
0.0158754
0.0157719
0.0156617
0.0155447
0.015421
0.0152899
0.0151523
0.0150079
0.0148565
0.0146985
0.014533
0.0143612
0.0141835
0.0139987
0.0138075
0.013609
0.0134029
0.0166786
0.016673
0.0166613
0.0166437
0.0166199
0.0165902
0.0165548
0.0165143
0.0164679
0.0164149
0.0163556
0.016291
0.01622
0.0161421
0.0160571
0.0159659
0.0158684
0.015765
0.015654
0.0155364
0.0154126
0.0152817
0.0151433
0.0149984
0.0148471
0.0146887
0.0145239
0.0143526
0.0141746
0.01399
0.013798
0.0135993
0.0133937
0.0166679
0.0166616
0.0166488
0.0166311
0.0166082
0.0165791
0.0165438
0.0165029
0.0164555
0.0164028
0.0163438
0.0162781
0.0162061
0.0161288
0.0160453
0.0159546
0.0158567
0.0157517
0.0156402
0.0155224
0.0153971
0.0152659
0.0151284
0.0149843
0.0148328
0.0146743
0.0145085
0.0143364
0.0141582
0.0139729
0.0137808
0.0135816
0.0133762
0.0166452
0.0166395
0.0166276
0.0166099
0.0165865
0.0165577
0.016523
0.0164816
0.0164341
0.0163806
0.0163212
0.0162557
0.0161835
0.016106
0.0160221
0.0159311
0.0158327
0.0157273
0.0156155
0.0154971
0.0153719
0.0152406
0.0151028
0.0149583
0.0148062
0.0146466
0.0144804
0.0143074
0.0141276
0.0139413
0.0137485
0.0135503
0.0133457
0.0166107
0.016605
0.0165928
0.0165747
0.0165508
0.0165217
0.0164861
0.0164444
0.016396
0.0163423
0.0162825
0.0162165
0.0161444
0.0160657
0.0159807
0.0158887
0.0157899
0.0156844
0.0155731
0.0154548
0.0153295
0.0151967
0.0150583
0.0149129
0.0147604
0.014601
0.0144342
0.014261
0.0140819
0.0138958
0.0137032
0.0135036
0.013298
0.0165552
0.0165492
0.0165371
0.016519
0.0164951
0.0164651
0.0164292
0.0163868
0.0163383
0.0162837
0.0162235
0.0161575
0.016085
0.0160058
0.0159201
0.0158274
0.0157274
0.0156207
0.0155079
0.0153888
0.0152625
0.0151303
0.0149918
0.0148466
0.0146939
0.0145342
0.014367
0.0141933
0.0140131
0.013827
0.0136339
0.0134349
0.0132297
0.0164715
0.0164651
0.0164531
0.0164345
0.0164091
0.0163773
0.0163402
0.0162974
0.0162492
0.0161944
0.0161339
0.0160676
0.015994
0.0159137
0.0158273
0.0157343
0.0156345
0.0155281
0.0154158
0.015296
0.0151696
0.0150372
0.014898
0.0147514
0.0145975
0.0144371
0.0142711
0.0140978
0.0139179
0.0137318
0.0135386
0.0133388
0.0131322
0.0163381
0.0163326
0.0163199
0.0163015
0.0162774
0.0162471
0.0162108
0.0161678
0.0161185
0.0160638
0.0160029
0.0159353
0.0158612
0.0157812
0.0156943
0.015601
0.015501
0.0153939
0.0152801
0.0151602
0.0150343
0.0149013
0.0147615
0.0146154
0.0144614
0.0143011
0.0141354
0.0139635
0.0137846
0.0135988
0.0134066
0.0132075
0.0130024
0.0161543
0.0161474
0.0161344
0.016116
0.016092
0.0160613
0.0160249
0.0159818
0.0159321
0.0158764
0.0158138
0.0157452
0.0156704
0.0155899
0.0155026
0.0154089
0.0153078
0.0152007
0.0150875
0.0149688
0.0148426
0.0147097
0.0145707
0.0144249
0.0142729
0.0141143
0.013949
0.0137773
0.0135983
0.0134129
0.0132219
0.0130241
0.0128201
0.0158958
0.0158895
0.0158769
0.0158583
0.0158333
0.0158022
0.0157649
0.0157215
0.0156711
0.0156143
0.0155512
0.0154821
0.0154063
0.015324
0.0152354
0.0151407
0.0150402
0.0149341
0.0148218
0.0147031
0.014577
0.0144443
0.0143052
0.014161
0.0140104
0.0138526
0.0136888
0.0135192
0.0133426
0.0131599
0.0129707
0.0127764
0.0125756
0.0155469
0.0155398
0.0155262
0.0155059
0.0154798
0.0154482
0.0154094
0.0153646
0.0153133
0.0152556
0.0151922
0.015122
0.0150455
0.0149625
0.0148733
0.0147787
0.0146781
0.0145714
0.0144577
0.0143382
0.0142125
0.0140805
0.0139429
0.0137997
0.0136505
0.0134952
0.0133331
0.0131655
0.0129922
0.0128128
0.0126277
0.0124365
0.0122407
0.0150757
0.0150688
0.0150557
0.0150361
0.0150096
0.0149762
0.0149365
0.0148905
0.0148387
0.0147806
0.0147156
0.0146443
0.0145665
0.0144827
0.0143928
0.0142974
0.0141969
0.0140893
0.013976
0.0138564
0.0137314
0.0136006
0.0134639
0.0133221
0.0131759
0.0130233
0.0128654
0.0127014
0.0125325
0.0123583
0.0121785
0.0119929
0.011802
0.0144654
0.0144585
0.0144453
0.0144244
0.0143973
0.014364
0.0143249
0.0142782
0.0142258
0.0141672
0.0141021
0.014031
0.0139539
0.0138705
0.0137802
0.0136844
0.0135836
0.0134762
0.0133632
0.0132449
0.0131213
0.0129915
0.0128565
0.0127166
0.0125721
0.012423
0.0122684
0.0121079
0.0119432
0.0117733
0.0115994
0.0114212
0.0112399
0.0137581
0.0137517
0.0137393
0.0137194
0.0136927
0.0136602
0.0136221
0.0135765
0.0135247
0.0134665
0.0134015
0.0133297
0.0132517
0.0131684
0.0130784
0.0129828
0.0128814
0.0127738
0.0126609
0.0125435
0.0124211
0.0122939
0.0121609
0.0120225
0.0118802
0.0117339
0.0115837
0.011429
0.0112691
0.0111051
0.0109376
0.0107669
0.0105934
0.0131982
0.0131919
0.0131794
0.0131592
0.0131331
0.0131005
0.0130616
0.0130169
0.0129647
0.0129069
0.0128427
0.0127716
0.0126943
0.0126116
0.0125219
0.0124269
0.0123259
0.0122184
0.0121065
0.011989
0.011866
0.0117385
0.0116064
0.01147
0.0113306
0.0111875
0.0110404
0.0108888
0.010733
0.0105735
0.0104113
0.0102465
0.0100785
0.0175083
0.017503
0.0174918
0.017475
0.0174527
0.0174256
0.0173927
0.0173541
0.0173105
0.0172609
0.017205
0.0171433
0.0170744
0.0169987
0.0169149
0.0168235
0.0167244
0.0166177
0.0165041
0.0163835
0.0162551
0.0161193
0.0159759
0.0158247
0.0156657
0.0154993
0.0153242
0.0151418
0.0149523
0.0147557
0.0145513
0.01434
0.0141219
0.0175042
0.0174991
0.017488
0.0174717
0.01745
0.0174224
0.017389
0.0173501
0.0173063
0.0172568
0.0172012
0.0171388
0.0170695
0.0169927
0.0169083
0.0168169
0.0167184
0.0166119
0.0164977
0.016376
0.016247
0.016111
0.0159678
0.0158163
0.0156569
0.0154901
0.0153154
0.0151327
0.0149432
0.014746
0.014542
0.0143308
0.0141119
0.017497
0.0174915
0.01748
0.0174633
0.0174412
0.0174134
0.0173799
0.0173408
0.0172968
0.0172467
0.01719
0.0171269
0.0170564
0.0169793
0.016896
0.0168045
0.0167058
0.016599
0.0164849
0.0163633
0.0162342
0.0160972
0.0159519
0.0157994
0.0156399
0.0154728
0.015299
0.0151175
0.0149283
0.0147315
0.0145265
0.0143143
0.0140951
0.0174789
0.0174733
0.0174618
0.0174449
0.0174232
0.0173961
0.0173628
0.0173234
0.0172787
0.0172279
0.0171706
0.0171069
0.0170359
0.0169583
0.0168743
0.0167819
0.0166821
0.0165753
0.0164614
0.0163397
0.0162104
0.0160726
0.0159273
0.0157746
0.0156149
0.0154473
0.0152728
0.0150913
0.0149017
0.0147045
0.0144987
0.0142857
0.0140652
0.0174516
0.0174459
0.017434
0.0174168
0.0173947
0.017367
0.017333
0.0172928
0.0172473
0.0171958
0.0171382
0.0170741
0.0170033
0.0169253
0.01684
0.0167467
0.0166464
0.0165383
0.0164233
0.0163011
0.0161708
0.0160329
0.015887
0.0157344
0.0155741
0.0154062
0.0152307
0.0150477
0.0148574
0.0146597
0.0144539
0.014241
0.0140214
0.0174039
0.0173976
0.0173858
0.0173682
0.0173447
0.0173164