/*--------------------------------*- C++ -*----------------------------------*\
| =========                 |                                                 |
| \\      /  F ield         | OpenFOAM: The Open Source CFD Toolbox           |
|  \\    /   O peration     | Version:  2312                                  |
|   \\  /    A nd           | Website:  www.openfoam.com                      |
|    \\/     M anipulation  |                                                 |
\*---------------------------------------------------------------------------*/
FoamFile
{
    version     2.0;
    format      ascii;
    arch        "LSB;label=32;scalar=64";
    class       volTensorField;
    location    "0.5";
    object      F;
}
// * * * * * * * * * * * * * * * * * * * * * * * * * * * * * * * * * * * * * //

dimensions      [0 0 0 0 0 0 0];

internalField   nonuniform List<tensor> 
1620
(
(1.05806 -0.0254732 -0.046951 -0.0180663 1.00995 -0.286572 -0.0168183 -0.00147146 0.930613)
(1.06406 -0.015932 0.00352483 -0.00852526 1.00395 -0.290371 -0.0163074 -0.00436954 0.930613)
(1.06643 -0.00491581 0.0538937 0.00249083 1.00158 -0.285348 -0.0153009 -0.0071348 0.930613)
(1.06489 0.00624659 0.102625 0.0136533 1.00312 -0.271654 -0.0138294 -0.00968334 0.930612)
(1.05962 0.0162089 0.148238 0.0236157 1.00839 -0.249706 -0.0119377 -0.0119378 0.930612)
(1.05127 0.0237693 0.189347 0.0311764 1.01675 -0.220172 -0.00968348 -0.0138294 0.930612)
(1.04083 0.0280161 0.224703 0.0354233 1.02718 -0.183947 -0.00713482 -0.0153006 0.930613)
(1.02957 0.0284371 0.253231 0.0358443 1.03844 -0.142133 -0.00436935 -0.0163071 0.930613)
(1.01884 0.0249816 0.274065 0.0323887 1.04917 -0.0960005 -0.0014713 -0.0168182 0.930613)
(1.00995 0.0180663 0.286572 0.0254732 1.05806 -0.046951 0.00147146 -0.0168183 0.930613)
(1.00395 0.00852526 0.290371 0.015932 1.06406 0.00352485 0.00436954 -0.0163074 0.930613)
(1.00158 -0.00249082 0.285348 0.00491582 1.06643 0.0538938 0.0071348 -0.0153009 0.930613)
(1.00312 -0.0136533 0.271654 -0.00624658 1.06489 0.102625 0.00968334 -0.0138294 0.930612)
(1.00839 -0.0236157 0.249706 -0.0162089 1.05962 0.148238 0.0119378 -0.0119377 0.930612)
(1.01675 -0.0311764 0.220172 -0.0237693 1.05127 0.189347 0.0138294 -0.00968348 0.930612)
(1.02718 -0.0354233 0.183947 -0.0280161 1.04083 0.224703 0.0153006 -0.00713482 0.930613)
(1.03844 -0.0358443 0.142133 -0.0284371 1.02957 0.253231 0.0163071 -0.00436935 0.930613)
(1.04917 -0.0323887 0.0960004 -0.0249816 1.01884 0.274065 0.0168182 -0.0014713 0.930613)
(1.05806 -0.0254732 0.046951 -0.0180663 1.00995 0.286572 0.0168183 0.00147146 0.930613)
(1.06406 -0.015932 -0.00352486 -0.00852526 1.00395 0.290371 0.0163074 0.00436954 0.930613)
(1.06643 -0.00491581 -0.0538938 0.00249083 1.00158 0.285348 0.0153009 0.0071348 0.930613)
(1.06489 0.00624659 -0.102625 0.0136533 1.00312 0.271654 0.0138294 0.00968334 0.930612)
(1.05962 0.0162089 -0.148238 0.0236157 1.00839 0.249706 0.0119377 0.0119378 0.930612)
(1.05127 0.0237693 -0.189347 0.0311764 1.01675 0.220172 0.00968348 0.0138294 0.930612)
(1.04083 0.0280161 -0.224703 0.0354233 1.02718 0.183947 0.00713482 0.0153006 0.930613)
(1.02957 0.0284371 -0.253231 0.0358443 1.03844 0.142133 0.00436935 0.0163071 0.930613)
(1.01884 0.0249816 -0.274065 0.0323887 1.04917 0.0960005 0.0014713 0.0168182 0.930613)
(1.00995 0.0180663 -0.286572 0.0254732 1.05806 0.046951 -0.00147146 0.0168183 0.930613)
(1.00395 0.00852525 -0.290371 0.015932 1.06406 -0.00352485 -0.00436954 0.0163074 0.930613)
(1.00158 -0.00249083 -0.285348 0.00491581 1.06643 -0.0538938 -0.0071348 0.0153009 0.930613)
(1.00312 -0.0136533 -0.271654 -0.00624659 1.06489 -0.102625 -0.00968334 0.0138294 0.930612)
(1.00839 -0.0236157 -0.249707 -0.0162089 1.05962 -0.148238 -0.0119378 0.0119377 0.930612)
(1.01675 -0.0311764 -0.220172 -0.0237693 1.05127 -0.189347 -0.0138294 0.00968348 0.930612)
(1.02718 -0.0354233 -0.183947 -0.0280161 1.04083 -0.224703 -0.0153006 0.00713482 0.930613)
(1.03844 -0.0358443 -0.142133 -0.0284371 1.02957 -0.253231 -0.0163071 0.00436935 0.930613)
(1.04917 -0.0323887 -0.0960005 -0.0249816 1.01884 -0.274065 -0.0168182 0.0014713 0.930613)
(1.06969 -0.0303149 -0.0283054 -0.0140264 1.00493 -0.302383 -0.0128036 -0.00112016 0.913218)
(1.07532 -0.0179033 0.0246328 -0.001615 0.999301 -0.302704 -0.0124146 -0.00332644 0.913218)
(1.07637 -0.00431466 0.0768226 0.0119737 0.998256 -0.293828 -0.0116483 -0.00543159 0.913218)
(1.0727 0.00881195 0.126678 0.0251004 1.00192 -0.276024 -0.0105281 -0.00737179 0.913218)
(1.06477 0.0198936 0.172685 0.036182 1.00985 -0.249833 -0.00908799 -0.00908801 0.913218)
(1.05352 0.0275934 0.213444 0.0438819 1.0211 -0.216051 -0.00737186 -0.0105281 0.913218)
(1.04032 0.0309826 0.247718 0.0472712 1.0343 -0.175704 -0.00543157 -0.0116482 0.913218)
(1.02676 0.0296525 0.274466 0.0459412 1.04786 -0.130019 -0.00332631 -0.0124143 0.913218)
(1.01447 0.0237637 0.292874 0.0400523 1.06015 -0.0803835 -0.00112013 -0.0128035 0.913218)
(1.00493 0.0140264 0.302383 0.0303149 1.06969 -0.0283053 0.00112016 -0.0128036 0.913218)
(0.999301 0.001615 0.302704 0.0179033 1.07532 0.0246328 0.00332644 -0.0124146 0.913218)
(0.998256 -0.0119737 0.293828 0.00431466 1.07637 0.0768226 0.00543159 -0.0116483 0.913218)
(1.00192 -0.0251004 0.276024 -0.00881195 1.0727 0.126678 0.00737179 -0.0105281 0.913218)
(1.00985 -0.036182 0.249833 -0.0198936 1.06477 0.172685 0.00908801 -0.00908799 0.913218)
(1.0211 -0.0438819 0.216051 -0.0275934 1.05352 0.213444 0.0105281 -0.00737186 0.913218)
(1.0343 -0.0472712 0.175704 -0.0309826 1.04032 0.247718 0.0116482 -0.00543157 0.913218)
(1.04786 -0.0459412 0.130019 -0.0296525 1.02676 0.274466 0.0124143 -0.00332631 0.913218)
(1.06015 -0.0400523 0.0803835 -0.0237637 1.01447 0.292874 0.0128035 -0.00112013 0.913218)
(1.06969 -0.0303149 0.0283053 -0.0140264 1.00493 0.302383 0.0128036 0.00112016 0.913218)
(1.07532 -0.0179033 -0.0246328 -0.001615 0.999301 0.302704 0.0124146 0.00332644 0.913218)
(1.07637 -0.00431466 -0.0768226 0.0119737 0.998256 0.293828 0.0116483 0.00543159 0.913218)
(1.0727 0.00881195 -0.126678 0.0251004 1.00192 0.276024 0.0105281 0.00737178 0.913218)
(1.06477 0.0198936 -0.172685 0.036182 1.00985 0.249833 0.00908799 0.00908801 0.913218)
(1.05352 0.0275934 -0.213444 0.0438819 1.0211 0.216051 0.00737186 0.0105281 0.913218)
(1.04032 0.0309826 -0.247718 0.0472712 1.0343 0.175704 0.00543157 0.0116482 0.913218)
(1.02676 0.0296525 -0.274466 0.0459412 1.04786 0.130019 0.00332631 0.0124143 0.913218)
(1.01447 0.0237637 -0.292874 0.0400523 1.06015 0.0803835 0.00112013 0.0128035 0.913218)
(1.00493 0.0140264 -0.302383 0.0303149 1.06969 0.0283053 -0.00112016 0.0128036 0.913218)
(0.999301 0.00161499 -0.302704 0.0179033 1.07532 -0.0246328 -0.00332644 0.0124146 0.913218)
(0.998256 -0.0119737 -0.293828 0.00431466 1.07637 -0.0768226 -0.00543159 0.0116483 0.913218)
(1.00192 -0.0251004 -0.276024 -0.00881195 1.0727 -0.126678 -0.00737178 0.0105281 0.913218)
(1.00985 -0.036182 -0.249833 -0.0198936 1.06477 -0.172685 -0.00908801 0.00908799 0.913218)
(1.0211 -0.0438819 -0.216051 -0.0275934 1.05352 -0.213444 -0.0105281 0.00737186 0.913218)
(1.0343 -0.0472712 -0.175705 -0.0309826 1.04032 -0.247718 -0.0116482 0.00543157 0.913218)
(1.04786 -0.0459412 -0.130019 -0.0296525 1.02676 -0.274466 -0.0124143 0.00332631 0.913218)
(1.06015 -0.0400523 -0.0803835 -0.0237637 1.01447 -0.292874 -0.0128035 0.00112013 0.913218)
(1.08155 -0.0356003 -0.00762078 -0.00877675 0.995401 -0.317939 -0.00835656 -0.000731052 0.89759)
(1.08655 -0.0195291 0.0477044 0.00729434 0.99041 -0.314432 -0.00810271 -0.00217113 0.89759)
(1.08574 -0.00271996 0.10158 0.0241035 0.991216 -0.301372 -0.00760237 -0.00354506 0.89759)
(1.07923 0.0127995 0.152369 0.0396228 0.997723 -0.279154 -0.00687124 -0.00481126 0.89759)
(1.06781 0.0251575 0.198529 0.051981 1.00915 -0.248454 -0.00593141 -0.00593136 0.89759)
(1.05285 0.0328634 0.238657 0.0596872 1.02411 -0.210205 -0.00481136 -0.00687132 0.89759)
(1.03615 0.034988 0.271533 0.0618115 1.0408 -0.165569 -0.00354494 -0.00760241 0.89759)
(1.01974 0.0312746 0.296158 0.0580981 1.05721 -0.115903 -0.002171 -0.00810243 0.89759)
(1.00559 0.0221716 0.311785 0.0489951 1.07137 -0.0627146 -0.00073116 -0.00835653 0.89759)
(0.995401 0.00877675 0.317939 0.0356003 1.08155 -0.00762076 0.000731052 -0.00835657 0.89759)
(0.99041 -0.00729433 0.314432 0.0195291 1.08655 0.0477045 0.00217113 -0.00810271 0.89759)
(0.991216 -0.0241035 0.301372 0.00271996 1.08574 0.10158 0.00354506 -0.00760238 0.89759)
(0.997723 -0.0396228 0.279154 -0.0127994 1.07923 0.152369 0.00481126 -0.00687124 0.89759)
(1.00915 -0.051981 0.248454 -0.0251575 1.06781 0.198529 0.00593136 -0.00593141 0.89759)
(1.02411 -0.0596871 0.210205 -0.0328634 1.05285 0.238657 0.00687132 -0.00481136 0.89759)
(1.0408 -0.0618115 0.165569 -0.034988 1.03615 0.271533 0.00760241 -0.00354494 0.89759)
(1.05721 -0.0580981 0.115903 -0.0312746 1.01974 0.296158 0.00810244 -0.002171 0.89759)
(1.07137 -0.0489951 0.0627146 -0.0221716 1.00559 0.311785 0.00835653 -0.000731161 0.89759)
(1.08155 -0.0356003 0.00762075 -0.00877675 0.995401 0.317939 0.00835657 0.000731052 0.89759)
(1.08655 -0.0195291 -0.0477045 0.00729434 0.99041 0.314432 0.00810271 0.00217113 0.89759)
(1.08574 -0.00271996 -0.10158 0.0241035 0.991216 0.301372 0.00760238 0.00354506 0.89759)
(1.07923 0.0127994 -0.152369 0.0396228 0.997723 0.279154 0.00687124 0.00481126 0.89759)
(1.06781 0.0251575 -0.198529 0.051981 1.00915 0.248454 0.00593141 0.00593136 0.89759)
(1.05285 0.0328634 -0.238657 0.0596872 1.02411 0.210205 0.00481136 0.00687132 0.89759)
(1.03615 0.034988 -0.271533 0.0618115 1.0408 0.165569 0.00354494 0.00760241 0.89759)
(1.01974 0.0312746 -0.296158 0.0580981 1.05721 0.115903 0.002171 0.00810243 0.89759)
(1.00559 0.0221716 -0.311785 0.0489951 1.07137 0.0627146 0.000731161 0.00835653 0.89759)
(0.995401 0.00877674 -0.317939 0.0356003 1.08155 0.00762076 -0.000731051 0.00835656 0.89759)
(0.99041 -0.00729434 -0.314432 0.0195291 1.08655 -0.0477045 -0.00217113 0.00810271 0.89759)
(0.991216 -0.0241035 -0.301372 0.00271996 1.08574 -0.10158 -0.00354506 0.00760237 0.89759)
(0.997723 -0.0396228 -0.279154 -0.0127995 1.07923 -0.152369 -0.00481126 0.00687124 0.89759)
(1.00915 -0.051981 -0.248454 -0.0251575 1.06781 -0.198529 -0.00593136 0.00593141 0.89759)
(1.02411 -0.0596872 -0.210205 -0.0328634 1.05285 -0.238657 -0.00687132 0.00481136 0.89759)
(1.0408 -0.0618115 -0.165569 -0.034988 1.03615 -0.271533 -0.00760241 0.00354494 0.89759)
(1.05721 -0.0580981 -0.115903 -0.0312746 1.01974 -0.296158 -0.00810243 0.002171 0.89759)
(1.07137 -0.0489951 -0.0627146 -0.0221716 1.00559 -0.311785 -0.00835653 0.00073116 0.89759)
(1.09765 -0.0805502 -0.035644 -0.0491748 1.01764 -0.287871 -0.0512891 -0.00448736 0.907267)
(1.11742 -0.0629572 0.0148859 -0.0315819 0.997871 -0.289687 -0.0497309 -0.0133253 0.907267)
(1.12998 -0.039663 0.0649634 -0.00828774 0.985309 -0.282702 -0.0466617 -0.0217582 0.907267)
(1.13382 -0.0134769 0.113067 0.0178985 0.981471 -0.267126 -0.042174 -0.0295299 0.907267)
(1.12847 0.0124426 0.157735 0.0438181 0.986821 -0.243434 -0.0364049 -0.0364049 0.907267)
(1.11458 0.0349691 0.19761 0.0663449 1.00071 -0.212345 -0.0295303 -0.0421739 0.907267)
(1.09382 0.0513855 0.231482 0.0827614 1.02147 -0.174804 -0.0217582 -0.046661 0.907266)
(1.06869 0.0597119 0.258319 0.091088 1.04659 -0.131952 -0.0133249 -0.0497304 0.907267)
(1.04224 0.0589442 0.277308 0.09032 1.07305 -0.0850908 -0.004487 -0.051289 0.907267)
(1.01764 0.0491748 0.287871 0.0805502 1.09765 -0.035644 0.00448736 -0.0512891 0.907267)
(0.997871 0.0315819 0.289687 0.0629572 1.11742 0.0148859 0.0133253 -0.0497309 0.907267)
(0.985309 0.00828775 0.282702 0.039663 1.12998 0.0649634 0.0217582 -0.0466617 0.907267)
(0.981471 -0.0178985 0.267126 0.0134769 1.13382 0.113067 0.0295299 -0.042174 0.907267)
(0.986821 -0.0438181 0.243434 -0.0124426 1.12847 0.157735 0.0364049 -0.0364049 0.907267)
(1.00071 -0.0663449 0.212345 -0.0349691 1.11458 0.19761 0.0421739 -0.0295303 0.907267)
(1.02147 -0.0827614 0.174804 -0.0513855 1.09382 0.231482 0.046661 -0.0217582 0.907267)
(1.04659 -0.091088 0.131952 -0.0597119 1.06869 0.258319 0.0497304 -0.0133249 0.907267)
(1.07305 -0.09032 0.0850908 -0.0589442 1.04224 0.277308 0.051289 -0.00448701 0.907267)
(1.09765 -0.0805502 0.035644 -0.0491748 1.01764 0.287871 0.0512891 0.00448736 0.907267)
(1.11742 -0.0629572 -0.0148859 -0.0315819 0.997871 0.289687 0.0497309 0.0133253 0.907267)
(1.12998 -0.039663 -0.0649634 -0.00828774 0.985309 0.282702 0.0466617 0.0217582 0.907267)
(1.13382 -0.0134769 -0.113067 0.0178985 0.981471 0.267126 0.042174 0.0295299 0.907267)
(1.12847 0.0124426 -0.157735 0.0438181 0.986821 0.243434 0.0364049 0.0364049 0.907267)
(1.11458 0.0349691 -0.19761 0.0663449 1.00071 0.212345 0.0295303 0.0421739 0.907267)
(1.09382 0.0513855 -0.231482 0.0827614 1.02147 0.174804 0.0217582 0.046661 0.907266)
(1.06869 0.0597119 -0.258319 0.091088 1.04659 0.131952 0.0133249 0.0497304 0.907267)
(1.04224 0.0589442 -0.277308 0.09032 1.07305 0.0850908 0.00448701 0.051289 0.907267)
(1.01764 0.0491748 -0.287871 0.0805502 1.09765 0.035644 -0.00448736 0.0512891 0.907267)
(0.997871 0.0315819 -0.289687 0.0629572 1.11742 -0.0148859 -0.0133253 0.0497309 0.907267)
(0.985309 0.00828774 -0.282702 0.039663 1.12998 -0.0649634 -0.0217582 0.0466617 0.907267)
(0.981471 -0.0178985 -0.267126 0.0134769 1.13382 -0.113067 -0.0295299 0.042174 0.907267)
(0.986821 -0.0438181 -0.243434 -0.0124426 1.12847 -0.157735 -0.0364049 0.0364049 0.907267)
(1.00071 -0.0663449 -0.212345 -0.0349691 1.11458 -0.19761 -0.0421739 0.0295303 0.907267)
(1.02147 -0.0827614 -0.174804 -0.0513855 1.09382 -0.231482 -0.046661 0.0217582 0.907266)
(1.04659 -0.091088 -0.131952 -0.0597119 1.06869 -0.258319 -0.0497304 0.0133249 0.907267)
(1.07305 -0.09032 -0.0850908 -0.0589442 1.04224 -0.277308 -0.051289 0.004487 0.907267)
(1.11202 -0.0955517 -0.0176991 -0.0450602 1.0098 -0.29943 -0.0456018 -0.00398967 0.893538)
(1.13298 -0.073832 0.0345652 -0.0233408 0.988838 -0.297954 -0.0442165 -0.0118477 0.893538)
(1.14525 -0.046252 0.0857793 0.00423907 0.976567 -0.287426 -0.0414874 -0.0193456 0.893538)
(1.14735 -0.0161388 0.134387 0.0343528 0.974469 -0.268164 -0.0374973 -0.0262556 0.893538)
(1.13902 0.0128764 0.178911 0.0633681 0.982797 -0.240754 -0.0323681 -0.032368 0.893538)
(1.12127 0.0372935 0.218 0.0877852 1.00055 -0.206028 -0.0262557 -0.0374972 0.893538)
(1.09624 0.0541672 0.250464 0.104659 1.02558 -0.165043 -0.0193454 -0.0414869 0.893538)
(1.06695 0.0614626 0.275318 0.111954 1.05487 -0.119043 -0.0118474 -0.044216 0.893538)
(1.03693 0.0582998 0.291807 0.108791 1.08489 -0.0694257 -0.00398953 -0.0456017 0.893538)
(1.0098 0.0450602 0.29943 0.0955517 1.11202 -0.0176991 0.00398967 -0.0456018 0.893538)
(0.988838 0.0233408 0.297954 0.073832 1.13298 0.0345652 0.0118477 -0.0442165 0.893538)
(0.976567 -0.00423906 0.287426 0.046252 1.14525 0.0857793 0.0193456 -0.0414874 0.893538)
(0.974469 -0.0343528 0.268164 0.0161388 1.14735 0.134387 0.0262556 -0.0374973 0.893538)
(0.982797 -0.0633681 0.240754 -0.0128764 1.13902 0.178911 0.032368 -0.0323681 0.893538)
(1.00055 -0.0877852 0.206028 -0.0372935 1.12127 0.218 0.0374972 -0.0262557 0.893538)
(1.02558 -0.104659 0.165043 -0.0541672 1.09624 0.250464 0.0414869 -0.0193454 0.893538)
(1.05487 -0.111954 0.119043 -0.0614626 1.06695 0.275319 0.044216 -0.0118474 0.893538)
(1.08489 -0.108791 0.0694256 -0.0582998 1.03693 0.291807 0.0456017 -0.00398954 0.893538)
(1.11202 -0.0955517 0.0176991 -0.0450602 1.0098 0.29943 0.0456018 0.00398967 0.893538)
(1.13298 -0.073832 -0.0345652 -0.0233408 0.988838 0.297954 0.0442165 0.0118477 0.893538)
(1.14525 -0.046252 -0.0857793 0.00423907 0.976567 0.287426 0.0414874 0.0193456 0.893538)
(1.14735 -0.0161388 -0.134387 0.0343528 0.974469 0.268164 0.0374973 0.0262556 0.893538)
(1.13902 0.0128764 -0.178911 0.0633681 0.982797 0.240754 0.0323681 0.032368 0.893538)
(1.12127 0.0372935 -0.218 0.0877852 1.00055 0.206028 0.0262557 0.0374972 0.893538)
(1.09624 0.0541672 -0.250464 0.104659 1.02558 0.165043 0.0193454 0.0414869 0.893538)
(1.06695 0.0614626 -0.275319 0.111954 1.05487 0.119043 0.0118474 0.044216 0.893538)
(1.03693 0.0582998 -0.291807 0.108791 1.08489 0.0694257 0.00398954 0.0456017 0.893538)
(1.0098 0.0450602 -0.29943 0.0955517 1.11202 0.0176991 -0.00398967 0.0456018 0.893538)
(0.988838 0.0233408 -0.297954 0.073832 1.13298 -0.0345652 -0.0118477 0.0442165 0.893538)
(0.976567 -0.00423907 -0.287426 0.046252 1.14525 -0.0857793 -0.0193456 0.0414874 0.893538)
(0.974469 -0.0343528 -0.268164 0.0161388 1.14735 -0.134387 -0.0262556 0.0374973 0.893538)
(0.982797 -0.0633681 -0.240754 -0.0128764 1.13902 -0.178911 -0.032368 0.0323681 0.893538)
(1.00055 -0.0877852 -0.206028 -0.0372935 1.12127 -0.218 -0.0374972 0.0262557 0.893538)
(1.02558 -0.104659 -0.165043 -0.0541672 1.09624 -0.250464 -0.0414869 0.0193454 0.893538)
(1.05487 -0.111954 -0.119043 -0.0614626 1.06695 -0.275319 -0.044216 0.0118474 0.893538)
(1.08489 -0.108791 -0.0694257 -0.0582998 1.03693 -0.291807 -0.0456017 0.00398954 0.893538)
(1.12692 -0.113518 0.000749852 -0.0384586 0.996409 -0.310503 -0.0394854 -0.00345448 0.880424)
(1.14897 -0.0866168 0.0546567 -0.0115581 0.974355 -0.305656 -0.0382858 -0.0102586 0.880424)
(1.16049 -0.0537953 0.106903 0.0212635 0.962831 -0.291522 -0.0359227 -0.0167509 0.880424)
(1.1601 -0.0190118 0.155901 0.056047 0.963228 -0.268529 -0.0324678 -0.0227341 0.880424)
(1.14783 0.013538 0.200162 0.0885972 0.975498 -0.237378 -0.0280266 -0.0280266 0.880424)
(1.12517 0.0399284 0.238341 0.114988 0.99816 -0.199014 -0.022734 -0.0324677 0.880424)
(1.09484 0.0569761 0.269279 0.132035 1.02848 -0.154602 -0.0167506 -0.0359223 0.880424)
(1.06052 0.062625 0.292034 0.137684 1.06281 -0.105494 -0.0102585 -0.0382854 0.880424)
(1.02633 0.056194 0.305916 0.131253 1.09699 -0.0531799 -0.00345453 -0.0394854 0.880424)
(0.996409 0.0384586 0.310503 0.113518 1.12692 0.00074987 0.00345448 -0.0394854 0.880424)
(0.974355 0.0115581 0.305656 0.0866168 1.14897 0.0546567 0.0102586 -0.0382858 0.880424)
(0.962831 -0.0212635 0.291522 0.0537953 1.16049 0.106903 0.0167509 -0.0359227 0.880424)
(0.963228 -0.056047 0.268529 0.0190118 1.1601 0.155901 0.0227341 -0.0324678 0.880424)
(0.975498 -0.0885972 0.237378 -0.013538 1.14783 0.200162 0.0280266 -0.0280266 0.880424)
(0.99816 -0.114988 0.199014 -0.0399284 1.12517 0.238341 0.0324677 -0.022734 0.880424)
(1.02848 -0.132035 0.154602 -0.0569761 1.09484 0.269279 0.0359223 -0.0167506 0.880424)
(1.06281 -0.137684 0.105494 -0.062625 1.06052 0.292034 0.0382854 -0.0102585 0.880424)
(1.09699 -0.131253 0.0531798 -0.056194 1.02633 0.305916 0.0394854 -0.00345453 0.880424)
(1.12692 -0.113518 -0.000749885 -0.0384586 0.996409 0.310503 0.0394854 0.00345448 0.880424)
(1.14897 -0.0866168 -0.0546567 -0.0115581 0.974355 0.305656 0.0382858 0.0102586 0.880424)
(1.16049 -0.0537953 -0.106903 0.0212635 0.962831 0.291522 0.0359227 0.0167509 0.880424)
(1.1601 -0.0190118 -0.155901 0.056047 0.963228 0.268529 0.0324678 0.0227341 0.880424)
(1.14783 0.013538 -0.200162 0.0885972 0.975498 0.237378 0.0280266 0.0280266 0.880424)
(1.12517 0.0399284 -0.238341 0.114988 0.99816 0.199014 0.022734 0.0324677 0.880424)
(1.09484 0.0569761 -0.269279 0.132035 1.02848 0.154602 0.0167506 0.0359223 0.880424)
(1.06052 0.062625 -0.292034 0.137684 1.06281 0.105494 0.0102585 0.0382854 0.880424)
(1.02633 0.056194 -0.305916 0.131253 1.09699 0.0531799 0.00345453 0.0394854 0.880424)
(0.996409 0.0384586 -0.310503 0.113518 1.12692 -0.000749871 -0.00345448 0.0394854 0.880424)
(0.974355 0.0115581 -0.305656 0.0866168 1.14897 -0.0546567 -0.0102586 0.0382858 0.880424)
(0.962831 -0.0212635 -0.291522 0.0537953 1.16049 -0.106903 -0.0167509 0.0359227 0.880424)
(0.963228 -0.056047 -0.268529 0.0190118 1.1601 -0.155901 -0.0227341 0.0324678 0.880424)
(0.975498 -0.0885972 -0.237378 -0.013538 1.14783 -0.200162 -0.0280266 0.0280266 0.880424)
(0.99816 -0.114988 -0.199014 -0.0399284 1.12517 -0.238341 -0.0324677 0.022734 0.880424)
(1.02848 -0.132035 -0.154603 -0.0569761 1.09484 -0.269279 -0.0359223 0.0167506 0.880424)
(1.06281 -0.137684 -0.105494 -0.062625 1.06052 -0.292034 -0.0382854 0.0102585 0.880424)
(1.09699 -0.131253 -0.0531799 -0.056194 1.02633 -0.305916 -0.0394854 0.00345453 0.880424)
(1.13511 -0.135422 -0.0124124 -0.0631729 1.02238 -0.282486 -0.0708533 -0.00619891 0.875427)
(1.16567 -0.110156 0.0368293 -0.0379071 0.991819 -0.28035 -0.0687004 -0.0184081 0.875427)
(1.18575 -0.0759611 0.084952 -0.00371206 0.971741 -0.269695 -0.0644602 -0.0300578 0.875427)
(1.19292 -0.0369609 0.130493 0.035288 0.964569 -0.250846 -0.0582609 -0.0407942 0.875427)
(1.18632 0.00213994 0.17207 0.0743891 0.971169 -0.224375 -0.0502915 -0.0502913 0.875427)
(1.16675 0.0366256 0.208418 0.108875 0.990744 -0.191087 -0.0407944 -0.0582605 0.875427)
(1.13656 0.0623364 0.238433 0.134586 1.02093 -0.151992 -0.0300576 -0.0644594 0.875427)
(1.0994 0.0761715 0.261204 0.148421 1.0581 -0.10828 -0.0184076 -0.0686999 0.875427)
(1.05974 0.0764621 0.276039 0.148712 1.09775 -0.061277 -0.00619842 -0.0708532 0.875427)
(1.02238 0.0631729 0.282486 0.135422 1.13511 -0.0124124 0.00619891 -0.0708533 0.875427)
(0.991819 0.0379071 0.28035 0.110156 1.16567 0.0368293 0.0184081 -0.0687004 0.875427)
(0.971741 0.00371207 0.269695 0.0759611 1.18575 0.084952 0.0300578 -0.0644602 0.875427)
(0.964569 -0.035288 0.250846 0.0369609 1.19292 0.130493 0.0407942 -0.0582609 0.875427)
(0.971169 -0.0743891 0.224375 -0.00213994 1.18632 0.17207 0.0502913 -0.0502915 0.875427)
(0.990744 -0.108875 0.191087 -0.0366256 1.16675 0.208418 0.0582605 -0.0407944 0.875427)
(1.02093 -0.134586 0.151992 -0.0623364 1.13656 0.238434 0.0644594 -0.0300576 0.875427)
(1.0581 -0.148421 0.10828 -0.0761715 1.0994 0.261204 0.0686999 -0.0184076 0.875427)
(1.09775 -0.148712 0.061277 -0.0764621 1.05974 0.276039 0.0708532 -0.00619842 0.875427)
(1.13511 -0.135422 0.0124124 -0.0631729 1.02238 0.282486 0.0708533 0.0061989 0.875427)
(1.16567 -0.110156 -0.0368294 -0.0379071 0.991819 0.28035 0.0687004 0.0184081 0.875427)
(1.18575 -0.0759611 -0.084952 -0.00371206 0.971741 0.269695 0.0644602 0.0300578 0.875427)
(1.19292 -0.0369609 -0.130493 0.035288 0.964569 0.250846 0.0582609 0.0407942 0.875427)
(1.18632 0.00213993 -0.17207 0.0743891 0.971169 0.224375 0.0502915 0.0502913 0.875427)
(1.16675 0.0366256 -0.208418 0.108875 0.990744 0.191087 0.0407944 0.0582605 0.875427)
(1.13656 0.0623364 -0.238434 0.134586 1.02093 0.151992 0.0300576 0.0644594 0.875427)
(1.0994 0.0761715 -0.261204 0.148421 1.0581 0.10828 0.0184076 0.0686999 0.875427)
(1.05974 0.0764621 -0.276039 0.148712 1.09775 0.061277 0.00619843 0.0708532 0.875427)
(1.02238 0.0631729 -0.282486 0.135422 1.13511 0.0124124 -0.0061989 0.0708533 0.875427)
(0.991819 0.0379071 -0.28035 0.110156 1.16567 -0.0368293 -0.0184081 0.0687004 0.875427)
(0.971741 0.00371206 -0.269695 0.0759611 1.18575 -0.084952 -0.0300578 0.0644602 0.875427)
(0.964569 -0.035288 -0.250846 0.0369609 1.19292 -0.130493 -0.0407942 0.0582609 0.875427)
(0.971169 -0.0743891 -0.224375 -0.00213994 1.18632 -0.17207 -0.0502913 0.0502915 0.875427)
(0.990744 -0.108875 -0.191087 -0.0366256 1.16675 -0.208418 -0.0582605 0.0407944 0.875427)
(1.02093 -0.134586 -0.151992 -0.0623364 1.13656 -0.238434 -0.0644594 0.0300576 0.875427)
(1.0581 -0.148421 -0.10828 -0.0761715 1.0994 -0.261204 -0.0686999 0.0184076 0.875427)
(1.09775 -0.148712 -0.0612771 -0.0764621 1.05974 -0.276039 -0.0708532 0.00619842 0.875427)
(1.1491 -0.158224 0.000575248 -0.0585404 1.01144 -0.284982 -0.0659888 -0.00577331 0.867494)
(1.18202 -0.128147 0.0500531 -0.0284636 0.978523 -0.280552 -0.0639837 -0.0171443 0.867494)
(1.20266 -0.0886253 0.09801 0.0110581 0.957877 -0.267598 -0.0600345 -0.0279943 0.867495)
(1.20855 -0.0444258 0.142989 0.0552577 0.951993 -0.246514 -0.0542609 -0.0379936 0.867495)
(1.19896 -0.00087931 0.183623 0.0988042 0.961581 -0.217939 -0.0468387 -0.0468385 0.867495)
(1.17505 0.0367615 0.218678 0.136445 0.985485 -0.182742 -0.0379936 -0.0542605 0.867495)
(1.13972 0.0639564 0.247089 0.163641 1.02082 -0.141993 -0.0279941 -0.0600338 0.867494)
(1.09721 0.0774258 0.267992 0.17711 1.06333 -0.0969289 -0.017144 -0.0639832 0.867494)
(1.05266 0.0755449 0.280752 0.175229 1.10788 -0.04892 -0.00577306 -0.0659886 0.867494)
(1.01144 0.0585404 0.284982 0.158224 1.1491 0.000575268 0.00577332 -0.0659888 0.867494)
(0.978523 0.0284636 0.280552 0.128147 1.18202 0.0500531 0.0171443 -0.0639837 0.867494)
(0.957877 -0.0110581 0.267598 0.0886253 1.20266 0.0980101 0.0279943 -0.0600345 0.867495)
(0.951993 -0.0552577 0.246514 0.0444258 1.20855 0.142989 0.0379936 -0.0542609 0.867495)
(0.961581 -0.0988042 0.217939 0.000879316 1.19896 0.183623 0.0468385 -0.0468387 0.867495)
(0.985485 -0.136445 0.182742 -0.0367615 1.17505 0.218678 0.0542605 -0.0379936 0.867495)
(1.02082 -0.163641 0.141993 -0.0639564 1.13972 0.247089 0.0600338 -0.0279941 0.867494)
(1.06333 -0.17711 0.0969289 -0.0774258 1.09721 0.267992 0.0639832 -0.017144 0.867494)
(1.10788 -0.175229 0.04892 -0.0755449 1.05266 0.280752 0.0659886 -0.00577306 0.867494)
(1.1491 -0.158224 -0.000575285 -0.0585404 1.01144 0.284982 0.0659888 0.00577331 0.867495)
(1.18202 -0.128147 -0.0500531 -0.0284636 0.978523 0.280552 0.0639837 0.0171443 0.867494)
(1.20266 -0.0886253 -0.0980101 0.0110581 0.957877 0.267598 0.0600345 0.0279943 0.867495)
(1.20855 -0.0444258 -0.142989 0.0552577 0.951993 0.246514 0.0542609 0.0379936 0.867495)
(1.19896 -0.000879317 -0.183623 0.0988042 0.961581 0.217939 0.0468387 0.0468385 0.867495)
(1.17505 0.0367615 -0.218678 0.136445 0.985485 0.182742 0.0379936 0.0542605 0.867495)
(1.13972 0.0639564 -0.247089 0.163641 1.02082 0.141993 0.0279941 0.0600338 0.867494)
(1.09721 0.0774258 -0.267992 0.17711 1.06333 0.0969289 0.017144 0.0639832 0.867494)
(1.05266 0.0755449 -0.280752 0.175229 1.10788 0.04892 0.00577306 0.0659886 0.867494)
(1.01144 0.0585404 -0.284982 0.158224 1.1491 -0.000575268 -0.00577331 0.0659888 0.867494)
(0.978523 0.0284636 -0.280552 0.128147 1.18202 -0.0500531 -0.0171443 0.0639837 0.867494)
(0.957877 -0.0110581 -0.267598 0.0886253 1.20266 -0.0980101 -0.0279943 0.0600345 0.867495)
(0.951993 -0.0552577 -0.246514 0.0444258 1.20855 -0.142989 -0.0379936 0.0542609 0.867495)
(0.961582 -0.0988042 -0.217939 0.000879313 1.19896 -0.183623 -0.0468385 0.0468387 0.867495)
(0.985485 -0.136445 -0.182742 -0.0367615 1.17505 -0.218678 -0.0542605 0.0379936 0.867495)
(1.02082 -0.163641 -0.141993 -0.0639564 1.13972 -0.247089 -0.0600338 0.0279941 0.867494)
(1.06333 -0.17711 -0.0969289 -0.0774258 1.09721 -0.267992 -0.0639832 0.017144 0.867494)
(1.10788 -0.175229 -0.0489201 -0.0755449 1.05266 -0.280752 -0.0659886 0.00577306 0.867494)
(1.16346 -0.185699 0.0124449 -0.0503694 0.994662 -0.287177 -0.0602801 -0.00527382 0.859123)
(1.19874 -0.149714 0.0621236 -0.0143844 0.959382 -0.280653 -0.0584485 -0.0156612 0.859123)
(1.21959 -0.103832 0.109915 0.0314972 0.938537 -0.265602 -0.0548409 -0.0255727 0.859123)
(1.22348 -0.0535883 0.154366 0.081741 0.934642 -0.24248 -0.0495668 -0.034707 0.859123)
(1.20996 -0.00504221 0.194127 0.130287 0.948166 -0.211991 -0.0427867 -0.0427867 0.859123)
(1.18065 0.0359507 0.22799 0.17128 0.977478 -0.175061 -0.0347068 -0.0495665 0.859123)
(1.13908 0.0644459 0.254925 0.199776 1.01904 -0.132811 -0.0255724 -0.0548403 0.859123)
(1.09028 0.0770066 0.274115 0.212336 1.06785 -0.0865262 -0.0156611 -0.0584481 0.859123)
(1.04012 0.072118 0.284975 0.207448 1.118 -0.037612 -0.00527378 -0.06028 0.859123)
(0.994662 0.0503694 0.287177 0.185699 1.16346 0.0124449 0.00527382 -0.0602801 0.859123)
(0.959382 0.0143844 0.280653 0.149714 1.19874 0.0621236 0.0156612 -0.0584485 0.859123)
(0.938537 -0.0314971 0.265602 0.103832 1.21959 0.109915 0.0255727 -0.0548409 0.859123)
(0.934642 -0.081741 0.24248 0.0535883 1.22348 0.154366 0.034707 -0.0495668 0.859123)
(0.948166 -0.130287 0.211991 0.00504221 1.20996 0.194127 0.0427867 -0.0427867 0.859123)
(0.977478 -0.17128 0.175061 -0.0359507 1.18065 0.22799 0.0495665 -0.0347068 0.859123)
(1.01904 -0.199776 0.132811 -0.0644459 1.13908 0.254925 0.0548403 -0.0255724 0.859123)
(1.06785 -0.212336 0.0865262 -0.0770066 1.09028 0.274115 0.0584481 -0.0156611 0.859123)
(1.118 -0.207448 0.037612 -0.0721179 1.04012 0.284975 0.06028 -0.00527378 0.859123)
(1.16346 -0.185699 -0.0124449 -0.0503694 0.994662 0.287177 0.0602801 0.00527381 0.859123)
(1.19874 -0.149714 -0.0621237 -0.0143844 0.959382 0.280653 0.0584485 0.0156612 0.859123)
(1.21959 -0.103832 -0.109915 0.0314972 0.938537 0.265602 0.0548409 0.0255727 0.859123)
(1.22348 -0.0535883 -0.154366 0.081741 0.934642 0.24248 0.0495668 0.034707 0.859123)
(1.20996 -0.00504221 -0.194127 0.130287 0.948166 0.211991 0.0427867 0.0427867 0.859123)
(1.18065 0.0359507 -0.22799 0.17128 0.977478 0.175061 0.0347068 0.0495665 0.859123)
(1.13908 0.0644459 -0.254925 0.199776 1.01904 0.132811 0.0255724 0.0548403 0.859123)
(1.09028 0.0770066 -0.274115 0.212336 1.06785 0.0865262 0.0156611 0.0584481 0.859123)
(1.04012 0.0721179 -0.284975 0.207448 1.118 0.037612 0.00527379 0.06028 0.859123)
(0.994662 0.0503694 -0.287177 0.185699 1.16346 -0.0124449 -0.00527381 0.0602801 0.859123)
(0.959382 0.0143844 -0.280653 0.149714 1.19874 -0.0621236 -0.0156612 0.0584485 0.859123)
(0.938537 -0.0314972 -0.265602 0.103832 1.21959 -0.109915 -0.0255727 0.0548409 0.859123)
(0.934642 -0.081741 -0.24248 0.0535883 1.22348 -0.154366 -0.034707 0.0495668 0.859123)
(0.948166 -0.130287 -0.211991 0.00504221 1.20996 -0.194127 -0.0427867 0.0427867 0.859123)
(0.977478 -0.17128 -0.175061 -0.0359507 1.18065 -0.22799 -0.0495665 0.0347068 0.859123)
(1.01904 -0.199776 -0.132811 -0.0644459 1.13908 -0.254925 -0.0548403 0.0255724 0.859123)
(1.06785 -0.212336 -0.0865262 -0.0770066 1.09028 -0.274115 -0.0584481 0.0156611 0.859123)
(1.118 -0.207448 -0.037612 -0.0721179 1.04012 -0.284975 -0.06028 0.00527378 0.859123)
(1.15833 -0.191338 0.0128757 -0.057204 1.02223 -0.26823 -0.0816659 -0.00714505 0.858857)
(1.19673 -0.160569 0.0592578 -0.0264347 0.983831 -0.261919 -0.0791847 -0.0212175 0.858858)
(1.22229 -0.118521 0.103839 0.0156123 0.958271 -0.24765 -0.0742973 -0.0346452 0.858858)
(1.23193 -0.070268 0.145266 0.0638655 0.948634 -0.225856 -0.0671523 -0.0470202 0.858858)