/*--------------------------------*- C++ -*----------------------------------*\
| =========                 |                                                 |
| \\      /  F ield         | OpenFOAM: The Open Source CFD Toolbox           |
|  \\    /   O peration     | Version:  2312                                  |
|   \\  /    A nd           | Website:  www.openfoam.com                      |
|    \\/     M anipulation  |                                                 |
\*---------------------------------------------------------------------------*/
FoamFile
{
    version     2.0;
    format      ascii;
    arch        "LSB;label=32;scalar=64";
    class       pointVectorField;
    location    "0.5";
    object      pointD;
}
// * * * * * * * * * * * * * * * * * * * * * * * * * * * * * * * * * * * * * //

dimensions      [0 1 0 0 0 0 0];

internalField   nonuniform List<vector> 
2164
(
(0 0 0)
(0 0 0)
(0 0 0)
(0 0 0)
(0 0 0)
(0 0 0)
(0 0 0)
(0 0 0)
(0 0 0)
(0 0 0)
(0 0 0)
(0 0 0)
(0 0 0)
(0 0 0)
(0 0 0)
(0 0 0)
(0 0 0)
(0 0 0)
(0 0 0)
(0 0 0)
(0 0 0)
(0 0 0)
(0 0 0)
(0 0 0)
(0 0 0)
(0 0 0)
(0 0 0)
(0 0 0)
(0 0 0)
(0 0 0)
(0 0 0)
(0 0 0)
(0 0 0)
(0 0 0)
(0 0 0)
(0 0 0)
(0.000150052 0.000558085 8.32008e-05)
(5.08615e-05 0.000575662 8.32009e-05)
(-4.98738e-05 0.000575749 8.32017e-05)
(-0.000149093 0.000558342 8.32023e-05)
(-0.000243783 0.00052397 8.32022e-05)
(-0.000331066 0.000473677 8.32021e-05)
(-0.00040829 0.000408991 8.3202e-05)
(-0.000473107 0.000331879 8.32014e-05)
(-0.00052355 0.000244682 8.32012e-05)
(-0.000558085 0.000150052 8.32008e-05)
(-0.000575662 5.08615e-05 8.32009e-05)
(-0.000575749 -4.98738e-05 8.32017e-05)
(-0.000558342 -0.000149093 8.32023e-05)
(-0.00052397 -0.000243783 8.32022e-05)
(-0.000473677 -0.000331066 8.32021e-05)
(-0.000408991 -0.00040829 8.3202e-05)
(-0.000331879 -0.000473107 8.32014e-05)
(-0.000244682 -0.00052355 8.32012e-05)
(-0.000150051 -0.000558085 8.32008e-05)
(-5.08614e-05 -0.000575662 8.32009e-05)
(4.98739e-05 -0.000575749 8.32017e-05)
(0.000149093 -0.000558342 8.32023e-05)
(0.000243783 -0.00052397 8.32022e-05)
(0.000331066 -0.000473677 8.32021e-05)
(0.00040829 -0.000408991 8.3202e-05)
(0.000473107 -0.000331879 8.32014e-05)
(0.00052355 -0.000244682 8.32012e-05)
(0.000558085 -0.000150052 8.32008e-05)
(0.000575662 -5.08615e-05 8.32009e-05)
(0.000575749 4.98738e-05 8.32017e-05)
(0.000558342 0.000149093 8.32023e-05)
(0.00052397 0.000243783 8.32022e-05)
(0.000473677 0.000331066 8.32021e-05)
(0.000408991 0.00040829 8.32021e-05)
(0.000331879 0.000473107 8.32014e-05)
(0.000244682 0.00052355 8.32012e-05)
(7.71674e-05 0.000587622 0.000120006)
(-2.60442e-05 0.000592095 0.000120005)
(-0.000128464 0.000578577 0.000120006)
(-0.000226981 0.00054748 0.000120007)
(-0.000318603 0.000499747 0.000120007)
(-0.000400542 0.00043683 0.000120006)
(-0.000470312 0.00036064 0.000120006)
(-0.000525792 0.000273492 0.000120006)
(-0.000565295 0.000178035 0.000120006)
(-0.000587622 7.71674e-05 0.000120006)
(-0.000592095 -2.60442e-05 0.000120005)
(-0.000578577 -0.000128464 0.000120006)
(-0.00054748 -0.000226981 0.000120007)
(-0.000499747 -0.000318603 0.000120006)
(-0.00043683 -0.000400542 0.000120006)
(-0.00036064 -0.000470312 0.000120006)
(-0.000273492 -0.000525792 0.000120006)
(-0.000178035 -0.000565295 0.000120006)
(-7.71673e-05 -0.000587622 0.000120006)
(2.60443e-05 -0.000592095 0.000120005)
(0.000128464 -0.000578577 0.000120006)
(0.000226982 -0.00054748 0.000120007)
(0.000318603 -0.000499747 0.000120007)
(0.000400542 -0.00043683 0.000120006)
(0.000470312 -0.00036064 0.000120006)
(0.000525792 -0.000273492 0.000120006)
(0.000565295 -0.000178035 0.000120006)
(0.000587622 -7.71674e-05 0.000120006)
(0.000592095 2.60442e-05 0.000120005)
(0.000578577 0.000128464 0.000120006)
(0.00054748 0.000226981 0.000120007)
(0.000499747 0.000318603 0.000120007)
(0.00043683 0.000400542 0.000120006)
(0.000360641 0.000470312 0.000120006)
(0.000273492 0.000525792 0.000120006)
(0.000178035 0.000565295 0.000120006)
(0 0 0)
(0 0 0)
(0 0 0)
(0 0 0)
(0 0 0)
(0 0 0)
(0 0 0)
(0 0 0)
(0 0 0)
(0 0 0)
(0 0 0)
(0 0 0)
(0 0 0)
(0 0 0)
(0 0 0)
(0 0 0)
(0 0 0)
(0 0 0)
(0 0 0)
(0 0 0)
(0 0 0)
(0 0 0)
(0 0 0)
(0 0 0)
(0 0 0)
(0 0 0)
(0 0 0)
(0 0 0)
(0 0 0)
(0 0 0)
(0 0 0)
(0 0 0)
(0 0 0)
(0 0 0)
(0 0 0)
(0 0 0)
(-1.15761e-05 0.000612347 0.000150863)
(-0.000117732 0.000601034 0.000150863)
(-0.000220313 0.000571458 0.000150863)
(-0.000316197 0.00052452 0.000150863)
(-0.000402476 0.000461644 0.000150863)
(-0.000476525 0.000384741 0.000150863)
(-0.000536095 0.000296149 0.000150863)
(-0.000579377 0.000198557 0.000150863)
(-0.000605054 9.4933e-05 0.000150863)
(-0.000612347 -1.15761e-05 0.000150863)
(-0.000601034 -0.000117733 0.000150863)
(-0.000571458 -0.000220313 0.000150863)
(-0.00052452 -0.000316197 0.000150863)
(-0.000461644 -0.000402476 0.000150863)
(-0.000384741 -0.000476525 0.000150863)
(-0.000296149 -0.000536095 0.000150863)
(-0.000198557 -0.000579377 0.000150863)
(-9.4933e-05 -0.000605054 0.000150863)
(1.15762e-05 -0.000612347 0.000150863)
(0.000117733 -0.000601034 0.000150863)
(0.000220313 -0.000571458 0.000150863)
(0.000316197 -0.00052452 0.000150863)
(0.000402476 -0.000461644 0.000150863)
(0.000476525 -0.000384741 0.000150863)
(0.000536095 -0.000296149 0.000150863)
(0.000579377 -0.000198557 0.000150863)
(0.000605054 -9.4933e-05 0.000150863)
(0.000612347 1.15761e-05 0.000150863)
(0.000601034 0.000117733 0.000150863)
(0.000571459 0.000220313 0.000150863)
(0.00052452 0.000316197 0.000150863)
(0.000461644 0.000402476 0.000150863)
(0.000384741 0.000476525 0.000150863)
(0.000296149 0.000536095 0.000150863)
(0.000198557 0.000579377 0.000150863)
(9.4933e-05 0.000605054 0.000150863)
(0 0 0)
(0 0 0)
(0 0 0)
(0 0 0)
(0 0 0)
(0 0 0)
(0 0 0)
(0 0 0)
(0 0 0)
(0 0 0)
(0 0 0)
(0 0 0)
(0 0 0)
(0 0 0)
(0 0 0)
(0 0 0)
(0 0 0)
(0 0 0)
(0 0 0)
(0 0 0)
(0 0 0)
(0 0 0)
(0 0 0)
(0 0 0)
(0 0 0)
(0 0 0)
(0 0 0)
(0 0 0)
(0 0 0)
(0 0 0)
(0 0 0)
(0 0 0)
(0 0 0)
(0 0 0)
(0 0 0)
(0 0 0)
(-0.000113973 0.000627083 0.000174171)
(-0.000221132 0.000597765 0.000174171)
(-0.000321574 0.000550284 0.000174171)
(-0.000412245 0.000486083 0.000174171)
(-0.000490389 0.000407113 0.000174171)
(-0.000553633 0.000315772 0.000174171)
(-0.000600055 0.000214838 0.000174171)
(-0.000628246 0.000107375 0.000174171)
(-0.000637347 -3.34902e-06 0.000174171)
(-0.000627083 -0.000113973 0.000174171)
(-0.000597765 -0.000221132 0.000174171)
(-0.000550284 -0.000321574 0.000174171)
(-0.000486083 -0.000412245 0.000174171)
(-0.000407113 -0.000490389 0.000174171)
(-0.000315772 -0.000553633 0.000174171)
(-0.000214838 -0.000600056 0.000174171)
(-0.000107375 -0.000628246 0.000174171)
(3.34905e-06 -0.000637347 0.000174171)
(0.000113973 -0.000627083 0.000174171)
(0.000221132 -0.000597765 0.000174171)
(0.000321574 -0.000550284 0.000174171)
(0.000412245 -0.000486083 0.000174171)
(0.000490389 -0.000407113 0.000174171)
(0.000553633 -0.000315772 0.000174171)
(0.000600056 -0.000214838 0.000174171)
(0.000628246 -0.000107375 0.000174171)
(0.000637347 3.34903e-06 0.000174171)
(0.000627083 0.000113973 0.000174171)
(0.000597765 0.000221132 0.000174171)
(0.000550284 0.000321574 0.000174171)
(0.000486083 0.000412245 0.000174171)
(0.000407113 0.000490389 0.000174171)
(0.000315772 0.000553633 0.000174171)
(0.000214838 0.000600056 0.000174171)
(0.000107375 0.000628246 0.000174171)
(-3.349e-06 0.000637347 0.000174171)
(0 0 0)
(0 0 0)
(0 0 0)
(0 0 0)
(0 0 0)
(0 0 0)
(0 0 0)
(0 0 0)
(0 0 0)
(0 0 0)
(0 0 0)
(0 0 0)
(0 0 0)
(0 0 0)
(0 0 0)
(0 0 0)
(0 0 0)
(0 0 0)
(0 0 0)
(0 0 0)
(0 0 0)
(0 0 0)
(0 0 0)
(0 0 0)
(0 0 0)
(0 0 0)
(0 0 0)
(0 0 0)
(0 0 0)
(0 0 0)
(0 0 0)
(0 0 0)
(0 0 0)
(0 0 0)
(0 0 0)
(0 0 0)
(0.000204513 0.00111385 0.000239318)
(7.98883e-06 0.00113244 0.000239318)
(-0.000188779 0.00111662 0.000239319)
(-0.00037981 0.00106688 0.000239321)
(-0.000559301 0.000984716 0.000239321)
(-0.000721798 0.000872635 0.00023932)
(-0.000862363 0.000734039 0.00023932)
(-0.000976727 0.000573139 0.000239319)
(-0.00106141 0.000394823 0.000239318)
(-0.00111385 0.000204513 0.000239318)
(-0.00113244 7.98873e-06 0.000239318)
(-0.00111662 -0.000188779 0.000239319)
(-0.00106688 -0.00037981 0.000239321)
(-0.000984716 -0.000559301 0.000239321)
(-0.000872635 -0.000721798 0.00023932)
(-0.000734039 -0.000862363 0.00023932)
(-0.000573139 -0.000976727 0.000239319)
(-0.000394823 -0.00106141 0.000239318)
(-0.000204513 -0.00111385 0.000239318)
(-7.98867e-06 -0.00113244 0.000239318)
(0.000188779 -0.00111662 0.000239319)
(0.00037981 -0.00106688 0.000239321)
(0.000559301 -0.000984716 0.000239321)
(0.000721798 -0.000872635 0.00023932)
(0.000862364 -0.000734039 0.00023932)
(0.000976727 -0.000573139 0.000239319)
(0.00106141 -0.000394823 0.000239318)
(0.00111385 -0.000204513 0.000239318)
(0.00113244 -7.98875e-06 0.000239318)
(0.00111662 0.000188779 0.000239319)
(0.00106688 0.00037981 0.000239321)
(0.000984716 0.000559301 0.000239321)
(0.000872635 0.000721798 0.00023932)
(0.000734039 0.000862363 0.00023932)
(0.000573139 0.000976727 0.000239319)
(0.000394823 0.00106141 0.000239318)
(9.4744e-05 0.00116034 0.000302821)
(-0.000108186 0.00115916 0.000302821)
(-0.000307827 0.00112276 0.000302821)
(-0.000498117 0.00105225 0.000302822)
(-0.00067327 0.000949769 0.000302822)
(-0.000827967 0.000818428 0.000302822)
(-0.000957508 0.000662218 0.000302822)
(-0.00105795 0.000485887 0.000302821)
(-0.00112626 0.000294794 0.000302821)
(-0.00116034 9.4744e-05 0.000302821)
(-0.00115916 -0.000108186 0.000302821)
(-0.00112276 -0.000307827 0.000302821)
(-0.00105225 -0.000498117 0.000302822)
(-0.000949769 -0.00067327 0.000302822)
(-0.000818428 -0.000827967 0.000302822)
(-0.000662218 -0.000957508 0.000302822)
(-0.000485887 -0.00105795 0.000302821)
(-0.000294794 -0.00112626 0.000302821)
(-9.47439e-05 -0.00116034 0.00030282)
(0.000108186 -0.00115916 0.000302821)
(0.000307827 -0.00112276 0.000302821)
(0.000498117 -0.00105225 0.000302822)
(0.00067327 -0.000949769 0.000302822)
(0.000827967 -0.000818428 0.000302822)
(0.000957508 -0.000662218 0.000302822)
(0.00105795 -0.000485887 0.000302821)
(0.00112626 -0.000294794 0.000302821)
(0.00116034 -9.4744e-05 0.000302821)
(0.00115916 0.000108186 0.000302821)
(0.00112276 0.000307827 0.000302821)
(0.00105225 0.000498117 0.000302822)
(0.000949769 0.00067327 0.000302822)
(0.000818428 0.000827967 0.000302822)
(0.000662218 0.000957508 0.000302822)
(0.000485888 0.00105795 0.000302821)
(0.000294794 0.00112626 0.000302821)
(-3.21322e-05 0.00120251 0.000359938)
(-0.000240457 0.00117867 0.000359938)
(-0.000441477 0.00111901 0.000359938)
(-0.000629083 0.00102534 0.000359939)
(-0.000797576 0.000900526 0.000359939)
(-0.000941833 0.000748347 0.000359939)
(-0.00105747 0.00057343 0.000359938)
(-0.00114098 0.000381091 0.000359938)
(-0.00118982 0.000177171 0.000359938)
(-0.00120251 -3.21323e-05 0.000359938)
(-0.00117867 -0.000240457 0.000359938)
(-0.001119 -0.000441477 0.000359938)
(-0.00102534 -0.000629084 0.000359939)
(-0.000900525 -0.000797576 0.000359939)
(-0.000748347 -0.000941833 0.000359938)
(-0.00057343 -0.00105747 0.000359938)
(-0.00038109 -0.00114098 0.000359938)
(-0.000177171 -0.00118982 0.000359938)
(3.21323e-05 -0.00120251 0.000359938)
(0.000240457 -0.00117867 0.000359938)
(0.000441477 -0.00111901 0.000359938)
(0.000629084 -0.00102534 0.000359939)
(0.000797576 -0.000900526 0.000359939)
(0.000941833 -0.000748347 0.000359939)
(0.00105747 -0.00057343 0.000359938)
(0.00114098 -0.000381091 0.000359938)
(0.00118982 -0.000177171 0.000359938)
(0.00120251 3.21323e-05 0.000359938)
(0.00117867 0.000240457 0.000359938)
(0.00111901 0.000441477 0.000359938)
(0.00102534 0.000629084 0.000359939)
(0.000900526 0.000797576 0.000359939)
(0.000748347 0.000941833 0.000359939)
(0.00057343 0.00105747 0.000359938)
(0.000381091 0.00114098 0.000359938)
(0.000177171 0.00118982 0.000359938)
(-0.00017074 0.00123092 0.000407176)
(-0.000381894 0.00118257 0.000407176)
(-0.000581442 0.00109829 0.000407176)
(-0.000763325 0.000980642 0.000407175)
(-0.000922015 0.000833193 0.000407175)
(-0.00105269 0.000660429 0.000407175)
(-0.00115138 0.000467597 0.000407176)
(-0.00121509 0.000260558 0.000407176)
(-0.00124187 4.56025e-05 0.000407175)
(-0.00123092 -0.00017074 0.000407176)
(-0.00118257 -0.000381894 0.000407176)
(-0.00109829 -0.000581442 0.000407175)
(-0.000980642 -0.000763325 0.000407175)
(-0.000833193 -0.000922015 0.000407175)
(-0.000660429 -0.00105269 0.000407175)
(-0.000467597 -0.00115138 0.000407176)
(-0.000260558 -0.00121509 0.000407176)
(-4.56025e-05 -0.00124187 0.000407175)
(0.00017074 -0.00123092 0.000407176)
(0.000381894 -0.00118257 0.000407176)
(0.000581442 -0.00109829 0.000407175)
(0.000763325 -0.000980642 0.000407175)
(0.000922015 -0.000833193 0.000407175)
(0.00105269 -0.000660429 0.000407175)
(0.00115138 -0.000467597 0.000407176)
(0.00121509 -0.000260558 0.000407176)
(0.00124187 -4.56025e-05 0.000407175)
(0.00123092 0.00017074 0.000407176)
(0.00118257 0.000381894 0.000407176)
(0.00109829 0.000581442 0.000407176)
(0.000980642 0.000763325 0.000407175)
(0.000833193 0.000922015 0.000407175)
(0.000660429 0.00105269 0.000407175)
(0.000467598 0.00115138 0.000407176)
(0.000260558 0.00121509 0.000407176)
(4.56026e-05 0.00124187 0.000407175)
(0.000195452 0.00166974 0.000480958)
(-9.74648e-05 0.00167831 0.000480958)
(-0.000387422 0.00163589 0.000480959)
(-0.000665604 0.00154376 0.00048096)
(-0.000923565 0.00140473 0.000480961)
(-0.00115346 0.00122301 0.000480961)
(-0.00134831 0.00100414 0.00048096)
(-0.0015022 0.000754749 0.000480959)
(-0.00161043 0.00048243 0.000480958)
(-0.00166974 0.000195452 0.000480958)
(-0.00167831 -9.7465e-05 0.000480958)
(-0.00163589 -0.000387422 0.000480959)
(-0.00154376 -0.000665605 0.00048096)
(-0.00140473 -0.000923565 0.000480961)
(-0.00122301 -0.00115346 0.000480961)
(-0.00100414 -0.00134831 0.00048096)
(-0.000754749 -0.0015022 0.000480959)
(-0.00048243 -0.00161043 0.000480958)
(-0.000195452 -0.00166974 0.000480958)
(9.74651e-05 -0.00167831 0.000480958)
(0.000387422 -0.00163589 0.000480959)
(0.000665605 -0.00154376 0.00048096)
(0.000923565 -0.00140473 0.000480961)
(0.00115346 -0.00122301 0.000480961)
(0.00134831 -0.00100414 0.00048096)
(0.0015022 -0.000754749 0.000480959)
(0.00161043 -0.00048243 0.000480958)
(0.00166974 -0.000195452 0.000480958)
(0.00167831 9.74649e-05 0.000480958)
(0.00163589 0.000387422 0.000480959)
(0.00154376 0.000665605 0.00048096)
(0.00140473 0.000923565 0.000480961)
(0.00122301 0.00115346 0.000480961)
(0.00100414 0.00134831 0.00048096)
(0.000754749 0.0015022 0.000480959)
(0.00048243 0.00161043 0.000480958)
(5.98021e-05 0.00171015 0.000555428)
(-0.000238072 0.00169456 0.000555428)
(-0.000528711 0.00162747 0.000555428)
(-0.000803287 0.00151094 0.000555429)
(-0.00105345 0.0013485 0.000555429)
(-0.00127161 0.00114508 0.000555429)
(-0.00145114 0.000906868 0.000555429)
(-0.00158657 0.000641103 0.000555428)
(-0.00167379 0.000355858 0.000555428)
(-0.00171015 5.9802e-05 0.000555428)
(-0.00169456 -0.000238072 0.000555428)
(-0.00162747 -0.000528711 0.000555428)
(-0.00151094 -0.000803287 0.000555429)
(-0.0013485 -0.00105345 0.000555429)
(-0.00114508 -0.00127161 0.000555429)
(-0.000906867 -0.00145114 0.000555429)
(-0.000641103 -0.00158657 0.000555428)
(-0.000355858 -0.00167379 0.000555428)
(-5.98019e-05 -0.00171015 0.000555428)
(0.000238072 -0.00169456 0.000555428)
(0.000528711 -0.00162747 0.000555428)
(0.000803287 -0.00151094 0.000555429)
(0.00105345 -0.0013485 0.000555429)
(0.00127161 -0.00114508 0.000555429)
(0.00145114 -0.000906868 0.000555429)
(0.00158657 -0.000641103 0.000555429)
(0.00167379 -0.000355858 0.000555428)
(0.00171015 -5.9802e-05 0.000555428)
(0.00169456 0.000238072 0.000555428)
(0.00162747 0.000528711 0.000555428)
(0.00151094 0.000803287 0.000555429)
(0.0013485 0.00105345 0.000555429)
(0.00114508 0.00127161 0.000555429)
(0.000906868 0.00145114 0.000555429)
(0.000641103 0.00158657 0.000555429)
(0.000355858 0.00167379 0.000555428)
(-9.104e-05 0.00174605 0.000623343)
(-0.000392856 0.00170372 0.000623343)
(-0.000682734 0.00160962 0.000623343)
(-0.000951868 0.00146661 0.000623343)
(-0.00119208 0.00127904 0.000623344)
(-0.00139607 0.0010526 0.000623344)
(-0.00155765 0.000794184 0.000623344)
(-0.00167189 0.000511635 0.000623344)
(-0.00173534 0.000213542 0.000623343)
(-0.00174605 -9.10401e-05 0.000623343)
(-0.00170372 -0.000392856 0.000623343)
(-0.00160962 -0.000682734 0.000623343)
(-0.00146661 -0.000951868 0.000623343)
(-0.00127904 -0.00119208 0.000623344)
(-0.0010526 -0.00139607 0.000623344)
(-0.000794184 -0.00155765 0.000623344)
(-0.000511635 -0.00167189 0.000623344)
(-0.000213542 -0.00173534 0.000623343)
(9.10402e-05 -0.00174605 0.000623343)
(0.000392856 -0.00170372 0.000623343)
(0.000682735 -0.00160962 0.000623343)
(0.000951868 -0.00146661 0.000623343)
(0.00119208 -0.00127904 0.000623344)
(0.00139607 -0.0010526 0.000623344)
(0.00155765 -0.000794184 0.000623344)
(0.00167189 -0.000511635 0.000623344)
(0.00173534 -0.000213542 0.000623343)
(0.00174605 9.10401e-05 0.000623343)
(0.00170372 0.000392856 0.000623343)
(0.00160962 0.000682734 0.000623344)
(0.00146661 0.000951868 0.000623344)
(0.00127904 0.00119208 0.000623344)
(0.0010526 0.00139607 0.000623344)
(0.000794184 0.00155765 0.000623344)
(0.000511635 0.00167189 0.000623344)
(0.000213542 0.00173534 0.000623343)
(-0.00025021 0.00176659 0.000681537)
(-0.000553172 0.0016963 0.000681537)
(-0.000839329 0.00157447 0.000681537)
(-0.00109998 0.00140481 0.000681537)
(-0.00132721 0.00119245 0.000681537)
(-0.00151412 0.000943869 0.000681537)
(-0.00165501 0.000666607 0.000681536)
(-0.00174563 0.00036909 0.000681537)
(-0.0017832 6.03558e-05 0.000681537)
(-0.00176659 -0.00025021 0.000681537)
(-0.0016963 -0.000553172 0.000681537)
(-0.00157447 -0.000839329 0.000681537)
(-0.00140481 -0.00109998 0.000681537)
(-0.00119245 -0.00132721 0.000681537)
(-0.000943869 -0.00151412 0.000681537)
(-0.000666606 -0.00165501 0.000681536)
(-0.00036909 -0.00174563 0.000681537)
(-6.03557e-05 -0.0017832 0.000681537)
(0.00025021 -0.00176659 0.000681537)
(0.000553172 -0.0016963 0.000681537)
(0.000839329 -0.00157447 0.000681537)
(0.00109998 -0.00140481 0.000681537)
(0.00132721 -0.00119245 0.000681537)
(0.00151412 -0.000943869 0.000681537)
(0.00165501 -0.000666607 0.000681536)
(0.00174563 -0.00036909 0.000681537)
(0.0017832 -6.03558e-05 0.000681537)
(0.00176659 0.00025021 0.000681537)
(0.0016963 0.000553172 0.000681537)
(0.00157447 0.000839329 0.000681537)
(0.00140481 0.00109998 0.000681537)
(0.00119245 0.00132721 0.000681537)
(0.000943869 0.00151412 0.000681537)
(0.000666607 0.00165501 0.000681536)
(0.00036909 0.00174563 0.000681537)
(6.03559e-05 0.0017832 0.000681537)
(0.000113987 0.00220546 0.000762985)
(-0.000270721 0.00219175 0.000762985)
(-0.0006472 0.00211144 0.000762986)
(-0.00100401 0.00196698 0.000762986)
(-0.00133032 0.00176275 0.000762987)
(-0.00161621 0.00150496 0.000762987)
(-0.00185299 0.00120145 0.000762987)
(-0.00203347 0.000861423 0.000762986)
(-0.00215216 0.000495228 0.000762986)
(-0.00220546 0.000113987 0.000762985)
(-0.00219175 -0.000270722 0.000762985)
(-0.00211144 -0.000647201 0.000762986)
(-0.00196698 -0.00100401 0.000762986)
(-0.00176275 -0.00133032 0.000762987)
(-0.00150496 -0.00161621 0.000762987)
(-0.00120144 -0.00185299 0.000762987)
(-0.000861423 -0.00203347 0.000762986)
(-0.000495228 -0.00215216 0.000762986)
(-0.000113987 -0.00220546 0.000762985)
(0.000270722 -0.00219175 0.000762985)
(0.000647201 -0.00211144 0.000762986)
(0.00100401 -0.00196698 0.000762986)
(0.00133032 -0.00176275 0.000762987)
(0.00161621 -0.00150496 0.000762987)
(0.00185299 -0.00120144 0.000762987)
(0.00203347 -0.000861423 0.000762986)
(0.00215216 -0.000495228 0.000762986)
(0.00220546 -0.000113987 0.000762985)
(0.00219175 0.000270722 0.000762985)
(0.00211144 0.000647201 0.000762986)
(0.00196698 0.00100401 0.000762986)
(0.00176275 0.00133032 0.000762987)
(0.00150496 0.00161621 0.000762987)
(0.00120145 0.00185299 0.000762987)
(0.000861423 0.00203347 0.000762986)
(0.000495228 0.00215216 0.000762986)
(-3.01286e-05 0.00221939 0.000837902)
(-0.000415064 0.00218044 0.000837902)
(-0.000787388 0.00207524 0.000837903)
(-0.00113579 0.00190699 0.000837903)
(-0.00144968 0.00168079 0.000837903)
(-0.00171952 0.00140352 0.000837904)
(-0.00193711 0.00108361 0.000837903)
(-0.00209585 0.000730765 0.000837903)
(-0.00219091 0.000355723 0.000837903)
(-0.00221939 -3.01287e-05 0.000837902)
(-0.00218044 -0.000415065 0.000837902)
(-0.00207524 -0.000787388 0.000837903)
(-0.00190699 -0.00113579 0.000837903)
(-0.00168079 -0.00144968 0.000837903)
(-0.00140352 -0.00171952 0.000837904)
(-0.0010836 -0.00193711 0.000837903)
(-0.000730765 -0.00209585 0.000837903)
(-0.000355723 -0.00219091 0.000837903)
(3.01288e-05 -0.00221939 0.000837902)
(0.000415065 -0.00218044 0.000837902)
(0.000787389 -0.00207524 0.000837903)
(0.00113579 -0.00190699 0.000837903)
(0.00144968 -0.00168079 0.000837903)
(0.00171952 -0.00140352 0.000837904)
(0.00193711 -0.0010836 0.000837903)
(0.00209585 -0.000730765 0.000837903)
(0.00219091 -0.000355723 0.000837903)
(0.00221939 3.01287e-05 0.000837903)
(0.00218044 0.000415065 0.000837902)
(0.00207524 0.000787388 0.000837903)
(0.00190699 0.00113579 0.000837903)
(0.00168079 0.00144968 0.000837903)
(0.00140352 0.00171952 0.000837904)
(0.00108361 0.00193711 0.000837903)
(0.000730765 0.00209585 0.000837903)
(0.000355723 0.00219091 0.000837903)
(-0.000186891 0.00222937 0.00090591)
(-0.000571177 0.00216305 0.000905911)
(-0.000938109 0.002031 0.000905911)
(-0.00127654 0.00183724 0.000905911)
(-0.00157617 0.00158767 0.000905911)
(-0.00182792 0.00128984 0.000905911)
(-0.00202413 0.000952832 0.000905911)
(-0.00215884 0.00058687 0.000905911)
(-0.00222795 0.000203074 0.000905911)
(-0.00222937 -0.000186891 0.00090591)
(-0.00216305 -0.000571177 0.000905911)
(-0.002031 -0.00093811 0.000905911)
(-0.00183724 -0.00127654 0.000905911)
(-0.00158766 -0.00157617 0.000905911)
(-0.00128984 -0.00182792 0.000905911)
(-0.000952832 -0.00202413 0.000905911)
(-0.00058687 -0.00215884 0.000905911)
(-0.000203073 -0.00222795 0.000905911)
(0.000186891 -0.00222937 0.00090591)
(0.000571177 -0.00216305 0.000905911)
(0.00093811 -0.002031 0.000905911)
(0.00127654 -0.00183724 0.000905911)
(0.00157617 -0.00158766 0.000905911)
(0.00182792 -0.00128984 0.000905911)
(0.00202413 -0.000952832 0.000905911)
(0.00215884 -0.00058687 0.000905911)
(0.00222795 -0.000203074 0.000905911)
(0.00222937 0.000186891 0.00090591)
(0.00216305 0.000571177 0.000905911)
(0.002031 0.000938109 0.000905911)
(0.00183724 0.00127654 0.000905911)
(0.00158767 0.00157617 0.000905911)
(0.00128984 0.00182792 0.000905911)
(0.000952832 0.00202413 0.000905911)
(0.00058687 0.00215884 0.000905911)
(0.000203074 0.00222795 0.000905911)
(-0.000350002 0.00222422 0.000964293)
(-0.000730916 0.00212965 0.000964293)
(-0.00108962 0.00197037 0.000964293)
(-0.00141522 0.00175123 0.000964293)
(-0.00169781 0.00147887 0.000964293)
(-0.00192882 0.00116158 0.000964292)
(-0.00210123 0.000808997 0.000964293)
(-0.00220979 0.000431833 0.000964293)
(-0.0022512 4.15462e-05 0.000964293)
(-0.00222421 -0.000350002 0.000964293)
(-0.00212965 -0.000730916 0.000964293)
(-0.00197037 -0.00108962 0.000964293)
(-0.00175123 -0.00141522 0.000964293)
(-0.00147887 -0.00169781 0.000964292)
(-0.00116158 -0.00192882 0.000964292)
(-0.000808997 -0.00210123 0.000964293)
(-0.000431833 -0.00220979 0.000964293)
(-4.15461e-05 -0.0022512 0.000964293)
(0.000350002 -0.00222422 0.000964293)
(0.000730916 -0.00212965 0.000964293)
(0.00108962 -0.00197037 0.000964293)
(0.00141522 -0.00175123 0.000964293)
(0.00169781 -0.00147887 0.000964293)
(0.00192882 -0.00116158 0.000964292)
(0.00210123 -0.000808997 0.000964293)
(0.00220979 -0.000431833 0.000964293)
(0.0022512 -4.15462e-05 0.000964293)
(0.00222422 0.000350002 0.000964293)
(0.00212965 0.000730916 0.000964293)
(0.00197037 0.00108962 0.000964293)
(0.00175123 0.00141522 0.000964293)
(0.00147887 0.00169781 0.000964293)
(0.00116158 0.00192882 0.000964292)
(0.000808997 0.00210123 0.000964293)
(0.000431833 0.00220979 0.000964293)
(4.15464e-05 0.0022512 0.000964293)
(-2.26915e-05 0.00269748 0.00107032)
(-0.000490761 0.00265256 0.00107032)
(-0.000943916 0.00252705 0.00107032)
(-0.00136839 0.00232474 0.00107032)
(-0.00175129 0.00205181 0.00107032)
(-0.00208098 0.00171652 0.00107032)
(-0.00234743 0.00132909 0.00107032)
(-0.00254257 0.000901269 0.00107032)
(-0.00266044 0.000446066 0.00107032)
(-0.00269748 -2.26917e-05 0.00107032)
(-0.00265256 -0.000490761 0.00107032)
(-0.00252705 -0.000943916 0.00107032)
(-0.00232474 -0.00136839 0.00107032)
(-0.00205181 -0.00175129 0.00107032)
(-0.00171652 -0.00208098 0.00107032)
(-0.00132909 -0.00234743 0.00107032)
(-0.000901269 -0.00254257 0.00107032)
(-0.000446065 -0.00266044 0.00107032)
(2.26918e-05 -0.00269748 0.00107032)
(0.000490761 -0.00265256 0.00107032)
(0.000943916 -0.00252705 0.00107032)
(0.00136839 -0.00232474 0.00107032)
(0.00175129 -0.00205181 0.00107032)
(0.00208098 -0.00171652 0.00107032)
(0.00234743 -0.00132909 0.00107032)
(0.00254257 -0.000901269 0.00107032)
(0.00266044 -0.000446066 0.00107032)
(0.00269748 2.26917e-05 0.00107032)
(0.00265256 0.000490761 0.00107032)
(0.00252705 0.000943916 0.00107032)
(0.00232474 0.00136839 0.00107032)
(0.00205181 0.00175129 0.00107032)
(0.00171652 0.00208098 0.00107032)
(0.00132909 0.00234743 0.00107032)
(0.00090127 0.00254257 0.00107032)
(0.000446066 0.00266044 0.00107032)
(-0.000163413 0.00267021 0.00113785)
(-0.000624607 0.00260127 0.00113785)
(-0.00106682 0.00245329 0.00113785)
(-0.00147663 0.00223077 0.00113785)
(-0.00184156 0.00194046 0.00113785)
(-0.00215054 0.0015912 0.00113785)
(-0.00239418 0.00119359 0.00113785)
(-0.00256507 0.00075971 0.00113785)
(-0.00265802 0.000302747 0.00113785)
(-0.00267021 -0.000163413 0.00113785)
(-0.00260127 -0.000624608 0.00113785)
(-0.00245329 -0.00106682 0.00113785)
(-0.00223077 -0.00147663 0.00113785)
(-0.00194046 -0.00184156 0.00113785)
(-0.0015912 -0.00215054 0.00113785)
(-0.00119359 -0.00239418 0.00113785)
(-0.00075971 -0.00256507 0.00113785)
(-0.000302747 -0.00265802 0.00113785)
(0.000163414 -0.00267021 0.00113785)
(0.000624608 -0.00260127 0.00113785)
(0.00106682 -0.00245329 0.00113785)
(0.00147663 -0.00223077 0.00113785)
(0.00184156 -0.00194046 0.00113785)
(0.00215054 -0.0015912 0.00113785)
(0.00239418 -0.00119359 0.00113785)
(0.00256507 -0.00075971 0.00113785)
(0.00265802 -0.000302747 0.00113785)
(0.00267021 0.000163413 0.00113785)
(0.00260127 0.000624608 0.00113785)
(0.00245329 0.00106682 0.00113785)
(0.00223077 0.00147663 0.00113785)
(0.00194046 0.00184156 0.00113785)
(0.0015912 0.00215054 0.00113785)
(0.00119359 0.00239418 0.00113785)
(0.00075971 0.00256507 0.00113785)
(0.000302747 0.00265802 0.00113785)
(-0.000314478 0.00264038 0.00119819)
(-0.000768196 0.00254566 0.00119819)
(-0.00119858 0.00237359 0.00119819)
(-0.00159254 0.0021294 0.00119819)
(-0.00193811 0.00182051 0.00119819)
(-0.00222479 0.0014563 0.00119819)
(-0.00244388 0.00104785 0.00119819)
(-0.0025887 0.000607553 0.00119819)
(-0.00265488 0.000148798 0.00119819)
(-0.00264038 -0.000314478 0.00119819)
(-0.00254566 -0.000768196 0.00119819)
(-0.00237359 -0.00119858 0.00119819)
(-0.0021294 -0.00159254 0.00119819)
(-0.00182051 -0.00193811 0.00119819)
(-0.0014563 -0.00222479 0.00119819)
(-0.00104785 -0.00244388 0.00119819)
(-0.000607553 -0.0025887 0.00119819)
(-0.000148798 -0.00265488 0.00119819)
(0.000314478 -0.00264038 0.00119819)
(0.000768196 -0.00254566 0.00119819)
(0.00119858 -0.00237359 0.00119819)
(0.00159254 -0.0021294 0.00119819)
(0.00193811 -0.00182051 0.00119819)
(0.00222479 -0.0014563 0.00119819)
(0.00244388 -0.00104785 0.00119819)
(0.0025887 -0.000607553 0.00119819)
(0.00265488 -0.000148798 0.00119819)
(0.00264038 0.000314478 0.00119819)
(0.00254566 0.000768196 0.00119819)
(0.00237359 0.00119858 0.00119819)
(0.0021294 0.00159254 0.00119819)
(0.00182051 0.00193811 0.00119819)
(0.0014563 0.00222479 0.00119819)
(0.00104785 0.00244388 0.00119819)
(0.000607554 0.0025887 0.00119819)
(0.000148798 0.00265488 0.00119819)
(-0.000470112 0.00259677 0.00124894)
(-0.000913896 0.00247569 0.00124894)
(-0.00132991 0.00227938 0.00124894)
(-0.00170551 0.00201381 0.00124894)
(-0.0020293 0.00168706 0.00124894)
(-0.00229142 0.00130905 0.00124894)
(-0.00248392 0.000891258 0.00124894)
(-0.00260095 0.000446387 0.00124894)
(-0.00263895 -1.20465e-05 0.00124894)
(-0.00259677 -0.000470112 0.00124894)
(-0.00247569 -0.000913896 0.00124894)
(-0.00227938 -0.00132991 0.00124894)
(-0.00201381 -0.00170551 0.00124894)
(-0.00168706 -0.0020293 0.00124894)
(-0.00130905 -0.00229142 0.00124894)
(-0.000891258 -0.00248392 0.00124894)
(-0.000446386 -0.00260095 0.00124894)
(1.20466e-05 -0.00263895 0.00124894)
(0.000470112 -0.00259677 0.00124894)
(0.000913896 -0.00247569 0.00124894)
(0.00132991 -0.00227938 0.00124894)
(0.00170551 -0.00201381 0.00124894)
(0.0020293 -0.00168706 0.00124894)
(0.00229142 -0.00130905 0.00124894)
(0.00248392 -0.000891258 0.00124894)
(0.00260095 -0.000446387 0.00124894)
(0.00263895 1.20465e-05 0.00124894)
(0.00259677 0.000470112 0.00124894)
(0.00247569 0.000913896 0.00124894)
(0.00227938 0.00132991 0.00124894)
(0.00201381 0.00170551 0.00124894)
(0.00168706 0.0020293 0.00124894)
(0.00130905 0.00229142 0.00124894)
(0.000891258 0.00248392 0.00124894)
(0.000446387 0.00260095 0.00124894)
(-1.20463e-05 0.00263895 0.00124894)
(-0.000192872 0.0031241 0.00139673)
(-0.000732436 0.00304315 0.00139673)
(-0.00124975 0.00286973 0.00139673)
(-0.00172908 0.00260911 0.00139673)
(-0.00215588 0.00226922 0.00139673)
(-0.00251717 0.00186038 0.00139673)
(-0.00280198 0.00139502 0.00139673)
(-0.00300166 0.000887264 0.00139673)
(-0.00311013 0.000352552 0.00139673)
(-0.0031241 -0.000192872 0.00139673)
(-0.00304315 -0.000732437 0.00139673)
(-0.00286973 -0.00124975 0.00139673)
(-0.00260911 -0.00172908 0.00139673)
(-0.00226922 -0.00215588 0.00139673)
(-0.00186038 -0.00251717 0.00139673)
(-0.00139502 -0.00280198 0.00139673)
(-0.000887264 -0.00300166 0.00139673)
(-0.000352551 -0.00311013 0.00139673)
(0.000192872 -0.0031241 0.00139673)
(0.000732437 -0.00304315 0.00139673)
(0.00124975 -0.00286973 0.00139673)
(0.00172908 -0.00260911 0.00139673)
(0.00215588 -0.00226922 0.00139673)