/*--------------------------------*- C++ -*----------------------------------*\
| =========                 |                                                 |
| \\      /  F ield         | OpenFOAM: The Open Source CFD Toolbox           |
|  \\    /   O peration     | Version:  2312                                  |
|   \\  /    A nd           | Website:  www.openfoam.com                      |
|    \\/     M anipulation  |                                                 |
\*---------------------------------------------------------------------------*/
FoamFile
{
    version     2.0;
    format      ascii;
    arch        "LSB;label=32;scalar=64";
    class       volVectorField;
    location    "0.9";
    object      D;
}
// * * * * * * * * * * * * * * * * * * * * * * * * * * * * * * * * * * * * * //

dimensions      [0 1 0 0 0 0 0];

internalField   nonuniform List<vector> 
3240
(
(-0.000568569 0.0001746 -0.000109148)
(-0.000581622 0.000124383 -0.000109147)
(-0.000590248 7.32167e-05 -0.00010915)
(-0.000594382 2.14918e-05 -0.000109151)
(-0.000593996 -3.03953e-05 -0.000109151)
(-0.000589087 -8.20498e-05 -0.000109149)
(-0.000579694 -0.000133078 -0.000109146)
(-0.00056589 -0.000183093 -0.000109146)
(-0.00054778 -0.000231715 -0.000109147)
(-0.0005255 -0.000278575 -0.000109149)
(-0.00049922 -0.000323316 -0.00010915)
(-0.000469141 -0.000365598 -0.000109151)
(-0.000435492 -0.000405097 -0.00010915)
(-0.000398529 -0.000441511 -0.000109148)
(-0.000358533 -0.000474561 -0.000109146)
(-0.000315808 -0.000504004 -0.000109148)
(-0.000270678 -0.000529612 -0.000109151)
(-0.00022349 -0.000551188 -0.000109149)
(-0.0001746 -0.000568569 -0.000109148)
(-0.000124383 -0.000581622 -0.000109147)
(-7.32167e-05 -0.000590248 -0.00010915)
(-2.14918e-05 -0.000594382 -0.000109151)
(3.03953e-05 -0.000593996 -0.000109151)
(8.20498e-05 -0.000589087 -0.000109149)
(0.000133078 -0.000579694 -0.000109146)
(0.000183093 -0.00056589 -0.000109146)
(0.000231715 -0.00054778 -0.000109147)
(0.000278575 -0.0005255 -0.000109149)
(0.000323316 -0.00049922 -0.00010915)
(0.000365598 -0.000469141 -0.000109151)
(0.000405097 -0.000435492 -0.00010915)
(0.000441511 -0.000398529 -0.000109148)
(0.000474561 -0.000358533 -0.000109146)
(0.000504004 -0.000315808 -0.000109148)
(0.000529612 -0.000270678 -0.000109151)
(0.000551188 -0.00022349 -0.000109149)
(0.000568569 -0.0001746 -0.000109148)
(0.000581622 -0.000124383 -0.000109147)
(0.000590248 -7.32166e-05 -0.00010915)
(0.000594382 -2.14918e-05 -0.000109151)
(0.000593996 3.03953e-05 -0.000109151)
(0.000589087 8.20498e-05 -0.000109149)
(0.000579694 0.000133078 -0.000109146)
(0.00056589 0.000183093 -0.000109146)
(0.00054778 0.000231715 -0.000109147)
(0.0005255 0.000278575 -0.000109149)
(0.00049922 0.000323316 -0.00010915)
(0.000469141 0.000365598 -0.000109151)
(0.000435492 0.000405097 -0.00010915)
(0.000398529 0.000441511 -0.000109148)
(0.000358533 0.000474561 -0.000109146)
(0.000315808 0.000504004 -0.000109148)
(0.000270678 0.000529612 -0.000109151)
(0.00022349 0.000551188 -0.000109149)
(0.0001746 0.000568569 -0.000109148)
(0.000124383 0.000581622 -0.000109147)
(7.32167e-05 0.000590248 -0.00010915)
(2.14918e-05 0.000594382 -0.000109151)
(-3.03953e-05 0.000593996 -0.000109151)
(-8.20498e-05 0.000589087 -0.000109149)
(-0.000133078 0.000579694 -0.000109146)
(-0.000183093 0.00056589 -0.000109146)
(-0.000231715 0.00054778 -0.000109147)
(-0.000278575 0.0005255 -0.000109149)
(-0.000323316 0.00049922 -0.00010915)
(-0.000365598 0.000469141 -0.000109151)
(-0.000405097 0.000435492 -0.00010915)
(-0.000441511 0.000398529 -0.000109148)
(-0.000474561 0.000358533 -0.000109146)
(-0.000504004 0.000315808 -0.000109148)
(-0.000529612 0.000270678 -0.000109151)
(-0.000551188 0.00022349 -0.000109149)
(-0.000532749 8.55282e-05 -0.000116958)
(-0.000538176 3.87711e-05 -0.000116958)
(-0.000539507 -8.28233e-06 -0.000116959)
(-0.000536732 -5.52732e-05 -0.000116958)
(-0.000529872 -0.000101843 -0.000116959)
(-0.00051898 -0.000147637 -0.000116959)
(-0.000504137 -0.000192307 -0.000116958)
(-0.000485458 -0.000235511 -0.000116957)
(-0.000463086 -0.000276924 -0.000116958)
(-0.000437189 -0.000316231 -0.000116959)
(-0.000407964 -0.000353131 -0.000116959)
(-0.000375634 -0.000387345 -0.000116958)
(-0.000340445 -0.000418611 -0.000116958)
(-0.000302665 -0.00044669 -0.000116958)
(-0.000262582 -0.000471368 -0.000116958)
(-0.0002205 -0.000492459 -0.000116958)
(-0.00017674 -0.000509803 -0.000116959)
(-0.000131635 -0.000523267 -0.000116958)
(-8.55281e-05 -0.000532749 -0.000116958)
(-3.87711e-05 -0.000538176 -0.000116958)
(8.28233e-06 -0.000539507 -0.000116959)
(5.52732e-05 -0.000536732 -0.000116958)
(0.000101843 -0.000529872 -0.000116959)
(0.000147637 -0.00051898 -0.000116959)
(0.000192307 -0.000504137 -0.000116958)
(0.000235511 -0.000485458 -0.000116957)
(0.000276924 -0.000463086 -0.000116958)
(0.000316231 -0.000437189 -0.000116959)
(0.000353131 -0.000407964 -0.000116959)
(0.000387345 -0.000375634 -0.000116958)
(0.000418611 -0.000340445 -0.000116958)
(0.00044669 -0.000302665 -0.000116958)
(0.000471368 -0.000262582 -0.000116958)
(0.000492459 -0.0002205 -0.000116958)
(0.000509803 -0.00017674 -0.000116959)
(0.000523267 -0.000131635 -0.000116958)
(0.000532749 -8.55281e-05 -0.000116958)
(0.000538176 -3.87711e-05 -0.000116958)
(0.000539507 8.28234e-06 -0.000116959)
(0.000536732 5.52732e-05 -0.000116958)
(0.000529872 0.000101843 -0.000116959)
(0.00051898 0.000147637 -0.000116959)
(0.000504137 0.000192307 -0.000116958)
(0.000485458 0.000235511 -0.000116957)
(0.000463086 0.000276924 -0.000116958)
(0.000437189 0.000316231 -0.000116959)
(0.000407964 0.000353131 -0.000116959)
(0.000375634 0.000387345 -0.000116958)
(0.000340445 0.000418611 -0.000116958)
(0.000302665 0.00044669 -0.000116958)
(0.000262582 0.000471368 -0.000116958)
(0.0002205 0.000492459 -0.000116958)
(0.00017674 0.000509803 -0.000116959)
(0.000131635 0.000523267 -0.000116958)
(8.55282e-05 0.000532749 -0.000116958)
(3.87711e-05 0.000538176 -0.000116958)
(-8.28233e-06 0.000539507 -0.000116959)
(-5.52732e-05 0.000536732 -0.000116958)
(-0.000101843 0.000529872 -0.000116959)
(-0.000147637 0.00051898 -0.000116959)
(-0.000192307 0.000504137 -0.000116958)
(-0.000235511 0.000485458 -0.000116957)
(-0.000276924 0.000463086 -0.000116958)
(-0.000316231 0.000437189 -0.000116959)
(-0.000353131 0.000407964 -0.000116959)
(-0.000387345 0.000375634 -0.000116958)
(-0.000418611 0.000340445 -0.000116958)
(-0.00044669 0.000302665 -0.000116958)
(-0.000471368 0.000262582 -0.000116958)
(-0.000492459 0.0002205 -0.000116958)
(-0.000509803 0.00017674 -0.000116959)
(-0.000523267 0.000131635 -0.000116958)
(-0.000493714 0.000209123 -8.88599e-05)
(-0.000510061 0.000165298 -8.88597e-05)
(-0.000522527 0.000120213 -8.8859e-05)
(-0.000531016 7.4214e-05 -8.8859e-05)
(-0.000535465 2.76503e-05 -8.88598e-05)
(-0.000535836 -1.91232e-05 -8.88604e-05)
(-0.000532129 -6.5752e-05 -8.88606e-05)
(-0.000524374 -0.000111879 -8.88616e-05)
(-0.000512629 -0.000157154 -8.88615e-05)
(-0.000496983 -0.000201234 -8.88618e-05)
(-0.000477553 -0.000243784 -8.88605e-05)
(-0.000454489 -0.000284478 -8.88594e-05)
(-0.000427965 -0.000323008 -8.88583e-05)
(-0.000398185 -0.00035908 -8.88592e-05)
(-0.000365373 -0.000392416 -8.88603e-05)
(-0.000329782 -0.000422766 -8.88606e-05)
(-0.000291679 -0.000449899 -8.88599e-05)
(-0.000251358 -0.000473609 -8.88597e-05)
(-0.000209123 -0.000493714 -8.88599e-05)
(-0.000165298 -0.000510061 -8.88597e-05)
(-0.000120213 -0.000522527 -8.8859e-05)
(-7.4214e-05 -0.000531016 -8.8859e-05)
(-2.76503e-05 -0.000535465 -8.88598e-05)
(1.91232e-05 -0.000535836 -8.88604e-05)
(6.5752e-05 -0.000532128 -8.88606e-05)
(0.000111879 -0.000524374 -8.88616e-05)
(0.000157154 -0.000512629 -8.88615e-05)
(0.000201234 -0.000496983 -8.88618e-05)
(0.000243784 -0.000477553 -8.88605e-05)
(0.000284478 -0.000454489 -8.88594e-05)
(0.000323008 -0.000427965 -8.88583e-05)
(0.00035908 -0.000398185 -8.88591e-05)
(0.000392416 -0.000365373 -8.88603e-05)
(0.000422766 -0.000329782 -8.88605e-05)
(0.000449899 -0.000291679 -8.88598e-05)
(0.000473609 -0.000251358 -8.88596e-05)
(0.000493714 -0.000209123 -8.88599e-05)
(0.000510061 -0.000165298 -8.88597e-05)
(0.000522527 -0.000120213 -8.8859e-05)
(0.000531016 -7.4214e-05 -8.8859e-05)
(0.000535465 -2.76503e-05 -8.88598e-05)
(0.000535836 1.91232e-05 -8.88604e-05)
(0.000532129 6.5752e-05 -8.88606e-05)
(0.000524374 0.000111879 -8.88616e-05)
(0.000512629 0.000157154 -8.88615e-05)
(0.000496983 0.000201234 -8.88618e-05)
(0.000477553 0.000243784 -8.88605e-05)
(0.000454489 0.000284478 -8.88594e-05)
(0.000427965 0.000323008 -8.88583e-05)
(0.000398185 0.00035908 -8.88591e-05)
(0.000365373 0.000392416 -8.88602e-05)
(0.000329782 0.000422766 -8.88605e-05)
(0.000291679 0.000449899 -8.88598e-05)
(0.000251358 0.000473609 -8.88596e-05)
(0.000209123 0.000493714 -8.88599e-05)
(0.000165298 0.000510061 -8.88597e-05)
(0.000120213 0.000522527 -8.8859e-05)
(7.4214e-05 0.000531016 -8.8859e-05)
(2.76503e-05 0.000535465 -8.88598e-05)
(-1.91232e-05 0.000535836 -8.88604e-05)
(-6.5752e-05 0.000532128 -8.88606e-05)
(-0.000111879 0.000524374 -8.88616e-05)
(-0.000157154 0.000512629 -8.88615e-05)
(-0.000201234 0.000496983 -8.88619e-05)
(-0.000243784 0.000477553 -8.88605e-05)
(-0.000284478 0.000454489 -8.88594e-05)
(-0.000323008 0.000427965 -8.88583e-05)
(-0.00035908 0.000398185 -8.88592e-05)
(-0.000392416 0.000365373 -8.88603e-05)
(-0.000422766 0.000329782 -8.88605e-05)
(-0.000449899 0.000291679 -8.88599e-05)
(-0.000473609 0.000251358 -8.88596e-05)
(-0.00146169 0.000427589 -0.000329708)
(-0.00149339 0.000298569 -0.000329707)
(-0.00151373 0.000167273 -0.000329712)
(-0.00152255 3.47026e-05 -0.000329714)
(-0.00151978 -9.81312e-05 -0.000329714)
(-0.00150545 -0.000230216 -0.00032971)
(-0.00147966 -0.000360547 -0.000329704)
(-0.0014426 -0.000488132 -0.000329701)
(-0.00139457 -0.000612002 -0.000329699)
(-0.00133593 -0.000731214 -0.000329702)
(-0.00126711 -0.000844866 -0.000329708)
(-0.00118865 -0.00095209 -0.000329712)
(-0.00110115 -0.00105207 -0.000329711)
(-0.00100527 -0.00114404 -0.000329708)
(-0.000901732 -0.0012273 -0.000329706)
(-0.000791334 -0.00130121 -0.000329707)
(-0.000674913 -0.00136523 -0.000329712)
(-0.000553356 -0.00141886 -0.000329711)
(-0.000427589 -0.00146169 -0.000329708)
(-0.000298568 -0.00149339 -0.000329707)
(-0.000167273 -0.00151373 -0.000329712)
(-3.47026e-05 -0.00152255 -0.000329714)
(9.81313e-05 -0.00151978 -0.000329714)
(0.000230216 -0.00150545 -0.00032971)
(0.000360547 -0.00147966 -0.000329704)
(0.000488132 -0.0014426 -0.000329701)
(0.000612001 -0.00139457 -0.000329699)
(0.000731214 -0.00133593 -0.000329702)
(0.000844866 -0.00126711 -0.000329708)
(0.00095209 -0.00118865 -0.000329712)
(0.00105207 -0.00110115 -0.000329711)
(0.00114404 -0.00100527 -0.000329708)
(0.0012273 -0.000901732 -0.000329706)
(0.00130121 -0.000791334 -0.000329706)
(0.00136523 -0.000674913 -0.000329712)
(0.00141886 -0.000553356 -0.000329711)
(0.00146169 -0.000427589 -0.000329708)
(0.00149339 -0.000298568 -0.000329707)
(0.00151373 -0.000167273 -0.000329712)
(0.00152255 -3.47026e-05 -0.000329714)
(0.00151978 9.81313e-05 -0.000329714)
(0.00150545 0.000230216 -0.00032971)
(0.00147966 0.000360547 -0.000329704)
(0.0014426 0.000488132 -0.000329701)
(0.00139457 0.000612001 -0.000329699)
(0.00133593 0.000731214 -0.000329702)
(0.00126711 0.000844866 -0.000329708)
(0.00118865 0.00095209 -0.000329712)
(0.00110115 0.00105207 -0.000329711)
(0.00100527 0.00114404 -0.000329708)
(0.000901732 0.0012273 -0.000329706)
(0.000791334 0.00130121 -0.000329706)
(0.000674913 0.00136523 -0.000329712)
(0.000553356 0.00141886 -0.00032971)
(0.000427589 0.00146169 -0.000329708)
(0.000298569 0.00149339 -0.000329707)
(0.000167273 0.00151373 -0.000329712)
(3.47026e-05 0.00152255 -0.000329714)
(-9.81312e-05 0.00151978 -0.000329714)
(-0.000230216 0.00150545 -0.00032971)
(-0.000360547 0.00147966 -0.000329704)
(-0.000488132 0.0014426 -0.000329701)
(-0.000612001 0.00139457 -0.000329699)
(-0.000731214 0.00133593 -0.000329702)
(-0.000844866 0.00126711 -0.000329708)
(-0.00095209 0.00118865 -0.000329712)
(-0.00105207 0.00110115 -0.000329711)
(-0.00114404 0.00100527 -0.000329708)
(-0.0012273 0.000901732 -0.000329706)
(-0.00130121 0.000791334 -0.000329706)
(-0.00136523 0.000674913 -0.000329712)
(-0.00141886 0.000553356 -0.000329711)
(-0.00150356 0.000444482 -0.000247465)
(-0.00153658 0.000311747 -0.000247464)
(-0.0015579 0.000176638 -0.000247465)
(-0.00156737 4.01841e-05 -0.000247465)
(-0.00156491 -9.65749e-05 -0.000247465)
(-0.00155053 -0.000232598 -0.000247464)
(-0.00152436 -0.000366849 -0.000247463)
(-0.00148659 -0.000498307 -0.000247462)
(-0.0014375 -0.000625974 -0.000247461)
(-0.00137748 -0.000748878 -0.000247461)
(-0.00130697 -0.000866084 -0.000247462)
(-0.00122651 -0.000976699 -0.000247463)
(-0.00113671 -0.00107988 -0.000247464)
(-0.00103827 -0.00117484 -0.000247463)
(-0.000931925 -0.00126086 -0.000247463)
(-0.000818487 -0.00133728 -0.000247463)
(-0.00069882 -0.00140353 -0.000247465)
(-0.000573834 -0.0014591 -0.000247464)
(-0.000444482 -0.00150356 -0.000247465)
(-0.000311747 -0.00153658 -0.000247464)
(-0.000176638 -0.0015579 -0.000247465)
(-4.01841e-05 -0.00156737 -0.000247465)
(9.65749e-05 -0.00156491 -0.000247465)
(0.000232598 -0.00155053 -0.000247465)
(0.000366849 -0.00152436 -0.000247463)
(0.000498307 -0.00148659 -0.000247462)
(0.000625973 -0.0014375 -0.000247461)
(0.000748877 -0.00137748 -0.000247461)
(0.000866084 -0.00130697 -0.000247462)
(0.000976699 -0.00122651 -0.000247463)
(0.00107988 -0.00113671 -0.000247463)
(0.00117484 -0.00103827 -0.000247463)
(0.00126086 -0.000931925 -0.000247463)
(0.00133728 -0.000818487 -0.000247463)
(0.00140353 -0.00069882 -0.000247465)
(0.0014591 -0.000573834 -0.000247464)
(0.00150356 -0.000444482 -0.000247465)
(0.00153658 -0.000311747 -0.000247464)
(0.0015579 -0.000176638 -0.000247465)
(0.00156737 -4.01841e-05 -0.000247465)
(0.00156491 9.65749e-05 -0.000247465)
(0.00155053 0.000232598 -0.000247465)
(0.00152436 0.000366849 -0.000247463)
(0.00148659 0.000498307 -0.000247462)
(0.0014375 0.000625973 -0.000247461)
(0.00137748 0.000748877 -0.000247461)
(0.00130697 0.000866084 -0.000247462)
(0.00122651 0.000976699 -0.000247463)
(0.00113671 0.00107988 -0.000247463)
(0.00103827 0.00117484 -0.000247463)
(0.000931925 0.00126086 -0.000247463)
(0.000818487 0.00133728 -0.000247463)
(0.00069882 0.00140353 -0.000247465)
(0.000573834 0.0014591 -0.000247464)
(0.000444482 0.00150356 -0.000247465)
(0.000311747 0.00153658 -0.000247464)
(0.000176638 0.0015579 -0.000247465)
(4.01841e-05 0.00156737 -0.000247465)
(-9.65749e-05 0.00156491 -0.000247465)
(-0.000232598 0.00155053 -0.000247465)
(-0.000366849 0.00152436 -0.000247463)
(-0.000498307 0.00148659 -0.000247462)
(-0.000625974 0.0014375 -0.000247461)
(-0.000748878 0.00137748 -0.000247461)
(-0.000866084 0.00130697 -0.000247462)
(-0.000976699 0.00122651 -0.000247463)
(-0.00107988 0.00113671 -0.000247463)
(-0.00117484 0.00103827 -0.000247463)
(-0.00126086 0.000931925 -0.000247463)
(-0.00133728 0.000818487 -0.000247463)
(-0.00140353 0.00069882 -0.000247465)
(-0.0014591 0.000573834 -0.000247464)
(-0.00156242 0.00070299 -0.00011387)
(-0.00161774 0.000564143 -0.000113869)
(-0.00166075 0.000420999 -0.000113868)
(-0.00169112 0.000274651 -0.000113868)
(-0.00170863 0.000126214 -0.000113868)
(-0.00171312 -2.31824e-05 -0.000113869)
(-0.00170458 -0.000172402 -0.000113871)
(-0.00168307 -0.000320308 -0.000113872)
(-0.00164875 -0.000465777 -0.000113872)
(-0.00160188 -0.000607703 -0.00011387)
(-0.00154283 -0.000745005 -0.000113868)
(-0.00147202 -0.000876638 -0.000113868)
(-0.00139002 -0.0010016 -0.000113868)
(-0.00129743 -0.00111893 -0.000113869)
(-0.00119497 -0.00122775 -0.00011387)
(-0.00108342 -0.00132723 -0.00011387)
(-0.000963622 -0.00141661 -0.000113869)
(-0.000836488 -0.0014952 -0.000113869)
(-0.00070299 -0.00156242 -0.00011387)
(-0.000564143 -0.00161774 -0.000113869)
(-0.000420999 -0.00166075 -0.000113868)
(-0.000274651 -0.00169112 -0.000113868)
(-0.000126214 -0.00170863 -0.000113868)
(2.31824e-05 -0.00171312 -0.000113869)
(0.000172402 -0.00170458 -0.000113871)
(0.000320308 -0.00168307 -0.000113872)
(0.000465777 -0.00164875 -0.000113872)
(0.000607703 -0.00160188 -0.00011387)
(0.000745005 -0.00154283 -0.000113868)
(0.000876638 -0.00147202 -0.000113868)
(0.0010016 -0.00139002 -0.000113868)
(0.00111893 -0.00129743 -0.000113869)
(0.00122775 -0.00119497 -0.000113869)
(0.00132723 -0.00108342 -0.00011387)
(0.00141661 -0.000963622 -0.000113869)
(0.0014952 -0.000836488 -0.000113868)
(0.00156242 -0.00070299 -0.00011387)
(0.00161774 -0.000564143 -0.000113869)
(0.00166075 -0.000420999 -0.000113868)
(0.00169112 -0.000274651 -0.000113868)
(0.00170863 -0.000126214 -0.000113868)
(0.00171312 2.31824e-05 -0.000113869)
(0.00170458 0.000172402 -0.000113871)
(0.00168307 0.000320308 -0.000113872)
(0.00164875 0.000465777 -0.000113872)
(0.00160188 0.000607703 -0.00011387)
(0.00154283 0.000745005 -0.000113868)
(0.00147202 0.000876638 -0.000113868)
(0.00139002 0.0010016 -0.000113868)
(0.00129743 0.00111893 -0.000113869)
(0.00119497 0.00122775 -0.000113869)
(0.00108342 0.00132723 -0.000113869)
(0.000963622 0.00141661 -0.000113869)
(0.000836488 0.0014952 -0.000113868)
(0.00070299 0.00156242 -0.00011387)
(0.000564143 0.00161774 -0.000113869)
(0.000420999 0.00166075 -0.000113868)
(0.000274651 0.00169112 -0.000113868)
(0.000126214 0.00170863 -0.000113868)
(-2.31824e-05 0.00171312 -0.000113869)
(-0.000172402 0.00170458 -0.000113871)
(-0.000320308 0.00168307 -0.000113872)
(-0.000465777 0.00164875 -0.000113872)
(-0.000607703 0.00160188 -0.00011387)
(-0.000745005 0.00154283 -0.000113868)
(-0.000876638 0.00147202 -0.000113868)
(-0.0010016 0.00139002 -0.000113868)
(-0.00111893 0.00129743 -0.000113869)
(-0.00122775 0.00119497 -0.00011387)
(-0.00132723 0.00108342 -0.00011387)
(-0.00141661 0.000963622 -0.000113869)
(-0.0014952 0.000836488 -0.000113868)
(-0.00205402 0.000722664 -0.000549577)
(-0.00210918 0.000540895 -0.000549577)
(-0.0021483 0.000355009 -0.000549579)
(-0.00217107 0.000166421 -0.000549578)
(-0.00217731 -2.34345e-05 -0.000549579)
(-0.00216698 -0.000213111 -0.000549576)
(-0.00214016 -0.000401164 -0.00054957)
(-0.00209705 -0.000586164 -0.00054957)
(-0.00203799 -0.000766704 -0.000549569)
(-0.00196341 -0.000941407 -0.000549569)
(-0.00187389 -0.00110895 -0.000549569)
(-0.00177011 -0.00126804 -0.000549573)
(-0.00165285 -0.0014175 -0.000549573)
(-0.00152302 -0.00155616 -0.000549572)
(-0.0013816 -0.00168298 -0.000549573)
(-0.00122966 -0.00179699 -0.000549572)
(-0.00106836 -0.00189732 -0.000549576)
(-0.000898933 -0.00198322 -0.000549578)
(-0.000722664 -0.00205402 -0.000549577)
(-0.000540895 -0.00210918 -0.000549577)
(-0.000355009 -0.0021483 -0.000549579)
(-0.000166421 -0.00217107 -0.000549578)
(2.34346e-05 -0.00217731 -0.000549579)
(0.000213111 -0.00216698 -0.000549576)
(0.000401164 -0.00214016 -0.00054957)
(0.000586163 -0.00209705 -0.00054957)
(0.000766703 -0.00203799 -0.000549569)
(0.000941407 -0.00196341 -0.000549569)
(0.00110895 -0.00187389 -0.000549569)
(0.00126804 -0.00177011 -0.000549573)
(0.0014175 -0.00165285 -0.000549573)
(0.00155616 -0.00152302 -0.000549572)
(0.00168298 -0.0013816 -0.000549572)
(0.00179699 -0.00122966 -0.000549572)
(0.00189732 -0.00106836 -0.000549576)
(0.00198322 -0.000898933 -0.000549578)
(0.00205402 -0.000722664 -0.000549577)
(0.00210918 -0.000540895 -0.000549577)
(0.0021483 -0.000355009 -0.000549579)
(0.00217107 -0.000166421 -0.000549578)
(0.00217731 2.34346e-05 -0.000549579)
(0.00216698 0.000213111 -0.000549576)
(0.00214016 0.000401164 -0.00054957)
(0.00209705 0.000586163 -0.00054957)
(0.00203799 0.000766703 -0.000549569)
(0.00196341 0.000941407 -0.000549569)
(0.00187389 0.00110895 -0.000549569)
(0.00177011 0.00126804 -0.000549573)
(0.00165285 0.0014175 -0.000549573)
(0.00152302 0.00155616 -0.000549572)
(0.0013816 0.00168298 -0.000549572)
(0.00122966 0.00179699 -0.000549572)
(0.00106836 0.00189732 -0.000549576)
(0.000898933 0.00198322 -0.000549578)
(0.000722664 0.00205402 -0.000549577)
(0.000540895 0.00210918 -0.000549577)
(0.000355009 0.0021483 -0.000549578)
(0.000166421 0.00217107 -0.000549578)
(-2.34345e-05 0.00217731 -0.000549579)
(-0.000213111 0.00216698 -0.000549576)
(-0.000401164 0.00214016 -0.00054957)
(-0.000586163 0.00209705 -0.00054957)
(-0.000766703 0.00203799 -0.000549569)
(-0.000941407 0.00196341 -0.000549569)
(-0.00110895 0.00187389 -0.000549569)
(-0.00126804 0.00177011 -0.000549573)
(-0.0014175 0.00165285 -0.000549573)
(-0.00155616 0.00152302 -0.000549572)
(-0.00168298 0.0013816 -0.000549572)
(-0.00179699 0.00122966 -0.000549572)
(-0.00189732 0.00106836 -0.000549576)
(-0.00198322 0.000898933 -0.000549578)
(-0.00219497 0.000964529 -0.000370622)
(-0.00227068 0.000769555 -0.000370622)
(-0.00232911 0.000568724 -0.000370623)
(-0.00236981 0.000363565 -0.000370623)
(-0.00239248 0.000155638 -0.000370622)
(-0.00239694 -5.34727e-05 -0.000370622)
(-0.00238316 -0.000262175 -0.000370619)
(-0.00235124 -0.000468883 -0.000370619)
(-0.00230143 -0.000672022 -0.000370619)
(-0.0022341 -0.000870047 -0.000370618)
(-0.00214977 -0.00106145 -0.000370619)
(-0.00204908 -0.00124478 -0.00037062)
(-0.00193279 -0.00141863 -0.00037062)
(-0.00180179 -0.00158169 -0.000370619)
(-0.00165708 -0.0017327 -0.00037062)
(-0.00149976 -0.00187053 -0.00037062)
(-0.00133103 -0.00199413 -0.000370621)
(-0.00115216 -0.00210255 -0.000370621)
(-0.000964529 -0.00219497 -0.000370622)
(-0.000769555 -0.00227068 -0.000370622)
(-0.000568724 -0.00232911 -0.000370623)
(-0.000363565 -0.00236981 -0.000370623)
(-0.000155638 -0.00239248 -0.000370622)
(5.34727e-05 -0.00239694 -0.000370622)
(0.000262175 -0.00238316 -0.000370619)
(0.000468883 -0.00235124 -0.000370619)
(0.000672022 -0.00230143 -0.000370619)
(0.000870047 -0.0022341 -0.000370618)
(0.00106145 -0.00214977 -0.000370619)
(0.00124478 -0.00204908 -0.00037062)
(0.00141863 -0.00193279 -0.00037062)
(0.00158169 -0.00180179 -0.000370619)
(0.0017327 -0.00165708 -0.000370619)
(0.00187053 -0.00149976 -0.00037062)
(0.00199413 -0.00133103 -0.000370621)
(0.00210255 -0.00115216 -0.000370621)
(0.00219497 -0.000964529 -0.000370622)
(0.00227068 -0.000769555 -0.000370622)
(0.00232911 -0.000568724 -0.000370622)
(0.00236981 -0.000363565 -0.000370623)
(0.00239248 -0.000155638 -0.000370622)
(0.00239694 5.34727e-05 -0.000370622)
(0.00238316 0.000262175 -0.000370619)
(0.00235124 0.000468883 -0.000370619)
(0.00230143 0.000672022 -0.000370619)
(0.0022341 0.000870047 -0.000370618)
(0.00214977 0.00106145 -0.000370619)
(0.00204908 0.00124478 -0.00037062)
(0.00193279 0.00141863 -0.00037062)
(0.00180179 0.00158169 -0.000370619)
(0.00165708 0.0017327 -0.000370619)
(0.00149976 0.00187053 -0.00037062)
(0.00133103 0.00199413 -0.000370621)
(0.00115216 0.00210255 -0.000370621)
(0.000964529 0.00219497 -0.000370622)
(0.000769555 0.00227068 -0.000370622)
(0.000568724 0.00232911 -0.000370622)
(0.000363565 0.00236981 -0.000370623)
(0.000155638 0.00239248 -0.000370622)
(-5.34727e-05 0.00239694 -0.000370622)
(-0.000262175 0.00238316 -0.000370619)
(-0.000468883 0.00235124 -0.000370619)
(-0.000672022 0.00230143 -0.000370619)
(-0.000870047 0.0022341 -0.000370618)
(-0.00106145 0.00214977 -0.000370619)
(-0.00124478 0.00204908 -0.00037062)
(-0.00141863 0.00193279 -0.00037062)
(-0.00158169 0.00180179 -0.000370619)
(-0.0017327 0.00165708 -0.000370619)
(-0.00187053 0.00149976 -0.00037062)
(-0.00199413 0.00133103 -0.000370621)
(-0.00210255 0.00115216 -0.000370621)
(-0.002381 0.00130698 -0.000205877)
(-0.00248585 0.00109449 -0.000205877)
(-0.00257178 0.000873665 -0.000205876)
(-0.00263814 0.000646194 -0.000205877)
(-0.00268442 0.000413806 -0.000205877)
(-0.00271027 0.00017827 -0.000205877)
(-0.00271549 -5.86231e-05 -0.000205877)
(-0.00270005 -0.00029507 -0.000205877)
(-0.00266406 -0.000529272 -0.000205878)
(-0.00260779 -0.000759446 -0.000205877)
(-0.00253168 -0.000983841 -0.000205877)
(-0.0024363 -0.00120075 -0.000205877)
(-0.00232238 -0.00140852 -0.000205877)
(-0.00219078 -0.00160557 -0.000205877)
(-0.00204251 -0.00179039 -0.000205877)
(-0.00187869 -0.0019616 -0.000205877)
(-0.00170058 -0.00211787 -0.000205877)
(-0.00150952 -0.00225803 -0.000205877)
(-0.00130698 -0.002381 -0.000205877)
(-0.00109449 -0.00248585 -0.000205877)
(-0.000873665 -0.00257178 -0.000205876)
(-0.000646194 -0.00263814 -0.000205877)
(-0.000413806 -0.00268442 -0.000205877)
(-0.00017827 -0.00271027 -0.000205877)
(5.86231e-05 -0.00271549 -0.000205877)
(0.00029507 -0.00270005 -0.000205877)
(0.000529272 -0.00266406 -0.000205878)
(0.000759446 -0.00260779 -0.000205877)
(0.000983841 -0.00253168 -0.000205877)
(0.00120075 -0.0024363 -0.000205877)
(0.00140852 -0.00232238 -0.000205877)
(0.00160557 -0.00219078 -0.000205877)
(0.00179039 -0.00204251 -0.000205877)
(0.0019616 -0.00187869 -0.000205877)
(0.00211787 -0.00170058 -0.000205877)
(0.00225803 -0.00150952 -0.000205876)
(0.002381 -0.00130698 -0.000205877)
(0.00248585 -0.00109449 -0.000205876)
(0.00257178 -0.000873665 -0.000205876)
(0.00263814 -0.000646194 -0.000205877)
(0.00268442 -0.000413806 -0.000205877)
(0.00271027 -0.00017827 -0.000205877)
(0.00271549 5.86231e-05 -0.000205877)
(0.00270005 0.00029507 -0.000205877)
(0.00266406 0.000529272 -0.000205878)
(0.00260779 0.000759446 -0.000205877)
(0.00253168 0.000983841 -0.000205877)
(0.0024363 0.00120075 -0.000205877)
(0.00232238 0.00140852 -0.000205877)
(0.00219078 0.00160557 -0.000205877)
(0.00204251 0.00179039 -0.000205877)
(0.00187869 0.0019616 -0.000205877)
(0.00170058 0.00211787 -0.000205876)
(0.00150952 0.00225803 -0.000205876)
(0.00130698 0.002381 -0.000205877)
(0.00109449 0.00248585 -0.000205876)
(0.000873665 0.00257178 -0.000205876)
(0.000646194 0.00263814 -0.000205877)
(0.000413806 0.00268442 -0.000205877)
(0.00017827 0.00271027 -0.000205877)
(-5.86231e-05 0.00271549 -0.000205877)
(-0.00029507 0.00270005 -0.000205877)
(-0.000529272 0.00266406 -0.000205878)
(-0.000759446 0.00260779 -0.000205877)
(-0.000983841 0.00253168 -0.000205877)
(-0.00120075 0.0024363 -0.000205877)
(-0.00140852 0.00232238 -0.000205877)
(-0.00160557 0.00219078 -0.000205877)
(-0.00179039 0.00204251 -0.000205877)
(-0.0019616 0.00187869 -0.000205877)
(-0.00211787 0.00170058 -0.000205877)
(-0.00225803 0.00150952 -0.000205876)
(-0.00228261 0.00119817 -0.000797123)
(-0.00237835 0.000994666 -0.000797125)
(-0.00245599 0.000783595 -0.000797128)
(-0.00251494 0.000566559 -0.000797128)
(-0.00255475 0.000345211 -0.000797127)
(-0.00257511 0.000121235 -0.000797126)
(-0.00257588 -0.000103661 -0.000797121)
(-0.00255704 -0.00032777 -0.00079712)
(-0.00251875 -0.000549383 -0.000797121)
(-0.00246128 -0.000766817 -0.000797124)
(-0.00238508 -0.000978414 -0.000797122)
(-0.00229073 -0.00118256 -0.000797122)
(-0.00217895 -0.00137771 -0.000797121)
(-0.00205058 -0.00156238 -0.000797121)
(-0.00190661 -0.00173515 -0.000797121)
(-0.00174812 -0.00189472 -0.000797121)
(-0.00157633 -0.00203987 -0.000797123)
(-0.00139255 -0.0021695 -0.000797124)
(-0.00119817 -0.00228261 -0.000797123)
(-0.000994666 -0.00237835 -0.000797125)
(-0.000783595 -0.00245599 -0.000797128)
(-0.000566559 -0.00251494 -0.000797128)
(-0.00034521 -0.00255475 -0.000797127)
(-0.000121235 -0.00257511 -0.000797126)
(0.000103661 -0.00257588 -0.000797121)
(0.00032777 -0.00255704 -0.00079712)
(0.000549383 -0.00251875 -0.000797121)
(0.000766817 -0.00246128 -0.000797124)
(0.000978414 -0.00238508 -0.000797123)
(0.00118256 -0.00229073 -0.000797122)
(0.00137771 -0.00217895 -0.000797121)
(0.00156238 -0.00205058 -0.000797121)
(0.00173515 -0.00190661 -0.000797121)
(0.00189472 -0.00174812 -0.000797121)
(0.00203987 -0.00157633 -0.000797123)
(0.0021695 -0.00139255 -0.000797124)
(0.00228261 -0.00119817 -0.000797123)
(0.00237835 -0.000994666 -0.000797125)
(0.00245599 -0.000783595 -0.000797128)
(0.00251494 -0.000566559 -0.000797127)
(0.00255475 -0.000345211 -0.000797127)
(0.00257511 -0.000121235 -0.000797125)
(0.00257588 0.000103661 -0.000797121)
(0.00255704 0.00032777 -0.00079712)
(0.00251875 0.000549383 -0.000797121)
(0.00246128 0.000766817 -0.000797124)
(0.00238508 0.000978414 -0.000797122)
(0.00229073 0.00118256 -0.000797122)
(0.00217895 0.00137771 -0.000797121)
(0.00205058 0.00156238 -0.000797121)
(0.00190661 0.00173515 -0.000797121)
(0.00174812 0.00189472 -0.000797121)
(0.00157633 0.00203987 -0.000797123)
(0.00139255 0.0021695 -0.000797124)
(0.00119817 0.00228261 -0.000797123)
(0.000994666 0.00237835 -0.000797125)
(0.000783595 0.00245599 -0.000797128)
(0.000566559 0.00251494 -0.000797127)
(0.000345211 0.00255475 -0.000797127)
(0.000121235 0.00257511 -0.000797126)
(-0.000103661 0.00257588 -0.000797121)
(-0.00032777 0.00255704 -0.00079712)
(-0.000549383 0.00251875 -0.000797121)
(-0.000766817 0.00246128 -0.000797124)
(-0.000978414 0.00238508 -0.000797123)
(-0.00118256 0.00229073 -0.000797122)
(-0.00137771 0.00217895 -0.000797121)
(-0.00156238 0.00205058 -0.000797121)
(-0.00173515 0.00190661 -0.000797121)
(-0.00189472 0.00174812 -0.000797121)
(-0.00203987 0.00157633 -0.000797123)
(-0.0021695 0.00139255 -0.000797124)
(-0.00249122 0.00158771 -0.000586945)
(-0.00262011 0.00136454 -0.000586946)
(-0.00272907 0.00113099 -0.000586947)
(-0.00281726 0.000888832 -0.000586948)
(-0.002884 0.000639909 -0.000586948)
(-0.0029288 0.000386116 -0.000586946)
(-0.00295131 0.000129384 -0.000586944)
(-0.00295135 -0.000128331 -0.000586943)
(-0.00292894 -0.000385069 -0.000586943)
(-0.00288423 -0.000638878 -0.000586944)
(-0.00281757 -0.000887824 -0.000586944)
(-0.00272947 -0.00113001 -0.000586944)
(-0.0026206 -0.0013636 -0.000586944)
(-0.00249178 -0.00158681 -0.000586943)
(-0.002344 -0.00179795 -0.000586943)
(-0.00217838 -0.0019954 -0.000586944)
(-0.00199618 -0.00217767 -0.000586945)
(-0.00179879 -0.00234336 -0.000586945)
(-0.00158771 -0.00249122 -0.000586945)
(-0.00136454 -0.00262011 -0.000586946)
(-0.00113099 -0.00272907 -0.000586947)
(-0.000888832 -0.00281726 -0.000586948)
(-0.000639909 -0.002884 -0.000586948)
(-0.000386116 -0.0029288 -0.000586946)
(-0.000129384 -0.00295131 -0.000586944)
(0.000128331 -0.00295135 -0.000586943)
(0.000385069 -0.00292894 -0.000586943)
(0.000638877 -0.00288423 -0.000586944)
(0.000887824 -0.00281757 -0.000586945)
(0.00113001 -0.00272947 -0.000586945)