/*--------------------------------*- C++ -*----------------------------------*\
| =========                 |                                                 |
| \\      /  F ield         | OpenFOAM: The Open Source CFD Toolbox           |
|  \\    /   O peration     | Version:  2312                                  |
|   \\  /    A nd           | Website:  www.openfoam.com                      |
|    \\/     M anipulation  |                                                 |
\*---------------------------------------------------------------------------*/
FoamFile
{
    version     2.0;
    format      ascii;
    arch        "LSB;label=32;scalar=64";
    class       volVectorField;
    location    "0.9";
    object      D_0_0_0;
}
// * * * * * * * * * * * * * * * * * * * * * * * * * * * * * * * * * * * * * //

dimensions      [0 1 0 0 0 0 0];

internalField   nonuniform List<vector> 
3240
(
(-0.000555116 0.000170468 -0.000110814)
(-0.00056786 0.00012144 -0.000110812)
(-0.000576282 7.1484e-05 -0.000110815)
(-0.000580319 2.0983e-05 -0.000110816)
(-0.000579942 -2.96763e-05 -0.000110816)
(-0.000575148 -8.01086e-05 -0.000110814)
(-0.000565978 -0.000129929 -0.000110811)
(-0.0005525 -0.000178761 -0.000110811)
(-0.000534819 -0.000226233 -0.000110812)
(-0.000513066 -0.000271984 -0.000110814)
(-0.000487408 -0.000315666 -0.000110815)
(-0.00045804 -0.000356947 -0.000110816)
(-0.000425188 -0.000395512 -0.000110815)
(-0.000389099 -0.000431065 -0.000110813)
(-0.000350049 -0.000463333 -0.000110811)
(-0.000308335 -0.000492078 -0.000110813)
(-0.000264273 -0.000517081 -0.000110816)
(-0.000218201 -0.000538146 -0.000110814)
(-0.000170468 -0.000555116 -0.000110814)
(-0.00012144 -0.00056786 -0.000110812)
(-7.1484e-05 -0.000576282 -0.000110815)
(-2.0983e-05 -0.000580319 -0.000110816)
(2.96763e-05 -0.000579942 -0.000110816)
(8.01086e-05 -0.000575148 -0.000110814)
(0.000129929 -0.000565978 -0.000110811)
(0.000178761 -0.0005525 -0.000110811)
(0.000226233 -0.000534819 -0.000110812)
(0.000271984 -0.000513066 -0.000110814)
(0.000315666 -0.000487408 -0.000110815)
(0.000356947 -0.00045804 -0.000110816)
(0.000395512 -0.000425188 -0.000110815)
(0.000431065 -0.000389099 -0.000110813)
(0.000463333 -0.000350049 -0.000110811)
(0.000492078 -0.000308335 -0.000110813)
(0.000517081 -0.000264273 -0.000110816)
(0.000538146 -0.000218201 -0.000110814)
(0.000555116 -0.000170468 -0.000110814)
(0.00056786 -0.00012144 -0.000110812)
(0.000576282 -7.14839e-05 -0.000110815)
(0.000580319 -2.0983e-05 -0.000110816)
(0.000579942 2.96763e-05 -0.000110816)
(0.000575148 8.01086e-05 -0.000110814)
(0.000565978 0.000129929 -0.000110811)
(0.0005525 0.000178761 -0.000110811)
(0.000534819 0.000226233 -0.000110812)
(0.000513066 0.000271984 -0.000110814)
(0.000487408 0.000315666 -0.000110815)
(0.00045804 0.000356947 -0.000110816)
(0.000425188 0.000395512 -0.000110815)
(0.000389099 0.000431065 -0.000110813)
(0.000350049 0.000463333 -0.000110811)
(0.000308335 0.000492078 -0.000110813)
(0.000264273 0.000517081 -0.000110816)
(0.000218201 0.000538146 -0.000110814)
(0.000170468 0.000555116 -0.000110814)
(0.00012144 0.00056786 -0.000110812)
(7.1484e-05 0.000576282 -0.000110815)
(2.0983e-05 0.000580319 -0.000110816)
(-2.96763e-05 0.000579942 -0.000110816)
(-8.01086e-05 0.000575148 -0.000110814)
(-0.000129929 0.000565978 -0.000110811)
(-0.000178761 0.0005525 -0.000110811)
(-0.000226233 0.000534819 -0.000110812)
(-0.000271984 0.000513066 -0.000110814)
(-0.000315666 0.000487408 -0.000110815)
(-0.000356948 0.00045804 -0.000110816)
(-0.000395512 0.000425188 -0.000110815)
(-0.000431065 0.000389099 -0.000110813)
(-0.000463333 0.000350049 -0.000110811)
(-0.000492078 0.000308335 -0.000110813)
(-0.000517081 0.000264273 -0.000110816)
(-0.000538146 0.000218201 -0.000110814)
(-0.000515796 9.39351e-05 -0.000115195)
(-0.00052202 4.86236e-05 -0.000115194)
(-0.000524271 2.94082e-06 -0.000115195)
(-0.000522532 -4.27648e-05 -0.000115195)
(-0.000516817 -8.81446e-05 -0.000115195)
(-0.000507168 -0.000132853 -0.000115195)
(-0.000493658 -0.000176549 -0.000115194)
(-0.000476393 -0.000218901 -0.000115193)
(-0.000455503 -0.000259587 -0.000115194)
(-0.000431145 -0.000298299 -0.000115195)
(-0.000403507 -0.000334741 -0.000115195)
(-0.000372797 -0.000368636 -0.000115194)
(-0.000339249 -0.000399726 -0.000115194)
(-0.000303119 -0.000427772 -0.000115194)
(-0.000264683 -0.000452561 -0.000115194)
(-0.000224233 -0.000473908 -0.000115194)
(-0.000182075 -0.000491648 -0.000115195)
(-0.000138532 -0.000505646 -0.000115194)
(-9.39351e-05 -0.000515796 -0.000115194)
(-4.86236e-05 -0.00052202 -0.000115194)
(-2.94082e-06 -0.000524271 -0.000115195)
(4.27648e-05 -0.000522532 -0.000115195)
(8.81445e-05 -0.000516817 -0.000115195)
(0.000132853 -0.000507168 -0.000115195)
(0.000176549 -0.000493658 -0.000115194)
(0.000218901 -0.000476393 -0.000115193)
(0.000259587 -0.000455503 -0.000115194)
(0.000298299 -0.000431145 -0.000115195)
(0.000334741 -0.000403507 -0.000115195)
(0.000368636 -0.000372797 -0.000115194)
(0.000399726 -0.000339249 -0.000115194)
(0.000427772 -0.00030312 -0.000115194)
(0.000452561 -0.000264683 -0.000115194)
(0.000473908 -0.000224233 -0.000115194)
(0.000491648 -0.000182075 -0.000115195)
(0.000505646 -0.000138532 -0.000115194)
(0.000515796 -9.39351e-05 -0.000115194)
(0.00052202 -4.86236e-05 -0.000115194)
(0.000524271 -2.9408e-06 -0.000115195)
(0.000522532 4.27648e-05 -0.000115195)
(0.000516817 8.81446e-05 -0.000115195)
(0.000507168 0.000132853 -0.000115195)
(0.000493658 0.000176549 -0.000115194)
(0.000476393 0.000218901 -0.000115193)
(0.000455503 0.000259587 -0.000115194)
(0.000431145 0.000298299 -0.000115195)
(0.000403507 0.000334741 -0.000115195)
(0.000372797 0.000368636 -0.000115194)
(0.000339249 0.000399726 -0.000115194)
(0.00030312 0.000427772 -0.000115194)
(0.000264683 0.000452561 -0.000115194)
(0.000224233 0.000473908 -0.000115194)
(0.000182075 0.000491648 -0.000115195)
(0.000138532 0.000505646 -0.000115194)
(9.39351e-05 0.000515796 -0.000115195)
(4.86236e-05 0.00052202 -0.000115194)
(2.94079e-06 0.000524271 -0.000115195)
(-4.27648e-05 0.000522532 -0.000115195)
(-8.81446e-05 0.000516817 -0.000115195)
(-0.000132853 0.000507168 -0.000115195)
(-0.000176549 0.000493658 -0.000115194)
(-0.000218901 0.000476393 -0.000115193)
(-0.000259587 0.000455503 -0.000115194)
(-0.000298299 0.000431145 -0.000115195)
(-0.000334741 0.000403507 -0.000115195)
(-0.000368636 0.000372797 -0.000115195)
(-0.000399726 0.000339249 -0.000115194)
(-0.000427772 0.00030312 -0.000115194)
(-0.000452561 0.000264683 -0.000115194)
(-0.000473908 0.000224233 -0.000115194)
(-0.000491648 0.000182075 -0.000115195)
(-0.000505646 0.000138532 -0.000115194)
(-0.000474945 0.000216378 -8.58796e-05)
(-0.000491996 0.000174161 -8.58794e-05)
(-0.000505304 0.000130617 -8.58787e-05)
(-0.000514765 8.60791e-05 -8.58787e-05)
(-0.00052031 4.08867e-05 -8.58794e-05)
(-0.000521892 -4.61625e-06 -8.588e-05)
(-0.000519502 -5.00849e-05 -8.58802e-05)
(-0.00051316 -9.51708e-05 -8.58811e-05)
(-0.000502915 -0.000139532 -8.5881e-05)
(-0.000488841 -0.000182833 -8.58813e-05)
(-0.000471046 -0.000224743 -8.588e-05)
(-0.000449667 -0.000264943 -8.5879e-05)
(-0.000424863 -0.000303127 -8.5878e-05)
(-0.000396828 -0.000339003 -8.58788e-05)
(-0.00036577 -0.000372298 -8.58799e-05)
(-0.000331932 -0.00040276 -8.58801e-05)
(-0.000295564 -0.000430156 -8.58795e-05)
(-0.000256949 -0.000454279 -8.58793e-05)
(-0.000216378 -0.000474945 -8.58795e-05)
(-0.000174161 -0.000491996 -8.58793e-05)
(-0.000130617 -0.000505304 -8.58787e-05)
(-8.60791e-05 -0.000514765 -8.58787e-05)
(-4.08868e-05 -0.00052031 -8.58795e-05)
(4.61622e-06 -0.000521892 -8.588e-05)
(5.00849e-05 -0.000519502 -8.58802e-05)
(9.51707e-05 -0.00051316 -8.58811e-05)
(0.000139532 -0.000502915 -8.5881e-05)
(0.000182833 -0.000488841 -8.58813e-05)
(0.000224743 -0.000471046 -8.588e-05)
(0.000264943 -0.000449667 -8.5879e-05)
(0.000303127 -0.000424863 -8.5878e-05)
(0.000339003 -0.000396828 -8.58788e-05)
(0.000372298 -0.00036577 -8.58799e-05)
(0.00040276 -0.000331932 -8.58801e-05)
(0.000430156 -0.000295564 -8.58794e-05)
(0.000454279 -0.000256949 -8.58793e-05)
(0.000474945 -0.000216378 -8.58795e-05)
(0.000491996 -0.000174161 -8.58793e-05)
(0.000505304 -0.000130617 -8.58787e-05)
(0.000514765 -8.60791e-05 -8.58787e-05)
(0.00052031 -4.08867e-05 -8.58795e-05)
(0.000521892 4.61623e-06 -8.58801e-05)
(0.000519502 5.00849e-05 -8.58802e-05)
(0.00051316 9.51707e-05 -8.58812e-05)
(0.000502915 0.000139532 -8.5881e-05)
(0.000488841 0.000182833 -8.58813e-05)
(0.000471046 0.000224743 -8.58801e-05)
(0.000449667 0.000264943 -8.5879e-05)
(0.000424863 0.000303127 -8.5878e-05)
(0.000396828 0.000339003 -8.58788e-05)
(0.00036577 0.000372298 -8.58799e-05)
(0.000331932 0.00040276 -8.58801e-05)
(0.000295564 0.000430156 -8.58795e-05)
(0.000256949 0.000454279 -8.58793e-05)
(0.000216378 0.000474945 -8.58795e-05)
(0.000174161 0.000491996 -8.58794e-05)
(0.000130617 0.000505304 -8.58787e-05)
(8.60791e-05 0.000514765 -8.58787e-05)
(4.08867e-05 0.00052031 -8.58795e-05)
(-4.61624e-06 0.000521892 -8.58801e-05)
(-5.00849e-05 0.000519502 -8.58803e-05)
(-9.51707e-05 0.00051316 -8.58812e-05)
(-0.000139532 0.000502915 -8.58811e-05)
(-0.000182833 0.000488841 -8.58814e-05)
(-0.000224743 0.000471046 -8.58801e-05)
(-0.000264943 0.000449667 -8.5879e-05)
(-0.000303127 0.000424863 -8.5878e-05)
(-0.000339003 0.000396828 -8.58788e-05)
(-0.000372298 0.00036577 -8.58799e-05)
(-0.00040276 0.000331932 -8.58801e-05)
(-0.000430156 0.000295564 -8.58795e-05)
(-0.000454279 0.000256949 -8.58793e-05)
(-0.00142197 0.000425146 -0.000337598)
(-0.00145361 0.000299596 -0.000337596)
(-0.00147419 0.000171764 -0.000337601)
(-0.00148355 4.26236e-05 -0.000337603)
(-0.00148162 -8.6841e-05 -0.000337603)
(-0.00146842 -0.000215642 -0.0003376)
(-0.00144403 -0.000342801 -0.000337594)
(-0.00140866 -0.000467349 -0.00033759)
(-0.00136257 -0.00058834 -0.000337589)
(-0.00130611 -0.000704854 -0.000337591)
(-0.00123971 -0.000816007 -0.000337597)
(-0.00116387 -0.000920952 -0.000337601)
(-0.00107917 -0.00101889 -0.0003376)
(-0.000986263 -0.00110907 -0.000337597)
(-0.00088585 -0.0011908 -0.000337596)
(-0.000778693 -0.00126348 -0.000337596)
(-0.000665608 -0.00132654 -0.000337601)
(-0.00054746 -0.00137951 -0.0003376)
(-0.000425146 -0.00142197 -0.000337598)
(-0.000299596 -0.00145361 -0.000337596)
(-0.000171764 -0.00147419 -0.000337601)
(-4.26236e-05 -0.00148355 -0.000337603)
(8.6841e-05 -0.00148162 -0.000337603)
(0.000215642 -0.00146842 -0.0003376)
(0.000342801 -0.00144403 -0.000337594)
(0.000467349 -0.00140866 -0.00033759)
(0.00058834 -0.00136257 -0.000337589)
(0.000704854 -0.00130611 -0.000337591)
(0.000816007 -0.00123971 -0.000337597)
(0.000920952 -0.00116387 -0.000337601)
(0.00101889 -0.00107917 -0.0003376)
(0.00110907 -0.000986263 -0.000337597)
(0.0011908 -0.00088585 -0.000337595)
(0.00126348 -0.000778693 -0.000337596)
(0.00132654 -0.000665608 -0.000337601)
(0.00137951 -0.00054746 -0.0003376)
(0.00142197 -0.000425146 -0.000337598)
(0.00145361 -0.000299596 -0.000337596)
(0.00147419 -0.000171764 -0.000337601)
(0.00148355 -4.26236e-05 -0.000337603)
(0.00148162 8.6841e-05 -0.000337603)
(0.00146842 0.000215642 -0.0003376)
(0.00144403 0.000342801 -0.000337594)
(0.00140866 0.000467349 -0.00033759)
(0.00136257 0.00058834 -0.000337589)
(0.00130611 0.000704854 -0.000337591)
(0.00123971 0.000816007 -0.000337597)
(0.00116387 0.000920952 -0.000337601)
(0.00107917 0.00101889 -0.0003376)
(0.000986263 0.00110907 -0.000337597)
(0.00088585 0.0011908 -0.000337596)
(0.000778693 0.00126348 -0.000337596)
(0.000665608 0.00132654 -0.000337601)
(0.00054746 0.00137951 -0.0003376)
(0.000425146 0.00142197 -0.000337598)
(0.000299596 0.00145361 -0.000337596)
(0.000171764 0.00147419 -0.000337601)
(4.26236e-05 0.00148355 -0.000337603)
(-8.6841e-05 0.00148162 -0.000337603)
(-0.000215642 0.00146842 -0.0003376)
(-0.000342801 0.00144403 -0.000337594)
(-0.000467349 0.00140866 -0.00033759)
(-0.00058834 0.00136257 -0.000337589)
(-0.000704854 0.00130611 -0.000337591)
(-0.000816007 0.00123971 -0.000337597)
(-0.000920952 0.00116387 -0.000337601)
(-0.00101889 0.00107917 -0.0003376)
(-0.00110907 0.000986263 -0.000337597)
(-0.0011908 0.00088585 -0.000337596)
(-0.00126348 0.000778693 -0.000337596)
(-0.00132654 0.000665608 -0.000337601)
(-0.00137951 0.00054746 -0.0003376)
(-0.00145718 0.000457891 -0.000251462)
(-0.00149154 0.000329148 -0.000251461)
(-0.00151455 0.000197898 -0.000251462)
(-0.00152603 6.51407e-05 -0.000251462)
(-0.00152591 -6.81108e-05 -0.000251462)
(-0.00151416 -0.000200843 -0.000251461)
(-0.0014909 -0.000332045 -0.00025146)
(-0.00145628 -0.00046072 -0.000251459)
(-0.00141059 -0.000585888 -0.000251458)
(-0.00135416 -0.000706599 -0.000251458)
(-0.00128742 -0.000821934 -0.000251459)
(-0.00121089 -0.000931014 -0.00025146)
(-0.00112514 -0.00103301 -0.00025146)
(-0.00103082 -0.00112714 -0.00025146)
(-0.000928661 -0.00121269 -0.00025146)
(-0.000819434 -0.00128901 -0.00025146)
(-0.000703971 -0.00135553 -0.000251462)
(-0.00058315 -0.00141173 -0.000251461)
(-0.000457891 -0.00145718 -0.000251462)
(-0.000329148 -0.00149154 -0.000251461)
(-0.000197898 -0.00151455 -0.000251462)
(-6.51407e-05 -0.00152603 -0.000251462)
(6.81108e-05 -0.00152591 -0.000251462)
(0.000200843 -0.00151416 -0.000251461)
(0.000332045 -0.0014909 -0.00025146)
(0.000460719 -0.00145628 -0.000251459)
(0.000585888 -0.00141059 -0.000251458)
(0.000706599 -0.00135416 -0.000251458)
(0.000821934 -0.00128742 -0.000251459)
(0.000931014 -0.00121089 -0.00025146)
(0.00103301 -0.00112514 -0.00025146)
(0.00112714 -0.00103082 -0.00025146)
(0.00121269 -0.000928661 -0.00025146)
(0.00128901 -0.000819434 -0.00025146)
(0.00135553 -0.000703971 -0.000251462)
(0.00141173 -0.00058315 -0.000251461)
(0.00145718 -0.000457891 -0.000251462)
(0.00149154 -0.000329148 -0.000251461)
(0.00151455 -0.000197897 -0.000251462)
(0.00152603 -6.51407e-05 -0.000251462)
(0.00152591 6.81108e-05 -0.000251462)
(0.00151416 0.000200843 -0.000251462)
(0.0014909 0.000332045 -0.00025146)
(0.00145628 0.000460719 -0.000251459)
(0.00141059 0.000585888 -0.000251458)
(0.00135416 0.000706599 -0.000251458)
(0.00128742 0.000821934 -0.000251459)
(0.00121089 0.000931014 -0.00025146)
(0.00112514 0.00103301 -0.00025146)
(0.00103082 0.00112714 -0.00025146)
(0.000928661 0.00121269 -0.00025146)
(0.000819434 0.00128901 -0.00025146)
(0.000703971 0.00135553 -0.000251462)
(0.00058315 0.00141173 -0.000251461)
(0.000457891 0.00145718 -0.000251462)
(0.000329148 0.00149154 -0.000251461)
(0.000197897 0.00151455 -0.000251462)
(6.51407e-05 0.00152603 -0.000251462)
(-6.81109e-05 0.00152591 -0.000251462)
(-0.000200843 0.00151416 -0.000251462)
(-0.000332045 0.0014909 -0.00025146)
(-0.00046072 0.00145628 -0.000251459)
(-0.000585888 0.00141059 -0.000251458)
(-0.000706599 0.00135416 -0.000251458)
(-0.000821934 0.00128742 -0.000251459)
(-0.000931014 0.00121089 -0.00025146)
(-0.00103301 0.00112514 -0.00025146)
(-0.00112714 0.00103082 -0.00025146)
(-0.00121269 0.000928661 -0.00025146)
(-0.00128901 0.000819434 -0.00025146)
(-0.00135553 0.000703971 -0.000251462)
(-0.00141173 0.00058315 -0.000251461)
(-0.00151128 0.000718025 -0.000117925)
(-0.00156811 0.000583577 -0.000117924)
(-0.00161301 0.000444685 -0.000117923)
(-0.00164563 0.000302408 -0.000117923)
(-0.00166572 0.00015783 -0.000117923)
(-0.00167314 1.20535e-05 -0.000117924)
(-0.00166782 -0.000133815 -0.000117925)
(-0.00164981 -0.000278664 -0.000117927)
(-0.00161924 -0.000421392 -0.000117927)
(-0.00157636 -0.000560916 -0.000117925)
(-0.00152148 -0.000696171 -0.000117923)
(-0.00145501 -0.00082613 -0.000117923)
(-0.00137747 -0.000949799 -0.000117923)
(-0.00128945 -0.00106624 -0.000117924)
(-0.00119161 -0.00117456 -0.000117924)
(-0.00108471 -0.00127395 -0.000117924)
(-0.000969549 -0.00136364 -0.000117924)
(-0.00084701 -0.00144295 -0.000117923)
(-0.000718025 -0.00151128 -0.000117925)
(-0.000583577 -0.00156811 -0.000117924)
(-0.000444685 -0.00161301 -0.000117923)
(-0.000302408 -0.00164563 -0.000117923)
(-0.00015783 -0.00166572 -0.000117923)
(-1.20535e-05 -0.00167314 -0.000117924)
(0.000133815 -0.00166782 -0.000117925)
(0.000278664 -0.00164981 -0.000117927)
(0.000421392 -0.00161924 -0.000117927)
(0.000560916 -0.00157636 -0.000117925)
(0.000696171 -0.00152148 -0.000117923)
(0.00082613 -0.00145501 -0.000117923)
(0.000949799 -0.00137747 -0.000117923)
(0.00106624 -0.00128945 -0.000117924)
(0.00117456 -0.00119161 -0.000117924)
(0.00127395 -0.00108471 -0.000117924)
(0.00136364 -0.000969549 -0.000117924)
(0.00144295 -0.00084701 -0.000117923)
(0.00151128 -0.000718025 -0.000117925)
(0.00156811 -0.000583577 -0.000117924)
(0.00161301 -0.000444684 -0.000117923)
(0.00164563 -0.000302408 -0.000117923)
(0.00166572 -0.00015783 -0.000117923)
(0.00167314 -1.20535e-05 -0.000117924)
(0.00166782 0.000133815 -0.000117926)
(0.00164981 0.000278664 -0.000117927)
(0.00161924 0.000421392 -0.000117927)
(0.00157636 0.000560916 -0.000117925)
(0.00152148 0.000696171 -0.000117923)
(0.00145501 0.00082613 -0.000117923)
(0.00137747 0.000949799 -0.000117923)
(0.00128945 0.00106624 -0.000117924)
(0.00119161 0.00117456 -0.000117924)
(0.00108471 0.00127395 -0.000117924)
(0.000969549 0.00136364 -0.000117924)
(0.00084701 0.00144295 -0.000117923)
(0.000718025 0.00151128 -0.000117925)
(0.000583577 0.00156811 -0.000117924)
(0.000444684 0.00161301 -0.000117923)
(0.000302408 0.00164563 -0.000117923)
(0.00015783 0.00166572 -0.000117923)
(1.20534e-05 0.00167314 -0.000117924)
(-0.000133815 0.00166782 -0.000117926)
(-0.000278664 0.00164981 -0.000117927)
(-0.000421392 0.00161924 -0.000117927)
(-0.000560916 0.00157636 -0.000117925)
(-0.000696171 0.00152148 -0.000117923)
(-0.00082613 0.00145501 -0.000117923)
(-0.000949799 0.00137747 -0.000117923)
(-0.00106624 0.00128945 -0.000117924)
(-0.00117456 0.00119161 -0.000117924)
(-0.00127395 0.00108471 -0.000117924)
(-0.00136364 0.000969549 -0.000117924)
(-0.00144295 0.00084701 -0.000117923)
(-0.00200149 0.000728271 -0.000564765)
(-0.00205735 0.000551058 -0.000564765)
(-0.00209754 0.000369651 -0.000564767)
(-0.00212178 0.000185432 -0.000564766)
(-0.00212987 -2.00419e-07 -0.000564767)
(-0.00212174 -0.00018583 -0.000564764)
(-0.00209747 -0.000370044 -0.000564758)
(-0.00205724 -0.000551442 -0.000564758)
(-0.00200136 -0.000728644 -0.000564757)
(-0.00193023 -0.0009003 -0.000564757)
(-0.00184442 -0.0010651 -0.000564757)
(-0.00174457 -0.0012218 -0.000564761)
(-0.00163145 -0.0013692 -0.000564761)
(-0.0015059 -0.00150618 -0.00056476)
(-0.0013689 -0.0016317 -0.000564761)
(-0.00122148 -0.0017448 -0.00056476)
(-0.00106476 -0.00184462 -0.000564764)
(-0.00089994 -0.0019304 -0.000564766)
(-0.000728271 -0.00200149 -0.000564765)
(-0.000551058 -0.00205735 -0.000564765)
(-0.000369651 -0.00209754 -0.000564766)
(-0.000185432 -0.00212178 -0.000564766)
(2.00507e-07 -0.00212987 -0.000564767)
(0.00018583 -0.00212174 -0.000564763)
(0.000370044 -0.00209747 -0.000564758)
(0.000551442 -0.00205724 -0.000564758)
(0.000728644 -0.00200136 -0.000564757)
(0.0009003 -0.00193023 -0.000564758)
(0.0010651 -0.00184442 -0.000564757)
(0.0012218 -0.00174457 -0.000564761)
(0.0013692 -0.00163145 -0.000564761)
(0.00150618 -0.0015059 -0.00056476)
(0.0016317 -0.0013689 -0.00056476)
(0.0017448 -0.00122148 -0.00056476)
(0.00184462 -0.00106476 -0.000564764)
(0.0019304 -0.00089994 -0.000564766)
(0.00200149 -0.000728271 -0.000564765)
(0.00205735 -0.000551058 -0.000564765)
(0.00209754 -0.000369651 -0.000564767)
(0.00212178 -0.000185432 -0.000564766)
(0.00212987 2.00583e-07 -0.000564767)
(0.00212174 0.000185831 -0.000564764)
(0.00209747 0.000370044 -0.000564758)
(0.00205724 0.000551442 -0.000564758)
(0.00200136 0.000728644 -0.000564757)
(0.00193023 0.0009003 -0.000564758)
(0.00184442 0.0010651 -0.000564757)
(0.00174457 0.0012218 -0.000564761)
(0.00163145 0.0013692 -0.000564761)
(0.0015059 0.00150618 -0.00056476)
(0.0013689 0.0016317 -0.000564761)
(0.00122148 0.0017448 -0.00056476)
(0.00106476 0.00184462 -0.000564764)
(0.00089994 0.0019304 -0.000564766)
(0.000728271 0.00200149 -0.000564765)
(0.000551058 0.00205735 -0.000564765)
(0.000369651 0.00209754 -0.000564767)
(0.000185431 0.00212178 -0.000564766)
(-2.00596e-07 0.00212987 -0.000564767)
(-0.000185831 0.00212174 -0.000564764)
(-0.000370044 0.00209747 -0.000564758)
(-0.000551442 0.00205724 -0.000564758)
(-0.000728644 0.00200136 -0.000564757)
(-0.0009003 0.00193023 -0.000564758)
(-0.0010651 0.00184442 -0.000564757)
(-0.0012218 0.00174457 -0.000564761)
(-0.0013692 0.00163145 -0.000564761)
(-0.00150618 0.0015059 -0.00056476)
(-0.0016317 0.0013689 -0.000564761)
(-0.0017448 0.00122148 -0.00056476)
(-0.00184462 0.00106476 -0.000564764)
(-0.0019304 0.00089994 -0.000564766)
(-0.00213343 0.000975818 -0.000383724)
(-0.00221036 0.000786164 -0.000383724)
(-0.00227047 0.000590527 -0.000383725)
(-0.0023133 0.000390395 -0.000383725)
(-0.00233852 0.000187292 -0.000383725)
(-0.00234594 -1.72362e-05 -0.000383724)
(-0.00233551 -0.000221632 -0.000383722)
(-0.00230731 -0.000424341 -0.000383722)
(-0.00226155 -0.000623821 -0.000383721)
(-0.00219857 -0.000818554 -0.000383721)
(-0.00211886 -0.00100706 -0.000383722)
(-0.00202303 -0.0011879 -0.000383722)
(-0.0019118 -0.0013597 -0.000383722)
(-0.00178602 -0.00152115 -0.000383722)
(-0.00164665 -0.00167102 -0.000383722)
(-0.00149474 -0.00180817 -0.000383723)
(-0.00133146 -0.00193157 -0.000383724)
(-0.00115805 -0.00204027 -0.000383724)
(-0.000975818 -0.00213343 -0.000383724)
(-0.000786164 -0.00221036 -0.000383724)
(-0.000590527 -0.00227047 -0.000383725)
(-0.000390395 -0.0023133 -0.000383725)
(-0.000187292 -0.00233852 -0.000383725)
(1.72362e-05 -0.00234594 -0.000383724)
(0.000221632 -0.00233551 -0.000383722)
(0.000424341 -0.00230731 -0.000383722)
(0.000623821 -0.00226155 -0.000383721)
(0.000818554 -0.00219857 -0.000383721)
(0.00100706 -0.00211886 -0.000383722)
(0.0011879 -0.00202303 -0.000383722)
(0.0013597 -0.0019118 -0.000383722)
(0.00152115 -0.00178602 -0.000383721)
(0.00167102 -0.00164665 -0.000383722)
(0.00180817 -0.00149474 -0.000383723)
(0.00193157 -0.00133146 -0.000383724)
(0.00204027 -0.00115805 -0.000383724)
(0.00213343 -0.000975818 -0.000383724)
(0.00221036 -0.000786164 -0.000383724)
(0.00227047 -0.000590527 -0.000383725)
(0.0023133 -0.000390395 -0.000383725)
(0.00233852 -0.000187292 -0.000383725)
(0.00234594 1.72363e-05 -0.000383724)
(0.00233551 0.000221632 -0.000383722)
(0.00230731 0.000424341 -0.000383722)
(0.00226155 0.000623821 -0.000383721)
(0.00219857 0.000818554 -0.000383721)
(0.00211886 0.00100706 -0.000383722)
(0.00202303 0.0011879 -0.000383722)
(0.0019118 0.0013597 -0.000383722)
(0.00178602 0.00152115 -0.000383722)
(0.00164665 0.00167102 -0.000383722)
(0.00149474 0.00180817 -0.000383723)
(0.00133146 0.00193157 -0.000383724)
(0.00115805 0.00204027 -0.000383724)
(0.000975818 0.00213343 -0.000383724)
(0.000786164 0.00221036 -0.000383724)
(0.000590527 0.00227047 -0.000383725)
(0.000390395 0.0023133 -0.000383725)
(0.000187292 0.00233852 -0.000383725)
(-1.72363e-05 0.00234594 -0.000383725)
(-0.000221632 0.00233551 -0.000383722)
(-0.000424341 0.00230731 -0.000383722)
(-0.000623821 0.00226155 -0.000383721)
(-0.000818554 0.00219857 -0.000383721)
(-0.00100706 0.00211886 -0.000383722)
(-0.0011879 0.00202303 -0.000383722)
(-0.0013597 0.0019118 -0.000383722)
(-0.00152115 0.00178602 -0.000383722)
(-0.00167102 0.00164665 -0.000383722)
(-0.00180817 0.00149474 -0.000383723)
(-0.00193157 0.00133146 -0.000383724)
(-0.00204027 0.00115805 -0.000383724)
(-0.00231124 0.00131889 -0.000216878)
(-0.0024174 0.00111244 -0.000216878)
(-0.00250515 0.000897513 -0.000216878)
(-0.00257384 0.000675759 -0.000216878)
(-0.00262294 0.000448862 -0.000216879)
(-0.00265208 0.000218551 -0.000216878)
(-0.00266104 -1.34246e-05 -0.000216879)
(-0.00264974 -0.000245298 -0.000216879)
(-0.00261828 -0.000475304 -0.000216879)
(-0.00256689 -0.000701694 -0.000216878)
(-0.00249597 -0.000922744 -0.000216878)
(-0.00240605 -0.00113677 -0.000216878)
(-0.00229782 -0.00134215 -0.000216878)
(-0.0021721 -0.00153731 -0.000216878)
(-0.00202985 -0.00172077 -0.000216878)
(-0.00187215 -0.00189113 -0.000216878)
(-0.0017002 -0.00204711 -0.000216878)
(-0.00151531 -0.0021875 -0.000216878)
(-0.00131889 -0.00231124 -0.000216878)
(-0.00111244 -0.0024174 -0.000216878)
(-0.000897513 -0.00250515 -0.000216878)
(-0.000675759 -0.00257384 -0.000216878)
(-0.000448862 -0.00262294 -0.000216878)
(-0.000218551 -0.00265208 -0.000216878)
(1.34246e-05 -0.00266104 -0.000216879)
(0.000245297 -0.00264974 -0.000216879)
(0.000475304 -0.00261828 -0.00021688)
(0.000701694 -0.00256689 -0.000216878)
(0.000922744 -0.00249597 -0.000216878)
(0.00113677 -0.00240605 -0.000216878)
(0.00134215 -0.00229782 -0.000216878)
(0.00153731 -0.0021721 -0.000216878)
(0.00172077 -0.00202985 -0.000216878)
(0.00189113 -0.00187215 -0.000216878)
(0.00204711 -0.0017002 -0.000216878)
(0.0021875 -0.00151531 -0.000216878)
(0.00231124 -0.00131889 -0.000216878)
(0.0024174 -0.00111244 -0.000216878)
(0.00250515 -0.000897513 -0.000216878)
(0.00257384 -0.000675759 -0.000216878)
(0.00262294 -0.000448862 -0.000216879)
(0.00265208 -0.000218551 -0.000216878)
(0.00266104 1.34246e-05 -0.000216879)
(0.00264974 0.000245297 -0.000216879)
(0.00261828 0.000475304 -0.00021688)
(0.00256689 0.000701694 -0.000216878)
(0.00249597 0.000922744 -0.000216878)
(0.00240605 0.00113677 -0.000216878)
(0.00229782 0.00134215 -0.000216878)
(0.0021721 0.00153731 -0.000216878)
(0.00202985 0.00172077 -0.000216878)
(0.00187215 0.00189113 -0.000216878)
(0.0017002 0.00204711 -0.000216878)
(0.00151531 0.0021875 -0.000216878)
(0.00131889 0.00231124 -0.000216878)
(0.00111244 0.0024174 -0.000216878)
(0.000897513 0.00250515 -0.000216878)
(0.000675759 0.00257384 -0.000216878)
(0.000448862 0.00262294 -0.000216879)
(0.000218551 0.00265208 -0.000216878)
(-1.34247e-05 0.00266104 -0.000216879)
(-0.000245298 0.00264974 -0.000216879)
(-0.000475304 0.00261828 -0.00021688)
(-0.000701694 0.00256689 -0.000216878)
(-0.000922744 0.00249597 -0.000216879)
(-0.00113677 0.00240605 -0.000216878)
(-0.00134215 0.00229782 -0.000216878)
(-0.00153731 0.0021721 -0.000216878)
(-0.00172077 0.00202985 -0.000216878)
(-0.00189113 0.00187215 -0.000216878)
(-0.00204711 0.0017002 -0.000216878)
(-0.0021875 0.00151531 -0.000216878)
(-0.00223359 0.00120982 -0.00081584)
(-0.00233053 0.00101054 -0.000815842)
(-0.00240974 0.000803581 -0.000815844)
(-0.0024706 0.0005905 -0.000815844)
(-0.00251267 0.000372924 -0.000815843)
(-0.00253561 0.000152511 -0.000815842)
(-0.00253925 -6.90616e-05 -0.000815838)
(-0.00252357 -0.00029011 -0.000815837)
(-0.00248868 -0.000508949 -0.000815837)
(-0.00243485 -0.000723916 -0.00081584)
(-0.0023625 -0.000933373 -0.000815838)
(-0.00227216 -0.00113573 -0.000815838)
(-0.00216453 -0.00132944 -0.000815837)
(-0.00204042 -0.00151303 -0.000815837)
(-0.00190079 -0.0016851 -0.000815837)
(-0.00174669 -0.00184436 -0.000815837)
(-0.0015793 -0.00198957 -0.000815839)
(-0.00139988 -0.00211965 -0.00081584)
(-0.00120982 -0.00223359 -0.000815839)
(-0.00101054 -0.00233053 -0.000815841)
(-0.000803581 -0.00240974 -0.000815844)
(-0.0005905 -0.0024706 -0.000815843)
(-0.000372924 -0.00251267 -0.000815843)
(-0.000152511 -0.00253561 -0.000815842)
(6.90616e-05 -0.00253925 -0.000815837)
(0.000290109 -0.00252357 -0.000815836)
(0.000508949 -0.00248868 -0.000815837)
(0.000723916 -0.00243485 -0.00081584)
(0.000933373 -0.0023625 -0.000815839)
(0.00113573 -0.00227216 -0.000815838)
(0.00132944 -0.00216453 -0.000815837)
(0.00151303 -0.00204042 -0.000815837)
(0.0016851 -0.00190079 -0.000815837)
(0.00184436 -0.00174669 -0.000815837)
(0.00198957 -0.0015793 -0.000815839)
(0.00211965 -0.00139988 -0.00081584)
(0.00223359 -0.00120982 -0.000815839)
(0.00233053 -0.00101054 -0.000815841)
(0.00240974 -0.00080358 -0.000815844)
(0.0024706 -0.0005905 -0.000815844)
(0.00251267 -0.000372924 -0.000815843)
(0.00253561 -0.000152511 -0.000815842)
(0.00253925 6.90616e-05 -0.000815838)
(0.00252357 0.00029011 -0.000815837)
(0.00248868 0.000508949 -0.000815837)
(0.00243485 0.000723916 -0.00081584)
(0.0023625 0.000933373 -0.000815839)
(0.00227216 0.00113573 -0.000815839)
(0.00216453 0.00132944 -0.000815837)
(0.00204042 0.00151303 -0.000815837)
(0.00190079 0.00168511 -0.000815837)
(0.00174669 0.00184436 -0.000815837)
(0.0015793 0.00198957 -0.000815839)
(0.00139988 0.00211965 -0.00081584)
(0.00120982 0.00223359 -0.00081584)
(0.00101054 0.00233053 -0.000815842)
(0.00080358 0.00240974 -0.000815844)
(0.0005905 0.0024706 -0.000815844)
(0.000372924 0.00251267 -0.000815843)
(0.000152511 0.00253561 -0.000815842)
(-6.90616e-05 0.00253925 -0.000815838)
(-0.00029011 0.00252357 -0.000815837)
(-0.000508949 0.00248868 -0.000815837)
(-0.000723916 0.00243485 -0.000815841)
(-0.000933373 0.0023625 -0.000815839)
(-0.00113573 0.00227216 -0.000815839)
(-0.00132944 0.00216453 -0.000815837)
(-0.00151303 0.00204042 -0.000815837)
(-0.00168511 0.00190079 -0.000815837)
(-0.00184436 0.00174669 -0.000815837)
(-0.00198957 0.0015793 -0.000815839)
(-0.00211965 0.00139988 -0.00081584)
(-0.00243384 0.00159511 -0.000603377)
(-0.0025636 0.00137692 -0.000603378)
(-0.00267385 0.00114825 -0.000603379)
(-0.00276375 0.000910838 -0.00060338)
(-0.00283262 0.000666494 -0.000603379)
(-0.00287993 0.000417079 -0.000603377)
(-0.00290532 0.000164489 -0.000603376)
(-0.0029086 -8.93522e-05 -0.000603375)
(-0.00288974 -0.000342512 -0.000603375)
(-0.0028489 -0.000593066 -0.000603376)
(-0.00278637 -0.000839108 -0.000603376)
(-0.00270263 -0.00107876 -0.000603376)
(-0.00259833 -0.00131021 -0.000603376)
(-0.00247425 -0.00153168 -0.000603375)
(-0.00233134 -0.0017415 -0.000603375)
(-0.00217068 -0.00193806 -0.000603376)
(-0.00199351 -0.00211987 -0.000603377)
(-0.00180117 -0.00228555 -0.000603376)
(-0.00159511 -0.00243384 -0.000603377)
(-0.00137692 -0.0025636 -0.000603378)
(-0.00114825 -0.00267385 -0.000603378)
(-0.000910838 -0.00276375 -0.00060338)
(-0.000666494 -0.00283262 -0.000603379)
(-0.000417079 -0.00287993 -0.000603377)
(-0.000164489 -0.00290532 -0.000603376)
(8.93521e-05 -0.0029086 -0.000603375)
(0.000342512 -0.00288974 -0.000603375)
(0.000593066 -0.0028489 -0.000603376)
(0.000839107 -0.00278637 -0.000603376)
(0.00107876 -0.00270263 -0.000603376)
(0.00131021 -0.00259833 -0.000603376)
(0.00153168 -0.00247425 -0.000603375)