/*--------------------------------*- C++ -*----------------------------------*\
| =========                 |                                                 |
| \\      /  F ield         | OpenFOAM: The Open Source CFD Toolbox           |
|  \\    /   O peration     | Version:  2312                                  |
|   \\  /    A nd           | Website:  www.openfoam.com                      |
|    \\/     M anipulation  |                                                 |
\*---------------------------------------------------------------------------*/
FoamFile
{
    version     2.0;
    format      ascii;
    arch        "LSB;label=32;scalar=64";
    class       pointVectorField;
    location    "0.9";
    object      pointD;
}
// * * * * * * * * * * * * * * * * * * * * * * * * * * * * * * * * * * * * * //

dimensions      [0 1 0 0 0 0 0];

internalField   nonuniform List<vector> 
4324
(
(0 0 0)
(0 0 0)
(0 0 0)
(0 0 0)
(0 0 0)
(0 0 0)
(0 0 0)
(0 0 0)
(0 0 0)
(0 0 0)
(0 0 0)
(0 0 0)
(0 0 0)
(0 0 0)
(0 0 0)
(0 0 0)
(0 0 0)
(0 0 0)
(0 0 0)
(0 0 0)
(0 0 0)
(0 0 0)
(0 0 0)
(0 0 0)
(0 0 0)
(0 0 0)
(0 0 0)
(0 0 0)
(0 0 0)
(0 0 0)
(0 0 0)
(0 0 0)
(0 0 0)
(0 0 0)
(0 0 0)
(0 0 0)
(0 0 0)
(0 0 0)
(0 0 0)
(0 0 0)
(0 0 0)
(0 0 0)
(0 0 0)
(0 0 0)
(0 0 0)
(0 0 0)
(0 0 0)
(0 0 0)
(0 0 0)
(0 0 0)
(0 0 0)
(0 0 0)
(0 0 0)
(0 0 0)
(0 0 0)
(0 0 0)
(0 0 0)
(0 0 0)
(0 0 0)
(0 0 0)
(0 0 0)
(0 0 0)
(0 0 0)
(0 0 0)
(0 0 0)
(0 0 0)
(0 0 0)
(0 0 0)
(0 0 0)
(0 0 0)
(0 0 0)
(0 0 0)
(-0.00106439 0.000267095 -0.000237433)
(-0.00108362 0.000173311 -0.000237435)
(-0.0010946 7.82045e-05 -0.000237441)
(-0.00109725 -1.74974e-05 -0.000237442)
(-0.00109155 -0.000113064 -0.00023744)
(-0.00107755 -0.000207769 -0.000237434)
(-0.00105534 -0.000300889 -0.000237428)
(-0.0010251 -0.000391718 -0.000237426)
(-0.00098706 -0.000479567 -0.000237428)
(-0.000941505 -0.000563768 -0.000237434)
(-0.000888784 -0.000643683 -0.000237439)
(-0.0008293 -0.000718701 -0.00023744)
(-0.000763506 -0.000788249 -0.000237437)
(-0.000691902 -0.000851791 -0.000237433)
(-0.000615033 -0.000908848 -0.000237432)
(-0.000533479 -0.000958993 -0.000237437)
(-0.000447865 -0.00100184 -0.000237439)
(-0.000358846 -0.00103707 -0.000237436)
(-0.000267095 -0.00106439 -0.000237433)
(-0.000173311 -0.00108362 -0.000237435)
(-7.82044e-05 -0.0010946 -0.000237441)
(1.74975e-05 -0.00109725 -0.000237442)
(0.000113064 -0.00109155 -0.00023744)
(0.000207769 -0.00107755 -0.000237434)
(0.000300889 -0.00105534 -0.000237428)
(0.000391718 -0.0010251 -0.000237426)
(0.000479567 -0.00098706 -0.000237428)
(0.000563768 -0.000941505 -0.000237434)
(0.000643683 -0.000888784 -0.000237439)
(0.000718702 -0.0008293 -0.00023744)
(0.000788249 -0.000763506 -0.000237437)
(0.000851791 -0.000691903 -0.000237433)
(0.000908848 -0.000615033 -0.000237432)
(0.000958993 -0.000533479 -0.000237437)
(0.00100184 -0.000447865 -0.000237439)
(0.00103707 -0.000358846 -0.000237436)
(0.00106439 -0.000267095 -0.000237433)
(0.00108362 -0.000173311 -0.000237435)
(0.0010946 -7.82044e-05 -0.000237441)
(0.00109725 1.74975e-05 -0.000237442)
(0.00109155 0.000113064 -0.00023744)
(0.00107755 0.000207769 -0.000237434)
(0.00105534 0.000300889 -0.000237428)
(0.0010251 0.000391718 -0.000237426)
(0.00098706 0.000479567 -0.000237428)
(0.000941505 0.000563768 -0.000237434)
(0.000888784 0.000643683 -0.000237439)
(0.0008293 0.000718701 -0.00023744)
(0.000763506 0.000788249 -0.000237437)
(0.000691903 0.000851791 -0.000237433)
(0.000615033 0.000908848 -0.000237432)
(0.000533479 0.000958993 -0.000237437)
(0.000447865 0.00100184 -0.000237439)
(0.000358846 0.00103707 -0.000237436)
(0.000267096 0.00106439 -0.000237433)
(0.000173311 0.00108362 -0.000237435)
(7.82045e-05 0.0010946 -0.000237441)
(-1.74974e-05 0.00109725 -0.000237442)
(-0.000113064 0.00109155 -0.00023744)
(-0.000207769 0.00107755 -0.000237434)
(-0.000300889 0.00105534 -0.000237428)
(-0.000391718 0.0010251 -0.000237426)
(-0.000479567 0.00098706 -0.000237428)
(-0.000563768 0.000941505 -0.000237434)
(-0.000643683 0.000888784 -0.000237439)
(-0.000718702 0.0008293 -0.00023744)
(-0.000788249 0.000763506 -0.000237437)
(-0.000851791 0.000691903 -0.000237433)
(-0.000908848 0.000615033 -0.000237432)
(-0.000958993 0.000533479 -0.000237437)
(-0.00100184 0.000447865 -0.000237439)
(-0.00103707 0.000358846 -0.000237436)
(-0.00106193 0.000196465 -0.000206625)
(-0.00107501 0.000103164 -0.000206625)
(-0.00107992 9.07506e-06 -0.000206628)
(-0.0010766 -8.50828e-05 -0.000206628)
(-0.00106509 -0.000178591 -0.000206627)
(-0.00104547 -0.000270739 -0.000206625)
(-0.00101789 -0.000360825 -0.000206622)
(-0.000982574 -0.000448164 -0.000206621)
(-0.000939775 -0.000532094 -0.000206621)
(-0.000889825 -0.000611976 -0.000206624)
(-0.000833101 -0.000687202 -0.000206626)
(-0.000770036 -0.0007572 -0.000206627)
(-0.000701111 -0.000821433 -0.000206626)
(-0.000626852 -0.000879411 -0.000206625)
(-0.000547821 -0.000930695 -0.000206624)
(-0.000464619 -0.000974899 -0.000206626)
(-0.000377883 -0.00101169 -0.000206627)
(-0.000288271 -0.00104077 -0.000206626)
(-0.000196465 -0.00106193 -0.000206625)
(-0.000103164 -0.00107501 -0.000206625)
(-9.07505e-06 -0.00107992 -0.000206628)
(8.50828e-05 -0.0010766 -0.000206628)
(0.000178591 -0.00106509 -0.000206627)
(0.000270739 -0.00104547 -0.000206625)
(0.000360825 -0.00101789 -0.000206622)
(0.000448164 -0.000982574 -0.000206621)
(0.000532094 -0.000939776 -0.000206622)
(0.000611976 -0.000889825 -0.000206624)
(0.000687202 -0.000833101 -0.000206626)
(0.0007572 -0.000770036 -0.000206627)
(0.000821433 -0.000701111 -0.000206626)
(0.000879411 -0.000626852 -0.000206624)
(0.000930695 -0.000547821 -0.000206624)
(0.000974899 -0.000464619 -0.000206626)
(0.00101169 -0.000377883 -0.000206627)
(0.00104077 -0.000288271 -0.000206626)
(0.00106193 -0.000196465 -0.000206625)
(0.00107501 -0.000103164 -0.000206625)
(0.00107992 -9.07504e-06 -0.000206628)
(0.0010766 8.50828e-05 -0.000206628)
(0.00106509 0.000178591 -0.000206627)
(0.00104547 0.000270739 -0.000206625)
(0.00101789 0.000360825 -0.000206622)
(0.000982574 0.000448164 -0.000206621)
(0.000939776 0.000532094 -0.000206622)
(0.000889825 0.000611976 -0.000206624)
(0.000833101 0.000687202 -0.000206626)
(0.000770036 0.0007572 -0.000206627)
(0.000701111 0.000821433 -0.000206626)
(0.000626852 0.000879411 -0.000206624)
(0.000547821 0.000930695 -0.000206624)
(0.000464619 0.000974899 -0.000206626)
(0.000377883 0.00101169 -0.000206627)
(0.000288271 0.00104077 -0.000206626)
(0.000196465 0.00106193 -0.000206625)
(0.000103164 0.00107501 -0.000206625)
(9.07506e-06 0.00107992 -0.000206628)
(-8.50828e-05 0.0010766 -0.000206628)
(-0.000178591 0.00106509 -0.000206627)
(-0.000270739 0.00104547 -0.000206625)
(-0.000360825 0.00101789 -0.000206622)
(-0.000448164 0.000982574 -0.000206621)
(-0.000532094 0.000939775 -0.000206622)
(-0.000611976 0.000889825 -0.000206624)
(-0.000687202 0.000833101 -0.000206626)
(-0.0007572 0.000770036 -0.000206627)
(-0.000821433 0.000701111 -0.000206626)
(-0.000879411 0.000626852 -0.000206624)
(-0.000930695 0.000547821 -0.000206624)
(-0.000974899 0.000464619 -0.000206626)
(-0.00101169 0.000377883 -0.000206627)
(-0.00104077 0.000288271 -0.000206626)
(0 0 0)
(0 0 0)
(0 0 0)
(0 0 0)
(0 0 0)
(0 0 0)
(0 0 0)
(0 0 0)
(0 0 0)
(0 0 0)
(0 0 0)
(0 0 0)
(0 0 0)
(0 0 0)
(0 0 0)
(0 0 0)
(0 0 0)
(0 0 0)
(0 0 0)
(0 0 0)
(0 0 0)
(0 0 0)
(0 0 0)
(0 0 0)
(0 0 0)
(0 0 0)
(0 0 0)
(0 0 0)
(0 0 0)
(0 0 0)
(0 0 0)
(0 0 0)
(0 0 0)
(0 0 0)
(0 0 0)
(0 0 0)
(0 0 0)
(0 0 0)
(0 0 0)
(0 0 0)
(0 0 0)
(0 0 0)
(0 0 0)
(0 0 0)
(0 0 0)
(0 0 0)
(0 0 0)
(0 0 0)
(0 0 0)
(0 0 0)
(0 0 0)
(0 0 0)
(0 0 0)
(0 0 0)
(0 0 0)
(0 0 0)
(0 0 0)
(0 0 0)
(0 0 0)
(0 0 0)
(0 0 0)
(0 0 0)
(0 0 0)
(0 0 0)
(0 0 0)
(0 0 0)
(0 0 0)
(0 0 0)
(0 0 0)
(0 0 0)
(0 0 0)
(0 0 0)
(-0.00106996 0.000267691 -0.000143559)
(-0.00108922 0.00017342 -0.000143558)
(-0.00110019 7.78252e-05 -0.000143558)
(-0.00110279 -1.83602e-05 -0.000143558)
(-0.00109699 -0.000114404 -0.000143558)
(-0.00108285 -0.000209577 -0.000143558)
(-0.00106046 -0.000303155 -0.000143559)
(-0.00103 -0.000394424 -0.000143559)
(-0.000991708 -0.000482692 -0.000143558)
(-0.000945866 -0.00056729 -0.000143558)
(-0.000892826 -0.00064757 -0.000143557)
(-0.000832989 -0.000722922 -0.000143557)
(-0.000766811 -0.000792771 -0.000143557)
(-0.000694798 -0.000856585 -0.000143558)
(-0.000617497 -0.000913879 -0.000143558)
(-0.000535498 -0.00096422 -0.000143558)
(-0.000449421 -0.00100722 -0.000143558)
(-0.000359926 -0.00104256 -0.000143558)
(-0.000267691 -0.00106996 -0.000143559)
(-0.00017342 -0.00108922 -0.000143558)
(-7.78252e-05 -0.00110019 -0.000143558)
(1.83602e-05 -0.00110279 -0.000143558)
(0.000114404 -0.00109699 -0.000143558)
(0.000209577 -0.00108285 -0.000143558)
(0.000303155 -0.00106046 -0.000143559)
(0.000394424 -0.00103 -0.000143559)
(0.000482692 -0.000991708 -0.000143558)
(0.00056729 -0.000945866 -0.000143558)
(0.00064757 -0.000892826 -0.000143557)
(0.000722922 -0.000832989 -0.000143557)
(0.000792772 -0.000766811 -0.000143557)
(0.000856585 -0.000694798 -0.000143558)
(0.000913879 -0.000617497 -0.000143558)
(0.00096422 -0.000535498 -0.000143558)
(0.00100722 -0.000449421 -0.000143558)
(0.00104256 -0.000359926 -0.000143558)
(0.00106996 -0.000267691 -0.000143559)
(0.00108922 -0.00017342 -0.000143558)
(0.00110019 -7.78252e-05 -0.000143558)
(0.00110279 1.83602e-05 -0.000143558)
(0.00109699 0.000114404 -0.000143558)
(0.00108285 0.000209577 -0.000143558)
(0.00106046 0.000303155 -0.000143559)
(0.00103 0.000394424 -0.000143559)
(0.000991708 0.000482692 -0.000143558)
(0.000945866 0.00056729 -0.000143558)
(0.000892826 0.00064757 -0.000143557)
(0.000832989 0.000722922 -0.000143557)
(0.000766811 0.000792772 -0.000143557)
(0.000694798 0.000856585 -0.000143558)
(0.000617497 0.000913879 -0.000143558)
(0.000535498 0.00096422 -0.000143558)
(0.000449421 0.00100722 -0.000143558)
(0.000359926 0.00104256 -0.000143558)
(0.000267691 0.00106996 -0.000143559)
(0.00017342 0.00108922 -0.000143558)
(7.78252e-05 0.00110019 -0.000143558)
(-1.83602e-05 0.00110279 -0.000143558)
(-0.000114404 0.00109699 -0.000143558)
(-0.000209577 0.00108285 -0.000143558)
(-0.000303155 0.00106046 -0.000143559)
(-0.000394424 0.00103 -0.000143559)
(-0.000482692 0.000991708 -0.000143558)
(-0.00056729 0.000945866 -0.000143558)
(-0.00064757 0.000892826 -0.000143557)
(-0.000722922 0.000832989 -0.000143557)
(-0.000792771 0.000766811 -0.000143557)
(-0.000856585 0.000694798 -0.000143558)
(-0.000913879 0.000617497 -0.000143558)
(-0.00096422 0.000535498 -0.000143558)
(-0.00100722 0.000449421 -0.000143558)
(-0.00104256 0.000359926 -0.000143558)
(0 0 0)
(0 0 0)
(0 0 0)
(0 0 0)
(0 0 0)
(0 0 0)
(0 0 0)
(0 0 0)
(0 0 0)
(0 0 0)
(0 0 0)
(0 0 0)
(0 0 0)
(0 0 0)
(0 0 0)
(0 0 0)
(0 0 0)
(0 0 0)
(0 0 0)
(0 0 0)
(0 0 0)
(0 0 0)
(0 0 0)
(0 0 0)
(0 0 0)
(0 0 0)
(0 0 0)
(0 0 0)
(0 0 0)
(0 0 0)
(0 0 0)
(0 0 0)
(0 0 0)
(0 0 0)
(0 0 0)
(0 0 0)
(0 0 0)
(0 0 0)
(0 0 0)
(0 0 0)
(0 0 0)
(0 0 0)
(0 0 0)
(0 0 0)
(0 0 0)
(0 0 0)
(0 0 0)
(0 0 0)
(0 0 0)
(0 0 0)
(0 0 0)
(0 0 0)
(0 0 0)
(0 0 0)
(0 0 0)
(0 0 0)
(0 0 0)
(0 0 0)
(0 0 0)
(0 0 0)
(0 0 0)
(0 0 0)
(0 0 0)
(0 0 0)
(0 0 0)
(0 0 0)
(0 0 0)
(0 0 0)
(0 0 0)
(0 0 0)
(0 0 0)
(0 0 0)
(-0.00108804 0.000490974 -5.30195e-05)
(-0.00112669 0.000394276 -5.30184e-05)
(-0.00115677 0.000294576 -5.30173e-05)
(-0.00117804 0.000192636 -5.3017e-05)
(-0.00119035 8.92288e-05 -5.30185e-05)
(-0.00119359 -1.48547e-05 -5.30203e-05)
(-0.00118775 -0.000118827 -5.30232e-05)
(-0.00117288 -0.000221892 -5.30239e-05)
(-0.00114908 -0.000323269 -5.30224e-05)
(-0.00111653 -0.000422189 -5.30203e-05)
(-0.00107549 -0.000517898 -5.30188e-05)
(-0.00102626 -0.000609663 -5.30171e-05)
(-0.000969218 -0.000696788 -5.3018e-05)
(-0.0009048 -0.000778608 -5.30195e-05)
(-0.000833497 -0.000854502 -5.30206e-05)
(-0.00075585 -0.000923894 -5.30198e-05)
(-0.000672451 -0.000986255 -5.30183e-05)
(-0.000583933 -0.00104111 -5.30193e-05)
(-0.000490974 -0.00108804 -5.30196e-05)
(-0.000394276 -0.00112669 -5.30185e-05)
(-0.000294576 -0.00115677 -5.30173e-05)
(-0.000192636 -0.00117804 -5.3017e-05)
(-8.92289e-05 -0.00119035 -5.30186e-05)
(1.48547e-05 -0.00119359 -5.30204e-05)
(0.000118827 -0.00118775 -5.30233e-05)
(0.000221892 -0.00117288 -5.3024e-05)
(0.000323269 -0.00114908 -5.30224e-05)
(0.000422189 -0.00111653 -5.30204e-05)
(0.000517898 -0.00107549 -5.30188e-05)
(0.000609663 -0.00102626 -5.30171e-05)
(0.000696788 -0.000969218 -5.3018e-05)
(0.000778608 -0.0009048 -5.30194e-05)
(0.000854502 -0.000833497 -5.30205e-05)
(0.000923894 -0.00075585 -5.30197e-05)
(0.000986255 -0.000672451 -5.30182e-05)
(0.00104111 -0.000583933 -5.30192e-05)
(0.00108804 -0.000490974 -5.30195e-05)
(0.00112669 -0.000394276 -5.30184e-05)
(0.00115677 -0.000294576 -5.30173e-05)
(0.00117804 -0.000192636 -5.3017e-05)
(0.00119035 -8.92289e-05 -5.30186e-05)
(0.00119359 1.48547e-05 -5.30203e-05)
(0.00118775 0.000118827 -5.30233e-05)
(0.00117288 0.000221892 -5.3024e-05)
(0.00114908 0.000323269 -5.30224e-05)
(0.00111653 0.000422189 -5.30204e-05)
(0.00107549 0.000517898 -5.30188e-05)
(0.00102626 0.000609663 -5.30171e-05)
(0.000969218 0.000696788 -5.30179e-05)
(0.0009048 0.000778608 -5.30194e-05)
(0.000833497 0.000854502 -5.30205e-05)
(0.00075585 0.000923894 -5.30196e-05)
(0.000672451 0.000986255 -5.30182e-05)
(0.000583933 0.00104111 -5.30192e-05)
(0.000490974 0.00108804 -5.30194e-05)
(0.000394276 0.00112669 -5.30183e-05)
(0.000294575 0.00115677 -5.30172e-05)
(0.000192636 0.00117804 -5.3017e-05)
(8.92288e-05 0.00119035 -5.30185e-05)
(-1.48547e-05 0.00119359 -5.30203e-05)
(-0.000118827 0.00118775 -5.30233e-05)
(-0.000221892 0.00117288 -5.3024e-05)
(-0.000323269 0.00114908 -5.30224e-05)
(-0.000422189 0.00111653 -5.30204e-05)
(-0.000517898 0.00107549 -5.30188e-05)
(-0.000609663 0.00102626 -5.30171e-05)
(-0.000696788 0.000969218 -5.3018e-05)
(-0.000778608 0.0009048 -5.30195e-05)
(-0.000854502 0.000833497 -5.30205e-05)
(-0.000923894 0.00075585 -5.30197e-05)
(-0.000986255 0.000672451 -5.30183e-05)
(-0.00104111 0.000583933 -5.30193e-05)
(0 0 0)
(0 0 0)
(0 0 0)
(0 0 0)
(0 0 0)
(0 0 0)
(0 0 0)
(0 0 0)
(0 0 0)
(0 0 0)
(0 0 0)
(0 0 0)
(0 0 0)
(0 0 0)
(0 0 0)
(0 0 0)
(0 0 0)
(0 0 0)
(0 0 0)
(0 0 0)
(0 0 0)
(0 0 0)
(0 0 0)
(0 0 0)
(0 0 0)
(0 0 0)
(0 0 0)
(0 0 0)
(0 0 0)
(0 0 0)
(0 0 0)
(0 0 0)
(0 0 0)
(0 0 0)
(0 0 0)
(0 0 0)
(0 0 0)
(0 0 0)
(0 0 0)
(0 0 0)
(0 0 0)
(0 0 0)
(0 0 0)
(0 0 0)
(0 0 0)
(0 0 0)
(0 0 0)
(0 0 0)
(0 0 0)
(0 0 0)
(0 0 0)
(0 0 0)
(0 0 0)
(0 0 0)
(0 0 0)
(0 0 0)
(0 0 0)
(0 0 0)
(0 0 0)
(0 0 0)
(0 0 0)
(0 0 0)
(0 0 0)
(0 0 0)
(0 0 0)
(0 0 0)
(0 0 0)
(0 0 0)
(0 0 0)
(0 0 0)
(0 0 0)
(0 0 0)
(-0.0018177 0.000403647 -0.000499818)
(-0.00184596 0.000243688 -0.00049982)
(-0.00186017 8.1874e-05 -0.000499823)
(-0.00186023 -8.05664e-05 -0.000499825)
(-0.00184613 -0.00024239 -0.000499823)
(-0.00181798 -0.000402369 -0.000499815)
(-0.00177599 -0.000559283 -0.000499809)
(-0.0017205 -0.00071194 -0.000499807)
(-0.0016519 -0.000859179 -0.000499807)
(-0.00157073 -0.000999879 -0.00049981)
(-0.0014776 -0.00113297 -0.000499817)
(-0.00137324 -0.00125744 -0.000499819)
(-0.00125842 -0.00137235 -0.000499817)
(-0.00113402 -0.0014768 -0.000499815)
(-0.00100099 -0.00157002 -0.000499813)
(-0.000860348 -0.00165128 -0.000499818)
(-0.000713153 -0.00171999 -0.000499823)
(-0.000560533 -0.0017756 -0.00049982)
(-0.000403647 -0.0018177 -0.000499818)
(-0.000243688 -0.00184596 -0.00049982)
(-8.18739e-05 -0.00186017 -0.000499823)
(8.05665e-05 -0.00186023 -0.000499825)
(0.00024239 -0.00184613 -0.000499823)
(0.000402369 -0.00181798 -0.000499815)
(0.000559283 -0.00177599 -0.000499809)
(0.00071194 -0.0017205 -0.000499807)
(0.000859179 -0.0016519 -0.000499807)
(0.000999879 -0.00157073 -0.000499811)
(0.00113297 -0.0014776 -0.000499817)
(0.00125744 -0.00137324 -0.000499819)
(0.00137235 -0.00125842 -0.000499817)
(0.0014768 -0.00113402 -0.000499815)
(0.00157002 -0.00100099 -0.000499813)
(0.00165128 -0.000860348 -0.000499818)
(0.00171999 -0.000713153 -0.000499822)
(0.0017756 -0.000560533 -0.00049982)
(0.0018177 -0.000403647 -0.000499818)
(0.00184596 -0.000243688 -0.00049982)
(0.00186017 -8.18739e-05 -0.000499823)
(0.00186023 8.05665e-05 -0.000499825)
(0.00184613 0.00024239 -0.000499823)
(0.00181798 0.000402369 -0.000499815)
(0.00177599 0.000559283 -0.000499809)
(0.0017205 0.00071194 -0.000499807)
(0.0016519 0.000859179 -0.000499807)
(0.00157073 0.000999879 -0.00049981)
(0.0014776 0.00113297 -0.000499817)
(0.00137324 0.00125744 -0.000499819)
(0.00125842 0.00137235 -0.000499817)
(0.00113402 0.0014768 -0.000499815)
(0.00100099 0.00157002 -0.000499813)
(0.000860348 0.00165128 -0.000499818)
(0.000713153 0.00171999 -0.000499822)
(0.000560533 0.0017756 -0.00049982)
(0.000403647 0.0018177 -0.000499818)
(0.000243688 0.00184596 -0.00049982)
(8.1874e-05 0.00186017 -0.000499823)
(-8.05665e-05 0.00186023 -0.000499825)
(-0.00024239 0.00184613 -0.000499823)
(-0.000402369 0.00181798 -0.000499815)
(-0.000559283 0.00177599 -0.000499809)
(-0.00071194 0.0017205 -0.000499807)
(-0.000859179 0.0016519 -0.000499807)
(-0.000999879 0.00157073 -0.000499811)
(-0.00113297 0.0014776 -0.000499817)
(-0.00125744 0.00137324 -0.000499819)
(-0.00137235 0.00125842 -0.000499817)
(-0.0014768 0.00113402 -0.000499815)
(-0.00157002 0.00100099 -0.000499813)
(-0.00165128 0.000860347 -0.000499818)
(-0.00171999 0.000713153 -0.000499822)
(-0.0017756 0.000560533 -0.00049982)
(-0.00190934 0.000507816 -0.000368247)
(-0.00194633 0.000339475 -0.000368247)
(-0.00196851 0.000168546 -0.000368249)
(-0.00197571 -3.66257e-06 -0.000368248)
(-0.00196787 -0.000175843 -0.000368248)
(-0.00194506 -0.000346686 -0.000368245)
(-0.00190744 -0.000514887 -0.000368241)
(-0.00185531 -0.000679171 -0.000368241)
(-0.00178906 -0.000838286 -0.00036824)
(-0.00170919 -0.000991021 -0.000368241)
(-0.00161631 -0.00113622 -0.000368244)
(-0.00151113 -0.00127276 -0.000368246)
(-0.00139445 -0.00139963 -0.000368245)
(-0.00126716 -0.00151584 -0.000368243)
(-0.00113022 -0.0016205 -0.000368244)
(-0.000984685 -0.00171284 -0.000368245)
(-0.000831653 -0.00179215 -0.000368248)
(-0.000672294 -0.00185781 -0.000368247)
(-0.000507816 -0.00190934 -0.000368247)
(-0.000339475 -0.00194633 -0.000368247)
(-0.000168546 -0.00196851 -0.000368249)
(3.66263e-06 -0.00197571 -0.000368248)
(0.000175843 -0.00196787 -0.000368248)
(0.000346686 -0.00194506 -0.000368245)
(0.000514887 -0.00190744 -0.000368241)
(0.000679171 -0.00185531 -0.000368241)
(0.000838286 -0.00178906 -0.00036824)
(0.000991021 -0.00170919 -0.000368241)
(0.00113622 -0.00161631 -0.000368244)
(0.00127276 -0.00151113 -0.000368246)
(0.00139963 -0.00139445 -0.000368244)
(0.00151584 -0.00126716 -0.000368243)
(0.0016205 -0.00113022 -0.000368244)
(0.00171284 -0.000984686 -0.000368245)
(0.00179215 -0.000831653 -0.000368248)
(0.00185781 -0.000672294 -0.000368246)
(0.00190934 -0.000507816 -0.000368247)
(0.00194633 -0.000339475 -0.000368247)
(0.00196851 -0.000168546 -0.000368249)
(0.00197571 3.66262e-06 -0.000368248)
(0.00196787 0.000175843 -0.000368248)
(0.00194506 0.000346686 -0.000368245)
(0.00190744 0.000514887 -0.000368241)
(0.00185531 0.000679171 -0.000368241)
(0.00178906 0.000838286 -0.00036824)
(0.00170919 0.000991021 -0.000368241)
(0.00161631 0.00113622 -0.000368244)
(0.00151113 0.00127276 -0.000368246)
(0.00139445 0.00139963 -0.000368244)
(0.00126716 0.00151584 -0.000368243)
(0.00113022 0.0016205 -0.000368244)
(0.000984686 0.00171284 -0.000368245)
(0.000831653 0.00179215 -0.000368248)
(0.000672294 0.00185781 -0.000368246)
(0.000507816 0.00190934 -0.000368247)
(0.000339475 0.00194633 -0.000368247)
(0.000168546 0.00196851 -0.000368249)
(-3.66262e-06 0.00197571 -0.000368248)
(-0.000175843 0.00196787 -0.000368248)
(-0.000346686 0.00194506 -0.000368245)
(-0.000514887 0.00190744 -0.000368241)
(-0.000679171 0.00185531 -0.000368241)
(-0.000838286 0.00178906 -0.00036824)
(-0.000991021 0.00170919 -0.000368241)
(-0.00113622 0.00161631 -0.000368244)
(-0.00127276 0.00151113 -0.000368246)
(-0.00139963 0.00139445 -0.000368245)
(-0.00151584 0.00126716 -0.000368243)
(-0.0016205 0.00113022 -0.000368244)
(-0.00171284 0.000984686 -0.000368245)
(-0.00179215 0.000831653 -0.000368248)
(-0.00185781 0.000672294 -0.000368246)
(-0.00202912 0.000724342 -0.000212618)
(-0.00208452 0.000544736 -0.000212618)
(-0.00212407 0.000360986 -0.000212617)
(-0.00214745 0.000174487 -0.000212618)
(-0.00215448 -1.33424e-05 -0.000212618)
(-0.00214512 -0.000201064 -0.000212617)
(-0.00211943 -0.000387259 -0.000212617)
(-0.00207762 -0.000570503 -0.000212617)
(-0.00201999 -0.000749409 -0.000212617)
(-0.00194699 -0.000922612 -0.000212615)
(-0.00185917 -0.00108879 -0.000212615)
(-0.0017572 -0.00124669 -0.000212616)
(-0.00164186 -0.00139509 -0.000212617)
(-0.00151402 -0.00153288 -0.000212617)
(-0.00137466 -0.001659 -0.000212617)
(-0.00122484 -0.0017725 -0.000212618)
(-0.00106569 -0.00187251 -0.000212618)
(-0.000898435 -0.00195826 -0.000212618)
(-0.000724342 -0.00202912 -0.000212618)
(-0.000544736 -0.00208452 -0.000212618)
(-0.000360986 -0.00212407 -0.000212617)
(-0.000174487 -0.00214745 -0.000212618)
(1.33424e-05 -0.00215448 -0.000212618)
(0.000201064 -0.00214512 -0.000212618)
(0.000387258 -0.00211943 -0.000212617)
(0.000570503 -0.00207762 -0.000212617)
(0.000749409 -0.00201999 -0.000212617)
(0.000922612 -0.00194699 -0.000212615)
(0.00108879 -0.00185917 -0.000212615)
(0.00124669 -0.0017572 -0.000212616)
(0.00139509 -0.00164186 -0.000212617)
(0.00153288 -0.00151402 -0.000212617)
(0.001659 -0.00137466 -0.000212617)
(0.0017725 -0.00122484 -0.000212618)
(0.00187251 -0.00106569 -0.000212617)
(0.00195826 -0.000898435 -0.000212617)
(0.00202912 -0.000724342 -0.000212618)
(0.00208452 -0.000544736 -0.000212618)
(0.00212407 -0.000360986 -0.000212617)
(0.00214745 -0.000174487 -0.000212618)
(0.00215448 1.33424e-05 -0.000212618)
(0.00214512 0.000201064 -0.000212617)
(0.00211943 0.000387258 -0.000212617)
(0.00207762 0.000570503 -0.000212617)
(0.00201999 0.000749409 -0.000212617)
(0.00194699 0.000922612 -0.000212615)
(0.00185917 0.00108879 -0.000212615)
(0.0017572 0.00124669 -0.000212616)
(0.00164186 0.00139509 -0.000212617)
(0.00151402 0.00153288 -0.000212617)
(0.00137466 0.001659 -0.000212617)
(0.00122484 0.0017725 -0.000212618)
(0.00106569 0.00187251 -0.000212617)
(0.000898435 0.00195826 -0.000212617)
(0.000724342 0.00202912 -0.000212618)
(0.000544736 0.00208452 -0.000212618)
(0.000360986 0.00212407 -0.000212617)
(0.000174487 0.00214745 -0.000212617)
(-1.33424e-05 0.00215448 -0.000212618)
(-0.000201064 0.00214512 -0.000212617)
(-0.000387258 0.00211943 -0.000212617)
(-0.000570503 0.00207762 -0.000212617)
(-0.000749409 0.00201999 -0.000212617)
(-0.000922612 0.00194699 -0.000212615)
(-0.00108879 0.00185917 -0.000212615)
(-0.00124669 0.0017572 -0.000212616)
(-0.00139509 0.00164186 -0.000212617)
(-0.00153288 0.00151402 -0.000212617)
(-0.001659 0.00137466 -0.000212617)
(-0.0017725 0.00122484 -0.000212618)
(-0.00187251 0.00106569 -0.000212618)
(-0.00195826 0.000898435 -0.000212617)
(-0.00216757 0.0010487 -5.13866e-05)
(-0.00225072 0.000855792 -5.13854e-05)
(-0.00231675 0.00065637 -5.13844e-05)
(-0.00236514 0.000451954 -5.1384e-05)
(-0.00239552 0.000244099 -5.13857e-05)
(-0.00240768 3.43862e-05 -5.13877e-05)
(-0.00240152 -0.000175586 -5.13898e-05)
(-0.00237708 -0.000384223 -5.13917e-05)
(-0.00233454 -0.000589936 -5.139e-05)
(-0.00227425 -0.000791163 -5.13881e-05)
(-0.00219664 -0.000986368 -5.13866e-05)
(-0.00210231 -0.00117406 -5.13863e-05)
(-0.00199199 -0.00135283 -5.13869e-05)
(-0.0018665 -0.00152129 -5.1387e-05)
(-0.00172681 -0.00167817 -5.13875e-05)
(-0.00157398 -0.00182229 -5.13868e-05)
(-0.00140916 -0.00195254 -5.13859e-05)
(-0.00123362 -0.00206792 -5.13865e-05)
(-0.0010487 -0.00216757 -5.13867e-05)
(-0.000855792 -0.00225072 -5.13854e-05)
(-0.00065637 -0.00231675 -5.13845e-05)
(-0.000451954 -0.00236514 -5.13841e-05)
(-0.000244099 -0.00239552 -5.13858e-05)
(-3.43863e-05 -0.00240768 -5.13879e-05)
(0.000175586 -0.00240152 -5.13899e-05)
(0.000384223 -0.00237708 -5.13918e-05)
(0.000589936 -0.00233454 -5.13901e-05)
(0.000791163 -0.00227425 -5.13882e-05)
(0.000986368 -0.00219664 -5.13866e-05)
(0.00117406 -0.00210231 -5.13863e-05)
(0.00135283 -0.00199199 -5.13869e-05)
(0.00152129 -0.0018665 -5.13869e-05)
(0.00167817 -0.00172681 -5.13874e-05)
(0.00182229 -0.00157398 -5.13867e-05)
(0.00195254 -0.00140916 -5.13857e-05)
(0.00206792 -0.00123362 -5.13864e-05)
(0.00216757 -0.0010487 -5.13866e-05)
(0.00225072 -0.000855792 -5.13853e-05)
(0.00231675 -0.00065637 -5.13844e-05)
(0.00236514 -0.000451954 -5.1384e-05)
(0.00239552 -0.000244099 -5.13857e-05)
(0.00240768 -3.43863e-05 -5.13878e-05)
(0.00240152 0.000175586 -5.13899e-05)
(0.00237708 0.000384223 -5.13918e-05)
(0.00233454 0.000589936 -5.13901e-05)
(0.00227425 0.000791163 -5.13882e-05)
(0.00219664 0.000986368 -5.13866e-05)
(0.00210231 0.00117406 -5.13863e-05)
(0.00199199 0.00135283 -5.13869e-05)
(0.0018665 0.00152129 -5.13869e-05)
(0.00172681 0.00167817 -5.13874e-05)
(0.00157398 0.00182229 -5.13866e-05)
(0.00140916 0.00195254 -5.13857e-05)
(0.00123362 0.00206792 -5.13863e-05)
(0.0010487 0.00216757 -5.13865e-05)
(0.000855792 0.00225072 -5.13852e-05)
(0.00065637 0.00231675 -5.13843e-05)
(0.000451954 0.00236514 -5.13839e-05)
(0.000244099 0.00239552 -5.13857e-05)
(3.43863e-05 0.00240768 -5.13878e-05)
(-0.000175586 0.00240152 -5.13899e-05)
(-0.000384223 0.00237708 -5.13918e-05)
(-0.000589936 0.00233454 -5.13901e-05)
(-0.000791163 0.00227425 -5.13882e-05)
(-0.000986368 0.00219664 -5.13867e-05)
(-0.00117406 0.00210231 -5.13864e-05)
(-0.00135283 0.00199199 -5.1387e-05)
(-0.00152129 0.0018665 -5.1387e-05)
(-0.00167817 0.00172681 -5.13874e-05)
(-0.00182229 0.00157398 -5.13867e-05)
(-0.00195254 0.00140916 -5.13858e-05)
(-0.00206792 0.00123362 -5.13864e-05)
(-0.00219497 0.000667042 -0.00075381)
(-0.00224475 0.000473201 -0.000753812)
(-0.00227745 0.000275758 -0.000753812)
(-0.00229282 7.62141e-05 -0.000753813)
(-0.00229074 -0.000123909 -0.000753811)
(-0.00227122 -0.000323089 -0.000753805)
(-0.00223442 -0.000519808 -0.000753803)
(-0.00218061 -0.000712572 -0.000753802)
(-0.00211021 -0.000899916 -0.000753804)
(-0.00202375 -0.00108041 -0.000753803)
(-0.00192188 -0.00125268 -0.000753804)
(-0.00180539 -0.00141541 -0.000753804)
(-0.00167516 -0.00156738 -0.000753804)
(-0.00153218 -0.00170741 -0.000753805)
(-0.00137754 -0.00183445 -0.000753804)
(-0.00121241 -0.00194753 -0.000753806)
(-0.00103806 -0.00204579 -0.00075381)
(-0.000855807 -0.00212848 -0.000753811)
(-0.000667042 -0.00219497 -0.00075381)
(-0.000473201 -0.00224475 -0.000753812)
(-0.000275758 -0.00227745 -0.000753812)
(-7.6214e-05 -0.00229282 -0.000753813)
(0.000123909 -0.00229074 -0.000753811)
(0.000323089 -0.00227122 -0.000753805)
(0.000519808 -0.00223442 -0.000753802)
(0.000712572 -0.00218061 -0.000753801)
(0.000899916 -0.00211021 -0.000753804)
(0.00108041 -0.00202375 -0.000753803)
(0.00125268 -0.00192188 -0.000753804)
(0.00141541 -0.00180539 -0.000753804)
(0.00156738 -0.00167516 -0.000753804)
(0.00170741 -0.00153218 -0.000753805)
(0.00183445 -0.00137754 -0.000753803)
(0.00194753 -0.00121241 -0.000753806)
(0.00204579 -0.00103806 -0.00075381)
(0.00212848 -0.000855807 -0.000753811)
(0.00219497 -0.000667042 -0.00075381)
(0.00224475 -0.000473201 -0.000753812)
(0.00227745 -0.000275758 -0.000753812)
(0.00229282 -7.6214e-05 -0.000753813)
(0.00229074 0.000123909 -0.000753811)
(0.00227122 0.000323089 -0.000753805)
(0.00223442 0.000519808 -0.000753802)
(0.00218061 0.000712572 -0.000753801)
(0.00211021 0.000899915 -0.000753804)
(0.00202375 0.00108041 -0.000753803)
(0.00192188 0.00125268 -0.000753804)
(0.00180539 0.00141541 -0.000753804)
(0.00167516 0.00156738 -0.000753804)
(0.00153218 0.00170741 -0.000753805)
(0.00137754 0.00183445 -0.000753803)
(0.00121241 0.00194753 -0.000753806)
(0.00103806 0.00204579 -0.00075381)
(0.000855807 0.00212848 -0.00075381)
(0.000667042 0.00219497 -0.00075381)
(0.000473201 0.00224475 -0.000753812)
(0.000275758 0.00227745 -0.000753812)
(7.62141e-05 0.00229282 -0.000753813)
(-0.000123909 0.00229074 -0.000753811)
(-0.000323089 0.00227122 -0.000753805)
(-0.000519808 0.00223442 -0.000753802)
(-0.000712572 0.00218061 -0.000753802)
(-0.000899915 0.00211021 -0.000753804)
(-0.00108041 0.00202375 -0.000753803)
(-0.00125268 0.00192188 -0.000753804)
(-0.00141541 0.00180539 -0.000753804)
(-0.00156738 0.00167516 -0.000753804)
(-0.00170741 0.00153218 -0.000753805)
(-0.00183445 0.00137754 -0.000753803)
(-0.00194753 0.00121241 -0.000753806)
(-0.00204579 0.00103806 -0.00075381)
(-0.00212848 0.000855807 -0.000753811)
(-0.00238075 0.000986828 -0.000545618)
(-0.0024577 0.000775575 -0.00054562)
(-0.00251594 0.000558423 -0.00054562)
(-0.00255504 0.000337018 -0.00054562)
(-0.00257469 0.000113048 -0.000545619)
(-0.00257474 -0.000111782 -0.000545617)
(-0.0025552 -0.000335758 -0.000545614)
(-0.00251622 -0.000557182 -0.000545614)
(-0.00245808 -0.000774363 -0.000545613)
(-0.00238124 -0.000985652 -0.000545615)
(-0.00228627 -0.00118944 -0.000545615)
(-0.0021739 -0.00138417 -0.000545616)
(-0.00204499 -0.00156838 -0.000545615)
(-0.00190052 -0.00174064 -0.000545615)
(-0.00174158 -0.00189966 -0.000545615)
(-0.00156938 -0.00204422 -0.000545617)
(-0.00138525 -0.00217322 -0.000545617)
(-0.00119057 -0.00228569 -0.000545617)
(-0.000986828 -0.00238075 -0.000545618)
(-0.000775575 -0.0024577 -0.00054562)
(-0.000558423 -0.00251594 -0.00054562)
(-0.000337018 -0.00255504 -0.00054562)
(-0.000113048 -0.00257469 -0.000545619)
(0.000111782 -0.00257474 -0.000545617)
(0.000335757 -0.0025552 -0.000545614)
(0.000557182 -0.00251622 -0.000545614)
(0.000774363 -0.00245808 -0.000545613)
(0.000985652 -0.00238124 -0.000545615)
(0.00118944 -0.00228627 -0.000545615)
(0.00138417 -0.0021739 -0.000545616)
(0.00156838 -0.00204499 -0.000545614)
(0.00174064 -0.00190052 -0.000545615)
(0.00189966 -0.00174158 -0.000545615)
(0.00204422 -0.00156938 -0.000545617)
(0.00217322 -0.00138525 -0.000545617)
(0.00228569 -0.00119057 -0.000545617)
(0.00238075 -0.000986828 -0.000545618)
(0.0024577 -0.000775575 -0.00054562)
(0.00251594 -0.000558423 -0.00054562)
(0.00255504 -0.000337018 -0.00054562)
(0.00257469 -0.000113048 -0.000545619)
(0.00257474 0.000111782 -0.000545617)
(0.0025552 0.000335757 -0.000545614)
(0.00251622 0.000557182 -0.000545614)