/*--------------------------------*- C++ -*----------------------------------*\
| =========                 |                                                 |
| \\      /  F ield         | OpenFOAM: The Open Source CFD Toolbox           |
|  \\    /   O peration     | Version:  2312                                  |
|   \\  /    A nd           | Website:  www.openfoam.com                      |
|    \\/     M anipulation  |                                                 |
\*---------------------------------------------------------------------------*/
FoamFile
{
    version     2.0;
    format      ascii;
    arch        "LSB;label=32;scalar=64";
    class       volVectorField;
    location    "0.9";
    object      U;
}
// * * * * * * * * * * * * * * * * * * * * * * * * * * * * * * * * * * * * * //

dimensions      [0 1 -1 0 0 0 0];

internalField   nonuniform List<vector> 
3240
(
(-0.000444655 0.000146451 5.30717e-05)
(-0.000455727 0.000107141 5.30741e-05)
(-0.000463331 6.70131e-05 5.30712e-05)
(-0.000467407 2.63739e-05 5.30697e-05)
(-0.000467928 -1.4466e-05 5.30702e-05)
(-0.000464885 -5.51933e-05 5.30702e-05)
(-0.000458304 -9.54998e-05 5.3072e-05)
(-0.000448237 -0.000135079 5.30716e-05)
(-0.000434761 -0.000173631 5.30704e-05)
(-0.000417975 -0.000210863 5.30694e-05)
(-0.000398007 -0.000246489 5.30689e-05)
(-0.000375008 -0.000280242 5.30675e-05)
(-0.000349156 -0.000311861 5.30692e-05)
(-0.000320646 -0.000341105 5.30703e-05)
(-0.000289698 -0.000367749 5.30717e-05)
(-0.000256546 -0.000391599 5.30704e-05)
(-0.000221438 -0.00041247 5.30677e-05)
(-0.000184646 -0.0004302 5.30699e-05)
(-0.000146449 -0.000444656 5.30699e-05)
(-0.00010714 -0.000455728 5.30721e-05)
(-6.70115e-05 -0.000463332 5.30691e-05)
(-2.63722e-05 -0.000467408 5.30676e-05)
(1.44677e-05 -0.000467929 5.3068e-05)
(5.5195e-05 -0.000464885 5.3068e-05)
(9.55016e-05 -0.000458304 5.30697e-05)
(0.00013508 -0.000448238 5.30693e-05)
(0.000173633 -0.000434761 5.30682e-05)
(0.000210865 -0.000417975 5.30672e-05)
(0.000246491 -0.000398007 5.30666e-05)
(0.000280244 -0.000375008 5.30653e-05)
(0.000311863 -0.000349156 5.30671e-05)
(0.000341107 -0.000320646 5.30684e-05)
(0.00036775 -0.000289699 5.30699e-05)
(0.000391601 -0.000256546 5.30687e-05)
(0.000412472 -0.000221438 5.30662e-05)
(0.000430201 -0.000184646 5.30685e-05)
(0.000444657 -0.000146449 5.30686e-05)
(0.000455729 -0.00010714 5.3071e-05)
(0.000463333 -6.70115e-05 5.30682e-05)
(0.000467409 -2.63723e-05 5.30669e-05)
(0.00046793 1.44676e-05 5.30675e-05)
(0.000464886 5.51948e-05 5.30677e-05)
(0.000458305 9.55013e-05 5.30696e-05)
(0.000448239 0.00013508 5.30694e-05)
(0.000434762 0.000173632 5.30684e-05)
(0.000417976 0.000210864 5.30676e-05)
(0.000398008 0.000246491 5.30673e-05)
(0.000375009 0.000280244 5.30662e-05)
(0.000349157 0.000311862 5.30681e-05)
(0.000320647 0.000341106 5.30696e-05)
(0.0002897 0.00036775 5.30713e-05)
(0.000256547 0.0003916 5.30702e-05)
(0.000221439 0.000412471 5.30678e-05)
(0.000184648 0.0004302 5.30703e-05)
(0.000146451 0.000444656 5.30705e-05)
(0.000107141 0.000455728 5.3073e-05)
(6.70132e-05 0.000463332 5.30703e-05)
(2.63741e-05 0.000467408 5.30691e-05)
(-1.44658e-05 0.000467929 5.30697e-05)
(-5.5193e-05 0.000464886 5.30699e-05)
(-9.54995e-05 0.000458305 5.30719e-05)
(-0.000135078 0.000448238 5.30717e-05)
(-0.000173631 0.000434762 5.30707e-05)
(-0.000210862 0.000417976 5.30699e-05)
(-0.000246489 0.000398008 5.30695e-05)
(-0.000280242 0.000375009 5.30683e-05)
(-0.00031186 0.000349157 5.30702e-05)
(-0.000341104 0.000320647 5.30716e-05)
(-0.000367748 0.0002897 5.30731e-05)
(-0.000391598 0.000256547 5.30719e-05)
(-0.000412469 0.000221439 5.30694e-05)
(-0.000430199 0.000184648 5.30717e-05)
(-0.000563098 -0.0002788 -5.6868e-05)
(-0.000536657 -0.000326816 -5.68666e-05)
(-0.000506132 -0.000372346 -5.68673e-05)
(-0.000471753 -0.000415042 -5.68674e-05)
(-0.000433783 -0.00045458 -5.6868e-05)
(-0.000392513 -0.000490658 -5.68686e-05)
(-0.000348254 -0.000523 -5.6869e-05)
(-0.000301346 -0.000551361 -5.68694e-05)
(-0.000252147 -0.000575526 -5.68703e-05)
(-0.000201028 -0.000595312 -5.68714e-05)
(-0.00014838 -0.000610567 -5.6871e-05)
(-9.4601e-05 -0.000621176 -5.68705e-05)
(-4.01002e-05 -0.000627059 -5.68698e-05)
(1.47045e-05 -0.000628167 -5.68697e-05)
(6.93969e-05 -0.000624494 -5.68697e-05)
(0.000123561 -0.000616069 -5.68698e-05)
(0.000176785 -0.000602956 -5.6871e-05)
(0.000228663 -0.000585254 -5.68702e-05)
(0.000278801 -0.000563098 -5.68702e-05)
(0.000326817 -0.000536656 -5.68689e-05)
(0.000372347 -0.000506131 -5.68698e-05)
(0.000415043 -0.000471752 -5.68699e-05)
(0.000454581 -0.000433783 -5.68706e-05)
(0.000490659 -0.000392512 -5.68712e-05)
(0.000523001 -0.000348253 -5.68717e-05)
(0.000551361 -0.000301345 -5.68721e-05)
(0.000575527 -0.000252146 -5.6873e-05)
(0.000595313 -0.000201028 -5.68741e-05)
(0.000610567 -0.00014838 -5.68736e-05)
(0.000621177 -9.46002e-05 -5.6873e-05)
(0.000627059 -4.00994e-05 -5.68722e-05)
(0.000628167 1.47051e-05 -5.68721e-05)
(0.000624494 6.93974e-05 -5.68719e-05)
(0.00061607 0.000123561 -5.68718e-05)
(0.000602956 0.000176786 -5.68729e-05)
(0.000585254 0.000228663 -5.68719e-05)
(0.000563098 0.000278801 -5.68717e-05)
(0.000536657 0.000326817 -5.68702e-05)
(0.000506131 0.000372347 -5.68709e-05)
(0.000471752 0.000415043 -5.68709e-05)
(0.000433783 0.000454581 -5.68713e-05)
(0.000392512 0.000490659 -5.68717e-05)
(0.000348254 0.000523001 -5.68719e-05)
(0.000301346 0.000551361 -5.68722e-05)
(0.000252147 0.000575526 -5.68728e-05)
(0.000201028 0.000595313 -5.68736e-05)
(0.000148381 0.000610567 -5.68729e-05)
(9.46013e-05 0.000621177 -5.68721e-05)
(4.01006e-05 0.00062706 -5.68711e-05)
(-1.47039e-05 0.000628168 -5.68707e-05)
(-6.93961e-05 0.000624494 -5.68703e-05)
(-0.00012356 0.00061607 -5.68701e-05)
(-0.000176784 0.000602957 -5.6871e-05)
(-0.000228662 0.000585255 -5.68699e-05)
(-0.0002788 0.000563099 -5.68695e-05)
(-0.000326816 0.000536657 -5.68679e-05)
(-0.000372346 0.000506132 -5.68685e-05)
(-0.000415042 0.000471753 -5.68683e-05)
(-0.00045458 0.000433784 -5.68687e-05)
(-0.000490658 0.000392513 -5.68691e-05)
(-0.000523 0.000348255 -5.68693e-05)
(-0.00055136 0.000301347 -5.68695e-05)
(-0.000575526 0.000252147 -5.68701e-05)
(-0.000595312 0.000201029 -5.6871e-05)
(-0.000610567 0.000148381 -5.68703e-05)
(-0.000621176 9.46021e-05 -5.68696e-05)
(-0.000627059 4.01013e-05 -5.68687e-05)
(-0.000628167 -1.47033e-05 -5.68684e-05)
(-0.000624494 -6.93956e-05 -5.68681e-05)
(-0.00061607 -0.000123559 -5.6868e-05)
(-0.000602956 -0.000176784 -5.68691e-05)
(-0.000585254 -0.000228662 -5.68681e-05)
(-0.000624947 -0.000243415 -9.33637e-05)
(-0.000601354 -0.000296956 -9.33633e-05)
(-0.000573185 -0.000348238 -9.3362e-05)
(-0.000540653 -0.00039687 -9.33614e-05)
(-0.000504007 -0.000442482 -9.3362e-05)
(-0.000463522 -0.000484725 -9.33637e-05)
(-0.000419509 -0.00052328 -9.33654e-05)
(-0.000372306 -0.000557851 -9.33679e-05)
(-0.000322271 -0.000588176 -9.33686e-05)
(-0.000269783 -0.000614024 -9.33695e-05)
(-0.000215242 -0.000635199 -9.33681e-05)
(-0.000159063 -0.000651541 -9.33662e-05)
(-0.00010167 -0.000662926 -9.3364e-05)
(-4.35049e-05 -0.000669266 -9.33643e-05)
(1.49925e-05 -0.00067051 -9.33658e-05)
(7.33736e-05 -0.000666652 -9.33668e-05)
(0.000131198 -0.000657719 -9.33663e-05)
(0.000188022 -0.000643782 -9.33661e-05)
(0.000243417 -0.000624945 -9.33664e-05)
(0.000296957 -0.000601351 -9.33661e-05)
(0.000348239 -0.000573182 -9.3365e-05)
(0.00039687 -0.00054065 -9.33645e-05)
(0.000442483 -0.000504005 -9.33652e-05)
(0.000484726 -0.000463519 -9.3367e-05)
(0.00052328 -0.000419507 -9.33687e-05)
(0.00055785 -0.000372303 -9.33713e-05)
(0.000588175 -0.000322268 -9.33719e-05)
(0.000614024 -0.000269781 -9.33728e-05)
(0.000635198 -0.00021524 -9.33713e-05)
(0.00065154 -0.000159061 -9.33693e-05)
(0.000662925 -0.000101668 -9.33669e-05)
(0.000669265 -4.35035e-05 -9.33671e-05)
(0.000670509 1.49937e-05 -9.33685e-05)
(0.00066665 7.33745e-05 -9.33692e-05)
(0.000657718 0.000131199 -9.33686e-05)
(0.000643781 0.000188023 -9.33681e-05)
(0.000624944 0.000243417 -9.33682e-05)
(0.000601351 0.000296957 -9.33677e-05)
(0.000573182 0.000348239 -9.33664e-05)
(0.00054065 0.00039687 -9.33656e-05)
(0.000504004 0.000442483 -9.33661e-05)
(0.000463519 0.000484726 -9.33675e-05)
(0.000419507 0.00052328 -9.3369e-05)
(0.000372304 0.00055785 -9.33713e-05)
(0.000322269 0.000588175 -9.33717e-05)
(0.000269782 0.000614024 -9.33722e-05)
(0.000215242 0.000635198 -9.33705e-05)
(0.000159063 0.00065154 -9.33682e-05)
(0.00010167 0.000662926 -9.33656e-05)
(4.3505e-05 0.000669266 -9.33655e-05)
(-1.49921e-05 0.00067051 -9.33666e-05)
(-7.3373e-05 0.000666652 -9.33672e-05)
(-0.000131197 0.000657719 -9.33663e-05)
(-0.000188021 0.000643782 -9.33656e-05)
(-0.000243416 0.000624946 -9.33656e-05)
(-0.000296956 0.000601353 -9.33649e-05)
(-0.000348238 0.000573184 -9.33634e-05)
(-0.00039687 0.000540653 -9.33625e-05)
(-0.000442482 0.000504007 -9.33629e-05)
(-0.000484725 0.000463522 -9.33643e-05)
(-0.00052328 0.00041951 -9.33658e-05)
(-0.00055785 0.000372306 -9.3368e-05)
(-0.000588176 0.000322271 -9.33684e-05)
(-0.000614024 0.000269784 -9.3369e-05)
(-0.000635199 0.000215244 -9.33673e-05)
(-0.000651541 0.000159065 -9.33652e-05)
(-0.000662927 0.000101671 -9.33626e-05)
(-0.000669267 4.35064e-05 -9.33627e-05)
(-0.000670511 -1.4991e-05 -9.3364e-05)
(-0.000666653 -7.3372e-05 -9.33647e-05)
(-0.00065772 -0.000131197 -9.3364e-05)
(-0.000643783 -0.000188021 -9.33636e-05)
(-0.0013164 0.000101489 0.000267877)
(-0.00132023 -1.36248e-05 0.000267879)
(-0.00131402 -0.000128641 0.000267873)
(-0.00129781 -0.00024268 0.000267871)
(-0.00127172 -0.000354872 0.00026787)
(-0.00123595 -0.00046436 0.000267873)
(-0.00119077 -0.000570313 0.000267877)
(-0.00113654 -0.000671923 0.00026788)
(-0.00107365 -0.000768418 0.000267879)
(-0.0010026 -0.000859067 0.000267876)
(-0.000923909 -0.000943182 0.000267869)
(-0.000838187 -0.00102012 0.000267865)
(-0.000746088 -0.0010893 0.000267868)
(-0.00064831 -0.00115018 0.000267871)
(-0.000545601 -0.0012023 0.000267873)
(-0.000438738 -0.00124527 0.000267871)
(-0.000328535 -0.00127878 0.000267865)
(-0.00021583 -0.00130255 0.000267868)
(-0.000101485 -0.0013164 0.000267871)
(1.36292e-05 -0.00132023 0.000267873)
(0.000128645 -0.00131402 0.000267866)
(0.000242684 -0.00129781 0.000267864)
(0.000354877 -0.00127172 0.000267863)
(0.000464365 -0.00123595 0.000267865)
(0.000570317 -0.00119077 0.00026787)
(0.000671927 -0.00113654 0.000267872)
(0.000768423 -0.00107365 0.000267872)
(0.000859071 -0.0010026 0.000267868)
(0.000943186 -0.000923908 0.000267862)
(0.00102013 -0.000838186 0.000267858)
(0.0010893 -0.000746087 0.000267861)
(0.00115018 -0.00064831 0.000267865)
(0.0012023 -0.0005456 0.000267867)
(0.00124528 -0.000438738 0.000267865)
(0.00127878 -0.000328534 0.00026786)
(0.00130255 -0.000215829 0.000267864)
(0.0013164 -0.000101484 0.000267867)
(0.00132024 1.36295e-05 0.000267869)
(0.00131402 0.000128645 0.000267863)
(0.00129781 0.000242684 0.000267861)
(0.00127173 0.000354877 0.000267861)
(0.00123595 0.000464364 0.000267864)
(0.00119078 0.000570317 0.00026787)
(0.00113654 0.000671927 0.000267873)
(0.00107365 0.000768422 0.000267873)
(0.0010026 0.00085907 0.00026787)
(0.000923911 0.000943185 0.000267864)
(0.00083819 0.00102012 0.000267861)
(0.00074609 0.0010893 0.000267864)
(0.000648313 0.00115018 0.000267869)
(0.000545604 0.0012023 0.000267872)
(0.000438742 0.00124528 0.000267871)
(0.000328538 0.00127878 0.000267866)
(0.000215834 0.00130255 0.00026787)
(0.000101489 0.0013164 0.000267874)
(-1.3625e-05 0.00132024 0.000267876)
(-0.000128641 0.00131402 0.00026787)
(-0.00024268 0.00129781 0.000267869)
(-0.000354872 0.00127173 0.000267869)
(-0.00046436 0.00123596 0.000267872)
(-0.000570313 0.00119078 0.000267877)
(-0.000671922 0.00113654 0.00026788)
(-0.000768418 0.00107366 0.00026788)
(-0.000859066 0.0010026 0.000267877)
(-0.000943181 0.000923912 0.000267871)
(-0.00102012 0.00083819 0.000267868)
(-0.0010893 0.000746091 0.000267871)
(-0.00115018 0.000648314 0.000267876)
(-0.0012023 0.000545605 0.000267877)
(-0.00124527 0.000438742 0.000267876)
(-0.00127878 0.000328539 0.000267871)
(-0.00130255 0.000215834 0.000267874)
(-0.00154131 -0.000439557 0.000142178)
(-0.00149713 -0.000572218 0.00014218)
(-0.00144156 -0.000700525 0.000142178)
(-0.00137502 -0.000823502 0.000142179)
(-0.00129802 -0.000940213 0.000142178)
(-0.00121113 -0.00104976 0.000142177)
(-0.00111502 -0.00115133 0.000142177)
(-0.00101044 -0.00124412 0.000142176)
(-0.000898159 -0.00132745 0.000142176)
(-0.000779049 -0.00140068 0.000142176)
(-0.000654009 -0.00146325 0.000142175)
(-0.00052399 -0.00151469 0.000142173)
(-0.000389981 -0.00155459 0.000142173)
(-0.000253005 -0.00158266 0.000142173)
(-0.000114104 -0.00159869 0.000142172)
(2.56651e-05 -0.00160255 0.000142173)
(0.000165239 -0.00159422 0.000142171)
(0.000303555 -0.00157375 0.000142172)
(0.000439561 -0.0015413 0.000142171)
(0.000572222 -0.00149713 0.000142173)
(0.000700529 -0.00144156 0.000142171)
(0.000823506 -0.00137502 0.000142171)
(0.000940216 -0.00129801 0.00014217)
(0.00104977 -0.00121113 0.000142169)
(0.00115133 -0.00111502 0.000142169)
(0.00124413 -0.00101043 0.000142168)
(0.00132746 -0.000898157 0.000142168)
(0.00140068 -0.000779047 0.000142168)
(0.00146325 -0.000654007 0.000142167)
(0.00151469 -0.000523988 0.000142165)
(0.00155459 -0.000389979 0.000142165)
(0.00158267 -0.000253003 0.000142166)
(0.00159869 -0.000114103 0.000142166)
(0.00160255 2.56662e-05 0.000142166)
(0.00159422 0.00016524 0.000142166)
(0.00157375 0.000303556 0.000142167)
(0.00154131 0.000439562 0.000142167)
(0.00149713 0.000572222 0.000142169)
(0.00144156 0.000700529 0.000142168)
(0.00137502 0.000823506 0.000142168)
(0.00129802 0.000940216 0.000142168)
(0.00121113 0.00104977 0.000142168)
(0.00111502 0.00115133 0.000142168)
(0.00101044 0.00124413 0.000142168)
(0.00089816 0.00132746 0.000142168)
(0.00077905 0.00140068 0.000142169)
(0.00065401 0.00146325 0.000142169)
(0.000523991 0.00151469 0.000142168)
(0.000389983 0.00155459 0.000142169)
(0.000253007 0.00158267 0.00014217)
(0.000114106 0.00159869 0.000142171)
(-2.56622e-05 0.00160255 0.000142172)
(-0.000165236 0.00159422 0.000142172)
(-0.000303552 0.00157375 0.000142173)
(-0.000439558 0.00154131 0.000142173)
(-0.000572218 0.00149713 0.000142176)
(-0.000700525 0.00144156 0.000142175)
(-0.000823502 0.00137502 0.000142176)
(-0.000940213 0.00129802 0.000142176)
(-0.00104976 0.00121113 0.000142176)
(-0.00115133 0.00111503 0.000142176)
(-0.00124412 0.00101044 0.000142176)
(-0.00132745 0.000898162 0.000142176)
(-0.00140068 0.000779052 0.000142177)
(-0.00146325 0.000654013 0.000142177)
(-0.00151469 0.000523993 0.000142176)
(-0.00155459 0.000389985 0.000142176)
(-0.00158266 0.000253009 0.000142177)
(-0.00159869 0.000114108 0.000142177)
(-0.00160255 -2.56611e-05 0.000142178)
(-0.00159422 -0.000165235 0.000142177)
(-0.00157375 -0.000303551 0.000142178)
(-0.00169987 -0.000502616 0.00014823)
(-0.0016496 -0.000648857 0.000148231)
(-0.00158677 -0.000790161 0.000148232)
(-0.00151186 -0.000925452 0.000148235)
(-0.00142545 -0.0010537 0.000148235)
(-0.00132819 -0.00117393 0.000148233)
(-0.00122082 -0.00128522 0.000148229)
(-0.00110415 -0.00138673 0.000148224)
(-0.00097909 -0.00147768 0.000148222)
(-0.000846579 -0.00155739 0.000148223)
(-0.000707626 -0.00162525 0.000148224)
(-0.000563286 -0.00168074 0.000148226)
(-0.000414654 -0.00172344 0.000148227)
(-0.000262868 -0.00175302 0.000148226)
(-0.00010908 -0.00176926 0.000148225)
(4.55361e-05 -0.00177203 0.000148223)
(0.000199806 -0.00176132 0.000148224)
(0.000352554 -0.0017372 0.000148225)
(0.00050262 -0.00169987 0.000148223)
(0.000648861 -0.00164959 0.000148224)
(0.000790164 -0.00158676 0.000148225)
(0.000925455 -0.00151186 0.000148227)
(0.0010537 -0.00142545 0.000148227)
(0.00117393 -0.00132818 0.000148224)
(0.00128522 -0.00122081 0.000148221)
(0.00138673 -0.00110415 0.000148216)
(0.00147768 -0.000979087 0.000148213)
(0.00155739 -0.000846576 0.000148214)
(0.00162525 -0.000707623 0.000148216)
(0.00168074 -0.000563283 0.000148218)
(0.00172344 -0.000414652 0.000148219)
(0.00175302 -0.000262865 0.000148218)
(0.00176926 -0.000109078 0.000148218)
(0.00177203 4.55375e-05 0.000148217)
(0.00176132 0.000199807 0.000148218)
(0.0017372 0.000352555 0.000148219)
(0.00169987 0.00050262 0.000148218)
(0.00164959 0.000648861 0.000148219)
(0.00158676 0.000790164 0.000148221)
(0.00151186 0.000925455 0.000148224)
(0.00142545 0.0010537 0.000148225)
(0.00132818 0.00117393 0.000148223)
(0.00122081 0.00128522 0.00014822)
(0.00110415 0.00138673 0.000148215)
(0.000979089 0.00147768 0.000148214)
(0.000846579 0.00155739 0.000148215)
(0.000707626 0.00162525 0.000148218)
(0.000563286 0.00168074 0.00014822)
(0.000414656 0.00172344 0.000148222)
(0.000262869 0.00175302 0.000148222)
(0.000109082 0.00176926 0.000148222)
(-4.55334e-05 0.00177203 0.000148222)
(-0.000199803 0.00176132 0.000148224)
(-0.000352551 0.00173721 0.000148226)
(-0.000502617 0.00169987 0.000148225)
(-0.000648857 0.0016496 0.000148227)
(-0.000790161 0.00158677 0.000148229)
(-0.000925452 0.00151186 0.000148232)
(-0.0010537 0.00142545 0.000148233)
(-0.00117393 0.00132819 0.000148231)
(-0.00128522 0.00122082 0.000148228)
(-0.00138673 0.00110415 0.000148224)
(-0.00147768 0.000979093 0.000148222)
(-0.00155739 0.000846582 0.000148224)
(-0.00162525 0.00070763 0.000148226)
(-0.00168074 0.000563289 0.000148228)
(-0.00172344 0.000414658 0.00014823)
(-0.00175302 0.000262871 0.00014823)
(-0.00176926 0.000109084 0.000148229)
(-0.00177203 -4.5532e-05 0.000148228)
(-0.00176132 -0.000199802 0.00014823)
(-0.00173721 -0.00035255 0.000148231)
(-0.00174043 -0.000166216 0.000522578)
(-0.00171932 -0.000317271 0.000522579)
(-0.00168512 -0.000465913 0.000522577)
(-0.0016381 -0.000611009 0.000522577)
(-0.00157862 -0.000751456 0.000522575)
(-0.00150712 -0.000886182 0.000522577)
(-0.00142414 -0.00101416 0.000522581)
(-0.00133033 -0.00113443 0.000522579)
(-0.0012264 -0.00124606 0.00052258)
(-0.00111313 -0.0013482 0.000522578)
(-0.000991392 -0.00144009 0.000522577)
(-0.000862107 -0.00152101 0.000522572)
(-0.000726262 -0.00159036 0.000522572)
(-0.000584889 -0.00164761 0.000522573)
(-0.000439064 -0.00169232 0.000522572)
(-0.000289898 -0.00172414 0.000522573)
(-0.000138525 -0.00174285 0.000522568)
(1.39023e-05 -0.0017483 0.000522566)
(0.000166223 -0.00174043 0.000522568)
(0.000317278 -0.00171932 0.000522568)
(0.000465919 -0.00168512 0.000522565)
(0.000611016 -0.0016381 0.000522565)
(0.000751463 -0.00157862 0.000522562)
(0.000886189 -0.00150712 0.000522564)
(0.00101417 -0.00142414 0.000522568)
(0.00113443 -0.00133033 0.000522567)
(0.00124606 -0.0012264 0.000522567)
(0.00134821 -0.00111313 0.000522565)
(0.00144009 -0.000991392 0.000522565)
(0.00152102 -0.000862107 0.00052256)
(0.00159037 -0.000726261 0.000522561)
(0.00164762 -0.000584888 0.000522562)
(0.00169232 -0.000439063 0.000522562)
(0.00172415 -0.000289897 0.000522563)
(0.00174286 -0.000138524 0.00052256)
(0.0017483 1.39033e-05 0.000522558)
(0.00174044 0.000166224 0.00052256)
(0.00171932 0.000317279 0.000522562)
(0.00168513 0.00046592 0.00052256)
(0.00163811 0.000611016 0.000522561)
(0.00157862 0.000751463 0.000522559)
(0.00150712 0.000886189 0.000522563)
(0.00142415 0.00101417 0.000522568)
(0.00133034 0.00113443 0.000522567)
(0.0012264 0.00124606 0.000522569)
(0.00111314 0.00134821 0.000522568)
(0.000991397 0.00144009 0.000522569)
(0.000862112 0.00152102 0.000522565)
(0.000726266 0.00159037 0.000522567)
(0.000584893 0.00164762 0.000522569)
(0.000439069 0.00169232 0.00052257)
(0.000289903 0.00172415 0.000522572)
(0.00013853 0.00174285 0.000522569)
(-1.38971e-05 0.0017483 0.000522569)
(-0.000166217 0.00174044 0.000522572)
(-0.000317272 0.00171932 0.000522573)
(-0.000465913 0.00168513 0.000522572)
(-0.000611009 0.00163811 0.000522573)
(-0.000751456 0.00157862 0.000522572)
(-0.000886182 0.00150712 0.000522575)
(-0.00101416 0.00142415 0.000522581)
(-0.00113443 0.00133034 0.00052258)
(-0.00124606 0.00122641 0.000522582)
(-0.0013482 0.00111314 0.000522581)
(-0.00144009 0.000991397 0.000522581)
(-0.00152101 0.000862113 0.000522577)
(-0.00159036 0.000726267 0.000522578)
(-0.00164761 0.000584894 0.00052258)
(-0.00169232 0.00043907 0.00052258)
(-0.00172414 0.000289904 0.000522581)
(-0.00174285 0.000138531 0.000522578)
(-0.00174829 -1.38961e-05 0.000522577)
(-0.00204373 -0.000365075 0.000452824)
(-0.00200413 -0.000541808 0.000452824)
(-0.00194928 -0.000714418 0.000452823)
(-0.0018796 -0.000881592 0.000452823)
(-0.00179561 -0.00104206 0.000452823)
(-0.00169796 -0.00119459 0.000452823)
(-0.00158738 -0.00133803 0.000452823)
(-0.00146472 -0.00147129 0.000452823)
(-0.00133091 -0.00159335 0.000452822)
(-0.00118698 -0.00170328 0.000452821)
(-0.00103401 -0.00180025 0.000452819)
(-0.000873176 -0.00188352 0.000452817)
(-0.000705694 -0.00195246 0.000452818)
(-0.00053284 -0.00200654 0.000452817)
(-0.000355931 -0.00204534 0.000452816)
(-0.000176314 -0.00206858 0.000452815)
(4.64511e-06 -0.00207607 0.000452815)
(0.000185569 -0.00206777 0.000452815)
(0.000365081 -0.00204373 0.000452813)
(0.000541814 -0.00200413 0.000452813)
(0.000714425 -0.00194928 0.000452812)
(0.000881598 -0.0018796 0.000452811)
(0.00104206 -0.00179561 0.000452811)
(0.0011946 -0.00169795 0.000452811)
(0.00133804 -0.00158738 0.000452811)
(0.00147129 -0.00146472 0.00045281)
(0.00159335 -0.00133091 0.000452809)
(0.00170329 -0.00118698 0.000452808)
(0.00180026 -0.00103401 0.000452807)
(0.00188353 -0.000873174 0.000452805)
(0.00195246 -0.000705692 0.000452806)
(0.00200654 -0.000532839 0.000452806)
(0.00204534 -0.00035593 0.000452806)
(0.00206858 -0.000176312 0.000452806)
(0.00207608 4.64636e-06 0.000452806)
(0.00206777 0.00018557 0.000452807)
(0.00204373 0.000365082 0.000452806)
(0.00200414 0.000541815 0.000452807)
(0.00194929 0.000714425 0.000452806)
(0.0018796 0.000881598 0.000452807)
(0.00179562 0.00104206 0.000452807)
(0.00169796 0.00119459 0.000452808)
(0.00158738 0.00133804 0.00045281)
(0.00146472 0.00147129 0.00045281)
(0.00133092 0.00159335 0.00045281)
(0.00118698 0.00170329 0.00045281)
(0.00103402 0.00180026 0.00045281)
(0.000873179 0.00188353 0.00045281)
(0.000705697 0.00195246 0.000452812)
(0.000532844 0.00200654 0.000452813)
(0.000355936 0.00204534 0.000452813)
(0.000176318 0.00206858 0.000452814)
(-4.64035e-06 0.00207608 0.000452815)
(-0.000185564 0.00206777 0.000452816)
(-0.000365076 0.00204373 0.000452817)
(-0.000541809 0.00200414 0.000452818)
(-0.000714419 0.00194929 0.000452818)
(-0.000881592 0.0018796 0.000452819)
(-0.00104206 0.00179562 0.00045282)
(-0.00119459 0.00169796 0.000452821)
(-0.00133803 0.00158738 0.000452822)
(-0.00147129 0.00146472 0.000452823)
(-0.00159335 0.00133092 0.000452823)
(-0.00170328 0.00118699 0.000452823)
(-0.00180025 0.00103402 0.000452822)
(-0.00188352 0.000873181 0.000452821)
(-0.00195246 0.000705699 0.000452823)
(-0.00200653 0.000532846 0.000452824)
(-0.00204534 0.000355937 0.000452824)
(-0.00206858 0.00017632 0.000452823)
(-0.00207607 -4.6391e-06 0.000452823)
(-0.00206777 -0.000185563 0.000452824)
(-0.00231742 -0.000395096 0.000381918)
(-0.00227417 -0.000595569 0.000381918)
(-0.00221361 -0.00079151 0.000381918)
(-0.0021362 -0.000981427 0.000381918)
(-0.00204253 -0.00116388 0.000381919)
(-0.00193332 -0.00133747 0.000381919)
(-0.00180939 -0.00150088 0.000381919)
(-0.0016717 -0.00165286 0.000381917)
(-0.00152128 -0.00179227 0.000381915)
(-0.00135928 -0.00191804 0.000381914)
(-0.00118694 -0.00202921 0.000381912)
(-0.00100557 -0.00212494 0.000381912)
(-0.000816541 -0.00220449 0.000381911)
(-0.0006213 -0.00226727 0.00038191)
(-0.000421329 -0.00231279 0.000381909)
(-0.000218154 -0.00234071 0.000381909)
(-1.3317e-05 -0.00235082 0.000381909)
(0.000191621 -0.00234304 0.00038191)
(0.000395101 -0.00231742 0.000381909)
(0.000595575 -0.00227416 0.000381908)
(0.000791515 -0.0022136 0.000381908)
(0.000981432 -0.00213619 0.000381908)
(0.00116388 -0.00204253 0.000381908)
(0.00133747 -0.00193332 0.000381908)
(0.00150088 -0.00180939 0.000381907)
(0.00165287 -0.00167169 0.000381906)
(0.00179227 -0.00152127 0.000381904)
(0.00191804 -0.00135928 0.000381903)
(0.00202921 -0.00118694 0.000381901)
(0.00212494 -0.00100557 0.000381901)
(0.00220449 -0.000816539 0.0003819)
(0.00226727 -0.000621298 0.0003819)
(0.00231279 -0.000421328 0.0003819)
(0.00234071 -0.000218152 0.0003819)
(0.00235082 -1.3316e-05 0.000381901)
(0.00234304 0.000191621 0.000381902)
(0.00231742 0.000395101 0.000381903)
(0.00227417 0.000595575 0.000381902)
(0.00221361 0.000791515 0.000381903)
(0.0021362 0.000981431 0.000381904)
(0.00204253 0.00116388 0.000381905)
(0.00193332 0.00133747 0.000381906)
(0.00180939 0.00150088 0.000381906)
(0.0016717 0.00165287 0.000381906)
(0.00152128 0.00179227 0.000381905)
(0.00135928 0.00191804 0.000381905)
(0.00118694 0.00202921 0.000381904)
(0.00100557 0.00212494 0.000381904)
(0.000816544 0.00220449 0.000381905)
(0.000621303 0.00226727 0.000381906)
(0.000421333 0.00231279 0.000381906)
(0.000218158 0.00234071 0.000381907)
(1.33216e-05 0.00235082 0.000381909)
(-0.000191616 0.00234304 0.000381911)
(-0.000395096 0.00231742 0.000381912)
(-0.000595569 0.00227417 0.000381912)
(-0.00079151 0.00221361 0.000381913)
(-0.000981427 0.0021362 0.000381914)
(-0.00116387 0.00204253 0.000381916)
(-0.00133746 0.00193332 0.000381917)
(-0.00150088 0.0018094 0.000381917)
(-0.00165286 0.0016717 0.000381917)
(-0.00179227 0.00152128 0.000381916)
(-0.00191804 0.00135929 0.000381916)
(-0.00202921 0.00118695 0.000381915)
(-0.00212494 0.00100557 0.000381915)
(-0.00220449 0.000816546 0.000381915)
(-0.00226727 0.000621305 0.000381916)
(-0.00231279 0.000421335 0.000381916)
(-0.00234071 0.000218159 0.000381916)
(-0.00235082 1.33225e-05 0.000381917)
(-0.00234304 -0.000191615 0.000381918)
(-0.00162299 -0.000377171 0.000645623)
(-0.00158394 -0.000517188 0.000645622)
(-0.00153284 -0.000653269 0.000645619)
(-0.00147007 -0.000784379 0.000645619)
(-0.00139611 -0.00090952 0.000645619)
(-0.00131153 -0.00102774 0.000645619)
(-0.00121696 -0.00113814 0.000645621)
(-0.00111313 -0.00123987 0.00064562)
(-0.00100083 -0.00133217 0.00064562)
(-0.000880919 -0.00141433 0.000645615)
(-0.000754301 -0.00148572 0.000645615)
(-0.000621941 -0.00154581 0.000645614)
(-0.000484848 -0.00159414 0.000645614)
(-0.000344064 -0.00163033 0.000645613)
(-0.000200663 -0.00165411 0.000645612)
(-5.57332e-05 -0.00166531 0.000645612)
(8.96196e-05 -0.00166383 0.00064561)
(0.00023429 -0.00164969 0.000645609)
(0.000377178 -0.00162299 0.000645609)
(0.000517195 -0.00158394 0.000645607)
(0.000653277 -0.00153284 0.000645603)
(0.000784387 -0.00147007 0.000645603)
(0.000909528 -0.00139611 0.000645603)
(0.00102775 -0.00131153 0.000645603)
(0.00113814 -0.00121696 0.000645605)
(0.00123988 -0.00111313 0.000645604)
(0.00133218 -0.00100084 0.000645603)
(0.00141434 -0.000880921 0.000645598)
(0.00148573 -0.000754302 0.000645599)
(0.00154582 -0.000621942 0.000645598)
(0.00159415 -0.000484848 0.0006456)
(0.00163034 -0.000344065 0.000645599)
(0.00165412 -0.000200663 0.000645599)
(0.00166532 -5.57335e-05 0.0006456)
(0.00166384 8.96195e-05 0.000645599)
(0.0016497 0.00023429 0.000645599)
(0.001623 0.000377178 0.0006456)
(0.00158395 0.000517195 0.000645599)
(0.00153285 0.000653277 0.000645597)
(0.00147008 0.000784387 0.000645598)
(0.00139612 0.000909528 0.000645599)
(0.00131153 0.00102775 0.0006456)
(0.00121697 0.00113814 0.000645604)
(0.00111314 0.00123988 0.000645604)
(0.00100084 0.00133218 0.000645605)
(0.000880927 0.00141434 0.000645602)
(0.000754309 0.00148573 0.000645604)
(0.000621949 0.00154582 0.000645605)
(0.000484855 0.00159414 0.000645607)
(0.000344071 0.00163034 0.000645608)
(0.00020067 0.00165412 0.000645609)
(5.57403e-05 0.00166531 0.000645611)
(-8.96126e-05 0.00166383 0.000645611)
(-0.000234283 0.00164969 0.000645612)
(-0.000377171 0.001623 0.000645614)
(-0.000517188 0.00158395 0.000645614)
(-0.00065327 0.00153284 0.000645612)
(-0.00078438 0.00147007 0.000645614)
(-0.00090952 0.00139612 0.000645615)
(-0.00102774 0.00131153 0.000645617)
(-0.00113814 0.00121697 0.00064562)
(-0.00123987 0.00111314 0.000645621)
(-0.00133217 0.00100084 0.000645622)
(-0.00141433 0.000880926 0.000645618)
(-0.00148572 0.000754308 0.00064562)
(-0.00154581 0.000621948 0.00064562)
(-0.00159414 0.000484854 0.000645622)
(-0.00163033 0.000344071 0.000645622)
(-0.00165411 0.000200669 0.000645622)
(-0.00166531 5.57401e-05 0.000645623)
(-0.00166383 -8.96127e-05 0.000645622)
(-0.00164969 -0.000234283 0.000645622)
(-0.00190073 -0.000239414 0.000567021)
(-0.00187263 -0.000404163 0.00056702)
(-0.00183028 -0.000565835 0.000567018)
(-0.001774 -0.000723202 0.000567017)
(-0.00170422 -0.000875064 0.000567017)
(-0.00162146 -0.00102027 0.000567018)
(-0.00152637 -0.00115771 0.000567019)
(-0.00141966 -0.00128633 0.000567019)
(-0.00130215 -0.00140517 0.000567018)
(-0.00117472 -0.00151331 0.000567016)
(-0.00103836 -0.00160994 0.000567015)
(-0.000894092 -0.00169431 0.000567013)
(-0.00074302 -0.00176579 0.000567013)
(-0.000586293 -0.00182383 0.000567013)
(-0.000425105 -0.00186799 0.000567012)
(-0.000260681 -0.00189793 0.00056701)
(-9.42743e-05 -0.00191343 0.000567009)
(7.28506e-05 -0.00191436 0.000567009)
(0.000239421 -0.00190073 0.000567008)
(0.00040417 -0.00187263 0.000567007)
(0.000565843 -0.00183028 0.000567004)
(0.000723209 -0.001774 0.000567003)
(0.000875072 -0.00170422 0.000567003)
(0.00102028 -0.00162146 0.000567003)
(0.00115772 -0.00152637 0.000567004)
(0.00128634 -0.00141966 0.000567004)
(0.00140518 -0.00130215 0.000567003)
(0.00151332 -0.00117472 0.000567001)
(0.00160995 -0.00103836 0.000567)
(0.00169432 -0.000894092 0.000566999)
(0.0017658 -0.00074302 0.000566999)
(0.00182384 -0.000586293 0.000567)
(0.001868 -0.000425105 0.000567)
(0.00189794 -0.000260681 0.000566999)
(0.00191344 -9.42742e-05 0.000566999)
(0.00191437 7.28507e-05 0.000567)
(0.00190074 0.000239422 0.000567)
(0.00187264 0.00040417 0.000566999)
(0.00183029 0.000565843 0.000566998)
(0.00177401 0.000723209 0.000566998)
(0.00170422 0.000875072 0.000566999)
(0.00162147 0.00102028 0.000567001)
(0.00152638 0.00115771 0.000567003)
(0.00141967 0.00128634 0.000567005)
(0.00130215 0.00140518 0.000567005)
(0.00117473 0.00151332 0.000567004)
(0.00103836 0.00160994 0.000567004)