/*--------------------------------*- C++ -*----------------------------------*\
| =========                 |                                                 |
| \\      /  F ield         | OpenFOAM: The Open Source CFD Toolbox           |
|  \\    /   O peration     | Version:  2312                                  |
|   \\  /    A nd           | Website:  www.openfoam.com                      |
|    \\/     M anipulation  |                                                 |
\*---------------------------------------------------------------------------*/
FoamFile
{
    version     2.0;
    format      ascii;
    arch        "LSB;label=32;scalar=64";
    class       volVectorField;
    location    "0.2";
    object      D;
}
// * * * * * * * * * * * * * * * * * * * * * * * * * * * * * * * * * * * * * //

dimensions      [0 1 0 0 0 0 0];

internalField   nonuniform List<vector> 
1620
(
(5.26067e-05 4.60249e-06 -1.5268e-05)
(5.10082e-05 1.36676e-05 -1.5268e-05)
(4.78599e-05 2.23174e-05 -1.52681e-05)
(4.32574e-05 3.02891e-05 -1.52681e-05)
(3.73406e-05 3.73406e-05 -1.52681e-05)
(3.02891e-05 4.32574e-05 -1.52681e-05)
(2.23174e-05 4.78599e-05 -1.52681e-05)
(1.36676e-05 5.10082e-05 -1.5268e-05)
(4.60249e-06 5.26067e-05 -1.5268e-05)
(-4.60249e-06 5.26067e-05 -1.5268e-05)
(-1.36676e-05 5.10082e-05 -1.5268e-05)
(-2.23174e-05 4.78599e-05 -1.52681e-05)
(-3.02891e-05 4.32574e-05 -1.52681e-05)
(-3.73406e-05 3.73406e-05 -1.52681e-05)
(-4.32574e-05 3.02891e-05 -1.52681e-05)
(-4.78599e-05 2.23174e-05 -1.52681e-05)
(-5.10082e-05 1.36676e-05 -1.5268e-05)
(-5.26067e-05 4.60249e-06 -1.5268e-05)
(-5.26067e-05 -4.60249e-06 -1.5268e-05)
(-5.10082e-05 -1.36676e-05 -1.5268e-05)
(-4.78599e-05 -2.23174e-05 -1.52681e-05)
(-4.32574e-05 -3.02891e-05 -1.52681e-05)
(-3.73406e-05 -3.73406e-05 -1.52681e-05)
(-3.02891e-05 -4.32574e-05 -1.52681e-05)
(-2.23174e-05 -4.78599e-05 -1.52681e-05)
(-1.36676e-05 -5.10082e-05 -1.5268e-05)
(-4.60249e-06 -5.26067e-05 -1.5268e-05)
(4.60249e-06 -5.26067e-05 -1.5268e-05)
(1.36676e-05 -5.10082e-05 -1.5268e-05)
(2.23174e-05 -4.78599e-05 -1.52681e-05)
(3.02891e-05 -4.32574e-05 -1.52681e-05)
(3.73406e-05 -3.73406e-05 -1.52681e-05)
(4.32574e-05 -3.02891e-05 -1.52681e-05)
(4.78599e-05 -2.23174e-05 -1.52681e-05)
(5.10082e-05 -1.36676e-05 -1.5268e-05)
(5.26067e-05 -4.60249e-06 -1.5268e-05)
(7.8776e-05 6.89197e-06 -2.17818e-05)
(7.63824e-05 2.04665e-05 -2.17819e-05)
(7.16679e-05 3.34192e-05 -2.17818e-05)
(6.47759e-05 4.53565e-05 -2.17818e-05)
(5.59157e-05 5.59157e-05 -2.17819e-05)
(4.53565e-05 6.47759e-05 -2.17818e-05)
(3.34192e-05 7.16679e-05 -2.17818e-05)
(2.04665e-05 7.63824e-05 -2.17819e-05)
(6.89197e-06 7.8776e-05 -2.17818e-05)
(-6.89197e-06 7.8776e-05 -2.17818e-05)
(-2.04665e-05 7.63824e-05 -2.17819e-05)
(-3.34192e-05 7.16679e-05 -2.17818e-05)
(-4.53565e-05 6.47759e-05 -2.17818e-05)
(-5.59157e-05 5.59157e-05 -2.17819e-05)
(-6.47759e-05 4.53565e-05 -2.17818e-05)
(-7.16679e-05 3.34192e-05 -2.17818e-05)
(-7.63824e-05 2.04665e-05 -2.17819e-05)
(-7.8776e-05 6.89197e-06 -2.17818e-05)
(-7.8776e-05 -6.89197e-06 -2.17818e-05)
(-7.63824e-05 -2.04665e-05 -2.17819e-05)
(-7.16679e-05 -3.34192e-05 -2.17818e-05)
(-6.47759e-05 -4.53565e-05 -2.17818e-05)
(-5.59157e-05 -5.59157e-05 -2.17819e-05)
(-4.53565e-05 -6.47759e-05 -2.17818e-05)
(-3.34192e-05 -7.16679e-05 -2.17818e-05)
(-2.04665e-05 -7.63824e-05 -2.17819e-05)
(-6.89197e-06 -7.8776e-05 -2.17818e-05)
(6.89197e-06 -7.8776e-05 -2.17818e-05)
(2.04665e-05 -7.63824e-05 -2.17819e-05)
(3.34192e-05 -7.16679e-05 -2.17818e-05)
(4.53565e-05 -6.47759e-05 -2.17818e-05)
(5.59157e-05 -5.59157e-05 -2.17819e-05)
(6.47759e-05 -4.53565e-05 -2.17818e-05)
(7.16679e-05 -3.34192e-05 -2.17818e-05)
(7.63824e-05 -2.04665e-05 -2.17819e-05)
(7.8776e-05 -6.89197e-06 -2.17818e-05)
(0.000119498 1.04547e-05 -2.62413e-05)
(0.000115867 3.10463e-05 -2.62413e-05)
(0.000108715 5.06948e-05 -2.62413e-05)
(9.82607e-05 6.88028e-05 -2.62413e-05)
(8.48204e-05 8.48204e-05 -2.62413e-05)
(6.88028e-05 9.82607e-05 -2.62413e-05)
(5.06948e-05 0.000108715 -2.62413e-05)
(3.10463e-05 0.000115867 -2.62413e-05)
(1.04547e-05 0.000119498 -2.62413e-05)
(-1.04547e-05 0.000119498 -2.62413e-05)
(-3.10463e-05 0.000115867 -2.62413e-05)
(-5.06948e-05 0.000108715 -2.62413e-05)
(-6.88028e-05 9.82607e-05 -2.62413e-05)
(-8.48204e-05 8.48204e-05 -2.62413e-05)
(-9.82607e-05 6.88028e-05 -2.62413e-05)
(-0.000108715 5.06948e-05 -2.62413e-05)
(-0.000115867 3.10463e-05 -2.62413e-05)
(-0.000119498 1.04547e-05 -2.62413e-05)
(-0.000119498 -1.04547e-05 -2.62413e-05)
(-0.000115867 -3.10463e-05 -2.62413e-05)
(-0.000108715 -5.06948e-05 -2.62413e-05)
(-9.82607e-05 -6.88028e-05 -2.62413e-05)
(-8.48204e-05 -8.48204e-05 -2.62413e-05)
(-6.88028e-05 -9.82607e-05 -2.62413e-05)
(-5.06948e-05 -0.000108715 -2.62413e-05)
(-3.10463e-05 -0.000115867 -2.62413e-05)
(-1.04547e-05 -0.000119498 -2.62413e-05)
(1.04547e-05 -0.000119498 -2.62413e-05)
(3.10463e-05 -0.000115867 -2.62413e-05)
(5.06948e-05 -0.000108715 -2.62413e-05)
(6.88028e-05 -9.82607e-05 -2.62413e-05)
(8.48204e-05 -8.48204e-05 -2.62413e-05)
(9.82607e-05 -6.88028e-05 -2.62413e-05)
(0.000108715 -5.06948e-05 -2.62413e-05)
(0.000115867 -3.10463e-05 -2.62413e-05)
(0.000119498 -1.04547e-05 -2.62413e-05)
(0.000184704 1.61595e-05 -5.58072e-05)
(0.000179092 4.79877e-05 -5.58073e-05)
(0.000168038 7.83576e-05 -5.58074e-05)
(0.000151879 0.000106346 -5.58074e-05)
(0.000131104 0.000131104 -5.58074e-05)
(0.000106346 0.000151879 -5.58074e-05)
(7.83576e-05 0.000168038 -5.58074e-05)
(4.79877e-05 0.000179092 -5.58073e-05)
(1.61595e-05 0.000184704 -5.58072e-05)
(-1.61595e-05 0.000184704 -5.58072e-05)
(-4.79877e-05 0.000179092 -5.58073e-05)
(-7.83576e-05 0.000168038 -5.58074e-05)
(-0.000106346 0.000151879 -5.58074e-05)
(-0.000131104 0.000131104 -5.58074e-05)
(-0.000151879 0.000106346 -5.58074e-05)
(-0.000168038 7.83576e-05 -5.58074e-05)
(-0.000179092 4.79877e-05 -5.58073e-05)
(-0.000184704 1.61595e-05 -5.58072e-05)
(-0.000184704 -1.61595e-05 -5.58072e-05)
(-0.000179092 -4.79877e-05 -5.58073e-05)
(-0.000168038 -7.83576e-05 -5.58074e-05)
(-0.000151879 -0.000106346 -5.58074e-05)
(-0.000131104 -0.000131104 -5.58074e-05)
(-0.000106346 -0.000151879 -5.58074e-05)
(-7.83576e-05 -0.000168038 -5.58074e-05)
(-4.79877e-05 -0.000179092 -5.58073e-05)
(-1.61595e-05 -0.000184704 -5.58072e-05)
(1.61595e-05 -0.000184704 -5.58072e-05)
(4.79877e-05 -0.000179092 -5.58073e-05)
(7.83576e-05 -0.000168038 -5.58074e-05)
(0.000106346 -0.000151879 -5.58074e-05)
(0.000131104 -0.000131104 -5.58074e-05)
(0.000151879 -0.000106346 -5.58074e-05)
(0.000168038 -7.83576e-05 -5.58074e-05)
(0.000179092 -4.79877e-05 -5.58073e-05)
(0.000184704 -1.61595e-05 -5.58072e-05)
(0.00023488 2.05493e-05 -7.54815e-05)
(0.000227743 6.10235e-05 -7.54815e-05)
(0.000213686 9.96435e-05 -7.54816e-05)
(0.000193137 0.000135236 -7.54816e-05)
(0.000166719 0.000166719 -7.54816e-05)
(0.000135236 0.000193137 -7.54816e-05)
(9.96435e-05 0.000213686 -7.54816e-05)
(6.10235e-05 0.000227743 -7.54815e-05)
(2.05493e-05 0.00023488 -7.54815e-05)
(-2.05493e-05 0.00023488 -7.54815e-05)
(-6.10235e-05 0.000227743 -7.54815e-05)
(-9.96435e-05 0.000213686 -7.54816e-05)
(-0.000135236 0.000193137 -7.54816e-05)
(-0.000166719 0.000166719 -7.54816e-05)
(-0.000193137 0.000135236 -7.54816e-05)
(-0.000213686 9.96435e-05 -7.54816e-05)
(-0.000227743 6.10235e-05 -7.54815e-05)
(-0.00023488 2.05493e-05 -7.54815e-05)
(-0.00023488 -2.05493e-05 -7.54815e-05)
(-0.000227743 -6.10235e-05 -7.54815e-05)
(-0.000213686 -9.96435e-05 -7.54816e-05)
(-0.000193137 -0.000135236 -7.54816e-05)
(-0.000166719 -0.000166719 -7.54816e-05)
(-0.000135236 -0.000193137 -7.54816e-05)
(-9.96435e-05 -0.000213686 -7.54816e-05)
(-6.10235e-05 -0.000227743 -7.54815e-05)
(-2.05493e-05 -0.00023488 -7.54815e-05)
(2.05493e-05 -0.00023488 -7.54815e-05)
(6.10235e-05 -0.000227743 -7.54815e-05)
(9.96435e-05 -0.000213686 -7.54816e-05)
(0.000135236 -0.000193137 -7.54816e-05)
(0.000166719 -0.000166719 -7.54816e-05)
(0.000193137 -0.000135236 -7.54816e-05)
(0.000213686 -9.96435e-05 -7.54816e-05)
(0.000227743 -6.10235e-05 -7.54815e-05)
(0.00023488 -2.05493e-05 -7.54815e-05)
(0.000305071 2.66902e-05 -9.33253e-05)
(0.000295801 7.92596e-05 -9.33253e-05)
(0.000277544 0.000129421 -9.33252e-05)
(0.000250854 0.000175649 -9.33251e-05)
(0.000216541 0.000216541 -9.33251e-05)
(0.000175649 0.000250854 -9.33251e-05)
(0.000129421 0.000277544 -9.33252e-05)
(7.92596e-05 0.000295801 -9.33253e-05)
(2.66902e-05 0.000305071 -9.33253e-05)
(-2.66902e-05 0.000305071 -9.33253e-05)
(-7.92596e-05 0.000295801 -9.33253e-05)
(-0.000129421 0.000277544 -9.33252e-05)
(-0.000175649 0.000250854 -9.33251e-05)
(-0.000216541 0.000216541 -9.33251e-05)
(-0.000250854 0.000175649 -9.33251e-05)
(-0.000277544 0.000129421 -9.33252e-05)
(-0.000295801 7.92596e-05 -9.33253e-05)
(-0.000305071 2.66902e-05 -9.33253e-05)
(-0.000305071 -2.66902e-05 -9.33253e-05)
(-0.000295801 -7.92596e-05 -9.33253e-05)
(-0.000277544 -0.000129421 -9.33252e-05)
(-0.000250854 -0.000175649 -9.33251e-05)
(-0.000216541 -0.000216541 -9.33251e-05)
(-0.000175649 -0.000250854 -9.33251e-05)
(-0.000129421 -0.000277544 -9.33252e-05)
(-7.92596e-05 -0.000295801 -9.33253e-05)
(-2.66902e-05 -0.000305071 -9.33253e-05)
(2.66902e-05 -0.000305071 -9.33253e-05)
(7.92596e-05 -0.000295801 -9.33253e-05)
(0.000129421 -0.000277544 -9.33252e-05)
(0.000175649 -0.000250854 -9.33251e-05)
(0.000216541 -0.000216541 -9.33251e-05)
(0.000250854 -0.000175649 -9.33251e-05)
(0.000277544 -0.000129421 -9.33252e-05)
(0.000295801 -7.92596e-05 -9.33253e-05)
(0.000305071 -2.66902e-05 -9.33253e-05)
(0.000303624 2.65636e-05 -0.000118605)
(0.000294398 7.88838e-05 -0.000118605)
(0.000276228 0.000128807 -0.000118605)
(0.000249664 0.000174816 -0.000118605)
(0.000215514 0.000215514 -0.000118605)
(0.000174816 0.000249664 -0.000118605)
(0.000128807 0.000276228 -0.000118605)
(7.88838e-05 0.000294398 -0.000118605)
(2.65636e-05 0.000303624 -0.000118605)
(-2.65636e-05 0.000303624 -0.000118605)
(-7.88838e-05 0.000294398 -0.000118605)
(-0.000128807 0.000276228 -0.000118605)
(-0.000174816 0.000249664 -0.000118605)
(-0.000215514 0.000215514 -0.000118605)
(-0.000249664 0.000174816 -0.000118605)
(-0.000276228 0.000128807 -0.000118605)
(-0.000294398 7.88838e-05 -0.000118605)
(-0.000303624 2.65636e-05 -0.000118605)
(-0.000303624 -2.65636e-05 -0.000118605)
(-0.000294398 -7.88838e-05 -0.000118605)
(-0.000276228 -0.000128807 -0.000118605)
(-0.000249664 -0.000174816 -0.000118605)
(-0.000215514 -0.000215514 -0.000118605)
(-0.000174816 -0.000249664 -0.000118605)
(-0.000128807 -0.000276228 -0.000118605)
(-7.88838e-05 -0.000294398 -0.000118605)
(-2.65636e-05 -0.000303624 -0.000118605)
(2.65636e-05 -0.000303624 -0.000118605)
(7.88838e-05 -0.000294398 -0.000118605)
(0.000128807 -0.000276228 -0.000118605)
(0.000174816 -0.000249664 -0.000118605)
(0.000215514 -0.000215514 -0.000118605)
(0.000249664 -0.000174816 -0.000118605)
(0.000276228 -0.000128807 -0.000118605)
(0.000294398 -7.88838e-05 -0.000118605)
(0.000303624 -2.65636e-05 -0.000118605)
(0.000371049 3.24626e-05 -0.000145067)
(0.000359775 9.64013e-05 -0.000145067)
(0.000337569 0.000157411 -0.000145067)
(0.000305106 0.000213638 -0.000145067)
(0.000263373 0.000263373 -0.000145067)
(0.000213638 0.000305106 -0.000145067)
(0.000157411 0.000337569 -0.000145067)
(9.64013e-05 0.000359775 -0.000145067)
(3.24626e-05 0.000371049 -0.000145067)
(-3.24626e-05 0.000371049 -0.000145067)
(-9.64013e-05 0.000359775 -0.000145067)
(-0.000157411 0.000337569 -0.000145067)
(-0.000213638 0.000305106 -0.000145067)
(-0.000263373 0.000263373 -0.000145067)
(-0.000305106 0.000213638 -0.000145067)
(-0.000337569 0.000157411 -0.000145067)
(-0.000359775 9.64013e-05 -0.000145067)
(-0.000371049 3.24626e-05 -0.000145067)
(-0.000371049 -3.24626e-05 -0.000145067)
(-0.000359775 -9.64013e-05 -0.000145067)
(-0.000337569 -0.000157411 -0.000145067)
(-0.000305106 -0.000213638 -0.000145067)
(-0.000263373 -0.000263373 -0.000145067)
(-0.000213638 -0.000305106 -0.000145067)
(-0.000157411 -0.000337569 -0.000145067)
(-9.64013e-05 -0.000359775 -0.000145067)
(-3.24626e-05 -0.000371049 -0.000145067)
(3.24626e-05 -0.000371049 -0.000145067)
(9.64013e-05 -0.000359775 -0.000145067)
(0.000157411 -0.000337569 -0.000145067)
(0.000213638 -0.000305106 -0.000145067)
(0.000263373 -0.000263373 -0.000145067)
(0.000305106 -0.000213638 -0.000145067)
(0.000337569 -0.000157411 -0.000145067)
(0.000359775 -9.64013e-05 -0.000145067)
(0.000371049 -3.24626e-05 -0.000145067)
(0.000459498 4.02009e-05 -0.000170279)
(0.000445537 0.000119381 -0.000170279)
(0.000418038 0.000194934 -0.000170279)
(0.000377837 0.000264564 -0.000170279)
(0.000326155 0.000326155 -0.000170279)
(0.000264564 0.000377837 -0.000170279)
(0.000194934 0.000418038 -0.000170279)
(0.000119381 0.000445537 -0.000170279)
(4.02009e-05 0.000459498 -0.000170279)
(-4.02009e-05 0.000459498 -0.000170279)
(-0.000119381 0.000445537 -0.000170279)
(-0.000194934 0.000418038 -0.000170279)
(-0.000264564 0.000377837 -0.000170279)
(-0.000326155 0.000326155 -0.000170279)
(-0.000377837 0.000264564 -0.000170279)
(-0.000418038 0.000194934 -0.000170279)
(-0.000445537 0.000119381 -0.000170279)
(-0.000459498 4.02009e-05 -0.000170279)
(-0.000459498 -4.02009e-05 -0.000170279)
(-0.000445537 -0.000119381 -0.000170279)
(-0.000418038 -0.000194934 -0.000170279)
(-0.000377837 -0.000264564 -0.000170279)
(-0.000326155 -0.000326155 -0.000170279)
(-0.000264564 -0.000377837 -0.000170279)
(-0.000194934 -0.000418038 -0.000170279)
(-0.000119381 -0.000445537 -0.000170279)
(-4.02009e-05 -0.000459498 -0.000170279)
(4.02009e-05 -0.000459498 -0.000170279)
(0.000119381 -0.000445537 -0.000170279)
(0.000194934 -0.000418038 -0.000170279)
(0.000264564 -0.000377837 -0.000170279)
(0.000326155 -0.000326155 -0.000170279)
(0.000377837 -0.000264564 -0.000170279)
(0.000418038 -0.000194934 -0.000170279)
(0.000445537 -0.000119381 -0.000170279)
(0.000459498 -4.02009e-05 -0.000170279)
(0.000397028 3.47354e-05 -0.000191013)
(0.000384964 0.000103151 -0.000191013)
(0.000361204 0.000168432 -0.000191013)
(0.000326469 0.000228596 -0.000191014)
(0.000281813 0.000281813 -0.000191014)
(0.000228596 0.000326469 -0.000191014)
(0.000168432 0.000361204 -0.000191013)
(0.000103151 0.000384964 -0.000191013)
(3.47354e-05 0.000397028 -0.000191013)
(-3.47354e-05 0.000397028 -0.000191013)
(-0.000103151 0.000384964 -0.000191013)
(-0.000168432 0.000361204 -0.000191013)
(-0.000228596 0.000326469 -0.000191014)
(-0.000281813 0.000281813 -0.000191014)
(-0.000326469 0.000228596 -0.000191014)
(-0.000361204 0.000168432 -0.000191013)
(-0.000384964 0.000103151 -0.000191013)
(-0.000397028 3.47354e-05 -0.000191013)
(-0.000397028 -3.47354e-05 -0.000191013)
(-0.000384964 -0.000103151 -0.000191013)
(-0.000361204 -0.000168432 -0.000191013)
(-0.000326469 -0.000228596 -0.000191014)
(-0.000281813 -0.000281813 -0.000191014)
(-0.000228596 -0.000326469 -0.000191014)
(-0.000168432 -0.000361204 -0.000191013)
(-0.000103151 -0.000384964 -0.000191013)
(-3.47354e-05 -0.000397028 -0.000191013)
(3.47354e-05 -0.000397028 -0.000191013)
(0.000103151 -0.000384964 -0.000191013)
(0.000168432 -0.000361204 -0.000191013)
(0.000228596 -0.000326469 -0.000191014)
(0.000281813 -0.000281813 -0.000191014)
(0.000326469 -0.000228596 -0.000191014)
(0.000361204 -0.000168432 -0.000191013)
(0.000384964 -0.000103151 -0.000191013)
(0.000397028 -3.47354e-05 -0.000191013)
(0.000473036 4.13853e-05 -0.000219296)
(0.000458663 0.000122898 -0.000219296)
(0.000430354 0.000200677 -0.000219296)
(0.000388968 0.000272358 -0.000219296)
(0.000335764 0.000335764 -0.000219296)
(0.000272358 0.000388968 -0.000219296)
(0.000200677 0.000430354 -0.000219296)
(0.000122898 0.000458663 -0.000219296)
(4.13853e-05 0.000473036 -0.000219296)
(-4.13853e-05 0.000473036 -0.000219296)
(-0.000122898 0.000458663 -0.000219296)
(-0.000200677 0.000430354 -0.000219296)
(-0.000272358 0.000388968 -0.000219296)
(-0.000335764 0.000335764 -0.000219296)
(-0.000388968 0.000272358 -0.000219296)
(-0.000430354 0.000200677 -0.000219296)
(-0.000458663 0.000122898 -0.000219296)
(-0.000473036 4.13853e-05 -0.000219296)
(-0.000473036 -4.13853e-05 -0.000219296)
(-0.000458663 -0.000122898 -0.000219296)
(-0.000430354 -0.000200677 -0.000219296)
(-0.000388968 -0.000272358 -0.000219296)
(-0.000335764 -0.000335764 -0.000219296)
(-0.000272358 -0.000388968 -0.000219296)
(-0.000200677 -0.000430354 -0.000219296)
(-0.000122898 -0.000458663 -0.000219296)
(-4.13853e-05 -0.000473036 -0.000219296)
(4.13853e-05 -0.000473036 -0.000219296)
(0.000122898 -0.000458663 -0.000219296)
(0.000200677 -0.000430354 -0.000219296)
(0.000272358 -0.000388968 -0.000219296)
(0.000335764 -0.000335764 -0.000219296)
(0.000388968 -0.000272358 -0.000219296)
(0.000430354 -0.000200677 -0.000219296)
(0.000458663 -0.000122898 -0.000219296)
(0.000473036 -4.13853e-05 -0.000219296)
(0.000570488 4.99112e-05 -0.000247351)
(0.000553154 0.000148217 -0.000247351)
(0.000519012 0.000242019 -0.000247351)
(0.000469101 0.000328468 -0.000247351)
(0.000404936 0.000404936 -0.00024735)
(0.000328468 0.000469101 -0.000247351)
(0.000242019 0.000519012 -0.000247351)
(0.000148217 0.000553154 -0.000247351)
(4.99112e-05 0.000570488 -0.000247351)
(-4.99112e-05 0.000570488 -0.000247351)
(-0.000148217 0.000553154 -0.000247351)
(-0.000242019 0.000519012 -0.000247351)
(-0.000328468 0.000469101 -0.000247351)
(-0.000404936 0.000404936 -0.00024735)
(-0.000469101 0.000328468 -0.000247351)
(-0.000519012 0.000242019 -0.000247351)
(-0.000553154 0.000148217 -0.000247351)
(-0.000570488 4.99112e-05 -0.000247351)
(-0.000570488 -4.99112e-05 -0.000247351)
(-0.000553154 -0.000148217 -0.000247351)
(-0.000519012 -0.000242019 -0.000247351)
(-0.000469101 -0.000328468 -0.000247351)
(-0.000404936 -0.000404936 -0.00024735)
(-0.000328468 -0.000469101 -0.000247351)
(-0.000242019 -0.000519012 -0.000247351)
(-0.000148217 -0.000553154 -0.000247351)
(-4.99112e-05 -0.000570488 -0.000247351)
(4.99112e-05 -0.000570488 -0.000247351)
(0.000148217 -0.000553154 -0.000247351)
(0.000242019 -0.000519012 -0.000247351)
(0.000328468 -0.000469101 -0.000247351)
(0.000404936 -0.000404936 -0.00024735)
(0.000469101 -0.000328468 -0.000247351)
(0.000519012 -0.000242019 -0.000247351)
(0.000553154 -0.000148217 -0.000247351)
(0.000570488 -4.99112e-05 -0.000247351)
(0.000456567 3.99445e-05 -0.000262991)
(0.000442694 0.00011862 -0.000262991)
(0.000415371 0.000193691 -0.000262991)
(0.000375426 0.000262876 -0.000262991)
(0.000324075 0.000324075 -0.000262991)
(0.000262876 0.000375426 -0.000262991)
(0.000193691 0.000415371 -0.000262991)
(0.00011862 0.000442694 -0.000262991)
(3.99445e-05 0.000456567 -0.000262991)
(-3.99445e-05 0.000456567 -0.000262991)
(-0.00011862 0.000442694 -0.000262991)
(-0.000193691 0.000415371 -0.000262991)
(-0.000262876 0.000375426 -0.000262991)
(-0.000324075 0.000324075 -0.000262991)
(-0.000375426 0.000262876 -0.000262991)
(-0.000415371 0.000193691 -0.000262991)
(-0.000442694 0.00011862 -0.000262991)
(-0.000456567 3.99445e-05 -0.000262991)
(-0.000456567 -3.99445e-05 -0.000262991)
(-0.000442694 -0.00011862 -0.000262991)
(-0.000415371 -0.000193691 -0.000262991)
(-0.000375426 -0.000262876 -0.000262991)
(-0.000324075 -0.000324075 -0.000262991)
(-0.000262876 -0.000375426 -0.000262991)
(-0.000193691 -0.000415371 -0.000262991)
(-0.00011862 -0.000442694 -0.000262991)
(-3.99445e-05 -0.000456567 -0.000262991)
(3.99445e-05 -0.000456567 -0.000262991)
(0.00011862 -0.000442694 -0.000262991)
(0.000193691 -0.000415371 -0.000262991)
(0.000262876 -0.000375426 -0.000262991)
(0.000324075 -0.000324075 -0.000262991)
(0.000375426 -0.000262876 -0.000262991)
(0.000415371 -0.000193691 -0.000262991)
(0.000442694 -0.00011862 -0.000262991)
(0.000456567 -3.99445e-05 -0.000262991)
(0.000535107 4.68158e-05 -0.000290359)
(0.000518847 0.000139025 -0.000290359)
(0.000486824 0.00022701 -0.000290359)
(0.000440008 0.000308097 -0.000290359)
(0.000379823 0.000379823 -0.000290359)
(0.000308097 0.000440008 -0.000290359)
(0.00022701 0.000486824 -0.000290359)
(0.000139025 0.000518847 -0.000290359)
(4.68158e-05 0.000535107 -0.000290359)
(-4.68158e-05 0.000535107 -0.000290359)
(-0.000139025 0.000518847 -0.000290359)
(-0.00022701 0.000486824 -0.000290359)
(-0.000308097 0.000440008 -0.000290359)
(-0.000379823 0.000379823 -0.000290359)
(-0.000440008 0.000308097 -0.000290359)
(-0.000486824 0.00022701 -0.000290359)
(-0.000518847 0.000139025 -0.000290359)
(-0.000535107 4.68158e-05 -0.000290359)
(-0.000535107 -4.68158e-05 -0.000290359)
(-0.000518847 -0.000139025 -0.000290359)
(-0.000486824 -0.00022701 -0.000290359)
(-0.000440008 -0.000308097 -0.000290359)
(-0.000379823 -0.000379823 -0.000290359)
(-0.000308097 -0.000440008 -0.000290359)
(-0.00022701 -0.000486824 -0.000290359)
(-0.000139025 -0.000518847 -0.000290359)
(-4.68158e-05 -0.000535107 -0.000290359)
(4.68158e-05 -0.000535107 -0.000290359)
(0.000139025 -0.000518847 -0.000290359)
(0.00022701 -0.000486824 -0.000290359)
(0.000308097 -0.000440008 -0.000290359)
(0.000379823 -0.000379823 -0.000290359)
(0.000440008 -0.000308097 -0.000290359)
(0.000486824 -0.00022701 -0.000290359)
(0.000518847 -0.000139025 -0.000290359)
(0.000535107 -4.68158e-05 -0.000290359)
(0.000635694 5.56161e-05 -0.000318835)
(0.000616379 0.000165158 -0.000318835)
(0.000578335 0.000269682 -0.000318835)
(0.000522719 0.000366012 -0.000318835)
(0.000451221 0.000451221 -0.000318836)
(0.000366012 0.000522719 -0.000318835)
(0.000269682 0.000578335 -0.000318835)
(0.000165158 0.000616379 -0.000318835)
(5.56161e-05 0.000635694 -0.000318835)
(-5.56161e-05 0.000635694 -0.000318835)
(-0.000165158 0.000616379 -0.000318835)
(-0.000269682 0.000578335 -0.000318835)
(-0.000366012 0.000522719 -0.000318835)
(-0.000451221 0.000451221 -0.000318836)
(-0.000522719 0.000366012 -0.000318835)
(-0.000578335 0.000269682 -0.000318835)
(-0.000616379 0.000165158 -0.000318835)
(-0.000635694 5.56161e-05 -0.000318835)
(-0.000635694 -5.56161e-05 -0.000318835)
(-0.000616379 -0.000165158 -0.000318835)
(-0.000578335 -0.000269682 -0.000318835)
(-0.000522719 -0.000366012 -0.000318835)
(-0.000451221 -0.000451221 -0.000318836)
(-0.000366012 -0.000522719 -0.000318835)
(-0.000269682 -0.000578335 -0.000318835)
(-0.000165158 -0.000616379 -0.000318835)
(-5.56161e-05 -0.000635694 -0.000318835)
(5.56161e-05 -0.000635694 -0.000318835)
(0.000165158 -0.000616379 -0.000318835)
(0.000269682 -0.000578335 -0.000318835)
(0.000366012 -0.000522719 -0.000318835)
(0.000451221 -0.000451221 -0.000318836)
(0.000522719 -0.000366012 -0.000318835)
(0.000578335 -0.000269682 -0.000318835)
(0.000616379 -0.000165158 -0.000318835)
(0.000635694 -5.56161e-05 -0.000318835)
(0.000479596 4.19593e-05 -0.000327419)
(0.000465023 0.000124603 -0.000327419)
(0.000436321 0.00020346 -0.000327419)
(0.000394362 0.000276135 -0.000327419)
(0.000340421 0.000340421 -0.000327419)
(0.000276135 0.000394362 -0.000327419)
(0.00020346 0.000436321 -0.000327419)
(0.000124603 0.000465023 -0.000327419)
(4.19593e-05 0.000479596 -0.000327419)
(-4.19593e-05 0.000479596 -0.000327419)
(-0.000124603 0.000465023 -0.000327419)
(-0.00020346 0.000436321 -0.000327419)
(-0.000276135 0.000394362 -0.000327419)
(-0.000340421 0.000340421 -0.000327419)
(-0.000394362 0.000276135 -0.000327419)
(-0.000436321 0.00020346 -0.000327419)
(-0.000465023 0.000124603 -0.000327419)
(-0.000479596 4.19593e-05 -0.000327419)
(-0.000479596 -4.19593e-05 -0.000327419)
(-0.000465023 -0.000124603 -0.000327419)
(-0.000436321 -0.00020346 -0.000327419)
(-0.000394362 -0.000276135 -0.000327419)
(-0.000340421 -0.000340421 -0.000327419)
(-0.000276135 -0.000394362 -0.000327419)
(-0.00020346 -0.000436321 -0.000327419)
(-0.000124603 -0.000465023 -0.000327419)
(-4.19593e-05 -0.000479596 -0.000327419)
(4.19593e-05 -0.000479596 -0.000327419)
(0.000124603 -0.000465023 -0.000327419)
(0.00020346 -0.000436321 -0.000327419)
(0.000276135 -0.000394362 -0.000327419)
(0.000340421 -0.000340421 -0.000327419)
(0.000394362 -0.000276135 -0.000327419)
(0.000436321 -0.00020346 -0.000327419)
(0.000465023 -0.000124603 -0.000327419)
(0.000479596 -4.19593e-05 -0.000327419)
(0.000557053 4.87359e-05 -0.000352741)
(0.000540128 0.000144727 -0.000352741)
(0.00050679 0.00023632 -0.000352741)
(0.000458054 0.000320733 -0.000352741)
(0.000395401 0.000395401 -0.000352741)
(0.000320733 0.000458054 -0.000352741)
(0.00023632 0.00050679 -0.000352741)
(0.000144727 0.000540128 -0.000352741)
(4.87359e-05 0.000557053 -0.000352741)
(-4.87359e-05 0.000557053 -0.000352741)
(-0.000144727 0.000540128 -0.000352741)
(-0.00023632 0.00050679 -0.000352741)
(-0.000320733 0.000458054 -0.000352741)
(-0.000395401 0.000395401 -0.000352741)
(-0.000458054 0.000320733 -0.000352741)
(-0.00050679 0.00023632 -0.000352741)
(-0.000540128 0.000144727 -0.000352741)
(-0.000557053 4.87359e-05 -0.000352741)
(-0.000557053 -4.87359e-05 -0.000352741)
(-0.000540128 -0.000144727 -0.000352741)
(-0.00050679 -0.00023632 -0.000352741)
(-0.000458054 -0.000320733 -0.000352741)
(-0.000395401 -0.000395401 -0.000352741)
(-0.000320733 -0.000458054 -0.000352741)
(-0.00023632 -0.00050679 -0.000352741)
(-0.000144727 -0.000540128 -0.000352741)
(-4.87359e-05 -0.000557053 -0.000352741)
(4.87359e-05 -0.000557053 -0.000352741)
(0.000144727 -0.000540128 -0.000352741)
(0.00023632 -0.00050679 -0.000352741)
(0.000320733 -0.000458054 -0.000352741)
(0.000395401 -0.000395401 -0.000352741)
(0.000458054 -0.000320733 -0.000352741)
(0.00050679 -0.00023632 -0.000352741)
(0.000540128 -0.000144727 -0.000352741)
(0.000557053 -4.87359e-05 -0.000352741)
(0.000657283 5.75049e-05 -0.000380769)
(0.000637312 0.000170767 -0.000380769)
(0.000597976 0.000278841 -0.000380769)
(0.000540472 0.000378442 -0.00038077)
(0.000466545 0.000466545 -0.00038077)
(0.000378442 0.000540472 -0.00038077)
(0.000278841 0.000597976 -0.000380769)
(0.000170767 0.000637312 -0.000380769)
(5.75049e-05 0.000657283 -0.000380769)
(-5.75049e-05 0.000657283 -0.000380769)
(-0.000170767 0.000637312 -0.000380769)
(-0.000278841 0.000597976 -0.000380769)
(-0.000378442 0.000540472 -0.00038077)
(-0.000466545 0.000466545 -0.00038077)
(-0.000540472 0.000378442 -0.00038077)
(-0.000597976 0.000278841 -0.000380769)
(-0.000637312 0.000170767 -0.000380769)
(-0.000657283 5.75049e-05 -0.000380769)
(-0.000657283 -5.75049e-05 -0.000380769)
(-0.000637312 -0.000170767 -0.000380769)
(-0.000597976 -0.000278841 -0.000380769)
(-0.000540472 -0.000378442 -0.00038077)
(-0.000466545 -0.000466545 -0.00038077)
(-0.000378442 -0.000540472 -0.00038077)
(-0.000278841 -0.000597976 -0.000380769)
(-0.000170767 -0.000637312 -0.000380769)
(-5.75049e-05 -0.000657283 -0.000380769)
(5.75049e-05 -0.000657283 -0.000380769)
(0.000170767 -0.000637312 -0.000380769)
(0.000278841 -0.000597976 -0.000380769)
(0.000378442 -0.000540472 -0.00038077)
(0.000466545 -0.000466545 -0.00038077)
(0.000540472 -0.000378442 -0.00038077)
(0.000597976 -0.000278841 -0.000380769)
(0.000637312 -0.000170767 -0.000380769)
(0.000657283 -5.75049e-05 -0.000380769)
(0.000467829 4.09298e-05 -0.000379812)
(0.000453614 0.000121546 -0.000379812)
(0.000425617 0.000198469 -0.000379812)
(0.000384687 0.000269361 -0.000379812)
(0.000332069 0.000332069 -0.000379812)
(0.000269361 0.000384687 -0.000379812)
(0.000198469 0.000425617 -0.000379812)
(0.000121546 0.000453614 -0.000379812)
(4.09298e-05 0.000467829 -0.000379812)
(-4.09298e-05 0.000467829 -0.000379812)
(-0.000121546 0.000453614 -0.000379812)
(-0.000198469 0.000425617 -0.000379812)
(-0.000269361 0.000384687 -0.000379812)
(-0.000332069 0.000332069 -0.000379812)
(-0.000384687 0.000269361 -0.000379812)
(-0.000425617 0.000198469 -0.000379812)
(-0.000453614 0.000121546 -0.000379812)
(-0.000467829 4.09298e-05 -0.000379812)
(-0.000467829 -4.09298e-05 -0.000379812)
(-0.000453614 -0.000121546 -0.000379812)
(-0.000425617 -0.000198469 -0.000379812)
(-0.000384687 -0.000269361 -0.000379812)
(-0.000332069 -0.000332069 -0.000379812)
(-0.000269361 -0.000384687 -0.000379812)
(-0.000198469 -0.000425617 -0.000379812)
(-0.000121546 -0.000453614 -0.000379812)
(-4.09298e-05 -0.000467829 -0.000379812)
(4.09298e-05 -0.000467829 -0.000379812)
(0.000121546 -0.000453614 -0.000379812)
(0.000198469 -0.000425617 -0.000379812)
(0.000269361 -0.000384687 -0.000379812)
(0.000332069 -0.000332069 -0.000379812)
(0.000384687 -0.000269361 -0.000379812)
(0.000425617 -0.000198469 -0.000379812)
(0.000453614 -0.000121546 -0.000379812)
(0.000467829 -4.09298e-05 -0.000379812)
(0.000542296 4.74448e-05 -0.000402959)
(0.000525819 0.000140893 -0.000402958)
(0.000493365 0.00023006 -0.000402959)
(0.00044592 0.000312237 -0.000402959)
(0.000384926 0.000384926 -0.000402959)
(0.000312237 0.00044592 -0.000402959)
(0.00023006 0.000493365 -0.000402959)
(0.000140893 0.000525819 -0.000402958)
(4.74448e-05 0.000542296 -0.000402959)
(-4.74448e-05 0.000542296 -0.000402959)
(-0.000140893 0.000525819 -0.000402958)
(-0.00023006 0.000493365 -0.000402959)
(-0.000312237 0.00044592 -0.000402959)
(-0.000384926 0.000384926 -0.000402959)
(-0.00044592 0.000312237 -0.000402959)
(-0.000493365 0.00023006 -0.000402959)
(-0.000525819 0.000140893 -0.000402958)
(-0.000542296 4.74448e-05 -0.000402959)
(-0.000542296 -4.74448e-05 -0.000402959)
(-0.000525819 -0.000140893 -0.000402958)
(-0.000493365 -0.00023006 -0.000402959)
(-0.00044592 -0.000312237 -0.000402959)
(-0.000384926 -0.000384926 -0.000402959)
(-0.000312237 -0.00044592 -0.000402959)
(-0.00023006 -0.000493365 -0.000402959)
(-0.000140893 -0.000525819 -0.000402958)
(-4.74448e-05 -0.000542296 -0.000402959)
(4.74448e-05 -0.000542296 -0.000402959)
(0.000140893 -0.000525819 -0.000402958)
(0.00023006 -0.000493365 -0.000402959)
(0.000312237 -0.00044592 -0.000402959)
(0.000384926 -0.000384926 -0.000402959)
(0.00044592 -0.000312237 -0.000402959)
(0.000493365 -0.00023006 -0.000402959)
(0.000525819 -0.000140893 -0.000402958)
(0.000542296 -4.74448e-05 -0.000402959)
(0.000640243 5.60142e-05 -0.000430632)
(0.000620789 0.00016634 -0.000430632)
(0.000582473 0.000271612 -0.000430632)
(0.00052646 0.000368631 -0.000430632)
(0.00045445 0.00045445 -0.000430632)
(0.000368631 0.00052646 -0.000430632)
(0.000271612 0.000582473 -0.000430632)
(0.00016634 0.000620789 -0.000430632)
(5.60142e-05 0.000640243 -0.000430632)
(-5.60142e-05 0.000640243 -0.000430632)