/*--------------------------------*- C++ -*----------------------------------*\
| =========                 |                                                 |
| \\      /  F ield         | OpenFOAM: The Open Source CFD Toolbox           |
|  \\    /   O peration     | Version:  2312                                  |
|   \\  /    A nd           | Website:  www.openfoam.com                      |
|    \\/     M anipulation  |                                                 |
\*---------------------------------------------------------------------------*/
FoamFile
{
    version     2.0;
    format      ascii;
    arch        "LSB;label=32;scalar=64";
    class       volVectorField;
    location    "0.2";
    object      D_0;
}
// * * * * * * * * * * * * * * * * * * * * * * * * * * * * * * * * * * * * * //

dimensions      [0 1 0 0 0 0 0];

internalField   nonuniform List<vector> 
1620
(
(4.95742e-05 4.33718e-06 -1.4098e-05)
(4.80678e-05 1.28797e-05 -1.4098e-05)
(4.5101e-05 2.10309e-05 -1.4098e-05)
(4.07638e-05 2.85431e-05 -1.4098e-05)
(3.51881e-05 3.51881e-05 -1.4098e-05)
(2.85431e-05 4.07638e-05 -1.4098e-05)
(2.10309e-05 4.5101e-05 -1.4098e-05)
(1.28797e-05 4.80678e-05 -1.4098e-05)
(4.33718e-06 4.95742e-05 -1.4098e-05)
(-4.33718e-06 4.95742e-05 -1.4098e-05)
(-1.28797e-05 4.80678e-05 -1.4098e-05)
(-2.10309e-05 4.5101e-05 -1.4098e-05)
(-2.85431e-05 4.07638e-05 -1.4098e-05)
(-3.51881e-05 3.51881e-05 -1.4098e-05)
(-4.07638e-05 2.85431e-05 -1.4098e-05)
(-4.5101e-05 2.10309e-05 -1.4098e-05)
(-4.80678e-05 1.28797e-05 -1.4098e-05)
(-4.95742e-05 4.33718e-06 -1.4098e-05)
(-4.95742e-05 -4.33718e-06 -1.4098e-05)
(-4.80678e-05 -1.28797e-05 -1.4098e-05)
(-4.5101e-05 -2.10309e-05 -1.4098e-05)
(-4.07638e-05 -2.85431e-05 -1.4098e-05)
(-3.51881e-05 -3.51881e-05 -1.4098e-05)
(-2.85431e-05 -4.07638e-05 -1.4098e-05)
(-2.10309e-05 -4.5101e-05 -1.4098e-05)
(-1.28797e-05 -4.80678e-05 -1.4098e-05)
(-4.33718e-06 -4.95742e-05 -1.4098e-05)
(4.33718e-06 -4.95742e-05 -1.4098e-05)
(1.28797e-05 -4.80678e-05 -1.4098e-05)
(2.10309e-05 -4.5101e-05 -1.4098e-05)
(2.85431e-05 -4.07638e-05 -1.4098e-05)
(3.51881e-05 -3.51881e-05 -1.4098e-05)
(4.07638e-05 -2.85431e-05 -1.4098e-05)
(4.5101e-05 -2.10309e-05 -1.4098e-05)
(4.80678e-05 -1.28797e-05 -1.4098e-05)
(4.95742e-05 -4.33718e-06 -1.4098e-05)
(7.40563e-05 6.47905e-06 -2.03731e-05)
(7.18061e-05 1.92403e-05 -2.03731e-05)
(6.7374e-05 3.1417e-05 -2.03731e-05)
(6.0895e-05 4.2639e-05 -2.03731e-05)
(5.25657e-05 5.25657e-05 -2.03732e-05)
(4.2639e-05 6.0895e-05 -2.03731e-05)
(3.1417e-05 6.7374e-05 -2.03731e-05)
(1.92403e-05 7.18061e-05 -2.03731e-05)
(6.47905e-06 7.40563e-05 -2.03731e-05)
(-6.47905e-06 7.40563e-05 -2.03731e-05)
(-1.92403e-05 7.18061e-05 -2.03731e-05)
(-3.1417e-05 6.7374e-05 -2.03731e-05)
(-4.2639e-05 6.0895e-05 -2.03731e-05)
(-5.25657e-05 5.25657e-05 -2.03732e-05)
(-6.0895e-05 4.2639e-05 -2.03731e-05)
(-6.7374e-05 3.1417e-05 -2.03731e-05)
(-7.18061e-05 1.92403e-05 -2.03731e-05)
(-7.40563e-05 6.47905e-06 -2.03731e-05)
(-7.40563e-05 -6.47905e-06 -2.03731e-05)
(-7.18061e-05 -1.92403e-05 -2.03731e-05)
(-6.7374e-05 -3.1417e-05 -2.03731e-05)
(-6.0895e-05 -4.2639e-05 -2.03731e-05)
(-5.25657e-05 -5.25657e-05 -2.03732e-05)
(-4.2639e-05 -6.0895e-05 -2.03731e-05)
(-3.1417e-05 -6.7374e-05 -2.03731e-05)
(-1.92403e-05 -7.18061e-05 -2.03731e-05)
(-6.47905e-06 -7.40563e-05 -2.03731e-05)
(6.47905e-06 -7.40563e-05 -2.03731e-05)
(1.92403e-05 -7.18061e-05 -2.03731e-05)
(3.1417e-05 -6.7374e-05 -2.03731e-05)
(4.2639e-05 -6.0895e-05 -2.03731e-05)
(5.25657e-05 -5.25657e-05 -2.03732e-05)
(6.0895e-05 -4.2639e-05 -2.03731e-05)
(6.7374e-05 -3.1417e-05 -2.03731e-05)
(7.18061e-05 -1.92403e-05 -2.03731e-05)
(7.40563e-05 -6.47905e-06 -2.03731e-05)
(0.000112333 9.82785e-06 -2.47746e-05)
(0.00010892 2.91849e-05 -2.47746e-05)
(0.000102198 4.76554e-05 -2.47746e-05)
(9.23695e-05 6.46778e-05 -2.47746e-05)
(7.97351e-05 7.97351e-05 -2.47746e-05)
(6.46778e-05 9.23695e-05 -2.47746e-05)
(4.76554e-05 0.000102198 -2.47746e-05)
(2.91849e-05 0.00010892 -2.47746e-05)
(9.82785e-06 0.000112333 -2.47746e-05)
(-9.82785e-06 0.000112333 -2.47746e-05)
(-2.91849e-05 0.00010892 -2.47746e-05)
(-4.76554e-05 0.000102198 -2.47746e-05)
(-6.46778e-05 9.23695e-05 -2.47746e-05)
(-7.97351e-05 7.97351e-05 -2.47746e-05)
(-9.23695e-05 6.46778e-05 -2.47746e-05)
(-0.000102198 4.76554e-05 -2.47746e-05)
(-0.00010892 2.91849e-05 -2.47746e-05)
(-0.000112333 9.82785e-06 -2.47746e-05)
(-0.000112333 -9.82785e-06 -2.47746e-05)
(-0.00010892 -2.91849e-05 -2.47746e-05)
(-0.000102198 -4.76554e-05 -2.47746e-05)
(-9.23695e-05 -6.46778e-05 -2.47746e-05)
(-7.97351e-05 -7.97351e-05 -2.47746e-05)
(-6.46778e-05 -9.23695e-05 -2.47746e-05)
(-4.76554e-05 -0.000102198 -2.47746e-05)
(-2.91849e-05 -0.00010892 -2.47746e-05)
(-9.82785e-06 -0.000112333 -2.47746e-05)
(9.82785e-06 -0.000112333 -2.47746e-05)
(2.91849e-05 -0.00010892 -2.47746e-05)
(4.76554e-05 -0.000102198 -2.47746e-05)
(6.46778e-05 -9.23695e-05 -2.47746e-05)
(7.97351e-05 -7.97351e-05 -2.47746e-05)
(9.23695e-05 -6.46778e-05 -2.47746e-05)
(0.000102198 -4.76554e-05 -2.47746e-05)
(0.00010892 -2.91849e-05 -2.47746e-05)
(0.000112333 -9.82785e-06 -2.47746e-05)
(0.000173793 1.52049e-05 -5.18153e-05)
(0.000168513 4.51529e-05 -5.18154e-05)
(0.000158112 7.37287e-05 -5.18155e-05)
(0.000142907 0.000100064 -5.18155e-05)
(0.000123359 0.000123359 -5.18155e-05)
(0.000100064 0.000142907 -5.18155e-05)
(7.37287e-05 0.000158112 -5.18155e-05)
(4.51529e-05 0.000168513 -5.18154e-05)
(1.52049e-05 0.000173793 -5.18153e-05)
(-1.52049e-05 0.000173793 -5.18153e-05)
(-4.51529e-05 0.000168513 -5.18154e-05)
(-7.37287e-05 0.000158112 -5.18155e-05)
(-0.000100064 0.000142907 -5.18155e-05)
(-0.000123359 0.000123359 -5.18155e-05)
(-0.000142907 0.000100064 -5.18155e-05)
(-0.000158112 7.37287e-05 -5.18155e-05)
(-0.000168513 4.51529e-05 -5.18154e-05)
(-0.000173793 1.52049e-05 -5.18153e-05)
(-0.000173793 -1.52049e-05 -5.18153e-05)
(-0.000168513 -4.51529e-05 -5.18154e-05)
(-0.000158112 -7.37287e-05 -5.18155e-05)
(-0.000142907 -0.000100064 -5.18155e-05)
(-0.000123359 -0.000123359 -5.18155e-05)
(-0.000100064 -0.000142907 -5.18155e-05)
(-7.37287e-05 -0.000158112 -5.18155e-05)
(-4.51529e-05 -0.000168513 -5.18154e-05)
(-1.52049e-05 -0.000173793 -5.18153e-05)
(1.52049e-05 -0.000173793 -5.18153e-05)
(4.51529e-05 -0.000168513 -5.18154e-05)
(7.37287e-05 -0.000158112 -5.18155e-05)
(0.000100064 -0.000142907 -5.18155e-05)
(0.000123359 -0.000123359 -5.18155e-05)
(0.000142907 -0.000100064 -5.18155e-05)
(0.000158112 -7.37287e-05 -5.18155e-05)
(0.000168513 -4.51529e-05 -5.18154e-05)
(0.000173793 -1.52049e-05 -5.18153e-05)
(0.000220845 1.93214e-05 -7.05855e-05)
(0.000214135 5.73772e-05 -7.05855e-05)
(0.000200918 9.36895e-05 -7.05855e-05)
(0.000181597 0.000127155 -7.05855e-05)
(0.000156757 0.000156757 -7.05856e-05)
(0.000127155 0.000181597 -7.05855e-05)
(9.36895e-05 0.000200918 -7.05855e-05)
(5.73772e-05 0.000214135 -7.05855e-05)
(1.93214e-05 0.000220845 -7.05855e-05)
(-1.93214e-05 0.000220845 -7.05855e-05)
(-5.73772e-05 0.000214135 -7.05855e-05)
(-9.36895e-05 0.000200918 -7.05855e-05)
(-0.000127155 0.000181597 -7.05855e-05)
(-0.000156757 0.000156757 -7.05856e-05)
(-0.000181597 0.000127155 -7.05855e-05)
(-0.000200918 9.36895e-05 -7.05855e-05)
(-0.000214135 5.73772e-05 -7.05855e-05)
(-0.000220845 1.93214e-05 -7.05855e-05)
(-0.000220845 -1.93214e-05 -7.05855e-05)
(-0.000214135 -5.73772e-05 -7.05855e-05)
(-0.000200918 -9.36895e-05 -7.05855e-05)
(-0.000181597 -0.000127155 -7.05855e-05)
(-0.000156757 -0.000156757 -7.05856e-05)
(-0.000127155 -0.000181597 -7.05855e-05)
(-9.36895e-05 -0.000200918 -7.05855e-05)
(-5.73772e-05 -0.000214135 -7.05855e-05)
(-1.93214e-05 -0.000220845 -7.05855e-05)
(1.93214e-05 -0.000220845 -7.05855e-05)
(5.73772e-05 -0.000214135 -7.05855e-05)
(9.36895e-05 -0.000200918 -7.05855e-05)
(0.000127155 -0.000181597 -7.05855e-05)
(0.000156757 -0.000156757 -7.05856e-05)
(0.000181597 -0.000127155 -7.05855e-05)
(0.000200918 -9.36895e-05 -7.05855e-05)
(0.000214135 -5.73772e-05 -7.05855e-05)
(0.000220845 -1.93214e-05 -7.05855e-05)
(0.000286848 2.5096e-05 -8.77135e-05)
(0.000278132 7.45252e-05 -8.77135e-05)
(0.000260966 0.00012169 -8.77134e-05)
(0.00023587 0.000165157 -8.77133e-05)
(0.000203607 0.000203607 -8.77133e-05)
(0.000165157 0.00023587 -8.77133e-05)
(0.00012169 0.000260966 -8.77134e-05)
(7.45252e-05 0.000278132 -8.77135e-05)
(2.5096e-05 0.000286848 -8.77135e-05)
(-2.5096e-05 0.000286848 -8.77135e-05)
(-7.45252e-05 0.000278132 -8.77135e-05)
(-0.00012169 0.000260966 -8.77134e-05)
(-0.000165157 0.00023587 -8.77133e-05)
(-0.000203607 0.000203607 -8.77133e-05)
(-0.00023587 0.000165157 -8.77133e-05)
(-0.000260966 0.00012169 -8.77134e-05)
(-0.000278132 7.45252e-05 -8.77135e-05)
(-0.000286848 2.5096e-05 -8.77135e-05)
(-0.000286848 -2.5096e-05 -8.77135e-05)
(-0.000278132 -7.45252e-05 -8.77135e-05)
(-0.000260966 -0.00012169 -8.77134e-05)
(-0.00023587 -0.000165157 -8.77133e-05)
(-0.000203607 -0.000203607 -8.77133e-05)
(-0.000165157 -0.00023587 -8.77133e-05)
(-0.00012169 -0.000260966 -8.77134e-05)
(-7.45252e-05 -0.000278132 -8.77135e-05)
(-2.5096e-05 -0.000286848 -8.77135e-05)
(2.5096e-05 -0.000286848 -8.77135e-05)
(7.45252e-05 -0.000278132 -8.77135e-05)
(0.00012169 -0.000260966 -8.77134e-05)
(0.000165157 -0.00023587 -8.77133e-05)
(0.000203607 -0.000203607 -8.77133e-05)
(0.00023587 -0.000165157 -8.77133e-05)
(0.000260966 -0.00012169 -8.77134e-05)
(0.000278132 -7.45252e-05 -8.77135e-05)
(0.000286848 -2.5096e-05 -8.77135e-05)
(0.000285577 2.49847e-05 -0.00011037)
(0.000276899 7.4195e-05 -0.00011037)
(0.000259809 0.000121151 -0.00011037)
(0.000234824 0.000164425 -0.00011037)
(0.000202704 0.000202704 -0.00011037)
(0.000164425 0.000234824 -0.00011037)
(0.000121151 0.000259809 -0.00011037)
(7.4195e-05 0.000276899 -0.00011037)
(2.49847e-05 0.000285577 -0.00011037)
(-2.49847e-05 0.000285577 -0.00011037)
(-7.4195e-05 0.000276899 -0.00011037)
(-0.000121151 0.000259809 -0.00011037)
(-0.000164425 0.000234824 -0.00011037)
(-0.000202704 0.000202704 -0.00011037)
(-0.000234824 0.000164425 -0.00011037)
(-0.000259809 0.000121151 -0.00011037)
(-0.000276899 7.4195e-05 -0.00011037)
(-0.000285577 2.49847e-05 -0.00011037)
(-0.000285577 -2.49847e-05 -0.00011037)
(-0.000276899 -7.4195e-05 -0.00011037)
(-0.000259809 -0.000121151 -0.00011037)
(-0.000234824 -0.000164425 -0.00011037)
(-0.000202704 -0.000202704 -0.00011037)
(-0.000164425 -0.000234824 -0.00011037)
(-0.000121151 -0.000259809 -0.00011037)
(-7.4195e-05 -0.000276899 -0.00011037)
(-2.49847e-05 -0.000285577 -0.00011037)
(2.49847e-05 -0.000285577 -0.00011037)
(7.4195e-05 -0.000276899 -0.00011037)
(0.000121151 -0.000259809 -0.00011037)
(0.000164425 -0.000234824 -0.00011037)
(0.000202704 -0.000202704 -0.00011037)
(0.000234824 -0.000164425 -0.00011037)
(0.000259809 -0.000121151 -0.00011037)
(0.000276899 -7.4195e-05 -0.00011037)
(0.000285577 -2.49847e-05 -0.00011037)
(0.000348857 3.05211e-05 -0.000135566)
(0.000338258 9.06357e-05 -0.000135566)
(0.00031738 0.000147996 -0.000135566)
(0.000286859 0.00020086 -0.000135566)
(0.000247621 0.000247621 -0.000135566)
(0.00020086 0.000286859 -0.000135566)
(0.000147996 0.00031738 -0.000135566)
(9.06357e-05 0.000338258 -0.000135566)
(3.05211e-05 0.000348857 -0.000135566)
(-3.05211e-05 0.000348857 -0.000135566)
(-9.06357e-05 0.000338258 -0.000135566)
(-0.000147996 0.00031738 -0.000135566)
(-0.00020086 0.000286859 -0.000135566)
(-0.000247621 0.000247621 -0.000135566)
(-0.000286859 0.00020086 -0.000135566)
(-0.00031738 0.000147996 -0.000135566)
(-0.000338258 9.06357e-05 -0.000135566)
(-0.000348857 3.05211e-05 -0.000135566)
(-0.000348857 -3.05211e-05 -0.000135566)
(-0.000338258 -9.06357e-05 -0.000135566)
(-0.00031738 -0.000147996 -0.000135566)
(-0.000286859 -0.00020086 -0.000135566)
(-0.000247621 -0.000247621 -0.000135566)
(-0.00020086 -0.000286859 -0.000135566)
(-0.000147996 -0.00031738 -0.000135566)
(-9.06357e-05 -0.000338258 -0.000135566)
(-3.05211e-05 -0.000348857 -0.000135566)
(3.05211e-05 -0.000348857 -0.000135566)
(9.06357e-05 -0.000338258 -0.000135566)
(0.000147996 -0.00031738 -0.000135566)
(0.00020086 -0.000286859 -0.000135566)
(0.000247621 -0.000247621 -0.000135566)
(0.000286859 -0.00020086 -0.000135566)
(0.00031738 -0.000147996 -0.000135566)
(0.000338258 -9.06357e-05 -0.000135566)
(0.000348857 -3.05211e-05 -0.000135566)
(0.000432008 3.77958e-05 -0.000159663)
(0.000418882 0.000112239 -0.000159663)
(0.000393028 0.000183272 -0.000159663)
(0.000355232 0.000248736 -0.000159664)
(0.000306642 0.000306642 -0.000159664)
(0.000248736 0.000355232 -0.000159664)
(0.000183272 0.000393028 -0.000159663)
(0.000112239 0.000418882 -0.000159663)
(3.77958e-05 0.000432008 -0.000159663)
(-3.77958e-05 0.000432008 -0.000159663)
(-0.000112239 0.000418882 -0.000159663)
(-0.000183272 0.000393028 -0.000159663)
(-0.000248736 0.000355232 -0.000159664)
(-0.000306642 0.000306642 -0.000159664)
(-0.000355232 0.000248736 -0.000159664)
(-0.000393028 0.000183272 -0.000159663)
(-0.000418882 0.000112239 -0.000159663)
(-0.000432008 3.77958e-05 -0.000159663)
(-0.000432008 -3.77958e-05 -0.000159663)
(-0.000418882 -0.000112239 -0.000159663)
(-0.000393028 -0.000183272 -0.000159663)
(-0.000355232 -0.000248736 -0.000159664)
(-0.000306642 -0.000306642 -0.000159664)
(-0.000248736 -0.000355232 -0.000159664)
(-0.000183272 -0.000393028 -0.000159663)
(-0.000112239 -0.000418882 -0.000159663)
(-3.77958e-05 -0.000432008 -0.000159663)
(3.77958e-05 -0.000432008 -0.000159663)
(0.000112239 -0.000418882 -0.000159663)
(0.000183272 -0.000393028 -0.000159663)
(0.000248736 -0.000355232 -0.000159664)
(0.000306642 -0.000306642 -0.000159664)
(0.000355232 -0.000248736 -0.000159664)
(0.000393028 -0.000183272 -0.000159663)
(0.000418882 -0.000112239 -0.000159663)
(0.000432008 -3.77958e-05 -0.000159663)
(0.000373347 3.26636e-05 -0.000177839)
(0.000362003 9.69984e-05 -0.000177839)
(0.00033966 0.000158386 -0.000177839)
(0.000306996 0.000214961 -0.000177839)
(0.000265005 0.000265005 -0.000177839)
(0.000214961 0.000306996 -0.000177839)
(0.000158386 0.00033966 -0.000177839)
(9.69984e-05 0.000362003 -0.000177839)
(3.26636e-05 0.000373347 -0.000177839)
(-3.26636e-05 0.000373347 -0.000177839)
(-9.69984e-05 0.000362003 -0.000177839)
(-0.000158386 0.00033966 -0.000177839)
(-0.000214961 0.000306996 -0.000177839)
(-0.000265005 0.000265005 -0.000177839)
(-0.000306996 0.000214961 -0.000177839)
(-0.00033966 0.000158386 -0.000177839)
(-0.000362003 9.69984e-05 -0.000177839)
(-0.000373347 3.26636e-05 -0.000177839)
(-0.000373347 -3.26636e-05 -0.000177839)
(-0.000362003 -9.69984e-05 -0.000177839)
(-0.00033966 -0.000158386 -0.000177839)
(-0.000306996 -0.000214961 -0.000177839)
(-0.000265005 -0.000265005 -0.000177839)
(-0.000214961 -0.000306996 -0.000177839)
(-0.000158386 -0.00033966 -0.000177839)
(-9.69984e-05 -0.000362003 -0.000177839)
(-3.26636e-05 -0.000373347 -0.000177839)
(3.26636e-05 -0.000373347 -0.000177839)
(9.69984e-05 -0.000362003 -0.000177839)
(0.000158386 -0.00033966 -0.000177839)
(0.000214961 -0.000306996 -0.000177839)
(0.000265005 -0.000265005 -0.000177839)
(0.000306996 -0.000214961 -0.000177839)
(0.00033966 -0.000158386 -0.000177839)
(0.000362003 -9.69984e-05 -0.000177839)
(0.000373347 -3.26636e-05 -0.000177839)
(0.000444696 3.89058e-05 -0.000204703)
(0.000431184 0.000115535 -0.000204703)
(0.000404571 0.000188654 -0.000204703)
(0.000365665 0.000256041 -0.000204703)
(0.000315648 0.000315648 -0.000204703)
(0.000256041 0.000365665 -0.000204703)
(0.000188654 0.000404571 -0.000204703)
(0.000115535 0.000431184 -0.000204703)
(3.89058e-05 0.000444696 -0.000204703)
(-3.89058e-05 0.000444696 -0.000204703)
(-0.000115535 0.000431184 -0.000204703)
(-0.000188654 0.000404571 -0.000204703)
(-0.000256041 0.000365665 -0.000204703)
(-0.000315648 0.000315648 -0.000204703)
(-0.000365665 0.000256041 -0.000204703)
(-0.000404571 0.000188654 -0.000204703)
(-0.000431184 0.000115535 -0.000204703)
(-0.000444696 3.89058e-05 -0.000204703)
(-0.000444696 -3.89058e-05 -0.000204703)
(-0.000431184 -0.000115535 -0.000204703)
(-0.000404571 -0.000188654 -0.000204703)
(-0.000365665 -0.000256041 -0.000204703)
(-0.000315648 -0.000315648 -0.000204703)
(-0.000256041 -0.000365665 -0.000204703)
(-0.000188654 -0.000404571 -0.000204703)
(-0.000115535 -0.000431184 -0.000204703)
(-3.89058e-05 -0.000444696 -0.000204703)
(3.89058e-05 -0.000444696 -0.000204703)
(0.000115535 -0.000431184 -0.000204703)
(0.000188654 -0.000404571 -0.000204703)
(0.000256041 -0.000365665 -0.000204703)
(0.000315648 -0.000315648 -0.000204703)
(0.000365665 -0.000256041 -0.000204703)
(0.000404571 -0.000188654 -0.000204703)
(0.000431184 -0.000115535 -0.000204703)
(0.000444696 -3.89058e-05 -0.000204703)
(0.000536277 4.69181e-05 -0.000231414)
(0.000519982 0.000139329 -0.000231414)
(0.000487888 0.000227506 -0.000231414)
(0.00044097 0.000308771 -0.000231414)
(0.000380653 0.000380653 -0.000231414)
(0.000308771 0.00044097 -0.000231414)
(0.000227506 0.000487888 -0.000231414)
(0.000139329 0.000519982 -0.000231414)
(4.69181e-05 0.000536277 -0.000231414)
(-4.69181e-05 0.000536277 -0.000231414)
(-0.000139329 0.000519982 -0.000231414)
(-0.000227506 0.000487888 -0.000231414)
(-0.000308771 0.00044097 -0.000231414)
(-0.000380653 0.000380653 -0.000231414)
(-0.00044097 0.000308771 -0.000231414)
(-0.000487888 0.000227506 -0.000231414)
(-0.000519982 0.000139329 -0.000231414)
(-0.000536277 4.69181e-05 -0.000231414)
(-0.000536277 -4.69181e-05 -0.000231414)
(-0.000519982 -0.000139329 -0.000231414)
(-0.000487888 -0.000227506 -0.000231414)
(-0.00044097 -0.000308771 -0.000231414)
(-0.000380653 -0.000380653 -0.000231414)
(-0.000308771 -0.00044097 -0.000231414)
(-0.000227506 -0.000487888 -0.000231414)
(-0.000139329 -0.000519982 -0.000231414)
(-4.69181e-05 -0.000536277 -0.000231414)
(4.69181e-05 -0.000536277 -0.000231414)
(0.000139329 -0.000519982 -0.000231414)
(0.000227506 -0.000487888 -0.000231414)
(0.000308771 -0.00044097 -0.000231414)
(0.000380653 -0.000380653 -0.000231414)
(0.00044097 -0.000308771 -0.000231414)
(0.000487888 -0.000227506 -0.000231414)
(0.000519982 -0.000139329 -0.000231414)
(0.000536277 -4.69181e-05 -0.000231414)
(0.000429263 3.75557e-05 -0.000244778)
(0.00041622 0.000111526 -0.000244778)
(0.000390531 0.000182107 -0.000244778)
(0.000352975 0.000247156 -0.000244778)
(0.000304694 0.000304694 -0.000244778)
(0.000247156 0.000352975 -0.000244778)
(0.000182107 0.000390531 -0.000244778)
(0.000111526 0.00041622 -0.000244778)
(3.75557e-05 0.000429263 -0.000244778)
(-3.75557e-05 0.000429263 -0.000244778)
(-0.000111526 0.00041622 -0.000244778)
(-0.000182107 0.000390531 -0.000244778)
(-0.000247156 0.000352975 -0.000244778)
(-0.000304694 0.000304694 -0.000244778)
(-0.000352975 0.000247156 -0.000244778)
(-0.000390531 0.000182107 -0.000244778)
(-0.00041622 0.000111526 -0.000244778)
(-0.000429263 3.75557e-05 -0.000244778)
(-0.000429263 -3.75557e-05 -0.000244778)
(-0.00041622 -0.000111526 -0.000244778)
(-0.000390531 -0.000182107 -0.000244778)
(-0.000352975 -0.000247156 -0.000244778)
(-0.000304694 -0.000304694 -0.000244778)
(-0.000247156 -0.000352975 -0.000244778)
(-0.000182107 -0.000390531 -0.000244778)
(-0.000111526 -0.00041622 -0.000244778)
(-3.75557e-05 -0.000429263 -0.000244778)
(3.75557e-05 -0.000429263 -0.000244778)
(0.000111526 -0.00041622 -0.000244778)
(0.000182107 -0.000390531 -0.000244778)
(0.000247156 -0.000352975 -0.000244778)
(0.000304694 -0.000304694 -0.000244778)
(0.000352975 -0.000247156 -0.000244778)
(0.000390531 -0.000182107 -0.000244778)
(0.00041622 -0.000111526 -0.000244778)
(0.000429263 -3.75557e-05 -0.000244778)
(0.000502981 4.40052e-05 -0.000270674)
(0.000487698 0.000130678 -0.000270674)
(0.000457596 0.000213381 -0.000270674)
(0.000413591 0.0002896 -0.000270674)
(0.000357019 0.000357019 -0.000270674)
(0.0002896 0.000413591 -0.000270674)
(0.000213381 0.000457596 -0.000270674)
(0.000130678 0.000487698 -0.000270674)
(4.40052e-05 0.000502981 -0.000270674)
(-4.40052e-05 0.000502981 -0.000270674)
(-0.000130678 0.000487698 -0.000270674)
(-0.000213381 0.000457596 -0.000270674)
(-0.0002896 0.000413591 -0.000270674)
(-0.000357019 0.000357019 -0.000270674)
(-0.000413591 0.0002896 -0.000270674)
(-0.000457596 0.000213381 -0.000270674)
(-0.000487698 0.000130678 -0.000270674)
(-0.000502981 4.40052e-05 -0.000270674)
(-0.000502981 -4.40052e-05 -0.000270674)
(-0.000487698 -0.000130678 -0.000270674)
(-0.000457596 -0.000213381 -0.000270674)
(-0.000413591 -0.0002896 -0.000270674)
(-0.000357019 -0.000357019 -0.000270674)
(-0.0002896 -0.000413591 -0.000270674)
(-0.000213381 -0.000457596 -0.000270674)
(-0.000130678 -0.000487698 -0.000270674)
(-4.40052e-05 -0.000502981 -0.000270674)
(4.40052e-05 -0.000502981 -0.000270674)
(0.000130678 -0.000487698 -0.000270674)
(0.000213381 -0.000457596 -0.000270674)
(0.0002896 -0.000413591 -0.000270674)
(0.000357019 -0.000357019 -0.000270674)
(0.000413591 -0.0002896 -0.000270674)
(0.000457596 -0.000213381 -0.000270674)
(0.000487698 -0.000130678 -0.000270674)
(0.000502981 -4.40052e-05 -0.000270674)
(0.000597478 5.22726e-05 -0.000297657)
(0.000579324 0.000155229 -0.000297657)
(0.000543567 0.00025347 -0.000297657)
(0.000491295 0.000344008 -0.000297657)
(0.000424095 0.000424095 -0.000297657)
(0.000344008 0.000491295 -0.000297657)
(0.00025347 0.000543567 -0.000297657)
(0.000155229 0.000579324 -0.000297657)
(5.22726e-05 0.000597478 -0.000297657)
(-5.22726e-05 0.000597478 -0.000297657)
(-0.000155229 0.000579324 -0.000297657)
(-0.00025347 0.000543567 -0.000297657)
(-0.000344008 0.000491295 -0.000297657)
(-0.000424095 0.000424095 -0.000297657)
(-0.000491295 0.000344008 -0.000297657)
(-0.000543567 0.00025347 -0.000297657)
(-0.000579324 0.000155229 -0.000297657)
(-0.000597478 5.22726e-05 -0.000297657)
(-0.000597478 -5.22726e-05 -0.000297657)
(-0.000579324 -0.000155229 -0.000297657)
(-0.000543567 -0.00025347 -0.000297657)
(-0.000491295 -0.000344008 -0.000297657)
(-0.000424095 -0.000424095 -0.000297657)
(-0.000344008 -0.000491295 -0.000297657)
(-0.00025347 -0.000543567 -0.000297657)
(-0.000155229 -0.000579324 -0.000297657)
(-5.22726e-05 -0.000597478 -0.000297657)
(5.22726e-05 -0.000597478 -0.000297657)
(0.000155229 -0.000579324 -0.000297657)
(0.00025347 -0.000543567 -0.000297657)
(0.000344008 -0.000491295 -0.000297657)
(0.000424095 -0.000424095 -0.000297657)
(0.000491295 -0.000344008 -0.000297657)
(0.000543567 -0.00025347 -0.000297657)
(0.000579324 -0.000155229 -0.000297657)
(0.000597478 -5.22726e-05 -0.000297657)
(0.000450833 3.94429e-05 -0.000304516)
(0.000437135 0.00011713 -0.000304516)
(0.000410154 0.000191258 -0.000304516)
(0.000370712 0.000259575 -0.000304516)
(0.000320005 0.000320005 -0.000304516)
(0.000259575 0.000370712 -0.000304516)
(0.000191258 0.000410154 -0.000304516)
(0.00011713 0.000437135 -0.000304516)
(3.94429e-05 0.000450833 -0.000304516)
(-3.94429e-05 0.000450833 -0.000304516)
(-0.00011713 0.000437135 -0.000304516)
(-0.000191258 0.000410154 -0.000304516)
(-0.000259575 0.000370712 -0.000304516)
(-0.000320005 0.000320005 -0.000304516)
(-0.000370712 0.000259575 -0.000304516)
(-0.000410154 0.000191258 -0.000304516)
(-0.000437135 0.00011713 -0.000304516)
(-0.000450833 3.94429e-05 -0.000304516)
(-0.000450833 -3.94429e-05 -0.000304516)
(-0.000437135 -0.00011713 -0.000304516)
(-0.000410154 -0.000191258 -0.000304516)
(-0.000370712 -0.000259575 -0.000304516)
(-0.000320005 -0.000320005 -0.000304516)
(-0.000259575 -0.000370712 -0.000304516)
(-0.000191258 -0.000410154 -0.000304516)
(-0.00011713 -0.000437135 -0.000304516)
(-3.94429e-05 -0.000450833 -0.000304516)
(3.94429e-05 -0.000450833 -0.000304516)
(0.00011713 -0.000437135 -0.000304516)
(0.000191258 -0.000410154 -0.000304516)
(0.000259575 -0.000370712 -0.000304516)
(0.000320005 -0.000320005 -0.000304516)
(0.000370712 -0.000259575 -0.000304516)
(0.000410154 -0.000191258 -0.000304516)
(0.000437135 -0.00011713 -0.000304516)
(0.000450833 -3.94429e-05 -0.000304516)
(0.000523525 4.58025e-05 -0.000328352)
(0.000507618 0.000136016 -0.000328352)
(0.000476287 0.000222096 -0.000328352)
(0.000430485 0.000301429 -0.000328353)
(0.000371602 0.000371602 -0.000328353)
(0.000301429 0.000430485 -0.000328353)
(0.000222096 0.000476287 -0.000328352)
(0.000136016 0.000507618 -0.000328352)
(4.58025e-05 0.000523525 -0.000328352)
(-4.58025e-05 0.000523525 -0.000328352)
(-0.000136016 0.000507618 -0.000328352)
(-0.000222096 0.000476287 -0.000328352)
(-0.000301429 0.000430485 -0.000328353)
(-0.000371602 0.000371602 -0.000328353)
(-0.000430485 0.000301429 -0.000328353)
(-0.000476287 0.000222096 -0.000328352)
(-0.000507618 0.000136016 -0.000328352)
(-0.000523525 4.58025e-05 -0.000328352)
(-0.000523525 -4.58025e-05 -0.000328352)
(-0.000507618 -0.000136016 -0.000328352)
(-0.000476287 -0.000222096 -0.000328352)
(-0.000430485 -0.000301429 -0.000328353)
(-0.000371602 -0.000371602 -0.000328353)
(-0.000301429 -0.000430485 -0.000328353)
(-0.000222096 -0.000476287 -0.000328352)
(-0.000136016 -0.000507618 -0.000328352)
(-4.58025e-05 -0.000523525 -0.000328352)
(4.58025e-05 -0.000523525 -0.000328352)
(0.000136016 -0.000507618 -0.000328352)
(0.000222096 -0.000476287 -0.000328352)
(0.000301429 -0.000430485 -0.000328353)
(0.000371602 -0.000371602 -0.000328353)
(0.000430485 -0.000301429 -0.000328353)
(0.000476287 -0.000222096 -0.000328352)
(0.000507618 -0.000136016 -0.000328352)
(0.000523525 -4.58025e-05 -0.000328352)
(0.000617669 5.4039e-05 -0.000354757)
(0.000598901 0.000160475 -0.000354757)
(0.000561936 0.000262035 -0.000354757)
(0.000507897 0.000355634 -0.000354758)
(0.000438426 0.000438426 -0.000354758)
(0.000355634 0.000507897 -0.000354758)
(0.000262035 0.000561936 -0.000354757)
(0.000160475 0.000598901 -0.000354757)
(5.4039e-05 0.000617669 -0.000354757)
(-5.4039e-05 0.000617669 -0.000354757)
(-0.000160475 0.000598901 -0.000354757)
(-0.000262035 0.000561936 -0.000354757)
(-0.000355634 0.000507897 -0.000354758)
(-0.000438426 0.000438426 -0.000354758)
(-0.000507897 0.000355634 -0.000354758)
(-0.000561936 0.000262035 -0.000354757)
(-0.000598901 0.000160475 -0.000354757)
(-0.000617669 5.4039e-05 -0.000354757)
(-0.000617669 -5.4039e-05 -0.000354757)
(-0.000598901 -0.000160475 -0.000354757)
(-0.000561936 -0.000262035 -0.000354757)
(-0.000507897 -0.000355634 -0.000354758)
(-0.000438426 -0.000438426 -0.000354758)
(-0.000355634 -0.000507897 -0.000354758)
(-0.000262035 -0.000561936 -0.000354757)
(-0.000160475 -0.000598901 -0.000354757)
(-5.4039e-05 -0.000617669 -0.000354757)
(5.4039e-05 -0.000617669 -0.000354757)
(0.000160475 -0.000598901 -0.000354757)
(0.000262035 -0.000561936 -0.000354757)
(0.000355634 -0.000507897 -0.000354758)
(0.000438426 -0.000438426 -0.000354758)
(0.000507897 -0.000355634 -0.000354758)
(0.000561936 -0.000262035 -0.000354757)
(0.000598901 -0.000160475 -0.000354757)
(0.000617669 -5.4039e-05 -0.000354757)
(0.000439665 3.84657e-05 -0.000352878)
(0.000426306 0.000114228 -0.000352878)
(0.000399994 0.00018652 -0.000352878)
(0.000361528 0.000253145 -0.000352878)
(0.000312078 0.000312078 -0.000352878)
(0.000253145 0.000361528 -0.000352878)
(0.00018652 0.000399994 -0.000352878)
(0.000114228 0.000426306 -0.000352878)
(3.84657e-05 0.000439665 -0.000352878)
(-3.84657e-05 0.000439665 -0.000352878)
(-0.000114228 0.000426306 -0.000352878)
(-0.00018652 0.000399994 -0.000352878)
(-0.000253145 0.000361528 -0.000352878)
(-0.000312078 0.000312078 -0.000352878)
(-0.000361528 0.000253145 -0.000352878)
(-0.000399994 0.00018652 -0.000352878)
(-0.000426306 0.000114228 -0.000352878)
(-0.000439665 3.84657e-05 -0.000352878)
(-0.000439665 -3.84657e-05 -0.000352878)
(-0.000426306 -0.000114228 -0.000352878)
(-0.000399994 -0.00018652 -0.000352878)
(-0.000361528 -0.000253145 -0.000352878)
(-0.000312078 -0.000312078 -0.000352878)
(-0.000253145 -0.000361528 -0.000352878)
(-0.00018652 -0.000399994 -0.000352878)
(-0.000114228 -0.000426306 -0.000352878)
(-3.84657e-05 -0.000439665 -0.000352878)
(3.84657e-05 -0.000439665 -0.000352878)
(0.000114228 -0.000426306 -0.000352878)
(0.00018652 -0.000399994 -0.000352878)
(0.000253145 -0.000361528 -0.000352878)
(0.000312078 -0.000312078 -0.000352878)
(0.000361528 -0.000253145 -0.000352878)
(0.000399994 -0.00018652 -0.000352878)
(0.000426306 -0.000114228 -0.000352878)
(0.000439665 -3.84657e-05 -0.000352878)
(0.000509548 4.45797e-05 -0.000374531)
(0.000494065 0.000132385 -0.000374531)
(0.000463571 0.000216167 -0.000374531)
(0.000418991 0.000293381 -0.000374531)
(0.000361681 0.000361681 -0.000374531)
(0.000293381 0.000418991 -0.000374531)
(0.000216167 0.000463571 -0.000374531)
(0.000132385 0.000494065 -0.000374531)
(4.45797e-05 0.000509548 -0.000374531)
(-4.45797e-05 0.000509548 -0.000374531)
(-0.000132385 0.000494065 -0.000374531)
(-0.000216167 0.000463571 -0.000374531)
(-0.000293381 0.000418991 -0.000374531)
(-0.000361681 0.000361681 -0.000374531)
(-0.000418991 0.000293381 -0.000374531)
(-0.000463571 0.000216167 -0.000374531)
(-0.000494065 0.000132385 -0.000374531)
(-0.000509548 4.45797e-05 -0.000374531)
(-0.000509548 -4.45797e-05 -0.000374531)
(-0.000494065 -0.000132385 -0.000374531)
(-0.000463571 -0.000216167 -0.000374531)
(-0.000418991 -0.000293381 -0.000374531)
(-0.000361681 -0.000361681 -0.000374531)
(-0.000293381 -0.000418991 -0.000374531)
(-0.000216167 -0.000463571 -0.000374531)
(-0.000132385 -0.000494065 -0.000374531)
(-4.45797e-05 -0.000509548 -0.000374531)
(4.45797e-05 -0.000509548 -0.000374531)
(0.000132385 -0.000494065 -0.000374531)
(0.000216167 -0.000463571 -0.000374531)
(0.000293381 -0.000418991 -0.000374531)
(0.000361681 -0.000361681 -0.000374531)
(0.000418991 -0.000293381 -0.000374531)
(0.000463571 -0.000216167 -0.000374531)
(0.000494065 -0.000132385 -0.000374531)
(0.000509548 -4.45797e-05 -0.000374531)
(0.000601551 5.26291e-05 -0.000400445)
(0.000583273 0.000156288 -0.000400445)
(0.000547273 0.000255198 -0.000400445)
(0.000494644 0.000346354 -0.000400446)
(0.000426986 0.000426986 -0.000400445)
(0.000346354 0.000494644 -0.000400446)
(0.000255198 0.000547273 -0.000400445)
(0.000156288 0.000583273 -0.000400445)
(5.26291e-05 0.000601551 -0.000400445)
(-5.26291e-05 0.000601551 -0.000400445)
(-0.000156288 0.000583273 -0.000400445)
(-0.000255198 0.000547273 -0.000400445)
(-0.000346354 0.000494644 -0.000400446)