/*--------------------------------*- C++ -*----------------------------------*\
| =========                 |                                                 |
| \\      /  F ield         | OpenFOAM: The Open Source CFD Toolbox           |
|  \\    /   O peration     | Version:  2312                                  |
|   \\  /    A nd           | Website:  www.openfoam.com                      |
|    \\/     M anipulation  |                                                 |
\*---------------------------------------------------------------------------*/
FoamFile
{
    version     2.0;
    format      ascii;
    arch        "LSB;label=32;scalar=64";
    class       volVectorField;
    location    "0.2";
    object      D_0_0;
}
// * * * * * * * * * * * * * * * * * * * * * * * * * * * * * * * * * * * * * //

dimensions      [0 1 0 0 0 0 0];

internalField   nonuniform List<vector> 
1620
(
(4.66015e-05 4.0771e-06 -1.29858e-05)
(4.51855e-05 1.21074e-05 -1.29858e-05)
(4.23965e-05 1.97698e-05 -1.29858e-05)
(3.83195e-05 2.68315e-05 -1.29858e-05)
(3.3078e-05 3.3078e-05 -1.29858e-05)
(2.68315e-05 3.83195e-05 -1.29858e-05)
(1.97698e-05 4.23965e-05 -1.29858e-05)
(1.21074e-05 4.51855e-05 -1.29858e-05)
(4.0771e-06 4.66015e-05 -1.29858e-05)
(-4.0771e-06 4.66015e-05 -1.29858e-05)
(-1.21074e-05 4.51855e-05 -1.29858e-05)
(-1.97698e-05 4.23965e-05 -1.29858e-05)
(-2.68315e-05 3.83195e-05 -1.29858e-05)
(-3.3078e-05 3.3078e-05 -1.29858e-05)
(-3.83195e-05 2.68315e-05 -1.29858e-05)
(-4.23965e-05 1.97698e-05 -1.29858e-05)
(-4.51855e-05 1.21074e-05 -1.29858e-05)
(-4.66015e-05 4.0771e-06 -1.29858e-05)
(-4.66015e-05 -4.0771e-06 -1.29858e-05)
(-4.51855e-05 -1.21074e-05 -1.29858e-05)
(-4.23965e-05 -1.97698e-05 -1.29858e-05)
(-3.83195e-05 -2.68315e-05 -1.29858e-05)
(-3.3078e-05 -3.3078e-05 -1.29858e-05)
(-2.68315e-05 -3.83195e-05 -1.29858e-05)
(-1.97698e-05 -4.23965e-05 -1.29858e-05)
(-1.21074e-05 -4.51855e-05 -1.29858e-05)
(-4.0771e-06 -4.66015e-05 -1.29858e-05)
(4.0771e-06 -4.66015e-05 -1.29858e-05)
(1.21074e-05 -4.51855e-05 -1.29858e-05)
(1.97698e-05 -4.23965e-05 -1.29858e-05)
(2.68315e-05 -3.83195e-05 -1.29858e-05)
(3.3078e-05 -3.3078e-05 -1.29858e-05)
(3.83195e-05 -2.68315e-05 -1.29858e-05)
(4.23965e-05 -1.97698e-05 -1.29858e-05)
(4.51855e-05 -1.21074e-05 -1.29858e-05)
(4.66015e-05 -4.0771e-06 -1.29858e-05)
(6.94473e-05 6.07582e-06 -1.90086e-05)
(6.73372e-05 1.80429e-05 -1.90086e-05)
(6.3181e-05 2.94617e-05 -1.90086e-05)
(5.71051e-05 3.99854e-05 -1.90086e-05)
(4.92942e-05 4.92942e-05 -1.90086e-05)
(3.99854e-05 5.71051e-05 -1.90086e-05)
(2.94617e-05 6.3181e-05 -1.90086e-05)
(1.80429e-05 6.73372e-05 -1.90086e-05)
(6.07582e-06 6.94473e-05 -1.90086e-05)
(-6.07582e-06 6.94473e-05 -1.90086e-05)
(-1.80429e-05 6.73372e-05 -1.90086e-05)
(-2.94617e-05 6.3181e-05 -1.90086e-05)
(-3.99854e-05 5.71051e-05 -1.90086e-05)
(-4.92942e-05 4.92942e-05 -1.90086e-05)
(-5.71051e-05 3.99854e-05 -1.90086e-05)
(-6.3181e-05 2.94617e-05 -1.90086e-05)
(-6.73372e-05 1.80429e-05 -1.90086e-05)
(-6.94473e-05 6.07582e-06 -1.90086e-05)
(-6.94473e-05 -6.07582e-06 -1.90086e-05)
(-6.73372e-05 -1.80429e-05 -1.90086e-05)
(-6.3181e-05 -2.94617e-05 -1.90086e-05)
(-5.71051e-05 -3.99854e-05 -1.90086e-05)
(-4.92942e-05 -4.92942e-05 -1.90086e-05)
(-3.99854e-05 -5.71051e-05 -1.90086e-05)
(-2.94617e-05 -6.3181e-05 -1.90086e-05)
(-1.80429e-05 -6.73372e-05 -1.90086e-05)
(-6.07582e-06 -6.94473e-05 -1.90086e-05)
(6.07582e-06 -6.94473e-05 -1.90086e-05)
(1.80429e-05 -6.73372e-05 -1.90086e-05)
(2.94617e-05 -6.3181e-05 -1.90086e-05)
(3.99854e-05 -5.71051e-05 -1.90086e-05)
(4.92942e-05 -4.92942e-05 -1.90086e-05)
(5.71051e-05 -3.99854e-05 -1.90086e-05)
(6.3181e-05 -2.94617e-05 -1.90086e-05)
(6.73372e-05 -1.80429e-05 -1.90086e-05)
(6.94473e-05 -6.07582e-06 -1.90086e-05)
(0.000105333 9.2154e-06 -2.33285e-05)
(0.000102132 2.73662e-05 -2.33286e-05)
(9.58288e-05 4.46856e-05 -2.33286e-05)
(8.66132e-05 6.06472e-05 -2.33285e-05)
(7.47661e-05 7.47661e-05 -2.33286e-05)
(6.06472e-05 8.66132e-05 -2.33285e-05)
(4.46856e-05 9.58288e-05 -2.33286e-05)
(2.73662e-05 0.000102132 -2.33286e-05)
(9.2154e-06 0.000105333 -2.33285e-05)
(-9.2154e-06 0.000105333 -2.33285e-05)
(-2.73662e-05 0.000102132 -2.33286e-05)
(-4.46856e-05 9.58288e-05 -2.33286e-05)
(-6.06472e-05 8.66132e-05 -2.33285e-05)
(-7.47661e-05 7.47661e-05 -2.33286e-05)
(-8.66132e-05 6.06472e-05 -2.33285e-05)
(-9.58288e-05 4.46856e-05 -2.33286e-05)
(-0.000102132 2.73662e-05 -2.33286e-05)
(-0.000105333 9.2154e-06 -2.33285e-05)
(-0.000105333 -9.2154e-06 -2.33285e-05)
(-0.000102132 -2.73662e-05 -2.33286e-05)
(-9.58288e-05 -4.46856e-05 -2.33286e-05)
(-8.66132e-05 -6.06472e-05 -2.33285e-05)
(-7.47661e-05 -7.47661e-05 -2.33286e-05)
(-6.06472e-05 -8.66132e-05 -2.33285e-05)
(-4.46856e-05 -9.58288e-05 -2.33286e-05)
(-2.73662e-05 -0.000102132 -2.33286e-05)
(-9.2154e-06 -0.000105333 -2.33285e-05)
(9.2154e-06 -0.000105333 -2.33285e-05)
(2.73662e-05 -0.000102132 -2.33286e-05)
(4.46856e-05 -9.58288e-05 -2.33286e-05)
(6.06472e-05 -8.66132e-05 -2.33285e-05)
(7.47661e-05 -7.47661e-05 -2.33286e-05)
(8.66132e-05 -6.06472e-05 -2.33285e-05)
(9.58288e-05 -4.46856e-05 -2.33286e-05)
(0.000102132 -2.73662e-05 -2.33286e-05)
(0.000105333 -9.2154e-06 -2.33285e-05)
(0.000163125 1.42716e-05 -4.79916e-05)
(0.000158168 4.23811e-05 -4.79917e-05)
(0.000148406 6.92027e-05 -4.79917e-05)
(0.000134134 9.39216e-05 -4.79917e-05)
(0.000115787 0.000115787 -4.79918e-05)
(9.39216e-05 0.000134134 -4.79917e-05)
(6.92027e-05 0.000148406 -4.79917e-05)
(4.23811e-05 0.000158168 -4.79917e-05)
(1.42716e-05 0.000163125 -4.79916e-05)
(-1.42716e-05 0.000163125 -4.79916e-05)
(-4.23811e-05 0.000158168 -4.79917e-05)
(-6.92027e-05 0.000148406 -4.79917e-05)
(-9.39216e-05 0.000134134 -4.79917e-05)
(-0.000115787 0.000115787 -4.79918e-05)
(-0.000134134 9.39216e-05 -4.79917e-05)
(-0.000148406 6.92027e-05 -4.79917e-05)
(-0.000158168 4.23811e-05 -4.79917e-05)
(-0.000163125 1.42716e-05 -4.79916e-05)
(-0.000163125 -1.42716e-05 -4.79916e-05)
(-0.000158168 -4.23811e-05 -4.79917e-05)
(-0.000148406 -6.92027e-05 -4.79917e-05)
(-0.000134134 -9.39216e-05 -4.79917e-05)
(-0.000115787 -0.000115787 -4.79918e-05)
(-9.39216e-05 -0.000134134 -4.79917e-05)
(-6.92027e-05 -0.000148406 -4.79917e-05)
(-4.23811e-05 -0.000158168 -4.79917e-05)
(-1.42716e-05 -0.000163125 -4.79916e-05)
(1.42716e-05 -0.000163125 -4.79916e-05)
(4.23811e-05 -0.000158168 -4.79917e-05)
(6.92027e-05 -0.000148406 -4.79917e-05)
(9.39216e-05 -0.000134134 -4.79917e-05)
(0.000115787 -0.000115787 -4.79918e-05)
(0.000134134 -9.39216e-05 -4.79917e-05)
(0.000148406 -6.92027e-05 -4.79917e-05)
(0.000158168 -4.23811e-05 -4.79917e-05)
(0.000163125 -1.42716e-05 -4.79916e-05)
(0.000207134 1.81219e-05 -6.58435e-05)
(0.000200841 5.3815e-05 -6.58435e-05)
(0.000188444 8.7873e-05 -6.58436e-05)
(0.000170323 0.000119261 -6.58436e-05)
(0.000147025 0.000147025 -6.58436e-05)
(0.000119261 0.000170323 -6.58436e-05)
(8.7873e-05 0.000188444 -6.58436e-05)
(5.3815e-05 0.000200841 -6.58435e-05)
(1.81219e-05 0.000207134 -6.58435e-05)
(-1.81219e-05 0.000207134 -6.58435e-05)
(-5.3815e-05 0.000200841 -6.58435e-05)
(-8.7873e-05 0.000188444 -6.58436e-05)
(-0.000119261 0.000170323 -6.58436e-05)
(-0.000147025 0.000147025 -6.58436e-05)
(-0.000170323 0.000119261 -6.58436e-05)
(-0.000188444 8.7873e-05 -6.58436e-05)
(-0.000200841 5.3815e-05 -6.58435e-05)
(-0.000207134 1.81219e-05 -6.58435e-05)
(-0.000207134 -1.81219e-05 -6.58435e-05)
(-0.000200841 -5.3815e-05 -6.58435e-05)
(-0.000188444 -8.7873e-05 -6.58436e-05)
(-0.000170323 -0.000119261 -6.58436e-05)
(-0.000147025 -0.000147025 -6.58436e-05)
(-0.000119261 -0.000170323 -6.58436e-05)
(-8.7873e-05 -0.000188444 -6.58436e-05)
(-5.3815e-05 -0.000200841 -6.58435e-05)
(-1.81219e-05 -0.000207134 -6.58435e-05)
(1.81219e-05 -0.000207134 -6.58435e-05)
(5.3815e-05 -0.000200841 -6.58435e-05)
(8.7873e-05 -0.000188444 -6.58436e-05)
(0.000119261 -0.000170323 -6.58436e-05)
(0.000147025 -0.000147025 -6.58436e-05)
(0.000170323 -0.000119261 -6.58436e-05)
(0.000188444 -8.7873e-05 -6.58436e-05)
(0.000200841 -5.3815e-05 -6.58435e-05)
(0.000207134 -1.81219e-05 -6.58435e-05)
(0.000269037 2.35377e-05 -8.22293e-05)
(0.000260863 6.98978e-05 -8.22293e-05)
(0.000244762 0.000114134 -8.22293e-05)
(0.000221224 0.000154902 -8.22292e-05)
(0.000190964 0.000190964 -8.22291e-05)
(0.000154902 0.000221224 -8.22292e-05)
(0.000114134 0.000244762 -8.22293e-05)
(6.98978e-05 0.000260863 -8.22293e-05)
(2.35377e-05 0.000269037 -8.22293e-05)
(-2.35377e-05 0.000269037 -8.22293e-05)
(-6.98978e-05 0.000260863 -8.22293e-05)
(-0.000114134 0.000244762 -8.22293e-05)
(-0.000154902 0.000221224 -8.22292e-05)
(-0.000190964 0.000190964 -8.22291e-05)
(-0.000221224 0.000154902 -8.22292e-05)
(-0.000244762 0.000114134 -8.22293e-05)
(-0.000260863 6.98978e-05 -8.22293e-05)
(-0.000269037 2.35377e-05 -8.22293e-05)
(-0.000269037 -2.35377e-05 -8.22293e-05)
(-0.000260863 -6.98978e-05 -8.22293e-05)
(-0.000244762 -0.000114134 -8.22293e-05)
(-0.000221224 -0.000154902 -8.22292e-05)
(-0.000190964 -0.000190964 -8.22291e-05)
(-0.000154902 -0.000221224 -8.22292e-05)
(-0.000114134 -0.000244762 -8.22293e-05)
(-6.98978e-05 -0.000260863 -8.22293e-05)
(-2.35377e-05 -0.000269037 -8.22293e-05)
(2.35377e-05 -0.000269037 -8.22293e-05)
(6.98978e-05 -0.000260863 -8.22293e-05)
(0.000114134 -0.000244762 -8.22293e-05)
(0.000154902 -0.000221224 -8.22292e-05)
(0.000190964 -0.000190964 -8.22291e-05)
(0.000221224 -0.000154902 -8.22292e-05)
(0.000244762 -0.000114134 -8.22293e-05)
(0.000260863 -6.98978e-05 -8.22293e-05)
(0.000269037 -2.35377e-05 -8.22293e-05)
(0.000267942 2.34419e-05 -0.000102454)
(0.000259801 6.96133e-05 -0.000102454)
(0.000243765 0.00011367 -0.000102454)
(0.000220323 0.000154272 -0.000102454)
(0.000190187 0.000190187 -0.000102454)
(0.000154272 0.000220323 -0.000102454)
(0.00011367 0.000243765 -0.000102454)
(6.96133e-05 0.000259801 -0.000102454)
(2.34419e-05 0.000267942 -0.000102454)
(-2.34419e-05 0.000267942 -0.000102454)
(-6.96133e-05 0.000259801 -0.000102454)
(-0.00011367 0.000243765 -0.000102454)
(-0.000154272 0.000220323 -0.000102454)
(-0.000190187 0.000190187 -0.000102454)
(-0.000220323 0.000154272 -0.000102454)
(-0.000243765 0.00011367 -0.000102454)
(-0.000259801 6.96133e-05 -0.000102454)
(-0.000267942 2.34419e-05 -0.000102454)
(-0.000267942 -2.34419e-05 -0.000102454)
(-0.000259801 -6.96133e-05 -0.000102454)
(-0.000243765 -0.00011367 -0.000102454)
(-0.000220323 -0.000154272 -0.000102454)
(-0.000190187 -0.000190187 -0.000102454)
(-0.000154272 -0.000220323 -0.000102454)
(-0.00011367 -0.000243765 -0.000102454)
(-6.96133e-05 -0.000259801 -0.000102454)
(-2.34419e-05 -0.000267942 -0.000102454)
(2.34419e-05 -0.000267942 -0.000102454)
(6.96133e-05 -0.000259801 -0.000102454)
(0.00011367 -0.000243765 -0.000102454)
(0.000154272 -0.000220323 -0.000102454)
(0.000190187 -0.000190187 -0.000102454)
(0.000220323 -0.000154272 -0.000102454)
(0.000243765 -0.00011367 -0.000102454)
(0.000259801 -6.96133e-05 -0.000102454)
(0.000267942 -2.34419e-05 -0.000102454)
(0.00032718 2.86246e-05 -0.000126372)
(0.000317239 8.50038e-05 -0.000126372)
(0.000297658 0.0001388 -0.000126372)
(0.000269034 0.000188379 -0.000126372)
(0.000232235 0.000232235 -0.000126372)
(0.000188379 0.000269034 -0.000126372)
(0.0001388 0.000297658 -0.000126372)
(8.50038e-05 0.000317239 -0.000126372)
(2.86246e-05 0.00032718 -0.000126372)
(-2.86246e-05 0.00032718 -0.000126372)
(-8.50038e-05 0.000317239 -0.000126372)
(-0.0001388 0.000297658 -0.000126372)
(-0.000188379 0.000269034 -0.000126372)
(-0.000232235 0.000232235 -0.000126372)
(-0.000269034 0.000188379 -0.000126372)
(-0.000297658 0.0001388 -0.000126372)
(-0.000317239 8.50038e-05 -0.000126372)
(-0.00032718 2.86246e-05 -0.000126372)
(-0.00032718 -2.86246e-05 -0.000126372)
(-0.000317239 -8.50038e-05 -0.000126372)
(-0.000297658 -0.0001388 -0.000126372)
(-0.000269034 -0.000188379 -0.000126372)
(-0.000232235 -0.000232235 -0.000126372)
(-0.000188379 -0.000269034 -0.000126372)
(-0.0001388 -0.000297658 -0.000126372)
(-8.50038e-05 -0.000317239 -0.000126372)
(-2.86246e-05 -0.00032718 -0.000126372)
(2.86246e-05 -0.00032718 -0.000126372)
(8.50038e-05 -0.000317239 -0.000126372)
(0.0001388 -0.000297658 -0.000126372)
(0.000188379 -0.000269034 -0.000126372)
(0.000232235 -0.000232235 -0.000126372)
(0.000269034 -0.000188379 -0.000126372)
(0.000297658 -0.0001388 -0.000126372)
(0.000317239 -8.50038e-05 -0.000126372)
(0.00032718 -2.86246e-05 -0.000126372)
(0.000405146 3.54457e-05 -0.000149331)
(0.000392836 0.00010526 -0.000149331)
(0.000368589 0.000171876 -0.000149331)
(0.000333144 0.000233269 -0.000149331)
(0.000287575 0.000287575 -0.000149331)
(0.000233269 0.000333144 -0.000149331)
(0.000171876 0.000368589 -0.000149331)
(0.00010526 0.000392836 -0.000149331)
(3.54457e-05 0.000405146 -0.000149331)
(-3.54457e-05 0.000405146 -0.000149331)
(-0.00010526 0.000392836 -0.000149331)
(-0.000171876 0.000368589 -0.000149331)
(-0.000233269 0.000333144 -0.000149331)
(-0.000287575 0.000287575 -0.000149331)
(-0.000333144 0.000233269 -0.000149331)
(-0.000368589 0.000171876 -0.000149331)
(-0.000392836 0.00010526 -0.000149331)
(-0.000405146 3.54457e-05 -0.000149331)
(-0.000405146 -3.54457e-05 -0.000149331)
(-0.000392836 -0.00010526 -0.000149331)
(-0.000368589 -0.000171876 -0.000149331)
(-0.000333144 -0.000233269 -0.000149331)
(-0.000287575 -0.000287575 -0.000149331)
(-0.000233269 -0.000333144 -0.000149331)
(-0.000171876 -0.000368589 -0.000149331)
(-0.00010526 -0.000392836 -0.000149331)
(-3.54457e-05 -0.000405146 -0.000149331)
(3.54457e-05 -0.000405146 -0.000149331)
(0.00010526 -0.000392836 -0.000149331)
(0.000171876 -0.000368589 -0.000149331)
(0.000233269 -0.000333144 -0.000149331)
(0.000287575 -0.000287575 -0.000149331)
(0.000333144 -0.000233269 -0.000149331)
(0.000368589 -0.000171876 -0.000149331)
(0.000392836 -0.00010526 -0.000149331)
(0.000405146 -3.54457e-05 -0.000149331)
(0.000350216 3.064e-05 -0.000165164)
(0.000339575 9.09889e-05 -0.000165164)
(0.000318616 0.000148573 -0.000165164)
(0.000287976 0.000201643 -0.000165164)
(0.000248586 0.000248586 -0.000165164)
(0.000201643 0.000287976 -0.000165164)
(0.000148573 0.000318616 -0.000165164)
(9.09889e-05 0.000339575 -0.000165164)
(3.064e-05 0.000350216 -0.000165164)
(-3.064e-05 0.000350216 -0.000165164)
(-9.09889e-05 0.000339575 -0.000165164)
(-0.000148573 0.000318616 -0.000165164)
(-0.000201643 0.000287976 -0.000165164)
(-0.000248586 0.000248586 -0.000165164)
(-0.000287976 0.000201643 -0.000165164)
(-0.000318616 0.000148573 -0.000165164)
(-0.000339575 9.09889e-05 -0.000165164)
(-0.000350216 3.064e-05 -0.000165164)
(-0.000350216 -3.064e-05 -0.000165164)
(-0.000339575 -9.09889e-05 -0.000165164)
(-0.000318616 -0.000148573 -0.000165164)
(-0.000287976 -0.000201643 -0.000165164)
(-0.000248586 -0.000248586 -0.000165164)
(-0.000201643 -0.000287976 -0.000165164)
(-0.000148573 -0.000318616 -0.000165164)
(-9.09889e-05 -0.000339575 -0.000165164)
(-3.064e-05 -0.000350216 -0.000165164)
(3.064e-05 -0.000350216 -0.000165164)
(9.09889e-05 -0.000339575 -0.000165164)
(0.000148573 -0.000318616 -0.000165164)
(0.000201643 -0.000287976 -0.000165164)
(0.000248586 -0.000248586 -0.000165164)
(0.000287976 -0.000201643 -0.000165164)
(0.000318616 -0.000148573 -0.000165164)
(0.000339575 -9.09889e-05 -0.000165164)
(0.000350216 -3.064e-05 -0.000165164)
(0.000417019 3.64845e-05 -0.000190604)
(0.000404348 0.000108345 -0.000190604)
(0.000379392 0.000176913 -0.000190604)
(0.000342907 0.000240106 -0.000190604)
(0.000296003 0.000296003 -0.000190604)
(0.000240106 0.000342907 -0.000190604)
(0.000176913 0.000379392 -0.000190604)
(0.000108345 0.000404348 -0.000190604)
(3.64845e-05 0.000417019 -0.000190604)
(-3.64845e-05 0.000417019 -0.000190604)
(-0.000108345 0.000404348 -0.000190604)
(-0.000176913 0.000379392 -0.000190604)
(-0.000240106 0.000342907 -0.000190604)
(-0.000296003 0.000296003 -0.000190604)
(-0.000342907 0.000240106 -0.000190604)
(-0.000379392 0.000176913 -0.000190604)
(-0.000404348 0.000108345 -0.000190604)
(-0.000417019 3.64845e-05 -0.000190604)
(-0.000417019 -3.64845e-05 -0.000190604)
(-0.000404348 -0.000108345 -0.000190604)
(-0.000379392 -0.000176913 -0.000190604)
(-0.000342907 -0.000240106 -0.000190604)
(-0.000296003 -0.000296003 -0.000190604)
(-0.000240106 -0.000342907 -0.000190604)
(-0.000176913 -0.000379392 -0.000190604)
(-0.000108345 -0.000404348 -0.000190604)
(-3.64845e-05 -0.000417019 -0.000190604)
(3.64845e-05 -0.000417019 -0.000190604)
(0.000108345 -0.000404348 -0.000190604)
(0.000176913 -0.000379392 -0.000190604)
(0.000240106 -0.000342907 -0.000190604)
(0.000296003 -0.000296003 -0.000190604)
(0.000342907 -0.000240106 -0.000190604)
(0.000379392 -0.000176913 -0.000190604)
(0.000404348 -0.000108345 -0.000190604)
(0.000417019 -3.64845e-05 -0.000190604)
(0.00050286 4.39945e-05 -0.000215959)
(0.000487581 0.000130647 -0.000215959)
(0.000457487 0.000213329 -0.000215959)
(0.000413492 0.00028953 -0.000215959)
(0.000356934 0.000356934 -0.000215959)
(0.00028953 0.000413492 -0.000215959)
(0.000213329 0.000457487 -0.000215959)
(0.000130647 0.000487581 -0.000215959)
(4.39945e-05 0.00050286 -0.000215959)
(-4.39945e-05 0.00050286 -0.000215959)
(-0.000130647 0.000487581 -0.000215959)
(-0.000213329 0.000457487 -0.000215959)
(-0.00028953 0.000413492 -0.000215959)
(-0.000356934 0.000356934 -0.000215959)
(-0.000413492 0.00028953 -0.000215959)
(-0.000457487 0.000213329 -0.000215959)
(-0.000487581 0.000130647 -0.000215959)
(-0.00050286 4.39945e-05 -0.000215959)
(-0.00050286 -4.39945e-05 -0.000215959)
(-0.000487581 -0.000130647 -0.000215959)
(-0.000457487 -0.000213329 -0.000215959)
(-0.000413492 -0.00028953 -0.000215959)
(-0.000356934 -0.000356934 -0.000215959)
(-0.00028953 -0.000413492 -0.000215959)
(-0.000213329 -0.000457487 -0.000215959)
(-0.000130647 -0.000487581 -0.000215959)
(-4.39945e-05 -0.00050286 -0.000215959)
(4.39945e-05 -0.00050286 -0.000215959)
(0.000130647 -0.000487581 -0.000215959)
(0.000213329 -0.000457487 -0.000215959)
(0.00028953 -0.000413492 -0.000215959)
(0.000356934 -0.000356934 -0.000215959)
(0.000413492 -0.00028953 -0.000215959)
(0.000457487 -0.000213329 -0.000215959)
(0.000487581 -0.000130647 -0.000215959)
(0.00050286 -4.39945e-05 -0.000215959)
(0.000402601 3.52231e-05 -0.000227261)
(0.000390368 0.000104599 -0.000227261)
(0.000366274 0.000170797 -0.000227261)
(0.000331051 0.000231805 -0.000227261)
(0.000285769 0.000285769 -0.000227261)
(0.000231805 0.000331051 -0.000227261)
(0.000170797 0.000366274 -0.000227261)
(0.000104599 0.000390368 -0.000227261)
(3.52231e-05 0.000402601 -0.000227261)
(-3.52231e-05 0.000402601 -0.000227261)
(-0.000104599 0.000390368 -0.000227261)
(-0.000170797 0.000366274 -0.000227261)
(-0.000231805 0.000331051 -0.000227261)
(-0.000285769 0.000285769 -0.000227261)
(-0.000331051 0.000231805 -0.000227261)
(-0.000366274 0.000170797 -0.000227261)
(-0.000390368 0.000104599 -0.000227261)
(-0.000402601 3.52231e-05 -0.000227261)
(-0.000402601 -3.52231e-05 -0.000227261)
(-0.000390368 -0.000104599 -0.000227261)
(-0.000366274 -0.000170797 -0.000227261)
(-0.000331051 -0.000231805 -0.000227261)
(-0.000285769 -0.000285769 -0.000227261)
(-0.000231805 -0.000331051 -0.000227261)
(-0.000170797 -0.000366274 -0.000227261)
(-0.000104599 -0.000390368 -0.000227261)
(-3.52231e-05 -0.000402601 -0.000227261)
(3.52231e-05 -0.000402601 -0.000227261)
(0.000104599 -0.000390368 -0.000227261)
(0.000170797 -0.000366274 -0.000227261)
(0.000231805 -0.000331051 -0.000227261)
(0.000285769 -0.000285769 -0.000227261)
(0.000331051 -0.000231805 -0.000227261)
(0.000366274 -0.000170797 -0.000227261)
(0.000390368 -0.000104599 -0.000227261)
(0.000402601 -3.52231e-05 -0.000227261)
(0.000471616 4.12611e-05 -0.000251695)
(0.000457286 0.00012253 -0.000251695)
(0.000429062 0.000200075 -0.000251695)
(0.000387801 0.000271541 -0.000251695)
(0.000334757 0.000334757 -0.000251695)
(0.000271541 0.000387801 -0.000251695)
(0.000200075 0.000429062 -0.000251695)
(0.00012253 0.000457286 -0.000251695)
(4.12611e-05 0.000471616 -0.000251695)
(-4.12611e-05 0.000471616 -0.000251695)
(-0.00012253 0.000457286 -0.000251695)
(-0.000200075 0.000429062 -0.000251695)
(-0.000271541 0.000387801 -0.000251695)
(-0.000334757 0.000334757 -0.000251695)
(-0.000387801 0.000271541 -0.000251695)
(-0.000429062 0.000200075 -0.000251695)
(-0.000457286 0.00012253 -0.000251695)
(-0.000471616 4.12611e-05 -0.000251695)
(-0.000471616 -4.12611e-05 -0.000251695)
(-0.000457286 -0.00012253 -0.000251695)
(-0.000429062 -0.000200075 -0.000251695)
(-0.000387801 -0.000271541 -0.000251695)
(-0.000334757 -0.000334757 -0.000251695)
(-0.000271541 -0.000387801 -0.000251695)
(-0.000200075 -0.000429062 -0.000251695)
(-0.00012253 -0.000457286 -0.000251695)
(-4.12611e-05 -0.000471616 -0.000251695)
(4.12611e-05 -0.000471616 -0.000251695)
(0.00012253 -0.000457286 -0.000251695)
(0.000200075 -0.000429062 -0.000251695)
(0.000271541 -0.000387801 -0.000251695)
(0.000334757 -0.000334757 -0.000251695)
(0.000387801 -0.000271541 -0.000251695)
(0.000429062 -0.000200075 -0.000251695)
(0.000457286 -0.00012253 -0.000251695)
(0.000471616 -4.12611e-05 -0.000251695)
(0.000560163 4.9008e-05 -0.000277189)
(0.000543143 0.000145535 -0.000277189)
(0.00050962 0.00023764 -0.000277189)
(0.000460612 0.000322524 -0.000277189)
(0.000397608 0.000397608 -0.000277189)
(0.000322524 0.000460612 -0.000277189)
(0.00023764 0.00050962 -0.000277189)
(0.000145535 0.000543143 -0.000277189)
(4.9008e-05 0.000560163 -0.000277189)
(-4.9008e-05 0.000560163 -0.000277189)
(-0.000145535 0.000543143 -0.000277189)
(-0.00023764 0.00050962 -0.000277189)
(-0.000322524 0.000460612 -0.000277189)
(-0.000397608 0.000397608 -0.000277189)
(-0.000460612 0.000322524 -0.000277189)
(-0.00050962 0.00023764 -0.000277189)
(-0.000543143 0.000145535 -0.000277189)
(-0.000560163 4.9008e-05 -0.000277189)
(-0.000560163 -4.9008e-05 -0.000277189)
(-0.000543143 -0.000145535 -0.000277189)
(-0.00050962 -0.00023764 -0.000277189)
(-0.000460612 -0.000322524 -0.000277189)
(-0.000397608 -0.000397608 -0.000277189)
(-0.000322524 -0.000460612 -0.000277189)
(-0.00023764 -0.00050962 -0.000277189)
(-0.000145535 -0.000543143 -0.000277189)
(-4.9008e-05 -0.000560163 -0.000277189)
(4.9008e-05 -0.000560163 -0.000277189)
(0.000145535 -0.000543143 -0.000277189)
(0.00023764 -0.00050962 -0.000277189)
(0.000322524 -0.000460612 -0.000277189)
(0.000397608 -0.000397608 -0.000277189)
(0.000460612 -0.000322524 -0.000277189)
(0.00050962 -0.00023764 -0.000277189)
(0.000543143 -0.000145535 -0.000277189)
(0.000560163 -4.9008e-05 -0.000277189)
(0.000422758 3.69866e-05 -0.000282511)
(0.000409912 0.000109836 -0.000282511)
(0.000384612 0.000179348 -0.000282511)
(0.000347626 0.00024341 -0.000282511)
(0.000300077 0.000300077 -0.000282511)
(0.00024341 0.000347626 -0.000282511)
(0.000179348 0.000384612 -0.000282511)
(0.000109836 0.000409912 -0.000282511)
(3.69866e-05 0.000422758 -0.000282511)
(-3.69866e-05 0.000422758 -0.000282511)
(-0.000109836 0.000409912 -0.000282511)
(-0.000179348 0.000384612 -0.000282511)
(-0.00024341 0.000347626 -0.000282511)
(-0.000300077 0.000300077 -0.000282511)
(-0.000347626 0.00024341 -0.000282511)
(-0.000384612 0.000179348 -0.000282511)
(-0.000409912 0.000109836 -0.000282511)
(-0.000422758 3.69866e-05 -0.000282511)
(-0.000422758 -3.69866e-05 -0.000282511)
(-0.000409912 -0.000109836 -0.000282511)
(-0.000384612 -0.000179348 -0.000282511)
(-0.000347626 -0.00024341 -0.000282511)
(-0.000300077 -0.000300077 -0.000282511)
(-0.00024341 -0.000347626 -0.000282511)
(-0.000179348 -0.000384612 -0.000282511)
(-0.000109836 -0.000409912 -0.000282511)
(-3.69866e-05 -0.000422758 -0.000282511)
(3.69866e-05 -0.000422758 -0.000282511)
(0.000109836 -0.000409912 -0.000282511)
(0.000179348 -0.000384612 -0.000282511)
(0.00024341 -0.000347626 -0.000282511)
(0.000300077 -0.000300077 -0.000282511)
(0.000347626 -0.00024341 -0.000282511)
(0.000384612 -0.000179348 -0.000282511)
(0.000409912 -0.000109836 -0.000282511)
(0.000422758 -3.69866e-05 -0.000282511)
(0.000490803 4.29398e-05 -0.000304888)
(0.00047589 0.000127515 -0.000304888)
(0.000446518 0.000208215 -0.000304888)
(0.000403578 0.000282589 -0.000304888)
(0.000348376 0.000348376 -0.000304888)
(0.000282589 0.000403578 -0.000304888)
(0.000208215 0.000446518 -0.000304888)
(0.000127515 0.00047589 -0.000304888)
(4.29398e-05 0.000490803 -0.000304888)
(-4.29398e-05 0.000490803 -0.000304888)
(-0.000127515 0.00047589 -0.000304888)
(-0.000208215 0.000446518 -0.000304888)
(-0.000282589 0.000403578 -0.000304888)
(-0.000348376 0.000348376 -0.000304888)
(-0.000403578 0.000282589 -0.000304888)
(-0.000446518 0.000208215 -0.000304888)
(-0.00047589 0.000127515 -0.000304888)
(-0.000490803 4.29398e-05 -0.000304888)
(-0.000490803 -4.29398e-05 -0.000304888)
(-0.00047589 -0.000127515 -0.000304888)
(-0.000446518 -0.000208215 -0.000304888)
(-0.000403578 -0.000282589 -0.000304888)
(-0.000348376 -0.000348376 -0.000304888)
(-0.000282589 -0.000403578 -0.000304888)
(-0.000208215 -0.000446518 -0.000304888)
(-0.000127515 -0.00047589 -0.000304888)
(-4.29398e-05 -0.000490803 -0.000304888)
(4.29398e-05 -0.000490803 -0.000304888)
(0.000127515 -0.00047589 -0.000304888)
(0.000208215 -0.000446518 -0.000304888)
(0.000282589 -0.000403578 -0.000304888)
(0.000348376 -0.000348376 -0.000304888)
(0.000403578 -0.000282589 -0.000304888)
(0.000446518 -0.000208215 -0.000304888)
(0.00047589 -0.000127515 -0.000304888)
(0.000490803 -4.29398e-05 -0.000304888)
(0.000579005 5.06564e-05 -0.000329695)
(0.000561412 0.00015043 -0.000329695)
(0.000526761 0.000245633 -0.000329695)
(0.000476105 0.000333372 -0.000329695)
(0.000410982 0.000410982 -0.000329695)
(0.000333372 0.000476105 -0.000329695)
(0.000245633 0.000526761 -0.000329695)
(0.00015043 0.000561412 -0.000329695)
(5.06564e-05 0.000579005 -0.000329695)
(-5.06564e-05 0.000579005 -0.000329695)
(-0.00015043 0.000561412 -0.000329695)
(-0.000245633 0.000526761 -0.000329695)
(-0.000333372 0.000476105 -0.000329695)
(-0.000410982 0.000410982 -0.000329695)
(-0.000476105 0.000333372 -0.000329695)
(-0.000526761 0.000245633 -0.000329695)
(-0.000561412 0.00015043 -0.000329695)
(-0.000579005 5.06564e-05 -0.000329695)
(-0.000579005 -5.06564e-05 -0.000329695)
(-0.000561412 -0.00015043 -0.000329695)
(-0.000526761 -0.000245633 -0.000329695)
(-0.000476105 -0.000333372 -0.000329695)
(-0.000410982 -0.000410982 -0.000329695)
(-0.000333372 -0.000476105 -0.000329695)
(-0.000245633 -0.000526761 -0.000329695)
(-0.00015043 -0.000561412 -0.000329695)
(-5.06564e-05 -0.000579005 -0.000329695)
(5.06564e-05 -0.000579005 -0.000329695)
(0.00015043 -0.000561412 -0.000329695)
(0.000245633 -0.000526761 -0.000329695)
(0.000333372 -0.000476105 -0.000329695)
(0.000410982 -0.000410982 -0.000329695)
(0.000476105 -0.000333372 -0.000329695)
(0.000526761 -0.000245633 -0.000329695)
(0.000561412 -0.00015043 -0.000329695)
(0.000579005 -5.06564e-05 -0.000329695)
(0.000412187 3.60617e-05 -0.000327037)
(0.000399663 0.000107089 -0.000327037)
(0.000374995 0.000174863 -0.000327037)
(0.000338934 0.000237324 -0.000327037)
(0.000292574 0.000292574 -0.000327037)
(0.000237324 0.000338934 -0.000327037)
(0.000174863 0.000374995 -0.000327037)
(0.000107089 0.000399663 -0.000327037)
(3.60617e-05 0.000412187 -0.000327037)
(-3.60617e-05 0.000412187 -0.000327037)
(-0.000107089 0.000399663 -0.000327037)
(-0.000174863 0.000374995 -0.000327037)
(-0.000237324 0.000338934 -0.000327037)
(-0.000292574 0.000292574 -0.000327037)
(-0.000338934 0.000237324 -0.000327037)
(-0.000374995 0.000174863 -0.000327037)
(-0.000399663 0.000107089 -0.000327037)
(-0.000412187 3.60617e-05 -0.000327037)
(-0.000412187 -3.60617e-05 -0.000327037)
(-0.000399663 -0.000107089 -0.000327037)
(-0.000374995 -0.000174863 -0.000327037)
(-0.000338934 -0.000237324 -0.000327037)
(-0.000292574 -0.000292574 -0.000327037)
(-0.000237324 -0.000338934 -0.000327037)
(-0.000174863 -0.000374995 -0.000327037)
(-0.000107089 -0.000399663 -0.000327037)
(-3.60617e-05 -0.000412187 -0.000327037)
(3.60617e-05 -0.000412187 -0.000327037)
(0.000107089 -0.000399663 -0.000327037)
(0.000174863 -0.000374995 -0.000327037)
(0.000237324 -0.000338934 -0.000327037)
(0.000292574 -0.000292574 -0.000327037)
(0.000338934 -0.000237324 -0.000327037)
(0.000374995 -0.000174863 -0.000327037)
(0.000399663 -0.000107089 -0.000327037)
(0.000412187 -3.60617e-05 -0.000327037)
(0.000477602 4.17848e-05 -0.000347239)
(0.000463091 0.000124085 -0.000347239)
(0.000434508 0.000202615 -0.000347239)
(0.000392723 0.000274988 -0.000347239)
(0.000339006 0.000339006 -0.000347239)
(0.000274988 0.000392723 -0.000347239)
(0.000202615 0.000434508 -0.000347239)
(0.000124085 0.000463091 -0.000347239)
(4.17848e-05 0.000477602 -0.000347239)
(-4.17848e-05 0.000477602 -0.000347239)
(-0.000124085 0.000463091 -0.000347239)
(-0.000202615 0.000434508 -0.000347239)
(-0.000274988 0.000392723 -0.000347239)
(-0.000339006 0.000339006 -0.000347239)
(-0.000392723 0.000274988 -0.000347239)
(-0.000434508 0.000202615 -0.000347239)
(-0.000463091 0.000124085 -0.000347239)
(-0.000477602 4.17848e-05 -0.000347239)
(-0.000477602 -4.17848e-05 -0.000347239)
(-0.000463091 -0.000124085 -0.000347239)
(-0.000434508 -0.000202615 -0.000347239)
(-0.000392723 -0.000274988 -0.000347239)
(-0.000339006 -0.000339006 -0.000347239)
(-0.000274988 -0.000392723 -0.000347239)
(-0.000202615 -0.000434508 -0.000347239)
(-0.000124085 -0.000463091 -0.000347239)
(-4.17848e-05 -0.000477602 -0.000347239)
(4.17848e-05 -0.000477602 -0.000347239)
(0.000124085 -0.000463091 -0.000347239)
(0.000202615 -0.000434508 -0.000347239)
(0.000274988 -0.000392723 -0.000347239)
(0.000339006 -0.000339006 -0.000347239)
(0.000392723 -0.000274988 -0.000347239)
(0.000434508 -0.000202615 -0.000347239)
(0.000463091 -0.000124085 -0.000347239)
(0.000477602 -4.17848e-05 -0.000347239)
(0.000563803 4.93266e-05 -0.000371442)
(0.000546672 0.000146481 -0.000371442)
(0.000512931 0.000239184 -0.000371442)
(0.000463605 0.00032462 -0.000371442)
(0.000400192 0.000400192 -0.000371442)
(0.00032462 0.000463605 -0.000371442)
(0.000239184 0.000512931 -0.000371442)
(0.000146481 0.000546672 -0.000371442)
(4.93266e-05 0.000563803 -0.000371442)
(-4.93266e-05 0.000563803 -0.000371442)
(-0.000146481 0.000546672 -0.000371442)
(-0.000239184 0.000512931 -0.000371442)