/*--------------------------------*- C++ -*----------------------------------*\
| =========                 |                                                 |
| \\      /  F ield         | OpenFOAM: The Open Source CFD Toolbox           |
|  \\    /   O peration     | Version:  2312                                  |
|   \\  /    A nd           | Website:  www.openfoam.com                      |
|    \\/     M anipulation  |                                                 |
\*---------------------------------------------------------------------------*/
FoamFile
{
    version     2.0;
    format      ascii;
    arch        "LSB;label=32;scalar=64";
    class       volTensorField;
    location    "0.2";
    object      F;
}
// * * * * * * * * * * * * * * * * * * * * * * * * * * * * * * * * * * * * * //

dimensions      [0 0 0 0 0 0 0];

internalField   nonuniform List<tensor> 
1620
(
(0.974236 -0.00275315 -0.0701279 -0.00275311 1.00546 -0.00613539 0.00643028 0.00056257 1.02141)
(0.97612 -0.00792737 -0.067997 -0.00792728 1.00358 -0.0182198 0.00623491 0.00167062 1.02141)
(0.979659 -0.0121454 -0.0638002 -0.0121453 1.00004 -0.0297505 0.00585008 0.00272793 1.02141)
(0.984428 -0.0148986 -0.0576647 -0.0148986 0.995273 -0.0403773 0.00528749 0.00370234 1.02141)
(0.98985 -0.0158548 -0.0497772 -0.0158548 0.98985 -0.0497772 0.00456425 0.00456425 1.02141)
(0.995273 -0.0148986 -0.0403773 -0.0148986 0.984428 -0.0576647 0.00370234 0.00528749 1.02141)
(1.00004 -0.0121453 -0.0297505 -0.0121454 0.979659 -0.0638002 0.00272793 0.00585008 1.02141)
(1.00358 -0.00792728 -0.0182198 -0.00792737 0.97612 -0.067997 0.00167062 0.00623491 1.02141)
(1.00546 -0.00275311 -0.00613539 -0.00275315 0.974236 -0.0701279 0.00056257 0.00643028 1.02141)
(1.00546 0.00275311 0.00613539 0.00275315 0.974236 -0.0701279 -0.00056257 0.00643028 1.02141)
(1.00358 0.00792728 0.0182198 0.00792737 0.97612 -0.067997 -0.00167062 0.00623491 1.02141)
(1.00004 0.0121453 0.0297505 0.0121454 0.979659 -0.0638002 -0.00272793 0.00585008 1.02141)
(0.995273 0.0148986 0.0403773 0.0148986 0.984428 -0.0576647 -0.00370234 0.00528749 1.02141)
(0.98985 0.0158548 0.0497772 0.0158548 0.98985 -0.0497772 -0.00456425 0.00456425 1.02141)
(0.984428 0.0148986 0.0576647 0.0148986 0.995273 -0.0403773 -0.00528749 0.00370234 1.02141)
(0.979659 0.0121454 0.0638002 0.0121453 1.00004 -0.0297505 -0.00585008 0.00272793 1.02141)
(0.97612 0.00792737 0.067997 0.00792728 1.00358 -0.0182198 -0.00623491 0.00167062 1.02141)
(0.974236 0.00275315 0.0701279 0.00275311 1.00546 -0.00613539 -0.00643028 0.00056257 1.02141)
(0.974236 -0.00275315 0.0701279 -0.00275311 1.00546 0.00613539 -0.00643028 -0.00056257 1.02141)
(0.97612 -0.00792737 0.067997 -0.00792728 1.00358 0.0182198 -0.00623491 -0.00167062 1.02141)
(0.979659 -0.0121454 0.0638002 -0.0121453 1.00004 0.0297505 -0.00585008 -0.00272793 1.02141)
(0.984428 -0.0148986 0.0576647 -0.0148986 0.995273 0.0403773 -0.00528749 -0.00370234 1.02141)
(0.98985 -0.0158548 0.0497772 -0.0158548 0.98985 0.0497772 -0.00456425 -0.00456425 1.02141)
(0.995273 -0.0148986 0.0403773 -0.0148986 0.984428 0.0576647 -0.00370234 -0.00528749 1.02141)
(1.00004 -0.0121453 0.0297505 -0.0121454 0.979659 0.0638002 -0.00272793 -0.00585008 1.02141)
(1.00358 -0.00792728 0.0182198 -0.00792737 0.97612 0.067997 -0.00167062 -0.00623491 1.02141)
(1.00546 -0.00275311 0.00613539 -0.00275315 0.974236 0.0701279 -0.00056257 -0.00643028 1.02141)
(1.00546 0.00275311 -0.00613539 0.00275315 0.974236 0.0701279 0.00056257 -0.00643028 1.02141)
(1.00358 0.00792728 -0.0182198 0.00792737 0.97612 0.067997 0.00167062 -0.00623491 1.02141)
(1.00004 0.0121453 -0.0297505 0.0121454 0.979659 0.0638002 0.00272793 -0.00585008 1.02141)
(0.995273 0.0148986 -0.0403773 0.0148986 0.984428 0.0576647 0.00370234 -0.00528749 1.02141)
(0.98985 0.0158548 -0.0497772 0.0158548 0.98985 0.0497772 0.00456425 -0.00456425 1.02141)
(0.984428 0.0148986 -0.0576647 0.0148986 0.995273 0.0403773 0.00528749 -0.00370234 1.02141)
(0.979659 0.0121454 -0.0638002 0.0121453 1.00004 0.0297505 0.00585008 -0.00272793 1.02141)
(0.97612 0.00792737 -0.067997 0.00792728 1.00358 0.0182198 0.00623491 -0.00167062 1.02141)
(0.974236 0.00275315 -0.0701279 0.00275311 1.00546 0.00613539 0.00643028 -0.00056257 1.02141)
(0.967114 -0.00371448 -0.0832005 -0.00371448 1.00925 -0.0072791 0.00548292 0.00047968 1.02819)
(0.969654 -0.0106955 -0.0806725 -0.0106954 1.0067 -0.0216161 0.00531633 0.00142448 1.02819)
(0.97443 -0.0163865 -0.0756932 -0.0163864 1.00193 -0.0352963 0.00498819 0.00232603 1.02819)
(0.980863 -0.0201009 -0.0684141 -0.0201009 0.995496 -0.047904 0.00450848 0.00315688 1.02819)
(0.988179 -0.021391 -0.0590562 -0.021391 0.988179 -0.0590562 0.00389181 0.00389181 1.02819)
(0.995496 -0.0201009 -0.047904 -0.0201009 0.980863 -0.0684141 0.00315688 0.00450848 1.02819)
(1.00193 -0.0163864 -0.0352963 -0.0163865 0.97443 -0.0756932 0.00232603 0.00498819 1.02819)
(1.0067 -0.0106954 -0.0216161 -0.0106955 0.969654 -0.0806725 0.00142448 0.00531633 1.02819)
(1.00925 -0.00371448 -0.0072791 -0.00371448 0.967114 -0.0832005 0.00047968 0.00548292 1.02819)
(1.00925 0.00371448 0.0072791 0.00371448 0.967114 -0.0832005 -0.00047968 0.00548292 1.02819)
(1.0067 0.0106954 0.0216161 0.0106955 0.969654 -0.0806725 -0.00142448 0.00531633 1.02819)
(1.00193 0.0163864 0.0352963 0.0163865 0.97443 -0.0756932 -0.00232603 0.00498819 1.02819)
(0.995496 0.0201009 0.047904 0.0201009 0.980863 -0.0684141 -0.00315688 0.00450848 1.02819)
(0.988179 0.021391 0.0590562 0.021391 0.988179 -0.0590562 -0.00389181 0.00389181 1.02819)
(0.980863 0.0201009 0.0684141 0.0201009 0.995496 -0.047904 -0.00450848 0.00315688 1.02819)
(0.97443 0.0163865 0.0756932 0.0163864 1.00193 -0.0352963 -0.00498819 0.00232603 1.02819)
(0.969654 0.0106955 0.0806725 0.0106954 1.0067 -0.0216161 -0.00531633 0.00142448 1.02819)
(0.967114 0.00371448 0.0832005 0.00371448 1.00925 -0.0072791 -0.00548292 0.00047968 1.02819)
(0.967114 -0.00371448 0.0832005 -0.00371448 1.00925 0.0072791 -0.00548292 -0.00047968 1.02819)
(0.969654 -0.0106955 0.0806725 -0.0106954 1.0067 0.0216161 -0.00531633 -0.00142448 1.02819)
(0.97443 -0.0163865 0.0756932 -0.0163864 1.00193 0.0352963 -0.00498819 -0.00232603 1.02819)
(0.980863 -0.0201009 0.0684141 -0.0201009 0.995496 0.047904 -0.00450848 -0.00315688 1.02819)
(0.988179 -0.021391 0.0590562 -0.021391 0.988179 0.0590562 -0.00389181 -0.00389181 1.02819)
(0.995496 -0.0201009 0.047904 -0.0201009 0.980863 0.0684141 -0.00315688 -0.00450848 1.02819)
(1.00193 -0.0163864 0.0352963 -0.0163865 0.97443 0.0756932 -0.00232603 -0.00498819 1.02819)
(1.0067 -0.0106954 0.0216161 -0.0106955 0.969654 0.0806725 -0.00142448 -0.00531633 1.02819)
(1.00925 -0.00371448 0.0072791 -0.00371448 0.967114 0.0832005 -0.00047968 -0.00548292 1.02819)
(1.00925 0.00371448 -0.0072791 0.00371448 0.967114 0.0832005 0.00047968 -0.00548292 1.02819)
(1.0067 0.0106954 -0.0216161 0.0106955 0.969654 0.0806725 0.00142448 -0.00531633 1.02819)
(1.00193 0.0163864 -0.0352963 0.0163865 0.97443 0.0756932 0.00232603 -0.00498819 1.02819)
(0.995496 0.0201009 -0.047904 0.0201009 0.980863 0.0684141 0.00315688 -0.00450848 1.02819)
(0.988179 0.021391 -0.0590562 0.021391 0.988179 0.0590562 0.00389181 -0.00389181 1.02819)
(0.980863 0.0201009 -0.0684141 0.0201009 0.995496 0.047904 0.00450848 -0.00315688 1.02819)
(0.97443 0.0163865 -0.0756932 0.0163864 1.00193 0.0352963 0.00498819 -0.00232603 1.02819)
(0.969654 0.0106955 -0.0806725 0.0106954 1.0067 0.0216161 0.00531633 -0.00142448 1.02819)
(0.967114 0.00371448 -0.0832005 0.00371448 1.00925 0.0072791 0.00548292 -0.00047968 1.02819)
(0.959927 -0.00494938 -0.0993782 -0.00494939 1.01607 -0.00869447 0.00441028 0.000385836 1.03516)
(0.963312 -0.0142512 -0.0963586 -0.0142512 1.01268 -0.0258192 0.00427627 0.00114581 1.03516)
(0.969675 -0.0218342 -0.0904113 -0.0218342 1.00632 -0.0421593 0.0040123 0.00187098 1.03516)
(0.978248 -0.0267836 -0.0817168 -0.0267836 0.997745 -0.0572186 0.00362644 0.00253928 1.03516)
(0.987996 -0.0285025 -0.0705393 -0.0285025 0.987996 -0.0705393 0.00313042 0.00313042 1.03516)
(0.997745 -0.0267836 -0.0572186 -0.0267836 0.978248 -0.0817168 0.00253928 0.00362644 1.03516)
(1.00632 -0.0218342 -0.0421593 -0.0218342 0.969675 -0.0904113 0.00187098 0.0040123 1.03516)
(1.01268 -0.0142512 -0.0258192 -0.0142512 0.963312 -0.0963586 0.00114581 0.00427627 1.03516)
(1.01607 -0.00494939 -0.00869447 -0.00494938 0.959927 -0.0993782 0.000385836 0.00441028 1.03516)
(1.01607 0.00494939 0.00869447 0.00494938 0.959927 -0.0993782 -0.000385836 0.00441028 1.03516)
(1.01268 0.0142512 0.0258192 0.0142512 0.963312 -0.0963586 -0.00114581 0.00427627 1.03516)
(1.00632 0.0218342 0.0421593 0.0218342 0.969675 -0.0904113 -0.00187098 0.0040123 1.03516)
(0.997745 0.0267836 0.0572186 0.0267836 0.978248 -0.0817168 -0.00253928 0.00362644 1.03516)
(0.987996 0.0285025 0.0705393 0.0285025 0.987996 -0.0705393 -0.00313042 0.00313042 1.03516)
(0.978248 0.0267836 0.0817168 0.0267836 0.997745 -0.0572186 -0.00362644 0.00253928 1.03516)
(0.969675 0.0218342 0.0904113 0.0218342 1.00632 -0.0421593 -0.0040123 0.00187098 1.03516)
(0.963312 0.0142512 0.0963586 0.0142512 1.01268 -0.0258192 -0.00427627 0.00114581 1.03516)
(0.959927 0.00494938 0.0993782 0.00494939 1.01607 -0.00869447 -0.00441028 0.000385836 1.03516)
(0.959927 -0.00494938 0.0993782 -0.00494939 1.01607 0.00869447 -0.00441028 -0.000385836 1.03516)
(0.963312 -0.0142512 0.0963586 -0.0142512 1.01268 0.0258192 -0.00427627 -0.00114581 1.03516)
(0.969675 -0.0218342 0.0904113 -0.0218342 1.00632 0.0421593 -0.0040123 -0.00187098 1.03516)
(0.978248 -0.0267836 0.0817168 -0.0267836 0.997745 0.0572186 -0.00362644 -0.00253928 1.03516)
(0.987996 -0.0285025 0.0705393 -0.0285025 0.987996 0.0705393 -0.00313042 -0.00313042 1.03516)
(0.997745 -0.0267836 0.0572186 -0.0267836 0.978248 0.0817168 -0.00253928 -0.00362644 1.03516)
(1.00632 -0.0218342 0.0421593 -0.0218342 0.969675 0.0904113 -0.00187098 -0.0040123 1.03516)
(1.01268 -0.0142512 0.0258192 -0.0142512 0.963312 0.0963586 -0.00114581 -0.00427627 1.03516)
(1.01607 -0.00494939 0.00869447 -0.00494938 0.959927 0.0993782 -0.000385836 -0.00441028 1.03516)
(1.01607 0.00494939 -0.00869447 0.00494938 0.959927 0.0993782 0.000385836 -0.00441028 1.03516)
(1.01268 0.0142512 -0.0258192 0.0142512 0.963312 0.0963586 0.00114581 -0.00427627 1.03516)
(1.00632 0.0218342 -0.0421593 0.0218342 0.969675 0.0904113 0.00187098 -0.0040123 1.03516)
(0.997745 0.0267836 -0.0572186 0.0267836 0.978248 0.0817168 0.00253928 -0.00362644 1.03516)
(0.987996 0.0285025 -0.0705393 0.0285025 0.987996 0.0705393 0.00313042 -0.00313042 1.03516)
(0.978248 0.0267836 -0.0817168 0.0267836 0.997745 0.0572186 0.00362644 -0.00253928 1.03516)
(0.969675 0.0218342 -0.0904113 0.0218342 1.00632 0.0421593 0.0040123 -0.00187098 1.03516)
(0.963312 0.0142512 -0.0963586 0.0142512 1.01268 0.0258192 0.00427627 -0.00114581 1.03516)
(0.959927 0.00494938 -0.0993782 0.00494939 1.01607 0.00869447 0.00441028 -0.000385836 1.03516)
(0.950571 -0.00604924 -0.0673494 -0.00604919 1.01918 -0.00589231 0.0196992 0.00172345 1.02775)
(0.954709 -0.017418 -0.065303 -0.0174179 1.01505 -0.0174979 0.0191006 0.00511796 1.02775)
(0.962485 -0.0266859 -0.0612724 -0.0266858 1.00727 -0.0285718 0.0179217 0.00835698 1.02775)
(0.972963 -0.0327352 -0.0553801 -0.032735 0.996792 -0.0387776 0.0161982 0.0113421 1.02775)
(0.984878 -0.034836 -0.0478051 -0.034836 0.984878 -0.0478051 0.0139825 0.0139825 1.02775)
(0.996792 -0.032735 -0.0387776 -0.0327352 0.972963 -0.0553801 0.0113421 0.0161982 1.02775)
(1.00727 -0.0266858 -0.0285718 -0.0266859 0.962485 -0.0612724 0.00835698 0.0179217 1.02775)
(1.01505 -0.0174179 -0.0174979 -0.017418 0.954709 -0.065303 0.00511796 0.0191006 1.02775)
(1.01918 -0.00604919 -0.00589231 -0.00604924 0.950571 -0.0673494 0.00172345 0.0196992 1.02775)
(1.01918 0.00604919 0.00589231 0.00604924 0.950571 -0.0673494 -0.00172345 0.0196992 1.02775)
(1.01505 0.0174179 0.0174979 0.017418 0.954709 -0.065303 -0.00511796 0.0191006 1.02775)
(1.00727 0.0266858 0.0285718 0.0266859 0.962485 -0.0612724 -0.00835698 0.0179217 1.02775)
(0.996792 0.032735 0.0387776 0.0327352 0.972963 -0.0553801 -0.0113421 0.0161982 1.02775)
(0.984878 0.034836 0.0478051 0.034836 0.984878 -0.0478051 -0.0139825 0.0139825 1.02775)
(0.972963 0.0327352 0.0553801 0.032735 0.996792 -0.0387776 -0.0161982 0.0113421 1.02775)
(0.962485 0.0266859 0.0612724 0.0266858 1.00727 -0.0285718 -0.0179217 0.00835698 1.02775)
(0.954709 0.017418 0.065303 0.0174179 1.01505 -0.0174979 -0.0191006 0.00511796 1.02775)
(0.950571 0.00604924 0.0673494 0.00604919 1.01918 -0.00589231 -0.0196992 0.00172345 1.02775)
(0.950571 -0.00604924 0.0673494 -0.00604919 1.01918 0.00589231 -0.0196992 -0.00172345 1.02775)
(0.954709 -0.017418 0.065303 -0.0174179 1.01505 0.0174979 -0.0191006 -0.00511796 1.02775)
(0.962485 -0.0266859 0.0612724 -0.0266858 1.00727 0.0285718 -0.0179217 -0.00835698 1.02775)
(0.972963 -0.0327352 0.0553801 -0.032735 0.996792 0.0387776 -0.0161982 -0.0113421 1.02775)
(0.984878 -0.034836 0.0478051 -0.034836 0.984878 0.0478051 -0.0139825 -0.0139825 1.02775)
(0.996792 -0.032735 0.0387776 -0.0327352 0.972963 0.0553801 -0.0113421 -0.0161982 1.02775)
(1.00727 -0.0266858 0.0285718 -0.0266859 0.962485 0.0612724 -0.00835698 -0.0179217 1.02775)
(1.01505 -0.0174179 0.0174979 -0.017418 0.954709 0.065303 -0.00511796 -0.0191006 1.02775)
(1.01918 -0.00604919 0.00589231 -0.00604924 0.950571 0.0673494 -0.00172345 -0.0196992 1.02775)
(1.01918 0.00604919 -0.00589231 0.00604924 0.950571 0.0673494 0.00172345 -0.0196992 1.02775)
(1.01505 0.0174179 -0.0174979 0.017418 0.954709 0.065303 0.00511796 -0.0191006 1.02775)
(1.00727 0.0266858 -0.0285718 0.0266859 0.962485 0.0612724 0.00835698 -0.0179217 1.02775)
(0.996792 0.032735 -0.0387776 0.0327352 0.972963 0.0553801 0.0113421 -0.0161982 1.02775)
(0.984878 0.034836 -0.0478051 0.034836 0.984878 0.0478051 0.0139825 -0.0139825 1.02775)
(0.972963 0.0327352 -0.0553801 0.032735 0.996792 0.0387776 0.0161982 -0.0113421 1.02775)
(0.962485 0.0266859 -0.0612724 0.0266858 1.00727 0.0285718 0.0179217 -0.00835698 1.02775)
(0.954709 0.017418 -0.065303 0.0174179 1.01505 0.0174979 0.0191006 -0.00511796 1.02775)
(0.950571 0.00604924 -0.0673494 0.00604919 1.01918 0.00589231 0.0196992 -0.00172345 1.02775)
(0.940451 -0.007663 -0.0788908 -0.00766299 1.02737 -0.00690205 0.0189363 0.00165671 1.03308)
(0.945693 -0.0220647 -0.0764937 -0.0220646 1.02213 -0.0204964 0.018361 0.00491978 1.03308)
(0.955545 -0.0338052 -0.0717724 -0.033805 1.01228 -0.033468 0.0172277 0.00803338 1.03308)
(0.968817 -0.0414681 -0.0648702 -0.0414681 0.999004 -0.0454226 0.0155709 0.0109028 1.03308)
(0.98391 -0.0441295 -0.0559971 -0.0441295 0.98391 -0.0559971 0.013441 0.013441 1.03308)
(0.999004 -0.0414681 -0.0454226 -0.0414681 0.968817 -0.0648702 0.0109028 0.0155709 1.03308)
(1.01228 -0.033805 -0.033468 -0.0338052 0.955545 -0.0717724 0.00803338 0.0172277 1.03308)
(1.02213 -0.0220646 -0.0204964 -0.0220647 0.945693 -0.0764937 0.00491978 0.018361 1.03308)
(1.02737 -0.00766299 -0.00690205 -0.007663 0.940451 -0.0788908 0.00165671 0.0189363 1.03308)
(1.02737 0.00766299 0.00690205 0.007663 0.940451 -0.0788908 -0.00165671 0.0189363 1.03308)
(1.02213 0.0220646 0.0204964 0.0220647 0.945693 -0.0764937 -0.00491978 0.018361 1.03308)
(1.01228 0.033805 0.033468 0.0338052 0.955545 -0.0717724 -0.00803338 0.0172277 1.03308)
(0.999004 0.0414681 0.0454226 0.0414681 0.968817 -0.0648702 -0.0109028 0.0155709 1.03308)
(0.98391 0.0441295 0.0559971 0.0441295 0.98391 -0.0559971 -0.013441 0.013441 1.03308)
(0.968817 0.0414681 0.0648702 0.0414681 0.999004 -0.0454226 -0.0155709 0.0109028 1.03308)
(0.955545 0.0338052 0.0717724 0.033805 1.01228 -0.033468 -0.0172277 0.00803338 1.03308)
(0.945693 0.0220647 0.0764937 0.0220646 1.02213 -0.0204964 -0.018361 0.00491978 1.03308)
(0.940451 0.007663 0.0788908 0.00766299 1.02737 -0.00690205 -0.0189363 0.00165671 1.03308)
(0.940451 -0.007663 0.0788908 -0.00766299 1.02737 0.00690205 -0.0189363 -0.00165671 1.03308)
(0.945693 -0.0220647 0.0764937 -0.0220646 1.02213 0.0204964 -0.018361 -0.00491978 1.03308)
(0.955545 -0.0338052 0.0717724 -0.033805 1.01228 0.033468 -0.0172277 -0.00803338 1.03308)
(0.968817 -0.0414681 0.0648702 -0.0414681 0.999004 0.0454226 -0.0155709 -0.0109028 1.03308)
(0.98391 -0.0441295 0.0559971 -0.0441295 0.98391 0.0559971 -0.013441 -0.013441 1.03308)
(0.999004 -0.0414681 0.0454226 -0.0414681 0.968817 0.0648702 -0.0109028 -0.0155709 1.03308)
(1.01228 -0.033805 0.033468 -0.0338052 0.955545 0.0717724 -0.00803338 -0.0172277 1.03308)
(1.02213 -0.0220646 0.0204964 -0.0220647 0.945693 0.0764937 -0.00491978 -0.018361 1.03308)
(1.02737 -0.00766299 0.00690205 -0.007663 0.940451 0.0788908 -0.00165671 -0.0189363 1.03308)
(1.02737 0.00766299 -0.00690205 0.007663 0.940451 0.0788908 0.00165671 -0.0189363 1.03308)
(1.02213 0.0220646 -0.0204964 0.0220647 0.945693 0.0764937 0.00491978 -0.018361 1.03308)
(1.01228 0.033805 -0.033468 0.0338052 0.955545 0.0717724 0.00803338 -0.0172277 1.03308)
(0.999004 0.0414681 -0.0454226 0.0414681 0.968817 0.0648702 0.0109028 -0.0155709 1.03308)
(0.98391 0.0441295 -0.0559971 0.0441295 0.98391 0.0559971 0.013441 -0.013441 1.03308)
(0.968817 0.0414681 -0.0648702 0.0414681 0.999004 0.0454226 0.0155709 -0.0109028 1.03308)
(0.955545 0.0338052 -0.0717724 0.033805 1.01228 0.033468 0.0172277 -0.00803338 1.03308)
(0.945693 0.0220647 -0.0764937 0.0220646 1.02213 0.0204964 0.018361 -0.00491978 1.03308)
(0.940451 0.007663 -0.0788908 0.00766299 1.02737 0.00690205 0.0189363 -0.00165671 1.03308)
(0.930656 -0.00967941 -0.0924671 -0.00967936 1.04045 -0.00808981 0.0180378 0.0015781 1.03873)
(0.937277 -0.0278707 -0.0896575 -0.0278705 1.03382 -0.0240236 0.0174897 0.00468637 1.03873)
(0.949721 -0.0427003 -0.0841237 -0.0427002 1.02138 -0.0392275 0.0164102 0.00765223 1.03873)
(0.966486 -0.0523798 -0.0760339 -0.0523797 1.00462 -0.0532395 0.014832 0.0103855 1.03873)
(0.985551 -0.0557414 -0.0656338 -0.0557414 0.985551 -0.0656338 0.0128033 0.0128033 1.03873)
(1.00462 -0.0523797 -0.0532395 -0.0523798 0.966486 -0.0760339 0.0103855 0.014832 1.03873)
(1.02138 -0.0427002 -0.0392275 -0.0427003 0.949721 -0.0841237 0.00765223 0.0164102 1.03873)
(1.03382 -0.0278705 -0.0240236 -0.0278707 0.937277 -0.0896575 0.00468637 0.0174897 1.03873)
(1.04045 -0.00967936 -0.00808981 -0.00967941 0.930656 -0.0924671 0.0015781 0.0180378 1.03873)
(1.04045 0.00967936 0.00808981 0.00967941 0.930656 -0.0924671 -0.0015781 0.0180378 1.03873)
(1.03382 0.0278705 0.0240236 0.0278707 0.937277 -0.0896575 -0.00468637 0.0174897 1.03873)
(1.02138 0.0427002 0.0392275 0.0427003 0.949721 -0.0841237 -0.00765223 0.0164102 1.03873)
(1.00462 0.0523797 0.0532395 0.0523798 0.966486 -0.0760339 -0.0103855 0.014832 1.03873)
(0.985551 0.0557414 0.0656338 0.0557414 0.985551 -0.0656338 -0.0128033 0.0128033 1.03873)
(0.966486 0.0523798 0.0760339 0.0523797 1.00462 -0.0532395 -0.014832 0.0103855 1.03873)
(0.949721 0.0427003 0.0841237 0.0427002 1.02138 -0.0392275 -0.0164102 0.00765223 1.03873)
(0.937277 0.0278707 0.0896575 0.0278705 1.03382 -0.0240236 -0.0174897 0.00468637 1.03873)
(0.930656 0.00967941 0.0924671 0.00967936 1.04045 -0.00808981 -0.0180378 0.0015781 1.03873)
(0.930656 -0.00967941 0.0924671 -0.00967936 1.04045 0.00808981 -0.0180378 -0.0015781 1.03873)
(0.937277 -0.0278707 0.0896575 -0.0278705 1.03382 0.0240236 -0.0174897 -0.00468637 1.03873)
(0.949721 -0.0427003 0.0841237 -0.0427002 1.02138 0.0392275 -0.0164102 -0.00765223 1.03873)
(0.966486 -0.0523798 0.0760339 -0.0523797 1.00462 0.0532395 -0.014832 -0.0103855 1.03873)
(0.985551 -0.0557414 0.0656338 -0.0557414 0.985551 0.0656338 -0.0128033 -0.0128033 1.03873)
(1.00462 -0.0523797 0.0532395 -0.0523798 0.966486 0.0760339 -0.0103855 -0.014832 1.03873)
(1.02138 -0.0427002 0.0392275 -0.0427003 0.949721 0.0841237 -0.00765223 -0.0164102 1.03873)
(1.03382 -0.0278705 0.0240236 -0.0278707 0.937277 0.0896575 -0.00468637 -0.0174897 1.03873)
(1.04045 -0.00967936 0.00808981 -0.00967941 0.930656 0.0924671 -0.0015781 -0.0180378 1.03873)
(1.04045 0.00967936 -0.00808981 0.00967941 0.930656 0.0924671 0.0015781 -0.0180378 1.03873)
(1.03382 0.0278705 -0.0240236 0.0278707 0.937277 0.0896575 0.00468637 -0.0174897 1.03873)
(1.02138 0.0427002 -0.0392275 0.0427003 0.949721 0.0841237 0.00765223 -0.0164102 1.03873)
(1.00462 0.0523797 -0.0532395 0.0523798 0.966486 0.0760339 0.0103855 -0.014832 1.03873)
(0.985551 0.0557414 -0.0656338 0.0557414 0.985551 0.0656338 0.0128033 -0.0128033 1.03873)
(0.966486 0.0523798 -0.0760339 0.0523797 1.00462 0.0532395 0.014832 -0.0103855 1.03873)
(0.949721 0.0427003 -0.0841237 0.0427002 1.02138 0.0392275 0.0164102 -0.00765223 1.03873)
(0.937277 0.0278707 -0.0896575 0.0278705 1.03382 0.0240236 0.0174897 -0.00468637 1.03873)
(0.930656 0.00967941 -0.0924671 0.00967936 1.04045 0.00808981 0.0180378 -0.0015781 1.03873)
(0.932766 -0.00870121 -0.0551515 -0.00870118 1.03146 -0.00482513 0.0270527 0.00236677 1.0351)
(0.938718 -0.0250541 -0.0534757 -0.025054 1.02551 -0.0143288 0.0262307 0.00702844 1.0351)
(0.949905 -0.0383851 -0.0501751 -0.0383849 1.01432 -0.023397 0.0246117 0.0114766 1.0351)
(0.964975 -0.0470863 -0.04535 -0.0470861 0.999251 -0.0317544 0.0222449 0.015576 1.0351)
(0.982113 -0.0501081 -0.039147 -0.0501081 0.982113 -0.039147 0.0192022 0.0192022 1.0351)
(0.999251 -0.0470861 -0.0317544 -0.0470863 0.964975 -0.04535 0.015576 0.0222449 1.0351)
(1.01432 -0.0383849 -0.023397 -0.0383851 0.949905 -0.0501751 0.0114766 0.0246117 1.0351)
(1.02551 -0.025054 -0.0143288 -0.0250541 0.938718 -0.0534757 0.00702844 0.0262307 1.0351)
(1.03146 -0.00870118 -0.00482513 -0.00870121 0.932766 -0.0551515 0.00236677 0.0270527 1.0351)
(1.03146 0.00870118 0.00482513 0.00870121 0.932766 -0.0551515 -0.00236677 0.0270527 1.0351)
(1.02551 0.025054 0.0143288 0.0250541 0.938718 -0.0534757 -0.00702844 0.0262307 1.0351)
(1.01432 0.0383849 0.023397 0.0383851 0.949905 -0.0501751 -0.0114766 0.0246117 1.0351)
(0.999251 0.0470861 0.0317544 0.0470863 0.964975 -0.04535 -0.015576 0.0222449 1.0351)
(0.982113 0.0501081 0.039147 0.0501081 0.982113 -0.039147 -0.0192022 0.0192022 1.0351)
(0.964975 0.0470863 0.04535 0.0470861 0.999251 -0.0317544 -0.0222449 0.015576 1.0351)
(0.949905 0.0383851 0.0501751 0.0383849 1.01432 -0.023397 -0.0246117 0.0114766 1.0351)
(0.938718 0.0250541 0.0534757 0.025054 1.02551 -0.0143288 -0.0262307 0.00702844 1.0351)
(0.932766 0.00870121 0.0551515 0.00870118 1.03146 -0.00482513 -0.0270527 0.00236677 1.0351)
(0.932766 -0.00870121 0.0551515 -0.00870118 1.03146 0.00482513 -0.0270527 -0.00236677 1.0351)
(0.938718 -0.0250541 0.0534757 -0.025054 1.02551 0.0143288 -0.0262307 -0.00702844 1.0351)
(0.949905 -0.0383851 0.0501751 -0.0383849 1.01432 0.023397 -0.0246117 -0.0114766 1.0351)
(0.964975 -0.0470863 0.04535 -0.0470861 0.999251 0.0317544 -0.0222449 -0.015576 1.0351)
(0.982113 -0.0501081 0.039147 -0.0501081 0.982113 0.039147 -0.0192022 -0.0192022 1.0351)
(0.999251 -0.0470861 0.0317544 -0.0470863 0.964975 0.04535 -0.015576 -0.0222449 1.0351)
(1.01432 -0.0383849 0.023397 -0.0383851 0.949905 0.0501751 -0.0114766 -0.0246117 1.0351)
(1.02551 -0.025054 0.0143288 -0.0250541 0.938718 0.0534757 -0.00702844 -0.0262307 1.0351)
(1.03146 -0.00870118 0.00482513 -0.00870121 0.932766 0.0551515 -0.00236677 -0.0270527 1.0351)
(1.03146 0.00870118 -0.00482513 0.00870121 0.932766 0.0551515 0.00236677 -0.0270527 1.0351)
(1.02551 0.025054 -0.0143288 0.0250541 0.938718 0.0534757 0.00702844 -0.0262307 1.0351)
(1.01432 0.0383849 -0.023397 0.0383851 0.949905 0.0501751 0.0114766 -0.0246117 1.0351)
(0.999251 0.0470861 -0.0317544 0.0470863 0.964975 0.04535 0.015576 -0.0222449 1.0351)
(0.982113 0.0501081 -0.039147 0.0501081 0.982113 0.039147 0.0192022 -0.0192022 1.0351)
(0.964975 0.0470863 -0.04535 0.0470861 0.999251 0.0317544 0.0222449 -0.015576 1.0351)
(0.949905 0.0383851 -0.0501751 0.0383849 1.01432 0.023397 0.0246117 -0.0114766 1.0351)
(0.938718 0.0250541 -0.0534757 0.025054 1.02551 0.0143288 0.0262307 -0.00702844 1.0351)
(0.932766 0.00870121 -0.0551515 0.00870118 1.03146 0.00482513 0.0270527 -0.00236677 1.0351)
(0.921754 -0.0106971 -0.0626809 -0.010697 1.04308 -0.00548387 0.026795 0.00234425 1.03791)
(0.929071 -0.0308008 -0.0607763 -0.0308007 1.03577 -0.016285 0.0259808 0.0069615 1.03791)
(0.942823 -0.0471896 -0.0570252 -0.0471893 1.02202 -0.0265913 0.0243772 0.0113673 1.03791)
(0.96135 -0.0578865 -0.0515413 -0.0578864 1.00349 -0.0360896 0.022033 0.0154276 1.03791)
(0.982419 -0.0616015 -0.0444914 -0.0616015 0.982419 -0.0444914 0.0190193 0.0190193 1.03791)
(1.00349 -0.0578864 -0.0360896 -0.0578865 0.96135 -0.0515413 0.0154276 0.022033 1.03791)
(1.02202 -0.0471893 -0.0265913 -0.0471896 0.942823 -0.0570252 0.0113673 0.0243772 1.03791)
(1.03577 -0.0308007 -0.016285 -0.0308008 0.929071 -0.0607763 0.0069615 0.0259808 1.03791)
(1.04308 -0.010697 -0.00548387 -0.0106971 0.921754 -0.0626809 0.00234425 0.026795 1.03791)
(1.04308 0.010697 0.00548387 0.0106971 0.921754 -0.0626809 -0.00234425 0.026795 1.03791)
(1.03577 0.0308007 0.016285 0.0308008 0.929071 -0.0607763 -0.0069615 0.0259808 1.03791)
(1.02202 0.0471893 0.0265913 0.0471896 0.942823 -0.0570252 -0.0113673 0.0243772 1.03791)
(1.00349 0.0578864 0.0360896 0.0578865 0.96135 -0.0515413 -0.0154276 0.022033 1.03791)
(0.982419 0.0616015 0.0444914 0.0616015 0.982419 -0.0444914 -0.0190193 0.0190193 1.03791)
(0.96135 0.0578865 0.0515413 0.0578864 1.00349 -0.0360896 -0.022033 0.0154276 1.03791)
(0.942823 0.0471896 0.0570252 0.0471893 1.02202 -0.0265913 -0.0243772 0.0113673 1.03791)
(0.929071 0.0308008 0.0607763 0.0308007 1.03577 -0.016285 -0.0259808 0.0069615 1.03791)
(0.921754 0.0106971 0.0626809 0.010697 1.04308 -0.00548387 -0.026795 0.00234425 1.03791)
(0.921754 -0.0106971 0.0626809 -0.010697 1.04308 0.00548387 -0.026795 -0.00234425 1.03791)
(0.929071 -0.0308008 0.0607763 -0.0308007 1.03577 0.016285 -0.0259808 -0.0069615 1.03791)
(0.942823 -0.0471896 0.0570252 -0.0471893 1.02202 0.0265913 -0.0243772 -0.0113673 1.03791)
(0.96135 -0.0578865 0.0515413 -0.0578864 1.00349 0.0360896 -0.022033 -0.0154276 1.03791)
(0.982419 -0.0616015 0.0444914 -0.0616015 0.982419 0.0444914 -0.0190193 -0.0190193 1.03791)
(1.00349 -0.0578864 0.0360896 -0.0578865 0.96135 0.0515413 -0.0154276 -0.022033 1.03791)
(1.02202 -0.0471893 0.0265913 -0.0471896 0.942823 0.0570252 -0.0113673 -0.0243772 1.03791)
(1.03577 -0.0308007 0.016285 -0.0308008 0.929071 0.0607763 -0.0069615 -0.0259808 1.03791)
(1.04308 -0.010697 0.00548387 -0.0106971 0.921754 0.0626809 -0.00234425 -0.026795 1.03791)
(1.04308 0.010697 -0.00548387 0.0106971 0.921754 0.0626809 0.00234425 -0.026795 1.03791)
(1.03577 0.0308007 -0.016285 0.0308008 0.929071 0.0607763 0.0069615 -0.0259808 1.03791)
(1.02202 0.0471893 -0.0265913 0.0471896 0.942823 0.0570252 0.0113673 -0.0243772 1.03791)
(1.00349 0.0578864 -0.0360896 0.0578865 0.96135 0.0515413 0.0154276 -0.022033 1.03791)
(0.982419 0.0616015 -0.0444914 0.0616015 0.982419 0.0444914 0.0190193 -0.0190193 1.03791)
(0.96135 0.0578865 -0.0515413 0.0578864 1.00349 0.0360896 0.022033 -0.0154276 1.03791)
(0.942823 0.0471896 -0.0570252 0.0471893 1.02202 0.0265913 0.0243772 -0.0113673 1.03791)
(0.929071 0.0308008 -0.0607763 0.0308007 1.03577 0.016285 0.0259808 -0.0069615 1.03791)
(0.921754 0.0106971 -0.0626809 0.010697 1.04308 0.00548387 0.026795 -0.00234425 1.03791)
(0.911412 -0.0131529 -0.0710805 -0.0131529 1.0606 -0.00621874 0.0262868 0.0022998 1.04128)
(0.92041 -0.0378723 -0.0689208 -0.0378721 1.0516 -0.0184673 0.0254881 0.0068295 1.04128)
(0.937319 -0.0580237 -0.0646669 -0.0580236 1.03469 -0.0301547 0.0239149 0.0111517 1.04128)
(0.9601 -0.0711767 -0.0584481 -0.0711766 1.01191 -0.0409258 0.0216152 0.015135 1.04128)
(0.986006 -0.0757446 -0.0504534 -0.0757446 0.986006 -0.0504534 0.0186586 0.0186586 1.04128)
(1.01191 -0.0711766 -0.0409258 -0.0711767 0.9601 -0.0584481 0.015135 0.0216152 1.04128)
(1.03469 -0.0580236 -0.0301547 -0.0580237 0.937319 -0.0646669 0.0111517 0.0239149 1.04128)
(1.0516 -0.0378721 -0.0184673 -0.0378723 0.92041 -0.0689208 0.0068295 0.0254881 1.04128)
(1.0606 -0.0131529 -0.00621874 -0.0131529 0.911412 -0.0710805 0.0022998 0.0262868 1.04128)
(1.0606 0.0131529 0.00621874 0.0131529 0.911412 -0.0710805 -0.0022998 0.0262868 1.04128)
(1.0516 0.0378721 0.0184673 0.0378723 0.92041 -0.0689208 -0.0068295 0.0254881 1.04128)
(1.03469 0.0580236 0.0301547 0.0580237 0.937319 -0.0646669 -0.0111517 0.0239149 1.04128)
(1.01191 0.0711766 0.0409258 0.0711767 0.9601 -0.0584481 -0.015135 0.0216152 1.04128)
(0.986006 0.0757446 0.0504534 0.0757446 0.986006 -0.0504534 -0.0186586 0.0186586 1.04128)
(0.9601 0.0711767 0.0584481 0.0711766 1.01191 -0.0409258 -0.0216152 0.015135 1.04128)
(0.937319 0.0580237 0.0646669 0.0580236 1.03469 -0.0301547 -0.0239149 0.0111517 1.04128)
(0.92041 0.0378723 0.0689208 0.0378721 1.0516 -0.0184673 -0.0254881 0.0068295 1.04128)
(0.911412 0.0131529 0.0710805 0.0131529 1.0606 -0.00621874 -0.0262868 0.0022998 1.04128)
(0.911412 -0.0131529 0.0710805 -0.0131529 1.0606 0.00621874 -0.0262868 -0.0022998 1.04128)
(0.92041 -0.0378723 0.0689208 -0.0378721 1.0516 0.0184673 -0.0254881 -0.0068295 1.04128)
(0.937319 -0.0580237 0.0646669 -0.0580236 1.03469 0.0301547 -0.0239149 -0.0111517 1.04128)
(0.9601 -0.0711767 0.0584481 -0.0711766 1.01191 0.0409258 -0.0216152 -0.015135 1.04128)
(0.986006 -0.0757446 0.0504534 -0.0757446 0.986006 0.0504534 -0.0186586 -0.0186586 1.04128)
(1.01191 -0.0711766 0.0409258 -0.0711767 0.9601 0.0584481 -0.015135 -0.0216152 1.04128)
(1.03469 -0.0580236 0.0301547 -0.0580237 0.937319 0.0646669 -0.0111517 -0.0239149 1.04128)
(1.0516 -0.0378721 0.0184673 -0.0378723 0.92041 0.0689208 -0.0068295 -0.0254881 1.04128)
(1.0606 -0.0131529 0.00621874 -0.0131529 0.911412 0.0710805 -0.0022998 -0.0262868 1.04128)
(1.0606 0.0131529 -0.00621874 0.0131529 0.911412 0.0710805 0.0022998 -0.0262868 1.04128)
(1.0516 0.0378721 -0.0184673 0.0378723 0.92041 0.0689208 0.0068295 -0.0254881 1.04128)
(1.03469 0.0580236 -0.0301547 0.0580237 0.937319 0.0646669 0.0111517 -0.0239149 1.04128)
(1.01191 0.0711766 -0.0409258 0.0711767 0.9601 0.0584481 0.015135 -0.0216152 1.04128)
(0.986006 0.0757446 -0.0504534 0.0757446 0.986006 0.0504534 0.0186586 -0.0186586 1.04128)