/*--------------------------------*- C++ -*----------------------------------*\
| =========                 |                                                 |
| \\      /  F ield         | OpenFOAM: The Open Source CFD Toolbox           |
|  \\    /   O peration     | Version:  2312                                  |
|   \\  /    A nd           | Website:  www.openfoam.com                      |
|    \\/     M anipulation  |                                                 |
\*---------------------------------------------------------------------------*/
FoamFile
{
    version     2.0;
    format      ascii;
    arch        "LSB;label=32;scalar=64";
    class       pointVectorField;
    location    "0.2";
    object      pointD;
}
// * * * * * * * * * * * * * * * * * * * * * * * * * * * * * * * * * * * * * //

dimensions      [0 1 0 0 0 0 0];

internalField   nonuniform List<vector> 
2164
(
(0 0 0)
(0 0 0)
(0 0 0)
(0 0 0)
(0 0 0)
(0 0 0)
(0 0 0)
(0 0 0)
(0 0 0)
(0 0 0)
(0 0 0)
(0 0 0)
(0 0 0)
(0 0 0)
(0 0 0)
(0 0 0)
(0 0 0)
(0 0 0)
(0 0 0)
(0 0 0)
(0 0 0)
(0 0 0)
(0 0 0)
(0 0 0)
(0 0 0)
(0 0 0)
(0 0 0)
(0 0 0)
(0 0 0)
(0 0 0)
(0 0 0)
(0 0 0)
(0 0 0)
(0 0 0)
(0 0 0)
(0 0 0)
(0.000100417 1.77063e-05 -2.59809e-05)
(9.58169e-05 3.48745e-05 -2.59811e-05)
(8.83052e-05 5.0983e-05 -2.59811e-05)
(7.81102e-05 6.55422e-05 -2.59811e-05)
(6.55422e-05 7.81102e-05 -2.59811e-05)
(5.0983e-05 8.83052e-05 -2.59811e-05)
(3.48745e-05 9.58169e-05 -2.59811e-05)
(1.77063e-05 0.000100417 -2.59809e-05)
(9.89677e-15 0.000101966 -2.5981e-05)
(-1.77063e-05 0.000100417 -2.59809e-05)
(-3.48745e-05 9.58169e-05 -2.59811e-05)
(-5.0983e-05 8.83052e-05 -2.59811e-05)
(-6.55422e-05 7.81102e-05 -2.59811e-05)
(-7.81102e-05 6.55422e-05 -2.59811e-05)
(-8.83052e-05 5.0983e-05 -2.59811e-05)
(-9.58169e-05 3.48745e-05 -2.59811e-05)
(-0.000100417 1.77063e-05 -2.59809e-05)
(-0.000101966 1.25967e-14 -2.5981e-05)
(-0.000100417 -1.77063e-05 -2.59809e-05)
(-9.58169e-05 -3.48745e-05 -2.59811e-05)
(-8.83052e-05 -5.0983e-05 -2.59811e-05)
(-7.81102e-05 -6.55422e-05 -2.59811e-05)
(-6.55422e-05 -7.81102e-05 -2.59811e-05)
(-5.0983e-05 -8.83052e-05 -2.59811e-05)
(-3.48745e-05 -9.58169e-05 -2.59811e-05)
(-1.77063e-05 -0.000100417 -2.59809e-05)
(-1.33749e-14 -0.000101966 -2.5981e-05)
(1.77063e-05 -0.000100417 -2.59809e-05)
(3.48745e-05 -9.58169e-05 -2.59811e-05)
(5.0983e-05 -8.83052e-05 -2.59811e-05)
(6.55422e-05 -7.81102e-05 -2.59811e-05)
(7.81102e-05 -6.55422e-05 -2.59811e-05)
(8.83052e-05 -5.0983e-05 -2.59811e-05)
(9.58169e-05 -3.48745e-05 -2.59811e-05)
(0.000100417 -1.77063e-05 -2.59809e-05)
(0.000101966 -1.42461e-14 -2.5981e-05)
(0.000136483 2.40655e-05 -3.98298e-05)
(0.00013023 4.73998e-05 -3.98298e-05)
(0.000120021 6.92937e-05 -3.98299e-05)
(0.000106164 8.90823e-05 -3.98299e-05)
(8.90823e-05 0.000106164 -3.98299e-05)
(6.92937e-05 0.000120021 -3.98299e-05)
(4.73998e-05 0.00013023 -3.98298e-05)
(2.40655e-05 0.000136483 -3.98298e-05)
(8.64448e-15 0.000138588 -3.98298e-05)
(-2.40655e-05 0.000136483 -3.98298e-05)
(-4.73998e-05 0.00013023 -3.98298e-05)
(-6.92937e-05 0.000120021 -3.98299e-05)
(-8.90823e-05 0.000106164 -3.98299e-05)
(-0.000106164 8.90823e-05 -3.98299e-05)
(-0.000120021 6.92937e-05 -3.98299e-05)
(-0.00013023 4.73998e-05 -3.98298e-05)
(-0.000136483 2.40655e-05 -3.98298e-05)
(-0.000138588 1.14368e-14 -3.98298e-05)
(-0.000136483 -2.40655e-05 -3.98298e-05)
(-0.00013023 -4.73998e-05 -3.98298e-05)
(-0.000120021 -6.92937e-05 -3.98299e-05)
(-0.000106164 -8.90823e-05 -3.98299e-05)
(-8.90823e-05 -0.000106164 -3.98299e-05)
(-6.92937e-05 -0.000120021 -3.98299e-05)
(-4.73998e-05 -0.00013023 -3.98298e-05)
(-2.40655e-05 -0.000136483 -3.98298e-05)
(-1.24241e-14 -0.000138588 -3.98298e-05)
(2.40655e-05 -0.000136483 -3.98298e-05)
(4.73998e-05 -0.00013023 -3.98298e-05)
(6.92937e-05 -0.000120021 -3.98299e-05)
(8.90823e-05 -0.000106164 -3.98299e-05)
(0.000106164 -8.90823e-05 -3.98299e-05)
(0.000120021 -6.92937e-05 -3.98299e-05)
(0.00013023 -4.73998e-05 -3.98298e-05)
(0.000136483 -2.40655e-05 -3.98298e-05)
(0.000138588 -1.30376e-14 -3.98298e-05)
(0 0 0)
(0 0 0)
(0 0 0)
(0 0 0)
(0 0 0)
(0 0 0)
(0 0 0)
(0 0 0)
(0 0 0)
(0 0 0)
(0 0 0)
(0 0 0)
(0 0 0)
(0 0 0)
(0 0 0)
(0 0 0)
(0 0 0)
(0 0 0)
(0 0 0)
(0 0 0)
(0 0 0)
(0 0 0)
(0 0 0)
(0 0 0)
(0 0 0)
(0 0 0)
(0 0 0)
(0 0 0)
(0 0 0)
(0 0 0)
(0 0 0)
(0 0 0)
(0 0 0)
(0 0 0)
(0 0 0)
(0 0 0)
(0.000184341 3.25042e-05 -5.28248e-05)
(0.000175896 6.40207e-05 -5.28247e-05)
(0.000162106 9.35921e-05 -5.28248e-05)
(0.000143391 0.00012032 -5.28247e-05)
(0.00012032 0.000143391 -5.28247e-05)
(9.35921e-05 0.000162106 -5.28248e-05)
(6.40207e-05 0.000175896 -5.28247e-05)
(3.25042e-05 0.000184341 -5.28248e-05)
(7.39527e-15 0.000187184 -5.28247e-05)
(-3.25042e-05 0.000184341 -5.28248e-05)
(-6.40207e-05 0.000175896 -5.28247e-05)
(-9.35921e-05 0.000162106 -5.28248e-05)
(-0.00012032 0.000143391 -5.28247e-05)
(-0.000143391 0.00012032 -5.28247e-05)
(-0.000162106 9.35921e-05 -5.28248e-05)
(-0.000175896 6.40207e-05 -5.28247e-05)
(-0.000184341 3.25042e-05 -5.28248e-05)
(-0.000187184 1.02777e-14 -5.28247e-05)
(-0.000184341 -3.25042e-05 -5.28248e-05)
(-0.000175896 -6.40207e-05 -5.28247e-05)
(-0.000162106 -9.35921e-05 -5.28248e-05)
(-0.000143391 -0.00012032 -5.28247e-05)
(-0.00012032 -0.000143391 -5.28247e-05)
(-9.35921e-05 -0.000162106 -5.28248e-05)
(-6.40207e-05 -0.000175896 -5.28247e-05)
(-3.25042e-05 -0.000184341 -5.28248e-05)
(-1.14779e-14 -0.000187184 -5.28247e-05)
(3.25042e-05 -0.000184341 -5.28248e-05)
(6.40207e-05 -0.000175896 -5.28247e-05)
(9.35921e-05 -0.000162106 -5.28248e-05)
(0.00012032 -0.000143391 -5.28247e-05)
(0.000143391 -0.00012032 -5.28247e-05)
(0.000162106 -9.35921e-05 -5.28248e-05)
(0.000175896 -6.40207e-05 -5.28247e-05)
(0.000184341 -3.25042e-05 -5.28248e-05)
(0.000187184 -1.18268e-14 -5.28247e-05)
(0 0 0)
(0 0 0)
(0 0 0)
(0 0 0)
(0 0 0)
(0 0 0)
(0 0 0)
(0 0 0)
(0 0 0)
(0 0 0)
(0 0 0)
(0 0 0)
(0 0 0)
(0 0 0)
(0 0 0)
(0 0 0)
(0 0 0)
(0 0 0)
(0 0 0)
(0 0 0)
(0 0 0)
(0 0 0)
(0 0 0)
(0 0 0)
(0 0 0)
(0 0 0)
(0 0 0)
(0 0 0)
(0 0 0)
(0 0 0)
(0 0 0)
(0 0 0)
(0 0 0)
(0 0 0)
(0 0 0)
(0 0 0)
(0.000241396 4.25645e-05 -6.41566e-05)
(0.000230337 8.38356e-05 -6.41565e-05)
(0.00021228 0.00012256 -6.41565e-05)
(0.000187773 0.00015756 -6.41564e-05)
(0.00015756 0.000187773 -6.41564e-05)
(0.00012256 0.00021228 -6.41565e-05)
(8.38356e-05 0.000230337 -6.41565e-05)
(4.25645e-05 0.000241396 -6.41566e-05)
(6.16624e-15 0.00024512 -6.41565e-05)
(-4.25645e-05 0.000241396 -6.41566e-05)
(-8.38356e-05 0.000230337 -6.41565e-05)
(-0.00012256 0.00021228 -6.41565e-05)
(-0.00015756 0.000187773 -6.41564e-05)
(-0.000187773 0.00015756 -6.41564e-05)
(-0.00021228 0.00012256 -6.41565e-05)
(-0.000230337 8.38356e-05 -6.41565e-05)
(-0.000241396 4.25645e-05 -6.41566e-05)
(-0.00024512 9.11271e-15 -6.41565e-05)
(-0.000241396 -4.25645e-05 -6.41566e-05)
(-0.000230337 -8.38356e-05 -6.41565e-05)
(-0.00021228 -0.00012256 -6.41565e-05)
(-0.000187773 -0.00015756 -6.41564e-05)
(-0.00015756 -0.000187773 -6.41564e-05)
(-0.00012256 -0.00021228 -6.41565e-05)
(-8.38356e-05 -0.000230337 -6.41565e-05)
(-4.25645e-05 -0.000241396 -6.41566e-05)
(-1.05345e-14 -0.00024512 -6.41565e-05)
(4.25645e-05 -0.000241396 -6.41566e-05)
(8.38356e-05 -0.000230337 -6.41565e-05)
(0.00012256 -0.00021228 -6.41565e-05)
(0.00015756 -0.000187773 -6.41564e-05)
(0.000187773 -0.00015756 -6.41564e-05)
(0.00021228 -0.00012256 -6.41565e-05)
(0.000230337 -8.38356e-05 -6.41565e-05)
(0.000241396 -4.25645e-05 -6.41566e-05)
(0.00024512 -1.06089e-14 -6.41565e-05)
(0 0 0)
(0 0 0)
(0 0 0)
(0 0 0)
(0 0 0)
(0 0 0)
(0 0 0)
(0 0 0)
(0 0 0)
(0 0 0)
(0 0 0)
(0 0 0)
(0 0 0)
(0 0 0)
(0 0 0)
(0 0 0)
(0 0 0)
(0 0 0)
(0 0 0)
(0 0 0)
(0 0 0)
(0 0 0)
(0 0 0)
(0 0 0)
(0 0 0)
(0 0 0)
(0 0 0)
(0 0 0)
(0 0 0)
(0 0 0)
(0 0 0)
(0 0 0)
(0 0 0)
(0 0 0)
(0 0 0)
(0 0 0)
(0.000218871 3.85929e-05 -7.17856e-05)
(0.000208844 7.60132e-05 -7.17857e-05)
(0.000192472 0.000111124 -7.17858e-05)
(0.000170251 0.000142858 -7.17859e-05)
(0.000142858 0.000170251 -7.17859e-05)
(0.000111124 0.000192472 -7.17858e-05)
(7.60132e-05 0.000208844 -7.17857e-05)
(3.85929e-05 0.000218871 -7.17856e-05)
(1.94603e-14 0.000222248 -7.17856e-05)
(-3.85929e-05 0.000218871 -7.17856e-05)
(-7.60132e-05 0.000208844 -7.17857e-05)
(-0.000111124 0.000192472 -7.17858e-05)
(-0.000142858 0.000170251 -7.17859e-05)
(-0.000170251 0.000142858 -7.17859e-05)
(-0.000192472 0.000111124 -7.17858e-05)
(-0.000208844 7.60132e-05 -7.17857e-05)
(-0.000218871 3.85929e-05 -7.17856e-05)
(-0.000222248 2.50345e-14 -7.17856e-05)
(-0.000218871 -3.85929e-05 -7.17856e-05)
(-0.000208844 -7.60132e-05 -7.17857e-05)
(-0.000192472 -0.000111124 -7.17858e-05)
(-0.000170251 -0.000142858 -7.17859e-05)
(-0.000142858 -0.000170251 -7.17859e-05)
(-0.000111124 -0.000192472 -7.17858e-05)
(-7.60132e-05 -0.000208844 -7.17857e-05)
(-3.85929e-05 -0.000218871 -7.17856e-05)
(-2.65822e-14 -0.000222248 -7.17856e-05)
(3.85929e-05 -0.000218871 -7.17856e-05)
(7.60132e-05 -0.000208844 -7.17857e-05)
(0.000111124 -0.000192472 -7.17858e-05)
(0.000142858 -0.000170251 -7.17859e-05)
(0.000170251 -0.000142858 -7.17859e-05)
(0.000192472 -0.000111124 -7.17858e-05)
(0.000208844 -7.60132e-05 -7.17857e-05)
(0.000218871 -3.85929e-05 -7.17856e-05)
(0.000222248 -2.82194e-14 -7.17856e-05)
(0.000275325 4.8547e-05 -9.58801e-05)
(0.000262712 9.56192e-05 -9.58803e-05)
(0.000242116 0.000139785 -9.58801e-05)
(0.000214164 0.000179705 -9.58803e-05)
(0.000179705 0.000214164 -9.58803e-05)
(0.000139785 0.000242116 -9.58801e-05)
(9.56192e-05 0.000262712 -9.58803e-05)
(4.8547e-05 0.000275325 -9.58801e-05)
(1.69367e-14 0.000279572 -9.58801e-05)
(-4.8547e-05 0.000275325 -9.58801e-05)
(-9.56192e-05 0.000262712 -9.58803e-05)
(-0.000139785 0.000242116 -9.58801e-05)
(-0.000179705 0.000214164 -9.58803e-05)
(-0.000214164 0.000179705 -9.58803e-05)
(-0.000242116 0.000139785 -9.58801e-05)
(-0.000262712 9.56192e-05 -9.58803e-05)
(-0.000275325 4.8547e-05 -9.58801e-05)
(-0.000279572 2.26174e-14 -9.58801e-05)
(-0.000275325 -4.8547e-05 -9.58801e-05)
(-0.000262712 -9.56192e-05 -9.58803e-05)
(-0.000242116 -0.000139785 -9.58801e-05)
(-0.000214164 -0.000179705 -9.58803e-05)
(-0.000179705 -0.000214164 -9.58803e-05)
(-0.000139785 -0.000242116 -9.58801e-05)
(-9.56192e-05 -0.000262712 -9.58803e-05)
(-4.8547e-05 -0.000275325 -9.58801e-05)
(-2.46175e-14 -0.000279572 -9.58801e-05)
(4.8547e-05 -0.000275325 -9.58801e-05)
(9.56192e-05 -0.000262712 -9.58803e-05)
(0.000139785 -0.000242116 -9.58801e-05)
(0.000179705 -0.000214164 -9.58803e-05)
(0.000214164 -0.000179705 -9.58803e-05)
(0.000242116 -0.000139785 -9.58801e-05)
(0.000262712 -9.56192e-05 -9.58803e-05)
(0.000275325 -4.8547e-05 -9.58801e-05)
(0.000279572 -2.57147e-14 -9.58801e-05)
(0.000346447 6.10881e-05 -0.000119632)
(0.000330576 0.000120319 -0.000119632)
(0.00030466 0.000175895 -0.000119632)
(0.000269488 0.000226127 -0.000119632)
(0.000226127 0.000269488 -0.000119632)
(0.000175895 0.00030466 -0.000119632)
(0.000120319 0.000330576 -0.000119632)
(6.10881e-05 0.000346447 -0.000119632)
(1.44363e-14 0.000351792 -0.000119632)
(-6.10881e-05 0.000346447 -0.000119632)
(-0.000120319 0.000330576 -0.000119632)
(-0.000175895 0.00030466 -0.000119632)
(-0.000226127 0.000269488 -0.000119632)
(-0.000269488 0.000226127 -0.000119632)
(-0.00030466 0.000175895 -0.000119632)
(-0.000330576 0.000120319 -0.000119632)
(-0.000346447 6.10881e-05 -0.000119632)
(-0.000351792 2.02152e-14 -0.000119632)
(-0.000346447 -6.10881e-05 -0.000119632)
(-0.000330576 -0.000120319 -0.000119632)
(-0.00030466 -0.000175895 -0.000119632)
(-0.000269488 -0.000226127 -0.000119632)
(-0.000226127 -0.000269488 -0.000119632)
(-0.000175895 -0.00030466 -0.000119632)
(-0.000120319 -0.000330576 -0.000119632)
(-6.10881e-05 -0.000346447 -0.000119632)
(-2.26641e-14 -0.000351792 -0.000119632)
(6.10881e-05 -0.000346447 -0.000119632)
(0.000120319 -0.000330576 -0.000119632)
(0.000175895 -0.00030466 -0.000119632)
(0.000226127 -0.000269488 -0.000119632)
(0.000269488 -0.000226127 -0.000119632)
(0.00030466 -0.000175895 -0.000119632)
(0.000330576 -0.000120319 -0.000119632)
(0.000346447 -6.10881e-05 -0.000119632)
(0.000351792 -2.32207e-14 -0.000119632)
(0.000427409 7.53637e-05 -0.00014148)
(0.000407828 0.000148437 -0.00014148)
(0.000375856 0.000217 -0.00014148)
(0.000332464 0.00027897 -0.00014148)
(0.00027897 0.000332464 -0.00014148)
(0.000217 0.000375856 -0.00014148)
(0.000148437 0.000407828 -0.00014148)
(7.53637e-05 0.000427409 -0.00014148)
(1.19921e-14 0.000434002 -0.00014148)
(-7.53637e-05 0.000427409 -0.00014148)
(-0.000148437 0.000407828 -0.00014148)
(-0.000217 0.000375856 -0.00014148)
(-0.00027897 0.000332464 -0.00014148)
(-0.000332464 0.00027897 -0.00014148)
(-0.000375856 0.000217 -0.00014148)
(-0.000407828 0.000148437 -0.00014148)
(-0.000427409 7.53637e-05 -0.00014148)
(-0.000434002 1.7825e-14 -0.00014148)
(-0.000427409 -7.53637e-05 -0.00014148)
(-0.000407828 -0.000148437 -0.00014148)
(-0.000375856 -0.000217 -0.00014148)
(-0.000332464 -0.00027897 -0.00014148)
(-0.00027897 -0.000332464 -0.00014148)
(-0.000217 -0.000375856 -0.00014148)
(-0.000148437 -0.000407828 -0.00014148)
(-7.53637e-05 -0.000427409 -0.00014148)
(-2.07243e-14 -0.000434002 -0.00014148)
(7.53637e-05 -0.000427409 -0.00014148)
(0.000148437 -0.000407828 -0.00014148)
(0.000217 -0.000375856 -0.00014148)
(0.00027897 -0.000332464 -0.00014148)
(0.000332464 -0.00027897 -0.00014148)
(0.000375856 -0.000217 -0.00014148)
(0.000407828 -0.000148437 -0.00014148)
(0.000427409 -7.53637e-05 -0.00014148)
(0.000434002 -2.07374e-14 -0.00014148)
(0.000320905 5.65841e-05 -0.000140212)
(0.000306204 0.000111449 -0.000140212)
(0.000282199 0.000162928 -0.000140212)
(0.00024962 0.000209456 -0.000140212)
(0.000209456 0.00024962 -0.000140212)
(0.000162928 0.000282199 -0.000140212)
(0.000111449 0.000306204 -0.000140212)
(5.65841e-05 0.000320905 -0.000140212)
(2.82395e-14 0.000325855 -0.000140212)
(-5.65841e-05 0.000320905 -0.000140212)
(-0.000111449 0.000306204 -0.000140212)
(-0.000162928 0.000282199 -0.000140212)
(-0.000209456 0.00024962 -0.000140212)
(-0.00024962 0.000209456 -0.000140212)
(-0.000282199 0.000162928 -0.000140212)
(-0.000306204 0.000111449 -0.000140212)
(-0.000320905 5.65841e-05 -0.000140212)
(-0.000325855 3.68806e-14 -0.000140212)
(-0.000320905 -5.65841e-05 -0.000140212)
(-0.000306204 -0.000111449 -0.000140212)
(-0.000282199 -0.000162928 -0.000140212)
(-0.00024962 -0.000209456 -0.000140212)
(-0.000209456 -0.00024962 -0.000140212)
(-0.000162928 -0.000282199 -0.000140212)
(-0.000111449 -0.000306204 -0.000140212)
(-5.65841e-05 -0.000320905 -0.000140212)
(-3.93135e-14 -0.000325855 -0.000140212)
(5.65841e-05 -0.000320905 -0.000140212)
(0.000111449 -0.000306204 -0.000140212)
(0.000162928 -0.000282199 -0.000140212)
(0.000209456 -0.00024962 -0.000140212)
(0.00024962 -0.000209456 -0.000140212)
(0.000282199 -0.000162928 -0.000140212)
(0.000306204 -0.000111449 -0.000140212)
(0.000320905 -5.65841e-05 -0.000140212)
(0.000325855 -4.14548e-14 -0.000140212)
(0.000389832 6.8738e-05 -0.000168299)
(0.000371974 0.000135387 -0.0001683)
(0.000342812 0.000197923 -0.000168299)
(0.000303235 0.000254445 -0.0001683)
(0.000254445 0.000303235 -0.0001683)
(0.000197923 0.000342812 -0.000168299)
(0.000135387 0.000371974 -0.0001683)
(6.8738e-05 0.000389832 -0.000168299)
(2.45183e-14 0.000395846 -0.0001683)
(-6.8738e-05 0.000389832 -0.000168299)
(-0.000135387 0.000371974 -0.0001683)
(-0.000197923 0.000342812 -0.000168299)
(-0.000254445 0.000303235 -0.0001683)
(-0.000303235 0.000254445 -0.0001683)
(-0.000342812 0.000197923 -0.000168299)
(-0.000371974 0.000135387 -0.0001683)
(-0.000389832 6.8738e-05 -0.000168299)
(-0.000395846 3.31661e-14 -0.0001683)
(-0.000389832 -6.8738e-05 -0.000168299)
(-0.000371974 -0.000135387 -0.0001683)
(-0.000342812 -0.000197923 -0.000168299)
(-0.000303235 -0.000254445 -0.0001683)
(-0.000254445 -0.000303235 -0.0001683)
(-0.000197923 -0.000342812 -0.000168299)
(-0.000135387 -0.000371974 -0.0001683)
(-6.8738e-05 -0.000389832 -0.000168299)
(-3.6308e-14 -0.000395846 -0.0001683)
(6.8738e-05 -0.000389832 -0.000168299)
(0.000135387 -0.000371974 -0.0001683)
(0.000197923 -0.000342812 -0.000168299)
(0.000254445 -0.000303235 -0.0001683)
(0.000303235 -0.000254445 -0.0001683)
(0.000342812 -0.000197923 -0.000168299)
(0.000371974 -0.000135387 -0.0001683)
(0.000389832 -6.8738e-05 -0.000168299)
(0.000395846 -3.76213e-14 -0.0001683)
(0.000473878 8.35574e-05 -0.000196338)
(0.000452169 0.000164576 -0.000196338)
(0.000416722 0.000240594 -0.000196338)
(0.000368612 0.000309302 -0.000196338)
(0.000309302 0.000368612 -0.000196338)
(0.000240594 0.000416722 -0.000196338)
(0.000164576 0.000452169 -0.000196338)
(8.35574e-05 0.000473878 -0.000196338)
(2.08485e-14 0.000481188 -0.000196338)
(-8.35574e-05 0.000473878 -0.000196338)
(-0.000164576 0.000452169 -0.000196338)
(-0.000240594 0.000416722 -0.000196338)
(-0.000309302 0.000368612 -0.000196338)
(-0.000368612 0.000309302 -0.000196338)
(-0.000416722 0.000240594 -0.000196338)
(-0.000452169 0.000164576 -0.000196338)
(-0.000473878 8.35574e-05 -0.000196338)
(-0.000481188 2.94877e-14 -0.000196338)
(-0.000473878 -8.35574e-05 -0.000196338)
(-0.000452169 -0.000164576 -0.000196338)
(-0.000416722 -0.000240594 -0.000196338)
(-0.000368612 -0.000309302 -0.000196338)
(-0.000309302 -0.000368612 -0.000196338)
(-0.000240594 -0.000416722 -0.000196338)
(-0.000164576 -0.000452169 -0.000196338)
(-8.35574e-05 -0.000473878 -0.000196338)
(-3.33289e-14 -0.000481188 -0.000196338)
(8.35574e-05 -0.000473878 -0.000196338)
(0.000164576 -0.000452169 -0.000196338)
(0.000240594 -0.000416722 -0.000196338)
(0.000309302 -0.000368612 -0.000196338)
(0.000368612 -0.000309302 -0.000196338)
(0.000416722 -0.000240594 -0.000196338)
(0.000452169 -0.000164576 -0.000196338)
(0.000473878 -8.35574e-05 -0.000196338)
(0.000481188 -3.38173e-14 -0.000196338)
(0.000567593 0.000100082 -0.00022304)
(0.000541591 0.000197123 -0.00022304)
(0.000499133 0.000288175 -0.00022304)
(0.000441509 0.00037047 -0.00022304)
(0.00037047 0.000441509 -0.00022304)
(0.000288175 0.000499133 -0.00022304)
(0.000197123 0.000541591 -0.00022304)
(0.000100082 0.000567593 -0.00022304)
(1.72579e-14 0.00057635 -0.00022304)
(-0.000100082 0.000567593 -0.00022304)
(-0.000197123 0.000541591 -0.00022304)
(-0.000288175 0.000499133 -0.00022304)
(-0.00037047 0.000441509 -0.00022304)
(-0.000441509 0.00037047 -0.00022304)
(-0.000499133 0.000288175 -0.00022304)
(-0.000541591 0.000197123 -0.00022304)
(-0.000567593 0.000100082 -0.00022304)
(-0.00057635 2.58476e-14 -0.00022304)
(-0.000567593 -0.000100082 -0.00022304)
(-0.000541591 -0.000197123 -0.00022304)
(-0.000499133 -0.000288175 -0.00022304)
(-0.000441509 -0.00037047 -0.00022304)
(-0.00037047 -0.000441509 -0.00022304)
(-0.000288175 -0.000499133 -0.00022304)
(-0.000197123 -0.000541591 -0.00022304)
(-0.000100082 -0.000567593 -0.00022304)
(-3.0373e-14 -0.00057635 -0.00022304)
(0.000100082 -0.000567593 -0.00022304)
(0.000197123 -0.000541591 -0.00022304)
(0.000288175 -0.000499133 -0.00022304)
(0.00037047 -0.000441509 -0.00022304)
(0.000441509 -0.00037047 -0.00022304)
(0.000499133 -0.000288175 -0.00022304)
(0.000541591 -0.000197123 -0.00022304)
(0.000567593 -0.000100082 -0.00022304)
(0.00057635 -3.00475e-14 -0.00022304)
(0.00039577 6.97849e-05 -0.000214461)
(0.00037764 0.00013745 -0.000214461)
(0.000348035 0.000200938 -0.000214461)
(0.000307855 0.000258321 -0.000214461)
(0.000258321 0.000307855 -0.000214461)
(0.000200938 0.000348035 -0.000214461)
(0.00013745 0.00037764 -0.000214461)
(6.97849e-05 0.00039577 -0.000214461)
(3.59512e-14 0.000401876 -0.000214461)
(-6.97849e-05 0.00039577 -0.000214461)
(-0.00013745 0.00037764 -0.000214461)
(-0.000200938 0.000348035 -0.000214461)
(-0.000258321 0.000307855 -0.000214461)
(-0.000307855 0.000258321 -0.000214461)
(-0.000348035 0.000200938 -0.000214461)
(-0.00037764 0.00013745 -0.000214461)
(-0.00039577 6.97849e-05 -0.000214461)
(-0.000401876 4.78002e-14 -0.000214461)
(-0.00039577 -6.97849e-05 -0.000214461)
(-0.00037764 -0.00013745 -0.000214461)
(-0.000348035 -0.000200938 -0.000214461)
(-0.000307855 -0.000258321 -0.000214461)
(-0.000258321 -0.000307855 -0.000214461)
(-0.000200938 -0.000348035 -0.000214461)
(-0.00013745 -0.00037764 -0.000214461)
(-6.97849e-05 -0.00039577 -0.000214461)
(-5.13971e-14 -0.000401876 -0.000214461)
(6.97849e-05 -0.00039577 -0.000214461)
(0.00013745 -0.00037764 -0.000214461)
(0.000200938 -0.000348035 -0.000214461)
(0.000258321 -0.000307855 -0.000214461)
(0.000307855 -0.000258321 -0.000214461)
(0.000348035 -0.000200938 -0.000214461)
(0.00037764 -0.00013745 -0.000214461)
(0.00039577 -6.97849e-05 -0.000214461)
(0.000401876 -5.35864e-14 -0.000214461)
(0.000469631 8.28085e-05 -0.000242588)
(0.000448116 0.000163101 -0.000242588)
(0.000412986 0.000238438 -0.000242588)
(0.000365308 0.000306529 -0.000242588)
(0.000306529 0.000365308 -0.000242588)
(0.000238438 0.000412986 -0.000242588)
(0.000163101 0.000448116 -0.000242588)
(8.28085e-05 0.000469631 -0.000242588)
(3.11101e-14 0.000476875 -0.000242588)
(-8.28085e-05 0.000469631 -0.000242588)
(-0.000163101 0.000448116 -0.000242588)
(-0.000238438 0.000412986 -0.000242588)
(-0.000306529 0.000365308 -0.000242588)
(-0.000365308 0.000306529 -0.000242588)
(-0.000412986 0.000238438 -0.000242588)
(-0.000448116 0.000163101 -0.000242588)
(-0.000469631 8.28085e-05 -0.000242588)
(-0.000476875 4.28001e-14 -0.000242588)
(-0.000469631 -8.28085e-05 -0.000242588)
(-0.000448116 -0.000163101 -0.000242588)
(-0.000412986 -0.000238438 -0.000242588)
(-0.000365308 -0.000306529 -0.000242588)
(-0.000306529 -0.000365308 -0.000242588)
(-0.000238438 -0.000412986 -0.000242588)
(-0.000163101 -0.000448116 -0.000242588)
(-8.28085e-05 -0.000469631 -0.000242588)
(-4.73205e-14 -0.000476875 -0.000242588)
(8.28085e-05 -0.000469631 -0.000242588)
(0.000163101 -0.000448116 -0.000242588)
(0.000238438 -0.000412986 -0.000242588)
(0.000306529 -0.000365308 -0.000242588)
(0.000365308 -0.000306529 -0.000242588)
(0.000412986 -0.000238438 -0.000242588)
(0.000448116 -0.000163101 -0.000242588)
(0.000469631 -8.28085e-05 -0.000242588)
(0.000476875 -4.84265e-14 -0.000242588)
(0.000558842 9.85391e-05 -0.000271214)
(0.000533241 0.000194084 -0.000271214)
(0.000491437 0.000283732 -0.000271214)
(0.000434702 0.000364758 -0.000271214)
(0.000364758 0.000434702 -0.000271214)
(0.000283732 0.000491437 -0.000271214)
(0.000194084 0.000533241 -0.000271214)
(9.85391e-05 0.000558842 -0.000271214)
(2.6354e-14 0.000567464 -0.000271214)
(-9.85391e-05 0.000558842 -0.000271214)
(-0.000194084 0.000533241 -0.000271214)
(-0.000283732 0.000491437 -0.000271214)
(-0.000364758 0.000434702 -0.000271214)
(-0.000434702 0.000364758 -0.000271214)
(-0.000491437 0.000283732 -0.000271214)
(-0.000533241 0.000194084 -0.000271214)
(-0.000558842 9.85391e-05 -0.000271214)
(-0.000567464 3.78609e-14 -0.000271214)
(-0.000558842 -9.85391e-05 -0.000271214)
(-0.000533241 -0.000194084 -0.000271214)
(-0.000491437 -0.000283732 -0.000271214)
(-0.000434702 -0.000364758 -0.000271214)
(-0.000364758 -0.000434702 -0.000271214)
(-0.000283732 -0.000491437 -0.000271214)
(-0.000194084 -0.000533241 -0.000271214)
(-9.85391e-05 -0.000558842 -0.000271214)
(-4.32955e-14 -0.000567464 -0.000271214)
(9.85391e-05 -0.000558842 -0.000271214)
(0.000194084 -0.000533241 -0.000271214)
(0.000283732 -0.000491437 -0.000271214)
(0.000364758 -0.000434702 -0.000271214)
(0.000434702 -0.000364758 -0.000271214)
(0.000491437 -0.000283732 -0.000271214)
(0.000533241 -0.000194084 -0.000271214)
(0.000558842 -9.85391e-05 -0.000271214)
(0.000567464 -4.33227e-14 -0.000271214)
(0.00065797 0.000116018 -0.000299371)
(0.000627828 0.000228511 -0.000299371)
(0.000578609 0.00033406 -0.000299371)
(0.00051181 0.00042946 -0.000299371)
(0.00042946 0.00051181 -0.000299371)
(0.00033406 0.000578609 -0.000299371)
(0.000228511 0.000627828 -0.000299371)
(0.000116018 0.00065797 -0.000299371)
(2.16934e-14 0.000668121 -0.000299371)
(-0.000116018 0.00065797 -0.000299371)
(-0.000228511 0.000627828 -0.000299371)
(-0.00033406 0.000578609 -0.000299371)
(-0.00042946 0.00051181 -0.000299371)
(-0.00051181 0.00042946 -0.000299371)
(-0.000578609 0.00033406 -0.000299371)
(-0.000627828 0.000228511 -0.000299371)
(-0.00065797 0.000116018 -0.000299371)
(-0.000668121 3.29863e-14 -0.000299371)
(-0.00065797 -0.000116018 -0.000299371)
(-0.000627828 -0.000228511 -0.000299371)
(-0.000578609 -0.00033406 -0.000299371)
(-0.00051181 -0.00042946 -0.000299371)
(-0.00042946 -0.00051181 -0.000299371)
(-0.00033406 -0.000578609 -0.000299371)
(-0.000228511 -0.000627828 -0.000299371)
(-0.000116018 -0.00065797 -0.000299371)
(-3.93103e-14 -0.000668121 -0.000299371)
(0.000116018 -0.00065797 -0.000299371)
(0.000228511 -0.000627828 -0.000299371)
(0.00033406 -0.000578609 -0.000299371)
(0.00042946 -0.00051181 -0.000299371)
(0.00051181 -0.00042946 -0.000299371)
(0.000578609 -0.00033406 -0.000299371)
(0.000627828 -0.000228511 -0.000299371)
(0.00065797 -0.000116018 -0.000299371)
(0.000668121 -3.82882e-14 -0.000299371)
(0.0004367 7.7002e-05 -0.000284975)
(0.000416694 0.000151664 -0.000284975)
(0.000384028 0.000221718 -0.000284975)
(0.000339692 0.000285035 -0.000284975)
(0.000285035 0.000339692 -0.000284975)
(0.000221718 0.000384028 -0.000284975)
(0.000151664 0.000416694 -0.000284975)
(7.7002e-05 0.0004367 -0.000284975)
(4.24296e-14 0.000443437 -0.000284975)
(-7.7002e-05 0.0004367 -0.000284975)
(-0.000151664 0.000416694 -0.000284975)
(-0.000221718 0.000384028 -0.000284975)
(-0.000285035 0.000339692 -0.000284975)
(-0.000339692 0.000285035 -0.000284975)
(-0.000384028 0.000221718 -0.000284975)
(-0.000416694 0.000151664 -0.000284975)
(-0.0004367 7.7002e-05 -0.000284975)
(-0.000443437 5.75318e-14 -0.000284975)
(-0.0004367 -7.7002e-05 -0.000284975)
(-0.000416694 -0.000151664 -0.000284975)
(-0.000384028 -0.000221718 -0.000284975)
(-0.000339692 -0.000285035 -0.000284975)
(-0.000285035 -0.000339692 -0.000284975)
(-0.000221718 -0.000384028 -0.000284975)
(-0.000151664 -0.000416694 -0.000284975)
(-7.7002e-05 -0.0004367 -0.000284975)
(-6.26922e-14 -0.000443437 -0.000284975)
(7.7002e-05 -0.0004367 -0.000284975)
(0.000151664 -0.000416694 -0.000284975)
(0.000221718 -0.000384028 -0.000284975)
(0.000285035 -0.000339692 -0.000284975)
(0.000339692 -0.000285035 -0.000284975)
(0.000384028 -0.000221718 -0.000284975)
(0.000416694 -0.000151664 -0.000284975)
(0.0004367 -7.7002e-05 -0.000284975)
(0.000443437 -6.42811e-14 -0.000284975)
(0.000510773 9.00632e-05 -0.000311221)
(0.000487373 0.000177389 -0.000311221)
(0.000449166 0.000259326 -0.000311221)
(0.000397311 0.000333383 -0.000311221)
(0.000333383 0.000397311 -0.000311221)
(0.000259326 0.000449166 -0.000311221)
(0.000177389 0.000487373 -0.000311221)
(9.00632e-05 0.000510773 -0.000311221)
(3.65177e-14 0.000518652 -0.000311221)
(-9.00632e-05 0.000510773 -0.000311221)
(-0.000177389 0.000487373 -0.000311221)
(-0.000259326 0.000449166 -0.000311221)
(-0.000333383 0.000397311 -0.000311221)
(-0.000397311 0.000333383 -0.000311221)
(-0.000449166 0.000259326 -0.000311221)
(-0.000487373 0.000177389 -0.000311221)
(-0.000510773 9.00632e-05 -0.000311221)
(-0.000518652 5.12904e-14 -0.000311221)
(-0.000510773 -9.00632e-05 -0.000311221)
(-0.000487373 -0.000177389 -0.000311221)
(-0.000449166 -0.000259326 -0.000311221)
(-0.000397311 -0.000333383 -0.000311221)
(-0.000333383 -0.000397311 -0.000311221)
(-0.000259326 -0.000449166 -0.000311221)
(-0.000177389 -0.000487373 -0.000311221)
(-9.00632e-05 -0.000510773 -0.000311221)
(-5.75119e-14 -0.000518652 -0.000311221)
(9.00632e-05 -0.000510773 -0.000311221)
(0.000177389 -0.000487373 -0.000311221)
(0.000259326 -0.000449166 -0.000311221)
(0.000333383 -0.000397311 -0.000311221)
(0.000397311 -0.000333383 -0.000311221)
(0.000449166 -0.000259326 -0.000311221)
(0.000487373 -0.000177389 -0.000311221)
(0.000510773 -9.00632e-05 -0.000311221)
(0.000518652 -5.78617e-14 -0.000311221)
(0.000600555 0.000105894 -0.000338785)
(0.000573043 0.00020857 -0.000338785)
(0.000528119 0.00030491 -0.000338785)
(0.000467149 0.000391984 -0.000338786)
(0.000391984 0.000467149 -0.000338786)
(0.00030491 0.000528119 -0.000338785)
(0.00020857 0.000573043 -0.000338785)
(0.000105894 0.000600555 -0.000338785)
(3.0726e-14 0.000609819 -0.000338785)
(-0.000105894 0.000600555 -0.000338785)
(-0.00020857 0.000573043 -0.000338785)
(-0.00030491 0.000528119 -0.000338785)
(-0.000391984 0.000467149 -0.000338786)
(-0.000467149 0.000391984 -0.000338786)
(-0.000528119 0.00030491 -0.000338785)
(-0.000573043 0.00020857 -0.000338785)
(-0.000600555 0.000105894 -0.000338785)
(-0.000609819 4.51401e-14 -0.000338785)
(-0.000600555 -0.000105894 -0.000338785)
(-0.000573043 -0.00020857 -0.000338785)
(-0.000528119 -0.00030491 -0.000338785)
(-0.000467149 -0.000391984 -0.000338786)
(-0.000391984 -0.000467149 -0.000338786)
(-0.00030491 -0.000528119 -0.000338785)
(-0.00020857 -0.000573043 -0.000338785)
(-0.000105894 -0.000600555 -0.000338785)
(-5.24145e-14 -0.000609819 -0.000338785)
(0.000105894 -0.000600555 -0.000338785)
(0.00020857 -0.000573043 -0.000338785)
(0.00030491 -0.000528119 -0.000338785)
(0.000391984 -0.000467149 -0.000338786)
(0.000467149 -0.000391984 -0.000338786)
(0.000528119 -0.00030491 -0.000338785)
(0.000573043 -0.00020857 -0.000338785)
(0.000600555 -0.000105894 -0.000338785)
(0.000609819 -5.1533e-14 -0.000338785)
(0.000700783 0.000123567 -0.000366892)
(0.000668679 0.00024338 -0.000366892)
(0.000616258 0.000355797 -0.000366893)
(0.000545112 0.000457403 -0.000366893)
(0.000457403 0.000545112 -0.000366893)
(0.000355797 0.000616258 -0.000366893)
(0.00024338 0.000668679 -0.000366892)
(0.000123567 0.000700783 -0.000366892)
(2.50518e-14 0.000711594 -0.000366892)
(-0.000123567 0.000700783 -0.000366892)
(-0.00024338 0.000668679 -0.000366892)
(-0.000355797 0.000616258 -0.000366893)
(-0.000457403 0.000545112 -0.000366893)
(-0.000545112 0.000457403 -0.000366893)
(-0.000616258 0.000355797 -0.000366893)
(-0.000668679 0.00024338 -0.000366892)
(-0.000700783 0.000123567 -0.000366892)
(-0.000711594 3.90771e-14 -0.000366892)
(-0.000700783 -0.000123567 -0.000366892)
(-0.000668679 -0.00024338 -0.000366892)
(-0.000616258 -0.000355797 -0.000366893)
(-0.000545112 -0.000457403 -0.000366893)
(-0.000457403 -0.000545112 -0.000366893)