/*--------------------------------*- C++ -*----------------------------------*\
| =========                 |                                                 |
| \\      /  F ield         | OpenFOAM: The Open Source CFD Toolbox           |
|  \\    /   O peration     | Version:  2312                                  |
|   \\  /    A nd           | Website:  www.openfoam.com                      |
|    \\/     M anipulation  |                                                 |
\*---------------------------------------------------------------------------*/
FoamFile
{
    version     2.0;
    format      ascii;
    arch        "LSB;label=32;scalar=64";
    class       volSymmTensorField;
    location    "0.2";
    object      sigma;
}
// * * * * * * * * * * * * * * * * * * * * * * * * * * * * * * * * * * * * * //

dimensions      [1 -1 -2 0 0 0 0];

internalField   nonuniform List<symmTensor> 
1620
(
(743.71 -22.448 -327.19 998.329 -28.6255 1190.69)
(759.059 -64.6365 -317.248 982.967 -85.0066 1190.68)
(787.938 -99.0291 -297.667 954.128 -138.805 1190.7)
(826.803 -121.478 -269.042 915.231 -188.385 1190.69)
(870.993 -129.274 -232.242 870.993 -232.242 1190.66)
(915.231 -121.478 -188.385 826.803 -269.042 1190.69)
(954.128 -99.0291 -138.805 787.938 -297.667 1190.7)
(982.967 -64.6365 -85.0066 759.059 -317.248 1190.68)
(998.329 -22.448 -28.6255 743.71 -327.19 1190.69)
(998.329 22.448 28.6255 743.71 -327.19 1190.69)
(982.967 64.6365 85.0066 759.059 -317.248 1190.68)
(954.128 99.0291 138.805 787.938 -297.667 1190.7)
(915.231 121.478 188.385 826.803 -269.042 1190.69)
(870.993 129.274 232.242 870.993 -232.242 1190.66)
(826.803 121.478 269.042 915.231 -188.385 1190.69)
(787.938 99.0291 297.667 954.128 -138.805 1190.7)
(759.059 64.6365 317.248 982.967 -85.0066 1190.68)
(743.71 22.448 327.19 998.329 -28.6255 1190.69)
(743.71 -22.448 327.19 998.329 28.6255 1190.69)
(759.059 -64.6365 317.248 982.967 85.0066 1190.68)
(787.938 -99.0291 297.667 954.128 138.805 1190.7)
(826.803 -121.478 269.042 915.231 188.385 1190.69)
(870.993 -129.274 232.242 870.993 232.242 1190.66)
(915.231 -121.478 188.385 826.803 269.042 1190.69)
(954.128 -99.0291 138.805 787.938 297.667 1190.7)
(982.967 -64.6365 85.0066 759.059 317.248 1190.68)
(998.329 -22.448 28.6255 743.71 327.19 1190.69)
(998.329 22.448 -28.6255 743.71 327.19 1190.69)
(982.967 64.6365 -85.0066 759.059 317.248 1190.68)
(954.128 99.0291 -138.805 787.938 297.667 1190.7)
(915.231 121.478 -188.385 826.803 269.042 1190.69)
(870.993 129.274 -232.242 870.993 232.242 1190.66)
(826.803 121.478 -269.042 915.231 188.385 1190.69)
(787.938 99.0291 -297.667 954.128 138.805 1190.7)
(759.059 64.6365 -317.248 982.967 85.0066 1190.68)
(743.71 22.448 -327.19 998.329 28.6255 1190.69)
(3701.45 -29.8111 -404.391 4039.59 -35.3797 4281.11)
(3721.81 -85.8379 -392.104 4019.16 -105.064 4281.07)
(3760.12 -131.512 -367.902 3980.82 -171.556 4281.06)
(3811.77 -161.323 -332.523 3929.2 -232.834 4281.07)
(3870.49 -171.676 -287.039 3870.49 -287.039 4281.07)
(3929.2 -161.323 -232.834 3811.77 -332.523 4281.07)
(3980.82 -131.512 -171.556 3760.12 -367.902 4281.06)
(4019.16 -85.8379 -105.064 3721.81 -392.104 4281.07)
(4039.59 -29.8111 -35.3797 3701.45 -404.391 4281.11)
(4039.59 29.8111 35.3797 3701.45 -404.391 4281.11)
(4019.16 85.8379 105.064 3721.81 -392.104 4281.07)
(3980.82 131.512 171.556 3760.12 -367.902 4281.06)
(3929.2 161.323 232.834 3811.77 -332.523 4281.07)
(3870.49 171.676 287.039 3870.49 -287.039 4281.07)
(3811.77 161.323 332.523 3929.2 -232.834 4281.07)
(3760.12 131.512 367.902 3980.82 -171.556 4281.06)
(3721.81 85.8379 392.104 4019.16 -105.064 4281.07)
(3701.45 29.8111 404.391 4039.59 -35.3797 4281.11)
(3701.45 -29.8111 404.391 4039.59 35.3797 4281.11)
(3721.81 -85.8379 392.104 4019.16 105.064 4281.07)
(3760.12 -131.512 367.902 3980.82 171.556 4281.06)
(3811.77 -161.323 332.523 3929.2 232.834 4281.07)
(3870.49 -171.676 287.039 3870.49 287.039 4281.07)
(3929.2 -161.323 232.834 3811.77 332.523 4281.07)
(3980.82 -131.512 171.556 3760.12 367.902 4281.06)
(4019.16 -85.8379 105.064 3721.81 392.104 4281.07)
(4039.59 -29.8111 35.3797 3701.45 404.391 4281.11)
(4039.59 29.8111 -35.3797 3701.45 404.391 4281.11)
(4019.16 85.8379 -105.064 3721.81 392.104 4281.07)
(3980.82 131.512 -171.556 3760.12 367.902 4281.06)
(3929.2 161.323 -232.834 3811.77 332.523 4281.07)
(3870.49 171.676 -287.039 3870.49 287.039 4281.07)
(3811.77 161.323 -332.523 3929.2 232.834 4281.07)
(3760.12 131.512 -367.902 3980.82 171.556 4281.06)
(3721.81 85.8379 -392.104 4019.16 105.064 4281.07)
(3701.45 29.8111 -404.391 4039.59 35.3797 4281.11)
(9623.61 -39.4019 -503.074 10070.5 -44.0134 10339.2)
(9650.56 -113.454 -487.788 10043.6 -130.702 10339.2)
(9701.21 -173.822 -457.682 9992.91 -213.42 10339.2)
(9769.44 -213.224 -413.668 9924.65 -289.653 10339.2)
(9847.07 -226.908 -357.086 9847.07 -357.086 10339.2)
(9924.65 -213.224 -289.653 9769.44 -413.668 10339.2)
(9992.91 -173.822 -213.42 9701.21 -457.682 10339.2)
(10043.6 -113.454 -130.702 9650.56 -487.788 10339.2)
(10070.5 -39.4019 -44.0134 9623.61 -503.074 10339.2)
(10070.5 39.4019 44.0134 9623.61 -503.074 10339.2)
(10043.6 113.454 130.702 9650.56 -487.788 10339.2)
(9992.91 173.822 213.42 9701.21 -457.682 10339.2)
(9924.65 213.224 289.653 9769.44 -413.668 10339.2)
(9847.07 226.908 357.086 9847.07 -357.086 10339.2)
(9769.44 213.224 413.668 9924.65 -289.653 10339.2)
(9701.21 173.822 457.682 9992.91 -213.42 10339.2)
(9650.56 113.454 487.788 10043.6 -130.702 10339.2)
(9623.61 39.4019 503.074 10070.5 -44.0134 10339.2)
(9623.61 -39.4019 503.074 10070.5 44.0134 10339.2)
(9650.56 -113.454 487.788 10043.6 130.702 10339.2)
(9701.21 -173.822 457.682 9992.91 213.42 10339.2)
(9769.44 -213.224 413.668 9924.65 289.653 10339.2)
(9847.07 -226.908 357.086 9847.07 357.086 10339.2)
(9924.65 -213.224 289.653 9769.44 413.668 10339.2)
(9992.91 -173.822 213.42 9701.21 457.682 10339.2)
(10043.6 -113.454 130.702 9650.56 487.788 10339.2)
(10070.5 -39.4019 44.0134 9623.61 503.074 10339.2)
(10070.5 39.4019 -44.0134 9623.61 503.074 10339.2)
(10043.6 113.454 -130.702 9650.56 487.788 10339.2)
(9992.91 173.822 -213.42 9701.21 457.682 10339.2)
(9924.65 213.224 -289.653 9769.44 413.668 10339.2)
(9847.07 226.908 -357.086 9847.07 357.086 10339.2)
(9769.44 213.224 -413.668 9924.65 289.653 10339.2)
(9701.21 173.822 -457.682 9992.91 213.42 10339.2)
(9650.56 113.454 -487.788 10043.6 130.702 10339.2)
(9623.61 39.4019 -503.074 10070.5 44.0134 10339.2)
(-3424.94 -53.5115 -243.785 -2817.99 -21.3285 -2707.88)
(-3388.35 -154.08 -236.378 -2854.6 -63.3374 -2707.89)
(-3319.54 -236.064 -221.788 -2923.37 -103.422 -2707.87)
(-3226.9 -289.576 -200.46 -3016.11 -140.364 -2707.92)
(-3121.52 -308.16 -173.041 -3121.52 -173.041 -2707.93)
(-3016.11 -289.576 -140.364 -3226.9 -200.46 -2707.92)
(-2923.37 -236.064 -103.422 -3319.54 -221.788 -2707.87)
(-2854.6 -154.08 -63.3374 -3388.35 -236.378 -2707.89)
(-2817.99 -53.5115 -21.3285 -3424.94 -243.785 -2707.88)
(-2817.99 53.5115 21.3285 -3424.94 -243.785 -2707.88)
(-2854.6 154.08 63.3374 -3388.35 -236.378 -2707.89)
(-2923.37 236.064 103.422 -3319.54 -221.788 -2707.87)
(-3016.11 289.576 140.364 -3226.9 -200.46 -2707.92)
(-3121.52 308.16 173.041 -3121.52 -173.041 -2707.93)
(-3226.9 289.576 200.46 -3016.11 -140.364 -2707.92)
(-3319.54 236.064 221.788 -2923.37 -103.422 -2707.87)
(-3388.35 154.08 236.378 -2854.6 -63.3374 -2707.89)
(-3424.94 53.5115 243.785 -2817.99 -21.3285 -2707.88)
(-3424.94 -53.5115 243.785 -2817.99 21.3285 -2707.88)
(-3388.35 -154.08 236.378 -2854.6 63.3374 -2707.89)
(-3319.54 -236.064 221.788 -2923.37 103.422 -2707.87)
(-3226.9 -289.576 200.46 -3016.11 140.364 -2707.92)
(-3121.52 -308.16 173.041 -3121.52 173.041 -2707.93)
(-3016.11 -289.576 140.364 -3226.9 200.46 -2707.92)
(-2923.37 -236.064 103.422 -3319.54 221.788 -2707.87)
(-2854.6 -154.08 63.3374 -3388.35 236.378 -2707.89)
(-2817.99 -53.5115 21.3285 -3424.94 243.785 -2707.88)
(-2817.99 53.5115 -21.3285 -3424.94 243.785 -2707.88)
(-2854.6 154.08 -63.3374 -3388.35 236.378 -2707.89)
(-2923.37 236.064 -103.422 -3319.54 221.788 -2707.87)
(-3016.11 289.576 -140.364 -3226.9 200.46 -2707.92)
(-3121.52 308.16 -173.041 -3121.52 173.041 -2707.93)
(-3226.9 289.576 -200.46 -3016.11 140.364 -2707.92)
(-3319.54 236.064 -221.788 -2923.37 103.422 -2707.87)
(-3388.35 154.08 -236.378 -2854.6 63.3374 -2707.89)
(-3424.94 53.5115 -243.785 -2817.99 21.3285 -2707.88)
(-896.761 -67.4484 -306.9 -131.724 -26.8503 -44.3547)
(-850.615 -194.209 -297.576 -177.853 -79.7352 -44.3472)
(-763.901 -297.547 -279.209 -264.559 -130.197 -44.3429)
(-647.038 -364.995 -252.358 -381.343 -176.703 -44.3033)
(-514.211 -388.42 -217.84 -514.211 -217.84 -44.3233)
(-381.343 -364.995 -176.703 -647.038 -252.358 -44.3033)
(-264.559 -297.547 -130.197 -763.901 -279.209 -44.3429)
(-177.853 -194.209 -79.7352 -850.615 -297.576 -44.3472)
(-131.724 -67.4484 -26.8503 -896.761 -306.9 -44.3547)
(-131.724 67.4484 26.8503 -896.761 -306.9 -44.3547)
(-177.853 194.209 79.7352 -850.615 -297.576 -44.3472)
(-264.559 297.547 130.197 -763.901 -279.209 -44.3429)
(-381.343 364.995 176.703 -647.038 -252.358 -44.3033)
(-514.211 388.42 217.84 -514.211 -217.84 -44.3233)
(-647.038 364.995 252.358 -381.343 -176.703 -44.3033)
(-763.901 297.547 279.209 -264.559 -130.197 -44.3429)
(-850.615 194.209 297.576 -177.853 -79.7352 -44.3472)
(-896.761 67.4484 306.9 -131.724 -26.8503 -44.3547)
(-896.761 -67.4484 306.9 -131.724 26.8503 -44.3547)
(-850.615 -194.209 297.576 -177.853 79.7352 -44.3472)
(-763.901 -297.547 279.209 -264.559 130.197 -44.3429)
(-647.038 -364.995 252.358 -381.343 176.703 -44.3033)
(-514.211 -388.42 217.84 -514.211 217.84 -44.3233)
(-381.343 -364.995 176.703 -647.038 252.358 -44.3033)
(-264.559 -297.547 130.197 -763.901 279.209 -44.3429)
(-177.853 -194.209 79.7352 -850.615 297.576 -44.3472)
(-131.724 -67.4484 26.8503 -896.761 306.9 -44.3547)
(-131.724 67.4484 -26.8503 -896.761 306.9 -44.3547)
(-177.853 194.209 -79.7352 -850.615 297.576 -44.3472)
(-264.559 297.547 -130.197 -763.901 279.209 -44.3429)
(-381.343 364.995 -176.703 -647.038 252.358 -44.3033)
(-514.211 388.42 -217.84 -514.211 217.84 -44.3233)
(-647.038 364.995 -252.358 -381.343 176.703 -44.3033)
(-763.901 297.547 -279.209 -264.559 130.197 -44.3429)
(-850.615 194.209 -297.576 -177.853 79.7352 -44.3472)
(-896.761 67.4484 -306.9 -131.724 26.8503 -44.3547)
(6770.16 -86.5468 -384.383 7751.82 -33.6291 7762.05)
(6829.33 -249.201 -372.704 7692.59 -99.8655 7762.02)
(6940.61 -381.798 -349.7 7581.35 -163.067 7762.05)
(7090.46 -468.346 -316.071 7431.39 -221.315 7761.99)
(7260.97 -498.404 -272.838 7260.97 -272.838 7762.03)
(7431.39 -468.346 -221.315 7090.46 -316.071 7761.99)
(7581.35 -381.798 -163.067 6940.61 -349.7 7762.05)
(7692.59 -249.201 -99.8655 6829.33 -372.704 7762.02)
(7751.82 -86.5468 -33.6291 6770.16 -384.383 7762.05)
(7751.82 86.5468 33.6291 6770.16 -384.383 7762.05)
(7692.59 249.201 99.8655 6829.33 -372.704 7762.02)
(7581.35 381.798 163.067 6940.61 -349.7 7762.05)
(7431.39 468.346 221.315 7090.46 -316.071 7761.99)
(7260.97 498.404 272.838 7260.97 -272.838 7762.03)
(7090.46 468.346 316.071 7431.39 -221.315 7761.99)
(6940.61 381.798 349.7 7581.35 -163.067 7762.05)
(6829.33 249.201 372.704 7692.59 -99.8655 7762.02)
(6770.16 86.5468 384.383 7751.82 -33.6291 7762.05)
(6770.16 -86.5468 384.383 7751.82 33.6291 7762.05)
(6829.33 -249.201 372.704 7692.59 99.8655 7762.02)
(6940.61 -381.798 349.7 7581.35 163.067 7762.05)
(7090.46 -468.346 316.071 7431.39 221.315 7761.99)
(7260.97 -498.404 272.838 7260.97 272.838 7762.03)
(7431.39 -468.346 221.315 7090.46 316.071 7761.99)
(7581.35 -381.798 163.067 6940.61 349.7 7762.05)
(7692.59 -249.201 99.8655 6829.33 372.704 7762.02)
(7751.82 -86.5468 33.6291 6770.16 384.383 7762.05)
(7751.82 86.5468 -33.6291 6770.16 384.383 7762.05)
(7692.59 249.201 -99.8655 6829.33 372.704 7762.02)
(7581.35 381.798 -163.067 6940.61 349.7 7762.05)
(7431.39 468.346 -221.315 7090.46 316.071 7761.99)
(7260.97 498.404 -272.838 7260.97 272.838 7762.03)
(7090.46 468.346 -316.071 7431.39 221.315 7761.99)
(6940.61 381.798 -349.7 7581.35 163.067 7762.05)
(6829.33 249.201 -372.704 7692.59 99.8655 7762.02)
(6770.16 86.5468 -384.383 7751.82 33.6291 7762.05)
(-3258.48 -78.738 -151.082 -2365.39 -13.2182 -2315.12)
(-3204.62 -226.717 -146.492 -2419.25 -39.2526 -2315.12)
(-3103.37 -347.35 -137.45 -2520.44 -64.0943 -2315.1)
(-2967 -426.088 -124.232 -2656.84 -86.9886 -2315.11)
(-2811.9 -453.434 -107.24 -2811.9 -107.24 -2315.1)
(-2656.84 -426.088 -86.9886 -2967 -124.232 -2315.11)
(-2520.44 -347.35 -64.0943 -3103.37 -137.45 -2315.1)
(-2419.25 -226.717 -39.2526 -3204.62 -146.492 -2315.12)
(-2365.39 -78.738 -13.2182 -3258.48 -151.082 -2315.12)
(-2365.39 78.738 13.2182 -3258.48 -151.082 -2315.12)
(-2419.25 226.717 39.2526 -3204.62 -146.492 -2315.12)
(-2520.44 347.35 64.0943 -3103.37 -137.45 -2315.1)
(-2656.84 426.088 86.9886 -2967 -124.232 -2315.11)
(-2811.9 453.434 107.24 -2811.9 -107.24 -2315.1)
(-2967 426.088 124.232 -2656.84 -86.9886 -2315.11)
(-3103.37 347.35 137.45 -2520.44 -64.0943 -2315.1)
(-3204.62 226.717 146.492 -2419.25 -39.2526 -2315.12)
(-3258.48 78.738 151.082 -2365.39 -13.2182 -2315.12)
(-3258.48 -78.738 151.082 -2365.39 13.2182 -2315.12)
(-3204.62 -226.717 146.492 -2419.25 39.2526 -2315.12)
(-3103.37 -347.35 137.45 -2520.44 64.0943 -2315.1)
(-2967 -426.088 124.232 -2656.84 86.9886 -2315.11)
(-2811.9 -453.434 107.24 -2811.9 107.24 -2315.1)
(-2656.84 -426.088 86.9886 -2967 124.232 -2315.11)
(-2520.44 -347.35 64.0943 -3103.37 137.45 -2315.1)
(-2419.25 -226.717 39.2526 -3204.62 146.492 -2315.12)
(-2365.39 -78.738 13.2182 -3258.48 151.082 -2315.12)
(-2365.39 78.738 -13.2182 -3258.48 151.082 -2315.12)
(-2419.25 226.717 -39.2526 -3204.62 146.492 -2315.12)
(-2520.44 347.35 -64.0943 -3103.37 137.45 -2315.1)
(-2656.84 426.088 -86.9886 -2967 124.232 -2315.11)
(-2811.9 453.434 -107.24 -2811.9 107.24 -2315.1)
(-2967 426.088 -124.232 -2656.84 86.9886 -2315.11)
(-3103.37 347.35 -137.45 -2520.44 64.0943 -2315.1)
(-3204.62 226.717 -146.492 -2419.25 39.2526 -2315.12)
(-3258.48 78.738 -151.082 -2365.39 13.2182 -2315.12)
(-1155.54 -97.5601 -189.529 -48.9584 -16.5817 -102.865)
(-1088.79 -280.912 -183.771 -115.678 -49.2414 -102.85)
(-963.373 -430.383 -172.428 -241.106 -80.4048 -102.857)
(-794.388 -527.943 -155.847 -410.077 -109.125 -102.85)
(-602.288 -561.825 -134.53 -602.288 -134.53 -102.906)
(-410.077 -527.943 -109.125 -794.388 -155.847 -102.85)
(-241.106 -430.383 -80.4048 -963.373 -172.428 -102.857)
(-115.678 -280.912 -49.2414 -1088.79 -183.771 -102.85)
(-48.9584 -97.5601 -16.5817 -1155.54 -189.529 -102.865)
(-48.9584 97.5601 16.5817 -1155.54 -189.529 -102.865)
(-115.678 280.912 49.2414 -1088.79 -183.771 -102.85)
(-241.106 430.383 80.4048 -963.373 -172.428 -102.857)
(-410.077 527.943 109.125 -794.388 -155.847 -102.85)
(-602.288 561.825 134.53 -602.288 -134.53 -102.906)
(-794.388 527.943 155.847 -410.077 -109.125 -102.85)
(-963.373 430.383 172.428 -241.106 -80.4048 -102.857)
(-1088.79 280.912 183.771 -115.678 -49.2414 -102.85)
(-1155.54 97.5601 189.529 -48.9584 -16.5817 -102.865)
(-1155.54 -97.5601 189.529 -48.9584 16.5817 -102.865)
(-1088.79 -280.912 183.771 -115.678 49.2414 -102.85)
(-963.373 -430.383 172.428 -241.106 80.4048 -102.857)
(-794.388 -527.943 155.847 -410.077 109.125 -102.85)
(-602.288 -561.825 134.53 -602.288 134.53 -102.906)
(-410.077 -527.943 109.125 -794.388 155.847 -102.85)
(-241.106 -430.383 80.4048 -963.373 172.428 -102.857)
(-115.678 -280.912 49.2414 -1088.79 183.771 -102.85)
(-48.9584 -97.5601 16.5817 -1155.54 189.529 -102.865)
(-48.9584 97.5601 -16.5817 -1155.54 189.529 -102.865)
(-115.678 280.912 -49.2414 -1088.79 183.771 -102.85)
(-241.106 430.383 -80.4048 -963.373 172.428 -102.857)
(-410.077 527.943 -109.125 -794.388 155.847 -102.85)
(-602.288 561.825 -134.53 -602.288 134.53 -102.906)
(-794.388 527.943 -155.847 -410.077 109.125 -102.85)
(-963.373 430.383 -172.428 -241.106 80.4048 -102.857)
(-1088.79 280.912 -183.771 -115.678 49.2414 -102.85)
(-1155.54 97.5601 -189.529 -48.9584 16.5817 -102.865)
(7471.65 -124.153 -235.259 8879.86 -20.5825 8641.11)
(7556.58 -357.484 -228.111 8794.95 -61.1224 8641.12)
(7716.21 -547.698 -214.032 8635.36 -99.8051 8641.15)
(7931.24 -671.852 -193.449 8420.31 -135.455 8641.13)
(8175.8 -714.97 -166.989 8175.8 -166.989 8641.16)
(8420.31 -671.852 -135.455 7931.24 -193.449 8641.13)
(8635.36 -547.698 -99.8051 7716.21 -214.032 8641.15)
(8794.95 -357.484 -61.1224 7556.58 -228.111 8641.12)
(8879.86 -124.153 -20.5825 7471.65 -235.259 8641.11)
(8879.86 124.153 20.5825 7471.65 -235.259 8641.11)
(8794.95 357.484 61.1224 7556.58 -228.111 8641.12)
(8635.36 547.698 99.8051 7716.21 -214.032 8641.15)
(8420.31 671.852 135.455 7931.24 -193.449 8641.13)
(8175.8 714.97 166.989 8175.8 -166.989 8641.16)
(7931.24 671.852 193.449 8420.31 -135.455 8641.13)
(7716.21 547.698 214.032 8635.36 -99.8051 8641.15)
(7556.58 357.484 228.111 8794.95 -61.1224 8641.12)
(7471.65 124.153 235.259 8879.86 -20.5825 8641.11)
(7471.65 -124.153 235.259 8879.86 20.5825 8641.11)
(7556.58 -357.484 228.111 8794.95 61.1224 8641.12)
(7716.21 -547.698 214.032 8635.36 99.8051 8641.15)
(7931.24 -671.852 193.449 8420.31 135.455 8641.13)
(8175.8 -714.97 166.989 8175.8 166.989 8641.16)
(8420.31 -671.852 135.455 7931.24 193.449 8641.13)
(8635.36 -547.698 99.8051 7716.21 214.032 8641.15)
(8794.95 -357.484 61.1224 7556.58 228.111 8641.12)
(8879.86 -124.153 20.5825 7471.65 235.259 8641.11)
(8879.86 124.153 -20.5825 7471.65 235.259 8641.11)
(8794.95 357.484 -61.1224 7556.58 228.111 8641.12)
(8635.36 547.698 -99.8051 7716.21 214.032 8641.15)
(8420.31 671.852 -135.455 7931.24 193.449 8641.13)
(8175.8 714.97 -166.989 8175.8 166.989 8641.16)
(7931.24 671.852 -193.449 8420.31 135.455 8641.13)
(7716.21 547.698 -214.032 8635.36 99.8051 8641.15)
(7556.58 357.484 -228.111 8794.95 61.1224 8641.12)
(7471.65 124.153 -235.259 8879.86 20.5825 8641.11)
(-3176.65 -95.9263 -45.4094 -2088.6 -3.97295 -2148.54)
(-3110.99 -276.209 -44.0297 -2154.18 -11.7979 -2148.5)
(-2987.69 -423.177 -41.3123 -2277.52 -19.2643 -2148.52)
(-2821.57 -519.103 -37.3394 -2443.69 -26.1454 -2148.55)
(-2632.61 -552.418 -32.232 -2632.61 -32.232 -2148.52)
(-2443.69 -519.103 -26.1454 -2821.57 -37.3394 -2148.55)
(-2277.52 -423.177 -19.2643 -2987.69 -41.3123 -2148.52)
(-2154.18 -276.209 -11.7979 -3110.99 -44.0297 -2148.5)
(-2088.6 -95.9263 -3.97295 -3176.65 -45.4094 -2148.54)
(-2088.6 95.9263 3.97295 -3176.65 -45.4094 -2148.54)
(-2154.18 276.209 11.7979 -3110.99 -44.0297 -2148.5)
(-2277.52 423.177 19.2643 -2987.69 -41.3123 -2148.52)
(-2443.69 519.103 26.1454 -2821.57 -37.3394 -2148.55)
(-2632.61 552.418 32.232 -2632.61 -32.232 -2148.52)
(-2821.57 519.103 37.3394 -2443.69 -26.1454 -2148.55)
(-2987.69 423.177 41.3123 -2277.52 -19.2643 -2148.52)
(-3110.99 276.209 44.0297 -2154.18 -11.7979 -2148.5)
(-3176.65 95.9263 45.4094 -2088.6 -3.97295 -2148.54)
(-3176.65 -95.9263 45.4094 -2088.6 3.97295 -2148.54)
(-3110.99 -276.209 44.0297 -2154.18 11.7979 -2148.5)
(-2987.69 -423.177 41.3123 -2277.52 19.2643 -2148.52)
(-2821.57 -519.103 37.3394 -2443.69 26.1454 -2148.55)
(-2632.61 -552.418 32.232 -2632.61 32.232 -2148.52)
(-2443.69 -519.103 26.1454 -2821.57 37.3394 -2148.55)
(-2277.52 -423.177 19.2643 -2987.69 41.3123 -2148.52)
(-2154.18 -276.209 11.7979 -3110.99 44.0297 -2148.5)
(-2088.6 -95.9263 3.97295 -3176.65 45.4094 -2148.54)
(-2088.6 95.9263 -3.97295 -3176.65 45.4094 -2148.54)
(-2154.18 276.209 -11.7979 -3110.99 44.0297 -2148.5)
(-2277.52 423.177 -19.2643 -2987.69 41.3123 -2148.52)
(-2443.69 519.103 -26.1454 -2821.57 37.3394 -2148.55)
(-2632.61 552.418 -32.232 -2632.61 32.232 -2148.52)
(-2821.57 519.103 -37.3394 -2443.69 26.1454 -2148.55)
(-2987.69 423.177 -41.3123 -2277.52 19.2643 -2148.52)
(-3110.99 276.209 -44.0297 -2154.18 11.7979 -2148.5)
(-3176.65 95.9263 -45.4094 -2088.6 3.97295 -2148.54)
(-1311.74 -118.288 -60.9782 29.955 -5.33506 -193.237)
(-1230.82 -340.598 -59.1259 -50.9523 -15.8429 -193.23)
(-1078.75 -521.827 -55.4765 -203.024 -25.8693 -193.233)
(-873.883 -640.115 -50.1418 -407.918 -35.1099 -193.246)
(-640.86 -681.196 -43.2834 -640.86 -43.2834 -193.206)
(-407.918 -640.115 -35.1099 -873.883 -50.1418 -193.246)
(-203.024 -521.827 -25.8693 -1078.75 -55.4765 -193.233)
(-50.9523 -340.598 -15.8429 -1230.82 -59.1259 -193.23)
(29.955 -118.288 -5.33506 -1311.74 -60.9782 -193.237)
(29.955 118.288 5.33506 -1311.74 -60.9782 -193.237)
(-50.9523 340.598 15.8429 -1230.82 -59.1259 -193.23)
(-203.024 521.827 25.8693 -1078.75 -55.4765 -193.233)
(-407.918 640.115 35.1099 -873.883 -50.1418 -193.246)
(-640.86 681.196 43.2834 -640.86 -43.2834 -193.206)
(-873.883 640.115 50.1418 -407.918 -35.1099 -193.246)
(-1078.75 521.827 55.4765 -203.024 -25.8693 -193.233)
(-1230.82 340.598 59.1259 -50.9523 -15.8429 -193.23)
(-1311.74 118.288 60.9782 29.955 -5.33506 -193.237)
(-1311.74 -118.288 60.9782 29.955 5.33506 -193.237)
(-1230.82 -340.598 59.1259 -50.9523 15.8429 -193.23)
(-1078.75 -521.827 55.4765 -203.024 25.8693 -193.233)
(-873.883 -640.115 50.1418 -407.918 35.1099 -193.246)
(-640.86 -681.196 43.2834 -640.86 43.2834 -193.206)
(-407.918 -640.115 35.1099 -873.883 50.1418 -193.246)
(-203.024 -521.827 25.8693 -1078.75 55.4765 -193.233)
(-50.9523 -340.598 15.8429 -1230.82 59.1259 -193.23)
(29.955 -118.288 5.33506 -1311.74 60.9782 -193.237)
(29.955 118.288 -5.33506 -1311.74 60.9782 -193.237)
(-50.9523 340.598 -15.8429 -1230.82 59.1259 -193.23)
(-203.024 521.827 -25.8693 -1078.75 55.4765 -193.233)
(-407.918 640.115 -35.1099 -873.883 50.1418 -193.246)
(-640.86 681.196 -43.2834 -640.86 43.2834 -193.206)
(-873.883 640.115 -50.1418 -407.918 35.1099 -193.246)
(-1078.75 521.827 -55.4765 -203.024 25.8693 -193.233)
(-1230.82 340.598 -59.1259 -50.9523 15.8429 -193.23)
(-1311.74 118.288 -60.9782 29.955 5.33506 -193.237)
(7977.43 -150.465 -82.0735 9684.09 -7.18067 9196.61)
(8080.42 -433.247 -79.5799 9581.23 -21.3236 9196.67)
(8273.82 -663.773 -74.6681 9387.76 -34.8185 9196.64)
(8534.4 -814.238 -67.4879 9127.11 -47.2556 9196.6)
(8830.82 -866.494 -58.2571 8830.82 -58.2571 9196.67)
(9127.11 -814.238 -47.2556 8534.4 -67.4879 9196.6)
(9387.76 -663.773 -34.8185 8273.82 -74.6681 9196.64)
(9581.23 -433.247 -21.3236 8080.42 -79.5799 9196.67)
(9684.09 -150.465 -7.18067 7977.43 -82.0735 9196.61)
(9684.09 150.465 7.18067 7977.43 -82.0735 9196.61)
(9581.23 433.247 21.3236 8080.42 -79.5799 9196.67)
(9387.76 663.773 34.8185 8273.82 -74.6681 9196.64)
(9127.11 814.238 47.2556 8534.4 -67.4879 9196.6)
(8830.82 866.494 58.2571 8830.82 -58.2571 9196.67)
(8534.4 814.238 67.4879 9127.11 -47.2556 9196.6)
(8273.82 663.773 74.6681 9387.76 -34.8185 9196.64)
(8080.42 433.247 79.5799 9581.23 -21.3236 9196.67)
(7977.43 150.465 82.0735 9684.09 -7.18067 9196.61)
(7977.43 -150.465 82.0735 9684.09 7.18067 9196.61)
(8080.42 -433.247 79.5799 9581.23 21.3236 9196.67)
(8273.82 -663.773 74.6681 9387.76 34.8185 9196.64)
(8534.4 -814.238 67.4879 9127.11 47.2556 9196.6)
(8830.82 -866.494 58.2571 8830.82 58.2571 9196.67)
(9127.11 -814.238 47.2556 8534.4 67.4879 9196.6)
(9387.76 -663.773 34.8185 8273.82 74.6681 9196.64)
(9581.23 -433.247 21.3236 8080.42 79.5799 9196.67)
(9684.09 -150.465 7.18067 7977.43 82.0735 9196.61)
(9684.09 150.465 -7.18067 7977.43 82.0735 9196.61)
(9581.23 433.247 -21.3236 8080.42 79.5799 9196.67)
(9387.76 663.773 -34.8185 8273.82 74.6681 9196.64)
(9127.11 814.238 -47.2556 8534.4 67.4879 9196.6)
(8830.82 866.494 -58.2571 8830.82 58.2571 9196.67)
(8534.4 814.238 -67.4879 9127.11 47.2556 9196.6)
(8273.82 663.773 -74.6681 9387.76 34.8185 9196.64)
(8080.42 433.247 -79.5799 9581.23 21.3236 9196.67)
(7977.43 150.465 -82.0735 9684.09 7.18067 9196.61)
(-3124.77 -105.354 64.3162 -1929.79 5.6268 -2116.46)
(-3052.68 -303.355 62.3616 -2001.83 16.7093 -2116.44)
(-2917.27 -464.767 58.5126 -2137.29 27.2845 -2116.46)
(-2734.77 -570.122 52.8855 -2319.76 37.0305 -2116.45)
(-2527.29 -606.711 45.6515 -2527.29 45.6515 -2116.47)
(-2319.76 -570.122 37.0305 -2734.77 52.8855 -2116.45)
(-2137.29 -464.767 27.2845 -2917.27 58.5126 -2116.46)
(-2001.83 -303.355 16.7093 -3052.68 62.3616 -2116.44)
(-1929.79 -105.354 5.6268 -3124.77 64.3162 -2116.46)
(-1929.79 105.354 -5.6268 -3124.77 64.3162 -2116.46)
(-2001.83 303.355 -16.7093 -3052.68 62.3616 -2116.44)
(-2137.29 464.767 -27.2845 -2917.27 58.5126 -2116.46)
(-2319.76 570.122 -37.0305 -2734.77 52.8855 -2116.45)
(-2527.29 606.711 -45.6515 -2527.29 45.6515 -2116.47)
(-2734.77 570.122 -52.8855 -2319.76 37.0305 -2116.45)
(-2917.27 464.767 -58.5126 -2137.29 27.2845 -2116.46)
(-3052.68 303.355 -62.3616 -2001.83 16.7093 -2116.44)
(-3124.77 105.354 -64.3162 -1929.79 5.6268 -2116.46)
(-3124.77 -105.354 -64.3162 -1929.79 -5.6268 -2116.46)
(-3052.68 -303.355 -62.3616 -2001.83 -16.7093 -2116.44)
(-2917.27 -464.767 -58.5126 -2137.29 -27.2845 -2116.46)
(-2734.77 -570.122 -52.8855 -2319.76 -37.0305 -2116.45)
(-2527.29 -606.711 -45.6515 -2527.29 -45.6515 -2116.47)
(-2319.76 -570.122 -37.0305 -2734.77 -52.8855 -2116.45)
(-2137.29 -464.767 -27.2845 -2917.27 -58.5126 -2116.46)
(-2001.83 -303.355 -16.7093 -3052.68 -62.3616 -2116.44)
(-1929.79 -105.354 -5.6268 -3124.77 -64.3162 -2116.46)
(-1929.79 105.354 5.6268 -3124.77 -64.3162 -2116.46)
(-2001.83 303.355 16.7093 -3052.68 -62.3616 -2116.44)
(-2137.29 464.767 27.2845 -2917.27 -58.5126 -2116.46)
(-2319.76 570.122 37.0305 -2734.77 -52.8855 -2116.45)
(-2527.29 606.711 45.6515 -2527.29 -45.6515 -2116.47)
(-2734.77 570.122 52.8855 -2319.76 -37.0305 -2116.45)
(-2917.27 464.767 58.5126 -2137.29 -27.2845 -2116.46)
(-3052.68 303.355 62.3616 -2001.83 -16.7093 -2116.44)
(-3124.77 105.354 64.3162 -1929.79 -5.6268 -2116.46)
(-1301.97 -129.966 65.4877 172.177 5.72927 -212.21)
(-1213.02 -374.222 63.4978 83.3175 17.0139 -212.168)
(-1045.99 -573.341 59.5789 -83.8097 27.7815 -212.214)
(-820.881 -703.307 53.8492 -308.917 37.7055 -212.214)
(-564.88 -748.444 46.4835 -564.88 46.4835 -212.194)
(-308.917 -703.307 37.7055 -820.881 53.8492 -212.214)
(-83.8097 -573.341 27.7815 -1045.99 59.5789 -212.214)
(83.3175 -374.222 17.0139 -1213.02 63.4978 -212.168)
(172.177 -129.966 5.72927 -1301.97 65.4877 -212.21)
(172.177 129.966 -5.72927 -1301.97 65.4877 -212.21)
(83.3175 374.222 -17.0139 -1213.02 63.4978 -212.168)
(-83.8097 573.341 -27.7815 -1045.99 59.5789 -212.214)
(-308.917 703.307 -37.7055 -820.881 53.8492 -212.214)
(-564.88 748.444 -46.4835 -564.88 46.4835 -212.194)
(-820.881 703.307 -53.8492 -308.917 37.7055 -212.214)
(-1045.99 573.341 -59.5789 -83.8097 27.7815 -212.214)
(-1213.02 374.222 -63.4978 83.3175 17.0139 -212.168)
(-1301.97 129.966 -65.4877 172.177 5.72927 -212.21)
(-1301.97 -129.966 -65.4877 172.177 -5.72927 -212.21)
(-1213.02 -374.222 -63.4978 83.3175 -17.0139 -212.168)
(-1045.99 -573.341 -59.5789 -83.8097 -27.7815 -212.214)
(-820.881 -703.307 -53.8492 -308.917 -37.7055 -212.214)
(-564.88 -748.444 -46.4835 -564.88 -46.4835 -212.194)
(-308.917 -703.307 -37.7055 -820.881 -53.8492 -212.214)
(-83.8097 -573.341 -27.7815 -1045.99 -59.5789 -212.214)
(83.3175 -374.222 -17.0139 -1213.02 -63.4978 -212.168)
(172.177 -129.966 -5.72927 -1301.97 -65.4877 -212.21)
(172.177 129.966 5.72927 -1301.97 -65.4877 -212.21)
(83.3175 374.222 17.0139 -1213.02 -63.4978 -212.168)
(-83.8097 573.341 27.7815 -1045.99 -59.5789 -212.214)
(-308.917 703.307 37.7055 -820.881 -53.8492 -212.214)
(-564.88 748.444 46.4835 -564.88 -46.4835 -212.194)
(-820.881 703.307 53.8492 -308.917 -37.7055 -212.214)
(-1045.99 573.341 59.5789 -83.8097 -27.7815 -212.214)
(-1213.02 374.222 63.4978 83.3175 -17.0139 -212.168)
(-1301.97 129.966 65.4877 172.177 -5.72927 -212.21)
(8503.73 -165.947 62.5774 10386 5.47467 9687.38)
(8617.26 -477.825 60.6758 10272.5 16.2576 9687.4)
(8830.58 -732.07 56.9309 10059.1 26.5467 9687.38)
(9118.02 -898.017 51.4559 9771.72 36.0296 9687.39)
(9444.85 -955.65 44.4175 9444.85 44.4175 9687.37)
(9771.72 -898.017 36.0296 9118.02 51.4559 9687.39)
(10059.1 -732.07 26.5467 8830.58 56.9309 9687.38)
(10272.5 -477.825 16.2576 8617.26 60.6758 9687.4)
(10386 -165.947 5.47467 8503.73 62.5774 9687.38)
(10386 165.947 -5.47467 8503.73 62.5774 9687.38)
(10272.5 477.825 -16.2576 8617.26 60.6758 9687.4)
(10059.1 732.07 -26.5467 8830.58 56.9309 9687.38)
(9771.72 898.017 -36.0296 9118.02 51.4559 9687.39)
(9444.85 955.65 -44.4175 9444.85 44.4175 9687.37)
(9118.02 898.017 -51.4559 9771.72 36.0296 9687.39)
(8830.58 732.07 -56.9309 10059.1 26.5467 9687.38)
(8617.26 477.825 -60.6758 10272.5 16.2576 9687.4)
(8503.73 165.947 -62.5774 10386 5.47467 9687.38)
(8503.73 -165.947 -62.5774 10386 -5.47467 9687.38)
(8617.26 -477.825 -60.6758 10272.5 -16.2576 9687.4)
(8830.58 -732.07 -56.9309 10059.1 -26.5467 9687.38)
(9118.02 -898.017 -51.4559 9771.72 -36.0296 9687.39)
(9444.85 -955.65 -44.4175 9444.85 -44.4175 9687.37)
(9771.72 -898.017 -36.0296 9118.02 -51.4559 9687.39)
(10059.1 -732.07 -26.5467 8830.58 -56.9309 9687.38)
(10272.5 -477.825 -16.2576 8617.26 -60.6758 9687.4)
(10386 -165.947 -5.47467 8503.73 -62.5774 9687.38)
(10386 165.947 5.47467 8503.73 -62.5774 9687.38)
(10272.5 477.825 16.2576 8617.26 -60.6758 9687.4)
(10059.1 732.07 26.5467 8830.58 -56.9309 9687.38)
(9771.72 898.017 36.0296 9118.02 -51.4559 9687.39)
(9444.85 955.65 44.4175 9444.85 -44.4175 9687.37)
(9118.02 898.017 51.4559 9771.72 -36.0296 9687.39)
(8830.58 732.07 56.9309 10059.1 -26.5467 9687.38)
(8617.26 477.825 60.6758 10272.5 -16.2576 9687.4)
(8503.73 165.947 62.5774 10386 -5.47467 9687.38)
(-3155.48 -107.422 167.272 -1937.04 14.6343 -2240.32)
(-3081.96 -309.309 162.19 -2010.48 43.4581 -2240.28)
(-2943.87 -473.89 152.179 -2148.59 70.9616 -2240.29)
(-2757.8 -581.311 137.544 -2334.64 96.3089 -2240.27)
(-2546.21 -618.619 118.73 -2546.21 118.73 -2240.27)
(-2334.64 -581.311 96.3089 -2757.8 137.544 -2240.27)
(-2148.59 -473.89 70.9616 -2943.87 152.179 -2240.29)
(-2010.48 -309.309 43.4581 -3081.96 162.19 -2240.28)
(-1937.04 -107.422 14.6343 -3155.48 167.272 -2240.32)
(-1937.04 107.422 -14.6343 -3155.48 167.272 -2240.32)
(-2010.48 309.309 -43.4581 -3081.96 162.19 -2240.28)
(-2148.59 473.89 -70.9616 -2943.87 152.179 -2240.29)
(-2334.64 581.311 -96.3089 -2757.8 137.544 -2240.27)
(-2546.21 618.619 -118.73 -2546.21 118.73 -2240.27)
(-2757.8 581.311 -137.544 -2334.64 96.3089 -2240.27)