/*--------------------------------*- C++ -*----------------------------------*\
| =========                 |                                                 |
| \\      /  F ield         | OpenFOAM: The Open Source CFD Toolbox           |
|  \\    /   O peration     | Version:  2312                                  |
|   \\  /    A nd           | Website:  www.openfoam.com                      |
|    \\/     M anipulation  |                                                 |
\*---------------------------------------------------------------------------*/
FoamFile
{
    version     2.0;
    format      ascii;
    arch        "LSB;label=32;scalar=64";
    class       volVectorField;
    location    "0.3";
    object      D_0;
}
// * * * * * * * * * * * * * * * * * * * * * * * * * * * * * * * * * * * * * //

dimensions      [0 1 0 0 0 0 0];

internalField   nonuniform List<vector> 
1620
(
(-0.000184125 0.000256893 -7.52252e-05)
(-0.000225936 0.000221017 -7.52253e-05)
(-0.000260883 0.000178426 -7.52253e-05)
(-0.000287904 0.000130414 -7.52252e-05)
(-0.000306176 7.84387e-05 -7.52253e-05)
(-0.000315145 2.408e-05 -7.52254e-05)
(-0.000314538 -3.10102e-05 -7.52251e-05)
(-0.000304375 -8.5158e-05 -7.5225e-05)
(-0.000284963 -0.000136719 -7.52251e-05)
(-0.000256893 -0.000184125 -7.52252e-05)
(-0.000221017 -0.000225936 -7.52253e-05)
(-0.000178426 -0.000260883 -7.52253e-05)
(-0.000130414 -0.000287904 -7.52252e-05)
(-7.84387e-05 -0.000306176 -7.52253e-05)
(-2.408e-05 -0.000315145 -7.52254e-05)
(3.10103e-05 -0.000314538 -7.52251e-05)
(8.5158e-05 -0.000304375 -7.5225e-05)
(0.000136719 -0.000284963 -7.52251e-05)
(0.000184125 -0.000256893 -7.52252e-05)
(0.000225936 -0.000221017 -7.52253e-05)
(0.000260883 -0.000178426 -7.52253e-05)
(0.000287904 -0.000130414 -7.52252e-05)
(0.000306176 -7.84387e-05 -7.52253e-05)
(0.000315145 -2.408e-05 -7.52254e-05)
(0.000314538 3.10102e-05 -7.52251e-05)
(0.000304375 8.5158e-05 -7.5225e-05)
(0.000284963 0.000136719 -7.52251e-05)
(0.000256893 0.000184125 -7.52252e-05)
(0.000221017 0.000225936 -7.52253e-05)
(0.000178426 0.000260883 -7.52253e-05)
(0.000130414 0.000287904 -7.52252e-05)
(7.84387e-05 0.000306176 -7.52253e-05)
(2.408e-05 0.000315145 -7.52254e-05)
(-3.10102e-05 0.000314538 -7.52251e-05)
(-8.5158e-05 0.000304375 -7.5225e-05)
(-0.000136719 0.000284963 -7.52251e-05)
(-0.000141855 0.000287516 -5.20438e-05)
(-0.000189626 0.000258515 -5.20439e-05)
(-0.000231636 0.000221659 -5.20439e-05)
(-0.000266607 0.000178069 -5.20438e-05)
(-0.000293479 0.000129068 -5.20439e-05)
(-0.000311432 7.61448e-05 -5.20439e-05)
(-0.000319923 2.09084e-05 -5.20438e-05)
(-0.000318694 -3.49633e-05 -5.20438e-05)
(-0.000307781 -8.97729e-05 -5.20438e-05)
(-0.000287516 -0.000141855 -5.20438e-05)
(-0.000258515 -0.000189626 -5.20439e-05)
(-0.000221659 -0.000231636 -5.20439e-05)
(-0.000178069 -0.000266607 -5.20438e-05)
(-0.000129068 -0.000293479 -5.20439e-05)
(-7.61448e-05 -0.000311432 -5.20439e-05)
(-2.09084e-05 -0.000319923 -5.20438e-05)
(3.49633e-05 -0.000318694 -5.20438e-05)
(8.97729e-05 -0.000307781 -5.20438e-05)
(0.000141855 -0.000287516 -5.20438e-05)
(0.000189626 -0.000258515 -5.20439e-05)
(0.000231636 -0.000221659 -5.20439e-05)
(0.000266607 -0.000178069 -5.20438e-05)
(0.000293479 -0.000129068 -5.20439e-05)
(0.000311432 -7.61448e-05 -5.20439e-05)
(0.000319923 -2.09084e-05 -5.20438e-05)
(0.000318694 3.49633e-05 -5.20438e-05)
(0.000307781 8.97729e-05 -5.20438e-05)
(0.000287516 0.000141855 -5.20438e-05)
(0.000258515 0.000189626 -5.20439e-05)
(0.000221659 0.000231636 -5.20438e-05)
(0.000178069 0.000266607 -5.20438e-05)
(0.000129068 0.000293479 -5.20439e-05)
(7.61448e-05 0.000311432 -5.20439e-05)
(2.09084e-05 0.000319923 -5.20438e-05)
(-3.49633e-05 0.000318694 -5.20438e-05)
(-8.97729e-05 0.000307781 -5.20438e-05)
(-0.000113579 0.000318152 -3.47368e-05)
(-0.000167101 0.000293596 -3.47368e-05)
(-0.000215545 0.000260119 -3.47369e-05)
(-0.000257439 0.000218738 -3.47368e-05)
(-0.000291512 0.000170712 -3.47369e-05)
(-0.000316726 0.000117498 -3.47368e-05)
(-0.000332318 6.07135e-05 -3.47369e-05)
(-0.000337812 2.08467e-06 -3.47369e-05)
(-0.000333042 -5.66074e-05 -3.47368e-05)
(-0.000318152 -0.000113579 -3.47368e-05)
(-0.000293596 -0.000167101 -3.47368e-05)
(-0.000260119 -0.000215545 -3.47369e-05)
(-0.000218738 -0.000257439 -3.47368e-05)
(-0.000170712 -0.000291512 -3.47369e-05)
(-0.000117498 -0.000316726 -3.47368e-05)
(-6.07135e-05 -0.000332318 -3.47369e-05)
(-2.08466e-06 -0.000337812 -3.47369e-05)
(5.66074e-05 -0.000333042 -3.47368e-05)
(0.000113579 -0.000318152 -3.47368e-05)
(0.000167101 -0.000293596 -3.47368e-05)
(0.000215545 -0.000260119 -3.47369e-05)
(0.000257439 -0.000218738 -3.47368e-05)
(0.000291512 -0.000170712 -3.47369e-05)
(0.000316726 -0.000117498 -3.47368e-05)
(0.000332318 -6.07135e-05 -3.47369e-05)
(0.000337812 -2.08466e-06 -3.47369e-05)
(0.000333042 5.66074e-05 -3.47368e-05)
(0.000318152 0.000113579 -3.47368e-05)
(0.000293596 0.000167101 -3.47368e-05)
(0.000260119 0.000215545 -3.47369e-05)
(0.000218738 0.000257439 -3.47368e-05)
(0.000170712 0.000291512 -3.47369e-05)
(0.000117498 0.000316726 -3.47368e-05)
(6.07135e-05 0.000332318 -3.47369e-05)
(2.08466e-06 0.000337812 -3.47369e-05)
(-5.66074e-05 0.000333042 -3.47368e-05)
(-0.000461936 0.000811087 -0.0002292)
(-0.000595762 0.000718551 -0.0002292)
(-0.000711487 0.000604182 -0.0002292)
(-0.000805592 0.000471454 -0.0002292)
(-0.00087522 0.000324403 -0.000229199)
(-0.000918256 0.000167494 -0.0002292)
(-0.000933391 5.49554e-06 -0.0002292)
(-0.000920165 -0.00015667 -0.0002292)
(-0.000878979 -0.000314074 -0.0002292)
(-0.000811087 -0.000461936 -0.0002292)
(-0.000718551 -0.000595762 -0.0002292)
(-0.000604182 -0.000711487 -0.0002292)
(-0.000471454 -0.000805592 -0.0002292)
(-0.000324403 -0.00087522 -0.000229199)
(-0.000167494 -0.000918256 -0.0002292)
(-5.4955e-06 -0.000933391 -0.0002292)
(0.00015667 -0.000920165 -0.0002292)
(0.000314074 -0.000878979 -0.0002292)
(0.000461936 -0.000811087 -0.0002292)
(0.000595762 -0.000718551 -0.0002292)
(0.000711487 -0.000604182 -0.0002292)
(0.000805592 -0.000471454 -0.0002292)
(0.00087522 -0.000324403 -0.000229199)
(0.000918256 -0.000167494 -0.0002292)
(0.000933391 -5.49552e-06 -0.0002292)
(0.000920165 0.00015667 -0.0002292)
(0.000878979 0.000314074 -0.0002292)
(0.000811087 0.000461936 -0.0002292)
(0.000718551 0.000595762 -0.0002292)
(0.000604182 0.000711487 -0.0002292)
(0.000471454 0.000805592 -0.0002292)
(0.000324403 0.00087522 -0.000229199)
(0.000167494 0.000918256 -0.0002292)
(5.49556e-06 0.000933391 -0.0002292)
(-0.00015667 0.000920165 -0.0002292)
(-0.000314074 0.000878979 -0.0002292)
(-0.000425159 0.000858263 -0.000176677)
(-0.000567735 0.000771396 -0.000176678)
(-0.000693062 0.000661091 -0.000176678)
(-0.00079733 0.000530699 -0.000176678)
(-0.000877372 0.000384181 -0.000176678)
(-0.000930755 0.00022599 -0.000176678)
(-0.000955857 6.09333e-05 -0.000176678)
(-0.000951916 -0.000105975 -0.000176677)
(-0.000919052 -0.000269664 -0.000176678)
(-0.000858263 -0.000425159 -0.000176678)
(-0.000771396 -0.000567735 -0.000176678)
(-0.000661091 -0.000693062 -0.000176678)
(-0.000530699 -0.00079733 -0.000176678)
(-0.000384181 -0.000877372 -0.000176678)
(-0.00022599 -0.000930755 -0.000176678)
(-6.09333e-05 -0.000955857 -0.000176678)
(0.000105975 -0.000951916 -0.000176677)
(0.000269664 -0.000919052 -0.000176678)
(0.000425159 -0.000858263 -0.000176678)
(0.000567735 -0.000771396 -0.000176678)
(0.000693062 -0.000661091 -0.000176678)
(0.00079733 -0.000530699 -0.000176678)
(0.000877372 -0.000384181 -0.000176678)
(0.000930755 -0.00022599 -0.000176678)
(0.000955857 -6.09333e-05 -0.000176678)
(0.000951916 0.000105975 -0.000176677)
(0.000919052 0.000269664 -0.000176677)
(0.000858263 0.000425159 -0.000176677)
(0.000771396 0.000567735 -0.000176678)
(0.000661091 0.000693062 -0.000176678)
(0.000530699 0.00079733 -0.000176678)
(0.000384181 0.000877372 -0.000176678)
(0.00022599 0.000930755 -0.000176678)
(6.09333e-05 0.000955857 -0.000176678)
(-0.000105975 0.000951916 -0.000176677)
(-0.000269664 0.000919052 -0.000176677)
(-0.000405715 0.000902144 -0.000126205)
(-0.000556206 0.000817987 -0.000126205)
(-0.000689798 0.000708976 -0.000126205)
(-0.00080243 0.000578422 -0.000126205)
(-0.000890682 0.000430294 -0.000126205)
(-0.00095187 0.000269091 -0.000126205)
(-0.000984137 9.97126e-05 -0.000126205)
(-0.000986501 -7.26955e-05 -0.000126205)
(-0.00095889 -0.000242895 -0.000126205)
(-0.000902144 -0.000405715 -0.000126205)
(-0.000817987 -0.000556207 -0.000126205)
(-0.000708976 -0.000689798 -0.000126205)
(-0.000578422 -0.00080243 -0.000126205)
(-0.000430294 -0.000890682 -0.000126205)
(-0.000269091 -0.00095187 -0.000126205)
(-9.97126e-05 -0.000984137 -0.000126205)
(7.26956e-05 -0.000986501 -0.000126205)
(0.000242895 -0.00095889 -0.000126205)
(0.000405715 -0.000902144 -0.000126205)
(0.000556207 -0.000817987 -0.000126205)
(0.000689798 -0.000708976 -0.000126205)
(0.00080243 -0.000578422 -0.000126205)
(0.000890682 -0.000430294 -0.000126205)
(0.00095187 -0.000269091 -0.000126205)
(0.000984137 -9.97126e-05 -0.000126205)
(0.000986501 7.26955e-05 -0.000126205)
(0.00095889 0.000242895 -0.000126205)
(0.000902144 0.000405715 -0.000126205)
(0.000817987 0.000556207 -0.000126205)
(0.000708976 0.000689798 -0.000126205)
(0.000578422 0.00080243 -0.000126205)
(0.000430294 0.000890682 -0.000126205)
(0.000269091 0.00095187 -0.000126205)
(9.97126e-05 0.000984137 -0.000126205)
(-7.26955e-05 0.000986501 -0.000126205)
(-0.000242895 0.00095889 -0.000126205)
(-0.000736058 0.00135954 -0.000436324)
(-0.000960957 0.00121107 -0.000436324)
(-0.00115666 0.0010258 -0.000436324)
(-0.00131721 0.000809368 -0.000436324)
(-0.00143775 0.00056834 -0.000436323)
(-0.0015146 0.000310044 -0.000436323)
(-0.00154543 4.23259e-05 -0.000436323)
(-0.0015293 -0.000226678 -0.000436323)
(-0.0014667 -0.000488794 -0.000436324)
(-0.00135954 -0.000736058 -0.000436324)
(-0.00121107 -0.000960957 -0.000436324)
(-0.0010258 -0.00115666 -0.000436324)
(-0.000809368 -0.00131721 -0.000436324)
(-0.00056834 -0.00143775 -0.000436323)
(-0.000310044 -0.0015146 -0.000436323)
(-4.23258e-05 -0.00154543 -0.000436323)
(0.000226678 -0.0015293 -0.000436323)
(0.000488794 -0.0014667 -0.000436324)
(0.000736058 -0.00135954 -0.000436324)
(0.000960957 -0.00121107 -0.000436324)
(0.00115666 -0.0010258 -0.000436324)
(0.00131721 -0.000809368 -0.000436324)
(0.00143775 -0.00056834 -0.000436323)
(0.0015146 -0.000310044 -0.000436323)
(0.00154543 -4.23259e-05 -0.000436323)
(0.0015293 0.000226678 -0.000436323)
(0.0014667 0.000488794 -0.000436324)
(0.00135954 0.000736058 -0.000436324)
(0.00121107 0.000960957 -0.000436324)
(0.0010258 0.00115666 -0.000436324)
(0.000809368 0.00131721 -0.000436324)
(0.00056834 0.00143775 -0.000436323)
(0.000310044 0.0015146 -0.000436323)
(4.23259e-05 0.00154543 -0.000436323)
(-0.000226678 0.0015293 -0.000436323)
(-0.000488794 0.0014667 -0.000436324)
(-0.000703609 0.00141681 -0.000357984)
(-0.000938946 0.00127311 -0.000357984)
(-0.00114575 0.00109072 -0.000357984)
(-0.00131775 0.000875192 -0.000357984)
(-0.0014497 0.000633071 -0.000357983)
(-0.00153761 0.000371714 -0.000357983)
(-0.0015788 9.90636e-05 -0.000357983)
(-0.00157202 -0.000176598 -0.000357984)
(-0.00151747 -0.000446892 -0.000357984)
(-0.00141681 -0.000703609 -0.000357984)
(-0.00127311 -0.000938946 -0.000357984)
(-0.00109072 -0.00114575 -0.000357984)
(-0.000875191 -0.00131775 -0.000357984)
(-0.000633071 -0.0014497 -0.000357983)
(-0.000371714 -0.00153761 -0.000357983)
(-9.90635e-05 -0.0015788 -0.000357983)
(0.000176598 -0.00157202 -0.000357984)
(0.000446892 -0.00151747 -0.000357984)
(0.000703609 -0.00141681 -0.000357984)
(0.000938946 -0.00127311 -0.000357984)
(0.00114575 -0.00109072 -0.000357984)
(0.00131775 -0.000875192 -0.000357984)
(0.0014497 -0.000633071 -0.000357983)
(0.00153761 -0.000371714 -0.000357983)
(0.0015788 -9.90635e-05 -0.000357983)
(0.00157202 0.000176598 -0.000357983)
(0.00151747 0.000446892 -0.000357983)
(0.00141681 0.000703609 -0.000357984)
(0.00127311 0.000938946 -0.000357984)
(0.00109072 0.00114575 -0.000357984)
(0.000875192 0.00131775 -0.000357983)
(0.000633071 0.0014497 -0.000357983)
(0.000371714 0.00153761 -0.000357983)
(9.90636e-05 0.0015788 -0.000357983)
(-0.000176598 0.00157202 -0.000357983)
(-0.000446892 0.00151747 -0.000357983)
(-0.000689893 0.00146725 -0.000281979)
(-0.000934197 0.00132516 -0.000281979)
(-0.00115012 0.00114281 -0.000281979)
(-0.00133109 0.00092573 -0.000281979)
(-0.00147162 0.000680525 -0.000281979)
(-0.00156743 0.000414642 -0.000281979)
(-0.00161562 0.00013616 -0.000281979)
(-0.00161472 -0.000146458 -0.000281979)
(-0.00156476 -0.000424626 -0.000281979)
(-0.00146725 -0.000689893 -0.000281979)
(-0.00132516 -0.000934197 -0.000281979)
(-0.00114281 -0.00115012 -0.000281979)
(-0.00092573 -0.00133109 -0.000281979)
(-0.000680525 -0.00147162 -0.000281979)
(-0.000414642 -0.00156743 -0.000281979)
(-0.00013616 -0.00161562 -0.000281979)
(0.000146458 -0.00161472 -0.000281979)
(0.000424626 -0.00156476 -0.000281979)
(0.000689893 -0.00146725 -0.000281979)
(0.000934197 -0.00132516 -0.000281979)
(0.00115012 -0.00114281 -0.000281979)
(0.00133109 -0.00092573 -0.000281979)
(0.00147162 -0.000680525 -0.000281979)
(0.00156743 -0.000414642 -0.000281979)
(0.00161562 -0.00013616 -0.000281979)
(0.00161472 0.000146458 -0.000281979)
(0.00156476 0.000424626 -0.000281979)
(0.00146725 0.000689893 -0.000281979)
(0.00132516 0.000934197 -0.000281979)
(0.00114281 0.00115012 -0.000281979)
(0.00092573 0.00133109 -0.000281979)
(0.000680525 0.00147162 -0.000281979)
(0.000414642 0.00156743 -0.000281979)
(0.00013616 0.00161562 -0.000281979)
(-0.000146458 0.00161472 -0.000281979)
(-0.000424626 0.00156476 -0.000281979)
(-0.00100134 0.00189564 -0.000686005)
(-0.0013153 0.00169296 -0.000686005)
(-0.00158929 0.00143884 -0.000686005)
(-0.001815 0.001141 -0.000686005)
(-0.00198556 0.000808496 -0.000686005)
(-0.00209579 0.000451425 -0.000686004)
(-0.00214234 8.06368e-05 -0.000686004)
(-0.00212379 -0.000292602 -0.000686004)
(-0.00204072 -0.000656949 -0.000686004)
(-0.00189564 -0.00100134 -0.000686005)
(-0.00169296 -0.0013153 -0.000686005)
(-0.00143884 -0.00158929 -0.000686005)
(-0.001141 -0.001815 -0.000686005)
(-0.000808496 -0.00198556 -0.000686005)
(-0.000451425 -0.00209579 -0.000686004)
(-8.06367e-05 -0.00214234 -0.000686004)
(0.000292602 -0.00212379 -0.000686004)
(0.000656949 -0.00204072 -0.000686004)
(0.00100134 -0.00189564 -0.000686005)
(0.0013153 -0.00169296 -0.000686005)
(0.00158929 -0.00143884 -0.000686005)
(0.001815 -0.001141 -0.000686005)
(0.00198556 -0.000808496 -0.000686005)
(0.00209579 -0.000451425 -0.000686004)
(0.00214234 -8.06368e-05 -0.000686004)
(0.00212379 0.000292602 -0.000686004)
(0.00204072 0.000656949 -0.000686004)
(0.00189564 0.00100134 -0.000686004)
(0.00169296 0.0013153 -0.000686005)
(0.00143884 0.00158929 -0.000686005)
(0.001141 0.001815 -0.000686005)
(0.000808496 0.00198556 -0.000686004)
(0.000451425 0.00209579 -0.000686004)
(8.06368e-05 0.00214234 -0.000686004)
(-0.000292602 0.00212379 -0.000686004)
(-0.000656949 0.00204072 -0.000686004)
(-0.000974522 0.00195075 -0.000585761)
(-0.00129846 0.00175189 -0.000585761)
(-0.00158295 0.0014998 -0.000585761)
(-0.00181934 0.00120214 -0.000585761)
(-0.00200045 0.000867955 -0.000585761)
(-0.00212077 0.000507394 -0.000585761)
(-0.00217666 0.000131417 -0.000585761)
(-0.00216642 -0.000248554 -0.000585761)
(-0.00209034 -0.000620972 -0.000585761)
(-0.00195075 -0.000974522 -0.000585761)
(-0.00175189 -0.00129846 -0.000585761)
(-0.0014998 -0.00158295 -0.000585761)
(-0.00120214 -0.00181934 -0.000585761)
(-0.000867954 -0.00200045 -0.000585761)
(-0.000507394 -0.00212077 -0.000585761)
(-0.000131417 -0.00217666 -0.000585761)
(0.000248554 -0.00216642 -0.000585761)
(0.000620972 -0.00209034 -0.000585761)
(0.000974522 -0.00195075 -0.000585761)
(0.00129846 -0.00175189 -0.000585761)
(0.00158295 -0.0014998 -0.000585761)
(0.00181934 -0.00120214 -0.000585761)
(0.00200045 -0.000867954 -0.000585761)
(0.00212077 -0.000507394 -0.000585761)
(0.00217666 -0.000131417 -0.000585761)
(0.00216642 0.000248554 -0.000585761)
(0.00209034 0.000620972 -0.000585761)
(0.00195075 0.000974522 -0.000585761)
(0.00175189 0.00129846 -0.000585761)
(0.0014998 0.00158295 -0.000585761)
(0.00120214 0.00181934 -0.000585761)
(0.000867955 0.00200045 -0.000585761)
(0.000507394 0.00212077 -0.000585761)
(0.000131417 0.00217666 -0.000585761)
(-0.000248553 0.00216642 -0.000585761)
(-0.000620972 0.00209034 -0.000585761)
(-0.000967658 0.00199501 -0.00048882)
(-0.00129939 0.00179667 -0.00048882)
(-0.00159163 0.00154374 -0.00048882)
(-0.00183552 0.0012439 -0.00048882)
(-0.00202364 0.000906267 -0.00048882)
(-0.00215026 0.000541099 -0.00048882)
(-0.00221156 0.000159488 -0.00048882)
(-0.00220565 -0.000226968 -0.00048882)
(-0.00213273 -0.000606527 -0.00048882)
(-0.00199501 -0.000967658 -0.00048882)
(-0.00179667 -0.00129939 -0.00048882)
(-0.00154374 -0.00159163 -0.00048882)
(-0.0012439 -0.00183552 -0.00048882)
(-0.000906267 -0.00202364 -0.00048882)
(-0.000541099 -0.00215026 -0.00048882)
(-0.000159488 -0.00221156 -0.00048882)
(0.000226968 -0.00220565 -0.000488821)
(0.000606528 -0.00213273 -0.00048882)
(0.000967658 -0.00199501 -0.00048882)
(0.00129939 -0.00179667 -0.00048882)
(0.00159163 -0.00154374 -0.00048882)
(0.00183552 -0.0012439 -0.00048882)
(0.00202364 -0.000906267 -0.00048882)
(0.00215026 -0.000541099 -0.00048882)
(0.00221156 -0.000159488 -0.00048882)
(0.00220565 0.000226968 -0.00048882)
(0.00213273 0.000606527 -0.00048882)
(0.00199501 0.000967658 -0.00048882)
(0.00179667 0.00129939 -0.00048882)
(0.00154374 0.00159163 -0.00048882)
(0.0012439 0.00183552 -0.00048882)
(0.000906267 0.00202364 -0.00048882)
(0.000541099 0.00215026 -0.00048882)
(0.000159488 0.00221156 -0.00048882)
(-0.000226968 0.00220565 -0.00048882)
(-0.000606527 0.00213273 -0.00048882)
(-0.00126066 0.00241035 -0.000970418)
(-0.00166006 0.00215482 -0.000970418)
(-0.00200902 0.00183381 -0.000970418)
(-0.00229693 0.00145709 -0.000970418)
(-0.00251506 0.0010361 -0.000970418)
(-0.00265677 0.00058362 -0.000970417)
(-0.00271775 0.000113411 -0.000970417)
(-0.00269615 -0.000360245 -0.000970417)
(-0.00259264 -0.000822954 -0.000970417)
(-0.00241035 -0.00126066 -0.000970418)
(-0.00215482 -0.00166006 -0.000970418)
(-0.00183381 -0.00200902 -0.000970418)
(-0.00145709 -0.00229693 -0.000970418)
(-0.0010361 -0.00251506 -0.000970418)
(-0.00058362 -0.00265677 -0.000970418)
(-0.000113411 -0.00271775 -0.000970417)
(0.000360245 -0.00269615 -0.000970417)
(0.000822954 -0.00259264 -0.000970417)
(0.00126066 -0.00241035 -0.000970418)
(0.00166006 -0.00215482 -0.000970418)
(0.00200902 -0.00183381 -0.000970418)
(0.00229693 -0.00145709 -0.000970418)
(0.00251506 -0.0010361 -0.000970418)
(0.00265677 -0.00058362 -0.000970417)
(0.00271775 -0.000113411 -0.000970417)
(0.00269615 0.000360245 -0.000970417)
(0.00259264 0.000822954 -0.000970417)
(0.00241035 0.00126066 -0.000970418)
(0.00215482 0.00166006 -0.000970418)
(0.00183381 0.00200902 -0.000970418)
(0.00145709 0.00229693 -0.000970418)
(0.0010361 0.00251506 -0.000970418)
(0.00058362 0.00265677 -0.000970417)
(0.000113411 0.00271775 -0.000970417)
(-0.000360245 0.00269615 -0.000970417)
(-0.000822954 0.00259264 -0.000970417)
(-0.00123854 0.00244727 -0.000852368)
(-0.00164469 0.00219502 -0.000852369)
(-0.00200086 0.00187608 -0.000852369)
(-0.00229624 0.00150013 -0.000852368)
(-0.00252185 0.00107861 -0.000852368)
(-0.00267084 0.000624304 -0.000852368)
(-0.00273867 0.000151033 -0.000852368)
(-0.00272329 -0.000326826 -0.000852368)
(-0.00262516 -0.000794756 -0.000852368)
(-0.00244727 -0.00123854 -0.000852368)
(-0.00219502 -0.00164469 -0.000852369)
(-0.00187608 -0.00200086 -0.000852369)
(-0.00150013 -0.00229624 -0.000852368)
(-0.00107861 -0.00252185 -0.000852368)
(-0.000624304 -0.00267084 -0.000852368)
(-0.000151033 -0.00273867 -0.000852368)
(0.000326826 -0.00272329 -0.000852368)
(0.000794756 -0.00262516 -0.000852368)
(0.00123854 -0.00244727 -0.000852368)
(0.00164469 -0.00219502 -0.000852369)
(0.00200086 -0.00187608 -0.000852369)
(0.00229624 -0.00150013 -0.000852368)
(0.00252185 -0.00107861 -0.000852368)
(0.00267084 -0.000624304 -0.000852368)
(0.00273867 -0.000151033 -0.000852368)
(0.00272329 0.000326826 -0.000852368)
(0.00262516 0.000794756 -0.000852368)
(0.00244727 0.00123854 -0.000852368)
(0.00219502 0.00164469 -0.000852369)
(0.00187608 0.00200086 -0.000852368)
(0.00150013 0.00229624 -0.000852368)
(0.00107861 0.00252185 -0.000852368)
(0.000624304 0.00267084 -0.000852368)
(0.000151033 0.00273867 -0.000852368)
(-0.000326826 0.00272329 -0.000852368)
(-0.000794756 0.00262516 -0.000852368)
(-0.00123685 0.00246969 -0.00073863)
(-0.00164692 0.0022174 -0.00073863)
(-0.00200695 0.00189772 -0.00073863)
(-0.00230599 0.00152039 -0.00073863)
(-0.00253497 0.00109686 -0.00073863)
(-0.00268693 0.000640006 -0.00073863)
(-0.00275724 0.000163702 -0.00073863)
(-0.00274378 -0.000317575 -0.00073863)
(-0.00264695 -0.000789203 -0.00073863)
(-0.00246969 -0.00123685 -0.00073863)
(-0.0022174 -0.00164692 -0.00073863)
(-0.00189772 -0.00200695 -0.00073863)
(-0.00152039 -0.00230599 -0.00073863)
(-0.00109686 -0.00253497 -0.00073863)
(-0.000640006 -0.00268693 -0.00073863)
(-0.000163702 -0.00275724 -0.00073863)
(0.000317575 -0.00274378 -0.00073863)
(0.000789203 -0.00264695 -0.00073863)
(0.00123685 -0.00246969 -0.00073863)
(0.00164692 -0.0022174 -0.00073863)
(0.00200695 -0.00189772 -0.00073863)
(0.00230599 -0.00152039 -0.00073863)
(0.00253497 -0.00109686 -0.00073863)
(0.00268693 -0.000640006 -0.00073863)
(0.00275724 -0.000163702 -0.00073863)
(0.00274378 0.000317575 -0.00073863)
(0.00264695 0.000789203 -0.00073863)
(0.00246969 0.00123685 -0.00073863)
(0.0022174 0.00164692 -0.00073863)
(0.00189772 0.00200695 -0.00073863)
(0.00152039 0.00230599 -0.00073863)
(0.00109686 0.00253497 -0.00073863)
(0.000640006 0.00268693 -0.00073863)
(0.000163702 0.00275724 -0.00073863)
(-0.000317575 0.00274378 -0.00073863)
(-0.000789203 0.00264695 -0.00073863)
(-0.00151721 0.00289109 -0.00128148)
(-0.00199619 0.00258371 -0.00128148)
(-0.00241452 0.00219782 -0.00128148)
(-0.00275949 0.00174516 -0.00128148)
(-0.00302061 0.00123946 -0.00128148)
(-0.00318995 0.000696111 -0.00128148)
(-0.00326236 0.000131607 -0.00128148)
(-0.00323565 -0.000436896 -0.00128148)
(-0.00311063 -0.000992124 -0.00128148)
(-0.00289109 -0.00151721 -0.00128148)
(-0.00258371 -0.00199619 -0.00128148)
(-0.00219782 -0.00241452 -0.00128148)
(-0.00174516 -0.00275949 -0.00128148)
(-0.00123946 -0.00302061 -0.00128148)
(-0.000696111 -0.00318995 -0.00128148)
(-0.000131607 -0.00326236 -0.00128148)
(0.000436896 -0.00323565 -0.00128148)
(0.000992124 -0.00311063 -0.00128148)
(0.00151721 -0.00289109 -0.00128148)
(0.00199619 -0.00258371 -0.00128148)
(0.00241452 -0.00219782 -0.00128148)
(0.00275949 -0.00174516 -0.00128148)
(0.00302061 -0.00123946 -0.00128148)
(0.00318995 -0.000696111 -0.00128148)
(0.00326236 -0.000131607 -0.00128148)
(0.00323565 0.000436896 -0.00128148)
(0.00311063 0.000992124 -0.00128148)
(0.00289109 0.00151721 -0.00128148)
(0.00258371 0.00199619 -0.00128148)
(0.00219782 0.00241452 -0.00128148)
(0.00174516 0.00275949 -0.00128148)
(0.00123946 0.00302061 -0.00128148)
(0.000696111 0.00318995 -0.00128148)
(0.000131607 0.00326236 -0.00128148)
(-0.000436896 0.00323565 -0.00128148)
(-0.000992124 0.00311063 -0.00128148)
(-0.0014961 0.00289283 -0.00114883)
(-0.00197571 0.00258908 -0.00114883)
(-0.00239528 0.00220667 -0.00114883)
(-0.00274208 0.00175721 -0.00114883)
(-0.00300555 0.00125436 -0.00114883)
(-0.00317771 0.000713391 -0.00114883)
(-0.00325331 0.00015075 -0.00114883)
(-0.00323006 -0.000416472 -0.00114883)
(-0.00310867 -0.000971041 -0.00114883)
(-0.00289283 -0.0014961 -0.00114883)
(-0.00258908 -0.00197571 -0.00114883)
(-0.00220667 -0.00239528 -0.00114883)
(-0.00175721 -0.00274208 -0.00114883)
(-0.00125436 -0.00300555 -0.00114883)
(-0.000713391 -0.00317771 -0.00114883)
(-0.00015075 -0.00325331 -0.00114883)
(0.000416472 -0.00323006 -0.00114883)
(0.000971041 -0.00310867 -0.00114883)
(0.0014961 -0.00289283 -0.00114883)
(0.00197571 -0.00258908 -0.00114883)
(0.00239528 -0.00220667 -0.00114883)
(0.00274208 -0.00175721 -0.00114883)
(0.00300555 -0.00125436 -0.00114883)
(0.00317771 -0.000713391 -0.00114883)
(0.00325331 -0.00015075 -0.00114883)
(0.00323006 0.000416472 -0.00114883)
(0.00310867 0.000971041 -0.00114883)
(0.00289283 0.0014961 -0.00114883)
(0.00258908 0.00197571 -0.00114883)
(0.00220667 0.00239528 -0.00114883)
(0.00175721 0.00274208 -0.00114883)
(0.00125436 0.00300555 -0.00114883)
(0.000713391 0.00317771 -0.00114883)
(0.00015075 0.00325331 -0.00114883)
(-0.000416472 0.00323006 -0.00114883)
(-0.00097104 0.00310867 -0.00114883)
(-0.00149483 0.00287751 -0.00102142)
(-0.00197179 0.00257422 -0.00102142)
(-0.00238885 0.00219272 -0.00102142)
(-0.00273331 0.00174459 -0.00102142)
(-0.00299473 0.00124345 -0.00102142)
(-0.00316516 0.000704526 -0.00102142)
(-0.00323941 0.000144199 -0.00102142)
(-0.00321524 -0.00042051 -0.00102142)
(-0.00309337 -0.000972442 -0.00102142)
(-0.00287751 -0.00149483 -0.00102142)
(-0.00257422 -0.00197179 -0.00102142)
(-0.00219272 -0.00238885 -0.00102142)
(-0.00174459 -0.00273331 -0.00102142)
(-0.00124345 -0.00299473 -0.00102142)
(-0.000704525 -0.00316516 -0.00102142)
(-0.000144199 -0.00323941 -0.00102142)
(0.00042051 -0.00321524 -0.00102142)
(0.000972442 -0.00309337 -0.00102142)
(0.00149483 -0.00287751 -0.00102142)
(0.00197179 -0.00257422 -0.00102142)
(0.00238885 -0.00219272 -0.00102142)
(0.00273331 -0.00174459 -0.00102142)
(0.00299473 -0.00124345 -0.00102142)
(0.00316516 -0.000704525 -0.00102142)
(0.00323941 -0.000144199 -0.00102142)
(0.00321524 0.00042051 -0.00102142)
(0.00309337 0.000972442 -0.00102142)
(0.00287751 0.00149483 -0.00102142)
(0.00257422 0.00197179 -0.00102142)
(0.00219272 0.00238885 -0.00102142)
(0.00174459 0.00273331 -0.00102142)
(0.00124345 0.00299473 -0.00102142)
(0.000704526 0.00316516 -0.00102142)
(0.000144199 0.00323941 -0.00102142)
(-0.00042051 0.00321524 -0.00102142)
(-0.000972442 0.00309337 -0.00102142)
(-0.00177086 0.003321 -0.00161066)
(-0.00232064 0.00296304 -0.00161066)
(-0.00279991 0.00251505 -0.00161066)
(-0.00319411 0.00199064 -0.00161066)
(-0.00349126 0.00140575 -0.00161066)
(-0.00368232 0.00077814 -0.00161066)
(-0.0037615 0.00012689 -0.00161066)
(-0.00372639 -0.000528217 -0.00161066)
(-0.00357805 -0.00116727 -0.00161066)
(-0.003321 -0.00177086 -0.00161066)
(-0.00296304 -0.00232064 -0.00161066)
(-0.00251505 -0.00279991 -0.00161066)
(-0.00199064 -0.00319411 -0.00161066)
(-0.00140575 -0.00349126 -0.00161066)
(-0.000778139 -0.00368232 -0.00161066)
(-0.00012689 -0.0037615 -0.00161066)
(0.000528217 -0.00372639 -0.00161066)
(0.00116727 -0.00357805 -0.00161066)
(0.00177086 -0.003321 -0.00161066)
(0.00232064 -0.00296304 -0.00161066)
(0.00279991 -0.00251505 -0.00161066)
(0.00319411 -0.00199064 -0.00161066)
(0.00349126 -0.00140575 -0.00161066)
(0.00368232 -0.00077814 -0.00161066)
(0.0037615 -0.00012689 -0.00161066)
(0.00372639 0.000528217 -0.00161066)
(0.00357805 0.00116727 -0.00161066)
(0.003321 0.00177086 -0.00161066)
(0.00296304 0.00232064 -0.00161066)
(0.00251505 0.00279991 -0.00161066)
(0.00199064 0.00319411 -0.00161066)
(0.00140575 0.00349126 -0.00161066)
(0.00077814 0.00368232 -0.00161066)
(0.00012689 0.0037615 -0.00161066)
(-0.000528217 0.00372639 -0.00161066)
(-0.00116727 0.00357805 -0.00161066)
(-0.00174473 0.00327206 -0.00146526)
(-0.00228641 0.00291938 -0.00146526)
(-0.00275862 0.002478 -0.00146526)
(-0.00314701 0.00196132 -0.00146526)
(-0.00343978 0.00138505 -0.00146526)
(-0.00362803 0.000766702 -0.00146526)
(-0.00370605 0.000125052 -0.00146526)
(-0.00367146 -0.000520397 -0.00146526)
(-0.00352532 -0.00115004 -0.00146526)
(-0.00327206 -0.00174473 -0.00146526)
(-0.00291938 -0.00228641 -0.00146526)
(-0.002478 -0.00275862 -0.00146526)
(-0.00196132 -0.00314701 -0.00146526)
(-0.00138505 -0.00343978 -0.00146526)
(-0.000766702 -0.00362803 -0.00146526)
(-0.000125052 -0.00370605 -0.00146526)
(0.000520397 -0.00367146 -0.00146526)
(0.00115004 -0.00352532 -0.00146526)
(0.00174473 -0.00327206 -0.00146526)
(0.00228641 -0.00291938 -0.00146526)
(0.00275862 -0.002478 -0.00146526)
(0.00314701 -0.00196132 -0.00146526)
(0.00343978 -0.00138505 -0.00146526)
(0.00362803 -0.000766702 -0.00146526)
(0.00370605 -0.000125052 -0.00146526)
(0.00367147 0.000520397 -0.00146526)
(0.00352532 0.00115004 -0.00146526)
(0.00327206 0.00174473 -0.00146526)
(0.00291938 0.00228641 -0.00146526)
(0.002478 0.00275862 -0.00146526)
(0.00196132 0.00314701 -0.00146526)
(0.00138505 0.00343978 -0.00146526)
(0.000766702 0.00362803 -0.00146526)
(0.000125052 0.00370605 -0.00146526)
(-0.000520397 0.00367147 -0.00146526)
(-0.00115004 0.00352532 -0.00146526)
(-0.00173652 0.00320542 -0.00132603)
(-0.00226675 0.00285518 -0.00132603)
(-0.00272811 0.00241819 -0.00132603)
(-0.00310658 0.00190772 -0.00132603)
(-0.00339066 0.00133928 -0.00132603)
(-0.00357171 0.000730155 -0.00132603)
(-0.00364424 9.88418e-05 -0.00132603)
(-0.00360604 -0.000535475 -0.00132603)
(-0.00345827 -0.00115352 -0.00132603)
(-0.00320542 -0.00173652 -0.00132603)
(-0.00285518 -0.00226675 -0.00132603)
(-0.00241819 -0.00272811 -0.00132603)
(-0.00190772 -0.00310658 -0.00132603)
(-0.00133928 -0.00339066 -0.00132603)
(-0.000730155 -0.00357171 -0.00132603)
(-9.88417e-05 -0.00364424 -0.00132603)
(0.000535475 -0.00360604 -0.00132603)
(0.00115352 -0.00345827 -0.00132603)
(0.00173652 -0.00320542 -0.00132603)
(0.00226675 -0.00285518 -0.00132603)
(0.00272811 -0.00241819 -0.00132603)
(0.00310658 -0.00190772 -0.00132603)
(0.00339066 -0.00133928 -0.00132603)
(0.00357171 -0.000730155 -0.00132603)
(0.00364424 -9.88418e-05 -0.00132603)
(0.00360604 0.000535475 -0.00132603)
(0.00345827 0.00115352 -0.00132603)
(0.00320542 0.00173652 -0.00132603)
(0.00285518 0.00226675 -0.00132603)
(0.00241819 0.00272811 -0.00132603)
(0.00190772 0.00310658 -0.00132603)
(0.00133928 0.00339066 -0.00132602)
(0.000730155 0.00357171 -0.00132603)
(9.88419e-05 0.00364424 -0.00132603)
(-0.000535475 0.00360604 -0.00132603)
(-0.00115352 0.00345827 -0.00132603)
(-0.00201481 0.00367881 -0.00194746)
(-0.00262302 0.00327305 -0.00194746)
(-0.00315153 0.00276784 -0.00194746)
(-0.00358428 0.00217853 -0.00194746)