/*--------------------------------*- C++ -*----------------------------------*\
| =========                 |                                                 |
| \\      /  F ield         | OpenFOAM: The Open Source CFD Toolbox           |
|  \\    /   O peration     | Version:  2312                                  |
|   \\  /    A nd           | Website:  www.openfoam.com                      |
|    \\/     M anipulation  |                                                 |
\*---------------------------------------------------------------------------*/
FoamFile
{
    version     2.0;
    format      ascii;
    arch        "LSB;label=32;scalar=64";
    class       volVectorField;
    location    "0.3";
    object      D_0_0_0;
}
// * * * * * * * * * * * * * * * * * * * * * * * * * * * * * * * * * * * * * //

dimensions      [0 1 0 0 0 0 0];

internalField   nonuniform List<vector> 
1620
(
(-0.000178592 0.00025687 -7.07404e-05)
(-0.000220484 0.000221955 -7.07405e-05)
(-0.000255676 0.000180297 -7.07405e-05)
(-0.000283101 0.00013316 -7.07405e-05)
(-0.000301923 8.19775e-05 -7.07406e-05)
(-0.000311571 2.83036e-05 -7.07406e-05)
(-0.000311752 -2.62302e-05 -7.07403e-05)
(-0.000302461 -7.99667e-05 -7.07403e-05)
(-0.00028398 -0.000131274 -7.07404e-05)
(-0.00025687 -0.000178592 -7.07404e-05)
(-0.000221955 -0.000220484 -7.07405e-05)
(-0.000180297 -0.000255676 -7.07405e-05)
(-0.00013316 -0.000283101 -7.07405e-05)
(-8.19775e-05 -0.000301923 -7.07406e-05)
(-2.83036e-05 -0.000311571 -7.07406e-05)
(2.62302e-05 -0.000311752 -7.07404e-05)
(7.99667e-05 -0.000302461 -7.07403e-05)
(0.000131274 -0.00028398 -7.07404e-05)
(0.000178592 -0.00025687 -7.07404e-05)
(0.000220484 -0.000221955 -7.07405e-05)
(0.000255676 -0.000180297 -7.07405e-05)
(0.000283101 -0.00013316 -7.07405e-05)
(0.000301923 -8.19775e-05 -7.07406e-05)
(0.000311571 -2.83036e-05 -7.07406e-05)
(0.000311752 2.62302e-05 -7.07403e-05)
(0.000302461 7.99667e-05 -7.07403e-05)
(0.00028398 0.000131274 -7.07404e-05)
(0.00025687 0.000178592 -7.07404e-05)
(0.000221955 0.000220484 -7.07405e-05)
(0.000180297 0.000255676 -7.07405e-05)
(0.00013316 0.000283101 -7.07405e-05)
(8.19775e-05 0.000301923 -7.07406e-05)
(2.83037e-05 0.000311571 -7.07406e-05)
(-2.62302e-05 0.000311752 -7.07403e-05)
(-7.99667e-05 0.000302461 -7.07403e-05)
(-0.000131274 0.00028398 -7.07404e-05)
(-0.000138691 0.000283528 -4.91422e-05)
(-0.000185818 0.000255137 -4.91422e-05)
(-0.000227299 0.000218993 -4.91422e-05)
(-0.000261874 0.000176197 -4.91422e-05)
(-0.000288492 0.000128046 -4.91423e-05)
(-0.000306344 7.60043e-05 -4.91422e-05)
(-0.000314888 2.16536e-05 -4.91422e-05)
(-0.000313864 -3.3355e-05 -4.91421e-05)
(-0.000303304 -8.73503e-05 -4.91422e-05)
(-0.000283528 -0.000138691 -4.91422e-05)
(-0.000255137 -0.000185818 -4.91422e-05)
(-0.000218993 -0.000227299 -4.91422e-05)
(-0.000176197 -0.000261874 -4.91422e-05)
(-0.000128046 -0.000288492 -4.91423e-05)
(-7.60043e-05 -0.000306344 -4.91422e-05)
(-2.16536e-05 -0.000314888 -4.91422e-05)
(3.3355e-05 -0.000313864 -4.91421e-05)
(8.73503e-05 -0.000303304 -4.91422e-05)
(0.000138691 -0.000283528 -4.91422e-05)
(0.000185818 -0.000255137 -4.91422e-05)
(0.000227299 -0.000218993 -4.91422e-05)
(0.000261874 -0.000176197 -4.91422e-05)
(0.000288492 -0.000128046 -4.91423e-05)
(0.000306344 -7.60043e-05 -4.91422e-05)
(0.000314888 -2.16536e-05 -4.91422e-05)
(0.000313864 3.3355e-05 -4.91421e-05)
(0.000303304 8.73503e-05 -4.91422e-05)
(0.000283528 0.000138691 -4.91422e-05)
(0.000255137 0.000185818 -4.91422e-05)
(0.000218993 0.000227299 -4.91422e-05)
(0.000176197 0.000261874 -4.91422e-05)
(0.000128046 0.000288492 -4.91423e-05)
(7.60043e-05 0.000306344 -4.91422e-05)
(2.16536e-05 0.000314888 -4.91421e-05)
(-3.3355e-05 0.000313864 -4.91421e-05)
(-8.73503e-05 0.000303304 -4.91422e-05)
(-0.000111673 0.000310135 -3.30663e-05)
(-0.000163831 0.000286031 -3.30663e-05)
(-0.000211011 0.000253237 -3.30664e-05)
(-0.000251779 0.000212748 -3.30663e-05)
(-0.000284898 0.000165795 -3.30664e-05)
(-0.000309359 0.000113804 -3.30663e-05)
(-0.000324422 5.83554e-05 -3.30664e-05)
(-0.000329626 1.13363e-06 -3.30664e-05)
(-0.000324815 -5.61225e-05 -3.30663e-05)
(-0.000310135 -0.000111673 -3.30663e-05)
(-0.000286031 -0.000163831 -3.30663e-05)
(-0.000253237 -0.000211011 -3.30664e-05)
(-0.000212748 -0.000251779 -3.30663e-05)
(-0.000165795 -0.000284898 -3.30664e-05)
(-0.000113804 -0.000309359 -3.30663e-05)
(-5.83554e-05 -0.000324422 -3.30664e-05)
(-1.13362e-06 -0.000329626 -3.30664e-05)
(5.61225e-05 -0.000324815 -3.30663e-05)
(0.000111673 -0.000310135 -3.30663e-05)
(0.000163831 -0.000286031 -3.30663e-05)
(0.000211011 -0.000253237 -3.30664e-05)
(0.000251779 -0.000212748 -3.30663e-05)
(0.000284898 -0.000165795 -3.30664e-05)
(0.000309359 -0.000113804 -3.30663e-05)
(0.000324422 -5.83554e-05 -3.30664e-05)
(0.000329626 -1.13362e-06 -3.30664e-05)
(0.000324815 5.61225e-05 -3.30663e-05)
(0.000310135 0.000111673 -3.30663e-05)
(0.000286031 0.000163831 -3.30663e-05)
(0.000253237 0.000211011 -3.30664e-05)
(0.000212748 0.000251779 -3.30663e-05)
(0.000165795 0.000284898 -3.30664e-05)
(0.000113804 0.000309359 -3.30663e-05)
(5.83554e-05 0.000324422 -3.30664e-05)
(1.13362e-06 0.000329626 -3.30664e-05)
(-5.61225e-05 0.000324815 -3.30663e-05)
(-0.000450475 0.000807814 -0.000215967)
(-0.000583907 0.000717318 -0.000215968)
(-0.000699597 0.000605026 -0.000215968)
(-0.00079403 0.00047435 -0.000215967)
(-0.000864337 0.000329262 -0.000215967)
(-0.000908381 0.00017417 -0.000215967)
(-0.000924826 1.37846e-05 -0.000215967)
(-0.000913169 -0.000147019 -0.000215967)
(-0.000873766 -0.000303356 -0.000215967)
(-0.000807814 -0.000450475 -0.000215967)
(-0.000717318 -0.000583907 -0.000215968)
(-0.000605026 -0.000699597 -0.000215968)
(-0.00047435 -0.00079403 -0.000215967)
(-0.000329262 -0.000864337 -0.000215967)
(-0.00017417 -0.000908381 -0.000215967)
(-1.37846e-05 -0.000924826 -0.000215967)
(0.000147019 -0.000913169 -0.000215967)
(0.000303356 -0.000873766 -0.000215967)
(0.000450475 -0.000807814 -0.000215967)
(0.000583907 -0.000717318 -0.000215968)
(0.000699597 -0.000605026 -0.000215968)
(0.00079403 -0.00047435 -0.000215967)
(0.000864337 -0.000329262 -0.000215967)
(0.000908381 -0.00017417 -0.000215967)
(0.000924826 -1.37846e-05 -0.000215967)
(0.000913169 0.000147019 -0.000215967)
(0.000873766 0.000303356 -0.000215967)
(0.000807814 0.000450475 -0.000215967)
(0.000717318 0.000583907 -0.000215968)
(0.000605026 0.000699597 -0.000215968)
(0.00047435 0.00079403 -0.000215967)
(0.000329262 0.000864337 -0.000215967)
(0.00017417 0.000908381 -0.000215967)
(1.37846e-05 0.000924826 -0.000215967)
(-0.000147019 0.000913169 -0.000215967)
(-0.000303356 0.000873766 -0.000215967)
(-0.000415373 0.000846153 -0.000167416)
(-0.000555995 0.000761169 -0.000167416)
(-0.000679724 0.000653058 -0.000167416)
(-0.0007828 0.000525104 -0.000167416)
(-0.000862091 0.000381195 -0.000167416)
(-0.000915188 0.000225703 -0.000167416)
(-0.000940477 6.33532e-05 -0.000167416)
(-0.000937189 -0.000100921 -0.000167416)
(-0.000905427 -0.000262129 -0.000167416)
(-0.000846153 -0.000415373 -0.000167416)
(-0.000761169 -0.000555995 -0.000167416)
(-0.000653058 -0.000679724 -0.000167416)
(-0.000525104 -0.0007828 -0.000167416)
(-0.000381195 -0.000862091 -0.000167416)
(-0.000225703 -0.000915188 -0.000167416)
(-6.33532e-05 -0.000940477 -0.000167416)
(0.000100921 -0.000937189 -0.000167416)
(0.000262129 -0.000905427 -0.000167416)
(0.000415373 -0.000846153 -0.000167416)
(0.000555995 -0.000761169 -0.000167416)
(0.000679724 -0.000653058 -0.000167416)
(0.0007828 -0.000525104 -0.000167416)
(0.000862091 -0.000381195 -0.000167416)
(0.000915188 -0.000225703 -0.000167416)
(0.000940477 -6.33532e-05 -0.000167416)
(0.000937189 0.000100921 -0.000167416)
(0.000905427 0.000262129 -0.000167416)
(0.000846153 0.000415373 -0.000167416)
(0.000761169 0.000555995 -0.000167416)
(0.000653058 0.000679724 -0.000167416)
(0.000525104 0.0007828 -0.000167416)
(0.000381195 0.000862091 -0.000167416)
(0.000225703 0.000915188 -0.000167416)
(6.33532e-05 0.000940477 -0.000167416)
(-0.000100921 0.000937189 -0.000167415)
(-0.000262129 0.000905427 -0.000167416)
(-0.000396253 0.000881379 -0.0001208)
(-0.000543282 0.00079918 -0.0001208)
(-0.000673804 0.000692699 -0.0001208)
(-0.000783853 0.00056517 -0.0001208)
(-0.000870086 0.000420469 -0.0001208)
(-0.000929881 0.000262992 -0.0001208)
(-0.000961423 9.75245e-05 -0.0001208)
(-0.000963752 -7.09061e-05 -0.0001208)
(-0.000936798 -0.000237183 -0.0001208)
(-0.000881379 -0.000396253 -0.0001208)
(-0.00079918 -0.000543282 -0.0001208)
(-0.000692699 -0.000673804 -0.0001208)
(-0.00056517 -0.000783853 -0.0001208)
(-0.000420469 -0.000870086 -0.0001208)
(-0.000262992 -0.000929881 -0.0001208)
(-9.75245e-05 -0.000961423 -0.0001208)
(7.09061e-05 -0.000963752 -0.0001208)
(0.000237183 -0.000936798 -0.0001208)
(0.000396253 -0.000881379 -0.0001208)
(0.000543282 -0.00079918 -0.0001208)
(0.000673804 -0.000692699 -0.0001208)
(0.000783853 -0.00056517 -0.0001208)
(0.000870086 -0.000420469 -0.0001208)
(0.000929881 -0.000262992 -0.0001208)
(0.000961423 -9.75245e-05 -0.0001208)
(0.000963752 7.09061e-05 -0.0001208)
(0.000936798 0.000237183 -0.0001208)
(0.000881379 0.000396253 -0.0001208)
(0.00079918 0.000543282 -0.0001208)
(0.000692699 0.000673805 -0.0001208)
(0.00056517 0.000783854 -0.0001208)
(0.000420469 0.000870086 -0.0001208)
(0.000262992 0.000929881 -0.0001208)
(9.75245e-05 0.000961423 -0.0001208)
(-7.09061e-05 0.000963752 -0.0001208)
(-0.000237183 0.000936798 -0.0001208)
(-0.000719268 0.0013519 -0.000412036)
(-0.000943095 0.00120646 -0.000412036)
(-0.00113827 0.00102436 -0.000412036)
(-0.00129885 0.000811144 -0.000412035)
(-0.00141997 0.000573278 -0.000412035)
(-0.00149795 0.000317993 -0.000412035)
(-0.00153041 5.30452e-05 -0.000412035)
(-0.00151637 -0.000213514 -0.000412035)
(-0.00145626 -0.000473586 -0.000412036)
(-0.0013519 -0.000719268 -0.000412036)
(-0.00120646 -0.000943095 -0.000412036)
(-0.00102436 -0.00113827 -0.000412036)
(-0.000811144 -0.00129885 -0.000412035)
(-0.000573278 -0.00141997 -0.000412035)
(-0.000317993 -0.00149795 -0.000412035)
(-5.30451e-05 -0.00153041 -0.000412035)
(0.000213514 -0.00151637 -0.000412035)
(0.000473586 -0.00145626 -0.000412036)
(0.000719268 -0.0013519 -0.000412036)
(0.000943095 -0.00120646 -0.000412036)
(0.00113827 -0.00102436 -0.000412036)
(0.00129885 -0.000811144 -0.000412035)
(0.00141997 -0.000573278 -0.000412035)
(0.00149795 -0.000317993 -0.000412035)
(0.00153041 -5.30451e-05 -0.000412035)
(0.00151637 0.000213514 -0.000412035)
(0.00145626 0.000473586 -0.000412035)
(0.0013519 0.000719268 -0.000412036)
(0.00120646 0.000943095 -0.000412036)
(0.00102436 0.00113827 -0.000412036)
(0.000811144 0.00129885 -0.000412035)
(0.000573278 0.00141997 -0.000412035)
(0.000317993 0.00149795 -0.000412035)
(5.30452e-05 0.00153041 -0.000412035)
(-0.000213514 0.00151637 -0.000412035)
(-0.000473586 0.00145626 -0.000412035)
(-0.000687277 0.00139635 -0.000339823)
(-0.00091931 0.00125579 -0.000339823)
(-0.00112341 0.00107708 -0.000339823)
(-0.00129337 0.000865637 -0.000339823)
(-0.00142404 0.000627893 -0.000339823)
(-0.00151144 0.000371072 -0.000339823)
(-0.00155291 0.000102976 -0.000339823)
(-0.0015472 -0.00016825 -0.000339823)
(-0.00149448 -0.000434362 -0.000339823)
(-0.00139635 -0.000687277 -0.000339823)
(-0.00125579 -0.00091931 -0.000339823)
(-0.00107708 -0.00112341 -0.000339823)
(-0.000865637 -0.00129337 -0.000339823)
(-0.000627893 -0.00142404 -0.000339823)
(-0.000371072 -0.00151144 -0.000339823)
(-0.000102976 -0.00155291 -0.000339823)
(0.00016825 -0.0015472 -0.000339823)
(0.000434362 -0.00149448 -0.000339823)
(0.000687277 -0.00139635 -0.000339823)
(0.00091931 -0.00125579 -0.000339823)
(0.00112341 -0.00107708 -0.000339823)
(0.00129337 -0.000865637 -0.000339823)
(0.00142404 -0.000627893 -0.000339823)
(0.00151144 -0.000371072 -0.000339823)
(0.00155291 -0.000102976 -0.000339823)
(0.0015472 0.00016825 -0.000339823)
(0.00149448 0.000434362 -0.000339823)
(0.00139635 0.000687277 -0.000339823)
(0.00125579 0.00091931 -0.000339823)
(0.00107708 0.00112341 -0.000339823)
(0.000865637 0.00129337 -0.000339823)
(0.000627893 0.00142404 -0.000339823)
(0.000371072 0.00151144 -0.000339823)
(0.000102976 0.00155291 -0.000339823)
(-0.00016825 0.0015472 -0.000339823)
(-0.000434362 0.00149448 -0.000339823)
(-0.000672448 0.00143451 -0.000269778)
(-0.000911332 0.00129595 -0.000269778)
(-0.00112253 0.00111801 -0.000269778)
(-0.00129961 0.000906099 -0.000269778)
(-0.00143721 0.000666658 -0.000269778)
(-0.00153114 0.00040696 -0.000269778)
(-0.00157855 0.000134898 -0.000269778)
(-0.00157799 -0.000141263 -0.000269778)
(-0.00152949 -0.000413132 -0.000269778)
(-0.00143451 -0.000672448 -0.000269778)
(-0.00129595 -0.000911332 -0.000269778)
(-0.00111801 -0.00112253 -0.000269778)
(-0.000906099 -0.00129961 -0.000269778)
(-0.000666658 -0.00143721 -0.000269778)
(-0.00040696 -0.00153114 -0.000269778)
(-0.000134898 -0.00157855 -0.000269778)
(0.000141263 -0.00157799 -0.000269778)
(0.000413132 -0.00152949 -0.000269778)
(0.000672448 -0.00143451 -0.000269778)
(0.000911332 -0.00129595 -0.000269778)
(0.00112253 -0.00111801 -0.000269778)
(0.00129961 -0.000906099 -0.000269778)
(0.00143721 -0.000666658 -0.000269778)
(0.00153114 -0.00040696 -0.000269778)
(0.00157855 -0.000134898 -0.000269778)
(0.00157799 0.000141263 -0.000269778)
(0.00152949 0.000413132 -0.000269778)
(0.00143451 0.000672448 -0.000269778)
(0.00129595 0.000911332 -0.000269778)
(0.00111801 0.00112253 -0.000269778)
(0.000906099 0.00129961 -0.000269778)
(0.000666658 0.00143721 -0.000269778)
(0.00040696 0.00153114 -0.000269778)
(0.000134898 0.00157855 -0.000269778)
(-0.000141263 0.00157799 -0.000269778)
(-0.000413132 0.00152949 -0.000269778)
(-0.000979702 0.00188202 -0.000649156)
(-0.00129163 0.00168331 -0.000649157)
(-0.00156431 0.00143344 -0.000649157)
(-0.00178946 0.00114003 -0.000649157)
(-0.00196023 0.000811972 -0.000649156)
(-0.00207145 0.000459245 -0.000649156)
(-0.00211973 9.25643e-05 -0.000649156)
(-0.0021036 -0.00027693 -0.000649156)
(-0.00202355 -0.000638009 -0.000649156)
(-0.00188202 -0.000979702 -0.000649156)
(-0.00168331 -0.00129163 -0.000649157)
(-0.00143344 -0.00156431 -0.000649157)
(-0.00114003 -0.00178946 -0.000649157)
(-0.000811972 -0.00196023 -0.000649156)
(-0.000459245 -0.00207145 -0.000649156)
(-9.25642e-05 -0.00211973 -0.000649156)
(0.00027693 -0.0021036 -0.000649156)
(0.000638009 -0.00202355 -0.000649156)
(0.000979702 -0.00188202 -0.000649156)
(0.00129163 -0.00168331 -0.000649157)
(0.00156431 -0.00143344 -0.000649157)
(0.00178946 -0.00114003 -0.000649157)
(0.00196023 -0.000811972 -0.000649156)
(0.00207145 -0.000459245 -0.000649156)
(0.00211973 -9.25642e-05 -0.000649156)
(0.0021036 0.00027693 -0.000649156)
(0.00202355 0.000638009 -0.000649156)
(0.00188202 0.000979702 -0.000649156)
(0.00168331 0.00129163 -0.000649157)
(0.00143344 0.00156431 -0.000649156)
(0.00114003 0.00178946 -0.000649156)
(0.000811972 0.00196023 -0.000649156)
(0.000459245 0.00207145 -0.000649156)
(9.25643e-05 0.00211973 -0.000649156)
(-0.00027693 0.0021036 -0.000649156)
(-0.000638009 0.00202355 -0.000649156)
(-0.000951767 0.00192191 -0.000556694)
(-0.00127104 0.00172744 -0.000556694)
(-0.0015517 0.00148048 -0.000556694)
(-0.00178521 0.00118854 -0.000556694)
(-0.00196448 0.000860486 -0.000556694)
(-0.00208405 0.000506286 -0.000556694)
(-0.00214031 0.000136702 -0.000556694)
(-0.00213153 -0.000237035 -0.000556694)
(-0.00205799 -0.000603571 -0.000556694)
(-0.00192191 -0.000951767 -0.000556694)
(-0.00172744 -0.00127104 -0.000556694)
(-0.00148048 -0.0015517 -0.000556694)
(-0.00118854 -0.00178521 -0.000556694)
(-0.000860486 -0.00196448 -0.000556694)
(-0.000506285 -0.00208405 -0.000556694)
(-0.000136702 -0.00214031 -0.000556694)
(0.000237035 -0.00213153 -0.000556694)
(0.000603571 -0.00205799 -0.000556694)
(0.000951767 -0.00192191 -0.000556694)
(0.00127104 -0.00172744 -0.000556694)
(0.0015517 -0.00148048 -0.000556694)
(0.00178521 -0.00118854 -0.000556694)
(0.00196448 -0.000860486 -0.000556694)
(0.00208405 -0.000506286 -0.000556694)
(0.00214031 -0.000136702 -0.000556694)
(0.00213153 0.000237035 -0.000556694)
(0.00205799 0.000603571 -0.000556694)
(0.00192191 0.000951767 -0.000556694)
(0.00172744 0.00127104 -0.000556694)
(0.00148048 0.0015517 -0.000556694)
(0.00118854 0.00178521 -0.000556694)
(0.000860486 0.00196448 -0.000556694)
(0.000506286 0.00208405 -0.000556694)
(0.000136702 0.00214031 -0.000556694)
(-0.000237035 0.00213153 -0.000556694)
(-0.000603571 0.00205799 -0.000556694)
(-0.000942035 0.00195192 -0.000467254)
(-0.00126667 0.00175869 -0.000467254)
(-0.00155282 0.00151201 -0.000467254)
(-0.00179179 0.0012194 -0.000467254)
(-0.00197631 0.000889733 -0.000467254)
(-0.00210079 0.000533033 -0.000467254)
(-0.00216143 0.000160136 -0.000467254)
(-0.0021564 -0.000217626 -0.000467254)
(-0.00208585 -0.000588775 -0.000467254)
(-0.00195192 -0.000942035 -0.000467254)
(-0.00175869 -0.00126667 -0.000467254)
(-0.00151201 -0.00155282 -0.000467254)
(-0.0012194 -0.00179179 -0.000467254)
(-0.000889733 -0.00197631 -0.000467254)
(-0.000533033 -0.00210079 -0.000467254)
(-0.000160136 -0.00216143 -0.000467254)
(0.000217626 -0.0021564 -0.000467254)
(0.000588775 -0.00208585 -0.000467254)
(0.000942036 -0.00195192 -0.000467254)
(0.00126667 -0.00175869 -0.000467254)
(0.00155282 -0.00151201 -0.000467254)
(0.00179179 -0.0012194 -0.000467254)
(0.00197631 -0.000889733 -0.000467254)
(0.00210079 -0.000533033 -0.000467254)
(0.00216143 -0.000160136 -0.000467254)
(0.0021564 0.000217626 -0.000467254)
(0.00208585 0.000588775 -0.000467254)
(0.00195192 0.000942036 -0.000467254)
(0.00175869 0.00126667 -0.000467254)
(0.00151201 0.00155282 -0.000467254)
(0.0012194 0.00179179 -0.000467254)
(0.000889733 0.00197631 -0.000467254)
(0.000533033 0.00210079 -0.000467254)
(0.000160136 0.00216143 -0.000467254)
(-0.000217626 0.0021564 -0.000467254)
(-0.000588775 0.00208585 -0.000467254)
(-0.00123399 0.00238919 -0.00092007)
(-0.00163012 0.00213861 -0.00092007)
(-0.00197672 0.00182305 -0.00092007)
(-0.00226326 0.0014521 -0.00092007)
(-0.00248103 0.00103703 -0.00092007)
(-0.00262342 0.000590449 -0.00092007)
(-0.00268609 0.000125927 -0.000920069)
(-0.00266715 -0.000342422 -0.000920069)
(-0.00256717 -0.000800366 -0.000920069)
(-0.00238919 -0.00123399 -0.00092007)
(-0.00213861 -0.00163012 -0.00092007)
(-0.00182305 -0.00197672 -0.00092007)
(-0.0014521 -0.00226326 -0.00092007)
(-0.00103703 -0.00248103 -0.00092007)
(-0.000590449 -0.00262342 -0.00092007)
(-0.000125927 -0.00268609 -0.000920069)
(0.000342422 -0.00266715 -0.000920069)
(0.000800366 -0.00256717 -0.00092007)
(0.00123399 -0.00238919 -0.00092007)
(0.00163012 -0.00213861 -0.00092007)
(0.00197672 -0.00182305 -0.00092007)
(0.00226326 -0.0014521 -0.00092007)
(0.00248103 -0.00103703 -0.00092007)
(0.00262342 -0.000590449 -0.00092007)
(0.00268609 -0.000125927 -0.000920069)
(0.00266715 0.000342422 -0.000920069)
(0.00256717 0.000800366 -0.000920069)
(0.00238919 0.00123399 -0.00092007)
(0.00213861 0.00163012 -0.00092007)
(0.00182305 0.00197672 -0.00092007)
(0.0014521 0.00226326 -0.00092007)
(0.00103703 0.00248103 -0.00092007)
(0.000590449 0.00262342 -0.00092007)
(0.000125927 0.00268609 -0.000920069)
(-0.000342422 0.00266715 -0.000920069)
(-0.000800366 0.00256717 -0.000920069)
(-0.00120923 0.00241023 -0.000810875)
(-0.00160939 0.00216363 -0.000810875)
(-0.00196065 0.00185129 -0.000810875)
(-0.00225234 0.0014827 -0.000810875)
(-0.00247559 0.00106906 -0.000810875)
(-0.00262362 0.000622942 -0.000810875)
(-0.00269193 0.000157891 -0.000810875)
(-0.00267845 -0.000311957 -0.000810875)
(-0.00258359 -0.000772326 -0.000810875)
(-0.00241023 -0.00120923 -0.000810875)
(-0.00216363 -0.00160939 -0.000810875)
(-0.00185129 -0.00196065 -0.000810875)
(-0.0014827 -0.00225234 -0.000810875)
(-0.00106906 -0.00247559 -0.000810875)
(-0.000622941 -0.00262362 -0.000810875)
(-0.000157891 -0.00269193 -0.000810875)
(0.000311957 -0.00267845 -0.000810875)
(0.000772326 -0.00258359 -0.000810875)
(0.00120923 -0.00241023 -0.000810875)
(0.00160939 -0.00216363 -0.000810875)
(0.00196065 -0.00185129 -0.000810875)
(0.00225234 -0.0014827 -0.000810875)
(0.00247559 -0.00106906 -0.000810875)
(0.00262362 -0.000622942 -0.000810875)
(0.00269193 -0.000157891 -0.000810875)
(0.00267845 0.000311957 -0.000810875)
(0.00258359 0.000772326 -0.000810874)
(0.00241023 0.00120923 -0.000810875)
(0.00216363 0.00160939 -0.000810875)
(0.00185129 0.00196065 -0.000810875)
(0.0014827 0.00225234 -0.000810875)
(0.00106906 0.00247559 -0.000810875)
(0.000622942 0.00262362 -0.000810875)
(0.000157891 0.00269193 -0.000810875)
(-0.000311957 0.00267845 -0.000810875)
(-0.000772326 0.00258359 -0.000810874)
(-0.00120309 0.00241817 -0.000705602)
(-0.00160472 0.00217252 -0.000705602)
(-0.0019576 0.00186086 -0.000705602)
(-0.00225099 0.00149265 -0.000705601)
(-0.00247599 0.0010791 -0.000705602)
(-0.00262576 0.000632751 -0.000705602)
(-0.00269574 0.000167179 -0.000705602)
(-0.00268382 -0.000303472 -0.000705602)
(-0.00259035 -0.000764902 -0.000705602)
(-0.00241817 -0.00120309 -0.000705602)
(-0.00217252 -0.00160472 -0.000705602)
(-0.00186086 -0.0019576 -0.000705602)
(-0.00149265 -0.00225099 -0.000705602)
(-0.0010791 -0.00247599 -0.000705602)
(-0.00063275 -0.00262576 -0.000705602)
(-0.000167179 -0.00269574 -0.000705602)
(0.000303472 -0.00268382 -0.000705602)
(0.000764902 -0.00259035 -0.000705602)
(0.00120309 -0.00241817 -0.000705602)
(0.00160472 -0.00217252 -0.000705602)
(0.0019576 -0.00186086 -0.000705602)
(0.00225099 -0.00149265 -0.000705601)
(0.00247599 -0.0010791 -0.000705602)
(0.00262576 -0.000632751 -0.000705601)
(0.00269574 -0.000167179 -0.000705602)
(0.00268382 0.000303472 -0.000705602)
(0.00259035 0.000764902 -0.000705602)
(0.00241817 0.00120309 -0.000705602)
(0.00217252 0.00160472 -0.000705602)
(0.00186086 0.0019576 -0.000705602)
(0.00149265 0.00225099 -0.000705601)
(0.0010791 0.00247599 -0.000705602)
(0.000632751 0.00262576 -0.000705601)
(0.000167179 0.00269574 -0.000705602)
(-0.000303472 0.00268382 -0.000705602)
(-0.000764902 0.00259035 -0.000705602)
(-0.00148466 0.00286143 -0.00121696)
(-0.00195899 0.00256015 -0.00121696)
(-0.00237379 0.00218108 -0.00121696)
(-0.00271647 0.00173574 -0.00121696)
(-0.0029766 0.00123766 -0.00121696)
(-0.0031463 0.000701971 -0.00121696)
(-0.0032204 0.000144957 -0.00121696)
(-0.00319664 -0.000416462 -0.00121696)
(-0.00307576 -0.000965226 -0.00121696)
(-0.00286143 -0.00148466 -0.00121696)
(-0.00256015 -0.00195899 -0.00121696)
(-0.00218108 -0.00237379 -0.00121696)
(-0.00173574 -0.00271647 -0.00121696)
(-0.00123766 -0.00297661 -0.00121696)
(-0.000701971 -0.0031463 -0.00121696)
(-0.000144957 -0.0032204 -0.00121696)
(0.000416462 -0.00319664 -0.00121696)
(0.000965226 -0.00307576 -0.00121696)
(0.00148466 -0.00286143 -0.00121696)
(0.00195899 -0.00256015 -0.00121696)
(0.00237379 -0.00218108 -0.00121696)
(0.00271647 -0.00173574 -0.00121696)
(0.00297661 -0.00123766 -0.00121696)
(0.0031463 -0.000701971 -0.00121696)
(0.0032204 -0.000144957 -0.00121696)
(0.00319664 0.000416462 -0.00121696)
(0.00307576 0.000965226 -0.00121696)
(0.00286143 0.00148466 -0.00121696)
(0.00256015 0.00195899 -0.00121696)
(0.00218108 0.00237379 -0.00121696)
(0.00173574 0.00271647 -0.00121696)
(0.00123766 0.00297661 -0.00121696)
(0.000701971 0.0031463 -0.00121696)
(0.000144957 0.0032204 -0.00121696)
(-0.000416462 0.00319664 -0.00121696)
(-0.000965226 0.00307576 -0.00121696)
(-0.00145979 0.00284802 -0.00109381)
(-0.00193216 0.00255126 -0.00109381)
(-0.00234583 0.00217699 -0.00109381)
(-0.00268822 0.00173657 -0.00109381)
(-0.00294893 0.00124338 -0.00109381)
(-0.00312004 0.000712412 -0.00109381)
(-0.00319635 0.000159799 -0.00109381)
(-0.00317554 -0.000397669 -0.00109381)
(-0.00305824 -0.000943056 -0.00109381)
(-0.00284802 -0.00145979 -0.00109381)
(-0.00255126 -0.00193216 -0.00109381)
(-0.00217699 -0.00234583 -0.00109381)
(-0.00173657 -0.00268822 -0.00109381)
(-0.00124338 -0.00294893 -0.00109381)
(-0.000712412 -0.00312004 -0.00109381)
(-0.000159799 -0.00319635 -0.00109381)
(0.00039767 -0.00317554 -0.00109381)
(0.000943056 -0.00305824 -0.00109381)
(0.00145979 -0.00284802 -0.00109381)
(0.00193216 -0.00255126 -0.00109381)
(0.00234583 -0.00217699 -0.00109381)
(0.00268822 -0.00173657 -0.00109381)
(0.00294893 -0.00124338 -0.00109381)
(0.00312004 -0.000712412 -0.00109381)
(0.00319635 -0.000159799 -0.00109381)
(0.00317554 0.00039767 -0.00109381)
(0.00305824 0.000943056 -0.00109381)
(0.00284802 0.00145979 -0.00109381)
(0.00255126 0.00193216 -0.00109381)
(0.00217699 0.00234583 -0.00109381)
(0.00173657 0.00268822 -0.00109381)
(0.00124338 0.00294893 -0.00109381)
(0.000712412 0.00312004 -0.00109381)
(0.000159799 0.00319635 -0.00109381)
(-0.000397669 0.00317554 -0.00109381)
(-0.000943056 0.00305824 -0.00109381)
(-0.00145299 0.00281933 -0.00097541)
(-0.00192048 0.00252419 -0.000975411)
(-0.00232963 0.00215235 -0.00097541)
(-0.00266799 0.00171512 -0.000975411)
(-0.00292528 0.00122577 -0.00097541)
(-0.00309369 0.000699176 -0.000975411)
(-0.0031681 0.000151341 -0.00097541)
(-0.00314625 -0.000401094 -0.000975411)
(-0.0030288 -0.000941342 -0.00097541)
(-0.00281933 -0.00145299 -0.00097541)
(-0.00252419 -0.00192048 -0.000975411)
(-0.00215235 -0.00232963 -0.00097541)
(-0.00171512 -0.00266799 -0.000975411)
(-0.00122577 -0.00292528 -0.00097541)
(-0.000699176 -0.00309369 -0.000975411)
(-0.000151341 -0.0031681 -0.00097541)
(0.000401094 -0.00314625 -0.000975411)
(0.000941342 -0.0030288 -0.00097541)
(0.00145299 -0.00281933 -0.00097541)
(0.00192048 -0.00252419 -0.000975411)
(0.00232963 -0.00215235 -0.00097541)
(0.00266799 -0.00171512 -0.000975411)
(0.00292528 -0.00122577 -0.00097541)
(0.00309369 -0.000699176 -0.00097541)
(0.0031681 -0.000151341 -0.00097541)
(0.00314625 0.000401094 -0.000975411)
(0.0030288 0.000941342 -0.00097541)
(0.00281933 0.00145299 -0.00097541)
(0.00252419 0.00192048 -0.000975411)
(0.00215235 0.00232963 -0.00097541)
(0.00171512 0.00266799 -0.00097541)
(0.00122577 0.00292528 -0.00097541)
(0.000699176 0.00309369 -0.00097541)
(0.000151341 0.0031681 -0.00097541)
(-0.000401094 0.00314625 -0.000975411)
(-0.000941342 0.0030288 -0.00097541)
(-0.00173128 0.00328286 -0.00153138)
(-0.00227504 0.00293235 -0.00153138)
(-0.00274968 0.00249274 -0.00153138)
(-0.00314076 0.0019774 -0.00153138)
(-0.00343642 0.00140197 -0.00153138)
(-0.00362766 0.000783942 -0.00153138)
(-0.00370868 0.000142096 -0.00153138)
(-0.00367701 -0.000504069 -0.00153138)
(-0.00353362 -0.00113492 -0.00153138)
(-0.00328286 -0.00173128 -0.00153138)
(-0.00293235 -0.00227504 -0.00153138)
(-0.00249274 -0.00274968 -0.00153138)
(-0.0019774 -0.00314076 -0.00153138)
(-0.00140197 -0.00343642 -0.00153138)
(-0.000783942 -0.00362766 -0.00153138)
(-0.000142096 -0.00370868 -0.00153138)
(0.000504069 -0.00367701 -0.00153138)
(0.00113492 -0.00353362 -0.00153138)
(0.00173128 -0.00328286 -0.00153138)
(0.00227504 -0.00293235 -0.00153138)
(0.00274968 -0.00249274 -0.00153138)
(0.00314076 -0.0019774 -0.00153138)
(0.00343642 -0.00140197 -0.00153138)
(0.00362766 -0.000783942 -0.00153138)
(0.00370868 -0.000142096 -0.00153138)
(0.00367701 0.000504069 -0.00153138)
(0.00353362 0.00113492 -0.00153138)
(0.00328286 0.00173128 -0.00153138)
(0.00293235 0.00227504 -0.00153138)
(0.00249274 0.00274968 -0.00153138)
(0.0019774 0.00314076 -0.00153138)
(0.00140197 0.00343642 -0.00153138)
(0.000783942 0.00362766 -0.00153138)
(0.000142096 0.00370868 -0.00153138)
(-0.000504069 0.00367701 -0.00153138)
(-0.00113492 0.00353362 -0.00153138)
(-0.00170074 0.00322037 -0.00139589)
(-0.00223412 0.00287611 -0.00139589)
(-0.00269961 0.00244447 -0.00139589)
(-0.00308307 0.00193855 -0.00139589)
(-0.00337286 0.00137373 -0.00139589)
(-0.00356016 0.000767167 -0.00139589)
(-0.00363929 0.000137296 -0.00139589)
(-0.00360784 -0.000496746 -0.00139589)
(-0.00346677 -0.0011157 -0.00139589)
(-0.00322037 -0.00170074 -0.00139589)
(-0.00287611 -0.00223412 -0.00139589)
(-0.00244446 -0.00269961 -0.00139589)
(-0.00193855 -0.00308307 -0.00139589)
(-0.00137373 -0.00337286 -0.00139589)
(-0.000767167 -0.00356016 -0.00139589)
(-0.000137295 -0.00363929 -0.00139589)
(0.000496746 -0.00360784 -0.00139589)
(0.0011157 -0.00346677 -0.00139589)
(0.00170074 -0.00322037 -0.00139589)
(0.00223412 -0.00287611 -0.00139589)
(0.00269961 -0.00244446 -0.00139589)
(0.00308307 -0.00193855 -0.00139589)
(0.00337286 -0.00137373 -0.00139589)
(0.00356016 -0.000767167 -0.00139589)
(0.00363929 -0.000137295 -0.00139589)
(0.00360784 0.000496746 -0.00139589)
(0.00346677 0.0011157 -0.00139589)
(0.00322037 0.00170074 -0.00139589)
(0.00287611 0.00223412 -0.00139589)
(0.00244447 0.00269961 -0.00139589)
(0.00193855 0.00308307 -0.00139589)
(0.00137373 0.00337286 -0.00139589)
(0.000767167 0.00356016 -0.00139589)
(0.000137296 0.00363929 -0.00139589)
(-0.000496746 0.00360784 -0.00139589)
(-0.0011157 0.00346677 -0.00139589)
(-0.00168657 0.0031421 -0.00126603)
(-0.00220656 0.00280149 -0.00126603)
(-0.00265951 0.00237577 -0.00126603)
(-0.00303166 0.00187785 -0.00126603)
(-0.00331169 0.00132288 -0.00126603)
(-0.00349109 0.00072772 -0.00126603)
(-0.00356442 0.000110442 -0.00126603)
(-0.00352945 -0.000510191 -0.00126603)
(-0.00338723 -0.00111532 -0.00126603)
(-0.0031421 -0.00168657 -0.00126603)
(-0.00280149 -0.00220656 -0.00126603)
(-0.00237577 -0.00265951 -0.00126603)
(-0.00187785 -0.00303166 -0.00126603)
(-0.00132288 -0.00331169 -0.00126603)
(-0.000727719 -0.00349109 -0.00126603)
(-0.000110442 -0.00356442 -0.00126603)
(0.000510191 -0.00352945 -0.00126603)
(0.00111532 -0.00338723 -0.00126603)
(0.00168657 -0.0031421 -0.00126603)
(0.00220656 -0.00280149 -0.00126603)
(0.00265951 -0.00237577 -0.00126603)
(0.00303166 -0.00187785 -0.00126603)
(0.00331169 -0.00132288 -0.00126603)
(0.00349109 -0.000727719 -0.00126603)
(0.00356442 -0.000110442 -0.00126603)
(0.00352945 0.000510191 -0.00126603)
(0.00338723 0.00111532 -0.00126603)
(0.0031421 0.00168657 -0.00126603)
(0.00280149 0.00220656 -0.00126603)
(0.00237577 0.00265951 -0.00126603)
(0.00187785 0.00303166 -0.00126603)
(0.00132288 0.00331169 -0.00126603)
(0.00072772 0.00349109 -0.00126603)
(0.000110442 0.00356442 -0.00126603)
(-0.000510191 0.00352945 -0.00126603)
(-0.00111532 0.00338723 -0.00126603)
(-0.00196731 0.00363343 -0.00185292)