/*--------------------------------*- C++ -*----------------------------------*\
| =========                 |                                                 |
| \\      /  F ield         | OpenFOAM: The Open Source CFD Toolbox           |
|  \\    /   O peration     | Version:  2312                                  |
|   \\  /    A nd           | Website:  www.openfoam.com                      |
|    \\/     M anipulation  |                                                 |
\*---------------------------------------------------------------------------*/
FoamFile
{
    version     2.0;
    format      ascii;
    arch        "LSB;label=32;scalar=64";
    class       volVectorField;
    location    "0.3";
    object      D_0_0;
}
// * * * * * * * * * * * * * * * * * * * * * * * * * * * * * * * * * * * * * //

dimensions      [0 1 0 0 0 0 0];

internalField   nonuniform List<vector> 
1620
(
(-0.000181431 0.000256962 -7.29963e-05)
(-0.000223295 0.000221553 -7.29964e-05)
(-0.000258375 0.000179412 -7.29964e-05)
(-0.000285605 0.00013182 -7.29963e-05)
(-0.000304156 8.02232e-05 -7.29964e-05)
(-0.000313466 2.6188e-05 -7.29965e-05)
(-0.000313251 -2.86427e-05 -7.29962e-05)
(-0.000303518 -8.26029e-05 -7.29961e-05)
(-0.000284563 -0.000134054 -7.29963e-05)
(-0.000256962 -0.000181431 -7.29963e-05)
(-0.000221553 -0.000223295 -7.29964e-05)
(-0.000179412 -0.000258375 -7.29964e-05)
(-0.00013182 -0.000285605 -7.29963e-05)
(-8.02231e-05 -0.000304156 -7.29964e-05)
(-2.6188e-05 -0.000313466 -7.29965e-05)
(2.86428e-05 -0.000313251 -7.29962e-05)
(8.26029e-05 -0.000303518 -7.29961e-05)
(0.000134054 -0.000284563 -7.29963e-05)
(0.000181431 -0.000256962 -7.29963e-05)
(0.000223295 -0.000221553 -7.29964e-05)
(0.000258375 -0.000179412 -7.29964e-05)
(0.000285605 -0.00013182 -7.29963e-05)
(0.000304156 -8.02232e-05 -7.29964e-05)
(0.000313466 -2.6188e-05 -7.29965e-05)
(0.000313251 2.86427e-05 -7.29962e-05)
(0.000303518 8.26029e-05 -7.29961e-05)
(0.000284563 0.000134054 -7.29963e-05)
(0.000256962 0.000181431 -7.29963e-05)
(0.000221553 0.000223295 -7.29964e-05)
(0.000179412 0.000258375 -7.29964e-05)
(0.00013182 0.000285605 -7.29963e-05)
(8.02232e-05 0.000304156 -7.29964e-05)
(2.6188e-05 0.000313466 -7.29965e-05)
(-2.86427e-05 0.000313251 -7.29962e-05)
(-8.26029e-05 0.000303518 -7.29961e-05)
(-0.000134054 0.000284563 -7.29963e-05)
(-0.000140336 0.000285606 -5.06025e-05)
(-0.000187799 0.000256898 -5.06026e-05)
(-0.000229555 0.000220384 -5.06026e-05)
(-0.000264337 0.000177174 -5.06026e-05)
(-0.000291088 0.000128581 -5.06027e-05)
(-0.000308993 7.60806e-05 -5.06026e-05)
(-0.00031751 2.12688e-05 -5.06025e-05)
(-0.00031638 -3.41893e-05 -5.06025e-05)
(-0.000305636 -8.86088e-05 -5.06026e-05)
(-0.000285606 -0.000140336 -5.06025e-05)
(-0.000256898 -0.000187799 -5.06026e-05)
(-0.000220384 -0.000229555 -5.06026e-05)
(-0.000177174 -0.000264337 -5.06026e-05)
(-0.000128581 -0.000291088 -5.06027e-05)
(-7.60806e-05 -0.000308993 -5.06026e-05)
(-2.12688e-05 -0.00031751 -5.06025e-05)
(3.41893e-05 -0.00031638 -5.06025e-05)
(8.86088e-05 -0.000305636 -5.06026e-05)
(0.000140336 -0.000285606 -5.06025e-05)
(0.000187799 -0.000256898 -5.06026e-05)
(0.000229555 -0.000220384 -5.06026e-05)
(0.000264337 -0.000177174 -5.06026e-05)
(0.000291088 -0.000128581 -5.06027e-05)
(0.000308993 -7.60806e-05 -5.06026e-05)
(0.00031751 -2.12688e-05 -5.06025e-05)
(0.00031638 3.41893e-05 -5.06025e-05)
(0.000305636 8.86088e-05 -5.06026e-05)
(0.000285606 0.000140336 -5.06025e-05)
(0.000256898 0.000187799 -5.06026e-05)
(0.000220384 0.000229555 -5.06026e-05)
(0.000177174 0.000264337 -5.06026e-05)
(0.000128581 0.000291088 -5.06027e-05)
(7.60806e-05 0.000308993 -5.06026e-05)
(2.12688e-05 0.00031751 -5.06025e-05)
(-3.41893e-05 0.00031638 -5.06025e-05)
(-8.86088e-05 0.000305636 -5.06026e-05)
(-0.000112684 0.00031423 -3.39076e-05)
(-0.000165538 0.000289889 -3.39076e-05)
(-0.000213362 0.00025674 -3.39077e-05)
(-0.000254703 0.000215789 -3.39076e-05)
(-0.000288305 0.000168283 -3.39077e-05)
(-0.000313147 0.000115662 -3.39076e-05)
(-0.000328474 5.95277e-05 -3.39077e-05)
(-0.000333821 1.58439e-06 -3.39077e-05)
(-0.000329024 -5.6407e-05 -3.39076e-05)
(-0.00031423 -0.000112684 -3.39076e-05)
(-0.000289889 -0.000165538 -3.39076e-05)
(-0.00025674 -0.000213362 -3.39077e-05)
(-0.000215789 -0.000254703 -3.39076e-05)
(-0.000168283 -0.000288305 -3.39077e-05)
(-0.000115662 -0.000313147 -3.39076e-05)
(-5.95277e-05 -0.000328474 -3.39077e-05)
(-1.58438e-06 -0.000333821 -3.39077e-05)
(5.6407e-05 -0.000329024 -3.39076e-05)
(0.000112684 -0.00031423 -3.39076e-05)
(0.000165538 -0.000289889 -3.39076e-05)
(0.000213362 -0.00025674 -3.39077e-05)
(0.000254703 -0.000215789 -3.39076e-05)
(0.000288305 -0.000168283 -3.39077e-05)
(0.000313147 -0.000115662 -3.39076e-05)
(0.000328474 -5.95277e-05 -3.39077e-05)
(0.000333821 -1.58438e-06 -3.39077e-05)
(0.000329024 5.6407e-05 -3.39076e-05)
(0.00031423 0.000112684 -3.39076e-05)
(0.000289889 0.000165538 -3.39076e-05)
(0.00025674 0.000213362 -3.39077e-05)
(0.000215789 0.000254703 -3.39076e-05)
(0.000168283 0.000288305 -3.39077e-05)
(0.000115662 0.000313147 -3.39076e-05)
(5.95277e-05 0.000328474 -3.39077e-05)
(1.58439e-06 0.000333821 -3.39077e-05)
(-5.6407e-05 0.000329024 -3.39076e-05)
(-0.000456402 0.00080969 -0.000222636)
(-0.000590069 0.000718136 -0.000222637)
(-0.000705808 0.000604762 -0.000222637)
(-0.0008001 0.000473012 -0.000222636)
(-0.000870083 0.00032689 -0.000222636)
(-0.000913628 0.000170836 -0.000222636)
(-0.000929414 9.5901e-06 -0.000222636)
(-0.000916959 -0.000151947 -0.000222636)
(-0.000876642 -0.000308866 -0.000222636)
(-0.00080969 -0.000456402 -0.000222636)
(-0.000718136 -0.000590069 -0.000222637)
(-0.000604762 -0.000705808 -0.000222637)
(-0.000473012 -0.0008001 -0.000222636)
(-0.00032689 -0.000870083 -0.000222636)
(-0.000170836 -0.000913628 -0.000222636)
(-9.59007e-06 -0.000929414 -0.000222636)
(0.000151947 -0.000916959 -0.000222636)
(0.000308866 -0.000876642 -0.000222636)
(0.000456402 -0.00080969 -0.000222636)
(0.000590069 -0.000718136 -0.000222637)
(0.000705808 -0.000604762 -0.000222637)
(0.000800101 -0.000473012 -0.000222636)
(0.000870083 -0.00032689 -0.000222636)
(0.000913628 -0.000170836 -0.000222636)
(0.000929414 -9.59009e-06 -0.000222636)
(0.000916959 0.000151947 -0.000222636)
(0.000876642 0.000308866 -0.000222636)
(0.00080969 0.000456402 -0.000222636)
(0.000718136 0.000590069 -0.000222637)
(0.000604762 0.000705808 -0.000222637)
(0.000473012 0.000800101 -0.000222636)
(0.00032689 0.000870083 -0.000222636)
(0.000170836 0.000913628 -0.000222636)
(9.59012e-06 0.000929414 -0.000222636)
(-0.000151947 0.000916959 -0.000222636)
(-0.000308866 0.000876643 -0.000222636)
(-0.000420455 0.000852458 -0.000172088)
(-0.000562094 0.000766496 -0.000172088)
(-0.000686656 0.000657245 -0.000172088)
(-0.000790353 0.000528024 -0.000172088)
(-0.000870037 0.000382758 -0.000172088)
(-0.000923284 0.000225863 -0.000172088)
(-0.000948478 6.21047e-05 -0.000172088)
(-0.000944852 -0.00010354 -0.000172087)
(-0.000912518 -0.000266039 -0.000172088)
(-0.000852458 -0.000420455 -0.000172088)
(-0.000766496 -0.000562095 -0.000172088)
(-0.000657245 -0.000686656 -0.000172088)
(-0.000528024 -0.000790353 -0.000172088)
(-0.000382758 -0.000870037 -0.000172088)
(-0.000225863 -0.000923284 -0.000172088)
(-6.21047e-05 -0.000948478 -0.000172088)
(0.00010354 -0.000944852 -0.000172087)
(0.000266039 -0.000912518 -0.000172088)
(0.000420455 -0.000852458 -0.000172088)
(0.000562095 -0.000766496 -0.000172088)
(0.000686656 -0.000657245 -0.000172088)
(0.000790354 -0.000528024 -0.000172088)
(0.000870037 -0.000382758 -0.000172088)
(0.000923284 -0.000225863 -0.000172088)
(0.000948478 -6.21047e-05 -0.000172088)
(0.000944852 0.00010354 -0.000172087)
(0.000912518 0.000266039 -0.000172088)
(0.000852458 0.000420455 -0.000172088)
(0.000766496 0.000562095 -0.000172088)
(0.000657245 0.000686656 -0.000172088)
(0.000528024 0.000790354 -0.000172088)
(0.000382758 0.000870037 -0.000172088)
(0.000225863 0.000923284 -0.000172088)
(6.21047e-05 0.000948478 -0.000172088)
(-0.00010354 0.000944852 -0.000172087)
(-0.000266039 0.000912518 -0.000172088)
(-0.000401171 0.00089202 -0.000123532)
(-0.000549973 0.000808806 -0.000123532)
(-0.000682065 0.000701017 -0.000123532)
(-0.000793433 0.000571927 -0.000123532)
(-0.000880693 0.00042546 -0.000123532)
(-0.000941194 0.000266065 -0.000123532)
(-0.000973097 9.85863e-05 -0.000123532)
(-0.000975433 -7.18878e-05 -0.000123532)
(-0.000948131 -0.000240178 -0.000123532)
(-0.00089202 -0.000401171 -0.000123532)
(-0.000808806 -0.000549973 -0.000123532)
(-0.000701017 -0.000682065 -0.000123532)
(-0.000571927 -0.000793433 -0.000123532)
(-0.00042546 -0.000880693 -0.000123532)
(-0.000266065 -0.000941194 -0.000123532)
(-9.85862e-05 -0.000973097 -0.000123532)
(7.18878e-05 -0.000975433 -0.000123532)
(0.000240178 -0.000948131 -0.000123532)
(0.000401171 -0.00089202 -0.000123532)
(0.000549973 -0.000808806 -0.000123532)
(0.000682065 -0.000701017 -0.000123532)
(0.000793433 -0.000571927 -0.000123532)
(0.000880693 -0.00042546 -0.000123532)
(0.000941194 -0.000266065 -0.000123532)
(0.000973097 -9.85862e-05 -0.000123532)
(0.000975433 7.18878e-05 -0.000123532)
(0.000948131 0.000240178 -0.000123532)
(0.00089202 0.000401171 -0.000123532)
(0.000808806 0.000549973 -0.000123532)
(0.000701017 0.000682065 -0.000123532)
(0.000571927 0.000793433 -0.000123532)
(0.00042546 0.000880693 -0.000123532)
(0.000266065 0.000941194 -0.000123532)
(9.85863e-05 0.000973097 -0.000123532)
(-7.18878e-05 0.000975433 -0.000123532)
(-0.000240178 0.000948131 -0.000123532)
(-0.000727984 0.0013561 -0.000424298)
(-0.000952409 0.00120909 -0.000424298)
(-0.0011479 0.00102534 -0.000424298)
(-0.0013085 0.000810428 -0.000424298)
(-0.00142935 0.000570897 -0.000424297)
(-0.00150677 0.000314019 -0.000424297)
(-0.00153841 4.75995e-05 -0.000424297)
(-0.00152331 -0.000220266 -0.000424298)
(-0.00146191 -0.000481439 -0.000424298)
(-0.0013561 -0.000727984 -0.000424298)
(-0.00120909 -0.000952409 -0.000424298)
(-0.00102534 -0.0011479 -0.000424298)
(-0.000810428 -0.0013085 -0.000424298)
(-0.000570897 -0.00142935 -0.000424297)
(-0.000314019 -0.00150677 -0.000424297)
(-4.75994e-05 -0.00153841 -0.000424297)
(0.000220266 -0.00152331 -0.000424298)
(0.000481439 -0.00146191 -0.000424298)
(0.000727984 -0.0013561 -0.000424298)
(0.000952409 -0.00120909 -0.000424298)
(0.0011479 -0.00102534 -0.000424298)
(0.0013085 -0.000810428 -0.000424298)
(0.00142935 -0.000570897 -0.000424297)
(0.00150677 -0.000314019 -0.000424297)
(0.00153841 -4.75995e-05 -0.000424297)
(0.00152331 0.000220266 -0.000424297)
(0.00146191 0.000481439 -0.000424298)
(0.0013561 0.000727984 -0.000424298)
(0.00120909 0.000952409 -0.000424298)
(0.00102534 0.0011479 -0.000424298)
(0.000810428 0.0013085 -0.000424298)
(0.000570897 0.00142935 -0.000424297)
(0.000314019 0.00150677 -0.000424297)
(4.75995e-05 0.00153841 -0.000424297)
(-0.000220266 0.00152331 -0.000424297)
(-0.000481439 0.00146191 -0.000424298)
(-0.000695756 0.00140699 -0.000349001)
(-0.000929507 0.0012648 -0.000349001)
(-0.00113502 0.00108418 -0.000349001)
(-0.00130604 0.000870612 -0.000349)
(-0.00143738 0.000630594 -0.000349)
(-0.00152504 0.000371416 -0.000349)
(-0.00156637 0.000100953 -0.000349)
(-0.0015601 -0.000172578 -0.000349)
(-0.00150643 -0.000440865 -0.000349)
(-0.00140699 -0.000695756 -0.000349001)
(-0.0012648 -0.000929507 -0.000349001)
(-0.00108418 -0.00113502 -0.000349001)
(-0.000870612 -0.00130604 -0.000349)
(-0.000630594 -0.00143738 -0.000349)
(-0.000371416 -0.00152504 -0.000349)
(-0.000100953 -0.00156637 -0.000349)
(0.000172578 -0.0015601 -0.000349)
(0.000440865 -0.00150643 -0.000349)
(0.000695757 -0.00140699 -0.000349001)
(0.000929508 -0.0012648 -0.000349001)
(0.00113502 -0.00108418 -0.000349001)
(0.00130604 -0.000870612 -0.000349)
(0.00143738 -0.000630594 -0.000349)
(0.00152504 -0.000371416 -0.000349)
(0.00156637 -0.000100953 -0.000349)
(0.0015601 0.000172578 -0.000349)
(0.00150643 0.000440865 -0.000349)
(0.00140699 0.000695757 -0.000349)
(0.0012648 0.000929508 -0.000349001)
(0.00108418 0.00113502 -0.000349001)
(0.000870612 0.00130604 -0.000349)
(0.000630594 0.00143738 -0.000349)
(0.000371416 0.00152504 -0.000349)
(0.000100953 0.00156637 -0.000349)
(-0.000172578 0.0015601 -0.000349)
(-0.000440865 0.00150643 -0.000349)
(-0.000681481 0.00145131 -0.000275955)
(-0.000923145 0.00131093 -0.000275954)
(-0.00113676 0.00113071 -0.000275955)
(-0.00131584 0.000916135 -0.000275955)
(-0.00145493 0.000673724 -0.000275955)
(-0.00154982 0.000410842 -0.000275955)
(-0.00159761 0.000135477 -0.000275955)
(-0.00159687 -0.000144004 -0.000275955)
(-0.0015476 -0.000419109 -0.000275955)
(-0.00145131 -0.000681481 -0.000275955)
(-0.00131093 -0.000923145 -0.000275955)
(-0.00113071 -0.00113676 -0.000275955)
(-0.000916134 -0.00131584 -0.000275955)
(-0.000673724 -0.00145493 -0.000275955)
(-0.000410842 -0.00154982 -0.000275955)
(-0.000135477 -0.00159761 -0.000275955)
(0.000144004 -0.00159687 -0.000275955)
(0.000419109 -0.0015476 -0.000275955)
(0.000681481 -0.00145131 -0.000275955)
(0.000923145 -0.00131093 -0.000275955)
(0.00113676 -0.00113071 -0.000275955)
(0.00131584 -0.000916134 -0.000275955)
(0.00145493 -0.000673724 -0.000275955)
(0.00154982 -0.000410842 -0.000275955)
(0.00159761 -0.000135477 -0.000275955)
(0.00159687 0.000144004 -0.000275955)
(0.0015476 0.000419109 -0.000275955)
(0.00145131 0.000681481 -0.000275955)
(0.00131093 0.000923145 -0.000275954)
(0.00113071 0.00113676 -0.000275955)
(0.000916135 0.00131584 -0.000275955)
(0.000673724 0.00145493 -0.000275955)
(0.000410842 0.00154982 -0.000275955)
(0.000135477 0.00159761 -0.000275955)
(-0.000144004 0.00159687 -0.000275955)
(-0.000419109 0.0015476 -0.000275955)
(-0.000990962 0.00188934 -0.000667795)
(-0.00130399 0.00168855 -0.000667795)
(-0.00157739 0.00143647 -0.000667795)
(-0.00180287 0.00114073 -0.000667795)
(-0.00197356 0.000810337 -0.000667795)
(-0.00208429 0.000455321 -0.000667795)
(-0.00213169 8.64701e-05 -0.000667794)
(-0.00211432 -0.000285009 -0.000667795)
(-0.00203271 -0.000647827 -0.000667795)
(-0.00188934 -0.000990962 -0.000667795)
(-0.00168855 -0.00130399 -0.000667795)
(-0.00143647 -0.00157739 -0.000667795)
(-0.00114073 -0.00180287 -0.000667795)
(-0.000810337 -0.00197356 -0.000667795)
(-0.000455321 -0.00208429 -0.000667795)
(-8.647e-05 -0.00213169 -0.000667794)
(0.000285009 -0.00211432 -0.000667795)
(0.000647827 -0.00203271 -0.000667795)
(0.000990962 -0.00188934 -0.000667795)
(0.00130399 -0.00168855 -0.000667795)
(0.00157739 -0.00143647 -0.000667795)
(0.00180287 -0.00114073 -0.000667795)
(0.00197356 -0.000810337 -0.000667795)
(0.00208429 -0.000455321 -0.000667795)
(0.00213169 -8.647e-05 -0.000667794)
(0.00211432 0.000285009 -0.000667794)
(0.00203271 0.000647827 -0.000667795)
(0.00188934 0.000990962 -0.000667795)
(0.00168855 0.00130399 -0.000667795)
(0.00143647 0.00157739 -0.000667795)
(0.00114073 0.00180287 -0.000667795)
(0.000810337 0.00197356 -0.000667795)
(0.000455321 0.00208429 -0.000667795)
(8.64701e-05 0.00213169 -0.000667794)
(-0.000285009 0.00211432 -0.000667794)
(-0.000647827 0.00203271 -0.000667795)
(-0.000963581 0.00193689 -0.000571409)
(-0.00128528 0.00174014 -0.000571409)
(-0.00156792 0.00149051 -0.000571409)
(-0.00180293 0.0011956 -0.000571409)
(-0.00198315 0.000864364 -0.000571409)
(-0.00210312 0.000506862 -0.000571409)
(-0.00215918 0.000133958 -0.000571409)
(-0.00214964 -0.000243015 -0.000571409)
(-0.00207479 -0.000612605 -0.000571409)
(-0.00193689 -0.000963581 -0.000571409)
(-0.00174014 -0.00128528 -0.000571409)
(-0.00149051 -0.00156792 -0.000571409)
(-0.0011956 -0.00180293 -0.000571409)
(-0.000864364 -0.00198315 -0.000571409)
(-0.000506862 -0.00210312 -0.000571409)
(-0.000133958 -0.00215918 -0.000571409)
(0.000243015 -0.00214964 -0.000571409)
(0.000612605 -0.00207479 -0.000571409)
(0.000963582 -0.00193689 -0.000571409)
(0.00128528 -0.00174014 -0.000571409)
(0.00156792 -0.00149051 -0.000571409)
(0.00180293 -0.0011956 -0.000571409)
(0.00198315 -0.000864364 -0.000571409)
(0.00210312 -0.000506862 -0.000571409)
(0.00215918 -0.000133958 -0.000571409)
(0.00214964 0.000243015 -0.000571409)
(0.00207479 0.000612605 -0.000571409)
(0.00193689 0.000963582 -0.000571409)
(0.00174014 0.00128528 -0.000571409)
(0.00149051 0.00156792 -0.000571409)
(0.0011956 0.00180293 -0.000571409)
(0.000864364 0.00198315 -0.000571409)
(0.000506862 0.00210312 -0.000571409)
(0.000133958 0.00215918 -0.000571409)
(-0.000243015 0.00214964 -0.000571409)
(-0.000612605 0.00207479 -0.000571409)
(-0.000955281 0.00197407 -0.000478185)
(-0.00128356 0.0017782 -0.000478185)
(-0.00157284 0.00152829 -0.000478185)
(-0.00181433 0.00123195 -0.000478185)
(-0.00200069 0.000898182 -0.000478185)
(-0.00212627 0.00053712 -0.000478185)
(-0.00218723 0.000159737 -0.000478185)
(-0.00218174 -0.000222499 -0.000478185)
(-0.00210996 -0.000597975 -0.000478185)
(-0.00197407 -0.000955281 -0.000478185)
(-0.0017782 -0.00128356 -0.000478185)
(-0.00152829 -0.00157284 -0.000478185)
(-0.00123195 -0.00181433 -0.000478185)
(-0.000898182 -0.00200069 -0.000478185)
(-0.00053712 -0.00212627 -0.000478185)
(-0.000159737 -0.00218723 -0.000478185)
(0.000222499 -0.00218174 -0.000478185)
(0.000597975 -0.00210996 -0.000478185)
(0.000955281 -0.00197407 -0.000478185)
(0.00128356 -0.0017782 -0.000478185)
(0.00157284 -0.00152829 -0.000478185)
(0.00181433 -0.00123195 -0.000478185)
(0.00200069 -0.000898182 -0.000478185)
(0.00212627 -0.00053712 -0.000478185)
(0.00218723 -0.000159737 -0.000478185)
(0.00218174 0.000222499 -0.000478185)
(0.00210996 0.000597975 -0.000478185)
(0.00197407 0.000955281 -0.000478185)
(0.0017782 0.00128356 -0.000478185)
(0.00152829 0.00157284 -0.000478185)
(0.00123195 0.00181433 -0.000478185)
(0.000898182 0.00200069 -0.000478185)
(0.00053712 0.00212627 -0.000478185)
(0.000159737 0.00218723 -0.000478185)
(-0.000222499 0.00218174 -0.000478185)
(-0.000597975 0.00210996 -0.000478185)
(-0.00124789 0.00240038 -0.000945585)
(-0.00164575 0.00214721 -0.000945586)
(-0.00199361 0.00182881 -0.000945586)
(-0.00228089 0.00145484 -0.000945586)
(-0.00249887 0.00103667 -0.000945585)
(-0.00264092 0.000586996 -0.000945585)
(-0.00270273 0.000119487 -0.000945585)
(-0.00268242 -0.000351652 -0.000945585)
(-0.0025806 -0.000812107 -0.000945585)
(-0.00240038 -0.00124789 -0.000945585)
(-0.00214721 -0.00164575 -0.000945586)
(-0.00182881 -0.00199361 -0.000945586)
(-0.00145484 -0.00228089 -0.000945586)
(-0.00103667 -0.00249887 -0.000945585)
(-0.000586996 -0.00264092 -0.000945585)
(-0.000119487 -0.00270273 -0.000945585)
(0.000351652 -0.00268242 -0.000945585)
(0.000812107 -0.0025806 -0.000945585)
(0.00124789 -0.00240038 -0.000945585)
(0.00164575 -0.00214721 -0.000945586)
(0.00199361 -0.00182881 -0.000945586)
(0.00228089 -0.00145484 -0.000945586)
(0.00249887 -0.00103667 -0.000945585)
(0.00264092 -0.000586996 -0.000945585)
(0.00270273 -0.000119487 -0.000945585)
(0.00268242 0.000351652 -0.000945585)
(0.0025806 0.000812107 -0.000945585)
(0.00240038 0.00124789 -0.000945585)
(0.00214721 0.00164575 -0.000945586)
(0.00182881 0.00199361 -0.000945586)
(0.00145484 0.00228089 -0.000945585)
(0.00103667 0.00249887 -0.000945585)
(0.000586996 0.00264092 -0.000945585)
(0.000119487 0.00270273 -0.000945585)
(-0.000351652 0.00268242 -0.000945585)
(-0.000812107 0.0025806 -0.000945585)
(-0.00122444 0.00242943 -0.000831918)
(-0.00162771 0.0021799 -0.000831918)
(-0.00198151 0.00186413 -0.000831918)
(-0.00227511 0.00149173 -0.000831918)
(-0.00249959 0.001074 -0.000831918)
(-0.00264811 0.000623631 -0.000831918)
(-0.00271617 0.000154317 -0.000831918)
(-0.0027017 -0.000319685 -0.000831918)
(-0.00260514 -0.000783974 -0.000831918)
(-0.00242943 -0.00122444 -0.000831918)
(-0.0021799 -0.00162771 -0.000831918)
(-0.00186413 -0.00198151 -0.000831918)
(-0.00149173 -0.00227511 -0.000831918)
(-0.001074 -0.00249959 -0.000831918)
(-0.000623631 -0.00264811 -0.000831918)
(-0.000154317 -0.00271617 -0.000831918)
(0.000319685 -0.0027017 -0.000831918)
(0.000783974 -0.00260514 -0.000831918)
(0.00122444 -0.00242943 -0.000831918)
(0.00162771 -0.0021799 -0.000831918)
(0.00198151 -0.00186413 -0.000831918)
(0.00227511 -0.00149173 -0.000831918)
(0.00249959 -0.001074 -0.000831918)
(0.00264811 -0.000623631 -0.000831918)
(0.00271617 -0.000154317 -0.000831918)
(0.0027017 0.000319685 -0.000831918)
(0.00260514 0.000783974 -0.000831918)
(0.00242943 0.00122444 -0.000831918)
(0.0021799 0.00162771 -0.000831918)
(0.00186413 0.00198151 -0.000831918)
(0.00149173 0.00227511 -0.000831918)
(0.001074 0.00249959 -0.000831918)
(0.000623631 0.00264811 -0.000831918)
(0.000154317 0.00271617 -0.000831918)
(-0.000319685 0.0027017 -0.000831918)
(-0.000783974 0.00260514 -0.000831918)
(-0.00122053 0.00244469 -0.000722366)
(-0.00162651 0.0021956 -0.000722366)
(-0.00198306 0.00187981 -0.000722366)
(-0.00227936 0.00150689 -0.000722366)
(-0.0025064 0.00108819 -0.000722366)
(-0.00265728 0.000636431 -0.000722366)
(-0.00272743 0.00016533 -0.000722366)
(-0.0027147 -0.000310795 -0.000722366)
(-0.00261949 -0.000777476 -0.000722366)
(-0.00244469 -0.00122053 -0.000722366)
(-0.0021956 -0.00162651 -0.000722366)
(-0.00187981 -0.00198306 -0.000722366)
(-0.00150689 -0.00227936 -0.000722366)
(-0.00108819 -0.0025064 -0.000722366)
(-0.000636431 -0.00265728 -0.000722366)
(-0.00016533 -0.00272743 -0.000722366)
(0.000310795 -0.0027147 -0.000722366)
(0.000777476 -0.00261949 -0.000722366)
(0.00122053 -0.00244469 -0.000722366)
(0.00162651 -0.0021956 -0.000722366)
(0.00198306 -0.00187981 -0.000722366)
(0.00227936 -0.00150689 -0.000722366)
(0.0025064 -0.00108819 -0.000722366)
(0.00265728 -0.000636431 -0.000722366)
(0.00272743 -0.00016533 -0.000722366)
(0.0027147 0.000310795 -0.000722366)
(0.00261949 0.000777476 -0.000722366)
(0.00244469 0.00122053 -0.000722366)
(0.0021956 0.00162651 -0.000722366)
(0.00187981 0.00198306 -0.000722366)
(0.00150689 0.00227936 -0.000722366)
(0.00108819 0.0025064 -0.000722366)
(0.000636431 0.00265728 -0.000722366)
(0.00016533 0.00272743 -0.000722366)
(-0.000310795 0.0027147 -0.000722366)
(-0.000777476 0.00261949 -0.000722366)
(-0.00150161 0.00287695 -0.00124971)
(-0.00197837 0.00257249 -0.00124971)
(-0.00239502 0.00218987 -0.00124971)
(-0.0027389 0.00174071 -0.00124971)
(-0.00299956 0.00123866 -0.00124971)
(-0.00316908 0.000698968 -0.00124971)
(-0.00324231 0.000138044 -0.00124971)
(-0.00321703 -0.000427075 -0.00124971)
(-0.00309399 -0.000979217 -0.00124971)
(-0.00287695 -0.00150161 -0.00124971)
(-0.00257249 -0.00197837 -0.00124971)
(-0.00218987 -0.00239502 -0.00124971)
(-0.00174071 -0.0027389 -0.00124971)
(-0.00123865 -0.00299956 -0.00124971)
(-0.000698968 -0.00316908 -0.00124971)
(-0.000138044 -0.00324231 -0.00124971)
(0.000427075 -0.00321703 -0.00124971)
(0.000979217 -0.00309399 -0.00124971)
(0.00150161 -0.00287695 -0.00124971)
(0.00197837 -0.00257249 -0.00124971)
(0.00239502 -0.00218987 -0.00124971)
(0.0027389 -0.00174071 -0.00124971)
(0.00299956 -0.00123865 -0.00124971)
(0.00316908 -0.000698968 -0.00124971)
(0.00324231 -0.000138044 -0.00124971)
(0.00321703 0.000427075 -0.00124971)
(0.00309399 0.000979217 -0.00124971)
(0.00287695 0.00150161 -0.00124971)
(0.00257249 0.00197837 -0.00124971)
(0.00218987 0.00239502 -0.00124971)
(0.00174071 0.0027389 -0.00124971)
(0.00123866 0.00299956 -0.00124971)
(0.000698968 0.00316908 -0.00124971)
(0.000138044 0.00324231 -0.00124971)
(-0.000427075 0.00321703 -0.00124971)
(-0.000979217 0.00309399 -0.00124971)
(-0.00147863 0.0028712 -0.00112176)
(-0.00195474 0.00257082 -0.00112176)
(-0.00237146 0.00219233 -0.00112176)
(-0.00271613 0.00174722 -0.00112176)
(-0.00297827 0.00124903 -0.00112176)
(-0.00314991 0.000712881 -0.00112176)
(-0.00322585 0.000155074 -0.00112176)
(-0.00320377 -0.000407444 -0.00112176)
(-0.00308434 -0.000957583 -0.00112176)
(-0.0028712 -0.00147863 -0.00112176)
(-0.00257082 -0.00195474 -0.00112176)
(-0.00219233 -0.00237146 -0.00112176)
(-0.00174722 -0.00271613 -0.00112176)
(-0.00124903 -0.00297827 -0.00112176)
(-0.000712881 -0.00314991 -0.00112176)
(-0.000155074 -0.00322585 -0.00112176)
(0.000407444 -0.00320377 -0.00112176)
(0.000957583 -0.00308434 -0.00112176)
(0.00147863 -0.0028712 -0.00112176)
(0.00195474 -0.00257082 -0.00112176)
(0.00237146 -0.00219233 -0.00112176)
(0.00271613 -0.00174722 -0.00112176)
(0.00297827 -0.00124903 -0.00112176)
(0.00314991 -0.000712881 -0.00112176)
(0.00322585 -0.000155074 -0.00112176)
(0.00320377 0.000407444 -0.00112176)
(0.00308434 0.000957583 -0.00112176)
(0.0028712 0.00147863 -0.00112176)
(0.00257082 0.00195474 -0.00112176)
(0.00219233 0.00237146 -0.00112176)
(0.00174722 0.00271613 -0.00112176)
(0.00124903 0.00297827 -0.00112176)
(0.000712881 0.00314991 -0.00112176)
(0.000155074 0.00322585 -0.00112176)
(-0.000407444 0.00320377 -0.00112176)
(-0.000957583 0.00308434 -0.00112176)
(-0.0014746 0.00284929 -0.000998797)
(-0.00194697 0.00254994 -0.000998797)
(-0.00236019 0.00217311 -0.000998796)
(-0.00270169 0.00173026 -0.000998797)
(-0.0029611 0.00123483 -0.000998797)
(-0.00313054 0.000701879 -0.000998797)
(-0.00320486 0.000147605 -0.000998796)
(-0.0031818 -0.000411156 -0.000998797)
(-0.00306206 -0.000957424 -0.000998797)
(-0.00284929 -0.0014746 -0.000998797)
(-0.00254994 -0.00194697 -0.000998797)
(-0.00217311 -0.00236019 -0.000998796)
(-0.00173026 -0.00270169 -0.000998797)
(-0.00123483 -0.0029611 -0.000998797)
(-0.000701879 -0.00313054 -0.000998797)
(-0.000147605 -0.00320486 -0.000998796)
(0.000411156 -0.0031818 -0.000998797)
(0.000957424 -0.00306207 -0.000998797)
(0.0014746 -0.00284929 -0.000998797)
(0.00194697 -0.00254994 -0.000998797)
(0.00236019 -0.00217311 -0.000998796)
(0.00270169 -0.00173026 -0.000998797)
(0.0029611 -0.00123483 -0.000998797)
(0.00313054 -0.000701879 -0.000998797)
(0.00320486 -0.000147605 -0.000998796)
(0.0031818 0.000411156 -0.000998797)
(0.00306207 0.000957424 -0.000998797)
(0.00284929 0.0014746 -0.000998797)
(0.00254994 0.00194697 -0.000998797)
(0.00217311 0.00236019 -0.000998796)
(0.00173026 0.00270169 -0.000998797)
(0.00123483 0.0029611 -0.000998797)
(0.000701879 0.00313054 -0.000998797)
(0.000147605 0.00320486 -0.000998796)
(-0.000411156 0.0031818 -0.000998797)
(-0.000957424 0.00306207 -0.000998797)
(-0.00175185 0.00330268 -0.00157168)
(-0.00229874 0.0029483 -0.00157168)
(-0.00277578 0.00250434 -0.00157168)
(-0.00316848 0.00198428 -0.00157168)
(-0.00346491 0.00140393 -0.00157168)
(-0.00365606 0.000780928 -0.00157168)
(-0.00373613 0.000134196 -0.00157168)
(-0.00370267 -0.000516616 -0.00157168)
(-0.00355671 -0.00115173 -0.00157167)
(-0.00330268 -0.00175185 -0.00157168)
(-0.0029483 -0.00229874 -0.00157168)
(-0.00250434 -0.00277578 -0.00157168)
(-0.00198428 -0.00316848 -0.00157168)
(-0.00140393 -0.00346491 -0.00157168)
(-0.000780928 -0.00365607 -0.00157168)
(-0.000134196 -0.00373613 -0.00157168)
(0.000516616 -0.00370267 -0.00157168)
(0.00115173 -0.00355671 -0.00157168)
(0.00175185 -0.00330268 -0.00157168)
(0.00229874 -0.0029483 -0.00157168)
(0.00277578 -0.00250434 -0.00157168)
(0.00316848 -0.00198428 -0.00157168)
(0.00346491 -0.00140393 -0.00157168)
(0.00365607 -0.000780928 -0.00157168)
(0.00373613 -0.000134196 -0.00157168)
(0.00370267 0.000516616 -0.00157168)
(0.00355671 0.00115173 -0.00157167)
(0.00330268 0.00175185 -0.00157167)
(0.0029483 0.00229874 -0.00157168)
(0.00250434 0.00277578 -0.00157168)
(0.00198428 0.00316848 -0.00157168)
(0.00140393 0.00346491 -0.00157168)
(0.000780929 0.00365607 -0.00157168)
(0.000134196 0.00373613 -0.00157168)
(-0.000516616 0.00370267 -0.00157168)
(-0.00115173 0.00355671 -0.00157167)
(-0.00172353 0.00324706 -0.00143117)
(-0.0022612 0.00289844 -0.00143117)
(-0.00273015 0.00246176 -0.00143117)
(-0.00311615 0.00195027 -0.00143117)
(-0.00340747 0.00137953 -0.00143117)
(-0.00359526 0.000766869 -0.00143117)
(-0.0036738 0.000130908 -0.00143117)
(-0.00364072 -0.00050903 -0.00143117)
(-0.00349702 -0.0011335 -0.00143117)
(-0.00324706 -0.00172353 -0.00143117)
(-0.00289844 -0.0022612 -0.00143117)
(-0.00246176 -0.00273015 -0.00143117)
(-0.00195027 -0.00311615 -0.00143117)
(-0.00137953 -0.00340747 -0.00143117)
(-0.000766869 -0.00359526 -0.00143117)
(-0.000130908 -0.0036738 -0.00143117)
(0.00050903 -0.00364072 -0.00143117)
(0.0011335 -0.00349702 -0.00143117)
(0.00172353 -0.00324706 -0.00143117)
(0.0022612 -0.00289844 -0.00143117)
(0.00273015 -0.00246176 -0.00143117)
(0.00311615 -0.00195027 -0.00143117)
(0.00340747 -0.00137953 -0.00143117)
(0.00359526 -0.000766869 -0.00143117)
(0.0036738 -0.000130908 -0.00143117)
(0.00364072 0.00050903 -0.00143117)
(0.00349702 0.0011335 -0.00143117)
(0.00324706 0.00172353 -0.00143117)
(0.00289844 0.0022612 -0.00143117)
(0.00246176 0.00273015 -0.00143117)
(0.00195027 0.00311615 -0.00143117)
(0.00137953 0.00340747 -0.00143117)
(0.000766869 0.00359526 -0.00143117)
(0.000130908 0.0036738 -0.00143117)
(-0.00050903 0.00364072 -0.00143117)
(-0.0011335 0.00349702 -0.00143117)
(-0.00171236 0.00317471 -0.00129657)
(-0.00223763 0.00282913 -0.00129657)
(-0.00269491 0.00239759 -0.00129657)
(-0.0030703 0.0018932 -0.00129657)
(-0.00335241 0.00133128 -0.00129657)
(-0.00353265 0.000728918 -0.00129657)
(-0.00360556 0.000104405 -0.00129657)
(-0.00356891 -0.00052328 -0.00129657)
(-0.00342383 -0.00113506 -0.00129657)
(-0.00317471 -0.00171236 -0.00129657)
(-0.00282913 -0.00223763 -0.00129657)
(-0.00239759 -0.00269491 -0.00129657)
(-0.0018932 -0.0030703 -0.00129657)
(-0.00133128 -0.00335241 -0.00129657)
(-0.000728918 -0.00353265 -0.00129657)
(-0.000104405 -0.00360556 -0.00129657)
(0.00052328 -0.00356891 -0.00129657)
(0.00113507 -0.00342383 -0.00129657)
(0.00171236 -0.00317471 -0.00129657)
(0.00223763 -0.00282913 -0.00129657)
(0.00269491 -0.00239759 -0.00129657)
(0.0030703 -0.0018932 -0.00129657)
(0.00335241 -0.00133128 -0.00129657)
(0.00353265 -0.000728918 -0.00129657)
(0.00360556 -0.000104405 -0.00129657)
(0.00356891 0.00052328 -0.00129657)
(0.00342383 0.00113507 -0.00129657)
(0.00317471 0.00171236 -0.00129657)
(0.00282913 0.00223763 -0.00129657)
(0.00239759 0.00269491 -0.00129657)
(0.0018932 0.0030703 -0.00129657)
(0.00133128 0.00335241 -0.00129657)
(0.000728918 0.00353265 -0.00129657)
(0.000104405 0.00360556 -0.00129657)
(-0.00052328 0.00356891 -0.00129657)
(-0.00113506 0.00342383 -0.00129657)
(-0.00199193 0.00365692 -0.00190101)
(-0.00259668 0.00325547 -0.00190101)