/*--------------------------------*- C++ -*----------------------------------*\
| =========                 |                                                 |
| \\      /  F ield         | OpenFOAM: The Open Source CFD Toolbox           |
|  \\    /   O peration     | Version:  2312                                  |
|   \\  /    A nd           | Website:  www.openfoam.com                      |
|    \\/     M anipulation  |                                                 |
\*---------------------------------------------------------------------------*/
FoamFile
{
    version     2.0;
    format      ascii;
    arch        "LSB;label=32;scalar=64";
    class       volTensorField;
    location    "0.3";
    object      F;
}
// * * * * * * * * * * * * * * * * * * * * * * * * * * * * * * * * * * * * * //

dimensions      [0 0 0 0 0 0 0];

internalField   nonuniform List<tensor> 
1620
(
(0.958868 -0.031432 0.141285 -0.0298399 0.977145 -0.288887 -0.0239261 -0.00209336 1.07977)
(0.969898 -0.03271 0.189303 -0.031118 0.966116 -0.259964 -0.0231993 -0.00621628 1.07977)
(0.980699 -0.0301388 0.231569 -0.0285468 0.955315 -0.223143 -0.0217674 -0.0101502 1.07977)
(0.989969 -0.0240283 0.2668 -0.0224362 0.946045 -0.179541 -0.019674 -0.0137759 1.07977)
(0.996591 -0.0151156 0.293923 -0.0135235 0.939423 -0.130484 -0.016983 -0.0169831 1.07977)
(0.999764 -0.00447594 0.312116 -0.00288379 0.936249 -0.0774627 -0.013776 -0.0196741 1.07977)
(0.999108 0.00660754 0.320826 0.00819976 0.936906 -0.0220874 -0.0101503 -0.0217672 1.07977)
(0.9947 0.0167982 0.319787 0.0183904 0.941314 0.0339591 -0.00621617 -0.0231991 1.07977)
(0.987072 0.0248667 0.309032 0.0264589 0.948941 0.0889737 -0.00209324 -0.0239261 1.07977)
(0.977145 0.0298399 0.288887 0.031432 0.958868 0.141285 0.00209335 -0.0239261 1.07977)
(0.966116 0.031118 0.259964 0.03271 0.969898 0.189303 0.00621628 -0.0231993 1.07977)
(0.955315 0.0285468 0.223143 0.0301388 0.980699 0.231569 0.0101502 -0.0217674 1.07977)
(0.946045 0.0224362 0.179541 0.0240283 0.989969 0.2668 0.0137759 -0.019674 1.07977)
(0.939423 0.0135235 0.130484 0.0151156 0.996591 0.293923 0.0169831 -0.016983 1.07977)
(0.936249 0.00288379 0.0774627 0.00447595 0.999764 0.312116 0.0196741 -0.013776 1.07977)
(0.936906 -0.00819976 0.0220873 -0.00660753 0.999108 0.320826 0.0217672 -0.0101503 1.07977)
(0.941314 -0.0183904 -0.0339591 -0.0167982 0.9947 0.319787 0.0231991 -0.00621617 1.07977)
(0.948941 -0.0264589 -0.0889737 -0.0248667 0.987072 0.309032 0.0239261 -0.00209324 1.07977)
(0.958868 -0.031432 -0.141285 -0.0298399 0.977145 0.288887 0.0239261 0.00209335 1.07977)
(0.969898 -0.03271 -0.189303 -0.031118 0.966116 0.259964 0.0231993 0.00621628 1.07977)
(0.980699 -0.0301388 -0.231569 -0.0285468 0.955315 0.223143 0.0217674 0.0101502 1.07977)
(0.989969 -0.0240283 -0.2668 -0.0224362 0.946045 0.179541 0.019674 0.0137759 1.07977)
(0.996591 -0.0151156 -0.293923 -0.0135235 0.939423 0.130484 0.016983 0.0169831 1.07977)
(0.999764 -0.00447595 -0.312116 -0.00288379 0.936249 0.0774627 0.013776 0.0196741 1.07977)
(0.999108 0.00660754 -0.320826 0.00819976 0.936906 0.0220873 0.0101503 0.0217672 1.07977)
(0.9947 0.0167982 -0.319787 0.0183904 0.941314 -0.0339591 0.00621617 0.0231991 1.07977)
(0.987072 0.0248667 -0.309032 0.0264589 0.948941 -0.0889737 0.00209324 0.0239261 1.07977)
(0.977145 0.0298399 -0.288887 0.031432 0.958868 -0.141285 -0.00209335 0.0239261 1.07977)
(0.966116 0.031118 -0.259964 0.03271 0.969898 -0.189303 -0.00621628 0.0231993 1.07977)
(0.955315 0.0285468 -0.223143 0.0301388 0.980699 -0.231569 -0.0101502 0.0217674 1.07977)
(0.946045 0.0224362 -0.179541 0.0240283 0.989969 -0.2668 -0.0137759 0.019674 1.07977)
(0.939423 0.0135235 -0.130484 0.0151156 0.996591 -0.293923 -0.0169831 0.016983 1.07977)
(0.936249 0.00288378 -0.0774627 0.00447594 0.999764 -0.312116 -0.0196741 0.013776 1.07977)
(0.936906 -0.00819976 -0.0220874 -0.00660754 0.999108 -0.320826 -0.0217672 0.0101503 1.07977)
(0.941314 -0.0183904 0.0339591 -0.0167982 0.9947 -0.319787 -0.0231991 0.00621617 1.07977)
(0.948941 -0.0264589 0.0889737 -0.0248667 0.987072 -0.309032 -0.0239261 0.00209324 1.07977)
(0.966434 -0.0380773 0.145218 -0.0305195 0.979927 -0.29939 -0.0210832 -0.00184456 1.06443)
(0.978572 -0.0383162 0.195 -0.0307585 0.967789 -0.269625 -0.0204428 -0.00547765 1.06443)
(0.990059 -0.0343894 0.238857 -0.0268317 0.956302 -0.231667 -0.019181 -0.00894422 1.06443)
(0.999511 -0.0267706 0.275457 -0.0192127 0.94685 -0.186671 -0.0173364 -0.012139 1.06443)
(1.00579 -0.0163785 0.303687 -0.00882068 0.940575 -0.136002 -0.0149651 -0.0149651 1.06443)
(1.00813 -0.00446675 0.32269 0.00309111 0.938232 -0.081201 -0.0121391 -0.0173364 1.06443)
(1.00626 0.00752781 0.331888 0.0150858 0.940104 -0.0239329 -0.00894422 -0.0191809 1.06443)
(1.00039 0.0181588 0.331002 0.0257167 0.945966 0.0340625 -0.00547756 -0.0204425 1.06443)
(0.991251 0.0261437 0.320058 0.0337016 0.95511 0.0910229 -0.00184453 -0.0210832 1.06443)
(0.979927 0.0305195 0.29939 0.0380774 0.966434 0.145218 0.00184456 -0.0210832 1.06443)
(0.967789 0.0307585 0.269625 0.0383162 0.978572 0.195 0.00547765 -0.0204428 1.06443)
(0.956302 0.0268317 0.231667 0.0343894 0.990059 0.238857 0.00894422 -0.019181 1.06443)
(0.94685 0.0192127 0.186671 0.0267706 0.999511 0.275457 0.012139 -0.0173364 1.06443)
(0.940575 0.00882068 0.136002 0.0163785 1.00579 0.303687 0.0149651 -0.0149651 1.06443)
(0.938232 -0.0030911 0.081201 0.00446675 1.00813 0.32269 0.0173364 -0.0121391 1.06443)
(0.940104 -0.0150858 0.0239329 -0.00752781 1.00626 0.331888 0.0191809 -0.00894422 1.06443)
(0.945966 -0.0257167 -0.0340625 -0.0181588 1.00039 0.331002 0.0204425 -0.00547756 1.06443)
(0.95511 -0.0337016 -0.0910229 -0.0261437 0.991251 0.320058 0.0210832 -0.00184453 1.06443)
(0.966434 -0.0380773 -0.145218 -0.0305195 0.979927 0.29939 0.0210832 0.00184456 1.06443)
(0.978572 -0.0383162 -0.195 -0.0307585 0.967789 0.269625 0.0204428 0.00547765 1.06443)
(0.990059 -0.0343894 -0.238857 -0.0268317 0.956302 0.231667 0.019181 0.00894422 1.06443)
(0.999511 -0.0267706 -0.275457 -0.0192127 0.94685 0.186671 0.0173364 0.012139 1.06443)
(1.00579 -0.0163785 -0.303687 -0.00882068 0.940575 0.136002 0.0149651 0.0149651 1.06443)
(1.00813 -0.00446675 -0.32269 0.00309111 0.938232 0.081201 0.0121391 0.0173364 1.06443)
(1.00626 0.00752781 -0.331888 0.0150858 0.940104 0.0239329 0.00894422 0.0191809 1.06443)
(1.00039 0.0181588 -0.331002 0.0257167 0.945966 -0.0340625 0.00547756 0.0204425 1.06443)
(0.991251 0.0261437 -0.320058 0.0337016 0.95511 -0.0910229 0.00184453 0.0210832 1.06443)
(0.979927 0.0305195 -0.29939 0.0380773 0.966434 -0.145218 -0.00184456 0.0210832 1.06443)
(0.967789 0.0307585 -0.269625 0.0383162 0.978572 -0.195 -0.00547765 0.0204428 1.06443)
(0.956302 0.0268317 -0.231667 0.0343894 0.990059 -0.238857 -0.00894422 0.019181 1.06443)
(0.94685 0.0192127 -0.186671 0.0267706 0.999511 -0.275457 -0.012139 0.0173364 1.06443)
(0.940575 0.00882067 -0.136002 0.0163785 1.00579 -0.303687 -0.0149651 0.0149651 1.06443)
(0.938232 -0.00309111 -0.081201 0.00446674 1.00813 -0.32269 -0.0173364 0.0121391 1.06443)
(0.940104 -0.0150858 -0.0239329 -0.00752781 1.00626 -0.331888 -0.0191809 0.00894422 1.06443)
(0.945966 -0.0257167 0.0340625 -0.0181588 1.00039 -0.331002 -0.0204425 0.00547756 1.06443)
(0.95511 -0.0337016 0.0910229 -0.0261437 0.991251 -0.320058 -0.0210832 0.00184453 1.06443)
(0.974926 -0.0466361 0.151201 -0.03039 0.981552 -0.308575 -0.0178068 -0.00155785 1.04706)
(0.988298 -0.0454466 0.202488 -0.0292005 0.96818 -0.277632 -0.0172659 -0.00462638 1.04706)
(1.00046 -0.0397554 0.247621 -0.0235093 0.956021 -0.238252 -0.0162001 -0.00755428 1.04706)
(1.00994 -0.0302488 0.285232 -0.0140027 0.946542 -0.191634 -0.0146422 -0.0102526 1.04706)
(1.01559 -0.0180736 0.314175 -0.00182739 0.940886 -0.139192 -0.0126395 -0.0126395 1.04706)
(1.01674 -0.00469805 0.333572 0.0115482 0.939735 -0.0825216 -0.0102526 -0.0146423 1.04706)
(1.01325 0.00826417 0.342835 0.0245105 0.943229 -0.0233436 -0.0075542 -0.0162001 1.04706)
(1.00553 0.0192501 0.34168 0.0354963 0.950945 0.0365436 -0.0046263 -0.0172657 1.04706)
(0.994524 0.0269342 0.330143 0.0431804 0.961953 0.0953205 -0.00155792 -0.0178068 1.04706)
(0.981552 0.03039 0.308575 0.0466361 0.974926 0.151201 0.00155785 -0.0178068 1.04706)
(0.96818 0.0292005 0.277632 0.0454466 0.988298 0.202488 0.00462638 -0.0172659 1.04706)
(0.956021 0.0235093 0.238252 0.0397554 1.00046 0.247621 0.00755428 -0.0162001 1.04706)
(0.946542 0.0140027 0.191634 0.0302488 1.00994 0.285232 0.0102526 -0.0146422 1.04706)
(0.940886 0.00182739 0.139192 0.0180736 1.01559 0.314175 0.0126395 -0.0126395 1.04706)
(0.939735 -0.0115482 0.0825216 0.00469805 1.01674 0.333573 0.0146423 -0.0102526 1.04706)
(0.943229 -0.0245105 0.0233436 -0.00826417 1.01325 0.342835 0.0162001 -0.0075542 1.04706)
(0.950945 -0.0354963 -0.0365436 -0.01925 1.00553 0.34168 0.0172657 -0.0046263 1.04706)
(0.961953 -0.0431804 -0.0953205 -0.0269342 0.994524 0.330143 0.0178068 -0.00155792 1.04706)
(0.974926 -0.0466361 -0.151201 -0.03039 0.981552 0.308575 0.0178068 0.00155785 1.04706)
(0.988298 -0.0454466 -0.202488 -0.0292005 0.96818 0.277632 0.0172659 0.00462638 1.04706)
(1.00046 -0.0397554 -0.247621 -0.0235093 0.956021 0.238252 0.0162001 0.00755427 1.04706)
(1.00994 -0.0302488 -0.285232 -0.0140027 0.946542 0.191634 0.0146422 0.0102526 1.04706)
(1.01559 -0.0180736 -0.314175 -0.00182739 0.940886 0.139192 0.0126395 0.0126395 1.04706)
(1.01674 -0.00469805 -0.333573 0.0115482 0.939735 0.0825216 0.0102526 0.0146423 1.04706)
(1.01325 0.00826417 -0.342835 0.0245105 0.943229 0.0233436 0.0075542 0.0162001 1.04706)
(1.00553 0.0192501 -0.34168 0.0354963 0.950945 -0.0365436 0.0046263 0.0172657 1.04706)
(0.994524 0.0269342 -0.330143 0.0431804 0.961953 -0.0953205 0.00155792 0.0178068 1.04706)
(0.981552 0.03039 -0.308575 0.0466361 0.974926 -0.151201 -0.00155785 0.0178068 1.04706)
(0.96818 0.0292005 -0.277632 0.0454466 0.988298 -0.202488 -0.00462638 0.0172659 1.04706)
(0.956021 0.0235093 -0.238252 0.0397554 1.00046 -0.247621 -0.00755427 0.0162001 1.04706)
(0.946542 0.0140027 -0.191634 0.0302488 1.00994 -0.285232 -0.0102526 0.0146422 1.04706)
(0.940886 0.00182738 -0.139192 0.0180736 1.01559 -0.314175 -0.0126395 0.0126395 1.04706)
(0.939735 -0.0115482 -0.0825216 0.00469805 1.01674 -0.333573 -0.0146423 0.0102526 1.04706)
(0.943229 -0.0245105 -0.0233436 -0.00826417 1.01325 -0.342835 -0.0162001 0.0075542 1.04706)
(0.950945 -0.0354963 0.0365436 -0.0192501 1.00553 -0.34168 -0.0172657 0.0046263 1.04706)
(0.961953 -0.0431804 0.0953205 -0.0269342 0.994524 -0.330143 -0.0178068 0.00155792 1.04706)
(0.970255 -0.089266 0.141766 -0.0467039 0.946062 -0.288002 -0.0532605 -0.00465981 1.09302)
(0.992778 -0.0810288 0.189624 -0.0384667 0.923539 -0.259009 -0.0516423 -0.0138376 1.09302)
(1.01113 -0.0655852 0.231719 -0.0230232 0.905192 -0.222146 -0.048455 -0.0225948 1.09302)
(1.02308 -0.0447977 0.266774 -0.00223568 0.893234 -0.178534 -0.043795 -0.0306654 1.09302)
(1.02721 -0.0211738 0.293724 0.0213885 0.889106 -0.129497 -0.0378045 -0.0378045 1.09302)
(1.02301 0.00243718 0.311748 0.0449995 0.893307 -0.0765248 -0.0306656 -0.043795 1.09302)
(1.01099 0.0231872 0.3203 0.0657497 0.90533 -0.0212277 -0.0225947 -0.0484546 1.09302)
(0.992592 0.0385739 0.31912 0.0811363 0.923726 0.0347144 -0.0138374 -0.051642 1.09302)
(0.970044 0.0467413 0.308244 0.0893034 0.946274 0.0896017 -0.00465961 -0.0532604 1.09302)
(0.946062 0.0467039 0.288002 0.089266 0.970255 0.141766 0.0046598 -0.0532605 1.09302)
(0.923539 0.0384668 0.259009 0.0810288 0.992778 0.189624 0.0138376 -0.0516423 1.09302)
(0.905192 0.0230232 0.222146 0.0655852 1.01113 0.231719 0.0225948 -0.048455 1.09302)
(0.893234 0.00223569 0.178534 0.0447977 1.02308 0.266774 0.0306654 -0.043795 1.09302)
(0.889106 -0.0213885 0.129497 0.0211738 1.02721 0.293724 0.0378045 -0.0378045 1.09302)
(0.893307 -0.0449995 0.0765248 -0.00243718 1.02301 0.311748 0.043795 -0.0306656 1.09302)
(0.90533 -0.0657497 0.0212277 -0.0231872 1.01099 0.3203 0.0484546 -0.0225947 1.09302)
(0.923726 -0.0811363 -0.0347144 -0.0385739 0.992592 0.31912 0.051642 -0.0138374 1.09302)
(0.946274 -0.0893034 -0.0896017 -0.0467413 0.970044 0.308244 0.0532604 -0.00465961 1.09302)
(0.970255 -0.089266 -0.141766 -0.0467039 0.946062 0.288002 0.0532605 0.0046598 1.09302)
(0.992778 -0.0810288 -0.189624 -0.0384668 0.923539 0.259009 0.0516423 0.0138376 1.09302)
(1.01113 -0.0655852 -0.231719 -0.0230232 0.905192 0.222146 0.048455 0.0225948 1.09302)
(1.02308 -0.0447977 -0.266774 -0.00223568 0.893234 0.178534 0.043795 0.0306654 1.09302)
(1.02721 -0.0211738 -0.293724 0.0213885 0.889106 0.129497 0.0378045 0.0378045 1.09302)
(1.02301 0.00243718 -0.311748 0.0449995 0.893307 0.0765248 0.0306656 0.043795 1.09302)
(1.01099 0.0231872 -0.3203 0.0657497 0.90533 0.0212277 0.0225947 0.0484546 1.09302)
(0.992592 0.0385739 -0.31912 0.0811363 0.923726 -0.0347144 0.0138374 0.051642 1.09302)
(0.970044 0.0467413 -0.308244 0.0893034 0.946274 -0.0896017 0.00465961 0.0532604 1.09302)
(0.946062 0.0467039 -0.288002 0.089266 0.970255 -0.141766 -0.0046598 0.0532605 1.09302)
(0.923539 0.0384668 -0.259009 0.0810288 0.992778 -0.189624 -0.0138376 0.0516423 1.09302)
(0.905192 0.0230232 -0.222146 0.0655852 1.01113 -0.231719 -0.0225948 0.048455 1.09302)
(0.893234 0.00223568 -0.178534 0.0447977 1.02308 -0.266774 -0.0306654 0.043795 1.09302)
(0.889106 -0.0213885 -0.129497 0.0211738 1.02721 -0.293724 -0.0378045 0.0378045 1.09302)
(0.893307 -0.0449995 -0.0765248 -0.00243718 1.02301 -0.311748 -0.043795 0.0306656 1.09302)
(0.90533 -0.0657497 -0.0212277 -0.0231872 1.01099 -0.3203 -0.0484546 0.0225947 1.09302)
(0.923726 -0.0811363 0.0347144 -0.0385739 0.992592 -0.31912 -0.051642 0.0138374 1.09302)
(0.946274 -0.0893034 0.0896017 -0.0467413 0.970044 -0.308244 -0.0532604 0.0046596 1.09302)
(0.980564 -0.10479 0.145984 -0.0461941 0.944686 -0.297894 -0.0526836 -0.00460926 1.07896)
(1.0053 -0.0941019 0.195494 -0.0355061 0.919948 -0.268018 -0.051083 -0.0136877 1.07896)
(1.02489 -0.0755974 0.239065 -0.0170017 0.900358 -0.229999 -0.0479301 -0.0223501 1.07896)
(1.03697 -0.0515088 0.275372 0.00708727 0.888278 -0.184992 -0.0433206 -0.0303333 1.07896)
(1.04009 -0.024741 0.303312 0.0338552 0.885165 -0.134363 -0.0373951 -0.037395 1.07896)
(1.03386 0.00147722 0.322036 0.0600734 0.891395 -0.0796525 -0.0303334 -0.0433206 1.07896)
(1.01903 0.0239833 0.330975 0.0825796 0.906216 -0.0225214 -0.02235 -0.0479298 1.07896)
(0.997408 0.040063 0.329858 0.0986592 0.927842 0.0352941 -0.0136875 -0.0510827 1.07896)
(0.971588 0.0477768 0.318718 0.106373 0.953662 0.0920371 -0.00460919 -0.0526835 1.07896)
(0.944686 0.0461941 0.297894 0.10479 0.980564 0.145984 0.00460926 -0.0526836 1.07896)
(0.919948 0.0355061 0.268018 0.0941019 1.0053 0.195494 0.0136877 -0.051083 1.07896)
(0.900358 0.0170017 0.229999 0.0755974 1.02489 0.239065 0.0223501 -0.0479301 1.07896)
(0.888278 -0.00708727 0.184992 0.0515088 1.03697 0.275372 0.0303333 -0.0433206 1.07896)
(0.885165 -0.0338552 0.134363 0.024741 1.04009 0.303312 0.037395 -0.037395 1.07896)
(0.891395 -0.0600734 0.0796525 -0.00147722 1.03386 0.322036 0.0433206 -0.0303334 1.07896)
(0.906216 -0.0825796 0.0225214 -0.0239833 1.01903 0.330975 0.0479298 -0.02235 1.07896)
(0.927842 -0.0986592 -0.0352941 -0.040063 0.997408 0.329858 0.0510827 -0.0136875 1.07896)
(0.953662 -0.106373 -0.0920371 -0.0477768 0.971588 0.318718 0.0526835 -0.00460919 1.07896)
(0.980564 -0.10479 -0.145984 -0.0461941 0.944686 0.297894 0.0526836 0.00460926 1.07896)
(1.0053 -0.0941019 -0.195494 -0.0355061 0.919948 0.268018 0.051083 0.0136877 1.07896)
(1.02489 -0.0755974 -0.239065 -0.0170017 0.900358 0.229999 0.0479301 0.0223501 1.07896)
(1.03697 -0.0515088 -0.275372 0.00708727 0.888278 0.184992 0.0433206 0.0303333 1.07896)
(1.04009 -0.024741 -0.303312 0.0338552 0.885165 0.134363 0.0373951 0.037395 1.07896)
(1.03386 0.00147722 -0.322036 0.0600734 0.891395 0.0796525 0.0303334 0.0433206 1.07896)
(1.01903 0.0239833 -0.330975 0.0825796 0.906216 0.0225214 0.02235 0.0479298 1.07896)
(0.997408 0.040063 -0.329858 0.0986592 0.927842 -0.0352941 0.0136875 0.0510827 1.07896)
(0.971588 0.0477768 -0.318718 0.106373 0.953662 -0.0920371 0.00460919 0.0526835 1.07896)
(0.944686 0.0461941 -0.297894 0.10479 0.980564 -0.145984 -0.00460926 0.0526836 1.07896)
(0.919948 0.0355061 -0.268018 0.0941019 1.0053 -0.195494 -0.0136877 0.051083 1.07896)
(0.900358 0.0170017 -0.229999 0.0755974 1.02489 -0.239065 -0.0223501 0.0479301 1.07896)
(0.888278 -0.00708727 -0.184992 0.0515088 1.03697 -0.275372 -0.0303333 0.0433206 1.07896)
(0.885165 -0.0338553 -0.134363 0.024741 1.04009 -0.303312 -0.037395 0.037395 1.07896)
(0.891395 -0.0600734 -0.0796525 -0.00147722 1.03386 -0.322036 -0.0433206 0.0303334 1.07896)
(0.906216 -0.0825796 -0.0225214 -0.0239833 1.01903 -0.330975 -0.0479298 0.02235 1.07896)
(0.927842 -0.0986592 0.0352941 -0.040063 0.997408 -0.329858 -0.0510827 0.0136875 1.07896)
(0.953662 -0.106373 0.0920371 -0.0477768 0.971588 -0.318718 -0.0526835 0.00460919 1.07896)
(0.991681 -0.124132 0.15179 -0.0436767 0.940699 -0.306383 -0.0511102 -0.00447151 1.06389)
(1.01884 -0.110354 0.202687 -0.0298984 0.913539 -0.275371 -0.0495575 -0.0132789 1.06389)
(1.03965 -0.0881173 0.247425 -0.00766173 0.89273 -0.235991 -0.0464986 -0.0216827 1.06389)
(1.0516 -0.0601045 0.284646 0.0203511 0.880781 -0.189441 -0.0420269 -0.0294276 1.06389)
(1.05325 -0.0296943 0.313217 0.0507615 0.879134 -0.137134 -0.0362783 -0.0362783 1.06389)
(1.04439 -0.000554538 0.332272 0.0799014 0.887986 -0.0806614 -0.0294275 -0.0420268 1.06389)
(1.02611 0.0238 0.341231 0.104256 0.906272 -0.0217375 -0.0216825 -0.0464984 1.06389)
(1.0006 0.0404319 0.339821 0.120888 0.931784 0.0378469 -0.0132788 -0.0495571 1.06389)
(0.970933 0.047335 0.328087 0.127791 0.961446 0.0962813 -0.00447159 -0.0511102 1.06389)
(0.940699 0.0436767 0.306383 0.124132 0.991681 0.15179 0.00447151 -0.0511102 1.06389)
(0.913539 0.0298984 0.275371 0.110354 1.01884 0.202687 0.0132789 -0.0495575 1.06389)
(0.89273 0.00766174 0.235991 0.0881173 1.03965 0.247425 0.0216827 -0.0464986 1.06389)
(0.880781 -0.0203511 0.189441 0.0601045 1.0516 0.284646 0.0294276 -0.0420269 1.06389)
(0.879134 -0.0507615 0.137134 0.0296943 1.05325 0.313217 0.0362783 -0.0362783 1.06389)
(0.887986 -0.0799014 0.0806614 0.000554541 1.04439 0.332272 0.0420268 -0.0294275 1.06389)
(0.906272 -0.104256 0.0217375 -0.0238 1.02611 0.341231 0.0464984 -0.0216825 1.06389)
(0.931784 -0.120888 -0.0378469 -0.0404319 1.0006 0.339821 0.0495571 -0.0132788 1.06389)
(0.961446 -0.127791 -0.0962813 -0.047335 0.970933 0.328087 0.0511102 -0.00447159 1.06389)
(0.991681 -0.124132 -0.15179 -0.0436767 0.940699 0.306383 0.0511102 0.00447151 1.06389)
(1.01884 -0.110354 -0.202687 -0.0298984 0.913539 0.275371 0.0495575 0.0132788 1.06389)
(1.03965 -0.0881173 -0.247425 -0.00766174 0.89273 0.235991 0.0464986 0.0216827 1.06389)
(1.0516 -0.0601045 -0.284646 0.0203511 0.880781 0.189441 0.0420269 0.0294276 1.06389)
(1.05325 -0.0296943 -0.313217 0.0507615 0.879134 0.137134 0.0362783 0.0362783 1.06389)
(1.04439 -0.000554541 -0.332272 0.0799014 0.887986 0.0806614 0.0294275 0.0420268 1.06389)
(1.02611 0.0238 -0.341231 0.104256 0.906272 0.0217375 0.0216825 0.0464984 1.06389)
(1.0006 0.0404319 -0.339821 0.120888 0.931784 -0.0378469 0.0132788 0.0495571 1.06389)
(0.970933 0.047335 -0.328087 0.127791 0.961446 -0.0962813 0.00447159 0.0511102 1.06389)
(0.940699 0.0436767 -0.306383 0.124132 0.991681 -0.15179 -0.0044715 0.0511102 1.06389)
(0.913539 0.0298984 -0.275371 0.110354 1.01884 -0.202687 -0.0132788 0.0495575 1.06389)
(0.89273 0.00766173 -0.235991 0.0881173 1.03965 -0.247425 -0.0216827 0.0464986 1.06389)
(0.880781 -0.0203511 -0.189441 0.0601045 1.0516 -0.284646 -0.0294276 0.0420269 1.06389)
(0.879134 -0.0507615 -0.137134 0.0296943 1.05325 -0.313217 -0.0362783 0.0362783 1.06389)
(0.887986 -0.0799014 -0.0806614 0.00055454 1.04439 -0.332272 -0.0420268 0.0294275 1.06389)
(0.906272 -0.104256 -0.0217375 -0.0238 1.02611 -0.341231 -0.0464984 0.0216825 1.06389)
(0.931784 -0.120888 0.0378469 -0.0404319 1.0006 -0.339821 -0.0495571 0.0132788 1.06389)
(0.961446 -0.127791 0.0962813 -0.047335 0.970933 -0.328087 -0.0511102 0.00447159 1.06389)
(0.982835 -0.146061 0.140604 -0.0613035 0.915734 -0.282025 -0.0772051 -0.00675467 1.12094)
(1.01627 -0.128333 0.187441 -0.0435758 0.882296 -0.253325 -0.0748593 -0.0200585 1.12094)
(1.04163 -0.100238 0.228583 -0.015481 0.856938 -0.216928 -0.0702389 -0.0327528 1.12094)
(1.05585 -0.0651644 0.262779 0.0195928 0.842718 -0.173939 -0.0634842 -0.0444519 1.12094)
(1.05722 -0.0273425 0.288991 0.0574149 0.841352 -0.125665 -0.0548006 -0.0548004 1.12094)
(1.04557 0.00866598 0.306422 0.0934235 0.853004 -0.0735736 -0.044452 -0.0634839 1.12094)
(1.0223 0.0385176 0.314543 0.123275 0.876268 -0.0192462 -0.0327527 -0.0702384 1.12094)
(0.990229 0.0586121 0.313106 0.14337 0.90834 0.0356661 -0.0200582 -0.0748589 1.12094)
(0.953219 0.0665256 0.302156 0.151283 0.94535 0.0894946 -0.00675434 -0.077205 1.12094)
(0.915734 0.0613035 0.282025 0.146061 0.982835 0.140604 0.00675466 -0.0772051 1.12094)
(0.882296 0.0435758 0.253325 0.128333 1.01627 0.187441 0.0200585 -0.0748593 1.12094)
(0.856938 0.015481 0.216928 0.100238 1.04163 0.228583 0.0327528 -0.0702389 1.12094)
(0.842718 -0.0195928 0.173939 0.0651644 1.05585 0.262779 0.0444519 -0.0634842 1.12094)
(0.841352 -0.0574149 0.125665 0.0273425 1.05722 0.288991 0.0548004 -0.0548005 1.12094)
(0.853004 -0.0934235 0.0735736 -0.00866598 1.04557 0.306422 0.0634839 -0.044452 1.12094)
(0.876268 -0.123275 0.0192462 -0.0385176 1.0223 0.314543 0.0702384 -0.0327527 1.12094)
(0.90834 -0.14337 -0.0356661 -0.0586121 0.990229 0.313106 0.0748589 -0.0200582 1.12094)
(0.94535 -0.151283 -0.0894946 -0.0665256 0.953219 0.302156 0.077205 -0.00675435 1.12094)
(0.982835 -0.146061 -0.140604 -0.0613035 0.915734 0.282025 0.0772051 0.00675466 1.12094)
(1.01627 -0.128333 -0.187441 -0.0435758 0.882296 0.253325 0.0748593 0.0200585 1.12094)
(1.04163 -0.100238 -0.228583 -0.015481 0.856938 0.216928 0.0702389 0.0327528 1.12094)
(1.05585 -0.0651644 -0.262779 0.0195928 0.842718 0.173939 0.0634842 0.0444519 1.12094)
(1.05722 -0.0273425 -0.288991 0.0574149 0.841352 0.125665 0.0548006 0.0548004 1.12094)
(1.04557 0.00866598 -0.306422 0.0934235 0.853004 0.0735736 0.044452 0.0634838 1.12094)
(1.0223 0.0385176 -0.314543 0.123275 0.876268 0.0192462 0.0327527 0.0702384 1.12094)
(0.990229 0.0586121 -0.313106 0.14337 0.90834 -0.0356661 0.0200582 0.0748588 1.12094)
(0.953219 0.0665256 -0.302156 0.151283 0.94535 -0.0894946 0.00675435 0.077205 1.12094)
(0.915734 0.0613035 -0.282025 0.146061 0.982835 -0.140604 -0.00675465 0.0772051 1.12094)
(0.882296 0.0435758 -0.253325 0.128333 1.01627 -0.187441 -0.0200585 0.0748593 1.12094)
(0.856938 0.015481 -0.216928 0.100238 1.04163 -0.228583 -0.0327528 0.0702389 1.12094)
(0.842718 -0.0195928 -0.173939 0.0651644 1.05585 -0.262779 -0.0444519 0.0634842 1.12094)
(0.841352 -0.0574149 -0.125665 0.0273425 1.05722 -0.288991 -0.0548004 0.0548005 1.12094)
(0.853004 -0.0934235 -0.0735736 -0.00866598 1.04557 -0.306422 -0.0634838 0.044452 1.12094)
(0.876268 -0.123275 -0.0192462 -0.0385176 1.0223 -0.314543 -0.0702384 0.0327527 1.12094)
(0.90834 -0.14337 0.0356661 -0.058612 0.990229 -0.313106 -0.0748589 0.0200582 1.12094)
(0.94535 -0.151283 0.0894946 -0.0665256 0.953219 -0.302156 -0.077205 0.00675434 1.12094)
(0.994982 -0.169592 0.145699 -0.0594932 0.910462 -0.289183 -0.076735 -0.0067135 1.10986)
(1.03161 -0.14823 0.193701 -0.0381317 0.873834 -0.259489 -0.0744035 -0.0199364 1.10986)
(1.05872 -0.11563 0.235818 -0.00553112 0.846722 -0.221911 -0.0698112 -0.0325535 1.10986)
(1.07305 -0.0757221 0.27077 0.0343764 0.832395 -0.17759 -0.0630976 -0.0441813 1.10986)
(1.07286 -0.0333211 0.297495 0.0767775 0.832581 -0.127874 -0.0544669 -0.0544668 1.10986)
(1.05819 0.00645907 0.31518 0.116558 0.847258 -0.0742714 -0.0441813 -0.0630973 1.10986)
(1.03079 0.0388204 0.323289 0.148919 0.874655 -0.0184127 -0.0325533 -0.0698107 1.10986)
(0.993975 0.0598598 0.321575 0.169959 0.911469 0.0380055 -0.0199361 -0.0744031 1.10986)
(0.952186 0.0670394 0.31009 0.177138 0.953258 0.093269 -0.00671336 -0.0767348 1.10986)
(0.910462 0.0594933 0.289183 0.169592 0.994982 0.145699 0.0067135 -0.076735 1.10986)
(0.873834 0.0381317 0.259489 0.14823 1.03161 0.193701 0.0199364 -0.0744035 1.10986)
(0.846722 0.00553112 0.221911 0.11563 1.05872 0.235818 0.0325535 -0.0698112 1.10986)
(0.832395 -0.0343764 0.17759 0.0757221 1.07305 0.27077 0.0441813 -0.0630976 1.10986)
(0.832581 -0.0767775 0.127874 0.0333211 1.07286 0.297495 0.0544668 -0.0544669 1.10986)
(0.847258 -0.116558 0.0742714 -0.00645907 1.05819 0.31518 0.0630973 -0.0441813 1.10986)
(0.874655 -0.148919 0.0184127 -0.0388204 1.03079 0.323289 0.0698107 -0.0325533 1.10986)
(0.911469 -0.169959 -0.0380055 -0.0598597 0.993975 0.321575 0.0744031 -0.0199361 1.10986)
(0.953258 -0.177138 -0.0932691 -0.0670394 0.952186 0.31009 0.0767348 -0.00671337 1.10986)
(0.994982 -0.169592 -0.145699 -0.0594933 0.910462 0.289183 0.076735 0.0067135 1.10986)
(1.03161 -0.14823 -0.193701 -0.0381317 0.873834 0.259489 0.0744035 0.0199364 1.10986)
(1.05872 -0.11563 -0.235818 -0.00553112 0.846722 0.221911 0.0698112 0.0325535 1.10986)
(1.07305 -0.0757221 -0.27077 0.0343764 0.832395 0.17759 0.0630976 0.0441813 1.10986)
(1.07286 -0.0333211 -0.297495 0.0767775 0.832581 0.127874 0.0544669 0.0544668 1.10986)
(1.05819 0.00645907 -0.31518 0.116558 0.847258 0.0742714 0.0441813 0.0630973 1.10986)
(1.03079 0.0388204 -0.323289 0.148919 0.874655 0.0184127 0.0325533 0.0698107 1.10986)
(0.993975 0.0598597 -0.321575 0.169959 0.911469 -0.0380055 0.0199361 0.0744031 1.10986)
(0.952186 0.0670394 -0.31009 0.177138 0.953258 -0.0932691 0.00671337 0.0767348 1.10986)
(0.910462 0.0594933 -0.289183 0.169592 0.994982 -0.145699 -0.00671349 0.076735 1.10986)
(0.873834 0.0381317 -0.259489 0.14823 1.03161 -0.193701 -0.0199363 0.0744035 1.10986)
(0.846722 0.00553112 -0.221911 0.11563 1.05872 -0.235818 -0.0325535 0.0698112 1.10986)
(0.832395 -0.0343764 -0.17759 0.0757221 1.07305 -0.27077 -0.0441813 0.0630976 1.10986)
(0.832581 -0.0767775 -0.127874 0.0333211 1.07286 -0.297495 -0.0544668 0.0544669 1.10986)
(0.847258 -0.116558 -0.0742714 -0.00645907 1.05819 -0.31518 -0.0630973 0.0441813 1.10986)
(0.874655 -0.148919 -0.0184127 -0.0388203 1.03079 -0.323289 -0.0698107 0.0325533 1.10986)
(0.911469 -0.169959 0.0380055 -0.0598597 0.993975 -0.321575 -0.0744031 0.0199361 1.10986)
(0.953258 -0.177138 0.093269 -0.0670394 0.952186 -0.31009 -0.0767348 0.00671336 1.10986)
(1.00777 -0.198521 0.151989 -0.054477 0.901473 -0.294715 -0.0750774 -0.00656839 1.09887)
(1.04783 -0.172715 0.200856 -0.0286711 0.861413 -0.263845 -0.0727963 -0.0195057 1.09887)
(1.07664 -0.134764 0.243621 0.00928005 0.832595 -0.224958 -0.0683032 -0.0318503 1.09887)
(1.09074 -0.0892451 0.278983 0.0547988 0.818495 -0.179236 -0.0617345 -0.043227 1.09887)
(1.08843 -0.0416491 0.305869 0.102395 0.820813 -0.128068 -0.0532902 -0.0532903 1.09887)
(1.06997 0.00228364 0.323461 0.146328 0.839271 -0.0730091 -0.0432269 -0.0617344 1.09887)
(1.0376 0.0372538 0.331225 0.181298 0.871642 -0.0157315 -0.0318501 -0.0683027 1.09887)
(0.995219 0.0590439 0.328925 0.203088 0.91402 0.0420241 -0.0195056 -0.0727959 1.09887)
(0.947943 0.0650255 0.31663 0.20907 0.961296 0.0985028 -0.00656845 -0.0750772 1.09887)
(0.901473 0.054477 0.294715 0.198521 1.00777 0.151989 0.00656839 -0.0750774 1.09887)
(0.861413 0.0286711 0.263845 0.172715 1.04783 0.200856 0.0195057 -0.0727963 1.09887)
(0.832595 -0.00928005 0.224958 0.134764 1.07664 0.243621 0.0318503 -0.0683032 1.09887)
(0.818495 -0.0547988 0.179236 0.0892451 1.09074 0.278983 0.043227 -0.0617345 1.09887)
(0.820813 -0.102395 0.128068 0.0416491 1.08843 0.305869 0.0532903 -0.0532902 1.09887)
(0.839271 -0.146328 0.0730091 -0.00228363 1.06997 0.323461 0.0617344 -0.0432269 1.09887)
(0.871642 -0.181298 0.0157315 -0.0372538 1.0376 0.331225 0.0683027 -0.0318501 1.09887)
(0.91402 -0.203088 -0.0420241 -0.0590439 0.995219 0.328925 0.0727959 -0.0195056 1.09887)
(0.961296 -0.20907 -0.0985028 -0.0650255 0.947943 0.31663 0.0750772 -0.00656845 1.09887)
(1.00777 -0.198521 -0.151989 -0.054477 0.901473 0.294715 0.0750774 0.00656838 1.09887)
(1.04783 -0.172715 -0.200856 -0.0286711 0.861413 0.263845 0.0727963 0.0195057 1.09887)
(1.07664 -0.134764 -0.243621 0.00928005 0.832595 0.224958 0.0683032 0.0318503 1.09887)
(1.09074 -0.0892451 -0.278983 0.0547988 0.818495 0.179236 0.0617345 0.043227 1.09887)
(1.08843 -0.0416491 -0.305869 0.102395 0.820813 0.128068 0.0532902 0.0532903 1.09887)
(1.06997 0.00228363 -0.323461 0.146328 0.839271 0.0730091 0.0432269 0.0617344 1.09887)
(1.0376 0.0372538 -0.331225 0.181298 0.871642 0.0157315 0.0318501 0.0683027 1.09887)
(0.995219 0.0590439 -0.328925 0.203088 0.91402 -0.0420241 0.0195056 0.0727959 1.09887)
(0.947943 0.0650255 -0.31663 0.20907 0.961296 -0.0985028 0.00656845 0.0750772 1.09887)
(0.901473 0.054477 -0.294715 0.198521 1.00777 -0.151989 -0.00656838 0.0750774 1.09887)
(0.861413 0.0286711 -0.263845 0.172715 1.04783 -0.200856 -0.0195057 0.0727963 1.09887)
(0.832595 -0.00928005 -0.224958 0.134764 1.07664 -0.243621 -0.0318503 0.0683031 1.09887)
(0.818495 -0.0547988 -0.179236 0.0892451 1.09074 -0.278983 -0.043227 0.0617345 1.09887)
(0.820813 -0.102395 -0.128068 0.0416491 1.08843 -0.305869 -0.0532903 0.0532902 1.09887)
(0.839271 -0.146328 -0.0730091 -0.00228363 1.06997 -0.323461 -0.0617344 0.0432269 1.09887)
(0.871642 -0.181298 -0.0157315 -0.0372538 1.0376 -0.331225 -0.0683027 0.0318501 1.09887)
(0.91402 -0.203088 0.0420241 -0.0590439 0.995219 -0.328925 -0.0727959 0.0195056 1.09887)
(0.961296 -0.20907 0.0985028 -0.0650255 0.947943 -0.31663 -0.0750772 0.00656844 1.09887)
(0.998919 -0.202657 0.138353 -0.0670366 0.886418 -0.271377 -0.0939514 -0.00821989 1.14639)
(1.04165 -0.175286 0.183376 -0.0396656 0.84369 -0.243229 -0.0910969 -0.0244094 1.14639)
(1.07244 -0.134952 0.222826 0.000668696 0.8129 -0.207691 -0.0854742 -0.0398573 1.14639)
(1.08757 -0.0865191 0.255506 0.0491013 0.797762 -0.165843 -0.0772546 -0.0540941 1.14639)
(1.08523 -0.03583 0.280422 0.0997905 0.800102 -0.118955 -0.0666875 -0.0666873 1.14639)