/*--------------------------------*- C++ -*----------------------------------*\
| =========                 |                                                 |
| \\      /  F ield         | OpenFOAM: The Open Source CFD Toolbox           |
|  \\    /   O peration     | Version:  2312                                  |
|   \\  /    A nd           | Website:  www.openfoam.com                      |
|    \\/     M anipulation  |                                                 |
\*---------------------------------------------------------------------------*/
FoamFile
{
    version     2.0;
    format      ascii;
    arch        "LSB;label=32;scalar=64";
    class       pointVectorField;
    location    "0.3";
    object      pointD;
}
// * * * * * * * * * * * * * * * * * * * * * * * * * * * * * * * * * * * * * //

dimensions      [0 1 0 0 0 0 0];

internalField   nonuniform List<vector> 
2164
(
(0 0 0)
(0 0 0)
(0 0 0)
(0 0 0)
(0 0 0)
(0 0 0)
(0 0 0)
(0 0 0)
(0 0 0)
(0 0 0)
(0 0 0)
(0 0 0)
(0 0 0)
(0 0 0)
(0 0 0)
(0 0 0)
(0 0 0)
(0 0 0)
(0 0 0)
(0 0 0)
(0 0 0)
(0 0 0)
(0 0 0)
(0 0 0)
(0 0 0)
(0 0 0)
(0 0 0)
(0 0 0)
(0 0 0)
(0 0 0)
(0 0 0)
(0 0 0)
(0 0 0)
(0 0 0)
(0 0 0)
(0 0 0)
(-0.000391769 0.000482558 -0.00016844)
(-0.000469612 0.000407197 -0.00016844)
(-0.000533187 0.000319463 -0.00016844)
(-0.000580561 0.000222023 -0.00016844)
(-0.000610295 0.000117837 -0.00016844)
(-0.000621485 1.00706e-05 -0.00016844)
(-0.000613792 -9.80023e-05 -0.00016844)
(-0.000587449 -0.000203097 -0.00016844)
(-0.000543257 -0.000302022 -0.00016844)
(-0.000482558 -0.000391769 -0.00016844)
(-0.000407197 -0.000469612 -0.00016844)
(-0.000319463 -0.000533187 -0.00016844)
(-0.000222023 -0.000580561 -0.00016844)
(-0.000117837 -0.000610295 -0.00016844)
(-1.00706e-05 -0.000621485 -0.00016844)
(9.80023e-05 -0.000613792 -0.00016844)
(0.000203097 -0.000587449 -0.00016844)
(0.000302022 -0.000543257 -0.00016844)
(0.000391769 -0.000482558 -0.00016844)
(0.000469612 -0.000407197 -0.00016844)
(0.000533187 -0.000319463 -0.00016844)
(0.000580561 -0.000222023 -0.00016844)
(0.000610295 -0.000117837 -0.00016844)
(0.000621485 -1.00706e-05 -0.00016844)
(0.000613792 9.80023e-05 -0.00016844)
(0.000587449 0.000203097 -0.00016844)
(0.000543257 0.000302022 -0.00016844)
(0.000482558 0.000391769 -0.00016844)
(0.000407197 0.000469612 -0.00016844)
(0.000319463 0.000533187 -0.00016844)
(0.000222023 0.000580561 -0.00016844)
(0.000117837 0.000610295 -0.00016844)
(1.00706e-05 0.000621485 -0.00016844)
(-9.80023e-05 0.000613792 -0.00016844)
(-0.000203097 0.000587449 -0.00016844)
(-0.000302022 0.000543257 -0.00016844)
(-0.000353705 0.000529244 -0.000129306)
(-0.000440233 0.000459783 -0.000129306)
(-0.000513386 0.000376353 -0.000129306)
(-0.000570939 0.000281487 -0.000129306)
(-0.000611145 0.000178067 -0.000129306)
(-0.000632782 6.92376e-05 -0.000129306)
(-0.000635191 -4.16951e-05 -0.000129306)
(-0.000618301 -0.000151362 -0.000129306)
(-0.000582624 -0.000256429 -0.000129306)
(-0.000529244 -0.000353705 -0.000129306)
(-0.000459783 -0.000440234 -0.000129306)
(-0.000376353 -0.000513386 -0.000129306)
(-0.000281487 -0.000570939 -0.000129306)
(-0.000178067 -0.000611145 -0.000129306)
(-6.92375e-05 -0.000632782 -0.000129306)
(4.16951e-05 -0.000635191 -0.000129306)
(0.000151362 -0.000618301 -0.000129306)
(0.000256429 -0.000582624 -0.000129306)
(0.000353705 -0.000529244 -0.000129306)
(0.000440234 -0.000459783 -0.000129306)
(0.000513386 -0.000376353 -0.000129306)
(0.000570939 -0.000281487 -0.000129306)
(0.000611145 -0.000178067 -0.000129306)
(0.000632782 -6.92375e-05 -0.000129306)
(0.000635191 4.16951e-05 -0.000129306)
(0.000618301 0.000151362 -0.000129306)
(0.000582624 0.000256429 -0.000129306)
(0.000529244 0.000353705 -0.000129306)
(0.000459783 0.000440234 -0.000129306)
(0.000376353 0.000513386 -0.000129306)
(0.000281487 0.000570939 -0.000129306)
(0.000178067 0.000611145 -0.000129306)
(6.92376e-05 0.000632782 -0.000129306)
(-4.16951e-05 0.000635191 -0.000129306)
(-0.000151362 0.000618301 -0.000129306)
(-0.000256429 0.000582624 -0.000129306)
(0 0 0)
(0 0 0)
(0 0 0)
(0 0 0)
(0 0 0)
(0 0 0)
(0 0 0)
(0 0 0)
(0 0 0)
(0 0 0)
(0 0 0)
(0 0 0)
(0 0 0)
(0 0 0)
(0 0 0)
(0 0 0)
(0 0 0)
(0 0 0)
(0 0 0)
(0 0 0)
(0 0 0)
(0 0 0)
(0 0 0)
(0 0 0)
(0 0 0)
(0 0 0)
(0 0 0)
(0 0 0)
(0 0 0)
(0 0 0)
(0 0 0)
(0 0 0)
(0 0 0)
(0 0 0)
(0 0 0)
(0 0 0)
(-0.000325458 0.000575193 -9.1233e-05)
(-0.000420395 0.000509938 -9.12333e-05)
(-0.000502558 0.000429191 -9.12331e-05)
(-0.000569451 0.000335402 -9.12333e-05)
(-0.000619042 0.000231423 -9.12333e-05)
(-0.000649823 0.000120412 -9.1233e-05)
(-0.00066086 5.74141e-06 -9.12333e-05)
(-0.000651818 -0.000109103 -9.1233e-05)
(-0.000622969 -0.000220633 -9.12332e-05)
(-0.000575193 -0.000325458 -9.1233e-05)
(-0.000509938 -0.000420395 -9.12333e-05)
(-0.000429191 -0.000502558 -9.12331e-05)
(-0.000335402 -0.000569451 -9.12333e-05)
(-0.000231423 -0.000619042 -9.12333e-05)
(-0.000120412 -0.000649823 -9.12331e-05)
(-5.74139e-06 -0.00066086 -9.12333e-05)
(0.000109103 -0.000651818 -9.1233e-05)
(0.000220633 -0.000622969 -9.12332e-05)
(0.000325458 -0.000575193 -9.1233e-05)
(0.000420395 -0.000509938 -9.12333e-05)
(0.000502558 -0.000429191 -9.12331e-05)
(0.000569451 -0.000335402 -9.12333e-05)
(0.000619042 -0.000231423 -9.12333e-05)
(0.000649823 -0.000120412 -9.1233e-05)
(0.00066086 -5.74139e-06 -9.12333e-05)
(0.000651818 0.000109103 -9.1233e-05)
(0.000622969 0.000220633 -9.12332e-05)
(0.000575193 0.000325458 -9.1233e-05)
(0.000509938 0.000420395 -9.12333e-05)
(0.000429191 0.000502558 -9.12331e-05)
(0.000335402 0.000569451 -9.12333e-05)
(0.000231423 0.000619042 -9.12332e-05)
(0.000120412 0.000649824 -9.1233e-05)
(5.74141e-06 0.00066086 -9.12333e-05)
(-0.000109103 0.000651818 -9.1233e-05)
(-0.000220633 0.000622969 -9.12332e-05)
(0 0 0)
(0 0 0)
(0 0 0)
(0 0 0)
(0 0 0)
(0 0 0)
(0 0 0)
(0 0 0)
(0 0 0)
(0 0 0)
(0 0 0)
(0 0 0)
(0 0 0)
(0 0 0)
(0 0 0)
(0 0 0)
(0 0 0)
(0 0 0)
(0 0 0)
(0 0 0)
(0 0 0)
(0 0 0)
(0 0 0)
(0 0 0)
(0 0 0)
(0 0 0)
(0 0 0)
(0 0 0)
(0 0 0)
(0 0 0)
(0 0 0)
(0 0 0)
(0 0 0)
(0 0 0)
(0 0 0)
(0 0 0)
(-0.000307112 0.000616912 -5.67601e-05)
(-0.000409572 0.000554211 -5.67603e-05)
(-0.000499587 0.00047467 -5.67603e-05)
(-0.000574423 0.000380705 -5.67604e-05)
(-0.000631805 0.000275175 -5.67603e-05)
(-0.00066999 0.000161281 -5.67604e-05)
(-0.000687818 4.24883e-05 -5.67605e-05)
(-0.000684747 -7.75952e-05 -5.67604e-05)
(-0.000660869 -0.000195321 -5.67605e-05)
(-0.000616912 -0.000307112 -5.67602e-05)
(-0.000554211 -0.000409572 -5.67603e-05)
(-0.00047467 -0.000499587 -5.67604e-05)
(-0.000380705 -0.000574423 -5.67604e-05)
(-0.000275174 -0.000631805 -5.67604e-05)
(-0.000161281 -0.00066999 -5.67604e-05)
(-4.24882e-05 -0.000687818 -5.67606e-05)
(7.75953e-05 -0.000684747 -5.67604e-05)
(0.000195321 -0.000660869 -5.67605e-05)
(0.000307113 -0.000616912 -5.67602e-05)
(0.000409572 -0.000554211 -5.67603e-05)
(0.000499587 -0.00047467 -5.67604e-05)
(0.000574423 -0.000380705 -5.67604e-05)
(0.000631805 -0.000275174 -5.67603e-05)
(0.00066999 -0.000161281 -5.67604e-05)
(0.000687818 -4.24882e-05 -5.67605e-05)
(0.000684747 7.75953e-05 -5.67604e-05)
(0.000660869 0.000195321 -5.67605e-05)
(0.000616912 0.000307113 -5.67601e-05)
(0.000554211 0.000409572 -5.67603e-05)
(0.00047467 0.000499588 -5.67603e-05)
(0.000380705 0.000574423 -5.67604e-05)
(0.000275175 0.000631805 -5.67603e-05)
(0.000161281 0.00066999 -5.67604e-05)
(4.24882e-05 0.000687818 -5.67605e-05)
(-7.75952e-05 0.000684747 -5.67603e-05)
(-0.000195321 0.000660869 -5.67605e-05)
(0 0 0)
(0 0 0)
(0 0 0)
(0 0 0)
(0 0 0)
(0 0 0)
(0 0 0)
(0 0 0)
(0 0 0)
(0 0 0)
(0 0 0)
(0 0 0)
(0 0 0)
(0 0 0)
(0 0 0)
(0 0 0)
(0 0 0)
(0 0 0)
(0 0 0)
(0 0 0)
(0 0 0)
(0 0 0)
(0 0 0)
(0 0 0)
(0 0 0)
(0 0 0)
(0 0 0)
(0 0 0)
(0 0 0)
(0 0 0)
(0 0 0)
(0 0 0)
(0 0 0)
(0 0 0)
(0 0 0)
(0 0 0)
(-0.000716666 0.00100647 -0.000362144)
(-0.00088055 0.000866731 -0.000362145)
(-0.00101768 0.000700658 -0.000362144)
(-0.00112389 0.000513296 -0.000362143)
(-0.00119594 0.000310338 -0.000362143)
(-0.00123166 9.79501e-05 -0.000362143)
(-0.00122996 -0.000117415 -0.000362144)
(-0.00119089 -0.000329212 -0.000362144)
(-0.00111563 -0.000531006 -0.000362144)
(-0.00100647 -0.000716666 -0.000362144)
(-0.000866731 -0.00088055 -0.000362145)
(-0.000700658 -0.00101768 -0.000362144)
(-0.000513296 -0.00112389 -0.000362143)
(-0.000310338 -0.00119594 -0.000362143)
(-9.795e-05 -0.00123166 -0.000362143)
(0.000117415 -0.00122996 -0.000362144)
(0.000329212 -0.00119089 -0.000362144)
(0.000531006 -0.00111563 -0.000362144)
(0.000716666 -0.00100647 -0.000362144)
(0.00088055 -0.000866731 -0.000362145)
(0.00101768 -0.000700658 -0.000362144)
(0.00112389 -0.000513296 -0.000362143)
(0.00119594 -0.000310338 -0.000362143)
(0.00123166 -9.795e-05 -0.000362143)
(0.00122996 0.000117415 -0.000362144)
(0.00119089 0.000329212 -0.000362144)
(0.00111563 0.000531006 -0.000362144)
(0.00100647 0.000716666 -0.000362144)
(0.000866731 0.00088055 -0.000362145)
(0.000700658 0.00101768 -0.000362144)
(0.000513296 0.00112389 -0.000362143)
(0.000310338 0.00119594 -0.000362143)
(9.79501e-05 0.00123166 -0.000362143)
(-0.000117415 0.00122996 -0.000362144)
(-0.000329212 0.00119089 -0.000362144)
(-0.000531006 0.00111563 -0.000362144)
(-0.000684666 0.00106884 -0.000294441)
(-0.000859867 0.000933714 -0.000294441)
(-0.00100894 0.000770214 -0.000294442)
(-0.00112736 0.000583312 -0.000294441)
(-0.00121152 0.000378687 -0.000294441)
(-0.00125888 0.000162554 -0.000294441)
(-0.00126798 -5.85165e-05 -0.000294441)
(-0.00123855 -0.00027781 -0.000294441)
(-0.0011715 -0.000488662 -0.000294441)
(-0.00106884 -0.000684666 -0.000294441)
(-0.000933714 -0.000859867 -0.000294441)
(-0.000770214 -0.00100894 -0.000294442)
(-0.000583312 -0.00112736 -0.000294441)
(-0.000378687 -0.00121152 -0.000294441)
(-0.000162554 -0.00125888 -0.000294441)
(5.85165e-05 -0.00126798 -0.000294441)
(0.000277811 -0.00123855 -0.000294441)
(0.000488662 -0.0011715 -0.000294441)
(0.000684666 -0.00106884 -0.000294441)
(0.000859867 -0.000933714 -0.000294441)
(0.00100894 -0.000770214 -0.000294442)
(0.00112736 -0.000583312 -0.000294441)
(0.00121152 -0.000378687 -0.000294441)
(0.00125888 -0.000162554 -0.000294441)
(0.00126798 5.85165e-05 -0.000294441)
(0.00123855 0.00027781 -0.000294441)
(0.0011715 0.000488662 -0.000294441)
(0.00106884 0.000684666 -0.000294441)
(0.000933714 0.000859867 -0.000294441)
(0.000770214 0.00100894 -0.000294442)
(0.000583312 0.00112736 -0.000294441)
(0.000378687 0.00121152 -0.000294441)
(0.000162554 0.00125888 -0.000294441)
(-5.85164e-05 0.00126798 -0.000294441)
(-0.00027781 0.00123855 -0.000294441)
(-0.000488662 0.0011715 -0.000294441)
(-0.000664135 0.0011293 -0.000226083)
(-0.000850146 0.000996823 -0.000226083)
(-0.00101033 0.000834053 -0.000226083)
(-0.00113981 0.000645941 -0.000226083)
(-0.00123466 0.000438201 -0.000226083)
(-0.001292 0.000217146 -0.000226083)
(-0.00131007 -1.05055e-05 -0.000226083)
(-0.00128835 -0.000237837 -0.000226083)
(-0.00122747 -0.000457943 -0.000226083)
(-0.0011293 -0.000664135 -0.000226083)
(-0.000996823 -0.000850146 -0.000226083)
(-0.000834053 -0.00101033 -0.000226083)
(-0.000645941 -0.00113981 -0.000226083)
(-0.000438201 -0.00123466 -0.000226083)
(-0.000217146 -0.001292 -0.000226083)
(1.05056e-05 -0.00131007 -0.000226083)
(0.000237837 -0.00128835 -0.000226083)
(0.000457943 -0.00122747 -0.000226083)
(0.000664135 -0.0011293 -0.000226083)
(0.000850146 -0.000996823 -0.000226083)
(0.00101033 -0.000834053 -0.000226083)
(0.00113981 -0.000645941 -0.000226083)
(0.00123466 -0.000438201 -0.000226083)
(0.001292 -0.000217146 -0.000226083)
(0.00131007 1.05056e-05 -0.000226083)
(0.00128835 0.000237837 -0.000226083)
(0.00122747 0.000457943 -0.000226083)
(0.0011293 0.000664135 -0.000226083)
(0.000996823 0.000850146 -0.000226083)
(0.000834053 0.00101033 -0.000226083)
(0.000645941 0.00113981 -0.000226083)
(0.000438201 0.00123466 -0.000226083)
(0.000217146 0.001292 -0.000226083)
(-1.05055e-05 0.00131007 -0.000226083)
(-0.000237837 0.00128835 -0.000226083)
(-0.000457943 0.00122747 -0.000226083)
(-0.000654107 0.00118103 -0.000160748)
(-0.000849253 0.0010495 -0.000160748)
(-0.00101859 0.000886084 -0.000160748)
(-0.00115699 0.000695746 -0.000160748)
(-0.00126022 0.000484267 -0.000160749)
(-0.00132517 0.000258074 -0.000160749)
(-0.00134985 2.4041e-05 -0.000160748)
(-0.00133352 -0.000210724 -0.000160748)
(-0.00127667 -0.000439087 -0.000160748)
(-0.00118103 -0.000654107 -0.000160748)
(-0.0010495 -0.000849253 -0.000160748)
(-0.000886084 -0.00101859 -0.000160748)
(-0.000695746 -0.00115699 -0.000160749)
(-0.000484267 -0.00126022 -0.000160749)
(-0.000258074 -0.00132517 -0.000160749)
(-2.4041e-05 -0.00134985 -0.000160748)
(0.000210724 -0.00133352 -0.000160748)
(0.000439087 -0.00127667 -0.000160748)
(0.000654107 -0.00118103 -0.000160748)
(0.000849253 -0.0010495 -0.000160748)
(0.00101859 -0.000886084 -0.000160748)
(0.00115699 -0.000695746 -0.000160748)
(0.00126022 -0.000484267 -0.000160749)
(0.00132517 -0.000258074 -0.000160749)
(0.00134985 -2.4041e-05 -0.000160748)
(0.00133352 0.000210724 -0.000160748)
(0.00127667 0.000439087 -0.000160748)
(0.00118103 0.000654107 -0.000160748)
(0.0010495 0.000849253 -0.000160748)
(0.000886084 0.00101859 -0.000160748)
(0.000695746 0.00115699 -0.000160748)
(0.000484267 0.00126022 -0.000160748)
(0.000258074 0.00132517 -0.000160748)
(2.4041e-05 0.00134985 -0.000160748)
(-0.000210724 0.00133352 -0.000160748)
(-0.000439087 0.00127667 -0.000160748)
(-0.00103419 0.00152765 -0.000610708)
(-0.00128375 0.00132485 -0.000610708)
(-0.0014943 0.0010818 -0.000610707)
(-0.00165945 0.000805887 -0.000610707)
(-0.00177418 0.000505482 -0.000610706)
(-0.00183501 0.00018972 -0.000610706)
(-0.00184007 -0.000131809 -0.000610707)
(-0.00178923 -0.000449333 -0.000610707)
(-0.00168402 -0.000753202 -0.000610707)
(-0.00152765 -0.00103419 -0.000610708)
(-0.00132485 -0.00128375 -0.000610708)
(-0.0010818 -0.0014943 -0.000610707)
(-0.000805887 -0.00165945 -0.000610707)
(-0.000505482 -0.00177418 -0.000610706)
(-0.00018972 -0.00183501 -0.000610706)
(0.00013181 -0.00184007 -0.000610707)
(0.000449333 -0.00178923 -0.000610707)
(0.000753202 -0.00168402 -0.000610708)
(0.00103419 -0.00152765 -0.000610708)
(0.00128375 -0.00132485 -0.000610708)
(0.0014943 -0.0010818 -0.000610707)
(0.00165945 -0.000805887 -0.000610707)
(0.00177418 -0.000505482 -0.000610706)
(0.00183501 -0.00018972 -0.000610706)
(0.00184007 0.00013181 -0.000610706)
(0.00178923 0.000449333 -0.000610707)
(0.00168402 0.000753202 -0.000610707)
(0.00152765 0.00103419 -0.000610708)
(0.00132485 0.00128375 -0.000610708)
(0.0010818 0.0014943 -0.000610707)
(0.000805887 0.00165945 -0.000610707)
(0.000505482 0.00177418 -0.000610706)
(0.00018972 0.00183501 -0.000610706)
(-0.000131809 0.00184007 -0.000610706)
(-0.000449333 0.00178923 -0.000610707)
(-0.000753202 0.00168402 -0.000610707)
(-0.001008 0.00159575 -0.000518246)
(-0.00126979 0.00139647 -0.000518246)
(-0.00149299 0.00115476 -0.000518246)
(-0.00167083 0.00087796 -0.000518246)
(-0.0017979 0.000574486 -0.000518246)
(-0.00187035 0.000253556 -0.000518246)
(-0.00188596 -7.50794e-05 -0.000518246)
(-0.00184427 -0.000401433 -0.000518246)
(-0.00174655 -0.000715589 -0.000518246)
(-0.00159575 -0.001008 -0.000518246)
(-0.00139647 -0.00126979 -0.000518246)
(-0.00115476 -0.00149299 -0.000518246)
(-0.00087796 -0.00167083 -0.000518246)
(-0.000574486 -0.0017979 -0.000518246)
(-0.000253555 -0.00187035 -0.000518246)
(7.50794e-05 -0.00188596 -0.000518246)
(0.000401433 -0.00184427 -0.000518246)
(0.000715589 -0.00174655 -0.000518246)
(0.001008 -0.00159575 -0.000518246)
(0.00126979 -0.00139647 -0.000518246)
(0.00149299 -0.00115476 -0.000518246)
(0.00167083 -0.00087796 -0.000518246)
(0.0017979 -0.000574486 -0.000518246)
(0.00187035 -0.000253556 -0.000518246)
(0.00188596 7.50794e-05 -0.000518246)
(0.00184427 0.000401433 -0.000518246)
(0.00174655 0.000715589 -0.000518246)
(0.00159575 0.001008 -0.000518246)
(0.00139647 0.00126979 -0.000518246)
(0.00115476 0.00149299 -0.000518246)
(0.00087796 0.00167083 -0.000518246)
(0.000574486 0.0017979 -0.000518246)
(0.000253556 0.00187035 -0.000518246)
(-7.50793e-05 0.00188596 -0.000518245)
(-0.000401433 0.00184427 -0.000518246)
(-0.000715589 0.00174655 -0.000518246)
(-0.000994394 0.00166059 -0.00042552)
(-0.00126765 0.00146269 -0.000425521)
(-0.00150238 0.00122034 -0.000425521)
(-0.00169147 0.000940919 -0.000425521)
(-0.00182916 0.000632903 -0.000425521)
(-0.00191127 0.000305658 -0.00042552)
(-0.00193531 -3.08742e-05 -0.000425521)
(-0.00190055 -0.00036647 -0.00042552)
(-0.00180804 -0.000690929 -0.000425521)
(-0.00166059 -0.000994394 -0.00042552)
(-0.00146269 -0.00126765 -0.000425521)
(-0.00122034 -0.00150238 -0.000425521)
(-0.000940919 -0.00169147 -0.000425521)
(-0.000632903 -0.00182916 -0.000425521)
(-0.000305658 -0.00191127 -0.00042552)
(3.08743e-05 -0.00193531 -0.000425521)
(0.00036647 -0.00190055 -0.00042552)
(0.000690929 -0.00180804 -0.000425521)
(0.000994394 -0.00166059 -0.00042552)
(0.00126765 -0.00146269 -0.000425521)
(0.00150238 -0.00122034 -0.000425521)
(0.00169147 -0.000940919 -0.000425521)
(0.00182916 -0.000632903 -0.000425521)
(0.00191127 -0.000305658 -0.00042552)
(0.00193531 3.08743e-05 -0.000425521)
(0.00190055 0.00036647 -0.00042552)
(0.00180804 0.000690929 -0.000425521)
(0.00166059 0.000994394 -0.00042552)
(0.00146269 0.00126765 -0.000425521)
(0.00122034 0.00150238 -0.00042552)
(0.000940919 0.00169147 -0.000425521)
(0.000632903 0.00182916 -0.000425521)
(0.000305658 0.00191127 -0.00042552)
(-3.08742e-05 0.00193531 -0.000425521)
(-0.00036647 0.00190055 -0.00042552)
(-0.000690929 0.00180804 -0.000425521)
(-0.000990969 0.00171203 -0.000336503)
(-0.0012732 0.00151394 -0.000336503)
(-0.00151675 0.00126985 -0.000336503)
(-0.00171422 0.000987179 -0.000336503)
(-0.0018596 0.000674511 -0.000336503)
(-0.00194847 0.000341347 -0.000336503)
(-0.00197815 -2.18769e-06 -0.000336504)
(-0.00194771 -0.000345655 -0.000336504)
(-0.0018581 -0.000678622 -0.000336503)
(-0.00171203 -0.000990969 -0.000336503)
(-0.00151394 -0.0012732 -0.000336504)
(-0.00126985 -0.00151675 -0.000336503)
(-0.000987179 -0.00171422 -0.000336503)
(-0.000674511 -0.0018596 -0.000336504)
(-0.000341347 -0.00194847 -0.000336503)
(2.18775e-06 -0.00197815 -0.000336504)
(0.000345655 -0.00194771 -0.000336504)
(0.000678622 -0.0018581 -0.000336503)
(0.000990969 -0.00171203 -0.000336503)
(0.0012732 -0.00151394 -0.000336504)
(0.00151675 -0.00126985 -0.000336503)
(0.00171422 -0.000987179 -0.000336503)
(0.0018596 -0.000674511 -0.000336503)
(0.00194847 -0.000341347 -0.000336503)
(0.00197815 2.18774e-06 -0.000336504)
(0.00194771 0.000345655 -0.000336504)
(0.0018581 0.000678622 -0.000336503)
(0.00171203 0.000990969 -0.000336503)
(0.00151394 0.0012732 -0.000336503)
(0.00126985 0.00151675 -0.000336503)
(0.000987179 0.00171422 -0.000336503)
(0.000674511 0.0018596 -0.000336503)
(0.000341348 0.00194847 -0.000336503)
(-2.18767e-06 0.00197815 -0.000336504)
(-0.000345655 0.00194771 -0.000336504)
(-0.000678622 0.0018581 -0.000336503)
(-0.00134241 0.00204175 -0.000896132)
(-0.00167656 0.00177763 -0.000896132)
(-0.00195977 0.00145949 -0.000896132)
(-0.00218344 0.00109701 -0.000896132)
(-0.00234076 0.000701192 -0.000896131)
(-0.00242696 0.000284072 -0.000896131)
(-0.00243942 -0.000141681 -0.000896131)
(-0.00237775 -0.000563131 -0.000896131)
(-0.00224384 -0.000967467 -0.000896131)
(-0.00204175 -0.00134241 -0.000896132)
(-0.00177763 -0.00167656 -0.000896132)
(-0.00145949 -0.00195977 -0.000896132)
(-0.00109701 -0.00218344 -0.000896132)
(-0.000701192 -0.00234076 -0.000896131)
(-0.000284072 -0.00242696 -0.000896131)
(0.000141681 -0.00243942 -0.000896131)
(0.000563131 -0.00237775 -0.000896131)
(0.000967467 -0.00224384 -0.000896131)
(0.00134241 -0.00204175 -0.000896132)
(0.00167656 -0.00177763 -0.000896132)
(0.00195977 -0.00145949 -0.000896132)
(0.00218344 -0.00109701 -0.000896132)
(0.00234076 -0.000701192 -0.000896131)
(0.00242696 -0.000284072 -0.000896131)
(0.00243942 0.000141681 -0.00089613)
(0.00237775 0.000563131 -0.000896131)
(0.00224384 0.000967467 -0.000896131)
(0.00204175 0.00134241 -0.000896132)
(0.00177763 0.00167656 -0.000896132)
(0.00145949 0.00195977 -0.000896132)
(0.00109701 0.00218344 -0.000896132)
(0.000701192 0.00234076 -0.000896131)
(0.000284072 0.00242696 -0.000896131)
(-0.000141681 0.00243942 -0.00089613)
(-0.000563131 0.00237775 -0.000896131)
(-0.000967467 0.00224384 -0.000896131)
(-0.00132133 0.00210012 -0.000783198)
(-0.00166594 0.00183876 -0.000783199)
(-0.00195992 0.00152154 -0.000783198)
(-0.00219436 0.00115809 -0.000783198)
(-0.00236212 0.000759449 -0.000783198)
(-0.00245812 0.000337733 -0.000783197)
(-0.00247942 -9.42445e-05 -0.000783198)
(-0.00242538 -0.00052336 -0.000783198)
(-0.00229766 -0.000936572 -0.000783198)
(-0.00210012 -0.00132133 -0.000783198)
(-0.00183876 -0.00166594 -0.000783199)
(-0.00152154 -0.00195992 -0.000783198)
(-0.00115809 -0.00219436 -0.000783198)
(-0.000759449 -0.00236212 -0.000783198)
(-0.000337733 -0.00245812 -0.000783197)
(9.42446e-05 -0.00247942 -0.000783198)
(0.00052336 -0.00242538 -0.000783198)
(0.000936572 -0.00229766 -0.000783198)
(0.00132133 -0.00210012 -0.000783198)
(0.00166594 -0.00183876 -0.000783199)
(0.00195992 -0.00152154 -0.000783198)
(0.00219436 -0.00115809 -0.000783198)
(0.00236212 -0.000759449 -0.000783198)
(0.00245812 -0.000337733 -0.000783197)
(0.00247942 9.42445e-05 -0.000783198)
(0.00242538 0.00052336 -0.000783198)
(0.00229766 0.000936572 -0.000783198)
(0.00210012 0.00132133 -0.000783198)
(0.00183876 0.00166594 -0.000783198)
(0.00152154 0.00195992 -0.000783198)
(0.00115809 0.00219436 -0.000783198)
(0.000759449 0.00236212 -0.000783198)
(0.000337733 0.00245812 -0.000783197)
(-9.42444e-05 0.00247942 -0.000783198)
(-0.00052336 0.00242538 -0.000783198)
(-0.000936572 0.00229766 -0.000783198)
(-0.00131402 0.00215342 -0.000670584)
(-0.001668 0.00189253 -0.000670584)
(-0.00197129 0.00157413 -0.000670584)
(-0.00221469 0.0012079 -0.000670584)
(-0.00239079 0.000804979 -0.000670584)
(-0.00249425 0.000377593 -0.000670584)
(-0.00252193 -6.12678e-05 -0.000670584)
(-0.00247297 -0.000498265 -0.000670584)
(-0.00234888 -0.000920123 -0.000670584)
(-0.00215342 -0.00131402 -0.000670584)
(-0.00189253 -0.001668 -0.000670584)
(-0.00157413 -0.00197129 -0.000670584)
(-0.0012079 -0.00221469 -0.000670584)
(-0.000804979 -0.00239079 -0.000670584)
(-0.000377593 -0.00249425 -0.000670584)
(6.12679e-05 -0.00252193 -0.000670584)
(0.000498265 -0.00247297 -0.000670584)
(0.000920123 -0.00234888 -0.000670584)
(0.00131402 -0.00215342 -0.000670584)
(0.001668 -0.00189253 -0.000670584)
(0.00197129 -0.00157413 -0.000670584)
(0.00221469 -0.0012079 -0.000670584)
(0.00239079 -0.000804979 -0.000670584)
(0.00249425 -0.000377593 -0.000670584)
(0.00252193 6.12678e-05 -0.000670584)
(0.00247297 0.000498265 -0.000670584)
(0.00234888 0.000920123 -0.000670583)
(0.00215342 0.00131402 -0.000670584)
(0.00189253 0.001668 -0.000670584)
(0.00157413 0.00197129 -0.000670584)
(0.0012079 0.00221469 -0.000670584)
(0.000804979 0.00239079 -0.000670584)
(0.000377593 0.00249425 -0.000670584)
(-6.12678e-05 0.00252193 -0.000670584)
(-0.000498264 0.00247297 -0.000670584)
(-0.000920123 0.00234888 -0.000670583)
(-0.00131594 0.00218927 -0.000562366)
(-0.00167611 0.0019275 -0.000562365)
(-0.00198535 0.00160716 -0.000562366)
(-0.00223427 0.00123799 -0.000562365)
(-0.0024153 0.000831209 -0.000562366)
(-0.00252294 0.000399166 -0.000562366)
(-0.00255393 -4.50026e-05 -0.000562365)
(-0.00250731 -0.000487804 -0.000562366)
(-0.00238452 -0.000915784 -0.000562365)
(-0.00218927 -0.00131594 -0.000562366)
(-0.0019275 -0.00167611 -0.000562365)
(-0.00160716 -0.00198535 -0.000562366)
(-0.00123799 -0.00223427 -0.000562366)
(-0.000831208 -0.0024153 -0.000562366)
(-0.000399165 -0.00252294 -0.000562366)
(4.50027e-05 -0.00255393 -0.000562366)
(0.000487804 -0.00250731 -0.000562366)
(0.000915784 -0.00238452 -0.000562365)
(0.00131594 -0.00218927 -0.000562366)
(0.00167611 -0.0019275 -0.000562365)
(0.00198535 -0.00160716 -0.000562366)
(0.00223427 -0.00123799 -0.000562365)
(0.0024153 -0.000831209 -0.000562366)
(0.00252294 -0.000399165 -0.000562366)
(0.00255393 4.50026e-05 -0.000562365)
(0.00250731 0.000487804 -0.000562366)
(0.00238452 0.000915784 -0.000562365)
(0.00218927 0.00131594 -0.000562366)
(0.0019275 0.00167611 -0.000562365)
(0.00160716 0.00198535 -0.000562366)
(0.00123799 0.00223427 -0.000562365)
(0.000831209 0.0024153 -0.000562365)
(0.000399166 0.00252294 -0.000562366)
(-4.50026e-05 0.00255393 -0.000562365)
(-0.000487804 0.00250731 -0.000562366)
(-0.000915784 0.00238452 -0.000562365)
(-0.00164662 0.00253859 -0.0012108)
(-0.00206243 0.00221409 -0.0012108)
(-0.00241557 0.00182232 -0.0012108)
(-0.00269531 0.00137517 -0.0012108)
(-0.00289316 0.000886246 -0.0012108)
(-0.0030031 0.000370387 -0.0012108)
(-0.00302179 -0.000156721 -0.0012108)
(-0.00294867 -0.00067907 -0.0012108)
(-0.00278596 -0.00118078 -0.0012108)
(-0.00253859 -0.00164662 -0.0012108)
(-0.00221409 -0.00206243 -0.0012108)
(-0.00182232 -0.00241557 -0.0012108)
(-0.00137517 -0.00269531 -0.0012108)
(-0.000886246 -0.00289316 -0.0012108)
(-0.000370387 -0.0030031 -0.0012108)
(0.000156721 -0.00302179 -0.0012108)
(0.00067907 -0.00294867 -0.0012108)
(0.00118078 -0.00278596 -0.0012108)
(0.00164662 -0.00253859 -0.0012108)
(0.00206243 -0.00221409 -0.0012108)
(0.00241557 -0.00182232 -0.0012108)
(0.00269531 -0.00137517 -0.0012108)
(0.00289316 -0.000886246 -0.0012108)
(0.0030031 -0.000370387 -0.0012108)
(0.00302179 0.000156721 -0.0012108)
(0.00294867 0.00067907 -0.0012108)
(0.00278596 0.00118078 -0.0012108)
(0.00253859 0.00164662 -0.0012108)
(0.00221409 0.00206243 -0.0012108)
(0.00182232 0.00241557 -0.0012108)
(0.00137517 0.00269531 -0.0012108)
(0.000886246 0.00289316 -0.0012108)
(0.000370387 0.0030031 -0.0012108)
(-0.000156721 0.00302179 -0.0012108)
(-0.00067907 0.00294867 -0.0012108)
(-0.00118078 0.00278596 -0.0012108)
(-0.00162675 0.00256953 -0.00108138)
(-0.00204823 0.00224801 -0.00108138)
(-0.00240747 0.00185819 -0.00108138)
(-0.00269357 0.00141191 -0.00108138)
(-0.00289782 0.000922723 -0.00108138)
(-0.00301403 0.000405504 -0.00108138)
(-0.00303865 -0.000124037 -0.00108138)
(-0.00297095 -0.000649809 -0.00108138)
(-0.00281298 -0.00115584 -0.00108138)
(-0.00256953 -0.00162675 -0.00108138)
(-0.00224801 -0.00204823 -0.00108138)
(-0.00185819 -0.00240747 -0.00108138)
(-0.00141191 -0.00269357 -0.00108138)
(-0.000922723 -0.00289782 -0.00108138)
(-0.000405504 -0.00301403 -0.00108138)
(0.000124038 -0.00303865 -0.00108138)
(0.000649809 -0.00297095 -0.00108138)
(0.00115584 -0.00281298 -0.00108138)
(0.00162675 -0.00256953 -0.00108138)
(0.00204823 -0.00224801 -0.00108138)
(0.00240747 -0.00185819 -0.00108138)
(0.00269357 -0.00141191 -0.00108138)
(0.00289782 -0.000922723 -0.00108138)
(0.00301403 -0.000405504 -0.00108138)
(0.00303865 0.000124037 -0.00108138)
(0.00297095 0.000649809 -0.00108138)
(0.00281298 0.00115584 -0.00108138)
(0.00256953 0.00162675 -0.00108138)
(0.00224801 0.00204823 -0.00108138)
(0.00185819 0.00240747 -0.00108138)
(0.00141191 0.00269357 -0.00108138)
(0.000922723 0.00289782 -0.00108138)
(0.000405504 0.00301403 -0.00108138)
(-0.000124037 0.00303865 -0.00108138)
(-0.000649809 0.00297095 -0.00108138)
(-0.00115584 0.00281298 -0.00108138)
(-0.00162125 0.00259386 -0.000952955)
(-0.00204703 0.00227293 -0.000952955)
(-0.00241063 0.00188293 -0.000952955)
(-0.00270097 0.00143572 -0.000952954)
(-0.00290925 0.000944892 -0.000952954)
(-0.00302913 0.000425353 -0.000952955)
(-0.00305697 -0.000107113 -0.000952955)
(-0.00299193 -0.000636321 -0.000952955)
(-0.00283598 -0.0011462 -0.000952955)
(-0.00259386 -0.00162125 -0.000952955)
(-0.00227293 -0.00204703 -0.000952955)
(-0.00188293 -0.00241063 -0.000952955)
(-0.00143572 -0.00270097 -0.000952954)
(-0.000944892 -0.00290925 -0.000952954)
(-0.000425353 -0.00302913 -0.000952955)
(0.000107113 -0.00305697 -0.000952955)
(0.000636321 -0.00299193 -0.000952955)
(0.0011462 -0.00283598 -0.000952955)
(0.00162125 -0.00259386 -0.000952955)
(0.00204703 -0.00227293 -0.000952955)
(0.00241063 -0.00188293 -0.000952955)
(0.00270097 -0.00143572 -0.000952954)
(0.00290925 -0.000944892 -0.000952954)
(0.00302913 -0.000425353 -0.000952955)
(0.00305697 0.000107113 -0.000952955)
(0.00299193 0.000636321 -0.000952955)
(0.00283598 0.0011462 -0.000952955)
(0.00259386 0.00162125 -0.000952955)
(0.00227293 0.00204703 -0.000952955)
(0.00188293 0.00241063 -0.000952955)
(0.00143572 0.00270097 -0.000952954)
(0.000944892 0.00290925 -0.000952954)
(0.000425353 0.00302913 -0.000952955)
(-0.000107113 0.00305697 -0.000952955)
(-0.000636321 0.00299193 -0.000952955)
(-0.0011462 0.00283598 -0.000952955)
(-0.00162348 0.0025979 -0.000829342)
(-0.00204994 0.00227652 -0.000829342)
(-0.00241411 0.00188597 -0.000829341)
(-0.00270492 0.00143811 -0.000829342)
(-0.00291356 0.000946556 -0.000829342)
(-0.00303366 0.000426246 -0.000829342)
(-0.00306159 -0.000107021 -0.000829342)
(-0.00299649 -0.000637036 -0.000829342)
(-0.00284035 -0.00114769 -0.000829342)
(-0.0025979 -0.00162348 -0.000829342)
(-0.00227652 -0.00204994 -0.000829342)
(-0.00188597 -0.00241411 -0.000829341)
(-0.00143811 -0.00270492 -0.000829342)
(-0.000946556 -0.00291356 -0.000829342)
(-0.000426245 -0.00303366 -0.000829342)
(0.000107021 -0.00306159 -0.000829342)
(0.000637036 -0.00299649 -0.000829342)
(0.00114769 -0.00284035 -0.000829342)
(0.00162348 -0.0025979 -0.000829342)
(0.00204994 -0.00227652 -0.000829342)
(0.00241411 -0.00188597 -0.000829341)
(0.00270492 -0.00143811 -0.000829342)
(0.00291356 -0.000946556 -0.000829342)
(0.00303366 -0.000426245 -0.000829342)
(0.00306159 0.000107021 -0.000829342)
(0.00299649 0.000637036 -0.000829342)
(0.00284035 0.00114769 -0.000829341)
(0.0025979 0.00162348 -0.000829342)
(0.00227652 0.00204994 -0.000829342)
(0.00188597 0.00241411 -0.000829341)
(0.00143811 0.00270492 -0.000829342)
(0.000946556 0.00291356 -0.000829342)
(0.000426246 0.00303366 -0.000829342)
(-0.000107021 0.00306159 -0.000829342)
(-0.000637036 0.00299649 -0.000829342)
(-0.00114769 0.00284035 -0.000829341)
(-0.00194957 0.00300254 -0.00154723)
(-0.00244134 0.00261838 -0.00154724)
(-0.00285892 0.00215467 -0.00154723)
(-0.00318964 0.00162549 -0.00154723)
(-0.00342345 0.00104692 -0.00154723)