/*--------------------------------*- C++ -*----------------------------------*\
| =========                 |                                                 |
| \\      /  F ield         | OpenFOAM: The Open Source CFD Toolbox           |
|  \\    /   O peration     | Version:  2312                                  |
|   \\  /    A nd           | Website:  www.openfoam.com                      |
|    \\/     M anipulation  |                                                 |
\*---------------------------------------------------------------------------*/
FoamFile
{
    version     2.0;
    format      ascii;
    arch        "LSB;label=32;scalar=64";
    class       volTensorField;
    location    "1";
    object      F;
}
// * * * * * * * * * * * * * * * * * * * * * * * * * * * * * * * * * * * * * //

dimensions      [0 0 0 0 0 0 0];

internalField   nonuniform List<tensor> 
1620
(
(1.06114 0.0374492 -0.106614 0.0553945 1.02414 0.320288 -0.0381307 -0.00333581 0.920271)
(1.04415 0.0409765 -0.160612 0.0589216 1.04114 0.296909 -0.0369719 -0.00990639 0.920271)
(1.02697 0.0384792 -0.20973 0.0564242 1.05831 0.264508 -0.0346899 -0.0161763 0.920271)
(1.01169 0.0302584 -0.252475 0.0482036 1.07359 0.22407 -0.0313542 -0.0219546 0.92027)
(1.00014 0.0173055 -0.287549 0.0352512 1.08515 0.176824 -0.0270656 -0.0270656 0.92027)
(0.993712 0.00118319 -0.313885 0.019129 1.09157 0.124206 -0.0219544 -0.0313544 0.920271)
(0.993189 -0.0161641 -0.330685 0.00178175 1.09209 0.0678129 -0.0161763 -0.0346907 0.920271)
(0.998631 -0.0326438 -0.337436 -0.014698 1.08665 0.00935978 -0.00990683 -0.0369725 0.920271)
(1.00938 -0.0462684 -0.333935 -0.0283228 1.0759 -0.0493774 -0.00333618 -0.0381308 0.920271)
(1.02414 -0.0553945 -0.320288 -0.0374492 1.06114 -0.106614 0.00333581 -0.0381307 0.920271)
(1.04114 -0.0589216 -0.296909 -0.0409765 1.04415 -0.160612 0.00990639 -0.0369719 0.920271)
(1.05831 -0.0564242 -0.264508 -0.0384792 1.02697 -0.20973 0.0161763 -0.0346899 0.920271)
(1.07359 -0.0482036 -0.22407 -0.0302584 1.01169 -0.252475 0.0219546 -0.0313542 0.92027)
(1.08515 -0.0352512 -0.176824 -0.0173055 1.00014 -0.287549 0.0270656 -0.0270656 0.92027)
(1.09157 -0.019129 -0.124206 -0.00118319 0.993712 -0.313885 0.0313544 -0.0219544 0.920271)
(1.09209 -0.00178175 -0.0678129 0.0161641 0.993189 -0.330685 0.0346907 -0.0161763 0.920271)
(1.08665 0.014698 -0.00935978 0.0326438 0.998631 -0.337436 0.0369725 -0.00990683 0.920271)
(1.0759 0.0283228 0.0493774 0.0462684 1.00938 -0.333935 0.0381308 -0.00333618 0.920271)
(1.06114 0.0374492 0.106614 0.0553945 1.02414 -0.320288 0.0381307 0.00333581 0.920271)
(1.04415 0.0409765 0.160612 0.0589216 1.04114 -0.296909 0.0369719 0.00990639 0.920271)
(1.02697 0.0384792 0.20973 0.0564242 1.05831 -0.264508 0.0346899 0.0161763 0.920271)
(1.01169 0.0302584 0.252475 0.0482036 1.07359 -0.22407 0.0313542 0.0219546 0.92027)
(1.00014 0.0173055 0.287549 0.0352512 1.08515 -0.176824 0.0270656 0.0270656 0.92027)
(0.993712 0.00118319 0.313885 0.019129 1.09157 -0.124206 0.0219544 0.0313544 0.920271)
(0.993189 -0.0161641 0.330685 0.00178175 1.09209 -0.0678129 0.0161763 0.0346907 0.920271)
(0.998631 -0.0326438 0.337436 -0.014698 1.08665 -0.00935978 0.00990683 0.0369725 0.920271)
(1.00938 -0.0462684 0.333935 -0.0283228 1.0759 0.0493774 0.00333618 0.0381308 0.920271)
(1.02414 -0.0553945 0.320288 -0.0374492 1.06114 0.106614 -0.00333581 0.0381307 0.920271)
(1.04114 -0.0589216 0.296909 -0.0409765 1.04415 0.160612 -0.00990639 0.0369719 0.920271)
(1.05831 -0.0564242 0.264508 -0.0384792 1.02697 0.20973 -0.0161763 0.0346899 0.920271)
(1.07359 -0.0482036 0.22407 -0.0302584 1.01169 0.252475 -0.0219546 0.0313542 0.92027)
(1.08515 -0.0352512 0.176824 -0.0173055 1.00014 0.287549 -0.0270656 0.0270656 0.92027)
(1.09157 -0.019129 0.124206 -0.00118319 0.993712 0.313885 -0.0313544 0.0219544 0.920271)
(1.09209 -0.00178175 0.0678129 0.0161641 0.993189 0.330685 -0.0346907 0.0161763 0.920271)
(1.08665 0.014698 0.00935978 0.0326438 0.998631 0.337436 -0.0369725 0.00990683 0.920271)
(1.0759 0.0283228 -0.0493774 0.0462684 1.00938 0.333935 -0.0381308 0.00333618 0.920271)
(1.08256 0.050272 -0.0819902 0.0546648 1.01862 0.366099 -0.0300078 -0.00262527 0.884212)
(1.06268 0.0580413 -0.144317 0.0624339 1.0385 0.3463 -0.0290957 -0.00779599 0.884212)
(1.04135 0.058545 -0.202259 0.0629377 1.05983 0.315978 -0.0273 -0.0127301 0.884211)
(1.02113 0.0517223 -0.254055 0.0561152 1.08004 0.276056 -0.0246749 -0.0172776 0.884211)
(1.00447 0.038396 -0.298132 0.0427891 1.09671 0.227746 -0.0212998 -0.0212997 0.884211)
(0.993367 0.0201739 -0.333151 0.0245668 1.10781 0.172515 -0.0172774 -0.0246748 0.884211)
(0.989167 -0.000746459 -0.358046 0.00364675 1.11201 0.112044 -0.0127302 -0.0273004 0.884212)
(0.992375 -0.0218417 -0.372063 -0.0174484 1.1088 0.0481674 -0.0077963 -0.0290964 0.884212)
(1.0026 -0.0405673 -0.374775 -0.0361744 1.09857 -0.0171723 -0.00262537 -0.0300079 0.884212)
(1.01862 -0.0546648 -0.366099 -0.050272 1.08256 -0.0819902 0.00262527 -0.0300078 0.884212)
(1.0385 -0.0624339 -0.3463 -0.0580413 1.06268 -0.144317 0.00779599 -0.0290957 0.884212)
(1.05983 -0.0629377 -0.315978 -0.058545 1.04135 -0.202259 0.0127301 -0.0273 0.884211)
(1.08004 -0.0561152 -0.276056 -0.0517223 1.02113 -0.254055 0.0172776 -0.0246749 0.884211)
(1.09671 -0.0427891 -0.227746 -0.038396 1.00447 -0.298132 0.0212997 -0.0212998 0.884211)
(1.10781 -0.0245668 -0.172515 -0.0201739 0.993367 -0.333151 0.0246748 -0.0172774 0.884211)
(1.11201 -0.00364675 -0.112044 0.000746459 0.989167 -0.358046 0.0273004 -0.0127302 0.884212)
(1.1088 0.0174484 -0.0481674 0.0218417 0.992375 -0.372063 0.0290964 -0.0077963 0.884212)
(1.09857 0.0361744 0.0171723 0.0405673 1.0026 -0.374775 0.0300079 -0.00262537 0.884212)
(1.08256 0.050272 0.0819902 0.0546648 1.01862 -0.366099 0.0300078 0.00262527 0.884212)
(1.06268 0.0580413 0.144317 0.0624339 1.0385 -0.3463 0.0290957 0.00779599 0.884212)
(1.04135 0.058545 0.202259 0.0629377 1.05983 -0.315978 0.0273 0.0127301 0.884211)
(1.02113 0.0517223 0.254055 0.0561152 1.08004 -0.276056 0.0246749 0.0172776 0.884211)
(1.00447 0.038396 0.298132 0.0427891 1.09671 -0.227746 0.0212998 0.0212997 0.884211)
(0.993367 0.0201739 0.333151 0.0245668 1.10781 -0.172515 0.0172774 0.0246748 0.884211)
(0.989167 -0.000746459 0.358046 0.00364675 1.11201 -0.112044 0.0127302 0.0273004 0.884212)
(0.992375 -0.0218417 0.372063 -0.0174484 1.1088 -0.0481674 0.0077963 0.0290964 0.884212)
(1.0026 -0.0405673 0.374775 -0.0361744 1.09857 0.0171723 0.00262537 0.0300079 0.884212)
(1.01862 -0.0546648 0.366099 -0.050272 1.08256 0.0819902 -0.00262527 0.0300078 0.884212)
(1.0385 -0.0624339 0.3463 -0.0580413 1.06268 0.144317 -0.00779599 0.0290957 0.884212)
(1.05983 -0.0629377 0.315978 -0.058545 1.04135 0.202259 -0.0127301 0.0273 0.884211)
(1.08004 -0.0561152 0.276056 -0.0517223 1.02113 0.254055 -0.0172776 0.0246749 0.884211)
(1.09671 -0.0427891 0.227746 -0.038396 1.00447 0.298132 -0.0212997 0.0212998 0.884211)
(1.10781 -0.0245668 0.172515 -0.0201739 0.993367 0.333151 -0.0246748 0.0172774 0.884211)
(1.11201 -0.00364675 0.112044 0.000746459 0.989167 0.358046 -0.0273004 0.0127302 0.884212)
(1.1088 0.0174484 0.0481674 0.0218417 0.992375 0.372063 -0.0290964 0.0077963 0.884212)
(1.09857 0.0361744 -0.0171723 0.0405673 1.0026 0.374775 -0.0300079 0.00262537 0.884212)
(1.10469 0.0656413 -0.0527238 0.0534851 1.00517 0.409658 -0.0209673 -0.00183452 0.852343)
(1.08131 0.0790672 -0.123059 0.066911 1.02854 0.394279 -0.0203299 -0.0054473 0.852343)
(1.05476 0.0836898 -0.189655 0.0715334 1.0551 0.366919 -0.0190752 -0.00889471 0.852343)
(1.02823 0.0789512 -0.250489 0.0667945 1.08163 0.328412 -0.017241 -0.0120723 0.852343)
(1.00491 0.0654226 -0.303712 0.0532663 1.10495 0.279925 -0.0148825 -0.0148827 0.852343)
(0.987631 0.0447362 -0.347706 0.0325802 1.12223 0.222934 -0.012072 -0.0172407 0.852343)
(0.978468 0.0193876 -0.381136 0.00723138 1.13139 0.159168 -0.00889502 -0.0190753 0.852343)
(0.978527 -0.00756678 -0.402985 -0.019723 1.13133 0.0905669 -0.00544757 -0.0203305 0.852343)
(0.987801 -0.0328751 -0.41259 -0.0450314 1.12206 0.0192136 -0.00183431 -0.0209674 0.852343)
(1.00517 -0.0534851 -0.409658 -0.0656413 1.10469 -0.0527238 0.00183452 -0.0209673 0.852343)
(1.02854 -0.066911 -0.394279 -0.0790672 1.08131 -0.123059 0.0054473 -0.0203299 0.852343)
(1.0551 -0.0715334 -0.366919 -0.0836898 1.05476 -0.189655 0.00889471 -0.0190752 0.852343)
(1.08163 -0.0667945 -0.328412 -0.0789512 1.02823 -0.250489 0.0120723 -0.017241 0.852343)
(1.10495 -0.0532663 -0.279925 -0.0654226 1.00491 -0.303712 0.0148827 -0.0148825 0.852343)
(1.12223 -0.0325802 -0.222934 -0.0447362 0.987631 -0.347706 0.0172407 -0.012072 0.852343)
(1.13139 -0.00723138 -0.159168 -0.0193876 0.978468 -0.381136 0.0190753 -0.00889502 0.852343)
(1.13133 0.019723 -0.0905669 0.00756678 0.978527 -0.402985 0.0203305 -0.00544757 0.852343)
(1.12206 0.0450314 -0.0192136 0.0328751 0.987801 -0.41259 0.0209674 -0.00183431 0.852343)
(1.10469 0.0656413 0.0527238 0.0534851 1.00517 -0.409658 0.0209673 0.00183452 0.852343)
(1.08131 0.0790672 0.123059 0.066911 1.02854 -0.394279 0.0203299 0.0054473 0.852343)
(1.05476 0.0836898 0.189655 0.0715334 1.0551 -0.366919 0.0190752 0.00889471 0.852343)
(1.02823 0.0789512 0.250489 0.0667945 1.08163 -0.328412 0.017241 0.0120723 0.852343)
(1.00491 0.0654226 0.303712 0.0532663 1.10495 -0.279925 0.0148825 0.0148827 0.852343)
(0.987631 0.0447362 0.347706 0.0325802 1.12223 -0.222934 0.012072 0.0172407 0.852343)
(0.978468 0.0193876 0.381136 0.00723138 1.13139 -0.159168 0.00889502 0.0190753 0.852343)
(0.978527 -0.00756678 0.402985 -0.019723 1.13133 -0.0905669 0.00544757 0.0203305 0.852343)
(0.987801 -0.0328751 0.41259 -0.0450314 1.12206 -0.0192136 0.00183431 0.0209674 0.852343)
(1.00517 -0.0534851 0.409658 -0.0656413 1.10469 0.0527238 -0.00183452 0.0209673 0.852343)
(1.02854 -0.066911 0.394279 -0.0790672 1.08131 0.123059 -0.0054473 0.0203299 0.852343)
(1.0551 -0.0715334 0.366919 -0.0836898 1.05476 0.189655 -0.00889471 0.0190752 0.852343)
(1.08163 -0.0667945 0.328412 -0.0789512 1.02823 0.250489 -0.0120723 0.017241 0.852343)
(1.10495 -0.0532663 0.279925 -0.0654226 1.00491 0.303712 -0.0148827 0.0148825 0.852343)
(1.12223 -0.0325802 0.222934 -0.0447362 0.987631 0.347706 -0.0172407 0.012072 0.852343)
(1.13139 -0.00723138 0.159168 -0.0193876 0.978468 0.381136 -0.0190753 0.00889502 0.852343)
(1.13133 0.019723 0.0905669 0.00756678 0.978527 0.402985 -0.0203305 0.00544757 0.852343)
(1.12206 0.0450314 0.0192136 0.0328751 0.987801 0.41259 -0.0209674 0.00183431 0.852343)
(1.10015 0.105717 -0.0889136 0.140834 1.05439 0.33101 -0.109015 -0.00953721 0.891033)
(1.05661 0.106108 -0.145042 0.141225 1.09793 0.310542 -0.105703 -0.0283225 0.891033)
(1.01556 0.091584 -0.196764 0.126701 1.13898 0.280638 -0.0991786 -0.0462474 0.891033)
(0.981955 0.0638953 -0.242506 0.0990123 1.17259 0.242207 -0.0896411 -0.0627671 0.891033)
(0.959844 0.0263817 -0.280881 0.0614992 1.1947 0.196416 -0.0773793 -0.0773795 0.891033)
(0.951897 -0.0164316 -0.310721 0.018686 1.20265 0.144658 -0.0627666 -0.0896416 0.891033)
(0.959073 -0.0593809 -0.33112 -0.0242629 1.19547 0.0885038 -0.0462476 -0.0991801 0.891033)
(0.980505 -0.0972852 -0.341458 -0.0621673 1.17404 0.0296608 -0.0283233 -0.105704 0.891033)
(1.01361 -0.125574 -0.341421 -0.0904559 1.14094 -0.0300835 -0.00953802 -0.109016 0.891033)
(1.05439 -0.140834 -0.33101 -0.105717 1.10015 -0.0889136 0.00953721 -0.109015 0.891033)
(1.09793 -0.141225 -0.310542 -0.106108 1.05661 -0.145042 0.0283225 -0.105703 0.891033)
(1.13898 -0.126701 -0.280638 -0.091584 1.01556 -0.196764 0.0462474 -0.0991786 0.891033)
(1.17259 -0.0990123 -0.242207 -0.0638953 0.981955 -0.242506 0.0627671 -0.0896411 0.891033)
(1.1947 -0.0614992 -0.196416 -0.0263817 0.959844 -0.280881 0.0773795 -0.0773793 0.891033)
(1.20265 -0.018686 -0.144658 0.0164316 0.951897 -0.310721 0.0896416 -0.0627666 0.891033)
(1.19547 0.0242629 -0.0885038 0.0593809 0.959073 -0.33112 0.0991801 -0.0462476 0.891033)
(1.17404 0.0621673 -0.0296608 0.0972852 0.980505 -0.341458 0.105704 -0.0283233 0.891033)
(1.14094 0.0904559 0.0300835 0.125574 1.01361 -0.341421 0.109016 -0.00953802 0.891033)
(1.10015 0.105717 0.0889136 0.140834 1.05439 -0.33101 0.109015 0.00953721 0.891033)
(1.05661 0.106108 0.145042 0.141225 1.09793 -0.310542 0.105703 0.0283225 0.891033)
(1.01556 0.091584 0.196764 0.126701 1.13898 -0.280638 0.0991786 0.0462474 0.891033)
(0.981955 0.0638953 0.242506 0.0990123 1.17259 -0.242207 0.0896411 0.0627671 0.891033)
(0.959844 0.0263817 0.280881 0.0614992 1.1947 -0.196416 0.0773793 0.0773795 0.891033)
(0.951897 -0.0164316 0.310721 0.018686 1.20265 -0.144658 0.0627666 0.0896416 0.891033)
(0.959073 -0.0593809 0.33112 -0.0242629 1.19547 -0.0885038 0.0462476 0.0991801 0.891033)
(0.980505 -0.0972852 0.341458 -0.0621673 1.17404 -0.0296608 0.0283233 0.105704 0.891033)
(1.01361 -0.125574 0.341421 -0.0904559 1.14094 0.0300835 0.00953802 0.109016 0.891033)
(1.05439 -0.140834 0.33101 -0.105717 1.10015 0.0889136 -0.00953721 0.109015 0.891033)
(1.09793 -0.141225 0.310542 -0.106108 1.05661 0.145042 -0.0283225 0.105703 0.891033)
(1.13898 -0.126701 0.280638 -0.091584 1.01556 0.196764 -0.0462474 0.0991786 0.891033)
(1.17259 -0.0990123 0.242207 -0.0638953 0.981955 0.242506 -0.0627671 0.0896411 0.891033)
(1.1947 -0.0614992 0.196416 -0.0263817 0.959844 0.280881 -0.0773795 0.0773793 0.891033)
(1.20265 -0.018686 0.144658 0.0164316 0.951897 0.310721 -0.0896416 0.0627666 0.891033)
(1.19547 0.0242629 0.0885038 0.0593809 0.959073 0.33112 -0.0991801 0.0462476 0.891033)
(1.17404 0.0621673 0.0296608 0.0972852 0.980505 0.341458 -0.105704 0.0283233 0.891033)
(1.14094 0.0904559 -0.0300835 0.125574 1.01361 0.341421 -0.109016 0.00953802 0.891033)
(1.12406 0.136698 -0.0663666 0.138847 1.04617 0.366855 -0.0971499 -0.00849933 0.863102)
(1.07459 0.141709 -0.129062 0.143858 1.09564 0.349757 -0.0941978 -0.0252398 0.863102)
(1.02639 0.129499 -0.187836 0.131648 1.14384 0.322032 -0.0883837 -0.0412137 0.863102)
(0.985277 0.101539 -0.240903 0.103688 1.18496 0.284522 -0.0798842 -0.0559354 0.863102)
(0.956202 0.0612028 -0.28665 0.0633518 1.21403 0.238367 -0.0689571 -0.0689573 0.863102)
(0.942676 0.0133546 -0.323687 0.0155039 1.22756 0.18497 -0.0559352 -0.0798845 0.863102)
(0.946331 -0.0362339 -0.350889 -0.0340838 1.22391 0.125952 -0.0412141 -0.0883849 0.863102)
(0.966726 -0.0815814 -0.36743 -0.0794314 1.20351 0.0631075 -0.0252404 -0.0941989 0.863102)
(1.0014 -0.117218 -0.372806 -0.115069 1.16884 -0.00165468 -0.00849966 -0.0971501 0.863102)
(1.04617 -0.138847 -0.366855 -0.136698 1.12406 -0.0663666 0.00849933 -0.0971499 0.863102)
(1.09564 -0.143858 -0.349757 -0.141709 1.07459 -0.129062 0.0252398 -0.0941978 0.863102)
(1.14384 -0.131648 -0.322032 -0.129499 1.02639 -0.187836 0.0412137 -0.0883837 0.863102)
(1.18496 -0.103688 -0.284522 -0.101539 0.985277 -0.240903 0.0559354 -0.0798842 0.863102)
(1.21403 -0.0633518 -0.238367 -0.0612028 0.956202 -0.28665 0.0689573 -0.0689571 0.863102)
(1.22756 -0.0155039 -0.18497 -0.0133546 0.942676 -0.323687 0.0798845 -0.0559352 0.863102)
(1.22391 0.0340838 -0.125952 0.0362339 0.946331 -0.350889 0.0883849 -0.0412141 0.863102)
(1.20351 0.0794314 -0.0631075 0.0815814 0.966726 -0.36743 0.0941989 -0.0252404 0.863102)
(1.16884 0.115069 0.00165468 0.117218 1.0014 -0.372806 0.0971501 -0.00849966 0.863102)
(1.12406 0.136698 0.0663666 0.138847 1.04617 -0.366855 0.0971499 0.00849933 0.863102)
(1.07459 0.141709 0.129062 0.143858 1.09564 -0.349757 0.0941978 0.0252398 0.863102)
(1.02639 0.129499 0.187836 0.131648 1.14384 -0.322032 0.0883837 0.0412137 0.863102)
(0.985277 0.101539 0.240903 0.103688 1.18496 -0.284522 0.0798842 0.0559354 0.863102)
(0.956202 0.0612028 0.28665 0.0633518 1.21403 -0.238367 0.0689571 0.0689573 0.863102)
(0.942676 0.0133546 0.323687 0.0155039 1.22756 -0.18497 0.0559352 0.0798845 0.863102)
(0.946331 -0.0362339 0.350889 -0.0340838 1.22391 -0.125952 0.0412141 0.0883849 0.863102)
(0.966726 -0.0815814 0.36743 -0.0794314 1.20351 -0.0631075 0.0252404 0.0941989 0.863102)
(1.0014 -0.117218 0.372806 -0.115069 1.16884 0.00165468 0.00849966 0.0971501 0.863102)
(1.04617 -0.138847 0.366855 -0.136698 1.12406 0.0663666 -0.00849933 0.0971499 0.863102)
(1.09564 -0.143858 0.349757 -0.141709 1.07459 0.129062 -0.0252398 0.0941978 0.863102)
(1.14384 -0.131648 0.322032 -0.129499 1.02639 0.187836 -0.0412137 0.0883837 0.863102)
(1.18496 -0.103688 0.284522 -0.101539 0.985277 0.240903 -0.0559354 0.0798842 0.863102)
(1.21403 -0.0633518 0.238367 -0.0612028 0.956202 0.28665 -0.0689573 0.0689571 0.863102)
(1.22756 -0.0155039 0.18497 -0.0133546 0.942676 0.323687 -0.0798845 0.0559352 0.863102)
(1.22391 0.0340838 0.125952 0.0362339 0.946331 0.350889 -0.0883849 0.0412141 0.863102)
(1.20351 0.0794314 0.0631075 0.0815814 0.966726 0.36743 -0.0941989 0.0252404 0.863102)
(1.16884 0.115069 -0.00165468 0.117218 1.0014 0.372806 -0.0971501 0.00849966 0.863102)
(1.1487 0.174145 -0.0426194 0.134544 1.02817 0.400296 -0.0838556 -0.00733642 0.83723)
(1.09227 0.185447 -0.111483 0.145847 1.0846 0.386814 -0.0813072 -0.0217861 0.83723)
(1.03539 0.176771 -0.176959 0.13717 1.14148 0.361579 -0.0762888 -0.0355737 0.83723)
(0.984901 0.149162 -0.237058 0.10956 1.19197 0.325357 -0.0689524 -0.0482808 0.83723)
(0.946901 0.105949 -0.289954 0.0663478 1.22997 0.279249 -0.0595207 -0.0595208 0.83723)
(0.925972 0.0523452 -0.334041 0.0127448 1.2509 0.224657 -0.048281 -0.0689525 0.83723)
(0.924639 -0.00518365 -0.367977 -0.0447838 1.25223 0.163238 -0.0355743 -0.0762897 0.83723)
(0.943062 -0.0596991 -0.390732 -0.099299 1.23381 0.0968601 -0.0217863 -0.0813082 0.83723)
(0.979019 -0.104625 -0.401616 -0.144226 1.19785 0.0275388 -0.00733635 -0.0838557 0.83723)
(1.02817 -0.134544 -0.400296 -0.174145 1.1487 -0.0426194 0.00733642 -0.0838556 0.83723)
(1.0846 -0.145847 -0.386814 -0.185447 1.09227 -0.111483 0.0217861 -0.0813072 0.83723)
(1.14148 -0.13717 -0.361579 -0.176771 1.03539 -0.176959 0.0355737 -0.0762888 0.83723)
(1.19197 -0.10956 -0.325357 -0.149162 0.984901 -0.237058 0.0482808 -0.0689524 0.83723)
(1.22997 -0.0663478 -0.279249 -0.105949 0.946901 -0.289954 0.0595208 -0.0595207 0.83723)
(1.2509 -0.0127448 -0.224657 -0.0523452 0.925972 -0.334041 0.0689525 -0.048281 0.83723)
(1.25223 0.0447838 -0.163238 0.00518365 0.924639 -0.367977 0.0762897 -0.0355743 0.83723)
(1.23381 0.099299 -0.0968601 0.0596991 0.943062 -0.390732 0.0813082 -0.0217863 0.83723)
(1.19785 0.144226 -0.0275388 0.104625 0.979019 -0.401616 0.0838557 -0.00733635 0.83723)
(1.1487 0.174145 0.0426194 0.134544 1.02817 -0.400296 0.0838556 0.00733642 0.83723)
(1.09227 0.185447 0.111483 0.145847 1.0846 -0.386814 0.0813072 0.0217861 0.83723)
(1.03539 0.176771 0.176959 0.13717 1.14148 -0.361579 0.0762888 0.0355737 0.83723)
(0.984901 0.149162 0.237058 0.10956 1.19197 -0.325357 0.0689524 0.0482808 0.83723)
(0.946901 0.105949 0.289954 0.0663478 1.22997 -0.279249 0.0595207 0.0595208 0.83723)
(0.925972 0.0523452 0.334041 0.0127448 1.2509 -0.224657 0.048281 0.0689525 0.83723)
(0.924639 -0.00518365 0.367977 -0.0447838 1.25223 -0.163238 0.0355743 0.0762897 0.83723)
(0.943062 -0.0596991 0.390732 -0.099299 1.23381 -0.0968601 0.0217863 0.0813082 0.83723)
(0.979019 -0.104625 0.401616 -0.144226 1.19785 -0.0275388 0.00733635 0.0838557 0.83723)
(1.02817 -0.134544 0.400296 -0.174145 1.1487 0.0426194 -0.00733642 0.0838556 0.83723)
(1.0846 -0.145847 0.386814 -0.185447 1.09227 0.111483 -0.0217861 0.0813072 0.83723)
(1.14148 -0.13717 0.361579 -0.176771 1.03539 0.176959 -0.0355737 0.0762888 0.83723)
(1.19197 -0.10956 0.325357 -0.149162 0.984901 0.237058 -0.0482808 0.0689524 0.83723)
(1.22997 -0.0663478 0.279249 -0.105949 0.946901 0.289954 -0.0595208 0.0595207 0.83723)
(1.2509 -0.0127448 0.224657 -0.0523452 0.925972 0.334041 -0.0689525 0.048281 0.83723)
(1.25223 0.0447838 0.163238 0.00518365 0.924639 0.367977 -0.0762897 0.0355743 0.83723)
(1.23381 0.099299 0.0968601 0.0596991 0.943062 0.390732 -0.0813082 0.0217863 0.83723)
(1.19785 0.144226 0.0275388 0.104625 0.979019 0.401616 -0.0838557 0.00733635 0.83723)
(1.13238 0.17596 -0.0511888 0.188614 1.07434 0.334972 -0.147534 -0.0129068 0.859835)
(1.06828 0.174892 -0.108578 0.187546 1.13843 0.320994 -0.143051 -0.0383295 0.859835)
(1.00841 0.151966 -0.162669 0.16462 1.1983 0.297263 -0.134221 -0.0625879 0.859835)
(0.960001 0.109947 -0.211816 0.122602 1.24671 0.264499 -0.121313 -0.0849447 0.859835)
(0.928877 0.0539045 -0.254528 0.0665596 1.27783 0.223699 -0.10472 -0.10472 0.859835)
(0.918799 -0.0094032 -0.289507 0.00325217 1.28791 0.176103 -0.0849443 -0.121314 0.859835)
(0.930981 -0.0723397 -0.315688 -0.0596844 1.27573 0.123155 -0.0625883 -0.134223 0.859835)
(0.963954 -0.127314 -0.332278 -0.114659 1.24276 0.0664654 -0.0383305 -0.143052 0.859835)
(1.01374 -0.167696 -0.338772 -0.155041 1.19297 0.00775615 -0.0129078 -0.147534 0.859835)
(1.07434 -0.188614 -0.334972 -0.17596 1.13238 -0.0511888 0.0129068 -0.147534 0.859835)
(1.13843 -0.187546 -0.320994 -0.174892 1.06828 -0.108578 0.0383295 -0.143051 0.859835)
(1.1983 -0.16462 -0.297263 -0.151966 1.00841 -0.162669 0.0625879 -0.134221 0.859835)
(1.24671 -0.122602 -0.264499 -0.109947 0.960001 -0.211816 0.0849447 -0.121313 0.859835)
(1.27783 -0.0665596 -0.223699 -0.0539045 0.928877 -0.254528 0.10472 -0.10472 0.859835)
(1.28791 -0.00325217 -0.176103 0.0094032 0.918799 -0.289507 0.121314 -0.0849443 0.859835)
(1.27573 0.0596844 -0.123155 0.0723397 0.930981 -0.315688 0.134223 -0.0625883 0.859835)
(1.24276 0.114659 -0.0664654 0.127314 0.963954 -0.332278 0.143052 -0.0383305 0.859835)
(1.19297 0.155041 -0.00775615 0.167696 1.01374 -0.338772 0.147534 -0.0129078 0.859835)
(1.13238 0.17596 0.0511888 0.188614 1.07434 -0.334972 0.147534 0.0129068 0.859835)
(1.06828 0.174892 0.108578 0.187546 1.13843 -0.320994 0.143051 0.0383295 0.859835)
(1.00841 0.151966 0.162669 0.16462 1.1983 -0.297263 0.134221 0.0625879 0.859835)
(0.960001 0.109947 0.211816 0.122602 1.24671 -0.264499 0.121313 0.0849447 0.859835)
(0.928877 0.0539045 0.254528 0.0665596 1.27783 -0.223699 0.10472 0.10472 0.859835)
(0.918799 -0.0094032 0.289507 0.00325217 1.28791 -0.176103 0.0849443 0.121314 0.859835)
(0.930981 -0.0723397 0.315688 -0.0596844 1.27573 -0.123155 0.0625883 0.134223 0.859835)
(0.963954 -0.127314 0.332278 -0.114659 1.24276 -0.0664654 0.0383305 0.143052 0.859835)
(1.01374 -0.167696 0.338772 -0.155041 1.19297 -0.00775615 0.0129078 0.147534 0.859835)
(1.07434 -0.188614 0.334972 -0.17596 1.13238 0.0511888 -0.0129068 0.147534 0.859835)
(1.13843 -0.187546 0.320994 -0.174892 1.06828 0.108578 -0.0383295 0.143051 0.859835)
(1.1983 -0.16462 0.297263 -0.151966 1.00841 0.162669 -0.0625879 0.134221 0.859835)
(1.24671 -0.122602 0.264499 -0.109947 0.960001 0.211816 -0.0849447 0.121313 0.859835)
(1.27783 -0.0665596 0.223699 -0.0539045 0.928877 0.254528 -0.10472 0.10472 0.859835)
(1.28791 -0.00325217 0.176103 0.0094032 0.918799 0.289507 -0.121314 0.0849443 0.859835)
(1.27573 0.0596844 0.123155 0.0723397 0.930981 0.315688 -0.134223 0.0625883 0.859835)
(1.24276 0.114659 0.0664654 0.127314 0.963954 0.332278 -0.143052 0.0383305 0.859835)
(1.19297 0.155041 0.00775615 0.167696 1.01374 0.338772 -0.147534 0.0129078 0.859835)
(1.15276 0.219591 -0.0377989 0.185198 1.06325 0.350735 -0.136352 -0.0119289 0.844875)
(1.08083 0.222691 -0.0981293 0.188298 1.13517 0.338843 -0.132208 -0.0354246 0.844875)
(1.01219 0.201006 -0.155478 0.166612 1.20382 0.316655 -0.124048 -0.0578442 0.844875)
(0.955101 0.15715 -0.208103 0.122757 1.26091 0.284846 -0.112118 -0.0785063 0.844875)
(0.916455 0.0964131 -0.254404 0.0620209 1.29955 0.244382 -0.0967825 -0.0967829 0.844875)
(0.900913 0.026122 -0.292976 -0.0082701 1.31509 0.196493 -0.0785062 -0.112119 0.844875)
(0.910349 -0.0452455 -0.322645 -0.0796373 1.30566 0.142633 -0.0578447 -0.124049 0.844875)
(0.943626 -0.109081 -0.342512 -0.143474 1.27238 0.0844393 -0.0354252 -0.132209 0.844875)
(0.996728 -0.157686 -0.351971 -0.192079 1.21928 0.02368 -0.0119294 -0.136352 0.844875)
(1.06325 -0.185198 -0.350735 -0.219591 1.15276 -0.0377989 0.0119289 -0.136352 0.844875)
(1.13517 -0.188298 -0.338843 -0.222691 1.08083 -0.0981293 0.0354246 -0.132208 0.844875)
(1.20382 -0.166612 -0.316655 -0.201006 1.01219 -0.155478 0.0578442 -0.124048 0.844875)
(1.26091 -0.122757 -0.284846 -0.15715 0.955101 -0.208103 0.0785063 -0.112118 0.844875)
(1.29955 -0.0620209 -0.244382 -0.0964131 0.916455 -0.254404 0.0967829 -0.0967825 0.844875)
(1.31509 0.0082701 -0.196493 -0.026122 0.900913 -0.292976 0.112119 -0.0785062 0.844875)
(1.30566 0.0796373 -0.142633 0.0452455 0.910349 -0.322645 0.124049 -0.0578447 0.844875)
(1.27238 0.143474 -0.0844393 0.109081 0.943626 -0.342512 0.132209 -0.0354252 0.844875)
(1.21928 0.192079 -0.02368 0.157686 0.996728 -0.351971 0.136352 -0.0119294 0.844875)
(1.15276 0.219591 0.0377989 0.185198 1.06325 -0.350735 0.136352 0.0119289 0.844875)
(1.08083 0.222691 0.0981293 0.188298 1.13517 -0.338843 0.132208 0.0354246 0.844875)
(1.01219 0.201006 0.155478 0.166612 1.20382 -0.316655 0.124048 0.0578442 0.844875)
(0.955101 0.15715 0.208103 0.122757 1.26091 -0.284846 0.112118 0.0785063 0.844875)
(0.916455 0.0964131 0.254404 0.0620209 1.29955 -0.244382 0.0967825 0.0967829 0.844875)
(0.900913 0.026122 0.292976 -0.0082701 1.31509 -0.196493 0.0785062 0.112119 0.844875)
(0.910349 -0.0452455 0.322645 -0.0796373 1.30566 -0.142633 0.0578447 0.124049 0.844875)
(0.943626 -0.109081 0.342512 -0.143474 1.27238 -0.0844393 0.0354252 0.132209 0.844875)
(0.996728 -0.157686 0.351971 -0.192079 1.21928 -0.02368 0.0119294 0.136352 0.844875)
(1.06325 -0.185198 0.350735 -0.219591 1.15276 0.0377989 -0.0119289 0.136352 0.844875)
(1.13517 -0.188298 0.338843 -0.222691 1.08083 0.0981293 -0.0354246 0.132208 0.844875)
(1.20382 -0.166612 0.316655 -0.201006 1.01219 0.155478 -0.0578442 0.124048 0.844875)
(1.26091 -0.122757 0.284846 -0.15715 0.955101 0.208103 -0.0785063 0.112118 0.844875)
(1.29955 -0.0620209 0.244382 -0.0964131 0.916455 0.254404 -0.0967829 0.0967825 0.844875)
(1.31509 0.0082701 0.196493 -0.026122 0.900913 0.292976 -0.112119 0.0785062 0.844875)
(1.30566 0.0796373 0.142633 0.0452455 0.910349 0.322645 -0.124049 0.0578447 0.844875)
(1.27238 0.143474 0.0844393 0.109081 0.943626 0.342512 -0.132209 0.0354252 0.844875)
(1.21928 0.192079 0.02368 0.157686 0.996728 0.351971 -0.136352 0.0119294 0.844875)
(1.17339 0.272084 -0.0269004 0.177718 1.04233 0.365093 -0.122907 -0.0107529 0.829536)
(1.09252 0.280933 -0.0898895 0.186567 1.12321 0.354875 -0.119172 -0.0319319 0.829536)
(1.0135 0.261589 -0.150147 0.167222 1.20223 0.333874 -0.111816 -0.0521407 0.829536)
(0.945859 0.216384 -0.205843 0.122018 1.26987 0.302729 -0.101063 -0.0707653 0.829536)
(0.897759 0.15077 -0.255284 0.0564043 1.31797 0.262386 -0.0872397 -0.0872397 0.829536)
(0.875001 0.0726627 -0.296968 -0.021703 1.34073 0.21407 -0.0707656 -0.101064 0.829536)
(0.88033 -0.0085178 -0.32963 -0.102883 1.3354 0.15925 -0.0521412 -0.111817 0.829536)
(0.913102 -0.08298 -0.352275 -0.177345 1.30263 0.099591 -0.0319322 -0.119173 0.829536)
(0.969366 -0.141742 -0.364217 -0.236108 1.24636 0.036906 -0.010753 -0.122907 0.829536)
(1.04233 -0.177718 -0.365093 -0.272084 1.17339 -0.0269004 0.0107529 -0.122907 0.829536)
(1.12321 -0.186567 -0.354875 -0.280933 1.09252 -0.0898895 0.0319319 -0.119172 0.829536)
(1.20223 -0.167222 -0.333874 -0.261589 1.0135 -0.150147 0.0521407 -0.111816 0.829536)
(1.26987 -0.122018 -0.302729 -0.216384 0.945859 -0.205843 0.0707653 -0.101063 0.829536)
(1.31797 -0.0564043 -0.262386 -0.15077 0.897759 -0.255284 0.0872397 -0.0872397 0.829536)
(1.34073 0.021703 -0.21407 -0.0726627 0.875001 -0.296968 0.101064 -0.0707656 0.829536)
(1.3354 0.102883 -0.15925 0.0085178 0.88033 -0.32963 0.111817 -0.0521412 0.829536)
(1.30263 0.177345 -0.099591 0.08298 0.913102 -0.352275 0.119173 -0.0319322 0.829536)
(1.24636 0.236108 -0.036906 0.141742 0.969366 -0.364217 0.122907 -0.010753 0.829536)
(1.17339 0.272084 0.0269004 0.177718 1.04233 -0.365093 0.122907 0.0107529 0.829536)
(1.09252 0.280933 0.0898895 0.186567 1.12321 -0.354875 0.119172 0.0319319 0.829536)
(1.0135 0.261589 0.150147 0.167222 1.20223 -0.333874 0.111816 0.0521407 0.829536)
(0.945859 0.216384 0.205843 0.122018 1.26987 -0.302729 0.101063 0.0707653 0.829536)
(0.897759 0.15077 0.255284 0.0564043 1.31797 -0.262386 0.0872397 0.0872397 0.829536)
(0.875001 0.0726627 0.296968 -0.021703 1.34073 -0.21407 0.0707656 0.101064 0.829536)
(0.88033 -0.0085178 0.32963 -0.102883 1.3354 -0.15925 0.0521412 0.111817 0.829536)
(0.913102 -0.08298 0.352275 -0.177345 1.30263 -0.099591 0.0319322 0.119173 0.829536)
(0.969366 -0.141742 0.364217 -0.236108 1.24636 -0.036906 0.010753 0.122907 0.829536)
(1.04233 -0.177718 0.365093 -0.272084 1.17339 0.0269004 -0.0107529 0.122907 0.829536)
(1.12321 -0.186567 0.354875 -0.280933 1.09252 0.0898895 -0.0319319 0.119172 0.829536)
(1.20223 -0.167222 0.333874 -0.261589 1.0135 0.150147 -0.0521407 0.111816 0.829536)
(1.26987 -0.122018 0.302729 -0.216384 0.945859 0.205843 -0.0707653 0.101063 0.829536)
(1.31797 -0.0564043 0.262386 -0.15077 0.897759 0.255284 -0.0872397 0.0872397 0.829536)
(1.34073 0.021703 0.21407 -0.0726627 0.875001 0.296968 -0.101064 0.0707656 0.829536)
(1.3354 0.102883 0.15925 0.0085178 0.88033 0.32963 -0.111817 0.0521412 0.829536)
(1.30263 0.177345 0.099591 0.08298 0.913102 0.352275 -0.119173 0.0319322 0.829536)
(1.24636 0.236108 0.036906 0.141742 0.969366 0.364217 -0.122907 0.010753 0.829536)
(1.14157 0.24683 -0.00934879 0.196437 1.08054 0.32154 -0.165027 -0.0144375 0.855898)
(1.06392 0.2439 -0.0650415 0.193508 1.15818 0.315032 -0.160012 -0.0428748 0.855898)
(0.991964 0.214592 -0.118758 0.164199 1.23014 0.298951 -0.150136 -0.0700097 0.855898)
(0.934369 0.16244 -0.168866 0.112047 1.28773 0.273787 -0.135698 -0.0950172 0.855898)
(0.898084 0.0937338 -0.213844 0.0433414 1.32402 0.240305 -0.117137 -0.117138 0.855898)
(0.887486 0.0167613 -0.252323 -0.0336307 1.33462 0.19952 -0.0950172 -0.135699 0.855898)
(0.903854 -0.0591935 -0.283137 -0.109586 1.31825 0.152674 -0.07001 -0.150137 0.855898)
(0.945213 -0.12497 -0.305347 -0.175362 1.27689 0.101188 -0.0428757 -0.160013 0.855898)
(1.00657 -0.172634 -0.318279 -0.223027 1.21553 0.0466281 -0.0144384 -0.165027 0.855898)