/*--------------------------------*- C++ -*----------------------------------*\
| =========                 |                                                 |
| \\      /  F ield         | OpenFOAM: The Open Source CFD Toolbox           |
|  \\    /   O peration     | Version:  2312                                  |
|   \\  /    A nd           | Website:  www.openfoam.com                      |
|    \\/     M anipulation  |                                                 |
\*---------------------------------------------------------------------------*/
FoamFile
{
    version     2.0;
    format      ascii;
    arch        "LSB;label=32;scalar=64";
    class       pointVectorField;
    location    "1";
    object      pointD;
}
// * * * * * * * * * * * * * * * * * * * * * * * * * * * * * * * * * * * * * //

dimensions      [0 1 0 0 0 0 0];

internalField   nonuniform List<vector> 
2164
(
(0 0 0)
(0 0 0)
(0 0 0)
(0 0 0)
(0 0 0)
(0 0 0)
(0 0 0)
(0 0 0)
(0 0 0)
(0 0 0)
(0 0 0)
(0 0 0)
(0 0 0)
(0 0 0)
(0 0 0)
(0 0 0)
(0 0 0)
(0 0 0)
(0 0 0)
(0 0 0)
(0 0 0)
(0 0 0)
(0 0 0)
(0 0 0)
(0 0 0)
(0 0 0)
(0 0 0)
(0 0 0)
(0 0 0)
(0 0 0)
(0 0 0)
(0 0 0)
(0 0 0)
(0 0 0)
(0 0 0)
(0 0 0)
(0.000384785 -0.000517292 7.30155e-05)
(0.000468766 -0.000442617 7.30167e-05)
(0.000538504 -0.000354492 7.30167e-05)
(0.00059188 -0.000255595 7.30165e-05)
(0.000627271 -0.000148933 7.30166e-05)
(0.000643603 -3.77467e-05 7.30155e-05)
(0.00064038 7.45874e-05 7.30141e-05)
(0.000617699 0.000184655 7.30142e-05)
(0.00057625 0.000289112 7.30152e-05)
(0.000517292 0.000384785 7.30155e-05)
(0.000442617 0.000468766 7.30167e-05)
(0.000354492 0.000538504 7.30167e-05)
(0.000255595 0.00059188 7.30165e-05)
(0.000148933 0.000627271 7.30166e-05)
(3.77467e-05 0.000643603 7.30155e-05)
(-7.45874e-05 0.00064038 7.30141e-05)
(-0.000184655 0.000617699 7.30142e-05)
(-0.000289112 0.00057625 7.30152e-05)
(-0.000384785 0.000517292 7.30155e-05)
(-0.000468766 0.000442617 7.30167e-05)
(-0.000538504 0.000354492 7.30167e-05)
(-0.00059188 0.000255595 7.30165e-05)
(-0.000627271 0.000148933 7.30166e-05)
(-0.000643603 3.77467e-05 7.30155e-05)
(-0.00064038 -7.45874e-05 7.30141e-05)
(-0.000617699 -0.000184655 7.30142e-05)
(-0.00057625 -0.000289112 7.30152e-05)
(-0.000517292 -0.000384785 7.30155e-05)
(-0.000442617 -0.000468766 7.30167e-05)
(-0.000354492 -0.000538504 7.30167e-05)
(-0.000255595 -0.00059188 7.30165e-05)
(-0.000148933 -0.000627271 7.30166e-05)
(-3.77467e-05 -0.000643603 7.30155e-05)
(7.45874e-05 -0.00064038 7.30141e-05)
(0.000184655 -0.000617699 7.30142e-05)
(0.000289112 -0.00057625 7.30152e-05)
(0.000313687 -0.000629894 0.000152011)
(0.000418302 -0.000565853 0.000152012)
(0.000510206 -0.000484619 0.000152012)
(0.000586608 -0.000388661 0.000152012)
(0.000645187 -0.000280892 0.000152012)
(0.000684161 -0.000164588 0.000152011)
(0.000702347 -4.32852e-05 0.00015201)
(0.000699194 7.93332e-05 0.000152011)
(0.000674796 0.000199542 0.000152011)
(0.000629894 0.000313687 0.000152011)
(0.000565853 0.000418302 0.000152012)
(0.000484619 0.000510206 0.000152012)
(0.000388661 0.000586608 0.000152012)
(0.000280892 0.000645187 0.000152012)
(0.000164588 0.000684161 0.000152011)
(4.32852e-05 0.000702347 0.00015201)
(-7.93332e-05 0.000699194 0.000152011)
(-0.000199542 0.000674796 0.000152011)
(-0.000313687 0.000629894 0.000152011)
(-0.000418302 0.000565853 0.000152012)
(-0.000510206 0.000484619 0.000152012)
(-0.000586608 0.000388661 0.000152012)
(-0.000645187 0.000280892 0.000152012)
(-0.000684161 0.000164588 0.000152011)
(-0.000702347 4.32852e-05 0.00015201)
(-0.000699194 -7.93332e-05 0.000152011)
(-0.000674796 -0.000199542 0.000152011)
(-0.000629894 -0.000313687 0.000152011)
(-0.000565853 -0.000418302 0.000152012)
(-0.000484619 -0.000510206 0.000152012)
(-0.000388661 -0.000586608 0.000152012)
(-0.000280892 -0.000645187 0.000152012)
(-0.000164588 -0.000684161 0.000152011)
(-4.32852e-05 -0.000702347 0.00015201)
(7.93332e-05 -0.000699194 0.000152011)
(0.000199542 -0.000674796 0.000152011)
(0 0 0)
(0 0 0)
(0 0 0)
(0 0 0)
(0 0 0)
(0 0 0)
(0 0 0)
(0 0 0)
(0 0 0)
(0 0 0)
(0 0 0)
(0 0 0)
(0 0 0)
(0 0 0)
(0 0 0)
(0 0 0)
(0 0 0)
(0 0 0)
(0 0 0)
(0 0 0)
(0 0 0)
(0 0 0)
(0 0 0)
(0 0 0)
(0 0 0)
(0 0 0)
(0 0 0)
(0 0 0)
(0 0 0)
(0 0 0)
(0 0 0)
(0 0 0)
(0 0 0)
(0 0 0)
(0 0 0)
(0 0 0)
(0.000209878 -0.0007456 0.000219373)
(0.000336163 -0.000697826 0.000219373)
(0.000452232 -0.000628851 0.000219374)
(0.00055456 -0.000540767 0.000219373)
(0.000640039 -0.000436253 0.000219373)
(0.00070607 -0.000318485 0.000219373)
(0.000750647 -0.000191038 0.000219373)
(0.000772417 -5.77885e-05 0.000219373)
(0.000770717 7.72188e-05 0.000219373)
(0.0007456 0.000209878 0.000219373)
(0.000697826 0.000336163 0.000219373)
(0.000628851 0.000452232 0.000219374)
(0.000540767 0.00055456 0.000219373)
(0.000436253 0.000640039 0.000219373)
(0.000318485 0.00070607 0.000219373)
(0.000191038 0.000750647 0.000219373)
(5.77885e-05 0.000772417 0.000219373)
(-7.72188e-05 0.000770717 0.000219373)
(-0.000209878 0.0007456 0.000219373)
(-0.000336163 0.000697826 0.000219373)
(-0.000452232 0.000628851 0.000219374)
(-0.00055456 0.000540767 0.000219373)
(-0.000640039 0.000436253 0.000219373)
(-0.00070607 0.000318485 0.000219373)
(-0.000750647 0.000191038 0.000219373)
(-0.000772417 5.77885e-05 0.000219373)
(-0.000770717 -7.72188e-05 0.000219373)
(-0.0007456 -0.000209878 0.000219373)
(-0.000697826 -0.000336163 0.000219373)
(-0.000628851 -0.000452232 0.000219374)
(-0.000540767 -0.00055456 0.000219373)
(-0.000436253 -0.000640039 0.000219373)
(-0.000318485 -0.00070607 0.000219373)
(-0.000191038 -0.000750647 0.000219373)
(-5.77885e-05 -0.000772417 0.000219373)
(7.72188e-05 -0.000770717 0.000219373)
(0 0 0)
(0 0 0)
(0 0 0)
(0 0 0)
(0 0 0)
(0 0 0)
(0 0 0)
(0 0 0)
(0 0 0)
(0 0 0)
(0 0 0)
(0 0 0)
(0 0 0)
(0 0 0)
(0 0 0)
(0 0 0)
(0 0 0)
(0 0 0)
(0 0 0)
(0 0 0)
(0 0 0)
(0 0 0)
(0 0 0)
(0 0 0)
(0 0 0)
(0 0 0)
(0 0 0)
(0 0 0)
(0 0 0)
(0 0 0)
(0 0 0)
(0 0 0)
(0 0 0)
(0 0 0)
(0 0 0)
(0 0 0)
(7.4804e-05 -0.000853951 0.000270571)
(0.000221955 -0.000827987 0.00027057)
(0.000362361 -0.000776867 0.000270571)
(0.000491758 -0.00070214 0.000270571)
(0.000606213 -0.000606081 0.000270571)
(0.000702248 -0.000491605 0.000270571)
(0.000776946 -0.000362192 0.000270571)
(0.000828036 -0.000221775 0.000270571)
(0.000853967 -7.46183e-05 0.00027057)
(0.000853951 7.4804e-05 0.000270571)
(0.000827987 0.000221955 0.00027057)
(0.000776867 0.000362361 0.000270571)
(0.00070214 0.000491758 0.000270571)
(0.000606081 0.000606213 0.000270571)
(0.000491605 0.000702248 0.000270571)
(0.000362192 0.000776946 0.000270571)
(0.000221775 0.000828036 0.000270571)
(7.46183e-05 0.000853967 0.00027057)
(-7.4804e-05 0.000853951 0.000270571)
(-0.000221955 0.000827987 0.00027057)
(-0.000362361 0.000776867 0.000270571)
(-0.000491758 0.00070214 0.000270571)
(-0.000606213 0.000606081 0.000270571)
(-0.000702248 0.000491605 0.000270571)
(-0.000776946 0.000362192 0.000270571)
(-0.000828036 0.000221775 0.000270571)
(-0.000853967 7.46183e-05 0.00027057)
(-0.000853951 -7.4804e-05 0.000270571)
(-0.000827987 -0.000221955 0.00027057)
(-0.000776867 -0.000362361 0.000270571)
(-0.00070214 -0.000491758 0.000270571)
(-0.000606081 -0.000606213 0.000270571)
(-0.000491605 -0.000702248 0.000270571)
(-0.000362192 -0.000776946 0.000270571)
(-0.000221775 -0.000828036 0.000270571)
(-7.46183e-05 -0.000853967 0.00027057)
(0 0 0)
(0 0 0)
(0 0 0)
(0 0 0)
(0 0 0)
(0 0 0)
(0 0 0)
(0 0 0)
(0 0 0)
(0 0 0)
(0 0 0)
(0 0 0)
(0 0 0)
(0 0 0)
(0 0 0)
(0 0 0)
(0 0 0)
(0 0 0)
(0 0 0)
(0 0 0)
(0 0 0)
(0 0 0)
(0 0 0)
(0 0 0)
(0 0 0)
(0 0 0)
(0 0 0)
(0 0 0)
(0 0 0)
(0 0 0)
(0 0 0)
(0 0 0)
(0 0 0)
(0 0 0)
(0 0 0)
(0 0 0)
(0.000653071 -0.00109398 0.000242704)
(0.000833116 -0.00096395 0.000242705)
(0.000987848 -0.000804637 0.000242706)
(0.00111256 -0.000620875 0.000242706)
(0.00120347 -0.000418248 0.000242706)
(0.00125782 -0.000202913 0.000242704)
(0.00127394 1.85891e-05 0.000242701)
(0.00125136 0.000239525 0.000242702)
(0.00119076 0.000453182 0.000242703)
(0.00109398 0.000653071 0.000242704)
(0.00096395 0.000833116 0.000242705)
(0.000804637 0.000987848 0.000242706)
(0.000620875 0.00111256 0.000242706)
(0.000418248 0.00120347 0.000242706)
(0.000202913 0.00125782 0.000242704)
(-1.85891e-05 0.00127394 0.000242701)
(-0.000239525 0.00125136 0.000242702)
(-0.000453182 0.00119076 0.000242703)
(-0.000653071 0.00109398 0.000242704)
(-0.000833116 0.00096395 0.000242705)
(-0.000987848 0.000804637 0.000242706)
(-0.00111256 0.000620875 0.000242706)
(-0.00120347 0.000418248 0.000242706)
(-0.00125782 0.000202913 0.000242704)
(-0.00127394 -1.85891e-05 0.000242701)
(-0.00125136 -0.000239525 0.000242702)
(-0.00119076 -0.000453182 0.000242703)
(-0.00109398 -0.000653071 0.000242704)
(-0.00096395 -0.000833116 0.000242705)
(-0.000804637 -0.000987848 0.000242706)
(-0.000620875 -0.00111256 0.000242706)
(-0.000418248 -0.00120347 0.000242706)
(-0.000202913 -0.00125782 0.000242704)
(1.85891e-05 -0.00127394 0.000242701)
(0.000239525 -0.00125136 0.000242702)
(0.000453182 -0.00119076 0.000242703)
(0.000543783 -0.00127865 0.000377318)
(0.000757557 -0.00116479 0.00037732)
(0.000948313 -0.00101555 0.000377319)
(0.00111025 -0.000835446 0.00037732)
(0.00123846 -0.00062996 0.00037732)
(0.00132904 -0.000405332 0.000377317)
(0.00137923 -0.000168392 0.000377318)
(0.00138752 7.36685e-05 0.000377317)
(0.00135365 0.000313488 0.000377318)
(0.00127865 0.000543783 0.000377318)
(0.00116479 0.000757557 0.00037732)
(0.00101555 0.000948313 0.000377319)
(0.000835446 0.00111025 0.00037732)
(0.00062996 0.00123846 0.00037732)
(0.000405332 0.00132904 0.000377317)
(0.000168392 0.00137923 0.000377318)
(-7.36685e-05 0.00138752 0.000377317)
(-0.000313488 0.00135365 0.000377318)
(-0.000543783 0.00127865 0.000377318)
(-0.000757557 0.00116479 0.00037732)
(-0.000948313 0.00101555 0.000377319)
(-0.00111025 0.000835446 0.00037732)
(-0.00123846 0.00062996 0.00037732)
(-0.00132904 0.000405332 0.000377317)
(-0.00137923 0.000168392 0.000377318)
(-0.00138752 -7.36685e-05 0.000377317)
(-0.00135365 -0.000313488 0.000377318)
(-0.00127865 -0.000543783 0.000377318)
(-0.00116479 -0.000757557 0.00037732)
(-0.00101555 -0.000948313 0.000377319)
(-0.000835446 -0.00111025 0.00037732)
(-0.00062996 -0.00123846 0.00037732)
(-0.000405332 -0.00132904 0.000377317)
(-0.000168392 -0.00137923 0.000377318)
(7.36685e-05 -0.00138752 0.000377317)
(0.000313488 -0.00135365 0.000377318)
(0.000399308 -0.00146601 0.000498716)
(0.00064781 -0.0013744 0.000498716)
(0.00087663 -0.00124103 0.000498717)
(0.00107881 -0.00106995 0.000498717)
(0.00124822 -0.000866357 0.000498717)
(0.0013797 -0.000636442 0.000498716)
(0.00146925 -0.000387192 0.000498716)
(0.00151417 -0.000126178 0.000498716)
(0.00151308 0.000138672 0.000498716)
(0.00146601 0.000399308 0.000498716)
(0.0013744 0.00064781 0.000498716)
(0.00124103 0.00087663 0.000498717)
(0.00106995 0.00107881 0.000498717)
(0.000866357 0.00124822 0.000498717)
(0.000636442 0.0013797 0.000498716)
(0.000387192 0.00146925 0.000498716)
(0.000126178 0.00151417 0.000498716)
(-0.000138672 0.00151308 0.000498716)
(-0.000399308 0.00146601 0.000498716)
(-0.00064781 0.0013744 0.000498716)
(-0.00087663 0.00124103 0.000498717)
(-0.00107881 0.00106995 0.000498717)
(-0.00124822 0.000866357 0.000498717)
(-0.0013797 0.000636442 0.000498716)
(-0.00146925 0.000387192 0.000498716)
(-0.00151417 0.000126178 0.000498716)
(-0.00151308 -0.000138672 0.000498716)
(-0.00146601 -0.000399308 0.000498716)
(-0.0013744 -0.00064781 0.000498716)
(-0.00124103 -0.00087663 0.000498717)
(-0.00106995 -0.00107881 0.000498717)
(-0.000866357 -0.00124822 0.000498717)
(-0.000636442 -0.0013797 0.000498716)
(-0.000387192 -0.00146925 0.000498716)
(-0.000126178 -0.00151417 0.000498716)
(0.000138672 -0.00151308 0.000498716)
(0.00022428 -0.00163666 0.000598491)
(0.000505077 -0.00157285 0.000598491)
(0.000770526 -0.00146125 0.000598491)
(0.00101256 -0.00130525 0.000598491)
(0.00122384 -0.00110959 0.000598491)
(0.00139792 -0.000880215 0.000598491)
(0.00152953 -0.000624099 0.000598492)
(0.00161467 -0.000349018 0.000598492)
(0.00165074 -6.33296e-05 0.000598491)
(0.00163666 0.00022428 0.000598491)
(0.00157285 0.000505077 0.000598491)
(0.00146125 0.000770526 0.000598491)
(0.00130525 0.00101256 0.000598491)
(0.00110959 0.00122384 0.000598491)
(0.000880215 0.00139792 0.000598491)
(0.000624099 0.00152953 0.000598492)
(0.000349018 0.00161467 0.000598492)
(6.33296e-05 0.00165074 0.000598491)
(-0.00022428 0.00163666 0.000598491)
(-0.000505077 0.00157285 0.000598491)
(-0.000770526 0.00146125 0.000598491)
(-0.00101256 0.00130525 0.000598491)
(-0.00122384 0.00110959 0.000598491)
(-0.00139792 0.000880215 0.000598491)
(-0.00152953 0.000624099 0.000598492)
(-0.00161467 0.000349018 0.000598492)
(-0.00165074 6.33296e-05 0.000598491)
(-0.00163666 -0.00022428 0.000598491)
(-0.00157285 -0.000505077 0.000598491)
(-0.00146125 -0.000770526 0.000598491)
(-0.00130525 -0.00101256 0.000598491)
(-0.00110959 -0.00122384 0.000598491)
(-0.000880215 -0.00139792 0.000598491)
(-0.000624099 -0.00152953 0.000598492)
(-0.000349018 -0.00161467 0.000598492)
(-6.33296e-05 -0.00165074 0.000598491)
(0.000826075 -0.00172846 0.000513)
(0.00111367 -0.00155876 0.000513001)
(0.00136743 -0.00134169 0.000513002)
(0.00157963 -0.00108385 0.000513002)
(0.00174384 -0.000793087 0.000513001)
(0.00185507 -0.000478224 0.000512999)
(0.00190993 -0.000148827 0.000512998)
(0.00190676 0.00018509 0.000512998)
(0.00184565 0.000513382 0.000512998)
(0.00172846 0.000826075 0.000513)
(0.00155876 0.00111367 0.000513001)
(0.00134169 0.00136743 0.000513002)
(0.00108385 0.00157963 0.000513002)
(0.000793087 0.00174384 0.000513001)
(0.000478224 0.00185507 0.000512999)
(0.000148827 0.00190993 0.000512998)
(-0.00018509 0.00190676 0.000512998)
(-0.000513382 0.00184565 0.000512998)
(-0.000826075 0.00172846 0.000513)
(-0.00111367 0.00155876 0.000513001)
(-0.00136743 0.00134169 0.000513002)
(-0.00157963 0.00108385 0.000513002)
(-0.00174384 0.000793087 0.000513001)
(-0.00185507 0.000478224 0.000512999)
(-0.00190993 0.000148827 0.000512998)
(-0.00190676 -0.00018509 0.000512998)
(-0.00184565 -0.000513382 0.000512998)
(-0.00172846 -0.000826075 0.000513)
(-0.00155876 -0.00111367 0.000513001)
(-0.00134169 -0.00136743 0.000513002)
(-0.00108385 -0.00157963 0.000513002)
(-0.000793087 -0.00174384 0.000513001)
(-0.000478224 -0.00185507 0.000512999)
(-0.000148827 -0.00190993 0.000512998)
(0.00018509 -0.00190676 0.000512998)
(0.000513382 -0.00184565 0.000512998)
(0.00068997 -0.00193508 0.000670773)
(0.00101551 -0.00178587 0.000670775)
(0.0013102 -0.00158239 0.000670774)
(0.00156507 -0.00133084 0.000670774)
(0.00177239 -0.00103885 0.000670774)
(0.00192586 -0.000715295 0.000670772)
(0.00202081 -0.000370007 0.000670773)
(0.00205436 -1.34755e-05 0.000670772)
(0.00202549 0.000343464 0.000670773)
(0.00193508 0.00068997 0.000670773)
(0.00178587 0.00101551 0.000670775)
(0.00158239 0.0013102 0.000670774)
(0.00133084 0.00156507 0.000670774)
(0.00103885 0.00177239 0.000670774)
(0.000715295 0.00192586 0.000670772)
(0.000370007 0.00202081 0.000670773)
(1.34755e-05 0.00205436 0.000670772)
(-0.000343464 0.00202549 0.000670773)
(-0.00068997 0.00193508 0.000670773)
(-0.00101551 0.00178587 0.000670775)
(-0.0013102 0.00158239 0.000670774)
(-0.00156507 0.00133084 0.000670774)
(-0.00177239 0.00103885 0.000670774)
(-0.00192586 0.000715295 0.000670772)
(-0.00202081 0.000370007 0.000670773)
(-0.00205436 1.34755e-05 0.000670772)
(-0.00202549 -0.000343464 0.000670773)
(-0.00193508 -0.00068997 0.000670773)
(-0.00178587 -0.00101551 0.000670775)
(-0.00158239 -0.0013102 0.000670774)
(-0.00133084 -0.00156507 0.000670774)
(-0.00103885 -0.00177239 0.000670774)
(-0.000715295 -0.00192586 0.000670772)
(-0.000370007 -0.00202081 0.000670773)
(-1.34755e-05 -0.00205436 0.000670772)
(0.000343464 -0.00202549 0.000670773)
(0.000522772 -0.00214117 0.000814475)
(0.000886641 -0.00201786 0.000814475)
(0.00122357 -0.00183324 0.000814475)
(0.00152332 -0.00159292 0.000814475)
(0.00177678 -0.00130419 0.000814475)
(0.00197626 -0.000975846 0.000814475)
(0.00211569 -0.000617848 0.000814474)
(0.00219084 -0.000241076 0.000814474)
(0.00219941 0.000143022 0.000814474)
(0.00214117 0.000522772 0.000814475)
(0.00201786 0.000886641 0.000814475)
(0.00183324 0.00122357 0.000814475)
(0.00159292 0.00152332 0.000814475)
(0.00130419 0.00177678 0.000814475)
(0.000975846 0.00197626 0.000814475)
(0.000617848 0.00211569 0.000814474)
(0.000241076 0.00219084 0.000814474)
(-0.000143022 0.00219941 0.000814474)
(-0.000522772 0.00214117 0.000814475)
(-0.000886641 0.00201786 0.000814475)
(-0.00122357 0.00183324 0.000814475)
(-0.00152332 0.00159292 0.000814475)
(-0.00177678 0.00130419 0.000814475)
(-0.00197626 0.000975846 0.000814475)
(-0.00211569 0.000617848 0.000814474)
(-0.00219084 0.000241076 0.000814474)
(-0.00219941 -0.000143022 0.000814474)
(-0.00214117 -0.000522772 0.000814475)
(-0.00201786 -0.000886641 0.000814475)
(-0.00183324 -0.00122357 0.000814475)
(-0.00159292 -0.00152332 0.000814475)
(-0.00130419 -0.00177678 0.000814475)
(-0.000975846 -0.00197626 0.000814475)
(-0.000617848 -0.00211569 0.000814474)
(-0.000241076 -0.00219084 0.000814474)
(0.000143022 -0.00219941 0.000814474)
(0.000329484 -0.00232632 0.000936896)
(0.000728438 -0.00223376 0.000936895)
(0.00110526 -0.00207334 0.000936896)
(0.0014485 -0.00184991 0.000936896)
(0.00174773 -0.00157028 0.000936896)
(0.00199385 -0.00124293 0.000936896)
(0.00217939 -0.000877818 0.000936896)
(0.00229871 -0.000486037 0.000936896)
(0.00234819 -7.94854e-05 0.000936896)
(0.00232632 0.000329484 0.000936896)
(0.00223376 0.000728438 0.000936895)
(0.00207334 0.00110526 0.000936896)
(0.00184991 0.0014485 0.000936896)
(0.00157028 0.00174773 0.000936896)
(0.00124293 0.00199385 0.000936896)
(0.000877818 0.00217939 0.000936896)
(0.000486037 0.00229871 0.000936896)
(7.94854e-05 0.00234819 0.000936896)
(-0.000329484 0.00232632 0.000936896)
(-0.000728438 0.00223376 0.000936895)
(-0.00110526 0.00207334 0.000936896)
(-0.0014485 0.00184991 0.000936896)
(-0.00174773 0.00157028 0.000936896)
(-0.00199385 0.00124293 0.000936896)
(-0.00217939 0.000877818 0.000936896)
(-0.00229871 0.000486037 0.000936896)
(-0.00234819 7.94854e-05 0.000936896)
(-0.00232632 -0.000329484 0.000936896)
(-0.00223376 -0.000728438 0.000936895)
(-0.00207334 -0.00110526 0.000936896)
(-0.00184991 -0.0014485 0.000936896)
(-0.00157028 -0.00174773 0.000936896)
(-0.00124293 -0.00199385 0.000936896)
(-0.000877818 -0.00217939 0.000936896)
(-0.000486037 -0.00229871 0.000936896)
(-7.94854e-05 -0.00234819 0.000936896)
(0.000886465 -0.00238411 0.000808494)
(0.001287 -0.00219396 0.000808495)
(0.00164842 -0.00193714 0.000808495)
(0.00195976 -0.00162147 0.000808494)
(0.00221155 -0.00125653 0.000808493)
(0.00239615 -0.000853407 0.000808492)
(0.00250794 -0.000424357 0.000808492)
(0.00254352 1.75923e-05 0.000808492)
(0.00250183 0.000459001 0.000808494)
(0.00238411 0.000886465 0.000808494)
(0.00219396 0.001287 0.000808495)
(0.00193714 0.00164842 0.000808495)
(0.00162147 0.00195976 0.000808494)
(0.00125653 0.00221155 0.000808493)
(0.000853407 0.00239615 0.000808492)
(0.000424357 0.00250794 0.000808492)
(-1.75923e-05 0.00254352 0.000808492)
(-0.000459001 0.00250183 0.000808494)
(-0.000886465 0.00238411 0.000808494)
(-0.001287 0.00219396 0.000808495)
(-0.00164842 0.00193714 0.000808495)
(-0.00195976 0.00162147 0.000808494)
(-0.00221155 0.00125653 0.000808493)
(-0.00239615 0.000853407 0.000808492)
(-0.00250794 0.000424357 0.000808492)
(-0.00254352 -1.75923e-05 0.000808492)
(-0.00250183 -0.000459001 0.000808494)
(-0.00238411 -0.000886465 0.000808494)
(-0.00219396 -0.001287 0.000808495)
(-0.00193714 -0.00164842 0.000808495)
(-0.00162147 -0.00195976 0.000808494)
(-0.00125653 -0.00221155 0.000808493)
(-0.000853407 -0.00239615 0.000808492)
(-0.000424357 -0.00250794 0.000808492)
(1.75923e-05 -0.00254352 0.000808492)
(0.000459001 -0.00250183 0.000808494)
(0.000742356 -0.00257159 0.000970013)
(0.00117763 -0.00240361 0.000970012)
(0.00157712 -0.0021626 0.000970013)
(0.00192869 -0.00185588 0.000970012)
(0.00222167 -0.00149277 0.000970012)
(0.00244713 -0.00108431 0.000970012)
(0.00259824 -0.000642895 0.000970011)
(0.00267041 -0.000181949 0.000970011)
(0.00266143 0.000284527 0.000970012)
(0.00257159 0.000742356 0.000970013)
(0.00240361 0.00117763 0.000970012)
(0.0021626 0.00157712 0.000970013)
(0.00185588 0.00192869 0.000970012)
(0.00149277 0.00222167 0.000970012)
(0.00108431 0.00244713 0.000970012)
(0.000642895 0.00259824 0.000970011)
(0.000181949 0.00267041 0.000970011)
(-0.000284527 0.00266143 0.000970012)
(-0.000742356 0.00257159 0.000970013)
(-0.00117763 0.00240361 0.000970012)
(-0.00157712 0.0021626 0.000970013)
(-0.00192869 0.00185588 0.000970012)
(-0.00222167 0.00149277 0.000970012)
(-0.00244713 0.00108431 0.000970012)
(-0.00259824 0.000642895 0.000970011)
(-0.00267041 0.000181949 0.000970011)
(-0.00266143 -0.000284527 0.000970012)
(-0.00257159 -0.000742356 0.000970013)
(-0.00240361 -0.00117763 0.000970012)
(-0.0021626 -0.00157712 0.000970013)
(-0.00185588 -0.00192869 0.000970012)
(-0.00149277 -0.00222167 0.000970012)
(-0.00108431 -0.00244713 0.000970012)
(-0.000642895 -0.00259824 0.000970011)
(-0.000181949 -0.00267041 0.000970011)
(0.000284527 -0.00266143 0.000970012)
(0.000572314 -0.00275679 0.00111705)
(0.00104233 -0.00261552 0.00111705)
(0.00148068 -0.00239479 0.00111705)
(0.00187403 -0.00210129 0.00111705)
(0.00221044 -0.00174395 0.00111705)
(0.0024797 -0.00133361 0.00111705)
(0.00267361 -0.000882757 0.00111705)
(0.00278628 -0.00040508 0.00111705)
(0.00281429 8.49054e-05 0.00111705)
(0.00275679 0.000572314 0.00111705)
(0.00261552 0.00104233 0.00111705)
(0.00239479 0.00148068 0.00111705)
(0.00210129 0.00187403 0.00111705)
(0.00174395 0.00221044 0.00111705)
(0.00133361 0.0024797 0.00111705)
(0.000882757 0.00267361 0.00111705)
(0.00040508 0.00278628 0.00111705)
(-8.49054e-05 0.00281429 0.00111705)
(-0.000572314 0.00275679 0.00111705)
(-0.00104233 0.00261552 0.00111705)
(-0.00148068 0.00239479 0.00111705)
(-0.00187403 0.00210129 0.00111705)
(-0.00221044 0.00174395 0.00111705)
(-0.0024797 0.00133361 0.00111705)
(-0.00267361 0.000882757 0.00111705)
(-0.00278628 0.00040508 0.00111705)
(-0.00281429 -8.49054e-05 0.00111705)
(-0.00275679 -0.000572314 0.00111705)
(-0.00261552 -0.00104233 0.00111705)
(-0.00239479 -0.00148068 0.00111705)
(-0.00210129 -0.00187403 0.00111705)
(-0.00174395 -0.00221044 0.00111705)
(-0.00133361 -0.0024797 0.00111705)
(-0.000882757 -0.00267361 0.00111705)
(-0.00040508 -0.00278628 0.00111705)
(8.49054e-05 -0.00281429 0.00111705)
(0.000379001 -0.00292099 0.00124376)
(0.000880467 -0.0028108 0.00124376)
(0.00135518 -0.00261521 0.00124376)
(0.00178872 -0.00234015 0.00124376)
(0.00216791 -0.00199399 0.00124376)
(0.00248123 -0.00158724 0.00124376)
(0.00271915 -0.00113227 0.00124376)
(0.00287446 -0.000642893 0.00124376)
(0.00294243 -0.000133982 0.00124376)
(0.00292099 0.000379001 0.00124376)
(0.0028108 0.000880467 0.00124376)
(0.00261521 0.00135518 0.00124376)
(0.00234015 0.00178872 0.00124376)
(0.00199399 0.00216791 0.00124376)
(0.00158724 0.00248123 0.00124376)
(0.00113227 0.00271915 0.00124376)
(0.000642893 0.00287446 0.00124376)
(0.000133982 0.00294243 0.00124376)
(-0.000379001 0.00292099 0.00124376)
(-0.000880467 0.0028108 0.00124376)
(-0.00135518 0.00261521 0.00124376)
(-0.00178872 0.00234015 0.00124376)
(-0.00216791 0.00199399 0.00124376)
(-0.00248123 0.00158724 0.00124376)
(-0.00271915 0.00113227 0.00124376)
(-0.00287446 0.000642893 0.00124376)
(-0.00294243 0.000133982 0.00124376)
(-0.00292099 -0.000379001 0.00124376)
(-0.0028108 -0.000880467 0.00124376)
(-0.00261521 -0.00135518 0.00124376)
(-0.00234015 -0.00178872 0.00124376)
(-0.00199399 -0.00216791 0.00124376)
(-0.00158724 -0.00248123 0.00124376)
(-0.00113227 -0.00271915 0.00124376)
(-0.000642893 -0.00287446 0.00124376)
(-0.000133982 -0.00294243 0.00124376)
(0.000856396 -0.00300509 0.00110208)
(0.00136521 -0.00281072 0.00110208)
(0.00183255 -0.00253095 0.00110208)
(0.00224421 -0.00217428 0.00110208)
(0.00258767 -0.00175155 0.00110208)
(0.00285251 -0.00127559 0.00110208)
(0.00303068 -0.000760883 0.00110208)
(0.00311677 -0.00022305 0.00110208)
(0.00310815 0.000321558 0.00110208)
(0.00300509 0.000856396 0.00110208)
(0.00281072 0.00136521 0.00110208)
(0.00253095 0.00183255 0.00110208)
(0.00217428 0.00224421 0.00110208)
(0.00175155 0.00258767 0.00110208)
(0.00127559 0.00285251 0.00110208)
(0.000760883 0.00303068 0.00110208)
(0.00022305 0.00311677 0.00110208)
(-0.000321558 0.00310815 0.00110208)
(-0.000856396 0.00300509 0.00110208)
(-0.00136521 0.00281072 0.00110208)
(-0.00183255 0.00253095 0.00110208)
(-0.00224421 0.00217428 0.00110208)
(-0.00258767 0.00175155 0.00110208)
(-0.00285251 0.00127559 0.00110208)
(-0.00303068 0.000760883 0.00110208)
(-0.00311677 0.00022305 0.00110208)
(-0.00310815 -0.000321558 0.00110208)
(-0.00300509 -0.000856396 0.00110208)
(-0.00281072 -0.00136521 0.00110208)
(-0.00253095 -0.00183255 0.00110208)
(-0.00217428 -0.00224421 0.00110208)
(-0.00175155 -0.00258767 0.00110208)
(-0.00127559 -0.00285251 0.00110208)
(-0.000760883 -0.00303068 0.00110208)
(-0.00022305 -0.00311677 0.00110208)
(0.000321558 -0.00310815 0.00110208)
(0.000712609 -0.00315189 0.00125614)
(0.0012491 -0.00298026 0.00125613)
(0.00174764 -0.00271808 0.00125613)
(0.00219308 -0.00237331 0.00125614)
(0.00257188 -0.00195643 0.00125613)
(0.00287254 -0.00148011 0.00125613)
(0.00308592 -0.000958807 0.00125613)
(0.00320553 -0.000408378 0.00125613)
(0.00322775 0.000154461 0.00125614)
(0.00315189 0.000712609 0.00125614)
(0.00298026 0.0012491 0.00125613)
(0.00271808 0.00174764 0.00125613)
(0.00237331 0.00219308 0.00125614)
(0.00195643 0.00257188 0.00125613)
(0.00148011 0.00287254 0.00125613)
(0.000958807 0.00308592 0.00125613)
(0.000408378 0.00320553 0.00125613)
(-0.000154461 0.00322775 0.00125614)
(-0.000712609 0.00315189 0.00125614)
(-0.0012491 0.00298026 0.00125613)
(-0.00174764 0.00271808 0.00125613)
(-0.00219308 0.00237331 0.00125614)
(-0.00257188 0.00195643 0.00125613)
(-0.00287254 0.00148011 0.00125613)
(-0.00308592 0.000958807 0.00125613)
(-0.00320553 0.000408378 0.00125613)
(-0.00322775 -0.000154461 0.00125614)
(-0.00315189 -0.000712609 0.00125614)
(-0.00298026 -0.0012491 0.00125613)
(-0.00271808 -0.00174764 0.00125613)
(-0.00237331 -0.00219308 0.00125614)
(-0.00195643 -0.00257188 0.00125613)
(-0.00148011 -0.00287254 0.00125613)
(-0.000958807 -0.00308592 0.00125613)
(-0.000408378 -0.00320553 0.00125613)
(0.000154461 -0.00322775 0.00125614)
(0.000547963 -0.00329652 0.00139569)
(0.00111207 -0.00315129 0.00139569)
(0.00164239 -0.0029103 0.00139569)
(0.00212281 -0.00258089 0.00139569)
(0.00253873 -0.00217306 0.00139569)
(0.00287751 -0.0016992 0.00139569)
(0.00312885 -0.00117371 0.00139569)
(0.00328513 -0.000612563 0.00139569)
(0.00334159 -3.27984e-05 0.00139569)
(0.00329652 0.000547963 0.00139569)
(0.00315129 0.00111207 0.00139569)
(0.0029103 0.00164239 0.00139569)
(0.00258089 0.00212281 0.00139569)
(0.00217306 0.00253873 0.00139569)
(0.0016992 0.00287751 0.00139569)
(0.00117371 0.00312885 0.00139569)
(0.000612563 0.00328513 0.00139569)
(3.27984e-05 0.00334159 0.00139569)
(-0.000547963 0.00329652 0.00139569)
(-0.00111207 0.00315129 0.00139569)
(-0.00164239 0.0029103 0.00139569)
(-0.00212281 0.00258089 0.00139569)
(-0.00253873 0.00217306 0.00139569)
(-0.00287751 0.0016992 0.00139569)
(-0.00312885 0.00117371 0.00139569)
(-0.00328513 0.000612563 0.00139569)
(-0.00334159 3.27984e-05 0.00139569)
(-0.00329652 -0.000547963 0.00139569)
(-0.00315129 -0.00111207 0.00139569)
(-0.0029103 -0.00164239 0.00139569)
(-0.00258089 -0.00212281 0.00139569)
(-0.00217306 -0.00253873 0.00139569)
(-0.0016992 -0.00287751 0.00139569)
(-0.00117371 -0.00312885 0.00139569)
(-0.000612563 -0.00328513 0.00139569)
(-3.27984e-05 -0.00334159 0.00139569)
(0.000363246 -0.00342106 0.00151554)
(0.000951791 -0.00330601 0.00151554)
(0.00151141 -0.00309051 0.00151554)
(0.00202511 -0.0027811 0.00151554)
(0.00247728 -0.00238719 0.00151554)
(0.00285417 -0.00192075 0.00151554)
(0.00314435 -0.00139595 0.00151554)
(0.00333898 -0.00082873 0.00151554)
(0.00343216 -0.000236333 0.00151554)
(0.00342106 0.000363246 0.00151554)
(0.00330601 0.000951791 0.00151554)
(0.00309051 0.00151141 0.00151554)
(0.0027811 0.00202511 0.00151554)
(0.00238719 0.00247728 0.00151554)
(0.00192075 0.00285417 0.00151554)
(0.00139595 0.00314435 0.00151554)
(0.00082873 0.00333898 0.00151554)
(0.000236333 0.00343216 0.00151554)
(-0.000363246 0.00342106 0.00151554)
(-0.000951791 0.00330601 0.00151554)
(-0.00151141 0.00309051 0.00151554)
(-0.00202511 0.0027811 0.00151554)
(-0.00247728 0.00238719 0.00151554)
(-0.00285417 0.00192075 0.00151554)
(-0.00314435 0.00139595 0.00151554)
(-0.00333898 0.00082873 0.00151554)
(-0.00343216 0.000236333 0.00151554)
(-0.00342106 -0.000363246 0.00151554)
(-0.00330601 -0.000951791 0.00151554)
(-0.00309051 -0.00151141 0.00151554)
(-0.0027811 -0.00202511 0.00151554)
(-0.00238719 -0.00247728 0.00151554)
(-0.00192075 -0.00285417 0.00151554)
(-0.00139595 -0.00314435 0.00151554)
(-0.00082873 -0.00333898 0.00151554)
(-0.000236333 -0.00343216 0.00151554)
(0.000764686 -0.00354471 0.0013883)
(0.0013686 -0.00335807 0.0013883)
(0.00193093 -0.0030694 0.0013883)
(0.00243459 -0.00268747 0.0013883)
(0.00286428 -0.00222388 0.0013883)
(0.00320694 -0.00169271 0.0013883)
(0.00345216 -0.00111012 0.0013883)
(0.00359248 -0.000493793 0.0013883)
(0.00362365 0.000137536 0.0013883)
(0.00354471 0.000764686 0.0013883)
(0.00335807 0.0013686 0.0013883)
(0.0030694 0.00193093 0.0013883)
(0.00268747 0.00243459 0.0013883)
(0.00222388 0.00286428 0.0013883)
(0.00169271 0.00320694 0.0013883)
(0.00111012 0.00345216 0.0013883)
(0.000493793 0.00359248 0.0013883)
(-0.000137536 0.00362365 0.0013883)
(-0.000764686 0.00354471 0.0013883)
(-0.0013686 0.00335807 0.0013883)
(-0.00193093 0.0030694 0.0013883)
(-0.00243459 0.00268747 0.0013883)
(-0.00286428 0.00222388 0.0013883)
(-0.00320694 0.00169271 0.0013883)
(-0.00345216 0.00111012 0.0013883)
(-0.00359248 0.000493793 0.0013883)
(-0.00362365 -0.000137536 0.0013883)
(-0.00354471 -0.000764686 0.0013883)
(-0.00335807 -0.0013686 0.0013883)