/*--------------------------------*- C++ -*----------------------------------*\
| =========                 |                                                 |
| \\      /  F ield         | OpenFOAM: The Open Source CFD Toolbox           |
|  \\    /   O peration     | Version:  2312                                  |
|   \\  /    A nd           | Website:  www.openfoam.com                      |
|    \\/     M anipulation  |                                                 |
\*---------------------------------------------------------------------------*/
FoamFile
{
    version     2.0;
    format      ascii;
    arch        "LSB;label=32;scalar=64";
    class       volSymmTensorField;
    location    "1";
    object      sigma;
}
// * * * * * * * * * * * * * * * * * * * * * * * * * * * * * * * * * * * * * //

dimensions      [1 -1 -2 0 0 0 0];

internalField   nonuniform List<symmTensor> 
1620
(
(-4474.48 1485.65 -3094.8 8601.44 -23528.7 40036.4)
(-4588.36 -840.056 1037.92 8715.22 -23708.6 40036.3)
(-3899.89 -3064.46 5139.15 8026.77 -23168.2 40036.3)
(-2492.16 -4919.13 9084.06 6618.94 -21923.7 40036.5)
(-535.102 -6180.54 12753 4661.66 -20013.2 40036.5)
(1735.51 -6696.52 16034.6 2391.1 -17494.6 40036.5)
(4046 -6404.87 18829 81.2459 -14444.5 40036.5)
(6116.99 -5340.59 21051.2 -1989.8 -10955.4 40036.5)
(7699.07 -3632.17 22633.8 -3572.03 -7133.5 40036.4)
(8601.44 -1485.65 23528.7 -4474.48 -3094.8 40036.4)
(8715.22 840.056 23708.6 -4588.36 1037.92 40036.3)
(8026.77 3064.46 23168.2 -3899.89 5139.15 40036.3)
(6618.94 4919.13 21923.7 -2492.16 9084.06 40036.5)
(4661.66 6180.54 20013.2 -535.102 12753 40036.5)
(2391.1 6696.52 17494.6 1735.51 16034.6 40036.5)
(81.2459 6404.87 14444.5 4046 18829 40036.5)
(-1989.8 5340.59 10955.4 6116.99 21051.2 40036.5)
(-3572.03 3632.17 7133.5 7699.07 22633.8 40036.4)
(-4474.48 1485.65 3094.8 8601.44 23528.7 40036.4)
(-4588.36 -840.056 -1037.92 8715.22 23708.6 40036.3)
(-3899.89 -3064.46 -5139.15 8026.77 23168.2 40036.3)
(-2492.16 -4919.13 -9084.06 6618.94 21923.7 40036.5)
(-535.102 -6180.54 -12753 4661.66 20013.2 40036.5)
(1735.51 -6696.52 -16034.6 2391.1 17494.6 40036.5)
(4046 -6404.87 -18829 81.246 14444.5 40036.5)
(6116.99 -5340.59 -21051.2 -1989.8 10955.4 40036.5)
(7699.07 -3632.17 -22633.8 -3572.03 7133.5 40036.4)
(8601.44 -1485.65 -23528.7 -4474.48 3094.8 40036.4)
(8715.22 840.056 -23708.6 -4588.36 -1037.92 40036.3)
(8026.77 3064.46 -23168.2 -3899.89 -5139.15 40036.3)
(6618.94 4919.13 -21923.7 -2492.16 -9084.06 40036.5)
(4661.66 6180.54 -20013.2 -535.102 -12753 40036.5)
(2391.1 6696.52 -17494.6 1735.51 -16034.6 40036.5)
(81.246 6404.87 -14444.5 4046 -18829 40036.5)
(-1989.8 5340.59 -10955.4 6116.99 -21051.2 40036.5)
(-3572.03 3632.17 -7133.5 7699.07 -22633.8 40036.4)
(-29429.9 -3855.12 348.69 29484.7 -6538.77 -29596.5)
(-26334.8 -13697.6 1478.84 26389.7 -6378.88 -29596.5)
(-20060.1 -21888 2564.03 20115.1 -6025.12 -29596.4)
(-11362.7 -27438.3 3571.45 11417.3 -5488.54 -29596.5)
(-1291.37 -29679.1 4470.4 1345.99 -4785.11 -29596.5)
(8939.23 -28340.3 5233.26 -8884.3 -3936.03 -29596.4)
(18094.9 -23583.2 5837.04 -18039.7 -2967.39 -29596.4)
(25071.2 -15981.6 6263.69 -25016.1 -1908.73 -29596.4)
(29026.8 -6452.32 6499.98 -28971.9 -792.048 -29596.5)
(29484.7 3855.12 6538.77 -29429.9 348.69 -29596.5)
(26389.7 13697.6 6378.88 -26334.8 1478.84 -29596.5)
(20115.1 21888 6025.12 -20060.1 2564.03 -29596.4)
(11417.3 27438.3 5488.54 -11362.7 3571.45 -29596.5)
(1345.99 29679.1 4785.11 -1291.37 4470.4 -29596.5)
(-8884.3 28340.3 3936.03 8939.23 5233.26 -29596.4)
(-18039.7 23583.2 2967.39 18094.9 5837.04 -29596.4)
(-25016.1 15981.6 1908.73 25071.2 6263.69 -29596.4)
(-28971.9 6452.32 792.048 29026.8 6499.98 -29596.5)
(-29429.9 -3855.12 -348.69 29484.7 6538.77 -29596.5)
(-26334.8 -13697.6 -1478.84 26389.7 6378.88 -29596.5)
(-20060.1 -21888 -2564.03 20115.1 6025.12 -29596.4)
(-11362.7 -27438.3 -3571.45 11417.3 5488.54 -29596.5)
(-1291.37 -29679.1 -4470.4 1345.99 4785.11 -29596.5)
(8939.23 -28340.3 -5233.26 -8884.3 3936.03 -29596.4)
(18094.9 -23583.2 -5837.04 -18039.7 2967.39 -29596.4)
(25071.2 -15981.6 -6263.69 -25016.1 1908.73 -29596.4)
(29026.8 -6452.32 -6499.98 -28971.9 792.048 -29596.5)
(29484.7 3855.12 -6538.77 -29429.9 -348.69 -29596.5)
(26389.7 13697.6 -6378.88 -26334.8 -1478.84 -29596.5)
(20115.1 21888 -6025.12 -20060.1 -2564.03 -29596.4)
(11417.3 27438.3 -5488.54 -11362.7 -3571.45 -29596.5)
(1345.99 29679.1 -4785.11 -1291.37 -4470.4 -29596.5)
(-8884.3 28340.3 -3936.03 8939.23 -5233.26 -29596.4)
(-18039.7 23583.2 -2967.39 18094.9 -5837.04 -29596.4)
(-25016.1 15981.6 -1908.73 25071.2 -6263.69 -29596.4)
(-28971.9 6452.32 -792.048 29026.8 -6499.98 -29596.5)
(-58983.7 -4546.61 -6582.44 -36841.2 30526 -21585.3)
(-56761.1 -8059.01 -11783.2 -39064 28919.2 -21585.4)
(-53471 -10599.3 -16626 -42353.9 26433.7 -21585.2)
(-49510.5 -11861.3 -20963.6 -46314.3 23145.1 -21585.3)
(-45357.4 -11692.7 -24664.2 -50467.6 19153.2 -21585.6)
(-41512.5 -10113.5 -27615.4 -54312.6 14579.3 -21585.3)
(-38439.6 -7314.64 -29727.5 -57385.7 9562.43 -21585.4)
(-36508.9 -3633.53 -30936.4 -59316 4255.01 -21585.3)
(-35953.8 485.845 -31205.3 -59871 -1181.68 -21585.3)
(-36841.2 4546.61 -30526 -58983.7 -6582.44 -21585.3)
(-39064 8059.01 -28919.2 -56761.1 -11783.2 -21585.4)
(-42353.9 10599.3 -26433.7 -53471 -16626 -21585.2)
(-46314.3 11861.3 -23145.1 -49510.5 -20963.6 -21585.3)
(-50467.6 11692.7 -19153.2 -45357.4 -24664.2 -21585.6)
(-54312.6 10113.5 -14579.3 -41512.5 -27615.4 -21585.3)
(-57385.7 7314.64 -9562.43 -38439.6 -29727.5 -21585.4)
(-59316 3633.53 -4255.01 -36508.9 -30936.4 -21585.3)
(-59871 -485.845 1181.68 -35953.8 -31205.3 -21585.3)
(-58983.7 -4546.61 6582.44 -36841.2 -30526 -21585.3)
(-56761.1 -8059.01 11783.2 -39064 -28919.2 -21585.4)
(-53471 -10599.3 16626 -42353.9 -26433.7 -21585.2)
(-49510.5 -11861.3 20963.6 -46314.3 -23145.1 -21585.3)
(-45357.4 -11692.7 24664.2 -50467.6 -19153.2 -21585.6)
(-41512.5 -10113.5 27615.4 -54312.6 -14579.3 -21585.3)
(-38439.6 -7314.64 29727.5 -57385.7 -9562.43 -21585.4)
(-36508.9 -3633.53 30936.4 -59316 -4255.01 -21585.3)
(-35953.8 485.845 31205.3 -59871 1181.68 -21585.3)
(-36841.2 4546.61 30526 -58983.7 6582.44 -21585.3)
(-39064 8059.01 28919.2 -56761.1 11783.2 -21585.4)
(-42353.9 10599.3 26433.7 -53471 16626 -21585.2)
(-46314.3 11861.3 23145.1 -49510.5 20963.6 -21585.3)
(-50467.6 11692.7 19153.2 -45357.4 24664.2 -21585.6)
(-54312.6 10113.5 14579.3 -41512.5 27615.4 -21585.3)
(-57385.7 7314.64 9562.43 -38439.6 29727.5 -21585.4)
(-59316 3633.53 4255.01 -36508.9 30936.4 -21585.3)
(-59871 -485.845 -1181.68 -35953.8 31205.3 -21585.3)
(10897.3 1256.85 -1615.57 20164.9 -20521.3 58446.6)
(10746.9 -403.754 1972.41 20315.1 -20489.9 58446.7)
(11173.3 -2015.71 5500.55 19888.4 -19836.2 58446.5)
(12125.7 -3384.4 8861.34 18936.3 -18579.5 58447)
(13488.6 -4344.97 11953 17573.4 -16758.5 58447)
(15097.9 -4781.48 14681.5 15964.2 -14428.3 58447)
(16759.5 -4641.37 16964.1 14302.7 -11659.8 58446.7)
(18272.6 -3941.27 18731 12789.2 -8536.78 58446.7)
(19455.5 -2765.9 19929 11606.6 -5154.52 58446.6)
(20164.9 -1256.85 20521.3 10897.3 -1615.57 58446.6)
(20315.1 403.754 20489.9 10746.9 1972.41 58446.7)
(19888.4 2015.71 19836.2 11173.3 5500.55 58446.5)
(18936.3 3384.4 18579.5 12125.7 8861.34 58447)
(17573.4 4344.97 16758.5 13488.6 11953 58447)
(15964.2 4781.48 14428.3 15097.9 14681.5 58447)
(14302.7 4641.37 11659.8 16759.5 16964.1 58446.7)
(12789.2 3941.27 8536.78 18272.6 18731 58446.7)
(11606.6 2765.9 5154.52 19455.5 19929 58446.6)
(10897.3 1256.85 1615.57 20164.9 20521.3 58446.6)
(10746.9 -403.754 -1972.41 20315.1 20489.9 58446.7)
(11173.3 -2015.71 -5500.55 19888.4 19836.2 58446.5)
(12125.7 -3384.4 -8861.34 18936.3 18579.5 58447)
(13488.6 -4344.97 -11953 17573.4 16758.5 58447)
(15097.9 -4781.48 -14681.5 15964.2 14428.3 58447)
(16759.5 -4641.37 -16964.1 14302.7 11659.8 58446.7)
(18272.6 -3941.27 -18731 12789.2 8536.78 58446.7)
(19455.5 -2765.9 -19929 11606.6 5154.52 58446.6)
(20164.9 -1256.85 -20521.3 10897.3 1615.57 58446.6)
(20315.1 403.754 -20489.9 10746.9 -1972.41 58446.7)
(19888.4 2015.71 -19836.2 11173.3 -5500.55 58446.5)
(18936.3 3384.4 -18579.5 12125.7 -8861.34 58447)
(17573.4 4344.97 -16758.5 13488.6 -11953 58447)
(15964.2 4781.48 -14428.3 15097.9 -14681.5 58447)
(14302.7 4641.37 -11659.8 16759.5 -16964.1 58446.7)
(12789.2 3941.27 -8536.78 18272.6 -18731 58446.7)
(11606.6 2765.9 -5154.52 19455.5 -19929 58446.6)
(-8698.09 -2232.93 414.764 49626.8 -8871.68 -9375.79)
(-6175.67 -12072.4 1949.06 47104.4 -8665.09 -9375.69)
(-440.035 -20455.8 3424.09 41368.8 -8194.9 -9375.71)
(7816.54 -26371.8 4795.19 33111.5 -7475.96 -9375.99)
(17599.2 -29107.1 6020.49 23329.3 -6529.67 -9375.8)
(27727.2 -28331.6 7062.94 13201.3 -5385.06 -9375.74)
(36979.3 -24138.9 7890.59 3949.3 -4076.7 -9375.8)
(44239.4 -17034.7 8478.73 -3310.62 -2644.61 -9375.66)
(48631.8 -7875.89 8808.92 -7703.11 -1132.09 -9375.82)
(49626.8 2232.93 8871.68 -8698.09 414.764 -9375.79)
(47104.4 12072.4 8665.09 -6175.67 1949.06 -9375.69)
(41368.8 20455.8 8194.9 -440.035 3424.09 -9375.71)
(33111.5 26371.8 7475.96 7816.54 4795.19 -9375.99)
(23329.3 29107.1 6529.67 17599.2 6020.49 -9375.8)
(13201.3 28331.6 5385.06 27727.2 7062.94 -9375.74)
(3949.3 24138.9 4076.7 36979.3 7890.59 -9375.8)
(-3310.62 17034.7 2644.61 44239.4 8478.73 -9375.66)
(-7703.11 7875.89 1132.09 48631.8 8808.92 -9375.82)
(-8698.09 -2232.93 -414.764 49626.8 8871.68 -9375.79)
(-6175.67 -12072.4 -1949.06 47104.4 8665.09 -9375.69)
(-440.035 -20455.8 -3424.09 41368.8 8194.9 -9375.71)
(7816.54 -26371.8 -4795.19 33111.5 7475.96 -9375.99)
(17599.2 -29107.1 -6020.49 23329.3 6529.67 -9375.8)
(27727.2 -28331.6 -7062.94 13201.3 5385.06 -9375.74)
(36979.3 -24138.9 -7890.59 3949.3 4076.7 -9375.8)
(44239.4 -17034.7 -8478.73 -3310.62 2644.61 -9375.66)
(48631.8 -7875.89 -8808.92 -7703.11 1132.09 -9375.82)
(49626.8 2232.93 -8871.68 -8698.09 -414.764 -9375.79)
(47104.4 12072.4 -8665.09 -6175.67 -1949.06 -9375.69)
(41368.8 20455.8 -8194.9 -440.035 -3424.09 -9375.71)
(33111.5 26371.8 -7475.96 7816.54 -4795.19 -9375.99)
(23329.3 29107.1 -6529.67 17599.2 -6020.49 -9375.8)
(13201.3 28331.6 -5385.06 27727.2 -7062.94 -9375.74)
(3949.3 24138.9 -4076.7 36979.3 -7890.59 -9375.8)
(-3310.62 17034.7 -2644.61 44239.4 -8478.73 -9375.66)
(-7703.11 7875.89 -1132.09 48631.8 -8808.92 -9375.82)
(-37669.7 -1355.22 -4228.51 -13585.9 31267.8 -1569.06)
(-36479.9 -5392.08 -9593.87 -14775.5 30058.5 -1569.04)
(-33981.3 -8778.55 -14667.7 -17274.2 27935.9 -1568.99)
(-30474.8 -11106.2 -19295.9 -20780.3 24964.4 -1568.67)
(-26384.2 -12094.3 -23337.8 -24871.3 21234.5 -1569.07)
(-22202.3 -11623.6 -26670.6 -29053.6 16859.3 -1569.05)
(-18433.3 -9751.01 -29193 -32822.5 11971.9 -1569.16)
(-15532.1 -6702.26 -30828.4 -35723.6 6720.74 -1569.12)
(-13848.7 -2845.1 -31527.1 -37407.1 1265.34 -1569.05)
(-13585.9 1355.22 -31267.8 -37669.7 -4228.51 -1569.06)
(-14775.5 5392.08 -30058.5 -36479.9 -9593.87 -1569.04)
(-17274.2 8778.55 -27935.9 -33981.3 -14667.7 -1568.99)
(-20780.3 11106.2 -24964.4 -30474.8 -19295.9 -1568.67)
(-24871.3 12094.3 -21234.5 -26384.2 -23337.8 -1569.07)
(-29053.6 11623.6 -16859.3 -22202.3 -26670.6 -1569.05)
(-32822.5 9751.01 -11971.9 -18433.3 -29193 -1569.16)
(-35723.6 6702.26 -6720.74 -15532.1 -30828.4 -1569.12)
(-37407.1 2845.1 -1265.34 -13848.7 -31527.1 -1569.05)
(-37669.7 -1355.22 4228.51 -13585.9 -31267.8 -1569.06)
(-36479.9 -5392.08 9593.87 -14775.5 -30058.5 -1569.04)
(-33981.3 -8778.55 14667.7 -17274.2 -27935.9 -1568.99)
(-30474.8 -11106.2 19295.9 -20780.3 -24964.4 -1568.67)
(-26384.2 -12094.3 23337.8 -24871.3 -21234.5 -1569.07)
(-22202.3 -11623.6 26670.6 -29053.6 -16859.3 -1569.05)
(-18433.3 -9751.01 29193 -32822.5 -11971.9 -1569.16)
(-15532.1 -6702.26 30828.4 -35723.6 -6720.74 -1569.12)
(-13848.7 -2845.1 31527.1 -37407.1 -1265.34 -1569.05)
(-13585.9 1355.22 31267.8 -37669.7 4228.51 -1569.06)
(-14775.5 5392.08 30058.5 -36479.9 9593.87 -1569.04)
(-17274.2 8778.55 27935.9 -33981.3 14667.7 -1568.99)
(-20780.3 11106.2 24964.4 -30474.8 19295.9 -1568.67)
(-24871.3 12094.3 21234.5 -26384.2 23337.8 -1569.07)
(-29053.6 11623.6 16859.3 -22202.3 26670.6 -1569.05)
(-32822.5 9751.01 11971.9 -18433.3 29193 -1569.16)
(-35723.6 6702.26 6720.74 -15532.1 30828.4 -1569.12)
(-37407.1 2845.1 1265.34 -13848.7 31527.1 -1569.05)
(7457.28 1510.98 617.758 16368.3 -20376.3 53253.3)
(7209.32 -104.004 4146.67 16616.5 -19959.4 53253.4)
(7528.44 -1706.45 7549.58 16297.1 -18936.1 53253.3)
(8376.67 -3103.01 10723 15449.2 -17337.3 53253.7)
(9651.37 -4125.48 13570.9 14174.8 -15212.1 53253.5)
(11198.4 -4650.08 16006 12627.1 -12624.3 53253.7)
(12832.1 -4614.06 17955.2 10993.7 -9653.15 53253.4)
(14354.6 -4021.4 19358.6 9470.91 -6388.61 53253.3)
(15582.9 -2943.72 20174 8242.93 -2929.93 53253.4)
(16368.3 -1510.98 20376.3 7457.28 617.758 53253.3)
(16616.5 104.004 19959.4 7209.32 4146.67 53253.4)
(16297.1 1706.45 18936.1 7528.44 7549.58 53253.3)
(15449.2 3103.01 17337.3 8376.67 10723 53253.7)
(14174.8 4125.48 15212.1 9651.37 13570.9 53253.5)
(12627.1 4650.08 12624.3 11198.4 16006 53253.7)
(10993.7 4614.06 9653.15 12832.1 17955.2 53253.4)
(9470.91 4021.4 6388.61 14354.6 19358.6 53253.3)
(8242.93 2943.72 2929.93 15582.9 20174 53253.4)
(7457.28 1510.98 -617.758 16368.3 20376.3 53253.3)
(7209.32 -104.004 -4146.67 16616.5 19959.4 53253.4)
(7528.44 -1706.45 -7549.58 16297.1 18936.1 53253.3)
(8376.67 -3103.01 -10723 15449.2 17337.3 53253.7)
(9651.37 -4125.48 -13570.9 14174.8 15212.1 53253.5)
(11198.4 -4650.08 -16006 12627.1 12624.3 53253.7)
(12832.1 -4614.06 -17955.2 10993.7 9653.15 53253.4)
(14354.6 -4021.4 -19358.6 9470.91 6388.61 53253.3)
(15582.9 -2943.72 -20174 8242.93 2929.93 53253.4)
(16368.3 -1510.98 -20376.3 7457.28 -617.758 53253.3)
(16616.5 104.004 -19959.4 7209.32 -4146.67 53253.4)
(16297.1 1706.45 -18936.1 7528.44 -7549.58 53253.3)
(15449.2 3103.01 -17337.3 8376.67 -10723 53253.7)
(14174.8 4125.48 -15212.1 9651.37 -13570.9 53253.5)
(12627.1 4650.08 -12624.3 11198.4 -16006 53253.7)
(10993.7 4614.06 -9653.15 12832.1 -17955.2 53253.4)
(9470.91 4021.4 -6388.61 14354.6 -19358.6 53253.3)
(8242.93 2943.72 -2929.93 15582.9 -20174 53253.4)
(-8397.86 94.1783 336.672 49734.7 -9453.95 -11172.8)
(-6677.37 -9852.75 1973.25 48013.7 -9251.96 -11173)
(-1658.17 -18611.2 3549.88 42995 -8768.81 -11172.7)
(6053.55 -25125 5018.64 35282.9 -8019.16 -11172.9)
(15528.5 -28608.4 6334.75 25808.6 -7025.69 -11172.7)
(25623 -28641 7458.69 15713.9 -5819.08 -11172.6)
(35119.8 -25219.2 8355.84 6216.75 -4435.49 -11172.8)
(42873.9 -18755.6 8999.06 -1537.11 -2917.11 -11172.8)
(47949.5 -10029.7 9368.78 -6612.8 -1310.11 -11172.9)
(49734.7 -94.1783 9453.95 -8397.86 336.672 -11172.8)
(48013.7 9852.75 9251.96 -6677.37 1973.25 -11173)
(42995 18611.2 8768.81 -1658.17 3549.88 -11172.7)
(35282.9 25125 8019.16 6053.55 5018.64 -11172.9)
(25808.6 28608.4 7025.69 15528.5 6334.75 -11172.7)
(15713.9 28641 5819.08 25623 7458.69 -11172.6)
(6216.75 25219.2 4435.49 35119.8 8355.84 -11172.8)
(-1537.11 18755.6 2917.11 42873.9 8999.06 -11172.8)
(-6612.8 10029.7 1310.11 47949.5 9368.78 -11172.9)
(-8397.86 94.1783 -336.672 49734.7 9453.95 -11172.8)
(-6677.37 -9852.75 -1973.25 48013.7 9251.96 -11173)
(-1658.17 -18611.2 -3549.88 42995 8768.81 -11172.7)
(6053.55 -25125 -5018.64 35282.9 8019.16 -11172.9)
(15528.5 -28608.4 -6334.75 25808.6 7025.69 -11172.7)
(25623 -28641 -7458.69 15713.9 5819.08 -11172.6)
(35119.8 -25219.2 -8355.84 6216.75 4435.49 -11172.8)
(42873.9 -18755.6 -8999.06 -1537.11 2917.11 -11172.8)
(47949.5 -10029.7 -9368.78 -6612.8 1310.11 -11172.9)
(49734.7 -94.1783 -9453.95 -8397.86 -336.672 -11172.8)
(48013.7 9852.75 -9251.96 -6677.37 -1973.25 -11173)
(42995 18611.2 -8768.81 -1658.17 -3549.88 -11172.7)
(35282.9 25125 -8019.16 6053.55 -5018.64 -11172.9)
(25808.6 28608.4 -7025.69 15528.5 -6334.75 -11172.7)
(15713.9 28641 -5819.08 25623 -7458.69 -11172.6)
(6216.75 25219.2 -4435.49 35119.8 -8355.84 -11172.8)
(-1537.11 18755.6 -2917.11 42873.9 -8999.06 -11172.8)
(-6612.8 10029.7 -1310.11 47949.5 -9368.78 -11172.9)
(-36713.1 2580.7 -1953.34 -12000.4 31559 -2951.41)
(-36850.5 -1801.06 -7403.83 -11862.8 30740.4 -2951.42)
(-35481.3 -5965.57 -12629.3 -13232.5 28987.7 -2951.67)
(-32770 -9410.57 -17471.2 -15943.8 26354.3 -2951.58)
(-29044 -11720.5 -21782.1 -19669.7 22920.1 -2951.64)
(-24752.6 -12616.8 -25431.2 -23961 18789.4 -2951.44)
(-20413.4 -11991.3 -28307.6 -28299.9 14087.9 -2951.38)
(-16550.1 -9919.46 -30323.9 -32163.5 8958.29 -2951.56)
(-13628.2 -6651.18 -31418.8 -35085.3 3556.5 -2951.48)
(-12000.4 -2580.7 -31559 -36713.1 -1953.34 -2951.41)
(-11862.8 1801.06 -30740.4 -36850.5 -7403.83 -2951.42)
(-13232.5 5965.57 -28987.7 -35481.3 -12629.3 -2951.67)
(-15943.8 9410.57 -26354.3 -32770 -17471.2 -2951.58)
(-19669.7 11720.5 -22920.1 -29044 -21782.1 -2951.64)
(-23961 12616.8 -18789.4 -24752.6 -25431.2 -2951.44)
(-28299.9 11991.3 -14087.9 -20413.4 -28307.6 -2951.38)
(-32163.5 9919.46 -8958.29 -16550.1 -30323.9 -2951.56)
(-35085.3 6651.18 -3556.5 -13628.2 -31418.8 -2951.48)
(-36713.1 2580.7 1953.34 -12000.4 -31559 -2951.41)
(-36850.5 -1801.06 7403.83 -11862.8 -30740.4 -2951.42)
(-35481.3 -5965.57 12629.3 -13232.5 -28987.7 -2951.67)
(-32770 -9410.57 17471.2 -15943.8 -26354.3 -2951.58)
(-29044 -11720.5 21782.1 -19669.7 -22920.1 -2951.64)
(-24752.6 -12616.8 25431.2 -23961 -18789.4 -2951.44)
(-20413.4 -11991.3 28307.6 -28299.9 -14087.9 -2951.38)
(-16550.1 -9919.46 30323.9 -32163.5 -8958.29 -2951.56)
(-13628.2 -6651.18 31418.8 -35085.3 -3556.5 -2951.48)
(-12000.4 -2580.7 31559 -36713.1 1953.34 -2951.41)
(-11862.8 1801.06 30740.4 -36850.5 7403.83 -2951.42)
(-13232.5 5965.57 28987.7 -35481.3 12629.3 -2951.67)
(-15943.8 9410.57 26354.3 -32770 17471.2 -2951.58)
(-19669.7 11720.5 22920.1 -29044 21782.1 -2951.64)
(-23961 12616.8 18789.4 -24752.6 25431.2 -2951.44)
(-28299.9 11991.3 14087.9 -20413.4 28307.6 -2951.38)
(-32163.5 9919.46 8958.29 -16550.1 30323.9 -2951.56)
(-35085.3 6651.18 3556.5 -13628.2 31418.8 -2951.48)
(7362.95 1600.35 2975.53 15864.7 -20403.8 51189.3)
(7071.87 49.9189 6473.44 16155.7 -19577.2 51189.1)
(7328.95 -1506.54 9774.67 15899.1 -18155.7 51189.2)
(8102.52 -2881.21 12778.8 15125.3 -16182.5 51189.3)
(9299.74 -3908.4 15394.7 13928.1 -13717.6 51189.4)
(10776 -4464.19 17542.9 12451.7 -10835.9 51189.3)
(12353.3 -4481.58 19158.1 10874.2 -7625.09 51188.9)
(13841.5 -3958.36 20191.1 9386.1 -4182.46 51189.1)
(15060.9 -2957.7 20610.5 8166.59 -612.745 51189.2)
(15864.7 -1600.35 20403.8 7362.95 2975.53 51189.3)
(16155.7 -49.9189 19577.2 7071.87 6473.44 51189.1)
(15899.1 1506.54 18155.7 7328.95 9774.67 51189.2)
(15125.3 2881.21 16182.5 8102.52 12778.8 51189.3)
(13928.1 3908.4 13717.6 9299.74 15394.7 51189.4)
(12451.7 4464.19 10835.9 10776 17542.9 51189.3)
(10874.2 4481.58 7625.09 12353.3 19158.1 51188.9)
(9386.1 3958.36 4182.46 13841.5 20191.1 51189.1)
(8166.59 2957.7 612.745 15060.9 20610.5 51189.2)
(7362.95 1600.35 -2975.53 15864.7 20403.8 51189.3)
(7071.87 49.9189 -6473.44 16155.7 19577.2 51189.1)
(7328.95 -1506.54 -9774.67 15899.1 18155.7 51189.2)
(8102.52 -2881.21 -12778.8 15125.3 16182.5 51189.3)
(9299.74 -3908.4 -15394.7 13928.1 13717.6 51189.4)
(10776 -4464.19 -17542.9 12451.7 10835.9 51189.3)
(12353.3 -4481.58 -19158.1 10874.2 7625.09 51188.9)
(13841.5 -3958.36 -20191.1 9386.1 4182.46 51189.1)
(15060.9 -2957.7 -20610.5 8166.59 612.745 51189.2)
(15864.7 -1600.35 -20403.8 7362.95 -2975.53 51189.3)
(16155.7 -49.9189 -19577.2 7071.87 -6473.44 51189.1)
(15899.1 1506.54 -18155.7 7328.95 -9774.67 51189.2)
(15125.3 2881.21 -16182.5 8102.52 -12778.8 51189.3)
(13928.1 3908.4 -13717.6 9299.74 -15394.7 51189.4)
(12451.7 4464.19 -10835.9 10776 -17542.9 51189.3)
(10874.2 4481.58 -7625.09 12353.3 -19158.1 51188.9)
(9386.1 3958.36 -4182.46 13841.5 -20191.1 51189.1)
(8166.59 2957.7 -612.745 15060.9 -20610.5 51189.2)
(-6497.79 2478.78 266.053 51030.3 -9788.83 -11748.8)
(-5610.88 -7508.61 1961.82 50143.4 -9593.87 -11748.8)
(-1361.59 -16590.3 3597.98 45894.1 -9107.45 -11748.8)
(5737.64 -23671 5124.83 38795 -8344.35 -11748.7)
(14830.3 -27896.6 6496 29702.1 -7327.71 -11748.8)
(24820 -28757.5 7669.7 19712.6 -6088.34 -11748.7)
(34501.6 -26149.8 8610.36 10030.9 -4664 -11748.8)
(42707.5 -20388 9289.45 1825.07 -3097.96 -11748.8)
(48447.8 -12167.1 9686.32 -3915.26 -1437.8 -11748.7)
(51030.3 -2478.78 9788.83 -6497.79 266.053 -11748.8)
(50143.4 7508.61 9593.87 -5610.88 1961.82 -11748.8)
(45894.1 16590.3 9107.45 -1361.59 3597.98 -11748.8)
(38795 23671 8344.35 5737.64 5124.83 -11748.7)
(29702.1 27896.6 7327.71 14830.3 6496 -11748.8)
(19712.6 28757.5 6088.34 24820 7669.7 -11748.7)
(10030.9 26149.8 4664 34501.6 8610.36 -11748.8)
(1825.07 20388 3097.96 42707.5 9289.45 -11748.8)
(-3915.26 12167.1 1437.8 48447.8 9686.32 -11748.7)
(-6497.79 2478.78 -266.053 51030.3 9788.83 -11748.8)
(-5610.88 -7508.61 -1961.82 50143.4 9593.87 -11748.8)
(-1361.59 -16590.3 -3597.98 45894.1 9107.45 -11748.8)
(5737.64 -23671 -5124.83 38795 8344.35 -11748.7)
(14830.3 -27896.6 -6496 29702.1 7327.71 -11748.8)
(24820 -28757.5 -7669.7 19712.6 6088.34 -11748.7)
(34501.6 -26149.8 -8610.36 10030.9 4664 -11748.8)
(42707.5 -20388 -9289.45 1825.07 3097.96 -11748.8)
(48447.8 -12167.1 -9686.32 -3915.26 1437.8 -11748.7)
(51030.3 -2478.78 -9788.83 -6497.79 -266.053 -11748.8)
(50143.4 7508.61 -9593.87 -5610.88 -1961.82 -11748.8)
(45894.1 16590.3 -9107.45 -1361.59 -3597.98 -11748.8)
(38795 23671 -8344.35 5737.64 -5124.83 -11748.7)
(29702.1 27896.6 -7327.71 14830.3 -6496 -11748.8)
(19712.6 28757.5 -6088.34 24820 -7669.7 -11748.7)
(10030.9 26149.8 -4664 34501.6 -8610.36 -11748.8)
(1825.07 20388 -3097.96 42707.5 -9289.45 -11748.8)
(-3915.26 12167.1 -1437.8 48447.8 -9686.32 -11748.7)
(-32696.3 6765.1 338.661 -8174.66 31854.5 -1996.46)
(-34270.7 2163.65 -5197.97 -6600.24 31429.4 -1996.54)
(-34176.5 -2698.74 -10576.6 -6694.7 30049.3 -1996.64)
(-32424.7 -7235.62 -15634 -8446.34 27756.2 -1996.46)
(-29227 -10899.9 -20216.3 -11644.2 24619.7 -1996.75)
(-24968.9 -13249.3 -24184.3 -15902.4 20735.1 -1996.51)
(-20163.8 -14000.7 -27417.5 -20707.2 16220.5 -1996.47)
(-15391.7 -13063.5 -29817.6 -25479.4 11213.1 -1996.53)
(-11227.9 -10550.6 -31311.8 -29643.1 5865 -1996.44)
(-8174.66 -6765.1 -31854.5 -32696.3 338.661 -1996.46)
(-6600.24 -2163.65 -31429.4 -34270.7 -5197.97 -1996.54)
(-6694.7 2698.74 -30049.3 -34176.5 -10576.6 -1996.64)
(-8446.34 7235.62 -27756.2 -32424.7 -15634 -1996.46)
(-11644.2 10899.9 -24619.7 -29227 -20216.3 -1996.75)
(-15902.4 13249.3 -20735.1 -24968.9 -24184.3 -1996.51)
(-20707.2 14000.7 -16220.5 -20163.8 -27417.5 -1996.47)
(-25479.4 13063.5 -11213.1 -15391.7 -29817.6 -1996.53)
(-29643.1 10550.6 -5865 -11227.9 -31311.8 -1996.44)
(-32696.3 6765.1 -338.661 -8174.66 -31854.5 -1996.46)
(-34270.7 2163.65 5197.97 -6600.24 -31429.4 -1996.54)
(-34176.5 -2698.74 10576.6 -6694.7 -30049.3 -1996.64)
(-32424.7 -7235.62 15634 -8446.34 -27756.2 -1996.46)
(-29227 -10899.9 20216.3 -11644.2 -24619.7 -1996.75)
(-24968.9 -13249.3 24184.3 -15902.4 -20735.1 -1996.51)
(-20163.8 -14000.7 27417.5 -20707.2 -16220.5 -1996.47)
(-15391.7 -13063.5 29817.6 -25479.4 -11213.1 -1996.53)
(-11227.9 -10550.6 31311.8 -29643.1 -5865 -1996.44)
(-8174.66 -6765.1 31854.5 -32696.3 -338.661 -1996.46)
(-6600.24 -2163.65 31429.4 -34270.7 5197.97 -1996.54)
(-6694.7 2698.74 30049.3 -34176.5 10576.6 -1996.64)
(-8446.34 7235.62 27756.2 -32424.7 15634 -1996.46)
(-11644.2 10899.9 24619.7 -29227 20216.3 -1996.75)
(-15902.4 13249.3 20735.1 -24968.9 24184.3 -1996.51)
(-20707.2 14000.7 16220.5 -20163.8 27417.5 -1996.47)
(-25479.4 13063.5 11213.1 -15391.7 29817.6 -1996.53)
(-29643.1 10550.6 5865 -11227.9 31311.8 -1996.44)
(7067.16 1188.3 5386.31 14631.3 -20394.6 49127.2)
(6888.69 -176.951 8845.97 14809.6 -19149.6 49127)
(7188.35 -1520.82 12036.9 14510.5 -17322.5 49127.3)
(7929.11 -2681.3 14862 13769.4 -14969.2 49127)
(9022.14 -3518.22 17235.5 12676.1 -12160.9 49127.2)
(10335.8 -3931.01 19085.5 11362.8 -8983.34 49127.1)
(11711 -3869.53 20355.4 9987.12 -5532.67 49127)
(12982.8 -3341.37 21007 8715.89 -1913.94 49127.2)
(13996.8 -2410.17 21020.1 7701.63 1763 49127.2)
(14631.3 -1188.3 20394.6 7067.16 5386.31 49127.2)
(14809.6 176.951 19149.6 6888.69 8845.97 49127)
(14510.5 1520.82 17322.5 7188.35 12036.9 49127.3)
(13769.4 2681.3 14969.2 7929.11 14862 49127)
(12676.1 3518.22 12160.9 9022.14 17235.5 49127.2)
(11362.8 3931.01 8983.34 10335.8 19085.5 49127.1)
(9987.12 3869.53 5532.67 11711 20355.4 49127)
(8715.89 3341.37 1913.94 12982.8 21007 49127.2)
(7701.63 2410.17 -1763 13996.8 21020.1 49127.2)
(7067.16 1188.3 -5386.31 14631.3 20394.6 49127.2)
(6888.69 -176.951 -8845.97 14809.6 19149.6 49127)
(7188.35 -1520.82 -12036.9 14510.5 17322.5 49127.3)
(7929.11 -2681.3 -14862 13769.4 14969.2 49127)
(9022.14 -3518.22 -17235.5 12676.1 12160.9 49127.2)
(10335.8 -3931.01 -19085.5 11362.8 8983.34 49127.1)
(11711 -3869.53 -20355.4 9987.12 5532.67 49127)
(12982.8 -3341.37 -21007 8715.89 1913.94 49127.2)
(13996.8 -2410.17 -21020.1 7701.63 -1763 49127.2)
(14631.3 -1188.3 -20394.6 7067.16 -5386.31 49127.2)
(14809.6 176.951 -19149.6 6888.69 -8845.97 49127)
(14510.5 1520.82 -17322.5 7188.35 -12036.9 49127.3)
(13769.4 2681.3 -14969.2 7929.11 -14862 49127)
(12676.1 3518.22 -12160.9 9022.14 -17235.5 49127.2)
(11362.8 3931.01 -8983.34 10335.8 -19085.5 49127.1)
(9987.12 3869.53 -5532.67 11711 -20355.4 49127)
(8715.89 3341.37 -1913.94 12982.8 -21007 49127.2)
(7701.63 2410.17 1763 13996.8 -21020.1 49127.2)
(-5263.91 4110.22 256.141 50806.9 -10243.6 -12721.5)
(-4978.82 -5726.37 2031.04 50522 -10043.5 -12721.4)
(-1346.92 -14872.2 3744.17 46889.8 -9538.13 -12721.6)
(5194.33 -22224.3 5343.56 40348.9 -8743.06 -12721.4)
(13855.4 -26895.7 6780.71 31687.5 -7682.45 -12721.5)
(23592 -28323.2 8011.61 21950.9 -6388.18 -12721.6)
(33229.8 -26334.5 8999.2 12313.4 -4899.94 -12721.4)
(41605.7 -21169.4 9713.44 3936.95 -3262.83 -12721.6)
(47710.5 -13451 10132.5 -2167.32 -1526.53 -12721.4)
(50806.9 -4110.22 10243.6 -5263.91 256.141 -12721.5)
(50522 5726.37 10043.5 -4978.82 2031.04 -12721.4)
(46889.8 14872.2 9538.13 -1346.92 3744.17 -12721.6)
(40348.9 22224.3 8743.06 5194.33 5343.56 -12721.4)
(31687.5 26895.7 7682.45 13855.4 6780.71 -12721.5)
(21950.9 28323.2 6388.18 23592 8011.61 -12721.6)
(12313.4 26334.5 4899.94 33229.8 8999.2 -12721.4)
(3936.95 21169.4 3262.83 41605.7 9713.44 -12721.6)
(-2167.32 13451 1526.53 47710.5 10132.5 -12721.4)
(-5263.91 4110.22 -256.141 50806.9 10243.6 -12721.5)
(-4978.82 -5726.37 -2031.04 50522 10043.5 -12721.4)
(-1346.92 -14872.2 -3744.17 46889.8 9538.13 -12721.6)
(5194.33 -22224.3 -5343.56 40348.9 8743.06 -12721.4)
(13855.4 -26895.7 -6780.71 31687.5 7682.45 -12721.5)
(23592 -28323.2 -8011.61 21950.9 6388.18 -12721.6)
(33229.8 -26334.5 -8999.2 12313.4 4899.94 -12721.4)
(41605.7 -21169.4 -9713.44 3936.95 3262.83 -12721.6)
(47710.5 -13451 -10132.5 -2167.32 1526.53 -12721.4)
(50806.9 -4110.22 -10243.6 -5263.91 -256.141 -12721.5)
(50522 5726.37 -10043.5 -4978.82 -2031.04 -12721.4)
(46889.8 14872.2 -9538.13 -1346.92 -3744.17 -12721.6)
(40348.9 22224.3 -8743.06 5194.33 -5343.56 -12721.4)
(31687.5 26895.7 -7682.45 13855.4 -6780.71 -12721.5)
(21950.9 28323.2 -6388.18 23592 -8011.61 -12721.6)
(12313.4 26334.5 -4899.94 33229.8 -8999.2 -12721.4)
(3936.95 21169.4 -3262.83 41605.7 -9713.44 -12721.6)
(-2167.32 13451 -1526.53 47710.5 -10132.5 -12721.4)
(-28782.7 10713.9 2657.67 -5494.66 32065.4 -1780.35)
(-31745 6085.26 -2950.78 -2532.84 32039.7 -1780.31)
(-32945.3 722.69 -8469.59 -1332.26 31040.5 -1780.36)
(-32239.3 -4727 -13731 -2038.46 29098.2 -1780.25)
(-29711.8 -9606.59 -18575.3 -4565.82 26271.8 -1780.27)
(-25668 -13327.4 -22855.1 -8609.83 22647.1 -1780.31)
(-20595.3 -15440.9 -26440.5 -13682.3 18334.3 -1780.29)
(-15105.7 -15691.8 -29222.5 -19171.8 13464.4 -1780.09)
(-9861.42 -14050.2 -31116.7 -24416.3 8185.38 -1780.46)
(-5494.66 -10713.9 -32065.4 -28782.7 2657.67 -1780.35)
(-2532.84 -6085.26 -32039.7 -31745 -2950.78 -1780.31)
(-1332.26 -722.69 -31040.5 -32945.3 -8469.59 -1780.36)
(-2038.46 4727 -29098.2 -32239.3 -13731 -1780.25)
(-4565.82 9606.59 -26271.8 -29711.8 -18575.3 -1780.27)
(-8609.83 13327.4 -22647.1 -25668 -22855.1 -1780.31)
(-13682.3 15440.9 -18334.3 -20595.3 -26440.5 -1780.29)
(-19171.8 15691.8 -13464.4 -15105.7 -29222.5 -1780.09)
(-24416.3 14050.2 -8185.38 -9861.42 -31116.7 -1780.46)
(-28782.7 10713.9 -2657.67 -5494.66 -32065.4 -1780.35)
(-31745 6085.26 2950.78 -2532.84 -32039.7 -1780.31)
(-32945.3 722.69 8469.59 -1332.26 -31040.5 -1780.36)
(-32239.3 -4727 13731 -2038.46 -29098.2 -1780.25)
(-29711.8 -9606.59 18575.3 -4565.82 -26271.8 -1780.27)
(-25668 -13327.4 22855.1 -8609.83 -22647.1 -1780.31)
(-20595.3 -15440.9 26440.5 -13682.3 -18334.3 -1780.29)
(-15105.7 -15691.8 29222.5 -19171.8 -13464.4 -1780.09)
(-9861.42 -14050.2 31116.7 -24416.3 -8185.38 -1780.46)
(-5494.66 -10713.9 32065.4 -28782.7 -2657.67 -1780.35)
(-2532.84 -6085.26 32039.7 -31745 2950.78 -1780.31)
(-1332.26 -722.69 31040.5 -32945.3 8469.59 -1780.36)
(-2038.46 4727 29098.2 -32239.3 13731 -1780.25)
(-4565.82 9606.59 26271.8 -29711.8 18575.3 -1780.27)
(-8609.83 13327.4 22647.1 -25668 22855.1 -1780.31)
(-13682.3 15440.9 18334.3 -20595.3 26440.5 -1780.29)
(-19171.8 15691.8 13464.4 -15105.7 29222.5 -1780.09)
(-24416.3 14050.2 8185.38 -9861.42 31116.7 -1780.46)
(6618.46 358.895 7786.78 12645.7 -20336.3 46778.2)
(6677.32 -693.47 11199.9 12586.5 -18675.1 46778.2)
(7092.82 -1662.14 14272.6 12171.2 -16446.5 46778.4)
(7814.46 -2430.45 16911.8 11449.7 -13718.4 46778.1)
(8755.24 -2905.48 19036.9 10508.7 -10573.3 46778.2)
(9802.03 -3030.15 20583.8 9462.23 -7106.92 46778.2)
(10827.9 -2789.25 21505.1 8435.95 -3424.52 46778.3)
(11709.9 -2212.02 21773.1 7554.22 361.783 46778.3)
(12341.1 -1367.96 21379.5 6922.88 4137.14 46778.1)
(12645.7 -358.895 20336.3 6618.46 7786.78 46778.2)
(12586.5 693.47 18675.1 6677.32 11199.9 46778.2)
(12171.2 1662.14 16446.5 7092.82 14272.6 46778.4)
(11449.7 2430.45 13718.4 7814.46 16911.8 46778.1)
(10508.7 2905.48 10573.3 8755.24 19036.9 46778.2)
(9462.23 3030.15 7106.92 9802.03 20583.8 46778.2)
(8435.95 2789.25 3424.52 10827.9 21505.1 46778.3)
(7554.22 2212.02 -361.783 11709.9 21773.1 46778.3)
(6922.88 1367.96 -4137.14 12341.1 21379.5 46778.1)
(6618.46 358.895 -7786.78 12645.7 20336.3 46778.2)