/*--------------------------------*- C++ -*----------------------------------*\
| =========                 |                                                 |
| \\      /  F ield         | OpenFOAM: The Open Source CFD Toolbox           |
|  \\    /   O peration     | Version:  2312                                  |
|   \\  /    A nd           | Website:  www.openfoam.com                      |
|    \\/     M anipulation  |                                                 |
\*---------------------------------------------------------------------------*/
FoamFile
{
    version     2.0;
    format      ascii;
    arch        "LSB;label=32;scalar=64";
    class       volVectorField;
    location    "0.5";
    object      D;
}
// * * * * * * * * * * * * * * * * * * * * * * * * * * * * * * * * * * * * * //

dimensions      [0 1 0 0 0 0 0];

internalField   nonuniform List<vector> 
1620
(
(0.000144085 -0.000262537 4.73083e-05)
(0.000187485 -0.000233528 4.73085e-05)
(0.000225189 -0.000197423 4.73086e-05)
(0.00025605 -0.000155321 4.73085e-05)
(0.000279132 -0.000108498 4.73086e-05)
(0.000293731 -5.83792e-05 4.73085e-05)
(0.000299406 -6.48647e-06 4.73082e-05)
(0.000295984 4.56031e-05 4.7308e-05)
(0.000283568 9.63074e-05 4.73082e-05)
(0.000262537 0.000144085 4.73083e-05)
(0.000233528 0.000187485 4.73085e-05)
(0.000197423 0.000225189 4.73086e-05)
(0.000155321 0.00025605 4.73085e-05)
(0.000108498 0.000279132 4.73086e-05)
(5.83792e-05 0.000293731 4.73085e-05)
(6.48647e-06 0.000299406 4.73082e-05)
(-4.56031e-05 0.000295984 4.7308e-05)
(-9.63074e-05 0.000283568 4.73082e-05)
(-0.000144085 0.000262537 4.73083e-05)
(-0.000187485 0.000233528 4.73085e-05)
(-0.000225189 0.000197423 4.73086e-05)
(-0.00025605 0.000155321 4.73085e-05)
(-0.000279132 0.000108498 4.73086e-05)
(-0.000293731 5.83792e-05 4.73085e-05)
(-0.000299406 6.48647e-06 4.73082e-05)
(-0.000295984 -4.56031e-05 4.7308e-05)
(-0.000283568 -9.63074e-05 4.73082e-05)
(-0.000262537 -0.000144085 4.73083e-05)
(-0.000233528 -0.000187485 4.73085e-05)
(-0.000197423 -0.000225189 4.73086e-05)
(-0.000155321 -0.00025605 4.73085e-05)
(-0.000108498 -0.000279132 4.73086e-05)
(-5.83792e-05 -0.000293731 4.73085e-05)
(-6.48647e-06 -0.000299406 4.73082e-05)
(4.56031e-05 -0.000295984 4.7308e-05)
(9.63074e-05 -0.000283568 4.73082e-05)
(9.26349e-05 -0.000287738 6.12904e-05)
(0.000141193 -0.000267281 6.12905e-05)
(0.000185461 -0.000238702 6.12906e-05)
(0.000224093 -0.000202871 6.12906e-05)
(0.000255917 -0.000160876 6.12907e-05)
(0.000279965 -0.000113992 6.12906e-05)
(0.000295506 -6.36445e-05 6.12905e-05)
(0.000302068 -1.13638e-05 6.12904e-05)
(0.000299453 4.12624e-05 6.12904e-05)
(0.000287738 9.26349e-05 6.12904e-05)
(0.000267281 0.000141193 6.12905e-05)
(0.000238702 0.000185461 6.12906e-05)
(0.000202871 0.000224093 6.12906e-05)
(0.000160876 0.000255917 6.12907e-05)
(0.000113992 0.000279965 6.12906e-05)
(6.36445e-05 0.000295506 6.12905e-05)
(1.13638e-05 0.000302068 6.12904e-05)
(-4.12624e-05 0.000299453 6.12904e-05)
(-9.26349e-05 0.000287738 6.12904e-05)
(-0.000141193 0.000267281 6.12905e-05)
(-0.000185461 0.000238702 6.12906e-05)
(-0.000224093 0.000202871 6.12906e-05)
(-0.000255917 0.000160876 6.12907e-05)
(-0.000279965 0.000113992 6.12906e-05)
(-0.000295506 6.36445e-05 6.12905e-05)
(-0.000302068 1.13638e-05 6.12904e-05)
(-0.000299453 -4.12624e-05 6.12904e-05)
(-0.000287738 -9.26349e-05 6.12904e-05)
(-0.000267281 -0.000141193 6.12905e-05)
(-0.000238702 -0.000185461 6.12906e-05)
(-0.000202871 -0.000224093 6.12906e-05)
(-0.000160876 -0.000255917 6.12907e-05)
(-0.000113992 -0.000279965 6.12906e-05)
(-6.36445e-05 -0.000295506 6.12905e-05)
(-1.13638e-05 -0.000302068 6.12904e-05)
(4.12624e-05 -0.000299453 6.12904e-05)
(1.68509e-05 -0.000311826 6.77167e-05)
(7.07429e-05 -0.000304163 6.77167e-05)
(0.000122486 -0.000287258 6.77169e-05)
(0.000170506 -0.000261624 6.77169e-05)
(0.000213347 -0.000228041 6.7717e-05)
(0.000249704 -0.000187529 6.77168e-05)
(0.000278475 -0.00014132 6.77169e-05)
(0.000298784 -9.08161e-05 6.7717e-05)
(0.000310015 -3.75531e-05 6.77168e-05)
(0.000311826 1.68509e-05 6.77167e-05)
(0.000304163 7.07429e-05 6.77167e-05)
(0.000287258 0.000122486 6.77169e-05)
(0.000261624 0.000170506 6.77169e-05)
(0.000228041 0.000213347 6.7717e-05)
(0.000187529 0.000249704 6.77168e-05)
(0.00014132 0.000278475 6.77169e-05)
(9.08161e-05 0.000298784 6.7717e-05)
(3.75531e-05 0.000310015 6.77168e-05)
(-1.68509e-05 0.000311826 6.77167e-05)
(-7.07429e-05 0.000304163 6.77167e-05)
(-0.000122486 0.000287258 6.77169e-05)
(-0.000170506 0.000261624 6.77169e-05)
(-0.000213347 0.000228041 6.7717e-05)
(-0.000249704 0.000187529 6.77168e-05)
(-0.000278475 0.00014132 6.77169e-05)
(-0.000298784 9.08161e-05 6.7717e-05)
(-0.000310015 3.75531e-05 6.77168e-05)
(-0.000311826 -1.68509e-05 6.77167e-05)
(-0.000304163 -7.07429e-05 6.77167e-05)
(-0.000287258 -0.000122486 6.77169e-05)
(-0.000261624 -0.000170506 6.77169e-05)
(-0.000228041 -0.000213347 6.7717e-05)
(-0.000187529 -0.000249704 6.77168e-05)
(-0.00014132 -0.000278475 6.77169e-05)
(-9.08161e-05 -0.000298784 6.7717e-05)
(-3.75531e-05 -0.000310015 6.77168e-05)
(0.000326162 -0.00079513 0.000178022)
(0.00045928 -0.000726413 0.000178022)
(0.000578443 -0.000635624 0.000178022)
(0.00068003 -0.000525521 0.000178022)
(0.000760955 -0.000399451 0.000178023)
(0.000818758 -0.000261244 0.000178022)
(0.000851684 -0.0001151 0.000178021)
(0.000858732 3.45423e-05 0.000178021)
(0.000839687 0.000183134 0.000178021)
(0.00079513 0.000326162 0.000178022)
(0.000726413 0.00045928 0.000178022)
(0.000635624 0.000578443 0.000178022)
(0.000525521 0.00068003 0.000178022)
(0.000399451 0.000760955 0.000178023)
(0.000261244 0.000818758 0.000178022)
(0.0001151 0.000851684 0.000178021)
(-3.45423e-05 0.000858732 0.000178021)
(-0.000183134 0.000839687 0.000178021)
(-0.000326162 0.00079513 0.000178022)
(-0.00045928 0.000726413 0.000178022)
(-0.000578443 0.000635624 0.000178022)
(-0.00068003 0.000525521 0.000178022)
(-0.000760955 0.000399451 0.000178023)
(-0.000818758 0.000261244 0.000178022)
(-0.000851684 0.0001151 0.000178021)
(-0.000858732 -3.45423e-05 0.000178021)
(-0.000839687 -0.000183134 0.000178021)
(-0.00079513 -0.000326162 0.000178022)
(-0.000726413 -0.00045928 0.000178022)
(-0.000635624 -0.000578443 0.000178022)
(-0.000525521 -0.00068003 0.000178022)
(-0.000399451 -0.000760955 0.000178023)
(-0.000261244 -0.000818758 0.000178022)
(-0.0001151 -0.000851684 0.000178021)
(3.45423e-05 -0.000858732 0.000178021)
(0.000183134 -0.000839687 0.000178021)
(0.000244943 -0.000855651 0.000225323)
(0.000389804 -0.000800118 0.000225324)
(0.000522821 -0.000720273 0.000225324)
(0.000639953 -0.000618544 0.000225324)
(0.00073764 -0.00049802 0.000225324)
(0.000812914 -0.000362364 0.000225324)
(0.000863487 -0.000215698 0.000225324)
(0.000887824 -6.24782e-05 0.000225323)
(0.000885186 9.26396e-05 0.000225323)
(0.000855651 0.000244943 0.000225323)
(0.000800118 0.000389804 0.000225324)
(0.000720273 0.000522821 0.000225324)
(0.000618544 0.000639953 0.000225324)
(0.00049802 0.00073764 0.000225324)
(0.000362364 0.000812914 0.000225324)
(0.000215698 0.000863487 0.000225324)
(6.24782e-05 0.000887824 0.000225323)
(-9.26396e-05 0.000885186 0.000225323)
(-0.000244943 0.000855651 0.000225323)
(-0.000389804 0.000800118 0.000225324)
(-0.000522821 0.000720273 0.000225324)
(-0.000639953 0.000618544 0.000225324)
(-0.00073764 0.00049802 0.000225324)
(-0.000812914 0.000362364 0.000225324)
(-0.000863487 0.000215698 0.000225324)
(-0.000887824 6.24782e-05 0.000225323)
(-0.000885186 -9.26396e-05 0.000225323)
(-0.000855651 -0.000244943 0.000225323)
(-0.000800118 -0.000389804 0.000225324)
(-0.000720273 -0.000522821 0.000225324)
(-0.000618544 -0.000639953 0.000225324)
(-0.00049802 -0.00073764 0.000225324)
(-0.000362364 -0.000812914 0.000225324)
(-0.000215698 -0.000863487 0.000225324)
(-6.24782e-05 -0.000887824 0.000225323)
(9.26396e-05 -0.000885186 0.000225323)
(0.000135334 -0.000912258 0.000261418)
(0.00029169 -0.000874898 0.000261418)
(0.000439183 -0.000810954 0.000261418)
(0.000573331 -0.000722371 0.000261418)
(0.00069006 -0.000611838 0.000261418)
(0.000785821 -0.000482715 0.000261418)
(0.000857706 -0.000338925 0.000261418)
(0.000903529 -0.000184838 0.000261418)
(0.000921899 -2.51339e-05 0.000261418)
(0.000912258 0.000135334 0.000261418)
(0.000874898 0.00029169 0.000261418)
(0.000810954 0.000439183 0.000261418)
(0.000722371 0.000573331 0.000261418)
(0.000611838 0.00069006 0.000261418)
(0.000482715 0.000785821 0.000261418)
(0.000338925 0.000857706 0.000261418)
(0.000184838 0.000903529 0.000261418)
(2.51339e-05 0.000921899 0.000261418)
(-0.000135334 0.000912258 0.000261418)
(-0.00029169 0.000874898 0.000261418)
(-0.000439183 0.000810954 0.000261418)
(-0.000573331 0.000722371 0.000261418)
(-0.00069006 0.000611838 0.000261418)
(-0.000785821 0.000482715 0.000261418)
(-0.000857706 0.000338925 0.000261418)
(-0.000903529 0.000184838 0.000261418)
(-0.000921899 2.51339e-05 0.000261418)
(-0.000912258 -0.000135334 0.000261418)
(-0.000874898 -0.00029169 0.000261418)
(-0.000810954 -0.000439183 0.000261418)
(-0.000722371 -0.000573331 0.000261418)
(-0.000611838 -0.00069006 0.000261418)
(-0.000482715 -0.000785821 0.000261418)
(-0.000338925 -0.000857706 0.000261418)
(-0.000184838 -0.000903529 0.000261418)
(-2.51339e-05 -0.000921899 0.000261418)
(0.000474808 -0.00133335 0.00039143)
(0.000699127 -0.00123064 0.000391431)
(0.000902204 -0.00109054 0.000391431)
(0.00107787 -0.000917306 0.000391432)
(0.00122078 -0.000716201 0.000391432)
(0.0013266 -0.000493334 0.000391431)
(0.00139211 -0.000255477 0.00039143)
(0.00141533 -9.85731e-06 0.00039143)
(0.00139554 0.000236061 0.00039143)
(0.00133335 0.000474808 0.00039143)
(0.00123064 0.000699127 0.000391431)
(0.00109054 0.000902204 0.000391431)
(0.000917306 0.00107787 0.000391432)
(0.000716201 0.00122078 0.000391432)
(0.000493334 0.0013266 0.000391431)
(0.000255477 0.00139211 0.00039143)
(9.85731e-06 0.00141533 0.00039143)
(-0.000236061 0.00139554 0.00039143)
(-0.000474808 0.00133335 0.00039143)
(-0.000699127 0.00123064 0.000391431)
(-0.000902204 0.00109054 0.000391431)
(-0.00107787 0.000917306 0.000391432)
(-0.00122078 0.000716201 0.000391432)
(-0.0013266 0.000493334 0.000391431)
(-0.00139211 0.000255477 0.00039143)
(-0.00141533 9.85731e-06 0.00039143)
(-0.00139554 -0.000236061 0.00039143)
(-0.00133335 -0.000474808 0.00039143)
(-0.00123064 -0.000699127 0.000391431)
(-0.00109054 -0.000902204 0.000391431)
(-0.000917306 -0.00107787 0.000391432)
(-0.000716201 -0.00122078 0.000391432)
(-0.000493334 -0.0013266 0.000391431)
(-0.000255477 -0.00139211 0.00039143)
(-9.85731e-06 -0.00141533 0.00039143)
(0.000236061 -0.00139554 0.00039143)
(0.000361638 -0.00140819 0.000456724)
(0.000600674 -0.001324 0.000456724)
(0.00082146 -0.00119958 0.000456725)
(0.00101729 -0.00103871 0.000456725)
(0.0011822 -0.000846282 0.000456725)
(0.0013112 -0.000628138 0.000456724)
(0.00140035 -0.000390909 0.000456724)
(0.00144696 -0.000141802 0.000456724)
(0.0014496 0.000111613 0.000456724)
(0.00140819 0.000361638 0.000456724)
(0.001324 0.000600674 0.000456724)
(0.00119958 0.00082146 0.000456725)
(0.00103871 0.00101729 0.000456725)
(0.000846282 0.0011822 0.000456725)
(0.000628138 0.0013112 0.000456724)
(0.000390909 0.00140035 0.000456724)
(0.000141802 0.00144696 0.000456724)
(-0.000111613 0.0014496 0.000456724)
(-0.000361638 0.00140819 0.000456724)
(-0.000600674 0.001324 0.000456724)
(-0.00082146 0.00119958 0.000456725)
(-0.00101729 0.00103871 0.000456725)
(-0.0011822 0.000846282 0.000456725)
(-0.0013112 0.000628138 0.000456724)
(-0.00140035 0.000390909 0.000456724)
(-0.00144696 0.000141802 0.000456724)
(-0.0014496 -0.000111613 0.000456724)
(-0.00140819 -0.000361638 0.000456724)
(-0.001324 -0.000600674 0.000456724)
(-0.00119958 -0.00082146 0.000456725)
(-0.00103871 -0.00101729 0.000456725)
(-0.000846282 -0.0011822 0.000456725)
(-0.000628138 -0.0013112 0.000456724)
(-0.000390909 -0.00140035 0.000456724)
(-0.000141802 -0.00144696 0.000456724)
(0.000111613 -0.0014496 0.000456724)
(0.000223048 -0.00147569 0.00051004)
(0.00047591 -0.00141454 0.00051004)
(0.000714312 -0.00131041 0.000510041)
(0.00093101 -0.00116646 0.000510041)
(0.00111942 -0.000987071 0.000510041)
(0.00127382 -0.00077769 0.000510041)
(0.00138951 -0.000544679 0.000510041)
(0.00146298 -0.000295119 0.000510041)
(0.001492 -3.65916e-05 0.00051004)
(0.00147569 0.000223048 0.00051004)
(0.00141454 0.00047591 0.00051004)
(0.00131041 0.000714312 0.000510041)
(0.00116646 0.00093101 0.000510041)
(0.000987071 0.00111942 0.000510041)
(0.00077769 0.00127382 0.000510041)
(0.000544679 0.00138951 0.000510041)
(0.000295119 0.00146298 0.000510041)
(3.65916e-05 0.001492 0.00051004)
(-0.000223048 0.00147569 0.00051004)
(-0.00047591 0.00141454 0.00051004)
(-0.000714312 0.00131041 0.000510041)
(-0.00093101 0.00116646 0.000510041)
(-0.00111942 0.000987071 0.000510041)
(-0.00127382 0.00077769 0.000510041)
(-0.00138951 0.000544679 0.000510041)
(-0.00146298 0.000295119 0.000510041)
(-0.001492 3.65916e-05 0.00051004)
(-0.00147569 -0.000223048 0.00051004)
(-0.00141454 -0.00047591 0.00051004)
(-0.00131041 -0.000714312 0.000510041)
(-0.00116646 -0.00093101 0.000510041)
(-0.000987071 -0.00111942 0.000510041)
(-0.00077769 -0.00127382 0.000510041)
(-0.000544679 -0.00138951 0.000510041)
(-0.000295119 -0.00146298 0.000510041)
(-3.65916e-05 -0.001492 0.00051004)
(0.000564812 -0.00186735 0.00065411)
(0.000880493 -0.0017409 0.000654111)
(0.00116942 -0.00156156 0.000654111)
(0.00142282 -0.00133477 0.000654111)
(0.00163298 -0.00106742 0.000654111)
(0.00179353 -0.00076764 0.00065411)
(0.00189958 -0.000444535 0.00065411)
(0.00194791 -0.000107922 0.000654109)
(0.00193706 0.000231969 0.00065411)
(0.00186735 0.000564812 0.00065411)
(0.0017409 0.000880493 0.000654111)
(0.00156156 0.00116942 0.000654111)
(0.00133477 0.00142282 0.000654111)
(0.00106742 0.00163298 0.000654111)
(0.00076764 0.00179353 0.00065411)
(0.000444535 0.00189958 0.00065411)
(0.000107922 0.00194791 0.000654109)
(-0.000231969 0.00193706 0.00065411)
(-0.000564812 0.00186735 0.00065411)
(-0.000880493 0.0017409 0.000654111)
(-0.00116942 0.00156156 0.000654111)
(-0.00142282 0.00133477 0.000654111)
(-0.00163298 0.00106742 0.000654111)
(-0.00179353 0.00076764 0.00065411)
(-0.00189958 0.000444535 0.00065411)
(-0.00194791 0.000107922 0.000654109)
(-0.00193706 -0.000231969 0.00065411)
(-0.00186735 -0.000564812 0.00065411)
(-0.0017409 -0.000880493 0.000654111)
(-0.00156156 -0.00116942 0.000654111)
(-0.00133477 -0.00142282 0.000654111)
(-0.00106742 -0.00163298 0.000654111)
(-0.00076764 -0.00179353 0.00065411)
(-0.000444535 -0.00189958 0.00065411)
(-0.000107922 -0.00194791 0.000654109)
(0.000231969 -0.00193706 0.00065411)
(0.000430712 -0.00193065 0.000724427)
(0.000759422 -0.00182652 0.000724427)
(0.00106506 -0.0016669 0.000724428)
(0.00133833 -0.00145663 0.000724427)
(0.00157094 -0.00120211 0.000724427)
(0.00175582 -0.000911052 0.000724427)
(0.00188735 -0.000592316 0.000724427)
(0.00196153 -0.000255583 0.000724427)
(0.00197611 8.89151e-05 0.000724427)
(0.00193065 0.000430712 0.000724427)
(0.00182652 0.000759422 0.000724427)
(0.0016669 0.00106506 0.000724428)
(0.00145663 0.00133833 0.000724427)
(0.00120211 0.00157094 0.000724427)
(0.000911052 0.00175582 0.000724427)
(0.000592316 0.00188735 0.000724427)
(0.000255583 0.00196153 0.000724427)
(-8.89151e-05 0.00197611 0.000724427)
(-0.000430712 0.00193065 0.000724427)
(-0.000759422 0.00182652 0.000724427)
(-0.00106506 0.0016669 0.000724428)
(-0.00133833 0.00145663 0.000724427)
(-0.00157094 0.00120211 0.000724427)
(-0.00175582 0.000911052 0.000724427)
(-0.00188735 0.000592316 0.000724427)
(-0.00196153 0.000255583 0.000724427)
(-0.00197611 -8.89151e-05 0.000724427)
(-0.00193065 -0.000430712 0.000724427)
(-0.00182652 -0.000759422 0.000724427)
(-0.0016669 -0.00106506 0.000724428)
(-0.00145663 -0.00133833 0.000724427)
(-0.00120211 -0.00157094 0.000724427)
(-0.000911052 -0.00175582 0.000724427)
(-0.000592316 -0.00188735 0.000724427)
(-0.000255583 -0.00196153 0.000724427)
(8.89151e-05 -0.00197611 0.000724427)
(0.000275002 -0.00198555 0.000782431)
(0.000615611 -0.00190763 0.000782431)
(0.000937515 -0.00177175 0.000782431)
(0.00123093 -0.00158203 0.000782431)
(0.00148695 -0.00134425 0.00078243)
(0.00169779 -0.00106562 0.000782431)
(0.00185704 -0.000754615 0.000782431)
(0.00195986 -0.00042068 0.00078243)
(0.00200314 -7.39629e-05 0.000782431)
(0.00198555 0.000275002 0.000782431)
(0.00190763 0.000615611 0.000782431)
(0.00177175 0.000937515 0.000782431)
(0.00158203 0.00123093 0.000782431)
(0.00134425 0.00148695 0.00078243)
(0.00106562 0.00169779 0.000782431)
(0.000754615 0.00185704 0.000782431)
(0.00042068 0.00195986 0.00078243)
(7.39629e-05 0.00200314 0.000782431)
(-0.000275002 0.00198555 0.000782431)
(-0.000615611 0.00190763 0.000782431)
(-0.000937515 0.00177175 0.000782431)
(-0.00123093 0.00158203 0.000782431)
(-0.00148695 0.00134425 0.00078243)
(-0.00169779 0.00106562 0.000782431)
(-0.00185704 0.000754615 0.000782431)
(-0.00195986 0.00042068 0.00078243)
(-0.00200314 7.39629e-05 0.000782431)
(-0.00198555 -0.000275002 0.000782431)
(-0.00190763 -0.000615611 0.000782431)
(-0.00177175 -0.000937515 0.000782431)
(-0.00158203 -0.00123093 0.000782431)
(-0.00134425 -0.00148695 0.00078243)
(-0.00106562 -0.00169779 0.000782431)
(-0.000754615 -0.00185704 0.000782431)
(-0.00042068 -0.00195986 0.00078243)
(-7.39629e-05 -0.00200314 0.000782431)
(0.000596147 -0.0023763 0.000948026)
(0.00099973 -0.00223667 0.000948026)
(0.00137294 -0.00202909 0.000948026)
(0.00170443 -0.00175986 0.000948026)
(0.00198413 -0.00143715 0.000948026)
(0.00220354 -0.00107078 0.000948026)
(0.00235601 -0.00067187 0.000948025)
(0.00243688 -0.000252546 0.000948025)
(0.00244372 0.000174451 0.000948026)
(0.0023763 0.000596147 0.000948026)
(0.00223667 0.00099973 0.000948026)
(0.00202909 0.00137294 0.000948026)
(0.00175986 0.00170443 0.000948026)
(0.00143715 0.00198413 0.000948026)
(0.00107078 0.00220354 0.000948026)
(0.00067187 0.00235601 0.000948025)
(0.000252546 0.00243688 0.000948025)
(-0.000174451 0.00244372 0.000948026)
(-0.000596147 0.0023763 0.000948026)
(-0.00099973 0.00223667 0.000948026)
(-0.00137294 0.00202909 0.000948026)
(-0.00170443 0.00175986 0.000948026)
(-0.00198413 0.00143715 0.000948026)
(-0.00220354 0.00107078 0.000948026)
(-0.00235601 0.00067187 0.000948025)
(-0.00243688 0.000252546 0.000948025)
(-0.00244372 -0.000174451 0.000948026)
(-0.0023763 -0.000596147 0.000948026)
(-0.00223667 -0.00099973 0.000948026)
(-0.00202909 -0.00137294 0.000948026)
(-0.00175986 -0.00170443 0.000948026)
(-0.00143715 -0.00198413 0.000948026)
(-0.00107078 -0.00220354 0.000948026)
(-0.00067187 -0.00235601 0.000948025)
(-0.000252546 -0.00243688 0.000948025)
(0.000174451 -0.00244372 0.000948026)
(0.000450261 -0.00240707 0.00101363)
(0.000861404 -0.00229231 0.00101363)
(0.00124637 -0.00210791 0.00101363)
(0.00159347 -0.00185945 0.00101363)
(0.00189215 -0.0015545 0.00101363)
(0.00213334 -0.00120231 0.00101363)
(0.00230971 -0.000813598 0.00101363)
(0.0024159 -0.00040016 0.00101363)
(0.00244869 2.54367e-05 0.00101363)
(0.00240707 0.000450261 0.00101363)
(0.00229231 0.000861404 0.00101363)
(0.00210791 0.00124637 0.00101363)
(0.00185945 0.00159347 0.00101363)
(0.0015545 0.00189215 0.00101363)
(0.00120231 0.00213334 0.00101363)
(0.000813598 0.00230971 0.00101363)
(0.00040016 0.0024159 0.00101363)
(-2.54367e-05 0.00244869 0.00101363)
(-0.000450261 0.00240707 0.00101363)
(-0.000861404 0.00229231 0.00101363)
(-0.00124637 0.00210791 0.00101363)
(-0.00159347 0.00185945 0.00101363)
(-0.00189215 0.0015545 0.00101363)
(-0.00213334 0.00120231 0.00101363)
(-0.00230971 0.000813598 0.00101363)
(-0.0024159 0.00040016 0.00101363)
(-0.00244869 -2.54367e-05 0.00101363)
(-0.00240707 -0.000450261 0.00101363)
(-0.00229231 -0.000861404 0.00101363)
(-0.00210791 -0.00124637 0.00101363)
(-0.00185945 -0.00159347 0.00101363)
(-0.0015545 -0.00189215 0.00101363)
(-0.00120231 -0.00213334 0.00101363)
(-0.000813598 -0.00230971 0.00101363)
(-0.00040016 -0.0024159 0.00101363)
(2.54367e-05 -0.00244869 0.00101363)
(0.000286565 -0.00243006 0.0010668)
(0.000704188 -0.00234338 0.0010668)
(0.00110041 -0.0021855 0.0010668)
(0.0014632 -0.00196121 0.0010668)
(0.00178154 -0.00167734 0.0010668)
(0.00204574 -0.00134249 0.0010668)
(0.00224778 -0.00096686 0.0010668)
(0.00238152 -0.000561848 0.0010668)
(0.00244291 -0.000139765 0.0010668)
(0.00243006 0.000286565 0.0010668)
(0.00234338 0.000704188 0.0010668)
(0.0021855 0.00110041 0.0010668)
(0.00196121 0.0014632 0.0010668)
(0.00167734 0.00178154 0.0010668)
(0.00134249 0.00204574 0.0010668)
(0.00096686 0.00224778 0.0010668)
(0.000561848 0.00238152 0.0010668)
(0.000139765 0.00244291 0.0010668)
(-0.000286565 0.00243006 0.0010668)
(-0.000704188 0.00234338 0.0010668)
(-0.00110041 0.0021855 0.0010668)
(-0.0014632 0.00196121 0.0010668)
(-0.00178154 0.00167734 0.0010668)
(-0.00204574 0.00134249 0.0010668)
(-0.00224778 0.00096686 0.0010668)
(-0.00238152 0.000561848 0.0010668)
(-0.00244291 0.000139765 0.0010668)
(-0.00243006 -0.000286565 0.0010668)
(-0.00234338 -0.000704188 0.0010668)
(-0.0021855 -0.00110041 0.0010668)
(-0.00196121 -0.0014632 0.0010668)
(-0.00167734 -0.00178154 0.0010668)
(-0.00134249 -0.00204574 0.0010668)
(-0.00096686 -0.00224778 0.0010668)
(-0.000561848 -0.00238152 0.0010668)
(-0.000139765 -0.00244291 0.0010668)
(0.000577537 -0.00283624 0.00126337)
(0.00106127 -0.00269286 0.00126336)
(0.00151276 -0.00246766 0.00126336)
(0.00191828 -0.00216748 0.00126336)
(0.00226552 -0.00180145 0.00126336)
(0.00254392 -0.00138068 0.00126336)
(0.00274502 -0.000917957 0.00126336)
(0.00286272 -0.000427343 0.00126336)
(0.00289344 7.62557e-05 0.00126336)
(0.00283624 0.000577537 0.00126337)
(0.00269286 0.00106127 0.00126336)
(0.00246766 0.00151276 0.00126336)
(0.00216748 0.00191828 0.00126336)
(0.00180145 0.00226552 0.00126336)
(0.00138068 0.00254392 0.00126336)
(0.000917957 0.00274502 0.00126336)
(0.000427343 0.00286272 0.00126336)
(-7.62557e-05 0.00289344 0.00126336)
(-0.000577537 0.00283624 0.00126337)
(-0.00106127 0.00269286 0.00126336)
(-0.00151276 0.00246766 0.00126336)
(-0.00191828 0.00216748 0.00126336)
(-0.00226552 0.00180145 0.00126336)
(-0.00254392 0.00138068 0.00126336)
(-0.00274502 0.000917957 0.00126336)
(-0.00286272 0.000427343 0.00126336)
(-0.00289344 -7.62557e-05 0.00126336)
(-0.00283624 -0.000577537 0.00126337)
(-0.00269286 -0.00106127 0.00126336)
(-0.00246766 -0.00151276 0.00126336)
(-0.00216748 -0.00191828 0.00126336)
(-0.00180145 -0.00226552 0.00126336)
(-0.00138068 -0.00254392 0.00126336)
(-0.000917957 -0.00274502 0.00126336)
(-0.000427343 -0.00286272 0.00126336)
(7.62557e-05 -0.00289344 0.00126336)
(0.000425541 -0.00282015 0.00131688)
(0.000908791 -0.00270341 0.00131688)
(0.00136443 -0.00250453 0.00131688)
(0.00177861 -0.00222955 0.00131688)
(0.00213874 -0.00188683 0.00131688)
(0.0024339 -0.00148678 0.00131688)
(0.0026551 -0.00104155 0.00131688)
(0.00279562 -0.000564672 0.00131688)
(0.0028512 -7.06387e-05 0.00131688)
(0.00282015 0.000425541 0.00131688)
(0.00270341 0.000908791 0.00131688)
(0.00250453 0.00136443 0.00131688)
(0.00222955 0.00177861 0.00131688)
(0.00188683 0.00213874 0.00131688)
(0.00148678 0.0024339 0.00131688)
(0.00104155 0.0026551 0.00131688)
(0.000564672 0.00279562 0.00131688)
(7.06387e-05 0.0028512 0.00131688)
(-0.000425541 0.00282015 0.00131688)
(-0.000908791 0.00270341 0.00131688)
(-0.00136443 0.00250453 0.00131688)
(-0.00177861 0.00222955 0.00131688)
(-0.00213874 0.00188683 0.00131688)
(-0.0024339 0.00148678 0.00131688)
(-0.0026551 0.00104155 0.00131688)
(-0.00279562 0.000564672 0.00131688)
(-0.0028512 7.06387e-05 0.00131688)
(-0.00282015 -0.000425541 0.00131688)
(-0.00270341 -0.000908791 0.00131688)
(-0.00250453 -0.00136443 0.00131688)
(-0.00222955 -0.00177861 0.00131688)
(-0.00188683 -0.00213874 0.00131688)
(-0.00148678 -0.0024339 0.00131688)
(-0.00104155 -0.0026551 0.00131688)
(-0.000564672 -0.00279562 0.00131688)
(-7.06387e-05 -0.0028512 0.00131688)
(0.000259819 -0.00279813 0.00135775)
(0.000741762 -0.0027105 0.00135775)
(0.00120117 -0.00254052 0.00135775)
(0.00162407 -0.00229334 0.00135775)
(0.00199763 -0.00197648 0.00135775)
(0.0023105 -0.00159957 0.00135775)
(0.00255316 -0.00117405 0.00135775)
(0.00271824 -0.000712866 0.00135775)
(0.00280074 -0.000230018 0.00135775)
(0.00279813 0.000259819 0.00135775)
(0.0027105 0.000741762 0.00135775)
(0.00254052 0.00120117 0.00135775)
(0.00229334 0.00162407 0.00135775)
(0.00197648 0.00199763 0.00135775)
(0.00159957 0.0023105 0.00135775)
(0.00117405 0.00255316 0.00135775)
(0.000712866 0.00271824 0.00135775)
(0.000230018 0.00280074 0.00135775)
(-0.000259819 0.00279813 0.00135775)
(-0.000741762 0.0027105 0.00135775)
(-0.00120117 0.00254052 0.00135775)
(-0.00162407 0.00229334 0.00135775)
(-0.00199763 0.00197648 0.00135775)
(-0.0023105 0.00159957 0.00135775)
(-0.00255316 0.00117405 0.00135775)
(-0.00271824 0.000712866 0.00135775)
(-0.00280074 0.000230018 0.00135775)
(-0.00279813 -0.000259819 0.00135775)
(-0.0027105 -0.000741762 0.00135775)
(-0.00254052 -0.00120117 0.00135775)
(-0.00229334 -0.00162407 0.00135775)
(-0.00197648 -0.00199763 0.00135775)
(-0.00159957 -0.0023105 0.00135775)
(-0.00117405 -0.00255316 0.00135775)
(-0.000712866 -0.00271824 0.00135775)
(-0.000230018 -0.00280074 0.00135775)
(0.00052301 -0.00322424 0.00159909)
(0.00107495 -0.00308443 0.00159909)
(0.00159422 -0.00285091 0.00159909)
(0.00206506 -0.00253076 0.00159909)
(0.00247315 -0.00213372 0.00159909)
(0.00280609 -0.00167185 0.00159909)
(0.00305378 -0.00115918 0.00159909)
(0.00320867 -0.000611284 0.00159909)
(0.00326607 -4.4817e-05 0.00159909)
(0.00322424 0.00052301 0.00159909)
(0.00308443 0.00107495 0.00159909)
(0.00285091 0.00159422 0.00159909)
(0.00253076 0.00206506 0.00159909)
(0.00213372 0.00247315 0.00159909)
(0.00167185 0.00280609 0.00159909)
(0.00115918 0.00305378 0.00159909)
(0.000611284 0.00320867 0.00159909)
(4.4817e-05 0.00326607 0.00159909)
(-0.00052301 0.00322424 0.00159909)
(-0.00107495 0.00308443 0.00159909)
(-0.00159422 0.00285091 0.00159909)
(-0.00206506 0.00253076 0.00159909)
(-0.00247315 0.00213372 0.00159909)
(-0.00280609 0.00167185 0.00159909)
(-0.00305378 0.00115918 0.00159909)
(-0.00320867 0.000611284 0.00159909)
(-0.00326607 4.4817e-05 0.00159909)
(-0.00322424 -0.00052301 0.00159909)
(-0.00308443 -0.00107495 0.00159909)
(-0.00285091 -0.00159422 0.00159909)
(-0.00253076 -0.00206506 0.00159909)
(-0.00213372 -0.00247315 0.00159909)
(-0.00167185 -0.00280609 0.00159909)
(-0.00115918 -0.00305378 0.00159909)
(-0.000611284 -0.00320867 0.00159909)
(-4.4817e-05 -0.00326607 0.00159909)
(0.000367401 -0.0031521 0.00163417)
(0.000909177 -0.00304041 0.00163416)
(0.00142333 -0.00283635 0.00163416)
(0.00189423 -0.0025461 0.00163416)
(0.00230758 -0.00217849 0.00163416)
(0.00265081 -0.00174469 0.00163416)
(0.0029135 -0.00125787 0.00163416)
(0.00308766 -0.000732838 0.00163416)
(0.00316801 -0.000185537 0.00163417)
(0.0031521 0.000367401 0.00163417)
(0.00304041 0.000909177 0.00163416)
(0.00283635 0.00142333 0.00163416)
(0.0025461 0.00189423 0.00163416)
(0.00217849 0.00230758 0.00163416)
(0.00174469 0.00265081 0.00163416)
(0.00125787 0.0029135 0.00163416)
(0.000732838 0.00308766 0.00163416)
(0.000185537 0.00316801 0.00163417)
(-0.000367401 0.0031521 0.00163417)
(-0.000909177 0.00304041 0.00163416)
(-0.00142333 0.00283635 0.00163416)
(-0.00189423 0.0025461 0.00163416)
(-0.00230758 0.00217849 0.00163416)
(-0.00265081 0.00174469 0.00163416)
(-0.0029135 0.00125787 0.00163416)
(-0.00308766 0.000732838 0.00163416)
(-0.00316801 0.000185537 0.00163417)
(-0.0031521 -0.000367401 0.00163417)
(-0.00304041 -0.000909177 0.00163416)
(-0.00283635 -0.00142333 0.00163416)
(-0.0025461 -0.00189423 0.00163416)
(-0.00217849 -0.00230758 0.00163416)
(-0.00174469 -0.00265081 0.00163416)
(-0.00125787 -0.0029135 0.00163416)
(-0.000732838 -0.00308766 0.00163416)
(-0.000185537 -0.00316801 0.00163417)
(0.000202712 -0.00307707 0.00165612)
(0.00073396 -0.00299513 0.00165612)
(0.00124291 -0.00282217 0.00165612)
(0.00171409 -0.00256347 0.00165612)
(0.00213319 -0.00222687 0.00165612)
(0.00248748 -0.00182262 0.00165612)
(0.00276618 -0.00136298 0.00165612)
(0.00296084 -0.000861935 0.00165612)
(0.00306553 -0.000334697 0.00165612)
(0.00307707 0.000202712 0.00165612)
(0.00299513 0.00073396 0.00165612)
(0.00282217 0.00124291 0.00165612)
(0.00256347 0.00171409 0.00165612)
(0.00222687 0.00213319 0.00165612)
(0.00182262 0.00248748 0.00165612)
(0.00136298 0.00276618 0.00165612)
(0.000861935 0.00296084 0.00165612)
(0.000334697 0.00306553 0.00165612)
(-0.000202712 0.00307707 0.00165612)
(-0.00073396 0.00299513 0.00165612)
(-0.00124291 0.00282217 0.00165612)
(-0.00171409 0.00256347 0.00165612)
(-0.00213319 0.00222687 0.00165612)
(-0.00248748 0.00182262 0.00165612)
(-0.00276618 0.00136298 0.00165612)
(-0.00296084 0.000861935 0.00165612)
(-0.00306553 0.000334697 0.00165612)
(-0.00307707 -0.000202712 0.00165612)
(-0.00299513 -0.00073396 0.00165612)
(-0.00282217 -0.00124291 0.00165612)
(-0.00256347 -0.00171409 0.00165612)
(-0.00222687 -0.00213319 0.00165612)
(-0.00182262 -0.00248748 0.00165612)
(-0.00136298 -0.00276618 0.00165612)
(-0.000861935 -0.00296084 0.00165612)
(-0.000334697 -0.00306553 0.00165612)
(0.000449386 -0.00351908 0.00195981)
(0.00105364 -0.00338758 0.00195981)
(0.00162588 -0.00315315 0.00195981)
(0.00214872 -0.00282292 0.00195981)
(0.00260627 -0.00240691 0.00195981)
(0.00298463 -0.00191777 0.00195981)
(0.0032723 -0.00137036 0.00195981)
(0.00346055 -0.000781309 0.00195981)
(0.00354365 -0.000168521 0.00195981)
(0.00351908 0.000449386 0.00195981)
(0.00338758 0.00105364 0.00195981)
(0.00315315 0.00162588 0.00195981)
(0.00282292 0.00214872 0.00195981)
(0.00240691 0.00260627 0.00195981)
(0.00191777 0.00298463 0.00195981)
(0.00137036 0.0032723 0.00195981)
(0.000781309 0.00346055 0.00195981)
(0.000168521 0.00354365 0.00195981)
(-0.000449386 0.00351908 0.00195981)
(-0.00105364 0.00338758 0.00195981)
(-0.00162588 0.00315315 0.00195981)
(-0.00214872 0.00282292 0.00195981)
(-0.00260627 0.00240691 0.00195981)
(-0.00298463 0.00191777 0.00195981)
(-0.0032723 0.00137036 0.00195981)
(-0.00346055 0.000781309 0.00195981)