/*--------------------------------*- C++ -*----------------------------------*\
| =========                 |                                                 |
| \\      /  F ield         | OpenFOAM: The Open Source CFD Toolbox           |
|  \\    /   O peration     | Version:  2312                                  |
|   \\  /    A nd           | Website:  www.openfoam.com                      |
|    \\/     M anipulation  |                                                 |
\*---------------------------------------------------------------------------*/
FoamFile
{
    version     2.0;
    format      ascii;
    arch        "LSB;label=32;scalar=64";
    class       volVectorField;
    location    "0.5";
    object      D_0_0;
}
// * * * * * * * * * * * * * * * * * * * * * * * * * * * * * * * * * * * * * //

dimensions      [0 1 0 0 0 0 0];

internalField   nonuniform List<vector> 
1620
(
(0.000142054 -0.000259968 4.68587e-05)
(0.000185038 -0.000231351 4.68589e-05)
(0.000222401 -0.000195704 4.6859e-05)
(0.000253007 -0.000154112 4.68589e-05)
(0.000275924 -0.000107836 4.6859e-05)
(0.000290457 -5.82843e-05 4.6859e-05)
(0.000296165 -6.96151e-06 4.68586e-05)
(0.000292875 4.45726e-05 4.68585e-05)
(0.000280686 9.47527e-05 4.68586e-05)
(0.000259968 0.000142054 4.68587e-05)
(0.000231351 0.000185038 4.68589e-05)
(0.000195704 0.000222401 4.6859e-05)
(0.000154112 0.000253007 4.68589e-05)
(0.000107836 0.000275924 4.6859e-05)
(5.82843e-05 0.000290457 4.6859e-05)
(6.96151e-06 0.000296165 4.68586e-05)
(-4.45726e-05 0.000292875 4.68585e-05)
(-9.47527e-05 0.000280686 4.68586e-05)
(-0.000142054 0.000259968 4.68587e-05)
(-0.000185038 0.000231351 4.68589e-05)
(-0.000222401 0.000195704 4.6859e-05)
(-0.000253007 0.000154112 4.68589e-05)
(-0.000275924 0.000107836 4.6859e-05)
(-0.000290457 5.82843e-05 4.6859e-05)
(-0.000296165 6.96151e-06 4.68586e-05)
(-0.000292875 -4.45726e-05 4.68585e-05)
(-0.000280686 -9.47527e-05 4.68586e-05)
(-0.000259968 -0.000142054 4.68587e-05)
(-0.000231351 -0.000185038 4.68589e-05)
(-0.000195704 -0.000222401 4.6859e-05)
(-0.000154112 -0.000253007 4.68589e-05)
(-0.000107836 -0.000275924 4.6859e-05)
(-5.82843e-05 -0.000290457 4.6859e-05)
(-6.96151e-06 -0.000296165 4.68586e-05)
(4.45726e-05 -0.000292875 4.68585e-05)
(9.47527e-05 -0.000280686 4.68586e-05)
(9.14923e-05 -0.000283552 5.99027e-05)
(0.000139341 -0.000263357 5.99028e-05)
(0.000182955 -0.000235159 5.99028e-05)
(0.000221011 -0.000199817 5.99029e-05)
(0.000252351 -0.000158403 5.9903e-05)
(0.000276024 -0.000112176 5.99029e-05)
(0.000291309 -6.25411e-05 5.99027e-05)
(0.000297744 -1.10059e-05 5.99027e-05)
(0.000295132 4.0864e-05 5.99027e-05)
(0.000283552 9.14923e-05 5.99027e-05)
(0.000263357 0.000139341 5.99028e-05)
(0.000235159 0.000182955 5.99028e-05)
(0.000199817 0.000221011 5.99029e-05)
(0.000158403 0.000252351 5.9903e-05)
(0.000112176 0.000276024 5.99029e-05)
(6.25411e-05 0.000291309 5.99027e-05)
(1.10059e-05 0.000297744 5.99027e-05)
(-4.0864e-05 0.000295132 5.99027e-05)
(-9.14923e-05 0.000283552 5.99027e-05)
(-0.000139341 0.000263357 5.99028e-05)
(-0.000182955 0.000235159 5.99028e-05)
(-0.000221011 0.000199817 5.99029e-05)
(-0.000252351 0.000158403 5.9903e-05)
(-0.000276024 0.000112176 5.99029e-05)
(-0.000291309 6.25411e-05 5.99027e-05)
(-0.000297744 1.10059e-05 5.99027e-05)
(-0.000295132 -4.0864e-05 5.99027e-05)
(-0.000283552 -9.14923e-05 5.99027e-05)
(-0.000263357 -0.000139341 5.99028e-05)
(-0.000235159 -0.000182955 5.99028e-05)
(-0.000199817 -0.000221011 5.99029e-05)
(-0.000158403 -0.000252351 5.9903e-05)
(-0.000112176 -0.000276024 5.99029e-05)
(-6.25411e-05 -0.000291309 5.99027e-05)
(-1.10059e-05 -0.000297744 5.99027e-05)
(4.0864e-05 -0.000295132 5.99027e-05)
(1.75943e-05 -0.000306111 6.57648e-05)
(7.04825e-05 -0.000298405 6.57648e-05)
(0.000121229 -0.000281633 6.5765e-05)
(0.000168292 -0.000256303 6.5765e-05)
(0.000210243 -0.000223185 6.57651e-05)
(0.000245804 -0.000183286 6.57649e-05)
(0.000273897 -0.000137818 6.5765e-05)
(0.000293668 -8.81627e-05 6.57651e-05)
(0.000304515 -3.58285e-05 6.57649e-05)
(0.000306111 1.75943e-05 6.57648e-05)
(0.000298405 7.04825e-05 6.57648e-05)
(0.000281633 0.000121229 6.5765e-05)
(0.000256303 0.000168292 6.5765e-05)
(0.000223185 0.000210243 6.57651e-05)
(0.000183286 0.000245804 6.57649e-05)
(0.000137818 0.000273897 6.5765e-05)
(8.81627e-05 0.000293668 6.57651e-05)
(3.58285e-05 0.000304515 6.57649e-05)
(-1.75943e-05 0.000306111 6.57648e-05)
(-7.04825e-05 0.000298405 6.57648e-05)
(-0.000121229 0.000281633 6.5765e-05)
(-0.000168292 0.000256303 6.5765e-05)
(-0.000210243 0.000223185 6.57651e-05)
(-0.000245804 0.000183286 6.57649e-05)
(-0.000273897 0.000137818 6.5765e-05)
(-0.000293668 8.81627e-05 6.57651e-05)
(-0.000304515 3.58285e-05 6.57649e-05)
(-0.000306111 -1.75943e-05 6.57648e-05)
(-0.000298405 -7.04825e-05 6.57648e-05)
(-0.000281633 -0.000121229 6.5765e-05)
(-0.000256303 -0.000168292 6.5765e-05)
(-0.000223185 -0.000210243 6.57651e-05)
(-0.000183286 -0.000245804 6.57649e-05)
(-0.000137818 -0.000273897 6.5765e-05)
(-8.81627e-05 -0.000293668 6.57651e-05)
(-3.58285e-05 -0.000304515 6.57649e-05)
(0.00032201 -0.000786954 0.000175867)
(0.000453771 -0.000719083 0.000175868)
(0.000571745 -0.000629361 0.000175868)
(0.000672346 -0.000520517 0.000175868)
(0.000752519 -0.000395857 0.000175868)
(0.000809826 -0.00025917 0.000175868)
(0.000842528 -0.000114608 0.000175867)
(0.000849629 3.34365e-05 0.000175867)
(0.000830915 0.000180465 0.000175867)
(0.000786954 0.00032201 0.000175867)
(0.000719083 0.000453771 0.000175868)
(0.000629361 0.000571745 0.000175868)
(0.000520517 0.000672346 0.000175868)
(0.000395857 0.000752519 0.000175868)
(0.00025917 0.000809826 0.000175868)
(0.000114608 0.000842528 0.000175867)
(-3.34365e-05 0.000849629 0.000175867)
(-0.000180465 0.000830915 0.000175867)
(-0.00032201 0.000786954 0.000175867)
(-0.000453771 0.000719083 0.000175868)
(-0.000571745 0.000629361 0.000175868)
(-0.000672346 0.000520517 0.000175868)
(-0.000752519 0.000395857 0.000175868)
(-0.000809826 0.00025917 0.000175868)
(-0.000842528 0.000114608 0.000175867)
(-0.000849629 -3.34365e-05 0.000175867)
(-0.000830915 -0.000180465 0.000175867)
(-0.000786954 -0.00032201 0.000175867)
(-0.000719083 -0.000453771 0.000175868)
(-0.000629361 -0.000571745 0.000175868)
(-0.000520517 -0.000672346 0.000175868)
(-0.000395857 -0.000752519 0.000175868)
(-0.00025917 -0.000809826 0.000175868)
(-0.000114608 -0.000842528 0.000175867)
(3.34365e-05 -0.000849629 0.000175867)
(0.000180465 -0.000830915 0.000175867)
(0.000242579 -0.000843198 0.000220659)
(0.000385314 -0.000788264 0.000220659)
(0.000516341 -0.000709379 0.000220659)
(0.000631679 -0.000608941 0.00022066)
(0.000727824 -0.00049 0.00022066)
(0.000801855 -0.00035617 0.00022066)
(0.000851521 -0.000211518 0.000220659)
(0.000875313 -6.04402e-05 0.000220659)
(0.000872511 9.24743e-05 0.000220659)
(0.000843198 0.000242579 0.000220659)
(0.000788264 0.000385314 0.000220659)
(0.000709379 0.000516341 0.000220659)
(0.000608941 0.000631679 0.00022066)
(0.00049 0.000727824 0.00022066)
(0.00035617 0.000801855 0.00022066)
(0.000211518 0.000851521 0.000220659)
(6.04402e-05 0.000875313 0.000220659)
(-9.24743e-05 0.000872511 0.000220659)
(-0.000242579 0.000843198 0.000220659)
(-0.000385314 0.000788264 0.000220659)
(-0.000516341 0.000709379 0.000220659)
(-0.000631679 0.000608941 0.00022066)
(-0.000727824 0.00049 0.00022066)
(-0.000801855 0.00035617 0.00022066)
(-0.000851521 0.000211518 0.000220659)
(-0.000875313 6.04402e-05 0.000220659)
(-0.000872511 -9.24743e-05 0.000220659)
(-0.000843198 -0.000242579 0.000220659)
(-0.000788264 -0.000385314 0.000220659)
(-0.000709379 -0.000516341 0.000220659)
(-0.000608941 -0.000631679 0.00022066)
(-0.00049 -0.000727824 0.00022066)
(-0.00035617 -0.000801855 0.00022066)
(-0.000211518 -0.000851521 0.000220659)
(-6.04402e-05 -0.000875313 0.000220659)
(9.24743e-05 -0.000872511 0.000220659)
(0.000135953 -0.000895745 0.00025482)
(0.000289432 -0.000858529 0.00025482)
(0.000434116 -0.000795226 0.00025482)
(0.00056561 -0.000707761 0.00025482)
(0.000679919 -0.000598791 0.00025482)
(0.000773569 -0.000471627 0.00025482)
(0.000843714 -0.000330133 0.00025482)
(0.000888224 -0.000178609 0.00025482)
(0.000905745 -2.16574e-05 0.00025482)
(0.000895745 0.000135953 0.00025482)
(0.000858529 0.000289432 0.00025482)
(0.000795226 0.000434116 0.00025482)
(0.000707761 0.00056561 0.00025482)
(0.000598791 0.000679919 0.00025482)
(0.000471627 0.000773569 0.00025482)
(0.000330133 0.000843714 0.00025482)
(0.000178609 0.000888224 0.00025482)
(2.16574e-05 0.000905745 0.00025482)
(-0.000135953 0.000895745 0.00025482)
(-0.000289432 0.000858529 0.00025482)
(-0.000434116 0.000795226 0.00025482)
(-0.00056561 0.000707761 0.00025482)
(-0.000679919 0.000598791 0.00025482)
(-0.000773569 0.000471627 0.00025482)
(-0.000843714 0.000330133 0.00025482)
(-0.000888224 0.000178609 0.00025482)
(-0.000905745 2.16574e-05 0.00025482)
(-0.000895745 -0.000135953 0.00025482)
(-0.000858529 -0.000289432 0.00025482)
(-0.000795226 -0.000434116 0.00025482)
(-0.000707761 -0.00056561 0.00025482)
(-0.000598791 -0.000679919 0.00025482)
(-0.000471627 -0.000773569 0.00025482)
(-0.000330133 -0.000843714 0.00025482)
(-0.000178609 -0.000888224 0.00025482)
(-2.16574e-05 -0.000905745 0.00025482)
(0.000469701 -0.0013187 0.000386163)
(0.000691555 -0.0012171 0.000386164)
(0.000892396 -0.00107852 0.000386164)
(0.00106612 -0.000907173 0.000386164)
(0.00120745 -0.000708262 0.000386164)
(0.0013121 -0.00048783 0.000386164)
(0.00137688 -0.000252574 0.000386163)
(0.00139982 -9.64532e-06 0.000386163)
(0.00138023 0.000233577 0.000386163)
(0.0013187 0.000469701 0.000386163)
(0.0012171 0.000691555 0.000386164)
(0.00107852 0.000892396 0.000386164)
(0.000907173 0.00106612 0.000386164)
(0.000708262 0.00120745 0.000386164)
(0.00048783 0.0013121 0.000386164)
(0.000252574 0.00137688 0.000386163)
(9.64532e-06 0.00139982 0.000386163)
(-0.000233577 0.00138023 0.000386163)
(-0.000469701 0.0013187 0.000386163)
(-0.000691555 0.0012171 0.000386164)
(-0.000892396 0.00107852 0.000386164)
(-0.00106612 0.000907173 0.000386164)
(-0.00120745 0.000708262 0.000386164)
(-0.0013121 0.00048783 0.000386164)
(-0.00137688 0.000252574 0.000386163)
(-0.00139982 9.64532e-06 0.000386163)
(-0.00138023 -0.000233577 0.000386163)
(-0.0013187 -0.000469701 0.000386163)
(-0.0012171 -0.000691555 0.000386164)
(-0.00107852 -0.000892396 0.000386164)
(-0.000907173 -0.00106612 0.000386164)
(-0.000708262 -0.00120745 0.000386164)
(-0.00048783 -0.0013121 0.000386164)
(-0.000252574 -0.00137688 0.000386163)
(-9.64532e-06 -0.00139982 0.000386163)
(0.000233577 -0.00138023 0.000386163)
(0.000359058 -0.0013876 0.000448164)
(0.000594558 -0.00130417 0.000448164)
(0.000811993 -0.00118112 0.000448164)
(0.00100476 -0.00102217 0.000448164)
(0.00116699 -0.000832167 0.000448164)
(0.00129376 -0.000616879 0.000448164)
(0.00138123 -0.000382848 0.000448164)
(0.00142673 -0.000137184 0.000448164)
(0.00142887 0.000112648 0.000448163)
(0.0013876 0.000359058 0.000448164)
(0.00130417 0.000594558 0.000448164)
(0.00118112 0.000811993 0.000448164)
(0.00102217 0.00100476 0.000448164)
(0.000832167 0.00116699 0.000448164)
(0.000616879 0.00129376 0.000448164)
(0.000382848 0.00138123 0.000448164)
(0.000137184 0.00142673 0.000448164)
(-0.000112648 0.00142887 0.000448163)
(-0.000359058 0.0013876 0.000448164)
(-0.000594558 0.00130417 0.000448164)
(-0.000811993 0.00118112 0.000448164)
(-0.00100476 0.00102217 0.000448164)
(-0.00116699 0.000832167 0.000448164)
(-0.00129376 0.000616879 0.000448164)
(-0.00138123 0.000382848 0.000448164)
(-0.00142673 0.000137184 0.000448164)
(-0.00142887 -0.000112648 0.000448163)
(-0.0013876 -0.000359058 0.000448164)
(-0.00130417 -0.000594558 0.000448164)
(-0.00118112 -0.000811993 0.000448164)
(-0.00102217 -0.00100476 0.000448164)
(-0.000832167 -0.00116699 0.000448164)
(-0.000616879 -0.00129376 0.000448164)
(-0.000382848 -0.00138123 0.000448164)
(-0.000137184 -0.00142673 0.000448164)
(0.000112648 -0.00142887 0.000448163)
(0.000224048 -0.00144952 0.000498796)
(0.000472351 -0.00138859 0.000498796)
(0.000706301 -0.00128547 0.000498796)
(0.000918792 -0.0011433 0.000498796)
(0.00110337 -0.000966382 0.000498796)
(0.00125441 -0.000760103 0.000498796)
(0.00136735 -0.000530729 0.000498796)
(0.00143873 -0.000285229 0.000498796)
(0.0014664 -3.10629e-05 0.000498796)
(0.00144952 0.000224048 0.000498796)
(0.00138859 0.000472351 0.000498796)
(0.00128547 0.000706301 0.000498796)
(0.0011433 0.000918792 0.000498796)
(0.000966382 0.00110337 0.000498796)
(0.000760103 0.00125441 0.000498796)
(0.000530729 0.00136735 0.000498796)
(0.000285229 0.00143873 0.000498796)
(3.10629e-05 0.0014664 0.000498796)
(-0.000224048 0.00144952 0.000498796)
(-0.000472351 0.00138859 0.000498796)
(-0.000706301 0.00128547 0.000498796)
(-0.000918792 0.0011433 0.000498796)
(-0.00110337 0.000966382 0.000498796)
(-0.00125441 0.000760103 0.000498796)
(-0.00136735 0.000530729 0.000498796)
(-0.00143873 0.000285229 0.000498796)
(-0.0014664 3.10629e-05 0.000498796)
(-0.00144952 -0.000224048 0.000498796)
(-0.00138859 -0.000472351 0.000498796)
(-0.00128547 -0.000706301 0.000498796)
(-0.0011433 -0.000918792 0.000498796)
(-0.000966382 -0.00110337 0.000498796)
(-0.000760103 -0.00125441 0.000498796)
(-0.000530729 -0.00136735 0.000498796)
(-0.000285229 -0.00143873 0.000498796)
(-3.10629e-05 -0.0014664 0.000498796)
(0.00056052 -0.00184559 0.000645585)
(0.000872487 -0.00172022 0.000645586)
(0.00115795 -0.00154258 0.000645586)
(0.00140822 -0.00131807 0.000645586)
(0.00161571 -0.00105351 0.000645586)
(0.0017741 -0.000756939 0.000645586)
(0.00187859 -0.000437371 0.000645585)
(0.001926 -0.000104512 0.000645585)
(0.00191488 0.000231521 0.000645585)
(0.00184559 0.00056052 0.000645585)
(0.00172022 0.000872487 0.000645586)
(0.00154258 0.00115795 0.000645586)
(0.00131807 0.00140822 0.000645586)
(0.00105351 0.00161571 0.000645586)
(0.000756939 0.0017741 0.000645586)
(0.000437371 0.00187859 0.000645585)
(0.000104512 0.001926 0.000645585)
(-0.000231521 0.00191488 0.000645585)
(-0.00056052 0.00184559 0.000645585)
(-0.000872487 0.00172022 0.000645586)
(-0.00115795 0.00154258 0.000645586)
(-0.00140822 0.00131807 0.000645586)
(-0.00161571 0.00105351 0.000645586)
(-0.0017741 0.000756939 0.000645586)
(-0.00187859 0.000437371 0.000645585)
(-0.001926 0.000104512 0.000645585)
(-0.00191488 -0.000231521 0.000645585)
(-0.00184559 -0.00056052 0.000645585)
(-0.00172022 -0.000872487 0.000645586)
(-0.00154258 -0.00115795 0.000645586)
(-0.00131807 -0.00140822 0.000645586)
(-0.00105351 -0.00161571 0.000645586)
(-0.000756939 -0.0017741 0.000645586)
(-0.000437371 -0.00187859 0.000645585)
(-0.000104512 -0.001926 0.000645585)
(0.000231521 -0.00191488 0.000645585)
(0.000429143 -0.00190236 0.000712395)
(0.000752965 -0.00179894 0.000712395)
(0.00105391 -0.00164086 0.000712395)
(0.00132283 -0.00143292 0.000712395)
(0.00155156 -0.00118145 0.000712395)
(0.00173314 -0.000894073 0.000712394)
(0.00186207 -0.000579533 0.000712394)
(0.00193441 -0.000247384 0.000712394)
(0.00194798 9.22812e-05 0.000712394)
(0.00190236 0.000429143 0.000712395)
(0.00179894 0.000752965 0.000712395)
(0.00164086 0.00105391 0.000712395)
(0.00143292 0.00132283 0.000712395)
(0.00118145 0.00155156 0.000712395)
(0.000894073 0.00173314 0.000712394)
(0.000579533 0.00186207 0.000712394)
(0.000247384 0.00193441 0.000712394)
(-9.22812e-05 0.00194798 0.000712394)
(-0.000429143 0.00190236 0.000712395)
(-0.000752965 0.00179894 0.000712395)
(-0.00105391 0.00164086 0.000712395)
(-0.00132283 0.00143292 0.000712395)
(-0.00155156 0.00118145 0.000712395)
(-0.00173314 0.000894073 0.000712394)
(-0.00186207 0.000579533 0.000712394)
(-0.00193441 0.000247384 0.000712394)
(-0.00194798 -9.22812e-05 0.000712394)
(-0.00190236 -0.000429143 0.000712395)
(-0.00179894 -0.000752965 0.000712395)
(-0.00164086 -0.00105391 0.000712395)
(-0.00143292 -0.00132283 0.000712395)
(-0.00118145 -0.00155156 0.000712395)
(-0.000894073 -0.00173314 0.000712394)
(-0.000579533 -0.00186207 0.000712394)
(-0.000247384 -0.00193441 0.000712394)
(9.22812e-05 -0.00194798 0.000712394)
(0.000277046 -0.00195114 0.000767494)
(0.000611649 -0.00187339 0.000767494)
(0.000927667 -0.00173872 0.000767494)
(0.0012155 -0.00155121 0.000767494)
(0.0014664 -0.00131658 0.000767494)
(0.00167274 -0.00104194 0.000767494)
(0.00182826 -0.000735642 0.000767494)
(0.00192823 -0.000406992 0.000767494)
(0.00196961 -6.59755e-05 0.000767494)
(0.00195114 0.000277046 0.000767494)
(0.00187339 0.000611649 0.000767494)
(0.00173872 0.000927667 0.000767494)
(0.00155121 0.0012155 0.000767494)
(0.00131658 0.0014664 0.000767494)
(0.00104194 0.00167274 0.000767494)
(0.000735642 0.00182826 0.000767494)
(0.000406992 0.00192823 0.000767494)
(6.59755e-05 0.00196961 0.000767494)
(-0.000277046 0.00195114 0.000767494)
(-0.000611649 0.00187339 0.000767494)
(-0.000927667 0.00173872 0.000767494)
(-0.0012155 0.00155121 0.000767494)
(-0.0014664 0.00131658 0.000767494)
(-0.00167274 0.00104194 0.000767494)
(-0.00182826 0.000735642 0.000767494)
(-0.00192823 0.000406992 0.000767494)
(-0.00196961 6.59755e-05 0.000767494)
(-0.00195114 -0.000277046 0.000767494)
(-0.00187339 -0.000611649 0.000767494)
(-0.00173872 -0.000927667 0.000767494)
(-0.00155121 -0.0012155 0.000767494)
(-0.00131658 -0.0014664 0.000767494)
(-0.00104194 -0.00167274 0.000767494)
(-0.000735642 -0.00182826 0.000767494)
(-0.000406992 -0.00192823 0.000767494)
(-6.59755e-05 -0.00196961 0.000767494)
(0.000594123 -0.00234759 0.000936774)
(0.000992752 -0.00220876 0.000936774)
(0.00136122 -0.00200281 0.000936774)
(0.00168832 -0.00173601 0.000936774)
(0.00196413 -0.00141646 0.000936773)
(0.00218026 -0.00105388 0.000936773)
(0.00233014 -0.00065927 0.000936773)
(0.00240922 -0.00024463 0.000936773)
(0.0024151 0.000177442 0.000936773)
(0.00234759 0.000594123 0.000936774)
(0.00220876 0.000992752 0.000936774)
(0.00200281 0.00136122 0.000936774)
(0.00173601 0.00168832 0.000936774)
(0.00141646 0.00196413 0.000936773)
(0.00105388 0.00218026 0.000936773)
(0.00065927 0.00233014 0.000936773)
(0.00024463 0.00240922 0.000936773)
(-0.000177442 0.0024151 0.000936773)
(-0.000594123 0.00234759 0.000936774)
(-0.000992752 0.00220876 0.000936774)
(-0.00136122 0.00200281 0.000936774)
(-0.00168832 0.00173601 0.000936774)
(-0.00196413 0.00141646 0.000936773)
(-0.00218026 0.00105388 0.000936773)
(-0.00233014 0.00065927 0.000936773)
(-0.00240922 0.00024463 0.000936773)
(-0.0024151 -0.000177442 0.000936773)
(-0.00234759 -0.000594123 0.000936774)
(-0.00220876 -0.000992752 0.000936774)
(-0.00200281 -0.00136122 0.000936774)
(-0.00173601 -0.00168832 0.000936774)
(-0.00141646 -0.00196413 0.000936773)
(-0.00105388 -0.00218026 0.000936773)
(-0.00065927 -0.00233014 0.000936773)
(-0.00024463 -0.00240922 0.000936773)
(0.000177442 -0.0024151 0.000936773)
(0.000450812 -0.00237193 0.000998983)
(0.000855845 -0.00225761 0.000998982)
(0.00123487 -0.00207469 0.000998983)
(0.00157638 -0.00182874 0.000998983)
(0.00186999 -0.00152722 0.000998983)
(0.00210678 -0.0011793 0.000998983)
(0.00227956 -0.000795548 0.000998982)
(0.00238307 -0.000387622 0.000998982)
(0.00241417 3.20824e-05 0.000998982)
(0.00237193 0.000450812 0.000998983)
(0.00225761 0.000855845 0.000998982)
(0.00207469 0.00123487 0.000998983)
(0.00182874 0.00157638 0.000998983)
(0.00152722 0.00186999 0.000998983)
(0.0011793 0.00210678 0.000998983)
(0.000795548 0.00227956 0.000998982)
(0.000387622 0.00238307 0.000998982)
(-3.20824e-05 0.00241417 0.000998982)
(-0.000450812 0.00237193 0.000998983)
(-0.000855845 0.00225761 0.000998982)
(-0.00123487 0.00207469 0.000998983)
(-0.00157638 0.00182874 0.000998983)
(-0.00186999 0.00152722 0.000998983)
(-0.00210678 0.0011793 0.000998983)
(-0.00227956 0.000795548 0.000998982)
(-0.00238307 0.000387622 0.000998982)
(-0.00241417 -3.20824e-05 0.000998982)
(-0.00237193 -0.000450812 0.000998983)
(-0.00225761 -0.000855845 0.000998982)
(-0.00207469 -0.00123487 0.000998983)
(-0.00182874 -0.00157638 0.000998983)
(-0.00152722 -0.00186999 0.000998983)
(-0.0011793 -0.00210678 0.000998983)
(-0.000795548 -0.00227956 0.000998982)
(-0.000387622 -0.00238307 0.000998982)
(3.20824e-05 -0.00241417 0.000998982)
(0.000290424 -0.00238885 0.00104934)
(0.000700832 -0.00230213 0.00104934)
(0.00108995 -0.00214546 0.00104934)
(0.00144594 -0.0019236 0.00104934)
(0.001758 -0.00164329 0.00104934)
(0.00201665 -0.00131305 0.00104934)
(0.00221402 -0.000942913 0.00104934)
(0.00234412 -0.000544127 0.00104934)
(0.00240299 -0.000128809 0.00104934)
(0.00238885 0.000290424 0.00104934)
(0.00230213 0.000700832 0.00104934)
(0.00214546 0.00108995 0.00104934)
(0.0019236 0.00144594 0.00104934)
(0.00164329 0.001758 0.00104934)
(0.00131305 0.00201665 0.00104934)
(0.000942913 0.00221402 0.00104934)
(0.000544127 0.00234412 0.00104934)
(0.000128809 0.00240299 0.00104934)
(-0.000290424 0.00238885 0.00104934)
(-0.000700832 0.00230213 0.00104934)
(-0.00108995 0.00214546 0.00104934)
(-0.00144594 0.0019236 0.00104934)
(-0.001758 0.00164329 0.00104934)
(-0.00201665 0.00131305 0.00104934)
(-0.00221402 0.000942913 0.00104934)
(-0.00234412 0.000544127 0.00104934)
(-0.00240299 0.000128809 0.00104934)
(-0.00238885 -0.000290424 0.00104934)
(-0.00230213 -0.000700832 0.00104934)
(-0.00214546 -0.00108995 0.00104934)
(-0.0019236 -0.00144594 0.00104934)
(-0.00164329 -0.001758 0.00104934)
(-0.00131305 -0.00201665 0.00104934)
(-0.000942913 -0.00221402 0.00104934)
(-0.000544127 -0.00234412 0.00104934)
(-0.000128809 -0.00240299 0.00104934)
(0.000578637 -0.00280161 0.00125013)
(0.00105634 -0.00265857 0.00125013)
(0.00150195 -0.00243475 0.00125013)
(0.00190192 -0.00213695 0.00125013)
(0.0022441 -0.00177422 0.00125013)
(0.0025181 -0.00135758 0.00125013)
(0.00271559 -0.000899693 0.00125013)
(0.00283056 -0.000414468 0.00125013)
(0.00285953 8.33508e-05 0.00125013)
(0.00280161 0.000578637 0.00125013)
(0.00265857 0.00105634 0.00125013)
(0.00243475 0.00150195 0.00125013)
(0.00213695 0.00190192 0.00125013)
(0.00177422 0.0022441 0.00125013)
(0.00135758 0.0025181 0.00125013)
(0.000899693 0.00271559 0.00125013)
(0.000414468 0.00283056 0.00125013)
(-8.33508e-05 0.00285953 0.00125013)
(-0.000578637 0.00280161 0.00125013)
(-0.00105634 0.00265857 0.00125013)
(-0.00150195 0.00243475 0.00125013)
(-0.00190192 0.00213695 0.00125013)
(-0.0022441 0.00177422 0.00125013)
(-0.0025181 0.00135758 0.00125013)
(-0.00271559 0.000899693 0.00125013)
(-0.00283056 0.000414468 0.00125013)
(-0.00285953 -8.33508e-05 0.00125013)
(-0.00280161 -0.000578637 0.00125013)
(-0.00265857 -0.00105634 0.00125013)
(-0.00243475 -0.00150195 0.00125013)
(-0.00213695 -0.00190192 0.00125013)
(-0.00177422 -0.0022441 0.00125013)
(-0.00135758 -0.0025181 0.00125013)
(-0.000899693 -0.00271559 0.00125013)
(-0.000414468 -0.00283056 0.00125013)
(8.33508e-05 -0.00285953 0.00125013)
(0.000429001 -0.00277944 0.00130054)
(0.000905129 -0.00266272 0.00130054)
(0.00135375 -0.00246509 0.00130054)
(0.00176125 -0.00219257 0.00130054)
(0.00211522 -0.00185342 0.00130054)
(0.00240493 -0.00145796 0.00130054)
(0.00262157 -0.00101819 0.00130054)
(0.00275855 -0.000547496 0.00130054)
(0.00281171 -6.01612e-05 0.00130054)
(0.00277944 0.000429001 0.00130054)
(0.00266272 0.000905129 0.00130054)
(0.00246509 0.00135375 0.00130054)
(0.00219257 0.00176125 0.00130054)
(0.00185342 0.00211522 0.00130054)
(0.00145796 0.00240493 0.00130054)
(0.00101819 0.00262157 0.00130054)
(0.000547496 0.00275855 0.00130054)
(6.01612e-05 0.00281171 0.00130054)
(-0.000429001 0.00277944 0.00130054)
(-0.000905129 0.00266272 0.00130054)
(-0.00135375 0.00246509 0.00130054)
(-0.00176125 0.00219257 0.00130054)
(-0.00211522 0.00185342 0.00130054)
(-0.00240493 0.00145796 0.00130054)
(-0.00262157 0.00101819 0.00130054)
(-0.00275855 0.000547496 0.00130054)
(-0.00281171 6.01612e-05 0.00130054)
(-0.00277944 -0.000429001 0.00130054)
(-0.00266272 -0.000905129 0.00130054)
(-0.00246509 -0.00135375 0.00130054)
(-0.00219257 -0.00176125 0.00130054)
(-0.00185342 -0.00211522 0.00130054)
(-0.00145796 -0.00240493 0.00130054)
(-0.00101819 -0.00262157 0.00130054)
(-0.000547496 -0.00275855 0.00130054)
(-6.01612e-05 -0.00281171 0.00130054)
(0.000266195 -0.00275162 0.00133888)
(0.000739965 -0.0026636 0.00133888)
(0.00119125 -0.00249464 0.00133888)
(0.00160634 -0.00224988 0.00133888)
(0.00197263 -0.00193676 0.00133888)
(0.00227897 -0.00156479 0.00133888)
(0.00251607 -0.00114528 0.00133888)
(0.00267672 -0.00069097 0.00133888)
(0.00275604 -0.000215664 0.00133888)
(0.00275162 0.000266195 0.00133888)
(0.0026636 0.000739965 0.00133888)
(0.00249464 0.00119125 0.00133888)
(0.00224988 0.00160634 0.00133888)
(0.00193676 0.00197263 0.00133888)
(0.00156479 0.00227897 0.00133888)
(0.00114528 0.00251607 0.00133888)
(0.00069097 0.00267672 0.00133888)
(0.000215664 0.00275604 0.00133888)
(-0.000266195 0.00275162 0.00133888)
(-0.000739965 0.0026636 0.00133888)
(-0.00119125 0.00249464 0.00133888)
(-0.00160634 0.00224988 0.00133888)
(-0.00197263 0.00193676 0.00133888)
(-0.00227897 0.00156479 0.00133888)
(-0.00251607 0.00114528 0.00133888)
(-0.00267672 0.00069097 0.00133888)
(-0.00275604 0.000215664 0.00133888)
(-0.00275162 -0.000266195 0.00133888)
(-0.0026636 -0.000739965 0.00133888)
(-0.00249464 -0.00119125 0.00133888)
(-0.00224988 -0.00160634 0.00133888)
(-0.00193676 -0.00197263 0.00133888)
(-0.00156479 -0.00227897 0.00133888)
(-0.00114528 -0.00251607 0.00133888)
(-0.00069097 -0.00267672 0.00133888)
(-0.000215664 -0.00275604 0.00133888)
(0.000527392 -0.00318537 0.00158443)
(0.00107251 -0.0030454 0.00158443)
(0.00158505 -0.00281289 0.00158443)
(0.00204942 -0.00249492 0.00158443)
(0.00245152 -0.00210113 0.00158443)
(0.00277914 -0.00164351 0.00158443)
(0.00302231 -0.00113595 0.00158443)
(0.00317365 -0.000593874 0.00158443)
(0.00322856 -3.37536e-05 0.00158443)
(0.00318537 0.000527392 0.00158443)
(0.0030454 0.00107251 0.00158443)
(0.00281289 0.00158505 0.00158443)
(0.00249492 0.00204942 0.00158443)
(0.00210113 0.00245152 0.00158443)
(0.00164351 0.00277914 0.00158443)
(0.00113595 0.00302231 0.00158443)
(0.000593874 0.00317365 0.00158443)
(3.37536e-05 0.00322856 0.00158443)
(-0.000527392 0.00318537 0.00158443)
(-0.00107251 0.0030454 0.00158443)
(-0.00158505 0.00281289 0.00158443)
(-0.00204942 0.00249492 0.00158443)
(-0.00245152 0.00210113 0.00158443)
(-0.00277914 0.00164351 0.00158443)
(-0.00302231 0.00113595 0.00158443)
(-0.00317365 0.000593874 0.00158443)
(-0.00322856 3.37536e-05 0.00158443)
(-0.00318537 -0.000527392 0.00158443)
(-0.0030454 -0.00107251 0.00158443)
(-0.00281289 -0.00158505 0.00158443)
(-0.00249492 -0.00204942 0.00158443)
(-0.00210113 -0.00245152 0.00158443)
(-0.00164351 -0.00277914 0.00158443)
(-0.00113595 -0.00302231 0.00158443)
(-0.000593874 -0.00317365 0.00158443)
(-3.37536e-05 -0.00322856 0.00158443)
(0.000374085 -0.00310756 0.0016168)
(0.000908026 -0.00299539 0.0016168)
(0.00141437 -0.00279221 0.0016168)
(0.00187775 -0.00250418 0.0016168)
(0.00228407 -0.00214007 0.0016168)
(0.00262099 -0.00171094 0.0016168)
(0.00287827 -0.00122981 0.0016168)
(0.0030481 -0.000711323 0.0016168)
(0.00312531 -0.000171219 0.0016168)
(0.00310756 0.000374085 0.0016168)
(0.00299539 0.000908026 0.0016168)
(0.00279221 0.00141437 0.0016168)
(0.00250418 0.00187775 0.0016168)
(0.00214007 0.00228407 0.0016168)
(0.00171094 0.00262099 0.0016168)
(0.00122981 0.00287827 0.0016168)
(0.000711323 0.0030481 0.0016168)
(0.000171219 0.00312531 0.0016168)
(-0.000374085 0.00310756 0.0016168)
(-0.000908026 0.00299539 0.0016168)
(-0.00141437 0.00279221 0.0016168)
(-0.00187775 0.00250418 0.0016168)
(-0.00228407 0.00214007 0.0016168)
(-0.00262099 0.00171094 0.0016168)
(-0.00287827 0.00122981 0.0016168)
(-0.0030481 0.000711323 0.0016168)
(-0.00312531 0.000171219 0.0016168)
(-0.00310756 -0.000374085 0.0016168)
(-0.00299539 -0.000908026 0.0016168)
(-0.00279221 -0.00141437 0.0016168)
(-0.00250418 -0.00187775 0.0016168)
(-0.00214007 -0.00228407 0.0016168)
(-0.00171094 -0.00262099 0.0016168)
(-0.00122981 -0.00287827 0.0016168)
(-0.000711323 -0.0030481 0.0016168)
(-0.000171219 -0.00312531 0.0016168)
(0.000212041 -0.00302703 0.00163664)
(0.000734457 -0.00294422 0.00163664)
(0.00123456 -0.00277195 0.00163664)
(0.00169715 -0.00251546 0.00163664)
(0.00210817 -0.00218254 0.00163664)
(0.00245513 -0.0017833 0.00163664)
(0.0027275 -0.00132988 0.00163664)
(0.002917 -0.000836051 0.00163664)
(0.00301786 -0.000316819 0.00163664)
(0.00302703 0.000212041 0.00163664)
(0.00294422 0.000734457 0.00163664)
(0.00277195 0.00123456 0.00163664)
(0.00251546 0.00169715 0.00163664)
(0.00218254 0.00210817 0.00163664)
(0.0017833 0.00245513 0.00163664)
(0.00132988 0.0027275 0.00163664)
(0.000836051 0.002917 0.00163664)
(0.000316819 0.00301786 0.00163664)
(-0.000212041 0.00302703 0.00163664)
(-0.000734457 0.00294422 0.00163664)
(-0.00123456 0.00277195 0.00163664)
(-0.00169715 0.00251546 0.00163664)
(-0.00210817 0.00218254 0.00163664)
(-0.00245513 0.0017833 0.00163664)
(-0.0027275 0.00132988 0.00163664)
(-0.002917 0.000836051 0.00163664)
(-0.00301786 0.000316819 0.00163664)
(-0.00302703 -0.000212041 0.00163664)
(-0.00294422 -0.000734457 0.00163664)
(-0.00277195 -0.00123456 0.00163664)
(-0.00251546 -0.00169715 0.00163664)
(-0.00218254 -0.00210817 0.00163664)
(-0.0017833 -0.00245513 0.00163664)
(-0.00132988 -0.0027275 0.00163664)
(-0.000836051 -0.002917 0.00163664)
(-0.000316819 -0.00301786 0.00163664)
(0.000456503 -0.00347807 0.00194383)
(0.00105353 -0.00334596 0.00194383)
(0.00161854 -0.00311218 0.00194383)
(0.00213438 -0.00278385 0.00194383)
(0.00258536 -0.00237092 0.00194383)
(0.00295779 -0.00188596 0.00194383)
(0.00324035 -0.00134369 0.00194383)
(0.00342445 -0.000760597 0.00194383)
(0.0035045 -0.000154392 0.00194383)
(0.00347807 0.000456503 0.00194383)
(0.00334596 0.00105353 0.00194383)
(0.00311218 0.00161854 0.00194383)
(0.00278385 0.00213438 0.00194383)
(0.00237092 0.00258536 0.00194383)
(0.00188596 0.00295779 0.00194383)
(0.00134369 0.00324035 0.00194383)
(0.000760597 0.00342445 0.00194383)
(0.000154392 0.0035045 0.00194383)
(-0.000456503 0.00347807 0.00194383)
(-0.00105353 0.00334596 0.00194383)
(-0.00161854 0.00311218 0.00194383)
(-0.00213438 0.00278385 0.00194383)
(-0.00258536 0.00237092 0.00194383)
(-0.00295779 0.00188596 0.00194383)