/*--------------------------------*- C++ -*----------------------------------*\
| =========                 |                                                 |
| \\      /  F ield         | OpenFOAM: The Open Source CFD Toolbox           |
|  \\    /   O peration     | Version:  2312                                  |
|   \\  /    A nd           | Website:  www.openfoam.com                      |
|    \\/     M anipulation  |                                                 |
\*---------------------------------------------------------------------------*/
FoamFile
{
    version     2.0;
    format      ascii;
    arch        "LSB;label=32;scalar=64";
    class       volTensorField;
    location    "0.5";
    object      F;
}
// * * * * * * * * * * * * * * * * * * * * * * * * * * * * * * * * * * * * * //

dimensions      [0 0 0 0 0 0 0];

internalField   nonuniform List<tensor> 
1620
(
(1.04891 0.0327504 -0.0899593 0.0229173 1.01763 0.276594 -0.013764 -0.00120409 0.931515)
(1.03845 0.0364216 -0.136623 0.0265884 1.02809 0.256771 -0.0133457 -0.00357585 0.931515)
(1.02736 0.0362929 -0.179135 0.0264596 1.03918 0.229146 -0.012522 -0.00583912 0.931514)
(1.01699 0.0323796 -0.216204 0.0225465 1.04956 0.194558 -0.0113179 -0.00792494 0.931514)
(1.00858 0.0251538 -0.246704 0.0153208 1.05797 0.154059 -0.00976984 -0.00976984 0.931514)
(1.00314 0.0154871 -0.269708 0.0056542 1.0634 0.108879 -0.00792485 -0.011318 0.931514)
(1.00135 0.00454541 -0.284517 -0.0052874 1.0652 0.06039 -0.00583913 -0.0125223 0.931515)
(1.0034 -0.00635139 -0.290681 -0.0161843 1.06315 0.0100666 -0.00357605 -0.013346 0.931515)
(1.00905 -0.0158891 -0.288013 -0.0257221 1.05749 -0.0405625 -0.00120426 -0.0137641 0.931515)
(1.01763 -0.0229173 -0.276594 -0.0327504 1.04891 -0.0899593 0.00120409 -0.013764 0.931515)
(1.02809 -0.0265884 -0.256771 -0.0364216 1.03845 -0.136623 0.00357585 -0.0133457 0.931515)
(1.03918 -0.0264596 -0.229146 -0.0362929 1.02736 -0.179135 0.00583912 -0.012522 0.931514)
(1.04956 -0.0225465 -0.194558 -0.0323796 1.01699 -0.216204 0.00792494 -0.0113179 0.931514)
(1.05797 -0.0153208 -0.154059 -0.0251538 1.00858 -0.246704 0.00976984 -0.00976984 0.931514)
(1.0634 -0.0056542 -0.108879 -0.0154871 1.00314 -0.269708 0.011318 -0.00792485 0.931514)
(1.0652 0.0052874 -0.06039 -0.00454541 1.00135 -0.284517 0.0125223 -0.00583913 0.931515)
(1.06315 0.0161843 -0.0100666 0.00635139 1.0034 -0.290681 0.013346 -0.00357605 0.931515)
(1.05749 0.0257221 0.0405625 0.0158891 1.00905 -0.288013 0.0137641 -0.00120426 0.931515)
(1.04891 0.0327504 0.0899593 0.0229173 1.01763 -0.276594 0.013764 0.00120409 0.931515)
(1.03845 0.0364216 0.136623 0.0265884 1.02809 -0.256771 0.0133457 0.00357585 0.931515)
(1.02736 0.0362929 0.179135 0.0264596 1.03918 -0.229146 0.012522 0.00583912 0.931514)
(1.01699 0.0323796 0.216204 0.0225465 1.04956 -0.194558 0.0113179 0.00792494 0.931514)
(1.00858 0.0251538 0.246704 0.0153208 1.05797 -0.154059 0.00976984 0.00976984 0.931514)
(1.00314 0.0154871 0.269708 0.0056542 1.0634 -0.108879 0.00792485 0.011318 0.931514)
(1.00135 0.00454541 0.284517 -0.0052874 1.0652 -0.06039 0.00583913 0.0125223 0.931515)
(1.0034 -0.00635139 0.290681 -0.0161843 1.06315 -0.0100666 0.00357605 0.013346 0.931515)
(1.00905 -0.0158891 0.288013 -0.0257221 1.05749 0.0405625 0.00120426 0.0137641 0.931515)
(1.01763 -0.0229173 0.276594 -0.0327504 1.04891 0.0899593 -0.00120409 0.013764 0.931515)
(1.02809 -0.0265884 0.256771 -0.0364216 1.03845 0.136623 -0.00357585 0.0133457 0.931515)
(1.03918 -0.0264596 0.229146 -0.0362929 1.02736 0.179135 -0.00583912 0.012522 0.931514)
(1.04956 -0.0225465 0.194558 -0.0323796 1.01699 0.216204 -0.00792494 0.0113179 0.931514)
(1.05797 -0.0153208 0.154059 -0.0251538 1.00858 0.246704 -0.00976984 0.00976984 0.931514)
(1.0634 -0.0056542 0.108879 -0.0154871 1.00314 0.269708 -0.011318 0.00792485 0.931514)
(1.0652 0.0052874 0.06039 -0.00454541 1.00135 0.284517 -0.0125223 0.00583913 0.931515)
(1.06315 0.0161843 0.0100666 0.00635139 1.0034 0.290681 -0.013346 0.00357605 0.931515)
(1.05749 0.0257221 -0.0405625 0.0158891 1.00905 0.288013 -0.0137641 0.00120426 0.931515)
(1.06014 0.0402183 -0.0739967 0.0231239 1.01328 0.295489 -0.0102306 -0.000895033 0.914396)
(1.04789 0.0463219 -0.124184 0.0292274 1.02552 0.278151 -0.00991961 -0.00265785 0.914396)
(1.0343 0.0478693 -0.170597 0.0307749 1.03912 0.25236 -0.00930741 -0.00434007 0.914396)
(1.02099 0.0446738 -0.211828 0.0275795 1.05242 0.218903 -0.00841246 -0.00589047 0.914396)
(1.00959 0.0371208 -0.246622 0.0200266 1.06383 0.178793 -0.00726176 -0.00726173 0.914396)
(1.00145 0.0261215 -0.273922 0.0090272 1.07197 0.133252 -0.00589041 -0.00841244 0.914396)
(0.997564 0.0130025 -0.292899 -0.00409168 1.07585 0.0836614 -0.0043401 -0.00930761 0.914396)
(0.998401 -0.00065399 -0.302977 -0.0177481 1.07501 0.0315289 -0.002658 -0.00991996 0.914396)
(1.00386 -0.0132005 -0.303849 -0.0302948 1.06956 -0.0215615 -0.000895064 -0.0102307 0.914396)
(1.01328 -0.0231239 -0.295489 -0.0402183 1.06014 -0.0739967 0.000895033 -0.0102306 0.914396)
(1.02552 -0.0292274 -0.278151 -0.0463219 1.04789 -0.124184 0.00265785 -0.00991961 0.914396)
(1.03912 -0.0307749 -0.25236 -0.0478693 1.0343 -0.170597 0.00434007 -0.00930741 0.914396)
(1.05242 -0.0275795 -0.218903 -0.0446738 1.02099 -0.211828 0.00589047 -0.00841246 0.914396)
(1.06383 -0.0200266 -0.178793 -0.0371208 1.00959 -0.246622 0.00726173 -0.00726176 0.914396)
(1.07197 -0.0090272 -0.133252 -0.0261215 1.00145 -0.273922 0.00841244 -0.00589041 0.914396)
(1.07585 0.00409168 -0.0836614 -0.0130025 0.997564 -0.292899 0.00930761 -0.0043401 0.914396)
(1.07501 0.0177481 -0.0315289 0.00065399 0.998401 -0.302977 0.00991996 -0.002658 0.914396)
(1.06956 0.0302948 0.0215615 0.0132005 1.00386 -0.303849 0.0102307 -0.000895064 0.914396)
(1.06014 0.0402183 0.0739967 0.0231239 1.01328 -0.295489 0.0102306 0.000895033 0.914396)
(1.04789 0.0463219 0.124184 0.0292274 1.02552 -0.278151 0.00991961 0.00265785 0.914396)
(1.0343 0.0478693 0.170597 0.0307749 1.03912 -0.25236 0.00930741 0.00434007 0.914396)
(1.02099 0.0446738 0.211828 0.0275795 1.05242 -0.218903 0.00841246 0.00589047 0.914396)
(1.00959 0.0371208 0.246622 0.0200266 1.06383 -0.178793 0.00726176 0.00726173 0.914396)
(1.00145 0.0261215 0.273922 0.0090272 1.07197 -0.133252 0.00589041 0.00841244 0.914396)
(0.997564 0.0130025 0.292899 -0.00409168 1.07585 -0.0836614 0.0043401 0.00930761 0.914396)
(0.998401 -0.00065399 0.302977 -0.0177481 1.07501 -0.0315289 0.002658 0.00991996 0.914396)
(1.00386 -0.0132005 0.303849 -0.0302948 1.06956 0.0215615 0.000895064 0.0102307 0.914396)
(1.01328 -0.0231239 0.295489 -0.0402183 1.06014 0.0739967 -0.000895033 0.0102306 0.914396)
(1.02552 -0.0292274 0.278151 -0.0463219 1.04789 0.124184 -0.00265785 0.00991961 0.914396)
(1.03912 -0.0307749 0.25236 -0.0478693 1.0343 0.170597 -0.00434007 0.00930741 0.914396)
(1.05242 -0.0275795 0.218903 -0.0446738 1.02099 0.211828 -0.00589047 0.00841246 0.914396)
(1.06383 -0.0200266 0.178793 -0.0371208 1.00959 0.246622 -0.00726173 0.00726176 0.914396)
(1.07197 -0.0090272 0.133252 -0.0261215 1.00145 0.273922 -0.00841244 0.00589041 0.914396)
(1.07585 0.00409168 0.0836614 -0.0130025 0.997564 0.292899 -0.00930761 0.0043401 0.914396)
(1.07501 0.0177481 0.0315289 0.00065399 0.998401 0.302977 -0.00991996 0.002658 0.914396)
(1.06956 0.0302948 -0.0215615 0.0132005 1.00386 0.303849 -0.0102307 0.000895064 0.914396)
(1.07156 0.0493133 -0.0557803 0.0230795 1.00435 0.313431 -0.00633053 -0.000553926 0.898976)
(1.05715 0.0586247 -0.10936 0.0323909 1.01875 0.298983 -0.00613796 -0.00164463 0.898976)
(1.04043 0.0624473 -0.159616 0.0362135 1.03547 0.275451 -0.00575919 -0.00268543 0.898976)
(1.02341 0.06032 -0.205023 0.0340859 1.0525 0.243549 -0.00520538 -0.00364486 0.898976)
(1.00814 0.0524989 -0.2442 0.0262651 1.06776 0.204247 -0.00449329 -0.00449335 0.898976)
(0.99647 0.0399278 -0.275957 0.0136942 1.07944 0.158739 -0.00364476 -0.00520528 0.898976)
(0.989802 0.0241233 -0.29933 -0.00211048 1.0861 0.108408 -0.00268559 -0.00575918 0.898976)
(0.988942 0.00699093 -0.313607 -0.0192428 1.08696 0.0547834 -0.00164477 -0.0061383 0.898976)
(0.993993 -0.00940238 -0.318356 -0.0356362 1.08191 -0.000506055 -0.00055379 -0.00633058 0.898976)
(1.00435 -0.0230795 -0.313431 -0.0493133 1.07156 -0.0557803 0.000553926 -0.00633053 0.898976)
(1.01875 -0.0323909 -0.298983 -0.0586247 1.05715 -0.10936 0.00164463 -0.00613796 0.898976)
(1.03547 -0.0362135 -0.275451 -0.0624473 1.04043 -0.159616 0.00268543 -0.00575919 0.898976)
(1.0525 -0.0340859 -0.243549 -0.06032 1.02341 -0.205023 0.00364486 -0.00520538 0.898976)
(1.06776 -0.0262651 -0.204247 -0.0524989 1.00814 -0.2442 0.00449335 -0.00449329 0.898976)
(1.07944 -0.0136942 -0.158739 -0.0399278 0.99647 -0.275957 0.00520528 -0.00364476 0.898976)
(1.0861 0.00211048 -0.108408 -0.0241233 0.989802 -0.29933 0.00575918 -0.00268559 0.898976)
(1.08696 0.0192428 -0.0547834 -0.00699093 0.988942 -0.313607 0.0061383 -0.00164477 0.898976)
(1.08191 0.0356362 0.000506055 0.00940238 0.993993 -0.318356 0.00633058 -0.00055379 0.898976)
(1.07156 0.0493133 0.0557803 0.0230795 1.00435 -0.313431 0.00633053 0.000553926 0.898976)
(1.05715 0.0586247 0.10936 0.0323909 1.01875 -0.298983 0.00613796 0.00164463 0.898976)
(1.04043 0.0624473 0.159616 0.0362135 1.03547 -0.275451 0.00575919 0.00268543 0.898976)
(1.02341 0.06032 0.205023 0.0340859 1.0525 -0.243549 0.00520538 0.00364486 0.898976)
(1.00814 0.0524989 0.2442 0.0262651 1.06776 -0.204247 0.00449329 0.00449335 0.898976)
(0.99647 0.0399278 0.275957 0.0136942 1.07944 -0.158739 0.00364476 0.00520528 0.898976)
(0.989802 0.0241233 0.29933 -0.00211048 1.0861 -0.108408 0.00268559 0.00575918 0.898976)
(0.988942 0.00699093 0.313607 -0.0192428 1.08696 -0.0547834 0.00164477 0.0061383 0.898976)
(0.993993 -0.00940238 0.318356 -0.0356362 1.08191 0.000506055 0.00055379 0.00633058 0.898976)
(1.00435 -0.0230795 0.313431 -0.0493133 1.07156 0.0557803 -0.000553926 0.00633053 0.898976)
(1.01875 -0.0323909 0.298983 -0.0586247 1.05715 0.10936 -0.00164463 0.00613796 0.898976)
(1.03547 -0.0362135 0.275451 -0.0624473 1.04043 0.159616 -0.00268543 0.00575919 0.898976)
(1.0525 -0.0340859 0.243549 -0.06032 1.02341 0.205023 -0.00364486 0.00520538 0.898976)
(1.06776 -0.0262651 0.204247 -0.0524989 1.00814 0.2442 -0.00449335 0.00449329 0.898976)
(1.07944 -0.0136942 0.158739 -0.0399278 0.99647 0.275957 -0.00520528 0.00364476 0.898976)
(1.0861 0.00211048 0.108408 -0.0241233 0.989802 0.29933 -0.00575918 0.00268559 0.898976)
(1.08696 0.0192428 0.0547834 -0.00699093 0.988942 0.313607 -0.0061383 0.00164477 0.898976)
(1.08191 0.0356362 -0.000506055 0.00940238 0.993993 0.318356 -0.00633058 0.00055379 0.898976)
(1.07331 0.0912781 -0.08107 0.0569404 1.03979 0.279534 -0.0476297 -0.00416687 0.908495)
(1.04695 0.0925402 -0.128379 0.0582023 1.06615 0.261209 -0.0461824 -0.0123743 0.908495)
(1.02175 0.0847114 -0.171787 0.0503736 1.09135 0.234948 -0.043332 -0.0202058 0.908495)
(1.00075 0.0687359 -0.209975 0.0343981 1.11235 0.201548 -0.039165 -0.0274234 0.908495)
(0.986477 0.0465404 -0.241784 0.0122029 1.12662 0.162024 -0.0338076 -0.0338077 0.908495)
(0.980657 0.0208024 -0.266246 -0.0135351 1.13244 0.117578 -0.0274232 -0.0391652 0.908495)
(0.983991 -0.00537393 -0.282618 -0.0397112 1.12911 0.0695581 -0.0202059 -0.0433327 0.908495)
(0.996077 -0.028831 -0.290403 -0.0631683 1.11702 0.0194252 -0.0123747 -0.046183 0.908495)
(1.01546 -0.0467399 -0.289365 -0.0810773 1.09764 -0.0312979 -0.00416725 -0.0476299 0.908495)
(1.03979 -0.0569404 -0.279534 -0.0912781 1.07331 -0.08107 0.00416687 -0.0476297 0.908495)
(1.06615 -0.0582023 -0.261209 -0.0925402 1.04695 -0.128379 0.0123743 -0.0461824 0.908495)
(1.09135 -0.0503736 -0.234948 -0.0847114 1.02175 -0.171787 0.0202058 -0.043332 0.908495)
(1.11235 -0.0343981 -0.201548 -0.0687359 1.00075 -0.209975 0.0274234 -0.039165 0.908495)
(1.12662 -0.0122029 -0.162024 -0.0465404 0.986477 -0.241784 0.0338077 -0.0338076 0.908495)
(1.13244 0.0135351 -0.117578 -0.0208024 0.980657 -0.266246 0.0391652 -0.0274232 0.908495)
(1.12911 0.0397112 -0.0695581 0.00537393 0.983991 -0.282618 0.0433327 -0.0202059 0.908495)
(1.11702 0.0631683 -0.0194252 0.028831 0.996077 -0.290403 0.046183 -0.0123747 0.908495)
(1.09764 0.0810773 0.0312979 0.0467399 1.01546 -0.289365 0.0476299 -0.00416725 0.908495)
(1.07331 0.0912781 0.08107 0.0569404 1.03979 -0.279534 0.0476297 0.00416687 0.908495)
(1.04695 0.0925402 0.128379 0.0582023 1.06615 -0.261209 0.0461824 0.0123743 0.908495)
(1.02175 0.0847114 0.171787 0.0503736 1.09135 -0.234948 0.043332 0.0202058 0.908495)
(1.00075 0.0687359 0.209975 0.0343981 1.11235 -0.201548 0.039165 0.0274234 0.908495)
(0.986477 0.0465404 0.241784 0.0122029 1.12662 -0.162024 0.0338076 0.0338077 0.908495)
(0.980657 0.0208024 0.266246 -0.0135351 1.13244 -0.117578 0.0274232 0.0391652 0.908495)
(0.983991 -0.00537393 0.282618 -0.0397112 1.12911 -0.0695581 0.0202059 0.0433327 0.908495)
(0.996077 -0.028831 0.290403 -0.0631683 1.11702 -0.0194252 0.0123747 0.046183 0.908495)
(1.01546 -0.0467399 0.289365 -0.0810773 1.09764 0.0312979 0.00416725 0.0476299 0.908495)
(1.03979 -0.0569404 0.279534 -0.0912781 1.07331 0.08107 -0.00416687 0.0476297 0.908495)
(1.06615 -0.0582023 0.261209 -0.0925402 1.04695 0.128379 -0.0123743 0.0461824 0.908495)
(1.09135 -0.0503736 0.234948 -0.0847114 1.02175 0.171787 -0.0202058 0.043332 0.908495)
(1.11235 -0.0343981 0.201548 -0.0687359 1.00075 0.209975 -0.0274234 0.039165 0.908495)
(1.12662 -0.0122029 0.162024 -0.0465404 0.986477 0.241784 -0.0338077 0.0338076 0.908495)
(1.13244 0.0135351 0.117578 -0.0208024 0.980657 0.266246 -0.0391652 0.0274232 0.908495)
(1.12911 0.0397112 0.0695581 0.00537393 0.983991 0.282618 -0.0433327 0.0202059 0.908495)
(1.11702 0.0631683 0.0194252 0.028831 0.996077 0.290403 -0.046183 0.0123747 0.908495)
(1.09764 0.0810773 -0.0312979 0.0467399 1.01546 0.289365 -0.0476299 0.00416725 0.908495)
(1.0856 0.109636 -0.0649523 0.0567545 1.03421 0.294146 -0.0424847 -0.00371684 0.89474)
(1.05559 0.113407 -0.115043 0.0605254 1.06421 0.278398 -0.0411937 -0.0110376 0.89474)
(1.02611 0.106688 -0.161639 0.0538069 1.09369 0.254192 -0.0386511 -0.0180231 0.89474)
(1.0007 0.0902909 -0.203323 0.0374095 1.1191 0.222262 -0.0349342 -0.024461 0.89474)
(0.982432 0.066192 -0.23883 0.0133107 1.13737 0.183578 -0.0301556 -0.0301557 0.89474)
(0.973508 0.0372985 -0.26708 -0.0155827 1.14629 0.139317 -0.024461 -0.0349343 0.89474)
(0.975005 0.0070953 -0.287214 -0.0457854 1.1448 0.0908226 -0.0180233 -0.0386517 0.89474)
(0.986741 -0.0207744 -0.298622 -0.0736552 1.13306 0.0395686 -0.0110379 -0.0411942 0.89474)
(1.0073 -0.0429491 -0.300956 -0.0958301 1.1125 -0.0128877 -0.00371697 -0.0424848 0.89474)
(1.03421 -0.0567545 -0.294146 -0.109636 1.0856 -0.0649523 0.00371684 -0.0424847 0.89474)
(1.06421 -0.0605254 -0.278398 -0.113407 1.05559 -0.115043 0.0110376 -0.0411937 0.89474)
(1.09369 -0.0538069 -0.254192 -0.106688 1.02611 -0.161639 0.0180231 -0.0386511 0.89474)
(1.1191 -0.0374095 -0.222262 -0.0902909 1.0007 -0.203323 0.024461 -0.0349342 0.89474)
(1.13737 -0.0133107 -0.183578 -0.066192 0.982432 -0.23883 0.0301557 -0.0301556 0.89474)
(1.14629 0.0155827 -0.139317 -0.0372985 0.973508 -0.26708 0.0349343 -0.024461 0.89474)
(1.1448 0.0457854 -0.0908226 -0.0070953 0.975005 -0.287214 0.0386517 -0.0180233 0.89474)
(1.13306 0.0736552 -0.0395686 0.0207744 0.986741 -0.298622 0.0411942 -0.0110379 0.89474)
(1.1125 0.0958301 0.0128877 0.0429491 1.0073 -0.300956 0.0424848 -0.00371697 0.89474)
(1.0856 0.109636 0.0649523 0.0567545 1.03421 -0.294146 0.0424847 0.00371684 0.89474)
(1.05559 0.113407 0.115043 0.0605254 1.06421 -0.278398 0.0411937 0.0110376 0.89474)
(1.02611 0.106688 0.161639 0.0538069 1.09369 -0.254192 0.0386511 0.0180231 0.89474)
(1.0007 0.0902909 0.203323 0.0374095 1.1191 -0.222262 0.0349342 0.024461 0.89474)
(0.982432 0.066192 0.23883 0.0133107 1.13737 -0.183578 0.0301556 0.0301557 0.89474)
(0.973508 0.0372985 0.26708 -0.0155827 1.14629 -0.139317 0.024461 0.0349343 0.89474)
(0.975005 0.0070953 0.287214 -0.0457854 1.1448 -0.0908226 0.0180233 0.0386517 0.89474)
(0.986741 -0.0207744 0.298622 -0.0736552 1.13306 -0.0395686 0.0110379 0.0411942 0.89474)
(1.0073 -0.0429491 0.300956 -0.0958301 1.1125 0.0128877 0.00371697 0.0424848 0.89474)
(1.03421 -0.0567545 0.294146 -0.109636 1.0856 0.0649523 -0.00371684 0.0424847 0.89474)
(1.06421 -0.0605254 0.278398 -0.113407 1.05559 0.115043 -0.0110376 0.0411937 0.89474)
(1.09369 -0.0538069 0.254192 -0.106688 1.02611 0.161639 -0.0180231 0.0386511 0.89474)
(1.1191 -0.0374095 0.222262 -0.0902909 1.0007 0.203323 -0.024461 0.0349342 0.89474)
(1.13737 -0.0133107 0.183578 -0.066192 0.982432 0.23883 -0.0301557 0.0301556 0.89474)
(1.14629 0.0155827 0.139317 -0.0372985 0.973508 0.26708 -0.0349343 0.024461 0.89474)
(1.1448 0.0457854 0.0908226 -0.0070953 0.975005 0.287214 -0.0386517 0.0180233 0.89474)
(1.13306 0.0736552 0.0395686 0.0207744 0.986741 0.298622 -0.0411942 0.0110379 0.89474)
(1.1125 0.0958301 -0.0128877 0.0429491 1.0073 0.300956 -0.0424848 0.00371697 0.89474)
(1.09809 0.132058 -0.0481968 0.0551653 1.02314 0.307602 -0.0369784 -0.00323522 0.881841)
(1.06381 0.139229 -0.100879 0.062336 1.05742 0.294559 -0.0358546 -0.00960714 0.881841)
(1.02915 0.134244 -0.150496 0.057351 1.09208 0.272567 -0.0336416 -0.0156871 0.881841)
(0.998282 0.117704 -0.195541 0.0408114 1.12295 0.242292 -0.0304064 -0.0212906 0.881842)
(0.974934 0.0916048 -0.234644 0.0147121 1.1463 0.204656 -0.0262472 -0.0262472 0.881842)
(0.96192 0.0590936 -0.266617 -0.0177989 1.15931 0.160801 -0.0212908 -0.0304064 0.881842)
(0.96081 0.0240921 -0.29049 -0.0528003 1.16042 0.112061 -0.0156874 -0.033642 0.881841)
(0.971739 -0.00917807 -0.305535 -0.0860703 1.14949 0.0599156 -0.00960723 -0.0358551 0.881841)
(0.993387 -0.0367037 -0.311298 -0.113596 1.12785 0.00594984 -0.00323513 -0.0369784 0.881841)
(1.02314 -0.0551653 -0.307602 -0.132058 1.09809 -0.0481968 0.00323522 -0.0369784 0.881841)
(1.05742 -0.062336 -0.294559 -0.139229 1.06381 -0.100879 0.00960714 -0.0358546 0.881841)
(1.09208 -0.057351 -0.272567 -0.134244 1.02915 -0.150496 0.0156871 -0.0336416 0.881841)
(1.12295 -0.0408114 -0.242292 -0.117704 0.998282 -0.195541 0.0212906 -0.0304064 0.881842)
(1.1463 -0.0147121 -0.204656 -0.0916048 0.974934 -0.234644 0.0262472 -0.0262472 0.881842)
(1.15931 0.0177989 -0.160801 -0.0590936 0.96192 -0.266617 0.0304064 -0.0212908 0.881842)
(1.16042 0.0528003 -0.112061 -0.0240921 0.96081 -0.29049 0.033642 -0.0156874 0.881841)
(1.14949 0.0860703 -0.0599156 0.00917807 0.971739 -0.305535 0.0358551 -0.00960723 0.881841)
(1.12785 0.113596 -0.00594984 0.0367037 0.993387 -0.311298 0.0369784 -0.00323513 0.881841)
(1.09809 0.132058 0.0481968 0.0551653 1.02314 -0.307602 0.0369784 0.00323522 0.881841)
(1.06381 0.139229 0.100879 0.062336 1.05742 -0.294559 0.0358546 0.00960714 0.881841)
(1.02915 0.134244 0.150496 0.057351 1.09208 -0.272567 0.0336416 0.0156871 0.881841)
(0.998282 0.117704 0.195541 0.0408114 1.12295 -0.242292 0.0304064 0.0212906 0.881842)
(0.974934 0.0916048 0.234644 0.0147121 1.1463 -0.204656 0.0262472 0.0262472 0.881842)
(0.96192 0.0590936 0.266617 -0.0177989 1.15931 -0.160801 0.0212908 0.0304064 0.881842)
(0.96081 0.0240921 0.29049 -0.0528003 1.16042 -0.112061 0.0156874 0.033642 0.881841)
(0.971739 -0.00917807 0.305535 -0.0860703 1.14949 -0.0599156 0.00960723 0.0358551 0.881841)
(0.993387 -0.0367037 0.311298 -0.113596 1.12785 -0.00594984 0.00323513 0.0369784 0.881841)
(1.02314 -0.0551653 0.307602 -0.132058 1.09809 0.0481968 -0.00323522 0.0369784 0.881841)
(1.05742 -0.062336 0.294559 -0.139229 1.06381 0.100879 -0.00960714 0.0358546 0.881841)
(1.09208 -0.057351 0.272567 -0.134244 1.02915 0.150496 -0.0156871 0.0336416 0.881841)
(1.12295 -0.0408114 0.242292 -0.117704 0.998282 0.195541 -0.0212906 0.0304064 0.881842)
(1.1463 -0.0147121 0.204656 -0.0916048 0.974934 0.234644 -0.0262472 0.0262472 0.881842)
(1.15931 0.0177989 0.160801 -0.0590936 0.96192 0.266617 -0.0304064 0.0212908 0.881842)
(1.16042 0.0528003 0.112061 -0.0240921 0.96081 0.29049 -0.033642 0.0156874 0.881841)
(1.14949 0.0860703 0.0599156 0.00917807 0.971739 0.305535 -0.0358551 0.00960723 0.881841)
(1.12785 0.113596 0.00594984 0.0367037 0.993387 0.311298 -0.0369784 0.00323513 0.881841)
(1.09895 0.150156 -0.0612898 0.0748676 1.05694 0.277759 -0.0678029 -0.00593162 0.876475)
(1.0592 0.150556 -0.108591 0.075267 1.09669 0.262896 -0.0657423 -0.0176152 0.876475)
(1.02172 0.137336 -0.152593 0.0620477 1.13417 0.240045 -0.0616845 -0.0287637 0.876475)
(0.99101 0.112093 -0.191958 0.0368041 1.16488 0.209901 -0.0557524 -0.0390383 0.876475)
(0.97079 0.0778692 -0.22549 0.0025809 1.1851 0.173379 -0.0481263 -0.0481266 0.876475)
(0.963494 0.0387942 -0.252172 -0.036494 1.1924 0.131589 -0.0390381 -0.0557529 0.876475)
(0.970003 -0.000419443 -0.271191 -0.0757077 1.18589 0.0858008 -0.0287639 -0.0616853 0.876475)
(0.989532 -0.0350419 -0.28197 -0.11033 1.16636 0.0374055 -0.0176157 -0.0657429 0.876475)
(1.01972 -0.0608974 -0.284182 -0.136186 1.13617 -0.0121264 -0.00593206 -0.067803 0.876475)
(1.05694 -0.0748676 -0.277759 -0.150156 1.09895 -0.0612898 0.00593162 -0.0678029 0.876475)
(1.09669 -0.075267 -0.262896 -0.150556 1.0592 -0.108591 0.0176152 -0.0657423 0.876475)
(1.13417 -0.0620477 -0.240045 -0.137336 1.02172 -0.152593 0.0287637 -0.0616845 0.876475)
(1.16488 -0.0368041 -0.209901 -0.112093 0.99101 -0.191958 0.0390383 -0.0557524 0.876475)
(1.1851 -0.0025809 -0.173379 -0.0778692 0.97079 -0.22549 0.0481266 -0.0481263 0.876475)
(1.1924 0.036494 -0.131589 -0.0387942 0.963494 -0.252172 0.0557529 -0.0390381 0.876475)
(1.18589 0.0757077 -0.0858008 0.000419443 0.970003 -0.271191 0.0616853 -0.0287639 0.876475)
(1.16636 0.11033 -0.0374055 0.0350419 0.989532 -0.28197 0.0657429 -0.0176157 0.876475)
(1.13617 0.136186 0.0121264 0.0608974 1.01972 -0.284182 0.067803 -0.00593206 0.876475)
(1.09895 0.150156 0.0612898 0.0748676 1.05694 -0.277759 0.0678029 0.00593162 0.876475)
(1.0592 0.150556 0.108591 0.075267 1.09669 -0.262896 0.0657423 0.0176152 0.876475)
(1.02172 0.137336 0.152593 0.0620477 1.13417 -0.240045 0.0616845 0.0287637 0.876475)
(0.99101 0.112093 0.191958 0.0368041 1.16488 -0.209901 0.0557524 0.0390383 0.876475)
(0.97079 0.0778692 0.22549 0.0025809 1.1851 -0.173379 0.0481263 0.0481266 0.876475)
(0.963494 0.0387942 0.252172 -0.036494 1.1924 -0.131589 0.0390381 0.0557529 0.876475)
(0.970003 -0.000419443 0.271191 -0.0757077 1.18589 -0.0858008 0.0287639 0.0616853 0.876475)
(0.989532 -0.0350419 0.28197 -0.11033 1.16636 -0.0374055 0.0176157 0.0657429 0.876475)
(1.01972 -0.0608974 0.284182 -0.136186 1.13617 0.0121264 0.00593206 0.067803 0.876475)
(1.05694 -0.0748676 0.277759 -0.150156 1.09895 0.0612898 -0.00593162 0.0678029 0.876475)
(1.09669 -0.075267 0.262896 -0.150556 1.0592 0.108591 -0.0176152 0.0657423 0.876475)
(1.13417 -0.0620477 0.240045 -0.137336 1.02172 0.152593 -0.0287637 0.0616845 0.876475)
(1.16488 -0.0368041 0.209901 -0.112093 0.99101 0.191958 -0.0390383 0.0557524 0.876475)
(1.1851 -0.0025809 0.173379 -0.0778692 0.97079 0.22549 -0.0481266 0.0481263 0.876475)
(1.1924 0.036494 0.131589 -0.0387942 0.963494 0.252172 -0.0557529 0.0390381 0.876475)
(1.18589 0.0757077 0.0858008 0.000419443 0.970003 0.271191 -0.0616853 0.0287639 0.876475)
(1.16636 0.11033 0.0374055 0.0350419 0.989532 0.28197 -0.0657429 0.0176157 0.876475)
(1.13617 0.136186 -0.0121264 0.0608974 1.01972 0.284182 -0.067803 0.00593206 0.876475)
(1.10945 0.176642 -0.0482692 0.0739858 1.04938 0.282654 -0.0629616 -0.00550826 0.868454)
(1.06478 0.179357 -0.0966183 0.0767012 1.09405 0.269978 -0.0610482 -0.0163576 0.868454)
(1.02187 0.16663 -0.142032 0.0639744 1.13695 0.249099 -0.05728 -0.02671 0.868454)
(0.985905 0.139996 -0.183129 0.0373406 1.17292 0.220651 -0.0517716 -0.0362508 0.868454)
(0.961218 0.102668 -0.218663 1.19148e-05 1.19761 0.185499 -0.0446901 -0.0446902 0.868454)
(0.950787 0.0591464 -0.247553 -0.0435092 1.20804 0.14471 -0.0362508 -0.051772 0.868454)
(0.95587 0.0146823 -0.26892 -0.0879731 1.20296 0.0995248 -0.0267103 -0.0572807 0.868454)
(0.975854 -0.0253616 -0.282117 -0.128017 1.18297 0.0513153 -0.0163579 -0.0610487 0.868454)
(1.00833 -0.0561557 -0.286742 -0.158811 1.1505 0.00154655 -0.00550847 -0.0629617 0.868454)
(1.04938 -0.0739858 -0.282654 -0.176642 1.10945 -0.0482692 0.00550826 -0.0629616 0.868454)
(1.09405 -0.0767012 -0.269978 -0.179357 1.06478 -0.0966183 0.0163576 -0.0610482 0.868454)
(1.13695 -0.0639744 -0.249099 -0.16663 1.02187 -0.142032 0.02671 -0.05728 0.868454)
(1.17292 -0.0373406 -0.220651 -0.139996 0.985905 -0.183129 0.0362508 -0.0517716 0.868454)
(1.19761 -1.19148e-05 -0.185499 -0.102668 0.961218 -0.218663 0.0446902 -0.0446901 0.868454)
(1.20804 0.0435092 -0.14471 -0.0591464 0.950787 -0.247553 0.051772 -0.0362508 0.868454)
(1.20296 0.0879731 -0.0995248 -0.0146823 0.95587 -0.26892 0.0572807 -0.0267103 0.868454)
(1.18297 0.128017 -0.0513153 0.0253616 0.975854 -0.282117 0.0610487 -0.0163579 0.868454)
(1.1505 0.158811 -0.00154655 0.0561557 1.00833 -0.286742 0.0629617 -0.00550847 0.868454)
(1.10945 0.176642 0.0482692 0.0739858 1.04938 -0.282654 0.0629616 0.00550826 0.868454)
(1.06478 0.179357 0.0966183 0.0767012 1.09405 -0.269978 0.0610482 0.0163576 0.868454)
(1.02187 0.16663 0.142032 0.0639744 1.13695 -0.249099 0.05728 0.02671 0.868454)
(0.985905 0.139996 0.183129 0.0373406 1.17292 -0.220651 0.0517716 0.0362508 0.868454)
(0.961218 0.102668 0.218663 1.19148e-05 1.19761 -0.185499 0.0446901 0.0446902 0.868454)
(0.950787 0.0591464 0.247553 -0.0435092 1.20804 -0.14471 0.0362508 0.051772 0.868454)
(0.95587 0.0146823 0.26892 -0.0879731 1.20296 -0.0995248 0.0267103 0.0572807 0.868454)
(0.975854 -0.0253616 0.282117 -0.128017 1.18297 -0.0513153 0.0163579 0.0610487 0.868454)
(1.00833 -0.0561557 0.286742 -0.158811 1.1505 -0.00154655 0.00550847 0.0629617 0.868454)
(1.04938 -0.0739858 0.282654 -0.176642 1.10945 0.0482692 -0.00550826 0.0629616 0.868454)
(1.09405 -0.0767012 0.269978 -0.179357 1.06478 0.0966183 -0.0163576 0.0610482 0.868454)
(1.13695 -0.0639744 0.249099 -0.16663 1.02187 0.142032 -0.02671 0.05728 0.868454)
(1.17292 -0.0373406 0.220651 -0.139996 0.985905 0.183129 -0.0362508 0.0517716 0.868454)
(1.19761 -1.19148e-05 0.185499 -0.102668 0.961218 0.218663 -0.0446902 0.0446901 0.868454)
(1.20804 0.0435092 0.14471 -0.0591464 0.950787 0.247553 -0.051772 0.0362508 0.868454)
(1.20296 0.0879731 0.0995248 -0.0146823 0.95587 0.26892 -0.0572807 0.0267103 0.868454)
(1.18297 0.128017 0.0513153 0.0253616 0.975854 0.282117 -0.0610487 0.0163579 0.868454)
(1.1505 0.158811 0.00154655 0.0561557 1.00833 0.286742 -0.0629617 0.00550847 0.868454)
(1.11987 0.208801 -0.0364444 0.0706074 1.03615 0.286747 -0.0573092 -0.00501389 0.860388)
(1.06956 0.214692 -0.0856839 0.0764983 1.08646 0.276063 -0.0555677 -0.0148893 0.860388)
(1.02027 0.203022 -0.13232 0.0648286 1.13575 0.25699 -0.0521378 -0.0243122 0.860388)
(0.977951 0.175199 -0.174936 0.0370054 1.17807 0.230108 -0.0471239 -0.0329964 0.860388)
(0.947697 0.134578 -0.212236 -0.00361544 1.20832 0.196235 -0.0406782 -0.0406782 0.860388)
(0.93316 0.0860591 -0.243087 -0.0521342 1.22286 0.1564 -0.0329966 -0.0471241 0.860388)
(0.936094 0.0354945 -0.266553 -0.102699 1.21993 0.111812 -0.0243125 -0.0521383 0.860388)
(0.956145 -0.0110173 -0.281919 -0.149211 1.19988 0.0638269 -0.0148894 -0.0555681 0.860388)
(0.990895 -0.047866 -0.28872 -0.186059 1.16513 0.0139025 -0.00501387 -0.0573094 0.860388)
(1.03615 -0.0706074 -0.286747 -0.208801 1.11987 -0.0364444 0.00501389 -0.0573092 0.860388)
(1.08646 -0.0764983 -0.276063 -0.214692 1.06956 -0.0856839 0.0148893 -0.0555677 0.860388)
(1.13575 -0.0648286 -0.25699 -0.203022 1.02027 -0.13232 0.0243122 -0.0521378 0.860388)
(1.17807 -0.0370054 -0.230108 -0.175199 0.977951 -0.174936 0.0329964 -0.0471239 0.860388)
(1.20832 0.00361544 -0.196235 -0.134578 0.947697 -0.212236 0.0406782 -0.0406782 0.860388)
(1.22286 0.0521342 -0.1564 -0.0860591 0.93316 -0.243087 0.0471241 -0.0329966 0.860388)
(1.21993 0.102699 -0.111812 -0.0354945 0.936094 -0.266553 0.0521383 -0.0243125 0.860388)
(1.19988 0.149211 -0.0638269 0.0110173 0.956145 -0.281919 0.0555681 -0.0148894 0.860388)
(1.16513 0.186059 -0.0139025 0.047866 0.990895 -0.28872 0.0573094 -0.00501387 0.860388)
(1.11987 0.208801 0.0364444 0.0706074 1.03615 -0.286747 0.0573092 0.00501389 0.860388)
(1.06956 0.214692 0.0856839 0.0764983 1.08646 -0.276063 0.0555677 0.0148893 0.860388)
(1.02027 0.203022 0.13232 0.0648286 1.13575 -0.25699 0.0521378 0.0243122 0.860388)
(0.977951 0.175199 0.174936 0.0370054 1.17807 -0.230108 0.0471239 0.0329964 0.860388)
(0.947697 0.134578 0.212236 -0.00361544 1.20832 -0.196235 0.0406782 0.0406782 0.860388)
(0.93316 0.0860591 0.243087 -0.0521342 1.22286 -0.1564 0.0329966 0.0471241 0.860388)
(0.936094 0.0354945 0.266553 -0.102699 1.21993 -0.111812 0.0243125 0.0521383 0.860388)
(0.956145 -0.0110173 0.281919 -0.149211 1.19988 -0.0638269 0.0148894 0.0555681 0.860388)
(0.990895 -0.047866 0.28872 -0.186059 1.16513 -0.0139025 0.00501387 0.0573094 0.860388)
(1.03615 -0.0706074 0.286747 -0.208801 1.11987 0.0364444 -0.00501389 0.0573092 0.860388)
(1.08646 -0.0764983 0.276063 -0.214692 1.06956 0.0856839 -0.0148893 0.0555677 0.860388)
(1.13575 -0.0648286 0.25699 -0.203022 1.02027 0.13232 -0.0243122 0.0521378 0.860388)
(1.17807 -0.0370054 0.230108 -0.175199 0.977951 0.174936 -0.0329964 0.0471239 0.860388)
(1.20832 0.00361544 0.196235 -0.134578 0.947697 0.212236 -0.0406782 0.0406782 0.860388)
(1.22286 0.0521342 0.1564 -0.0860591 0.93316 0.243087 -0.0471241 0.0329966 0.860388)
(1.21993 0.102699 0.111812 -0.0354945 0.936094 0.266553 -0.0521383 0.0243125 0.860388)
(1.19988 0.149211 0.0638269 0.0110173 0.956145 0.281919 -0.0555681 0.0148894 0.860388)
(1.16513 0.186059 0.0139025 0.047866 0.990895 0.28872 -0.0573094 0.00501387 0.860388)
(1.11427 0.208987 -0.0374534 0.0716482 1.06646 0.267734 -0.0784332 -0.00686175 0.858738)
(1.06484 0.208701 -0.0833758 0.0713626 1.11589 0.257162 -0.0760497 -0.0203772 0.858739)
(1.01848 0.191525 -0.126765 0.054187 1.16224 0.238777 -0.0713558 -0.0332738 0.858739)
(0.980797 0.159532 -0.166302 0.0221933 1.19993 0.213137 -0.0644937 -0.0451592 0.858739)
(0.956328 0.116578 -0.200787 -0.0207599 1.2244 0.181021 -0.0556723 -0.0556726 0.858739)