/*--------------------------------*- C++ -*----------------------------------*\
| =========                 |                                                 |
| \\      /  F ield         | OpenFOAM: The Open Source CFD Toolbox           |
|  \\    /   O peration     | Version:  2312                                  |
|   \\  /    A nd           | Website:  www.openfoam.com                      |
|    \\/     M anipulation  |                                                 |
\*---------------------------------------------------------------------------*/
FoamFile
{
    version     2.0;
    format      ascii;
    arch        "LSB;label=32;scalar=64";
    class       volVectorField;
    location    "0";
    object      dx_du;
}
// * * * * * * * * * * * * * * * * * * * * * * * * * * * * * * * * * * * * * //

dimensions      [0 0 0 0 0 0 0];

internalField   nonuniform List<vector> 
1620
(
(0.00375423 0.0187321 -0.999817)
(0.0297284 0.0499502 -0.998309)
(0.0694768 0.0714914 -0.995019)
(0.11619 0.0880925 -0.989313)
(0.169454 0.104215 -0.980013)
(0.23119 0.122735 -0.965136)
(0.302503 0.145149 -0.942032)
(0.377543 0.169975 -0.910258)
(0.432503 0.188802 -0.881643)
(0.432503 0.188802 -0.881643)
(0.377543 0.169975 -0.910258)
(0.302503 0.145149 -0.942032)
(0.23119 0.122735 -0.965136)
(0.169454 0.104215 -0.980013)
(0.11619 0.0880925 -0.989313)
(0.0694768 0.0714914 -0.995019)
(0.0297284 0.0499502 -0.998309)
(0.00375423 0.0187321 -0.999817)
(0.00375423 -0.0187321 -0.999817)
(0.0297284 -0.0499502 -0.998309)
(0.0694768 -0.0714914 -0.995019)
(0.11619 -0.0880925 -0.989313)
(0.169454 -0.104215 -0.980013)
(0.23119 -0.122735 -0.965136)
(0.302503 -0.145149 -0.942032)
(0.377543 -0.169975 -0.910258)
(0.432503 -0.188802 -0.881643)
(0.432503 -0.188802 -0.881643)
(0.377543 -0.169975 -0.910258)
(0.302503 -0.145149 -0.942032)
(0.23119 -0.122735 -0.965136)
(0.169454 -0.104215 -0.980013)
(0.11619 -0.0880925 -0.989313)
(0.0694768 -0.0714914 -0.995019)
(0.0297284 -0.0499502 -0.998309)
(0.00375423 -0.0187321 -0.999817)
(0.00297215 0.0166063 -0.999858)
(0.0240732 0.0452935 -0.998684)
(0.0575718 0.0663376 -0.996135)
(0.0976813 0.0829314 -0.991756)
(0.143383 0.0987441 -0.984729)
(0.195617 0.116289 -0.973761)
(0.254463 0.136725 -0.957369)
(0.314259 0.158432 -0.936024)
(0.356476 0.174255 -0.917911)
(0.356476 0.174255 -0.917911)
(0.314259 0.158432 -0.936024)
(0.254463 0.136725 -0.957369)
(0.195617 0.116289 -0.973761)
(0.143383 0.0987441 -0.984729)
(0.0976813 0.0829314 -0.991756)
(0.0575718 0.0663376 -0.996135)
(0.0240732 0.0452935 -0.998684)
(0.00297215 0.0166063 -0.999858)
(0.00297215 -0.0166063 -0.999858)
(0.0240732 -0.0452935 -0.998684)
(0.0575718 -0.0663376 -0.996135)
(0.0976813 -0.0829314 -0.991756)
(0.143383 -0.0987441 -0.984729)
(0.195617 -0.116289 -0.973761)
(0.254463 -0.136725 -0.957369)
(0.314259 -0.158432 -0.936024)
(0.356476 -0.174255 -0.917911)
(0.356476 -0.174255 -0.917911)
(0.314259 -0.158432 -0.936024)
(0.254463 -0.136725 -0.957369)
(0.195617 -0.116289 -0.973761)
(0.143383 -0.0987441 -0.984729)
(0.0976813 -0.0829314 -0.991756)
(0.0575718 -0.0663376 -0.996135)
(0.0240732 -0.0452935 -0.998684)
(0.00297215 -0.0166063 -0.999858)
(0.00222048 0.0140976 -0.999898)
(0.0183657 0.0392652 -0.99906)
(0.0449574 0.0588638 -0.997253)
(0.0774756 0.0747427 -0.994189)
(0.114511 0.08961 -0.989372)
(0.156098 0.105445 -0.982097)
(0.201466 0.123005 -0.971741)
(0.245575 0.140681 -0.959115)
(0.275359 0.15295 -0.949096)
(0.275359 0.15295 -0.949096)
(0.245575 0.140681 -0.959115)
(0.201466 0.123005 -0.971741)
(0.156098 0.105445 -0.982097)
(0.114511 0.08961 -0.989372)
(0.0774756 0.0747427 -0.994189)
(0.0449574 0.0588638 -0.997253)
(0.0183657 0.0392652 -0.99906)
(0.00222048 0.0140976 -0.999898)
(0.00222048 -0.0140976 -0.999898)
(0.0183657 -0.0392652 -0.99906)
(0.0449574 -0.0588638 -0.997253)
(0.0774756 -0.0747427 -0.994189)
(0.114511 -0.08961 -0.989372)
(0.156098 -0.105445 -0.982097)
(0.201466 -0.123005 -0.971741)
(0.245575 -0.140681 -0.959115)
(0.275359 -0.15295 -0.949096)
(0.275359 -0.15295 -0.949096)
(0.245575 -0.140681 -0.959115)
(0.201466 -0.123005 -0.971741)
(0.156098 -0.105445 -0.982097)
(0.114511 -0.08961 -0.989372)
(0.0774756 -0.0747427 -0.994189)
(0.0449574 -0.0588638 -0.997253)
(0.0183657 -0.0392652 -0.99906)
(0.00222048 -0.0140976 -0.999898)
(0.00749907 0.0190899 -0.99979)
(0.047536 0.0407491 -0.998038)
(0.0957718 0.0502784 -0.994133)
(0.149466 0.0578155 -0.987075)
(0.213166 0.0668846 -0.974724)
(0.294153 0.0796712 -0.952432)
(0.403093 0.0986782 -0.909823)
(0.548407 0.125965 -0.82667)
(0.691552 0.154018 -0.705716)
(0.691552 0.154018 -0.705716)
(0.548407 0.125965 -0.82667)
(0.403093 0.0986782 -0.909823)
(0.294153 0.0796712 -0.952432)
(0.213166 0.0668846 -0.974724)
(0.149466 0.0578155 -0.987075)
(0.0957718 0.0502784 -0.994133)
(0.047536 0.0407491 -0.998038)
(0.00749907 0.0190899 -0.99979)
(0.00749907 -0.0190899 -0.99979)
(0.047536 -0.0407491 -0.998038)
(0.0957718 -0.0502784 -0.994133)
(0.149466 -0.0578155 -0.987075)
(0.213166 -0.0668846 -0.974724)
(0.294153 -0.0796712 -0.952432)
(0.403093 -0.0986782 -0.909823)
(0.548407 -0.125965 -0.82667)
(0.691552 -0.154018 -0.705716)
(0.691552 -0.154018 -0.705716)
(0.548407 -0.125965 -0.82667)
(0.403093 -0.0986782 -0.909823)
(0.294153 -0.0796712 -0.952432)
(0.213166 -0.0668846 -0.974724)
(0.149466 -0.0578155 -0.987075)
(0.0957718 -0.0502784 -0.994133)
(0.047536 -0.0407491 -0.998038)
(0.00749907 -0.0190899 -0.99979)
(0.00606153 0.017284 -0.999832)
(0.0403314 0.0387263 -0.998436)
(0.0832663 0.0489643 -0.995324)
(0.131317 0.0568967 -0.989706)
(0.188219 0.0661511 -0.979897)
(0.260407 0.0790036 -0.962261)
(0.357347 0.0979881 -0.928817)
(0.486488 0.125166 -0.864675)
(0.61357 0.153066 -0.774663)
(0.61357 0.153066 -0.774663)
(0.486488 0.125166 -0.864675)
(0.357347 0.0979881 -0.928817)
(0.260407 0.0790036 -0.962261)
(0.188219 0.0661511 -0.979897)
(0.131317 0.0568967 -0.989706)
(0.0832663 0.0489643 -0.995324)
(0.0403314 0.0387263 -0.998436)
(0.00606153 0.017284 -0.999832)
(0.00606153 -0.017284 -0.999832)
(0.0403314 -0.0387263 -0.998436)
(0.0832663 -0.0489643 -0.995324)
(0.131317 -0.0568967 -0.989706)
(0.188219 -0.0661511 -0.979897)
(0.260407 -0.0790036 -0.962261)
(0.357347 -0.0979881 -0.928817)
(0.486488 -0.125166 -0.864675)
(0.61357 -0.153066 -0.774663)
(0.61357 -0.153066 -0.774663)
(0.486488 -0.125166 -0.864675)
(0.357347 -0.0979881 -0.928817)
(0.260407 -0.0790036 -0.962261)
(0.188219 -0.0661511 -0.979897)
(0.131317 -0.0568967 -0.989706)
(0.0832663 -0.0489643 -0.995324)
(0.0403314 -0.0387263 -0.998436)
(0.00606153 -0.017284 -0.999832)
(0.00463769 0.0150427 -0.999876)
(0.0324449 0.0354382 -0.998845)
(0.0689718 0.0461366 -0.996551)
(0.110212 0.0543202 -0.992423)
(0.158896 0.0635258 -0.985249)
(0.220271 0.0760178 -0.972472)
(0.301952 0.0941854 -0.948659)
(0.409231 0.11977 -0.904536)
(0.51273 0.145501 -0.846131)
(0.51273 0.145501 -0.846131)
(0.409231 0.11977 -0.904536)
(0.301952 0.0941854 -0.948659)
(0.220271 0.0760178 -0.972472)
(0.158896 0.0635258 -0.985249)
(0.110212 0.0543202 -0.992423)
(0.0689718 0.0461366 -0.996551)
(0.0324449 0.0354382 -0.998845)
(0.00463769 0.0150427 -0.999876)
(0.00463769 -0.0150427 -0.999876)
(0.0324449 -0.0354382 -0.998845)
(0.0689718 -0.0461366 -0.996551)
(0.110212 -0.0543202 -0.992423)
(0.158896 -0.0635258 -0.985249)
(0.220271 -0.0760178 -0.972472)
(0.301952 -0.0941854 -0.948659)
(0.409231 -0.11977 -0.904536)
(0.51273 -0.145501 -0.846131)
(0.51273 -0.145501 -0.846131)
(0.409231 -0.11977 -0.904536)
(0.301952 -0.0941854 -0.948659)
(0.220271 -0.0760178 -0.972472)
(0.158896 -0.0635258 -0.985249)
(0.110212 -0.0543202 -0.992423)
(0.0689718 -0.0461366 -0.996551)
(0.0324449 -0.0354382 -0.998845)
(0.00463769 -0.0150427 -0.999876)
(0.0206662 0.00378691 -0.999779)
(0.0641066 0.00395575 -0.997935)
(0.11123 0.00420332 -0.993786)
(0.165788 0.00461618 -0.986151)
(0.233471 0.00527316 -0.972349)
(0.324346 0.00632361 -0.945917)
(0.457648 0.00806448 -0.889097)
(0.666755 0.0110241 -0.745196)
(0.937666 0.0150322 -0.347212)
(0.937666 0.0150322 -0.347212)
(0.666755 0.0110241 -0.745196)
(0.457648 0.00806448 -0.889097)
(0.324346 0.00632361 -0.945917)
(0.233471 0.00527316 -0.972349)
(0.165788 0.00461618 -0.986151)
(0.11123 0.00420332 -0.993786)
(0.0641066 0.00395575 -0.997935)
(0.0206662 0.00378691 -0.999779)
(0.0206662 -0.00378691 -0.999779)
(0.0641066 -0.00395575 -0.997935)
(0.11123 -0.00420332 -0.993786)
(0.165788 -0.00461618 -0.986151)
(0.233471 -0.00527316 -0.972349)
(0.324346 -0.00632361 -0.945917)
(0.457648 -0.00806448 -0.889097)
(0.666755 -0.0110241 -0.745196)
(0.937666 -0.0150322 -0.347212)
(0.937666 -0.0150322 -0.347212)
(0.666755 -0.0110241 -0.745196)
(0.457648 -0.00806448 -0.889097)
(0.324346 -0.00632361 -0.945917)
(0.233471 -0.00527316 -0.972349)
(0.165788 -0.00461618 -0.986151)
(0.11123 -0.00420332 -0.993786)
(0.0641066 -0.00395575 -0.997935)
(0.0206662 -0.00378691 -0.999779)
(0.0183796 0.00436638 -0.999822)
(0.0575862 0.00460683 -0.99833)
(0.100075 0.00490296 -0.994968)
(0.149408 0.00539344 -0.988761)
(0.210965 0.00617746 -0.977474)
(0.294519 0.00744444 -0.955617)
(0.419805 0.00959079 -0.907564)
(0.626261 0.0134243 -0.779498)
(0.923001 0.019184 -0.38432)
(0.923001 0.019184 -0.38432)
(0.626261 0.0134243 -0.779498)
(0.419805 0.00959079 -0.907564)
(0.294519 0.00744444 -0.955617)
(0.210965 0.00617746 -0.977474)
(0.149408 0.00539344 -0.988761)
(0.100075 0.00490296 -0.994968)
(0.0575862 0.00460683 -0.99833)
(0.0183796 0.00436638 -0.999822)
(0.0183796 -0.00436638 -0.999822)
(0.0575862 -0.00460683 -0.99833)
(0.100075 -0.00490296 -0.994968)
(0.149408 -0.00539344 -0.988761)
(0.210965 -0.00617746 -0.977474)
(0.294519 -0.00744444 -0.955617)
(0.419805 -0.00959079 -0.907564)
(0.626261 -0.0134243 -0.779498)
(0.923001 -0.019184 -0.38432)
(0.923001 -0.019184 -0.38432)
(0.626261 -0.0134243 -0.779498)
(0.419805 -0.00959079 -0.907564)
(0.294519 -0.00744444 -0.955617)
(0.210965 -0.00617746 -0.977474)
(0.149408 -0.00539344 -0.988761)
(0.100075 -0.00490296 -0.994968)
(0.0575862 -0.00460683 -0.99833)
(0.0183796 -0.00436638 -0.999822)
(0.0156141 0.00492476 -0.999866)
(0.0498055 0.00528989 -0.998745)
(0.0867541 0.00564295 -0.996214)
(0.129768 0.00621928 -0.991525)
(0.183762 0.00714384 -0.982945)
(0.257899 0.0086546 -0.966133)
(0.37176 0.0112759 -0.92826)
(0.570391 0.0162329 -0.821213)
(0.897661 0.0247704 -0.43999)
(0.897661 0.0247704 -0.43999)
(0.570391 0.0162329 -0.821213)
(0.37176 0.0112759 -0.92826)
(0.257899 0.0086546 -0.966133)
(0.183762 0.00714384 -0.982945)
(0.129768 0.00621928 -0.991525)
(0.0867541 0.00564295 -0.996214)
(0.0498055 0.00528989 -0.998745)
(0.0156141 0.00492476 -0.999866)
(0.0156141 -0.00492476 -0.999866)
(0.0498055 -0.00528989 -0.998745)
(0.0867541 -0.00564295 -0.996214)
(0.129768 -0.00621928 -0.991525)
(0.183762 -0.00714384 -0.982945)
(0.257899 -0.0086546 -0.966133)
(0.37176 -0.0112759 -0.92826)
(0.570391 -0.0162329 -0.821213)
(0.897661 -0.0247704 -0.43999)
(0.897661 -0.0247704 -0.43999)
(0.570391 -0.0162329 -0.821213)
(0.37176 -0.0112759 -0.92826)
(0.257899 -0.0086546 -0.966133)
(0.183762 -0.00714384 -0.982945)
(0.129768 -0.00621928 -0.991525)
(0.0867541 -0.00564295 -0.996214)
(0.0498055 -0.00528989 -0.998745)
(0.0156141 -0.00492476 -0.999866)
(0.00865355 -0.0187297 -0.999787)
(0.0509187 -0.0371118 -0.998013)
(0.099484 -0.0444054 -0.994048)
(0.153564 -0.0505044 -0.986847)
(0.218322 -0.058243 -0.974137)
(0.301782 -0.0694961 -0.950841)
(0.416524 -0.0866954 -0.904982)
(0.575586 -0.112408 -0.809979)
(0.741677 -0.140444 -0.65589)
(0.741677 -0.140444 -0.65589)
(0.575586 -0.112408 -0.809979)
(0.416524 -0.0866954 -0.904982)
(0.301782 -0.0694961 -0.950841)
(0.218322 -0.058243 -0.974137)
(0.153564 -0.0505044 -0.986847)
(0.099484 -0.0444054 -0.994048)
(0.0509187 -0.0371118 -0.998013)
(0.00865355 -0.0187297 -0.999787)
(0.00865355 0.0187297 -0.999787)
(0.0509187 0.0371118 -0.998013)
(0.099484 0.0444054 -0.994048)
(0.153564 0.0505044 -0.986847)
(0.218322 0.058243 -0.974137)
(0.301782 0.0694961 -0.950841)
(0.416524 0.0866954 -0.904982)
(0.575586 0.112408 -0.809979)
(0.741677 0.140444 -0.65589)
(0.741677 0.140444 -0.65589)
(0.575586 0.112408 -0.809979)
(0.416524 0.0866954 -0.904982)
(0.301782 0.0694961 -0.950841)
(0.218322 0.058243 -0.974137)
(0.153564 0.0505044 -0.986847)
(0.099484 0.0444054 -0.994048)
(0.0509187 0.0371118 -0.998013)
(0.00865355 0.0187297 -0.999787)
(0.00728543 -0.0170253 -0.999829)
(0.0444502 -0.0349793 -0.998399)
(0.0881366 -0.0424759 -0.995202)
(0.1369 -0.0486124 -0.989391)
(0.195362 -0.0562718 -0.979115)
(0.27099 -0.0673788 -0.960221)
(0.375853 -0.0844649 -0.922822)
(0.523779 -0.110443 -0.844664)
(0.682751 -0.139589 -0.717193)
(0.682751 -0.139589 -0.717193)
(0.523779 -0.110443 -0.844664)
(0.375853 -0.0844649 -0.922822)
(0.27099 -0.0673788 -0.960221)
(0.195362 -0.0562718 -0.979115)
(0.1369 -0.0486124 -0.989391)
(0.0881366 -0.0424759 -0.995202)
(0.0444502 -0.0349793 -0.998399)
(0.00728543 -0.0170253 -0.999829)
(0.00728543 0.0170253 -0.999829)
(0.0444502 0.0349793 -0.998399)
(0.0881366 0.0424759 -0.995202)
(0.1369 0.0486124 -0.989391)
(0.195362 0.0562718 -0.979115)
(0.27099 0.0673788 -0.960221)
(0.375853 0.0844649 -0.922822)
(0.523779 0.110443 -0.844664)
(0.682751 0.139589 -0.717193)
(0.682751 0.139589 -0.717193)
(0.523779 0.110443 -0.844664)
(0.375853 0.0844649 -0.922822)
(0.27099 0.0673788 -0.960221)
(0.195362 0.0562718 -0.979115)
(0.1369 0.0486124 -0.989391)
(0.0881366 0.0424759 -0.995202)
(0.0444502 0.0349793 -0.998399)
(0.00728543 0.0170253 -0.999829)
(0.0058594 -0.0148884 -0.999872)
(0.0371376 -0.0317768 -0.998805)
(0.0749085 -0.0392532 -0.996418)
(0.117213 -0.045256 -0.992075)
(0.167968 -0.0526057 -0.984388)
(0.233803 -0.0632089 -0.970227)
(0.325722 -0.0795908 -0.94211)
(0.457334 -0.104853 -0.883092)
(0.602424 -0.133922 -0.786861)
(0.602424 -0.133922 -0.786861)
(0.457334 -0.104853 -0.883092)
(0.325722 -0.0795908 -0.94211)
(0.233803 -0.0632089 -0.970227)
(0.167968 -0.0526057 -0.984388)
(0.117213 -0.045256 -0.992075)
(0.0749085 -0.0392532 -0.996418)
(0.0371376 -0.0317768 -0.998805)
(0.0058594 -0.0148884 -0.999872)
(0.0058594 0.0148884 -0.999872)
(0.0371376 0.0317768 -0.998805)
(0.0749085 0.0392532 -0.996418)
(0.117213 0.045256 -0.992075)
(0.167968 0.0526057 -0.984388)
(0.233803 0.0632089 -0.970227)
(0.325722 0.0795908 -0.94211)
(0.457334 0.104853 -0.883092)
(0.602424 0.133922 -0.786861)
(0.602424 0.133922 -0.786861)
(0.457334 0.104853 -0.883092)
(0.325722 0.0795908 -0.94211)
(0.233803 0.0632089 -0.970227)
(0.167968 0.0526057 -0.984388)
(0.117213 0.045256 -0.992075)
(0.0749085 0.0392532 -0.996418)
(0.0371376 0.0317768 -0.998805)
(0.0058594 0.0148884 -0.999872)
(0.00417346 -0.0190387 -0.99981)
(0.032374 -0.0497322 -0.998238)
(0.0742296 -0.069834 -0.994793)
(0.122811 -0.0851306 -0.988772)
(0.178424 -0.100324 -0.978826)
(0.243848 -0.118357 -0.962564)
(0.321341 -0.140971 -0.936412)
(0.405873 -0.167065 -0.89853)
(0.470272 -0.187691 -0.862332)
(0.470272 -0.187691 -0.862332)
(0.405873 -0.167065 -0.89853)
(0.321341 -0.140971 -0.936412)
(0.243848 -0.118357 -0.962564)
(0.178424 -0.100324 -0.978826)
(0.122811 -0.0851306 -0.988772)
(0.0742296 -0.069834 -0.994793)
(0.032374 -0.0497322 -0.998238)
(0.00417346 -0.0190387 -0.99981)
(0.00417346 0.0190387 -0.99981)
(0.032374 0.0497322 -0.998238)
(0.0742296 0.069834 -0.994793)
(0.122811 0.0851306 -0.988772)
(0.178424 0.100324 -0.978826)
(0.243848 0.118357 -0.962564)
(0.321341 0.140971 -0.936412)
(0.405873 0.167065 -0.89853)
(0.470272 0.187691 -0.862332)
(0.470272 0.187691 -0.862332)
(0.405873 0.167065 -0.89853)
(0.321341 0.140971 -0.936412)
(0.243848 0.118357 -0.962564)
(0.178424 0.100324 -0.978826)
(0.122811 0.0851306 -0.988772)
(0.0742296 0.069834 -0.994793)
(0.032374 0.0497322 -0.998238)
(0.00417346 0.0190387 -0.99981)
(0.00343799 -0.0170106 -0.999849)
(0.0271821 -0.0452894 -0.998604)
(0.0634521 -0.0647453 -0.995882)
(0.106115 -0.0797804 -0.991148)
(0.154959 -0.0945026 -0.98339)
(0.212006 -0.111608 -0.970875)
(0.27871 -0.132614 -0.951175)
(0.350145 -0.15632 -0.92356)
(0.40348 -0.174658 -0.898164)
(0.40348 -0.174658 -0.898164)
(0.350145 -0.15632 -0.92356)
(0.27871 -0.132614 -0.951175)
(0.212006 -0.111608 -0.970875)
(0.154959 -0.0945026 -0.98339)
(0.106115 -0.0797804 -0.991148)
(0.0634521 -0.0647453 -0.995882)
(0.0271821 -0.0452894 -0.998604)
(0.00343799 -0.0170106 -0.999849)
(0.00343799 0.0170106 -0.999849)
(0.0271821 0.0452894 -0.998604)
(0.0634521 0.0647453 -0.995882)
(0.106115 0.0797804 -0.991148)
(0.154959 0.0945026 -0.98339)
(0.212006 0.111608 -0.970875)
(0.27871 0.132614 -0.951175)
(0.350145 0.15632 -0.92356)
(0.40348 0.174658 -0.898164)
(0.40348 0.174658 -0.898164)
(0.350145 0.15632 -0.92356)
(0.27871 0.132614 -0.951175)
(0.212006 0.111608 -0.970875)
(0.154959 0.0945026 -0.98339)
(0.106115 0.0797804 -0.991148)
(0.0634521 0.0647453 -0.995882)
(0.0271821 0.0452894 -0.998604)
(0.00343799 0.0170106 -0.999849)
(0.00269112 -0.0145776 -0.99989)
(0.0216788 -0.0395448 -0.998983)
(0.05157 -0.0576103 -0.997006)
(0.0872725 -0.0718351 -0.993591)
(0.128154 -0.0855656 -0.988056)
(0.175438 -0.101114 -0.979284)
(0.229757 -0.119686 -0.965861)
(0.286476 -0.140022 -0.9478)
(0.327689 -0.155299 -0.931935)
(0.327689 -0.155299 -0.931935)
(0.286476 -0.140022 -0.9478)
(0.229757 -0.119686 -0.965861)
(0.175438 -0.101114 -0.979284)
(0.128154 -0.0855656 -0.988056)
(0.0872725 -0.0718351 -0.993591)
(0.05157 -0.0576103 -0.997006)
(0.0216788 -0.0395448 -0.998983)
(0.00269112 -0.0145776 -0.99989)
(0.00269112 0.0145776 -0.99989)
(0.0216788 0.0395448 -0.998983)
(0.05157 0.0576103 -0.997006)
(0.0872725 0.0718351 -0.993591)
(0.128154 0.0855656 -0.988056)
(0.175438 0.101114 -0.979284)
(0.229757 0.119686 -0.965861)
(0.286476 0.140022 -0.9478)
(0.327689 0.155299 -0.931935)
(0.327689 0.155299 -0.931935)
(0.286476 0.140022 -0.9478)
(0.229757 0.119686 -0.965861)
(0.175438 0.101114 -0.979284)
(0.128154 0.0855656 -0.988056)
(0.0872725 0.0718351 -0.993591)
(0.05157 0.0576103 -0.997006)
(0.0216788 0.0395448 -0.998983)
(0.00269112 0.0145776 -0.99989)
(0.00249381 -0.0176568 -0.999841)
(0.0209122 -0.0498595 -0.998537)
(0.0520048 -0.0759347 -0.995756)
(0.0904945 -0.097359 -0.991127)
(0.133956 -0.116902 -0.984068)
(0.181361 -0.136624 -0.97388)
(0.230645 -0.157041 -0.960282)
(0.275649 -0.1761 -0.94499)
(0.304271 -0.188479 -0.933753)
(0.304271 -0.188479 -0.933753)
(0.275649 -0.1761 -0.94499)
(0.230645 -0.157041 -0.960282)
(0.181361 -0.136624 -0.97388)
(0.133956 -0.116902 -0.984068)
(0.0904945 -0.097359 -0.991127)
(0.0520048 -0.0759347 -0.995756)
(0.0209122 -0.0498595 -0.998537)
(0.00249381 -0.0176568 -0.999841)
(0.00249381 0.0176568 -0.999841)
(0.0209122 0.0498595 -0.998537)
(0.0520048 0.0759347 -0.995756)
(0.0904945 0.097359 -0.991127)
(0.133956 0.116902 -0.984068)
(0.181361 0.136624 -0.97388)
(0.230645 0.157041 -0.960282)
(0.275649 0.1761 -0.94499)
(0.304271 0.188479 -0.933753)
(0.304271 0.188479 -0.933753)
(0.275649 0.1761 -0.94499)
(0.230645 0.157041 -0.960282)
(0.181361 0.136624 -0.97388)
(0.133956 0.116902 -0.984068)
(0.0904945 0.097359 -0.991127)
(0.0520048 0.0759347 -0.995756)
(0.0209122 0.0498595 -0.998537)
(0.00249381 0.0176568 -0.999841)
(0.00202994 -0.0155804 -0.999877)
(0.0171773 -0.0443966 -0.998866)
(0.0432111 -0.0683973 -0.996722)
(0.0758553 -0.0884681 -0.993186)
(0.112785 -0.106699 -0.987874)
(0.152718 -0.124715 -0.980369)
(0.193524 -0.14284 -0.970642)
(0.229958 -0.159257 -0.960081)
(0.252655 -0.169658 -0.952566)
(0.252655 -0.169658 -0.952566)
(0.229958 -0.159257 -0.960081)
(0.193524 -0.14284 -0.970642)
(0.152718 -0.124715 -0.980369)
(0.112785 -0.106699 -0.987874)
(0.0758553 -0.0884681 -0.993186)
(0.0432111 -0.0683973 -0.996722)
(0.0171773 -0.0443966 -0.998866)
(0.00202994 -0.0155804 -0.999877)
(0.00202994 0.0155804 -0.999877)
(0.0171773 0.0443966 -0.998866)
(0.0432111 0.0683973 -0.996722)
(0.0758553 0.0884681 -0.993186)
(0.112785 0.106699 -0.987874)
(0.152718 0.124715 -0.980369)
(0.193524 0.14284 -0.970642)
(0.229958 0.159257 -0.960081)
(0.252655 0.169658 -0.952566)
(0.252655 0.169658 -0.952566)
(0.229958 0.159257 -0.960081)
(0.193524 0.14284 -0.970642)
(0.152718 0.124715 -0.980369)
(0.112785 0.106699 -0.987874)
(0.0758553 0.0884681 -0.993186)
(0.0432111 0.0683973 -0.996722)
(0.0171773 0.0443966 -0.998866)
(0.00202994 0.0155804 -0.999877)
(0.0015631 -0.0131374 -0.999912)
(0.013341 -0.037758 -0.999198)
(0.0339424 -0.0588318 -0.997691)
(0.0601175 -0.0767765 -0.995234)
(0.0897866 -0.0930133 -0.991608)
(0.121554 -0.108699 -0.986615)
(0.153386 -0.123973 -0.980359)
(0.181098 -0.137337 -0.973829)
(0.197969 -0.14557 -0.969339)
(0.197969 -0.14557 -0.969339)
(0.181098 -0.137337 -0.973829)
(0.153386 -0.123973 -0.980359)
(0.121554 -0.108699 -0.986615)
(0.0897866 -0.0930133 -0.991608)
(0.0601175 -0.0767765 -0.995234)
(0.0339424 -0.0588318 -0.997691)
(0.013341 -0.037758 -0.999198)
(0.0015631 -0.0131374 -0.999912)
(0.0015631 0.0131374 -0.999912)
(0.013341 0.037758 -0.999198)
(0.0339424 0.0588318 -0.997691)
(0.0601175 0.0767765 -0.995234)
(0.0897866 0.0930133 -0.991608)
(0.121554 0.108699 -0.986615)
(0.153386 0.123973 -0.980359)
(0.181098 0.137337 -0.973829)
(0.197969 0.14557 -0.969339)
(0.197969 0.14557 -0.969339)
(0.181098 0.137337 -0.973829)
(0.153386 0.123973 -0.980359)
(0.121554 0.108699 -0.986615)
(0.0897866 0.0930133 -0.991608)
(0.0601175 0.0767765 -0.995234)
(0.0339424 0.0588318 -0.997691)
(0.013341 0.037758 -0.999198)
(0.0015631 0.0131374 -0.999912)
(0.00161437 -0.0158328 -0.999873)
(0.0139242 -0.0459861 -0.998845)
(0.0359241 -0.0726591 -0.99671)
(0.0642818 -0.0957963 -0.993323)
(0.0962807 -0.116387 -0.988526)
(0.129653 -0.135291 -0.982286)
(0.161615 -0.152426 -0.975011)
(0.187949 -0.166322 -0.967994)
(0.203234 -0.174383 -0.963476)
(0.203234 -0.174383 -0.963476)
(0.187949 -0.166322 -0.967994)
(0.161615 -0.152426 -0.975011)
(0.129653 -0.135291 -0.982286)
(0.0962807 -0.116387 -0.988526)
(0.0642818 -0.0957963 -0.993323)
(0.0359241 -0.0726591 -0.99671)
(0.0139242 -0.0459861 -0.998845)
(0.00161437 -0.0158328 -0.999873)
(0.00161437 0.0158328 -0.999873)
(0.0139242 0.0459861 -0.998845)
(0.0359241 0.0726591 -0.99671)
(0.0642818 0.0957963 -0.993323)
(0.0962807 0.116387 -0.988526)
(0.129653 0.135291 -0.982286)
(0.161615 0.152426 -0.975011)
(0.187949 0.166322 -0.967994)
(0.203234 0.174383 -0.963476)
(0.203234 0.174383 -0.963476)
(0.187949 0.166322 -0.967994)
(0.161615 0.152426 -0.975011)
(0.129653 0.135291 -0.982286)
(0.0962807 0.116387 -0.988526)
(0.0642818 0.0957963 -0.993323)
(0.0359241 0.0726591 -0.99671)
(0.0139242 0.0459861 -0.998845)
(0.00161437 0.0158328 -0.999873)
(0.00130225 -0.0138243 -0.999904)
(0.0112825 -0.0403323 -0.999123)
(0.0292961 -0.0641363 -0.997511)
(0.0527134 -0.08503 -0.994983)
(0.0791929 -0.10362 -0.991459)
(0.106649 -0.120458 -0.986973)
(0.132618 -0.135385 -0.981877)
(0.153681 -0.147204 -0.977094)
(0.165741 -0.153932 -0.974082)
(0.165741 -0.153932 -0.974082)
(0.153681 -0.147204 -0.977094)
(0.132618 -0.135385 -0.981877)
(0.106649 -0.120458 -0.986973)
(0.0791929 -0.10362 -0.991459)
(0.0527134 -0.08503 -0.994983)
(0.0292961 -0.0641363 -0.997511)
(0.0112825 -0.0403323 -0.999123)
(0.00130225 -0.0138243 -0.999904)
(0.00130225 0.0138243 -0.999904)
(0.0112825 0.0403323 -0.999123)
(0.0292961 0.0641363 -0.997511)
(0.0527134 0.08503 -0.994983)
(0.0791929 0.10362 -0.991459)
(0.106649 0.120458 -0.986973)
(0.132618 0.135385 -0.981877)
(0.153681 0.147204 -0.977094)
(0.165741 0.153932 -0.974082)
(0.165741 0.153932 -0.974082)
(0.153681 0.147204 -0.977094)
(0.132618 0.135385 -0.981877)
(0.106649 0.120458 -0.986973)
(0.0791929 0.10362 -0.991459)
(0.0527134 0.08503 -0.994983)
(0.0292961 0.0641363 -0.997511)
(0.0112825 0.0403323 -0.999123)
(0.00130225 0.0138243 -0.999904)
(0.000989783 -0.0114928 -0.999933)
(0.00861081 -0.0336691 -0.999396)
(0.0224942 -0.053865 -0.998295)
(0.0406901 -0.0717928 -0.996589)
(0.0613065 -0.0877415 -0.994255)
(0.0825558 -0.101992 -0.991354)
(0.102398 -0.11434 -0.98815)
(0.118233 -0.123873 -0.985229)
(0.127177 -0.129195 -0.98343)
(0.127177 -0.129195 -0.98343)
(0.118233 -0.123873 -0.985229)
(0.102398 -0.11434 -0.98815)
(0.0825558 -0.101992 -0.991354)
(0.0613065 -0.0877415 -0.994255)
(0.0406901 -0.0717928 -0.996589)
(0.0224942 -0.053865 -0.998295)
(0.00861081 -0.0336691 -0.999396)
(0.000989783 -0.0114928 -0.999933)
(0.000989783 0.0114928 -0.999933)
(0.00861081 0.0336691 -0.999396)
(0.0224942 0.053865 -0.998295)
(0.0406901 0.0717928 -0.996589)
(0.0613065 0.0877415 -0.994255)
(0.0825558 0.101992 -0.991354)
(0.102398 0.11434 -0.98815)
(0.118233 0.123873 -0.985229)
(0.127177 0.129195 -0.98343)
(0.127177 0.129195 -0.98343)
(0.118233 0.123873 -0.985229)
(0.102398 0.11434 -0.98815)
(0.0825558 0.101992 -0.991354)
(0.0613065 0.0877415 -0.994255)
(0.0406901 0.0717928 -0.996589)
(0.0224942 0.053865 -0.998295)
(0.00861081 0.0336691 -0.999396)
(0.000989783 0.0114928 -0.999933)
(0.00107944 -0.0138865 -0.999903)
(0.0094212 -0.040813 -0.999122)
(0.0247234 -0.0655914 -0.99754)
(0.0448768 -0.087724 -0.995133)
(0.0676611 -0.107286 -0.991923)
(0.0908806 -0.124393 -0.988062)
(0.112152 -0.138746 -0.983957)
(0.128755 -0.149454 -0.98035)
(0.137963 -0.155277 -0.97819)
(0.137963 -0.155277 -0.97819)
(0.128755 -0.149454 -0.98035)
(0.112152 -0.138746 -0.983957)
(0.0908806 -0.124393 -0.988062)
(0.0676611 -0.107286 -0.991923)
(0.0448768 -0.087724 -0.995133)
(0.0247234 -0.0655914 -0.99754)
(0.0094212 -0.040813 -0.999122)
(0.00107944 -0.0138865 -0.999903)
(0.00107944 0.0138865 -0.999903)
(0.0094212 0.040813 -0.999122)
(0.0247234 0.0655914 -0.99754)
(0.0448768 0.087724 -0.995133)
(0.0676611 0.107286 -0.991923)
(0.0908806 0.124393 -0.988062)
(0.112152 0.138746 -0.983957)
(0.128755 0.149454 -0.98035)
(0.137963 0.155277 -0.97819)
(0.137963 0.155277 -0.97819)
(0.128755 0.149454 -0.98035)
(0.112152 0.138746 -0.983957)
(0.0908806 0.124393 -0.988062)
(0.0676611 0.107286 -0.991923)
(0.0448768 0.087724 -0.995133)
(0.0247234 0.0655914 -0.99754)
(0.0094212 0.040813 -0.999122)
(0.00107944 0.0138865 -0.999903)
(0.000865526 -0.0120303 -0.999927)
(0.00757117 -0.0354372 -0.999343)
(0.0199364 -0.0571469 -0.998167)
(0.0363025 -0.0766722 -0.996395)
(0.0548353 -0.0939439 -0.994066)
(0.0736652 -0.108941 -0.991315)
(0.0907932 -0.121359 -0.988448)
(0.104042 -0.130485 -0.985976)
(0.111335 -0.135388 -0.984517)
(0.111335 -0.135388 -0.984517)
(0.104042 -0.130485 -0.985976)
(0.0907932 -0.121359 -0.988448)
(0.0736652 -0.108941 -0.991315)
(0.0548353 -0.0939439 -0.994066)
(0.0363025 -0.0766722 -0.996395)
(0.0199364 -0.0571469 -0.998167)
(0.00757117 -0.0354372 -0.999343)
(0.000865526 -0.0120303 -0.999927)
(0.000865526 0.0120303 -0.999927)
(0.00757117 0.0354372 -0.999343)
(0.0199364 0.0571469 -0.998167)
(0.0363025 0.0766722 -0.996395)
(0.0548353 0.0939439 -0.994066)
(0.0736652 0.108941 -0.991315)
(0.0907932 0.121359 -0.988448)
(0.104042 0.130485 -0.985976)
(0.111335 0.135388 -0.984517)
(0.111335 0.135388 -0.984517)
(0.104042 0.130485 -0.985976)
(0.0907932 0.121359 -0.988448)
(0.0736652 0.108941 -0.991315)
(0.0548353 0.0939439 -0.994066)
(0.0363025 0.0766722 -0.996395)
(0.0199364 0.0571469 -0.998167)
(0.00757117 0.0354372 -0.999343)
(0.000865526 0.0120303 -0.999927)
(0.000651278 -0.00988635 -0.999951)
(0.00570867 -0.0291813 -0.999558)
(0.0150792 -0.047206 -0.998771)
(0.0275384 -0.0635205 -0.997601)
(0.0416686 -0.0779631 -0.996085)
(0.0559834 -0.0904191 -0.994329)
(0.0689153 -0.100602 -0.992537)
(0.0788326 -0.107976 -0.991023)
(0.0842524 -0.111893 -0.990142)
(0.0842524 -0.111893 -0.990142)
(0.0788326 -0.107976 -0.991023)
(0.0689153 -0.100602 -0.992537)
(0.0559834 -0.0904191 -0.994329)
(0.0416686 -0.0779631 -0.996085)
(0.0275384 -0.0635205 -0.997601)
(0.0150792 -0.047206 -0.998771)
(0.00570867 -0.0291813 -0.999558)
(0.000651278 -0.00988635 -0.999951)
(0.000651278 0.00988635 -0.999951)
(0.00570867 0.0291813 -0.999558)
(0.0150792 0.047206 -0.998771)
(0.0275384 0.0635205 -0.997601)
(0.0416686 0.0779631 -0.996085)
(0.0559834 0.0904191 -0.994329)
(0.0689153 0.100602 -0.992537)
(0.0788326 0.107976 -0.991023)
(0.0842524 0.111893 -0.990142)
(0.0842524 0.111893 -0.990142)
(0.0788326 0.107976 -0.991023)
(0.0689153 0.100602 -0.992537)
(0.0559834 0.0904191 -0.994329)
(0.0416686 0.0779631 -0.996085)
(0.0275384 0.0635205 -0.997601)
(0.0150792 0.047206 -0.998771)
(0.00570867 0.0291813 -0.999558)
(0.000651278 0.00988635 -0.999951)
(0.000727417 -0.0119553 -0.999928)
(0.00638322 -0.0353277 -0.999355)
(0.016888 -0.0572401 -0.998218)
(0.0308773 -0.0771116 -0.996544)
(0.0467219 -0.094647 -0.994414)
(0.0626901 -0.109624 -0.991994)
(0.0769939 -0.121689 -0.989578)
(0.0878588 -0.130291 -0.987575)
(0.093751 -0.134804 -0.986427)
(0.093751 -0.134804 -0.986427)
(0.0878588 -0.130291 -0.987575)
(0.0769939 -0.121689 -0.989578)
(0.0626901 -0.109624 -0.991994)
(0.0467219 -0.094647 -0.994414)
(0.0308773 -0.0771116 -0.996544)
(0.016888 -0.0572401 -0.998218)
(0.00638322 -0.0353277 -0.999355)
(0.000727417 -0.0119553 -0.999928)
(0.000727417 0.0119553 -0.999928)
(0.00638322 0.0353277 -0.999355)
(0.016888 0.0572401 -0.998218)
(0.0308773 0.0771116 -0.996544)
(0.0467219 0.094647 -0.994414)
(0.0626901 0.109624 -0.991994)
(0.0769939 0.121689 -0.989578)
(0.0878588 0.130291 -0.987575)
(0.093751 0.134804 -0.986427)
(0.093751 0.134804 -0.986427)
(0.0878588 0.130291 -0.987575)
(0.0769939 0.121689 -0.989578)
(0.0626901 0.109624 -0.991994)
(0.0467219 0.094647 -0.994414)
(0.0308773 0.0771116 -0.996544)
(0.016888 0.0572401 -0.998218)
(0.00638322 0.0353277 -0.999355)
(0.000727417 0.0119553 -0.999928)
(0.000581619 -0.0103079 -0.999947)
(0.00510958 -0.0304942 -0.999522)
(0.0135422 -0.0494959 -0.998683)
(0.0248026 -0.0667934 -0.997459)
(0.0375707 -0.0820715 -0.995918)
(0.0504219 -0.0950785 -0.994192)
(0.0618934 -0.105486 -0.992493)
(0.0705678 -0.112847 -0.991103)
(0.0752545 -0.116685 -0.990314)
(0.0752545 -0.116685 -0.990314)
(0.0705678 -0.112847 -0.991103)
(0.0618934 -0.105486 -0.992493)
(0.0504219 -0.0950785 -0.994192)
(0.0375707 -0.0820715 -0.995918)
(0.0248026 -0.0667934 -0.997459)
(0.0135422 -0.0494959 -0.998683)
(0.00510958 -0.0304942 -0.999522)
(0.000581619 -0.0103079 -0.999947)
(0.000581619 0.0103079 -0.999947)
(0.00510958 0.0304942 -0.999522)
(0.0135422 0.0494959 -0.998683)
(0.0248026 0.0667934 -0.997459)