/*--------------------------------*- C++ -*----------------------------------*\
| =========                 |                                                 |
| \\      /  F ield         | OpenFOAM: The Open Source CFD Toolbox           |
|  \\    /   O peration     | Version:  2312                                  |
|   \\  /    A nd           | Website:  www.openfoam.com                      |
|    \\/     M anipulation  |                                                 |
\*---------------------------------------------------------------------------*/
FoamFile
{
    version     2.0;
    format      ascii;
    arch        "LSB;label=32;scalar=64";
    class       volVectorField;
    location    "0";
    object      f1;
}
// * * * * * * * * * * * * * * * * * * * * * * * * * * * * * * * * * * * * * //

dimensions      [0 0 0 0 0 0 0];

internalField   nonuniform List<vector> 
1620
(
(-0.459668 0.0748798 0.884928)
(-0.426258 0.193822 0.883593)
(-0.395265 0.26109 0.88068)
(-0.384026 0.292903 0.875632)
(-0.393796 0.304204 0.867401)
(-0.422859 0.302449 0.854234)
(-0.469086 0.291146 0.833782)
(-0.525226 0.27395 0.80566)
(-0.569007 0.259443 0.780334)
(-0.569007 0.259443 0.780334)
(-0.525226 0.27395 0.80566)
(-0.469086 0.291146 0.833782)
(-0.422859 0.302449 0.854234)
(-0.393796 0.304204 0.867401)
(-0.384026 0.292903 0.875632)
(-0.395265 0.26109 0.88068)
(-0.426258 0.193822 0.883593)
(-0.459668 0.0748798 0.884928)
(-0.459668 -0.0748798 0.884928)
(-0.426258 -0.193822 0.883593)
(-0.395265 -0.26109 0.88068)
(-0.384026 -0.292903 0.875632)
(-0.393796 -0.304204 0.867401)
(-0.422859 -0.302449 0.854234)
(-0.469086 -0.291146 0.833782)
(-0.525226 -0.27395 0.80566)
(-0.569007 -0.259443 0.780334)
(-0.569007 -0.259443 0.780334)
(-0.525226 -0.27395 0.80566)
(-0.469086 -0.291146 0.833782)
(-0.422859 -0.302449 0.854234)
(-0.393796 -0.304204 0.867401)
(-0.384026 -0.292903 0.875632)
(-0.395265 -0.26109 0.88068)
(-0.426258 -0.193822 0.883593)
(-0.459668 -0.0748798 0.884928)
(-0.975238 0.172166 0.138814)
(-0.877817 0.458489 0.138651)
(-0.755922 0.639888 0.138297)
(-0.654499 0.743419 0.137693)
(-0.581599 0.801904 0.13672)
(-0.53321 0.835111 0.135194)
(-0.504056 0.853382 0.132915)
(-0.489442 0.862299 0.129952)
(-0.484402 0.865514 0.127437)
(-0.484402 0.865514 0.127437)
(-0.489442 0.862299 0.129952)
(-0.504056 0.853382 0.132915)
(-0.53321 0.835111 0.135194)
(-0.581599 0.801904 0.13672)
(-0.654499 0.743419 0.137693)
(-0.755922 0.639888 0.138297)
(-0.877817 0.458489 0.138651)
(-0.975238 0.172166 0.138814)
(-0.975238 -0.172166 0.138814)
(-0.877817 -0.458489 0.138651)
(-0.755922 -0.639888 0.138297)
(-0.654499 -0.743419 0.137693)
(-0.581599 -0.801904 0.13672)
(-0.53321 -0.835111 0.135194)
(-0.504056 -0.853382 0.132915)
(-0.489442 -0.862299 0.129952)
(-0.484402 -0.865514 0.127437)
(-0.484402 -0.865514 0.127437)
(-0.489442 -0.862299 0.129952)
(-0.504056 -0.853382 0.132915)
(-0.53321 -0.835111 0.135194)
(-0.581599 -0.801904 0.13672)
(-0.654499 -0.743419 0.137693)
(-0.755922 -0.639888 0.138297)
(-0.877817 -0.458489 0.138651)
(-0.975238 -0.172166 0.138814)
(-0.583363 0.103524 -0.805587)
(-0.521775 0.282609 -0.804912)
(-0.434545 0.406974 -0.803457)
(-0.34886 0.486535 -0.800987)
(-0.272806 0.538704 -0.797104)
(-0.205821 0.57582 -0.791245)
(-0.146366 0.604682 -0.782902)
(-0.0965999 0.627342 -0.772729)
(-0.0657918 0.64107 -0.764657)
(-0.0657918 0.64107 -0.764657)
(-0.0965999 0.627342 -0.772729)
(-0.146366 0.604682 -0.782902)
(-0.205821 0.57582 -0.791245)
(-0.272806 0.538704 -0.797104)
(-0.34886 0.486535 -0.800987)
(-0.434545 0.406974 -0.803457)
(-0.521775 0.282609 -0.804912)
(-0.583363 0.103524 -0.805587)
(-0.583363 -0.103524 -0.805587)
(-0.521775 -0.282609 -0.804912)
(-0.434545 -0.406974 -0.803457)
(-0.34886 -0.486535 -0.800987)
(-0.272806 -0.538704 -0.797104)
(-0.205821 -0.57582 -0.791245)
(-0.146366 -0.604682 -0.782902)
(-0.0965999 -0.627342 -0.772729)
(-0.0657918 -0.64107 -0.764657)
(-0.0657918 -0.64107 -0.764657)
(-0.0965999 -0.627342 -0.772729)
(-0.146366 -0.604682 -0.782902)
(-0.205821 -0.57582 -0.791245)
(-0.272806 -0.538704 -0.797104)
(-0.34886 -0.486535 -0.800987)
(-0.434545 -0.406974 -0.803457)
(-0.521775 -0.282609 -0.804912)
(-0.583363 -0.103524 -0.805587)
(-0.374105 0.126711 0.918689)
(-0.30045 0.262092 0.917081)
(-0.271389 0.303119 0.913492)
(-0.279673 0.31483 0.907009)
(-0.313987 0.314971 0.895659)
(-0.373434 0.307595 0.875176)
(-0.464207 0.292541 0.836021)
(-0.592243 0.268767 0.759614)
(-0.721221 0.243572 0.64847)
(-0.721221 0.243572 0.64847)
(-0.592243 0.268767 0.759614)
(-0.464207 0.292541 0.836021)
(-0.373434 0.307595 0.875176)
(-0.313987 0.314971 0.895659)
(-0.279673 0.31483 0.907009)
(-0.271389 0.303119 0.913492)
(-0.30045 0.262092 0.917081)
(-0.374105 0.126711 0.918689)
(-0.374105 -0.126711 0.918689)
(-0.30045 -0.262092 0.917081)
(-0.271389 -0.303119 0.913492)
(-0.279673 -0.31483 0.907009)
(-0.313987 -0.314971 0.895659)
(-0.373434 -0.307595 0.875176)
(-0.464207 -0.292541 0.836021)
(-0.592243 -0.268767 0.759614)
(-0.721221 -0.243572 0.64847)
(-0.721221 -0.243572 0.64847)
(-0.592243 -0.268767 0.759614)
(-0.464207 -0.292541 0.836021)
(-0.373434 -0.307595 0.875176)
(-0.313987 -0.314971 0.895659)
(-0.279673 -0.31483 0.907009)
(-0.271389 -0.303119 0.913492)
(-0.30045 -0.262092 0.917081)
(-0.374105 -0.126711 0.918689)
(-0.928802 0.322177 0.183111)
(-0.68828 0.702021 0.182859)
(-0.513574 0.838459 0.182287)
(-0.414891 0.891633 0.181261)
(-0.360439 0.915356 0.179464)
(-0.3331 0.926275 0.176235)
(-0.325421 0.930142 0.170107)
(-0.334054 0.929155 0.158362)
(-0.350326 0.925821 0.141873)
(-0.350326 0.925821 0.141873)
(-0.334054 0.929155 0.158362)
(-0.325421 0.930142 0.170107)
(-0.3331 0.926275 0.176235)
(-0.360439 0.915356 0.179464)
(-0.414891 0.891633 0.181261)
(-0.513574 0.838459 0.182287)
(-0.68828 0.702021 0.182859)
(-0.928802 0.322177 0.183111)
(-0.928802 -0.322177 0.183111)
(-0.68828 -0.702021 0.182859)
(-0.513574 -0.838459 0.182287)
(-0.414891 -0.891633 0.181261)
(-0.360439 -0.915356 0.179464)
(-0.3331 -0.926275 0.176235)
(-0.325421 -0.930142 0.170107)
(-0.334054 -0.929155 0.158362)
(-0.350326 -0.925821 0.141873)
(-0.350326 -0.925821 0.141873)
(-0.334054 -0.929155 0.158362)
(-0.325421 -0.930142 0.170107)
(-0.3331 -0.926275 0.176235)
(-0.360439 -0.915356 0.179464)
(-0.414891 -0.891633 0.181261)
(-0.513574 -0.838459 0.182287)
(-0.68828 -0.702021 0.182859)
(-0.928802 -0.322177 0.183111)
(-0.574879 0.190346 -0.795791)
(-0.420734 0.437043 -0.79497)
(-0.28173 0.539954 -0.793144)
(-0.179942 0.586297 -0.789859)
(-0.098293 0.61274 -0.784148)
(-0.022201 0.63282 -0.773981)
(0.0600362 0.652939 -0.755028)
(0.155641 0.676391 -0.71991)
(0.242792 0.698247 -0.673427)
(0.242792 0.698247 -0.673427)
(0.155641 0.676391 -0.71991)
(0.0600362 0.652939 -0.755028)
(-0.022201 0.63282 -0.773981)
(-0.098293 0.61274 -0.784148)
(-0.179942 0.586297 -0.789859)
(-0.28173 0.539954 -0.793144)
(-0.420734 0.437043 -0.79497)
(-0.574879 0.190346 -0.795791)
(-0.574879 -0.190346 -0.795791)
(-0.420734 -0.437043 -0.79497)
(-0.28173 -0.539954 -0.793144)
(-0.179942 -0.586297 -0.789859)
(-0.098293 -0.61274 -0.784148)
(-0.022201 -0.63282 -0.773981)
(0.0600362 -0.652939 -0.755028)
(0.155641 -0.676391 -0.71991)
(0.242792 -0.698247 -0.673427)
(0.242792 -0.698247 -0.673427)
(0.155641 -0.676391 -0.71991)
(0.0600362 -0.652939 -0.755028)
(-0.022201 -0.63282 -0.773981)
(-0.098293 -0.61274 -0.784148)
(-0.179942 -0.586297 -0.789859)
(-0.28173 -0.539954 -0.793144)
(-0.420734 -0.437043 -0.79497)
(-0.574879 -0.190346 -0.795791)
(-0.090044 0.384266 0.918821)
(-0.0831939 0.389818 0.917127)
(-0.117109 0.390058 0.913313)
(-0.163335 0.389803 0.906298)
(-0.223467 0.389258 0.893611)
(-0.305766 0.388312 0.869322)
(-0.427535 0.386729 0.817101)
(-0.619281 0.384016 0.684853)
(-0.868056 0.380337 0.319096)
(-0.868056 0.380337 0.319096)
(-0.619281 0.384016 0.684853)
(-0.427535 0.386729 0.817101)
(-0.305766 0.388312 0.869322)
(-0.223467 0.389258 0.893611)
(-0.163335 0.389803 0.906298)
(-0.117109 0.390058 0.913313)
(-0.0831939 0.389818 0.917127)
(-0.090044 0.384266 0.918821)
(-0.090044 -0.384266 0.918821)
(-0.0831939 -0.389818 0.917127)
(-0.117109 -0.390058 0.913313)
(-0.163335 -0.389803 0.906298)
(-0.223467 -0.389258 0.893611)
(-0.305766 -0.388312 0.869322)
(-0.427535 -0.386729 0.817101)
(-0.619281 -0.384016 0.684853)
(-0.868056 -0.380337 0.319096)
(-0.868056 -0.380337 0.319096)
(-0.619281 -0.384016 0.684853)
(-0.427535 -0.386729 0.817101)
(-0.305766 -0.388312 0.869322)
(-0.223467 -0.389258 0.893611)
(-0.163335 -0.389803 0.906298)
(-0.117109 -0.390058 0.913313)
(-0.0831939 -0.389818 0.917127)
(-0.090044 -0.384266 0.918821)
(-0.230388 0.954166 0.191019)
(-0.0892773 0.977573 0.190736)
(-0.0671527 0.979467 0.190094)
(-0.0639561 0.97991 0.188909)
(-0.0690354 0.979979 0.186748)
(-0.0810727 0.979843 0.182576)
(-0.102625 0.979491 0.173395)
(-0.140686 0.978789 0.148927)
(-0.196739 0.977703 0.0734256)
(-0.196739 0.977703 0.0734256)
(-0.140686 0.978789 0.148927)
(-0.102625 0.979491 0.173395)
(-0.0810727 0.979843 0.182576)
(-0.0690354 0.979979 0.186748)
(-0.0639561 0.97991 0.188909)
(-0.0671527 0.979467 0.190094)
(-0.0892773 0.977573 0.190736)
(-0.230388 0.954166 0.191019)
(-0.230388 -0.954166 0.191019)
(-0.0892773 -0.977573 0.190736)
(-0.0671527 -0.979467 0.190094)
(-0.0639561 -0.97991 0.188909)
(-0.0690354 -0.979979 0.186748)
(-0.0810727 -0.979843 0.182576)
(-0.102625 -0.979491 0.173395)
(-0.140686 -0.978789 0.148927)
(-0.196739 -0.977703 0.0734256)
(-0.196739 -0.977703 0.0734256)
(-0.140686 -0.978789 0.148927)
(-0.102625 -0.979491 0.173395)
(-0.0810727 -0.979843 0.182576)
(-0.0690354 -0.979979 0.186748)
(-0.0639561 -0.97991 0.188909)
(-0.0671527 -0.979467 0.190094)
(-0.0892773 -0.977573 0.190736)
(-0.230388 -0.954166 0.191019)
(-0.171369 0.586428 -0.791666)
(-0.0250781 0.611589 -0.790778)
(0.0290424 0.613997 -0.788774)
(0.0735065 0.615041 -0.785062)
(0.121769 0.616013 -0.778268)
(0.183711 0.617326 -0.764957)
(0.275831 0.619464 -0.73497)
(0.434243 0.623423 -0.650213)
(0.693894 0.630197 -0.348371)
(0.693894 0.630197 -0.348371)
(0.434243 0.623423 -0.650213)
(0.275831 0.619464 -0.73497)
(0.183711 0.617326 -0.764957)
(0.121769 0.616013 -0.778268)
(0.0735065 0.615041 -0.785062)
(0.0290424 0.613997 -0.788774)
(-0.0250781 0.611589 -0.790778)
(-0.171369 0.586428 -0.791666)
(-0.171369 -0.586428 -0.791666)
(-0.0250781 -0.611589 -0.790778)
(0.0290424 -0.613997 -0.788774)
(0.0735065 -0.615041 -0.785062)
(0.121769 -0.616013 -0.778268)
(0.183711 -0.617326 -0.764957)
(0.275831 -0.619464 -0.73497)
(0.434243 -0.623423 -0.650213)
(0.693894 -0.630197 -0.348371)
(0.693894 -0.630197 -0.348371)
(0.434243 -0.623423 -0.650213)
(0.275831 -0.619464 -0.73497)
(0.183711 -0.617326 -0.764957)
(0.121769 -0.616013 -0.778268)
(0.0735065 -0.615041 -0.785062)
(0.0290424 -0.613997 -0.788774)
(-0.0250781 -0.611589 -0.790778)
(-0.171369 -0.586428 -0.791666)
(0.355564 0.185105 0.916139)
(0.189189 0.357597 0.914512)
(0.0720492 0.406338 0.910878)
(-0.0156177 0.426652 0.904281)
(-0.0968433 0.440256 0.892634)
(-0.186674 0.453885 0.871287)
(-0.30008 0.471459 0.829264)
(-0.450679 0.495997 0.74221)
(-0.605125 0.522117 0.601014)
(-0.605125 0.522117 0.601014)
(-0.450679 0.495997 0.74221)
(-0.30008 0.471459 0.829264)
(-0.186674 0.453885 0.871287)
(-0.0968433 0.440256 0.892634)
(-0.0156177 0.426652 0.904281)
(0.0720492 0.406338 0.910878)
(0.189189 0.357597 0.914512)
(0.355564 0.185105 0.916139)
(0.355564 -0.185105 0.916139)
(0.189189 -0.357597 0.914512)
(0.0720492 -0.406338 0.910878)
(-0.0156177 -0.426652 0.904281)
(-0.0968433 -0.440256 0.892634)
(-0.186674 -0.453885 0.871287)
(-0.30008 -0.471459 0.829264)
(-0.450679 -0.495997 0.74221)
(-0.605125 -0.522117 0.601014)
(-0.605125 -0.522117 0.601014)
(-0.450679 -0.495997 0.74221)
(-0.30008 -0.471459 0.829264)
(-0.186674 -0.453885 0.871287)
(-0.0968433 -0.440256 0.892634)
(-0.0156177 -0.426652 0.904281)
(0.0720492 -0.406338 0.910878)
(0.189189 -0.357597 0.914512)
(0.355564 -0.185105 0.916139)
(0.900513 0.389251 0.193802)
(0.598069 0.777729 0.193524)
(0.408828 0.891991 0.192904)
(0.301741 0.933902 0.191779)
(0.233667 0.953614 0.189788)
(0.184189 0.965107 0.186125)
(0.142249 0.973534 0.178874)
(0.100882 0.981334 0.163725)
(0.064168 0.988209 0.139017)
(0.064168 0.988209 0.139017)
(0.100882 0.981334 0.163725)
(0.142249 0.973534 0.178874)
(0.184189 0.965107 0.186125)
(0.233667 0.953614 0.189788)
(0.301741 0.933902 0.191779)
(0.408828 0.891991 0.192904)
(0.598069 0.777729 0.193524)
(0.900513 0.389251 0.193802)
(0.900513 -0.389251 0.193802)
(0.598069 -0.777729 0.193524)
(0.408828 -0.891991 0.192904)
(0.301741 -0.933902 0.191779)
(0.233667 -0.953614 0.189788)
(0.184189 -0.965107 0.186125)
(0.142249 -0.973534 0.178874)
(0.100882 -0.981334 0.163725)
(0.064168 -0.988209 0.139017)
(0.064168 -0.988209 0.139017)
(0.100882 -0.981334 0.163725)
(0.142249 -0.973534 0.178874)
(0.184189 -0.965107 0.186125)
(0.233667 -0.953614 0.189788)
(0.301741 -0.933902 0.191779)
(0.408828 -0.891991 0.192904)
(0.598069 -0.777729 0.193524)
(0.900513 -0.389251 0.193802)
(0.576759 0.213425 -0.788543)
(0.429026 0.442114 -0.7877)
(0.344459 0.513651 -0.785818)
(0.3139 0.537891 -0.782394)
(0.31623 0.545262 -0.77633)
(0.344852 0.543693 -0.765164)
(0.402825 0.534509 -0.742989)
(0.498076 0.51661 -0.696444)
(0.608525 0.494583 -0.620553)
(0.608525 0.494583 -0.620553)
(0.498076 0.51661 -0.696444)
(0.402825 0.534509 -0.742989)
(0.344852 0.543693 -0.765164)
(0.31623 0.545262 -0.77633)
(0.3139 0.537891 -0.782394)
(0.344459 0.513651 -0.785818)
(0.429026 0.442114 -0.7877)
(0.576759 0.213425 -0.788543)
(0.576759 -0.213425 -0.788543)
(0.429026 -0.442114 -0.7877)
(0.344459 -0.513651 -0.785818)
(0.3139 -0.537891 -0.782394)
(0.31623 -0.545262 -0.77633)
(0.344852 -0.543693 -0.765164)
(0.402825 -0.534509 -0.742989)
(0.498076 -0.51661 -0.696444)
(0.608525 -0.494583 -0.620553)
(0.608525 -0.494583 -0.620553)
(0.498076 -0.51661 -0.696444)
(0.402825 -0.534509 -0.742989)
(0.344852 -0.543693 -0.765164)
(0.31623 -0.545262 -0.77633)
(0.3139 -0.537891 -0.782394)
(0.344459 -0.513651 -0.785818)
(0.429026 -0.442114 -0.7877)
(0.576759 -0.213425 -0.788543)
(0.392959 0.104373 0.913613)
(0.31084 0.267048 0.912175)
(0.210501 0.359663 0.909028)
(0.119185 0.411627 0.903525)
(0.0360398 0.445736 0.894439)
(-0.0454569 0.47358 0.879577)
(-0.130453 0.500793 0.85568)
(-0.216269 0.528282 0.821064)
(-0.279161 0.548767 0.787987)
(-0.279161 0.548767 0.787987)
(-0.216269 0.528282 0.821064)
(-0.130453 0.500793 0.85568)
(-0.0454569 0.47358 0.879577)
(0.0360398 0.445736 0.894439)
(0.119185 0.411627 0.903525)
(0.210501 0.359663 0.909028)
(0.31084 0.267048 0.912175)
(0.392959 0.104373 0.913613)
(0.392959 -0.104373 0.913613)
(0.31084 -0.267048 0.912175)
(0.210501 -0.359663 0.909028)
(0.119185 -0.411627 0.903525)
(0.0360398 -0.445736 0.894439)
(-0.0454569 -0.47358 0.879577)
(-0.130453 -0.500793 0.85568)
(-0.216269 -0.528282 0.821064)
(-0.279161 -0.548767 0.787987)
(-0.279161 -0.548767 0.787987)
(-0.216269 -0.528282 0.821064)
(-0.130453 -0.500793 0.85568)
(-0.0454569 -0.47358 0.879577)
(0.0360398 -0.445736 0.894439)
(0.119185 -0.411627 0.903525)
(0.210501 -0.359663 0.909028)
(0.31084 -0.267048 0.912175)
(0.392959 -0.104373 0.913613)
(0.960162 0.197557 0.197635)
(0.835132 0.513412 0.197389)
(0.68757 0.698926 0.196849)
(0.568104 0.799297 0.195913)
(0.479765 0.855594 0.194383)
(0.414734 0.889476 0.191906)
(0.366087 0.91139 0.188012)
(0.330408 0.926015 0.182555)
(0.309665 0.934125 0.177535)
(0.309665 0.934125 0.177535)
(0.330408 0.926015 0.182555)
(0.366087 0.91139 0.188012)
(0.414734 0.889476 0.191906)
(0.479765 0.855594 0.194383)
(0.568104 0.799297 0.195913)
(0.68757 0.698926 0.196849)
(0.835132 0.513412 0.197389)
(0.960162 0.197557 0.197635)
(0.960162 -0.197557 0.197635)
(0.835132 -0.513412 0.197389)
(0.68757 -0.698926 0.196849)
(0.568104 -0.799297 0.195913)
(0.479765 -0.855594 0.194383)
(0.414734 -0.889476 0.191906)
(0.366087 -0.91139 0.188012)
(0.330408 -0.926015 0.182555)
(0.309665 -0.934125 0.177535)
(0.309665 -0.934125 0.177535)
(0.330408 -0.926015 0.182555)
(0.366087 -0.91139 0.188012)
(0.414734 -0.889476 0.191906)
(0.479765 -0.855594 0.194383)
(0.568104 -0.799297 0.195913)
(0.68757 -0.698926 0.196849)
(0.835132 -0.513412 0.197389)
(0.960162 -0.197557 0.197635)
(0.611281 0.101012 -0.784941)
(0.56021 0.266738 -0.784229)
(0.502036 0.367935 -0.782677)
(0.462188 0.421885 -0.779997)
(0.44458 0.448011 -0.775652)
(0.447051 0.457323 -0.768766)
(0.466556 0.455431 -0.758227)
(0.496913 0.446618 -0.74405)
(0.522536 0.437866 -0.731594)
(0.522536 0.437866 -0.731594)
(0.496913 0.446618 -0.74405)
(0.466556 0.455431 -0.758227)
(0.447051 0.457323 -0.768766)
(0.44458 0.448011 -0.775652)
(0.462188 0.421885 -0.779997)
(0.502036 0.367935 -0.782677)
(0.56021 0.266738 -0.784229)
(0.611281 0.101012 -0.784941)
(0.611281 -0.101012 -0.784941)
(0.56021 -0.266738 -0.784229)
(0.502036 -0.367935 -0.782677)
(0.462188 -0.421885 -0.779997)
(0.44458 -0.448011 -0.775652)
(0.447051 -0.457323 -0.768766)
(0.466556 -0.455431 -0.758227)
(0.496913 -0.446618 -0.74405)
(0.522536 -0.437866 -0.731594)
(0.522536 -0.437866 -0.731594)
(0.496913 -0.446618 -0.74405)
(0.466556 -0.455431 -0.758227)
(0.447051 -0.457323 -0.768766)
(0.44458 -0.448011 -0.775652)
(0.462188 -0.421885 -0.779997)
(0.502036 -0.367935 -0.782677)
(0.56021 -0.266738 -0.784229)
(0.611281 -0.101012 -0.784941)
(0.404339 0.0735285 0.911649)
(0.35962 0.204292 0.91046)
(0.291388 0.301272 0.907925)
(0.218271 0.368347 0.903702)
(0.147868 0.415988 0.897267)
(0.0817228 0.452569 0.887977)
(0.0208133 0.482624 0.87558)
(-0.0302558 0.506623 0.861636)
(-0.0611861 0.520952 0.85139)
(-0.0611861 0.520952 0.85139)
(-0.0302558 0.506623 0.861636)
(0.0208133 0.482624 0.87558)
(0.0817228 0.452569 0.887977)
(0.147868 0.415988 0.897267)
(0.218271 0.368347 0.903702)
(0.291388 0.301272 0.907925)
(0.35962 0.204292 0.91046)
(0.404339 0.0735285 0.911649)
(0.404339 -0.0735285 0.911649)
(0.35962 -0.204292 0.91046)
(0.291388 -0.301272 0.907925)
(0.218271 -0.368347 0.903702)
(0.147868 -0.415988 0.897267)
(0.0817228 -0.452569 0.887977)
(0.0208133 -0.482624 0.87558)
(-0.0302558 -0.506623 0.861636)
(-0.0611861 -0.520952 0.85139)
(-0.0611861 -0.520952 0.85139)
(-0.0302558 -0.506623 0.861636)
(0.0208133 -0.482624 0.87558)
(0.0817228 -0.452569 0.887977)
(0.147868 -0.415988 0.897267)
(0.218271 -0.368347 0.903702)
(0.291388 -0.301272 0.907925)
(0.35962 -0.204292 0.91046)
(0.404339 -0.0735285 0.911649)
(0.970333 0.129656 0.204064)
(0.909493 0.362305 0.203858)
(0.818804 0.536824 0.203422)
(0.727689 0.655273 0.202698)
(0.649751 0.732923 0.201614)
(0.588038 0.783695 0.200082)
(0.54186 0.816789 0.198099)
(0.510427 0.8373 0.195943)
(0.494179 0.847344 0.194408)
(0.494179 0.847344 0.194408)
(0.510427 0.8373 0.195943)
(0.54186 0.816789 0.198099)
(0.588038 0.783695 0.200082)
(0.649751 0.732923 0.201614)
(0.727689 0.655273 0.202698)
(0.818804 0.536824 0.203422)
(0.909493 0.362305 0.203858)
(0.970333 0.129656 0.204064)
(0.970333 -0.129656 0.204064)
(0.909493 -0.362305 0.203858)
(0.818804 -0.536824 0.203422)
(0.727689 -0.655273 0.202698)
(0.649751 -0.732923 0.201614)
(0.588038 -0.783695 0.200082)
(0.54186 -0.816789 0.198099)
(0.510427 -0.8373 0.195943)
(0.494179 -0.847344 0.194408)
(0.494179 -0.847344 0.194408)
(0.510427 -0.8373 0.195943)
(0.54186 -0.816789 0.198099)
(0.588038 -0.783695 0.200082)
(0.649751 -0.732923 0.201614)
(0.727689 -0.655273 0.202698)
(0.818804 -0.536824 0.203422)
(0.909493 -0.362305 0.203858)
(0.970333 -0.129656 0.204064)
(0.622006 0.0636082 -0.780424)
(0.599865 0.1788 -0.779867)
(0.567997 0.266498 -0.77869)
(0.539143 0.325496 -0.776774)
(0.519869 0.361591 -0.773943)
(0.5116 0.381175 -0.770046)
(0.512693 0.38945 -0.765163)
(0.519103 0.390935 -0.760067)
(0.524862 0.390044 -0.756562)
(0.524862 0.390044 -0.756562)
(0.519103 0.390935 -0.760067)
(0.512693 0.38945 -0.765163)
(0.5116 0.381175 -0.770046)
(0.519869 0.361591 -0.773943)
(0.539143 0.325496 -0.776774)
(0.567997 0.266498 -0.77869)
(0.599865 0.1788 -0.779867)
(0.622006 0.0636082 -0.780424)
(0.622006 -0.0636082 -0.780424)
(0.599865 -0.1788 -0.779867)
(0.567997 -0.266498 -0.77869)
(0.539143 -0.325496 -0.776774)
(0.519869 -0.361591 -0.773943)
(0.5116 -0.381175 -0.770046)
(0.512693 -0.38945 -0.765163)
(0.519103 -0.390935 -0.760067)
(0.524862 -0.390044 -0.756562)
(0.524862 -0.390044 -0.756562)
(0.519103 -0.390935 -0.760067)
(0.512693 -0.38945 -0.765163)
(0.5116 -0.381175 -0.770046)
(0.519869 -0.361591 -0.773943)
(0.539143 -0.325496 -0.776774)
(0.567997 -0.266498 -0.77869)
(0.599865 -0.1788 -0.779867)
(0.622006 -0.0636082 -0.780424)
(0.409709 0.0563423 0.910475)
(0.382893 0.161651 0.909539)
(0.337785 0.249344 0.907595)
(0.28467 0.31753 0.90451)
(0.230794 0.36943 0.900142)
(0.180347 0.409166 0.89446)
(0.136414 0.439473 0.887837)
(0.102757 0.46097 0.881447)
(0.0840787 0.472461 0.877332)
(0.0840787 0.472461 0.877332)
(0.102757 0.46097 0.881447)
(0.136414 0.439473 0.887837)
(0.180347 0.409166 0.89446)
(0.230794 0.36943 0.900142)
(0.28467 0.31753 0.90451)
(0.337785 0.249344 0.907595)
(0.382893 0.161651 0.909539)
(0.409709 0.0563423 0.910475)
(0.409709 -0.0563423 0.910475)
(0.382893 -0.161651 0.909539)
(0.337785 -0.249344 0.907595)
(0.28467 -0.31753 0.90451)
(0.230794 -0.36943 0.900142)
(0.180347 -0.409166 0.89446)
(0.136414 -0.439473 0.887837)
(0.102757 -0.46097 0.881447)
(0.0840787 -0.472461 0.877332)
(0.0840787 -0.472461 0.877332)
(0.102757 -0.46097 0.881447)
(0.136414 -0.439473 0.887837)
(0.180347 -0.409166 0.89446)
(0.230794 -0.36943 0.900142)
(0.28467 -0.31753 0.90451)
(0.337785 -0.249344 0.907595)
(0.382893 -0.161651 0.909539)
(0.409709 -0.0563423 0.910475)
(0.972101 0.0945663 0.214656)
(0.938154 0.271775 0.214491)
(0.882103 0.419567 0.214146)
(0.818793 0.532871 0.213602)
(0.759002 0.615315 0.212846)
(0.708367 0.673292 0.211882)
(0.669242 0.712519 0.210789)
(0.642605 0.736926 0.209762)
(0.629074 0.748691 0.209113)
(0.629074 0.748691 0.209113)
(0.642605 0.736926 0.209762)
(0.669242 0.712519 0.210789)
(0.708367 0.673292 0.211882)
(0.759002 0.615315 0.212846)
(0.818793 0.532871 0.213602)
(0.882103 0.419567 0.214146)
(0.938154 0.271775 0.214491)
(0.972101 0.0945663 0.214656)
(0.972101 -0.0945663 0.214656)
(0.938154 -0.271775 0.214491)
(0.882103 -0.419567 0.214146)
(0.818793 -0.532871 0.213602)
(0.759002 -0.615315 0.212846)
(0.708367 -0.673292 0.211882)
(0.669242 -0.712519 0.210789)
(0.642605 -0.736926 0.209762)
(0.629074 -0.748691 0.209113)
(0.629074 -0.748691 0.209113)
(0.642605 -0.736926 0.209762)
(0.669242 -0.712519 0.210789)
(0.708367 -0.673292 0.211882)
(0.759002 -0.615315 0.212846)
(0.818793 -0.532871 0.213602)
(0.882103 -0.419567 0.214146)
(0.938154 -0.271775 0.214491)
(0.972101 -0.0945663 0.214656)
(0.63073 0.0453498 -0.774676)
(0.619251 0.130582 -0.774259)
(0.600891 0.201927 -0.773405)
(0.58161 0.256154 -0.772085)
(0.565805 0.294176 -0.770277)
(0.555429 0.318796 -0.768029)
(0.550352 0.333244 -0.765546)
(0.548991 0.340598 -0.763283)
(0.549134 0.343475 -0.76189)
(0.549134 0.343475 -0.76189)
(0.548991 0.340598 -0.763283)
(0.550352 0.333244 -0.765546)
(0.555429 0.318796 -0.768029)
(0.565805 0.294176 -0.770277)
(0.58161 0.256154 -0.772085)
(0.600891 0.201927 -0.773405)
(0.619251 0.130582 -0.774259)
(0.63073 0.0453498 -0.774676)
(0.63073 -0.0453498 -0.774676)
(0.619251 -0.130582 -0.774259)
(0.600891 -0.201927 -0.773405)
(0.58161 -0.256154 -0.772085)
(0.565805 -0.294176 -0.770277)
(0.555429 -0.318796 -0.768029)
(0.550352 -0.333244 -0.765546)
(0.548991 -0.340598 -0.763283)
(0.549134 -0.343475 -0.76189)
(0.549134 -0.343475 -0.76189)
(0.548991 -0.340598 -0.763283)
(0.550352 -0.333244 -0.765546)
(0.555429 -0.318796 -0.768029)
(0.565805 -0.294176 -0.770277)
(0.58161 -0.256154 -0.772085)
(0.600891 -0.201927 -0.773405)
(0.619251 -0.130582 -0.774259)
(0.63073 -0.0453498 -0.774676)
(0.411505 0.0447062 0.91031)
(0.39455 0.130213 0.909602)
(0.364633 0.205639 0.908161)
(0.327476 0.268291 0.905969)
(0.288351 0.318373 0.903046)
(0.251333 0.357317 0.899531)
(0.219654 0.3864 0.895794)
(0.196231 0.406101 0.892511)
(0.183686 0.416165 0.890543)
(0.183686 0.416165 0.890543)
(0.196231 0.406101 0.892511)
(0.219654 0.3864 0.895794)
(0.251333 0.357317 0.899531)
(0.288351 0.318373 0.903046)
(0.327476 0.268291 0.905969)
(0.364633 0.205639 0.908161)
(0.39455 0.130213 0.909602)
(0.411505 0.0447062 0.91031)
(0.411505 -0.0447062 0.91031)
(0.39455 -0.130213 0.909602)
(0.364633 -0.205639 0.908161)
(0.327476 -0.268291 0.905969)
(0.288351 -0.318373 0.903046)
(0.251333 -0.357317 0.899531)
(0.219654 -0.3864 0.895794)
(0.196231 -0.406101 0.892511)
(0.183686 -0.416165 0.890543)
(0.183686 -0.416165 0.890543)
(0.196231 -0.406101 0.892511)
(0.219654 -0.3864 0.895794)
(0.251333 -0.357317 0.899531)
(0.288351 -0.318373 0.903046)
(0.327476 -0.268291 0.905969)
(0.364633 -0.205639 0.908161)
(0.39455 -0.130213 0.909602)
(0.411505 -0.0447062 0.91031)
(0.970081 0.0725946 0.231673)
(0.949565 0.21146 0.231542)
(0.913881 0.333672 0.231267)
(0.870806 0.434053 0.230858)
(0.827435 0.512158 0.230317)
(0.788781 0.570151 0.229681)
(0.75789 0.610864 0.229016)
(0.736495 0.636701 0.228445)
(0.725569 0.649245 0.228103)
(0.725569 0.649245 0.228103)
(0.736495 0.636701 0.228445)
(0.75789 0.610864 0.229016)
(0.788781 0.570151 0.229681)
(0.827435 0.512158 0.230317)
(0.870806 0.434053 0.230858)
(0.913881 0.333672 0.231267)
(0.949565 0.21146 0.231542)
(0.970081 0.0725946 0.231673)
(0.970081 -0.0725946 0.231673)
(0.949565 -0.21146 0.231542)
(0.913881 -0.333672 0.231267)
(0.870806 -0.434053 0.230858)
(0.827435 -0.512158 0.230317)
(0.788781 -0.570151 0.229681)
(0.75789 -0.610864 0.229016)
(0.736495 -0.636701 0.228445)
(0.725569 -0.649245 0.228103)
(0.725569 -0.649245 0.228103)
(0.736495 -0.636701 0.228445)
(0.75789 -0.610864 0.229016)
(0.788781 -0.570151 0.229681)
(0.827435 -0.512158 0.230317)
(0.870806 -0.434053 0.230858)
(0.913881 -0.333672 0.231267)
(0.949565 -0.21146 0.231542)
(0.970081 -0.0725946 0.231673)
(0.640566 0.0345809 -0.767124)
(0.633901 0.100765 -0.766822)
(0.622605 0.158972 -0.766219)
(0.609652 0.206417 -0.765321)
(0.597688 0.242548 -0.764159)
(0.588328 0.268308 -0.762811)
(0.582063 0.285337 -0.761436)
(0.578549 0.295405 -0.760275)
(0.577066 0.300006 -0.759599)
(0.577066 0.300006 -0.759599)
(0.578549 0.295405 -0.760275)
(0.582063 0.285337 -0.761436)
(0.588328 0.268308 -0.762811)
(0.597688 0.242548 -0.764159)
(0.609652 0.206417 -0.765321)
(0.622605 0.158972 -0.766219)
(0.633901 0.100765 -0.766822)
(0.640566 0.0345809 -0.767124)
(0.640566 -0.0345809 -0.767124)
(0.633901 -0.100765 -0.766822)
(0.622605 -0.158972 -0.766219)
(0.609652 -0.206417 -0.765321)
(0.597688 -0.242548 -0.764159)
(0.588328 -0.268308 -0.762811)
(0.582063 -0.285337 -0.761436)
(0.578549 -0.295405 -0.760275)
(0.577066 -0.300006 -0.759599)
(0.577066 -0.300006 -0.759599)
(0.578549 -0.295405 -0.760275)
(0.582063 -0.285337 -0.761436)
(0.588328 -0.268308 -0.762811)
(0.597688 -0.242548 -0.764159)
(0.609652 -0.206417 -0.765321)
(0.622605 -0.158972 -0.766219)
(0.633901 -0.100765 -0.766822)
(0.640566 -0.0345809 -0.767124)
(0.40934 0.0358468 0.911677)
(0.398392 0.105245 0.911157)
(0.378573 0.168424 0.910119)
(0.35317 0.222997 0.908594)
(0.325726 0.268115 0.906651)
(0.299413 0.303859 0.904446)
(0.276917 0.330573 0.902241)
(0.260456 0.348442 0.900417)
(0.25175 0.357435 0.899368)
(0.25175 0.357435 0.899368)
(0.260456 0.348442 0.900417)
(0.276917 0.330573 0.902241)
(0.299413 0.303859 0.904446)
(0.325726 0.268115 0.906651)
(0.35317 0.222997 0.908594)
(0.378573 0.168424 0.910119)
(0.398392 0.105245 0.911157)
(0.40934 0.0358468 0.911677)
(0.40934 -0.0358468 0.911677)
(0.398392 -0.105245 0.911157)
(0.378573 -0.168424 0.910119)
(0.35317 -0.222997 0.908594)
(0.325726 -0.268115 0.906651)
(0.299413 -0.303859 0.904446)
(0.276917 -0.330573 0.902241)
(0.260456 -0.348442 0.900417)
(0.25175 -0.357435 0.899368)
(0.25175 -0.357435 0.899368)
(0.260456 -0.348442 0.900417)
(0.276917 -0.330573 0.902241)
(0.299413 -0.303859 0.904446)
(0.325726 -0.268115 0.906651)
(0.35317 -0.222997 0.908594)
(0.378573 -0.168424 0.910119)
(0.398392 -0.105245 0.911157)
(0.40934 -0.0358468 0.911677)
(0.964618 0.0570898 0.257398)
(0.951701 0.167536 0.257289)
(0.92856 0.267751 0.257072)
(0.899479 0.353571 0.256761)
(0.868943 0.423339 0.256363)
(0.840705 0.4772 0.25592)
(0.8175 0.516164 0.255479)
(0.801132 0.541387 0.255122)
(0.792692 0.553765 0.254918)
(0.792692 0.553765 0.254918)
(0.801132 0.541387 0.255122)
(0.8175 0.516164 0.255479)
(0.840705 0.4772 0.25592)
(0.868943 0.423339 0.256363)
(0.899479 0.353571 0.256761)
(0.92856 0.267751 0.257072)
(0.951701 0.167536 0.257289)
(0.964618 0.0570898 0.257398)
(0.964618 -0.0570898 0.257398)
(0.951701 -0.167536 0.257289)
(0.92856 -0.267751 0.257072)
(0.899479 -0.353571 0.256761)
(0.868943 -0.423339 0.256363)
(0.840705 -0.4772 0.25592)
(0.8175 -0.516164 0.255479)
(0.801132 -0.541387 0.255122)
(0.792692 -0.553765 0.254918)
(0.792692 -0.553765 0.254918)
(0.801132 -0.541387 0.255122)
(0.8175 -0.516164 0.255479)
(0.840705 -0.4772 0.25592)
(0.868943 -0.423339 0.256363)
(0.899479 -0.353571 0.256761)
(0.92856 -0.267751 0.257072)
(0.951701 -0.167536 0.257289)
(0.964618 -0.0570898 0.257398)
(0.652684 0.0274079 -0.757134)
(0.64854 0.080413 -0.756921)
(0.641258 0.12841 -0.756504)
(0.63243 0.16926 -0.755899)
(0.623645 0.20204 -0.755147)
(0.616086 0.226808 -0.754319)
(0.610385 0.244222 -0.753515)
(0.606703 0.255158 -0.752865)
(0.604927 0.260397 -0.7525)
(0.604927 0.260397 -0.7525)
(0.606703 0.255158 -0.752865)
(0.610385 0.244222 -0.753515)
(0.616086 0.226808 -0.754319)
(0.623645 0.20204 -0.755147)
(0.63243 0.16926 -0.755899)
(0.641258 0.12841 -0.756504)
(0.64854 0.080413 -0.756921)
(0.652684 0.0274079 -0.757134)
(0.652684 -0.0274079 -0.757134)
(0.64854 -0.080413 -0.756921)
(0.641258 -0.12841 -0.756504)
(0.63243 -0.16926 -0.755899)
(0.623645 -0.20204 -0.755147)
(0.616086 -0.226808 -0.754319)
(0.610385 -0.244222 -0.753515)
(0.606703 -0.255158 -0.752865)
(0.604927 -0.260397 -0.7525)
(0.604927 -0.260397 -0.7525)
(0.606703 -0.255158 -0.752865)
(0.610385 -0.244222 -0.753515)
(0.616086 -0.226808 -0.754319)
(0.623645 -0.20204 -0.755147)
(0.63243 -0.16926 -0.755899)
(0.641258 -0.12841 -0.756504)