/*--------------------------------*- C++ -*----------------------------------*\
| =========                 |                                                 |
| \\      /  F ield         | OpenFOAM: The Open Source CFD Toolbox           |
|  \\    /   O peration     | Version:  2312                                  |
|   \\  /    A nd           | Website:  www.openfoam.com                      |
|    \\/     M anipulation  |                                                 |
\*---------------------------------------------------------------------------*/
FoamFile
{
    version     2.0;
    format      ascii;
    arch        "LSB;label=32;scalar=64";
    class       volScalarField;
    location    "0";
    object      u;
}
// * * * * * * * * * * * * * * * * * * * * * * * * * * * * * * * * * * * * * //

dimensions      [0 0 0 0 0 0 0];

internalField   nonuniform List<scalar> 
1620
(
1.53167
1.45208
1.36837
1.27759
1.17672
1.0637
0.940477
0.820704
0.73941
0.73941
0.820704
0.940477
1.0637
1.17672
1.27759
1.36837
1.45208
1.53167
1.60992
1.68951
1.77322
1.86401
1.96487
2.07789
2.20112
2.32089
2.40218
2.40218
2.32089
2.20112
2.07789
1.96487
1.86401
1.77322
1.68951
1.60992
1.5344
1.46039
1.38273
1.29884
1.20627
1.10362
0.993548
0.889071
0.820049
0.820049
0.889071
0.993548
1.10362
1.20627
1.29884
1.38273
1.46039
1.5344
1.6072
1.6812
1.75886
1.84275
1.93533
2.03797
2.14804
2.25252
2.32154
2.32154
2.25252
2.14804
2.03797
1.93533
1.84275
1.75886
1.6812
1.6072
1.53777
1.47069
1.40053
1.3252
1.24287
1.15293
1.05855
0.971526
0.915715
0.915715
0.971526
1.05855
1.15293
1.24287
1.3252
1.40053
1.47069
1.53777
1.60382
1.6709
1.74106
1.81639
1.89872
1.98866
2.08304
2.17007
2.22588
2.22588
2.17007
2.08304
1.98866
1.89872
1.81639
1.74106
1.6709
1.60382
1.52897
1.44349
1.35234
1.25092
1.13336
0.99243
0.821313
0.624068
0.454167
0.454167
0.624068
0.821313
0.99243
1.13336
1.25092
1.35234
1.44349
1.52897
1.61263
1.6981
1.78925
1.89068
2.00823
2.14916
2.32028
2.51753
2.68743
2.68743
2.51753
2.32028
2.14916
2.00823
1.89068
1.78925
1.6981
1.61263
1.53138
1.45083
1.36485
1.26903
1.15774
1.02396
0.86124
0.674522
0.517371
0.517371
0.674522
0.86124
1.02396
1.15774
1.26903
1.36485
1.45083
1.53138
1.61021
1.69077
1.77675
1.87256
1.98385
2.11763
2.28035
2.46707
2.62422
2.62422
2.46707
2.28035
2.11763
1.98385
1.87256
1.77675
1.69077
1.61021
1.53441
1.46003
1.3806
1.29198
1.18892
1.06486
0.914043
0.742385
0.601685
0.601685
0.742385
0.914043
1.06486
1.18892
1.29198
1.3806
1.46003
1.53441
1.60718
1.68156
1.761
1.84961
1.95267
2.07673
2.22755
2.39921
2.53991
2.53991
2.39921
2.22755
2.07673
1.95267
1.84961
1.761
1.68156
1.60718
1.52795
1.44023
1.34614
1.24025
1.11517
0.960262
0.760846
0.501094
0.179517
0.179517
0.501094
0.760846
0.960262
1.11517
1.24025
1.34614
1.44023
1.52795
1.61365
1.70136
1.79546
1.90134
2.02642
2.18133
2.38075
2.6405
2.96208
2.96208
2.6405
2.38075
2.18133
2.02642
1.90134
1.79546
1.70136
1.61365
1.53017
1.44693
1.35742
1.25626
1.13589
0.985108
0.787648
0.524356
0.191118
0.191118
0.524356
0.787648
0.985108
1.13589
1.25626
1.35742
1.44693
1.53017
1.61143
1.69467
1.78417
1.88533
2.0057
2.15648
2.35394
2.61724
2.95047
2.95047
2.61724
2.35394
2.15648
2.0057
1.88533
1.78417
1.69467
1.61143
1.53297
1.45542
1.37179
1.27676
1.16269
1.01778
0.823812
0.556963
0.208916
0.208916
0.556963
0.823812
1.01778
1.16269
1.27676
1.37179
1.45542
1.53297
1.60862
1.68618
1.76981
1.86483
1.9789
2.12381
2.31778
2.58463
2.93268
2.93268
2.58463
2.31778
2.12381
1.9789
1.86483
1.76981
1.68618
1.60862
1.5287
1.44265
1.35074
1.24815
1.12865
0.984143
0.806067
0.594924
0.402488
0.402488
0.594924
0.806067
0.984143
1.12865
1.24815
1.35074
1.44265
1.5287
1.61289
1.69894
1.79086
1.89344
2.01295
2.15745
2.33553
2.54667
2.7391
2.7391
2.54667
2.33553
2.15745
2.01295
1.89344
1.79086
1.69894
1.61289
1.53097
1.44952
1.36238
1.26484
1.1507
1.01177
0.839075
0.632858
0.44622
0.44622
0.632858
0.839075
1.01177
1.1507
1.26484
1.36238
1.44952
1.53097
1.61062
1.69207
1.77921
1.87675
1.99089
2.12983
2.30252
2.50873
2.69537
2.69537
2.50873
2.30252
2.12983
1.99089
1.87675
1.77921
1.69207
1.61062
1.53385
1.45822
1.37718
1.28615
1.17907
1.04769
0.88265
0.683638
0.504309
0.504309
0.683638
0.88265
1.04769
1.17907
1.28615
1.37718
1.45822
1.53385
1.60775
1.68337
1.76442
1.85544
1.96252
2.0939
2.25894
2.45795
2.63728
2.63728
2.45795
2.25894
2.0939
1.96252
1.85544
1.76442
1.68337
1.60775
1.53102
1.45002
1.36461
1.27152
1.16728
1.04903
0.917731
0.786761
0.695235
0.695235
0.786761
0.917731
1.04903
1.16728
1.27152
1.36461
1.45002
1.53102
1.61058
1.69157
1.77698
1.87007
1.97431
2.09256
2.22386
2.35483
2.44636
2.44636
2.35483
2.22386
2.09256
1.97431
1.87007
1.77698
1.69157
1.61058
1.53348
1.45752
1.37746
1.29031
1.19291
1.08285
0.961476
0.841877
0.759677
0.759677
0.841877
0.961476
1.08285
1.19291
1.29031
1.37746
1.45752
1.53348
1.60811
1.68407
1.76413
1.85129
1.94868
2.05874
2.18012
2.29972
2.38192
2.38192
2.29972
2.18012
2.05874
1.94868
1.85129
1.76413
1.68407
1.60811
1.53657
1.46692
1.39359
1.31389
1.22511
1.12531
1.01625
0.910305
0.83878
0.83878
0.910305
1.01625
1.12531
1.22511
1.31389
1.39359
1.46692
1.53657
1.60502
1.67467
1.74801
1.8277
1.91648
2.01628
2.12535
2.23129
2.30281
2.30281
2.23129
2.12535
2.01628
1.91648
1.8277
1.74801
1.67467
1.60502
1.53439
1.46067
1.38424
1.30348
1.21734
1.12643
1.03526
0.955484
0.906654
0.906654
0.955484
1.03526
1.12643
1.21734
1.30348
1.38424
1.46067
1.53439
1.6072
1.68092
1.75735
1.83811
1.92425
2.01516
2.10634
2.18611
2.23494
2.23494
2.18611
2.10634
2.01516
1.92425
1.83811
1.75735
1.68092
1.6072
1.53703
1.46869
1.39803
1.32369
1.24495
1.16268
1.08128
1.0112
0.968936
0.968936
1.0112
1.08128
1.16268
1.24495
1.32369
1.39803
1.46869
1.53703
1.60457
1.6729
1.74356
1.8179
1.89664
1.97891
2.06031
2.13039
2.17266
2.17266
2.13039
2.06031
1.97891
1.89664
1.8179
1.74356
1.6729
1.60457
1.54027
1.47856
1.41494
1.34839
1.27851
1.20636
1.1361
1.07668
1.04141
1.04141
1.07668
1.1361
1.20636
1.27851
1.34839
1.41494
1.47856
1.54027
1.60133
1.66304
1.72665
1.7932
1.86309
1.93523
2.0055
2.06491
2.10018
2.10018
2.06491
2.0055
1.93523
1.86309
1.7932
1.72665
1.66304
1.60133
1.5383
1.47286
1.4062
1.33789
1.26829
1.19927
1.13524
1.0838
1.05448
1.05448
1.0838
1.13524
1.19927
1.26829
1.33789
1.4062
1.47286
1.5383
1.60329
1.66873
1.73539
1.8037
1.8733
1.94232
2.00635
2.0578
2.08711
2.08711
2.0578
2.00635
1.94232
1.8733
1.8037
1.73539
1.66873
1.60329
1.54097
1.48098
1.42007
1.35803
1.29536
1.23391
1.17768
1.13312
1.10801
1.10801
1.13312
1.17768
1.23391
1.29536
1.35803
1.42007
1.48098
1.54097
1.60062
1.66062
1.72152
1.78356
1.84623
1.90768
1.96391
2.00847
2.03359
2.03359
2.00847
1.96391
1.90768
1.84623
1.78356
1.72152
1.66062
1.60062
1.54419
1.49076
1.43673
1.38208
1.3274
1.27448
1.22677
1.18951
1.16876
1.16876
1.18951
1.22677
1.27448
1.3274
1.38208
1.43673
1.49076
1.54419
1.5974
1.65083
1.70486
1.75952
1.81419
1.86711
1.91483
1.95208
1.97283
1.97283
1.95208
1.91483
1.86711
1.81419
1.75952
1.70486
1.65083
1.5974
1.54235
1.48538
1.42825
1.37125
1.31533
1.2625
1.21613
1.18085
1.16158
1.16158
1.18085
1.21613
1.2625
1.31533
1.37125
1.42825
1.48538
1.54235
1.59924
1.65621
1.71334
1.77035
1.82626
1.87909
1.92546
1.96074
1.98002
1.98002
1.96074
1.92546
1.87909
1.82626
1.77035
1.71334
1.65621
1.59924
1.54491
1.49312
1.44138
1.39005
1.34011
1.2934
1.25285
1.22233
1.20578
1.20578
1.22233
1.25285
1.2934
1.34011
1.39005
1.44138
1.49312
1.54491
1.59668
1.64847
1.70021
1.75154
1.80148
1.84819
1.88874
1.91926
1.93582
1.93582
1.91926
1.88874
1.84819
1.80148
1.75154
1.70021
1.64847
1.59668
1.54797
1.50235
1.45694
1.4122
1.36905
1.32912
1.29487
1.26937
1.25565
1.25565
1.26937
1.29487
1.32912
1.36905
1.4122
1.45694
1.50235
1.54797
1.59363
1.63925
1.68465
1.72939
1.77254
1.81247
1.84672
1.87222
1.88595
1.88595
1.87222
1.84672
1.81247
1.77254
1.72939
1.68465
1.63925
1.59363
1.54634
1.49757
1.44931
1.4022
1.35734
1.31646
1.28194
1.25661
1.24312
1.24312
1.25661
1.28194
1.31646
1.35734
1.4022
1.44931
1.49757
1.54634
1.59525
1.64402
1.69229
1.7394
1.78425
1.82513
1.85965
1.88498
1.89847
1.89847
1.88498
1.85965
1.82513
1.78425
1.7394
1.69229
1.64402
1.59525
1.54867
1.5046
1.46112
1.4189
1.37896
1.34284
1.31261
1.29058
1.27891
1.27891
1.29058
1.31261
1.34284
1.37896
1.4189
1.46112
1.5046
1.54867
1.59292
1.63699
1.68047
1.7227
1.76264
1.79875
1.82899
1.85101
1.86268
1.86268
1.85101
1.82899
1.79875
1.76264
1.7227
1.68047
1.63699
1.59292
1.55145
1.51295
1.47509
1.43853
1.40418
1.37339
1.34782
1.32933
1.31959
1.31959
1.32933
1.34782
1.37339
1.40418
1.43853
1.47509
1.51295
1.55145
1.59014
1.62864
1.6665
1.70307
1.73741
1.76821
1.79378
1.81226
1.822
1.822
1.81226
1.79378
1.76821
1.73741
1.70307
1.6665
1.62864
1.59014
1.55018
1.5092
1.46909
1.43061
1.3948
1.36301
1.3369
1.3182
1.30841
1.30841
1.3182
1.3369
1.36301
1.3948
1.43061
1.46909
1.5092
1.55018
1.59142
1.63239
1.6725
1.71098
1.7468
1.77858
1.80469
1.82339
1.83318
1.83318
1.82339
1.80469
1.77858
1.7468
1.71098
1.6725
1.63239
1.59142
1.55221
1.51531
1.47927
1.44483
1.41294
1.3848
1.36182
1.34544
1.33689
1.33689
1.34544
1.36182
1.3848
1.41294
1.44483
1.47927
1.51531
1.55221
1.58938
1.62628
1.66232
1.69676
1.72865
1.75679
1.77978
1.79616
1.8047
1.8047
1.79616
1.77978
1.75679
1.72865
1.69676
1.66232
1.62628
1.58938
1.55465
1.52261
1.4914
1.46169
1.43433
1.41032
1.39083
1.37701
1.36983
1.36983
1.37701
1.39083
1.41032
1.43433
1.46169
1.4914
1.52261
1.55465
1.58695
1.61898
1.65019
1.6799
1.70727
1.73127
1.75076
1.76458
1.77177
1.77177
1.76458
1.75076
1.73127
1.70727
1.6799
1.65019
1.61898
1.58695
1.55386
1.52031
1.48773
1.4569
1.42871
1.40417
1.3844
1.37048
1.36328
1.36328
1.37048
1.3844
1.40417
1.42871
1.4569
1.48773
1.52031
1.55386
1.58773
1.62129
1.65386
1.68469
1.71289
1.73742
1.75719
1.77111
1.77832
1.77832
1.77111
1.75719
1.73742
1.71289
1.68469
1.65386
1.62129
1.58773
1.55556
1.52538
1.49614
1.46854
1.44339
1.42158
1.40408
1.3918
1.38545
1.38545
1.3918
1.40408
1.42158
1.44339
1.46854
1.49614
1.52538
1.55556
1.58603
1.61621
1.64545
1.67305
1.69821
1.72001
1.73751
1.7498
1.75614
1.75614
1.7498
1.73751
1.72001
1.69821
1.67305
1.64545
1.61621
1.58603
1.55762
1.53153
1.5063
1.48255
1.46098
1.44235
1.42746
1.41704
1.41166
1.41166
1.41704
1.42746
1.44235
1.46098
1.48255
1.5063
1.53153
1.55762
1.58398
1.61006
1.63529
1.65904
1.68062
1.69924
1.71414
1.72456
1.72993
1.72993
1.72456
1.71414
1.69924
1.68062
1.65904
1.63529
1.61006
1.58398
1.55744
1.53105
1.50559
1.48175
1.46022
1.44176
1.42709
1.41689
1.41165
1.41165
1.41689
1.42709
1.44176
1.46022
1.48175
1.50559
1.53105
1.55744
1.58415
1.61055
1.636
1.65985
1.68137
1.69983
1.7145
1.7247
1.72994
1.72994
1.7247
1.7145
1.69983
1.68137
1.65985
1.636
1.61055
1.58415
1.55879
1.53507
1.51222
1.49085
1.4716
1.45513
1.44207
1.433
1.42835
1.42835
1.433
1.44207
1.45513
1.4716
1.49085
1.51222
1.53507
1.55879
1.5828
1.60652
1.62938
1.65075
1.67
1.68647
1.69952
1.70859
1.71324
1.71324
1.70859
1.69952
1.68647
1.67
1.65075
1.62938
1.60652
1.5828
1.56044
1.53999
1.52031
1.50194
1.48543
1.47133
1.46018
1.45245
1.44849
1.44849
1.45245
1.46018
1.47133
1.48543
1.50194
1.52031
1.53999
1.56044
1.58115
1.6016
1.62128
1.63965
1.65617
1.67026
1.68141
1.68914
1.6931
1.6931
1.68914
1.68141
1.67026
1.65617
1.63965
1.62128
1.6016
1.58115
1.56101
1.54169
1.52315
1.50592
1.49051
1.47744
1.46716
1.46006
1.45644
1.45644
1.46006
1.46716
1.47744
1.49051
1.50592
1.52315
1.54169
1.56101
1.58059
1.5999
1.61844
1.63567
1.65108
1.66415
1.67444
1.68153
1.68516
1.68516
1.68153
1.67444
1.66415
1.65108
1.63567
1.61844
1.5999
1.58059
1.562
1.54466
1.52802
1.51257
1.49877
1.48707
1.47788
1.47155
1.46831
1.46831
1.47155
1.47788
1.48707
1.49877
1.51257
1.52802
1.54466
1.562
1.57959
1.59694
1.61357
1.62903
1.64283
1.65452
1.66371
1.67005
1.67328
1.67328
1.67005
1.66371
1.65452
1.64283
1.62903
1.61357
1.59694
1.57959
1.56322
1.54828
1.53396
1.52068
1.50882
1.49879
1.49091
1.48549
1.48272
1.48272
1.48549
1.49091
1.49879
1.50882
1.52068
1.53396
1.54828
1.56322
1.57837
1.59331
1.60763
1.62092
1.63277
1.64281
1.65068
1.65611
1.65887
1.65887
1.65611
1.65068
1.64281
1.63277
1.62092
1.60763
1.59331
1.57837
1.56464
1.55249
1.54088
1.53015
1.52061
1.51257
1.50629
1.50198
1.49979
1.49979
1.50198
1.50629
1.51257
1.52061
1.53015
1.54088
1.55249
1.56464
1.57696
1.5891
1.60071
1.61145
1.62098
1.62902
1.6353
1.63961
1.6418
1.6418
1.63961
1.6353
1.62902
1.62098
1.61145
1.60071
1.5891
1.57696
1.56527
1.55439
1.54398
1.53436
1.52582
1.51862
1.513
1.50915
1.50718
1.50718
1.50915
1.513
1.51862
1.52582
1.53436
1.54398
1.55439
1.56527
1.57632
1.58721
1.59761
1.60724
1.61578
1.62297
1.62859
1.63245
1.63441
1.63441
1.63245
1.62859
1.62297
1.61578
1.60724
1.59761
1.58721
1.57632
1.56604
1.55666
1.5477
1.53941
1.53206
1.52587
1.52104
1.51773
1.51604
1.51604
1.51773
1.52104
1.52587
1.53206
1.53941
1.5477
1.55666
1.56604
1.57555
1.58493
1.5939
1.60218
1.60953
1.61572
1.62055
1.62387
1.62555
1.62555
1.62387
1.62055
1.61572
1.60953
1.60218
1.5939
1.58493
1.57555
1.56808
1.56274
1.55764
1.55294
1.54877
1.54528
1.54256
1.54069
1.53975
1.53975
1.54069
1.54256
1.54528
1.54877
1.55294
1.55764
1.56274
1.56808
1.57351
1.57885
1.58395
1.58865
1.59282
1.59631
1.59904
1.6009
1.60185
1.60185
1.6009
1.59904
1.59631
1.59282
1.58865
1.58395
1.57885
1.57351
1.56837
1.5636
1.55904
1.55484
1.55113
1.548
1.54557
1.54391
1.54306
1.54306
1.54391
1.54557
1.548
1.55113
1.55484
1.55904
1.5636
1.56837
1.57322
1.57799
1.58255
1.58675
1.59047
1.59359
1.59602
1.59768
1.59853
1.59853
1.59768
1.59602
1.59359
1.59047
1.58675
1.58255
1.57799
1.57322
1.56871
1.5646
1.56067
1.55705
1.55385
1.55116
1.54907
1.54763
1.54691
1.54691
1.54763
1.54907
1.55116
1.55385
1.55705
1.56067
1.5646
1.56871
1.57288
1.577
1.58092
1.58454
1.58774
1.59043
1.59253
1.59396
1.59469
1.59469
1.59396
1.59253
1.59043
1.58774
1.58454
1.58092
1.577
1.57288
)
;

boundaryField
{
    fixed
    {
        type            calculated;
        value           nonuniform List<scalar> 
108
(
1.53336
1.45741
1.37822
1.29368
1.20208
1.10318
1.00092
0.90812
0.849381
0.849381
0.90812
1.00092
1.10318
1.20208
1.29368
1.37822
1.45741
1.53336
1.60823
1.68418
1.76337
1.84791
1.93952
2.03842
2.14068
2.23347
2.29221
2.29221
2.23347
2.14068
2.03842
1.93952
1.84791
1.76337
1.68418
1.60823
1.53628
1.46633
1.39365
1.31658
1.23391
1.14599
1.05698
0.978293
0.929712
0.929712
0.978293
1.05698
1.14599
1.23391
1.31658
1.39365
1.46633
1.53628
1.60532
1.67527
1.74794
1.82502
1.90769
1.9956
2.08461
2.1633
2.21188
2.21188
2.1633
2.08461
1.9956
1.90769
1.82502
1.74794
1.67527
1.60532
1.53984
1.47721
1.41246
1.34438
1.27234
1.19719
1.12303
1.0594
1.02115
1.02115
1.0594
1.12303
1.19719
1.27234
1.34438
1.41246
1.47721
1.53984
1.60175
1.66439
1.72914
1.79722
1.86925
1.9444
2.01856
2.0822
2.12045
2.12045
2.0822
2.01856
1.9444
1.86925
1.79722
1.72914
1.66439
1.60175
)
;
    }
    inside
    {
        type            calculated;
        value           nonuniform List<scalar> 
540
(
1.53988
1.47712
1.41163
1.34159
1.26554
1.18325
1.09803
1.02077
0.972025
0.972025
1.02077
1.09803
1.18325
1.26554
1.34159
1.41163
1.47712
1.53988
1.60172
1.66447
1.72996
1.8
1.87605
1.95835
2.04356
2.12082
2.16957
2.16957
2.12082
2.04356
1.95835
1.87605
1.8
1.72996
1.66447
1.60172
1.53635
1.46594
1.39073
1.3068
1.20916
1.09161
0.948886
0.787356
0.656862
0.656862
0.787356
0.948886
1.09161
1.20916
1.3068
1.39073
1.46594
1.53635
1.60524
1.67565
1.75086
1.83479
1.93244
2.04998
2.19271
2.35424
2.48473
2.48473
2.35424
2.19271
2.04998
1.93244
1.83479
1.75086
1.67565
1.60524
1.53481
1.46097
1.38121
1.29029
1.18055
1.03987
0.84884
0.580332
0.22247
0.22247
0.580332
0.84884
1.03987
1.18055
1.29029
1.38121
1.46097
1.53481
1.60679
1.68062
1.76038
1.8513
1.96105
2.10172
2.29275
2.56126
2.91912
2.91912
2.56126
2.29275
2.10172
1.96105
1.8513
1.76038
1.68062
1.60679
1.53573
1.46393
1.3869
1.30022
1.19791
1.07177
0.912235
0.718532
0.544056
0.544056
0.718532
0.912235
1.07177
1.19791
1.30022
1.3869
1.46393
1.53573
1.60587
1.67766
1.75469
1.84137
1.94368
2.06982
2.22936
2.42306
2.59754
2.59754
2.42306
2.22936
2.06982
1.94368
1.84137
1.75469
1.67766
1.60587
1.53858
1.47302
1.40404
1.32917
1.24594
1.15272
1.05141
0.953836
0.888605
0.888605
0.953836
1.05141
1.15272
1.24594
1.32917
1.40404
1.47302
1.53858
1.60302
1.66857
1.73756
1.81243
1.89565
1.98888
2.09019
2.18776
2.25299
2.25299
2.18776
2.09019
1.98888
1.89565
1.81243
1.73756
1.66857
1.60302
1.54233
1.48483
1.42566
1.36398
1.29955
1.23351
1.16978
1.11644
1.08505
1.08505
1.11644
1.16978
1.23351
1.29955
1.36398
1.42566
1.48483
1.54233
1.59926
1.65677
1.71593
1.77761
1.84205
1.90808
1.97181
2.02515
2.05654
2.05654
2.02515
1.97181
1.90808
1.84205
1.77761
1.71593
1.65677
1.59926
1.54621
1.49686
1.44708
1.39693
1.34704
1.29911
1.25625
1.22306
1.20468
1.20468
1.22306
1.25625
1.29911
1.34704
1.39693
1.44708
1.49686
1.54621
1.59538
1.64473
1.69451
1.74467
1.79455
1.84248
1.88534
1.91854
1.93691
1.93691
1.91854
1.88534
1.84248
1.79455
1.74467
1.69451
1.64473
1.59538
1.54985
1.50802
1.46648
1.4257
1.38656
1.35057
1.31989
1.29718
1.28501
1.28501
1.29718
1.31989
1.35057
1.38656
1.4257
1.46648
1.50802
1.54985
1.59175
1.63357
1.67511
1.7159
1.75503
1.79102
1.8217
1.84442
1.85658
1.85658
1.84442
1.8217
1.79102
1.75503
1.7159
1.67511
1.63357
1.59175
1.55315
1.51805
1.4836
1.45042
1.41938
1.39167
1.36877
1.35228
1.34362
1.34362
1.35228
1.36877
1.39167
1.41938
1.45042
1.4836
1.51805
1.55315
1.58845
1.62355
1.65799
1.69118
1.72221
1.74992
1.77282
1.78931
1.79797
1.79797
1.78931
1.77282
1.74992
1.72221
1.69118
1.65799
1.62355
1.58845
1.55613
1.52706
1.49877
1.47191
1.44723
1.42565
1.40819
1.39584
1.38942
1.38942
1.39584
1.40819
1.42565
1.44723
1.47191
1.49877
1.52706
1.55613
1.58546
1.61454
1.64282
1.66969
1.69436
1.71594
1.73341
1.74576
1.75217
1.75217
1.74576
1.73341
1.71594
1.69436
1.66969
1.64282
1.61454
1.58546
1.55887
1.53529
1.51249
1.49107
1.47164
1.45491
1.44156
1.43223
1.42743
1.42743
1.43223
1.44156
1.45491
1.47164
1.49107
1.51249
1.53529
1.55887
1.58272
1.60631
1.6291
1.65053
1.66995
1.68668
1.70004
1.70936
1.71416
1.71416
1.70936
1.70004
1.68668
1.66995
1.65053
1.6291
1.60631
1.58272
1.56146
1.54302
1.52528
1.50874
1.49389
1.48123
1.47123
1.46431
1.46076
1.46076
1.46431
1.47123
1.48123
1.49389
1.50874
1.52528
1.54302
1.56146
1.58013
1.59857
1.61631
1.63285
1.6477
1.66036
1.67036
1.67728
1.68083
1.68083
1.67728
1.67036
1.66036
1.6477
1.63285
1.61631
1.59857
1.58013
1.56398
1.55054
1.53766
1.52571
1.51506
1.50605
1.49899
1.49412
1.49164
1.49164
1.49412
1.49899
1.50605
1.51506
1.52571
1.53766
1.55054
1.56398
1.57761
1.59105
1.60393
1.61588
1.62653
1.63554
1.6426
1.64747
1.64995
1.64995
1.64747
1.6426
1.63554
1.62653
1.61588
1.60393
1.59105
1.57761
1.56652
1.5581
1.55005
1.54261
1.53601
1.53046
1.52612
1.52315
1.52164
1.52164
1.52315
1.52612
1.53046
1.53601
1.54261
1.55005
1.5581
1.56652
1.57507
1.58349
1.59154
1.59898
1.60558
1.61113
1.61547
1.61844
1.61995
1.61995
1.61844
1.61547
1.61113
1.60558
1.59898
1.59154
1.58349
1.57507
1.56892
1.56523
1.5617
1.55846
1.55558
1.55316
1.55128
1.55
1.54935
1.54935
1.55
1.55128
1.55316
1.55558
1.55846
1.5617
1.56523
1.56892
1.57267
1.57636
1.57989
1.58314
1.58601
1.58843
1.59031
1.59159
1.59225
1.59225
1.59159
1.59031
1.58843
1.58601
1.58314
1.57989
1.57636
1.57267
)
;
    }
    outside
    {
        type            calculated;
        value           nonuniform List<scalar> 
540
(
1.53041
1.44824
1.36176
1.26784
1.16328
1.0457
0.916738
0.790204
0.703303
0.703303
0.790204
0.916738
1.0457
1.16328
1.26784
1.36176
1.44824
1.53041
1.61118
1.69335
1.77984
1.87375
1.97831
2.0959
2.22485
2.35139
2.43829
2.43829
2.35139
2.22485
2.0959
1.97831
1.87375
1.77984
1.69335
1.61118
1.52803
1.44064
1.3475
1.24391
1.12397
0.980345
0.806098
0.604843
0.429586
0.429586
0.604843
0.806098
0.980345
1.12397
1.24391
1.3475
1.44064
1.52803
1.61357
1.70095
1.7941
1.89768
2.01762
2.16125
2.33549
2.53675
2.71201
2.71201
2.53675
2.33549
2.16125
2.01762
1.89768
1.7941
1.70095
1.61357
1.52708
1.43763
1.34176
1.23408
1.10723
0.950831
0.750825
0.492575
0.175451
0.175451
0.492575
0.750825
0.950831
1.10723
1.23408
1.34176
1.43763
1.52708
1.61451
1.70396
1.79983
1.90752
2.03436
2.19076
2.39077
2.64902
2.96614
2.96614
2.64902
2.39077
2.19076
2.03436
1.90752
1.79983
1.70396
1.61451
1.52779
1.4399
1.34608
1.24149
1.11988
0.973231
0.793128
0.580125
0.385201
0.385201
0.580125
0.793128
0.973231
1.11988
1.24149
1.34608
1.4399
1.52779
1.6138
1.7017
1.79552
1.90011
2.02171
2.16836
2.34847
2.56147
2.75639
2.75639
2.56147
2.34847
2.16836
2.02171
1.90011
1.79552
1.7017
1.6138
1.52999
1.44691
1.35928
1.26373
1.15667
1.03505
0.899633
0.763847
0.668223
0.668223
0.763847
0.899633
1.03505
1.15667
1.26373
1.35928
1.44691
1.52999
1.6116
1.69468
1.78231
1.87786
1.98492
2.10654
2.24196
2.37775
2.47337
2.47337
2.37775
2.24196
2.10654
1.98492
1.87786
1.78231
1.69468
1.6116
1.53326
1.45724
1.37834
1.29482
1.20549
1.11081
1.01533
0.931185
0.879337
0.879337
0.931185
1.01533
1.11081
1.20549
1.29482
1.37834
1.45724
1.53326
1.60833
1.68436
1.76325
1.84677
1.93611
2.03078
2.12627
2.21041
2.26226
2.26226
2.21041
2.12627
2.03078
1.93611
1.84677
1.76325
1.68436
1.60833
1.53713
1.4693
1.4001
1.32901
1.25631
1.18387
1.11627
1.06162
1.03032
1.03032
1.06162
1.11627
1.18387
1.25631
1.32901
1.4001
1.4693
1.53713
1.60447
1.6723
1.74149
1.81258
1.88528
1.95772
2.02532
2.07998
2.11127
2.11127
2.07998
2.02532
1.95772
1.88528
1.81258
1.74149
1.6723
1.60447
1.5412
1.4819
1.42234
1.36276
1.30411
1.24845
1.19936
1.16184
1.14126
1.14126
1.16184
1.19936
1.24845
1.30411
1.36276
1.42234
1.4819
1.5412
1.60039
1.6597
1.71925
1.77883
1.83748
1.89314
1.94223
1.97976
2.00034
2.00034
1.97976
1.94223
1.89314
1.83748
1.77883
1.71925
1.6597
1.60039
1.54527
1.49435
1.4439
1.39454
1.3474
1.30429
1.26775
1.24085
1.22649
1.22649
1.24085
1.26775
1.30429
1.3474
1.39454
1.4439
1.49435
1.54527
1.59632
1.64724
1.69769
1.74705
1.79419
1.8373
1.87384
1.90074
1.91511
1.91511
1.90074
1.87384
1.8373
1.79419
1.74705
1.69769
1.64724
1.59632
1.54924
1.50639
1.4644
1.42404
1.3864
1.35291
1.32532
1.30552
1.29514
1.29514
1.30552
1.32532
1.35291
1.3864
1.42404
1.4644
1.50639
1.54924
1.59235
1.6352
1.67719
1.71755
1.75519
1.78868
1.81627
1.83607
1.84646
1.84646
1.83607
1.81627
1.78868
1.75519
1.71755
1.67719
1.6352
1.59235
1.55309
1.51799
1.4839
1.45159
1.42199
1.39619
1.37537
1.36068
1.35308
1.35308
1.36068
1.37537
1.39619
1.42199
1.45159
1.4839
1.51799
1.55309
1.58851
1.6236
1.6577
1.69001
1.7196
1.74541
1.76622
1.78091
1.78852
1.78852
1.78091
1.76622
1.74541
1.7196
1.69001
1.6577
1.6236
1.58851
1.55686
1.52929
1.5027
1.47777
1.45524
1.4359
1.42052
1.40981
1.40431
1.40431
1.40981
1.42052
1.4359
1.45524
1.47777
1.5027
1.52929
1.55686
1.58474
1.6123
1.63889
1.66382
1.68635
1.70569
1.72107
1.73178
1.73729
1.73729
1.73178
1.72107
1.70569
1.68635
1.66382
1.63889
1.6123
1.58474
1.56062
1.54053
1.52124
1.50331
1.48727
1.47365
1.46293
1.45553
1.45175
1.45175
1.45553
1.46293
1.47365
1.48727
1.50331
1.52124
1.54053
1.56062
1.58098
1.60107
1.62035
1.63828
1.65432
1.66795
1.67866
1.68606
1.68984
1.68984
1.68606
1.67866
1.66795
1.65432
1.63828
1.62035
1.60107
1.58098
1.56443
1.55188
1.53988
1.52878
1.51892
1.5106
1.50411
1.49965
1.49738
1.49738
1.49965
1.50411
1.5106
1.51892
1.52878
1.53988
1.55188
1.56443
1.57716
1.58971
1.60172
1.61282
1.62268
1.63099
1.63749
1.64194
1.64421
1.64421
1.64194
1.63749
1.63099
1.62268
1.61282
1.60172
1.58971
1.57716
1.56801
1.56253
1.5573
1.55248
1.54821
1.54462
1.54183
1.53992
1.53895
1.53895
1.53992
1.54183
1.54462
1.54821
1.55248
1.5573
1.56253
1.56801
1.57358
1.57906
1.58429
1.58911
1.59339
1.59697
1.59976
1.60168
1.60265
1.60265
1.60168
1.59976
1.59697
1.59339
1.58911
1.58429
1.57906
1.57358
)
;
    }
}


// ************************************************************************* //
