/*--------------------------------*- C++ -*----------------------------------*\
| =========                 |                                                 |
| \\      /  F ield         | OpenFOAM: The Open Source CFD Toolbox           |
|  \\    /   O peration     | Version:  2312                                  |
|   \\  /    A nd           | Website:  www.openfoam.com                      |
|    \\/     M anipulation  |                                                 |
\*---------------------------------------------------------------------------*/
FoamFile
{
    version     2.0;
    format      ascii;
    arch        "LSB;label=32;scalar=64";
    class       volVectorField;
    location    "0.8";
    object      D;
}
// * * * * * * * * * * * * * * * * * * * * * * * * * * * * * * * * * * * * * //

dimensions      [0 1 0 0 0 0 0];

internalField   nonuniform List<vector> 
1620
(
(0.000124699 0.000276256 -1.95344e-05)
(7.4833e-05 0.000293713 -1.95346e-05)
(2.26937e-05 0.000302245 -1.95344e-05)
(-3.01351e-05 0.000301595 -1.95342e-05)
(-8.20487e-05 0.00029178 -1.95342e-05)
(-0.00013147 0.0002731 -1.95343e-05)
(-0.000176895 0.000246121 -1.95338e-05)
(-0.000216946 0.000211664 -1.95338e-05)
(-0.000250406 0.000170776 -1.95343e-05)
(-0.000276256 0.000124699 -1.95344e-05)
(-0.000293713 7.48329e-05 -1.95346e-05)
(-0.000302245 2.26937e-05 -1.95344e-05)
(-0.000301595 -3.01351e-05 -1.95342e-05)
(-0.00029178 -8.20488e-05 -1.95342e-05)
(-0.0002731 -0.00013147 -1.95343e-05)
(-0.000246121 -0.000176895 -1.95338e-05)
(-0.000211664 -0.000216946 -1.95338e-05)
(-0.000170776 -0.000250406 -1.95343e-05)
(-0.000124699 -0.000276256 -1.95344e-05)
(-7.48329e-05 -0.000293713 -1.95346e-05)
(-2.26937e-05 -0.000302245 -1.95344e-05)
(3.01351e-05 -0.000301595 -1.95342e-05)
(8.20488e-05 -0.00029178 -1.95342e-05)
(0.00013147 -0.0002731 -1.95343e-05)
(0.000176895 -0.000246121 -1.95338e-05)
(0.000216946 -0.000211664 -1.95338e-05)
(0.000250406 -0.000170776 -1.95343e-05)
(0.000276256 -0.000124699 -1.95344e-05)
(0.000293713 -7.48329e-05 -1.95346e-05)
(0.000302245 -2.26937e-05 -1.95344e-05)
(0.000301595 3.01351e-05 -1.95341e-05)
(0.00029178 8.20488e-05 -1.95342e-05)
(0.0002731 0.00013147 -1.95343e-05)
(0.000246121 0.000176895 -1.95338e-05)
(0.000211664 0.000216946 -1.95338e-05)
(0.000170776 0.000250406 -1.95343e-05)
(5.88284e-05 0.000343841 3.9548e-05)
(-1.77267e-06 0.000348833 3.9548e-05)
(-6.23195e-05 0.000343225 3.95481e-05)
(-0.000120973 0.000327189 3.95482e-05)
(-0.000175951 0.000301212 3.95482e-05)
(-0.000225583 0.000266082 3.95482e-05)
(-0.00026836 0.000222867 3.95483e-05)
(-0.000302984 0.000172881 3.95482e-05)
(-0.000328402 0.000117642 3.9548e-05)
(-0.000343841 5.88284e-05 3.9548e-05)
(-0.000348833 -1.77268e-06 3.9548e-05)
(-0.000343225 -6.23195e-05 3.95481e-05)
(-0.000327189 -0.000120973 3.95482e-05)
(-0.000301212 -0.000175951 3.95482e-05)
(-0.000266082 -0.000225583 3.95482e-05)
(-0.000222867 -0.00026836 3.95483e-05)
(-0.000172881 -0.000302984 3.95482e-05)
(-0.000117642 -0.000328402 3.9548e-05)
(-5.88284e-05 -0.000343841 3.9548e-05)
(1.7727e-06 -0.000348833 3.9548e-05)
(6.23195e-05 -0.000343225 3.95481e-05)
(0.000120973 -0.000327189 3.95482e-05)
(0.000175951 -0.000301212 3.95482e-05)
(0.000225583 -0.000266082 3.95482e-05)
(0.00026836 -0.000222867 3.95483e-05)
(0.000302984 -0.000172881 3.95482e-05)
(0.000328402 -0.000117642 3.9548e-05)
(0.000343841 -5.88284e-05 3.9548e-05)
(0.000348833 1.77268e-06 3.9548e-05)
(0.000343225 6.23195e-05 3.95481e-05)
(0.000327189 0.000120973 3.95482e-05)
(0.000301212 0.000175951 3.95482e-05)
(0.000266082 0.000225583 3.95482e-05)
(0.000222867 0.00026836 3.95483e-05)
(0.000172881 0.000302984 3.95482e-05)
(0.000117642 0.000328402 3.9548e-05)
(-4.02482e-05 0.000405828 5.13274e-05)
(-0.000110108 0.000392674 5.13277e-05)
(-0.000176622 0.000367588 5.13276e-05)
(-0.00023777 0.000331333 5.13275e-05)
(-0.000291693 0.000285012 5.13279e-05)
(-0.000336754 0.000230029 5.13277e-05)
(-0.000371582 0.000168058 5.13277e-05)
(-0.000395119 0.00010098 5.13273e-05)
(-0.000406652 3.08344e-05 5.13274e-05)
(-0.000405828 -4.02482e-05 5.13274e-05)
(-0.000392674 -0.000110108 5.13277e-05)
(-0.000367588 -0.000176622 5.13276e-05)
(-0.000331333 -0.00023777 5.13275e-05)
(-0.000285012 -0.000291693 5.13278e-05)
(-0.000230029 -0.000336754 5.13277e-05)
(-0.000168058 -0.000371582 5.13277e-05)
(-0.00010098 -0.000395119 5.13273e-05)
(-3.08344e-05 -0.000406652 5.13274e-05)
(4.02482e-05 -0.000405828 5.13274e-05)
(0.000110108 -0.000392674 5.13277e-05)
(0.000176622 -0.000367588 5.13276e-05)
(0.00023777 -0.000331333 5.13275e-05)
(0.000291693 -0.000285012 5.13278e-05)
(0.000336754 -0.000230029 5.13277e-05)
(0.000371582 -0.000168058 5.13277e-05)
(0.000395119 -0.00010098 5.13273e-05)
(0.000406652 -3.08344e-05 5.13274e-05)
(0.000405828 4.02482e-05 5.13274e-05)
(0.000392674 0.000110108 5.13277e-05)
(0.000367588 0.000176622 5.13276e-05)
(0.000331333 0.00023777 5.13275e-05)
(0.000285012 0.000291693 5.13279e-05)
(0.000230029 0.000336754 5.13277e-05)
(0.000168058 0.000371582 5.13277e-05)
(0.00010098 0.000395119 5.13273e-05)
(3.08345e-05 0.000406652 5.13274e-05)
(0.000235959 0.000904216 0.000112305)
(7.53591e-05 0.000931453 0.000112305)
(-8.75305e-05 0.000930388 0.000112305)
(-0.00024776 0.000901053 0.000112307)
(-0.000400462 0.000844341 0.000112307)
(-0.000540997 0.000761975 0.000112307)
(-0.000665094 0.000656455 0.000112307)
(-0.000768982 0.00053099 0.000112306)
(-0.000849504 0.00038939 0.000112306)
(-0.000904215 0.000235959 0.000112305)
(-0.000931453 7.53591e-05 0.000112305)
(-0.000930388 -8.75305e-05 0.000112305)
(-0.000901053 -0.000247761 0.000112307)
(-0.000844341 -0.000400462 0.000112307)
(-0.000761975 -0.000540997 0.000112307)
(-0.000656455 -0.000665094 0.000112307)
(-0.000530989 -0.000768982 0.000112306)
(-0.00038939 -0.000849505 0.000112306)
(-0.000235959 -0.000904215 0.000112305)
(-7.5359e-05 -0.000931453 0.000112305)
(8.75306e-05 -0.000930388 0.000112305)
(0.000247761 -0.000901053 0.000112307)
(0.000400463 -0.000844341 0.000112307)
(0.000540997 -0.000761975 0.000112307)
(0.000665094 -0.000656455 0.000112307)
(0.000768982 -0.00053099 0.000112306)
(0.000849505 -0.00038939 0.000112306)
(0.000904216 -0.000235959 0.000112305)
(0.000931453 -7.53591e-05 0.000112305)
(0.000930388 8.75305e-05 0.000112305)
(0.000901053 0.000247761 0.000112307)
(0.000844341 0.000400462 0.000112307)
(0.000761975 0.000540997 0.000112307)
(0.000656455 0.000665094 0.000112307)
(0.00053099 0.000768982 0.000112306)
(0.00038939 0.000849505 0.000112306)
(0.000122512 0.00102337 0.000217046)
(-5.70548e-05 0.00102909 0.000217046)
(-0.000234888 0.00100355 0.000217046)
(-0.000405584 0.000947519 0.000217047)
(-0.000563958 0.000862695 0.000217048)
(-0.000705196 0.000751658 0.000217047)
(-0.000825006 0.000617783 0.000217047)
(-0.000919749 0.000465136 0.000217047)
(-0.000986546 0.000298357 0.000217046)
(-0.00102337 0.000122512 0.000217046)
(-0.00102909 -5.70548e-05 0.000217046)
(-0.00100355 -0.000234888 0.000217046)
(-0.000947519 -0.000405584 0.000217047)
(-0.000862695 -0.000563958 0.000217048)
(-0.000751658 -0.000705196 0.000217047)
(-0.000617783 -0.000825006 0.000217047)
(-0.000465136 -0.000919749 0.000217046)
(-0.000298356 -0.000986546 0.000217046)
(-0.000122512 -0.00102337 0.000217046)
(5.70549e-05 -0.00102909 0.000217046)
(0.000234888 -0.00100355 0.000217046)
(0.000405584 -0.000947519 0.000217047)
(0.000563958 -0.000862695 0.000217048)
(0.000705196 -0.000751658 0.000217047)
(0.000825006 -0.000617783 0.000217047)
(0.000919749 -0.000465136 0.000217047)
(0.000986546 -0.000298356 0.000217046)
(0.00102337 -0.000122512 0.000217046)
(0.00102909 5.70548e-05 0.000217046)
(0.00100355 0.000234888 0.000217046)
(0.000947519 0.000405584 0.000217047)
(0.000862695 0.000563958 0.000217048)
(0.000751658 0.000705196 0.000217047)
(0.000617783 0.000825006 0.000217047)
(0.000465136 0.000919749 0.000217047)
(0.000298357 0.000986546 0.000217046)
(-3.09036e-05 0.00112725 0.000293241)
(-0.000226178 0.00110475 0.000293241)
(-0.000414579 0.00104869 0.000293241)
(-0.000590385 0.000960771 0.000293241)
(-0.000748251 0.000843655 0.000293241)
(-0.000883383 0.000700905 0.000293241)
(-0.000991674 0.000536859 0.000293241)
(-0.00106983 0.000356501 0.000293241)
(-0.00111549 0.00016531 0.000293241)
(-0.00112725 -3.09037e-05 0.000293241)
(-0.00110475 -0.000226178 0.000293241)
(-0.00104869 -0.000414579 0.000293241)
(-0.000960771 -0.000590385 0.000293241)
(-0.000843655 -0.000748251 0.000293241)
(-0.000700905 -0.000883383 0.000293241)
(-0.000536859 -0.000991674 0.000293241)
(-0.000356501 -0.00106983 0.000293241)
(-0.00016531 -0.00111549 0.000293241)
(3.09037e-05 -0.00112725 0.000293241)
(0.000226178 -0.00110475 0.000293241)
(0.000414579 -0.00104869 0.000293241)
(0.000590385 -0.000960771 0.000293241)
(0.000748251 -0.000843655 0.000293241)
(0.000883383 -0.000700905 0.000293241)
(0.000991674 -0.000536859 0.000293241)
(0.00106983 -0.000356501 0.000293241)
(0.00111549 -0.00016531 0.000293241)
(0.00112725 3.09037e-05 0.000293241)
(0.00110475 0.000226178 0.000293241)
(0.00104869 0.000414579 0.000293241)
(0.000960771 0.000590385 0.000293241)
(0.000843655 0.000748251 0.000293241)
(0.000700905 0.000883383 0.000293241)
(0.000536859 0.000991674 0.000293241)
(0.000356501 0.00106983 0.000293241)
(0.00016531 0.00111549 0.000293241)
(0.000280566 0.00154099 0.000339692)
(8.71487e-06 0.00156629 0.000339692)
(-0.000263401 0.00154401 0.000339692)
(-0.000527514 0.00147482 0.000339694)
(-0.000775599 0.00136081 0.000339695)
(-0.00100012 0.00120545 0.000339695)
(-0.00119425 0.00101347 0.000339694)
(-0.00135209 0.000790694 0.000339694)
(-0.00146885 0.000543893 0.000339692)
(-0.00154098 0.000280566 0.000339692)
(-0.00156629 8.71478e-06 0.000339692)
(-0.00154401 -0.000263401 0.000339692)
(-0.00147482 -0.000527515 0.000339694)
(-0.00136081 -0.000775599 0.000339695)
(-0.00120545 -0.00100012 0.000339695)
(-0.00101347 -0.00119425 0.000339694)
(-0.000790694 -0.00135209 0.000339694)
(-0.000543893 -0.00146885 0.000339692)
(-0.000280566 -0.00154099 0.000339692)
(-8.7147e-06 -0.00156629 0.000339692)
(0.000263401 -0.00154401 0.000339692)
(0.000527515 -0.00147482 0.000339694)
(0.000775599 -0.00136081 0.000339695)
(0.00100012 -0.00120545 0.000339695)
(0.00119425 -0.00101347 0.000339695)
(0.00135209 -0.000790694 0.000339694)
(0.00146885 -0.000543893 0.000339692)
(0.00154099 -0.000280566 0.000339692)
(0.00156629 -8.71477e-06 0.000339692)
(0.00154401 0.000263401 0.000339692)
(0.00147482 0.000527515 0.000339694)
(0.00136081 0.000775599 0.000339695)
(0.00120545 0.00100012 0.000339695)
(0.00101347 0.00119425 0.000339695)
(0.000790694 0.00135209 0.000339694)
(0.000543893 0.00146885 0.000339692)
(0.00012594 0.00167842 0.000470241)
(-0.000167427 0.00167479 0.000470242)
(-0.000455708 0.00162028 0.000470241)
(-0.000730142 0.00151653 0.000470242)
(-0.000982392 0.0013667 0.000470243)
(-0.00120479 0.00117535 0.000470243)
(-0.00139058 0.000948279 0.000470243)
(-0.00153413 0.000692399 0.000470242)
(-0.00163105 0.000415482 0.000470242)
(-0.00167842 0.00012594 0.000470241)
(-0.00167479 -0.000167428 0.000470241)
(-0.00162028 -0.000455708 0.000470241)
(-0.00151653 -0.000730142 0.000470242)
(-0.0013667 -0.000982392 0.000470243)
(-0.00117535 -0.00120479 0.000470242)
(-0.000948279 -0.00139058 0.000470243)
(-0.000692399 -0.00153413 0.000470242)
(-0.000415482 -0.00163105 0.000470242)
(-0.00012594 -0.00167842 0.000470241)
(0.000167428 -0.00167479 0.000470241)
(0.000455708 -0.00162028 0.000470241)
(0.000730142 -0.00151653 0.000470242)
(0.000982392 -0.0013667 0.000470243)
(0.00120479 -0.00117535 0.000470243)
(0.00139058 -0.000948279 0.000470243)
(0.00153413 -0.000692399 0.000470242)
(0.00163105 -0.000415482 0.000470242)
(0.00167842 -0.00012594 0.000470241)
(0.00167479 0.000167428 0.000470242)
(0.00162028 0.000455708 0.000470241)
(0.00151653 0.000730142 0.000470242)
(0.0013667 0.000982392 0.000470243)
(0.00117535 0.00120479 0.000470243)
(0.000948279 0.00139058 0.000470243)
(0.000692399 0.00153413 0.000470242)
(0.000415482 0.00163105 0.000470242)
(-6.39662e-05 0.00179701 0.000577477)
(-0.000375042 0.00175861 0.000577477)
(-0.000674722 0.00166676 0.000577477)
(-0.000953902 0.00152428 0.000577477)
(-0.0012041 0.00133548 0.000577477)
(-0.00141771 0.0011061 0.000577477)
(-0.00158824 0.000843111 0.000577477)
(-0.00171052 0.000554507 0.000577477)
(-0.00178082 0.000249054 0.000577477)
(-0.00179701 -6.39663e-05 0.000577477)
(-0.00175861 -0.000375042 0.000577476)
(-0.00166676 -0.000674722 0.000577477)
(-0.00152428 -0.000953902 0.000577477)
(-0.00133548 -0.0012041 0.000577477)
(-0.0011061 -0.00141771 0.000577477)
(-0.000843111 -0.00158824 0.000577477)
(-0.000554507 -0.00171052 0.000577477)
(-0.000249054 -0.00178082 0.000577477)
(6.39663e-05 -0.00179701 0.000577476)
(0.000375042 -0.00175861 0.000577476)
(0.000674722 -0.00166676 0.000577477)
(0.000953902 -0.00152428 0.000577477)
(0.0012041 -0.00133548 0.000577477)
(0.00141771 -0.0011061 0.000577477)
(0.00158824 -0.000843111 0.000577477)
(0.00171052 -0.000554507 0.000577477)
(0.00178082 -0.000249054 0.000577477)
(0.00179701 6.39663e-05 0.000577477)
(0.00175861 0.000375042 0.000577477)
(0.00166676 0.000674722 0.000577477)
(0.00152428 0.000953902 0.000577477)
(0.00133548 0.0012041 0.000577477)
(0.0011061 0.00141771 0.000577477)
(0.000843111 0.00158824 0.000577477)
(0.000554507 0.00171052 0.000577477)
(0.000249054 0.00178082 0.000577477)
(0.000229677 0.0021656 0.00061288)
(-0.000149865 0.00217258 0.000612879)
(-0.000524853 0.00211355 0.00061288)
(-0.000883893 0.0019903 0.000612881)
(-0.00121608 0.00180658 0.000612882)
(-0.00151131 0.00156796 0.000612882)
(-0.00176062 0.00128171 0.000612882)
(-0.00195644 0.000956504 0.000612882)
(-0.00209282 0.00060224 0.00061288)
(-0.0021656 0.000229677 0.00061288)
(-0.00217258 -0.000149865 0.000612879)
(-0.00211355 -0.000524853 0.00061288)
(-0.0019903 -0.000883893 0.000612881)
(-0.00180658 -0.00121608 0.000612882)
(-0.00156796 -0.00151131 0.000612882)
(-0.00128171 -0.00176062 0.000612882)
(-0.000956504 -0.00195644 0.000612882)
(-0.00060224 -0.00209282 0.00061288)
(-0.000229677 -0.0021656 0.00061288)
(0.000149865 -0.00217258 0.000612879)
(0.000524853 -0.00211355 0.00061288)
(0.000883893 -0.0019903 0.000612881)
(0.00121608 -0.00180658 0.000612882)
(0.00151131 -0.00156796 0.000612882)
(0.00176062 -0.00128171 0.000612882)
(0.00195644 -0.000956504 0.000612882)
(0.00209282 -0.00060224 0.00061288)
(0.0021656 -0.000229677 0.00061288)
(0.00217258 0.000149865 0.000612879)
(0.00211355 0.000524853 0.00061288)
(0.0019903 0.000883893 0.000612881)
(0.00180658 0.00121608 0.000612882)
(0.00156796 0.00151131 0.000612882)
(0.00128171 0.00176062 0.000612882)
(0.000956505 0.00195644 0.000612882)
(0.00060224 0.00209282 0.00061288)
(5.9157e-05 0.00228973 0.000751747)
(-0.00033935 0.00226522 0.000751747)
(-0.000727546 0.00217188 0.000751747)
(-0.00109363 0.00201255 0.000751747)
(-0.00142649 0.00179206 0.000751748)
(-0.00171601 0.00151713 0.000751748)
(-0.00195339 0.0011961 0.000751748)
(-0.00213141 0.000838725 0.000751748)
(-0.00224468 0.000455867 0.000751748)
(-0.00228973 5.91569e-05 0.000751747)
(-0.00226522 -0.00033935 0.000751747)
(-0.00217188 -0.000727546 0.000751747)
(-0.00201255 -0.00109363 0.000751747)
(-0.00179206 -0.00142649 0.000751748)
(-0.00151713 -0.00171601 0.000751748)
(-0.0011961 -0.00195339 0.000751748)
(-0.000838725 -0.00213141 0.000751748)
(-0.000455867 -0.00224468 0.000751748)
(-5.91568e-05 -0.00228973 0.000751747)
(0.00033935 -0.00226522 0.000751747)
(0.000727546 -0.00217188 0.000751747)
(0.00109363 -0.00201255 0.000751747)
(0.00142649 -0.00179206 0.000751748)
(0.00171601 -0.00151713 0.000751748)
(0.00195339 -0.0011961 0.000751748)
(0.00213141 -0.000838725 0.000751748)
(0.00224468 -0.000455867 0.000751748)
(0.00228973 -5.91569e-05 0.000751747)
(0.00226522 0.00033935 0.000751747)
(0.00217188 0.000727546 0.000751747)
(0.00201255 0.00109363 0.000751747)
(0.00179206 0.00142649 0.000751748)
(0.00151713 0.00171601 0.000751748)
(0.0011961 0.00195339 0.000751748)
(0.000838725 0.00213141 0.000751748)
(0.000455867 0.00224468 0.000751748)
(-0.000141954 0.00239493 0.000869569)
(-0.000555673 0.0023339 0.000869569)
(-0.000952508 0.00220195 0.000869569)
(-0.0013204 0.0020031 0.000869569)
(-0.00164817 0.00174338 0.000869569)
(-0.00192587 0.00143069 0.000869569)
(-0.00214505 0.00107453 0.000869569)
(-0.00229905 0.000685723 0.000869569)
(-0.0023832 0.000276078 0.000869569)
(-0.00239493 -0.000141954 0.000869569)
(-0.0023339 -0.000555673 0.000869569)
(-0.00220195 -0.000952508 0.000869569)
(-0.0020031 -0.0013204 0.000869569)
(-0.00174338 -0.00164817 0.000869569)
(-0.00143069 -0.00192587 0.000869569)
(-0.00107453 -0.00214505 0.000869569)
(-0.000685723 -0.00229905 0.000869569)
(-0.000276078 -0.0023832 0.000869569)
(0.000141954 -0.00239493 0.000869569)
(0.000555673 -0.0023339 0.000869569)
(0.000952508 -0.00220195 0.000869569)
(0.0013204 -0.0020031 0.000869569)
(0.00164817 -0.00174338 0.000869569)
(0.00192587 -0.00143069 0.000869569)
(0.00214505 -0.00107453 0.000869569)
(0.00229905 -0.000685723 0.000869569)
(0.0023832 -0.000276078 0.000869569)
(0.00239493 0.000141954 0.000869569)
(0.0023339 0.000555673 0.000869569)
(0.00220195 0.000952508 0.000869569)
(0.0020031 0.0013204 0.000869569)
(0.00174338 0.00164817 0.000869569)
(0.00143069 0.00192587 0.000869569)
(0.00107453 0.00214505 0.000869569)
(0.000685723 0.00229905 0.000869569)
(0.000276078 0.0023832 0.000869569)
(9.80499e-05 0.00274724 0.000902246)
(-0.000380492 0.00272253 0.000902245)
(-0.000847473 0.00261509 0.000902245)
(-0.0012887 0.0024282 0.000902246)
(-0.00169078 0.00216753 0.000902247)
(-0.00204148 0.001841 0.000902247)
(-0.00233015 0.00145853 0.000902247)
(-0.00254802 0.00103175 0.000902247)
(-0.00268847 0.000573613 0.000902247)
(-0.00274724 9.80497e-05 0.000902246)
(-0.00272252 -0.000380492 0.000902245)
(-0.00261509 -0.000847473 0.000902245)
(-0.0024282 -0.0012887 0.000902246)
(-0.00216753 -0.00169078 0.000902246)
(-0.001841 -0.00204148 0.000902247)
(-0.00145853 -0.00233015 0.000902247)
(-0.00103175 -0.00254802 0.000902247)
(-0.000573612 -0.00268847 0.000902247)
(-9.80496e-05 -0.00274724 0.000902246)
(0.000380492 -0.00272253 0.000902245)
(0.000847474 -0.00261509 0.000902245)
(0.0012887 -0.0024282 0.000902246)
(0.00169078 -0.00216753 0.000902247)
(0.00204148 -0.001841 0.000902247)
(0.00233015 -0.00145853 0.000902247)
(0.00254802 -0.00103175 0.000902247)
(0.00268847 -0.000573613 0.000902247)
(0.00274724 -9.80497e-05 0.000902246)
(0.00272253 0.000380492 0.000902245)
(0.00261509 0.000847473 0.000902245)
(0.0024282 0.0012887 0.000902246)
(0.00216753 0.00169078 0.000902247)
(0.001841 0.00204148 0.000902247)
(0.00145853 0.00233015 0.000902247)
(0.00103175 0.00254802 0.000902247)
(0.000573613 0.00268847 0.000902247)
(-7.07846e-05 0.00283706 0.00103773)
(-0.00056236 0.00278167 0.00103773)
(-0.00103685 0.00264176 0.00103773)
(-0.00147983 0.00242157 0.00103773)
(-0.00187785 0.00212782 0.00103773)
(-0.00221881 0.0017694 0.00103773)
(-0.00249236 0.00135723 0.00103773)
(-0.00269017 0.000903817 0.00103773)
(-0.00280625 0.000422941 0.00103773)
(-0.00283706 -7.07847e-05 0.00103773)
(-0.00278167 -0.00056236 0.00103773)
(-0.00264176 -0.00103685 0.00103773)
(-0.00242157 -0.00147983 0.00103773)
(-0.00212782 -0.00187785 0.00103773)
(-0.0017694 -0.00221881 0.00103773)
(-0.00135723 -0.00249236 0.00103773)
(-0.000903817 -0.00269017 0.00103773)
(-0.000422941 -0.00280625 0.00103773)
(7.07849e-05 -0.00283706 0.00103773)
(0.00056236 -0.00278167 0.00103773)
(0.00103685 -0.00264176 0.00103773)
(0.00147983 -0.00242157 0.00103773)
(0.00187785 -0.00212782 0.00103773)
(0.00221881 -0.0017694 0.00103773)
(0.00249236 -0.00135723 0.00103773)
(0.00269017 -0.000903817 0.00103773)
(0.00280625 -0.000422941 0.00103773)
(0.00283706 7.07848e-05 0.00103773)
(0.00278167 0.00056236 0.00103773)
(0.00264176 0.00103685 0.00103773)
(0.00242157 0.00147983 0.00103773)
(0.00212782 0.00187785 0.00103773)
(0.0017694 0.00221881 0.00103773)
(0.00135723 0.00249236 0.00103773)
(0.000903817 0.00269017 0.00103773)
(0.000422942 0.00280625 0.00103773)
(-0.000265813 0.0029094 0.00115314)
(-0.000766987 0.00281904 0.00115314)
(-0.00124486 0.00264303 0.00115314)
(-0.0016849 0.00238671 0.00115314)
(-0.00207375 0.00205787 0.00115314)
(-0.00239959 0.0016665 0.00115314)
(-0.00265252 0.0012245 0.00115314)
(-0.00282486 0.000745292 0.00115314)
(-0.00291136 0.000243438 0.00115314)
(-0.0029094 -0.000265813 0.00115314)
(-0.00281904 -0.000766987 0.00115314)
(-0.00264303 -0.00124486 0.00115314)
(-0.00238671 -0.0016849 0.00115314)
(-0.00205787 -0.00207375 0.00115314)
(-0.0016665 -0.00239959 0.00115314)
(-0.0012245 -0.00265252 0.00115314)
(-0.000745292 -0.00282486 0.00115314)
(-0.000243438 -0.00291136 0.00115314)
(0.000265813 -0.0029094 0.00115314)
(0.000766987 -0.00281904 0.00115314)
(0.00124486 -0.00264303 0.00115314)
(0.0016849 -0.00238671 0.00115314)
(0.00207375 -0.00205787 0.00115314)
(0.00239959 -0.0016665 0.00115314)
(0.00265252 -0.0012245 0.00115314)
(0.00282486 -0.000745292 0.00115314)
(0.00291136 -0.000243438 0.00115314)
(0.0029094 0.000265813 0.00115314)
(0.00281904 0.000766987 0.00115314)
(0.00264303 0.00124486 0.00115314)
(0.00238671 0.0016849 0.00115314)
(0.00205787 0.00207375 0.00115314)
(0.0016665 0.00239959 0.00115314)
(0.0012245 0.00265252 0.00115314)
(0.000745292 0.00282486 0.00115314)
(0.000243439 0.00291136 0.00115314)
(-8.77247e-05 0.00325554 0.00119349)
(-0.000651711 0.00319085 0.00119348)
(-0.0011959 0.00302921 0.00119348)
(-0.00170374 0.00277552 0.00119348)
(-0.00215982 0.0024375 0.00119348)
(-0.00255028 0.00202542 0.00119348)
(-0.00286324 0.0015518 0.00119348)
(-0.00308921 0.00103103 0.00119349)
(-0.00322132 0.000478927 0.00119349)
(-0.00325554 -8.77249e-05 0.00119348)
(-0.00319085 -0.000651711 0.00119348)
(-0.00302921 -0.0011959 0.00119348)
(-0.00277552 -0.00170374 0.00119348)
(-0.0024375 -0.00215982 0.00119348)
(-0.00202542 -0.00255028 0.00119348)
(-0.0015518 -0.00286324 0.00119348)
(-0.00103103 -0.00308921 0.00119348)
(-0.000478927 -0.00322132 0.00119349)
(8.77251e-05 -0.00325554 0.00119348)
(0.000651711 -0.00319085 0.00119348)
(0.0011959 -0.00302921 0.00119348)
(0.00170374 -0.00277552 0.00119348)
(0.00215982 -0.0024375 0.00119348)
(0.00255028 -0.00202542 0.00119348)
(0.00286324 -0.0015518 0.00119348)
(0.00308921 -0.00103103 0.00119349)
(0.00322132 -0.000478927 0.00119349)
(0.00325554 8.77249e-05 0.00119349)
(0.00319085 0.000651711 0.00119348)
(0.00302921 0.0011959 0.00119348)
(0.00277552 0.00170374 0.00119348)
(0.0024375 0.00215982 0.00119348)
(0.00202542 0.00255028 0.00119348)
(0.0015518 0.00286324 0.00119348)
(0.00103103 0.00308921 0.00119349)
(0.000478927 0.00322132 0.00119349)
(-0.000247102 0.00329941 0.00131777)
(-0.000816285 0.00320637 0.00131777)
(-0.00136066 0.00301592 0.00131777)
(-0.0018637 0.00273382 0.00131777)
(-0.00231011 0.00236866 0.00131777)
(-0.00268633 0.00193153 0.00131777)
(-0.00298092 0.00143571 0.00131777)
(-0.00318494 0.000896265 0.00131777)
(-0.00329219 0.000329588 0.00131777)
(-0.00329941 -0.000247102 0.00131777)
(-0.00320637 -0.000816285 0.00131777)
(-0.00301592 -0.00136066 0.00131777)
(-0.00273382 -0.0018637 0.00131777)
(-0.00236866 -0.00231011 0.00131777)
(-0.00193153 -0.00268633 0.00131777)
(-0.00143571 -0.00298092 0.00131777)
(-0.000896265 -0.00318494 0.00131777)
(-0.000329588 -0.00329219 0.00131777)
(0.000247102 -0.00329941 0.00131777)
(0.000816285 -0.00320637 0.00131777)
(0.00136066 -0.00301592 0.00131777)
(0.0018637 -0.00273382 0.00131777)
(0.00231011 -0.00236866 0.00131777)
(0.00268633 -0.00193153 0.00131777)
(0.00298092 -0.00143571 0.00131777)
(0.00318494 -0.000896265 0.00131777)
(0.00329219 -0.000329588 0.00131777)
(0.00329941 0.000247102 0.00131777)
(0.00320637 0.000816285 0.00131777)
(0.00301592 0.00136066 0.00131777)
(0.00273382 0.0018637 0.00131777)
(0.00236866 0.00231011 0.00131777)
(0.00193153 0.00268633 0.00131777)
(0.00143571 0.00298092 0.00131777)
(0.000896265 0.00318494 0.00131777)
(0.000329589 0.00329219 0.00131777)
(-0.000427759 0.00332866 0.00142214)
(-0.000999277 0.00320381 0.00142214)
(-0.00154043 0.00298161 0.00142214)
(-0.00203478 0.00266882 0.00142214)
(-0.0024673 0.00227494 0.00142214)
(-0.00282486 0.00181194 0.00142214)
(-0.00309658 0.00129388 0.00142214)
(-0.00327422 0.000736506 0.00142214)
(-0.00335237 0.000156755 0.00142214)
(-0.00332866 -0.00042776 0.00142214)
(-0.00320381 -0.000999277 0.00142214)
(-0.00298161 -0.00154043 0.00142214)
(-0.00266882 -0.00203478 0.00142214)
(-0.00227494 -0.0024673 0.00142214)
(-0.00181194 -0.00282486 0.00142214)
(-0.00129388 -0.00309658 0.00142214)
(-0.000736506 -0.00327422 0.00142214)
(-0.000156755 -0.00335237 0.00142214)
(0.00042776 -0.00332866 0.00142214)
(0.000999277 -0.00320381 0.00142214)
(0.00154043 -0.00298161 0.00142214)
(0.00203478 -0.00266882 0.00142214)
(0.0024673 -0.00227494 0.00142214)
(0.00282486 -0.00181194 0.00142214)
(0.00309658 -0.00129388 0.00142214)
(0.00327422 -0.000736506 0.00142214)
(0.00335237 -0.000156755 0.00142214)
(0.00332866 0.00042776 0.00142214)
(0.00320381 0.000999277 0.00142214)
(0.00298161 0.00154043 0.00142214)
(0.00266882 0.00203478 0.00142214)
(0.00227494 0.0024673 0.00142214)
(0.00181194 0.00282486 0.00142214)
(0.00129388 0.00309658 0.00142214)
(0.000736507 0.00327422 0.00142214)
(0.000156755 0.00335237 0.00142214)
(-0.000296361 0.0036657 0.00148777)
(-0.000928401 0.00355855 0.00148777)
(-0.00153223 0.00334327 0.00148777)
(-0.00208951 0.00302641 0.00148777)
(-0.00258329 0.00261759 0.00148777)
(-0.00299859 0.00212924 0.00148777)
(-0.00332277 0.0015762 0.00148777)
(-0.003546 0.000975255 0.00148777)
(-0.00366148 0.000344683 0.00148777)
(-0.0036657 -0.000296361 0.00148777)
(-0.00355855 -0.000928401 0.00148777)
(-0.00334327 -0.00153223 0.00148777)
(-0.00302641 -0.00208951 0.00148777)
(-0.00261759 -0.00258329 0.00148777)
(-0.00212924 -0.00299859 0.00148777)
(-0.00157619 -0.00332277 0.00148777)
(-0.000975255 -0.003546 0.00148777)
(-0.000344682 -0.00366148 0.00148777)
(0.000296362 -0.0036657 0.00148777)
(0.000928402 -0.00355855 0.00148777)
(0.00153223 -0.00334327 0.00148777)
(0.00208951 -0.00302641 0.00148777)
(0.00258329 -0.00261759 0.00148777)
(0.00299859 -0.00212924 0.00148777)
(0.00332277 -0.0015762 0.00148777)
(0.003546 -0.000975255 0.00148777)
(0.00366148 -0.000344683 0.00148777)
(0.0036657 0.000296361 0.00148777)
(0.00355855 0.000928402 0.00148777)
(0.00334327 0.00153223 0.00148777)
(0.00302641 0.00208951 0.00148777)
(0.00261759 0.00258329 0.00148777)
(0.00212924 0.00299859 0.00148777)
(0.0015762 0.00332277 0.00148777)
(0.000975255 0.003546 0.00148777)
(0.000344683 0.00366148 0.00148777)
(-0.000446132 0.00365651 0.00159405)
(-0.0010743 0.00352349 0.00159405)
(-0.00166983 0.00328341 0.00159405)
(-0.00221462 0.00294356 0.00159405)
(-0.00269211 0.00251428 0.00159405)
(-0.00308781 0.0020086 0.00159405)
(-0.00338969 0.00144189 0.00159405)
(-0.00358858 0.000831373 0.00159405)
(-0.00367843 0.000195591 0.00159405)
(-0.00365651 -0.000446132 0.00159405)
(-0.00352349 -0.0010743 0.00159405)
(-0.00328341 -0.00166983 0.00159405)
(-0.00294356 -0.00221462 0.00159405)
(-0.00251428 -0.00269211 0.00159405)
(-0.0020086 -0.00308781 0.00159405)
(-0.00144189 -0.00338969 0.00159405)
(-0.000831372 -0.00358858 0.00159405)
(-0.00019559 -0.00367843 0.00159405)
(0.000446132 -0.00365651 0.00159405)
(0.0010743 -0.00352349 0.00159405)
(0.00166983 -0.00328341 0.00159405)
(0.00221462 -0.00294356 0.00159405)
(0.00269211 -0.00251428 0.00159405)
(0.00308781 -0.0020086 0.00159405)
(0.00338969 -0.00144189 0.00159405)
(0.00358858 -0.000831373 0.00159405)
(0.00367843 -0.00019559 0.00159405)
(0.00365651 0.000446132 0.00159405)
(0.00352349 0.0010743 0.00159405)
(0.00328341 0.00166983 0.00159405)
(0.00294356 0.00221462 0.00159405)
(0.00251428 0.00269211 0.00159405)
(0.0020086 0.00308781 0.00159405)
(0.00144189 0.00338969 0.00159405)
(0.000831373 0.00358858 0.00159405)
(0.000195591 0.00367843 0.00159405)
(-0.000611055 0.00363783 0.00167972)
(-0.00123347 0.00347646 0.00167972)
(-0.00181842 0.00320945 0.00167972)
(-0.00234811 0.00284493 0.00167972)
(-0.00280645 0.00239396 0.00167972)
(-0.00317952 0.00187026 0.00167972)
(-0.00345598 0.00128973 0.00167972)
(-0.00362744 0.00067001 0.00167972)
(-0.00368868 2.99326e-05 0.00167972)
(-0.00363783 -0.000611055 0.00167972)
(-0.00347646 -0.00123347 0.00167972)
(-0.00320945 -0.00181842 0.00167972)
(-0.00284493 -0.00234811 0.00167972)
(-0.00239396 -0.00280645 0.00167972)
(-0.00187026 -0.00317952 0.00167972)
(-0.00128973 -0.00345598 0.00167972)
(-0.000670009 -0.00362744 0.00167972)
(-2.99324e-05 -0.00368868 0.00167972)
(0.000611055 -0.00363783 0.00167972)
(0.00123347 -0.00347646 0.00167972)
(0.00181842 -0.00320945 0.00167972)
(0.00234811 -0.00284493 0.00167972)
(0.00280645 -0.00239396 0.00167972)
(0.00317952 -0.00187026 0.00167972)
(0.00345598 -0.00128973 0.00167972)
(0.00362744 -0.00067001 0.00167972)
(0.00368868 -2.99326e-05 0.00167972)
(0.00363783 0.000611055 0.00167972)
(0.00347646 0.00123347 0.00167972)
(0.00320945 0.00181842 0.00167972)
(0.00284493 0.00234811 0.00167972)
(0.00239396 0.00280645 0.00167972)
(0.00187026 0.00317952 0.00167972)
(0.00128973 0.00345598 0.00167972)
(0.00067001 0.00362744 0.00167972)
(2.99328e-05 0.00368868 0.00167972)
(-0.000494364 0.00395745 0.00179715)
(-0.00117406 0.00381148 0.00179715)
(-0.00181808 0.0035497 0.00179715)
(-0.00240686 0.00318007 0.00179715)
(-0.0029225 0.00271381 0.00179715)
(-0.00334935 0.00216509 0.00179715)
(-0.00367443 0.00155059 0.00179715)
(-0.00388787 0.000888974 0.00179715)
(-0.00398317 0.000200347 0.00179715)
(-0.00395745 -0.000494365 0.00179715)
(-0.00381148 -0.00117406 0.00179715)
(-0.0035497 -0.00181808 0.00179715)
(-0.00318007 -0.00240686 0.00179715)
(-0.00271381 -0.0029225 0.00179715)
(-0.00216509 -0.00334935 0.00179715)
(-0.00155059 -0.00367443 0.00179715)
(-0.000888974 -0.00388787 0.00179715)
(-0.000200347 -0.00398317 0.00179715)
(0.000494365 -0.00395745 0.00179715)
(0.00117406 -0.00381148 0.00179715)
(0.00181808 -0.0035497 0.00179715)
(0.00240686 -0.00318007 0.00179715)
(0.0029225 -0.00271381 0.00179715)
(0.00334935 -0.00216509 0.00179715)
(0.00367443 -0.00155059 0.00179715)