/*--------------------------------*- C++ -*----------------------------------*\
| =========                 |                                                 |
| \\      /  F ield         | OpenFOAM: The Open Source CFD Toolbox           |
|  \\    /   O peration     | Version:  2312                                  |
|   \\  /    A nd           | Website:  www.openfoam.com                      |
|    \\/     M anipulation  |                                                 |
\*---------------------------------------------------------------------------*/
FoamFile
{
    version     2.0;
    format      ascii;
    arch        "LSB;label=32;scalar=64";
    class       volVectorField;
    location    "0.8";
    object      D_0_0_0;
}
// * * * * * * * * * * * * * * * * * * * * * * * * * * * * * * * * * * * * * //

dimensions      [0 1 0 0 0 0 0];

internalField   nonuniform List<vector> 
1620
(
(0.000123012 0.00027525 -1.67513e-05)
(7.33463e-05 0.000292429 -1.67515e-05)
(2.14526e-05 0.000300723 -1.67513e-05)
(-3.10931e-05 0.00029988 -1.67511e-05)
(-8.26945e-05 0.000289925 -1.67511e-05)
(-0.000131783 0.000271161 -1.67512e-05)
(-0.000176868 0.000244157 -1.67507e-05)
(-0.000216578 0.000209735 -1.67508e-05)
(-0.000249708 0.00016894 -1.67512e-05)
(-0.00027525 0.000123012 -1.67513e-05)
(-0.000292429 7.33463e-05 -1.67515e-05)
(-0.000300723 2.14525e-05 -1.67513e-05)
(-0.00029988 -3.10931e-05 -1.67511e-05)
(-0.000289925 -8.26945e-05 -1.67511e-05)
(-0.000271161 -0.000131783 -1.67512e-05)
(-0.000244157 -0.000176868 -1.67507e-05)
(-0.000209735 -0.000216578 -1.67508e-05)
(-0.00016894 -0.000249708 -1.67512e-05)
(-0.000123012 -0.00027525 -1.67513e-05)
(-7.33463e-05 -0.000292429 -1.67515e-05)
(-2.14525e-05 -0.000300723 -1.67513e-05)
(3.10932e-05 -0.00029988 -1.67511e-05)
(8.26945e-05 -0.000289925 -1.67511e-05)
(0.000131783 -0.000271161 -1.67512e-05)
(0.000176868 -0.000244157 -1.67507e-05)
(0.000216578 -0.000209735 -1.67508e-05)
(0.000249708 -0.00016894 -1.67512e-05)
(0.00027525 -0.000123012 -1.67513e-05)
(0.000292429 -7.33463e-05 -1.67515e-05)
(0.000300723 -2.14525e-05 -1.67513e-05)
(0.00029988 3.10931e-05 -1.67511e-05)
(0.000289926 8.26945e-05 -1.67511e-05)
(0.000271161 0.000131783 -1.67512e-05)
(0.000244157 0.000176868 -1.67507e-05)
(0.000209735 0.000216578 -1.67508e-05)
(0.00016894 0.000249708 -1.67512e-05)
(5.78991e-05 0.000339856 3.96063e-05)
(-1.99589e-06 0.000344747 3.96063e-05)
(-6.18299e-05 0.000339163 3.96064e-05)
(-0.000119785 0.000323273 3.96065e-05)
(-0.000174102 0.000297562 3.96065e-05)
(-0.000223128 0.000262809 3.96065e-05)
(-0.000265374 0.00022007 3.96066e-05)
(-0.000299558 0.000170645 3.96065e-05)
(-0.000324639 0.000116035 3.96063e-05)
(-0.000339856 5.78991e-05 3.96063e-05)
(-0.000344747 -1.99591e-06 3.96063e-05)
(-0.000339163 -6.18299e-05 3.96064e-05)
(-0.000323273 -0.000119785 3.96065e-05)
(-0.000297562 -0.000174102 3.96065e-05)
(-0.000262809 -0.000223128 3.96065e-05)
(-0.00022007 -0.000265374 3.96066e-05)
(-0.000170645 -0.000299558 3.96065e-05)
(-0.000116035 -0.000324639 3.96063e-05)
(-5.78991e-05 -0.000339856 3.96063e-05)
(1.99592e-06 -0.000344747 3.96063e-05)
(6.18299e-05 -0.000339163 3.96064e-05)
(0.000119785 -0.000323273 3.96065e-05)
(0.000174102 -0.000297562 3.96065e-05)
(0.000223128 -0.000262809 3.96065e-05)
(0.000265374 -0.00022007 3.96066e-05)
(0.000299558 -0.000170645 3.96065e-05)
(0.000324639 -0.000116035 3.96063e-05)
(0.000339856 -5.78991e-05 3.96063e-05)
(0.000344747 1.99591e-06 3.96063e-05)
(0.000339163 6.18299e-05 3.96064e-05)
(0.000323273 0.000119785 3.96065e-05)
(0.000297562 0.000174102 3.96065e-05)
(0.000262809 0.000223128 3.96065e-05)
(0.00022007 0.000265374 3.96066e-05)
(0.000170645 0.000299558 3.96065e-05)
(0.000116035 0.000324639 3.96063e-05)
(-3.9308e-05 0.000399101 5.05839e-05)
(-0.000108014 0.000386213 5.05842e-05)
(-0.000173438 0.000361589 5.0584e-05)
(-0.000233592 0.000325978 5.0584e-05)
(-0.000286649 0.000280463 5.05843e-05)
(-0.000330996 0.000226426 5.05842e-05)
(-0.000365286 0.000165509 5.05842e-05)
(-0.000388477 9.9563e-05 5.05838e-05)
(-0.000399864 3.05923e-05 5.05839e-05)
(-0.000399101 -3.9308e-05 5.05839e-05)
(-0.000386213 -0.000108014 5.05841e-05)
(-0.000361589 -0.000173438 5.0584e-05)
(-0.000325978 -0.000233592 5.0584e-05)
(-0.000280463 -0.000286649 5.05843e-05)
(-0.000226426 -0.000330996 5.05842e-05)
(-0.000165509 -0.000365286 5.05842e-05)
(-9.9563e-05 -0.000388477 5.05838e-05)
(-3.05923e-05 -0.000399864 5.05838e-05)
(3.9308e-05 -0.000399101 5.05839e-05)
(0.000108014 -0.000386213 5.05841e-05)
(0.000173438 -0.000361589 5.0584e-05)
(0.000233592 -0.000325978 5.0584e-05)
(0.000286649 -0.000280463 5.05843e-05)
(0.000330996 -0.000226426 5.05842e-05)
(0.000365286 -0.000165509 5.05842e-05)
(0.000388477 -9.9563e-05 5.05838e-05)
(0.000399864 -3.05923e-05 5.05839e-05)
(0.000399101 3.9308e-05 5.05839e-05)
(0.000386213 0.000108014 5.05842e-05)
(0.000361589 0.000173438 5.0584e-05)
(0.000325978 0.000233592 5.0584e-05)
(0.000280463 0.000286649 5.05843e-05)
(0.000226426 0.000330996 5.05842e-05)
(0.000165509 0.000365286 5.05842e-05)
(9.9563e-05 0.000388477 5.05838e-05)
(3.05923e-05 0.000399864 5.05839e-05)
(0.000232998 0.00089767 0.000115188)
(7.358e-05 0.000924493 0.000115188)
(-8.8074e-05 0.000923225 0.000115188)
(-0.000247052 0.000893905 0.000115189)
(-0.000398523 0.000837424 0.00011519)
(-0.000537886 0.000755499 0.000115189)
(-0.000660906 0.000650619 0.000115189)
(-0.000763844 0.000525969 0.000115189)
(-0.000843573 0.000385337 0.000115188)
(-0.00089767 0.000232998 0.000115188)
(-0.000924493 7.35799e-05 0.000115188)
(-0.000923225 -8.80741e-05 0.000115188)
(-0.000893905 -0.000247052 0.000115189)
(-0.000837424 -0.000398523 0.00011519)
(-0.000755499 -0.000537886 0.000115189)
(-0.000650619 -0.000660906 0.000115189)
(-0.000525969 -0.000763844 0.000115189)
(-0.000385337 -0.000843573 0.000115188)
(-0.000232998 -0.00089767 0.000115188)
(-7.35799e-05 -0.000924493 0.000115188)
(8.80741e-05 -0.000923225 0.000115188)
(0.000247052 -0.000893905 0.000115189)
(0.000398523 -0.000837424 0.00011519)
(0.000537886 -0.000755499 0.000115189)
(0.000660906 -0.000650619 0.000115189)
(0.000763844 -0.000525969 0.000115189)
(0.000843573 -0.000385337 0.000115188)
(0.00089767 -0.000232998 0.000115188)
(0.000924493 -7.35799e-05 0.000115188)
(0.000923225 8.80741e-05 0.000115188)
(0.000893905 0.000247052 0.000115189)
(0.000837424 0.000398523 0.00011519)
(0.000755499 0.000537886 0.000115189)
(0.000650619 0.000660906 0.000115189)
(0.000525969 0.000763844 0.000115189)
(0.000385337 0.000843573 0.000115188)
(0.000121409 0.00101141 0.000215331)
(-5.60643e-05 0.00101713 0.000215331)
(-0.000231835 0.00099194 0.000215331)
(-0.000400561 0.000936613 0.000215332)
(-0.000557117 0.000852827 0.000215332)
(-0.000696745 0.000743128 0.000215332)
(-0.000815202 0.00061085 0.000215332)
(-0.000908891 0.00046001 0.000215331)
(-0.000974963 0.000295195 0.000215331)
(-0.00101141 0.000121409 0.000215331)
(-0.00101713 -5.60644e-05 0.000215331)
(-0.00099194 -0.000231835 0.000215331)
(-0.000936613 -0.000400561 0.000215332)
(-0.000852827 -0.000557117 0.000215332)
(-0.000743128 -0.000696745 0.000215332)
(-0.00061085 -0.000815202 0.000215332)
(-0.00046001 -0.000908891 0.000215331)
(-0.000295194 -0.000974963 0.000215331)
(-0.000121409 -0.00101141 0.000215331)
(5.60644e-05 -0.00101713 0.000215331)
(0.000231835 -0.00099194 0.000215331)
(0.000400561 -0.000936613 0.000215332)
(0.000557117 -0.000852827 0.000215332)
(0.000696745 -0.000743128 0.000215332)
(0.000815202 -0.00061085 0.000215332)
(0.000908891 -0.00046001 0.000215331)
(0.000974963 -0.000295194 0.000215331)
(0.00101141 -0.000121409 0.000215331)
(0.00101713 5.60644e-05 0.000215331)
(0.000991941 0.000231835 0.000215331)
(0.000936613 0.000400561 0.000215332)
(0.000852827 0.000557117 0.000215332)
(0.000743128 0.000696745 0.000215332)
(0.00061085 0.000815202 0.000215332)
(0.00046001 0.000908891 0.000215331)
(0.000295195 0.000974963 0.000215331)
(-2.87729e-05 0.0011105 0.000288163)
(-0.000221172 0.00108863 0.000288163)
(-0.000406849 0.00103369 0.000288163)
(-0.000580166 0.000947333 0.000288163)
(-0.000735855 0.000832196 0.000288163)
(-0.000869185 0.000691773 0.000288163)
(-0.000976105 0.000530331 0.000288163)
(-0.00105337 0.000352775 0.000288163)
(-0.00109862 0.0001645 0.000288163)
(-0.0011105 -2.87729e-05 0.000288163)
(-0.00108863 -0.000221172 0.000288163)
(-0.00103369 -0.000406849 0.000288163)
(-0.000947333 -0.000580166 0.000288163)
(-0.000832196 -0.000735855 0.000288163)
(-0.000691773 -0.000869185 0.000288163)
(-0.000530331 -0.000976105 0.000288163)
(-0.000352775 -0.00105337 0.000288163)
(-0.0001645 -0.00109862 0.000288163)
(2.87729e-05 -0.0011105 0.000288163)
(0.000221172 -0.00108863 0.000288163)
(0.00040685 -0.00103369 0.000288163)
(0.000580166 -0.000947333 0.000288163)
(0.000735855 -0.000832196 0.000288163)
(0.000869185 -0.000691773 0.000288163)
(0.000976105 -0.000530331 0.000288163)
(0.00105337 -0.000352775 0.000288163)
(0.00109862 -0.0001645 0.000288163)
(0.0011105 2.87729e-05 0.000288163)
(0.00108863 0.000221172 0.000288163)
(0.00103369 0.000406849 0.000288163)
(0.000947333 0.000580166 0.000288163)
(0.000832196 0.000735855 0.000288163)
(0.000691773 0.000869185 0.000288163)
(0.000530331 0.000976105 0.000288163)
(0.000352775 0.00105337 0.000288163)
(0.0001645 0.00109862 0.000288163)
(0.000279001 0.00152803 0.000341977)
(9.42263e-06 0.00155327 0.000341977)
(-0.000260442 0.00153131 0.000341977)
(-0.000522394 0.00146282 0.000341979)
(-0.000768473 0.00134988 0.00034198)
(-0.000991202 0.00119593 0.00034198)
(-0.00118381 0.00100564 0.00034198)
(-0.00134046 0.000784794 0.000341979)
(-0.00145637 0.000540103 0.000341977)
(-0.00152803 0.000279001 0.000341977)
(-0.00155327 9.42254e-06 0.000341977)
(-0.00153131 -0.000260442 0.000341977)
(-0.00146282 -0.000522394 0.000341979)
(-0.00134988 -0.000768473 0.00034198)
(-0.00119593 -0.000991202 0.00034198)
(-0.00100564 -0.00118381 0.00034198)
(-0.000784794 -0.00134046 0.000341979)
(-0.000540103 -0.00145637 0.000341977)
(-0.000279001 -0.00152803 0.000341977)
(-9.42247e-06 -0.00155327 0.000341977)
(0.000260442 -0.00153131 0.000341977)
(0.000522394 -0.00146282 0.000341979)
(0.000768473 -0.00134988 0.00034198)
(0.000991202 -0.00119593 0.00034198)
(0.00118381 -0.00100564 0.00034198)
(0.00134046 -0.000784794 0.000341979)
(0.00145637 -0.000540103 0.000341977)
(0.00152803 -0.000279001 0.000341977)
(0.00155327 -9.42254e-06 0.000341977)
(0.00153131 0.000260442 0.000341977)
(0.00146282 0.000522394 0.000341979)
(0.00134988 0.000768473 0.00034198)
(0.00119593 0.000991202 0.00034198)
(0.00100564 0.00118381 0.00034198)
(0.000784794 0.00134046 0.000341979)
(0.000540103 0.00145637 0.000341977)
(0.000126621 0.00165878 0.000466907)
(-0.000163346 0.00165556 0.000466907)
(-0.000448349 0.00160205 0.000466907)
(-0.00071973 0.00149985 0.000466907)
(-0.000969243 0.00135209 0.000466908)
(-0.0011893 0.00116324 0.000466908)
(-0.00137323 0.000939046 0.000466908)
(-0.00151543 0.00068632 0.000466908)
(-0.00161159 0.000412741 0.000466907)
(-0.00165878 0.000126621 0.000466907)
(-0.00165556 -0.000163346 0.000466907)
(-0.00160205 -0.000448349 0.000466907)
(-0.00149985 -0.00071973 0.000466907)
(-0.00135209 -0.000969243 0.000466908)
(-0.00116324 -0.0011893 0.000466908)
(-0.000939046 -0.00137323 0.000466908)
(-0.00068632 -0.00151543 0.000466908)
(-0.000412741 -0.00161159 0.000466907)
(-0.000126621 -0.00165878 0.000466907)
(0.000163346 -0.00165556 0.000466907)
(0.000448349 -0.00160205 0.000466907)
(0.00071973 -0.00149985 0.000466907)
(0.000969243 -0.00135209 0.000466908)
(0.0011893 -0.00116324 0.000466908)
(0.00137323 -0.000939046 0.000466908)
(0.00151543 -0.00068632 0.000466908)
(0.00161159 -0.000412741 0.000466907)
(0.00165878 -0.000126621 0.000466907)
(0.00165556 0.000163346 0.000466907)
(0.00160205 0.000448349 0.000466907)
(0.00149985 0.00071973 0.000466908)
(0.00135209 0.000969243 0.000466908)
(0.00116324 0.0011893 0.000466908)
(0.000939046 0.00137323 0.000466908)
(0.00068632 0.00151543 0.000466908)
(0.000412741 0.00161159 0.000466907)
(-5.97982e-05 0.0017714 0.000569507)
(-0.00036649 0.00173411 0.000569507)
(-0.000662046 0.00164412 0.000569507)
(-0.000937486 0.00150418 0.000569507)
(-0.00118444 0.00131854 0.000569507)
(-0.00139541 0.00109283 0.000569507)
(-0.00156398 0.000833914 0.000569507)
(-0.00168502 0.000549663 0.000569507)
(-0.00175487 0.000248711 0.000569507)
(-0.0017714 -5.97982e-05 0.000569507)
(-0.00173411 -0.00036649 0.000569507)
(-0.00164412 -0.000662046 0.000569507)
(-0.00150418 -0.000937486 0.000569507)
(-0.00131854 -0.00118444 0.000569507)
(-0.00109283 -0.00139541 0.000569507)
(-0.000833914 -0.00156398 0.000569507)
(-0.000549663 -0.00168502 0.000569507)
(-0.000248711 -0.00175487 0.000569507)
(5.97983e-05 -0.0017714 0.000569507)
(0.00036649 -0.00173411 0.000569507)
(0.000662046 -0.00164412 0.000569507)
(0.000937486 -0.00150418 0.000569507)
(0.00118444 -0.00131854 0.000569507)
(0.00139541 -0.00109283 0.000569507)
(0.00156398 -0.000833914 0.000569507)
(0.00168502 -0.000549663 0.000569507)
(0.00175487 -0.000248711 0.000569507)
(0.0017714 5.97983e-05 0.000569507)
(0.00173411 0.00036649 0.000569507)
(0.00164412 0.000662046 0.000569507)
(0.00150418 0.000937486 0.000569507)
(0.00131854 0.00118444 0.000569507)
(0.00109283 0.00139541 0.000569507)
(0.000833914 0.00156398 0.000569507)
(0.000549663 0.00168502 0.000569507)
(0.000248711 0.00175487 0.000569507)
(0.000232598 0.002146 0.000615476)
(-0.000143585 0.00215379 0.000615476)
(-0.000515405 0.00209613 0.000615476)
(-0.000871565 0.00197479 0.000615477)
(-0.00120124 0.00179344 0.000615478)
(-0.00149442 0.0015576 0.000615478)
(-0.00174219 0.00127444 0.000615478)
(-0.00193703 0.000952545 0.000615478)
(-0.00207301 0.000601713 0.000615477)
(-0.002146 0.000232598 0.000615476)
(-0.00215379 -0.000143585 0.000615475)
(-0.00209613 -0.000515406 0.000615476)
(-0.00197479 -0.000871565 0.000615477)
(-0.00179344 -0.00120124 0.000615478)
(-0.0015576 -0.00149442 0.000615478)
(-0.00127444 -0.00174219 0.000615478)
(-0.000952545 -0.00193703 0.000615478)
(-0.000601713 -0.00207301 0.000615476)
(-0.000232597 -0.002146 0.000615476)
(0.000143585 -0.00215379 0.000615475)
(0.000515406 -0.00209613 0.000615476)
(0.000871565 -0.00197479 0.000615477)
(0.00120124 -0.00179344 0.000615478)
(0.00149442 -0.0015576 0.000615478)
(0.00174219 -0.00127444 0.000615478)
(0.00193703 -0.000952545 0.000615478)
(0.00207301 -0.000601713 0.000615477)
(0.002146 -0.000232598 0.000615476)
(0.00215379 0.000143585 0.000615476)
(0.00209613 0.000515406 0.000615476)
(0.00197479 0.000871565 0.000615477)
(0.00179344 0.00120124 0.000615478)
(0.0015576 0.00149442 0.000615478)
(0.00127444 0.00174219 0.000615478)
(0.000952546 0.00193703 0.000615478)
(0.000601713 0.00207301 0.000615477)
(6.37427e-05 0.00226298 0.000748241)
(-0.000330189 0.00223967 0.00074824)
(-0.000714087 0.00214831 0.000748241)
(-0.00107629 0.00199167 0.000748241)
(-0.00140579 0.00177452 0.000748241)
(-0.00169257 0.00150345 0.000748241)
(-0.00192793 0.0011867 0.000748242)
(-0.00210471 0.000833885 0.000748241)
(-0.00221753 0.000455737 0.000748241)
(-0.00226298 6.37426e-05 0.000748241)
(-0.00223967 -0.000330189 0.00074824)
(-0.00214831 -0.000714087 0.00074824)
(-0.00199167 -0.00107629 0.000748241)
(-0.00177452 -0.00140579 0.000748241)
(-0.00150345 -0.00169257 0.000748241)
(-0.00118669 -0.00192793 0.000748242)
(-0.000833885 -0.00210471 0.000748241)
(-0.000455737 -0.00221753 0.000748241)
(-6.37425e-05 -0.00226298 0.000748241)
(0.000330189 -0.00223967 0.00074824)
(0.000714087 -0.00214831 0.000748241)
(0.00107629 -0.00199167 0.000748241)
(0.00140579 -0.00177452 0.000748241)
(0.00169257 -0.00150345 0.000748241)
(0.00192793 -0.00118669 0.000748242)
(0.00210471 -0.000833885 0.000748241)
(0.00221753 -0.000455737 0.000748241)
(0.00226298 -6.37426e-05 0.000748241)
(0.00223967 0.000330189 0.00074824)
(0.00214831 0.000714087 0.000748241)
(0.00199167 0.00107629 0.000748241)
(0.00177452 0.00140579 0.000748241)
(0.00150345 0.00169257 0.000748241)
(0.0011867 0.00192793 0.000748242)
(0.000833885 0.00210471 0.000748241)
(0.000455737 0.00221753 0.000748241)
(-0.000134554 0.00236177 0.000860795)
(-0.000542627 0.00230252 0.000860795)
(-0.000934211 0.00217332 0.000860795)
(-0.00129741 0.00197807 0.000860795)
(-0.00162119 0.00172273 0.000860794)
(-0.00189571 0.00141504 0.000860795)
(-0.00211263 0.00106436 0.000860795)
(-0.00226536 0.000681334 0.000860795)
(-0.00234925 0.000277607 0.000860795)
(-0.00236177 -0.000134554 0.000860795)
(-0.00230252 -0.000542627 0.000860795)
(-0.00217332 -0.000934211 0.000860795)
(-0.00197807 -0.00129741 0.000860795)
(-0.00172273 -0.00162119 0.000860794)
(-0.00141504 -0.00189571 0.000860795)
(-0.00106436 -0.00211263 0.000860795)
(-0.000681333 -0.00226536 0.000860795)
(-0.000277607 -0.00234925 0.000860795)
(0.000134554 -0.00236177 0.000860795)
(0.000542627 -0.00230252 0.000860795)
(0.000934212 -0.00217332 0.000860795)
(0.00129741 -0.00197807 0.000860795)
(0.00162119 -0.00172273 0.000860794)
(0.00189571 -0.00141504 0.000860795)
(0.00211263 -0.00106436 0.000860795)
(0.00226536 -0.000681334 0.000860795)
(0.00234925 -0.000277607 0.000860795)
(0.00236177 0.000134554 0.000860795)
(0.00230252 0.000542627 0.000860795)
(0.00217332 0.000934211 0.000860795)
(0.00197807 0.00129741 0.000860795)
(0.00172273 0.00162119 0.000860795)
(0.00141504 0.00189571 0.000860795)
(0.00106436 0.00211263 0.000860795)
(0.000681334 0.00226536 0.000860795)
(0.000277607 0.00234925 0.000860795)
(0.000107583 0.00272179 0.000907106)
(-0.000366685 0.00269912 0.000907105)
(-0.000829812 0.00259444 0.000907105)
(-0.00126772 0.00241093 0.000907106)
(-0.00166712 0.00215416 0.000907107)
(-0.00201586 0.00183194 0.000907107)
(-0.00230334 0.00145406 0.000907107)
(-0.00252085 0.001032 0.000907107)
(-0.00266175 0.000578582 0.000907107)
(-0.00272179 0.000107583 0.000907106)
(-0.00269912 -0.000366685 0.000907105)
(-0.00259444 -0.000829812 0.000907105)
(-0.00241093 -0.00126772 0.000907106)
(-0.00215416 -0.00166712 0.000907107)
(-0.00183194 -0.00201586 0.000907107)
(-0.00145406 -0.00230334 0.000907107)
(-0.001032 -0.00252085 0.000907107)
(-0.000578581 -0.00266176 0.000907107)
(-0.000107582 -0.00272179 0.000907106)
(0.000366685 -0.00269912 0.000907105)
(0.000829812 -0.00259444 0.000907105)
(0.00126772 -0.00241093 0.000907106)
(0.00166712 -0.00215416 0.000907107)
(0.00201586 -0.00183194 0.000907107)
(0.00230334 -0.00145406 0.000907107)
(0.00252085 -0.001032 0.000907107)
(0.00266176 -0.000578582 0.000907107)
(0.00272179 -0.000107582 0.000907106)
(0.00269912 0.000366685 0.000907105)
(0.00259444 0.000829812 0.000907106)
(0.00241093 0.00126772 0.000907106)
(0.00215416 0.00166712 0.000907107)
(0.00183194 0.00201586 0.000907107)
(0.00145406 0.00230334 0.000907107)
(0.001032 0.00252085 0.000907107)
(0.000578582 0.00266176 0.000907107)
(-6.05525e-05 0.00280417 0.00103619)
(-0.000546573 0.00275106 0.00103619)
(-0.00101598 0.00261435 0.00103619)
(-0.00145453 0.00239821 0.00103619)
(-0.00184887 0.0021092 0.00103619)
(-0.00218704 0.0017561 0.00103619)
(-0.00245876 0.00134965 0.00103619)
(-0.00265577 0.000902184 0.00103619)
(-0.00277209 0.000427307 0.00103619)
(-0.00280417 -6.05526e-05 0.00103619)
(-0.00275106 -0.000546573 0.00103619)
(-0.00261435 -0.00101598 0.00103619)
(-0.00239821 -0.00145453 0.00103619)
(-0.0021092 -0.00184887 0.00103619)
(-0.0017561 -0.00218704 0.00103619)
(-0.00134965 -0.00245876 0.00103619)
(-0.000902184 -0.00265577 0.00103619)
(-0.000427307 -0.00277209 0.00103619)
(6.05528e-05 -0.00280417 0.00103619)
(0.000546573 -0.00275106 0.00103619)
(0.00101599 -0.00261435 0.00103619)
(0.00145453 -0.00239821 0.00103619)
(0.00184887 -0.0021092 0.00103619)
(0.00218704 -0.0017561 0.00103619)
(0.00245876 -0.00134965 0.00103619)
(0.00265577 -0.000902184 0.00103619)
(0.00277209 -0.000427307 0.00103619)
(0.00280417 6.05527e-05 0.00103619)
(0.00275106 0.000546573 0.00103619)
(0.00261435 0.00101598 0.00103619)
(0.00239821 0.00145453 0.00103619)
(0.0021092 0.00184887 0.00103619)
(0.0017561 0.00218704 0.00103619)
(0.00134965 0.00245876 0.00103619)
(0.000902184 0.00265577 0.00103619)
(0.000427308 0.00277209 0.00103619)
(-0.000253808 0.00286984 0.00114594)
(-0.000748295 0.00278217 0.00114594)
(-0.00122005 0.00260996 0.00114594)
(-0.00165473 0.00235845 0.00114594)
(-0.00203913 0.00203528 0.00114594)
(-0.00236157 0.00165027 0.00114594)
(-0.00261226 0.00121512 0.00114594)
(-0.00278358 0.000743044 0.00114594)
(-0.00287032 0.000248392 0.00114594)
(-0.00286984 -0.000253808 0.00114594)
(-0.00278217 -0.000748295 0.00114594)
(-0.00260996 -0.00122005 0.00114594)
(-0.00235845 -0.00165473 0.00114594)
(-0.00203528 -0.00203913 0.00114594)
(-0.00165027 -0.00236157 0.00114594)
(-0.00121512 -0.00261226 0.00114594)
(-0.000743044 -0.00278358 0.00114594)
(-0.000248392 -0.00287032 0.00114594)
(0.000253808 -0.00286984 0.00114594)
(0.000748295 -0.00278217 0.00114594)
(0.00122005 -0.00260996 0.00114594)
(0.00165473 -0.00235845 0.00114594)
(0.00203913 -0.00203528 0.00114594)
(0.00236157 -0.00165027 0.00114594)
(0.00261226 -0.00121512 0.00114594)
(0.00278358 -0.000743044 0.00114594)
(0.00287032 -0.000248392 0.00114594)
(0.00286984 0.000253808 0.00114594)
(0.00278217 0.000748295 0.00114594)
(0.00260996 0.00122005 0.00114594)
(0.00235845 0.00165473 0.00114594)
(0.00203528 0.00203913 0.00114594)
(0.00165027 0.00236157 0.00114594)
(0.00121512 0.00261226 0.00114594)
(0.000743044 0.00278358 0.00114594)
(0.000248392 0.00287032 0.00114594)
(-7.05981e-05 0.00322582 0.0012029)
(-0.000629684 0.00316456 0.0012029)
(-0.00116964 0.00300714 0.0012029)
(-0.00167405 0.00275835 0.0012029)
(-0.0021276 0.00242574 0.0012029)
(-0.0025165 0.00201944 0.0012029)
(-0.00282894 0.00155177 0.0012029)
(-0.00305543 0.00103696 0.0012029)
(-0.00318907 0.000490633 0.0012029)
(-0.00322582 -7.05983e-05 0.0012029)
(-0.00316456 -0.000629684 0.0012029)
(-0.00300714 -0.00116964 0.0012029)
(-0.00275835 -0.00167405 0.0012029)
(-0.00242574 -0.0021276 0.0012029)
(-0.00201944 -0.0025165 0.0012029)
(-0.00155177 -0.00282894 0.0012029)
(-0.00103696 -0.00305543 0.0012029)
(-0.000490632 -0.00318907 0.0012029)
(7.05985e-05 -0.00322582 0.0012029)
(0.000629684 -0.00316456 0.0012029)
(0.00116964 -0.00300714 0.0012029)
(0.00167405 -0.00275835 0.0012029)
(0.0021276 -0.00242574 0.0012029)
(0.0025165 -0.00201944 0.0012029)
(0.00282894 -0.00155177 0.0012029)
(0.00305543 -0.00103696 0.0012029)
(0.00318907 -0.000490633 0.0012029)
(0.00322582 7.05984e-05 0.0012029)
(0.00316456 0.000629684 0.0012029)
(0.00300714 0.00116964 0.0012029)
(0.00275835 0.00167405 0.0012029)
(0.00242574 0.0021276 0.0012029)
(0.00201944 0.0025165 0.0012029)
(0.00155177 0.00282894 0.0012029)
(0.00103696 0.00305543 0.0012029)
(0.000490633 0.00318907 0.0012029)
(-0.000230089 0.0032618 0.00132047)
(-0.000793 0.00317229 0.00132047)
(-0.00133181 0.00298639 0.00132047)
(-0.00183016 0.00270976 0.00132047)
(-0.0022729 0.00235079 0.00132047)
(-0.00264658 0.00192039 0.00132047)
(-0.00293984 0.00143164 0.00132047)
(-0.00314378 0.000899389 0.00132047)
(-0.0032522 0.000339812 0.00132048)
(-0.0032618 -0.000230089 0.00132047)
(-0.00317229 -0.000793 0.00132047)
(-0.00298639 -0.00133181 0.00132047)
(-0.00270976 -0.00183016 0.00132047)
(-0.00235079 -0.0022729 0.00132047)
(-0.00192039 -0.00264658 0.00132047)
(-0.00143164 -0.00293984 0.00132047)
(-0.000899389 -0.00314378 0.00132047)
(-0.000339812 -0.0032522 0.00132048)
(0.000230089 -0.0032618 0.00132047)
(0.000793 -0.00317229 0.00132047)
(0.00133181 -0.00298639 0.00132047)
(0.00183016 -0.00270976 0.00132047)
(0.0022729 -0.00235079 0.00132047)
(0.00264658 -0.00192039 0.00132047)
(0.00293984 -0.00143164 0.00132047)
(0.00314378 -0.000899389 0.00132048)
(0.0032522 -0.000339812 0.00132048)
(0.0032618 0.000230089 0.00132047)
(0.00317229 0.000793 0.00132047)
(0.0029864 0.00133181 0.00132047)
(0.00270976 0.00183016 0.00132047)
(0.00235079 0.0022729 0.00132047)
(0.00192039 0.00264658 0.00132047)
(0.00143164 0.00293984 0.00132047)
(0.00089939 0.00314378 0.00132048)
(0.000339813 0.0032522 0.00132048)
(-0.00040991 0.00328395 0.00141884)
(-0.000973936 0.00316288 0.00141884)
(-0.00150837 0.00294571 0.00141884)
(-0.00199697 0.00263903 0.00141884)
(-0.00242489 0.00225217 0.00141884)
(-0.00277914 0.00179687 0.00141884)
(-0.00304894 0.00128698 0.00141884)
(-0.0032261 0.000737989 0.00141884)
(-0.00330524 0.000166569 0.00141884)
(-0.00328395 -0.000409911 0.00141884)
(-0.00316288 -0.000973936 0.00141884)
(-0.00294571 -0.00150837 0.00141884)
(-0.00263903 -0.00199697 0.00141884)
(-0.00225217 -0.00242489 0.00141884)
(-0.00179687 -0.00277914 0.00141884)
(-0.00128698 -0.00304894 0.00141884)
(-0.000737988 -0.0032261 0.00141884)
(-0.000166569 -0.00330524 0.00141884)
(0.000409911 -0.00328395 0.00141884)
(0.000973936 -0.00316288 0.00141884)
(0.00150837 -0.00294571 0.00141884)
(0.00199697 -0.00263903 0.00141884)
(0.00242489 -0.00225217 0.00141884)
(0.00277914 -0.00179687 0.00141884)
(0.00304894 -0.00128698 0.00141884)
(0.0032261 -0.000737989 0.00141884)
(0.00330524 -0.000166569 0.00141884)
(0.00328395 0.000409911 0.00141884)
(0.00316288 0.000973936 0.00141884)
(0.00294571 0.00150837 0.00141884)
(0.00263903 0.00199697 0.00141884)
(0.00225217 0.00242489 0.00141884)
(0.00179687 0.00277914 0.00141884)
(0.00128698 0.00304894 0.00141884)
(0.000737989 0.0032261 0.00141884)
(0.00016657 0.00330524 0.00141884)
(-0.000271751 0.00363368 0.0015037)
(-0.000898603 0.00353128 0.0015037)
(-0.00149815 0.0033216 0.0015037)
(-0.00205218 0.00301098 0.0015037)
(-0.00254385 0.00260888 0.0015037)
(-0.00295823 0.00212751 0.0015037)
(-0.00328273 0.00158149 0.0015037)
(-0.00350748 0.000987428 0.0015037)
(-0.00362566 0.000363358 0.0015037)
(-0.00363368 -0.000271751 0.0015037)
(-0.00353128 -0.000898603 0.0015037)
(-0.0033216 -0.00149815 0.0015037)
(-0.00301098 -0.00205218 0.0015037)
(-0.00260888 -0.00254385 0.0015037)
(-0.00212751 -0.00295823 0.0015037)
(-0.00158149 -0.00328273 0.0015037)
(-0.000987427 -0.00350748 0.0015037)
(-0.000363358 -0.00362566 0.0015037)
(0.000271751 -0.00363368 0.0015037)
(0.000898604 -0.00353128 0.0015037)
(0.00149815 -0.0033216 0.0015037)
(0.00205218 -0.00301098 0.0015037)
(0.00254385 -0.00260888 0.0015037)
(0.00295824 -0.00212751 0.0015037)
(0.00328273 -0.00158149 0.0015037)
(0.00350748 -0.000987427 0.0015037)
(0.00362566 -0.000363358 0.0015037)
(0.00363368 0.000271751 0.0015037)
(0.00353129 0.000898603 0.0015037)
(0.0033216 0.00149815 0.0015037)
(0.00301098 0.00205218 0.0015037)
(0.00260888 0.00254385 0.0015037)
(0.00212751 0.00295824 0.0015037)
(0.0015815 0.00328273 0.0015037)
(0.000987428 0.00350748 0.0015037)
(0.000363358 0.00362566 0.0015037)
(-0.000421964 0.003616 0.00160297)
(-0.00104347 0.00348779 0.00160297)
(-0.00163326 0.00325361 0.00160297)
(-0.00217343 0.00292056 0.00160297)
(-0.00264756 0.00249878 0.00160297)
(-0.00304125 0.00200108 0.00160297)
(-0.00334253 0.00144257 0.00160297)
(-0.00354225 0.000840228 0.00160297)
(-0.00363434 0.000212357 0.00160297)
(-0.003616 -0.000421964 0.00160297)
(-0.00348779 -0.00104347 0.00160297)
(-0.00325361 -0.00163326 0.00160297)
(-0.00292056 -0.00217343 0.00160297)
(-0.00249878 -0.00264756 0.00160297)
(-0.00200108 -0.00304125 0.00160297)
(-0.00144257 -0.00334253 0.00160297)
(-0.000840228 -0.00354225 0.00160297)
(-0.000212357 -0.00363434 0.00160297)
(0.000421964 -0.003616 0.00160297)
(0.00104347 -0.00348779 0.00160297)
(0.00163326 -0.00325361 0.00160297)
(0.00217343 -0.00292056 0.00160297)
(0.00264756 -0.00249878 0.00160297)
(0.00304125 -0.00200108 0.00160297)
(0.00334253 -0.00144257 0.00160297)
(0.00354225 -0.000840228 0.00160297)
(0.00363434 -0.000212357 0.00160297)
(0.003616 0.000421964 0.00160297)
(0.00348779 0.00104347 0.00160297)
(0.00325361 0.00163326 0.00160297)
(0.00292056 0.00217343 0.00160297)
(0.00249878 0.00264756 0.00160297)
(0.00200108 0.00304125 0.00160297)
(0.00144257 0.00334253 0.00160297)
(0.000840228 0.00354225 0.00160297)
(0.000212357 0.00363434 0.00160297)
(-0.000586606 0.00358956 0.00168236)
(-0.00120101 0.00343316 0.00168236)
(-0.00177893 0.00317245 0.00168236)
(-0.00230279 0.00281534 0.00168236)
(-0.00275669 0.0023727 0.00168236)
(-0.00312682 0.00185796 0.00168236)
(-0.00340195 0.00128676 0.00168236)
(-0.00357371 0.000676473 0.00168236)
(-0.00363689 4.56271e-05 0.00168236)
(-0.00358956 -0.000586606 0.00168236)
(-0.00343316 -0.00120101 0.00168236)
(-0.00317245 -0.00177893 0.00168236)
(-0.00281534 -0.00230279 0.00168236)
(-0.0023727 -0.00275669 0.00168236)
(-0.00185796 -0.00312682 0.00168236)
(-0.00128676 -0.00340195 0.00168236)
(-0.000676472 -0.00357371 0.00168236)
(-4.56269e-05 -0.00363689 0.00168236)
(0.000586606 -0.00358956 0.00168236)
(0.00120101 -0.00343316 0.00168236)
(0.00177893 -0.00317245 0.00168236)
(0.00230279 -0.00281534 0.00168236)
(0.00275669 -0.0023727 0.00168236)
(0.00312682 -0.00185796 0.00168236)
(0.00340195 -0.00128676 0.00168236)
(0.00357371 -0.000676473 0.00168236)
(0.00363689 -4.5627e-05 0.00168236)
(0.00358956 0.000586606 0.00168236)
(0.00343316 0.00120101 0.00168236)
(0.00317245 0.00177893 0.00168236)
(0.00281534 0.00230279 0.00168236)
(0.0023727 0.00275669 0.00168236)
(0.00185796 0.00312682 0.00168236)
(0.00128676 0.00340195 0.00168236)
(0.000676473 0.00357371 0.00168236)
(4.56273e-05 0.00363689 0.00168236)
(-0.000463509 0.00392524 0.00182067)
(-0.00113808 0.00378512 0.00182067)
(-0.00177807 0.00352999 0.00182066)
(-0.00236403 0.00316761 0.00182066)
(-0.00287817 0.00270897 0.00182066)
(-0.00330485 0.00216803 0.00182066)
(-0.00363111 0.00156121 0.00182066)
(-0.00384705 0.000906954 0.00182067)
(-0.0039461 0.000225142 0.00182067)
(-0.00392524 -0.00046351 0.00182067)
(-0.00378512 -0.00113808 0.00182067)
(-0.00352999 -0.00177807 0.00182066)
(-0.00316761 -0.00236403 0.00182066)
(-0.00270897 -0.00287817 0.00182066)
(-0.00216803 -0.00330485 0.00182066)
(-0.00156121 -0.00363112 0.00182066)
(-0.000906954 -0.00384705 0.00182067)
(-0.000225141 -0.0039461 0.00182067)
(0.00046351 -0.00392524 0.00182067)
(0.00113808 -0.00378512 0.00182067)
(0.00177807 -0.00352999 0.00182066)
(0.00236403 -0.00316761 0.00182066)
(0.00287817 -0.00270897 0.00182066)
(0.00330485 -0.00216803 0.00182066)
(0.00363112 -0.00156121 0.00182066)
(0.00384705 -0.000906954 0.00182067)