/*--------------------------------*- C++ -*----------------------------------*\
| =========                 |                                                 |
| \\      /  F ield         | OpenFOAM: The Open Source CFD Toolbox           |
|  \\    /   O peration     | Version:  2312                                  |
|   \\  /    A nd           | Website:  www.openfoam.com                      |
|    \\/     M anipulation  |                                                 |
\*---------------------------------------------------------------------------*/
FoamFile
{
    version     2.0;
    format      ascii;
    arch        "LSB;label=32;scalar=64";
    class       volTensorField;
    location    "0.8";
    object      F;
}
// * * * * * * * * * * * * * * * * * * * * * * * * * * * * * * * * * * * * * //

dimensions      [0 0 0 0 0 0 0];

internalField   nonuniform List<tensor> 
1620
(
(1.06822 -0.0239905 -0.0523335 -0.0674235 1.00762 -0.329021 -0.0585344 -0.00512121 0.927483)
(1.08202 -0.0108717 0.00559534 -0.054305 0.993819 -0.33311 -0.0567561 -0.0152078 0.927483)
(1.09051 0.00617777 0.0633544 -0.0372557 0.985333 -0.327078 -0.0532531 -0.0248322 0.927483)
(1.09265 0.0251014 0.119189 -0.0183318 0.98319 -0.311108 -0.0481319 -0.0337023 0.927482)
(1.0882 0.0436167 0.171401 0.000183671 0.987648 -0.285684 -0.0415483 -0.0415484 0.927482)
(1.07767 0.0594904 0.218405 0.0160577 0.99817 -0.251581 -0.0337026 -0.0481319 0.927482)
(1.06236 0.0708081 0.258774 0.0273754 1.01349 -0.209833 -0.0248323 -0.0532526 0.927483)
(1.04409 0.0762046 0.29128 0.0327719 1.03175 -0.161709 -0.0152074 -0.0567556 0.927483)
(1.02508 0.0750292 0.314935 0.0315963 1.05076 -0.108672 -0.00512094 -0.0585343 0.927483)
(1.00762 0.0674236 0.329021 0.0239905 1.06822 -0.0523335 0.00512121 -0.0585344 0.927483)
(0.993819 0.054305 0.33311 0.0108717 1.08202 0.00559536 0.0152078 -0.0567561 0.927483)
(0.985333 0.0372557 0.327078 -0.00617776 1.09051 0.0633544 0.0248322 -0.0532531 0.927483)
(0.98319 0.0183318 0.311108 -0.0251014 1.09265 0.119189 0.0337023 -0.0481319 0.927482)
(0.987648 -0.000183667 0.285684 -0.0436167 1.0882 0.171401 0.0415484 -0.0415483 0.927482)
(0.99817 -0.0160577 0.251581 -0.0594904 1.07767 0.218405 0.0481319 -0.0337026 0.927482)
(1.01349 -0.0273754 0.209833 -0.0708081 1.06236 0.258774 0.0532526 -0.0248323 0.927483)
(1.03175 -0.0327719 0.161709 -0.0762046 1.04409 0.29128 0.0567556 -0.0152075 0.927483)
(1.05076 -0.0315963 0.108672 -0.0750292 1.02508 0.314935 0.0585343 -0.00512094 0.927483)
(1.06822 -0.0239905 0.0523335 -0.0674235 1.00762 0.329021 0.0585344 0.00512121 0.927483)
(1.08202 -0.0108717 -0.00559537 -0.054305 0.993819 0.33311 0.0567561 0.0152078 0.927483)
(1.09051 0.00617777 -0.0633544 -0.0372557 0.985333 0.327078 0.0532531 0.0248322 0.927483)
(1.09265 0.0251014 -0.119189 -0.0183318 0.98319 0.311108 0.0481319 0.0337023 0.927482)
(1.0882 0.0436167 -0.171401 0.000183671 0.987648 0.285684 0.0415483 0.0415484 0.927482)
(1.07767 0.0594904 -0.218405 0.0160577 0.99817 0.251581 0.0337026 0.0481319 0.927482)
(1.06236 0.0708081 -0.258774 0.0273754 1.01349 0.209833 0.0248323 0.0532526 0.927483)
(1.04409 0.0762046 -0.29128 0.0327719 1.03175 0.161709 0.0152075 0.0567556 0.927483)
(1.02508 0.0750292 -0.314935 0.0315963 1.05076 0.108672 0.00512095 0.0585343 0.927483)
(1.00762 0.0674235 -0.329021 0.0239905 1.06822 0.0523335 -0.00512121 0.0585344 0.927483)
(0.993819 0.054305 -0.33311 0.0108717 1.08202 -0.00559536 -0.0152078 0.0567561 0.927483)
(0.985333 0.0372557 -0.327078 -0.00617777 1.09051 -0.0633544 -0.0248322 0.0532531 0.927483)
(0.98319 0.0183318 -0.311108 -0.0251014 1.09265 -0.119189 -0.0337023 0.0481319 0.927482)
(0.987648 -0.000183675 -0.285684 -0.0436167 1.0882 -0.171401 -0.0415484 0.0415483 0.927482)
(0.99817 -0.0160577 -0.251581 -0.0594904 1.07767 -0.218405 -0.0481319 0.0337026 0.927482)
(1.01349 -0.0273754 -0.209833 -0.0708081 1.06236 -0.258774 -0.0532526 0.0248323 0.927483)
(1.03175 -0.0327719 -0.161709 -0.0762046 1.04409 -0.29128 -0.0567556 0.0152074 0.927483)
(1.05076 -0.0315963 -0.108672 -0.0750292 1.02508 -0.314935 -0.0585343 0.00512094 0.927483)
(1.08537 -0.0343036 -0.0267726 -0.0647655 1.00148 -0.356245 -0.0361542 -0.0031631 0.905419)
(1.09979 -0.0169694 0.0354952 -0.0474316 0.987069 -0.355481 -0.0350559 -0.00939308 0.90542)
(1.1074 0.00424856 0.0966847 -0.0262136 0.979454 -0.343917 -0.0328921 -0.0153377 0.90542)
(1.1073 0.026791 0.154936 -0.00367101 0.979556 -0.321903 -0.0297289 -0.0208165 0.905419)
(1.09949 0.0479393 0.20848 0.0174772 0.987362 -0.290109 -0.0256627 -0.0256627 0.905419)
(1.08493 0.0651425 0.25569 0.0346806 1.00193 -0.249499 -0.0208166 -0.029729 0.905419)
(1.06535 0.0763255 0.29513 0.0458637 1.0215 -0.201308 -0.0153376 -0.0328918 0.905419)
(1.04313 0.0801395 0.325604 0.0496778 1.04372 -0.147001 -0.00939287 -0.0350554 0.905419)
(1.02095 0.0761248 0.346183 0.045663 1.0659 -0.0882271 -0.00316304 -0.0361541 0.905419)
(1.00148 0.0647655 0.356245 0.0343036 1.08537 -0.0267726 0.0031631 -0.0361542 0.905419)
(0.987069 0.0474316 0.355481 0.0169694 1.09979 0.0354953 0.00939308 -0.0350559 0.90542)
(0.979454 0.0262136 0.343917 -0.00424855 1.1074 0.0966847 0.0153377 -0.0328921 0.90542)
(0.979556 0.00367102 0.321903 -0.026791 1.1073 0.154936 0.0208165 -0.0297289 0.905419)
(0.987362 -0.0174772 0.290108 -0.0479393 1.09949 0.208481 0.0256627 -0.0256627 0.905419)
(1.00193 -0.0346806 0.249499 -0.0651425 1.08493 0.25569 0.029729 -0.0208166 0.905419)
(1.0215 -0.0458637 0.201308 -0.0763255 1.06535 0.29513 0.0328918 -0.0153376 0.905419)
(1.04372 -0.0496778 0.147001 -0.0801395 1.04313 0.325604 0.0350553 -0.00939287 0.905419)
(1.0659 -0.045663 0.088227 -0.0761248 1.02095 0.346183 0.0361541 -0.00316305 0.905419)
(1.08537 -0.0343036 0.0267726 -0.0647655 1.00148 0.356245 0.0361542 0.0031631 0.905419)
(1.09979 -0.0169694 -0.0354953 -0.0474316 0.987069 0.355481 0.0350559 0.00939308 0.90542)
(1.1074 0.00424856 -0.0966847 -0.0262136 0.979454 0.343917 0.0328921 0.0153377 0.90542)
(1.1073 0.026791 -0.154936 -0.00367101 0.979556 0.321903 0.0297289 0.0208165 0.905419)
(1.09949 0.0479393 -0.208481 0.0174772 0.987362 0.290109 0.0256627 0.0256627 0.905419)
(1.08493 0.0651425 -0.25569 0.0346806 1.00193 0.249499 0.0208166 0.029729 0.905419)
(1.06535 0.0763255 -0.29513 0.0458637 1.0215 0.201308 0.0153376 0.0328918 0.905419)
(1.04313 0.0801395 -0.325604 0.0496778 1.04372 0.147001 0.00939287 0.0350553 0.905419)
(1.02095 0.0761248 -0.346183 0.045663 1.0659 0.088227 0.00316305 0.0361541 0.905419)
(1.00148 0.0647655 -0.356245 0.0343036 1.08537 0.0267726 -0.0031631 0.0361542 0.905419)
(0.987069 0.0474316 -0.355481 0.0169694 1.09979 -0.0354953 -0.00939308 0.0350559 0.90542)
(0.979454 0.0262136 -0.343917 -0.00424856 1.1074 -0.0966847 -0.0153377 0.0328921 0.90542)
(0.979556 0.00367101 -0.321903 -0.026791 1.1073 -0.154936 -0.0208165 0.0297289 0.905419)
(0.987362 -0.0174773 -0.290109 -0.0479393 1.09949 -0.208481 -0.0256627 0.0256627 0.905419)
(1.00193 -0.0346806 -0.249499 -0.0651425 1.08493 -0.25569 -0.029729 0.0208166 0.905419)
(1.0215 -0.0458637 -0.201308 -0.0763255 1.06535 -0.29513 -0.0328918 0.0153376 0.905419)
(1.04372 -0.0496778 -0.147001 -0.0801395 1.04313 -0.325604 -0.0350553 0.00939287 0.905419)
(1.0659 -0.045663 -0.0882271 -0.0761248 1.02095 -0.346183 -0.0361541 0.00316305 0.905419)
(1.10317 -0.0470048 0.00261761 -0.0602511 0.989172 -0.379076 -0.0116329 -0.00101767 0.873548)
(1.11808 -0.0242753 0.0684035 -0.0375218 0.974268 -0.372862 -0.0112796 -0.00302236 0.873548)
(1.12431 0.0021811 0.132111 -0.0110654 0.968036 -0.35532 -0.010583 -0.00493497 0.873548)
(1.12112 0.0291732 0.191804 0.0159264 0.971229 -0.326981 -0.00956539 -0.00669766 0.873548)
(1.10888 0.0534454 0.24567 0.0401989 0.983461 -0.288706 -0.00825721 -0.00825713 0.873548)
(1.08909 0.0720701 0.292071 0.058824 1.00326 -0.24166 -0.00669779 -0.00956548 0.873548)
(1.06412 0.0828011 0.329598 0.0695548 1.02823 -0.187271 -0.00493477 -0.010583 0.873548)
(1.03698 0.0843437 0.35711 0.0710973 1.05537 -0.127192 -0.00302217 -0.0112791 0.873548)
(1.01095 0.0765122 0.373771 0.0632658 1.08139 -0.063248 -0.00101782 -0.0116329 0.873548)
(0.989172 0.0602511 0.379076 0.0470048 1.10317 0.00261762 0.00101767 -0.0116329 0.873548)
(0.974268 0.0375218 0.372862 0.0242753 1.11808 0.0684035 0.00302236 -0.0112796 0.873548)
(0.968036 0.0110654 0.35532 -0.00218109 1.12431 0.132111 0.00493497 -0.010583 0.873548)
(0.971229 -0.0159264 0.326981 -0.0291732 1.12112 0.191804 0.00669766 -0.00956539 0.873548)
(0.983461 -0.0401989 0.288706 -0.0534454 1.10888 0.24567 0.00825713 -0.00825721 0.873548)
(1.00326 -0.058824 0.24166 -0.0720701 1.08909 0.292071 0.00956548 -0.00669779 0.873548)
(1.02823 -0.0695548 0.187271 -0.0828011 1.06412 0.329598 0.010583 -0.00493477 0.873548)
(1.05537 -0.0710973 0.127192 -0.0843437 1.03698 0.35711 0.0112791 -0.00302217 0.873548)
(1.08139 -0.0632658 0.063248 -0.0765122 1.01095 0.373771 0.0116329 -0.00101782 0.873548)
(1.10317 -0.0470048 -0.00261763 -0.0602511 0.989172 0.379076 0.0116329 0.00101767 0.873548)
(1.11808 -0.0242753 -0.0684035 -0.0375218 0.974268 0.372862 0.0112796 0.00302236 0.873548)
(1.12431 0.00218109 -0.132111 -0.0110654 0.968036 0.35532 0.010583 0.00493497 0.873548)
(1.12112 0.0291732 -0.191804 0.0159264 0.971229 0.326981 0.00956539 0.00669766 0.873548)
(1.10888 0.0534454 -0.24567 0.0401989 0.983461 0.288706 0.00825721 0.00825712 0.873548)
(1.08909 0.0720701 -0.292071 0.058824 1.00326 0.24166 0.00669779 0.00956548 0.873548)
(1.06412 0.0828011 -0.329598 0.0695548 1.02823 0.187271 0.00493477 0.010583 0.873548)
(1.03698 0.0843437 -0.35711 0.0710973 1.05537 0.127192 0.00302217 0.0112791 0.873548)
(1.01095 0.0765122 -0.373771 0.0632658 1.08139 0.063248 0.00101782 0.0116329 0.873548)
(0.989172 0.0602511 -0.379076 0.0470048 1.10317 -0.00261763 -0.00101767 0.0116329 0.873548)
(0.974268 0.0375218 -0.372862 0.0242753 1.11808 -0.0684035 -0.00302236 0.0112796 0.873548)
(0.968036 0.0110654 -0.35532 -0.0021811 1.12431 -0.132111 -0.00493497 0.010583 0.873548)
(0.971229 -0.0159265 -0.326981 -0.0291732 1.12112 -0.191804 -0.00669766 0.00956538 0.873548)
(0.983461 -0.0401989 -0.288706 -0.0534454 1.10888 -0.24567 -0.00825712 0.00825721 0.873548)
(1.00326 -0.058824 -0.24166 -0.0720701 1.08909 -0.292071 -0.00956548 0.00669779 0.873548)
(1.02823 -0.0695548 -0.187271 -0.0828011 1.06412 -0.329598 -0.010583 0.00493477 0.873548)
(1.05537 -0.0710973 -0.127192 -0.0843437 1.03698 -0.35711 -0.0112791 0.00302217 0.873548)
(1.08139 -0.0632658 -0.063248 -0.0765122 1.01095 -0.373771 -0.0116329 0.00101782 0.873548)
(1.12122 -0.0859022 -0.0341799 -0.120237 1.01466 -0.332629 -0.104573 -0.00914924 0.901592)
(1.15325 -0.0614649 0.0240998 -0.0958002 0.982626 -0.333511 -0.101396 -0.0271691 0.901592)
(1.175 -0.0275436 0.0816472 -0.0618791 0.960877 -0.324259 -0.0951384 -0.0443631 0.901592)
(1.18384 0.0117706 0.136714 -0.0225646 0.952041 -0.305155 -0.0859887 -0.0602091 0.901591)
(1.1787 0.0517359 0.187626 0.0174009 0.957185 -0.276779 -0.0742264 -0.0742263 0.901591)
(1.16019 0.0875316 0.232838 0.053197 0.975688 -0.239993 -0.0602096 -0.0859886 0.901591)
(1.13056 0.11484 0.270975 0.0805058 1.00532 -0.195915 -0.044363 -0.0951373 0.901591)
(1.09338 0.130368 0.300878 0.0960338 1.0425 -0.145884 -0.0271684 -0.101396 0.901591)
(1.05313 0.132243 0.32164 0.097908 1.08275 -0.091421 -0.00914866 -0.104573 0.901592)
(1.01466 0.120237 0.332629 0.0859022 1.12122 -0.0341799 0.00914924 -0.104573 0.901592)
(0.982626 0.0958002 0.33351 0.0614649 1.15325 0.0240998 0.0271691 -0.101396 0.901592)
(0.960877 0.0618791 0.324259 0.0275436 1.175 0.0816472 0.0443631 -0.0951384 0.901592)
(0.952041 0.0225646 0.305155 -0.0117706 1.18384 0.136714 0.0602091 -0.0859887 0.901591)
(0.957185 -0.0174009 0.276779 -0.0517359 1.1787 0.187626 0.0742263 -0.0742264 0.901591)
(0.975688 -0.053197 0.239993 -0.0875316 1.16019 0.232838 0.0859886 -0.0602096 0.901591)
(1.00532 -0.0805058 0.195915 -0.11484 1.13056 0.270975 0.0951373 -0.044363 0.901591)
(1.0425 -0.0960338 0.145884 -0.130368 1.09338 0.300878 0.101395 -0.0271684 0.901591)
(1.08275 -0.0979079 0.091421 -0.132243 1.05313 0.32164 0.104573 -0.00914867 0.901592)
(1.12122 -0.0859022 0.0341798 -0.120237 1.01466 0.332629 0.104573 0.00914924 0.901592)
(1.15325 -0.0614649 -0.0240998 -0.0958002 0.982626 0.333511 0.101396 0.0271691 0.901592)
(1.175 -0.0275436 -0.0816472 -0.0618791 0.960877 0.324259 0.0951384 0.0443631 0.901592)
(1.18384 0.0117706 -0.136714 -0.0225646 0.952041 0.305155 0.0859887 0.0602091 0.901591)
(1.1787 0.0517359 -0.187626 0.0174009 0.957185 0.276779 0.0742264 0.0742263 0.901591)
(1.16019 0.0875316 -0.232838 0.053197 0.975688 0.239993 0.0602096 0.0859886 0.901591)
(1.13056 0.11484 -0.270975 0.0805058 1.00532 0.195915 0.044363 0.0951373 0.901591)
(1.09338 0.130368 -0.300878 0.0960338 1.0425 0.145884 0.0271684 0.101395 0.901591)
(1.05313 0.132243 -0.32164 0.097908 1.08275 0.091421 0.00914867 0.104573 0.901592)
(1.01466 0.120237 -0.332629 0.0859022 1.12122 0.0341799 -0.00914924 0.104573 0.901592)
(0.982626 0.0958002 -0.333511 0.0614649 1.15325 -0.0240998 -0.0271691 0.101396 0.901592)
(0.960877 0.0618791 -0.324259 0.0275436 1.175 -0.0816472 -0.0443631 0.0951384 0.901592)
(0.952041 0.0225646 -0.305155 -0.0117706 1.18384 -0.136714 -0.0602091 0.0859887 0.901591)
(0.957185 -0.0174009 -0.276779 -0.0517359 1.1787 -0.187626 -0.0742263 0.0742264 0.901591)
(0.975688 -0.053197 -0.239993 -0.0875316 1.16019 -0.232838 -0.0859886 0.0602096 0.901591)
(1.00532 -0.0805058 -0.195915 -0.11484 1.13056 -0.270975 -0.0951373 0.044363 0.901591)
(1.0425 -0.0960338 -0.145884 -0.130368 1.09338 -0.300878 -0.101396 0.0271684 0.901591)
(1.08275 -0.097908 -0.091421 -0.132243 1.05313 -0.32164 -0.104573 0.00914867 0.901592)
(1.143 -0.109658 -0.0104549 -0.113685 1.00468 -0.352496 -0.0914825 -0.00800377 0.882993)
(1.17702 -0.0792688 0.0509142 -0.0832964 0.970656 -0.348956 -0.0887033 -0.0237679 0.882993)
(1.1986 -0.0390758 0.110736 -0.0431036 0.949079 -0.334814 -0.0832285 -0.0388097 0.882993)
(1.20513 0.00607271 0.167193 0.00204552 0.942549 -0.310498 -0.0752242 -0.0526721 0.882993)
(1.19582 0.0507321 0.218571 0.0467051 0.951856 -0.276748 -0.0649345 -0.0649343 0.882993)
(1.17181 0.0895153 0.263307 0.0854884 0.975875 -0.234589 -0.0526723 -0.075224 0.882993)
(1.13597 0.117744 0.300043 0.113718 1.01171 -0.185302 -0.0388094 -0.0832277 0.882993)
(1.09264 0.132014 0.327662 0.127988 1.05504 -0.130385 -0.0237675 -0.0887026 0.882993)
(1.04704 0.130605 0.345325 0.126578 1.10064 -0.0715062 -0.00800353 -0.0914824 0.882993)
(1.00468 0.113685 0.352496 0.109658 1.143 -0.0104548 0.00800377 -0.0914825 0.882993)
(0.970656 0.0832964 0.348956 0.0792688 1.17702 0.0509142 0.0237679 -0.0887033 0.882993)
(0.949079 0.0431036 0.334814 0.0390758 1.1986 0.110736 0.0388097 -0.0832285 0.882993)
(0.942549 -0.00204551 0.310498 -0.00607271 1.20513 0.167193 0.0526721 -0.0752241 0.882993)
(0.951856 -0.0467051 0.276748 -0.0507321 1.19582 0.218571 0.0649343 -0.0649345 0.882993)
(0.975875 -0.0854884 0.234589 -0.0895153 1.17181 0.263307 0.075224 -0.0526723 0.882993)
(1.01171 -0.113718 0.185302 -0.117744 1.13597 0.300043 0.0832277 -0.0388094 0.882993)
(1.05504 -0.127988 0.130385 -0.132014 1.09264 0.327662 0.0887026 -0.0237675 0.882993)
(1.10064 -0.126578 0.0715062 -0.130605 1.04704 0.345325 0.0914824 -0.00800353 0.882993)
(1.143 -0.109658 0.0104548 -0.113685 1.00468 0.352496 0.0914825 0.00800377 0.882993)
(1.17702 -0.0792688 -0.0509142 -0.0832964 0.970656 0.348956 0.0887033 0.0237679 0.882993)
(1.1986 -0.0390758 -0.110736 -0.0431036 0.949079 0.334814 0.0832285 0.0388097 0.882993)
(1.20513 0.00607271 -0.167194 0.00204552 0.942549 0.310498 0.0752241 0.0526721 0.882993)
(1.19582 0.0507321 -0.218571 0.0467051 0.951856 0.276748 0.0649345 0.0649343 0.882993)
(1.17181 0.0895153 -0.263307 0.0854884 0.975875 0.234589 0.0526723 0.075224 0.882993)
(1.13597 0.117744 -0.300043 0.113718 1.01171 0.185302 0.0388094 0.0832277 0.882993)
(1.09264 0.132014 -0.327662 0.127988 1.05504 0.130385 0.0237675 0.0887026 0.882993)
(1.04704 0.130605 -0.345325 0.126578 1.10064 0.0715062 0.00800353 0.0914824 0.882993)
(1.00468 0.113685 -0.352496 0.109658 1.143 0.0104548 -0.00800377 0.0914825 0.882993)
(0.970656 0.0832964 -0.348956 0.0792688 1.17702 -0.0509142 -0.0237679 0.0887033 0.882993)
(0.949079 0.0431036 -0.334814 0.0390758 1.1986 -0.110736 -0.0388097 0.0832285 0.882993)
(0.942549 -0.00204553 -0.310498 -0.00607271 1.20513 -0.167194 -0.0526721 0.0752242 0.882993)
(0.951856 -0.0467051 -0.276748 -0.0507321 1.19582 -0.218571 -0.0649343 0.0649345 0.882993)
(0.975875 -0.0854884 -0.234589 -0.0895153 1.17181 -0.263307 -0.075224 0.0526723 0.882993)
(1.01171 -0.113718 -0.185302 -0.117744 1.13597 -0.300043 -0.0832277 0.0388094 0.882993)
(1.05504 -0.127988 -0.130385 -0.132014 1.09264 -0.327662 -0.0887026 0.0237675 0.882993)
(1.10064 -0.126578 -0.0715063 -0.130605 1.04704 -0.345325 -0.0914824 0.00800353 0.882993)
(1.16579 -0.138071 0.0143733 -0.103325 0.986777 -0.369484 -0.0768603 -0.00672436 0.857903)
(1.20167 -0.100179 0.078315 -0.0654341 0.950894 -0.361375 -0.0745253 -0.0199689 0.857903)
(1.22243 -0.0522999 0.139877 -0.0175546 0.930134 -0.342286 -0.0699254 -0.0326066 0.857903)
(1.22556 -0.000207746 0.197189 0.0345375 0.927002 -0.312796 -0.0632004 -0.0442533 0.857903)
(1.21069 0.0498138 0.24851 0.0845596 0.941876 -0.273802 -0.0545556 -0.0545555 0.857903)
(1.1796 0.0917318 0.29228 0.126478 0.972961 -0.226489 -0.0442532 -0.0632003 0.857903)
(1.13606 0.12049 0.327169 0.155236 1.01651 -0.172294 -0.0326062 -0.0699247 0.857903)
(1.0853 0.13262 0.352117 0.167366 1.06726 -0.112865 -0.0199687 -0.0745246 0.857903)
(1.03346 0.126659 0.366366 0.161405 1.11911 -0.0500052 -0.0067244 -0.0768603 0.857903)
(0.986777 0.103325 0.369484 0.138071 1.16579 0.0143733 0.00672436 -0.0768603 0.857903)
(0.950894 0.0654341 0.361375 0.100179 1.20167 0.078315 0.0199689 -0.0745253 0.857903)
(0.930134 0.0175546 0.342286 0.0522999 1.22243 0.139877 0.0326066 -0.0699254 0.857903)
(0.927002 -0.0345375 0.312796 0.000207752 1.22556 0.197189 0.0442533 -0.0632004 0.857903)
(0.941876 -0.0845596 0.273802 -0.0498138 1.21069 0.24851 0.0545555 -0.0545556 0.857903)
(0.972961 -0.126478 0.226489 -0.0917318 1.1796 0.29228 0.0632003 -0.0442532 0.857903)
(1.01651 -0.155236 0.172294 -0.12049 1.13606 0.327169 0.0699247 -0.0326062 0.857903)
(1.06726 -0.167366 0.112864 -0.13262 1.0853 0.352117 0.0745246 -0.0199687 0.857903)
(1.11911 -0.161405 0.0500052 -0.126659 1.03346 0.366366 0.0768603 -0.0067244 0.857903)
(1.16579 -0.138071 -0.0143734 -0.103325 0.986777 0.369484 0.0768603 0.00672436 0.857903)
(1.20167 -0.100179 -0.078315 -0.0654341 0.950894 0.361375 0.0745253 0.0199689 0.857903)
(1.22243 -0.0522999 -0.139877 -0.0175546 0.930134 0.342286 0.0699254 0.0326066 0.857903)
(1.22556 -0.000207754 -0.197189 0.0345375 0.927002 0.312796 0.0632004 0.0442533 0.857903)
(1.21069 0.0498138 -0.24851 0.0845596 0.941876 0.273802 0.0545556 0.0545555 0.857903)
(1.1796 0.0917318 -0.29228 0.126478 0.972961 0.226489 0.0442532 0.0632003 0.857903)
(1.13606 0.12049 -0.327169 0.155236 1.01651 0.172294 0.0326062 0.0699247 0.857903)
(1.0853 0.13262 -0.352117 0.167366 1.06726 0.112865 0.0199687 0.0745246 0.857903)
(1.03346 0.126659 -0.366366 0.161405 1.11911 0.0500052 0.0067244 0.0768603 0.857903)
(0.986777 0.103325 -0.369484 0.138071 1.16579 -0.0143733 -0.00672436 0.0768603 0.857903)
(0.950894 0.0654341 -0.361375 0.100179 1.20167 -0.078315 -0.0199689 0.0745253 0.857903)
(0.930134 0.0175546 -0.342286 0.0522999 1.22243 -0.139877 -0.0326066 0.0699254 0.857903)
(0.927002 -0.0345375 -0.312796 0.000207747 1.22556 -0.197189 -0.0442533 0.0632004 0.857903)
(0.941876 -0.0845596 -0.273802 -0.0498138 1.21069 -0.24851 -0.0545555 0.0545556 0.857903)
(0.972961 -0.126478 -0.226489 -0.0917318 1.1796 -0.29228 -0.0632003 0.0442532 0.857903)
(1.01651 -0.155236 -0.172294 -0.12049 1.13606 -0.327169 -0.0699247 0.0326062 0.857903)
(1.06726 -0.167366 -0.112865 -0.13262 1.0853 -0.352117 -0.0745246 0.0199687 0.857903)
(1.11911 -0.161405 -0.0500052 -0.126659 1.03346 -0.366366 -0.0768603 0.0067244 0.857903)
(1.16797 -0.148839 0.00229711 -0.144595 1.01712 -0.326924 -0.132426 -0.0115858 0.869915)
(1.2136 -0.114194 0.059032 -0.10995 0.971493 -0.321558 -0.128402 -0.034405 0.869915)
(1.24463 -0.0660314 0.113973 -0.0617881 0.940462 -0.306422 -0.120477 -0.0561786 0.869915)
(1.25732 -0.0101606 0.165451 -0.00591739 0.927776 -0.281976 -0.10889 -0.0762451 0.869915)
(1.25013 0.0466796 0.211902 0.0509231 0.934963 -0.248961 -0.0939957 -0.0939953 0.869915)
(1.22394 0.0976337 0.251914 0.101878 0.961158 -0.208383 -0.0762455 -0.10889 0.869915)
(1.1819 0.136556 0.284272 0.1408 1.0032 -0.161472 -0.0561783 -0.120476 0.869914)
(1.12908 0.158751 0.307993 0.162996 1.05602 -0.109656 -0.0344042 -0.128401 0.869914)
(1.07185 0.161543 0.322356 0.165787 1.11324 -0.0545075 -0.0115851 -0.132425 0.869915)
(1.01712 0.144595 0.326924 0.148839 1.16797 0.00229712 0.0115858 -0.132426 0.869915)
(0.971493 0.10995 0.321558 0.114194 1.2136 0.059032 0.034405 -0.128402 0.869915)
(0.940462 0.0617881 0.306422 0.0660314 1.24463 0.113973 0.0561786 -0.120477 0.869915)
(0.927776 0.0059174 0.281976 0.0101606 1.25732 0.165451 0.0762451 -0.10889 0.869915)
(0.934963 -0.050923 0.248961 -0.0466796 1.25013 0.211902 0.0939953 -0.0939957 0.869915)
(0.961158 -0.101878 0.208383 -0.0976337 1.22394 0.251914 0.10889 -0.0762455 0.869915)
(1.0032 -0.1408 0.161472 -0.136556 1.1819 0.284272 0.120476 -0.0561783 0.869914)
(1.05602 -0.162996 0.109656 -0.158751 1.12908 0.307993 0.128401 -0.0344042 0.869914)
(1.11324 -0.165787 0.0545075 -0.161543 1.07185 0.322356 0.132425 -0.0115851 0.869915)
(1.16797 -0.148839 -0.00229714 -0.144595 1.01712 0.326924 0.132426 0.0115858 0.869915)
(1.2136 -0.114194 -0.059032 -0.10995 0.971493 0.321558 0.128402 0.034405 0.869915)
(1.24463 -0.0660314 -0.113973 -0.0617881 0.940462 0.306422 0.120477 0.0561786 0.869915)
(1.25732 -0.0101606 -0.165451 -0.00591739 0.927776 0.281976 0.10889 0.0762451 0.869915)
(1.25013 0.0466796 -0.211902 0.0509231 0.934963 0.248961 0.0939957 0.0939953 0.869915)
(1.22394 0.0976337 -0.251914 0.101878 0.961158 0.208383 0.0762455 0.10889 0.869915)
(1.1819 0.136556 -0.284272 0.1408 1.0032 0.161472 0.0561783 0.120476 0.869914)
(1.12908 0.158751 -0.307993 0.162996 1.05602 0.109656 0.0344042 0.128401 0.869914)
(1.07185 0.161543 -0.322356 0.165787 1.11324 0.0545075 0.0115851 0.132425 0.869914)
(1.01712 0.144595 -0.326924 0.148839 1.16797 -0.00229713 -0.0115858 0.132426 0.869915)
(0.971493 0.10995 -0.321558 0.114194 1.2136 -0.059032 -0.034405 0.128402 0.869915)
(0.940463 0.061788 -0.306422 0.0660314 1.24463 -0.113973 -0.0561786 0.120477 0.869915)
(0.927776 0.00591737 -0.281976 0.0101606 1.25732 -0.165451 -0.0762451 0.10889 0.869915)
(0.934963 -0.0509231 -0.248961 -0.0466796 1.25013 -0.211902 -0.0939953 0.0939957 0.869915)
(0.961158 -0.101878 -0.208383 -0.0976337 1.22394 -0.251914 -0.10889 0.0762455 0.869915)
(1.0032 -0.1408 -0.161472 -0.136556 1.1819 -0.284272 -0.120476 0.0561783 0.869914)
(1.05602 -0.162996 -0.109656 -0.158751 1.12908 -0.307993 -0.128401 0.0344042 0.869914)
(1.11324 -0.165787 -0.0545075 -0.161543 1.07185 -0.322356 -0.132425 0.0115851 0.869914)
(1.18896 -0.182594 0.0174108 -0.136998 1.00296 -0.333135 -0.12276 -0.0107402 0.858875)
(1.238 -0.141149 0.0749946 -0.0955538 0.953911 -0.32505 -0.11903 -0.0318938 0.858875)
(1.26991 -0.0854293 0.1303 -0.0398343 0.921998 -0.307089 -0.111683 -0.0520783 0.858875)
(1.28084 -0.0221554 0.181645 0.0234398 0.911068 -0.279798 -0.100942 -0.0706801 0.858875)
(1.26947 0.0410413 0.227472 0.0866366 0.922438 -0.244005 -0.0871348 -0.0871345 0.858875)
(1.23718 0.0965379 0.266387 0.142134 0.954736 -0.200797 -0.0706802 -0.100942 0.858875)
(1.18784 0.137641 0.297208 0.183237 1.00407 -0.151489 -0.0520779 -0.111682 0.858875)
(1.12743 0.159392 0.318999 0.204988 1.06448 -0.097578 -0.0318932 -0.119029 0.858875)
(1.06322 0.159169 0.331097 0.204765 1.12869 -0.040702 -0.0107397 -0.122759 0.858875)
(1.00296 0.136998 0.333135 0.182594 1.18896 0.0174108 0.0107402 -0.12276 0.858875)
(0.953911 0.0955539 0.32505 0.141149 1.238 0.0749946 0.0318938 -0.11903 0.858875)
(0.921998 0.0398343 0.307089 0.0854293 1.26991 0.1303 0.0520783 -0.111683 0.858875)
(0.911068 -0.0234397 0.279798 0.0221554 1.28084 0.181645 0.0706801 -0.100942 0.858875)
(0.922438 -0.0866366 0.244005 -0.0410413 1.26947 0.227472 0.0871345 -0.0871348 0.858875)
(0.954736 -0.142134 0.200797 -0.0965379 1.23718 0.266387 0.100942 -0.0706802 0.858875)
(1.00407 -0.183237 0.151489 -0.137641 1.18784 0.297208 0.111682 -0.0520779 0.858875)
(1.06448 -0.204988 0.097578 -0.159392 1.12743 0.318999 0.119029 -0.0318932 0.858875)
(1.12869 -0.204765 0.040702 -0.159169 1.06322 0.331097 0.122759 -0.0107397 0.858875)
(1.18896 -0.182594 -0.0174108 -0.136998 1.00296 0.333135 0.12276 0.0107402 0.858875)
(1.238 -0.141149 -0.0749946 -0.0955538 0.953911 0.32505 0.11903 0.0318938 0.858875)
(1.26991 -0.0854293 -0.1303 -0.0398343 0.921998 0.307089 0.111683 0.0520783 0.858875)
(1.28084 -0.0221554 -0.181645 0.0234398 0.911068 0.279798 0.100942 0.0706801 0.858875)
(1.26947 0.0410413 -0.227472 0.0866366 0.922438 0.244005 0.0871348 0.0871345 0.858875)
(1.23718 0.0965379 -0.266387 0.142134 0.954736 0.200797 0.0706802 0.100942 0.858875)
(1.18784 0.137641 -0.297208 0.183237 1.00407 0.151489 0.0520779 0.111682 0.858875)
(1.12743 0.159392 -0.318999 0.204988 1.06448 0.097578 0.0318932 0.119029 0.858875)
(1.06322 0.159169 -0.331097 0.204765 1.12869 0.040702 0.0107397 0.122759 0.858875)
(1.00296 0.136998 -0.333135 0.182594 1.18896 -0.0174108 -0.0107402 0.12276 0.858875)
(0.953911 0.0955538 -0.32505 0.141149 1.238 -0.0749946 -0.0318938 0.11903 0.858875)
(0.921998 0.0398343 -0.307089 0.0854293 1.26991 -0.1303 -0.0520783 0.111683 0.858875)
(0.911068 -0.0234398 -0.279798 0.0221554 1.28084 -0.181645 -0.0706801 0.100942 0.858875)
(0.922438 -0.0866366 -0.244005 -0.0410413 1.26947 -0.227472 -0.0871345 0.0871348 0.858875)
(0.954736 -0.142134 -0.200797 -0.0965379 1.23718 -0.266387 -0.100942 0.0706802 0.858875)
(1.00407 -0.183237 -0.151489 -0.137641 1.18784 -0.297208 -0.111682 0.0520779 0.858875)
(1.06448 -0.204988 -0.0975781 -0.159392 1.12743 -0.318999 -0.119029 0.0318932 0.858875)
(1.12869 -0.204765 -0.040702 -0.159169 1.06322 -0.331097 -0.122759 0.0107397 0.858875)
(1.21069 -0.223063 0.0308344 -0.124203 0.980538 -0.338819 -0.111215 -0.00973003 0.845437)
(1.26313 -0.173234 0.0892014 -0.0743741 0.928092 -0.328318 -0.107835 -0.0288944 0.845437)
(1.29537 -0.108472 0.144858 -0.00961231 0.895851 -0.30784 -0.101179 -0.0471807 0.845437)
(1.30352 -0.0365888 0.196113 0.0622708 0.887704 -0.278009 -0.091449 -0.0640332 0.845437)
(1.28659 0.0337456 0.241409 0.132605 0.904634 -0.239731 -0.0789401 -0.0789401 0.845437)
(1.24662 0.0940478 0.279371 0.192908 0.9446 -0.194169 -0.064033 -0.0914486 0.845437)
(1.18845 0.137044 0.308843 0.235904 1.00278 -0.142706 -0.0471803 -0.101179 0.845437)
(1.11907 0.157549 0.328932 0.25641 1.07216 -0.0869083 -0.0288941 -0.107835 0.845437)
(1.04686 0.15309 0.339026 0.25195 1.14436 -0.0284694 -0.00972992 -0.111214 0.845437)
(0.980538 0.124203 0.338819 0.223063 1.21069 0.0308344 0.00973003 -0.111215 0.845437)
(0.928092 0.0743742 0.328318 0.173234 1.26313 0.0892014 0.0288944 -0.107835 0.845437)
(0.895851 0.00961233 0.30784 0.108472 1.29537 0.144858 0.0471807 -0.101179 0.845437)
(0.887704 -0.0622708 0.278009 0.0365888 1.30352 0.196113 0.0640332 -0.091449 0.845437)
(0.904634 -0.132605 0.239731 -0.0337456 1.28659 0.241409 0.07894 -0.0789401 0.845437)
(0.9446 -0.192908 0.194169 -0.0940478 1.24662 0.279371 0.0914486 -0.064033 0.845437)
(1.00278 -0.235904 0.142706 -0.137044 1.18845 0.308843 0.101179 -0.0471803 0.845437)
(1.07216 -0.25641 0.0869083 -0.157549 1.11907 0.328932 0.107835 -0.0288941 0.845437)
(1.14436 -0.25195 0.0284694 -0.15309 1.04686 0.339026 0.111214 -0.00972992 0.845437)
(1.21069 -0.223063 -0.0308344 -0.124203 0.980538 0.338819 0.111215 0.00973002 0.845437)
(1.26313 -0.173234 -0.0892014 -0.0743741 0.928092 0.328318 0.107835 0.0288943 0.845437)
(1.29537 -0.108472 -0.144858 -0.00961232 0.895851 0.30784 0.101179 0.0471807 0.845437)
(1.30352 -0.0365888 -0.196113 0.0622708 0.887704 0.278009 0.091449 0.0640332 0.845437)
(1.28659 0.0337456 -0.241409 0.132605 0.904634 0.239731 0.0789401 0.07894 0.845437)
(1.24662 0.0940478 -0.279371 0.192908 0.9446 0.194169 0.064033 0.0914486 0.845437)
(1.18845 0.137044 -0.308843 0.235904 1.00278 0.142706 0.0471803 0.101179 0.845437)
(1.11907 0.157549 -0.328932 0.25641 1.07216 0.0869083 0.0288941 0.107835 0.845437)
(1.04686 0.15309 -0.339026 0.25195 1.14436 0.0284694 0.00972993 0.111214 0.845437)
(0.980538 0.124203 -0.338819 0.223063 1.21069 -0.0308344 -0.00973002 0.111215 0.845437)
(0.928092 0.0743741 -0.328318 0.173234 1.26313 -0.0892014 -0.0288944 0.107835 0.845437)
(0.895851 0.0096123 -0.30784 0.108472 1.29537 -0.144858 -0.0471807 0.101179 0.845437)
(0.887704 -0.0622708 -0.278009 0.0365888 1.30352 -0.196113 -0.0640332 0.091449 0.845437)
(0.904634 -0.132606 -0.239731 -0.0337456 1.28659 -0.241409 -0.07894 0.0789401 0.845437)
(0.9446 -0.192908 -0.194169 -0.0940478 1.24662 -0.279371 -0.0914486 0.064033 0.845437)
(1.00278 -0.235904 -0.142707 -0.137044 1.18845 -0.308843 -0.101179 0.0471803 0.845437)
(1.07216 -0.25641 -0.0869084 -0.157549 1.11907 -0.328932 -0.107835 0.0288941 0.845437)
(1.14436 -0.25195 -0.0284694 -0.15309 1.04686 -0.339026 -0.111214 0.00972992 0.845437)
(1.19215 -0.21396 0.0397466 -0.141252 1.01212 -0.307387 -0.146152 -0.012787 0.860244)
(1.24747 -0.172461 0.0925201 -0.099753 0.956801 -0.295815 -0.141712 -0.0379715 0.860245)
(1.28525 -0.114546 0.142482 -0.041838 0.919014 -0.275255 -0.132965 -0.0620022 0.860245)
(1.30095 -0.0471993 0.188115 0.0255083 0.903314 -0.246332 -0.120178 -0.0841491 0.860245)
(1.29267 0.021455 0.228032 0.0941629 0.911595 -0.209923 -0.10374 -0.103739 0.860245)
(1.26141 0.0831369 0.26102 0.155845 0.942857 -0.167137 -0.0841491 -0.120177 0.860245)
(1.21094 0.130406 0.286078 0.203114 0.993331 -0.119272 -0.062002 -0.132964 0.860245)
(1.14734 0.157562 0.302443 0.23027 1.05693 -0.0677826 -0.0379707 -0.14171 0.860245)