/*--------------------------------*- C++ -*----------------------------------*\
| =========                 |                                                 |
| \\      /  F ield         | OpenFOAM: The Open Source CFD Toolbox           |
|  \\    /   O peration     | Version:  2312                                  |
|   \\  /    A nd           | Website:  www.openfoam.com                      |
|    \\/     M anipulation  |                                                 |
\*---------------------------------------------------------------------------*/
FoamFile
{
    version     2.0;
    format      ascii;
    arch        "LSB;label=32;scalar=64";
    class       volVectorField;
    location    "0.7";
    object      D;
}
// * * * * * * * * * * * * * * * * * * * * * * * * * * * * * * * * * * * * * //

dimensions      [0 1 0 0 0 0 0];

internalField   nonuniform List<vector> 
1620
(
(-0.000145955 5.66181e-05 -0.0001657)
(-0.000116257 0.000153562 -0.000149076)
(-7.86146e-05 0.000221934 -0.000117645)
(-3.69417e-05 0.000266165 -7.47224e-05)
(9.13852e-06 0.000296948 -1.92459e-05)
(5.61846e-05 0.000325262 5.08986e-05)
(9.4629e-05 0.000359085 0.000138289)
(0.000110986 0.000399124 0.000241669)
(0.000108204 0.000430897 0.000332938)
(8.76318e-05 0.000445484 0.000323949)
(5.07546e-05 0.000436264 0.000232145)
(2.96087e-05 0.000410904 0.000142009)
(2.96489e-05 0.000384466 6.89665e-05)
(3.98118e-05 0.000359352 1.08443e-05)
(5.13317e-05 0.000329816 -3.58022e-05)
(6.09619e-05 0.000287071 -7.43409e-05)
(6.83426e-05 0.000222469 -0.00010762)
(6.7482e-05 0.000131732 -0.000132308)
(5.03525e-05 2.4176e-05 -0.00012949)
(2.0636e-05 -7.21366e-05 -0.000100164)
(-9.26964e-06 -0.000145536 -6.59286e-05)
(-3.39637e-05 -0.000196929 -3.05992e-05)
(-5.55635e-05 -0.000232266 8.27546e-06)
(-7.60015e-05 -0.000260357 5.50647e-05)
(-9.27758e-05 -0.000290475 0.000117198)
(-9.78549e-05 -0.00032709 0.00020228)
(-9.69763e-05 -0.000358073 0.000292149)
(-8.55262e-05 -0.000374193 0.000295847)
(-6.10167e-05 -0.000367857 0.000223117)
(-5.32295e-05 -0.000346963 0.000145788)
(-6.72482e-05 -0.000324183 7.8197e-05)
(-9.23095e-05 -0.000300961 2.04813e-05)
(-0.000118073 -0.000270948 -2.88856e-05)
(-0.000139246 -0.000224696 -7.26504e-05)
(-0.000154673 -0.000153567 -0.000114342)
(-0.000159255 -5.50212e-05 -0.000151995)
(1.16618e-05 2.51309e-05 -9.39268e-05)
(2.32596e-05 0.000120269 -6.40881e-05)
(2.93576e-05 0.000182513 -3.56035e-05)
(3.40274e-05 0.000218059 -2.75425e-06)
(4.0788e-05 0.000232189 3.51772e-05)
(5.01295e-05 0.000232816 7.5658e-05)
(6.06434e-05 0.000227194 0.000115043)
(7.14647e-05 0.000221219 0.000148862)
(8.60331e-05 0.000221523 0.000170482)
(9.28567e-05 0.000233443 0.000168523)
(9.20462e-05 0.000254202 0.000146888)
(8.31422e-05 0.000276529 0.000116389)
(7.17093e-05 0.000296525 8.3129e-05)
(5.67946e-05 0.000309778 5.04046e-05)
(3.63559e-05 0.000309619 2.07437e-05)
(9.97651e-06 0.000288123 -4.56206e-06)
(-1.95033e-05 0.000239324 -2.73079e-05)
(-4.81336e-05 0.000153878 -5.25651e-05)
(-6.63299e-05 4.5825e-05 -4.70694e-05)
(-7.14515e-05 -4.59166e-05 -1.41059e-05)
(-6.98143e-05 -0.000108217 1.05214e-05)
(-6.47203e-05 -0.000146274 3.38609e-05)
(-5.99091e-05 -0.000163976 5.85152e-05)
(-5.74344e-05 -0.000167872 8.4356e-05)
(-5.84439e-05 -0.000164066 0.00011096)
(-6.45392e-05 -0.000157682 0.000137162)
(-8.02104e-05 -0.000155533 0.0001571)
(-9.36693e-05 -0.000163747 0.000156232)
(-0.000102251 -0.000182508 0.000136816)
(-0.000105628 -0.000206076 0.000107794)
(-0.000107066 -0.000229637 7.40575e-05)
(-0.0001038 -0.000247205 3.89011e-05)
(-9.20869e-05 -0.000250244 5.09745e-06)
(-7.04864e-05 -0.000229256 -2.5973e-05)
(-4.18651e-05 -0.000177677 -5.62067e-05)
(-1.12484e-05 -8.76896e-05 -9.09532e-05)
(0.000128672 -1.27159e-05 -5.18207e-06)
(0.0001198 7.73246e-05 1.29161e-05)
(9.13785e-05 0.000133824 3.21411e-05)
(5.85046e-05 0.000156701 5.15733e-05)
(2.95756e-05 0.000152059 7.01171e-05)
(9.71124e-06 0.000129371 8.3284e-05)
(3.60725e-06 9.91601e-05 8.43199e-05)
(1.69397e-05 7.24241e-05 6.8339e-05)
(5.67934e-05 6.03911e-05 4.31017e-05)
(0.000112082 6.84225e-05 4.29536e-05)
(0.000147347 9.90708e-05 7.01963e-05)
(0.000156221 0.00014691 8.38469e-05)
(0.000142745 0.000199932 8.13613e-05)
(0.00011096 0.000246749 7.02414e-05)
(6.39022e-05 0.000276462 5.76486e-05)
(5.09475e-06 0.000278302 4.81923e-05)
(-5.79296e-05 0.000243543 4.29798e-05)
(-0.000108048 0.000168793 4.08232e-05)
(-0.000125929 7.50368e-05 4.73298e-05)
(-0.000110958 -7.54034e-06 5.92554e-05)
(-8.0397e-05 -5.85619e-05 6.87658e-05)
(-4.86728e-05 -7.94912e-05 7.80789e-05)
(-2.24167e-05 -7.6975e-05 8.80404e-05)
(-4.9571e-06 -5.92082e-05 9.52491e-05)
(-3.04207e-07 -3.38506e-05 9.30927e-05)
(-1.48409e-05 -9.13035e-06 7.54187e-05)
(-5.58743e-05 4.07841e-06 4.76986e-05)
(-0.000112206 -2.02309e-06 4.25801e-05)
(-0.000150441 -3.23982e-05 6.39042e-05)
(-0.000166868 -8.20383e-05 7.21219e-05)
(-0.000161754 -0.000139509 6.47424e-05)
(-0.000135586 -0.000192242 4.85853e-05)
(-8.9453e-05 -0.000227018 3.00763e-05)
(-2.68603e-05 -0.000230971 1.32385e-05)
(4.32647e-05 -0.000194478 -7.50534e-07)
(0.000102224 -0.000114691 -1.05672e-05)
(-0.000269234 0.000149349 -0.000450324)
(-0.000216305 0.00044821 -0.000408067)
(-0.00016034 0.000656448 -0.000315106)
(-9.65575e-05 0.000779508 -0.00018581)
(-1.88733e-05 0.000844288 -2.10823e-05)
(6.88412e-05 0.000880814 0.000182062)
(0.000152156 0.000914095 0.000423898)
(0.000213003 0.00095687 0.000687317)
(0.00025501 0.000998881 0.000899748)
(0.000275612 0.00102953 0.000911897)
(0.000247756 0.00104094 0.000727746)
(0.000219767 0.00103863 0.000498827)
(0.00020823 0.00103126 0.000288684)
(0.000203725 0.00101164 0.000111551)
(0.000194678 0.00096122 -3.44197e-05)
(0.000175694 0.000856033 -0.000156176)
(0.000147162 0.00067211 -0.000257932)
(0.000107107 0.000400194 -0.000325799)
(5.94123e-05 8.10155e-05 -0.000320486)
(1.18963e-05 -0.000207139 -0.000243779)
(-2.91943e-05 -0.00041525 -0.00014301)
(-6.28811e-05 -0.0005457 -3.61144e-05)
(-9.49411e-05 -0.000619751 7.99028e-05)
(-0.000128949 -0.000663336 0.000216851)
(-0.000163143 -0.000700747 0.000389715)
(-0.000192097 -0.000747128 0.000601652)
(-0.000228525 -0.000793733 0.000799864)
(-0.000265516 -0.000828816 0.000839208)
(-0.000270383 -0.000845545 0.000698866)
(-0.000282645 -0.000852097 0.000502097)
(-0.000314278 -0.000854839 0.00030588)
(-0.000351673 -0.000843246 0.000127348)
(-0.000376903 -0.000794821 -3.06625e-05)
(-0.000379276 -0.000682308 -0.000172371)
(-0.000358953 -0.000481326 -0.0003027)
(-0.000319199 -0.000186953 -0.000409949)
(-1.83162e-05 6.06333e-05 -0.000289159)
(1.3072e-05 0.000336579 -0.000219744)
(2.71942e-05 0.000523243 -0.000123669)
(3.84785e-05 0.000629909 -7.47873e-06)
(5.78276e-05 0.000674134 0.000125709)
(8.84527e-05 0.000680083 0.00026974)
(0.000128307 0.000670856 0.000414251)
(0.000175177 0.000664467 0.000542585)
(0.000231209 0.000673149 0.000627623)
(0.000277946 0.000705088 0.000635998)
(0.000298143 0.000757988 0.000568221)
(0.000291162 0.000818511 0.000458052)
(0.000266438 0.00087491 0.000333736)
(0.000224569 0.000912019 0.000211426)
(0.000163875 0.000909046 9.99113e-05)
(8.61115e-05 0.000842572 2.83976e-06)
(3.16757e-07 0.000693499 -7.96435e-05)
(-7.97779e-05 0.00044654 -0.000142237)
(-0.000131429 0.000147053 -0.000129735)
(-0.000148457 -0.000117681 -4.93575e-05)
(-0.000145262 -0.000300004 3.66661e-05)
(-0.00013401 -0.000408834 0.000123448)
(-0.000125215 -0.000459888 0.000213047)
(-0.000125122 -0.00047424 0.000306888)
(-0.000137852 -0.000471679 0.000404472)
(-0.000168008 -0.000467749 0.000499651)
(-0.000221625 -0.000473942 0.000571653)
(-0.000280805 -0.000500477 0.00058434)
(-0.000325206 -0.00055125 0.000528006)
(-0.000351744 -0.00061688 0.00042682)
(-0.000363449 -0.000684282 0.000303806)
(-0.000354651 -0.000734272 0.0001742)
(-0.000318031 -0.000740639 4.75846e-05)
(-0.000252311 -0.000675151 -7.1363e-05)
(-0.000167448 -0.000516976 -0.000181361)
(-8.11629e-05 -0.000254566 -0.000275043)
(0.000197372 -3.65182e-05 -0.000104278)
(0.000207167 0.000209346 -3.66136e-05)
(0.00017911 0.000378237 5.49224e-05)
(0.000137644 0.0004679 0.000154679)
(9.97941e-05 0.000491717 0.00025328)
(7.7707e-05 0.000471278 0.000337206)
(8.16067e-05 0.000431237 0.000388298)
(0.000120569 0.000396462 0.000393298)
(0.000204238 0.000389275 0.000368888)
(0.000301706 0.000421408 0.000375792)
(0.00036721 0.000494904 0.000404619)
(0.000383923 0.000597766 0.000400926)
(0.000352176 0.000706885 0.000358291)
(0.000278078 0.000796835 0.000291055)
(0.000168945 0.000841037 0.000216717)
(3.54673e-05 0.000813537 0.000148452)
(-0.000103478 0.00069481 9.43744e-05)
(-0.00021564 0.000481778 6.47183e-05)
(-0.000269659 0.000221702 8.19574e-05)
(-0.000262464 -1.07806e-05 0.000136843)
(-0.000219379 -0.000169969 0.000200615)
(-0.000166309 -0.00025537 0.000264673)
(-0.000119571 -0.000281416 0.000325809)
(-9.01154e-05 -0.000267577 0.000375533)
(-8.83361e-05 -0.000233497 0.000399058)
(-0.000124985 -0.000199385 0.00038424)
(-0.000210217 -0.000187404 0.000347543)
(-0.000311699 -0.000214282 0.000344376)
(-0.000389433 -0.000286826 0.000361545)
(-0.000429053 -0.000395358 0.000346879)
(-0.000423409 -0.000517378 0.0002931)
(-0.000370646 -0.000623943 0.000211789)
(-0.000273309 -0.000682228 0.000117976)
(-0.000141584 -0.000660679 2.40972e-05)
(3.42971e-06 -0.000537851 -5.92039e-05)
(0.000127607 -0.000312984 -0.000113678)
(-0.00037722 0.000184734 -0.000648278)
(-0.000301179 0.000640198 -0.000595675)
(-0.000224928 0.000967249 -0.000451372)
(-0.00013622 0.00116885 -0.000235179)
(-2.75949e-05 0.00127907 4.81642e-05)
(9.4434e-05 0.00133775 0.000396348)
(0.000213013 0.00137903 0.000797707)
(0.000310121 0.00142405 0.00121246)
(0.000386312 0.00147469 0.00154288)
(0.000436953 0.00152793 0.00161616)
(0.000430482 0.00157283 0.00138768)
(0.000397853 0.00160403 0.00103744)
(0.00037021 0.00161902 0.000680985)
(0.000346368 0.00160167 0.00036295)
(0.000315761 0.00152628 9.58781e-05)
(0.000269386 0.0013612 -0.000122008)
(0.000205913 0.00107574 -0.00029208)
(0.000128845 0.000661467 -0.000394823)
(5.18829e-05 0.000181327 -0.000389615)
(-1.30951e-05 -0.000255965 -0.000281008)
(-6.49271e-05 -0.000576911 -0.000123382)
(-0.000108907 -0.000781703 5.52596e-05)
(-0.000152674 -0.000900169 0.000254778)
(-0.00019912 -0.000968348 0.000488077)
(-0.000247056 -0.00101849 0.000768014)
(-0.00029508 -0.00107203 0.00108543)
(-0.000355616 -0.00113123 0.00137313)
(-0.000424654 -0.00119148 0.00147348)
(-0.000468827 -0.00124371 0.00130876)
(-0.00049875 -0.00128652 0.00101104)
(-0.000538812 -0.00131699 0.000679604)
(-0.000580012 -0.00131381 0.000359904)
(-0.00060182 -0.00124473 7.06658e-05)
(-0.000587322 -0.00107288 -0.000184886)
(-0.000535561 -0.00076642 -0.000407405)
(-0.000458674 -0.000321927 -0.000578317)
(-9.95725e-05 6.50926e-05 -0.000435573)
(-4.02031e-05 0.000477926 -0.00033939)
(-2.8388e-06 0.00076605 -0.00017721)
(3.20951e-05 0.000940021 2.97154e-05)
(7.8186e-05 0.00102332 0.000271414)
(0.00013864 0.00104936 0.00053503)
(0.000209926 0.00105107 0.000800189)
(0.000287471 0.00105452 0.00103547)
(0.000370191 0.00107689 0.00119598)
(0.000440722 0.00112844 0.00123049)
(0.000479534 0.00120937 0.00112888)
(0.000476445 0.00130327 0.000940211)
(0.000442224 0.00138856 0.000715336)
(0.000380465 0.00144045 0.000487743)
(0.000291241 0.00142823 0.000277316)
(0.000177735 0.00131903 9.46842e-05)
(5.23836e-05 0.00108745 -5.3289e-05)
(-6.54797e-05 0.000717702 -0.000146908)
(-0.000148494 0.000277662 -0.000129567)
(-0.000187483 -0.000117268 -1.3596e-05)
(-0.000197443 -0.000397389 0.000132313)
(-0.000195993 -0.000571717 0.000287792)
(-0.000197616 -0.000662241 0.000450331)
(-0.00021072 -0.000698926 0.000620248)
(-0.000240391 -0.000710607 0.000794482)
(-0.000291149 -0.000719961 0.000960061)
(-0.000367465 -0.000742248 0.00108591)
(-0.000454503 -0.000788607 0.00112117)
(-0.000529519 -0.000866765 0.00103889)
(-0.00057666 -0.000967794 0.000868323)
(-0.000597865 -0.00106923 0.000648097)
(-0.000587384 -0.00114076 0.000408013)
(-0.000536519 -0.00114368 0.000168771)
(-0.000443355 -0.00103742 -5.62265e-05)
(-0.000321653 -0.000793316 -0.000256087)
(-0.000196728 -0.000400253 -0.000405838)
(0.000164201 -6.3745e-05 -0.000197644)
(0.000204042 0.000298526 -8.36729e-05)
(0.000200396 0.000554766 8.70301e-05)
(0.000179466 0.000702303 0.000281876)
(0.000161189 0.000758646 0.000479481)
(0.000160223 0.000753056 0.00065663)
(0.00018731 0.000719527 0.000786069)
(0.000249645 0.000691403 0.000846309)
(0.000350145 0.000697209 0.000847252)
(0.000463894 0.000754083 0.000855696)
(0.000546265 0.000861831 0.000866226)
(0.000570502 0.00100438 0.000828067)
(0.000531378 0.00115216 0.000732442)
(0.000433349 0.00127012 0.000596771)
(0.000286126 0.00132001 0.000446187)
(0.000106134 0.00126494 0.000303458)
(-7.99828e-05 0.00107947 0.000188771)
(-0.000233739 0.00076343 0.000128472)
(-0.000320521 0.000382611 0.00015456)
(-0.000335658 3.94263e-05 0.00025217)
(-0.000305097 -0.000205336 0.000377604)
(-0.000258605 -0.000348642 0.000507711)
(-0.000217973 -0.000408507 0.000631578)
(-0.000198845 -0.000411577 0.000736377)
(-0.000213275 -0.000386088 0.000803719)
(-0.000269996 -0.00035971 0.000817684)
(-0.00037234 -0.000359805 0.000789287)
(-0.000495228 -0.00040904 0.000779809)
(-0.000598647 -0.000513873 0.000775109)
(-0.000657249 -0.000663405 0.000723011)
(-0.000657885 -0.000829392 0.000610642)
(-0.000594632 -0.000972043 0.000449745)
(-0.000470028 -0.00104365 0.00026156)
(-0.000298719 -0.000997971 6.94319e-05)
(-0.000109379 -0.000805766 -9.97059e-05)
(5.74174e-05 -0.00047004 -0.000205682)
(-0.00048488 0.000150396 -0.000670141)
(-0.000385045 0.000701482 -0.000632002)
(-0.000283761 0.00111588 -0.000466574)
(-0.000168027 0.00138934 -0.000190931)
(-3.21066e-05 0.00155369 0.000184855)
(0.000116588 0.00165001 0.000648236)
(0.000262625 0.0017158 0.0011727)
(0.000390072 0.00177824 0.00170191)
(0.000494522 0.00185107 0.00213047)
(0.000576266 0.00193748 0.0022811)
(0.00060874 0.00202054 0.0020649)
(0.000574612 0.00208463 0.00165064)
(0.000526207 0.00211949 0.00118808)
(0.000474751 0.00209966 0.0007525)
(0.000416527 0.00199599 0.000378788)
(0.000342833 0.00177687 7.86743e-05)
(0.000250904 0.00141574 -0.000142398)
(0.000146653 0.000913294 -0.00026656)
(4.61171e-05 0.000342269 -0.000268353)
(-3.7032e-05 -0.00018331 -0.000156085)
(-0.000102707 -0.000583526 2.61502e-05)
(-0.00015983 -0.000852182 0.000249013)
(-0.000217034 -0.0010185 0.000507659)
(-0.000276966 -0.00112097 0.000809998)
(-0.000339225 -0.00119512 0.00116149)
(-0.000404492 -0.00126726 0.00154419)
(-0.000480609 -0.00135105 0.00189104)
(-0.000574128 -0.00144846 0.00205077)
(-0.000665556 -0.00154367 0.00191011)
(-0.000710732 -0.00162278 0.001566)
(-0.000748666 -0.00167774 0.00114056)
(-0.000779478 -0.0016778 0.000706305)
(-0.000788553 -0.00158612 0.000303115)
(-0.000758795 -0.00136507 -5.11164e-05)
(-0.00068743 -0.000985931 -0.000347786)
(-0.000588902 -0.000452914 -0.000567034)
(-0.000228794 2.86614e-05 -0.000439045)
(-0.000137241 0.000524864 -0.000339776)
(-6.50527e-05 0.000886819 -0.000138303)
(6.55345e-06 0.001121 0.000135725)
(8.9447e-05 0.00125236 0.000464716)
(0.000185053 0.00131674 0.000827663)
(0.000288281 0.00135031 0.0011941)
(0.000392748 0.00138238 0.00152103)
(0.000495456 0.00143262 0.00175254)
(0.000584794 0.00150965 0.00182498)
(0.000641071 0.00161435 0.00171817)
(0.000641239 0.00173132 0.00148322)
(0.000598517 0.00183096 0.00118391)
(0.000521563 0.00188299 0.000869749)
(0.000413712 0.00185259 0.00057438)
(0.000279267 0.00170434 0.00031925)
(0.00013093 0.0014125 0.000120893)
(-1.12244e-05 0.000968507 8.22292e-06)
(-0.000121113 0.0004495 2.37643e-05)
(-0.000187718 -2.29197e-05 0.000150662)
(-0.000222953 -0.000372804 0.000329157)
(-0.000245571 -0.000603976 0.000530083)
(-0.00027079 -0.000739747 0.000745263)
(-0.000306944 -0.00081303 0.000971491)
(-0.000358077 -0.000856436 0.00120173)
(-0.000427018 -0.000896002 0.00141794)
(-0.000517256 -0.000949191 0.00158463)
(-0.00062254 -0.00102333 0.0016447)
(-0.000721468 -0.00112612 0.00156017)
(-0.000783582 -0.00125201 0.00135183)
(-0.00081026 -0.00137119 0.00106261)
(-0.00079855 -0.00144743 0.000733605)
(-0.000741512 -0.00143697 0.000397713)
(-0.000637164 -0.00129528 8.03349e-05)
(-0.000498946 -0.000991928 -0.000194512)
(-0.000352861 -0.000521842 -0.000388172)
(3.56105e-05 -0.000101946 -0.000187845)
(0.000112118 0.000332439 -4.70432e-05)
(0.000149642 0.000649031 0.000180178)
(0.000172237 0.000845364 0.00045015)
(0.000197232 0.000942028 0.000731377)
(0.000236148 0.000971548 0.000992709)
(0.000295768 0.000970676 0.00120014)
(0.000379338 0.000973498 0.0013248)
(0.000485093 0.00100696 0.00136533)
(0.000605502 0.00108927 0.00137641)
(0.000693223 0.00121858 0.00136906)
(0.000721057 0.00137905 0.00130368)
(0.000680946 0.00153995 0.00116619)
(0.000575602 0.00166327 0.000974738)
(0.000414773 0.00170582 0.000760145)
(0.000216292 0.00162555 0.00055461)
(8.60439e-06 0.00139444 0.00039095)
(-0.000170083 0.00101607 0.000307449)
(-0.000285631 0.000564858 0.000336527)
(-0.000332151 0.00015359 0.000458886)
(-0.00033343 -0.00015122 0.000624871)
(-0.000318214 -0.00034442 0.000802188)
(-0.00030832 -0.00044546 0.000973393)
(-0.000318743 -0.000484081 0.00112253)
(-0.000358637 -0.000491956 0.00122992)
(-0.00043259 -0.000497688 0.00127704)
(-0.000538386 -0.000525968 0.00126548)
(-0.000672726 -0.000599774 0.00124477)
(-0.000787713 -0.000725027 0.00121801)
(-0.000857512 -0.000892585 0.00113862)
(-0.000867092 -0.00107363 0.000981856)
(-0.000807742 -0.00122538 0.000756355)
(-0.000680162 -0.00129406 0.000487228)
(-0.000498651 -0.00122605 0.000208513)
(-0.000292568 -0.000987562 -3.57663e-05)
(-0.000102061 -0.000584721 -0.000187105)
(-0.000594848 5.6445e-05 -0.000488912)
(-0.000476773 0.000648013 -0.000485875)
(-0.000350221 0.00111589 -0.000333426)
(-0.00020605 0.00144781 -3.86907e-05)
(-4.22221e-05 0.00166905 0.000385661)
(0.00013349 0.00181723 0.000917846)
(0.000307297 0.00192881 0.0015196)
(0.000464148 0.00203242 0.00212478)
(0.000595293 0.00214719 0.00262597)
(0.000705683 0.0022782 0.00285733)
(0.000772886 0.00240109 0.00270567)
(0.000737985 0.00248977 0.00228415)
(0.000669713 0.00253526 0.00176581)
(0.000588498 0.00250644 0.00125463)
(0.000499914 0.00237379 0.000808302)
(0.00040049 0.00211123 0.00045365)
(0.000288108 0.00170321 0.000202198)
(0.000167882 0.00116336 6.42424e-05)
(5.27993e-05 0.000563775 4.60321e-05)
(-4.6192e-05 5.55956e-06 0.0001366)
(-0.00012973 -0.00043817 0.000308211)
(-0.000206549 -0.000755119 0.000538042)
(-0.00028422 -0.000968739 0.000818697)
(-0.000364742 -0.00111479 0.00115169)
(-0.000447248 -0.00122854 0.0015347)
(-0.000531754 -0.00133844 0.00194464)
(-0.000622429 -0.00146407 0.00231793)
(-0.000732162 -0.00161012 0.00252719)
(-0.000850923 -0.00175265 0.00245223)
(-0.000907841 -0.00186308 0.0021148)
(-0.000938075 -0.0019334 0.00164712)
(-0.000950095 -0.00193016 0.00114514)
(-0.0009397 -0.00181672 0.000667973)
(-0.000896019 -0.00156079 0.000248544)
(-0.000815779 -0.00114312 -9.61088e-05)
(-0.000709924 -0.00057781 -0.00034994)
(-0.0003914 -4.46323e-05 -0.000263691)
(-0.000270034 0.000488098 -0.000184154)
(-0.000159391 0.00089624 2.13401e-05)
(-4.49688e-05 0.00117949 0.000324092)
(8.07936e-05 0.00136193 0.000702293)
(0.000216295 0.0014777 0.0011288)
(0.000354326 0.00156113 0.00156547)
(0.000486667 0.00164 0.00196091)
(0.000608891 0.00173248 0.00225201)
(0.000714703 0.00184333 0.00237064)
(0.000782981 0.00197188 0.00228791)
(0.000785281 0.00210379 0.00204313)
(0.00073587 0.00220572 0.00170545)
(0.000648074 0.00224669 0.00133807)
(0.000528973 0.00219318 0.000988038)
(0.000384372 0.002013 0.000687514)
(0.000225462 0.00168446 0.000460838)
(6.97321e-05 0.00120936 0.000337585)
(-6.06893e-05 0.000663632 0.00034236)
(-0.000155038 0.000159413 0.000455919)
(-0.00022217 -0.000231554 0.000632897)
(-0.000278808 -0.000506757 0.000844793)
(-0.000338118 -0.000688092 0.00108045)
(-0.000406302 -0.00080746 0.00133313)
(-0.000484778 -0.000896951 0.00159192)
(-0.000573763 -0.000982106 0.00183512)
(-0.000675666 -0.00107909 0.00202577)
(-0.000791025 -0.00119071 0.00211054)
(-0.000901414 -0.00132058 0.00204657)
(-0.000972537 -0.00146329 0.00183475)
(-0.00100176 -0.00158732 0.00151479)
(-0.000988941 -0.00165582 0.00113527)
(-0.000930681 -0.00162656 0.000739216)
(-0.000826326 -0.00145808 0.000362481)
(-0.000686644 -0.00112288 3.93194e-05)
(-0.000533395 -0.000623808 -0.000186025)
(-0.000161964 -0.000154266 -2.4744e-05)
(-4.70265e-05 0.000313493 0.000117673)
(3.8607e-05 0.000666662 0.00036663)
(0.000115454 0.000902011 0.000675268)
(0.000195789 0.00104229 0.00100769)
(0.000284963 0.00111993 0.00132856)
(0.000383765 0.00116892 0.00159923)
(0.000491305 0.00121851 0.00178365)
(0.000604269 0.00128998 0.00186688)
(0.000727706 0.00139915 0.00188488)
(0.000815794 0.00154585 0.00187065)
(0.000845467 0.00171405 0.00179525)
(0.000808759 0.00187273 0.00163646)
(0.000707611 0.00198601 0.0014131)
(0.000550505 0.00201276 0.0011606)
(0.00035316 0.00191187 0.000918455)
(0.000141198 0.00165555 0.000727761)
(-5.07269e-05 0.00125052 0.000630858)
(-0.000190942 0.000771237 0.000655057)
(-0.000272295 0.000327932 0.000778655)
(-0.000315005 -1.3168e-05 0.000953434)
(-0.000344935 -0.000245485 0.00114617)
(-0.000380643 -0.000389249 0.00133745)
(-0.000432753 -0.000474345 0.00151012)
(-0.000505288 -0.00053114 0.00164409)
(-0.000598627 -0.000584343 0.00171848)
(-0.000708941 -0.000651964 0.00172405)
(-0.000845023 -0.000751704 0.00169062)
(-0.000962144 -0.000893107 0.0016502)
(-0.00103835 -0.00106773 0.00156154)
(-0.00105859 -0.00124658 0.0013841)
(-0.00101266 -0.00138913 0.00112326)
(-0.000898672 -0.00144382 0.00080589)
(-0.00072742 -0.00135766 0.000472771)
(-0.00052401 -0.00109578 0.000179023)
(-0.000324192 -0.000666191 -6.63357e-06)
(-0.000706296 -7.98382e-05 -0.000119561)
(-0.000578118 0.000509288 -0.000163573)
(-0.000430139 0.000999718 -5.21046e-05)
(-0.000257488 0.00137382 0.000221609)
(-6.31452e-05 0.00164952 0.000647245)
(0.000143345 0.00185864 0.00119825)
(0.000348454 0.00203354 0.00182982)
(0.000537248 0.00220014 0.00247217)
(0.000697744 0.00237584 0.00302135)
(0.000829894 0.00256164 0.00333421)
(0.00091018 0.00272519 0.00328213)
(0.000879336 0.00283155 0.00289968)
(0.000796708 0.00287845 0.00237474)
(0.000689303 0.0028362 0.00183505)
(0.00057265 0.00267799 0.00135618)
(0.000451528 0.00238642 0.000977087)
(0.000326531 0.00195926 0.000712411)
(0.000200381 0.00142167 0.000563125)
(7.92694e-05 0.000838463 0.000520273)
(-3.27056e-05 0.000289514 0.000571849)
(-0.000137933 -0.000165963 0.000704839)
(-0.000242505 -0.000513062 0.000906855)
(-0.000350337 -0.000768611 0.00117171)
(-0.000460943 -0.000963151 0.00149653)
(-0.000571312 -0.00112897 0.0018733)
(-0.00067914 -0.00129334 0.00227707)
(-0.000785453 -0.00147539 0.00265238)
(-0.000898634 -0.00167798 0.00290315)
(-0.0010139 -0.00187085 0.0029097)
(-0.00108243 -0.00201248 0.00262259)
(-0.00110345 -0.00209091 0.00216499)
(-0.00109529 -0.00208086 0.00164739)
(-0.0010643 -0.00195088 0.00114313)
(-0.00100837 -0.00167731 0.000696785)
(-0.000925676 -0.00125209 0.000330442)
(-0.000822121 -0.000697152 5.43308e-05)
(-0.000570831 -0.000144537 8.68169e-05)
(-0.000426323 0.000388612 0.000128866)
(-0.000280219 0.000817659 0.000306208)
(-0.000122946 0.00113666 0.000598253)
(4.78275e-05 0.00136741 0.000983834)
(0.000226474 0.0015405 0.0014333)
(0.000402793 0.00168551 0.00190431)
(0.000566183 0.00182504 0.00234113)
(0.000709776 0.00197193 0.00267793)
(0.000828508 0.0021264 0.00284811)
(0.00090203 0.00228234 0.00281177)
(0.000907565 0.00242404 0.00258829)
(0.000855051 0.00252121 0.00224841)
(0.000760816 0.00254606 0.00186531)
(0.000635775 0.00247006 0.00149597)
(0.000487914 0.00226776 0.00118028)
(0.000326728 0.00192433 0.000946219)
(0.000165703 0.00145083 0.000817689)
(2.14674e-05 0.000915987 0.000803522)
(-9.77987e-05 0.000414394 0.000884722)
(-0.000198947 8.3185e-06 0.00103076)
(-0.000295213 -0.000295685 0.00122041)
(-0.000395872 -0.000517265 0.00144338)
(-0.000503324 -0.00068559 0.00169111)
(-0.000615115 -0.000829514 0.00195003)
(-0.000727889 -0.000970878 0.00219688)
(-0.000841418 -0.00112128 0.00239681)
(-0.000957998 -0.0012801 0.00250511)
(-0.0010673 -0.00144251 0.00247564)
(-0.00114322 -0.00159817 0.00228872)
(-0.00117345 -0.00172096 0.00197646)
(-0.00115975 -0.00177725 0.00158949)
(-0.00110282 -0.00173043 0.00117648)
(-0.00100425 -0.00154622 0.000779703)
(-0.000871909 -0.00120321 0.000438043)
(-0.000721473 -0.000711134 0.000194118)
(-0.000398996 -0.000217584 0.00030143)
(-0.000249337 0.000253423 0.000420857)
(-0.000116499 0.000622741 0.000656435)
(1.55831e-05 0.000886287 0.000965045)
(0.00015396 0.00106771 0.00131174)
(0.000297369 0.00119758 0.00166061)
(0.000440199 0.00130446 0.00197069)
(0.000577104 0.00140992 0.00220048)
(0.000703835 0.00152736 0.00232347)
(0.000826903 0.00166668 0.00235592)
(0.000915162 0.00183147 0.00234608)
(0.000948831 0.00200492 0.00227626)
(0.000919549 0.00215594 0.00211866)
(0.000829301 0.00225325 0.00189137)
(0.000685228 0.00226214 0.00163194)
(0.00049974 0.00214687 0.00138341)
(0.000293584 0.00188246 0.00118912)
(9.62725e-05 0.0014775 0.00108812)
(-6.40753e-05 0.00100092 0.00109977)
(-0.000179238 0.000553104 0.00120272)
(-0.000265346 0.00019656 0.00135612)
(-0.000344877 -6.20487e-05 0.00153253)
(-0.000432154 -0.000243783 0.00171494)
(-0.000532115 -0.000377365 0.00188698)
(-0.000642978 -0.000489302 0.00202872)
(-0.000760643 -0.000597987 0.00211781)
(-0.000881062 -0.000712949 0.00213762)
(-0.00100903 -0.000842435 0.00210034)
(-0.00112389 -0.00100061 0.00205415)
(-0.00120577 -0.00117914 0.00196821)
(-0.0012372 -0.00134998 0.00179457)
(-0.00120814 -0.00147684 0.00153273)
(-0.00111497 -0.00151462 0.00120728)
(-0.000964559 -0.00141619 0.000860119)
(-0.00077587 -0.00114933 0.000549031)
(-0.000577903 -0.000723376 0.000343664)
(-0.000819328 -0.000240141 0.000401603)
(-0.00068591 0.000316265 0.000307595)
(-0.000519588 0.00080365 0.000360677)
(-0.000318962 0.00120362 0.000581992)
(-9.23845e-05 0.00152768 0.00096831)
(0.000147112 0.00180064 0.00149384)
(0.000384243 0.00204842 0.00211292)
(0.000602681 0.00229097 0.00275858)
(0.000787226 0.00253936 0.00333759)
(0.00093035 0.00278728 0.00372761)
(0.00101191 0.00299485 0.00378272)
(0.000995038 0.00311947 0.00347256)
(0.000904302 0.00316358 0.00298514)
(0.00077703 0.00310775 0.00246106)
(0.000638664 0.00293122 0.00198662)
(0.000502563 0.00262659 0.00160887)
(0.000372763 0.00220392 0.00134332)
(0.000248575 0.00169595 0.0011834)
(0.000126732 0.00115714 0.00111096)
(2.54187e-06 0.000645225 0.00111401)
(-0.000128255 0.000202823 0.00119025)
(-0.000267783 -0.000156789 0.00133839)
(-0.000414442 -0.00044545 0.0015568)
(-0.000563078 -0.00068788 0.00184156)
(-0.00070648 -0.000911316 0.00218213)
(-0.000837899 -0.0011386 0.00255524)
(-0.0009538 -0.00138398 0.00291707)
(-0.00105689 -0.00164631 0.00319516)
(-0.0011534 -0.00189304 0.00327344)
(-0.00122911 -0.00207317 0.00307117)
(-0.00124084 -0.00216017 0.00267053)
(-0.00121646 -0.0021457 0.00218424)
(-0.0011696 -0.00200816 0.00169551)
(-0.00110589 -0.00173429 0.00125648)
(-0.00102565 -0.00132633 0.000891287)
(-0.000930072 -0.000810242 0.000605001)
(-0.000751265 -0.00025877 0.00058234)
(-0.000591182 0.000249203 0.000577394)
(-0.000415657 0.000677685 0.000704069)
(-0.000219347 0.00101857 0.000953876)
(-5.09028e-06 0.00129095 0.00131058)
(0.000216838 0.00152113 0.00174576)
(0.000432287 0.00173249 0.00221695)
(0.000627204 0.00194032 0.00266868)
(0.000791335 0.00214982 0.003037)
(0.00091903 0.00235553 0.00325733)
(0.000995733 0.00254308 0.0032774)
(0.0010074 0.00269418 0.003098)
(0.000954975 0.00278581 0.00278774)
(0.000857666 0.0027956 0.00242366)
(0.000730466 0.00270242 0.00206736)
(0.000583829 0.00248937 0.00176265)
(0.000425936 0.0021496 0.00153738)
(0.0002658 0.00170048 0.00140701)
(0.000113348 0.00120062 0.00136889)
(-2.73564e-05 0.000725515 0.00140605)
(-0.000161931 0.000325787 0.00150125)
(-0.000299741 8.42275e-06 0.00164372)
(-0.000445305 -0.000244469 0.00182719)
(-0.000596097 -0.000458906 0.00204346)
(-0.000744679 -0.000659131 0.00227833)
(-0.000882869 -0.000861348 0.00250952)
(-0.00100649 -0.00107089 0.00270656)
(-0.00111804 -0.00128266 0.00283203)
(-0.00121883 -0.00148183 0.00283994)
(-0.00129442 -0.00165285 0.00269911)
(-0.00132314 -0.00177654 0.00242748)
(-0.00130833 -0.00182403 0.00207138)
(-0.0012542 -0.00176673 0.00168048)
(-0.00116428 -0.00157932 0.00129918)
(-0.00104394 -0.00124785 0.000966021)
(-0.000902839 -0.000786728 0.000717239)
(-0.000643089 -0.000285597 0.000768177)
(-0.000467747 0.000167511 0.000847279)
(-0.00029524 0.000535861 0.00104208)
(-0.000113795 0.000815927 0.00131891)
(7.88916e-05 0.00103172 0.00164741)
(0.0002755 0.00121137 0.00199367)
(0.000464195 0.00137722 0.00231685)
(0.000634557 0.00154225 0.00257288)
(0.000780525 0.00171079 0.00272768)
(0.000904935 0.00188512 0.00278213)
(0.000995749 0.00207052 0.00278395)
(0.00103424 0.00224979 0.00272913)
(0.00101334 0.00239404 0.00259222)
(0.000935542 0.00247677 0.00238686)
(0.000807085 0.00247127 0.00214861)
(0.000637187 0.00234953 0.00192002)
(0.000441334 0.00209102 0.00174152)
(0.000243485 0.00170462 0.00164396)
(6.80035e-05 0.00125117 0.00163808)
(-7.63308e-05 0.000818749 0.00170515)
(-0.000202198 0.00046446 0.00181545)
(-0.000329122 0.000193083 0.00195164)
(-0.00046733 -1.78237e-05 0.00210186)
(-0.000616128 -0.000195547 0.00225185)
(-0.000767817 -0.000361955 0.00238278)
(-0.000913133 -0.000528276 0.00247239)
(-0.00104635 -0.000694949 0.00250114)
(-0.00116712 -0.000860274 0.00246999)
(-0.00128047 -0.00103823 0.00242229)
(-0.00136365 -0.00122139 0.00234575)
(-0.00140161 -0.00138596 0.00219661)
(-0.00138631 -0.00149986 0.00196409)
(-0.00131347 -0.00152538 0.00166662)
(-0.00118631 -0.00142309 0.00134246)
(-0.00101768 -0.00116544 0.00104483)
(-0.000829396 -0.000762866 0.000836028)
(-0.00093063 -0.000406818 0.0010302)
(-0.000791386 9.82421e-05 0.00089068)
(-0.000606912 0.000563738 0.000879545)
(-0.000379511 0.000974833 0.00103017)
(-0.000122202 0.00133842 0.00134911)
(0.000148095 0.00167202 0.00181611)
(0.000412944 0.00199357 0.00238978)
(0.000652998 0.0023147 0.00301026)
(0.000850096 0.00263767 0.00359667)
(0.000993664 0.00294976 0.00404161)