/*--------------------------------*- C++ -*----------------------------------*\
| =========                 |                                                 |
| \\      /  F ield         | OpenFOAM: The Open Source CFD Toolbox           |
|  \\    /   O peration     | Version:  2312                                  |
|   \\  /    A nd           | Website:  www.openfoam.com                      |
|    \\/     M anipulation  |                                                 |
\*---------------------------------------------------------------------------*/
FoamFile
{
    version     2.0;
    format      ascii;
    arch        "LSB;label=32;scalar=64";
    class       volVectorField;
    location    "0.7";
    object      D_0;
}
// * * * * * * * * * * * * * * * * * * * * * * * * * * * * * * * * * * * * * //

dimensions      [0 1 0 0 0 0 0];

internalField   nonuniform List<vector> 
1620
(
(-0.000145165 5.51004e-05 -0.000163323)
(-0.000115548 0.000150979 -0.000146864)
(-7.79436e-05 0.000218773 -0.000115778)
(-3.63223e-05 0.000262816 -7.33343e-05)
(9.59675e-06 0.000293652 -1.84888e-05)
(5.63705e-05 0.000322142 5.08322e-05)
(9.45444e-05 0.000356162 0.000137169)
(0.000110814 0.000396354 0.000239264)
(0.000108077 0.000428291 0.000329394)
(8.76663e-05 0.000443002 0.000320684)
(5.11275e-05 0.000433971 0.000230264)
(3.00096e-05 0.000408839 0.000141356)
(2.97765e-05 0.000382513 6.92089e-05)
(3.96048e-05 0.000357425 1.17104e-05)
(5.08905e-05 0.00032795 -3.45167e-05)
(6.04136e-05 0.000285444 -7.27577e-05)
(6.7744e-05 0.000221404 -0.000105767)
(6.68673e-05 0.000131647 -0.000130208)
(4.97749e-05 2.53544e-05 -0.000127447)
(2.0118e-05 -6.99287e-05 -9.84881e-05)
(-9.76904e-06 -0.000142708 -6.46272e-05)
(-3.44846e-05 -0.000193842 -2.96731e-05)
(-5.60756e-05 -0.000229181 8.77161e-06)
(-7.6436e-05 -0.000257428 5.50297e-05)
(-9.30914e-05 -0.000287738 0.000116442)
(-9.81123e-05 -0.00032449 0.000200478)
(-9.71481e-05 -0.000355614 0.000289174)
(-8.56779e-05 -0.000371846 0.000292894)
(-6.13489e-05 -0.000365667 0.00022122)
(-5.34727e-05 -0.000344929 0.00014492)
(-6.71097e-05 -0.000322191 7.81434e-05)
(-9.1726e-05 -0.000298949 2.10325e-05)
(-0.000117182 -0.000268998 -2.79088e-05)
(-0.000138251 -0.000223053 -7.13416e-05)
(-0.000153699 -0.000152613 -0.000112661)
(-0.000158361 -5.51938e-05 -0.000149853)
(1.06761e-05 2.39915e-05 -9.23348e-05)
(2.23634e-05 0.000118156 -6.28796e-05)
(2.86597e-05 0.000179933 -3.47683e-05)
(3.35504e-05 0.000215381 -2.34932e-06)
(4.04855e-05 0.000229708 3.50946e-05)
(4.99406e-05 0.000230732 7.50725e-05)
(6.05347e-05 0.000225607 0.000113997)
(7.14337e-05 0.000220119 0.000147458)
(8.60295e-05 0.000220772 0.000168886)
(9.2968e-05 0.000232809 0.000167021)
(9.22535e-05 0.00025347 0.0001457)
(8.34139e-05 0.000275576 0.000115602)
(7.19727e-05 0.000295287 8.27597e-05)
(5.70541e-05 0.00030827 5.04305e-05)
(3.66885e-05 0.000307965 2.11082e-05)
(1.04802e-05 0.000286557 -3.92822e-06)
(-1.87755e-05 0.000238169 -2.64373e-05)
(-4.72024e-05 0.000153616 -5.13999e-05)
(-6.53808e-05 4.67477e-05 -4.59908e-05)
(-7.0698e-05 -4.40745e-05 -1.34661e-05)
(-6.93391e-05 -0.000105909 1.08371e-05)
(-6.45378e-05 -0.000143841 3.38722e-05)
(-5.99698e-05 -0.000161697 5.82108e-05)
(-5.76614e-05 -0.000165937 8.37334e-05)
(-5.8758e-05 -0.000162581 0.000110027)
(-6.48642e-05 -0.00015667 0.000135934)
(-8.04294e-05 -0.000154895 0.000155652)
(-9.3837e-05 -0.000163274 0.000154822)
(-0.000102379 -0.000181955 0.000135667)
(-0.000105697 -0.000205266 0.000107013)
(-0.000107022 -0.000228467 7.36938e-05)
(-0.000103681 -0.00024568 3.89572e-05)
(-9.20276e-05 -0.000248518 5.53365e-06)
(-7.06539e-05 -0.000227627 -2.52065e-05)
(-4.23672e-05 -0.000176537 -5.51077e-05)
(-1.20849e-05 -8.75492e-05 -8.94142e-05)
(0.000125952 -1.34284e-05 -4.64765e-06)
(0.000117419 7.5687e-05 1.31725e-05)
(8.96081e-05 0.000131765 3.20993e-05)
(5.7403e-05 0.000154683 5.12369e-05)
(2.9085e-05 0.000150446 6.95106e-05)
(9.71602e-06 0.000128388 8.2492e-05)
(3.95517e-06 9.88744e-05 8.35141e-05)
(1.74273e-05 7.27537e-05 6.77553e-05)
(5.71058e-05 6.11208e-05 4.28722e-05)
(0.000111994 6.92887e-05 4.27468e-05)
(0.000147043 9.9756e-05 6.96384e-05)
(0.000155914 0.000147138 8.31322e-05)
(0.000142591 0.000199565 8.07114e-05)
(0.000111099 0.000245798 6.9772e-05)
(6.44733e-05 0.000275087 5.73771e-05)
(6.2207e-06 0.000276808 4.80685e-05)
(-5.62071e-05 0.000242356 4.29336e-05)
(-0.000105908 0.000168403 4.08059e-05)
(-0.0001238 7.56386e-05 4.72158e-05)
(-0.000109277 -6.12341e-06 5.8967e-05)
(-7.93666e-05 -5.67894e-05 6.83272e-05)
(-4.82846e-05 -7.77729e-05 7.74877e-05)
(-2.25653e-05 -7.56201e-05 8.72879e-05)
(-5.50034e-06 -5.84081e-05 9.4371e-05)
(-1.07102e-06 -3.36842e-05 9.22101e-05)
(-1.56069e-05 -9.56535e-06 7.474e-05)
(-5.63294e-05 3.20845e-06 4.73678e-05)
(-0.000112168 -3.07082e-06 4.2307e-05)
(-0.000150117 -3.32726e-05 6.33373e-05)
(-0.000166448 -8.24179e-05 7.14618e-05)
(-0.000161417 -0.000139203 6.4214e-05)
(-0.000135537 -0.00019123 4.83114e-05)
(-8.99194e-05 -0.000225478 3.00867e-05)
(-2.8039e-05 -0.000229275 1.35045e-05)
(4.12967e-05 -0.000193136 -2.74035e-07)
(9.965e-05 -0.00011426 -9.94505e-06)
(-0.000269236 0.000145203 -0.000444236)
(-0.000216101 0.000440969 -0.000402403)
(-0.000159642 0.000647468 -0.000310382)
(-9.54158e-05 0.000769962 -0.000182416)
(-1.76041e-05 0.000835032 -1.94492e-05)
(6.98975e-05 0.000872405 0.000181453)
(0.000152838 0.000906783 0.000420583)
(0.000213411 0.000950596 0.000681023)
(0.00025519 0.000993441 0.00089108)
(0.000275624 0.00102456 0.000903453)
(0.000248051 0.00103613 0.000722015)
(0.000220025 0.00103372 0.000496116)
(0.000208083 0.00102603 0.000288492)
(0.000203144 0.0010061 0.000113249)
(0.000193917 0.000955716 -3.14014e-05)
(0.000175082 0.00085122 -0.000152228)
(0.000146887 0.000668981 -0.000253231)
(0.000107139 0.000399963 -0.000320549)
(5.94414e-05 8.4359e-05 -0.000315438)
(1.15626e-05 -0.000200794 -0.00023969)
(-3.00667e-05 -0.000407171 -0.000140011)
(-6.42644e-05 -0.000537026 -3.42158e-05)
(-9.66434e-05 -0.000611306 8.05903e-05)
(-0.000130728 -0.000655631 0.000216085)
(-0.000164803 -0.00069399 0.000387089)
(-0.000193544 -0.000741258 0.000596659)
(-0.000229515 -0.0007886 0.000792574)
(-0.000265946 -0.000824142 0.000831615)
(-0.000270658 -0.000841024 0.000693226)
(-0.000282486 -0.000847368 0.000498935)
(-0.000313331 -0.000849616 0.000304989)
(-0.000349958 -0.000837562 0.000128311)
(-0.000374856 -0.000789122 -2.83041e-05)
(-0.00037751 -0.000677428 -0.000168929)
(-0.000357894 -0.000478429 -0.000298201)
(-0.000318874 -0.000187316 -0.000404363)
(-2.06455e-05 5.74399e-05 -0.000284211)
(1.10377e-05 0.000330676 -0.00021571)
(2.5811e-05 0.00051592 -0.000120859)
(3.78135e-05 0.000622239 -6.1216e-06)
(5.77268e-05 0.000666989 0.000125429)
(8.86863e-05 0.000674053 0.000267734)
(0.000128688 0.000666205 0.000410582)
(0.000175586 0.000661131 0.000537519)
(0.000231496 0.000670781 0.000621727)
(0.000278129 0.000703121 0.000630235)
(0.000298282 0.000755824 0.000563517)
(0.000291261 0.000815739 0.000454851)
(0.00026646 0.000871327 0.000332113)
(0.000224628 0.000907687 0.000211264)
(0.000164221 0.000904351 0.000100992)
(8.70105e-05 0.00083822 4.93092e-06)
(1.87925e-06 0.000690447 -7.67165e-05)
(-7.76918e-05 0.000445997 -0.000138651)
(-0.000129334 0.000149665 -0.000126408)
(-0.000146926 -0.000112486 -4.71377e-05)
(-0.000144569 -0.000293442 3.77593e-05)
(-0.000134176 -0.000401928 0.000123449)
(-0.000126067 -0.000453436 0.000211957)
(-0.000126404 -0.000468765 0.000304698)
(-0.000139285 -0.000467431 0.00040118)
(-0.000169318 -0.000464724 0.000495304)
(-0.000222514 -0.000471896 0.000566513)
(-0.000281216 -0.000498919 0.000579122)
(-0.000325215 -0.000549538 0.000523551)
(-0.000351361 -0.000614474 0.000423636)
(-0.000362677 -0.000680857 0.00030211)
(-0.000353704 -0.000729852 0.000174018)
(-0.000317344 -0.000735689 4.88116e-05)
(-0.000252371 -0.000670567 -6.88633e-05)
(-0.00016852 -0.000513918 -0.000177666)
(-8.31386e-05 -0.000254344 -0.000270241)
(0.000192588 -3.86604e-05 -0.000100754)
(0.000202827 0.000204886 -3.41612e-05)
(0.00017573 0.000372573 5.59418e-05)
(0.000135444 0.0004621 0.000154186)
(9.87498e-05 0.00048668 0.000251356)
(7.76249e-05 0.000467603 0.000334115)
(8.21835e-05 0.000429148 0.000384539)
(0.000121411 0.000395811 0.000389536)
(0.000204775 0.000389603 0.000365561)
(0.00030166 0.000422096 0.000372503)
(0.000366764 0.000495256 0.000401085)
(0.000383376 0.000597192 0.000397576)
(0.000351839 0.000705074 0.000355617)
(0.000278273 0.000793815 0.000289365)
(0.000169991 0.000837218 0.000216099)
(3.75973e-05 0.000809688 0.000148828)
(-0.000100253 0.000691952 9.55527e-05)
(-0.000211687 0.000481 6.63376e-05)
(-0.000265697 0.000223491 8.32803e-05)
(-0.000259252 -6.87437e-06 0.000137265)
(-0.000217364 -0.000164978 0.000199989)
(-0.000165589 -0.000250292 0.000263034)
(-0.000119992 -0.000277053 0.000323256)
(-9.1368e-05 -0.000264456 0.000372262)
(-9.00076e-05 -0.00023185 0.000395434)
(-0.000126587 -0.000199147 0.000380771)
(-0.000211156 -0.000188209 0.000344516)
(-0.000311784 -0.000215524 0.000341339)
(-0.000388878 -0.000287741 0.000358254)
(-0.000428131 -0.000395232 0.000343796)
(-0.000422484 -0.000515749 0.00029077)
(-0.000370191 -0.000620762 0.000210607)
(-0.000273838 -0.000677978 0.000118152)
(-0.000143487 -0.000656337 2.56727e-05)
(7.36651e-08 -0.000534679 -5.6353e-05)
(0.000123161 -0.000312219 -0.000109985)
(-0.000377557 0.000178906 -0.000640034)
(-0.000301168 0.000630054 -0.000587862)
(-0.000224161 0.000954543 -0.000444825)
(-0.00013482 0.00115517 -0.000230674)
(-2.59723e-05 0.0012657 4.98141e-05)
(9.58956e-05 0.00132559 0.000394385)
(0.000214125 0.0013686 0.000791578)
(0.000310931 0.00141544 0.00120208)
(0.000386844 0.00146756 0.00152922)
(0.000437259 0.00152154 0.00160224)
(0.000430943 0.00156642 0.00137707)
(0.000398294 0.00159711 0.00103126)
(0.000370253 0.0016114 0.000678917)
(0.000345932 0.00159357 0.000364173)
(0.000315104 0.00151833 9.94635e-05)
(0.000268941 0.00135441 -0.000116858)
(0.000205981 0.0010715 -0.000285903)
(0.000129352 0.000661358 -0.000388126)
(5.2341e-05 0.000186143 -0.000383324)
(-1.32674e-05 -0.000246974 -0.000276003)
(-6.60338e-05 -0.000565436 -0.000119952)
(-0.00011086 -0.000769325 5.69797e-05)
(-0.000155159 -0.000888084 0.00025456)
(-0.000201794 -0.000957345 0.000485562)
(-0.000249638 -0.00100898 0.000762729)
(-0.000297374 -0.00106406 0.00107697)
(-0.000357314 -0.00112459 0.00136176)
(-0.000425576 -0.0011856 0.00146125)
(-0.000469211 -0.00123786 0.0012987)
(-0.000498531 -0.00128006 0.00100448)
(-0.000537649 -0.00130959 0.00067666)
(-0.000577902 -0.00130568 0.000360158)
(-0.000599273 -0.00123663 7.34467e-05)
(-0.000585184 -0.00106605 -0.00018021)
(-0.000534469 -0.000762453 -0.000401169)
(-0.000458612 -0.000322531 -0.000570725)
(-0.000102011 6.03434e-05 -0.000427946)
(-4.23261e-05 0.000469409 -0.000333034)
(-4.20093e-06 0.000755499 -0.000172834)
(3.1562e-05 0.000928877 3.1637e-05)
(7.82856e-05 0.00101282 0.000270512)
(0.000139105 0.00104035 0.000531129)
(0.000210543 0.00104396 0.000793394)
(0.000288113 0.00104928 0.00102625)
(0.000370728 0.00107308 0.00118529)
(0.000441138 0.0011253 0.00121984)
(0.000479814 0.00120604 0.00111985)
(0.000476601 0.00129911 0.000933702)
(0.000442226 0.0013833 0.00071159)
(0.000380449 0.0014342 0.000486612)
(0.000291518 0.0014216 0.000278436)
(0.000178647 0.00131303 9.76131e-05)
(5.40666e-05 0.00108341 -4.89721e-05)
(-6.32224e-05 0.000717213 -0.000141766)
(-0.000146264 0.000281504 -0.000124897)
(-0.000185966 -0.000109855 -1.05385e-05)
(-0.000197023 -0.000388023 0.000133519)
(-0.000196693 -0.000561791 0.000287141)
(-0.000199193 -0.00065288 0.000447827)
(-0.000212811 -0.000690886 0.000615898)
(-0.000242609 -0.000704252 0.000788314)
(-0.000293133 -0.000715298 0.000952207)
(-0.000368882 -0.000738965 0.00107679)
(-0.000455231 -0.000786095 0.00111179)
(-0.000529561 -0.000864149 0.00103056)
(-0.000576066 -0.000964267 0.000861995)
(-0.000596669 -0.00106433 0.000644271)
(-0.00058586 -0.00113453 0.00040685)
(-0.000535233 -0.0011368 0.000170184)
(-0.000442972 -0.00103117 -5.24658e-05)
(-0.000322536 -0.000789306 -0.000250256)
(-0.000198723 -0.000400259 -0.000398416)
(0.0001591 -6.72868e-05 -0.00019089)
(0.000199351 0.000291769 -7.87388e-05)
(0.000196657 0.000546338 8.93529e-05)
(0.00017695 0.000693626 0.000281344)
(0.000159906 0.000750936 0.000476189)
(0.000159982 0.000747138 0.000650985)
(0.000187797 0.000715714 0.000778812)
(0.000250465 0.000689499 0.000838438)
(0.00035081 0.000696627 0.000839614)
(0.000464069 0.000754028 0.000848226)
(0.000545989 0.000861466 0.000858915)
(0.000570015 0.00100296 0.000821506)
(0.000531013 0.00114923 0.000727305)
(0.000433513 0.00126569 0.000593521)
(0.000287236 0.00131461 0.000445003)
(0.000108474 0.00125965 0.000304257)
(-7.64363e-05 0.00107569 0.000191199)
(-0.000229412 0.000762598 0.000131744)
(-0.000316215 0.000385372 0.000157325)
(-0.000332218 4.5114e-05 0.000253297)
(-0.000303038 -0.00019809 0.000376704)
(-0.000258075 -0.000341166 0.000504833)
(-0.000218797 -0.000401907 0.000626955)
(-0.000200612 -0.000406594 0.000730379)
(-0.000215446 -0.000383039 0.000796883)
(-0.000271998 -0.000358496 0.000810691)
(-0.000373625 -0.000359958 0.000782631)
(-0.000495543 -0.00040981 0.000773179)
(-0.000598099 -0.000514374 0.000768452)
(-0.000656093 -0.000662735 0.000716965)
(-0.000656531 -0.000826886 0.000606016)
(-0.000593676 -0.000967558 0.000447242)
(-0.000470146 -0.00103781 0.000261658)
(-0.000300415 -0.000992134 7.23061e-05)
(-0.000112747 -0.000801705 -9.43141e-05)
(5.27676e-05 -0.00046945 -0.000198714)
(-0.000485025 0.000143871 -0.000662171)
(-0.000384789 0.000690261 -0.000624145)
(-0.000282748 0.00110168 -0.000459908)
(-0.000166407 0.00137386 -0.000186633)
(-3.02344e-05 0.00153837 0.00018563)
(0.000118398 0.00163595 0.000644555)
(0.000264184 0.00170368 0.00116402)
(0.000391349 0.00176825 0.00168831)
(0.000495513 0.00184287 0.00211306)
(0.000576905 0.00193015 0.00226288)
(0.000609167 0.00201311 0.00204989)
(0.000575109 0.00207649 0.00164069)
(0.000526513 0.00211051 0.00118318)
(0.000474746 0.00209025 0.000751853)
(0.000416355 0.001987 0.000381246)
(0.000342845 0.00176951 8.30685e-05)
(0.000251363 0.00141145 -0.000137022)
(0.000147442 0.000913556 -0.000260972)
(4.67158e-05 0.00034772 -0.000263335)
(-3.72555e-05 -0.000173439 -0.000152296)
(-0.000104092 -0.000570894 2.83362e-05)
(-0.000162257 -0.000838437 0.000249302)
(-0.000220132 -0.00100497 0.0005057)
(-0.000280335 -0.00110858 0.000805369)
(-0.000342521 -0.0011844 0.00115375)
(-0.000407443 -0.00125835 0.00153305)
(-0.000482923 -0.00134372 0.00187681)
(-0.000575506 -0.00144201 0.00203527)
(-0.000665902 -0.00153721 0.00189644)
(-0.000710434 -0.00161557 0.00155607)
(-0.000747554 -0.00166944 0.00113489)
(-0.000777553 -0.00166878 0.000704667)
(-0.000786208 -0.00157731 0.000304783)
(-0.000756781 -0.00135787 -4.70152e-05)
(-0.000686366 -0.000981986 -0.000341935)
(-0.000588755 -0.000453881 -0.000559862)
(-0.000230276 2.29781e-05 -0.000430763)
(-0.000138488 0.000515042 -0.000332803)
(-6.56816e-05 0.000874676 -0.000133686)
(6.5816e-06 0.00110808 0.000137253)
(8.99626e-05 0.00124 0.000462623)
(0.000185843 0.00130589 0.000821707)
(0.000289173 0.00134145 0.00118443)
(0.000393634 0.00137551 0.00150824)
(0.000496229 0.00142733 0.0017378)
(0.000585385 0.0015052 0.00181011)
(0.000641403 0.00160982 0.0017051)
(0.00064141 0.001726 0.00147322)
(0.000598523 0.00182459 0.00117742)
(0.000521503 0.00187575 0.000866665)
(0.00041384 0.00184517 0.00057426)
(0.000279887 0.00169786 0.000321472)
(0.000132164 0.00140837 0.000124762)
(-9.56786e-06 0.00096832 1.28268e-05)
(-0.000119577 0.000453968 2.77212e-05)
(-0.000186942 -1.46087e-05 0.000152849)
(-0.000223315 -0.0003623 0.000329183)
(-0.00024707 -0.000592749 0.000527873)
(-0.000273146 -0.000729016 0.000740816)
(-0.000309752 -0.000803633 0.000964832)
(-0.000360912 -0.000848789 0.00119293)
(-0.000429501 -0.000890128 0.00140719)
(-0.000519062 -0.000944782 0.0015724)
(-0.000623473 -0.00101983 0.00163203)
(-0.000721463 -0.00112266 0.00154851)
(-0.000782792 -0.00124772 0.0013424)
(-0.000808777 -0.0013656 0.00105617)
(-0.000796637 -0.0014406 0.000730529)
(-0.000739689 -0.00142964 0.000398023)
(-0.000636079 -0.00128881 8.37915e-05)
(-0.000498987 -0.000988032 -0.000188379)
(-0.000353914 -0.000522359 -0.000380195)
(3.18994e-05 -0.000106643 -0.000179382)
(0.000108655 0.000324155 -4.08851e-05)
(0.000146872 0.00063891 0.000182905)
(0.000170377 0.000834946 0.000449047)
(0.000196307 0.000932585 0.000726526)
(0.000236033 0.000963928 0.000984588)
(0.000296241 0.000965195 0.00118962)
(0.000380113 0.000969956 0.00131305)
(0.000485849 0.00100479 0.0013535)
(0.000605821 0.00108772 0.00136489)
(0.000693081 0.00121691 0.00135806)
(0.000720615 0.00137654 0.00129384)
(0.000680479 0.00153612 0.0011583)
(0.000575477 0.00165806 0.000969376)
(0.000415394 0.00169977 0.000757575)
(0.000217938 0.00161978 0.000554751)
(1.12651e-05 0.00139047 0.000393285)
(-0.000166785 0.00101543 0.000310838)
(-0.000282427 0.000568216 0.00033923)
(-0.000329808 0.000160179 0.000459476)
(-0.00033239 -0.000142871 0.000622819)
(-0.000318581 -0.000335724 0.000797551)
(-0.000309891 -0.000437596 0.000966508)
(-0.000321081 -0.000477838 0.00111389)
(-0.000361196 -0.000487656 0.00122014)
(-0.000434836 -0.000495212 0.00126686)
(-0.000539912 -0.000524869 0.0012555)
(-0.000673143 -0.000599375 0.00123494)
(-0.000787107 -0.000724568 0.0012083)
(-0.000856106 -0.00089121 0.00112967)
(-0.000865247 -0.00107064 0.000974647)
(-0.000806024 -0.00122055 0.000751872)
(-0.000679244 -0.00128795 0.000486253)
(-0.000499077 -0.00122008 0.000211415)
(-0.000294508 -0.000983662 -2.93215e-05)
(-0.000105243 -0.00058476 -0.000178467)
(-0.000594641 4.99498e-05 -0.000483653)
(-0.000476039 0.000637056 -0.000480245)
(-0.000348773 0.0011019 -0.00032857)
(-0.000204076 0.00143236 -3.60583e-05)
(-4.00163e-05 0.00165354 0.00038467)
(0.000135667 0.00180274 0.000912167)
(0.000309245 0.00191601 0.00150867)
(0.00046578 0.00202156 0.0021087)
(0.000596585 0.00213801 0.00260582)
(0.000706455 0.00226988 0.00283588)
(0.00077311 0.00239272 0.00268688)
(0.0007384 0.00248082 0.00227043)
(0.000670192 0.00252565 0.00175751)
(0.000588935 0.00249669 0.00125101)
(0.000500346 0.00236483 0.000808056)
(0.000401087 0.00210426 0.000455338)
(0.000288976 0.0016995 0.000204579)
(0.000168818 0.00116401 6.64612e-05)
(5.32691e-05 0.000569121 4.76189e-05)
(-4.67629e-05 1.49057e-05 0.00013726)
(-0.000131581 -0.000426203 0.00030762)
(-0.000209492 -0.000741985 0.000535811)
(-0.000287845 -0.000955661 0.000814383)
(-0.000368613 -0.00110266 0.00114482)
(-0.000450988 -0.00121787 0.00152487)
(-0.000535069 -0.00132939 0.00193162)
(-0.000625063 -0.00145646 0.00230198)
(-0.00073375 -0.00160332 0.00250974)
(-0.000851221 -0.00174589 0.00243586)
(-0.000907485 -0.00185577 0.00210183)
(-0.00093713 -0.00192525 0.00163845)
(-0.000948638 -0.00192155 0.00114068)
(-0.000937992 -0.00180861 0.000667008)
(-0.000894546 -0.00155448 0.000250079)
(-0.000814962 -0.00114002 -9.29489e-05)
(-0.000709689 -0.000579234 -0.000345627)
(-0.000391275 -5.07133e-05 -0.000257234)
(-0.000269747 0.000478024 -0.000178758)
(-0.000158717 0.00088382 2.4457e-05)
(-4.39351e-05 0.00116621 0.000324009)
(8.20434e-05 0.00134903 0.000698343)
(0.000217607 0.00146606 0.00112066)
(0.000355575 0.00155121 0.00155323)
(0.000487777 0.00163186 0.00194521)
(0.000609784 0.00172578 0.00223407)
(0.000715281 0.00183748 0.00235234)
(0.000783199 0.00196609 0.0022713)
(0.00078532 0.00209742 0.0020297)
(0.000735758 0.0021986 0.00169584)
(0.000647859 0.00223907 0.0013322)
(0.000528807 0.00218573 0.000985391)
(0.000384454 0.00200678 0.000687319)
(0.000225868 0.00168075 0.000462205)
(7.02972e-05 0.00120949 0.000339444)
(-6.04058e-05 0.000668123 0.000343494)
(-0.00015555 0.000167508 0.000455434)
(-0.000223743 -0.000221317 0.000630391)
(-0.000281365 -0.000495741 0.000840147)
(-0.000341344 -0.000677422 0.00107364)
(-0.000409776 -0.000797915 0.00132417)
(-0.000488082 -0.000888913 0.00158088)
(-0.000576543 -0.000975601 0.00182218)
(-0.000677637 -0.00107386 0.00201137)
(-0.000791965 -0.00118634 0.00209558)
(-0.000901262 -0.00131641 0.00203233)
(-0.000971502 -0.00145857 0.00182254)
(-0.000999999 -0.00158167 0.00150554)
(-0.000986685 -0.00164934 0.00112949)
(-0.000928338 -0.00161992 0.000737018)
(-0.000824403 -0.00145249 0.000363675)
(-0.000685484 -0.00111988 4.33814e-05)
(-0.00053296 -0.000625014 -0.000180043)
(-0.00016294 -0.000159777 -1.70884e-05)
(-4.80356e-05 0.00030448 0.000122937)
(3.78701e-05 0.000655864 0.00036818)
(0.000115114 0.000890921 0.000672605)
(0.000195865 0.00103207 0.00100085)
(0.000285406 0.0011113 0.00131798)
(0.000384473 0.00116217 0.00158576)
(0.000492129 0.00121346 0.00176851)
(0.000605038 0.00128617 0.00185139)
(0.000728006 0.00139597 0.00186984)
(0.000815603 0.0015427 0.00185632)
(0.000844883 0.00171035 0.00178225)
(0.000807964 0.00186809 0.00162562)
(0.000706869 0.00198038 0.00140506)
(0.000550123 0.00200662 0.00115564)
(0.000353378 0.00190622 0.000916454)
(0.000142044 0.00165181 0.000728091)
(-4.95179e-05 0.0012501 0.000632218)
(-0.000189919 0.000774725 0.000655629)
(-0.000272035 0.000334567 0.000776999)
(-0.000315807 -4.78969e-06 0.00094903)
(-0.000346796 -0.000236706 0.0011391)
(-0.000383315 -0.000381161 0.00132809)
(-0.000435811 -0.000467661 0.00149898)
(-0.00050824 -0.000526132 0.00163176)
(-0.000601025 -0.000580898 0.00170565)
(-0.000710494 -0.000649725 0.00171138)
(-0.000845344 -0.000750172 0.0016783)
(-0.000961318 -0.000891683 0.00163802)
(-0.00103655 -0.00106573 0.00154996)
(-0.00105609 -0.00124346 0.00137418)
(-0.00100989 -0.00138466 0.00111613)
(-0.000896195 -0.00143846 0.000802523)
(-0.000725753 -0.00135263 0.000473739)
(-0.000523417 -0.00109287 0.000184061)
(-0.0003246 -0.000667155 1.00883e-06)
(-0.000705835 -8.58886e-05 -0.000118947)
(-0.000576923 0.000499425 -0.000162129)
(-0.000428204 0.000987073 -5.08289e-05)
(-0.000255093 0.00135966 0.000221205)
(-6.05803e-05 0.00163502 0.00064364)
(0.000145829 0.00184471 0.00119029)
(0.000350639 0.00202074 0.00181686)
(0.000538994 0.00218873 0.00245423)
(0.000698998 0.00236567 0.00299936)
(0.000830491 0.00255214 0.00331044)
(0.000910167 0.00271574 0.00326009)
(0.000879565 0.00282188 0.00288235)
(0.000797209 0.00286855 0.00236278)
(0.000690027 0.00282659 0.00182772)
(0.000573557 0.00266958 0.00135209)
(0.000452594 0.00238026 0.000974643)
(0.000327652 0.00195628 0.000710268)
(0.00020123 0.00142249 0.00056051)
(7.93135e-05 0.000843105 0.000517036)
(-3.39032e-05 0.000297377 0.000568049)
(-0.000140427 -0.000155919 0.000700325)
(-0.000245992 -0.000501957 0.00090127)
(-0.000354367 -0.000757407 0.00116458)
(-0.000465071 -0.000952546 0.00148738)
(-0.000575176 -0.00111937 0.00186171)
(-0.000682476 -0.00128489 0.00226281)
(-0.000788061 -0.00146794 0.0026356)
(-0.000900247 -0.0016711 0.00288472)
(-0.00101434 -0.00186406 0.00289151)
(-0.00108211 -0.00200549 0.0026071)
(-0.00110273 -0.00208359 0.00215331)
(-0.00109436 -0.00207354 0.00163954)
(-0.00106333 -0.00194435 0.00113842)
(-0.00100761 -0.0016726 0.00069421)
(-0.000925299 -0.00125025 0.000329128)
(-0.000821962 -0.000699059 5.39223e-05)
(-0.000568895 -0.000150633 8.91563e-05)
(-0.000424243 0.000379018 0.000130575)
(-0.00027796 0.000805914 0.000306091)
(-0.000120638 0.00112405 0.000595315)
(5.00247e-05 0.00135496 0.000977313)
(0.00022843 0.00152892 0.00142276)
(0.000404416 0.00167517 0.00188976)
(0.000567428 0.00181599 0.00232308)
(0.000710615 0.00196398 0.00265753)
(0.000828884 0.00211914 0.00282709)
(0.000901994 0.00227521 0.00279212)
(0.00090731 0.00241664 0.00257164)
(0.00085464 0.00251348 0.00223551)
(0.000760264 0.00253829 0.00185609)
(0.000635137 0.00246287 0.00148981)
(0.000487266 0.00226203 0.00117631)
(0.000326078 0.00192109 0.000943468)
(0.000164905 0.00145105 0.000815125)
(2.01892e-05 0.000919945 0.000800238)
(-9.98952e-05 0.000421423 0.000880145)
(-0.000201955 1.72131e-05 0.00102461)
(-0.000298941 -0.000286075 0.0012126)
(-0.000399956 -0.000507858 0.00143386)
(-0.000507345 -0.000676995 0.00167986)
(-0.000618688 -0.000822007 0.00193709)
(-0.000730722 -0.000964455 0.00218238)
(-0.000843314 -0.00111576 0.00238106)
(-0.000958801 -0.00127522 0.00248871)
(-0.00106697 -0.00143789 0.00245957)
(-0.00114192 -0.00159335 0.00227419)
(-0.00117139 -0.00171571 0.00196443)
(-0.00115715 -0.00177168 0.00158049)
(-0.00109997 -0.00172509 0.00117069)
(-0.00100149 -0.00154207 0.000776969)
(-0.000869495 -0.00120148 0.000437929)
(-0.000719424 -0.000713066 0.000195806)
(-0.000396503 -0.00022357 0.000305539)
(-0.000247174 0.00024434 0.000422911)
(-0.000114549 0.000612089 0.000655051)
(1.73439e-05 0.000875392 0.00095966)
(0.000155525 0.00105752 0.00130231)
(0.000298732 0.00118866 0.00164747)
(0.000441358 0.00129699 0.00195454)
(0.000578038 0.00140374 0.00218245)
(0.000704503 0.00152215 0.00230491)
(0.000827049 0.001662 0.00233788)
(0.000914737 0.00182686 0.00232885)
(0.000947871 0.00199999 0.00226034)
(0.000918159 0.00215047 0.00210484)
(0.000827637 0.00224728 0.00188025)
(0.000683483 0.00225606 0.00162373)
(0.000498095 0.0021415 0.00137793)
(0.000292105 0.00187899 0.0011857)
(9.4832e-05 0.00147711 0.0010855)
(-6.57931e-05 0.00100404 0.00109634)
(-0.000181564 0.00055904 0.00119727)
(-0.000268403 0.000204054 0.00134825)
(-0.000348537 -5.41885e-05 0.00152237)
(-0.00043611 -0.000236473 0.00170287)
(-0.000535954 -0.000371159 0.00187345)
(-0.000646276 -0.000484372 0.00201425)
(-0.000763057 -0.000594209 0.00210295)
(-0.000882392 -0.000710064 0.00212294)
(-0.00100909 -0.000840157 0.00208614)
(-0.0011227 -0.000998516 0.00204008)
(-0.00120342 -0.00117677 0.00195444)
(-0.00123387 -0.00134698 0.00178201)
(-0.00120413 -0.00147309 0.00152248)
(-0.0011107 -0.00151047 0.00120039)
(-0.000960458 -0.00141261 0.000857273)
(-0.000772247 -0.00114779 0.000550147)
(-0.000574885 -0.000725344 0.000347474)
(-0.000818729 -0.000245592 0.000396347)
(-0.000684408 0.000307887 0.000303474)
(-0.000517321 0.000792973 0.000357012)
(-0.0003163 0.0011915 0.000577429)
(-8.96488e-05 0.00151493 0.000961352)
(0.000149666 0.0017879 0.00148328)
(0.000386393 0.00203612 0.00209803)
(0.000604274 0.00227933 0.0027392)
(0.000788209 0.00252834 0.00331431)
(0.000930668 0.00277659 0.00370205)
(0.00101172 0.00298424 0.00375793)
(0.000994995 0.00310902 0.00345186)
(0.000904689 0.00315337 0.0029694)
(0.000777873 0.00309832 0.00244959)
(0.000639842 0.00292337 0.001978)
(0.000503863 0.00262111 0.00160147)
(0.00037387 0.00220138 0.00133584)
(0.000249051 0.00169652 0.00117522)
(0.000126108 0.00116058 0.0011022)
(5.77029e-07 0.000650969 0.001105)
(-0.000131407 0.000210134 0.00118109)
(-0.000271696 -0.000148661 0.00132888)
(-0.000418633 -0.000437126 0.00154652)
(-0.000567133 -0.000679792 0.00183005)
(-0.000710106 -0.000903702 0.00216895)
(-0.000840935 -0.00113153 0.00254011)
(-0.000956186 -0.00137736 0.00289993)
(-0.00105855 -0.00163991 0.00317637)
(-0.00115418 -0.00188667 0.00325428)
(-0.00122903 -0.00206686 0.00305373)
(-0.00124049 -0.00215406 0.00265602)
(-0.00121608 -0.00214008 0.00217276)
(-0.00116932 -0.0020036 0.00168646)
(-0.00110577 -0.00173145 0.00124893)
(-0.0010257 -0.00132584 0.000884487)
(-0.000930048 -0.000812611 0.000598782)
(-0.000747679 -0.000264624 0.000578946)
(-0.000587431 0.000240539 0.000573827)
(-0.00041189 0.00066723 0.000699336)
(-0.000215811 0.00100731 0.000947036)
(-1.99422e-06 0.00127964 0.00130083)
(0.000219359 0.00151023 0.00173259)
(0.000434159 0.00172224 0.0022002)
(0.000628424 0.00193074 0.00264871)
(0.000791951 0.00214083 0.0030147)
(0.00091908 0.00234692 0.00323415)
(0.000995335 0.00253461 0.00325517)
(0.00100672 0.0026857 0.00307841)
(0.000954119 0.00277742 0.00277155)
(0.000856645 0.00278762 0.00241077)
(0.000729246 0.0026954 0.0020571)
(0.000582368 0.00248397 0.00175408)
(0.000424162 0.00214655 0.00152956)
(0.000263578 0.00170038 0.00139907)
(0.000110471 0.00120352 0.00136027)
(-3.10255e-05 0.000730818 0.00139651)
(-0.000166301 0.000332531 0.00149072)
(-0.000304497 1.57145e-05 0.00163221)
(-0.000450037 -0.000237289 0.00181468)
(-0.0006004 -0.000452215 0.00202991)
(-0.000748233 -0.000653046 0.00226373)
(-0.000885487 -0.000855801 0.00249387)
(-0.00100812 -0.00106574 0.00269001)
(-0.00111864 -0.0012778 0.00281484)
(-0.00121836 -0.00147717 0.00282272)
(-0.00129293 -0.0016483 0.00268277)
(-0.00132088 -0.001772 0.00241287)
(-0.00130548 -0.00181964 0.00205899)
(-0.00125094 -0.00176291 0.0016705)
(-0.00116081 -0.00157674 0.00129153)
(-0.00104045 -0.0012474 0.000960404)
(-0.000899358 -0.000789273 0.000713109)
(-0.000637212 -0.000291705 0.000766609)
(-0.000462381 0.000158849 0.00084424)
(-0.000290494 0.000525938 0.00103629)
(-0.000109778 0.000805847 0.00130978)
(8.21092e-05 0.0010222 0.0016348)
(0.000277913 0.00120274 0.00197778)
(0.000465861 0.00136953 0.00229819)
(0.000635564 0.00153534 0.00255239)
(0.000780958 0.00170444 0.00270658)
(0.000904747 0.00187909 0.00276154)
(0.000994868 0.00206451 0.00276423)
(0.00103268 0.00224361 0.00271062)
(0.00101116 0.00238766 0.00257554)
(0.000932793 0.00247033 0.00237246)
(0.000803863 0.00246509 0.00213663)
(0.000633614 0.00234423 0.0019102)
(0.000437509 0.00208752 0.00173321)
(0.000239411 0.00170384 0.0016361)
(6.35886e-05 0.00125338 0.00162943)
(-8.11822e-05 0.000823328 0.00169487)
(-0.000207435 0.000470303 0.00180335)
(-0.000334489 0.000199174 0.00193793)
(-0.000472454 -1.21878e-05 0.00208689)
(-0.000620602 -0.000190715 0.00223602)
(-0.000771285 -0.000357953 0.00236647)
(-0.000915368 -0.00052493 0.00245599)
(-0.00104728 -0.000692071 0.00248504)
(-0.00116676 -0.000857767 0.0024544)
(-0.00127876 -0.00103587 0.00240682)
(-0.00136065 -0.00121897 0.00233025)
(-0.00139745 -0.0013833 0.00218164)
(-0.00138116 -0.00149694 0.0019506)
(-0.0013076 -0.00152248 0.00165557)
(-0.00118002 -0.00142094 0.00133461)
(-0.00101128 -0.0011652 0.00104029)
(-0.000823149 -0.000765639 0.000833922)
(-0.000929996 -0.000411681 0.00101856)
(-0.00078983 9.14009e-05 0.000880285)
(-0.000604668 0.000555212 0.000870119)
(-0.000376985 0.000965033 0.00102069)
(-0.00011972 0.00132776 0.00133823)
(0.000150292 0.00166084 0.00180264)
(0.000414662 0.00198213 0.00237289)
(0.000654127 0.00230316 0.00298958)
(0.000850653 0.0026261 0.00357239)
(0.000993715 0.0029381 0.00401475)