/*--------------------------------*- C++ -*----------------------------------*\
| =========                 |                                                 |
| \\      /  F ield         | OpenFOAM: The Open Source CFD Toolbox           |
|  \\    /   O peration     | Version:  2312                                  |
|   \\  /    A nd           | Website:  www.openfoam.com                      |
|    \\/     M anipulation  |                                                 |
\*---------------------------------------------------------------------------*/
FoamFile
{
    version     2.0;
    format      ascii;
    arch        "LSB;label=32;scalar=64";
    class       volVectorField;
    location    "0.7";
    object      D_0;
}
// * * * * * * * * * * * * * * * * * * * * * * * * * * * * * * * * * * * * * //

dimensions      [0 1 0 0 0 0 0];

internalField   nonuniform List<vector> 
1620
(
(0.00049382 -9.30785e-05 0.000112361)
(0.000424517 -0.000140661 -2.2355e-05)
(0.000349626 -0.000204696 -0.000115407)
(0.000282277 -0.000242925 -0.000160829)
(0.000229821 -0.000249538 -0.000173934)
(0.000195091 -0.00023484 -0.0001676)
(0.000176835 -0.000207975 -0.000149348)
(0.000169577 -0.00017258 -0.000124339)
(0.000164708 -0.000129204 -9.63801e-05)
(0.000152498 -7.79054e-05 -6.75139e-05)
(0.000123934 -1.90369e-05 -3.75038e-05)
(7.1791e-05 4.68422e-05 -3.51616e-06)
(-8.85051e-06 0.000117752 3.98547e-05)
(-0.000119365 0.000186029 9.90584e-05)
(-0.000253471 0.000233199 0.000175501)
(-0.000390655 0.000233776 0.000252649)
(-0.000495041 0.000179237 0.000286751)
(-0.000529684 0.000110533 0.00023459)
(-0.00049382 9.30785e-05 0.000112361)
(-0.000424517 0.000140661 -2.2355e-05)
(-0.000349626 0.000204696 -0.000115407)
(-0.000282277 0.000242925 -0.000160829)
(-0.000229821 0.000249538 -0.000173934)
(-0.000195091 0.00023484 -0.0001676)
(-0.000176835 0.000207975 -0.000149348)
(-0.000169577 0.00017258 -0.000124339)
(-0.000164708 0.000129204 -9.63801e-05)
(-0.000152498 7.79054e-05 -6.75139e-05)
(-0.000123934 1.90369e-05 -3.75038e-05)
(-7.1791e-05 -4.68422e-05 -3.51616e-06)
(8.85051e-06 -0.000117752 3.98547e-05)
(0.000119365 -0.000186029 9.90584e-05)
(0.000253471 -0.000233198 0.000175501)
(0.000390655 -0.000233776 0.000252649)
(0.000495041 -0.000179237 0.000286751)
(0.000529684 -0.000110533 0.00023459)
(0.00040599 -0.000188651 7.48234e-05)
(0.000415556 -0.000215239 1.83987e-05)
(0.000408309 -0.000220458 -2.91074e-05)
(0.000384444 -0.000196967 -6.5647e-05)
(0.00034722 -0.000155674 -9.39052e-05)
(0.000303408 -0.000110019 -0.000113097)
(0.000259617 -6.7352e-05 -0.000121553)
(0.000218694 -2.88795e-05 -0.000119188)
(0.000179093 6.9296e-06 -0.000107201)
(0.00013652 4.1468e-05 -8.69753e-05)
(8.63293e-05 7.4817e-05 -5.95162e-05)
(2.56303e-05 0.000105914 -2.55075e-05)
(-4.54991e-05 0.000133147 1.43032e-05)
(-0.000124007 0.000154373 5.82319e-05)
(-0.0002045 0.000166543 0.000101664)
(-0.00027958 0.00016753 0.000134613)
(-0.000340524 0.000162334 0.000143616)
(-0.00038187 0.000167038 0.000122015)
(-0.00040599 0.000188651 7.48234e-05)
(-0.000415556 0.000215239 1.83987e-05)
(-0.000408309 0.000220458 -2.91074e-05)
(-0.000384444 0.000196967 -6.5647e-05)
(-0.00034722 0.000155674 -9.39052e-05)
(-0.000303408 0.000110019 -0.000113097)
(-0.000259617 6.7352e-05 -0.000121553)
(-0.000218694 2.88795e-05 -0.000119188)
(-0.000179093 -6.9296e-06 -0.000107201)
(-0.00013652 -4.1468e-05 -8.69753e-05)
(-8.63293e-05 -7.4817e-05 -5.95162e-05)
(-2.56303e-05 -0.000105914 -2.55075e-05)
(4.54991e-05 -0.000133147 1.43032e-05)
(0.000124007 -0.000154373 5.82319e-05)
(0.0002045 -0.000166543 0.000101664)
(0.00027958 -0.00016753 0.000134613)
(0.000340524 -0.000162334 0.000143616)
(0.00038187 -0.000167038 0.000122015)
(0.000290011 -0.000239262 3.26098e-05)
(0.000350914 -0.000261585 2.47486e-05)
(0.000399672 -0.00023359 9.58433e-06)
(0.00042428 -0.000169227 -1.84903e-05)
(0.000419107 -9.0803e-05 -5.57111e-05)
(0.000387459 -1.52825e-05 -9.19225e-05)
(0.000337485 4.85001e-05 -0.000117971)
(0.000276962 9.74829e-05 -0.000128976)
(0.000211034 0.000131285 -0.000123713)
(0.000142653 0.000150144 -0.000103289)
(7.41367e-05 0.000154237 -7.069e-05)
(8.59254e-06 0.000144305 -3.1031e-05)
(-4.97807e-05 0.000123287 8.47297e-06)
(-9.70881e-05 9.81485e-05 3.97539e-05)
(-0.000132264 8.04601e-05 5.64857e-05)
(-0.000159215 8.42922e-05 5.73636e-05)
(-0.000187716 0.00011985 4.87048e-05)
(-0.000230769 0.00018133 3.99532e-05)
(-0.000290011 0.000239262 3.26098e-05)
(-0.000350914 0.000261585 2.47486e-05)
(-0.000399672 0.00023359 9.58433e-06)
(-0.00042428 0.000169227 -1.84903e-05)
(-0.000419107 9.08031e-05 -5.57111e-05)
(-0.000387459 1.52825e-05 -9.19225e-05)
(-0.000337485 -4.85001e-05 -0.000117971)
(-0.000276962 -9.74829e-05 -0.000128976)
(-0.000211034 -0.000131285 -0.000123713)
(-0.000142653 -0.000150144 -0.000103289)
(-7.41367e-05 -0.000154237 -7.069e-05)
(-8.59254e-06 -0.000144305 -3.1031e-05)
(4.97807e-05 -0.000123287 8.47297e-06)
(9.70881e-05 -9.81485e-05 3.97539e-05)
(0.000132264 -8.04601e-05 5.64856e-05)
(0.000159215 -8.42922e-05 5.73636e-05)
(0.000187716 -0.00011985 4.87048e-05)
(0.000230769 -0.00018133 3.99532e-05)
(0.00130685 -0.000480012 0.000389304)
(0.00121982 -0.000600023 8.65855e-06)
(0.00108699 -0.000684204 -0.000287396)
(0.000941288 -0.000678336 -0.000473466)
(0.000801752 -0.000604883 -0.000567971)
(0.000681776 -0.000504029 -0.000593022)
(0.000589259 -0.000399418 -0.000568214)
(0.000520998 -0.000296023 -0.000510959)
(0.000462556 -0.000190284 -0.000434646)
(0.0003931 -7.81901e-05 -0.000346339)
(0.000291462 4.19516e-05 -0.00024545)
(0.000141099 0.000170187 -0.000123753)
(-6.68968e-05 0.000304918 3.24221e-05)
(-0.000331645 0.000437398 0.000235281)
(-0.000637292 0.000541463 0.000479582)
(-0.000943875 0.000575316 0.0007163)
(-0.00118797 0.000521704 0.000835207)
(-0.00131165 0.000449455 0.00071651)
(-0.00130685 0.000480012 0.000389304)
(-0.00121982 0.000600023 8.65856e-06)
(-0.00108699 0.000684204 -0.000287396)
(-0.000941288 0.000678336 -0.000473466)
(-0.000801752 0.000604883 -0.000567971)
(-0.000681776 0.000504029 -0.000593022)
(-0.000589259 0.000399418 -0.000568214)
(-0.000520998 0.000296023 -0.000510959)
(-0.000462556 0.000190284 -0.000434646)
(-0.0003931 7.81901e-05 -0.000346339)
(-0.000291462 -4.19516e-05 -0.00024545)
(-0.000141099 -0.000170187 -0.000123753)
(6.68967e-05 -0.000304918 3.24221e-05)
(0.000331645 -0.000437398 0.000235281)
(0.000637292 -0.000541463 0.000479582)
(0.000943875 -0.000575316 0.0007163)
(0.00118797 -0.000521704 0.000835207)
(0.00131165 -0.000449455 0.00071651)
(0.0011557 -0.000623986 0.000347491)
(0.00118025 -0.000700805 0.000142978)
(0.00115988 -0.000699494 -4.27939e-05)
(0.00109554 -0.000617976 -0.000196878)
(0.00099518 -0.00049049 -0.000312921)
(0.00087647 -0.000352568 -0.000385567)
(0.000755473 -0.000222795 -0.000414713)
(0.000638298 -0.000105115 -0.000405102)
(0.00052053 2.60173e-06 -0.000362717)
(0.000391523 0.000102203 -0.000291874)
(0.000240273 0.000192966 -0.000194392)
(6.07214e-05 0.000272666 -7.05939e-05)
(-0.000145212 0.000339985 7.83048e-05)
(-0.000367887 0.000395157 0.000246377)
(-0.000592114 0.000437522 0.000416886)
(-0.000798862 0.000465675 0.000554448)
(-0.000968412 0.000488332 0.000604501)
(-0.00108653 0.000537396 0.000524427)
(-0.0011557 0.000623986 0.000347491)
(-0.00118025 0.000700805 0.000142978)
(-0.00115988 0.000699494 -4.27939e-05)
(-0.00109554 0.000617976 -0.000196878)
(-0.00099518 0.00049049 -0.000312921)
(-0.00087647 0.000352568 -0.000385567)
(-0.000755473 0.000222795 -0.000414713)
(-0.000638298 0.000105115 -0.000405102)
(-0.00052053 -2.60172e-06 -0.000362717)
(-0.000391523 -0.000102203 -0.000291874)
(-0.000240273 -0.000192966 -0.000194392)
(-6.07214e-05 -0.000272666 -7.05939e-05)
(0.000145212 -0.000339985 7.83048e-05)
(0.000367887 -0.000395157 0.000246377)
(0.000592114 -0.000437522 0.000416886)
(0.000798862 -0.000465675 0.000554448)
(0.000968412 -0.000488332 0.000604501)
(0.00108653 -0.000537396 0.000524427)
(0.000926942 -0.000717483 0.000284628)
(0.00104797 -0.000774993 0.000222626)
(0.00113716 -0.000720179 0.000136114)
(0.00116405 -0.000584764 1.7924e-05)
(0.00112369 -0.000412847 -0.000109601)
(0.00103072 -0.000237597 -0.000218465)
(0.000903261 -7.65422e-05 -0.000290165)
(0.000753699 6.29616e-05 -0.000316873)
(0.000587556 0.000177679 -0.000297221)
(0.000406385 0.00026491 -0.000233192)
(0.000212018 0.000321505 -0.000129846)
(1.05282e-05 0.000345463 2.89582e-06)
(-0.000186008 0.000339989 0.000148338)
(-0.000362148 0.000318423 0.000283452)
(-0.000506197 0.000306027 0.00038329)
(-0.00061759 0.000333975 0.000428195)
(-0.000709619 0.000424682 0.000412228)
(-0.000806266 0.000574617 0.000353211)
(-0.000926942 0.000717483 0.000284628)
(-0.00104797 0.000774993 0.000222626)
(-0.00113716 0.000720179 0.000136114)
(-0.00116405 0.000584764 1.7924e-05)
(-0.00112369 0.000412847 -0.000109601)
(-0.00103072 0.000237597 -0.000218465)
(-0.000903261 7.65422e-05 -0.000290165)
(-0.000753699 -6.29616e-05 -0.000316873)
(-0.000587556 -0.000177679 -0.000297221)
(-0.000406385 -0.00026491 -0.000233192)
(-0.000212018 -0.000321505 -0.000129846)
(-1.05282e-05 -0.000345463 2.89581e-06)
(0.000186008 -0.000339989 0.000148338)
(0.000362148 -0.000318423 0.000283452)
(0.000506197 -0.000306027 0.00038329)
(0.00061759 -0.000333975 0.000428195)
(0.000709619 -0.000424682 0.000412228)
(0.000806266 -0.000574617 0.000353211)
(0.00199758 -0.00107565 0.000846883)
(0.00190755 -0.0011983 0.000197449)
(0.00172976 -0.00122606 -0.000361031)
(0.00151831 -0.00114179 -0.000753736)
(0.00130566 -0.000983724 -0.000984879)
(0.00111331 -0.000801331 -0.00108488)
(0.000953562 -0.000622635 -0.00108746)
(0.000824548 -0.000452957 -0.001022)
(0.000709154 -0.000286394 -0.000909776)
(0.000580071 -0.000115785 -0.000761087)
(0.000408046 6.2845e-05 -0.000573624)
(0.000170181 0.000250491 -0.000333422)
(-0.000144211 0.000446074 -2.06985e-05)
(-0.000530589 0.00064203 0.000376125)
(-0.00096531 0.000814106 0.000835413)
(-0.00139858 0.000923094 0.00126963)
(-0.00175544 0.000955151 0.00150908)
(-0.0019599 0.000979951 0.00136964)
(-0.00199758 0.00107565 0.000846883)
(-0.00190755 0.0011983 0.000197449)
(-0.00172976 0.00122606 -0.000361031)
(-0.00151831 0.00114179 -0.000753736)
(-0.00130566 0.000983724 -0.000984879)
(-0.00111331 0.000801331 -0.00108488)
(-0.000953562 0.000622635 -0.00108746)
(-0.000824548 0.000452957 -0.001022)
(-0.000709154 0.000286394 -0.000909776)
(-0.000580071 0.000115785 -0.000761087)
(-0.000408046 -6.2845e-05 -0.000573624)
(-0.000170181 -0.000250491 -0.000333422)
(0.000144211 -0.000446074 -2.06985e-05)
(0.000530589 -0.00064203 0.000376125)
(0.00096531 -0.000814106 0.000835413)
(0.00139858 -0.000923094 0.00126963)
(0.00175544 -0.000955151 0.00150908)
(0.0019599 -0.000979951 0.00136964)
(0.00179749 -0.00111393 0.000807226)
(0.00183767 -0.00119916 0.000415399)
(0.00180074 -0.00116916 3.13231e-05)
(0.00169628 -0.00103411 -0.000287687)
(0.00154288 -0.000837273 -0.000521603)
(0.00136525 -0.00062295 -0.000666746)
(0.0011824 -0.000415862 -0.000729669)
(0.00100056 -0.000223672 -0.000721556)
(0.000813433 -4.61475e-05 -0.000652682)
(0.000607151 0.000117698 -0.000528981)
(0.00036741 0.000266593 -0.000351484)
(8.65571e-05 0.000397995 -0.000118908)
(-0.000231928 0.00051113 0.00016657)
(-0.000573257 0.000608358 0.000490842)
(-0.000914294 0.000693146 0.000818314)
(-0.0012274 0.000770365 0.00108519)
(-0.00148692 0.000854892 0.0012055)
(-0.00167762 0.000971867 0.00110612)
(-0.00179749 0.00111393 0.000807226)
(-0.00183767 0.00119916 0.000415399)
(-0.00180074 0.00116916 3.13231e-05)
(-0.00169628 0.00103411 -0.000287687)
(-0.00154288 0.000837273 -0.000521603)
(-0.00136525 0.00062295 -0.000666746)
(-0.0011824 0.000415862 -0.000729669)
(-0.00100056 0.000223672 -0.000721556)
(-0.000813433 4.61475e-05 -0.000652682)
(-0.000607151 -0.000117698 -0.000528981)
(-0.00036741 -0.000266593 -0.000351484)
(-8.65571e-05 -0.000397995 -0.000118908)
(0.000231928 -0.00051113 0.00016657)
(0.000573257 -0.000608358 0.000490842)
(0.000914294 -0.000693146 0.000818314)
(0.0012274 -0.000770365 0.00108519)
(0.00148692 -0.000854892 0.0012055)
(0.00167762 -0.000971867 0.00110612)
(0.00147894 -0.00112608 0.000713455)
(0.00164165 -0.00120391 0.000553028)
(0.00174898 -0.00114391 0.000346871)
(0.00176592 -0.000974205 0.00011374)
(0.00169442 -0.000745085 -0.000109371)
(0.00155596 -0.000498396 -0.000287215)
(0.0013719 -0.000258847 -0.000399024)
(0.00115494 -3.96008e-05 -0.000437123)
(0.000909935 0.000151167 -0.000400635)
(0.000638079 0.000306774 -0.000291656)
(0.000341868 0.000421302 -0.000115616)
(2.96005e-05 0.00049141 0.000114978)
(-0.00028235 0.000520788 0.000375581)
(-0.000571968 0.000526189 0.000627745)
(-0.000819943 0.000540071 0.000825914)
(-0.00101934 0.000601571 0.000933307)
(-0.0011793 0.000733396 0.000935905)
(-0.00132081 0.000931165 0.000845773)
(-0.00147894 0.00112608 0.000713455)
(-0.00164165 0.00120391 0.000553028)
(-0.00174898 0.00114391 0.000346871)
(-0.00176592 0.000974206 0.000113741)
(-0.00169442 0.000745085 -0.000109371)
(-0.00155596 0.000498396 -0.000287215)
(-0.0013719 0.000258847 -0.000399024)
(-0.00115494 3.96008e-05 -0.000437123)
(-0.000909935 -0.000151167 -0.000400635)
(-0.000638079 -0.000306774 -0.000291656)
(-0.000341868 -0.000421302 -0.000115616)
(-2.96005e-05 -0.00049141 0.000114978)
(0.00028235 -0.000520788 0.000375581)
(0.000571968 -0.000526189 0.000627745)
(0.000819943 -0.000540071 0.000825914)
(0.00101934 -0.000601571 0.000933307)
(0.0011793 -0.000733396 0.000935905)
(0.00132081 -0.000931165 0.000845773)
(0.00251265 -0.00178119 0.00136971)
(0.00242481 -0.00184876 0.000524342)
(0.00221843 -0.00179921 -0.000273433)
(0.00196007 -0.00164341 -0.000883311)
(0.00169794 -0.00141958 -0.00127429)
(0.00145735 -0.00117234 -0.00147751)
(0.00124827 -0.00092876 -0.00153781)
(0.00106736 -0.000695529 -0.00149271)
(0.000897055 -0.000467579 -0.00136724)
(0.000709041 -0.000237245 -0.00117217)
(0.000472237 4.84322e-07 -0.000903315)
(0.000162337 0.000247201 -0.00054422)
(-0.000230804 0.000502081 -7.55512e-05)
(-0.000699397 0.000759572 0.000504948)
(-0.00121478 0.00100405 0.0011522)
(-0.00172402 0.00121614 0.00174604)
(-0.00215363 0.00140297 0.00209219)
(-0.00242678 0.00160715 0.0019837)
(-0.00251265 0.00178119 0.00136971)
(-0.00242481 0.00184876 0.000524342)
(-0.00221843 0.00179921 -0.000273433)
(-0.00196007 0.00164341 -0.000883311)
(-0.00169794 0.00141958 -0.00127429)
(-0.00145735 0.00117234 -0.00147751)
(-0.00124827 0.00092876 -0.00153781)
(-0.00106736 0.000695529 -0.00149271)
(-0.000897055 0.000467579 -0.00136724)
(-0.000709041 0.000237245 -0.00117217)
(-0.000472237 -4.84309e-07 -0.000903315)
(-0.000162337 -0.000247201 -0.00054422)
(0.000230804 -0.00050208 -7.55512e-05)
(0.000699397 -0.000759572 0.000504948)
(0.00121478 -0.00100405 0.0011522)
(0.00172402 -0.00121614 0.00174604)
(0.00215363 -0.00140297 0.00209219)
(0.00242678 -0.00160715 0.0019837)
(0.0022973 -0.0016122 0.00130522)
(0.00233587 -0.0016867 0.000761813)
(0.00227207 -0.00162391 0.00020127)
(0.00213002 -0.00144967 -0.000277898)
(0.00193767 -0.00120767 -0.000633995)
(0.00172099 -0.000940684 -0.000861041)
(0.00149632 -0.000674827 -0.000970345)
(0.0012675 -0.000420815 -0.000977412)
(0.00102702 -0.000181198 -0.000894794)
(0.000760501 4.34397e-05 -0.00072892)
(0.000453247 0.000251448 -0.000480273)
(9.7303e-05 0.000440558 -0.000147551)
(-0.000303727 0.000610408 0.000263546)
(-0.000733434 0.000764155 0.000727984)
(-0.00116432 0.000908056 0.00119034)
(-0.00156226 0.00105315 0.00156422)
(-0.00189576 0.00121953 0.00175077)
(-0.0021462 0.00142247 0.00167076)
(-0.0022973 0.0016122 0.00130522)
(-0.00233587 0.0016867 0.000761813)
(-0.00227207 0.00162391 0.00020127)
(-0.00213002 0.00144967 -0.000277898)
(-0.00193767 0.00120767 -0.000633995)
(-0.00172099 0.000940684 -0.000861041)
(-0.00149632 0.000674827 -0.000970345)
(-0.0012675 0.000420815 -0.000977412)
(-0.00102702 0.000181198 -0.000894794)
(-0.000760501 -4.34397e-05 -0.00072892)
(-0.000453247 -0.000251448 -0.000480273)
(-9.7303e-05 -0.000440558 -0.000147551)
(0.000303727 -0.000610408 0.000263546)
(0.000733434 -0.000764155 0.000727984)
(0.00116432 -0.000908056 0.00119034)
(0.00156226 -0.00105315 0.00156422)
(0.00189576 -0.00121953 0.00175077)
(0.0021462 -0.00142247 0.00167076)
(0.00198858 -0.00147148 0.00117653)
(0.00213032 -0.00155853 0.000919276)
(0.00220722 -0.00149679 0.000602808)
(0.00219268 -0.00131286 0.00026776)
(0.00208958 -0.00105497 -3.96204e-05)
(0.00191776 -0.000766128 -0.000278719)
(0.00169611 -0.000474136 -0.0004267)
(0.00143482 -0.00019588 -0.000475923)
(0.0011371 5.67061e-05 -0.000426125)
(0.000803752 0.000273943 -0.000279983)
(0.000437687 0.000448398 -4.37574e-05)
(4.73734e-05 0.000576598 0.000267669)
(-0.000351281 0.000662501 0.000623394)
(-0.000735906 0.000722719 0.000972356)
(-0.00108361 0.00078891 0.00125202)
(-0.00137975 0.00089749 0.0014123)
(-0.00162261 0.00106602 0.001438)
(-0.00182154 0.00127631 0.00134974)
(-0.00198858 0.00147148 0.00117653)
(-0.00213032 0.00155853 0.000919276)
(-0.00220722 0.00149679 0.000602808)
(-0.00219268 0.00131286 0.00026776)
(-0.00208958 0.00105497 -3.96204e-05)
(-0.00191776 0.000766128 -0.000278719)
(-0.00169611 0.000474136 -0.0004267)
(-0.00143482 0.00019588 -0.000475923)
(-0.0011371 -5.67061e-05 -0.000426125)
(-0.000803752 -0.000273943 -0.000279983)
(-0.000437687 -0.000448398 -4.37574e-05)
(-4.73734e-05 -0.000576598 0.000267669)
(0.000351281 -0.000662501 0.000623394)
(0.000735906 -0.000722719 0.000972356)
(0.00108361 -0.00078891 0.00125202)
(0.00137975 -0.00089749 0.0014123)
(0.00162261 -0.00106602 0.001438)
(0.00182154 -0.00127631 0.00134974)
(0.00283549 -0.00229602 0.00181973)
(0.00276494 -0.00238127 0.000919946)
(0.00254352 -0.00231777 -3.34387e-05)
(0.00225495 -0.00213948 -0.000820079)
(0.00196353 -0.00188786 -0.00136038)
(0.00169626 -0.00160295 -0.00167332)
(0.00145701 -0.00131171 -0.0018063)
(0.00123824 -0.00102429 -0.00179998)
(0.00102231 -0.000739244 -0.00168022)
(0.000783316 -0.000450961 -0.00145751)
(0.0004933 -0.000154854 -0.00112804)
(0.000130644 0.000151202 -0.000677906)
(-0.000312984 0.0004674 -9.41864e-05)
(-0.000828419 0.00079084 0.000612646)
(-0.00138542 0.00111421 0.00137627)
(-0.00193074 0.00143262 0.00205281)
(-0.00239358 0.00175216 0.00244426)
(-0.0027076 0.00206281 0.0023801)
(-0.00283549 0.00229602 0.00181973)
(-0.00276494 0.00238127 0.000919946)
(-0.00254352 0.00231777 -3.34387e-05)
(-0.00225495 0.00213948 -0.000820079)
(-0.00196353 0.00188786 -0.00136038)
(-0.00169626 0.00160295 -0.00167332)
(-0.00145701 0.00131171 -0.0018063)
(-0.00123824 0.00102429 -0.00179998)
(-0.00102231 0.000739244 -0.00168022)
(-0.000783316 0.000450961 -0.00145751)
(-0.0004933 0.000154854 -0.00112804)
(-0.000130644 -0.000151202 -0.000677906)
(0.000312984 -0.0004674 -9.41864e-05)
(0.000828419 -0.00079084 0.000612646)
(0.00138542 -0.00111421 0.00137627)
(0.00193074 -0.00143262 0.00205281)
(0.00239358 -0.00175216 0.00244426)
(0.0027076 -0.00206281 0.0023801)
(0.0026212 -0.00198863 0.00168316)
(0.00264945 -0.00206913 0.00110128)
(0.00256164 -0.00200839 0.000442312)
(0.0023909 -0.00183027 -0.000154968)
(0.00217386 -0.00157554 -0.000615017)
(0.00193547 -0.00128373 -0.000920158)
(0.00168707 -0.000981659 -0.00108043)
(0.00142894 -0.000682997 -0.00111209)
(0.00115274 -0.000393398 -0.00102823)
(0.000845161 -0.000115404 -0.000835822)
(0.000493164 0.000148921 -0.00053659)
(8.95698e-05 0.000397925 -0.000132147)
(-0.000362746 0.00063182 0.000366055)
(-0.000848441 0.00085378 0.000923088)
(-0.00133901 0.00107073 0.00146959)
(-0.00179645 0.00129512 0.00190508)
(-0.00218198 0.00154011 0.00212263)
(-0.00246402 0.00179165 0.00204864)
(-0.0026212 0.00198863 0.00168316)
(-0.00264945 0.00206913 0.00110128)
(-0.00256164 0.00200839 0.000442312)
(-0.0023909 0.00183027 -0.000154968)
(-0.00217386 0.00157554 -0.000615017)
(-0.00193547 0.00128373 -0.000920158)
(-0.00168707 0.000981659 -0.00108043)
(-0.00142894 0.000682997 -0.00111209)
(-0.00115274 0.000393398 -0.00102823)
(-0.000845161 0.000115404 -0.000835822)
(-0.000493164 -0.000148921 -0.00053659)
(-8.95699e-05 -0.000397925 -0.000132147)
(0.000362746 -0.000631819 0.000366055)
(0.000848441 -0.00085378 0.000923088)
(0.00133901 -0.00107073 0.00146959)
(0.00179645 -0.00129512 0.00190508)
(0.00218198 -0.00154011 0.00212263)
(0.00246402 -0.00179165 0.00204864)
(0.0023742 -0.00174382 0.00151697)
(0.0024673 -0.0018119 0.00122182)
(0.00249332 -0.001754 0.000853565)
(0.00244006 -0.00157734 0.000455998)
(0.00230874 -0.00131797 8.85458e-05)
(0.00211388 -0.00101518 -0.000198474)
(0.00186985 -0.000697429 -0.000377162)
(0.0015837 -0.000383509 -0.000438158)
(0.00125691 -8.74392e-05 -0.000381343)
(0.000889791 0.00017958 -0.000210599)
(0.000485039 0.000409763 6.57808e-05)
(4.97434e-05 0.000600123 0.000429823)
(-0.000403327 0.000754345 0.000845549)
(-0.000854767 0.000886028 0.0012541)
(-0.00128073 0.00101997 0.00158443)
(-0.00165921 0.00118229 0.00178039)
(-0.00197419 0.00137962 0.00182209)
(-0.00221394 0.00158404 0.0017237)
(-0.0023742 0.00174382 0.00151697)
(-0.0024673 0.0018119 0.00122182)
(-0.00249332 0.001754 0.000853565)
(-0.00244006 0.00157734 0.000455998)
(-0.00230874 0.00131797 8.85458e-05)
(-0.00211388 0.00101518 -0.000198474)
(-0.00186985 0.000697429 -0.000377162)
(-0.0015837 0.000383509 -0.000438158)
(-0.00125691 8.74392e-05 -0.000381343)
(-0.000889791 -0.00017958 -0.000210599)
(-0.000485039 -0.000409763 6.57808e-05)
(-4.97434e-05 -0.000600123 0.000429823)
(0.000403327 -0.000754345 0.000845549)
(0.000854767 -0.000886028 0.0012541)
(0.00128073 -0.00101997 0.00158443)
(0.00165921 -0.00118229 0.00178039)
(0.00197419 -0.00137962 0.00182209)
(0.00221394 -0.00158404 0.0017237)
(0.0029541 -0.00260463 0.00207609)
(0.00290369 -0.00274035 0.00123475)
(0.00269341 -0.00271886 0.000261572)
(0.00240103 -0.00256986 -0.000610692)
(0.00209976 -0.00233156 -0.00125592)
(0.00182174 -0.00204032 -0.001662)
(0.00156752 -0.00172429 -0.00186508)
(0.00132528 -0.00139877 -0.00190261)
(0.00107725 -0.00106789 -0.00179943)
(0.000801274 -0.000729948 -0.00156668)
(0.000474926 -0.000381898 -0.00120396)
(8.13636e-05 -2.1163e-05 -0.000704274)
(-0.00038543 0.000353895 -6.4791e-05)
(-0.000916108 0.000742307 0.00069169)
(-0.00148062 0.00113998 0.00148719)
(-0.00202665 0.00154376 0.00217627)
(-0.00248947 0.00194769 0.00258104)
(-0.00281156 0.00232139 0.0025603)
(-0.0029541 0.00260463 0.00207609)
(-0.00290369 0.00274035 0.00123475)
(-0.00269341 0.00271886 0.000261572)
(-0.00240103 0.00256986 -0.000610692)
(-0.00209976 0.00233156 -0.00125592)
(-0.00182174 0.00204032 -0.001662)
(-0.00156752 0.00172429 -0.00186508)
(-0.00132528 0.00139877 -0.00190261)
(-0.00107725 0.00106789 -0.00179943)
(-0.000801274 0.000729948 -0.00156668)
(-0.000474926 0.000381898 -0.00120396)
(-8.13637e-05 2.1163e-05 -0.000704274)
(0.00038543 -0.000353895 -6.4791e-05)
(0.000916108 -0.000742307 0.00069169)
(0.00148062 -0.00113998 0.00148719)
(0.00202665 -0.00154376 0.00217627)
(0.00248947 -0.00194769 0.00258104)
(0.00281156 -0.00232139 0.0025603)
(0.00276253 -0.00222894 0.00192413)
(0.00278037 -0.00232706 0.00136184)
(0.00267883 -0.00229416 0.000689769)
(0.00249422 -0.00214351 4.32035e-05)
(0.00226623 -0.00190642 -0.000481136)
(0.00201939 -0.00161686 -0.000845773)
(0.00176123 -0.00130148 -0.00105104)
(0.00148883 -0.00097691 -0.00110955)
(0.00119332 -0.000652177 -0.00103344)
(0.000863158 -0.000332181 -0.000830689)
(0.000487887 -1.97159e-05 -0.000506207)
(6.18664e-05 0.000284064 -6.69407e-05)
(-0.000412585 0.000579809 0.000468757)
(-0.000921768 0.000869689 0.0010587)
(-0.00143722 0.00115759 0.00162816)
(-0.00191769 0.00144946 0.00207733)
(-0.00231934 0.00174516 0.00230878)
(-0.00260772 0.00202041 0.00225961)
(-0.00276253 0.00222894 0.00192413)
(-0.00278037 0.00232706 0.00136184)
(-0.00267883 0.00229416 0.000689769)
(-0.00249422 0.00214351 4.32036e-05)
(-0.00226623 0.00190642 -0.000481136)
(-0.00201939 0.00161686 -0.000845773)
(-0.00176123 0.00130148 -0.00105104)
(-0.00148883 0.00097691 -0.00110955)
(-0.00119332 0.000652177 -0.00103344)
(-0.000863158 0.000332181 -0.000830689)
(-0.000487887 1.97159e-05 -0.000506207)
(-6.18665e-05 -0.000284064 -6.69407e-05)
(0.000412585 -0.000579809 0.000468757)
(0.000921768 -0.000869689 0.0010587)
(0.00143722 -0.00115759 0.00162816)
(0.00191769 -0.00144946 0.00207733)
(0.00231934 -0.00174516 0.00230878)
(0.00260772 -0.00202041 0.00225961)
(0.00257387 -0.00192482 0.00175453)
(0.00263378 -0.0019758 0.0014477)
(0.00261731 -0.00192404 0.00106549)
(0.00252981 -0.0017677 0.000647812)
(0.0023764 -0.00152768 0.000253293)
(0.00216766 -0.00123428 -6.14316e-05)
(0.0019134 -0.000913528 -0.000261433)
(0.00161766 -0.000584682 -0.000333486)
(0.00128052 -0.000262805 -0.00027659)
(0.000901763 4.02761e-05 -9.58797e-05)
(0.000483503 0.000316882 0.000197638)
(3.10523e-05 0.000564321 0.000582365)
(-0.000445969 0.00078511 0.00101838)
(-0.000931007 0.000987827 0.00144391)
(-0.00139958 0.00118675 0.00178804)
(-0.00182256 0.00139371 0.00199713)
(-0.00217118 0.00160403 0.00205194)
(-0.00242346 0.00179194 0.00196315)
(-0.00257387 0.00192482 0.00175453)
(-0.00263378 0.0019758 0.0014477)
(-0.00261731 0.00192404 0.00106549)
(-0.00252981 0.0017677 0.000647812)
(-0.0023764 0.00152768 0.000253293)
(-0.00216766 0.00123428 -6.14316e-05)
(-0.0019134 0.000913528 -0.000261433)
(-0.00161766 0.000584682 -0.000333486)
(-0.00128052 0.000262805 -0.00027659)
(-0.000901763 -4.02761e-05 -9.58797e-05)
(-0.000483503 -0.000316882 0.000197638)
(-3.10523e-05 -0.000564321 0.000582365)
(0.000445969 -0.00078511 0.00101838)
(0.000931007 -0.000987827 0.00144391)
(0.00139958 -0.00118675 0.00178804)
(0.00182256 -0.00139371 0.00199713)
(0.00217118 -0.00160403 0.00205194)
(0.00242346 -0.00179194 0.00196315)
(0.00289062 -0.00274262 0.00215095)
(0.00285468 -0.00293752 0.00141765)
(0.00267092 -0.00298391 0.000521611)
(0.00240014 -0.00289563 -0.000339214)
(0.00210904 -0.00270067 -0.00102432)
(0.00183344 -0.00243055 -0.0014882)
(0.00157562 -0.00211373 -0.00174462)
(0.00132258 -0.00177014 -0.00182108)
(0.00105715 -0.00140981 -0.00173931)
(0.000761181 -0.00103567 -0.00151171)
(0.000418015 -0.000646956 -0.00114307)
(1.57608e-05 -0.000241264 -0.000634973)
(-0.000449123 0.000183486 4.97344e-06)
(-0.000966801 0.000626287 0.000744923)
(-0.00150768 0.0010822 0.00150551)
(-0.00202235 0.0015444 0.00215512)
(-0.00245388 0.00199942 0.00254264)
(-0.00275391 0.0024152 0.00255183)
(-0.00289062 0.00274262 0.00215095)
(-0.00285468 0.00293752 0.00141765)
(-0.00267092 0.00298391 0.000521611)
(-0.00240014 0.00289563 -0.000339213)
(-0.00210904 0.00270067 -0.00102432)
(-0.00183344 0.00243055 -0.0014882)
(-0.00157562 0.00211373 -0.00174462)
(-0.00132258 0.00177014 -0.00182108)
(-0.00105715 0.00140981 -0.00173931)
(-0.000761181 0.00103567 -0.00151171)
(-0.000418015 0.000646956 -0.00114307)
(-1.57608e-05 0.000241264 -0.000634973)
(0.000449123 -0.000183486 4.97342e-06)
(0.000966801 -0.000626287 0.000744922)
(0.00150768 -0.0010822 0.00150551)
(0.00202235 -0.0015444 0.00215512)
(0.00245388 -0.00199942 0.00254264)
(0.00275391 -0.0024152 0.00255183)
(0.00272985 -0.00234421 0.00202566)
(0.00274217 -0.00247094 0.00152236)
(0.00264089 -0.00247963 0.000896737)
(0.00245917 -0.0023745 0.000264498)
(0.00223407 -0.0021757 -0.000275907)
(0.00198965 -0.00190976 -0.000670883)
(0.00173235 -0.00160141 -0.000906619)
(0.00145782 -0.00126926 -0.000988202)
(0.00115732 -0.000925466 -0.00092523)
(0.000821324 -0.000577375 -0.000726687)
(0.000442074 -0.000228857 -0.000401418)
(1.57935e-05 0.000118784 3.76273e-05)
(-0.000454898 0.000465611 0.00056587)
(-0.000956745 0.000811325 0.00113772)
(-0.00146146 0.0011548 0.00168169)
(-0.001928 0.00149432 0.0021095)
(-0.00231379 0.00182233 0.0023381)
(-0.00258675 0.00211701 0.0023129)
(-0.00272985 0.00234421 0.00202566)
(-0.00274217 0.00247094 0.00152236)
(-0.00264089 0.00247963 0.000896737)
(-0.00245917 0.0023745 0.000264498)
(-0.00223407 0.0021757 -0.000275907)
(-0.00198965 0.00190976 -0.000670883)
(-0.00173235 0.00160141 -0.000906619)
(-0.00145782 0.00126926 -0.000988202)
(-0.00115732 0.000925466 -0.00092523)
(-0.000821324 0.000577375 -0.000726687)
(-0.000442074 0.000228857 -0.000401418)
(-1.57936e-05 -0.000118784 3.76273e-05)
(0.000454898 -0.000465611 0.00056587)
(0.000956745 -0.000811325 0.00113772)
(0.00146146 -0.0011548 0.00168169)
(0.001928 -0.00149432 0.0021095)
(0.00231379 -0.00182233 0.0023381)
(0.00258675 -0.00211701 0.0023129)
(0.00259928 -0.00201746 0.00188118)
(0.00263931 -0.00206519 0.00159176)
(0.00259811 -0.0020259 0.00122633)
(0.00248939 -0.00189652 0.000821915)
(0.00232331 -0.00168771 0.000431701)
(0.00210955 -0.0014194 0.000112173)
(0.00185496 -0.00111256 -9.6702e-05)
(0.00156143 -0.000785399 -0.000177021)
(0.00122804 -0.000453233 -0.000125871)
(0.00085423 -0.000128046 5.0934e-05)
(0.000441533 0.000182515 0.000339851)
(-5.98324e-06 0.000475294 0.00071594)
(-0.000480309 0.000750483 0.00113704)
(-0.000965996 0.00101061 0.00154332)
(-0.00143814 0.00125953 0.00187148)
(-0.00186496 0.00149764 0.00207635)
(-0.0022139 0.0017156 0.00214091)
(-0.0024609 0.00189533 0.00207052)
(-0.00259928 0.00201746 0.00188118)
(-0.00263931 0.00206519 0.00159176)
(-0.00259811 0.0020259 0.00122633)
(-0.00248939 0.00189652 0.000821915)
(-0.00232331 0.00168771 0.000431701)
(-0.00210955 0.0014194 0.000112173)
(-0.00185496 0.00111256 -9.6702e-05)
(-0.00156143 0.000785399 -0.000177021)
(-0.00122804 0.000453233 -0.000125871)
(-0.00085423 0.000128046 5.0934e-05)
(-0.000441534 -0.000182515 0.000339851)
(5.98321e-06 -0.000475294 0.00071594)
(0.000480309 -0.000750483 0.00113704)
(0.000965996 -0.00101061 0.00154332)
(0.00143814 -0.00125953 0.00187148)
(0.00186496 -0.00149764 0.00207635)
(0.0022139 -0.0017156 0.00214091)
(0.0024609 -0.00189533 0.00207052)
(0.00268031 -0.00275465 0.00207686)
(0.00265223 -0.00300456 0.0014688)
(0.0024994 -0.00311994 0.000699543)
(0.00226537 -0.0031011 -7.87297e-05)
(0.00200123 -0.00296387 -0.000738914)
(0.00174022 -0.00273324 -0.00121628)
(0.00148839 -0.002436 -0.00150057)
(0.00123536 -0.00209438 -0.00160493)
(0.000966341 -0.00172285 -0.00154552)
(0.000667133 -0.0013285 -0.00133525)
(0.000325988 -0.000913162 -0.000983677)
(-6.48012e-05 -0.000475765 -0.000499962)