/*--------------------------------*- C++ -*----------------------------------*\
| =========                 |                                                 |
| \\      /  F ield         | OpenFOAM: The Open Source CFD Toolbox           |
|  \\    /   O peration     | Version:  2312                                  |
|   \\  /    A nd           | Website:  www.openfoam.com                      |
|    \\/     M anipulation  |                                                 |
\*---------------------------------------------------------------------------*/
FoamFile
{
    version     2.0;
    format      ascii;
    arch        "LSB;label=32;scalar=64";
    class       volVectorField;
    location    "0.7";
    object      D_0_0_0;
}
// * * * * * * * * * * * * * * * * * * * * * * * * * * * * * * * * * * * * * //

dimensions      [0 1 0 0 0 0 0];

internalField   nonuniform List<vector> 
1620
(
(-0.000143573 5.19195e-05 -0.000158561)
(-0.000114138 0.00014565 -0.000142418)
(-7.66375e-05 0.000212273 -0.000112024)
(-3.51439e-05 0.000255936 -7.05562e-05)
(1.04348e-05 0.000286878 -1.70009e-05)
(5.66544e-05 0.000315712 5.06409e-05)
(9.42856e-05 0.000350116 0.000134836)
(0.000110386 0.000390595 0.000234334)
(0.000107744 0.000422849 0.00032218)
(8.76579e-05 0.000437813 0.000314043)
(5.18002e-05 0.000429171 0.000226418)
(3.07475e-05 0.000404511 0.000139994)
(2.99798e-05 0.000378425 6.96561e-05)
(3.91506e-05 0.000353402 1.34184e-05)
(4.99755e-05 0.000324059 -3.19589e-05)
(5.92876e-05 0.000282042 -6.95972e-05)
(6.65182e-05 0.000219137 -0.000102066)
(6.56132e-05 0.000131354 -0.000126024)
(4.86057e-05 2.75975e-05 -0.00012339)
(1.90818e-05 -6.56121e-05 -9.51719e-05)
(-1.07589e-05 -0.000137136 -6.20657e-05)
(-3.55143e-05 -0.000187743 -2.78628e-05)
(-5.70885e-05 -0.000223085 9.72751e-06)
(-7.72937e-05 -0.00025164 5.49323e-05)
(-9.37065e-05 -0.000282328 0.000114913)
(-9.86017e-05 -0.000319338 0.000196863)
(-9.74554e-05 -0.000350727 0.000283221)
(-8.5936e-05 -0.000367174 0.000286986)
(-6.19579e-05 -0.000361316 0.000217418)
(-5.39029e-05 -0.000340896 0.000143165)
(-6.67876e-05 -0.000318245 7.8001e-05)
(-9.05298e-05 -0.000294972 2.20916e-05)
(-0.000115383 -0.000265156 -2.59967e-05)
(-0.000136245 -0.000219842 -6.87569e-05)
(-0.000151733 -0.000150806 -0.000109321)
(-0.000156555 -5.56636e-05 -0.000145578)
(8.67384e-06 2.16033e-05 -8.9163e-05)
(2.05212e-05 0.000113802 -6.04747e-05)
(2.72008e-05 0.000174631 -3.31152e-05)
(3.25266e-05 0.000209881 -1.56655e-06)
(3.98096e-05 0.000224602 3.48904e-05)
(4.94943e-05 0.000226423 7.38508e-05)
(6.02513e-05 0.000222289 0.000111845)
(7.13039e-05 0.000217771 0.000144582)
(8.59452e-05 0.000219119 0.000165626)
(9.31016e-05 0.000231384 0.000163956)
(9.25743e-05 0.000251845 0.000143275)
(8.38696e-05 0.000273507 0.000113989)
(7.24251e-05 0.000292647 8.19898e-05)
(5.75147e-05 0.000305092 5.04571e-05)
(3.73103e-05 0.000304495 2.18163e-05)
(1.1457e-05 0.000283265 -2.67881e-06)
(-1.73405e-05 0.000235708 -2.47145e-05)
(-4.53528e-05 0.000152951 -4.90927e-05)
(-6.34888e-05 4.84639e-05 -4.38656e-05)
(-6.91916e-05 -4.0508e-05 -1.22251e-05)
(-6.83873e-05 -0.000101396 1.14297e-05)
(-6.41726e-05 -0.000139071 3.38598e-05)
(-6.00927e-05 -0.000157232 5.75731e-05)
(-5.8117e-05 -0.00016216 8.24662e-05)
(-5.93834e-05 -0.000159703 0.000108145)
(-6.55009e-05 -0.000154734 0.000133464)
(-8.08381e-05 -0.000153703 0.00015274)
(-9.41226e-05 -0.000162402 0.000151988)
(-0.00010257 -0.000180918 0.000133356)
(-0.000105763 -0.00020371 0.000105438)
(-0.000106867 -0.000226187 7.29489e-05)
(-0.000103388 -0.000242689 3.90481e-05)
(-9.18685e-05 -0.000245126 6.38314e-06)
(-7.09639e-05 -0.000224434 -2.36954e-05)
(-4.3363e-05 -0.000174334 -5.2929e-05)
(-1.3768e-05 -8.73594e-05 -8.63519e-05)
(0.000120484 -1.49241e-05 -3.60921e-06)
(0.000112612 7.23313e-05 1.36506e-05)
(8.60174e-05 0.00012756 3.19774e-05)
(5.51502e-05 0.000150557 5.05233e-05)
(2.80584e-05 0.00014713 6.82567e-05)
(9.68419e-06 0.000126335 8.08704e-05)
(4.6083e-06 9.822e-05 8.18715e-05)
(1.83479e-05 7.33297e-05 6.65652e-05)
(5.76544e-05 6.24921e-05 4.2396e-05)
(0.000111718 7.09235e-05 4.23156e-05)
(0.00014632 0.000101017 6.85025e-05)
(0.000155186 0.000147469 8.16808e-05)
(0.000142179 0.000198697 7.93897e-05)
(0.000111287 0.000243754 6.88121e-05)
(6.55422e-05 0.000272187 5.68131e-05)
(8.41377e-06 0.000273667 4.77991e-05)
(-5.28082e-05 0.000239825 4.28171e-05)
(-0.000101665 0.000167467 4.07422e-05)
(-0.000119574 7.66928e-05 4.69541e-05)
(-0.000105941 -3.43403e-06 5.83537e-05)
(-7.73295e-05 -5.33827e-05 6.74142e-05)
(-4.75281e-05 -7.4469e-05 7.62721e-05)
(-2.28786e-05 -7.30393e-05 8.57535e-05)
(-6.59737e-06 -5.69346e-05 9.25887e-05)
(-2.60649e-06 -3.34782e-05 9.0422e-05)
(-1.71275e-05 -1.05635e-05 7.33619e-05)
(-5.72108e-05 1.34121e-06 4.66876e-05)
(-0.000112043 -5.28549e-06 4.1744e-05)
(-0.000149404 -3.51265e-05 6.21889e-05)
(-0.000165536 -8.32673e-05 7.01303e-05)
(-0.000160672 -0.00013867 6.31491e-05)
(-0.000135375 -0.000189275 4.77571e-05)
(-9.07984e-05 -0.000222461 3.01003e-05)
(-3.0359e-05 -0.000225942 1.40263e-05)
(3.73768e-05 -0.000190511 6.63059e-07)
(9.44939e-05 -0.000113461 -8.72421e-06)
(-0.000269243 0.000136487 -0.000431997)
(-0.000215752 0.000425989 -0.000390993)
(-0.000158357 0.000628964 -0.000300877)
(-9.32863e-05 0.000750322 -0.000175628)
(-1.52461e-05 0.000815985 -1.62605e-05)
(7.1815e-05 0.000855062 0.000180074)
(0.000153999 0.000891624 0.000413704)
(0.000214017 0.000937493 0.000668112)
(0.000255329 0.000981988 0.000873391)
(0.0002754 0.00101404 0.000886243)
(0.000248387 0.00102595 0.000710297)
(0.000220301 0.00102337 0.000490509)
(0.000207583 0.00101506 0.00028798)
(0.000201818 0.000994544 0.00011656)
(0.000192262 0.000944233 -2.54147e-05)
(0.000173747 0.000841138 -0.000144357)
(0.000146239 0.000662301 -0.000243839)
(0.000107117 0.000399122 -0.000310073)
(5.94387e-05 9.07146e-05 -0.000305394)
(1.08633e-05 -0.00018839 -0.000231593)
(-3.18217e-05 -0.000391263 -0.000134117)
(-6.70318e-05 -0.000519912 -3.05289e-05)
(-0.000100047 -0.000594649 8.18646e-05)
(-0.000134282 -0.000640452 0.00021447)
(-0.000168101 -0.000680697 0.000381768)
(-0.000196385 -0.000729705 0.000586611)
(-0.000231402 -0.000778479 0.000777934)
(-0.000266671 -0.000814918 0.000816367)
(-0.000271038 -0.000832109 0.000681873)
(-0.000281988 -0.000838046 0.000492517)
(-0.000311275 -0.000839317 0.000303084)
(-0.000346403 -0.000826353 0.000130097)
(-0.000370668 -0.000777894 -2.37171e-05)
(-0.000373904 -0.000667872 -0.000162138)
(-0.000355711 -0.000472898 -0.000289246)
(-0.000318184 -0.000188381 -0.000393176)
(-2.53873e-05 5.07255e-05 -0.000274341)
(6.83954e-06 0.000318483 -0.000207671)
(2.28822e-05 0.000500853 -0.000115292)
(3.63028e-05 0.000606469 -3.49485e-06)
(5.73384e-05 0.000652273 0.000124739)
(8.8968e-05 0.000661571 0.000263547)
(0.000129262 0.000656479 0.000403028)
(0.000176204 0.000654028 0.000527139)
(0.000231843 0.000665599 0.00060968)
(0.000278231 0.000698727 0.000618471)
(0.000298279 0.00075102 0.000553902)
(0.000291189 0.000809713 0.000448279)
(0.000266271 0.000863675 0.000328731)
(0.000224556 0.000898537 0.000210831)
(0.000164769 0.000894475 0.000103068)
(8.87019e-05 0.00082904 9.04073e-06)
(4.92898e-06 0.000683886 -7.09316e-05)
(-7.3569e-05 0.000444491 -0.000131559)
(-0.000125172 0.00015451 -0.000119857)
(-0.000143875 -0.000102439 -4.28185e-05)
(-0.000143186 -0.000280631 3.98195e-05)
(-0.000134508 -0.000388411 0.000123331)
(-0.000127773 -0.000440821 0.000209673)
(-0.000128963 -0.000458102 0.000300232)
(-0.000142133 -0.000459216 0.000394524)
(-0.000171889 -0.000458944 0.000486542)
(-0.000224201 -0.000468053 0.000556168)
(-0.000281897 -0.00049603 0.000568624)
(-0.000325052 -0.000546321 0.000514576)
(-0.0003504 -0.00060985 0.000417199)
(-0.00036095 -0.000674187 0.000298641)
(-0.000351657 -0.000721181 0.000173566)
(-0.000315859 -0.000725959 5.11789e-05)
(-0.00025242 -0.000661577 -6.39407e-05)
(-0.000170638 -0.000508012 -0.000170333)
(-8.71187e-05 -0.000254164 -0.000260677)
(0.000182909 -4.31741e-05 -9.38246e-05)
(0.000193997 0.000195702 -2.93881e-05)
(0.000168803 0.000360956 5.78365e-05)
(0.00013087 0.0004502 0.000153043)
(9.64909e-05 0.0004763 0.000247336)
(7.72966e-05 0.000459946 0.000327755)
(8.317e-05 0.000424663 0.000376842)
(0.000122903 0.000394192 0.00038184)
(0.000205611 0.000389928 0.000358744)
(0.000301283 0.000423115 0.000365767)
(0.000365558 0.00049557 0.000393862)
(0.000381975 0.000595624 0.000390725)
(0.000350888 0.000701003 0.000350133)
(0.000278431 0.000787309 0.000285862)
(0.0001719 0.000829105 0.000214749)
(4.17178e-05 0.00080151 0.000149466)
(-9.39021e-05 0.000685761 9.7785e-05)
(-0.000203843 0.000478985 6.94345e-05)
(-0.000257813 0.000226634 8.57706e-05)
(-0.000252855 5.28259e-07 0.000137951)
(-0.000213355 -0.000155384 0.000198589)
(-0.000164163 -0.000240507 0.000259625)
(-0.000120841 -0.000268688 0.000318037)
(-9.38682e-05 -0.000258568 0.000365623)
(-9.33253e-05 -0.000228909 0.000388102)
(-0.000129733 -0.000199026 0.000373763)
(-0.000212937 -0.000190166 0.0003384)
(-0.000311812 -0.000218332 0.00033521)
(-0.000387589 -0.000289858 0.00035162)
(-0.000426093 -0.000395224 0.000337582)
(-0.000420446 -0.0005127 0.000286067)
(-0.000369116 -0.000614588 0.000208204)
(-0.00027477 -0.000669648 0.000118458)
(-0.000147217 -0.000647817 2.87639e-05)
(-6.62517e-06 -0.000528503 -5.07308e-05)
(0.000114216 -0.000310884 -0.000102702)
(-0.000378296 0.000166578 -0.000623402)
(-0.000301291 0.000608968 -0.000572088)
(-0.000222841 0.000928263 -0.000431646)
(-0.000132278 0.00112694 -0.000221683)
(-2.30085e-05 0.00123808 5.29656e-05)
(9.85203e-05 0.00130043 0.000390168)
(0.000216034 0.00134691 0.000778883)
(0.000312216 0.00139735 0.00118074)
(0.000387546 0.00145243 0.00150126)
(0.00043747 0.00150787 0.00157377)
(0.000431446 0.00155273 0.00135531)
(0.00039878 0.0015824 0.00101851)
(0.000369991 0.00159532 0.000674492)
(0.000344776 0.00157655 0.000366424)
(0.000313565 0.00150163 0.000106514)
(0.000267878 0.00134007 -0.000106619)
(0.000205977 0.0010623 -0.000273572)
(0.00013026 0.0006605 -0.000374754)
(5.31917e-05 0.000195224 -0.000370801)
(-1.36418e-05 -0.000229459 -0.000266108)
(-6.8252e-05 -0.000542897 -0.000113254)
(-0.000114762 -0.000744961 6.02382e-05)
(-0.000160125 -0.000864306 0.000253951)
(-0.000207129 -0.000935735 0.00048038)
(-0.000254764 -0.000990336 0.000752023)
(-0.000301877 -0.00104848 0.00105991)
(-0.000360568 -0.0011116 0.00133885)
(-0.000427218 -0.00117407 0.00143661)
(-0.000469719 -0.0012264 0.0012784)
(-0.000497812 -0.00126739 0.000991157)
(-0.000535062 -0.00129505 0.000670539)
(-0.000573472 -0.00128969 0.000360417)
(-0.000594024 -0.0012207 7.87793e-05)
(-0.000580797 -0.00105268 -0.000171018)
(-0.000532214 -0.000754912 -0.000388747)
(-0.000458475 -0.000324262 -0.000555476)
(-0.000107045 5.03127e-05 -0.00041272)
(-4.67969e-05 0.00045175 -0.000320362)
(-7.19703e-06 0.000733712 -0.000164168)
(3.01988e-05 0.00090589 3.53205e-05)
(7.81801e-05 0.000991108 0.000268467)
(0.000139728 0.00102165 0.000522997)
(0.000211465 0.00102908 0.000779391)
(0.000289065 0.00103812 0.00100734)
(0.00037143 0.00106474 0.0011634)
(0.000441551 0.00111829 0.00119804)
(0.000479929 0.00119861 0.00110135)
(0.000476482 0.00129001 0.000920312)
(0.00044185 0.00137197 0.000703799)
(0.000380107 0.00142091 0.000484115)
(0.000291833 0.00140752 0.000280491)
(0.000180299 0.00130025 0.000103322)
(5.7318e-05 0.00107458 -4.04723e-05)
(-5.87733e-05 0.000715535 -0.000131626)
(-0.00014183 0.000288556 -0.000115734)
(-0.000182933 -9.55962e-05 -4.63246e-06)
(-0.00019617 -0.000369808 0.000135707)
(-0.000198079 -0.000542433 0.000285618)
(-0.000202332 -0.000634646 0.000442622)
(-0.000216967 -0.00067529 0.000607022)
(-0.000246995 -0.00069202 0.000775822)
(-0.000297008 -0.00070643 0.00093635)
(-0.000371564 -0.000732831 0.0010584)
(-0.000456468 -0.000781466 0.00109286)
(-0.000529371 -0.00085928 0.00101374)
(-0.000574583 -0.000957543 0.000849179)
(-0.000594001 -0.00105484 0.000636452)
(-0.000582585 -0.00112236 0.000404351)
(-0.0005325 -0.00112331 0.000172844)
(-0.000442114 -0.00101894 -4.50843e-05)
(-0.00032429 -0.000781628 -0.000238694)
(-0.000202787 -0.0004007 -0.000383627)
(0.000148705 -7.47633e-05 -0.000177588)
(0.000189716 0.000277807 -6.90986e-05)
(0.000188889 0.000528995 9.37442e-05)
(0.000171615 0.000675765 0.000279995)
(0.000157038 0.000735001 0.000469283)
(0.000159204 0.000734784 0.000639341)
(0.00018847 0.000707569 0.000763923)
(0.000251779 0.000685169 0.000822314)
(0.000351759 0.000694925 0.000823963)
(0.000463976 0.000753341 0.000832923)
(0.000544957 0.000860105 0.000843942)
(0.000568568 0.000999427 0.000808056)
(0.000529856 0.00114264 0.000716734)
(0.000433481 0.00125605 0.000586757)
(0.000289173 0.00130304 0.000442395)
(0.000112942 0.00124829 0.00030562)
(-6.94853e-05 0.00106735 0.000195805)
(-0.000220845 0.000760182 0.000138008)
(-0.000307649 0.000390178 0.000162552)
(-0.000325357 5.5814e-05 0.000255246)
(-0.000298924 -0.000184235 0.000374616)
(-0.00025701 -0.000326825 0.000498818)
(-0.000220427 -0.000389302 0.000617483)
(-0.000204109 -0.000397216 0.000718183)
(-0.00021972 -0.000377527 0.000783034)
(-0.000275889 -0.000356659 0.000796544)
(-0.000376025 -0.00036085 0.000769174)
(-0.000495942 -0.000411904 0.000759784)
(-0.000596721 -0.00051587 0.000755008)
(-0.000653481 -0.000661815 0.000704753)
(-0.000653537 -0.000822231 0.000596657)
(-0.000591523 -0.000958902 0.000442134)
(-0.000470207 -0.0010264 0.000261748)
(-0.000303718 -0.000980743 7.7929e-05)
(-0.000119495 -0.000793885 -8.36832e-05)
(4.33598e-05 -0.000468613 -0.000184959)
(-0.000485467 0.000129947 -0.000646037)
(-0.000384527 0.000666788 -0.000608244)
(-0.000281046 0.00107217 -0.000446482)
(-0.000163528 0.00134175 -0.000178085)
(-2.68697e-05 0.00150659 0.000186963)
(0.000121618 0.00160671 0.000636786)
(0.000266876 0.00167832 0.00114605)
(0.000393447 0.00174714 0.00166031)
(0.000497002 0.00182532 0.0020773)
(0.000577651 0.00191433 0.00222548)
(0.000609469 0.00199709 0.00201905)
(0.000575577 0.00205905 0.00162011)
(0.000526659 0.00209139 0.00117287)
(0.000474348 0.00207028 0.0007502)
(0.000415709 0.00196789 0.00038593)
(0.000342642 0.00175369 9.17259e-05)
(0.000252116 0.00140184 -0.000126327)
(0.000148916 0.000913173 -0.000249833)
(4.78633e-05 0.000357842 -0.000253378)
(-3.77087e-05 -0.000154368 -0.000144872)
(-0.000106842 -0.000546233 3.24882e-05)
(-0.000167086 -0.000811527 0.000249632)
(-0.000226301 -0.000978483 0.000501541)
(-0.000287032 -0.00108438 0.000795895)
(-0.00034904 -0.00116352 0.00113806)
(-0.000413219 -0.00124107 0.00151057)
(-0.000487364 -0.00132954 0.00184809)
(-0.000578012 -0.00142952 0.002004)
(-0.000666287 -0.00152468 0.00186879)
(-0.000709506 -0.00160153 0.00153587)
(-0.000745014 -0.00165322 0.00112321)
(-0.000773437 -0.00165109 0.000701034)
(-0.000781327 -0.00156005 0.000307795)
(-0.000752638 -0.00134386 -3.90392e-05)
(-0.000684199 -0.0009746 -0.000330303)
(-0.000588508 -0.000456494 -0.000545421)
(-0.000233481 1.0895e-05 -0.000414238)
(-0.000141309 0.000494567 -0.000318915)
(-6.73231e-05 0.000849483 -0.000124576)
(6.22614e-06 0.00108132 0.000140086)
(9.0572e-05 0.00121435 0.000458097)
(0.000186995 0.00128326 0.000809326)
(0.000290516 0.0013228 0.00116448)
(0.000394941 0.00136085 0.00148197)
(0.000497269 0.00141581 0.00170757)
(0.000586014 0.00149531 0.00177959)
(0.00064149 0.00159974 0.00167827)
(0.000641193 0.0017143 0.00145259)
(0.000598038 0.00181076 0.00116393)
(0.000520973 0.00186016 0.000860098)
(0.00041378 0.0018292 0.000573709)
(0.000280903 0.0016838 0.000325664)
(0.00013449 0.00139906 0.000132284)
(-6.32605e-06 0.000966968 2.18138e-05)
(-0.000116517 0.000462019 3.53796e-05)
(-0.000185366 1.21252e-06 0.000156928)
(-0.000223995 -0.000342029 0.00032892)
(-0.00025002 -0.000571003 0.000523143)
(-0.000277805 -0.000708251 0.000731634)
(-0.000315298 -0.000785536 0.000951254)
(-0.000366479 -0.000834183 0.00117509)
(-0.000434314 -0.000879048 0.00138545)
(-0.000522459 -0.000936597 0.00154769)
(-0.000625057 -0.00101341 0.00160644)
(-0.000721118 -0.00111629 0.00152494)
(-0.000780855 -0.00123964 0.00132327)
(-0.000805476 -0.00135486 0.00104303)
(-0.000792537 -0.00142736 0.000724111)
(-0.000735859 -0.00141536 0.0003984)
(-0.000633825 -0.00127627 9.05039e-05)
(-0.000499092 -0.00098071 -0.000176249)
(-0.000356156 -0.00052398 -0.000364312)
(2.41877e-05 -0.000116597 -0.000162737)
(0.000101364 0.000306961 -2.88747e-05)
(0.000140921 0.000617987 0.000188019)
(0.000166227 0.000813399 0.000446454)
(0.000194024 0.000912972 0.000716373)
(0.00023537 0.000947954 0.000967831)
(0.000296746 0.000953496 0.001168)
(0.000381195 0.000962129 0.00128895)
(0.000486844 0.000999682 0.00132924)
(0.000605883 0.00108382 0.00134128)
(0.000692187 0.00121271 0.0013355)
(0.000719131 0.00137057 0.00127363)
(0.000678997 0.00152743 0.00114203)
(0.000574767 0.00164657 0.000958219)
(0.000416271 0.00168656 0.000752047)
(0.000220964 0.00160715 0.000554661)
(1.64116e-05 0.00138144 0.000397567)
(-0.000160286 0.0010131 0.000317196)
(-0.000276054 0.000573939 0.000344191)
(-0.000325115 0.00017242 0.000460214)
(-0.00033028 -0.000127059 0.000618298)
(-0.000319268 -0.000319182 0.0007879)
(-0.000312968 -0.000422697 0.000952403)
(-0.000325665 -0.00046617 0.0010963)
(-0.000366184 -0.000479868 0.00120031)
(-0.000439144 -0.000491073 0.00124622)
(-0.000542719 -0.000523479 0.0012353)
(-0.00067367 -0.00059935 0.00121505)
(-0.000785541 -0.000724348 0.00118867)
(-0.000852924 -0.000889066 0.00111155)
(-0.000861214 -0.00106518 0.000960035)
(-0.000802307 -0.00121134 0.000742729)
(-0.000677223 -0.00127615 0.000484129)
(-0.000499862 -0.00120857 0.000217033)
(-0.000298451 -0.000976307 -1.66482e-05)
(-0.000111792 -0.000585337 -0.000161444)
(-0.000594458 3.59246e-05 -0.000472946)
(-0.000474907 0.00061393 -0.000468801)
(-0.000346285 0.00107262 -0.000318777)
(-0.000200574 0.00140011 -3.08703e-05)
(-3.60726e-05 0.00162116 0.000382417)
(0.000139526 0.00177239 0.000900316)
(0.000312617 0.00188905 0.00148607)
(0.000468482 0.00199849 0.00207558)
(0.000598567 0.00211829 0.0025644)
(0.000707359 0.00225185 0.00279179)
(0.000772902 0.00237456 0.00264814)
(0.000738605 0.00246148 0.00224203)
(0.000670598 0.00250495 0.00174016)
(0.000589353 0.00247569 0.0012432)
(0.000500858 0.00234545 0.000807165)
(0.000402023 0.00208892 0.000458459)
(0.000290538 0.00169077 0.000209189)
(0.000170592 0.00116414 7.0788e-05)
(5.4178e-05 0.00057878 5.065e-05)
(-4.78832e-05 3.26873e-05 0.000138362)
(-0.000135235 -0.000403109 0.000306152)
(-0.000215323 -0.000716529 0.000531038)
(-0.000295034 -0.000930319 0.000805452)
(-0.000376274 -0.0010792 0.00113083)
(-0.000458351 -0.00119733 0.00150496)
(-0.000541533 -0.0013121 0.0019053)
(-0.000630106 -0.00144196 0.00226977)
(-0.000736647 -0.00159037 0.0024745)
(-0.00085149 -0.00173296 0.00240272)
(-0.000906425 -0.0018417 0.00207546)
(-0.000934912 -0.00190945 0.00162066)
(-0.000945452 -0.00190481 0.00113129)
(-0.000934387 -0.00179285 0.000664656)
(-0.000891511 -0.00154234 0.000252843)
(-0.000813341 -0.00113443 -8.67509e-05)
(-0.000709337 -0.000582893 -0.00033693)
(-0.000391353 -6.37556e-05 -0.000244378)
(-0.000269597 0.00045687 -0.000168043)
(-0.000157854 0.000857886 3.05406e-05)
(-4.23834e-05 0.00113851 0.000323579)
(8.40123e-05 0.00132207 0.000690035)
(0.000219686 0.00144161 0.00110379)
(0.000357511 0.00153022 0.00152801)
(0.000489408 0.0016144 0.00191291)
(0.000610948 0.0017112 0.0021972)
(0.000715775 0.00182456 0.00231472)
(0.000782954 0.00195324 0.00223712)
(0.000784744 0.00208336 0.00200198)
(0.000734949 0.00218299 0.00167587)
(0.000646945 0.00222241 0.00131986)
(0.000528104 0.00216941 0.000979619)
(0.000384358 0.00199293 0.000686544)
(0.00022652 0.00167197 0.000464612)
(7.13576e-05 0.00120849 0.000342841)
(-5.98346e-05 0.000675957 0.000345414)
(-0.000156518 0.000182647 0.00045408)
(-0.000226805 -0.000201827 0.00062498)
(-0.000286386 -0.000474658 0.000830465)
(-0.000347689 -0.000657018 0.00105965)
(-0.000416597 -0.000779754 0.00130591)
(-0.000494524 -0.000873757 0.00155847)
(-0.000581889 -0.000963489 0.00179599)
(-0.000681311 -0.00106427 0.00198226)
(-0.000793523 -0.00117842 0.00206532)
(-0.000900592 -0.00130882 0.00200351)
(-0.000969055 -0.00144981 0.00179775)
(-0.000996125 -0.00157097 0.00148667)
(-0.000981896 -0.00163692 0.00111755)
(-0.000923479 -0.00160714 0.000732298)
(-0.000820506 -0.00144182 0.000365799)
(-0.000683244 -0.00111447 5.13266e-05)
(-0.000532299 -0.000628161 -0.000168176)
(-0.000165302 -0.000171524 -2.09601e-06)
(-5.05429e-05 0.000285655 0.00013312)
(3.5862e-05 0.000633401 0.000370899)
(0.000113878 0.000867831 0.000666834)
(0.000195455 0.00101067 0.000986632)
(0.000285722 0.0010931 0.00129619)
(0.000385306 0.0011477 0.00155809)
(0.000493171 0.00120239 0.00173742)
(0.000605933 0.00127756 0.00181958)
(0.000727921 0.00138858 0.00183893)
(0.000814511 0.00153529 0.00182687)
(0.00084302 0.00170173 0.00175548)
(0.000805741 0.00185751 0.00160325)
(0.000704848 0.00196779 0.00138836)
(0.000548936 0.00199296 0.00114517)
(0.000353511 0.00189354 0.000911933)
(0.000143549 0.00164295 0.000728227)
(-4.71848e-05 0.00124794 0.00063439)
(-0.000187877 0.000780439 0.000656205)
(-0.000271462 0.000346645 0.000773133)
(-0.000317324 1.08343e-05 0.000939704)
(-0.000350411 -0.000220239 0.00112449)
(-0.000388528 -0.000366048 0.00130893)
(-0.000441763 -0.000455337 0.0014763)
(-0.000513937 -0.000517147 0.00160675)
(-0.000605564 -0.00057503 0.00167966)
(-0.000713287 -0.000646255 0.0016857)
(-0.000845623 -0.000748078 0.00165332)
(-0.000959266 -0.00088973 0.00161336)
(-0.00103255 -0.00106254 0.0015265)
(-0.0010507 -0.00123789 0.00135404)
(-0.00100405 -0.00137633 0.00110159)
(-0.000891074 -0.00142829 0.000795552)
(-0.000722403 -0.00134312 0.000475444)
(-0.000522376 -0.00108762 0.000193888)
(-0.000325707 -0.000669738 1.60081e-05)
(-0.000705215 -9.91565e-05 -0.000117611)
(-0.000574933 0.000478343 -0.000159114)
(-0.000424806 0.000960306 -4.82353e-05)
(-0.00025081 0.00132981 0.000220284)
(-5.59882e-05 0.00160446 0.000636115)
(0.000150225 0.00181527 0.0011738)
(0.000354399 0.00199359 0.00179012)
(0.000541839 0.00216435 0.00241729)
(0.000700816 0.00234377 0.00295409)
(0.000830962 0.00253155 0.00326148)
(0.000909404 0.00269518 0.00321463)
(0.000879322 0.00280085 0.00284646)
(0.000797594 0.00284697 0.0023378)
(0.000690973 0.00280559 0.00181224)
(0.000574993 0.002651 0.00134328)
(0.000454463 0.00236622 0.000969305)
(0.00032973 0.0019487 0.00070566)
(0.000202847 0.00142266 0.000555018)
(7.93921e-05 0.000851081 0.000510291)
(-3.62529e-05 0.000311916 0.000560128)
(-0.000145341 -0.000136945 0.000690932)
(-0.000252881 -0.000480834 0.000889721)
(-0.00036233 -0.000736086 0.00114998)
(-0.000473209 -0.000932432 0.00146877)
(-0.000582748 -0.00110128 0.00183825)
(-0.000688944 -0.00126907 0.00223399)
(-0.000793025 -0.00145405 0.0026017)
(-0.000903177 -0.00165826 0.00284746)
(-0.00101488 -0.0018513 0.00285467)
(-0.00108114 -0.00199227 0.00257559)
(-0.00110101 -0.00206961 0.0021294)
(-0.00109227 -0.0020595 0.00162327)
(-0.00106126 -0.00193188 0.00112846)
(-0.00100606 -0.0016638 0.000688645)
(-0.000924632 -0.00124729 0.000326271)
(-0.00082184 -0.000703805 5.30766e-05)
(-0.000565428 -0.000163855 9.37346e-05)
(-0.000420585 0.00035867 0.000133883)
(-0.000274007 0.000781167 0.000305684)
(-0.000116623 0.00109751 0.000589149)
(5.37968e-05 0.00132871 0.000963818)
(0.000231699 0.00150439 0.00140104)
(0.000406994 0.00165311 0.0018598)
(0.000569223 0.00179651 0.00228598)
(0.000711567 0.00194665 0.00261559)
(0.000828884 0.00210314 0.00278384)
(0.000901161 0.00225946 0.00275161)
(0.000906073 0.00240024 0.00253723)
(0.00085317 0.00249637 0.00220874)
(0.000758624 0.00252107 0.00183681)
(0.000633451 0.00244679 0.00147681)
(0.000485689 0.0022489 0.00116781)
(0.000324614 0.00191299 0.00093748)
(0.000163247 0.00144997 0.00080954)
(1.7658e-05 0.000926445 0.000793205)
(-0.000104 0.000434159 0.00087051)
(-0.000207849 3.37483e-05 0.00101184)
(-0.000306258 -0.000268069 0.00119651)
(-0.000407967 -0.000490241 0.00141439)
(-0.000515202 -0.000660991 0.00165699)
(-0.000625611 -0.000808162 0.00191086)
(-0.000736123 -0.000952751 0.00215303)
(-0.000846794 -0.00110581 0.00234919)
(-0.000960058 -0.00126648 0.00245551)
(-0.00106594 -0.00142959 0.002427)
(-0.00113895 -0.00158459 0.00224467)
(-0.00116695 -0.00170599 0.00193989)
(-0.0011517 -0.00176126 0.00156202)
(-0.00109412 -0.00171509 0.00115867)
(-0.000995962 -0.00153445 0.000771155)
(-0.000864816 -0.00119876 0.000437453)
(-0.000715609 -0.000717809 0.000199028)
(-0.000392046 -0.000236428 0.000313444)
(-0.000243454 0.000225205 0.000426677)
(-0.000111295 0.000589739 0.000651896)
(2.01983e-05 0.000852501 0.000948426)
(0.000157977 0.001036 0.00128287)
(0.000300769 0.00116965 0.00162047)
(0.00044297 0.00128084 0.0019214)
(0.000579179 0.00139018 0.00214544)
(0.000705086 0.00151047 0.0022668)
(0.000826559 0.00165135 0.00230078)
(0.000913098 0.00181628 0.00229339)
(0.000945187 0.00198866 0.00222752)
(0.000914686 0.002138 0.00207631)
(0.000823719 0.00223374 0.00185719)
(0.00067953 0.00224226 0.00160658)
(0.000494479 0.00212912 0.00136629)
(0.000288961 0.00187042 0.00117819)
(9.18917e-05 0.00147473 0.00107959)
(-6.91855e-05 0.00100875 0.00108882)
(-0.000186107 0.000569459 0.00118573)
(-0.00027437 0.000217655 0.00133193)
(-0.000355685 -3.98085e-05 0.00150153)
(-0.000443821 -0.000223159 0.00167824)
(-0.000543395 -0.000360026 0.00184596)
(-0.000652593 -0.000475766 0.00198489)
(-0.000767557 -0.000587883 0.00207282)
(-0.000884684 -0.000705498 0.00209317)
(-0.00100882 -0.000836762 0.00205732)
(-0.0011199 -0.000995405 0.00201152)
(-0.0011983 -0.00117301 0.00192648)
(-0.00122685 -0.00134186 0.00175649)
(-0.00119585 -0.00146638 0.00150163)
(-0.00110204 -0.0015029 0.00118629)
(-0.000952298 -0.00140616 0.000851304)
(-0.000765231 -0.00114546 0.000552114)
(-0.00056925 -0.000730091 0.00035481)
(-0.000817918 -0.000257776 0.000385783)
(-0.000681867 0.000289653 0.000295239)
(-0.000513308 0.000769999 0.000349643)
(-0.000311535 0.00116555 0.000568135)
(-8.47699e-05 0.00148769 0.000947075)
(0.000154144 0.00176069 0.00146155)
(0.000390022 0.00200979 0.00206736)
(0.000606745 0.0022543 0.00269928)
(0.000789421 0.00250453 0.00326635)
(0.00093052 0.00275339 0.00364939)
(0.00101055 0.00296113 0.00370677)
(0.000994147 0.00308615 0.00340895)
(0.000904798 0.00313094 0.00293658)
(0.000779024 0.00307738 0.00242554)
(0.000641812 0.00290559 0.00195985)
(0.000506212 0.00260815 0.00158596)
(0.000375947 0.00219439 0.00132032)
(0.000249952 0.00169591 0.00115839)
(0.000124873 0.00116583 0.0010842)
(-3.28957e-06 0.000660961 0.00108651)
(-0.000137621 0.000223336 0.00116231)
(-0.000279417 -0.000133795 0.0013094)
(-0.000426895 -0.000421865 0.00152555)
(-0.000575098 -0.00066501 0.00180665)
(-0.000717173 -0.000889867 0.00214227)
(-0.000846779 -0.00111875 0.00250953)
(-0.000960688 -0.00136542 0.00286531)
(-0.00106157 -0.00162831 0.00313837)
(-0.00115543 -0.00187502 0.00321547)
(-0.00122856 -0.00205521 0.00301825)
(-0.00123953 -0.00214272 0.00262634)
(-0.00121515 -0.00212963 0.00214913)
(-0.00116869 -0.00199521 0.00166768)
(-0.00110562 -0.00172653 0.00123326)
(-0.00102601 -0.00132575 0.000870484)
(-0.000930298 -0.000818403 0.000586135)
(-0.000740982 -0.000277504 0.000571965)
(-0.000580494 0.000221904 0.000566519)
(-0.000404979 0.000644909 0.000689651)
(-0.000209402 0.000983316 0.000933029)
(3.50636e-06 0.00125548 0.00128086)
(0.000223678 0.00148688 0.00170554)
(0.000437153 0.00170016 0.00216579)
(0.000630087 0.00191 0.00260766)
(0.000792379 0.0021212 0.00296885)
(0.000918358 0.00232801 0.00318643)
(0.000993719 0.00251592 0.00320933)
(0.00100455 0.00266691 0.00303788)
(0.000951711 0.00275873 0.00273794)
(0.000854029 0.00276972 0.00238391)
(0.000726374 0.00267937 0.00203565)
(0.000579152 0.00247121 0.00173618)
(0.000420451 0.00213855 0.00151322)
(0.000259084 0.00169837 0.00138255)
(0.000104762 0.00120762 0.0013424)
(-3.82509e-05 0.000739814 0.00137681)
(-0.000174887 0.000344478 0.0014691)
(-0.000313833 2.87975e-05 0.00160867)
(-0.000459303 -0.000224404 0.00178919)
(-0.00060878 -0.000440293 0.0020024)
(-0.000755075 -0.000642313 0.00223412)
(-0.000890419 -0.000846109 0.0024622)
(-0.00101102 -0.0010568 0.00265648)
(-0.00111947 -0.00126935 0.00278)
(-0.00121704 -0.00146905 0.00278777)
(-0.0012896 -0.00164028 0.00264955)
(-0.00131605 -0.0017639 0.00238306)
(-0.00129956 -0.00181176 0.00203363)
(-0.00124434 -0.0017561 0.00164998)
(-0.00115396 -0.00157243 0.00127575)
(-0.0010337 -0.00124742 0.000948801)
(-0.000892754 -0.000795393 0.000704582)
(-0.00062607 -0.00030498 0.000763158)
(-0.000452343 0.000140386 0.000837825)
(-0.000281734 0.000504878 0.00102432)
(-0.000102499 0.000784409 0.00129105)
(8.7774e-05 0.00100181 0.001609)
(0.000281952 0.00118409 0.00194524)
(0.000468385 0.00135272 0.00225996)
(0.000636752 0.00152008 0.00251035)
(0.000780979 0.00169025 0.00266326)
(0.000903514 0.00186549 0.00271919)
(0.000992255 0.00205087 0.00272359)
(0.00102875 0.00222954 0.00267243)
(0.00100605 0.00237313 0.00254105)
(0.000926665 0.00245559 0.00234264)
(0.000796925 0.00245082 0.00211173)
(0.000626124 0.00233173 0.00188969)
(0.00042967 0.00207865 0.00171576)
(0.000231223 0.00170041 0.00161957)
(5.48394e-05 0.00125601 0.00161136)
(-9.07256e-05 0.00083077 0.00167357)
(-0.000217705 0.000480336 0.00177849)
(-0.000344991 0.000209754 0.00190992)
(-0.000482442 -2.47842e-06 0.00205642)
(-0.000629255 -0.000182577 0.00220387)
(-0.000777887 -0.000351437 0.00233339)
(-0.000919465 -0.000519691 0.00242273)
(-0.00104872 -0.000687728 0.00245236)
(-0.00116563 -0.000854118 0.00242273)
(-0.00127492 -0.00103245 0.00237536)
(-0.00135425 -0.00121532 0.00229871)
(-0.00138879 -0.00137906 0.0021512)
(-0.00137063 -0.00149207 0.00192313)
(-0.00129576 -0.00151759 0.00163306)
(-0.00116753 -0.00141756 0.00131854)
(-0.000998772 -0.00116565 0.00103089)
(-0.00081113 -0.000772171 0.000829404)
(-0.000929225 -0.000422799 0.00099499)
(-0.000787267 7.61273e-05 0.000859309)
(-0.000600764 0.000536412 0.000851092)
(-0.000372547 0.000943584 0.00100145)
(-0.000115399 0.00130454 0.00131604)
(0.000154004 0.00163656 0.00177504)
(0.000417376 0.00195731 0.00233819)
(0.000655624 0.00227813 0.00294701)
(0.000850968 0.00260097 0.00352237)
(0.000992993 0.00291274 0.00395939)