/*--------------------------------*- C++ -*----------------------------------*\
| =========                 |                                                 |
| \\      /  F ield         | OpenFOAM: The Open Source CFD Toolbox           |
|  \\    /   O peration     | Version:  2312                                  |
|   \\  /    A nd           | Website:  www.openfoam.com                      |
|    \\/     M anipulation  |                                                 |
\*---------------------------------------------------------------------------*/
FoamFile
{
    version     2.0;
    format      ascii;
    arch        "LSB;label=32;scalar=64";
    class       volVectorField;
    location    "0.7";
    object      D_0_0;
}
// * * * * * * * * * * * * * * * * * * * * * * * * * * * * * * * * * * * * * //

dimensions      [0 1 0 0 0 0 0];

internalField   nonuniform List<vector> 
1620
(
(-0.000144371 5.3531e-05 -0.000160943)
(-0.000114842 0.000148339 -0.000144643)
(-7.72855e-05 0.000215549 -0.000113904)
(-3.57241e-05 0.000259404 -7.19453e-05)
(1.00278e-05 0.000290293 -1.77406e-05)
(5.65262e-05 0.000318955 5.07458e-05)
(9.44292e-05 0.00035317 0.000136016)
(0.000110614 0.000393508 0.000236817)
(0.000107924 0.000425605 0.000325807)
(8.7675e-05 0.000440443 0.00031738)
(5.14762e-05 0.000431604 0.000228353)
(3.03894e-05 0.000406705 0.000140684)
(2.98869e-05 0.000380497 6.94389e-05)
(3.93845e-05 0.000355439 1.25688e-05)
(5.04384e-05 0.000326029 -3.32352e-05)
(5.98553e-05 0.000283765 -7.11761e-05)
(6.71356e-05 0.000220291 -0.000103915)
(6.6244e-05 0.000131518 -0.000128113)
(4.91921e-05 2.6492e-05 -0.000125414)
(1.95993e-05 -6.77568e-05 -9.68246e-05)
(-1.02663e-05 -0.00013991 -6.33401e-05)
(-3.50024e-05 -0.000190783 -2.87614e-05)
(-5.6585e-05 -0.000226124 9.25563e-06)
(-7.68677e-05 -0.000254525 5.4986e-05)
(-9.34025e-05 -0.000285026 0.000115682)
(-9.83618e-05 -0.000321909 0.000198673)
(-9.73082e-05 -0.000353169 0.000286199)
(-8.58147e-05 -0.00036951 0.000289942)
(-6.16627e-05 -0.000363491 0.000219322)
(-5.3697e-05 -0.000342911 0.000144047)
(-6.6956e-05 -0.000320215 7.80782e-05)
(-9.11328e-05 -0.000296956 2.1569e-05)
(-0.000116286 -0.00026707 -2.69462e-05)
(-0.000137251 -0.000221438 -7.00442e-05)
(-0.000152719 -0.000151696 -0.000110988)
(-0.000157462 -5.54111e-05 -0.000147714)
(9.67959e-06 2.28127e-05 -9.07467e-05)
(2.14499e-05 0.000115997 -6.16749e-05)
(2.79399e-05 0.000177303 -3.39387e-05)
(3.30492e-05 0.000212652 -1.95351e-06)
(4.01584e-05 0.000227176 3.49987e-05)
(4.97281e-05 0.000228599 7.44697e-05)
(6.04034e-05 0.000223969 0.000112931)
(7.13797e-05 0.000218967 0.00014603)
(8.60001e-05 0.000219968 0.000167266)
(9.30497e-05 0.00023212 0.000165498)
(9.24297e-05 0.000252682 0.000144496)
(8.36567e-05 0.000274566 0.000114802)
(7.22116e-05 0.000293992 8.23799e-05)
(5.72944e-05 0.000306706 5.04481e-05)
(3.70068e-05 0.000306254 2.14659e-05)
(1.09737e-05 0.000284935 -3.30032e-06)
(-1.80548e-05 0.000236962 -2.55728e-05)
(-4.62759e-05 0.000153305 -5.02424e-05)
(-6.44345e-05 4.76247e-05 -4.4923e-05)
(-6.99456e-05 -4.22744e-05 -1.28393e-05)
(-6.88644e-05 -0.000103638 1.11397e-05)
(-6.43563e-05 -0.000141443 3.38719e-05)
(-6.0032e-05 -0.000159452 5.7897e-05)
(-5.78898e-05 -0.000164036 8.3104e-05)
(-5.90719e-05 -0.00016113 0.00010909)
(-6.51853e-05 -0.00015569 0.000134702)
(-8.06389e-05 -0.000154289 0.0001542)
(-9.39882e-05 -0.000162829 0.000153408)
(-0.000102486 -0.000181428 0.000134514)
(-0.000105742 -0.000204481 0.000106228)
(-0.000106956 -0.00022732 7.33244e-05)
(-0.000103544 -0.000244178 3.90062e-05)
(-9.19547e-05 -0.000246816 5.96216e-06)
(-7.08131e-05 -0.000226023 -2.44474e-05)
(-4.28666e-05 -0.000175426 -5.40151e-05)
(-1.2925e-05 -8.74421e-05 -8.78804e-05)
(0.000123223 -1.41672e-05 -4.12334e-06)
(0.000115022 7.40199e-05 1.34173e-05)
(8.78204e-05 0.000129674 3.20445e-05)
(5.62843e-05 0.000152632 5.08867e-05)
(2.85788e-05 0.0001488 6.88902e-05)
(9.7066e-06 0.000127373 8.16873e-05)
(4.28862e-06 9.85586e-05 8.26979e-05)
(1.78966e-05 7.3053e-05 6.71641e-05)
(5.73927e-05 6.18186e-05 4.26371e-05)
(0.000111873 7.01197e-05 4.25343e-05)
(0.000146701 0.000100402 6.90739e-05)
(0.000155569 0.000147321 8.24102e-05)
(0.000142402 0.000199151 8.00542e-05)
(0.000111208 0.000244797 6.92956e-05)
(6.50202e-05 0.00027366 5.70986e-05)
(7.32705e-06 0.000275261 4.79374e-05)
(-5.45002e-05 0.000241114 4.28795e-05)
(-0.000103781 0.000167958 4.0779e-05)
(-0.000121683 7.61881e-05 4.70907e-05)
(-0.000107605 -4.75722e-06 5.86666e-05)
(-7.8345e-05 -5.50656e-05 6.78769e-05)
(-4.79039e-05 -7.61015e-05 7.68857e-05)
(-2.272e-05 -7.4311e-05 8.65259e-05)
(-6.04765e-06 -5.7653e-05 9.34844e-05)
(-1.83883e-06 -3.35628e-05 9.13201e-05)
(-1.63693e-05 -1.0046e-05 7.40544e-05)
(-5.67751e-05 2.29299e-06 4.70307e-05)
(-0.000112113 -4.16143e-06 4.20282e-05)
(-0.000149771 -3.41852e-05 6.27654e-05)
(-0.000166004 -8.28307e-05 7.07979e-05)
(-0.000161057 -0.000138927 6.3683e-05)
(-0.000135467 -0.000190244 4.80355e-05)
(-9.03679e-05 -0.000223962 3.00949e-05)
(-2.92054e-05 -0.000227602 1.37674e-05)
(3.93338e-05 -0.000191817 1.97347e-07)
(9.70729e-05 -0.000113853 -9.33059e-06)
(-0.00026924 0.000140907 -0.000438126)
(-0.000215919 0.000433553 -0.000396711)
(-0.000158984 0.000638298 -0.000305638)
(-9.43283e-05 0.000760225 -0.000179022)
(-1.63978e-05 0.000825589 -1.78425e-05)
(7.08864e-05 0.000863813 0.000180789)
(0.000153451 0.000899284 0.000417182)
(0.000213748 0.000944129 0.000674617)
(0.000255296 0.000987803 0.000882291)
(0.000275553 0.00101939 0.000894898)
(0.000248262 0.00103113 0.000716196)
(0.000220203 0.00102862 0.000493343)
(0.000207867 0.00102062 0.000288258)
(0.000202509 0.0010004 0.000114919)
(0.000193111 0.000950046 -2.83985e-05)
(0.000174432 0.000846247 -0.000148288)
(0.000146579 0.000665704 -0.000248532)
(0.000107141 0.000399597 -0.000315308)
(5.94485e-05 8.75837e-05 -0.000310408)
(1.12161e-05 -0.000194553 -0.00023563)
(-3.09451e-05 -0.000399184 -0.000137048)
(-6.56507e-05 -0.000528439 -3.23548e-05)
(-9.83481e-05 -0.000602948 8.12443e-05)
(-0.000132508 -0.000648012 0.000215293)
(-0.000166458 -0.000687317 0.000384442)
(-0.000194975 -0.000735461 0.000591649)
(-0.000230475 -0.000783525 0.000785269)
(-0.000266331 -0.00081952 0.000824006)
(-0.000270877 -0.000836556 0.000687565)
(-0.000282268 -0.000842694 0.000495744)
(-0.00031233 -0.000844451 0.000304057)
(-0.000348202 -0.000831941 0.000129226)
(-0.000372778 -0.000783488 -2.59901e-05)
(-0.00037572 -0.000672625 -0.000165519)
(-0.000356814 -0.000475629 -0.000293718)
(-0.000318537 -0.000187801 -0.000398772)
(-2.3004e-05 5.41285e-05 -0.000279271)
(8.95827e-06 0.000324635 -0.000211685)
(2.43713e-05 0.000508449 -0.000118067)
(3.70858e-05 0.000614418 -4.79396e-06)
(5.75613e-05 0.000659694 0.000125105)
(8.88561e-05 0.000667874 0.000265669)
(0.000129004 0.000661405 0.000406839)
(0.000175927 0.000657643 0.000532368)
(0.000231707 0.000668256 0.000615744)
(0.000278224 0.000700993 0.000624391)
(0.000298328 0.000753493 0.000558743)
(0.000291271 0.000812798 0.000451592)
(0.000266405 0.000867575 0.000330445)
(0.000224624 0.000903186 0.000211066)
(0.00016452 0.000899487 0.000102045)
(8.7874e-05 0.000833702 6.99837e-06)
(3.41608e-06 0.000687235 -7.38122e-05)
(-7.56234e-05 0.000445306 -0.000135092)
(-0.00012725 0.000152143 -0.000123116)
(-0.000145401 -0.000107414 -4.49586e-05)
(-0.00014388 -0.000286993 3.88101e-05)
(-0.000134345 -0.000395129 0.00012341)
(-0.000126923 -0.000447089 0.000210833)
(-0.000127687 -0.000463395 0.000302481)
(-0.000140714 -0.000463286 0.000397867)
(-0.000170613 -0.000461799 0.000490937)
(-0.000223374 -0.000469942 0.000561354)
(-0.000281581 -0.000497447 0.000573886)
(-0.000325164 -0.000547905 0.000519076)
(-0.000350914 -0.00061214 0.000420431)
(-0.000361844 -0.000677502 0.00030039)
(-0.000352705 -0.000725498 0.000173807)
(-0.000316621 -0.000730805 5.00097e-05)
(-0.000252408 -0.000666051 -6.63893e-05)
(-0.000169583 -0.000510939 -0.000173989)
(-8.51249e-05 -0.000254219 -0.000265452)
(0.000187765 -4.08874e-05 -9.72694e-05)
(0.000198435 0.00020033 -3.17528e-05)
(0.000172293 0.000366805 5.69128e-05)
(0.000133184 0.000456193 0.00015364)
(9.7647e-05 0.000481533 0.000249373)
(7.74867e-05 0.000463818 0.000330963)
(8.27037e-05 0.000426949 0.000380719)
(0.000122188 0.000395046 0.000385715)
(0.000205232 0.000389813 0.000362179)
(0.000301519 0.000422657 0.00036916)
(0.000366213 0.00049547 0.000397499)
(0.000382727 0.00059647 0.000394175)
(0.00035141 0.000703106 0.000352897)
(0.000278391 0.000790633 0.000287634)
(0.000170977 0.000833234 0.000215443)
(3.96807e-05 0.000805672 0.000149166)
(-9.70623e-05 0.000688929 9.66897e-05)
(-0.000207756 0.000480061 6.79098e-05)
(-0.00026175 0.000225127 8.45516e-05)
(-0.000256051 -3.11247e-06 0.000137634)
(-0.000215358 -0.000160124 0.000199314)
(-0.000164876 -0.000245346 0.000261353)
(-0.000120418 -0.000272819 0.000320667)
(-9.26208e-05 -0.000261461 0.000368961)
(-9.1672e-05 -0.00023033 0.000391784)
(-0.000128171 -0.000199037 0.000377281)
(-0.000212064 -0.000189139 0.00034147)
(-0.000311822 -0.000216884 0.000338285)
(-0.000388264 -0.000288761 0.000354947)
(-0.000427145 -0.000395197 0.000340698)
(-0.000421497 -0.000514199 0.000288426)
(-0.000369681 -0.000617654 0.000209413)
(-0.000274325 -0.000673794 0.000118313)
(-0.000145365 -0.000652059 2.7229e-05)
(-3.27849e-06 -0.000531571 -5.35279e-05)
(0.000118696 -0.000311528 -0.000106326)
(-0.000377918 0.000172839 -0.000631741)
(-0.000301209 0.00061963 -0.000579998)
(-0.000223469 0.000941534 -0.000438249)
(-0.00013351 0.00114119 -0.000226175)
(-2.44475e-05 0.00125202 5.14131e-05)
(9.72543e-05 0.00131314 0.000392322)
(0.00021513 0.00135789 0.000785299)
(0.000311628 0.00140652 0.0011915)
(0.000387255 0.00146013 0.00151534)
(0.000437431 0.00151484 0.00158811)
(0.000431264 0.00155971 0.00136628)
(0.000398603 0.00158989 0.00102495)
(0.00037018 0.00160349 0.000676753)
(0.000345402 0.00158518 0.000365333)
(0.000314372 0.0015101 0.000103011)
(0.000268438 0.00134736 -0.000111727)
(0.000206001 0.00106701 -0.000279733)
(0.000129822 0.000661023 -0.000381437)
(5.27747e-05 0.000190762 -0.000377054)
(-1.34531e-05 -0.000238153 -0.000271038)
(-6.71462e-05 -0.000554112 -0.000116578)
(-0.000112816 -0.000757093 5.86383e-05)
(-0.000157647 -0.000876145 0.000254285)
(-0.000204467 -0.00094649 0.000482998)
(-0.00025221 -0.00099961 0.000757403)
(-0.000299642 -0.00105623 0.00106847)
(-0.000358966 -0.00111807 0.00135034)
(-0.000426432 -0.00117981 0.00144897)
(-0.000469509 -0.00123211 0.00128858)
(-0.000498219 -0.0012737 0.000997856)
(-0.000536399 -0.0013023 0.00067364)
(-0.000575723 -0.00129766 0.000360329)
(-0.000596675 -0.00122864 7.61498e-05)
(-0.000583009 -0.00105933 -0.000175589)
(-0.000533354 -0.000758632 -0.00039495)
(-0.000458547 -0.000323324 -0.000563111)
(-0.000104504 5.54024e-05 -0.000420327)
(-4.45269e-05 0.00046067 -0.000326691)
(-5.65707e-06 0.000744706 -0.000168486)
(3.09263e-05 0.000917487 3.35047e-05)
(7.82801e-05 0.00100206 0.000269528)
(0.000139464 0.0010311 0.000527115)
(0.000211053 0.00103662 0.000786457)
(0.000288643 0.0010438 0.00101687)
(0.000371141 0.00106902 0.00117443)
(0.000441415 0.00112191 0.00120902)
(0.000479946 0.00120244 0.00111067)
(0.000476614 0.00129467 0.000927067)
(0.000442102 0.00137776 0.000707744)
(0.00038033 0.00142768 0.000485403)
(0.000291715 0.00141468 0.000279495)
(0.000179501 0.00130676 0.000100493)
(5.57103e-05 0.00107911 -4.46994e-05)
(-6.09889e-05 0.000716478 -0.000136672)
(-0.000144046 0.000285123 -0.000120287)
(-0.000184453 -0.000102645 -7.55153e-06)
(-0.000196603 -0.000378843 0.00013465)
(-0.000197393 -0.000552044 0.000286417)
(-0.000200769 -0.000643696 0.000445259)
(-0.000214897 -0.000683023 0.000611492)
(-0.000244814 -0.000698072 0.000782098)
(-0.000295088 -0.000710803 0.000944308)
(-0.00037025 -0.000735842 0.00106763)
(-0.000455888 -0.00078373 0.00110235)
(-0.000529513 -0.00086167 0.00102218)
(-0.000575374 -0.000960866 0.000855617)
(-0.000595382 -0.00105955 0.000640392)
(-0.000584261 -0.00112841 0.00040563)
(-0.000533894 -0.00113002 0.000171542)
(-0.000442559 -0.00102502 -4.87519e-05)
(-0.000323417 -0.000785425 -0.000244459)
(-0.000200744 -0.000400422 -0.000391012)
(0.000153933 -7.09737e-05 -0.000184204)
(0.000194574 0.000284848 -7.38805e-05)
(0.000192818 0.000537735 9.15905e-05)
(0.00017433 0.000684767 0.000280716)
(0.000158519 0.000743042 0.000472788)
(0.00015964 0.000741034 0.00064522)
(0.000188182 0.000711715 0.000771428)
(0.000251176 0.000687408 0.000830437)
(0.000351348 0.000695853 0.000831848)
(0.000464096 0.000753767 0.000840632)
(0.000545553 0.000860878 0.000851485)
(0.000569371 0.0010013 0.000814834)
(0.000530507 0.00114605 0.000722068)
(0.000433558 0.00126099 0.000590182)
(0.000288253 0.00130895 0.000443739)
(0.000110743 0.00125409 0.000304978)
(-7.29383e-05 0.00107164 0.000193544)
(-0.000225116 0.000761503 0.000134922)
(-0.000311927 0.000387882 0.000159989)
(-0.000328788 5.05638e-05 0.000254322)
(-0.000300984 -0.000191069 0.000375709)
(-0.000257547 -0.000333907 0.00050187)
(-0.000219619 -0.000395519 0.00062226)
(-0.00020237 -0.000401821 0.000724317)
(-0.000217597 -0.0003802 0.000789992)
(-0.000273964 -0.000357495 0.000803648)
(-0.000374855 -0.000360322 0.000775931)
(-0.000495782 -0.00041078 0.000766507)
(-0.000597458 -0.000515056 0.000761754)
(-0.000654838 -0.000662221 0.000710882)
(-0.000655082 -0.000824515 0.000601357)
(-0.00059264 -0.000963194 0.000444707)
(-0.000470206 -0.00103207 0.000261722)
(-0.000302081 -0.000986406 7.51396e-05)
(-0.00011612 -0.00079776 -8.8972e-05)
(4.80804e-05 -0.000468989 -0.000191805)
(-0.000485224 0.000137035 -0.000654135)
(-0.000384621 0.000678678 -0.000616224)
(-0.000281848 0.00108709 -0.00045321)
(-0.000164912 0.00135798 -0.000182351)
(-2.84934e-05 0.00152265 0.00018633)
(0.000120071 0.0016215 0.000640734)
(0.000265598 0.00169117 0.00115513)
(0.000392472 0.00175787 0.00167444)
(0.000496338 0.00183427 0.00209533)
(0.000577367 0.00192241 0.00224433)
(0.00060941 0.00200528 0.00203461)
(0.000575431 0.00206795 0.00163051)
(0.000526664 0.00210112 0.00117811)
(0.000474611 0.00208044 0.000751088)
(0.000416082 0.00197762 0.000383629)
(0.00034278 0.00176176 8.74212e-05)
(0.000251765 0.00140679 -0.000131663)
(0.000148194 0.000913499 -0.000255397)
(4.72944e-05 0.000352893 -0.000258345)
(-3.74855e-05 -0.000163811 -0.000148561)
(-0.000105475 -0.000558482 3.04469e-05)
(-0.000164681 -0.000824906 0.000249508)
(-0.000223226 -0.000991648 0.000503662)
(-0.000283695 -0.00109641 0.000800672)
(-0.000345797 -0.00117389 0.00114594)
(-0.000410355 -0.00124964 0.00152185)
(-0.000485177 -0.00133657 0.0018625)
(-0.000576802 -0.00143572 0.0020197)
(-0.000666147 -0.0015309 0.00188268)
(-0.000710027 -0.00160851 0.00154603)
(-0.000746338 -0.0016613 0.00112911)
(-0.00077554 -0.0016599 0.000702911)
(-0.0007838 -0.00156865 0.000306342)
(-0.00075473 -0.00135082 -4.29913e-05)
(-0.000685291 -0.00097823 -0.000336109)
(-0.000588626 -0.000455094 -0.000552658)
(-0.000231841 1.70364e-05 -0.000422494)
(-0.000139847 0.000504924 -0.000325848)
(-6.64425e-05 0.000862212 -0.00012911)
(6.46813e-06 0.00109484 0.000138705)
(9.03334e-05 0.00122731 0.000460414)
(0.000186487 0.00129471 0.00081559)
(0.000289915 0.00133226 0.00117455)
(0.000394363 0.00136832 0.00149522)
(0.000496833 0.00142171 0.00172281)
(0.000585792 0.0015004 0.00179497)
(0.000641543 0.00160493 0.0016918)
(0.000641395 0.00172031 0.001463)
(0.000598364 0.00181784 0.00117076)
(0.000521307 0.00186813 0.000863448)
(0.000413862 0.00183735 0.000574038)
(0.000280432 0.00169099 0.000323611)
(0.000133349 0.00140387 0.00012856)
(-7.93771e-06 0.00096779 1.73569e-05)
(-0.000118048 0.000458124 3.15921e-05)
(-0.000186163 -6.58298e-06 0.000154937)
(-0.000223667 -0.00035206 0.000329104)
(-0.000248558 -0.000581777 0.000525561)
(-0.00027549 -0.000718537 0.000736276)
(-0.000312541 -0.000794489 0.00095809)
(-0.000363717 -0.000841392 0.00118406)
(-0.000431936 -0.000884498 0.00139636)
(-0.000520798 -0.000940605 0.00156009)
(-0.000624314 -0.00101654 0.00161929)
(-0.000721348 -0.00111941 0.00153677)
(-0.000781884 -0.00124362 0.00133289)
(-0.000807183 -0.00136018 0.00104965)
(-0.000794633 -0.00143393 0.000727366)
(-0.000737806 -0.00142246 0.000398253)
(-0.000634967 -0.0012825 8.71811e-05)
(-0.000499037 -0.000984313 -0.000182291)
(-0.000355014 -0.000523091 -0.000372241)
(2.80894e-05 -0.000111546 -0.000171011)
(0.000105068 0.000315643 -3.48287e-05)
(0.000143962 0.000628543 0.000185519)
(0.00016837 0.000824273 0.000447814)
(0.000195234 0.000922882 0.000721522)
(0.000235771 0.000956045 0.000976292)
(0.000296565 0.000959451 0.0011789)
(0.000380731 0.000966148 0.0013011)
(0.000486433 0.00100234 0.00134147)
(0.000605948 0.00108588 0.00135318)
(0.000692736 0.00121494 0.00134687)
(0.000719973 0.0013737 0.00128382)
(0.00067983 0.00153193 0.00115025)
(0.0005752 0.00165247 0.000963868)
(0.000415893 0.00169333 0.000754876)
(0.000219495 0.00161363 0.000554768)
(1.38657e-05 0.00138612 0.00039549)
(-0.000163522 0.00101442 0.000314087)
(-0.000279238 0.000571225 0.000341785)
(-0.000327467 0.000166438 0.000459919)
(-0.000331345 -0.000134836 0.000620629)
(-0.000318937 -0.00032733 0.00079279)
(-0.000311445 -0.000430028 0.000959514)
(-0.000323393 -0.000471888 0.00110515)
(-0.000363716 -0.000483646 0.00121028)
(-0.000437023 -0.000493027 0.00125659)
(-0.000541358 -0.000524061 0.00124545)
(-0.00067346 -0.000599255 0.00122504)
(-0.000786384 -0.000724363 0.00119853)
(-0.000854577 -0.000890059 0.00112065)
(-0.000863289 -0.00106785 0.000967377)
(-0.000804213 -0.00121589 0.000747332)
(-0.000678265 -0.001282 0.000485221)
(-0.000499482 -0.00121428 0.000214256)
(-0.00029647 -0.000979931 -2.29474e-05)
(-0.000108488 -0.000584985 -0.000169912)
(-0.000594515 4.30858e-05 -0.00047833)
(-0.000475422 0.000625671 -0.000474552)
(-0.000347466 0.00108746 -0.000323686)
(-0.000202256 0.00141644 -3.34524e-05)
(-3.79713e-05 0.00163755 0.000383586)
(0.000137675 0.00178777 0.000906318)
(0.000311016 0.00190273 0.00149748)
(0.000467223 0.00201023 0.00209229)
(0.000597675 0.00212835 0.0025853)
(0.000707013 0.00226107 0.00281403)
(0.000773115 0.00238385 0.00266769)
(0.000738607 0.00247137 0.00225639)
(0.000670487 0.00251552 0.00174896)
(0.00058922 0.00248641 0.0012472)
(0.00050066 0.00235536 0.000807679)
(0.000401596 0.00209681 0.000456944)
(0.000289783 0.00169534 0.000206911)
(0.000169718 0.00116425 6.86429e-05)
(5.37245e-05 0.0005741 4.91566e-05)
(-4.73319e-05 2.39248e-05 0.000137845)
(-0.000133422 -0.000414541 0.000306932)
(-0.000212423 -0.000729147 0.000533477)
(-0.000291456 -0.000942881 0.00080997)
(-0.000372462 -0.00109082 0.00113788)
(-0.000454693 -0.00120749 0.00151497)
(-0.000538333 -0.00132064 0.00191851)
(-0.000627625 -0.00144912 0.00228593)
(-0.000735248 -0.00159677 0.00249219)
(-0.000851412 -0.00173935 0.00241937)
(-0.000907015 -0.00184867 0.00208873)
(-0.000936078 -0.0019173 0.00162964)
(-0.000947093 -0.00191313 0.00113606)
(-0.000936223 -0.00180068 0.000665902)
(-0.000893045 -0.00154835 0.00025151)
(-0.000814152 -0.00113715 -8.98309e-05)
(-0.000709496 -0.000580953 -0.000341291)
(-0.000391262 -5.71122e-05 -0.000250796)
(-0.000269605 0.000467591 -0.000173387)
(-0.000158209 0.000871011 2.75239e-05)
(-4.3078e-05 0.00115253 0.000323837)
(8.31119e-05 0.00133572 0.000694254)
(0.000218733 0.001454 0.00111232)
(0.000356634 0.00154088 0.00154073)
(0.000488689 0.0016233 0.0019292)
(0.000610469 0.00171866 0.00221579)
(0.000715638 0.0018312 0.00233369)
(0.00078319 0.00195985 0.00225436)
(0.000785142 0.00209059 0.00201598)
(0.000735451 0.002191 0.00168597)
(0.000647483 0.00223095 0.00132613)
(0.000528517 0.00217779 0.000982585)
(0.000384448 0.00200007 0.000686997)
(0.000226218 0.00167656 0.000463464)
(7.08357e-05 0.00120918 0.000341195)
(-6.01252e-05 0.000672209 0.000344511)
(-0.000156049 0.00017523 0.00045482)
(-0.000225294 -0.000211432 0.000627752)
(-0.000283898 -0.000485066 0.000835372)
(-0.00034454 -0.00066709 0.00106671)
(-0.000413214 -0.000788705 0.0013151)
(-0.000491335 -0.000881209 0.00156974)
(-0.000579255 -0.000969423 0.00180914)
(-0.000679522 -0.00106895 0.00199688)
(-0.0007928 -0.00118228 0.00208052)
(-0.00090099 -0.00131252 0.00201799)
(-0.000970343 -0.00145411 0.00181022)
(-0.000998121 -0.00157625 0.00149617)
(-0.000984339 -0.00164307 0.00112358)
(-0.000925938 -0.00161347 0.000734713)
(-0.000822464 -0.0014471 0.000364781)
(-0.000684352 -0.0011171 4.73838e-05)
(-0.000532597 -0.00062649 -0.000174092)
(-0.000164056 -0.000165554 -9.53796e-06)
(-4.92112e-05 0.000295176 0.000128086)
(3.69511e-05 0.000644753 0.000369603)
(0.000114584 0.000879505 0.000669792)
(0.00019575 0.0010215 0.000993827)
(0.000285655 0.00110233 0.00130719)
(0.000384984 0.00115507 0.00157204)
(0.000492749 0.00120806 0.00175309)
(0.000605592 0.00128201 0.00183562)
(0.000728078 0.00139243 0.00185451)
(0.000815176 0.00153916 0.00184172)
(0.000844067 0.00170622 0.00176898)
(0.000806958 0.00186299 0.00161455)
(0.000705949 0.00197429 0.00139681)
(0.0005496 0.002 0.0011505)
(0.000353494 0.00190009 0.00091428)
(0.000142825 0.00164758 0.000728246)
(-4.83407e-05 0.00124922 0.000633395)
(-0.000188902 0.00077777 0.000656011)
(-0.000271763 0.000340782 0.000775158)
(-0.000316586 3.18786e-06 0.000944454)
(-0.000348627 -0.000228314 0.00113188)
(-0.000385949 -0.000373452 0.00131858)
(-0.000438819 -0.00046135 0.00148771)
(-0.000511128 -0.000521493 0.00161932)
(-0.000603341 -0.00057782 0.00169272)
(-0.000711945 -0.000647849 0.0016986)
(-0.000845547 -0.00074899 0.00166587)
(-0.00096036 -0.000890585 0.00162575)
(-0.00103462 -0.00106403 0.00153829)
(-0.00105346 -0.00124059 0.00136416)
(-0.00100702 -0.00138042 0.0011089)
(-0.000893663 -0.00143331 0.000799079)
(-0.000724082 -0.00134781 0.000474632)
(-0.000522874 -0.00109017 0.000189018)
(-0.000325107 -0.000668363 8.55749e-06)
(-0.000705479 -9.23566e-05 -0.000118296)
(-0.000575865 0.000489082 -0.000160641)
(-0.000426432 0.000973907 -4.95389e-05)
(-0.000252872 0.00134496 0.000220761)
(-5.81993e-05 0.00161997 0.000639926)
(0.000148118 0.00183022 0.00118213)
(0.000352617 0.0020074 0.00180362)
(0.000540523 0.00217677 0.00243593)
(0.00070002 0.00235495 0.00297693)
(0.000830846 0.00254208 0.00328618)
(0.000909907 0.00270571 0.00323758)
(0.00087956 0.00281162 0.00286461)
(0.000797503 0.00285803 0.00235046)
(0.000690583 0.00281636 0.00182012)
(0.000574336 0.00266056 0.00134779)
(0.00045357 0.0023735 0.000972052)
(0.000328715 0.00195274 0.00070802)
(0.000202048 0.00142279 0.000557808)
(7.93494e-05 0.000847284 0.000513707)
(-3.50916e-05 0.000304816 0.00056414)
(-0.000142904 -0.000146276 0.000695688)
(-0.000249458 -0.000491245 0.000895558)
(-0.000358371 -0.000746598 0.00115734)
(-0.000469166 -0.000942339 0.00147813)
(-0.000578993 -0.00111018 0.00185004)
(-0.000685748 -0.00127684 0.00224846)
(-0.000790589 -0.00146086 0.00261872)
(-0.000901765 -0.00166456 0.00286617)
(-0.00101467 -0.00185757 0.00287318)
(-0.00108169 -0.00199879 0.00259144)
(-0.00110192 -0.00207652 0.00214146)
(-0.00109336 -0.00206645 0.0016315)
(-0.00106232 -0.00193806 0.00113353)
(-0.00100684 -0.00166813 0.000691496)
(-0.000924954 -0.00124868 0.000327737)
(-0.000821872 -0.000701306 5.35037e-05)
(-0.000567097 -0.000157102 9.1463e-05)
(-0.000422334 0.000369008 0.000132248)
(-0.000275893 0.000793722 0.000305916)
(-0.000118535 0.00111097 0.000592279)
(5.201e-05 0.00134203 0.000970637)
(0.000230168 0.00151685 0.001412)
(0.000405813 0.00166434 0.00187491)
(0.000568439 0.00180646 0.00230469)
(0.000711211 0.00195552 0.00263674)
(0.000829008 0.00211135 0.00280566)
(0.000901704 0.00226756 0.00277206)
(0.000906812 0.00240868 0.00255462)
(0.000854013 0.00250517 0.00222229)
(0.000759533 0.00252994 0.00184659)
(0.000634361 0.00245509 0.00148343)
(0.000486522 0.00225572 0.00117216)
(0.000325371 0.00191728 0.000940556)
(0.000164083 0.00145074 0.000812408)
(1.89143e-05 0.000923405 0.000796799)
(-0.000101968 0.000427984 0.000875407)
(-0.000204929 2.5661e-05 0.0010183)
(-0.00030263 -0.000276899 0.00120463)
(-0.000403995 -0.000498881 0.0014242)
(-0.00051131 -0.000668827 0.0016685)
(-0.000622192 -0.000814922 0.00192404)
(-0.000733472 -0.000958445 0.00216777)
(-0.00084511 -0.00111064 0.0023652)
(-0.000959491 -0.00127071 0.00247219)
(-0.00106652 -0.00143361 0.00244337)
(-0.0011405 -0.00158886 0.00225952)
(-0.00116923 -0.00171076 0.00195225)
(-0.00115447 -0.00176638 0.00157133)
(-0.00109707 -0.00172001 0.00116475)
(-0.000998726 -0.00153818 0.00077412)
(-0.000867133 -0.00120002 0.000437732)
(-0.000717472 -0.000715321 0.000197443)
(-0.000394189 -0.000229881 0.000309544)
(-0.000245217 0.000234905 0.000424851)
(-0.000112818 0.000601059 0.000653537)
(1.88779e-05 0.000864101 0.000954118)
(0.00015686 0.00104692 0.00129268)
(0.000299862 0.00117932 0.00163408)
(0.000442279 0.00128908 0.00193811)
(0.000578728 0.00139714 0.00216409)
(0.000704919 0.00151649 0.00228602)
(0.000826934 0.00165687 0.0023195)
(0.000914049 0.00182177 0.00231128)
(0.000946656 0.00199454 0.00224409)
(0.000916538 0.00214446 0.00209073)
(0.000825776 0.00224075 0.00186885)
(0.000681583 0.00224941 0.00161528)
(0.00049634 0.00213556 0.00137222)
(0.000290561 0.00187495 0.00118205)
(9.33676e-05 0.00147616 0.00108266)
(-6.75017e-05 0.00100662 0.00109269)
(-0.00018386 0.000564464 0.0011916)
(-0.000271418 0.000211057 0.00134019)
(-0.000352147 -4.68039e-05 0.00151205)
(-0.000440006 -0.000229627 0.00169064)
(-0.00053972 -0.00036541 0.00185979)
(-0.000649487 -0.000479891 0.00199965)
(-0.000765366 -0.000590872 0.00208796)
(-0.000883603 -0.000707612 0.00210814)
(-0.00100902 -0.000838298 0.00207181)
(-0.00112137 -0.000996812 0.00202588)
(-0.00120093 -0.00117476 0.00194053)
(-0.00123042 -0.00134431 0.00176932)
(-0.00120004 -0.00146963 0.00151212)
(-0.00110639 -0.00150659 0.00119339)
(-0.000956372 -0.0014093 0.000854336)
(-0.000768702 -0.00114653 0.000551177)
(-0.000572003 -0.000727613 0.00035119)
(-0.000818264 -0.000251504 0.000391074)
(-0.000683065 0.000298983 0.000299356)
(-0.000515233 0.000781722 0.000353333)
(-0.000313829 0.00117877 0.000572808)
(-8.7115e-05 0.00150156 0.000954269)
(0.000152007 0.00177455 0.00147251)
(0.000388317 0.00202321 0.00208283)
(0.000605627 0.00226708 0.00271942)
(0.000788939 0.00251669 0.00329055)
(0.000930723 0.00276526 0.00367596)
(0.00101126 0.00297297 0.00373261)
(0.000994696 0.00309788 0.00343064)
(0.000904853 0.00314246 0.00295321)
(0.000778535 0.00308816 0.00243775)
(0.000640889 0.0029148 0.00196908)
(0.000505076 0.00261494 0.00159384)
(0.000374928 0.00219817 0.00132818)
(0.000249506 0.00169648 0.00116689)
(0.000125482 0.00116344 0.00109328)
(-1.37332e-06 0.000656181 0.00109583)
(-0.000134536 0.000216938 0.00117177)
(-0.000275581 -0.000141032 0.00131921)
(-0.000422791 -0.000429301 0.00153611)
(-0.000571146 -0.000672206 0.00181842)
(-0.000713676 -0.000896591 0.00215568)
(-0.0008439 -0.00112495 0.00252489)
(-0.000958487 -0.00137121 0.00288269)
(-0.00106011 -0.00163395 0.00315746)
(-0.00115487 -0.0018807 0.00323498)
(-0.00122885 -0.00206091 0.0030361)
(-0.00124006 -0.00214828 0.0026413)
(-0.00121565 -0.00213477 0.00216107)
(-0.00116902 -0.00199932 0.00167719)
(-0.00110569 -0.0017289 0.00124119)
(-0.00102582 -0.00132569 0.000877552)
(-0.000930127 -0.000815365 0.000592493)
(-0.000744255 -0.000270903 0.000575488)
(-0.000583872 0.000231405 0.000570202)
(-0.000408335 0.000656271 0.00069453)
(-0.000212501 0.000995528 0.000940085)
(8.66943e-07 0.00126778 0.00129092)
(0.000221635 0.00149878 0.00171917)
(0.000435778 0.00171143 0.00218314)
(0.000629383 0.0019206 0.00262836)
(0.000792297 0.00213126 0.00299198)
(0.000918855 0.00233771 0.00321051)
(0.000994663 0.00252552 0.00323248)
(0.00100576 0.00267658 0.00305836)
(0.00095303 0.00276836 0.00275494)
(0.000855431 0.00277897 0.00239751)
(0.00072788 0.00268768 0.00204653)
(0.000580806 0.00247788 0.00174526)
(0.00042233 0.00214283 0.00152151)
(0.000261335 0.00169964 0.00139092)
(0.000107603 0.00120582 0.00135143)
(-3.46635e-05 0.000735552 0.00138676)
(-0.000170626 0.000338728 0.00148001)
(-0.000309202 2.24714e-05 0.00162053)
(-0.00045471 -0.000230636 0.00180202)
(-0.000604635 -0.000446047 0.00201624)
(-0.000751704 -0.000647477 0.002249)
(-0.000888009 -0.000850759 0.00247811)
(-0.00100963 -0.00106109 0.00267333)
(-0.00111912 -0.0012734 0.00279751)
(-0.00121776 -0.00147295 0.00280535)
(-0.00129133 -0.00164415 0.00266627)
(-0.00131852 -0.00176782 0.00239807)
(-0.00130256 -0.00181559 0.00204641)
(-0.00124766 -0.0017594 0.00166033)
(-0.00115738 -0.00157448 0.00128372)
(-0.00103704 -0.0012473 0.000954664)
(-0.000895999 -0.000792197 0.00070889)
(-0.000631542 -0.000298202 0.000764937)
(-0.00045725 0.000149773 0.000841089)
(-0.000285996 0.000515576 0.00103036)
(-0.000106017 0.000795308 0.00130049)
(8.50657e-05 0.00101219 0.001622)
(0.00028006 0.00119361 0.00196163)
(0.000467254 0.00136132 0.00227922)
(0.000636293 0.00152792 0.00253153)
(0.000781108 0.00169756 0.0026851)
(0.000904272 0.00187252 0.00274056)
(0.000993703 0.00205793 0.00274411)
(0.00103085 0.00223682 0.00269172)
(0.00100872 0.00238066 0.00255848)
(0.000929833 0.00246324 0.00235772)
(0.000800474 0.00245824 0.00212434)
(0.000629923 0.00233827 0.00190009)
(0.000433617 0.00208337 0.00172462)
(0.000235319 0.0017024 0.00162797)
(5.91949e-05 0.00125496 0.00162053)
(-8.5987e-05 0.000827303 0.00168434)
(-0.000212611 0.000475562 0.00179103)
(-0.000339786 0.000204698 0.00192402)
(-0.000477499 -7.10717e-06 0.00207175)
(-0.000624984 -0.000186427 0.00222003)
(-0.000774648 -0.000354483 0.00235002)
(-0.000917483 -0.000522105 0.00243945)
(-0.00104807 -0.000689701 0.00246879)
(-0.00116627 -0.000855753 0.00243866)
(-0.00127691 -0.00103399 0.00239119)
(-0.00135752 -0.00121699 0.00231458)
(-0.00139318 -0.00138104 0.00216652)
(-0.00137594 -0.00149438 0.00193695)
(-0.00130169 -0.00151991 0.00164439)
(-0.00117376 -0.00141914 0.00132664)
(-0.00100498 -0.00116531 0.00103564)
(-0.000817063 -0.000768777 0.000831716)
(-0.000929532 -0.000417046 0.00100682)
(-0.000788463 8.39905e-05 0.000869827)
(-0.000602624 0.000546064 0.000860634)
(-0.000374668 0.000954576 0.00101111)
(-0.000117457 0.00131643 0.0013272)
(0.000152258 0.00164898 0.00178894)
(0.000416136 0.00197 0.00235568)
(0.000655001 0.00229093 0.00296848)
(0.000850942 0.00261382 0.0035476)
(0.00099349 0.00292572 0.00398733)