/*--------------------------------*- C++ -*----------------------------------*\
| =========                 |                                                 |
| \\      /  F ield         | OpenFOAM: The Open Source CFD Toolbox           |
|  \\    /   O peration     | Version:  2312                                  |
|   \\  /    A nd           | Website:  www.openfoam.com                      |
|    \\/     M anipulation  |                                                 |
\*---------------------------------------------------------------------------*/
FoamFile
{
    version     2.0;
    format      ascii;
    arch        "LSB;label=32;scalar=64";
    class       volVectorField;
    location    "0.7";
    object      D_0_0_0;
}
// * * * * * * * * * * * * * * * * * * * * * * * * * * * * * * * * * * * * * //

dimensions      [0 1 0 0 0 0 0];

internalField   nonuniform List<vector> 
1620
(
(0.000487994 -9.46441e-05 0.000111055)
(0.000419704 -0.000140906 -2.00366e-05)
(0.000345556 -0.000203418 -0.00011086)
(0.000278899 -0.000241081 -0.000155499)
(0.000227126 -0.000247955 -0.000168787)
(0.000192957 -0.000233797 -0.000163209)
(0.000175052 -0.000207431 -0.00014597)
(0.00016799 -0.000172434 -0.000121972)
(0.000163309 -0.000129378 -9.48441e-05)
(0.000151436 -7.83245e-05 -6.65582e-05)
(0.000123453 -1.96297e-05 -3.69023e-05)
(7.21426e-05 4.60551e-05 -3.16322e-06)
(-7.45687e-06 0.000116542 3.98282e-05)
(-0.000116727 0.000184031 9.81651e-05)
(-0.000249348 0.00023038 0.000172934)
(-0.000384936 0.000231066 0.00024785)
(-0.000488168 0.000178237 0.000280619)
(-0.000522843 0.00011164 0.00022982)
(-0.000487994 9.46441e-05 0.000111055)
(-0.000419704 0.000140906 -2.00366e-05)
(-0.000345556 0.000203418 -0.00011086)
(-0.000278899 0.000241081 -0.000155499)
(-0.000227126 0.000247955 -0.000168787)
(-0.000192957 0.000233797 -0.000163209)
(-0.000175052 0.000207431 -0.00014597)
(-0.00016799 0.000172434 -0.000121972)
(-0.000163309 0.000129378 -9.48441e-05)
(-0.000151436 7.83245e-05 -6.65582e-05)
(-0.000123453 1.96297e-05 -3.69023e-05)
(-7.21426e-05 -4.60551e-05 -3.16322e-06)
(7.45686e-06 -0.000116542 3.98282e-05)
(0.000116727 -0.000184031 9.81651e-05)
(0.000249348 -0.00023038 0.000172934)
(0.000384936 -0.000231066 0.00024785)
(0.000488168 -0.000178237 0.000280619)
(0.000522843 -0.00011164 0.00022982)
(0.00040067 -0.000188535 7.39674e-05)
(0.000409729 -0.000214367 1.92257e-05)
(0.000402179 -0.000219254 -2.70619e-05)
(0.000378395 -0.000196175 -6.28772e-05)
(0.000341662 -0.000155707 -9.07492e-05)
(0.000298589 -0.000110888 -0.000109845)
(0.000255594 -6.88876e-05 -0.00011845)
(0.000215437 -3.09103e-05 -0.000116389)
(0.000176584 4.52198e-06 -0.000104783)
(0.000134815 3.87753e-05 -8.49834e-05)
(8.55382e-05 7.19422e-05 -5.80154e-05)
(2.5859e-05 0.00010298 -2.46065e-05)
(-4.42281e-05 0.000130268 1.44475e-05)
(-0.000121772 0.000151657 5.74336e-05)
(-0.000201418 0.000164191 9.97981e-05)
(-0.000275755 0.000165921 0.00013183)
(-0.000336104 0.000161769 0.000140558)
(-0.000377012 0.00016714 0.000119652)
(-0.00040067 0.000188535 7.39674e-05)
(-0.000409729 0.000214367 1.92257e-05)
(-0.000402179 0.000219254 -2.70619e-05)
(-0.000378395 0.000196175 -6.28772e-05)
(-0.000341662 0.000155707 -9.07492e-05)
(-0.000298589 0.000110888 -0.000109845)
(-0.000255594 6.88876e-05 -0.00011845)
(-0.000215437 3.09103e-05 -0.000116389)
(-0.000176584 -4.52198e-06 -0.000104783)
(-0.000134815 -3.87753e-05 -8.49834e-05)
(-8.55382e-05 -7.19422e-05 -5.80154e-05)
(-2.5859e-05 -0.00010298 -2.46065e-05)
(4.42281e-05 -0.000130268 1.44475e-05)
(0.000121772 -0.000151657 5.74336e-05)
(0.000201418 -0.000164191 9.97981e-05)
(0.000275755 -0.000165921 0.00013183)
(0.000336104 -0.000161769 0.000140558)
(0.000377012 -0.00016714 0.000119652)
(0.000286185 -0.000238386 3.26097e-05)
(0.000345555 -0.000260187 2.51569e-05)
(0.00039298 -0.000232634 1.04332e-05)
(0.00041674 -0.000169406 -1.69886e-05)
(0.000411384 -9.23133e-05 -5.33923e-05)
(0.000380165 -1.80098e-05 -8.88639e-05)
(0.000331043 4.47797e-05 -0.000114447)
(0.000271611 9.30111e-05 -0.000125327)
(0.000206893 0.00012631 -0.000120283)
(0.000139763 0.000144946 -0.000100413)
(7.24634e-05 0.000149157 -6.8681e-05)
(8.00201e-06 0.000139754 -3.01129e-05)
(-4.95424e-05 0.000119701 8.26988e-06)
(-9.63428e-05 9.58795e-05 3.86622e-05)
(-0.000131269 7.96133e-05 5.49577e-05)
(-0.000158041 8.45716e-05 5.59179e-05)
(-0.000186174 0.0001205 4.77034e-05)
(-0.000228354 0.000181417 3.94671e-05)
(-0.000286185 0.000238386 3.26097e-05)
(-0.000345555 0.000260187 2.51569e-05)
(-0.00039298 0.000232634 1.04332e-05)
(-0.00041674 0.000169406 -1.69886e-05)
(-0.000411384 9.23133e-05 -5.33923e-05)
(-0.000380165 1.80098e-05 -8.88639e-05)
(-0.000331043 -4.47797e-05 -0.000114447)
(-0.000271611 -9.30111e-05 -0.000125327)
(-0.000206893 -0.00012631 -0.000120283)
(-0.000139763 -0.000144946 -0.000100413)
(-7.24634e-05 -0.000149157 -6.86811e-05)
(-8.00201e-06 -0.000139754 -3.01129e-05)
(4.95424e-05 -0.000119701 8.26988e-06)
(9.63428e-05 -9.58795e-05 3.86622e-05)
(0.000131269 -7.96133e-05 5.49577e-05)
(0.000158041 -8.45716e-05 5.59179e-05)
(0.000186174 -0.0001205 4.77034e-05)
(0.000228354 -0.000181417 3.94671e-05)
(0.0012915 -0.000479751 0.000384691)
(0.00120476 -0.000596576 1.37494e-05)
(0.00107249 -0.000679296 -0.000275599)
(0.00092815 -0.000674841 -0.000458433)
(0.000790731 -0.000604062 -0.000552394)
(0.000673088 -0.000505563 -0.000578698)
(0.000582594 -0.000402484 -0.000556078)
(0.000515917 -0.000299959 -0.000501208)
(0.00045885 -0.00019469 -0.000426979)
(0.000390938 -8.27838e-05 -0.000340235)
(0.000291307 3.74448e-05 -0.000240464)
(0.000143464 0.000165941 -0.000119823)
(-6.16938e-05 0.000300725 3.46604e-05)
(-0.000323525 0.000432595 0.000234322)
(-0.000626285 0.000535691 0.00047339)
(-0.000930204 0.000569852 0.000703764)
(-0.00117248 0.000519145 0.000818786)
(-0.00129578 0.000449969 0.000703134)
(-0.0012915 0.000479751 0.000384691)
(-0.00120476 0.000596576 1.37494e-05)
(-0.00107249 0.000679296 -0.000275599)
(-0.00092815 0.000674841 -0.000458433)
(-0.000790731 0.000604062 -0.000552394)
(-0.000673088 0.000505563 -0.000578698)
(-0.000582594 0.000402484 -0.000556078)
(-0.000515917 0.000299959 -0.000501208)
(-0.00045885 0.00019469 -0.000426979)
(-0.000390938 8.27839e-05 -0.000340235)
(-0.000291307 -3.74448e-05 -0.000240464)
(-0.000143464 -0.000165941 -0.000119823)
(6.16938e-05 -0.000300725 3.46604e-05)
(0.000323525 -0.000432595 0.000234322)
(0.000626285 -0.000535691 0.00047339)
(0.000930204 -0.000569852 0.000703764)
(0.00117248 -0.000519145 0.000818786)
(0.00129578 -0.000449969 0.000703134)
(0.00114108 -0.000621276 0.000342709)
(0.00116418 -0.000696165 0.000143988)
(0.00114301 -0.000694823 -3.7289e-05)
(0.00107895 -0.000615204 -0.000188342)
(0.000979923 -0.000490348 -0.000302746)
(0.000863118 -0.00035484 -0.000375009)
(0.000744165 -0.000226982 -0.00040467)
(0.000629018 -0.000110776 -0.000396058)
(0.000513335 -4.18746e-06 -0.000354877)
(0.000386643 9.46316e-05 -0.000285373)
(0.000238053 0.00018506 -0.000189476)
(6.14348e-05 0.000264961 -6.77375e-05)
(-0.000141574 0.00033294 7.83897e-05)
(-0.00036165 0.000388997 0.000242878)
(-0.00058372 0.000432387 0.000409253)
(-0.00078866 0.000461961 0.000543096)
(-0.000956678 0.000486352 0.000591702)
(-0.00107344 0.000536073 0.000514176)
(-0.00114108 0.000621276 0.000342709)
(-0.00116418 0.000696165 0.000143988)
(-0.00114301 0.000694823 -3.7289e-05)
(-0.00107895 0.000615204 -0.000188342)
(-0.000979923 0.000490348 -0.000302746)
(-0.000863118 0.00035484 -0.000375009)
(-0.000744165 0.000226982 -0.00040467)
(-0.000629018 0.000110776 -0.000396058)
(-0.000513335 4.18747e-06 -0.000354877)
(-0.000386643 -9.46316e-05 -0.000285373)
(-0.000238053 -0.00018506 -0.000189476)
(-6.14348e-05 -0.000264961 -6.77375e-05)
(0.000141574 -0.00033294 7.83897e-05)
(0.00036165 -0.000388997 0.000242878)
(0.00058372 -0.000432387 0.000409253)
(0.00078866 -0.000461961 0.000543096)
(0.000956678 -0.000486352 0.000591702)
(0.00107344 -0.000536073 0.000514176)
(0.000915392 -0.000713099 0.000280723)
(0.00103354 -0.000769527 0.0002212)
(0.00112029 -0.000715632 0.000137137)
(0.00114585 -0.000582408 2.16607e-05)
(0.00110541 -0.000413092 -0.000103381)
(0.00101336 -0.000240425 -0.000210512)
(0.000887531 -8.17992e-05 -0.000281362)
(0.000740148 5.55296e-05 -0.000308011)
(0.000576627 0.000168465 -0.000289024)
(0.000398425 0.000254485 -0.000226439)
(0.000207237 0.000310646 -0.000125433)
(8.90631e-06 0.000335152 4.05507e-06)
(-0.000184825 0.000331306 0.000145606)
(-0.000358825 0.000312269 0.000276856)
(-0.000501442 0.000302702 0.000373764)
(-0.000611793 0.000332813 0.000417486)
(-0.000702647 0.000424055 0.000402479)
(-0.000797467 0.000572479 0.000346173)
(-0.000915392 0.000713099 0.000280723)
(-0.00103354 0.000769527 0.0002212)
(-0.00112029 0.000715632 0.000137137)
(-0.00114585 0.000582408 2.16607e-05)
(-0.00110541 0.000413092 -0.000103381)
(-0.00101336 0.000240425 -0.000210512)
(-0.000887531 8.17992e-05 -0.000281362)
(-0.000740148 -5.55296e-05 -0.000308011)
(-0.000576627 -0.000168465 -0.000289024)
(-0.000398425 -0.000254485 -0.000226439)
(-0.000207237 -0.000310646 -0.000125433)
(-8.90631e-06 -0.000335152 4.05507e-06)
(0.000184825 -0.000331306 0.000145606)
(0.000358825 -0.000312269 0.000276856)
(0.000501442 -0.000302702 0.000373764)
(0.000611793 -0.000332813 0.000417486)
(0.000702647 -0.000424055 0.000402479)
(0.000797467 -0.000572479 0.000346173)
(0.00197476 -0.00106752 0.000835904)
(0.00188436 -0.00118666 0.000202209)
(0.00170727 -0.00121479 -0.000344593)
(0.00149785 -0.00113432 -0.000731214)
(0.00128823 -0.000981055 -0.000960695)
(0.00109929 -0.000802696 -0.0010617)
(0.000942752 -0.000626767 -0.00106661)
(0.000816542 -0.000458788 -0.00100389)
(0.000703724 -0.000293189 -0.000894248)
(0.000577395 -0.00012301 -0.000747758)
(0.000408666 5.56618e-05 -0.000562256)
(0.000174705 0.00024368 -0.000324403)
(-0.00013548 0.000439496 -1.54794e-05)
(-0.000517791 0.000634919 0.000374935)
(-0.00094884 0.000805822 0.000824798)
(-0.00137898 0.000914596 0.00124834)
(-0.0017336 0.000948651 0.00148105)
(-0.00193723 0.000974584 0.00134513)
(-0.00197476 0.00106752 0.000835904)
(-0.00188436 0.00118666 0.000202209)
(-0.00170727 0.00121479 -0.000344593)
(-0.00149785 0.00113432 -0.000731214)
(-0.00128823 0.000981055 -0.000960695)
(-0.00109929 0.000802696 -0.0010617)
(-0.000942752 0.000626767 -0.00106661)
(-0.000816542 0.000458788 -0.00100389)
(-0.000703725 0.000293189 -0.000894248)
(-0.000577395 0.00012301 -0.000747758)
(-0.000408666 -5.56618e-05 -0.000562256)
(-0.000174705 -0.00024368 -0.000324403)
(0.00013548 -0.000439496 -1.54794e-05)
(0.000517791 -0.000634919 0.000374935)
(0.00094884 -0.000805822 0.000824798)
(0.00137898 -0.000914596 0.00124834)
(0.0017336 -0.000948651 0.00148105)
(0.00193723 -0.000974584 0.00134513)
(0.00177513 -0.00110518 0.000795029)
(0.00181348 -0.00118855 0.000413627)
(0.00177592 -0.00115955 3.82519e-05)
(0.00167226 -0.00102776 -0.000274965)
(0.00152081 -0.000834936 -0.000505879)
(0.00134576 -0.000624358 -0.000650168)
(0.00116574 -0.000420404 -0.000713608)
(0.000986872 -0.000230725 -0.000706751)
(0.000802926 -5.51285e-05 -0.000639527)
(0.000600178 0.000107403 -0.000517827)
(0.000364404 0.000255704 -0.000342939)
(8.78199e-05 0.000387294 -0.000114038)
(-0.000226453 0.000501241 0.000166252)
(-0.00056401 0.000599548 0.000483744)
(-0.000901873 0.000685455 0.000803559)
(-0.0012123 0.00076391 0.00106371)
(-0.00146944 0.000849435 0.00118105)
(-0.00165779 0.000965725 0.001085)
(-0.00177513 0.00110518 0.000795029)
(-0.00181348 0.00118855 0.000413627)
(-0.00177592 0.00115955 3.82519e-05)
(-0.00167226 0.00102776 -0.000274965)
(-0.00152081 0.000834936 -0.000505879)
(-0.00134576 0.000624358 -0.000650168)
(-0.00116574 0.000420404 -0.000713608)
(-0.000986872 0.000230725 -0.000706751)
(-0.000802926 5.51285e-05 -0.000639527)
(-0.000600178 -0.000107403 -0.000517827)
(-0.000364404 -0.000255704 -0.000342939)
(-8.78199e-05 -0.000387294 -0.000114038)
(0.000226453 -0.000501241 0.000166252)
(0.00056401 -0.000599548 0.000483744)
(0.000901873 -0.000685455 0.000803559)
(0.0012123 -0.00076391 0.00106371)
(0.00146944 -0.000849435 0.00118105)
(0.00165779 -0.000965725 0.001085)
(0.00146086 -0.00111723 0.000701939)
(0.00162012 -0.0011941 0.000546958)
(0.00172481 -0.00113533 0.00034633)
(0.00174054 -0.000968333 0.000118356)
(0.00166921 -0.000742558 -0.000100753)
(0.00153198 -0.000499412 -0.000276165)
(0.00135001 -0.000263399 -0.000386953)
(0.00113593 -4.74616e-05 -0.000425128)
(0.000894497 0.000140504 -0.000389676)
(0.00062675 0.000294098 -0.000282828)
(0.000334951 0.000407658 -0.000110322)
(2.70829e-05 0.00047804 0.000115094)
(-0.000280835 0.000509015 0.000369078)
(-0.000567078 0.000517135 0.000614187)
(-0.000812379 0.000534093 0.000806582)
(-0.0010095 0.000597717 0.000911144)
(-0.00116712 0.000729625 0.000914629)
(-0.00130598 0.000925216 0.000828742)
(-0.00146086 0.00111723 0.000701939)
(-0.00162012 0.0011941 0.000546958)
(-0.00172481 0.00113533 0.00034633)
(-0.00174054 0.000968333 0.000118356)
(-0.00166921 0.000742558 -0.000100753)
(-0.00153198 0.000499412 -0.000276165)
(-0.00135001 0.000263399 -0.000386953)
(-0.00113593 4.74616e-05 -0.000425128)
(-0.000894497 -0.000140504 -0.000389676)
(-0.00062675 -0.000294098 -0.000282828)
(-0.000334951 -0.000407658 -0.000110322)
(-2.70829e-05 -0.00047804 0.000115094)
(0.000280835 -0.000509015 0.000369078)
(0.000567078 -0.000517135 0.000614187)
(0.000812379 -0.000534093 0.000806582)
(0.0010095 -0.000597717 0.000911144)
(0.00116712 -0.000729625 0.000914629)
(0.00130598 -0.000925216 0.000828742)
(0.00248337 -0.00176111 0.00135014)
(0.00239557 -0.00182721 0.000524151)
(0.00219087 -0.00178014 -0.000258005)
(0.00193545 -0.0016296 -0.000859182)
(0.00167682 -0.00141172 -0.00124715)
(0.00143996 -0.00116962 -0.0014505)
(0.00123462 -0.000929906 -0.00151237)
(0.00105729 -0.000699361 -0.00146946)
(0.000890512 -0.000473181 -0.00134639)
(0.000706243 -0.000243909 -0.00115378)
(0.000473673 -6.64426e-06 -0.000887692)
(0.000168503 0.000240037 -0.000532307)
(-0.000219743 0.000494863 -6.93688e-05)
(-0.000683703 0.000751647 0.00050228)
(-0.00119492 0.000994616 0.00113745)
(-0.00170048 0.00120512 0.00171825)
(-0.00212702 0.00139052 0.00205572)
(-0.00239833 0.00159132 0.0019493)
(-0.00248337 0.00176111 0.00135014)
(-0.00239557 0.00182721 0.000524151)
(-0.00219087 0.00178014 -0.000258005)
(-0.00193545 0.0016296 -0.000859182)
(-0.00167682 0.00141172 -0.00124715)
(-0.00143996 0.00116962 -0.0014505)
(-0.00123462 0.000929906 -0.00151237)
(-0.00105729 0.000699361 -0.00146946)
(-0.000890512 0.000473181 -0.00134639)
(-0.000706243 0.000243909 -0.00115378)
(-0.000473673 6.64427e-06 -0.000887692)
(-0.000168503 -0.000240037 -0.000532307)
(0.000219743 -0.000494863 -6.93688e-05)
(0.000683703 -0.000751647 0.00050228)
(0.00119492 -0.000994616 0.00113745)
(0.00170048 -0.00120512 0.00171825)
(0.00212702 -0.00139052 0.00205572)
(0.00239833 -0.00159132 0.0019493)
(0.00226907 -0.00159533 0.00128407)
(0.00230634 -0.00166889 0.000754167)
(0.00224276 -0.00160823 0.000205645)
(0.00210222 -0.00143814 -0.0002653)
(0.0019122 -0.00120098 -0.000616981)
(0.00169836 -0.000938625 -0.000842357)
(0.00147691 -0.000676805 -0.000951675)
(0.00125163 -0.000426126 -0.000959753)
(0.00101506 -0.00018911 -0.000878837)
(0.000752843 3.37026e-05 -0.000715381)
(0.00045027 0.000240714 -0.000470201)
(9.92136e-05 0.000429629 -0.000142536)
(-0.000297007 0.000599864 0.000261428)
(-0.000722214 0.00075419 0.000716708)
(-0.001149 0.000898552 0.00116903)
(-0.00154322 0.00104375 0.00153437)
(-0.00187333 0.00120919 0.00171688)
(-0.00212062 0.00140915 0.00163962)
(-0.00226907 0.00159533 0.00128407)
(-0.00230634 0.00166889 0.000754167)
(-0.00224276 0.00160823 0.000205645)
(-0.00210222 0.00143814 -0.0002653)
(-0.0019122 0.00120098 -0.000616981)
(-0.00169836 0.000938625 -0.000842357)
(-0.00147691 0.000676805 -0.000951675)
(-0.00125163 0.000426126 -0.000959753)
(-0.00101506 0.00018911 -0.000878837)
(-0.000752843 -3.37026e-05 -0.000715381)
(-0.00045027 -0.000240714 -0.000470201)
(-9.92136e-05 -0.000429629 -0.000142536)
(0.000297007 -0.000599864 0.000261428)
(0.000722214 -0.00075419 0.000716708)
(0.001149 -0.000898552 0.00116903)
(0.00154322 -0.00104375 0.00153437)
(0.00187333 -0.00120919 0.00171688)
(0.00212062 -0.00140915 0.00163962)
(0.00196468 -0.00145726 0.00115591)
(0.00210382 -0.00154362 0.000906452)
(0.00217891 -0.00148354 0.000598065)
(0.00216374 -0.00130279 0.000270297)
(0.00206121 -0.00104882 -3.16353e-05)
(0.00189094 -0.000764183 -0.000267507)
(0.00167172 -0.000476409 -0.00041415)
(0.00141374 -0.000202106 -0.000463455)
(0.00112011 4.71178e-05 -0.000414962)
(0.00079142 0.000261885 -0.000271492)
(0.000430271 0.000434963 -3.97028e-05)
(4.48026e-05 0.000562955 0.000265151)
(-0.00034927 0.000649805 0.00061229)
(-0.000729631 0.000711921 0.000951867)
(-0.00107337 0.000780208 0.0012237)
(-0.00136574 0.000889754 0.00137999)
(-0.00160496 0.00105718 0.00140638)
(-0.00180048 0.00126476 0.00132256)
(-0.00196468 0.00145726 0.00115591)
(-0.00210382 0.00154362 0.000906452)
(-0.00217891 0.00148354 0.000598065)
(-0.00216374 0.00130279 0.000270297)
(-0.00206121 0.00104882 -3.16353e-05)
(-0.00189094 0.000764183 -0.000267507)
(-0.00167172 0.000476409 -0.00041415)
(-0.00141374 0.000202106 -0.000463455)
(-0.00112011 -4.71178e-05 -0.000414962)
(-0.00079142 -0.000261885 -0.000271492)
(-0.000430271 -0.000434963 -3.97028e-05)
(-4.48026e-05 -0.000562955 0.000265151)
(0.00034927 -0.000649805 0.00061229)
(0.000729631 -0.000711921 0.000951867)
(0.00107337 -0.000780208 0.0012237)
(0.00136574 -0.000889754 0.00137999)
(0.00160496 -0.00105718 0.00140638)
(0.00180048 -0.00126476 0.00132256)
(0.00280103 -0.00226871 0.00179129)
(0.00273134 -0.00235291 0.000910539)
(0.00251308 -0.0022923 -2.52621e-05)
(0.00222855 -0.00211924 -0.00080108)
(0.001941 -0.00187354 -0.00133673)
(0.00167747 -0.00159412 -0.00164847)
(0.00144205 -0.00130739 -0.0017819)
(0.0012272 -0.00102346 -0.00177695)
(0.00101535 -0.000740989 -0.00165923)
(0.000780694 -0.000454535 -0.00143919)
(0.000495372 -0.000159618 -0.00111317)
(0.000137666 0.000145715 -0.000667709)
(-0.000301019 0.000461228 -9.06249e-05)
(-0.000811686 0.000783389 0.000606696)
(-0.00136402 0.00110451 0.00135787)
(-0.00190472 0.00141977 0.00202135)
(-0.00236341 0.00173506 0.00240391)
(-0.00267453 0.00204023 0.00234)
(-0.00280103 0.00226871 0.00179129)
(-0.00273134 0.00235291 0.000910539)
(-0.00251308 0.0022923 -2.52621e-05)
(-0.00222855 0.00211924 -0.000801079)
(-0.001941 0.00187354 -0.00133673)
(-0.00167747 0.00159412 -0.00164847)
(-0.00144205 0.00130739 -0.0017819)
(-0.0012272 0.00102346 -0.00177695)
(-0.00101535 0.000740989 -0.00165923)
(-0.000780694 0.000454535 -0.00143919)
(-0.000495372 0.000159618 -0.00111317)
(-0.000137666 -0.000145715 -0.000667709)
(0.000301019 -0.000461228 -9.0625e-05)
(0.000811686 -0.000783389 0.000606696)
(0.00136402 -0.00110451 0.00135787)
(0.00190472 -0.00141977 0.00202135)
(0.00236341 -0.00173506 0.00240391)
(0.00267453 -0.00204023 0.00234)
(0.00258938 -0.00196662 0.00165419)
(0.00261721 -0.00204638 0.00108548)
(0.00253063 -0.0019878 0.000439861)
(0.00236213 -0.00181375 -0.000147459)
(0.00214771 -0.0015639 -0.00060167)
(0.00191226 -0.001277 -0.00090408)
(0.00166719 -0.000979382 -0.00106361)
(0.00141284 -0.000684532 -0.00109585)
(0.00114088 -0.000398 -0.00101364)
(0.000837932 -0.000122275 -0.000823965)
(0.000490831 0.000140583 -0.000528846)
(9.22e-05 0.000388805 -0.000130307)
(-0.000355221 0.00062231 0.000359858)
(-0.000836061 0.00084387 0.000906894)
(-0.00132175 0.00106006 0.0014427)
(-0.0017744 0.00128297 0.00186931)
(-0.00215561 0.00152519 0.00208263)
(-0.00243425 0.00177284 0.0020109)
(-0.00258938 0.00196662 0.00165419)
(-0.00261721 0.00204638 0.00108548)
(-0.00253063 0.0019878 0.000439861)
(-0.00236213 0.00181375 -0.000147459)
(-0.00214771 0.0015639 -0.00060167)
(-0.00191226 0.001277 -0.00090408)
(-0.00166719 0.000979382 -0.00106361)
(-0.00141284 0.000684532 -0.00109585)
(-0.00114088 0.000398 -0.00101364)
(-0.000837932 0.000122275 -0.000823965)
(-0.000490831 -0.000140583 -0.000528846)
(-9.22e-05 -0.000388805 -0.000130307)
(0.000355221 -0.00062231 0.000359858)
(0.000836061 -0.00084387 0.000906894)
(0.00132175 -0.00106006 0.0014427)
(0.0017744 -0.00128297 0.00186931)
(0.00215561 -0.00152519 0.00208263)
(0.00243425 -0.00177284 0.0020109)
(0.00234645 -0.00172551 0.00148839)
(0.00243832 -0.00179335 0.00120144)
(0.00246364 -0.0017371 0.000842264)
(0.0024105 -0.00156362 0.000453327)
(0.00228021 -0.00130831 9.25375e-05)
(0.00208722 -0.00100994 -0.000190428)
(0.00184587 -0.000696624 -0.000367354)
(0.00156322 -0.000386862 -0.000428351)
(0.00124069 -9.43448e-05 -0.000373036)
(0.000878334 0.000169996 -0.000205382)
(0.000478513 0.000398482 6.59751e-05)
(4.804e-05 0.000588061 0.000422696)
(-0.000400313 0.000742275 0.000828904)
(-0.000846952 0.000874505 0.00122705)
(-0.00126798 0.00100893 0.00154865)
(-0.00164155 0.00117066 0.00174008)
(-0.00195203 0.00136588 0.00178222)
(-0.00218828 0.00156757 0.0016883)
(-0.00234645 0.00172551 0.00148839)
(-0.00243832 0.00179335 0.00120144)
(-0.00246364 0.0017371 0.000842264)
(-0.0024105 0.00156362 0.000453327)
(-0.00228021 0.00130831 9.25375e-05)
(-0.00208722 0.00100994 -0.000190428)
(-0.00184587 0.000696624 -0.000367354)
(-0.00156322 0.000386862 -0.000428351)
(-0.00124069 9.43448e-05 -0.000373036)
(-0.000878334 -0.000169996 -0.000205382)
(-0.000478513 -0.000398482 6.59751e-05)
(-4.80401e-05 -0.000588061 0.000422696)
(0.000400313 -0.000742275 0.000828904)
(0.000846952 -0.000874505 0.00122705)
(0.00126798 -0.00100893 0.00154865)
(0.00164155 -0.00117066 0.00174008)
(0.00195203 -0.00136588 0.00178222)
(0.00218828 -0.00156757 0.0016883)
(0.00291745 -0.00257532 0.00204156)
(0.00286854 -0.00270961 0.00121574)
(0.00266226 -0.00269013 0.000258955)
(0.00237466 -0.00254523 -0.000601645)
(0.00207759 -0.00231194 -0.00124076)
(0.0018033 -0.00202579 -0.00164426)
(0.0015528 -0.00171436 -0.00184671)
(0.00131453 -0.00139274 -0.00188491)
(0.00107075 -0.00106501 -0.00178353)
(0.000799285 -0.000729508 -0.00155363)
(0.00047763 -0.000383264 -0.00119482)
(8.87635e-05 -2.38738e-05 -0.000700116)
(-0.000373457 0.000349858 -6.70595e-05)
(-0.000899492 0.000736327 0.000680828)
(-0.00145892 0.00113101 0.00146532)
(-0.00199953 0.00153059 0.00214277)
(-0.00245742 0.00192911 0.00253917)
(-0.00277612 0.0022968 0.00251738)
(-0.00291745 0.00257532 0.00204156)
(-0.00286854 0.00270961 0.00121574)
(-0.00266226 0.00269013 0.000258955)
(-0.00237466 0.00254523 -0.000601645)
(-0.00207759 0.00231194 -0.00124076)
(-0.0018033 0.00202579 -0.00164426)
(-0.0015528 0.00171436 -0.00184671)
(-0.00131453 0.00139274 -0.00188491)
(-0.00107075 0.00106501 -0.00178353)
(-0.000799285 0.000729508 -0.00155363)
(-0.00047763 0.000383265 -0.00119482)
(-8.87635e-05 2.38738e-05 -0.000700116)
(0.000373456 -0.000349858 -6.70595e-05)
(0.000899492 -0.000736327 0.000680828)
(0.00145892 -0.00113101 0.00146532)
(0.00199953 -0.00153059 0.00214277)
(0.00245742 -0.00192911 0.00253917)
(0.00277612 -0.0022968 0.00251738)
(0.00272926 -0.00220511 0.00188853)
(0.00274759 -0.00230239 0.00133759)
(0.00264812 -0.00227102 0.000678091)
(0.00246636 -0.00212364 4.19802e-05)
(0.0022413 -0.0018908 -0.000475493)
(0.00199743 -0.00160579 -0.000836415)
(0.00174257 -0.00129482 -0.00104022)
(0.00147393 -0.000974191 -0.00109891)
(0.00118266 -0.000652769 -0.00102438)
(0.000857108 -0.000335359 -0.000824596)
(0.000486597 -2.47715e-05 -0.000504568)
(6.53068e-05 0.000277666 -7.14184e-05)
(-0.000404434 0.000572252 0.000456386)
(-0.000908672 0.000860741 0.00103691)
(-0.00141878 0.00114673 0.00159654)
(-0.00189384 0.00143594 0.00203757)
(-0.00229079 0.0017281 0.00226483)
(-0.00257589 0.0019995 0.00221695)
(-0.00272926 0.00220511 0.00188853)
(-0.00274759 0.00230239 0.00133759)
(-0.00264812 0.00227102 0.000678091)
(-0.00246636 0.00212364 4.19803e-05)
(-0.0022413 0.0018908 -0.000475493)
(-0.00199743 0.00160579 -0.000836415)
(-0.00174257 0.00129482 -0.00104022)
(-0.00147393 0.000974191 -0.00109891)
(-0.00118266 0.000652769 -0.00102438)
(-0.000857108 0.000335359 -0.000824596)
(-0.000486597 2.47715e-05 -0.000504568)
(-6.53068e-05 -0.000277666 -7.14184e-05)
(0.000404434 -0.000572252 0.000456386)
(0.000908672 -0.000860741 0.00103691)
(0.00141878 -0.00114673 0.00159654)
(0.00189384 -0.00143594 0.00203757)
(0.00229079 -0.0017281 0.00226483)
(0.00257589 -0.0019995 0.00221695)
(0.0025444 -0.00190452 0.00171837)
(0.00260409 -0.00195549 0.00141946)
(0.00258803 -0.00190517 0.00104625)
(0.00250149 -0.00175162 0.00063754)
(0.00234966 -0.0015153 0.00025034)
(0.00214309 -0.00122605 -5.97013e-05)
(0.00189161 -0.000909568 -0.000257552)
(0.00159936 -0.000584781 -0.000329489)
(0.00126637 -0.000266436 -0.000274202)
(0.0008922 3.38783e-05 -9.68161e-05)
(0.000478643 0.000308519 0.000191443)
(3.08265e-05 0.000554626 0.000568721)
(-0.000441491 0.000774474 0.000995264)
(-0.000921471 0.000976411 0.0014106)
(-0.00138462 0.00117432 0.00174629)
(-0.00180225 0.00137953 0.00195088)
(-0.00214627 0.00158739 0.00200574)
(-0.00239543 0.00177297 0.00192073)
(-0.0025444 0.00190452 0.00171837)
(-0.00260409 0.00195549 0.00141946)
(-0.00258803 0.00190517 0.00104625)
(-0.00250149 0.00175162 0.00063754)
(-0.00234966 0.0015153 0.00025034)
(-0.00214309 0.00122605 -5.97013e-05)
(-0.00189161 0.000909568 -0.000257552)
(-0.00159936 0.000584781 -0.000329489)
(-0.00126637 0.000266436 -0.000274202)
(-0.0008922 -3.38782e-05 -9.68161e-05)
(-0.000478643 -0.000308519 0.000191443)
(-3.08265e-05 -0.000554626 0.000568721)
(0.000441491 -0.000774474 0.000995264)
(0.000921471 -0.000976411 0.0014106)
(0.00138462 -0.00117432 0.00174629)
(0.00180225 -0.00137953 0.00195088)
(0.00214627 -0.00158739 0.00200574)
(0.00239543 -0.00177297 0.00192073)
(0.00285474 -0.00271517 0.00211208)
(0.00282079 -0.0029081 0.00139034)
(0.00264123 -0.00295514 0.000507712)
(0.00237541 -0.0028694 -0.000342149)
(0.00208868 -0.00267812 -0.00102042)
(0.00181679 -0.0024122 -0.00148075)
(0.00156257 -0.0020996 -0.00173575)
(0.00131336 -0.00175987 -0.00181242)
(0.00105204 -0.00140289 -0.00173229)
(0.000760395 -0.0010315 -0.00150761)
(0.000421559 -0.000644942 -0.0011429)
(2.3462e-05 -0.000240998 -0.000639509)
(-0.000437374 0.000181967 -5.09583e-06)
(-0.000950651 0.000622361 0.000727837)
(-0.00148634 0.00107488 0.00147949)
(-0.00199536 0.00153258 0.00211949)
(-0.0024219 0.00198214 0.00249972)
(-0.00271875 0.00239221 0.00250729)
(-0.00285474 0.00271517 0.00211208)
(-0.00282079 0.0029081 0.00139034)
(-0.00264123 0.00295514 0.000507712)
(-0.00237541 0.0028694 -0.000342149)
(-0.00208868 0.00267812 -0.00102042)
(-0.00181679 0.0024122 -0.00148075)
(-0.00156257 0.0020996 -0.00173575)
(-0.00131336 0.00175987 -0.00181242)
(-0.00105204 0.00140289 -0.00173229)
(-0.000760395 0.0010315 -0.00150761)
(-0.000421559 0.000644942 -0.0011429)
(-2.3462e-05 0.000240998 -0.000639509)
(0.000437374 -0.000181967 -5.09585e-06)
(0.000950651 -0.000622361 0.000727837)
(0.00148634 -0.00107488 0.00147949)
(0.00199536 -0.00153258 0.00211949)
(0.0024219 -0.00198214 0.00249972)
(0.00271875 -0.00239221 0.00250729)
(0.00269722 -0.00232124 0.00198446)
(0.00271068 -0.00244689 0.00149022)
(0.00261198 -0.0024563 0.000875298)
(0.00243348 -0.00235338 0.000252839)
(0.00221155 -0.00215783 -0.000280399)
(0.00197015 -0.0018957 -0.000671059)
(0.00171604 -0.00159132 -0.000904822)
(0.0014451 -0.00126293 -0.000986305)
(0.00114862 -0.000922449 -0.000924846)
(0.000816931 -0.00057708 -0.00072931)
(0.000442081 -0.000230702 -0.000408474)
(2.0148e-05 0.000115182 2.47775e-05)
(-0.000446121 0.000460273 0.000545947)
(-0.000943125 0.000803909 0.00110971)
(-0.00144246 0.0011448 0.00164543)
(-0.00190359 0.00148119 0.00206634)
(-0.00228485 0.00180562 0.00229109)
(-0.00255495 0.00209673 0.00226642)
(-0.00269722 0.00232124 0.00198446)
(-0.00271068 0.00244689 0.00149022)
(-0.00261198 0.0024563 0.000875298)
(-0.00243348 0.00235338 0.000252839)
(-0.00221155 0.00215783 -0.000280399)
(-0.00197015 0.0018957 -0.000671059)
(-0.00171604 0.00159132 -0.000904822)
(-0.0014451 0.00126293 -0.000986305)
(-0.00114862 0.00092245 -0.000924846)
(-0.000816931 0.00057708 -0.00072931)
(-0.000442081 0.000230702 -0.000408474)
(-2.0148e-05 -0.000115182 2.47775e-05)
(0.000446121 -0.000460273 0.000545947)
(0.000943125 -0.000803909 0.00110971)
(0.00144246 -0.0011448 0.00164543)
(0.00190359 -0.00148119 0.00206634)
(0.00228485 -0.00180562 0.00229109)
(0.00255495 -0.00209673 0.00226642)
(0.00256966 -0.00199701 0.00183826)
(0.00261019 -0.00204478 0.00155587)
(0.00257026 -0.00200665 0.00119864)
(0.0024633 -0.00187949 0.000802688)
(0.00229933 -0.00167372 0.000419754)
(0.00208798 -0.00140899 0.000105164)
(0.00183619 -0.00110598 -0.000101306)
(0.001546 -0.00078258 -0.000181385)
(0.00121649 -0.000453793 -0.000131838)
(0.000846933 -0.000131385 4.16227e-05)
(0.000438616 0.000176997 0.000325372)
(-4.48444e-06 0.000467986 0.000694365)
(-0.000474175 0.000741498 0.00110673)
(-0.000954781 0.000999879 0.00150389)
(-0.00142151 0.00124683 0.00182463)
(-0.00184311 0.00148263 0.00202544)
(-0.00218778 0.00169818 0.00208973)
(-0.00243214 0.00187595 0.00202229)
(-0.00256966 0.00199701 0.00183826)
(-0.00261019 0.00204478 0.00155587)
(-0.00257026 0.00200665 0.00119864)
(-0.0024633 0.00187949 0.000802688)
(-0.00229933 0.00167372 0.000419754)
(-0.00208798 0.00140899 0.000105164)
(-0.00183619 0.00110598 -0.000101306)
(-0.001546 0.00078258 -0.000181385)
(-0.00121649 0.000453793 -0.000131838)
(-0.000846933 0.000131385 4.16226e-05)
(-0.000438616 -0.000176997 0.000325372)
(4.4844e-06 -0.000467986 0.000694365)
(0.000474175 -0.000741498 0.00110673)
(0.000954781 -0.000999879 0.00150389)
(0.00142151 -0.00124683 0.00182463)
(0.00184311 -0.00148263 0.00202544)
(0.00218778 -0.00169818 0.00208973)
(0.00243214 -0.00187595 0.00202229)
(0.00264762 -0.00273116 0.00203452)
(0.00262182 -0.00297867 0.0014347)
(0.00247305 -0.00309353 0.000675593)
(0.0022437 -0.00307579 -9.34507e-05)
(0.00198383 -0.00294088 -0.000747039)
(0.00172647 -0.00271338 -0.00122049)
(0.00147807 -0.00241964 -0.001503)
(0.00122861 -0.00208149 -0.00160732)
(0.000963375 -0.00171314 -0.00154941)
(0.000668034 -0.00132152 -0.00134187)
(0.000330631 -0.000908414 -0.00099389)