/*--------------------------------*- C++ -*----------------------------------*\
| =========                 |                                                 |
| \\      /  F ield         | OpenFOAM: The Open Source CFD Toolbox           |
|  \\    /   O peration     | Version:  2312                                  |
|   \\  /    A nd           | Website:  www.openfoam.com                      |
|    \\/     M anipulation  |                                                 |
\*---------------------------------------------------------------------------*/
FoamFile
{
    version     2.0;
    format      ascii;
    arch        "LSB;label=32;scalar=64";
    class       volTensorField;
    location    "0.7";
    object      F;
}
// * * * * * * * * * * * * * * * * * * * * * * * * * * * * * * * * * * * * * //

dimensions      [0 0 0 0 0 0 0];

internalField   nonuniform List<tensor> 
1620
(
(1.09216 -0.0250887 -0.414883 0.0984157 0.999065 0.20752 0.0452099 -0.0773783 0.85927)
(1.02067 -0.0411718 -0.412095 0.0815588 0.98545 0.243604 -0.0227418 -0.0803783 0.981463)
(0.96523 -0.0652723 -0.387507 0.0265844 0.976939 0.249327 -0.0622959 -0.0770854 1.08376)
(0.937086 -0.0898032 -0.350298 -0.0311143 0.961125 0.221309 -0.0693824 -0.0709135 1.15627)
(0.935524 -0.103098 -0.3062 -0.0692944 0.934431 0.175749 -0.0564243 -0.0591895 1.19964)
(0.950871 -0.09914 -0.261079 -0.0829649 0.904323 0.12851 -0.038417 -0.0410454 1.2177)
(0.971935 -0.0791585 -0.220371 -0.0775138 0.879909 0.0869543 -0.0244962 -0.0199414 1.2161)
(0.990878 -0.048837 -0.185941 -0.0612057 0.86666 0.0515321 -0.0175754 -0.000828733 1.20089)
(1.00412 -0.0147754 -0.15531 -0.0413686 0.866025 0.0199104 -0.0168749 0.0124227 1.17688)
(1.01135 0.0174376 -0.123118 -0.023714 0.877139 -0.0101494 -0.0200973 0.0179523 1.14664)
(1.01455 0.0435267 -0.0833836 -0.0129909 0.898341 -0.0397328 -0.0250286 0.0161458 1.11008)
(1.01784 0.0601481 -0.0316245 -0.013294 0.927608 -0.0691063 -0.0310918 0.00951773 1.06461)
(1.02753 0.064961 0.0337886 -0.0264845 0.962018 -0.0985196 -0.040629 0.00206669 1.00634)
(1.05054 0.0576609 0.111279 -0.0482827 0.997148 -0.127898 -0.0585732 -0.00165059 0.93282)
(1.08926 0.0410869 0.195918 -0.0647105 1.02705 -0.154486 -0.0884962 0.00290422 0.847927)
(1.13456 0.0206242 0.278668 -0.0551067 1.04453 -0.171572 -0.124079 0.019066 0.768119)
(1.16404 0.000990755 0.347444 -0.00716893 1.04223 -0.175635 -0.14114 0.0436417 0.725801)
(1.15075 -0.0137363 0.393994 0.0604198 1.02202 -0.17939 -0.11098 0.0649175 0.758151)
(1.09216 -0.0250887 0.414883 0.0984157 0.999065 -0.20752 -0.0452099 0.0773783 0.85927)
(1.02067 -0.0411718 0.412095 0.0815588 0.98545 -0.243604 0.0227418 0.0803783 0.981463)
(0.96523 -0.0652723 0.387507 0.0265844 0.976939 -0.249327 0.0622959 0.0770854 1.08376)
(0.937086 -0.0898032 0.350298 -0.0311143 0.961125 -0.221309 0.0693824 0.0709135 1.15627)
(0.935524 -0.103098 0.3062 -0.0692944 0.934431 -0.175749 0.0564243 0.0591895 1.19964)
(0.950871 -0.09914 0.261079 -0.0829649 0.904323 -0.12851 0.038417 0.0410454 1.2177)
(0.971935 -0.0791585 0.220371 -0.0775138 0.879909 -0.0869543 0.0244962 0.0199414 1.2161)
(0.990878 -0.048837 0.185941 -0.0612057 0.86666 -0.0515321 0.0175754 0.000828733 1.20089)
(1.00412 -0.0147754 0.15531 -0.0413686 0.866025 -0.0199104 0.0168749 -0.0124227 1.17688)
(1.01135 0.0174376 0.123118 -0.023714 0.877139 0.0101494 0.0200973 -0.0179523 1.14664)
(1.01455 0.0435267 0.0833836 -0.0129909 0.898341 0.0397328 0.0250286 -0.0161458 1.11008)
(1.01784 0.0601481 0.0316245 -0.013294 0.927608 0.0691063 0.0310918 -0.00951773 1.06461)
(1.02753 0.064961 -0.0337886 -0.0264845 0.962018 0.0985196 0.040629 -0.00206669 1.00634)
(1.05054 0.0576609 -0.111279 -0.0482827 0.997148 0.127898 0.0585732 0.00165059 0.93282)
(1.08926 0.0410869 -0.195918 -0.0647105 1.02705 0.154486 0.0884962 -0.00290422 0.847927)
(1.13456 0.0206242 -0.278668 -0.0551067 1.04453 0.171572 0.124079 -0.019066 0.768119)
(1.16404 0.000990755 -0.347444 -0.00716893 1.04223 0.175635 0.14114 -0.0436417 0.725801)
(1.15075 -0.0137363 -0.393994 0.0604198 1.02202 0.17939 0.11098 -0.0649175 0.758151)
(1.10133 0.0208185 -0.382279 0.0757338 0.989592 0.231401 0.0435651 -0.0329928 0.86108)
(1.03495 0.0103497 -0.395316 0.0616283 1.00484 0.256625 -0.0145059 -0.041904 0.933739)
(0.980789 -0.0208773 -0.393403 0.00959249 1.0115 0.249579 -0.0461086 -0.054187 1.00305)
(0.952743 -0.0591984 -0.375921 -0.0445079 0.996646 0.215253 -0.0470869 -0.0607675 1.06375)
(0.951941 -0.0882934 -0.344834 -0.0789749 0.964269 0.166994 -0.0314153 -0.0549114 1.1104)
(0.969148 -0.0977433 -0.305884 -0.0894019 0.926421 0.116591 -0.0146363 -0.0376769 1.13976)
(0.992561 -0.0864369 -0.264395 -0.0807387 0.894224 0.0698537 -0.00513787 -0.015848 1.15209)
(1.0133 -0.0597992 -0.222579 -0.0605339 0.874671 0.0281521 -0.00442931 0.00325436 1.14957)
(1.02676 -0.0257081 -0.179468 -0.0360268 0.87079 -0.00884634 -0.0101227 0.0146822 1.13454)
(1.03204 0.00804051 -0.132235 -0.0135772 0.88282 -0.0413838 -0.0182961 0.0166696 1.10849)
(1.03106 0.0346691 -0.0780045 0.00105883 0.909113 -0.0690411 -0.0252648 0.010808 1.07192)
(1.02834 0.0487654 -0.0155471 0.00269819 0.946114 -0.0912384 -0.0294852 0.00181032 1.02491)
(1.03099 0.0472506 0.0537844 -0.0117279 0.987375 -0.108314 -0.0333276 -0.00379149 0.968139)
(1.04726 0.0315302 0.126318 -0.0391295 1.0228 -0.122097 -0.0431313 -0.000415421 0.904344)
(1.08153 0.00942397 0.197159 -0.0655935 1.04057 -0.135019 -0.0652884 0.0128003 0.840164)
(1.12659 -0.00647897 0.261252 -0.0677538 1.03356 -0.148985 -0.0970628 0.0289018 0.788335)
(1.16001 -0.00579015 0.314715 -0.0285118 1.00813 -0.166677 -0.117031 0.0359802 0.768492)
(1.15294 0.00967546 0.354993 0.0357353 0.987749 -0.194638 -0.0974107 0.0329733 0.797494)
(1.10133 0.0208185 0.382279 0.0757338 0.989592 -0.231401 -0.0435651 0.0329928 0.86108)
(1.03495 0.0103497 0.395316 0.0616283 1.00484 -0.256625 0.0145059 0.041904 0.933739)
(0.980789 -0.0208773 0.393403 0.00959249 1.0115 -0.249579 0.0461086 0.054187 1.00305)
(0.952743 -0.0591984 0.375921 -0.0445079 0.996646 -0.215253 0.0470869 0.0607675 1.06375)
(0.951941 -0.0882934 0.344834 -0.0789749 0.964269 -0.166994 0.0314153 0.0549114 1.1104)
(0.969148 -0.0977433 0.305884 -0.0894019 0.926421 -0.116591 0.0146363 0.0376769 1.13976)
(0.992561 -0.0864369 0.264395 -0.0807387 0.894224 -0.0698537 0.00513787 0.015848 1.15209)
(1.0133 -0.0597992 0.222579 -0.0605339 0.874671 -0.0281521 0.00442931 -0.00325436 1.14957)
(1.02676 -0.0257081 0.179468 -0.0360268 0.87079 0.00884634 0.0101227 -0.0146822 1.13454)
(1.03204 0.00804051 0.132235 -0.0135772 0.88282 0.0413838 0.0182961 -0.0166696 1.10849)
(1.03106 0.0346691 0.0780045 0.00105883 0.909113 0.0690411 0.0252648 -0.010808 1.07192)
(1.02834 0.0487654 0.0155471 0.00269819 0.946114 0.0912384 0.0294852 -0.00181032 1.02491)
(1.03099 0.0472506 -0.0537844 -0.0117279 0.987375 0.108314 0.0333276 0.00379149 0.968139)
(1.04726 0.0315302 -0.126318 -0.0391295 1.0228 0.122097 0.0431313 0.00041542 0.904344)
(1.08153 0.00942397 -0.197159 -0.0655935 1.04057 0.135019 0.0652884 -0.0128003 0.840164)
(1.12659 -0.00647897 -0.261252 -0.0677538 1.03356 0.148985 0.0970628 -0.0289018 0.788335)
(1.16001 -0.00579015 -0.314715 -0.0285118 1.00813 0.166677 0.117031 -0.0359802 0.768492)
(1.15294 0.00967546 -0.354993 0.0357353 0.987749 0.194638 0.0974107 -0.0329733 0.797494)
(1.11174 0.0581215 -0.323749 0.0514749 0.972304 0.252775 0.0429563 -0.00246739 0.871425)
(1.05182 0.0594308 -0.359162 0.0416629 1.01346 0.270802 -0.00350468 -0.010557 0.896384)
(0.996373 0.0308398 -0.384643 -0.00564433 1.03805 0.254289 -0.0275281 -0.0319712 0.931492)
(0.963744 -0.0157446 -0.389619 -0.0564229 1.0301 0.214129 -0.0236195 -0.04846 0.978139)
(0.960013 -0.060679 -0.373782 -0.0896384 0.997273 0.162537 -0.00647184 -0.0480297 1.02609)
(0.978568 -0.0874025 -0.342793 -0.0999072 0.954243 0.108199 0.00791878 -0.0320877 1.06532)
(1.00699 -0.0894529 -0.301942 -0.0897256 0.914055 0.0557554 0.0116426 -0.0100241 1.09043)
(1.03361 -0.0697834 -0.253981 -0.0646131 0.886482 0.0076076 0.00458679 0.00840639 1.09959)
(1.05064 -0.0369709 -0.199614 -0.0317641 0.877875 -0.0345731 -0.00887711 0.0169867 1.09252)
(1.05507 -0.00182846 -0.138681 0.000401051 0.890856 -0.0691315 -0.0225951 0.0141346 1.06966)
(1.04871 0.0250611 -0.0714795 0.022925 0.923856 -0.09431 -0.0308654 0.00313724 1.03218)
(1.03796 0.035584 -4.11577e-05 0.0276201 0.970461 -0.108792 -0.0311493 -0.00841731 0.982894)
(1.03268 0.0267319 0.0711835 0.00975494 1.01872 -0.113043 -0.0267884 -0.011311 0.927233)
(1.04318 0.00321613 0.136088 -0.0271689 1.05192 -0.111088 -0.0271244 -0.000138873 0.873547)
(1.0744 -0.0219623 0.189467 -0.0665876 1.05395 -0.111228 -0.0417985 0.0206667 0.831804)
(1.11926 -0.0312652 0.2299 -0.0810724 1.02093 -0.123706 -0.0695625 0.0359514 0.811053)
(1.15527 -0.012014 0.260674 -0.0502142 0.973643 -0.155355 -0.0906128 0.0316142 0.816303)
(1.15409 0.0276384 0.288889 0.00977621 0.951378 -0.205719 -0.0818305 0.0137582 0.841984)
(1.11174 0.0581215 0.323749 0.0514749 0.972304 -0.252775 -0.0429563 0.00246739 0.871425)
(1.05182 0.0594308 0.359162 0.0416629 1.01346 -0.270802 0.00350468 0.010557 0.896384)
(0.996373 0.0308398 0.384643 -0.00564433 1.03805 -0.254289 0.0275281 0.0319712 0.931492)
(0.963744 -0.0157446 0.389619 -0.0564229 1.0301 -0.214129 0.0236195 0.04846 0.978139)
(0.960013 -0.060679 0.373782 -0.0896383 0.997273 -0.162537 0.00647184 0.0480297 1.02609)
(0.978568 -0.0874025 0.342793 -0.0999072 0.954243 -0.108199 -0.00791878 0.0320877 1.06532)
(1.00699 -0.0894529 0.301942 -0.0897256 0.914055 -0.0557554 -0.0116426 0.0100241 1.09043)
(1.03361 -0.0697834 0.253981 -0.0646131 0.886482 -0.00760761 -0.00458679 -0.00840639 1.09959)
(1.05064 -0.0369709 0.199614 -0.0317641 0.877875 0.0345731 0.00887711 -0.0169867 1.09252)
(1.05507 -0.00182846 0.138681 0.000401051 0.890856 0.0691315 0.0225951 -0.0141346 1.06966)
(1.04871 0.0250611 0.0714795 0.022925 0.923856 0.09431 0.0308654 -0.00313724 1.03218)
(1.03796 0.035584 4.11599e-05 0.0276201 0.970461 0.108792 0.0311493 0.00841731 0.982894)
(1.03268 0.0267319 -0.0711835 0.00975494 1.01872 0.113043 0.0267884 0.011311 0.927233)
(1.04318 0.00321613 -0.136088 -0.0271689 1.05192 0.111088 0.0271244 0.000138873 0.873547)
(1.0744 -0.0219623 -0.189467 -0.0665876 1.05395 0.111228 0.0417985 -0.0206667 0.831804)
(1.11926 -0.0312652 -0.2299 -0.0810724 1.02093 0.123706 0.0695625 -0.0359514 0.811053)
(1.15527 -0.012014 -0.260674 -0.0502142 0.973643 0.155355 0.0906128 -0.0316142 0.816303)
(1.15409 0.0276384 -0.288889 0.00977622 0.951378 0.205719 0.0818305 -0.0137582 0.841984)
(1.15474 -0.0147989 -0.382009 0.15292 0.966495 0.2631 0.0604139 -0.215072 0.81094)
(1.05598 -0.0548083 -0.382759 0.114163 0.965135 0.280074 -0.0805367 -0.238632 0.935966)
(0.96946 -0.108641 -0.362149 0.022157 0.983865 0.265703 -0.163819 -0.240899 1.05167)
(0.922975 -0.161174 -0.329081 -0.0647909 0.985022 0.229553 -0.180432 -0.231878 1.14054)
(0.918575 -0.194732 -0.289535 -0.118946 0.957572 0.18374 -0.156335 -0.20792 1.19838)
(0.940844 -0.199044 -0.248613 -0.138184 0.913308 0.138153 -0.11993 -0.170473 1.22845)
(0.973883 -0.17375 -0.210267 -0.132155 0.868094 0.0973844 -0.0881371 -0.127904 1.23662)
(1.00706 -0.125211 -0.175941 -0.111234 0.832986 0.0618009 -0.0672182 -0.0902454 1.22855)
(1.0343 -0.0622435 -0.143975 -0.0833188 0.813924 0.0297968 -0.0568695 -0.0654628 1.2084)
(1.05259 0.00594521 -0.110355 -0.0550974 0.81384 -0.000394204 -0.0534952 -0.0577101 1.17817)
(1.06183 0.069975 -0.0703714 -0.0341203 0.833751 -0.0297699 -0.0531426 -0.0661935 1.13742)
(1.06587 0.120252 -0.0205312 -0.0291333 0.872105 -0.0586152 -0.0548123 -0.0847074 1.08368)
(1.07387 0.148337 0.0400479 -0.0463499 0.923437 -0.087191 -0.0631953 -0.10266 1.01392)
(1.09817 0.150002 0.109315 -0.0811978 0.978459 -0.11603 -0.0878532 -0.107551 0.927717)
(1.14563 0.127834 0.18277 -0.110861 1.02597 -0.145025 -0.135394 -0.0871174 0.831701)
(1.20542 0.0909511 0.253972 -0.0988777 1.05334 -0.172802 -0.195238 -0.0308027 0.74374)
(1.24544 0.0511279 0.315237 -0.0215105 1.04661 -0.199443 -0.229155 0.061213 0.693788)
(1.23136 0.0162652 0.358881 0.094509 1.0049 -0.230536 -0.18453 0.154994 0.714413)
(1.15474 -0.0147989 0.382009 0.15292 0.966495 -0.2631 -0.0604139 0.215072 0.81094)
(1.05598 -0.0548083 0.382759 0.114163 0.965135 -0.280074 0.0805367 0.238632 0.935966)
(0.96946 -0.108641 0.362149 0.022157 0.983865 -0.265703 0.163819 0.240899 1.05167)
(0.922975 -0.161174 0.329081 -0.0647909 0.985022 -0.229553 0.180432 0.231878 1.14054)
(0.918575 -0.194732 0.289535 -0.118946 0.957572 -0.18374 0.156335 0.20792 1.19838)
(0.940844 -0.199044 0.248613 -0.138184 0.913308 -0.138153 0.11993 0.170473 1.22845)
(0.973883 -0.17375 0.210267 -0.132155 0.868094 -0.0973844 0.0881371 0.127904 1.23662)
(1.00706 -0.125211 0.175941 -0.111234 0.832986 -0.0618009 0.0672182 0.0902454 1.22855)
(1.0343 -0.0622435 0.143975 -0.0833188 0.813924 -0.0297968 0.0568695 0.0654628 1.2084)
(1.05259 0.00594521 0.110355 -0.0550974 0.81384 0.000394202 0.0534952 0.0577101 1.17817)
(1.06183 0.069975 0.0703714 -0.0341203 0.833751 0.0297699 0.0531426 0.0661935 1.13742)
(1.06587 0.120252 0.0205312 -0.0291333 0.872105 0.0586152 0.0548123 0.0847074 1.08368)
(1.07387 0.148337 -0.0400479 -0.0463499 0.923437 0.087191 0.0631953 0.10266 1.01392)
(1.09817 0.150002 -0.109315 -0.0811978 0.978459 0.11603 0.0878532 0.107551 0.927717)
(1.14563 0.127834 -0.18277 -0.110861 1.02597 0.145025 0.135394 0.0871174 0.831701)
(1.20542 0.0909511 -0.253972 -0.0988777 1.05334 0.172802 0.195238 0.0308027 0.74374)
(1.24544 0.0511279 -0.315237 -0.0215105 1.04661 0.199443 0.229155 -0.061213 0.693788)
(1.23136 0.0162652 -0.358881 0.094509 1.0049 0.230536 0.18453 -0.154994 0.714413)
(1.18532 0.0489437 -0.353759 0.12639 0.954315 0.248099 0.0624649 -0.127587 0.809979)
(1.08041 0.0234254 -0.367292 0.0920089 0.997525 0.261516 -0.0722429 -0.15953 0.890081)
(0.986787 -0.0380717 -0.365323 0.00362764 1.03332 0.24841 -0.146726 -0.198231 0.973346)
(0.938376 -0.112333 -0.348709 -0.0803417 1.03202 0.215736 -0.151574 -0.220006 1.04589)
(0.93683 -0.170029 -0.320897 -0.132924 0.99678 0.172482 -0.118765 -0.210603 1.10071)
(0.965401 -0.193675 -0.286613 -0.152143 0.943776 0.126468 -0.0803376 -0.175441 1.13584)
(1.00662 -0.180389 -0.249337 -0.145669 0.889437 0.0820321 -0.0534869 -0.129906 1.15255)
(1.04749 -0.136261 -0.210341 -0.121621 0.84599 0.0409221 -0.0427632 -0.0893539 1.15319)
(1.07929 -0.0717448 -0.168913 -0.0871822 0.821741 0.0036638 -0.0450155 -0.0647667 1.13977)
(1.09711 0.000677323 -0.123147 -0.0500376 0.821813 -0.0294516 -0.053011 -0.0610238 1.11332)
(1.10014 0.0675462 -0.0711358 -0.0197332 0.848018 -0.0579357 -0.0588341 -0.0755508 1.07396)
(1.0929 0.115448 -0.0122477 -0.0075735 0.897465 -0.0813415 -0.0583251 -0.0978028 1.02157)
(1.08667 0.133706 0.0520595 -0.0229777 0.960153 -0.100011 -0.0557254 -0.111529 0.957285)
(1.09792 0.119609 0.118327 -0.0645753 1.01781 -0.115705 -0.0646766 -0.101146 0.885262)
(1.13909 0.0835663 0.182038 -0.109839 1.04796 -0.131488 -0.100055 -0.0603591 0.814216)
(1.20357 0.0478577 0.238986 -0.116476 1.03573 -0.151154 -0.159308 0.00242852 0.757603)
(1.25793 0.0333656 0.286834 -0.0515077 0.98882 -0.178417 -0.204728 0.0657003 0.731759)
(1.25778 0.042316 0.32526 0.0619363 0.947836 -0.213694 -0.175285 0.105062 0.750515)
(1.18532 0.0489437 0.353759 0.12639 0.954315 -0.248099 -0.0624649 0.127587 0.809979)
(1.08041 0.0234254 0.367292 0.0920089 0.997525 -0.261516 0.0722429 0.15953 0.890081)
(0.986787 -0.0380717 0.365323 0.00362764 1.03332 -0.24841 0.146726 0.198231 0.973346)
(0.938376 -0.112333 0.348709 -0.0803417 1.03202 -0.215736 0.151574 0.220006 1.04589)
(0.93683 -0.170029 0.320897 -0.132924 0.99678 -0.172482 0.118765 0.210603 1.10071)
(0.965401 -0.193675 0.286613 -0.152143 0.943776 -0.126468 0.0803376 0.175441 1.13584)
(1.00662 -0.180389 0.249337 -0.145669 0.889437 -0.0820321 0.0534869 0.129906 1.15255)
(1.04749 -0.136261 0.210341 -0.121621 0.84599 -0.0409221 0.0427632 0.0893539 1.15319)
(1.07929 -0.0717448 0.168913 -0.0871822 0.821741 -0.0036638 0.0450155 0.0647667 1.13977)
(1.09711 0.000677324 0.123147 -0.0500376 0.821813 0.0294516 0.053011 0.0610238 1.11332)
(1.10014 0.0675462 0.0711358 -0.0197332 0.848018 0.0579357 0.0588341 0.0755508 1.07396)
(1.0929 0.115448 0.0122477 -0.0075735 0.897465 0.0813415 0.0583251 0.0978028 1.02157)
(1.08667 0.133706 -0.0520595 -0.0229777 0.960153 0.100011 0.0557254 0.111529 0.957285)
(1.09792 0.119609 -0.118327 -0.0645753 1.01781 0.115705 0.0646766 0.101146 0.885262)
(1.13909 0.0835663 -0.182038 -0.109839 1.04796 0.131488 0.100055 0.0603591 0.814216)
(1.20357 0.0478577 -0.238986 -0.116476 1.03573 0.151154 0.159308 -0.00242852 0.757603)
(1.25793 0.0333656 -0.286834 -0.0515077 0.98882 0.178417 0.204728 -0.0657003 0.731759)
(1.25778 0.042316 -0.32526 0.0619363 0.947836 0.213694 0.175285 -0.105062 0.750515)
(1.21858 0.114414 -0.301022 0.0974909 0.929789 0.237535 0.0646389 -0.0463413 0.822073)
(1.1065 0.11409 -0.332708 0.067908 1.01706 0.250947 -0.063237 -0.0776361 0.85573)
(1.00237 0.0516277 -0.353639 -0.0152453 1.07501 0.239938 -0.12918 -0.149032 0.90167)
(0.94764 -0.04272 -0.356294 -0.0965869 1.07912 0.209749 -0.122088 -0.203161 0.954255)
(0.94586 -0.127572 -0.342049 -0.150025 1.04196 0.168074 -0.0799719 -0.210893 1.00395)
(0.981354 -0.176675 -0.315463 -0.172529 0.982888 0.121249 -0.0394476 -0.179401 1.04309)
(1.03488 -0.181408 -0.280021 -0.167515 0.918946 0.0733934 -0.018794 -0.131103 1.06779)
(1.08888 -0.145396 -0.237295 -0.139147 0.864971 0.0273897 -0.0207848 -0.0877022 1.07672)
(1.12939 -0.0804285 -0.18772 -0.093836 0.833676 -0.0143782 -0.0386171 -0.0640307 1.0696)
(1.14784 -0.00352444 -0.131495 -0.0418397 0.833868 -0.0498156 -0.0601944 -0.0658413 1.04654)
(1.14268 0.0659677 -0.0693736 0.00293518 0.868278 -0.0771817 -0.0723981 -0.0880968 1.0083)
(1.1206 0.109703 -0.00337084 0.0245809 0.931288 -0.0954207 -0.0672555 -0.114588 0.95726)
(1.09715 0.115137 0.0628034 0.00955983 1.00605 -0.104965 -0.0492294 -0.122218 0.898751)
(1.09418 0.0825595 0.124132 -0.0431769 1.0633 -0.109049 -0.0382519 -0.0926212 0.841717)
(1.12933 0.0310737 0.176045 -0.10858 1.06986 -0.114489 -0.059812 -0.0277032 0.797068)
(1.19894 -0.0051639 0.216665 -0.13552 1.01297 -0.129572 -0.119568 0.043307 0.77347)
(1.26873 0.00442793 0.24749 -0.0821526 0.925121 -0.158249 -0.178297 0.0786537 0.773791)
(1.28486 0.0606616 0.272435 0.0282199 0.882704 -0.19893 -0.164975 0.0653097 0.794302)
(1.21858 0.114414 0.301022 0.0974909 0.929789 -0.237535 -0.0646389 0.0463413 0.822073)
(1.1065 0.11409 0.332708 0.067908 1.01706 -0.250947 0.063237 0.0776361 0.85573)
(1.00237 0.0516277 0.353639 -0.0152453 1.07501 -0.239938 0.12918 0.149032 0.90167)
(0.94764 -0.04272 0.356294 -0.0965869 1.07912 -0.209749 0.122088 0.203161 0.954255)
(0.94586 -0.127572 0.342049 -0.150025 1.04196 -0.168074 0.0799719 0.210893 1.00395)
(0.981354 -0.176675 0.315463 -0.172529 0.982888 -0.121249 0.0394476 0.179401 1.04309)
(1.03488 -0.181408 0.280021 -0.167515 0.918946 -0.0733934 0.018794 0.131103 1.06779)
(1.08888 -0.145396 0.237295 -0.139147 0.864971 -0.0273897 0.0207848 0.0877022 1.07672)
(1.12939 -0.0804285 0.18772 -0.093836 0.833676 0.0143782 0.0386171 0.0640307 1.0696)
(1.14784 -0.00352444 0.131495 -0.0418397 0.833868 0.0498156 0.0601944 0.0658413 1.04654)
(1.14268 0.0659677 0.0693736 0.00293518 0.868278 0.0771817 0.0723981 0.0880968 1.0083)
(1.1206 0.109703 0.00337084 0.0245809 0.931288 0.0954207 0.0672555 0.114588 0.95726)
(1.09715 0.115137 -0.0628033 0.00955983 1.00605 0.104965 0.0492294 0.122218 0.898751)
(1.09418 0.0825595 -0.124132 -0.0431769 1.0633 0.109049 0.038252 0.0926212 0.841717)
(1.12933 0.0310737 -0.176045 -0.10858 1.06986 0.114489 0.059812 0.0277032 0.797068)
(1.19894 -0.0051639 -0.216665 -0.13552 1.01297 0.129572 0.119568 -0.043307 0.77347)
(1.26873 0.00442793 -0.24749 -0.0821526 0.925121 0.158249 0.178297 -0.0786537 0.773791)
(1.28486 0.0606616 -0.272435 0.0282199 0.882704 0.19893 0.164975 -0.0653097 0.794302)
(1.19718 0.00134106 -0.31282 0.0537474 0.937016 0.339634 0.0677077 -0.356709 0.744499)
(1.08422 -0.061867 -0.313137 0.0170924 0.956681 0.325521 -0.122725 -0.417821 0.864835)
(0.980949 -0.14006 -0.29452 -0.0563309 0.993398 0.290156 -0.239636 -0.434142 0.995123)
(0.924005 -0.211739 -0.265584 -0.12784 1.0021 0.250729 -0.276255 -0.42664 1.10527)
(0.915934 -0.259778 -0.233936 -0.17372 0.974689 0.211332 -0.257154 -0.399803 1.18238)
(0.940636 -0.273359 -0.202634 -0.189593 0.922601 0.173025 -0.21368 -0.358706 1.22887)
(0.981342 -0.250114 -0.172191 -0.181706 0.862795 0.136677 -0.16762 -0.312362 1.25126)
(1.02583 -0.194153 -0.142592 -0.157443 0.809378 0.102758 -0.129457 -0.271066 1.25469)
(1.06553 -0.113937 -0.113094 -0.123127 0.77263 0.0709128 -0.101768 -0.243726 1.24212)
(1.09475 -0.020932 -0.0818325 -0.0857576 0.759772 0.0402123 -0.0827294 -0.235536 1.21448)
(1.11122 0.0711708 -0.046315 -0.0549876 0.774667 0.00980438 -0.069592 -0.24573 1.17082)
(1.11795 0.147701 -0.00460346 -0.0429142 0.816221 -0.0207066 -0.0626804 -0.266004 1.10904)
(1.12477 0.195861 0.0435499 -0.059319 0.876859 -0.0515252 -0.0688489 -0.280901 1.02772)
(1.14625 0.20883 0.096295 -0.101965 0.943185 -0.0835256 -0.10081 -0.271106 0.929533)
(1.19275 0.188795 0.150304 -0.147537 0.998629 -0.119603 -0.167402 -0.218516 0.824936)
(1.25656 0.146599 0.202331 -0.155307 1.02538 -0.165889 -0.254044 -0.110699 0.732437)
(1.30387 0.0959265 0.250045 -0.095722 1.00824 -0.229021 -0.305867 0.0499496 0.673608)
(1.28654 0.0490579 0.288845 -0.000553701 0.962978 -0.30191 -0.249432 0.226777 0.670635)
(1.19718 0.00134107 0.31282 0.0537474 0.937016 -0.339634 -0.0677077 0.356709 0.744499)
(1.08422 -0.061867 0.313137 0.0170924 0.956681 -0.325521 0.122725 0.417821 0.864835)
(0.980949 -0.14006 0.29452 -0.0563309 0.993398 -0.290156 0.239636 0.434142 0.995123)
(0.924005 -0.211739 0.265584 -0.12784 1.0021 -0.250729 0.276255 0.42664 1.10527)
(0.915934 -0.259778 0.233936 -0.17372 0.974689 -0.211332 0.257154 0.399803 1.18238)
(0.940636 -0.273359 0.202634 -0.189593 0.922601 -0.173025 0.21368 0.358706 1.22887)
(0.981342 -0.250114 0.172191 -0.181706 0.862795 -0.136677 0.16762 0.312362 1.25126)
(1.02583 -0.194153 0.142592 -0.157443 0.809378 -0.102758 0.129457 0.271066 1.25469)
(1.06553 -0.113937 0.113094 -0.123127 0.77263 -0.0709128 0.101768 0.243726 1.24212)
(1.09475 -0.020932 0.0818325 -0.0857576 0.759772 -0.0402123 0.0827294 0.235536 1.21448)
(1.11122 0.0711708 0.046315 -0.0549876 0.774667 -0.00980438 0.069592 0.24573 1.17082)
(1.11795 0.147701 0.00460346 -0.0429142 0.816221 0.0207066 0.0626804 0.266004 1.10904)
(1.12477 0.195861 -0.0435499 -0.059319 0.876859 0.0515252 0.0688489 0.280901 1.02772)
(1.14625 0.20883 -0.096295 -0.101965 0.943185 0.0835256 0.10081 0.271106 0.929533)
(1.19275 0.188795 -0.150304 -0.147537 0.998629 0.119603 0.167402 0.218516 0.824936)
(1.25656 0.146599 -0.202331 -0.155307 1.02538 0.165889 0.254044 0.110699 0.732437)
(1.30387 0.0959265 -0.250045 -0.095722 1.00824 0.229021 0.305867 -0.0499496 0.673608)
(1.28654 0.0490579 -0.288845 -0.0005537 0.962978 0.30191 0.249432 -0.226777 0.670635)
(1.24621 0.0769539 -0.300607 0.0385565 0.924959 0.261689 0.0808822 -0.23218 0.746233)
(1.12001 0.033733 -0.3047 0.0116444 0.983494 0.26064 -0.111349 -0.306539 0.835091)
(1.00361 -0.0514394 -0.293634 -0.058367 1.03552 0.243955 -0.226836 -0.372452 0.933786)
(0.941661 -0.148535 -0.273456 -0.131297 1.0474 0.219194 -0.252326 -0.408161 1.0196)
(0.936148 -0.22423 -0.249417 -0.181506 1.01817 0.1888 -0.221095 -0.4044 1.08308)
(0.969041 -0.259654 -0.223664 -0.20321 0.96178 0.15459 -0.171975 -0.369116 1.12404)
(1.0214 -0.250061 -0.196234 -0.19971 0.895434 0.118527 -0.128969 -0.319985 1.14547)
(1.07765 -0.199277 -0.166535 -0.175351 0.834538 0.082425 -0.10122 -0.274651 1.15013)
(1.12525 -0.117331 -0.133814 -0.135325 0.792342 0.047559 -0.0879518 -0.246425 1.13972)
(1.15531 -0.0193523 -0.0971645 -0.0878266 0.779064 0.0145989 -0.0825011 -0.241818 1.11475)
(1.16443 0.0761099 -0.055709 -0.0452213 0.799955 -0.0161985 -0.0764566 -0.257878 1.07485)
(1.15671 0.149863 -0.00902689 -0.0229987 0.852814 -0.0448255 -0.0653902 -0.280436 1.01962)
(1.14513 0.186491 0.0423913 -0.0348019 0.925459 -0.0715496 -0.0553609 -0.286217 0.950301)
(1.14944 0.180569 0.0967542 -0.0819074 0.994851 -0.0971803 -0.0652773 -0.251834 0.872048)
(1.18619 0.142547 0.150849 -0.141033 1.03196 -0.12366 -0.116443 -0.16835 0.795213)
(1.25237 0.0982432 0.200791 -0.165651 1.01696 -0.154508 -0.205385 -0.0514187 0.733282)
(1.31488 0.0750542 0.243692 -0.119366 0.961072 -0.192929 -0.277357 0.0670144 0.697612)
(1.32225 0.0787204 0.278655 -0.0243475 0.913089 -0.234259 -0.246649 0.159731 0.697282)
(1.24621 0.0769539 0.300607 0.0385565 0.924959 -0.261689 -0.0808822 0.23218 0.746233)
(1.12001 0.033733 0.3047 0.0116444 0.983494 -0.26064 0.111349 0.306539 0.835091)
(1.00361 -0.0514394 0.293634 -0.058367 1.03552 -0.243955 0.226836 0.372452 0.933786)
(0.941661 -0.148535 0.273456 -0.131297 1.0474 -0.219194 0.252326 0.408161 1.0196)
(0.936148 -0.22423 0.249417 -0.181506 1.01817 -0.1888 0.221095 0.4044 1.08308)
(0.969041 -0.259654 0.223664 -0.20321 0.96178 -0.15459 0.171975 0.369116 1.12404)
(1.0214 -0.250061 0.196234 -0.19971 0.895434 -0.118527 0.128969 0.319985 1.14547)
(1.07765 -0.199277 0.166535 -0.175351 0.834538 -0.082425 0.10122 0.274651 1.15013)
(1.12525 -0.117331 0.133814 -0.135325 0.792342 -0.047559 0.0879518 0.246425 1.13972)
(1.15531 -0.0193523 0.0971645 -0.0878266 0.779064 -0.0145989 0.0825011 0.241818 1.11475)
(1.16443 0.0761099 0.055709 -0.0452213 0.799955 0.0161985 0.0764566 0.257878 1.07485)
(1.15671 0.149863 0.00902689 -0.0229987 0.852814 0.0448255 0.0653902 0.280436 1.01962)
(1.14513 0.186491 -0.0423913 -0.0348019 0.925459 0.0715495 0.0553609 0.286217 0.950301)
(1.14944 0.180569 -0.0967542 -0.0819074 0.994851 0.0971803 0.0652773 0.251834 0.872048)
(1.18619 0.142547 -0.150849 -0.141033 1.03196 0.12366 0.116443 0.16835 0.795213)
(1.25237 0.0982432 -0.200791 -0.165651 1.01696 0.154508 0.205385 0.0514187 0.733282)
(1.31488 0.0750542 -0.243692 -0.119366 0.961072 0.192929 0.277357 -0.0670144 0.697612)
(1.32225 0.0787204 -0.278655 -0.0243475 0.913089 0.234259 0.246649 -0.159731 0.697282)
(1.29902 0.151586 -0.283513 0.0214057 0.895585 0.20228 0.0973465 -0.106895 0.759778)
(1.15753 0.151172 -0.289141 0.00520038 0.994308 0.209984 -0.101077 -0.175573 0.811559)
(1.02347 0.0646068 -0.286136 -0.0604922 1.07028 0.207961 -0.218594 -0.291032 0.872807)
(0.952083 -0.0589811 -0.275439 -0.135694 1.09402 0.194902 -0.231634 -0.379009 0.930805)
(0.946994 -0.16783 -0.259025 -0.192514 1.06868 0.171835 -0.185225 -0.405507 0.979078)
(0.989738 -0.232501 -0.238168 -0.223042 1.01055 0.141323 -0.128444 -0.379212 1.01415)
(1.05835 -0.24287 -0.213017 -0.225744 0.937415 0.106116 -0.0888712 -0.327719 1.0348)
(1.13179 -0.200911 -0.182988 -0.200397 0.867242 0.0688089 -0.0740853 -0.278074 1.04102)
(1.1911 -0.118313 -0.147509 -0.15087 0.818013 0.0317913 -0.0787042 -0.249397 1.03306)
(1.22276 -0.0152534 -0.106478 -0.0879775 0.804293 -0.00302335 -0.0895038 -0.249808 1.01109)
(1.22229 0.0830567 -0.0602985 -0.0290161 0.832775 -0.03448 -0.0907649 -0.273274 0.975402)
(1.19643 0.151843 -0.0096907 0.00527293 0.898787 -0.0622127 -0.0724675 -0.29795 0.927366)
(1.16333 0.173424 0.0443098 -0.00356269 0.983153 -0.0864683 -0.040721 -0.29103 0.870852)
(1.14926 0.145388 0.0999033 -0.0597493 1.05082 -0.108177 -0.0236046 -0.225393 0.813516)
(1.17682 0.0878348 0.154168 -0.136605 1.06143 -0.129147 -0.0583586 -0.104964 0.765593)
(1.24562 0.0392692 0.203408 -0.177564 1.00107 -0.150895 -0.152526 0.0239211 0.735243)
(1.32294 0.034767 0.243678 -0.142475 0.906253 -0.172113 -0.248589 0.102568 0.7246)
(1.35804 0.0857545 0.271114 -0.0482816 0.851308 -0.188477 -0.246835 0.109571 0.732325)
(1.29902 0.151586 0.283513 0.0214057 0.895585 -0.20228 -0.0973465 0.106895 0.759778)
(1.15753 0.151172 0.289141 0.00520038 0.994308 -0.209984 0.101077 0.175573 0.811559)
(1.02347 0.0646068 0.286136 -0.0604922 1.07028 -0.207961 0.218594 0.291032 0.872807)
(0.952083 -0.0589811 0.275439 -0.135694 1.09402 -0.194902 0.231634 0.379009 0.930805)
(0.946994 -0.16783 0.259025 -0.192514 1.06868 -0.171835 0.185225 0.405507 0.979078)
(0.989738 -0.232501 0.238168 -0.223042 1.01055 -0.141323 0.128444 0.379212 1.01415)
(1.05835 -0.24287 0.213017 -0.225744 0.937415 -0.106116 0.0888712 0.327719 1.0348)
(1.13179 -0.200911 0.182988 -0.200397 0.867242 -0.0688089 0.0740853 0.278074 1.04102)
(1.1911 -0.118313 0.147509 -0.15087 0.818013 -0.0317913 0.0787042 0.249397 1.03306)
(1.22276 -0.0152534 0.106478 -0.0879775 0.804293 0.00302334 0.0895038 0.249808 1.01109)
(1.22229 0.0830567 0.0602985 -0.0290161 0.832775 0.03448 0.0907649 0.273274 0.975402)
(1.19643 0.151843 0.0096907 0.00527293 0.898787 0.0622127 0.0724675 0.29795 0.927366)
(1.16333 0.173424 -0.0443098 -0.00356269 0.983153 0.0864683 0.040721 0.29103 0.870852)
(1.14926 0.145388 -0.0999033 -0.0597493 1.05082 0.108177 0.0236046 0.225393 0.813516)
(1.17682 0.0878348 -0.154168 -0.136605 1.06143 0.129147 0.0583586 0.104964 0.765593)
(1.24562 0.0392692 -0.203408 -0.177564 1.00107 0.150895 0.152526 -0.0239211 0.735243)
(1.32294 0.034767 -0.243678 -0.142475 0.906253 0.172113 0.248589 -0.102568 0.7246)
(1.35804 0.0857545 -0.271114 -0.0482816 0.851308 0.188477 0.246835 -0.109571 0.732325)
(1.20711 0.017642 -0.228421 -0.147567 0.912079 0.326645 0.0950611 -0.444678 0.742636)
(1.10023 -0.0665015 -0.22767 -0.142092 0.956376 0.31631 -0.112872 -0.555678 0.821486)
(1.00224 -0.156451 -0.209674 -0.173951 0.989421 0.292891 -0.259702 -0.599858 0.935283)
(0.943835 -0.234725 -0.184219 -0.214712 0.993348 0.269127 -0.326285 -0.604032 1.0439)
(0.932539 -0.286309 -0.160556 -0.242203 0.963749 0.245516 -0.325041 -0.582465 1.12602)
(0.95657 -0.303604 -0.139993 -0.248314 0.909252 0.219613 -0.28541 -0.547562 1.18047)
(1.00035 -0.283905 -0.119969 -0.234561 0.844126 0.191187 -0.232735 -0.508741 1.21234)
(1.05095 -0.228719 -0.0986637 -0.20495 0.782314 0.161352 -0.18178 -0.474325 1.22551)
(1.09838 -0.144596 -0.0755124 -0.164145 0.735897 0.130943 -0.138594 -0.451644 1.22171)
(1.13531 -0.0429724 -0.0502934 -0.118862 0.714401 0.0999977 -0.104202 -0.444982 1.20114)