/*--------------------------------*- C++ -*----------------------------------*\
| =========                 |                                                 |
| \\      /  F ield         | OpenFOAM: The Open Source CFD Toolbox           |
|  \\    /   O peration     | Version:  2312                                  |
|   \\  /    A nd           | Website:  www.openfoam.com                      |
|    \\/     M anipulation  |                                                 |
\*---------------------------------------------------------------------------*/
FoamFile
{
    version     2.0;
    format      ascii;
    arch        "LSB;label=32;scalar=64";
    class       volTensorField;
    location    "0.7";
    object      F;
}
// * * * * * * * * * * * * * * * * * * * * * * * * * * * * * * * * * * * * * //

dimensions      [0 0 0 0 0 0 0];

internalField   nonuniform List<tensor> 
1620
(
(0.841701 -0.000423202 0.0514814 0.0261833 1.06742 -0.0453804 -0.0726108 -0.00544136 1.14123)
(0.859939 -0.0158426 0.0409056 0.0199299 1.05858 -0.149346 -0.0863842 -0.00767061 1.12704)
(0.891869 -0.0231991 0.0338793 0.0218955 1.04886 -0.221025 -0.0843834 -0.0138283 1.09554)
(0.926245 -0.0183198 0.0253061 0.026634 1.04714 -0.261044 -0.0767344 -0.0163635 1.05176)
(0.957174 -0.00185825 0.0120232 0.033037 1.05903 -0.277331 -0.0663341 -0.0110711 0.996747)
(0.981851 0.0204452 -0.00604289 0.0371826 1.0868 -0.279468 -0.0545634 0.00751191 0.930415)
(0.999202 0.0386259 -0.027014 0.0348406 1.12908 -0.276172 -0.0441156 0.045811 0.854435)
(1.00631 0.0398511 -0.0495438 0.0245083 1.17778 -0.274026 -0.0343404 0.105784 0.777287)
(1.00923 0.02211 -0.0739744 0.00391341 1.21019 -0.276877 -0.0110465 0.167406 0.720346)
(1.01819 -0.00290932 -0.0973103 -0.0201951 1.21168 -0.284941 0.0174437 0.160356 0.708863)
(1.02818 -0.035421 -0.104802 -0.0368482 1.17908 -0.297894 0.0325788 0.0970851 0.750912)
(1.02873 -0.0460734 -0.102223 -0.0422399 1.12871 -0.313466 0.0353263 0.0443511 0.817888)
(1.02155 -0.0363057 -0.0953469 -0.0374334 1.08142 -0.326859 0.0416963 0.0115863 0.885559)
(1.00713 -0.0166653 -0.0858412 -0.0234291 1.04747 -0.332613 0.0511331 -0.00504346 0.945005)
(0.983844 0.0032805 -0.0727806 -0.00441903 1.03054 -0.32407 0.0615817 -0.0107713 0.99494)
(0.951555 0.0167517 -0.0552669 0.0139286 1.03035 -0.293469 0.0726897 -0.00924593 1.03685)
(0.91458 0.0207884 -0.0339097 0.0274832 1.04266 -0.233127 0.0823831 -0.00340659 1.07136)
(0.885128 0.0156676 -0.0115506 0.0265519 1.0596 -0.140112 0.0808591 -0.000245226 1.09362)
(0.882464 0.00434483 0.00428604 0.0162947 1.06509 -0.0309996 0.0837596 -0.00270905 1.09213)
(0.906563 -0.00583564 0.0115535 0.0124442 1.05799 0.0675643 0.0882378 0.00317381 1.06747)
(0.938319 -0.0100223 0.0148954 0.0181947 1.05132 0.136195 0.0782862 0.0126288 1.0339)
(0.966741 -0.00570811 0.0172597 0.0265773 1.05154 0.175963 0.0659606 0.0180074 0.997904)
(0.987744 0.00623735 0.0206387 0.0345863 1.06249 0.194604 0.0543886 0.0167035 0.959194)
(1.00123 0.0219364 0.0258779 0.0381955 1.08612 0.200767 0.0447138 0.00478563 0.914279)
(1.00849 0.0342971 0.033636 0.0344832 1.12307 0.201943 0.0391042 -0.0244993 0.859869)
(1.0074 0.0326832 0.0460418 0.0235284 1.16905 0.203659 0.0357225 -0.0769516 0.798993)
(1.00532 0.0167847 0.0665376 0.00307234 1.20323 0.20916 0.0169708 -0.139974 0.748692)
(1.0118 -0.00650594 0.0934207 -0.0214115 1.20981 0.218316 -0.00899695 -0.143543 0.730633)
(1.02044 -0.0374588 0.111177 -0.0398607 1.18149 0.232151 -0.0226796 -0.095712 0.761246)
(1.02054 -0.04863 0.122385 -0.0472376 1.13345 0.24974 -0.0248618 -0.0533531 0.819116)
(1.01289 -0.0396031 0.13048 -0.0425977 1.08578 0.266453 -0.0296401 -0.0256274 0.882864)
(0.99677 -0.0191293 0.134648 -0.0266746 1.05009 0.275555 -0.0366666 -0.010441 0.943453)
(0.970096 0.00311469 0.131493 -0.00412794 1.03185 0.268565 -0.0445143 -0.00419713 0.998302)
(0.932717 0.0188123 0.11852 0.0184119 1.0317 0.236301 -0.053535 -0.00436705 1.04785)
(0.889274 0.0232255 0.0967 0.0356837 1.04508 0.170819 -0.0626408 -0.00876771 1.09269)
(0.852561 0.0156215 0.0711229 0.0375674 1.06235 0.070511 -0.0630303 -0.0105227 1.12831)
(0.861362 -5.79303e-05 0.00501895 0.0285446 1.07524 -0.0157241 -0.0813801 0.00227791 1.09487)
(0.883506 -0.0248302 -0.00376932 0.0232932 1.06302 -0.108935 -0.0838446 -0.00142451 1.07433)
(0.920475 -0.0329429 -0.00543261 0.0261194 1.04978 -0.172823 -0.0774059 -0.0125116 1.03982)
(0.957793 -0.0246912 -0.00603896 0.0353392 1.04588 -0.208806 -0.0663316 -0.0163345 0.99761)
(0.988184 -0.00388022 -0.00970115 0.0478554 1.05513 -0.223044 -0.0512352 -0.0125914 0.949755)
(1.00731 0.0224979 -0.0181496 0.0578095 1.07953 -0.223865 -0.0322119 0.00252037 0.898383)
(1.01236 0.0440936 -0.0316033 0.0588295 1.1166 -0.219547 -0.0116327 0.0354163 0.847327)
(1.00357 0.0474989 -0.0501111 0.0444402 1.15822 -0.216749 0.00399556 0.089556 0.803037)
(0.994828 0.0264133 -0.0731244 0.0120137 1.18619 -0.219382 0.00595195 0.146642 0.774732)
(0.998933 -0.0118503 -0.0965753 -0.027892 1.18814 -0.229483 -0.00418524 0.142177 0.769035)
(1.01565 -0.0453192 -0.110165 -0.0584184 1.16001 -0.247653 -0.00360052 0.0836323 0.788316)
(1.03299 -0.0539844 -0.112289 -0.0694446 1.11403 -0.270223 0.0077715 0.0359081 0.825532)
(1.03959 -0.0405305 -0.104879 -0.0626884 1.06933 -0.29208 0.022493 0.00796637 0.869914)
(1.03326 -0.0158346 -0.0893308 -0.0433751 1.03692 -0.30714 0.0366539 -0.00590862 0.914441)
(1.01369 0.0103329 -0.0662863 -0.0180122 1.02182 -0.307913 0.0496727 -0.0113974 0.955473)
(0.981968 0.0298866 -0.0371242 0.00575115 1.02435 -0.28633 0.0630404 -0.01092 0.991488)
(0.943242 0.0361729 -0.00534045 0.0215452 1.04266 -0.235605 0.0773573 -0.0034095 1.02134)
(0.91301 0.0239912 0.0231348 0.023869 1.0656 -0.152706 0.0874166 -0.000735122 1.03981)
(0.910552 0.000331269 0.0404605 0.0194432 1.07159 -0.0542669 0.0897848 -0.00559839 1.03604)
(0.935227 -0.0160988 0.0449235 0.0177646 1.06033 0.0346507 0.0824125 0.00130498 1.01217)
(0.967943 -0.0175366 0.0418281 0.0250463 1.05027 0.0958685 0.0684869 0.0134923 0.98134)
(0.995241 -0.00754618 0.0365071 0.0372599 1.04981 0.131325 0.0544796 0.0177296 0.949513)
(1.01296 0.00937265 0.0326264 0.049752 1.0604 0.147153 0.0409265 0.0160411 0.917026)
(1.02044 0.0283 0.0324048 0.0577816 1.08258 0.150827 0.0266511 0.0061981 0.883372)
(1.01711 0.0425596 0.0376297 0.0576103 1.11514 0.149346 0.0115921 -0.0186833 0.849124)
(1.00332 0.0416925 0.0504148 0.0442201 1.15354 0.148239 -0.00102082 -0.0659341 0.817395)
(0.99168 0.0213786 0.0715792 0.0137733 1.18168 0.150831 -0.00415282 -0.123716 0.795006)
(0.993478 -0.0135738 0.0977312 -0.0256909 1.18579 0.159909 0.00411333 -0.12812 0.788328)
(1.00747 -0.0439844 0.118634 -0.0579416 1.15925 0.177877 0.0045131 -0.0820619 0.803812)
(1.02238 -0.0519748 0.131524 -0.0712039 1.11384 0.202335 -0.00408759 -0.0429834 0.837851)
(1.02737 -0.037974 0.136089 -0.0650702 1.06794 0.228063 -0.0157626 -0.0193451 0.881708)
(1.01852 -0.011134 0.131271 -0.043984 1.03383 0.247703 -0.0270279 -0.00695759 0.928956)
(0.994274 0.0181819 0.115663 -0.0150419 1.01817 0.251863 -0.037326 -0.0014627 0.975774)
(0.955714 0.0399617 0.089682 0.0127725 1.02195 0.230746 -0.0481878 -0.00110163 1.0202)
(0.908955 0.0457671 0.0573669 0.0317353 1.04257 0.176942 -0.0608491 -0.00713875 1.06041)
(0.870614 0.0300443 0.026176 0.0354725 1.06784 0.088521 -0.0721107 -0.00688612 1.08984)
(0.885027 -0.0030715 -0.0443497 0.031546 1.0791 0.0152543 -0.0895889 0.00149777 1.04469)
(0.911867 -0.0389054 -0.0525546 0.0279999 1.06758 -0.0651588 -0.0780234 -0.00560359 1.0199)
(0.954464 -0.0480183 -0.0501974 0.0322994 1.04975 -0.123061 -0.067665 -0.0146605 0.983065)
(0.993908 -0.0341451 -0.0429377 0.0471614 1.04184 -0.156794 -0.0529202 -0.018695 0.94239)
(1.02125 -0.00607518 -0.0356353 0.0648335 1.04953 -0.170186 -0.0332766 -0.0155161 0.902315)
(1.03114 0.0265401 -0.0322966 0.0765642 1.07282 -0.169634 -0.00857584 -0.00244092 0.867674)
(1.02102 0.0518513 -0.0362571 0.0743291 1.10603 -0.162719 0.0187035 0.0261049 0.844603)
(0.993377 0.0566657 -0.0497766 0.0530401 1.13863 -0.157024 0.0366817 0.0738282 0.83744)
(0.964938 0.0315709 -0.0743837 0.0154934 1.15891 -0.158629 0.0209759 0.124406 0.840415)
(0.965851 -0.0211513 -0.0997973 -0.0295018 1.16145 -0.170855 -0.0214829 0.122434 0.836609)
(0.997018 -0.0564109 -0.118189 -0.0698405 1.14055 -0.19382 -0.0356266 0.0703879 0.832256)
(1.03193 -0.0641561 -0.123614 -0.0907347 1.10006 -0.224258 -0.0180953 0.0283427 0.837937)
(1.05473 -0.0469051 -0.113992 -0.0878614 1.05654 -0.255823 0.00311064 0.00495174 0.856427)
(1.05967 -0.0155135 -0.0907692 -0.0665646 1.0237 -0.280701 0.0205266 -0.00724571 0.883897)
(1.04603 0.0189553 -0.0565547 -0.0355169 1.00961 -0.290433 0.0352343 -0.0140114 0.914641)
(1.01578 0.0458789 -0.0153806 -0.00517239 1.0168 -0.276931 0.0502777 -0.017035 0.943966)
(0.97525 0.0530206 0.0264907 0.013211 1.04136 -0.234394 0.0685567 -0.0153483 0.968011)
(0.944521 0.0318868 0.0602418 0.0195818 1.06528 -0.163506 0.0930019 -0.0098659 0.980521)
(0.942427 -0.00387994 0.0789724 0.0234444 1.07215 -0.0783714 0.0946249 0.00095091 0.974886)
(0.967438 -0.0273934 0.0815588 0.0247993 1.06142 -0.00133225 0.0726824 0.0106863 0.954205)
(1.00095 -0.0267732 0.0729314 0.0342212 1.0474 0.053966 0.05572 0.0177573 0.927172)
(1.02607 -0.00977803 0.059869 0.0513514 1.04486 0.0861631 0.040465 0.0190153 0.899812)
(1.03837 0.0138816 0.0476329 0.0675775 1.05622 0.0994947 0.0254731 0.0158564 0.874371)
(1.03681 0.0373042 0.0402916 0.0763591 1.07928 0.0999283 0.00755158 0.00729623 0.853734)
(1.02054 0.0533062 0.0413802 0.0728287 1.10925 0.0938069 -0.0150102 -0.0136063 0.842597)
(0.991221 0.0522664 0.0535221 0.052689 1.1386 0.0875901 -0.0334442 -0.0553557 0.844403)
(0.963636 0.0267879 0.0783333 0.0165869 1.1573 0.0874227 -0.0223651 -0.106418 0.852533)
(0.964216 -0.0207011 0.104875 -0.0283359 1.15813 0.0980663 0.0161552 -0.111018 0.851826)
(0.991218 -0.0508648 0.127599 -0.0690928 1.13542 0.120811 0.0303004 -0.0678798 0.85106)
(1.02124 -0.0561546 0.140623 -0.0905555 1.09382 0.153302 0.0156907 -0.0328631 0.860138)
(1.04076 -0.0366093 0.139855 -0.0874664 1.04882 0.189315 -0.002021 -0.013365 0.882208)
(1.04189 -0.00139312 0.124329 -0.0639635 1.01495 0.219859 -0.0164182 -0.00299749 0.914568)
(1.02182 0.0372845 0.0951682 -0.0291383 1.00168 0.234405 -0.0284727 0.00284777 0.952486)
(0.982434 0.0661855 0.0562276 0.0050325 1.01187 0.223014 -0.0407062 0.0055111 0.991396)
(0.931817 0.0711945 0.0142978 0.0258824 1.04074 0.179329 -0.0560457 0.00525691 1.02614)
(0.89194 0.0434072 -0.02161 0.0319076 1.06947 0.104875 -0.0807593 0.00530373 1.0474)
(0.748904 0.0096529 0.0466827 0.0723751 1.20153 -0.0282643 -0.162493 -0.013638 1.11586)
(0.771201 -0.0267926 0.0358329 0.070148 1.17952 -0.119414 -0.193185 -0.0089066 1.10527)
(0.815416 -0.0456222 0.0280152 0.0798618 1.14915 -0.18503 -0.202354 -0.0192814 1.07602)
(0.864841 -0.0417675 0.0185684 0.0904495 1.13354 -0.224857 -0.197957 -0.0287234 1.03197)
(0.910006 -0.0183826 0.0054471 0.0982556 1.14212 -0.244387 -0.184032 -0.0247579 0.974747)
(0.945951 0.0140978 -0.010915 0.0968642 1.1756 -0.250728 -0.162764 0.0050582 0.905993)
(0.970281 0.0406986 -0.0292963 0.0808082 1.22839 -0.250501 -0.136909 0.0724092 0.82999)
(0.979441 0.0449352 -0.0494043 0.0500688 1.28715 -0.249225 -0.103396 0.176989 0.756748)
(0.983018 0.0258227 -0.0704832 0.00605954 1.32449 -0.252349 -0.0444767 0.280503 0.701879)
(1.00228 -0.000604049 -0.0901391 -0.0409522 1.32034 -0.262398 0.0281551 0.282374 0.68072)
(1.02952 -0.0441155 -0.100594 -0.0754606 1.27086 -0.27856 0.0812644 0.185325 0.709581)
(1.04126 -0.0598511 -0.0987524 -0.0895854 1.19913 -0.296453 0.105775 0.0912252 0.770425)
(1.03741 -0.0448702 -0.0908947 -0.0822322 1.13185 -0.31044 0.124356 0.0291109 0.839151)
(1.01754 -0.0116705 -0.0801508 -0.0551531 1.08548 -0.315334 0.141743 -0.0018526 0.903476)
(0.979631 0.0247387 -0.0665929 -0.0162283 1.06952 -0.305897 0.157779 -0.0104186 0.95867)
(0.92522 0.0509209 -0.0490997 0.0232842 1.0868 -0.276278 0.173365 -0.00533918 1.00374)
(0.864123 0.0581465 -0.0278472 0.0541626 1.12996 -0.221096 0.186228 0.00386231 1.03803)
(0.817059 0.0429724 -0.00611693 0.0604356 1.17637 -0.139044 0.186386 0.00291718 1.05781)
(0.808484 0.0125045 0.00951588 0.0505892 1.19107 -0.044157 0.193946 -0.00823802 1.05683)
(0.839178 -0.0150085 0.0170304 0.0495105 1.17056 0.0424527 0.201956 -0.00213688 1.0363)
(0.885907 -0.0279425 0.0203981 0.0626513 1.14358 0.10497 0.189375 0.0181584 1.00527)
(0.930473 -0.0241113 0.0230675 0.0772513 1.13052 0.143479 0.169828 0.0356037 0.969308)
(0.964245 -0.00715014 0.0266877 0.0876904 1.13862 0.163813 0.149408 0.0398844 0.929165)
(0.984953 0.0149129 0.0316324 0.0876177 1.16836 0.172719 0.130298 0.0207209 0.883201)
(0.993082 0.0309094 0.0385473 0.0728224 1.21687 0.175864 0.114025 -0.034225 0.83087)
(0.98674 0.0278526 0.0497063 0.0443507 1.27551 0.177608 0.0952659 -0.129615 0.777083)
(0.978189 0.00859882 0.0664012 0.00281409 1.31911 0.182775 0.0523416 -0.236187 0.732852)
(0.988476 -0.0153071 0.0882228 -0.0442826 1.32416 0.19373 -0.0083464 -0.259372 0.709249)
(1.00916 -0.0544402 0.108097 -0.0826046 1.28075 0.210656 -0.0557208 -0.190806 0.728313)
(1.01721 -0.0687126 0.118585 -0.101281 1.21046 0.230192 -0.0781562 -0.117076 0.780112)
(1.01094 -0.0524707 0.124228 -0.0950625 1.14049 0.247268 -0.0939614 -0.0658322 0.844426)
(0.988371 -0.0154851 0.125951 -0.0642084 1.09019 0.255576 -0.107029 -0.03868 0.909579)
(0.946742 0.0269753 0.121705 -0.0173636 1.07231 0.248269 -0.117379 -0.0298269 0.969948)
(0.887444 0.0585493 0.108981 0.0316435 1.09114 0.21825 -0.126935 -0.0327029 1.0235)
(0.820473 0.0671454 0.0883168 0.0706456 1.13807 0.159768 -0.136323 -0.0387721 1.06911)
(0.766571 0.0479946 0.064916 0.0825813 1.18659 0.0723302 -0.139934 -0.0331249 1.10272)
(0.764972 0.0118299 0.0171571 0.0756415 1.20982 -0.00546889 -0.175014 0.00369661 1.0797)
(0.791284 -0.0397912 0.00578734 0.0756364 1.18427 -0.0864508 -0.194505 0.00655079 1.06185)
(0.842011 -0.0640719 -0.000280181 0.0845248 1.15024 -0.144053 -0.198974 -0.0125824 1.02713)
(0.897372 -0.0590553 -0.00554835 0.0983761 1.13196 -0.179186 -0.189155 -0.0282003 0.982595)
(0.945265 -0.0305344 -0.0128835 0.112417 1.13671 -0.196189 -0.164907 -0.0306589 0.931258)
(0.977164 0.00946377 -0.0233864 0.118037 1.16662 -0.201421 -0.126138 -0.00788168 0.876242)
(0.987655 0.0437961 -0.037138 0.106556 1.21586 -0.201507 -0.0776345 0.0545884 0.822393)
(0.977721 0.052997 -0.0538825 0.071595 1.27023 -0.201978 -0.0326887 0.160307 0.776643)
(0.967137 0.0281475 -0.0725331 0.0126628 1.30434 -0.20644 -0.00871412 0.267411 0.746632)
(0.978255 -0.0144361 -0.090892 -0.055394 1.29983 -0.216778 -0.00311071 0.268946 0.73722)
(1.01097 -0.0584146 -0.103574 -0.107985 1.25294 -0.23403 0.0172709 0.170977 0.75241)
(1.0444 -0.0695231 -0.106241 -0.129025 1.18196 -0.255344 0.0527262 0.076922 0.787689)
(1.05972 -0.0455256 -0.0998017 -0.118697 1.11369 -0.275274 0.0901002 0.0185615 0.833226)
(1.05069 -0.00102363 -0.0858619 -0.0837379 1.06721 -0.288062 0.121185 -0.00795048 0.881131)
(1.01608 0.0466192 -0.0654705 -0.0354367 1.05384 -0.28729 0.144898 -0.0142633 0.926368)
(0.959531 0.0806681 -0.0399706 0.0116624 1.076 -0.266464 0.164929 -0.0090662 0.96597)
(0.893128 0.0874458 -0.0123096 0.0453954 1.12823 -0.220696 0.183739 0.00219869 0.997348)
(0.842855 0.0590346 0.0126607 0.0567666 1.18287 -0.14851 0.197286 -4.1788e-05 1.01412)
(0.83374 0.00906186 0.0296581 0.0541818 1.19869 -0.0640115 0.204415 -0.0140424 1.01075)
(0.865746 -0.0310691 0.0371083 0.0566586 1.17367 0.0131441 0.199113 -0.00563886 0.989779)
(0.915228 -0.0449884 0.0380407 0.0700744 1.14268 0.0684127 0.1814 0.0192968 0.959191)
(0.960802 -0.0358275 0.0368471 0.0880567 1.12849 0.102682 0.158671 0.0373702 0.925905)
(0.992696 -0.011608 0.0365704 0.103854 1.13553 0.120443 0.132262 0.0434277 0.891423)
(1.00696 0.0174896 0.0390386 0.109992 1.16412 0.127574 0.100055 0.0286105 0.856164)
(1.00203 0.0391042 0.0455785 0.100516 1.2103 0.129826 0.0624413 -0.0222833 0.821593)
(0.980672 0.038704 0.0573606 0.0700195 1.26431 0.131865 0.0274534 -0.118733 0.7912)
(0.96227 0.0119114 0.0742387 0.015234 1.30271 0.136703 0.00919341 -0.227657 0.769763)
(0.966664 -0.0259291 0.0948483 -0.0531315 1.30355 0.146395 0.00668837 -0.247936 0.761458)
(0.991934 -0.0637542 0.11397 -0.110714 1.25919 0.163264 -0.00858009 -0.176387 0.773663)
(1.01911 -0.0719745 0.12604 -0.137593 1.18728 0.186005 -0.0372019 -0.101882 0.805732)
(1.03046 -0.0452349 0.130207 -0.129491 1.11485 0.209256 -0.0678455 -0.0539227 0.850572)
(1.01753 0.00445964 0.126029 -0.0911814 1.06389 0.226236 -0.092629 -0.0314509 0.901414)
(0.977406 0.0586018 0.112763 -0.0349281 1.04917 0.228878 -0.109757 -0.0258006 0.953262)
(0.91388 0.0970529 0.090816 0.0216959 1.07439 0.209038 -0.122591 -0.029338 1.00254)
(0.840127 0.103512 0.0635317 0.0633965 1.13211 0.161095 -0.135899 -0.0357927 1.04548)
(0.782129 0.0703238 0.0369435 0.0794813 1.19159 0.0843319 -0.151698 -0.0237825 1.07401)
(0.786691 0.0123449 -0.0194946 0.0803671 1.2106 0.018467 -0.188646 0.0135301 1.04076)
(0.8172 -0.0563213 -0.0312963 0.0842774 1.18929 -0.0509333 -0.193224 0.0122158 1.01584)
(0.875 -0.0880713 -0.0358635 0.0917108 1.15353 -0.102192 -0.193174 -0.00813161 0.976369)
(0.936582 -0.0819986 -0.0365395 0.109161 1.13022 -0.133969 -0.176951 -0.029888 0.931162)
(0.986207 -0.0467023 -0.0366303 0.128652 1.13051 -0.148996 -0.140207 -0.0399876 0.885914)
(1.01099 0.0033779 -0.0390712 0.138671 1.1571 -0.152281 -0.0814156 -0.0248811 0.845914)
(1.00364 0.0471893 -0.046044 0.12675 1.20308 -0.150016 -0.00864659 0.0329872 0.816894)
(0.967375 0.0622011 -0.0584934 0.084253 1.25149 -0.148363 0.0455762 0.140976 0.802956)
(0.932178 0.0316972 -0.07553 0.0147454 1.27966 -0.152314 0.0288956 0.252294 0.801363)
(0.938936 -0.0280218 -0.0931425 -0.0652143 1.27486 -0.165135 -0.0361139 0.253613 0.799252)
(0.986487 -0.0729009 -0.107671 -0.133294 1.23291 -0.186305 -0.0514462 0.154297 0.798972)
(1.04357 -0.0796182 -0.112911 -0.166862 1.16309 -0.213126 -0.00769278 0.0590575 0.807228)
(1.08178 -0.0451498 -0.105922 -0.159085 1.09245 -0.24047 0.0493183 0.00393645 0.827498)
(1.08716 0.0134443 -0.0870557 -0.118562 1.0449 -0.261646 0.0957823 -0.0180489 0.857353)
(1.05759 0.0746662 -0.0585164 -0.0609524 1.03476 -0.269216 0.128281 -0.0222344 0.891675)
(0.999116 0.117114 -0.0241476 -0.00508579 1.06501 -0.256255 0.152932 -0.0189036 0.925212)
(0.92697 0.1205 0.0105475 0.031239 1.12498 -0.218422 0.177569 -0.0139229 0.9525)
(0.873913 0.0757975 0.0391226 0.0495982 1.18005 -0.157302 0.20854 -0.0134056 0.966007)
(0.864398 0.00638501 0.0572699 0.0594304 1.19717 -0.0846169 0.214836 -0.00931349 0.960671)
(0.897084 -0.0477861 0.064092 0.0673956 1.17549 -0.0183706 0.192123 0.00378518 0.939605)
(0.949208 -0.0648761 0.0622944 0.0807464 1.14243 0.0310626 0.169811 0.0244236 0.910338)
(0.995419 -0.0505132 0.0565196 0.102828 1.12482 0.0619308 0.143967 0.0414689 0.879775)
(1.02404 -0.0178004 0.0510218 0.123677 1.13038 0.0770902 0.110495 0.0496255 0.851326)
(1.02888 0.0200956 0.0492631 0.133773 1.15861 0.0812518 0.0627561 0.0400437 0.827966)
(1.00752 0.0481709 0.0536437 0.124141 1.20358 0.0797788 0.000802122 -0.00627801 0.813458)
(0.964595 0.0506963 0.0650476 0.0860941 1.25216 0.0779788 -0.0488071 -0.104873 0.810579)
(0.928651 0.0162192 0.0824573 0.018908 1.28248 0.0806564 -0.0345426 -0.217241 0.816052)
(0.933319 -0.0361808 0.101791 -0.0630568 1.27785 0.0920092 0.0259783 -0.234555 0.818102)
(0.972238 -0.0724312 0.120447 -0.135457 1.2339 0.112544 0.0437465 -0.159509 0.821426)
(1.01996 -0.074015 0.132122 -0.173793 1.1609 0.140736 0.00961677 -0.0835016 0.832919)
(1.05195 -0.0346605 0.132781 -0.16802 1.08523 0.171752 -0.0369653 -0.0386493 0.856937)
(1.05149 0.0309279 0.120926 -0.124005 1.03349 0.198003 -0.0749776 -0.0211772 0.892452)
(1.01377 0.0989257 0.0974417 -0.0582906 1.0234 0.210157 -0.0998796 -0.0190228 0.935336)
(0.945516 0.143957 0.0658287 0.00690085 1.05863 0.19935 -0.116033 -0.0217943 0.980109)
(0.864276 0.144567 0.0318088 0.0508519 1.12613 0.160467 -0.132709 -0.0198189 1.01946)
(0.802652 0.0928515 0.00185584 0.0728379 1.18901 0.0956948 -0.164522 -0.00317319 1.0426)
(0.722924 0.0238849 0.054858 0.0948638 1.3023 0.000281202 -0.213611 -0.0239927 1.05582)
(0.738907 -0.0219656 0.0427688 0.0972811 1.27267 -0.0647103 -0.263673 -0.00859684 1.05679)
(0.779372 -0.0474745 0.0311564 0.115055 1.23121 -0.117898 -0.294925 -0.0164438 1.03803)
(0.828539 -0.0467269 0.0178869 0.131819 1.20818 -0.156756 -0.304801 -0.0277902 1.00022)
(0.875869 -0.0248354 0.00304061 0.141905 1.21462 -0.182479 -0.295289 -0.0234189 0.945773)
(0.914756 0.0059544 -0.0125051 0.137328 1.24917 -0.197893 -0.268632 0.0141494 0.878756)
(0.941831 0.0306138 -0.0285502 0.111904 1.30214 -0.206211 -0.22835 0.0981367 0.806155)
(0.954785 0.0350766 -0.0457138 0.0655848 1.35727 -0.21118 -0.174505 0.225159 0.738113)
(0.96289 0.0188112 -0.061888 0.0024832 1.39121 -0.219074 -0.0923192 0.354787 0.682936)
(0.986916 -0.00472701 -0.0777572 -0.0638905 1.38747 -0.233504 0.0135624 0.387026 0.647242)
(1.02444 -0.045225 -0.0935806 -0.114394 1.33742 -0.252176 0.104846 0.289369 0.654868)
(1.05058 -0.0650507 -0.0921253 -0.136569 1.25961 -0.269582 0.157347 0.171592 0.702102)
(1.055 -0.0512227 -0.0825523 -0.127624 1.18352 -0.280739 0.192105 0.0836082 0.766891)
(1.0366 -0.0131644 -0.0702476 -0.0901534 1.13008 -0.280898 0.218145 0.0337414 0.833434)
(0.994104 0.0327359 -0.0572987 -0.0353881 1.11414 -0.267301 0.236393 0.0146918 0.892169)
(0.93203 0.0685904 -0.042903 0.0210773 1.1415 -0.237986 0.24851 0.0144237 0.938196)
(0.864044 0.0807198 -0.0262893 0.0662807 1.20276 -0.192329 0.254355 0.0178223 0.968963)
(0.812252 0.0634928 -0.0095556 0.0802465 1.26628 -0.132939 0.252843 0.00768287 0.98345)
(0.79852 0.0257455 0.00412519 0.0743013 1.28684 -0.0680761 0.265027 -0.0115916 0.98526)
(0.823815 -0.0103965 0.0132583 0.0778181 1.25981 -0.00691137 0.280372 -0.00877654 0.976114)
(0.868331 -0.0292171 0.0194848 0.0972554 1.22193 0.042628 0.275535 0.01554 0.955135)
(0.913392 -0.0280356 0.0254037 0.115896 1.20128 0.0783079 0.257578 0.0398292 0.925235)
(0.948425 -0.012739 0.0317703 0.126927 1.20728 0.102129 0.233384 0.0470573 0.888466)
(0.96928 0.0062167 0.0383653 0.123105 1.23861 0.117303 0.206381 0.022359 0.8459)
(0.975834 0.0172945 0.0455659 0.0995392 1.28814 0.126713 0.178491 -0.0474913 0.800087)
(0.968629 0.010606 0.0549829 0.0565913 1.3438 0.133242 0.146951 -0.163276 0.756525)
(0.959523 -0.0100981 0.0652963 -0.00282721 1.38491 0.142753 0.0928585 -0.293965 0.718788)
(0.968339 -0.0335287 0.0799518 -0.0686936 1.39232 0.158845 0.0110838 -0.351529 0.687923)
(0.994307 -0.0659013 0.102485 -0.123863 1.35048 0.179257 -0.0674717 -0.292092 0.687541)
(1.01461 -0.0817437 0.111082 -0.152281 1.27378 0.198239 -0.116187 -0.204009 0.725078)
(1.01485 -0.064339 0.112626 -0.145889 1.19387 0.211978 -0.147962 -0.134256 0.783932)
(0.992897 -0.0200217 0.110706 -0.104227 1.13533 0.215221 -0.168613 -0.0935331 0.849796)
(0.946555 0.0347065 0.106245 -0.0394088 1.11713 0.204239 -0.178176 -0.0776907 0.91306)
(0.879872 0.0782715 0.0976558 0.0288599 1.1472 0.17636 -0.179743 -0.0767568 0.967945)
(0.806155 0.0924834 0.0842265 0.0831298 1.21438 0.130502 -0.178442 -0.0761745 1.01088)
(0.746768 0.0705391 0.0688847 0.102215 1.2817 0.0690556 -0.180405 -0.05782 1.03974)
(0.727841 0.029659 0.0544952 0.0989317 1.30865 0.00902275 -0.227822 0.00276718 1.03803)
(0.748789 -0.0332313 0.0387085 0.104341 1.27491 -0.0484567 -0.270839 0.0184533 1.03014)
(0.797292 -0.0673773 0.0235256 0.12034 1.22963 -0.0942938 -0.298198 -0.000457445 1.00247)
(0.854627 -0.0681309 0.00780577 0.139669 1.20468 -0.127707 -0.301106 -0.0244614 0.961115)
(0.906973 -0.0417506 -0.0087074 0.15572 1.20834 -0.150578 -0.276404 -0.0332138 0.909889)
(0.943649 -0.00231552 -0.0255756 0.157712 1.2417 -0.165912 -0.224576 -0.00700265 0.852752)
(0.958839 0.0315736 -0.0420518 0.135773 1.29533 -0.177111 -0.15413 0.0724395 0.795022)
(0.954647 0.0414637 -0.0570988 0.0849755 1.35109 -0.187136 -0.0841965 0.206183 0.743588)
(0.949477 0.0208948 -0.0693338 0.00834022 1.38395 -0.198002 -0.0362839 0.346757 0.705797)
(0.964203 -0.0177733 -0.0805347 -0.0781348 1.37581 -0.209857 -0.00990237 0.375209 0.689086)
(1.00355 -0.0602184 -0.0901683 -0.147941 1.32226 -0.22358 0.0296596 0.270985 0.698715)
(1.04862 -0.074227 -0.092167 -0.179384 1.2404 -0.238601 0.0862946 0.147938 0.730741)
(1.07379 -0.0484322 -0.0874183 -0.168661 1.15948 -0.250155 0.144682 0.0618244 0.776124)
(1.0679 0.00476485 -0.0780737 -0.122841 1.10375 -0.254247 0.192077 0.0187269 0.826134)
(1.02818 0.0644929 -0.0655038 -0.0569503 1.09032 -0.247204 0.223925 0.00649744 0.874193)
(0.961094 0.10783 -0.0504266 0.00868474 1.12391 -0.225899 0.243528 0.010579 0.915558)
(0.884092 0.116745 -0.033841 0.0571986 1.19653 -0.188643 0.256318 0.0164358 0.945872)
(0.826184 0.0838282 -0.0174528 0.0772422 1.26987 -0.13725 0.266147 0.00277231 0.958926)
(0.811456 0.0251815 -0.00214779 0.0784919 1.2921 -0.0800159 0.278058 -0.0212136 0.958115)
(0.839844 -0.0256685 0.0108203 0.0860123 1.26087 -0.0258321 0.282931 -0.0164522 0.94599)
(0.889304 -0.0484232 0.0208272 0.104586 1.21941 0.0179652 0.272886 0.0140817 0.921835)
(0.937606 -0.0436169 0.0296275 0.126028 1.19827 0.0500034 0.250262 0.0431192 0.891999)
(0.97214 -0.020772 0.038468 0.142622 1.20384 0.072223 0.216316 0.056316 0.859195)
(0.986943 0.00673146 0.0479106 0.145086 1.2359 0.0876794 0.170149 0.0388118 0.824701)
(0.981303 0.0246687 0.0579537 0.125985 1.28711 0.0997033 0.11484 -0.0273528 0.790303)
(0.960769 0.0206716 0.0681496 0.0809366 1.34366 0.111038 0.0627203 -0.149105 0.75915)
(0.943677 -0.00594037 0.0777725 0.0100335 1.38271 0.123299 0.0296624 -0.29004 0.734962)
(0.948308 -0.0419126 0.0898749 -0.0759807 1.38228 0.135775 0.0138542 -0.341937 0.722792)
(0.977177 -0.0754422 0.10428 -0.152328 1.33289 0.149518 -0.0154893 -0.274655 0.729786)
(1.01344 -0.0838632 0.113682 -0.192394 1.24956 0.165518 -0.0621188 -0.181466 0.757323)
(1.03257 -0.052871 0.117531 -0.185818 1.16275 0.179305 -0.111611 -0.113707 0.800468)
(1.02155 0.00797624 0.116571 -0.136402 1.10057 0.186377 -0.150229 -0.0804534 0.852487)
(0.975903 0.0767083 0.110968 -0.0602091 1.08509 0.182143 -0.171441 -0.0728181 0.907238)
(0.902123 0.12632 0.1006 0.0177201 1.12329 0.162348 -0.178181 -0.0764409 0.959221)
(0.818176 0.135609 0.0864176 0.0755439 1.20424 0.12451 -0.180595 -0.0747818 1.0024)
(0.752013 0.09756 0.0706131 0.0997727 1.28451 0.0703766 -0.192443 -0.0444774 1.0285)
(0.738178 0.0338301 0.042609 0.104867 1.30657 0.0182378 -0.245497 0.0257336 1.02043)
(0.764453 -0.04867 0.0247991 0.115389 1.27775 -0.0315414 -0.27776 0.0391822 1.00099)
(0.821722 -0.0935849 0.00733301 0.128387 1.23161 -0.0707008 -0.300664 0.0152775 0.964878)
(0.888215 -0.0967228 -0.00968 0.150654 1.20143 -0.0990562 -0.295011 -0.0218881 0.9196)
(0.945687 -0.0648039 -0.0263222 0.172685 1.20035 -0.118486 -0.251001 -0.046704 0.871137)
(0.97792 -0.0139781 -0.042452 0.18049 1.23148 -0.131856 -0.168139 -0.0340802 0.824243)
(0.976831 0.0318782 -0.0571942 0.159391 1.28558 -0.142357 -0.0617265 0.0406384 0.783156)
(0.948111 0.0488727 -0.0690338 0.100409 1.34149 -0.152437 0.0247835 0.183618 0.751952)
(0.91922 0.0242775 -0.0749136 0.00827468 1.37181 -0.16333 0.0259458 0.338076 0.735173)
(0.926772 -0.0304201 -0.0811215 -0.0950639 1.35848 -0.176767 -0.0391208 0.363234 0.734185)
(0.977432 -0.0745546 -0.0871572 -0.180953 1.30254 -0.191712 -0.0560163 0.250206 0.743397)
(1.0446 -0.0820725 -0.0902291 -0.224685 1.21702 -0.207166 0.00152689 0.118753 0.759132)
(1.09409 -0.0421959 -0.0880141 -0.216279 1.13028 -0.221101 0.0856753 0.0330889 0.783767)
(1.1041 0.0295957 -0.0796003 -0.163559 1.07206 -0.230143 0.158621 -0.00256915 0.816405)
(1.06856 0.105974 -0.0656736 -0.0861407 1.06276 -0.229864 0.20713 -0.00700527 0.85349)
(0.99622 0.15748 -0.0481869 -0.00995464 1.10695 -0.215993 0.235353 -0.00025974 0.889879)
(0.909199 0.159966 -0.0297353 0.0413143 1.18907 -0.186302 0.256098 0.00121188 0.918892)
(0.845041 0.106634 -0.0119389 0.0698495 1.26354 -0.142718 0.281515 -0.0113914 0.933024)
(0.829546 0.024525 0.00449041 0.0846319 1.28756 -0.0923838 0.292555 -0.0222703 0.929877)
(0.860874 -0.0434342 0.0188243 0.0985161 1.26103 -0.0452004 0.282588 -0.0132929 0.91211)
(0.915452 -0.0721983 0.0306437 0.115416 1.21888 -0.00660594 0.267012 0.0158205 0.885053)
(0.967051 -0.06407 0.0407182 0.140489 1.19398 0.0220366 0.239361 0.0480866 0.855034)
(1.00016 -0.0324206 0.0505259 0.163141 1.19745 0.0420155 0.193335 0.0686775 0.825916)
(1.00625 0.00576187 0.0611555 0.171461 1.2298 0.056025 0.123295 0.0603931 0.799754)
(0.984728 0.0321485 0.072285 0.154129 1.28322 0.0672438 0.0341095 -0.00101461 0.777904)
(0.94499 0.0316063 0.0822715 0.101838 1.34092 0.0779024 -0.0407338 -0.130526 0.762038)
(0.912764 -0.000932693 0.0877724 0.0138507 1.37649 0.0886832 -0.0395762 -0.284842 0.755909)
(0.916804 -0.0499945 0.0966008 -0.0916468 1.3661 0.10126 0.0235504 -0.331888 0.760865)
(0.957755 -0.0836486 0.106569 -0.184333 1.30909 0.115388 0.045676 -0.25506 0.772321)
(1.01347 -0.0829292 0.114623 -0.236566 1.21953 0.131216 0.00219088 -0.154714 0.789012)
(1.0543 -0.0354669 0.118597 -0.232931 1.12523 0.14707 -0.0669144 -0.0880888 0.815914)
(1.05668 0.0457337 0.116669 -0.176757 1.05995 0.159252 -0.127064 -0.0632378 0.853944)
(1.01204 0.130822 0.108395 -0.0885825 1.04983 0.162188 -0.16259 -0.0651227 0.900431)
(0.930121 0.18598 0.0949298 0.00022716 1.10107 0.150025 -0.1753 -0.0719139 0.949553)
(0.834872 0.186372 0.07851 0.0609718 1.19435 0.119503 -0.181821 -0.0610736 0.992293)
(0.762035 0.126682 0.0607549 0.0927862 1.27901 0.0725898 -0.207684 -0.0197276 1.01785)
(0.745137 0.0402527 0.0678684 0.0936769 1.3624 0.027873 -0.235166 -0.0405089 0.968919)
(0.749383 -0.00350849 0.0565916 0.0978591 1.33175 -0.00985414 -0.303024 -0.0167765 0.984504)
(0.776783 -0.0308951 0.0422409 0.120083 1.28799 -0.0487275 -0.357976 -0.0181691 0.983999)
(0.814434 -0.0360302 0.025884 0.141524 1.26246 -0.084301 -0.385467 -0.0268269 0.963549)
(0.853128 -0.0238391 0.00920367 0.152988 1.26567 -0.114588 -0.383783 -0.0210297 0.924882)
(0.886974 -0.00435095 -0.00708204 0.145792 1.2946 -0.139245 -0.355372 0.0189112 0.872678)