/*--------------------------------*- C++ -*----------------------------------*\
| =========                 |                                                 |
| \\      /  F ield         | OpenFOAM: The Open Source CFD Toolbox           |
|  \\    /   O peration     | Version:  2312                                  |
|   \\  /    A nd           | Website:  www.openfoam.com                      |
|    \\/     M anipulation  |                                                 |
\*---------------------------------------------------------------------------*/
FoamFile
{
    version     2.0;
    format      ascii;
    arch        "LSB;label=32;scalar=64";
    class       pointVectorField;
    location    "0.7";
    object      pointD;
}
// * * * * * * * * * * * * * * * * * * * * * * * * * * * * * * * * * * * * * //

dimensions      [0 1 0 0 0 0 0];

internalField   nonuniform List<vector> 
2164
(
(0 0 0)
(0 0 0)
(0 0 0)
(0 0 0)
(0 0 0)
(0 0 0)
(0 0 0)
(0 0 0)
(0 0 0)
(0 0 0)
(0 0 0)
(0 0 0)
(0 0 0)
(0 0 0)
(0 0 0)
(0 0 0)
(0 0 0)
(0 0 0)
(0 0 0)
(0 0 0)
(0 0 0)
(0 0 0)
(0 0 0)
(0 0 0)
(0 0 0)
(0 0 0)
(0 0 0)
(0 0 0)
(0 0 0)
(0 0 0)
(0 0 0)
(0 0 0)
(0 0 0)
(0 0 0)
(0 0 0)
(0 0 0)
(-0.000287569 0.000256893 -0.000378418)
(-0.000229079 0.000439355 -0.000331493)
(-0.000159909 0.000554574 -0.000252825)
(-7.9446e-05 0.000621565 -0.000147052)
(1.17291e-05 0.000666599 -8.86875e-06)
(0.000101407 0.000712302 0.000170422)
(0.000165262 0.000772148 0.000396172)
(0.000193587 0.00083451 0.000638091)
(0.00019599 0.00087457 0.000751592)
(0.000158611 0.000876459 0.000635863)
(0.000107304 0.000843192 0.000415425)
(9.11467e-05 0.000798 0.000220464)
(0.000104077 0.000754796 6.7202e-05)
(0.000126787 0.00070675 -5.18364e-05)
(0.000147968 0.000637613 -0.000147391)
(0.0001644 0.000526964 -0.000229299)
(0.000169828 0.000358297 -0.000296211)
(0.000151826 0.000138501 -0.00032336)
(0.000107907 -8.74618e-05 -0.000290773)
(5.27577e-05 -0.000269795 -0.000220497)
(1.84721e-06 -0.000393808 -0.000142597)
(-4.27098e-05 -0.000471388 -6.14605e-05)
(-8.50889e-05 -0.000522484 3.24021e-05)
(-0.000124706 -0.000568407 0.000156013)
(-0.000150452 -0.000626768 0.000330203)
(-0.000163948 -0.000691017 0.000546775)
(-0.000174242 -0.000736681 0.000674713)
(-0.000158669 -0.000745354 0.000601512)
(-0.000135956 -0.000720128 0.000422076)
(-0.000150578 -0.000683283 0.000249693)
(-0.000195778 -0.000645676 0.000103304)
(-0.000249662 -0.000598679 -1.87634e-05)
(-0.000295782 -0.000524208 -0.000123291)
(-0.000327667 -0.000400867 -0.000219837)
(-0.000340716 -0.000213614 -0.000310458)
(-0.00032764 2.22357e-05 -0.000372977)
(-8.21073e-05 0.000189322 -0.000248435)
(-5.38709e-05 0.000358454 -0.000189369)
(-2.67687e-05 0.000461671 -0.000116834)
(5.46117e-06 0.00051521 -2.8192e-05)
(4.59614e-05 0.000537479 7.70016e-05)
(9.03714e-05 0.000547193 0.000198056)
(0.000129054 0.000558286 0.000331477)
(0.000160456 0.000574756 0.000458556)
(0.000182799 0.000595596 0.000515338)
(0.000182076 0.000617912 0.000459613)
(0.00016427 0.000636423 0.000344468)
(0.000148814 0.000651116 0.000228675)
(0.000136888 0.000660922 0.00012578)
(0.00012059 0.000655702 3.75654e-05)
(9.51641e-05 0.000619621 -3.73257e-05)
(6.17608e-05 0.000536165 -0.000102558)
(2.30443e-05 0.00038753 -0.000162566)
(-1.51589e-05 0.00017864 -0.000187798)
(-4.44183e-05 -3.65437e-05 -0.000148662)
(-6.33348e-05 -0.000202452 -8.15466e-05)
(-7.44768e-05 -0.000309064 -1.84109e-05)
(-8.21962e-05 -0.000369331 4.554e-05)
(-9.18286e-05 -0.000398139 0.000115164)
(-0.000105293 -0.000412047 0.000196594)
(-0.000120774 -0.000424767 0.000296383)
(-0.000143169 -0.000441044 0.000406838)
(-0.000171703 -0.000460161 0.000468089)
(-0.000188062 -0.000481041 0.000430381)
(-0.00019422 -0.000501918 0.00033308)
(-0.000206321 -0.000523052 0.000226596)
(-0.000222132 -0.000540632 0.000124376)
(-0.000230122 -0.000541449 3.03867e-05)
(-0.000221678 -0.000506436 -5.49822e-05)
(-0.000196273 -0.00041697 -0.000135033)
(-0.000158465 -0.000256341 -0.000215444)
(-0.00011712 -3.4913e-05 -0.00026581)
(0 0 0)
(0 0 0)
(0 0 0)
(0 0 0)
(0 0 0)
(0 0 0)
(0 0 0)
(0 0 0)
(0 0 0)
(0 0 0)
(0 0 0)
(0 0 0)
(0 0 0)
(0 0 0)
(0 0 0)
(0 0 0)
(0 0 0)
(0 0 0)
(0 0 0)
(0 0 0)
(0 0 0)
(0 0 0)
(0 0 0)
(0 0 0)
(0 0 0)
(0 0 0)
(0 0 0)
(0 0 0)
(0 0 0)
(0 0 0)
(0 0 0)
(0 0 0)
(0 0 0)
(0 0 0)
(0 0 0)
(0 0 0)
(0.000107216 0.000114276 -0.000111255)
(0.000102499 0.000270356 -5.13039e-05)
(8.4682e-05 0.000361754 1.24813e-05)
(6.71683e-05 0.000400091 8.20052e-05)
(5.76131e-05 0.000399499 0.00015327)
(5.98859e-05 0.000377123 0.000217367)
(7.70926e-05 0.000349327 0.000262623)
(0.000117194 0.000332109 0.000281347)
(0.000173695 0.000338743 0.000285275)
(0.000219387 0.000374479 0.000286562)
(0.000236238 0.000432648 0.000270761)
(0.000225039 0.000498966 0.00022972)
(0.000191637 0.000558936 0.000174817)
(0.000138075 0.000597144 0.000117056)
(6.63766e-05 0.00059607 6.41089e-05)
(-1.73467e-05 0.000539508 1.86962e-05)
(-9.92832e-05 0.000411052 -2.23828e-05)
(-0.000155891 0.000219696 -3.63798e-05)
(-0.000170966 2.17378e-05 -1.39386e-06)
(-0.000154402 -0.0001272 5.07262e-05)
(-0.000125613 -0.000215869 9.65998e-05)
(-9.68974e-05 -0.000256272 0.000142112)
(-7.53523e-05 -0.00026146 0.0001873)
(-6.594e-05 -0.000245613 0.000227493)
(-7.46471e-05 -0.000221361 0.000254928)
(-0.000111938 -0.000202577 0.000264029)
(-0.000171752 -0.000203882 0.000264348)
(-0.000226861 -0.000235065 0.000263775)
(-0.000260713 -0.000293509 0.000246134)
(-0.000271841 -0.00036589 0.000202297)
(-0.000259833 -0.000435987 0.000142102)
(-0.000222036 -0.000484513 7.56542e-05)
(-0.00015803 -0.000489582 1.01431e-05)
(-7.41849e-05 -0.000432171 -5.16711e-05)
(1.3636e-05 -0.000296575 -0.000111618)
(8.00871e-05 -9.43524e-05 -0.000141254)
(0 0 0)
(0 0 0)
(0 0 0)
(0 0 0)
(0 0 0)
(0 0 0)
(0 0 0)
(0 0 0)
(0 0 0)
(0 0 0)
(0 0 0)
(0 0 0)
(0 0 0)
(0 0 0)
(0 0 0)
(0 0 0)
(0 0 0)
(0 0 0)
(0 0 0)
(0 0 0)
(0 0 0)
(0 0 0)
(0 0 0)
(0 0 0)
(0 0 0)
(0 0 0)
(0 0 0)
(0 0 0)
(0 0 0)
(0 0 0)
(0 0 0)
(0 0 0)
(0 0 0)
(0 0 0)
(0 0 0)
(0 0 0)
(0.000260276 3.2543e-05 2.71168e-05)
(0.000225483 0.000173436 7.59742e-05)
(0.000165459 0.00025267 0.000128216)
(0.000101746 0.000274826 0.000176427)
(4.80713e-05 0.000253402 0.000212269)
(1.66048e-05 0.000206581 0.00022165)
(1.9655e-05 0.000155177 0.000190085)
(7.26327e-05 0.000121382 0.000124335)
(0.000170259 0.000121021 8.85488e-05)
(0.000263883 0.000161609 0.000129214)
(0.000312481 0.000241755 0.000190072)
(0.00031014 0.00034479 0.000214945)
(0.000262252 0.000446728 0.000206532)
(0.000177426 0.000524966 0.000180775)
(6.47154e-05 0.000558053 0.00015223)
(-6.3019e-05 0.000527011 0.000129868)
(-0.000179772 0.000421087 0.000118652)
(-0.000249567 0.000258624 0.000123763)
(-0.000254076 8.88078e-05 0.000144078)
(-0.000209355 -4.05193e-05 0.000170572)
(-0.000146184 -0.000111158 0.000197425)
(-8.56041e-05 -0.000130632 0.000223055)
(-3.82668e-05 -0.000112902 0.000242271)
(-1.30939e-05 -7.26499e-05 0.00024159)
(-2.11337e-05 -2.51849e-05 0.000204182)
(-7.75659e-05 1.01681e-05 0.000133187)
(-0.000175459 1.47012e-05 8.85006e-05)
(-0.000269368 -2.38818e-05 0.00011457)
(-0.000325814 -0.000106122 0.000159296)
(-0.000337679 -0.000216388 0.000170665)
(-0.000302483 -0.000330358 0.000150644)
(-0.000223437 -0.000421598 0.000112479)
(-0.000108355 -0.000463782 6.84607e-05)
(2.79189e-05 -0.000434899 2.7257e-05)
(0.00015724 -0.000324191 -1.92703e-06)
(0.000241718 -0.00015058 -3.67801e-06)
(0 0 0)
(0 0 0)
(0 0 0)
(0 0 0)
(0 0 0)
(0 0 0)
(0 0 0)
(0 0 0)
(0 0 0)
(0 0 0)
(0 0 0)
(0 0 0)
(0 0 0)
(0 0 0)
(0 0 0)
(0 0 0)
(0 0 0)
(0 0 0)
(0 0 0)
(0 0 0)
(0 0 0)
(0 0 0)
(0 0 0)
(0 0 0)
(0 0 0)
(0 0 0)
(0 0 0)
(0 0 0)
(0 0 0)
(0 0 0)
(0 0 0)
(0 0 0)
(0 0 0)
(0 0 0)
(0 0 0)
(0 0 0)
(-0.000416958 0.000458877 -0.000680587)
(-0.00033931 0.000815094 -0.000596833)
(-0.000248314 0.00104151 -0.000444002)
(-0.000136264 0.00116738 -0.000230994)
(-4.0309e-06 0.00123608 4.80601e-05)
(0.000131063 0.00128613 0.000400405)
(0.000240344 0.00134338 0.000818255)
(0.00031305 0.00140683 0.00123699)
(0.000358554 0.00145889 0.0014589)
(0.000348026 0.00148362 0.00132194)
(0.000295528 0.00147797 0.000962822)
(0.00026445 0.00145596 0.000592314)
(0.000262899 0.00142214 0.000275843)
(0.000272416 0.00136066 2.03693e-05)
(0.000276463 0.00124444 -0.000184647)
(0.000266452 0.00103913 -0.000352872)
(0.000236009 0.000716428 -0.000480681)
(0.000182848 0.000295454 -0.000530748)
(0.000115625 -0.00013688 -0.000474501)
(4.6924e-05 -0.000484977 -0.000345889)
(-1.5504e-05 -0.000716034 -0.000194048)
(-7.3111e-05 -0.000852803 -2.99433e-05)
(-0.000130042 -0.000932255 0.000160876)
(-0.000184588 -0.000990147 0.000403846)
(-0.000227997 -0.00105426 0.000719332)
(-0.000267724 -0.00112702 0.00107772)
(-0.000317818 -0.00118994 0.0013103)
(-0.000344562 -0.00122461 0.00124151)
(-0.000347973 -0.00123 0.000954737)
(-0.000377879 -0.00122129 0.000627389)
(-0.000439104 -0.00119944 0.000324379)
(-0.000505736 -0.00114351 6.10746e-05)
(-0.000551338 -0.00102162 -0.000165445)
(-0.00056232 -0.000797126 -0.00036716)
(-0.000537439 -0.000443951 -0.00054523)
(-0.00048483 6.54473e-06 -0.000664759)
(-0.000149609 0.000333574 -0.000468806)
(-0.000103634 0.000656558 -0.000359797)
(-6.11829e-05 0.000857649 -0.000207613)
(-8.22616e-06 0.000963221 -1.76609e-05)
(6.06453e-05 0.00100586 0.000208353)
(0.000139176 0.00101926 0.000465391)
(0.000214951 0.00102992 0.000738484)
(0.000284505 0.00105044 0.000985684)
(0.000344729 0.00108428 0.00110952)
(0.000371697 0.00113052 0.00103618)
(0.000361546 0.0011815 0.000828897)
(0.000338309 0.00122914 0.000590703)
(0.00030986 0.00126239 0.000365196)
(0.000269378 0.00126028 0.000166555)
(0.000210876 0.00119428 -2.90679e-06)
(0.00013588 0.00103467 -0.000146482)
(5.16805e-05 0.000752274 -0.000262085)
(-2.57727e-05 0.000363774 -0.000305081)
(-7.91768e-05 -3.62606e-05 -0.000239206)
(-0.00010853 -0.000349601 -0.000113951)
(-0.000124003 -0.000551177 1.94803e-05)
(-0.000136126 -0.000664238 0.000157994)
(-0.000153232 -0.000717441 0.000308616)
(-0.000178523 -0.000740798 0.000480795)
(-0.000212175 -0.000758771 0.000679057)
(-0.000261572 -0.0007832 0.000882011)
(-0.0003276 -0.000816838 0.0010047)
(-0.000383632 -0.000861539 0.00096255)
(-0.000418202 -0.000916289 0.000790511)
(-0.000446924 -0.000975267 0.000572658)
(-0.000470997 -0.0010236 0.000349155)
(-0.000475624 -0.00103418 0.000137052)
(-0.000447173 -0.00097189 -5.76124e-05)
(-0.000384417 -0.000802642 -0.000236131)
(-0.000299218 -0.000498722 -0.00039673)
(-0.000214243 -8.56524e-05 -0.000491441)
(0.000113206 0.000197653 -0.000246696)
(0.000124563 0.000487957 -0.00012362)
(0.000114952 0.000665961 2.54975e-05)
(0.000105229 0.000750513 0.000190912)
(0.000108051 0.000766441 0.000362316)
(0.000129616 0.00074427 0.000522668)
(0.000173312 0.000713238 0.000649459)
(0.000245692 0.000698653 0.000723685)
(0.000336265 0.000719527 0.000752788)
(0.000411315 0.000784038 0.000746026)
(0.000444154 0.000883338 0.000688978)
(0.000430144 0.000995527 0.000582379)
(0.000375445 0.00109528 0.000447992)
(0.00028387 0.00115413 0.000306892)
(0.000160649 0.00114012 0.000174492)
(1.81717e-05 0.00102436 5.92092e-05)
(-0.000120176 0.000781906 -3.16823e-05)
(-0.000220401 0.000433568 -5.84906e-05)
(-0.000259745 7.37096e-05 6.21589e-06)
(-0.000249409 -0.000204393 0.000115856)
(-0.000216315 -0.000377467 0.000228055)
(-0.000181116 -0.000464481 0.000339803)
(-0.000157182 -0.000488882 0.000449323)
(-0.00015376 -0.0004768 0.000549398)
(-0.000179318 -0.000452001 0.000627314)
(-0.00024454 -0.000436297 0.000671521)
(-0.000340072 -0.000449964 0.000689543)
(-0.000432808 -0.000507553 0.000681927)
(-0.000497183 -0.000607536 0.000625914)
(-0.000524025 -0.000730848 0.000517111)
(-0.000509726 -0.000849332 0.000372864)
(-0.00044958 -0.000927622 0.000211985)
(-0.000343843 -0.000925392 4.95528e-05)
(-0.000204867 -0.000808016 -0.000104132)
(-5.9482e-05 -0.000551337 -0.000236971)
(5.48967e-05 -0.000181738 -0.000298177)
(0.000343249 5.51147e-05 -2.16885e-05)
(0.000323331 0.00031129 0.000101136)
(0.00026524 0.000468047 0.000242734)
(0.000196759 0.000531978 0.000380607)
(0.000138876 0.000523666 0.000494827)
(0.000110383 0.000472286 0.000559527)
(0.000127773 0.000411472 0.000550442)
(0.000206882 0.000375711 0.000476072)
(0.000335615 0.000391106 0.000428557)
(0.000459284 0.000467962 0.000472947)
(0.000528526 0.000599972 0.000539297)
(0.00052489 0.000762509 0.000553155)
(0.000449315 0.000919878 0.000509165)
(0.000312636 0.00103461 0.000428937)
(0.000131034 0.00106984 0.000337833)
(-7.13545e-05 0.000994501 0.000256159)
(-0.000254914 0.000794102 0.000202569)
(-0.000372577 0.000499283 0.000199595)
(-0.000401169 0.000192341 0.000251404)
(-0.00035869 -4.83462e-05 0.000333361)
(-0.00028335 -0.000194565 0.000421486)
(-0.000205723 -0.00025528 0.000504333)
(-0.000145541 -0.000251542 0.000569984)
(-0.000118871 -0.000207884 0.000596963)
(-0.000140364 -0.000150579 0.000560892)
(-0.00022458 -0.000110153 0.000467112)
(-0.000356557 -0.000116847 0.00040134)
(-0.000485732 -0.000188234 0.00042161)
(-0.000572111 -0.000322385 0.000460946)
(-0.000595368 -0.00049738 0.000450908)
(-0.000545789 -0.000676554 0.000383919)
(-0.000425676 -0.000815437 0.000276001)
(-0.000248713 -0.000867755 0.000148911)
(-4.12441e-05 -0.000796315 2.47066e-05)
(0.000155128 -0.000586536 -6.80136e-05)
(0.000291898 -0.000272332 -8.8532e-05)
(-0.000512687 0.000539756 -0.000836974)
(-0.000415648 0.00102272 -0.000743433)
(-0.000303263 0.00134691 -0.00053626)
(-0.000165064 0.00153986 -0.000225621)
(-4.36001e-06 0.00164894 0.000188317)
(0.000159959 0.00171821 0.000700477)
(0.000301933 0.00177987 0.00128127)
(0.000409278 0.00184676 0.0018448)
(0.000488543 0.00191846 0.00218519)
(0.000518785 0.0019813 0.0020921)
(0.000484481 0.00201856 0.00166198)
(0.000434484 0.00202948 0.0011485)
(0.00040568 0.00200731 0.00067197)
(0.000389045 0.00192881 0.000269919)
(0.000367588 0.00176371 -5.2627e-05)
(0.000327312 0.00147571 -0.00030306)
(0.00026211 0.00103822 -0.00047654)
(0.000177707 0.000482161 -0.000542533)
(9.00971e-05 -8.65135e-05 -0.000480412)
(1.10146e-05 -0.000553255 -0.000322331)
(-5.89231e-05 -0.000873525 -0.000116821)
(-0.000125457 -0.00107044 0.000120265)
(-0.000191872 -0.0011873 0.000400782)
(-0.000255733 -0.0012657 0.000746718)
(-0.000312563 -0.00133773 0.00116711)
(-0.00036958 -0.00141764 0.0016214)
(-0.000442242 -0.00150408 0.00194677)
(-0.000516383 -0.00158135 0.00193097)
(-0.000559286 -0.00163323 0.00160091)
(-0.000594588 -0.00166137 0.00115238)
(-0.000652783 -0.00165721 0.000699035)
(-0.000714215 -0.0015902 0.000286777)
(-0.000749938 -0.00142357 -6.99679e-05)
(-0.000740181 -0.00111794 -0.000374931)
(-0.00068566 -0.000648415 -0.000626889)
(-0.000603883 -5.69552e-05 -0.000795556)
(-0.000243943 0.00038908 -0.000580761)
(-0.00017083 0.000821771 -0.000443937)
(-0.000100708 0.00110616 -0.000225161)
(-1.74621e-05 0.00126973 6.12542e-05)
(8.31707e-05 0.00134971 0.000406872)
(0.000193448 0.00138589 0.00079658)
(0.000300562 0.00141106 0.00119977)
(0.00039854 0.00144562 0.00155769)
(0.000483949 0.00149941 0.00175955)
(0.000538243 0.00157311 0.00170477)
(0.000542528 0.00165658 0.00144216)
(0.000511238 0.0017332 0.0011001)
(0.000464843 0.00178132 0.000753721)
(0.000402218 0.00177249 0.000437897)
(0.000318287 0.00167261 0.000167366)
(0.000213465 0.00144781 -5.35212e-05)
(9.6887e-05 0.00106878 -0.000213244)
(-1.15105e-05 0.000563153 -0.000267943)
(-9.08501e-05 4.3928e-05 -0.000191048)
(-0.000139196 -0.000373152 -3.05046e-05)
(-0.000169545 -0.000653183 0.000159401)
(-0.000196276 -0.000820616 0.00036591)
(-0.000228599 -0.000909837 0.000592988)
(-0.000269753 -0.000957136 0.000847298)
(-0.000320888 -0.000992497 0.00112625)
(-0.000388017 -0.00103457 0.00140046)
(-0.000474432 -0.00109118 0.00158113)
(-0.000564096 -0.00116489 0.00156105)
(-0.000628541 -0.0012534 0.00134942)
(-0.000667919 -0.00134457 0.00104044)
(-0.000693371 -0.00141321 0.000699728)
(-0.000693001 -0.00142296 0.000363617)
(-0.000651917 -0.00133113 5.16158e-05)
(-0.000566902 -0.00109784 -0.00022741)
(-0.000452738 -0.000694413 -0.000459424)
(-0.000337494 -0.000157237 -0.000593401)
(3.1591e-05 0.000228721 -0.000316873)
(7.61599e-05 0.00061213 -0.000145158)
(9.95775e-05 0.000859425 8.36499e-05)
(0.000123257 0.000992404 0.000345822)
(0.000159612 0.00104083 0.000622299)
(0.000213523 0.00104157 0.000887512)
(0.000285916 0.00102996 0.00110914)
(0.00037776 0.00103497 0.00125586)
(0.000481941 0.00107712 0.00132147)
(0.000571986 0.00116545 0.00131015)
(0.00061557 0.00129204 0.00121503)
(0.000601712 0.00143155 0.00104551)
(0.000536217 0.00155109 0.000831027)
(0.000424454 0.00161442 0.000602528)
(0.000273903 0.00158144 0.00038502)
(0.000100139 0.00141699 0.000197039)
(-7.01079e-05 0.00109501 6.11411e-05)
(-0.000201537 0.000646111 2.41865e-05)
(-0.000270382 0.000183133 0.000107671)
(-0.000285149 -0.000184237 0.000261308)
(-0.000272598 -0.000425499 0.000433492)
(-0.000256213 -0.000560759 0.000609225)
(-0.000251788 -0.000618216 0.000782353)
(-0.000269241 -0.000630421 0.000943333)
(-0.000315378 -0.000627228 0.00107634)
(-0.000395308 -0.00063343 0.0011632)
(-0.000505221 -0.000669288 0.00120174)
(-0.000619741 -0.000749634 0.00118689)
(-0.000705288 -0.000876428 0.00109698)
(-0.000745498 -0.0010295 0.000928436)
(-0.00073501 -0.00117286 0.000700883)
(-0.000668275 -0.00126195 0.000440582)
(-0.00054563 -0.00124566 0.000172491)
(-0.000381535 -0.00108046 -7.98538e-05)
(-0.0002064 -0.000739903 -0.000284268)
(-5.99698e-05 -0.000261519 -0.000376998)
(0.000288902 6.12704e-05 -4.70086e-05)
(0.00030551 0.000395072 0.000143853)
(0.000283458 0.000608869 0.000375697)
(0.000249258 0.000712367 0.000610068)
(0.000223774 0.000730695 0.000815148)
(0.000224678 0.00069889 0.000956847)
(0.000265542 0.000655889 0.00100516)
(0.000353845 0.000638712 0.000961465)
(0.000483958 0.000677049 0.000913173)
(0.000613462 0.000781676 0.000938013)
(0.000690372 0.000942733 0.000984013)
(0.000690269 0.00113449 0.000973082)
(0.000607361 0.00131803 0.000887976)
(0.00045016 0.00144806 0.000749357)
(0.000237767 0.00147777 0.000589681)
(4.65856e-07 0.00136844 0.000442304)
(-0.000217524 0.00110449 0.000343311)
(-0.000368021 0.000724895 0.000330063)
(-0.000427335 0.000330016 0.000408906)
(-0.000412219 1.3464e-05 0.000543351)
(-0.000360072 -0.000191782 0.000693493)
(-0.000303077 -0.000294797 0.000836226)
(-0.00026411 -0.00032006 0.000953131)
(-0.000260114 -0.000297858 0.00102008)
(-0.000302696 -0.000259708 0.0010117)
(-0.000396292 -0.000237649 0.000927351)
(-0.000534229 -0.000264935 0.000846401)
(-0.000676995 -0.000360946 0.000837909)
(-0.000778159 -0.000522512 0.000850611)
(-0.000813244 -0.000728236 0.000809051)
(-0.000766556 -0.000938483 0.000690113)
(-0.00063624 -0.00109951 0.000506134)
(-0.000436933 -0.00115179 0.000285672)
(-0.000199807 -0.00104713 6.74384e-05)
(2.95856e-05 -0.000768573 -9.5896e-05)
(0.000201466 -0.000360964 -0.000141309)
(-0.000595699 0.000501548 -0.000784716)
(-0.000479446 0.00105855 -0.000714336)
(-0.000345053 0.00145798 -0.000491459)
(-0.000184883 0.00171741 -0.000123278)
(-3.78629e-06 0.00187916 0.000381046)
(0.000181894 0.0019866 0.00100125)
(0.00035102 0.00207478 0.00169043)
(0.000488441 0.00216701 0.00235354)
(0.000599913 0.00227577 0.00279574)
(0.000680663 0.00238624 0.00278944)
(0.000674784 0.00246606 0.00236863)
(0.000605059 0.00250544 0.00178077)
(0.000540725 0.00249146 0.0011934)
(0.000485134 0.00239322 0.000678437)
(0.000428634 0.00218182 0.000264049)
(0.000357858 0.0018291 -4.48982e-05)
(0.000266899 0.00132248 -0.000244773)
(0.000162539 0.000703305 -0.000323748)
(6.03917e-05 7.46811e-05 -0.000277232)
(-2.92352e-05 -0.000455511 -0.000127317)
(-0.000108508 -0.000839133 9.21745e-05)
(-0.000184974 -0.00109134 0.000365397)
(-0.00026192 -0.00125208 0.000697699)
(-0.000337547 -0.00136306 0.00110164)
(-0.000409867 -0.00145883 0.00157549)
(-0.000482303 -0.00156367 0.00207547)
(-0.000571649 -0.00169017 0.00246014)
(-0.000687863 -0.00182224 0.00252331)
(-0.000768682 -0.00192408 0.00222293)
(-0.000803768 -0.0019859 0.00172013)
(-0.000842961 -0.00199554 0.00116858)
(-0.000879788 -0.00191577 0.000646158)
(-0.000894099 -0.00171076 0.000189349)
(-0.00086698 -0.00134868 -0.000191633)
(-0.000797778 -0.000816666 -0.000494042)
(-0.000702436 -0.000162247 -0.000702877)
(-0.000363388 0.000356925 -0.000513722)
(-0.000259483 0.000854 -0.000381535)
(-0.00015471 0.00120232 -0.000132882)
(-3.61771e-05 0.0014236 0.00021377)
(9.78968e-05 0.00155378 0.000642122)
(0.000239341 0.00163242 0.00112632)
(0.000375873 0.00169366 0.00162333)
(0.000499128 0.00176192 0.00206493)
(0.000607326 0.00184977 0.00233862)
(0.000690174 0.00195592 0.00233174)
(0.000710536 0.00206711 0.00206602)
(0.000670616 0.00216229 0.00166883)
(0.000605039 0.00221362 0.00124015)
(0.000520178 0.00218874 0.000836743)
(0.000415113 0.00205392 0.000489774)
(0.000290388 0.00177857 0.000214857)
(0.000154362 0.00134267 2.97719e-05)
(2.5352e-05 0.00078278 -3.39864e-05)
(-7.70736e-05 0.000210018 3.39837e-05)
(-0.000149187 -0.000264446 0.000195245)
(-0.000203032 -0.000601562 0.00040529)
(-0.000253289 -0.000820113 0.000646781)
(-0.000308632 -0.000953788 0.000918469)
(-0.000371561 -0.00103964 0.00122117)
(-0.000442554 -0.00110957 0.00154565)
(-0.000524847 -0.00118648 0.00185909)
(-0.000625055 -0.00128066 0.0020798)
(-0.000740112 -0.00139117 0.00210002)
(-0.000828171 -0.00151077 0.00189597)
(-0.000872747 -0.00162348 0.00154432)
(-0.000892445 -0.00169933 0.00112833)
(-0.00088234 -0.00169808 0.000702652)
(-0.000831888 -0.00157702 0.00030219)
(-0.000737597 -0.00129869 -5.10487e-05)
(-0.000612228 -0.000841814 -0.000333068)
(-0.00048087 -0.000248864 -0.000500115)
(-0.000115207 0.000204762 -0.000240165)
(-3.02012e-05 0.000642823 -5.12302e-05)
(3.91747e-05 0.000941862 0.000222392)
(0.000110768 0.00112294 0.000548712)
(0.00019298 0.00121756 0.000901558)
(0.00028681 0.00126287 0.00124849)
(0.000389698 0.00129367 0.00154949)
(0.000498565 0.00133702 0.00176332)
(0.000612714 0.00141037 0.00186849)
(0.000712035 0.00152149 0.00186576)
(0.000760829 0.00166478 0.00175687)
(0.000746883 0.00181413 0.00155224)
(0.000676798 0.00193345 0.00128411)
(0.000557827 0.00198551 0.000992838)
(0.000398292 0.00192923 0.00071345)
(0.000213389 0.00172853 0.000475283)
(2.82591e-05 0.00136139 0.000312)
(-0.000124789 0.000864756 0.00026719)
(-0.000223157 0.000352483 0.000351523)
(-0.00027219 -6.6275e-05 0.000518222)
(-0.000295537 -0.000357675 0.000717517)
(-0.000315373 -0.000539373 0.000927976)
(-0.000345905 -0.000640779 0.00113944)
(-0.000394364 -0.000695752 0.00134004)
(-0.000463944 -0.000734844 0.00151167)
(-0.000555249 -0.000781182 0.00163135)
(-0.000672434 -0.000850301 0.00168569)
(-0.000797945 -0.000954194 0.00167013)
(-0.00089445 -0.00109784 0.00156904)
(-0.000943574 -0.00126171 0.0013705)
(-0.000939301 -0.00140708 0.00108998)
(-0.000876573 -0.00148818 0.0007595)
(-0.000755382 -0.0014524 0.000413035)
(-0.000588585 -0.00125398 8.70543e-05)
(-0.000404022 -0.000868564 -0.000170184)
(-0.000238029 -0.00033934 -0.000291441)
(0.000129447 4.48226e-05 4.06281e-05)
(0.000193163 0.000423616 0.000270345)
(0.000225369 0.000677375 0.000560264)
(0.000248535 0.000819445 0.000862643)
(0.000277781 0.000878278 0.00113855)
(0.000323845 0.000889538 0.00134931)
(0.000393944 0.000889664 0.00146044)
(0.000489214 0.000909892 0.00146303)
(0.000615197 0.000976613 0.00142231)
(0.000741101 0.00110111 0.00142412)
(0.000816693 0.00127376 0.00144997)
(0.000820856 0.0014701 0.00142222)
(0.000743868 0.00165321 0.00131017)
(0.000590501 0.00177808 0.00113214)
(0.000377654 0.00179552 0.000925068)
(0.000134531 0.00166333 0.000732786)
(-9.66864e-05 0.00136515 0.000603719)
(-0.000270368 0.000942952 0.000581942)
(-0.000362834 0.000502019 0.000672676)
(-0.000388213 0.000140151 0.000833361)
(-0.000380551 -0.000108134 0.00101683)
(-0.000369282 -0.00025273 0.00119435)
(-0.000374289 -0.00032 0.00134434)
(-0.000407777 -0.000341587 0.00144274)
(-0.00047561 -0.000347771 0.00146486)
(-0.000574881 -0.000364355 0.00140242)
(-0.000711239 -0.000418888 0.00130973)
(-0.000855517 -0.000531739 0.00126576)
(-0.000959847 -0.000702656 0.0012545)
(-0.00100492 -0.000912013 0.00119373)
(-0.00097269 -0.00112217 0.0010413)
(-0.000856284 -0.00127976 0.000804633)
(-0.000665938 -0.001322 0.00051578)
(-0.000429773 -0.0011954 0.000226349)
(-0.000190366 -0.000880483 7.50973e-06)
(5.17635e-06 -0.000426325 -6.31716e-05)
(-0.000675534 0.000371462 -0.000522497)
(-0.000546207 0.000956074 -0.000499513)
(-0.000391176 0.00140431 -0.00029997)
(-0.000208414 0.00172255 7.72071e-05)
(-5.07791e-06 0.00194462 0.000617199)
(0.00020471 0.00210971 0.00128845)
(0.000403082 0.00225182 0.00203373)
(0.00057293 0.00239731 0.00275424)
(0.000716068 0.00256216 0.00327734)
(0.000831427 0.00272653 0.00338777)
(0.000844161 0.00284291 0.00304111)
(0.000760945 0.00289866 0.00244086)
(0.000662967 0.00288389 0.00179853)
(0.000565529 0.00276385 0.00121796)
(0.000471215 0.00251378 0.000748803)
(0.000373318 0.00211896 0.000407181)
(0.000266894 0.00158523 0.000192643)
(0.000155035 0.000960634 9.74753e-05)
(4.63008e-05 0.000332132 0.000112111)
(-5.42531e-05 -0.000213578 0.000225154)
(-0.000149396 -0.000632144 0.000420987)
(-0.000244601 -0.000929499 0.000688916)
(-0.000341611 -0.00113759 0.0010292)
(-0.000438316 -0.00129451 0.00144516)
(-0.000532505 -0.00143492 0.00192712)
(-0.00062465 -0.00158728 0.00243095)
(-0.000727855 -0.00176946 0.00284582)
(-0.000856871 -0.00196301 0.00299951)
(-0.000955216 -0.0021151 0.00278066)
(-0.000991888 -0.00220337 0.00228604)
(-0.00100614 -0.00221805 0.00169662)
(-0.00100967 -0.00212472 0.00111757)
(-0.000996502 -0.00189241 0.000604852)
(-0.000954672 -0.00150137 0.000181362)
(-0.000881616 -0.000953837 -0.000150973)
(-0.000786294 -0.000298138 -0.000392995)
(-0.000500821 0.000256755 -0.00025796)
(-0.000369978 0.000779286 -0.000158357)
(-0.000229903 0.00116978 8.02597e-05)
(-7.33393e-05 0.00144231 0.000442277)
(9.77678e-05 0.00162888 0.000906866)
(0.000274086 0.00176535 0.00144071)
(0.00044301 0.001883 0.00199292)
(0.000593936 0.00200478 0.0024899)
(0.000724598 0.00214144 0.00282587)
(0.000826622 0.00228682 0.00288937)
(0.000856546 0.00242185 0.00266429)
(0.000811117 0.00252497 0.00225774)
(0.000729427 0.00256953 0.00179105)
(0.000624861 0.00252354 0.0013405)
(0.000502737 0.00235776 0.000951919)
(0.00036578 0.00204954 0.000650417)
(0.000220609 0.00159184 0.000454361)
(8.09373e-05 0.00102649 0.000379398)
(-3.86514e-05 0.000450438 0.000422052)
(-0.000135429 -4.19704e-05 0.000554905)
(-0.000219235 -0.000412711 0.000748312)
(-0.000301873 -0.000673622 0.000986947)
(-0.000389473 -0.000854541 0.00126602)
(-0.000482367 -0.000989883 0.00158092)
(-0.000578734 -0.00111018 0.00191738)
(-0.000678794 -0.00123793 0.0022414)
(-0.000788926 -0.00138281 0.00248592)
(-0.000911118 -0.00153864 0.00255703)
(-0.00100894 -0.00168874 0.00239619)
(-0.00105714 -0.00181394 0.00204781)
(-0.00106833 -0.00188685 0.00160526)
(-0.0010466 -0.00186973 0.00113719)
(-0.000988678 -0.00172491 0.000690898)
(-0.000893054 -0.00142236 0.000298627)
(-0.000768523 -0.000951347 -1.16427e-05)
(-0.000633163 -0.000355828 -0.000206827)
(-0.000304818 0.000136018 4.63405e-06)
(-0.000180043 0.000596678 0.00017867)
(-6.17617e-05 0.000929876 0.00045638)
(6.27993e-05 0.00115393 0.000805175)
(0.000196608 0.0013001 0.00119598)
(0.000335594 0.00140227 0.00159242)
(0.00047316 0.00149025 0.00194906)
(0.000603359 0.00158525 0.00221692)
(0.000727909 0.00169891 0.00236187)
(0.000831673 0.00183671 0.00238188)
(0.000882928 0.00199404 0.00228324)
(0.000870601 0.00214437 0.00207259)
(0.000801036 0.00225248 0.00178284)
(0.000683336 0.00228517 0.00146212)
(0.000526144 0.00220606 0.0011536)
(0.000342541 0.00198267 0.000894187)
(0.000153591 0.00159931 0.000721006)
(-1.32806e-05 0.00109531 0.000668096)
(-0.000137999 0.000574489 0.000736217)
(-0.000223525 0.000135782 0.000885785)
(-0.000289609 -0.000186652 0.00107612)
(-0.000355021 -0.000407445 0.00128664)
(-0.000429986 -0.000555488 0.00150575)
(-0.000517154 -0.00066269 0.00171993)
(-0.000615214 -0.000756374 0.00190939)
(-0.000721866 -0.000854616 0.00204805)
(-0.000842317 -0.000965995 0.00211437)
(-0.000967191 -0.00109859 0.00210648)
(-0.00106742 -0.00125693 0.00201389)
(-0.00112342 -0.00142212 0.00181452)
(-0.00112674 -0.00155762 0.00151769)
(-0.00107363 -0.00162139 0.00115793)
(-0.00096417 -0.00156607 0.000774613)
(-0.000808251 -0.00134942 0.000411866)
(-0.000628019 -0.000951813 0.000125094)
(-0.000453208 -0.000417298 -2.15191e-05)
(-0.000100305 6.66003e-06 0.000274557)
(1.32889e-05 0.000404294 0.000508114)
(0.000105296 0.000683561 0.000815814)
(0.000193627 0.000860187 0.00114796)
(0.000286291 0.000964491 0.0014642)
(0.000385394 0.00102931 0.00172431)
(0.000491018 0.0010841 0.00188994)
(0.000600765 0.00115102 0.00194072)
(0.000724602 0.0012491 0.00191386)
(0.000843753 0.0013913 0.00189836)
(0.00091792 0.00157162 0.00191158)
(0.000929054 0.00176435 0.0018797)
(0.000866273 0.00193488 0.00176026)
(0.00073121 0.00204398 0.00156896)
(0.000536016 0.00204679 0.00134476)
(0.000304311 0.0019021 0.00113664)
(7.26509e-05 0.00159322 0.000997019)
(-0.000117624 0.0011607 0.000968643)
(-0.00024289 0.000705485 0.00105395)
(-0.000313111 0.000322765 0.00121053)
(-0.000357949 4.69714e-05 0.00139296)
(-0.000402965 -0.0001333 0.00157395)
(-0.000462483 -0.000245718 0.00173278)
(-0.000541755 -0.000320255 0.00184681)
(-0.000640356 -0.000381965 0.00189199)
(-0.000752654 -0.000447614 0.00185273)
(-0.000885107 -0.000533234 0.00175447)
(-0.00102111 -0.000659994 0.00168016)
(-0.00112605 -0.000834904 0.00165078)
(-0.00118228 -0.00103808 0.0015841)
(-0.00117093 -0.00123386 0.00142272)
(-0.00108155 -0.00137455 0.00116781)
(-0.000918208 -0.00140207 0.000850344)
(-0.000701936 -0.00126383 0.000526735)
(-0.00046841 -0.000939346 0.000276138)
(-0.000259047 -0.000476603 0.000181905)
(-0.000758024 0.000180541 -7.95951e-05)
(-0.000621387 0.000756071 -0.000116438)
(-0.000447272 0.00122786 2.93285e-05)
(-0.000239418 0.00159385 0.000371023)
(-9.14147e-06 0.00187855 0.00089436)
(0.000229096 0.00211445 0.00156277)
(0.000458642 0.00233118 0.00231582)
(0.0006615 0.00255188 0.00305908)
(0.000830782 0.00278773 0.003649)
(0.000956841 0.00301083 0.00388755)
(0.000979212 0.00316152 0.003652)
(0.00089543 0.00322571 0.0030915)