/*--------------------------------*- C++ -*----------------------------------*\
| =========                 |                                                 |
| \\      /  F ield         | OpenFOAM: The Open Source CFD Toolbox           |
|  \\    /   O peration     | Version:  2312                                  |
|   \\  /    A nd           | Website:  www.openfoam.com                      |
|    \\/     M anipulation  |                                                 |
\*---------------------------------------------------------------------------*/
FoamFile
{
    version     2.0;
    format      ascii;
    arch        "LSB;label=32;scalar=64";
    class       volSymmTensorField;
    location    "0.7";
    object      sigma;
}
// * * * * * * * * * * * * * * * * * * * * * * * * * * * * * * * * * * * * * //

dimensions      [1 -1 -2 0 0 0 0];

internalField   nonuniform List<symmTensor> 
1620
(
(23189.2 -2720.29 -1464.75 46016.9 19195.7 43026.6)
(24808 -6459.98 -4775.77 44398.3 18649.8 43026.7)
(27608.1 -9420.58 -7941.75 41598.1 17537.1 43026.6)
(31251.8 -11244.8 -10866.4 37953.9 15891.6 43026.5)
(35299.8 -11712.8 -13460.8 33905.9 13763.3 43026.5)
(39263.8 -10768.1 -15646.3 29942 11216.8 43026.6)
(42665.8 -8524.6 -17356.3 26540.2 8329.39 43026.5)
(45095.1 -5252.86 -18539 24111 5188.95 43026.6)
(46259 -1347.57 -19158.5 22947.2 1890.84 43026.7)
(46016.9 2720.29 -19195.7 23189.2 -1464.75 43026.6)
(44398.3 6459.98 -18649.8 24808 -4775.77 43026.7)
(41598.1 9420.58 -17537.1 27608.1 -7941.75 43026.6)
(37953.9 11244.8 -15891.6 31251.8 -10866.4 43026.5)
(33905.9 11712.8 -13763.3 35299.8 -13460.8 43026.5)
(29942 10768.1 -11216.8 39263.8 -15646.3 43026.6)
(26540.2 8524.6 -8329.39 42665.8 -17356.3 43026.5)
(24111 5252.86 -5188.95 45095.1 -18539 43026.6)
(22947.2 1347.57 -1890.84 46259 -19158.5 43026.7)
(23189.2 -2720.29 1464.75 46016.9 -19195.7 43026.6)
(24808 -6459.98 4775.76 44398.3 -18649.8 43026.7)
(27608.1 -9420.58 7941.75 41598.1 -17537.1 43026.6)
(31251.8 -11244.8 10866.4 37953.9 -15891.6 43026.5)
(35299.8 -11712.8 13460.8 33905.9 -13763.3 43026.5)
(39263.8 -10768.1 15646.3 29942 -11216.8 43026.6)
(42665.8 -8524.6 17356.3 26540.2 -8329.39 43026.5)
(45095.1 -5252.86 18539 24111 -5188.95 43026.6)
(46259 -1347.57 19158.5 22947.2 -1890.84 43026.7)
(46016.9 2720.29 19195.7 23189.2 1464.75 43026.6)
(44398.3 6459.98 18649.8 24808 4775.76 43026.7)
(41598.1 9420.58 17537.1 27608.1 7941.75 43026.6)
(37953.9 11244.8 15891.6 31251.8 10866.4 43026.5)
(33905.9 11712.8 13763.3 35299.8 13460.8 43026.5)
(29942 10768.1 11216.8 39263.8 15646.3 43026.6)
(26540.2 8524.6 8329.39 42665.8 17356.3 43026.5)
(24111 5252.86 5188.95 45095.1 18539 43026.6)
(22947.2 1347.57 1890.84 46259 19158.5 43026.7)
(12288.9 -4548.72 341.921 53814 1694.73 13336.7)
(15096.8 -11375.6 42.4401 51006.2 1728.36 13336.8)
(20070.2 -16830.5 -258.326 46032.5 1709.45 13336.6)
(26609.5 -20255.3 -551.311 39493.4 1638.71 13336.8)
(33925.6 -21237 -827.562 32177.2 1518.15 13336.7)
(41136.3 -19657.3 -1078.53 24966.4 1351.33 13336.6)
(47372 -15706.6 -1296.7 18730.9 1143.47 13336.7)
(51880.4 -9861.38 -1475.58 14222.6 900.931 13336.8)
(54117.6 -2826.81 -1609.61 11985.2 631.013 13336.7)
(53814 4548.72 -1694.73 12288.9 341.921 13336.7)
(51006.2 11375.6 -1728.36 15096.8 42.44 13336.8)
(46032.5 16830.5 -1709.45 20070.2 -258.326 13336.6)
(39493.4 20255.3 -1638.71 26609.5 -551.311 13336.8)
(32177.2 21237 -1518.15 33925.6 -827.562 13336.7)
(24966.4 19657.3 -1351.33 41136.3 -1078.53 13336.6)
(18730.9 15706.6 -1143.47 47372 -1296.7 13336.7)
(14222.6 9861.38 -900.931 51880.4 -1475.58 13336.8)
(11985.2 2826.81 -631.014 54117.6 -1609.61 13336.7)
(12288.9 -4548.72 -341.921 53814 -1694.73 13336.7)
(15096.8 -11375.6 -42.4401 51006.2 -1728.36 13336.8)
(20070.2 -16830.5 258.326 46032.5 -1709.45 13336.6)
(26609.5 -20255.3 551.311 39493.4 -1638.71 13336.8)
(33925.6 -21237 827.562 32177.2 -1518.15 13336.7)
(41136.3 -19657.3 1078.53 24966.4 -1351.33 13336.6)
(47372 -15706.6 1296.7 18730.9 -1143.47 13336.7)
(51880.4 -9861.38 1475.58 14222.6 -900.931 13336.8)
(54117.6 -2826.81 1609.61 11985.2 -631.014 13336.7)
(53814 4548.72 1694.73 12288.9 -341.921 13336.7)
(51006.2 11375.6 1728.36 15096.8 -42.4401 13336.8)
(46032.5 16830.5 1709.45 20070.2 258.326 13336.6)
(39493.4 20255.3 1638.71 26609.5 551.311 13336.8)
(32177.2 21237 1518.15 33925.6 827.562 13336.7)
(24966.4 19657.3 1351.33 41136.3 1078.53 13336.6)
(18730.9 15706.6 1143.47 47372 1296.7 13336.7)
(14222.6 9861.38 900.931 51880.4 1475.58 13336.8)
(11985.2 2826.81 631.013 54117.6 1609.61 13336.7)
(-2299.04 -4620.2 3627.62 30766.4 -26213.8 16129.1)
(278.19 -9996.08 8124.47 28189.1 -25185.6 16129.1)
(4538.54 -14166.3 12374.5 23928.4 -23392.2 16129)
(9968.4 -16627.9 16248.5 18498.6 -20888 16128.9)
(15912.8 -17083.9 19628.8 12554.5 -17749.1 16128.9)
(21654.5 -15479.3 22412.7 6812.75 -14071 16129.1)
(26501.2 -12007.6 24515.6 1966.08 -9965.28 16129.1)
(29868.2 -7087.69 25873.6 -1401.09 -5556.75 16129)
(31349.5 -1312.92 26445.4 -2882.24 -979.448 16129.1)
(30766.4 4620.2 26213.8 -2299.03 3627.62 16129.1)
(28189.1 9996.08 25185.6 278.194 8124.47 16129.1)
(23928.4 14166.3 23392.2 4538.54 12374.5 16129)
(18498.6 16627.9 20888 9968.4 16248.5 16128.9)
(12554.5 17083.9 17749.1 15912.8 19628.8 16128.9)
(6812.76 15479.3 14071 21654.5 22412.7 16129.1)
(1966.08 12007.6 9965.28 26501.2 24515.6 16129.1)
(-1401.08 7087.69 5556.75 29868.2 25873.6 16129)
(-2882.24 1312.92 979.448 31349.5 26445.4 16129.1)
(-2299.03 -4620.2 -3627.62 30766.4 26213.8 16129.1)
(278.194 -9996.08 -8124.47 28189.1 25185.6 16129.1)
(4538.54 -14166.3 -12374.5 23928.4 23392.2 16129)
(9968.4 -16627.9 -16248.5 18498.6 20888 16128.9)
(15912.8 -17083.9 -19628.8 12554.5 17749.1 16128.9)
(21654.5 -15479.3 -22412.7 6812.76 14071 16129.1)
(26501.2 -12007.6 -24515.6 1966.08 9965.28 16129.1)
(29868.2 -7087.69 -25873.6 -1401.09 5556.75 16129)
(31349.5 -1312.92 -26445.4 -2882.24 979.448 16129.1)
(30766.4 4620.2 -26213.8 -2299.04 -3627.62 16129.1)
(28189.1 9996.08 -25185.6 278.192 -8124.47 16129.1)
(23928.4 14166.3 -23392.2 4538.54 -12374.5 16129)
(18498.6 16627.9 -20888 9968.4 -16248.5 16128.9)
(12554.5 17083.9 -17749.1 15912.8 -19628.8 16128.9)
(6812.75 15479.3 -14071 21654.5 -22412.7 16129)
(1966.07 12007.6 -9965.28 26501.2 -24515.6 16129.1)
(-1401.09 7087.69 -5556.75 29868.2 -25873.6 16129)
(-2882.24 1312.92 -979.448 31349.5 -26445.4 16129.1)
(7742.52 -3186.61 -1923.91 28141.5 19107.8 30204)
(9447.47 -6482.78 -5212.65 26436.4 18483.4 30204.1)
(12177.2 -8997.16 -8343.11 23707.1 17297.5 30204.2)
(15601.8 -10426.2 -11220.1 20281.9 15585.9 30204.1)
(19308.9 -10597.8 -13756.1 16574.8 13400.8 30204.1)
(22851.1 -9491.14 -15874 13032.8 10808.6 30204.2)
(25801.3 -7239.74 -17509.8 10082.5 7887.79 30203.9)
(27803.5 -4115.04 -18613.5 8080.5 4727.41 30204.2)
(28616.3 -494.082 -19151.6 7267.77 1423.44 30204)
(28141.5 3186.61 -19107.8 7742.52 -1923.91 30204)
(26436.4 6482.78 -18483.4 9447.47 -5212.65 30204.1)
(23707.1 8997.16 -17297.5 12177.2 -8343.11 30204.2)
(20281.9 10426.2 -15585.9 15601.8 -11220.1 30204.1)
(16574.8 10597.8 -13400.8 19308.9 -13756.1 30204.1)
(13032.8 9491.14 -10808.6 22851.1 -15874 30204.2)
(10082.5 7239.74 -7887.79 25801.3 -17509.8 30203.9)
(8080.5 4115.04 -4727.41 27803.5 -18613.5 30204.2)
(7267.77 494.082 -1423.44 28616.3 -19151.6 30204)
(7742.52 -3186.61 1923.91 28141.5 -19107.8 30204)
(9447.47 -6482.78 5212.65 26436.4 -18483.4 30204.1)
(12177.2 -8997.16 8343.11 23707.1 -17297.5 30204.2)
(15601.8 -10426.2 11220.1 20281.9 -15585.9 30204.1)
(19308.9 -10597.8 13756.1 16574.8 -13400.8 30204.1)
(22851.1 -9491.14 15874 13032.8 -10808.6 30204.2)
(25801.3 -7239.74 17509.8 10082.5 -7887.79 30203.9)
(27803.5 -4115.04 18613.5 8080.5 -4727.41 30204.2)
(28616.3 -494.082 19151.6 7267.77 -1423.44 30204)
(28141.5 3186.61 19107.8 7742.52 1923.91 30204)
(26436.4 6482.78 18483.4 9447.47 5212.65 30204.1)
(23707.1 8997.16 17297.5 12177.2 8343.11 30204.2)
(20281.9 10426.2 15585.9 15601.8 11220.1 30204.1)
(16574.8 10597.8 13400.8 19308.9 13756.1 30204.1)
(13032.8 9491.14 10808.6 22851.1 15874 30204.2)
(10082.5 7239.74 7887.79 25801.3 17509.8 30203.9)
(8080.5 4115.04 4727.41 27803.5 18613.5 30204.2)
(7267.77 494.082 1423.44 28616.3 19151.6 30204)
(-3028.41 -5546.99 296.623 37379 2696.45 -2008.55)
(87.1783 -12122.5 -176.149 34263.4 2707.12 -2008.51)
(5263.79 -17235.9 -643.545 29086.6 2635.36 -2008.61)
(11877.4 -20270.4 -1091.44 22473.5 2483.64 -2008.34)
(19129.7 -20859.9 -1506.11 15221 2256.35 -2008.4)
(26146.2 -18933.5 -1875.07 8204.2 1960.57 -2008.57)
(32081 -14723.4 -2186.96 2269.77 1605.14 -2008.38)
(36217.6 -8737.47 -2432.51 -1867.23 1201.01 -2008.6)
(38057.7 -1697.7 -2603.97 -3707.13 760.361 -2008.53)
(37379 5546.99 -2696.45 -3028.4 296.623 -2008.54)
(34263.4 12122.5 -2707.12 87.1784 -176.149 -2008.51)
(29086.6 17235.9 -2635.36 5263.78 -643.545 -2008.61)
(22473.5 20270.4 -2483.64 11877.4 -1091.44 -2008.34)
(15221 20859.9 -2256.35 19129.7 -1506.11 -2008.4)
(8204.2 18933.5 -1960.57 26146.2 -1875.07 -2008.57)
(2269.77 14723.4 -1605.14 32081 -2186.96 -2008.38)
(-1867.23 8737.47 -1201.01 36217.6 -2432.51 -2008.6)
(-3707.13 1697.7 -760.361 38057.7 -2603.97 -2008.53)
(-3028.4 -5546.99 -296.623 37379 -2696.45 -2008.54)
(87.1785 -12122.5 176.149 34263.4 -2707.12 -2008.51)
(5263.78 -17235.9 643.545 29086.6 -2635.36 -2008.61)
(11877.4 -20270.4 1091.44 22473.5 -2483.64 -2008.34)
(19129.7 -20859.9 1506.11 15221 -2256.35 -2008.4)
(26146.2 -18933.5 1875.07 8204.2 -1960.57 -2008.57)
(32081 -14723.4 2186.96 2269.77 -1605.14 -2008.38)
(36217.6 -8737.47 2432.51 -1867.23 -1201.01 -2008.6)
(38057.7 -1697.7 2603.97 -3707.13 -760.361 -2008.53)
(37379 5546.99 2696.45 -3028.4 -296.623 -2008.54)
(34263.4 12122.5 2707.12 87.1785 176.149 -2008.51)
(29086.6 17235.9 2635.36 5263.78 643.545 -2008.61)
(22473.5 20270.4 2483.64 11877.4 1091.44 -2008.34)
(15221 20859.9 2256.35 19129.7 1506.11 -2008.4)
(8204.2 18933.5 1960.57 26146.2 1875.07 -2008.57)
(2269.77 14723.4 1605.14 32081 2186.96 -2008.39)
(-1867.23 8737.47 1201.01 36217.6 2432.51 -2008.6)
(-3707.13 1697.7 760.361 38057.7 2603.97 -2008.53)
(-21473.7 -6159.85 4443.02 10777.7 -26636 -3894.64)
(-18394.6 -11303.7 9000.78 7698.32 -25459.8 -3894.8)
(-13741.7 -15084.1 13285.1 3045.51 -23510.1 -3894.67)
(-8076.55 -17045.2 17165.8 -2619.95 -20846 -3894.83)
(-2082.04 -16950.4 20524.8 -8614.08 -17548.5 -3894.72)
(3518.49 -14811.1 23260.3 -14214.3 -13717.8 -3894.48)
(8049.46 -10885.3 25289 -18745.5 -9470.22 -3894.61)
(10964.6 -5646.7 26549.2 -21660.4 -4934.98 -3894.6)
(11912 272.972 27002.9 -22608 -249.834 -3894.58)
(10777.7 6159.85 26636 -21473.7 4443.02 -3894.64)
(7698.32 11303.7 25459.8 -18394.6 9000.78 -3894.8)
(3045.51 15084.1 23510.1 -13741.7 13285.1 -3894.67)
(-2619.94 17045.2 20846 -8076.55 17165.8 -3894.83)
(-8614.08 16950.4 17548.5 -2082.04 20524.8 -3894.72)
(-14214.3 14811.1 13717.8 3518.49 23260.3 -3894.48)
(-18745.5 10885.3 9470.22 8049.46 25289 -3894.61)
(-21660.4 5646.7 4934.98 10964.6 26549.2 -3894.6)
(-22608 -272.972 249.834 11912 27002.9 -3894.58)
(-21473.7 -6159.85 -4443.02 10777.7 26636 -3894.64)
(-18394.6 -11303.7 -9000.78 7698.32 25459.8 -3894.8)
(-13741.7 -15084.1 -13285.1 3045.51 23510.1 -3894.67)
(-8076.55 -17045.2 -17165.8 -2619.94 20846 -3894.83)
(-2082.04 -16950.4 -20524.8 -8614.08 17548.5 -3894.72)
(3518.49 -14811.1 -23260.3 -14214.3 13717.8 -3894.48)
(8049.46 -10885.3 -25289 -18745.5 9470.22 -3894.61)
(10964.6 -5646.7 -26549.2 -21660.4 4934.98 -3894.6)
(11912 272.972 -27002.9 -22608 249.834 -3894.58)
(10777.7 6159.85 -26636 -21473.7 -4443.02 -3894.64)
(7698.32 11303.7 -25459.8 -18394.6 -9000.78 -3894.8)
(3045.51 15084.1 -23510.1 -13741.7 -13285.1 -3894.67)
(-2619.95 17045.2 -20846 -8076.55 -17165.8 -3894.83)
(-8614.08 16950.4 -17548.5 -2082.04 -20524.8 -3894.72)
(-14214.3 14811.1 -13717.8 3518.49 -23260.3 -3894.48)
(-18745.5 10885.3 -9470.22 8049.46 -25289 -3894.62)
(-21660.4 5646.7 -4934.98 10964.6 -26549.2 -3894.61)
(-22608 -272.972 -249.834 11912 -27002.9 -3894.58)
(8268.89 -3459.44 -1804.99 28401.4 18805.6 31955.8)
(10058.9 -6693.71 -5043.2 26610.8 18206.5 31955.6)
(12847.6 -9120.56 -8128.08 23822.6 17054.2 31955.8)
(16297.7 -10447.3 -10966 20371.9 15383.7 31955.8)
(19994 -10514.1 -13470.8 16676.2 13245.7 31955.7)
(23489.9 -9312.52 -15566.2 13180.2 10705.3 31956)
(26363.9 -6987.89 -17188.7 10305.8 7839.64 31955.6)
(28269.8 -3820.31 -18288.9 8400.1 4735.72 31955.8)
(28977.2 -192.05 -18833.4 7692.48 1488 31955.6)
(28401.4 3459.44 -18805.6 8268.89 -1804.99 31955.8)
(26610.8 6693.71 -18206.5 10058.9 -5043.2 31955.6)
(23822.6 9120.56 -17054.2 12847.6 -8128.08 31955.8)
(20371.9 10447.3 -15383.7 16297.7 -10966 31955.8)
(16676.2 10514.1 -13245.7 19994 -13470.8 31955.7)
(13180.2 9312.52 -10705.3 23489.9 -15566.2 31956)
(10305.8 6987.89 -7839.64 26363.9 -17188.7 31955.6)
(8400.1 3820.31 -4735.72 28269.8 -18288.9 31955.8)
(7692.48 192.05 -1488 28977.2 -18833.4 31955.6)
(8268.89 -3459.44 1804.99 28401.4 -18805.6 31955.8)
(10058.9 -6693.71 5043.2 26610.8 -18206.5 31955.6)
(12847.6 -9120.56 8128.08 23822.6 -17054.2 31955.8)
(16297.7 -10447.3 10966 20371.9 -15383.7 31955.8)
(19994 -10514.1 13470.8 16676.2 -13245.7 31955.7)
(23489.9 -9312.52 15566.2 13180.2 -10705.3 31956)
(26363.9 -6987.89 17188.7 10305.8 -7839.64 31955.6)
(28269.8 -3820.31 18288.9 8400.1 -4735.72 31955.8)
(28977.2 -192.05 18833.4 7692.48 -1488 31955.6)
(28401.4 3459.44 18805.6 8268.89 1804.99 31955.8)
(26610.8 6693.71 18206.5 10058.9 5043.2 31955.6)
(23822.6 9120.56 17054.2 12847.6 8128.08 31955.8)
(20371.9 10447.3 15383.7 16297.7 10966 31955.8)
(16676.2 10514.1 13245.7 19994 13470.8 31955.7)
(13180.2 9312.52 10705.3 23489.9 15566.2 31956)
(10305.8 6987.89 7839.64 26363.9 17188.7 31955.6)
(8400.1 3820.31 4735.72 28269.8 18288.9 31955.8)
(7692.48 192.05 1488 28977.2 18833.4 31955.6)
(-1968.21 -6674.59 418.863 37354.4 2501.36 -1060.09)
(1500.56 -12996.6 -21.8795 33886.1 2536.18 -1059.84)
(6921.98 -17751.1 -461.952 28464.2 2493.85 -1060.07)
(13643 -20364.5 -887.983 21743.7 2375.75 -1059.84)
(20852.3 -20521.7 -1286.94 14534.3 2185.37 -1059.92)
(27680.4 -18203.6 -1646.99 7705.71 1928.76 -1060.11)
(33304.2 -13689.9 -1956.88 2082.29 1613.47 -1059.91)
(37044.8 -7525.03 -2207.29 -1658.7 1249.13 -1060.12)
(38451.8 -452.568 -2390.62 -3065.09 846.867 -1059.87)
(37354.4 6674.59 -2501.36 -1968.21 418.863 -1060.09)
(33886.1 12996.6 -2536.14 1500.57 -21.8665 -1059.84)
(28464.2 17751.1 -2493.85 6921.98 -461.952 -1060.07)
(21743.7 20364.5 -2375.75 13643 -887.982 -1059.84)
(14534.3 20521.7 -2185.37 20852.3 -1286.94 -1059.92)
(7705.71 18203.6 -1928.76 27680.4 -1646.99 -1060.11)
(2082.29 13689.9 -1613.47 33304.2 -1956.88 -1059.91)
(-1658.7 7525.03 -1249.13 37044.8 -2207.29 -1060.12)
(-3065.09 452.568 -846.867 38451.8 -2390.62 -1059.86)
(-1968.21 -6674.59 -418.863 37354.4 -2501.36 -1060.09)
(1500.57 -12996.6 21.8664 33886.1 -2536.14 -1059.84)
(6921.98 -17751.1 461.952 28464.2 -2493.85 -1060.07)
(13643 -20364.5 887.982 21743.7 -2375.75 -1059.84)
(20852.3 -20521.7 1286.94 14534.3 -2185.37 -1059.92)
(27680.4 -18203.6 1646.99 7705.71 -1928.76 -1060.11)
(33304.2 -13689.9 1956.88 2082.29 -1613.47 -1059.91)
(37044.8 -7525.03 2207.29 -1658.7 -1249.13 -1060.12)
(38451.8 -452.568 2390.62 -3065.09 -846.867 -1059.87)
(37354.4 6674.59 2501.36 -1968.21 -418.863 -1060.09)
(33886.1 12996.6 2536.14 1500.57 21.8664 -1059.84)
(28464.2 17751.1 2493.85 6921.98 461.952 -1060.07)
(21743.7 20364.5 2375.75 13643 887.982 -1059.84)
(14534.3 20521.7 2185.37 20852.3 1286.94 -1059.92)
(7705.71 18203.6 1928.76 27680.4 1646.99 -1060.11)
(2082.29 13689.9 1613.47 33304.2 1956.88 -1059.91)
(-1658.71 7525.02 1249.14 37044.8 2207.33 -1060.11)
(-3065.09 452.568 846.867 38451.8 2390.62 -1059.87)
(-23620.3 -10214.5 7247.49 6578.53 -28436.7 -6326.23)
(-19216.3 -14762.8 12075.3 2174.25 -26746.2 -6326.46)
(-13521.9 -17530.5 16536.3 -3519.67 -24243 -6326.18)
(-7224.56 -18183.8 20494.9 -9817.17 -21003.2 -6326.18)
(-1083.57 -16643.8 23830.7 -15958.3 -17125.2 -6326.33)
(4160.49 -13096.3 26442.4 -21202.2 -12726.8 -6326.21)
(7874.78 -7969.24 28250.7 -24916.8 -7941.82 -6326.4)
(9611.82 -1881.01 29200.5 -26653.3 -2915.54 -6326.15)
(9161.56 4434.16 29263.2 -26203.2 2199.39 -6326.17)
(6578.53 10214.5 28436.7 -23620.3 7247.49 -6326.23)
(2174.25 14762.8 26746.2 -19216.3 12075.3 -6326.46)
(-3519.67 17530.5 24243 -13521.9 16536.3 -6326.18)
(-9817.17 18183.8 21003.2 -7224.56 20494.9 -6326.18)
(-15958.3 16643.8 17125.2 -1083.57 23830.7 -6326.33)
(-21202.2 13096.3 12726.8 4160.49 26442.4 -6326.2)
(-24916.8 7969.24 7941.82 7874.78 28250.7 -6326.4)
(-26653.3 1881.01 2915.54 9611.82 29200.5 -6326.15)
(-26203.2 -4434.16 -2199.39 9161.56 29263.2 -6326.17)
(-23620.3 -10214.5 -7247.49 6578.53 28436.7 -6326.23)
(-19216.3 -14762.8 -12075.3 2174.25 26746.2 -6326.46)
(-13521.9 -17530.5 -16536.3 -3519.67 24243 -6326.18)
(-7224.56 -18183.8 -20494.9 -9817.17 21003.2 -6326.18)
(-1083.57 -16643.8 -23830.7 -15958.3 17125.2 -6326.33)
(4160.49 -13096.3 -26442.4 -21202.2 12726.8 -6326.21)
(7874.78 -7969.24 -28250.7 -24916.8 7941.82 -6326.4)
(9611.82 -1881.01 -29200.5 -26653.3 2915.54 -6326.15)
(9161.56 4434.16 -29263.2 -26203.2 -2199.39 -6326.18)
(6578.53 10214.5 -28436.7 -23620.3 -7247.49 -6326.23)
(2174.25 14762.8 -26746.2 -19216.3 -12075.3 -6326.46)
(-3519.67 17530.5 -24243 -13521.9 -16536.3 -6326.18)
(-9817.17 18183.8 -21003.2 -7224.56 -20494.9 -6326.19)
(-15958.3 16643.8 -17125.2 -1083.57 -23830.7 -6326.33)
(-21202.2 13096.3 -12726.8 4160.49 -26442.4 -6326.21)
(-24916.8 7969.24 -7941.82 7874.78 -28250.7 -6326.4)
(-26653.3 1881.01 -2915.54 9611.82 -29200.5 -6326.15)
(-26203.2 -4434.16 2199.38 9161.56 -29263.2 -6326.17)
(8494.53 -3432.12 -1281.92 28254.2 18438.4 33280.8)
(10264.2 -6604.28 -4464.28 26484.6 17935.7 33280.7)
(13012.1 -8979.88 -7511.03 23736.6 16888 33280.6)
(16406.9 -10272.3 -10329.5 20342 15327.2 33280.8)
(20038.8 -10325.7 -12834 16710.1 13300.7 33280.8)
(23470.1 -9133.76 -14948.7 13278.8 10870 33280.8)
(26286.8 -6840.17 -16609.1 10462.3 8109.06 33280.7)
(28148.9 -3721.43 -17764.9 8599.75 5101.63 33280.6)
(28832.2 -153.916 -18380.9 7916.52 1939.31 33280.8)
(28254.2 3432.12 -18438.4 8494.53 -1281.92 33280.8)
(26484.6 6604.28 -17935.7 10264.2 -4464.28 33280.7)
(23736.6 8979.88 -16888 13012.1 -7511.03 33280.6)
(20342 10272.3 -15327.2 16406.9 -10329.5 33280.8)
(16710.1 10325.7 -13300.7 20038.8 -12834 33280.8)
(13278.8 9133.76 -10870 23470.1 -14948.7 33280.8)
(10462.3 6840.17 -8109.06 26286.8 -16609.1 33280.7)
(8599.75 3721.43 -5101.63 28148.9 -17764.9 33280.6)
(7916.52 153.916 -1939.31 28832.2 -18380.9 33280.8)
(8494.53 -3432.12 1281.92 28254.2 -18438.4 33280.8)
(10264.2 -6604.28 4464.28 26484.6 -17935.7 33280.7)
(13012.1 -8979.88 7511.03 23736.6 -16888 33280.6)
(16406.9 -10272.3 10329.5 20342 -15327.2 33280.8)
(20038.8 -10325.7 12834 16710.1 -13300.7 33280.8)
(23470.1 -9133.76 14948.7 13278.8 -10870 33280.8)
(26286.8 -6840.17 16609.1 10462.3 -8109.06 33280.7)
(28148.9 -3721.43 17764.9 8599.75 -5101.63 33280.6)
(28832.2 -153.916 18380.9 7916.52 -1939.31 33280.8)
(28254.2 3432.12 18438.4 8494.53 1281.92 33280.8)
(26484.6 6604.28 17935.7 10264.2 4464.28 33280.7)
(23736.6 8979.88 16888 13012.1 7511.03 33280.6)
(20342 10272.3 15327.2 16406.9 10329.5 33280.8)
(16710.1 10325.7 13300.7 20038.8 12834 33280.8)
(13278.8 9133.76 10870 23470.1 14948.7 33280.8)
(10462.3 6840.17 8109.06 26286.8 16609.1 33280.7)
(8599.75 3721.43 5101.63 28148.9 17764.9 33280.6)
(7916.52 153.916 1939.31 28832.2 18380.9 33280.8)
(-1273.85 -7998.18 429.386 36141.9 2258.02 -901.799)
(2589.84 -13914.3 30.7575 32278.1 2298.28 -901.869)
(8244.07 -18152.2 -368.804 26623.9 2268.7 -901.839)
(15006.8 -20200.6 -757.191 19861.4 2170.23 -901.716)
(22062 -19812.5 -1122.54 12805.9 2005.78 -901.849)
(28559.3 -17034.8 -1453.78 6308.79 1780.39 -901.781)
(33714.6 -12202.4 -1740.81 1153.41 1500.87 -901.854)
(36906.2 -5898.22 -1974.98 -2038.22 1175.78 -901.85)
(37749.3 1117.39 -2149.15 -2881.17 814.964 -901.809)
(36141.9 7998.18 -2258.02 -1273.85 429.386 -901.801)
(32278.1 13914.3 -2298.28 2589.84 30.7576 -901.868)
(26623.9 18152.2 -2268.7 8244.07 -368.804 -901.834)
(19861.4 20200.6 -2170.23 15006.8 -757.191 -901.715)
(12805.9 19812.5 -2005.78 22062 -1122.54 -901.848)
(6308.79 17034.8 -1780.39 28559.3 -1453.78 -901.78)
(1153.41 12202.4 -1500.87 33714.6 -1740.81 -901.854)
(-2038.22 5898.22 -1175.78 36906.2 -1974.98 -901.849)
(-2881.17 -1117.39 -814.964 37749.3 -2149.15 -901.808)
(-1273.85 -7998.18 -429.386 36141.9 -2258.02 -901.801)
(2589.84 -13914.3 -30.7576 32278.1 -2298.28 -901.868)
(8244.07 -18152.2 368.804 26623.9 -2268.7 -901.834)
(15006.8 -20200.6 757.191 19861.4 -2170.23 -901.715)
(22062 -19812.5 1122.54 12805.9 -2005.78 -901.848)
(28559.3 -17034.8 1453.78 6308.79 -1780.39 -901.781)
(33714.6 -12202.4 1740.81 1153.41 -1500.87 -901.854)
(36906.2 -5898.22 1974.98 -2038.22 -1175.78 -901.85)
(37749.3 1117.39 2149.15 -2881.17 -814.964 -901.809)
(36141.9 7998.18 2258.02 -1273.85 -429.386 -901.802)
(32278.1 13914.3 2298.28 2589.84 -30.7576 -901.869)
(26623.9 18152.2 2268.7 8244.07 368.804 -901.834)
(19861.4 20200.6 2170.23 15006.8 757.191 -901.715)
(12805.9 19812.5 2005.78 22062 1122.54 -901.849)
(6308.79 17034.8 1780.39 28559.3 1453.78 -901.781)
(1153.41 12202.4 1500.87 33714.6 1740.81 -901.851)
(-2038.22 5898.22 1175.78 36906.2 1974.98 -901.85)
(-2881.17 -1117.39 814.964 37749.3 2149.15 -901.812)
(-24800.1 -14421.3 10206.1 993.909 -29848.1 -8755.18)
(-19090.1 -17962.6 15234.1 -4716.31 -27622.3 -8755.35)
(-12512.9 -19337.4 19799.2 -11293.2 -24557.3 -8755.2)
(-5862.47 -18379.8 23762.8 -17944 -20746.1 -8755.28)
(59.3952 -15205.3 27004.2 -23865.9 -16304.6 -8755.41)
(4538.67 -10196.9 29425.3 -28344.8 -11367.7 -8755.17)
(7034.45 -3958.49 30952.2 -30841 -6085.32 -8755.36)
(7246.44 2757.31 31538.7 -31052.6 -618.078 -8755.28)
(5148.52 9140.59 31166.9 -28954.7 4867.97 -8755.2)
(993.907 14421.3 29848.1 -24800.1 10206.1 -8755.19)
(-4716.31 17962.6 27622.3 -19090.1 15234.1 -8755.35)
(-11293.2 19337.4 24557.3 -12512.9 19799.2 -8755.2)
(-17944 18379.8 20746.1 -5862.47 23762.8 -8755.28)
(-23865.9 15205.3 16304.6 59.3943 27004.2 -8755.41)
(-28344.8 10196.9 11367.7 4538.67 29425.3 -8755.17)
(-30841 3958.49 6085.32 7034.45 30952.2 -8755.36)
(-31052.6 -2757.31 618.078 7246.44 31538.7 -8755.27)
(-28954.7 -9140.59 -4867.97 5148.52 31166.9 -8755.2)
(-24800.1 -14421.3 -10206.1 993.908 29848.1 -8755.19)
(-19090.1 -17962.6 -15234.1 -4716.31 27622.3 -8755.35)
(-12512.9 -19337.4 -19799.2 -11293.2 24557.3 -8755.2)
(-5862.47 -18379.8 -23762.8 -17944 20746.1 -8755.28)
(59.3942 -15205.3 -27004.2 -23865.9 16304.6 -8755.42)
(4538.67 -10196.9 -29425.3 -28344.8 11367.7 -8755.17)
(7034.45 -3958.49 -30952.2 -30841 6085.32 -8755.36)
(7246.44 2757.31 -31538.7 -31052.6 618.078 -8755.28)
(5148.52 9140.59 -31166.9 -28954.7 -4867.97 -8755.2)
(993.908 14421.3 -29848.1 -24800.1 -10206.1 -8755.19)
(-4716.31 17962.6 -27622.3 -19090.1 -15234.1 -8755.35)
(-11293.2 19337.4 -24557.3 -12512.9 -19799.2 -8755.2)
(-17944 18379.8 -20746.1 -5862.47 -23762.8 -8755.29)
(-23865.9 15205.3 -16304.6 59.3951 -27004.2 -8755.42)
(-28344.8 10196.9 -11367.7 4538.67 -29425.3 -8755.17)
(-30841 3958.49 -6085.32 7034.45 -30952.2 -8755.36)
(-31052.6 -2757.31 -618.078 7246.44 -31538.7 -8755.27)
(-28954.7 -9140.59 4867.97 5148.52 -31166.9 -8755.2)
(8618.52 -3275.51 -641.175 27358.5 17987.4 34305.2)
(10304 -6282.72 -3754.94 25673.3 17602.8 34305.3)
(12916.1 -8532.11 -6754.6 23060.8 16683.4 34305.1)
(16140.5 -9752.47 -9549.09 19837 15256.9 34305.3)
(19587.2 -9796.39 -12053.3 16389.8 13367 34305.4)
(22841.4 -8658.88 -14191.3 13135.7 11070.9 34305.1)
(25510.5 -6476.91 -15898.2 10467.1 8438.45 34305.4)
(27271.8 -3513.72 -17122 8705.11 5549.53 34305)
(27913.8 -126.704 -17825.5 8063.41 2492.01 34305.3)
(27358.5 3275.51 -17987.4 8618.52 -641.175 34305.2)
(25673.3 6282.72 -17602.8 10304 -3754.94 34305.3)
(23060.8 8532.11 -16683.4 12916.1 -6754.6 34305.1)
(19837 9752.47 -15256.9 16140.5 -9549.09 34305.3)
(16389.8 9796.39 -13367 19587.2 -12053.3 34305.4)
(13135.7 8658.88 -11070.9 22841.4 -14191.3 34305.1)
(10467.1 6476.91 -8438.45 25510.5 -15898.2 34305.4)
(8705.11 3513.72 -5549.53 27271.8 -17122 34305)
(8063.41 126.704 -2492.01 27913.8 -17825.5 34305.3)
(8618.52 -3275.51 641.175 27358.5 -17987.4 34305.2)
(10304 -6282.72 3754.94 25673.3 -17602.8 34305.3)
(12916.1 -8532.11 6754.6 23060.8 -16683.4 34305.1)
(16140.5 -9752.47 9549.09 19837 -15256.9 34305.3)
(19587.2 -9796.39 12053.3 16389.8 -13367 34305.4)
(22841.4 -8658.88 14191.3 13135.7 -11070.9 34305.1)
(25510.5 -6476.91 15898.2 10467.1 -8438.45 34305.4)
(27271.8 -3513.72 17122 8705.11 -5549.53 34305)
(27913.8 -126.704 17825.5 8063.41 -2492.01 34305.3)
(27358.5 3275.51 17987.4 8618.52 641.175 34305.2)
(25673.3 6282.72 17602.8 10304 3754.94 34305.3)
(23060.8 8532.11 16683.4 12916.1 6754.6 34305.1)
(19837 9752.47 15256.9 16140.5 9549.09 34305.3)
(16389.8 9796.39 13367 19587.2 12053.3 34305.4)
(13135.7 8658.88 11070.9 22841.4 14191.3 34305.1)
(10467.1 6476.91 8438.45 25510.5 15898.2 34305.4)
(8705.11 3513.72 5549.53 27271.8 17122 34305)
(8063.41 126.704 2492.01 27913.8 17825.5 34305.3)
(-342.141 -9107 323.875 34145.9 2165.76 -866.208)
(3812.26 -14455.6 -57.1367 29990.9 2189.1 -866.53)
(9546.09 -18060.6 -436.383 24257.7 2145.89 -866.202)
(16166.6 -19487.3 -802.36 17636.7 2037.48 -866.453)
(22876 -18563.5 -1144.06 10927.5 1867.28 -866.352)
(28864.9 -15400.7 -1450.82 4938.88 1640.19 -866.221)
(33410.6 -10380.3 -1713.64 392.714 1363.35 -866.465)
(35965.4 -4107.88 -1924.38 -2161.73 1045.08 -866.263)
(36220.6 2660.02 -2076.62 -2417.11 695.034 -866.349)
(34145.9 9107 -2165.76 -342.141 323.875 -866.208)
(29990.9 14455.6 -2189.1 3812.26 -57.1367 -866.526)
(24257.7 18060.6 -2145.89 9546.09 -436.384 -866.199)
(17636.7 19487.3 -2037.48 16166.6 -802.36 -866.457)
(10927.5 18563.5 -1867.28 22876 -1144.06 -866.352)
(4938.88 15400.7 -1640.19 28864.9 -1450.82 -866.221)
(392.714 10380.3 -1363.35 33410.6 -1713.64 -866.464)
(-2161.72 4107.88 -1045.08 35965.4 -1924.38 -866.263)
(-2417.11 -2660.02 -695.034 36220.6 -2076.62 -866.348)
(-342.141 -9107 -323.875 34145.9 -2165.76 -866.207)
(3812.26 -14455.6 57.1367 29990.9 -2189.1 -866.526)
(9546.09 -18060.6 436.384 24257.7 -2145.89 -866.199)
(16166.6 -19487.3 802.361 17636.7 -2037.48 -866.457)
(22876 -18563.5 1144.06 10927.5 -1867.28 -866.352)
(28864.9 -15400.7 1450.82 4938.88 -1640.19 -866.221)
(33410.6 -10380.3 1713.64 392.714 -1363.35 -866.465)
(35965.4 -4107.88 1924.38 -2161.72 -1045.08 -866.263)
(36220.6 2660.02 2076.62 -2417.11 -695.034 -866.349)
(34145.9 9107 2165.76 -342.141 -323.875 -866.208)
(29990.9 14455.6 2189.1 3812.26 57.1367 -866.527)
(24257.7 18060.6 2145.89 9546.09 436.383 -866.2)
(17636.7 19487.3 2037.48 16166.6 802.36 -866.458)
(10927.5 18563.5 1867.28 22876 1144.06 -866.353)
(4938.88 15400.7 1640.19 28864.9 1450.82 -866.221)
(392.714 10380.3 1363.35 33410.6 1713.63 -866.465)
(-2161.73 4107.88 1045.08 35965.4 1924.38 -866.263)
(-2417.12 -2660.02 695.034 36220.6 2076.62 -866.35)
(-23723.4 -17971.2 13052.5 -4507.08 -30607.1 -9860.35)
(-16997.2 -20173.6 18169.2 -11232.9 -27875.6 -9860.03)
(-9923.67 -19942.7 22733.7 -18306.5 -24297 -9860.23)
(-3355.65 -17306.5 26607.5 -24874.7 -19980.3 -9860.19)
(1914.77 -12582.8 29672.7 -30144.7 -15056.4 -9860.08)
(5251.48 -6341.47 31836.5 -33481.8 -9675.04 -9860.17)
(6252.57 664.733 33032.8 -34482.6 -3999.7 -9860.15)
(4796.71 7590.76 33225.6 -33027.1 1797.15 -9860.22)
(1060.24 13601.3 32408.7 -29290.2 7539.44 -9860.11)
(-4507.08 17971.2 30607.1 -23723.4 13052.5 -9860.35)
(-11232.9 20173.6 27875.6 -16997.2 18169.2 -9860.03)
(-18306.6 19942.8 24297 -9923.64 22733.7 -9860.19)
(-24874.7 17306.5 19980.3 -3355.65 26607.5 -9860.19)
(-30144.7 12582.8 15056.4 1914.77 29672.7 -9860.08)
(-33481.8 6341.47 9675.04 5251.48 31836.5 -9860.17)
(-34482.6 -664.733 3999.7 6252.57 33032.8 -9860.15)
(-33027.1 -7590.76 -1797.15 4796.71 33225.6 -9860.22)
(-29290.2 -13601.3 -7539.44 1060.24 32408.7 -9860.11)
(-23723.4 -17971.2 -13052.5 -4507.08 30607.1 -9860.35)
(-16997.2 -20173.6 -18169.2 -11232.9 27875.6 -9860.03)
(-9923.64 -19942.8 -22733.7 -18306.6 24297 -9860.19)
(-3355.65 -17306.5 -26607.5 -24874.7 19980.3 -9860.19)
(1914.77 -12582.8 -29672.7 -30144.7 15056.4 -9860.08)
(5251.48 -6341.47 -31836.5 -33481.8 9675.04 -9860.17)
(6252.57 664.733 -33032.8 -34482.6 3999.7 -9860.15)
(4796.71 7590.76 -33225.6 -33027.1 -1797.15 -9860.22)
(1060.24 13601.3 -32408.7 -29290.2 -7539.44 -9860.11)
(-4507.08 17971.2 -30607.1 -23723.4 -13052.5 -9860.35)
(-11232.9 20173.6 -27875.6 -16997.2 -18169.2 -9860.03)
(-18306.6 19942.8 -24297 -9923.63 -22733.7 -9860.19)
(-24874.7 17306.5 -19980.3 -3355.65 -26607.5 -9860.19)
(-30144.7 12582.8 -15056.4 1914.77 -29672.7 -9860.08)
(-33481.8 6341.47 -9675.04 5251.48 -31836.5 -9860.17)
(-34482.6 -664.733 -3999.7 6252.57 -33032.8 -9860.15)
(-33027.1 -7590.76 1797.15 4796.71 -33225.6 -9860.22)
(-29290.2 -13601.3 7539.44 1060.24 -32408.7 -9860.11)
(8361.97 -2795.24 172.287 25437.5 17531.2 34795.5)
(9833.05 -5546.73 -2874.58 23966.7 17294.8 34795.7)
(12156.1 -7629.18 -5834.08 21643.2 16532.9 34795.6)
(15051.7 -8791.53 -8616.37 18748 15268.6 34795.7)
(18170 -8893.44 -11136.9 15629.5 13540.4 34795.6)
(21135.1 -7922.68 -13318.9 12664.4 11400.8 34795.5)
(23589.4 -5996.27 -15096.3 10210.2 8914.82 34795.7)
(25236.7 -3346.7 -16415 8562.63 6157.95 34795.5)
(25878.8 -293.418 -17234.9 7921.01 3213.94 34795.7)
(25437.5 2795.24 -17531.2 8361.97 172.287 34795.5)
(23966.7 5546.73 -17294.8 9833.05 -2874.58 34795.7)
(21643.2 7629.18 -16532.9 12156.1 -5834.08 34795.6)
(18748 8791.53 -15268.6 15051.7 -8616.37 34795.7)
(15629.5 8893.44 -13540.4 18170 -11136.9 34795.6)
(12664.4 7922.68 -11400.8 21135.1 -13318.9 34795.5)
(10210.2 5996.27 -8914.82 23589.4 -15096.3 34795.7)
(8562.63 3346.7 -6157.95 25236.7 -16415 34795.5)
(7921.01 293.418 -3213.94 25878.8 -17234.9 34795.7)
(8361.97 -2795.24 -172.287 25437.5 -17531.2 34795.5)
(9833.05 -5546.73 2874.58 23966.7 -17294.8 34795.7)
(12156.1 -7629.18 5834.08 21643.2 -16532.9 34795.6)
(15051.7 -8791.53 8616.37 18748 -15268.6 34795.7)
(18170 -8893.44 11136.9 15629.5 -13540.4 34795.6)