/*--------------------------------*- C++ -*----------------------------------*\
| =========                 |                                                 |
| \\      /  F ield         | OpenFOAM: The Open Source CFD Toolbox           |
|  \\    /   O peration     | Version:  2312                                  |
|   \\  /    A nd           | Website:  www.openfoam.com                      |
|    \\/     M anipulation  |                                                 |
\*---------------------------------------------------------------------------*/
FoamFile
{
    version     2.0;
    format      ascii;
    arch        "LSB;label=32;scalar=64";
    class       volScalarField;
    location    "0.7";
    object      sigmaEq;
}
// * * * * * * * * * * * * * * * * * * * * * * * * * * * * * * * * * * * * * //

dimensions      [1 -1 -2 0 0 0 0];

internalField   nonuniform List<scalar> 
1620
(
46555.1
47937.7
48445.2
47035.8
44727.9
42666.9
41173.8
40198.1
40503.6
41241.3
41236.2
42251.2
43688.3
45410.8
46912.3
47324.2
46375.7
45020.3
44166.8
43916.8
43851.3
43476.9
42728.2
41802.2
40874
40083.2
40504.7
41364
41473.1
42304.5
43501.5
45015.2
46453.1
47010.2
46454.9
45951.3
44026.5
43922.9
43450.7
42894.6
42357.9
41928.7
41627.9
41420
41384
41662
41975.1
42326.3
42733.8
43261.9
43904.5
44581.7
45291.4
45663.3
42383.6
43048.9
42873.7
42547.9
42215.8
41935.5
41707.5
41499.7
41412.7
41616.3
41863.7
42161.8
42540
43045
43647.5
44240
44776
45147.3
43087.9
42306.7
41452.6
40916.8
40646.4
40525.3
40499.5
40599.8
41106.5
40056.3
39634.9
39535.4
39504.5
39501.5
39590.1
39921.6
40640.2
41571.9
42000.6
41740
41331.4
41058.1
40922.1
40863.5
40844.8
40891.2
41216.9
40023.8
39648.6
39598.6
39648.2
39771.3
40044.4
40636.9
41684.7
42851.6
45761.6
47725
48403.7
46676.9
43913.4
41353.6
39299.5
37750
38261.6
39060.8
39007.6
40251
41784.1
43478.6
45021.2
45749.3
45219.8
44036
43315.7
43280.6
43315.5
42882.4
41926.7
40652.5
39251.1
37891.7
38386.3
39303.9
39374.6
40428.4
41724.3
43172.6
44590.7
45427.5
45238
44865.9
47459.3
48502.2
45822.9
43807
42392.7
41400
40685.9
40076.8
39723.8
40174.2
40945.8
41628.6
42289.2
43154.9
44420.3
46354.8
49432.9
49195
43935.1
46162.9
44681.4
43339
42343.3
41605.7
41003.7
40363.8
39819.3
39953.9
40528.2
41166.9
41849.2
42713.9
43925.3
45761.8
48588
48186.1
43104.7
42706.7
41972.3
41323.9
40806.4
40323.8
39830.1
39409.3
39604.9
38284.3
38320.7
38808
39324.9
39746.3
40066.7
40355.3
40716.4
41271.2
41869.3
42036.5
41781.8
41402.9
41024.6
40629.7
40191.8
39763.7
39660.3
38105.5
38200.3
38816.7
39506.9
40112.9
40638.8
41212.2
41954.7
42743.7
43157.4
45327
46401.3
45150.2
42558.2
39738.7
37185
35130.1
35404.9
37244.5
36536.8
37960.3
39610.2
41194.8
42481.5
43085.5
42668.6
41596.5
41074.1
41444.9
41813
41542.3
40570.3
39097.2
37362.1
35578.4
35515.3
37710.6
37060.9
38300.1
39818.2
41217.8
42337.7
42942.7
42744.9
42287.2
47627.7
54607.7
49043.9
45060.8
42604.5
40968.1
39767.2
38645.1
37711.7
38206.7
39558.8
40770.2
41749.2
42908
44663.6
47823.5
53498.3
48043.8
42962.6
49369.8
46826.9
44263.7
42519.5
41290.3
40302.9
39207.1
37965.8
37818.5
38728.1
39975.5
41115.6
42306.9
43904.9
46782.7
52015.3
47176.6
42173.5
43051
42817.8
41997.7
41106.9
40206.3
39259.6
38273.5
37738
36239.5
36863.6
38067.1
39153.4
40017.9
40602.3
40816.8
40494.2
40006.5
40831.3
42231.5
42468.5
41947.3
41230.7
40453.7
39616.8
38702.9
37990.9
35876.2
36500
37955.4
39360.1
40472.8
41303.7
41913.1
42084.9
41710.3
39907.4
41949.4
43396.8
42964.1
40925.1
38197.2
35594.5
33625.8
33598.4
37171.5
35225.6
36208.5
37755.9
39245.2
40322.9
40641.9
39980
38741.5
38285.6
39039.9
39831.2
39868.4
39072.5
37686.5
36041.1
34393
33754.7
37443.8
35951.4
36677.9
38178
39580.4
40505.7
40739.2
40139.9
39302.8
43881.9
55785.2
50979.4
46029
42874.7
40789.1
39307.9
37943
36595.4
36834.9
38375.5
40087.8
41345.4
42685.9
44669.7
48277.7
53508.7
43861.3
40264.7
49647.6
48105.9
44947.2
42694.4
41150
39980.5
38726.5
37068.1
36471.6
37185.3
38886.5
40450.9
41896.6
43639
46702.6
51242.7
42997.2
40195.4
43185.7
44036.4
43090.8
41770.2
40520.7
39368.5
38216
37217.7
35257.6
36141.9
37719.8
39123.8
40281.3
41117.5
41315.9
40187.3
38171
39136.5
42490.8
43574
42850
41745.1
40677.3
39677.2
38656
37625.3
34880.1
35600.8
37446.3
39305.6
40799.6
41955.2
42668.9
41995.2
39763.2
37336
39240.4
40770.6
40807.3
39277.6
36883.3
34581.8
33003.9
32939.1
36530.4
35135.3
35134.2
36228.7
37465.2
38362.9
38477.8
37591.5
36238.8
35878.2
36870.6
37952.3
38265.3
37741.2
36667.9
35410.6
34192.6
33477.5
35722.6
36071.4
35721.5
36773.9
38027.4
38841.1
38855.4
37951.3
36870.8
40164.7
51589.1
50230.5
46012.3
42836.8
40644.9
39134.9
37786.1
36271.6
36109.7
37517
39549.1
41023
42444.3
44427.5
47652.9
50193.2
40021.8
37518.2
46883.7
47511.7
44862.3
42603.9
41029.5
39899.2
38737.8
37028.2
35913.6
36197.2
37926.2
39764.7
41376
43102.2
45613.2
47477.6
39252.4
38240.4
43314.1
45388.2
44416.9
42750.4
41263.1
40050.9
38926.4
37755.4
35277.2
36108.8
37747.7
39249.1
40517.5
41525.4
41762.3
39941.4
36366.6
37439.9
43001.5
45048.5
44057.9
42564.8
41297.7
40277.5
39336.9
38299.6
35563.4
35459.3
37296.8
39326.6
41053
42505.7
43380.8
41895.6
37854.3
35647
37389.5
38804.8
38987.3
37816.9
35829.8
33933.6
32745.6
32732.6
34903
35951.3
34759.4
35138.7
35880.4
36469.7
36413.1
35492.6
34345.2
34250.5
35353.5
36525.4
37000.8
36742.8
36043.9
35224.4
34418.1
33789.1
34231.8
36812.7
35430.5
35706.5
36561.7
37195.7
37107.7
36156.1
35161.4
37572.9
46314.7
47498.5
44878
42253.3
40267.3
38898.2
37692.6
36221.6
35674.2
36894.4
39025.1
40677.5
42095.1
43859.9
46140.2
45988.5
37085.8
35358.4
43152.3
45336.9
43855.8
42064.8
40721.4
39776.3
38823.8
37317.4
35773.6
35738.4
37033.6
38964.4
40638
42208
43822.1
43368.3
36609.6
36783.9
43475.9
46527
45620.3
43779.2
42154.6
40890.2
39757.2
38475.3
36011.7
36301.8
37940.4
39453.2
40724.7
41812.7
42118.6
39821.4
34898.5
36112.2
43796
46695.5
45389.6
43541.7
42107.9
41064.2
40178
39230.1
37594.9
35423.9
37321.7
39346.2
41200.2
42887.9
43941.7
41858.8
36371.2
34664.5
36229.7
37429.5
37574.4
36609.6
34972.3
33438.9
32558.5
32636.1
34345.9
37258.1
35055.1
34576.2
34673.9
34799.8
34551.8
33784.1
33105.7
33398.2
34555.4
35666.8
36170
36082.1
35675.4
35196.7
34699.1
34217.4
34318.8
36867.9
35725
35080.3
35349.3
35670.2
35504.1
34707.1
34043
35876.2
42192.4
44280.3
43071.2
41190.4
39574.6
38444.3
37471.3
36200.2
35391.8
36414.2
38416.6
40227.5
41581.9
42941
44048.8
42132.3
34971.1
33881.2
39864.7
42625.9
42259.9
41127.7
40156.2
39478.5
38802.1
37628.6
35959.4
35654.2
36217.2
38005.1
39646.9
40948.3
41663.6
39935.9
34806.1
35815.3
43709.9
47325.7
46470.8
44600
42928.8
41612.7
40438.8
39134.5
37005.8
36253.1
38164.4
39675.2
40929.5
42047.4
42451.9
39901.1
33853.1
35258.5
44895.6
48365.7
46677.4
44520.8
42931.5
41829
40950.9
40107.3
39242.5
34837.5
37317.2
39307.9
41249.4
43113.7
44351.3
41895.8
35260.4
34173.5
35540
36467.2
36472.2
35585.7
34196.7
32950.9
32324.2
32521.3
34119.6
37619.7
36019.1
34586.4
34061.3
33689.2
33244.8
32728.8
32596.1
33252.6
34387.3
35320.6
35720.3
35669.1
35420.1
35161.3
34893.1
34587.5
34646.6
35275.2
36614.2
35004.8
34593.1
34525.7
34259.1
33684.7
33407.8
34787.6
39385.7
41478.3
41103.6
39849.9
38616.8
37759.6
37074.6
36104.3
35190.3
35988.7
37721.4
39653.9
40920
41781.3
41811.6
39114.1
33743.4
33153.7
37521.5
40185
40514.4
39955.9
39362.9
38974.3
38599.5
37805.2
36306.6
35596.7
35658.3
36931.2
38453.7
39463.1
39498.1
37338.2
33648.4
35318.2
44291.8
47990.7
47019.1
45155.9
43490.9
42146.1
40947.3
39685.4
37925.3
35499.9
38384.5
39923.5
41213.6
42381.6
42963.2
40440
33420.8
35040.3
46551
50095.5
47881
45449.3
43713
42530.4
41632.2
40839.5
40250.1
34399.6
37129.4
39225.2
41279
43318
44828.1
42270.7
34494.5
34095.5
35145
35724.2
35522.1
34635.6
33425.6
32420.5
32013.6
32357.7
33853.9
35683.2
37923.5
35276.3
34205.7
33452.3
32876.9
32617.6
32908.6
33735.6
34698.1
35341.6
35530.1
35402.9
35201.5
35072.9
34973.3
34818.3
34857.9
34918.4
37637.7
35588.6
34424.5
33999.8
33679
33335.5
33344.2
34262.3
37568.7
39302.1
39260.4
38407.1
37484.6
36871.3
36446.5
35788.9
34983
35492.7
37067.6
38992
40190.1
40616
39943.2
37284.8
33579.1
33279
36229.4
38366.3
38920.4
38710.3
38411.3
38277.6
38179.5
37753.7
36633.9
35490.2
35676.9
35940.3
37168.1
37982.2
37714.4
35727.2
33226
35605.7
45813.7
48919.5
47526.3
45589.4
43903.2
42518.4
41284.5
40026.3
38463.5
34502
38679.4
40304.6
41718.1
43028
43954.3
41931.6
34024.6
35787.1
49359.5
52024.1
49045.7
46344
44450.8
43162.2
42217.3
41413.7
40855.6
38296.6
36586.7
39210.5
41432
43723.9
45777.6
43695.9
34405.3
34316.8
34875.7
35022.1
34588
33702
32680.9
31925.3
31716.9
32189.6
33699.2
35544.4
41190.9
36981.8
35177.9
34171.6
33547.4
33444.8
33888.9
34615.5
35256
35544.4
35479.9
35230.9
35023.4
34971.4
34995.9
34967
35048.1
35659.1
36354.7
36902.7
34894.8
34112.2
33820.5
33694.4
33817.7
34308.8
36486.5
37669.4
37642.2
37005.1
36312.4
35877.7
35623.5
35213.5
34647.2
35005.8
36671.3
38346.6
39520.5
39694.4
38798.9
36728.2
34397.2
34164.4
35882.8
37244.8
37656.4
37560.9
37433.6
37478.1
37592.2
37485
36809.6
35633.5
35906.8
35507
35987.8
36693.6
36538.5
35154
33569.2
37502.3
49393.3
50555
48348.9
46152.3
44322.3
42813.3
41474.8
40133.7
38649.7
35193.5
39032.3
41042.2
42626.2
44224.3
45779.3
45147.3
36306.8
37980.9
54618.9
54178.3
50213.2
47209.8
45120.3
43688.6
42664.8
41822.1
41254.4
41727.5
35086.9
39288.4
41881.8
44574
47645
47618.3
35576.3
34534.2
34547
34258.2
33647.1
32843.3
32077.5
31599.9
31588.6
32201.2
33827.6
36277.4
41107
40450.1
37057.7
35722.4
35005.2
34829.7
35099.7
35536.2
35818.6
35789.4
35523
35184.1
34970.9
34971.8
35100.5
35220
35432.2
36302.7
35899.9
38258.5
36086.7
34751.4
34396.9
34364.5
34425.1
34768.1
35899
36444.7
36304.5
35802.9
35282
34946
34755.9
34509.5
34220
34592.7
36288.2
37947.4
39072.6
39154.7
38342.2
36992.1
35700.7
35437.7
36155
36730.4
36849.7
36728.5
36653.8
36761.7
36974.7
37080.1
36805.1
35960.8
35525.4
36078.7
35316.7
35697.7
35818.7
35197
34382.2
45467.7
56753.8
53295
49754.1
47018
44876.2
43121.6
41578.4
40085.9
38634.8
36348.5
38162
42291.8
44026
46108.8
48813.7
51487.7
43587.3
44946.2
63250.9
56058
51248.6
47902
45606
44037.7
42941.3
42078.2
41397.1
41648.5
35587.8
38655.6
42292.7
45653.6
50201.5
56934.9
40857.7
34605.7
34179.5
33598.5
32947.3
32342.6
31892.1
31701.3
31906.4
32734.7
34485.7
36797.1
36338.8
49380.5
40798.6
38171.8
37058.7
36522.5
36369.3
36382.8
36328.5
36091.4
35735.4
35398
35230.1
35296.1
35528.8
35816.5
36216.7
37256.6
39183.9
35906.9
37820.7
36051.4
35287.4
35063.8
34878.4
35166.5
35504.2
35584.5
35364.8
34971.4
34560.8
34238.6
34014.2
33842.9
33819.3
34343.6
35870.9
38136.7
38984.6
39053.8
38392.7
37496.6
36802.9
36515.7
36581.7
36665.9
36584.4
36412.3
36300.9
36344.9
36513.3
36683.1
36687.6
36334
35738.7
36335.3
35756.4
35311.9
35408.2
35232
34995.5
70433.5
61383.9
54888
50641.3
47648.3
45313.1
43329.4
41535.7
39814.8
38156.2
36257.9
35175.4
43586.1
45408.4
47813.1
51437.7
57019.2
66101.7
52567.4
60259.3
54804.9
50823.6
47789.1
45607.8
44057.5
42947.2
42090.7
41336.3
40971
42382.6
35775.4
40835.2
44608.1
48786.3
55383.7
49624.5
35025.2
34334
33673.3
33137.9
32778.3
32586.5
32577.2
32869.7
33651.1
34877.4
35795.6
36096.4
61113
50883.3
42633.7
40029.4
38714.8
37895.3
37321.4
36879.8
36513.6
36211.8
36015.5
35984.8
36149
36478.7
36920.6
37504.3
38544.9
40801.2
42510.8
36670.8
38003.1
36990.8
36246.8
35660.5
35341.2
35261.8
35124
34870.6
34550.3
34210.7
33892.3
33643.7
33541.9
33730.8
34410.2
35915.7
38741.9
39558.8
39466.7
38907.4
38166.8
37503.4
37055.3
36852
36762
36637.5
36472.9
36330.8
36279.9
36345.7
36501.2
36685.8
36802.4
36732.1
36565.8
36967.2
36253.3
35868.2
35677
35478
39547.1
45405.3
46950.6
46621.9
45558.3
44125.4
42486.7
40749.2
38969.6
37214.8
35638.2
34930
42196.5
45134.6
46361.6
47442
46777.3
41169.3
36995
41721.7
45341.8
46073.4
45434.6
44382.5
43336.4
42439.2
41699.5
41054.9
40501.2
40643.7
38579.2
36935.9
39019.1
39679.7
38031
35254.5
36703.8
35792.2
34992.6
34344.6
33841
33428.3
33117.2
33144.6
33961.6
35857.1
39656.4
51641.2
83864.8
78563.5
58124.2
46773.7
41869.6
39222
37618.3
36673.2
36177
35965.2
35924
35999.7
36187.6
36508.7
36983.7
37617.7
38441.4
39721.8
42300.3
42583.6
39254.2
39380.8
38659.4
37680.1
36022.5
35418.8
34921.8
34557.8
34314.1
34149.3
34025.6
33955.6
34015.7
34324.8
35043.8
36432.5
39290.1
42226.2
40552.4
39625.3
38703.1
37773.9
36980
36453.5
36200.5
36108.8
36076.2
36070.9
36111.9
36239.9
36490
36876.5
37383.6
37927.8
38403.5
38353.8
38423.8
37862
37260
36658.8
37500.3
38346.1
39213.7
39852.7
40147.8
40005.6
39444.8
38592.7
37599.8
36622.1
35884.8
35758.4
37825.1
42926.9
42430
41940.6
40630.6
38557.5
37025.1
37154
38500.4
39942.4
40872.2
41223.8
41175.9
40935.3
40644
40367.4
40127.3
40115.3
41762.1
37781.2
36961.7
36948.9
36892.5
37007.4
41595.7
39603.2
39528.1
40329
40947.5
40799.4
39952.7
38871.3
37892.5
36982.4
36459.2
38161.1
42768.9
46538
42571
41643.1
41523.2
41604.5
42349.4
43569.3
44993.5
46608.5
48273.9
49743.7
50867.9
51818.7
53194.6
56557.7
64176.7
76109.2
84557.5
86332.6
122483
93216.9
59922.6
46817.5
37152.9
35570.5
34223.5
33530.4
33533
33942.7
34467.2
34985.1
35520.7
36165.4
37073.9
38659.9
42957.4
49815.3
43259.2
41131
39790.3
38313.5
36645.4
35153
34208.9
33755
33588.1
33654.6
33965
34490.1
35176.8
35993.7
36929.2
37887.5
38595
39065.7
40114.6
40180.5
39585.9
38548.5
38046.1
37252.2
36528.5
36235.3
36383.6
36671.2
36831.2
36785.4
36592.1
36386.6
36381.8
36861.8
38065
40776.2
39809.5
39778.6
39728.7
39060.9
37762.9
36274.5
35371.9
35545.9
36544.4
37732.1
38659.1
39193.9
39402.1
39414.8
39396.2
39596.9
41044.9
41839.5
38563
38528.9
38685.8
38561.7
)
;

boundaryField
{
    fixed
    {
        type            calculated;
        value           nonuniform List<scalar> 
108
(
46527
47794.6
48256.3
46894
44627.9
42574.1
41056.6
39988.7
39741.5
40805.9
41150.7
42231.9
43666.8
45385.2
46905.3
47344
46387.5
44999.4
44129.3
43883.5
43822.5
43444
42695.8
41780.5
40860.8
40010.1
39759.7
41025.7
41296.4
42178
43384.9
44885.8
46297
46851.5
46366.1
45946.2
44091.6
44073.8
43577.6
42971.8
42395.7
41942.2
41628.7
41413.4
41348.8
41679.9
41990.2
42351
42779.9
43346.2
44050.1
44811.8
45591.6
45567
42286.9
43019.5
42895.6
42569.4
42227.1
41937.9
41704
41490.7
41373.3
41631.5
41877.1
42184.5
42582.6
43123.2
43782.9
44451.9
45048.9
45232.9
43025.4
42241.5
41402.1
40896.6
40650.5
40540.1
40510.6
40583.9
40933.1
39920.2
39556.3
39474.8
39456.2
39460.2
39546.2
39864
40562.7
41478.6
41918.6
41683.5
41290
41023.6
40886.4
40820.3
40789.9
40816.5
41072.6
39960.6
39656.7
39622.9
39671.1
39777.7
40018
40569.4
41595.1
42775.7
)
;
    }
    inside
    {
        type            calculated;
        value           nonuniform List<scalar> 
540
(
43057.9
42415.2
41628.8
40956.4
40440
40064.4
39851.6
39881
40259
39265.5
38890.7
38871.7
39066.8
39398.2
39859.2
40474
41193.4
41782.1
41866.8
41514.2
41062.5
40668.5
40369.5
40165.1
40070.6
40142.9
40507.5
39365.6
39130.1
39209.8
39490.7
39914.3
40492.9
41277.3
42227.1
43013.8
43006.2
42499.3
41766.8
41042.9
40353.5
39648.1
38956.6
38487.1
38618.3
37426.7
37391.8
37924.2
38652.4
39347.8
39942.9
40477.1
40990.9
41455.9
41611
41385.5
41009.5
40581.4
40135.8
39661.9
39177.1
38814
38927.6
37469.9
37627.7
38330.2
39193.5
39986.1
40674.8
41362.3
42127.9
42836.2
41926.1
42043.2
41672.4
40974.5
40085.2
39015.8
37846.3
36843.8
36693.4
35282.8
35670
36734.7
37969.2
39034.5
39764.9
40134.5
40173.2
40119.5
40371.3
40662.2
40618.7
40257.9
39695.8
38972.9
38139
37340.1
37140.6
35289.6
35882.9
37200.7
38682.1
39877.1
40694.4
41227.9
41523.4
41647.4
39737.3
40916.4
41380.1
40973.2
40025
38780.4
37496.6
36503.6
36675.7
35235
35278.5
36138
37457.5
38675.1
39467.8
39619.1
39012
38135.2
38424
39536
40106.3
39983.2
39448.7
38687.1
37836.1
37067
37069.9
35208.5
35632.1
36640.9
38291.1
39709.6
40606.6
40912.3
40451.1
39500.9
37550.4
39635.9
40956.5
41005.7
40207
39020.1
37877.3
37126.5
37639.8
36516
36192.7
36212
37206.5
38290
39011.6
38938.3
37748.2
36125.4
36440.7
38342.4
39586.5
39823.9
39477
38876
38230.5
37698.5
37910.8
36127.3
36882
36824.6
38083.3
39458.5
40354
40441.9
39292.7
37395.1
35859.8
38508.2
40463
40998.6
40523.1
39555.7
38603.6
38017.9
38527.9
37679.3
37900.1
36829
37233.9
37953.9
38434.2
38107.9
36480.8
34395.2
34813.4
37324.9
39163.3
39811.7
39750.3
39388
38965.2
38619.9
38836
36542.7
38764.3
37765.1
38129.2
39157.4
39910.3
39787.5
38162
35709.5
34637
37599.3
39959.4
40915.3
40827.5
40152.6
39376.5
38876.5
39323.5
38227.7
39940.9
37928
37532.9
37761.7
37861.3
37222.3
35283.9
33032.5
33650.2
36602.2
38903.7
39930.7
40164.7
40030.1
39773.8
39535.5
39712.3
36378.2
40209.1
39450.2
38568.6
38926.9
39348.5
38960.1
37024.9
34380.9
33780.2
36932.9
39525.6
40787.4
41058.7
40692.6
40095.5
39673.4
40122.1
38288.5
41959.4
39625.3
38180.8
37848.3
37516.5
36543
34414.9
32222.8
33075
36298.2
38879.6
40180.3
40661.6
40715.3
40579
40401
40513.5
36173
40913.1
42036.3
39783.4
39052.8
38918.6
38175.2
36004.9
33357.7
33399
36602.3
39259.7
40701.1
41264.5
41190.9
40784.2
40451.4
40875.8
38175.9
43899.8
42362.3
39462.8
38420.8
37672.7
36442.8
34301.8
32308.7
33305.4
36558
39175.3
40608.2
41266.9
41459.4
41401.4
41252.5
41279.6
36238.9
40788
45354.2
42560.6
40090.3
39033.7
37856.8
35520.3
32895.1
33652.7
36723.8
39258.6
40800.5
41610.5
41799.3
41576.8
41329.6
41666.6
38377.3
45881.8
46611
41927.6
39768.2
38542.4
37137.2
35176.9
33426.7
34383.1
37436.8
39864.9
41333.1
42108.7
42371.3
42326.4
42156
42082.3
36507.1
40044.2
47728.9
47731.7
43059.5
40267.9
38401.5
35946.9
33233.1
34485.4
37243.3
39646.9
41382.3
42449.9
42867.6
42799.9
42621.5
42772.2
39263
47702.2
51717.5
46138.4
42298.6
40319.2
38581.8
36730.7
35242.2
36002.1
38738.3
41018.2
42625.1
43474.4
43699.8
43569.3
43312.3
43114.7
36916.5
39700.2
48140.4
54684.6
49377.6
43710.1
40179.6
37235
34321.2
35480.8
38237.4
40958.4
43116.6
44513.8
45148.8
45180.8
44974.6
44318.1
41038.5
48768.7
55602.2
52059
46647.1
43581
41147.9
38832.7
36996
37441
40399.4
43178.9
45137.4
45971.8
45990.7
45616.4
45150.8
44773
37528.9
40321.1
46419.6
56731.3
58147.4
51410.5
44884.1
39747.3
35594.8
36204.3
40583
44727.3
47786.6
49690.9
50418.7
50144.7
49163.8
44976.3
43851.8
49666.1
56120.7
56753.7
53127.2
50090.6
47098.2
42787.7
38015.7
37812.2
43233.4
48598.6
51210.2
51550.4
50749.7
49614.6
48561.4
47857.3
38196.3
41437.4
45621.1
53075.1
60801.2
61934.7
56230.5
45488.7
36462.7
42750.1
54905.2
63074.7
65983.4
65148.1
62035.8
57712.9
52352.8
39714.9
47084.6
49507
53144.7
55525.1
56534
58901.7
64147.5
67910.2
49900
39578.8
67056.5
81869.1
77544.7
69361.2
62689.4
58092.3
55236
54523.8
38000.9
41542.1
44541.5
48519.7
53509.1
59404.7
65908.9
64457.1
38829.2
40149.8
46183.2
55183.5
62080.6
62761
58189.7
51502.4
44066.7
36236.2
48314.6
46287.5
45917.3
45295.1
45034.9
45576.3
46397
46607.1
43368.8
37450.3
40295.5
59346.8
77945.3
82979.7
78157.7
71130.1
66440.6
69290.7
37794
38865.5
40206.9
41243.3
41655.6
41456.4
40842.1
39731.3
38612.8
)
;
    }
    outside
    {
        type            calculated;
        value           nonuniform List<scalar> 
540
(
46459.3
47234.2
47408.2
46278.6
44272.9
42231.9
40522
39158.5
38597
39378.1
39719.7
40924.8
42355.5
43858.5
45094.6
45622.9
45387.2
44810.5
44228.9
43784
43440.1
42960.8
42237
41312.3
40265.8
39197.7
38659.3
39890.9
40164.1
41173.7
42415.3
43780.3
44976.3
45586.1
45657.2
45837.7
45598.8
46749.5
47062.9
45803.3
43505.4
41020.6
38704.5
36651.7
35861.3
37033.8
37490.8
39105.5
40794.6
42402.6
43723.6
44427.3
44368.7
43834.5
43356
43110.5
42872.1
42372.5
41486.7
40243.2
38725.2
37054.3
36076.2
37798
38062.4
39430.5
40903.3
42302.7
43502.8
44261.5
44522.6
44776.8
42983.1
44341.1
45019.7
44201.8
42099.8
39362.2
36487.8
33934.2
33348.1
35085.9
34867.5
36699.5
38673.9
40351.5
41559.9
42142.1
42017.3
41432.2
41121.2
41286.8
41374
41022.4
40106
38644.4
36766.2
34702.8
33585.9
36258.1
35638.9
37171.8
39004.9
40510.3
41556.4
42115.8
42212.6
42233.4
39756.3
41150.4
42202.7
42022
40410.9
37799.9
34956.2
32758.3
32837.6
36293.1
34070.2
34983.1
36801
38471.9
39591.2
39951.9
39503.5
38618
38331.1
38898.7
39427.3
39369.6
38613.6
37250.7
35532.5
33828.6
33158.4
37791.7
35142.1
35583.7
37308.2
38896.1
39872.7
40151.6
39788
39285
37196.9
38577.1
39784.4
39976.2
38818.7
36592.7
34181.5
32602.5
32911.3
38983.3
34926.5
34190.2
35307.6
36697.7
37692.6
37896.7
37203.7
36143.8
35912.7
36725
37586.6
37831.9
37366.4
36361.8
35138.5
34063.1
33711.3
40778.1
36633.4
34999.3
35898.6
37295.2
38231.7
38365.8
37697.5
36883.3
35516.7
36807.8
37984.6
38311.2
37497.5
35745.4
33871.6
32809
33027.1
41708
36828.9
34302.7
34363.2
35127.3
35807.8
35870.5
35154.4
34274.9
34268.3
35200.9
36210.6
36673.2
36517.9
35946.1
35253.2
34707.3
34517.4
44075.5
39660.1
35510.2
34973
35779.3
36542.4
36631
35946.4
35197
34550.4
35723.5
36745.6
37044.9
36438.5
35101.3
33700.9
33002.2
33048.1
44919.5
39670.2
35193.2
34053.9
33987.8
34148.2
34031.2
33488.2
33057.1
33402.9
34416
35424.1
35968.9
36030.1
35802.1
35512.4
35332
35299.2
48149.3
44086.4
37200
34733.3
34593.6
34966.3
35009.4
34519.3
34093.1
34082.6
35118.5
35903.1
36057.1
35520
34477.3
33454.4
33047.7
32928.6
49464.2
43643.6
36747.9
34387.6
33519.9
33093.1
32765.3
32479.5
32564.4
33253.6
34283.3
35164.5
35646.3
35780.3
35750
35721.6
35804.7
35973.7
53117.1
50014.4
40709.6
35485.8
34045.2
33841.5
33768.4
33518.1
33463.8
34030
34811.7
35266.3
35186.6
34618.1
33773.8
33072.3
32944.4
32672.4
54721.9
48282.3
39170
35438
33899.6
32992.4
32487.5
32427.3
32890.1
33740.9
34641
35274.6
35573.6
35656.6
35702.5
35835.8
36120.2
36502.2
58656.9
58310.5
47412.9
37754.9
34420.3
33505.9
33277.1
33213.5
33402.1
34274.7
34624.6
34657.3
34307.2
33687.9
33026
32644.2
32786.7
32303.1
61241.6
54766.6
43364.1
37394
35153.2
33926.6
33306.3
33329.5
33882.2
34626.9
35243.9
35559.1
35627.3
35604.1
35662.6
35900.2
36350.2
36982.8
64676
70298.7
58464.9
42729.8
36097.3
34101.5
33645.8
33661.4
33881.8
34512.3
34367.8
33984.7
33426.5
32837
32414.7
32367.2
32748.7
31930.3
73797.3
69125.7
51488.9
40352.3
37178
35695.5
34931.1
34792.1
35102.1
35547.7
35837.4
35869
35754.6
35649.8
35718.2
36049.3
36685.2
37715.6
68013.3
85440.4
77799.7
54774.2
40171.6
35739.8
34637.4
34478.1
34508.7
34612.1
34077
33451.4
32862.5
32458.4
32356
32628.5
33124.2
31943.4
100197
95964.8
66477.5
45672
40249.8
38168.8
37078.8
36533.8
36373.3
36384.2
36357.6
36209
36018.4
35922.4
36066.4
36546.7
37470.6
39248.7
61442.2
105620
111599
81930.8
51030.2
39419.3
36301.2
35429.9
35022
35161.4
34420.3
33803.1
33392.9
33248.5
33358.9
33629.7
33514.1
40205.9
191109
169087
99517.2
56021.8
45123.2
41743
39896.9
38715.5
37916.7
37350.7
36946.3
36672.8
36532.4
36578.6
36897
37597.6
38960.5
42340.6
39546.7
102652
141912
133006
81465.7
49393.3
39961.4
37180.1
35998.2
37472.7
36600.7
35824.4
35127.9
34498.5
33935.2
33897.9
41180.4
320000
630333
304874
125838
64620.3
52264.2
47539
43551.1
40925.9
39071.8
37751.4
36881.4
36374.3
36124.1
36058
36184.4
36659.7
38118.2
44526.3
40003.1
38005.3
46627.8
59927.3
62654.1
50581.8
42903.1
40019
38521.3
32978.2
33337.9
34488.9
35725.9
36429.3
36500.8
36316.1
36350.7
36697.5
95514.4
56359.7
38999.6
32649.4
31562.1
30836.1
30286.1
30338
34123.1
42406.7
50009
53077.8
51274.9
46131.7
40195.6
35937.8
34328.1
34283.4
43523.8
37717.2
35879.5
35522
34465
33654.2
33833.2
33925.4
33433
)
;
    }
}


// ************************************************************************* //
