/*--------------------------------*- C++ -*----------------------------------*\
| =========                 |                                                 |
| \\      /  F ield         | OpenFOAM: The Open Source CFD Toolbox           |
|  \\    /   O peration     | Version:  2312                                  |
|   \\  /    A nd           | Website:  www.openfoam.com                      |
|    \\/     M anipulation  |                                                 |
\*---------------------------------------------------------------------------*/
FoamFile
{
    version     2.0;
    format      ascii;
    arch        "LSB;label=32;scalar=64";
    class       volScalarField;
    location    "0.7";
    object      sigmaHyd;
}
// * * * * * * * * * * * * * * * * * * * * * * * * * * * * * * * * * * * * * //

dimensions      [1 -1 -2 0 0 0 0];

internalField   nonuniform List<scalar> 
1620
(
28711.1
28452.3
24888.5
18149.7
8276.33
-5887.3
-25800.6
-53535.2
-77447.1
-79769.7
-57838.5
-33390.6
-14306.5
-268.057
9845.55
17381.3
22568.2
25682.5
25622.4
22369
17015
10221.7
2108.7
-8584.87
-23648.9
-46702.7
-68646.3
-75571.8
-58803.2
-37432
-19145.9
-4694.94
6386.81
15120.7
21745.8
26217.7
14406.1
8880.31
2797.03
-3820.89
-12974.1
-24457.3
-37579.9
-50067.2
-55183.3
-56622.9
-53691.8
-42606.7
-30361.6
-19401.8
-10552.7
-4073.78
2681.46
8421.81
6705.56
2.42251
-6321.44
-12177.6
-19321.8
-27729.6
-37291.7
-46862
-51195.7
-52779
-49899.9
-39840.4
-28058
-16895.7
-7354.01
108.764
7611.22
14281
-6513.76
-10986
-19348
-28579.8
-37143.7
-43546.2
-45641.1
-43157.5
-40826.7
-45041.6
-49093.3
-50795.5
-48536.3
-43207.5
-36584.7
-29901.4
-24128.2
-22272.5
-23038.6
-26113
-32900.1
-39843.9
-45741.9
-49348.9
-48732.6
-43749.1
-39605.7
-41292.7
-41890.4
-41390.5
-37424.8
-30639
-22538.3
-14380.1
-7546.34
-5083.17
12057.6
14088.6
13952.2
12169.9
9600.94
5941.98
418.233
-10384.4
-20881
-20737
-8051.56
1197.99
6327.7
9525.68
11656.8
13460.9
14383.9
14432.4
14313.1
14549.8
13476.3
11666
9753.41
7243.41
3340.81
-6083.41
-16852.6
-20679.1
-11393.8
-3608.44
1147.77
4374.75
6727.1
8837.65
10249.9
10567
1932.51
-638.963
-3077.04
-3897.54
-5228.44
-6837.44
-8478.09
-9301.52
-6059.24
-5170.62
-6862.73
-5604.06
-4364.66
-3388.24
-2666.03
-2354.58
463.263
2974.73
1481.37
-1245.64
-3445.68
-3912.71
-4798.6
-5919.88
-7194.4
-8161.41
-6399.17
-6071.56
-7047.09
-5939.36
-4825.81
-3892.58
-3129.33
-2740.84
-274.724
2225.27
-14670.4
-15281.8
-17208.2
-19051.6
-19621.5
-18335.6
-14259.3
-9693.1
-6275.47
-8374.96
-13057.1
-17993.1
-20900.3
-21881.4
-21589.5
-20669.1
-20104.7
-21647.7
-22036.4
-20587.4
-21308.4
-22544.9
-23070.1
-22041.5
-18191.3
-13503.7
-8850.11
-8012.96
-9484.2
-12228.4
-13399.9
-13196.3
-12228.7
-11138.4
-10931.7
-12968.5
6738.51
9537.72
9781.82
8053.27
5472.36
2081.21
-2400.81
-10035.4
-18128.3
-21556.8
-14078.9
-5374.91
-285.676
3486.04
6111.53
8067.49
8782.64
8224.11
8000.01
9084.33
8667.15
7026.57
5103.26
2806.89
-87.9964
-5830.94
-13153.9
-19581.3
-16619.6
-9172.24
-4554.62
-839.065
1964.98
4184.28
5427.8
5279.56
1841.12
656.005
-2381.53
-3830.93
-6063.47
-8822.79
-11697.4
-13630.7
-11092.4
-9742.61
-10771.4
-8429.04
-6118.27
-4185.17
-2691
-1725.92
1707.61
2986.33
1507.91
-211.611
-3038.07
-4226.66
-5939.44
-7960.97
-10123.7
-11829.8
-10698.1
-10338.5
-11102.3
-9122.74
-6984.6
-5000.82
-3425.87
-2582.97
245.574
1662.01
-6167.27
-7219.43
-10338.1
-13509.2
-16386.9
-18704.7
-19666.7
-20120.8
-20194.8
-20201
-20110
-20825.1
-20171
-18095.3
-15434.8
-12865.3
-11092.8
-12196.8
-12890.5
-12694.9
-14867.5
-17932
-20983.4
-23383.6
-24201.5
-24217.9
-23024.8
-20225.5
-17345.6
-15980.6
-13513
-9973.6
-6544.41
-4114.5
-3036.17
-4722.48
2033.19
5456.93
6266.76
5101.01
3369.48
1474.91
-696.438
-4307.48
-9295.13
-13844.7
-12785.3
-5127.77
-2490.61
-27.4847
1867.64
3302.61
3679.69
2740.16
2736.18
4603.47
5113.96
4303.51
3250.39
2243.79
1296.59
-500.13
-4085.92
-11103.8
-15279.5
-8505.12
-6170.33
-3772.83
-1626.93
177.648
1091.34
632.606
1220.82
741.079
-2310.9
-4204.83
-6587.96
-9186.96
-11517.6
-12765.6
-10098.4
-8148.74
-9816.4
-8388.69
-6473.48
-4503.72
-2711.26
-1170.64
2194.78
2686
1328.22
-112.11
-3013.14
-4558.97
-6302.35
-8123.24
-9811.62
-10924
-9684.5
-8970.75
-10216.2
-9248.12
-7621.68
-5623.73
-3714.79
-2366.29
363.2
1033.64
1316.24
-553.78
-5323.11
-10135.3
-14810.8
-19112.6
-22270.2
-23692
-26084.1
-24078.4
-20727.5
-20602.3
-18540.2
-14623
-10175.5
-6125.91
-3046.93
-3382.69
-4383.73
-6025.21
-10125.1
-14796.3
-19426.9
-23605.7
-26652.2
-27637.4
-29894.3
-25277.4
-18895.7
-16938.2
-13290.8
-7935.95
-2601.15
1349.88
3683
2615.76
-2054.41
1598.19
3187.24
2870.76
2026.94
1190.05
285.004
-996.705
-3929.91
-9651.98
-12708.9
-4821.26
-3994.15
-2776.18
-1789.88
-1062.41
-1144.58
-2121.09
-1688.59
800.827
2272.55
2376.45
2118.98
2010.34
2170.82
2537.58
1280.61
-6144.94
-13634.9
-8101.01
-7088.7
-5937.2
-4620.11
-3406.6
-2995.12
-3490.99
495.508
-63.2769
-2707.98
-4804.91
-7096.35
-9460.38
-11543.7
-12755.8
-11031.4
-8685.64
-9465.11
-9012.38
-7268.11
-5264.42
-3252.42
-1204.26
1718.42
1912.71
631.518
-916.528
-3546.66
-5246.38
-6867.35
-8452.74
-9873.66
-10870.1
-10341.7
-9345.99
-9765.74
-9826.08
-8476.58
-6513.85
-4373.41
-2461.92
26.0129
512.464
6267.13
3376.81
-2637.19
-9155.7
-15510.4
-21365.6
-26119.8
-28491.7
-32398.4
-28928.7
-23087.2
-22372.7
-19340.4
-14008.8
-7972.42
-2363.95
1914.13
2448.13
954.403
-2453.73
-8214.42
-14340.2
-20192.7
-25563.5
-30081.4
-32152
-36034.7
-31072.9
-23058.4
-20235.1
-15579.7
-8939.51
-1916.99
3872.86
7622.24
7534.92
-5084.5
-1481.85
787.954
1325.86
1305.69
1278.69
1132.55
796.764
-1532.6
-7106.94
-9999.79
-3836.36
-4101.18
-4187.97
-4208.05
-4313.94
-4894.07
-5675.02
-4774.58
-1910.11
341.467
1292.31
1760.56
2342.91
3192.53
4340.03
4157.53
-1450.8
-8345.41
-7741.35
-6837.98
-6897.49
-6519.96
-6102.56
-6255.66
-6632.18
-626.844
-1365.11
-3556.63
-5553.47
-7516.32
-9463.82
-11227.1
-12380.9
-11676
-8918.79
-8365.4
-9177.99
-7643.84
-5862.73
-3968.22
-1871.23
363.953
417.085
-693.917
-2192.27
-4375.89
-5975.42
-7314.25
-8531.05
-9610.83
-10434.9
-10442.1
-9241.28
-9101.39
-10034.5
-8952.58
-7283.18
-5268.38
-3171.23
-1005.55
-504.103
8023.65
4490.18
-2202.7
-9781.39
-17204.8
-23994.7
-29653.3
-32862.7
-36481.6
-33490.4
-27545.9
-25439.7
-21491.5
-15304.2
-8261.58
-1557.96
3548.51
4744.55
2885.47
-1633
-8372.22
-15385.8
-21918.5
-27883.7
-33108.1
-36369.8
-39086.4
-36588.7
-30189.7
-25087
-19196.8
-11919.2
-3909.55
3250.52
8180.69
9141.3
-7092.62
-3596.98
-924.032
227.533
819.552
1373.36
1748.57
1860.88
-21.6283
-4044.52
-5597.73
-2855.9
-3215.84
-4535.67
-5428.27
-6287.94
-7261.99
-7805.62
-6564.02
-3561.83
-833.121
745.998
1767.04
2834.22
4150.84
5724.51
6732.61
4309.99
-2385.02
-7828.13
-5934.7
-6921.58
-7369.55
-7759.73
-8452.89
-8761.18
-1895.2
-2599.95
-4460.33
-6310.19
-7958.94
-9492.09
-10902.1
-11865.7
-11603.5
-8597.24
-7512.56
-9268.03
-7822.53
-6331.98
-4705.61
-2890.42
-1311.24
-1213.4
-2030.48
-3351.86
-5180.77
-6631.92
-7715.46
-8584.64
-9315.22
-9890.83
-10075
-9126.32
-9144.76
-10120
-9380.3
-8062.18
-6311.99
-4321.09
-2490.89
-1889.21
7144.84
3488.99
-3415.43
-11427.3
-19342.7
-26620.9
-32779.8
-36714.9
-39310.1
-38286
-33111.6
-28743.4
-24329.6
-17784.5
-10185.2
-2818.93
2850.8
4564.61
2644.87
-2379.57
-9647.73
-17152.8
-23997.9
-30208.5
-35738.4
-39924.3
-41602.9
-42701.7
-37091.4
-28921.1
-22938.6
-15799.6
-7448.38
504.938
6209.73
7998.1
-8293.31
-4962.03
-2157.33
-638.933
360.203
1327.66
2190.53
2970.43
2809.55
1167.18
-1512.97
-3177.21
-1390.73
-3986.05
-5624.47
-7155.68
-8436.46
-8805.37
-7374.02
-4406.33
-1467.47
496.415
1864.99
3219.73
4838.43
6748.14
8975.4
8785.81
1928.4
-6266.68
-4861.96
-6237.65
-7390.6
-8464.22
-9625.7
-9985.51
-2909.92
-3455.61
-5135.46
-6887.37
-8322.8
-9526
-10615.6
-11401.6
-11386.5
-8864.45
-7601.39
-9179.63
-7963.7
-6757.17
-5467.3
-4098.88
-2953.29
-2543.17
-2949.78
-4077.87
-5729.08
-7061.67
-7977.82
-8592.23
-9030.91
-9385.05
-9645.24
-9250.53
-9313.09
-9805.21
-9811.31
-8895.74
-7441.18
-5659.9
-4025.93
-3188.61
5320.84
1747.78
-5282.06
-13395.2
-21405.7
-28872.7
-35374.3
-40095.5
-42445.7
-43735.6
-38201.6
-31150.3
-27176.9
-20814.5
-12918.3
-5067.44
1248.1
3562.99
1931.49
-3282.38
-11005.3
-18828.2
-25774.4
-32055.2
-37754
-42692.2
-44619.8
-48426.7
-42787.4
-31948.2
-26430.3
-19775.1
-11409.3
-2917.27
3463.02
5935.95
-8999.36
-6007.15
-3287.43
-1564.78
-312.06
886.734
2038.45
3166
4305.86
3402.26
-311.027
-2658.51
1294.16
-2488.7
-4947.24
-7176.87
-8799.11
-9089.25
-7604.33
-4847.34
-1914.68
212.433
1726.05
3177.09
4885.59
6880.34
9270.72
10364.7
6401.7
-1287.34
-4790.89
-5213.88
-6904.67
-8485.18
-10050.5
-10530.4
-3299.44
-3770.31
-5454.8
-7144.75
-8459.27
-9444.34
-10297.6
-11003.3
-11247.6
-10011.6
-8100.7
-8234.36
-8042.57
-7129.82
-6296.63
-5456.95
-4512.1
-3465.49
-3259.83
-4226.93
-5898.73
-7155.24
-8003.59
-8488.02
-8730.15
-8898.12
-9125.64
-9083.22
-9012.03
-9471.41
-10320.4
-9769.36
-8623.61
-7056.02
-5374.38
-4000.85
4588.05
795.789
-6840.5
-15014.2
-22939.8
-30403
-37103.4
-42523.4
-45205.3
-48218.7
-42637
-33971.7
-30258.9
-24186.5
-15989.6
-7563.96
-61.0044
3355.07
2541.85
-2952.24
-11594.6
-19722.9
-26688.7
-32964.5
-38774.5
-44175.4
-47463.7
-50680.8
-47289.9
-37657.4
-30790
-23490.5
-15051.2
-5960.81
1573.18
5157.46
-9832.36
-7254.61
-4693.53
-2819.64
-1383.48
-77.2917
1131.81
2173.49
3188.66
1840.1
105.719
1907.16
4590.92
53.2711
-3486.79
-6511.99
-8683.65
-9310.53
-7937.06
-5450.18
-2609.4
-459.471
1052.75
2474.74
4150.68
6169.84
8541.2
10991
10338.3
3069.77
-4880.93
-4167.9
-6091.56
-8082.39
-10148.4
-11022.4
-2861.52
-3574.83
-5491
-7106.32
-8316.89
-9143.13
-9807.44
-10397.7
-10631.4
-9986.56
-7211.57
-6703.06
-8238.61
-7475.22
-7219.3
-6916.94
-6069.28
-3916.09
-2852.81
-3825.87
-5757.87
-6955.77
-7795.35
-8236.74
-8359.86
-8365.15
-8466.7
-8679.41
-8725.21
-9181.42
-10350.4
-10371.6
-9623.22
-8328.79
-6445.48
-4195.79
6828.84
2363.44
-7390.45
-15799.5
-23651.2
-30971
-37648.1
-43361.1
-46641.2
-49390.3
-45989.8
-38422.2
-33836.7
-27931.8
-19298.7
-9975.22
225.821
5607.4
6440.84
580.529
-10747.5
-19318.7
-26368.3
-32594
-38400.8
-43923
-48575
-50260.5
-51765
-43991.1
-33004.1
-25613.2
-17414.6
-7727.53
2556.98
7037.4
-10636.5
-8936.13
-6491.31
-4516.43
-2905.87
-1482.6
-214.741
889.627
2177.48
2110.23
2550.59
5694.37
6001.32
3736.62
-1410.11
-5236.86
-8324.58
-9360.3
-8402.43
-6638.78
-3889.18
-1786.92
-339.952
1009.09
2610.25
4620.65
7002.6
9984.02
11555.2
7383.46
-1180.03
-4660.55
-5134.99
-7572.63
-10281.6
-11313.1
-1098.71
-3513.75
-5525.2
-6936.21
-7918.63
-8524.5
-8977.81
-9401.77
-9531.87
-9073.95
-6733.38
-6033.99
-8165.56
-7652.14
-8178.64
-8459.83
-8211.95
-5102.64
-1730.17
-3374.71
-5561.9
-6654.03
-7440.23
-7833.07
-7865.57
-7706.28
-7598.19
-7748.61
-7810.27
-8589.41
-9476.65
-10112.4
-10080.2
-9427.06
-7897.72
-3893.3
22407.9
3683.83
-8211.47
-16446.7
-23944.4
-30803.9
-37112.7
-42689.3
-46555.4
-48638.6
-49324.3
-43101.3
-36583.7
-31838.8
-23342.7
-12860.1
-23.9689
20147
23314.4
4910.93
-10595.4
-18686.9
-25429.9
-31245.5
-36713.2
-42006
-47115.6
-49309.8
-52634.8
-48128.2
-35651.5
-27318.9
-19251
-9823.12
5381.59
23364.2
-11310.3
-9937.87
-8077.37
-6291.89
-4560.77
-2964.2
-1594.42
-424.059
800.417
1949.99
1164.69
4211.12
9327.95
9810.88
1476.44
-3207.35
-6860.01
-8709.71
-8325.66
-6929.79
-4930.45
-3303.44
-2051.76
-820.727
663.335
2572.19
4954.72
7770.08
11063.6
10754
3378.69
-3906.92
-4043.17
-6182.8
-8966.56
-10562.9
-4294.75
-4884.54
-6076.4
-6903.54
-7337.97
-7476.07
-7534.7
-7661.85
-7728.63
-7450.44
-6538.36
-4766.65
-5944.84
-7426.49
-8710.82
-9300.74
-9315.83
-8136.24
-5283.43
-4782.69
-6114.07
-6776.83
-7174.34
-7322.51
-7200.82
-6884.23
-6585.32
-6530.42
-6737.99
-7005.08
-7497.87
-8210.79
-8447.29
-8592.98
-7815.45
-6021.14
18955.3
2259.57
-8702.98
-17068.3
-24106.4
-30244.2
-35744.1
-40580.3
-44341.5
-46096.9
-49109.7
-45999.3
-40215.5
-36457.6
-28876.8
-17204.6
-3323.88
16825.5
20604.8
4502.28
-10114
-18112.6
-24321.5
-29449
-34221.4
-38989.3
-43813
-47960.5
-48746.5
-48632.7
-42492.6
-31683.6
-21822.5
-12573.8
2788.58
19510.7
-7576.75
-7843.21
-7270.89
-6055.32
-4441.5
-2742.51
-1316.16
-346.443
81.7815
266.394
-2149.29
4680.12
15974.7
14759.1
4690.42
-928.813
-3652.9
-4872.51
-5053.64
-4593.53
-3721.35
-2876.17
-2140.47
-1327.21
-255.816
1260.79
3429.16
6360.94
10091
13950.2
12182
3631.87
-1220.26
-1462.03
-3977.08
-6136.15
-8023.83
-6773.22
-6416.19
-6166.52
-5768.13
-5233.68
-4710.38
-4340.9
-4108.82
-3783.61
-3271.12
-1719.31
-2821.86
-5904.69
-7891.15
-9975.06
-11329.8
-11605.8
-10066.7
-7742.64
-7020.78
-6677.18
-6299.57
-5927.46
-5509.07
-5011.61
-4516.87
-4208.33
-4293.18
-4599.67
-5307.43
-5440.16
-5667.32
-7179.31
-8458.18
-8464.27
-9391.76
-11649.1
-18559.9
-23334
-27641.6
-31744.5
-35547.4
-38875.7
-41536.8
-43159.2
-45376
-47086.3
-45337.5
-42584.3
-38828.4
-31181
-19732.6
-9750.8
-4151.04
-8734.94
-18170.6
-23077.5
-26439.8
-29462.3
-32532.5
-35888.6
-39613
-43597.9
-45942.3
-47004.6
-46298.2
-42776.4
-36896
-29196.8
-18355.5
-10837.3
-2469.37
-3517.09
-3869.79
-3116.15
-1336.51
919.664
2912.53
4100.48
4245.99
3731.27
3503.9
12297.2
22807.4
22386.9
13771.6
5481.11
3691.65
3216.46
2486.58
1490.55
798.655
505.892
439.205
430.878
400.351
412.797
756.872
2043.89
4961.91
10454.1
15687.3
13215.8
3955.94
-262.124
-297.106
-1272.81
-5850.2
-5073.31
-4039.99
-2894.21
-1610.48
-307.11
790.505
1605.09
2284.6
3048.72
3956.32
4579.36
5255.56
5022.98
2321.18
-2891.97
-5839.84
-7830.62
-8799.62
-8485.57
-7232.08
-5760.69
-4238.45
-2810.32
-1643.17
-775.658
-174.387
121.571
-88.4586
-1377.36
-3130.78
-4321.05
-4699.03
-4935.8
-5869.19
-6069.67
-36370
-32200.2
-31040.5
-32016
-33474.9
-34886.9
-36308.2
-37760.1
-39143.6
-40459.3
-41944
-45331.3
-46665.8
-46025.9
-45942.3
-42976.2
-37278.1
-33914.2
-30569.3
-28615.4
-28992.1
-30712.9
-31822.8
-32285
-32716.1
-33602.3
-35230.7
-37617.1
-40798.3
-41597.5
-43565.2
-48482.1
-51045.9
-48307.5
-43765.7
-40222.1
16716
13256.6
10384.9
8358.05
7550.4
8106.82
9861.37
12491
15438.8
18419.1
20811.5
24062.9
26004.4
23010.9
22629.6
18273.2
20475.2
23964.8
25851.1
25997.1
24650.5
22555.2
20228.5
17801.1
15192.4
12383.7
9887.87
9235.52
13831.5
25290.2
31328.4
46421.1
56990.7
44590
29825.4
21317
10436.9
7930.79
5893.72
4645.36
4339.6
5006.51
6413.98
8149.25
9694.81
10722.2
10890.3
11555.6
15839
16508.3
14629.9
10039.2
6884.67
3517.42
759.516
-1024.9
-1724.58
-1439.52
-471.343
836.429
2193.19
3477.03
4784.14
6185.23
7763.93
8197.39
7473.71
11716.8
14666.6
14665.2
14731.3
12898.4
-53113.2
-54978.2
-56932.2
-58623
-59928.8
-60705.4
-60838
-60469.4
-59790.1
-59021.6
-58323.6
-58419.6
-61116.1
-56438.9
-51195.7
-53165.9
-51471.2
-51478.1
-50945
-51235.9
-51618.5
-52210.3
-52928.7
-53535.8
-53842.3
-53897.1
-53915.1
-53772.4
-53605
-51537.3
-47529.2
-49021.9
-52557.3
-54220.2
-52155.4
-52172.3
)
;

boundaryField
{
    fixed
    {
        type            zeroGradient;
    }
    inside
    {
        type            zeroGradient;
    }
    outside
    {
        type            zeroGradient;
    }
}


// ************************************************************************* //
