/*--------------------------------*- C++ -*----------------------------------*\
| =========                 |                                                 |
| \\      /  F ield         | OpenFOAM: The Open Source CFD Toolbox           |
|  \\    /   O peration     | Version:  2312                                  |
|   \\  /    A nd           | Website:  www.openfoam.com                      |
|    \\/     M anipulation  |                                                 |
\*---------------------------------------------------------------------------*/
FoamFile
{
    version     2.0;
    format      ascii;
    arch        "LSB;label=32;scalar=64";
    class       volVectorField;
    location    "0.7";
    object      traction;
}
// * * * * * * * * * * * * * * * * * * * * * * * * * * * * * * * * * * * * * //

dimensions      [1 -1 -2 0 0 0 0];

internalField   uniform (0 0 0);

boundaryField
{
    fixed
    {
        type            calculated;
        value           nonuniform List<vector> 
108
(
(-217.329 19327.6 43038.6)
(-3570.2 18996.2 43038.6)
(-6814.62 18087.6 43038.6)
(-9852.03 16629.5 43038.5)
(-12590 14666.1 43038.5)
(-14945.4 12257.1 43038.6)
(-16846.8 9475.58 43038.5)
(-18236.3 6406.21 43038.6)
(-19071.7 3142.2 43038.6)
(-19327.6 -217.329 43038.6)
(-18996.2 -3570.2 43038.6)
(-18087.6 -6814.63 43038.6)
(-16629.5 -9852.03 43038.5)
(-14666.1 -12590 43038.5)
(-12257.1 -14945.4 43038.6)
(-9475.58 -16846.8 43038.5)
(-6406.21 -18236.3 43038.6)
(-3142.2 -19071.7 43038.6)
(217.329 -19327.6 43038.6)
(3570.2 -18996.2 43038.6)
(6814.62 -18087.6 43038.6)
(9852.03 -16629.5 43038.5)
(12590 -14666.1 43038.5)
(14945.4 -12257.1 43038.6)
(16846.8 -9475.58 43038.4)
(18236.3 -6406.21 43038.6)
(19071.7 -3142.2 43038.6)
(19327.6 217.329 43038.6)
(18996.2 3570.2 43038.6)
(18087.6 6814.63 43038.6)
(16629.5 9852.03 43038.5)
(14666.1 12590 43038.5)
(12257.1 14945.4 43038.6)
(9475.58 16846.8 43038.4)
(6406.21 18236.3 43038.6)
(3142.2 19071.7 43038.6)
(844.015 1795.16 13349.6)
(519.469 1914.45 13349.6)
(179.14 1975.54 13349.4)
(-166.695 1976.73 13349.6)
(-507.489 1917.82 13349.5)
(-832.732 1800.51 13349.4)
(-1132.63 1628.51 13349.5)
(-1398.22 1407.09 13349.6)
(-1621.33 1142.91 13349.5)
(-1795.16 844.015 13349.6)
(-1914.45 519.469 13349.6)
(-1975.54 179.14 13349.4)
(-1976.73 -166.695 13349.6)
(-1917.82 -507.489 13349.5)
(-1800.51 -832.732 13349.4)
(-1628.51 -1132.63 13349.5)
(-1407.09 -1398.22 13349.6)
(-1142.91 -1621.33 13349.5)
(-844.015 -1795.16 13349.6)
(-519.469 -1914.45 13349.6)
(-179.14 -1975.54 13349.4)
(166.695 -1976.73 13349.6)
(507.489 -1917.82 13349.5)
(832.732 -1800.51 13349.4)
(1132.62 -1628.51 13349.5)
(1398.22 -1407.09 13349.6)
(1621.33 -1142.91 13349.5)
(1795.16 -844.015 13349.6)
(1914.45 -519.469 13349.6)
(1975.54 -179.14 13349.4)
(1976.73 166.695 13349.6)
(1917.82 507.489 13349.5)
(1800.51 832.732 13349.4)
(1628.51 1132.62 13349.5)
(1407.09 1398.22 13349.6)
(1142.91 1621.33 13349.5)
(4002.36 -26266.2 16131.3)
(8502.6 -25172.1 16131.3)
(12744.6 -23313.3 16131.1)
(16599.3 -20746 16131.1)
(19949.5 -17548.4 16131.1)
(22693.7 -13817.6 16131.2)
(24748.4 -9666.96 16131.3)
(26051 -5222.55 16131.1)
(26562.1 -619.504 16131.2)
(26266.2 4002.36 16131.3)
(25172.1 8502.61 16131.3)
(23313.3 12744.6 16131.1)
(20746 16599.3 16131.1)
(17548.4 19949.5 16131.1)
(13817.6 22693.7 16131.2)
(9666.96 24748.4 16131.3)
(5222.54 26051 16131.1)
(619.503 26562.1 16131.2)
(-4002.36 26266.2 16131.3)
(-8502.61 25172.1 16131.3)
(-12744.6 23313.3 16131.1)
(-16599.3 20746 16131.1)
(-19949.5 17548.4 16131.1)
(-22693.7 13817.6 16131.2)
(-24748.4 9666.96 16131.3)
(-26051 5222.54 16131.1)
(-26562.1 619.504 16131.2)
(-26266.2 -4002.36 16131.3)
(-25172.1 -8502.61 16131.3)
(-23313.3 -12744.6 16131.1)
(-20746 -16599.3 16131.1)
(-17548.4 -19949.5 16131.1)
(-13817.6 -22693.7 16131.2)
(-9666.96 -24748.4 16131.3)
(-5222.55 -26051 16131.1)
(-619.504 -26562.1 16131.2)
)
;
    }
    inside
    {
        type            calculated;
        value           nonuniform List<vector> 
540
(
(3877.83 534.214 1221.07)
(3726.16 1199.44 1221.06)
(3461.43 1828.33 1221.14)
(3091.34 2401.65 1221.06)
(2627.28 2901.86 1221.12)
(2083.45 3313.99 1221.12)
(1476.31 3625.41 1221.06)
(824.362 3826.81 1221.13)
(147.261 3911.72 1221.01)
(-534.213 3877.82 1221.07)
(-1199.44 3726.16 1221.06)
(-1828.33 3461.42 1221.14)
(-2401.65 3091.34 1221.06)
(-2901.86 2627.28 1221.12)
(-3313.99 2083.45 1221.12)
(-3625.4 1476.31 1221.06)
(-3826.81 824.361 1221.13)
(-3911.72 147.261 1221.01)
(-3877.82 -534.213 1221.07)
(-3726.16 -1199.44 1221.06)
(-3461.42 -1828.33 1221.14)
(-3091.34 -2401.65 1221.06)
(-2627.28 -2901.86 1221.12)
(-2083.45 -3313.99 1221.12)
(-1476.31 -3625.41 1221.06)
(-824.362 -3826.81 1221.13)
(-147.261 -3911.72 1221.01)
(534.213 -3877.82 1221.07)
(1199.44 -3726.16 1221.06)
(1828.33 -3461.43 1221.14)
(2401.65 -3091.35 1221.06)
(2901.86 -2627.28 1221.12)
(3314 -2083.45 1221.12)
(3625.41 -1476.31 1221.06)
(3826.81 -824.362 1221.13)
(3911.72 -147.261 1221.01)
(23609.7 5195.45 3014.36)
(22348.9 9216.17 3014.21)
(20409 12957 3014.24)
(17849 16304.3 3014.24)
(14746.5 19155.9 3014.27)
(11196 21425.4 3014.28)
(7305.46 23044.3 3014.26)
(3192.9 23962.7 3014.31)
(-1016.54 24153.1 3014.19)
(-5195.45 23609.7 3014.36)
(-9216.17 22348.9 3014.21)
(-12957 20409 3014.24)
(-16304.3 17849 3014.24)
(-19155.9 14746.5 3014.27)
(-21425.4 11196 3014.28)
(-23044.3 7305.46 3014.26)
(-23962.7 3192.9 3014.31)
(-24153.1 -1016.54 3014.19)
(-23609.7 -5195.45 3014.36)
(-22348.9 -9216.17 3014.21)
(-20409 -12957 3014.24)
(-17849 -16304.3 3014.24)
(-14746.5 -19155.9 3014.27)
(-11196 -21425.4 3014.28)
(-7305.46 -23044.3 3014.26)
(-3192.9 -23962.7 3014.31)
(1016.54 -24153.1 3014.19)
(5195.45 -23609.7 3014.36)
(9216.17 -22348.9 3014.21)
(12957 -20409 3014.24)
(16304.3 -17849 3014.24)
(19155.9 -14746.5 3014.27)
(21425.4 -11196 3014.28)
(23044.3 -7305.46 3014.26)
(23962.7 -3192.9 3014.31)
(24153.1 1016.54 3014.19)
(28312.9 10981.5 2772.52)
(25976 15731.3 2772.43)
(22849.5 20002.7 2772.49)
(19029 23666.6 2772.47)
(14630.2 26611.5 2772.5)
(9786.87 28747.7 2772.52)
(4646.19 30010.5 2772.47)
(-635.767 30361.2 2772.51)
(-5898.14 29789.6 2772.46)
(-10981.5 28312.9 2772.52)
(-15731.3 25976 2772.43)
(-20002.7 22849.5 2772.49)
(-23666.6 19029 2772.47)
(-26611.5 14630.2 2772.5)
(-28747.7 9786.87 2772.52)
(-30010.5 4646.19 2772.47)
(-30361.2 -635.766 2772.51)
(-29789.6 -5898.14 2772.46)
(-28312.9 -10981.5 2772.52)
(-25976 -15731.3 2772.43)
(-22849.5 -20002.7 2772.49)
(-19029 -23666.6 2772.47)
(-14630.2 -26611.5 2772.5)
(-9786.87 -28747.7 2772.52)
(-4646.19 -30010.5 2772.47)
(635.766 -30361.2 2772.51)
(5898.14 -29789.6 2772.46)
(10981.5 -28312.9 2772.52)
(15731.3 -25976 2772.43)
(20002.7 -22849.5 2772.49)
(23666.6 -19029 2772.47)
(26611.5 -14630.2 2772.5)
(28747.7 -9786.87 2772.52)
(30010.5 -4646.19 2772.47)
(30361.2 635.767 2772.51)
(29789.6 5898.14 2772.46)
(32845.7 18402.7 2704.9)
(29151.2 23826.8 2705.07)
(24570.8 28526.8 2704.99)
(19243.9 32360.2 2704.99)
(13332.3 35210.3 2704.97)
(7015.47 36990.3 2704.97)
(485.592 37646.8 2704.96)
(-6058.98 37159 2704.97)
(-12419.7 35542.3 2705.06)
(-18402.7 32845.7 2704.9)
(-23826.8 29151.2 2705.07)
(-28526.8 24570.8 2704.99)
(-32360.2 19243.9 2704.99)
(-35210.3 13332.3 2704.97)
(-36990.3 7015.47 2704.97)
(-37646.8 485.593 2704.96)
(-37159 -6058.98 2704.97)
(-35542.3 -12419.7 2705.05)
(-32845.7 -18402.7 2704.9)
(-29151.2 -23826.8 2705.07)
(-24570.8 -28526.8 2704.99)
(-19243.9 -32360.2 2704.99)
(-13332.3 -35210.3 2704.97)
(-7015.47 -36990.3 2704.97)
(-485.593 -37646.8 2704.96)
(6058.98 -37159 2704.97)
(12419.7 -35542.3 2705.05)
(18402.7 -32845.7 2704.9)
(23826.8 -29151.2 2705.07)
(28526.8 -24570.8 2704.99)
(32360.2 -19243.9 2704.99)
(35210.3 -13332.3 2704.97)
(36990.3 -7015.47 2704.97)
(37646.8 -485.592 2704.96)
(37159 6058.98 2704.97)
(35542.3 12419.7 2705.06)
(35567.7 26282.3 2996.81)
(30463.2 32059.3 2996.97)
(24433.5 36862.1 2996.84)
(17661.3 40545 2996.89)
(10352.3 42995.7 2996.88)
(2728.98 44140.3 2996.86)
(-4977.39 43943.5 2996.91)
(-12532.5 42411.7 2996.81)
(-19706.9 39591 2996.99)
(-26282.3 35567.7 2996.81)
(-32059.3 30463.2 2996.98)
(-36862.1 24433.5 2996.84)
(-40544.9 17661.3 2996.89)
(-42995.7 10352.3 2996.88)
(-44140.3 2728.98 2996.86)
(-43943.5 -4977.39 2996.91)
(-42411.7 -12532.5 2996.81)
(-39591 -19706.9 2996.99)
(-35567.7 -26282.3 2996.81)
(-30463.2 -32059.3 2996.97)
(-24433.5 -36862.1 2996.84)
(-17661.3 -40544.9 2996.89)
(-10352.3 -42995.7 2996.88)
(-2728.98 -44140.3 2996.86)
(4977.39 -43943.5 2996.91)
(12532.5 -42411.7 2996.81)
(19706.9 -39591 2996.99)
(26282.3 -35567.7 2996.81)
(32059.3 -30463.2 2996.97)
(36862.1 -24433.5 2996.84)
(40544.9 -17661.3 2996.89)
(42995.7 -10352.3 2996.88)
(44140.3 -2728.98 2996.86)
(43943.5 4977.39 2996.91)
(42411.7 12532.5 2996.81)
(39591 19706.9 2996.99)
(36575.6 33788.1 3584.56)
(30152.5 39626.1 3584.66)
(22813.6 44260.3 3584.68)
(14781.3 47549.1 3584.6)
(6299.95 49393.7 3584.59)
(-2372.91 49737.4 3584.6)
(-10973.5 48569.4 3584.51)
(-19240.9 45926.2 3584.54)
(-26923.7 41887.2 3584.66)
(-33788.1 36575.6 3584.56)
(-39626.1 30152.5 3584.66)
(-44260.3 22813.6 3584.68)
(-47549.1 14781.3 3584.6)
(-49393.7 6299.95 3584.59)
(-49737.4 -2372.91 3584.6)
(-48569.4 -10973.5 3584.51)
(-45926.2 -19240.9 3584.53)
(-41887.2 -26923.7 3584.66)
(-36575.6 -33788.1 3584.56)
(-30152.5 -39626.1 3584.66)
(-22813.6 -44260.3 3584.68)
(-14781.3 -47549.1 3584.6)
(-6299.95 -49393.7 3584.59)
(2372.91 -49737.4 3584.6)
(10973.5 -48569.4 3584.51)
(19240.9 -45926.2 3584.53)
(26923.7 -41887.1 3584.66)
(33788.1 -36575.6 3584.56)
(39626.1 -30152.5 3584.66)
(44260.3 -22813.6 3584.68)
(47549.1 -14781.3 3584.6)
(49393.7 -6299.95 3584.59)
(49737.4 2372.91 3584.6)
(48569.4 10973.5 3584.51)
(45926.2 19240.9 3584.54)
(41887.1 26923.7 3584.66)
(35858.2 39965.3 4399.43)
(28373.3 45584.6 4399.42)
(20026.7 49819.2 4399.41)
(11071.3 52539.9 4399.45)
(1779.7 53664.2 4399.42)
(-7566 53158 4399.34)
(-16681.9 51036.5 4399.42)
(-25290.8 47364.7 4399.34)
(-33131.1 42253 4399.43)
(-39965.3 35858.2 4399.43)
(-45584.6 28373.3 4399.42)
(-49819.2 20026.7 4399.41)
(-52539.9 11071.3 4399.45)
(-53664.2 1779.7 4399.42)
(-53158 -7566 4399.34)
(-51036.5 -16681.9 4399.42)
(-47364.7 -25290.8 4399.34)
(-42253 -33131.1 4399.43)
(-35858.2 -39965.3 4399.43)
(-28373.3 -45584.6 4399.42)
(-20026.7 -49819.2 4399.41)
(-11071.3 -52539.9 4399.45)
(-1779.7 -53664.2 4399.42)
(7566 -53158 4399.34)
(16681.9 -51036.5 4399.42)
(25290.8 -47364.7 4399.34)
(33131.1 -42253 4399.43)
(39965.3 -35858.2 4399.43)
(45584.6 -28373.3 4399.42)
(49819.2 -20026.7 4399.41)
(52539.9 -11071.3 4399.45)
(53664.2 -1779.7 4399.42)
(53158 7566 4399.34)
(51036.5 16681.9 4399.42)
(47364.7 25290.8 4399.34)
(42253 33131.1 4399.43)
(33298.3 43414.7 5449.58)
(25253.4 48537.3 5449.7)
(16441.6 52184.9 5449.59)
(7129.85 54247.3 5449.71)
(-2398.36 54661.2 5449.64)
(-11853.7 53414.4 5449.59)
(-20949.1 50544.6 5449.74)
(-29407.6 46138.8 5449.55)
(-36973 40331.3 5449.65)
(-43414.7 33298.3 5449.58)
(-48537.3 25253.4 5449.7)
(-52184.9 16441.6 5449.59)
(-54247.3 7129.85 5449.71)
(-54661.2 -2398.36 5449.64)
(-53414.4 -11853.7 5449.59)
(-50544.6 -20949.1 5449.74)
(-46138.8 -29407.6 5449.55)
(-40331.3 -36973 5449.65)
(-33298.3 -43414.7 5449.58)
(-25253.4 -48537.3 5449.7)
(-16441.6 -52184.9 5449.59)
(-7129.85 -54247.3 5449.71)
(2398.36 -54661.2 5449.64)
(11853.7 -53414.4 5449.59)
(20949.1 -50544.6 5449.74)
(29407.6 -46138.8 5449.55)
(36973 -40331.3 5449.65)
(43414.7 -33298.3 5449.58)
(48537.3 -25253.4 5449.7)
(52184.9 -16441.6 5449.59)
(54247.3 -7129.85 5449.71)
(54661.2 2398.36 5449.64)
(53414.4 11853.7 5449.59)
(50544.6 20949.1 5449.74)
(46138.8 29407.6 5449.55)
(40331.3 36973 5449.65)
(28896.6 42328.1 6726.89)
(21107.2 46703.4 6727.15)
(12676.6 49658.9 6727.07)
(3860.92 51105.9 6727.02)
(-5072.09 51000 6727.01)
(-13851 49344.3 6726.98)
(-22209.2 46189.4 6727.01)
(-29892.5 41631.2 6726.97)
(-36667.9 35808 6727.13)
(-42328.1 28896.6 6726.89)
(-46703.4 21107.2 6727.15)
(-49658.9 12676.6 6727.07)
(-51105.9 3860.92 6727.02)
(-51000 -5072.09 6727.01)
(-49344.3 -13851 6726.98)
(-46189.4 -22209.2 6727.01)
(-41631.2 -29892.5 6726.97)
(-35808 -36667.9 6727.13)
(-28896.6 -42328.1 6726.89)
(-21107.2 -46703.4 6727.15)
(-12676.6 -49658.9 6727.07)
(-3860.92 -51105.9 6727.02)
(5072.09 -51000 6727.01)
(13851 -49344.3 6726.98)
(22209.2 -46189.4 6727.01)
(29892.5 -41631.2 6726.97)
(36667.9 -35808 6727.13)
(42328.1 -28896.6 6726.89)
(46703.4 -21107.2 6727.15)
(49658.9 -12676.6 6727.07)
(51105.9 -3860.92 6727.02)
(51000 5072.09 6727.01)
(49344.3 13851 6726.98)
(46189.4 22209.2 6727.01)
(41631.2 29892.5 6726.97)
(35808 36667.9 6727.13)
(23195 35431.9 8056.13)
(16689.9 38921.6 8056.24)
(9677.57 41228.5 8056.28)
(2371.34 42282.7 8056.19)
(-5007.07 42052.1 8056.19)
(-12233.2 40543.7 8056.25)
(-19087.6 37803.5 8056.17)
(-25362.1 33914.6 8056.24)
(-30866.3 28995.3 8056.27)
(-35431.9 23195 8056.13)
(-38921.6 16689.9 8056.24)
(-41228.5 9677.57 8056.28)
(-42282.7 2371.35 8056.19)
(-42052.1 -5007.07 8056.19)
(-40543.7 -12233.2 8056.25)
(-37803.5 -19087.6 8056.17)
(-33914.6 -25362.1 8056.24)
(-28995.3 -30866.3 8056.27)
(-23195 -35431.9 8056.13)
(-16689.9 -38921.6 8056.24)
(-9677.57 -41228.5 8056.28)
(-2371.34 -42282.7 8056.19)
(5007.07 -42052.1 8056.19)
(12233.2 -40543.7 8056.25)
(19087.6 -37803.5 8056.17)
(25362.1 -33914.6 8056.24)
(30866.3 -28995.3 8056.27)
(35431.9 -23195 8056.13)
(38921.6 -16689.9 8056.24)
(41228.5 -9677.57 8056.28)
(42282.7 -2371.34 8056.19)
(42052.1 5007.07 8056.19)
(40543.7 12233.2 8056.25)
(37803.5 19087.6 8056.17)
(33914.6 25362.1 8056.24)
(28995.3 30866.3 8056.28)
(17357.4 22653.7 9515.83)
(13160 25323.9 9515.8)
(8562.58 27224.1 9515.88)
(3705.11 28297.6 9515.79)
(-1265 28511 9515.84)
(-6196.76 27858.3 9515.86)
(-10940.2 26359.1 9515.74)
(-15351 24058.6 9515.84)
(-19295.7 21027.5 9515.83)
(-22653.7 17357.4 9515.83)
(-25323.9 13160 9515.8)
(-27224.1 8562.58 9515.88)
(-28297.6 3705.11 9515.79)
(-28511 -1265 9515.84)
(-27858.3 -6196.76 9515.86)
(-26359.1 -10940.2 9515.74)
(-24058.6 -15351 9515.84)
(-21027.5 -19295.7 9515.83)
(-17357.4 -22653.7 9515.83)
(-13160 -25323.9 9515.8)
(-8562.58 -27224.1 9515.88)
(-3705.11 -28297.6 9515.79)
(1265 -28511 9515.84)
(6196.76 -27858.3 9515.86)
(10940.2 -26359.1 9515.74)
(15351 -24058.6 9515.84)
(19295.7 -21027.5 9515.83)
(22653.7 -17357.4 9515.83)
(25323.9 -13160 9515.8)
(27224.1 -8562.57 9515.88)
(28297.6 -3705.11 9515.79)
(28511 1265 9515.84)
(27858.3 6196.76 9515.86)
(26359.1 10940.2 9515.74)
(24058.6 15351 9515.84)
(21027.5 19295.7 9515.83)
(12888.4 4642.74 12625.3)
(11886.5 6810.45 12625.1)
(10523.3 8770.98 12625.2)
(8840.3 10465.2 12625.1)
(6888.73 11841.3 12625.1)
(4727.82 12857.7 12625.1)
(2423.39 13483.1 12625.1)
(45.3942 13699 12625.3)
(-2334.06 13498.7 12625.2)
(-4642.74 12888.4 12625.3)
(-6810.44 11886.5 12625.1)
(-8770.98 10523.3 12625.2)
(-10465.2 8840.3 12625.1)
(-11841.3 6888.72 12625.1)
(-12857.7 4727.82 12625.1)
(-13483.1 2423.39 12625.1)
(-13699 45.3916 12625.3)
(-13498.7 -2334.06 12625.2)
(-12888.4 -4642.74 12625.3)
(-11886.5 -6810.45 12625.1)
(-10523.3 -8770.98 12625.2)
(-8840.3 -10465.2 12625.1)
(-6888.72 -11841.3 12625.1)
(-4727.81 -12857.7 12625.1)
(-2423.39 -13483.1 12625.1)
(-45.3913 -13699 12625.3)
(2334.06 -13498.7 12625.2)
(4642.74 -12888.4 12625.3)
(6810.44 -11886.5 12625.1)
(8770.98 -10523.3 12625.2)
(10465.2 -8840.3 12625.1)
(11841.3 -6888.72 12625.1)
(12857.7 -4727.82 12625.1)
(13483.1 -2423.39 12625.1)
(13699 -45.3922 12625.3)
(13498.7 2334.06 12625.2)
(11111.8 -16921.5 20971.2)
(13881.4 -14734.5 20970.9)
(16229.2 -12100.2 20971)
(18083.7 -9098.21 20971)
(19388.8 -5819.71 20970.9)
(20105.2 -2364.83 20971.2)
(20210.2 1162.52 20971)
(19701.8 4654.03 20971.4)
(18594 8004.59 20971.2)
(16921.5 11111.8 20971.2)
(14734.5 13881.4 20970.9)
(12100.2 16229.2 20971)
(9098.21 18083.7 20971)
(5819.7 19388.8 20970.9)
(2364.83 20105.2 20971.2)
(-1162.53 20210.2 20971)
(-4654.03 19701.8 20971.4)
(-8004.59 18594 20971.2)
(-11111.8 16921.5 20971.2)
(-13881.3 14734.5 20970.9)
(-16229.2 12100.2 20971)
(-18083.7 9098.21 20971)
(-19388.8 5819.7 20970.9)
(-20105.2 2364.83 20971.2)
(-20210.2 -1162.52 20971)
(-19701.8 -4654.03 20971.4)
(-18594 -8004.59 20971.2)
(-16921.5 -11111.8 20971.2)
(-14734.5 -13881.3 20970.9)
(-12100.2 -16229.2 20971)
(-9098.21 -18083.7 20971)
(-5819.71 -19388.8 20970.9)
(-2364.83 -20105.2 20971.2)
(1162.53 -20210.2 20971)
(4654.03 -19701.8 20971.4)
(8004.59 -18594 20971.2)
(11949.7 -33955.8 37669.2)
(17665.3 -31364.7 37669.2)
(22842.7 -27820.7 37669)
(27327.1 -23431.6 37669.6)
(30980.7 -18330.3 37669.4)
(33693.3 -12672.2 37669.6)
(35382.3 -6628.78 37670)
(35995.4 -384.419 37669.6)
(35515.5 5872.69 37669.7)
(33955.8 11949.7 37669.2)
(31364.7 17665.3 37669.2)
(27820.7 22842.7 37669)
(23431.6 27327.1 37669.6)
(18330.3 30980.7 37669.4)
(12672.2 33693.3 37669.6)
(6628.78 35382.3 37670)
(384.419 35995.4 37669.6)
(-5872.69 35515.5 37669.7)
(-11949.7 33955.8 37669.2)
(-17665.3 31364.7 37669.2)
(-22842.7 27820.7 37669)
(-27327.1 23431.6 37669.6)
(-30980.7 18330.3 37669.4)
(-33693.3 12672.2 37669.6)
(-35382.3 6628.78 37670)
(-35995.4 384.422 37669.6)
(-35515.5 -5872.69 37669.7)
(-33955.8 -11949.7 37669.2)
(-31364.7 -17665.3 37669.2)
(-27820.7 -22842.7 37669)
(-23431.6 -27327.1 37669.6)
(-18330.3 -30980.7 37669.4)
(-12672.2 -33693.3 37669.6)
(-6628.78 -35382.3 37670)
(-384.421 -35995.4 37669.6)
(5872.69 -35515.5 37669.7)
(12584.5 -23392.2 38699.8)
(16455.7 -20851.2 38699.1)
(19826 -17675.9 38696.2)
(22595.6 -13968.4 38706.9)
(24674.3 -9825.98 38688.7)
(26012 -5399.04 38710.5)
(26547.9 -795.136 38691.9)
(26287.1 3824.56 38703.3)
(25221.7 8332.01 38698.4)
(23392.2 12584.5 38699.8)
(20851.2 16455.7 38699.1)
(17675.9 19826 38696.1)
(13968.4 22595.6 38706.9)
(9825.98 24674.3 38688.7)
(5399.03 26012 38710.5)
(795.137 26547.9 38691.9)
(-3824.56 26287.1 38703.3)
(-8332.01 25221.7 38698.4)
(-12584.5 23392.2 38699.8)
(-16455.7 20851.2 38699.1)
(-19826 17675.9 38696.2)
(-22595.6 13968.4 38706.9)
(-24674.3 9825.99 38688.7)
(-26012 5399.04 38710.5)
(-26547.9 795.141 38691.9)
(-26287.1 -3824.56 38703.4)
(-25221.7 -8332.02 38698.4)
(-23392.2 -12584.5 38699.8)
(-20851.2 -16455.7 38699.1)
(-17675.9 -19826 38696.2)
(-13968.4 -22595.6 38706.9)
(-9825.99 -24674.3 38688.7)
(-5399.04 -26012 38710.5)
(-795.141 -26547.9 38691.9)
(3824.56 -26287.1 38703.3)
(8332.01 -25221.7 38698.4)
)
;
    }
    outside
    {
        type            calculated;
        value           nonuniform List<vector> 
540
(
(22208.2 1699.84 -925.423)
(21575.6 5530.58 -925.27)
(20287.5 9192.99 -925.463)
(18382.8 12576.1 -925.389)
(15919.6 15577.2 -925.188)
(12972.8 18105.1 -925.199)
(9631.96 20082.7 -925.433)
(5998.38 21450.2 -925.43)
(2182.36 22166 -925.384)
(-1699.84 22208.2 -925.423)
(-5530.58 21575.6 -925.27)
(-9192.99 20287.5 -925.464)
(-12576.1 18382.8 -925.389)
(-15577.2 15919.6 -925.189)
(-18105.1 12972.8 -925.2)
(-20082.7 9631.96 -925.434)
(-21450.2 5998.38 -925.43)
(-22166 2182.37 -925.385)
(-22208.2 -1699.84 -925.424)
(-21575.6 -5530.58 -925.271)
(-20287.5 -9192.99 -925.465)
(-18382.8 -12576.1 -925.39)
(-15919.6 -15577.2 -925.189)
(-12972.8 -18105.1 -925.2)
(-9631.96 -20082.7 -925.435)
(-5998.38 -21450.2 -925.43)
(-2182.37 -22166 -925.385)
(1699.84 -22208.2 -925.424)
(5530.58 -21575.6 -925.271)
(9192.99 -20287.5 -925.465)
(12576.1 -18382.8 -925.39)
(15577.2 -15919.6 -925.189)
(18105.1 -12972.8 -925.2)
(20082.7 -9631.95 -925.434)
(21450.2 -5998.38 -925.43)
(22166 -2182.36 -925.385)
(6594.77 38.3646 -953.032)
(6487.87 1183.11 -952.761)
(6183.99 2291.79 -952.79)
(5691.97 3330.58 -952.971)
(5027.18 4268.42 -952.998)
(4209.52 5076.67 -952.766)
(3264.01 5730.36 -952.796)
(2219.42 6210.25 -952.864)
(1107.24 6501.26 -952.82)
(-38.3644 6594.77 -953.032)
(-1183.11 6487.87 -952.762)
(-2291.79 6183.99 -952.791)
(-3330.58 5691.97 -952.971)
(-4268.42 5027.18 -952.999)
(-5076.67 4209.52 -952.767)
(-5730.36 3264.01 -952.796)
(-6210.25 2219.42 -952.864)
(-6501.26 1107.24 -952.82)
(-6594.77 -38.3641 -953.032)
(-6487.87 -1183.11 -952.762)
(-6183.99 -2291.79 -952.791)
(-5691.97 -3330.58 -952.972)
(-5027.18 -4268.42 -952.999)
(-4209.52 -5076.67 -952.767)
(-3264.01 -5730.36 -952.796)
(-2219.42 -6210.25 -952.865)
(-1107.24 -6501.26 -952.821)
(38.3641 -6594.77 -953.032)
(1183.11 -6487.87 -952.762)
(2291.79 -6183.99 -952.791)
(3330.58 -5691.97 -952.971)
(4268.42 -5027.18 -952.999)
(5076.67 -4209.52 -952.767)
(5730.36 -3264.01 -952.796)
(6210.25 -2219.42 -952.864)
(6501.26 -1107.24 -952.82)
(6451.22 655.95 -377.57)
(6239.07 1766.08 -377.681)
(5837.76 2822.84 -377.601)
(5258.78 3793.49 -377.679)
(4520.28 4649.15 -377.75)
(3644.32 5363.54 -377.726)
(2657.51 5914.6 -377.674)
(1590.07 6286.38 -377.652)
(474.193 6466.84 -377.443)
(-655.95 6451.22 -377.57)
(-1766.08 6239.07 -377.681)
(-2822.84 5837.76 -377.601)
(-3793.49 5258.78 -377.679)
(-4649.15 4520.28 -377.751)
(-5363.54 3644.33 -377.727)
(-5914.6 2657.51 -377.675)
(-6286.38 1590.07 -377.652)
(-6466.84 474.194 -377.444)
(-6451.22 -655.95 -377.571)
(-6239.07 -1766.08 -377.682)
(-5837.76 -2822.84 -377.602)
(-5258.78 -3793.49 -377.68)
(-4520.28 -4649.15 -377.751)
(-3644.33 -5363.54 -377.727)
(-2657.51 -5914.6 -377.675)
(-1590.07 -6286.38 -377.652)
(-474.193 -6466.84 -377.443)
(655.95 -6451.22 -377.571)
(1766.08 -6239.07 -377.682)
(2822.84 -5837.77 -377.601)
(3793.49 -5258.78 -377.679)
(4649.15 -4520.28 -377.75)
(5363.54 -3644.33 -377.727)
(5914.6 -2657.51 -377.675)
(6286.38 -1590.07 -377.652)
(6466.84 -474.193 -377.443)
(5834.03 1492.81 1005.5)
(5486.15 2483.26 1005.57)
(4971.54 3398.13 1005.55)
(4306.02 4209.87 1005.53)
(3509.52 4893.71 1005.72)
(2606.48 5428.77 1005.58)
(1624.22 5798.91 1005.5)
(592.619 5992.67 1005.4)
(-457.127 6004.64 1005.57)
(-1492.81 5834.03 1005.5)
(-2483.26 5486.15 1005.57)
(-3398.13 4971.54 1005.55)
(-4209.87 4306.02 1005.53)
(-4893.71 3509.52 1005.71)
(-5428.77 2606.48 1005.58)
(-5798.91 1624.22 1005.5)
(-5992.67 592.619 1005.4)
(-6004.64 -457.127 1005.57)
(-5834.03 -1492.81 1005.5)
(-5486.15 -2483.26 1005.57)
(-4971.54 -3398.13 1005.55)
(-4306.02 -4209.87 1005.53)
(-3509.52 -4893.71 1005.71)
(-2606.48 -5428.77 1005.58)
(-1624.22 -5798.91 1005.5)
(-592.619 -5992.67 1005.4)
(457.127 -6004.64 1005.57)
(1492.81 -5834.03 1005.5)
(2483.26 -5486.15 1005.57)
(3398.13 -4971.54 1005.55)
(4209.87 -4306.02 1005.53)
(4893.71 -3509.52 1005.72)
(5428.77 -2606.48 1005.58)
(5798.91 -1624.22 1005.5)
(5992.67 -592.619 1005.4)
(6004.64 457.127 1005.57)
(5020.16 2092.41 2387.95)
(4580.63 2932.55 2388.09)
(4001.68 3683.24 2388.06)
(3301.46 4322.3 2387.92)
(2500.66 4829.84 2388.03)
(1623.94 5190.64 2388.05)
(697.957 5394.05 2388.06)
(-249.232 5432.94 2387.95)
(-1188.98 5307.32 2388.03)
(-2092.41 5020.16 2387.95)
(-2932.55 4580.63 2388.09)
(-3683.24 4001.68 2388.06)
(-4322.3 3301.46 2387.92)
(-4829.84 2500.66 2388.03)
(-5190.64 1623.94 2388.05)
(-5394.05 697.957 2388.06)
(-5432.94 -249.231 2387.95)
(-5307.32 -1188.98 2388.02)
(-5020.16 -2092.41 2387.95)
(-4580.63 -2932.55 2388.09)
(-4001.68 -3683.24 2388.06)
(-3301.46 -4322.3 2387.92)
(-2500.66 -4829.84 2388.03)
(-1623.94 -5190.64 2388.05)
(-697.957 -5394.05 2388.06)
(249.232 -5432.94 2387.95)
(1188.98 -5307.32 2388.03)
(2092.41 -5020.16 2387.95)
(2932.55 -4580.63 2388.09)
(3683.24 -4001.68 2388.06)
(4322.3 -3301.46 2387.92)
(4829.84 -2500.66 2388.03)
(5190.64 -1623.94 2388.05)
(5394.05 -697.957 2388.06)
(5432.94 249.232 2387.95)
(5307.32 1188.98 2388.03)
(3901.39 2233.24 3648.75)
(3454.45 2876.96 3648.88)
(2902.26 3432.98 3648.89)
(2262.14 3884.85 3648.74)
(1553.13 4218.55 3648.73)
(796.954 4424.15 3648.83)
(16.6255 4495.41 3648.83)
(-764.255 4429.88 3648.9)
(-1521.94 4230.06 3648.8)
(-2233.24 3901.39 3648.75)
(-2876.96 3454.45 3648.88)
(-3432.98 2902.26 3648.89)
(-3884.85 2262.14 3648.74)
(-4218.55 1553.13 3648.73)
(-4424.15 796.954 3648.83)
(-4495.41 16.6257 3648.83)
(-4429.88 -764.255 3648.9)
(-4230.06 -1521.94 3648.8)
(-3901.39 -2233.24 3648.75)
(-3454.45 -2876.96 3648.88)
(-2902.26 -3432.98 3648.89)
(-2262.14 -3884.85 3648.74)
(-1553.13 -4218.55 3648.73)
(-796.954 -4424.15 3648.83)
(-16.6255 -4495.41 3648.83)
(764.255 -4429.88 3648.9)
(1521.94 -4230.06 3648.8)
(2233.24 -3901.39 3648.75)
(2876.96 -3454.45 3648.88)
(3432.98 -2902.26 3648.89)
(3884.85 -2262.14 3648.74)
(4218.55 -1553.13 3648.73)
(4424.15 -796.953 3648.83)
(4495.41 -16.6252 3648.83)
(4429.88 764.255 3648.9)
(4230.06 1521.94 3648.8)
(2507.51 1683.89 4729.09)
(2177.15 2093.86 4729.03)
(1780.22 2439.79 4729.14)
(1329.72 2712.27 4729.07)
(838.45 2901.58 4729.01)
(321.855 3003.07 4729.04)
(-204.519 3013.62 4729)
(-724.712 2932.07 4729.16)
(-1222.91 2761.88 4729.11)
(-1683.89 2507.51 4729.09)
(-2093.86 2177.15 4729.03)
(-2439.79 1780.22 4729.14)
(-2712.27 1329.72 4729.07)
(-2901.58 838.45 4729.01)
(-3003.07 321.855 4729.04)
(-3013.62 -204.519 4729)
(-2932.06 -724.712 4729.16)
(-2761.88 -1222.91 4729.11)
(-2507.51 -1683.89 4729.09)
(-2177.15 -2093.86 4729.03)
(-1780.22 -2439.79 4729.14)
(-1329.72 -2712.27 4729.07)
(-838.45 -2901.58 4729.01)
(-321.855 -3003.07 4729.04)
(204.519 -3013.62 4729)
(724.713 -2932.07 4729.16)
(1222.91 -2761.88 4729.11)
(1683.89 -2507.51 4729.09)
(2093.86 -2177.15 4729.03)
(2439.79 -1780.22 4729.14)
(2712.27 -1329.72 4729.07)
(2901.58 -838.45 4729.01)
(3003.07 -321.854 4729.04)
(3013.62 204.519 4729)
(2932.07 724.713 4729.16)
(2761.88 1222.91 4729.11)
(993.956 274.23 5678.87)
(931.23 442.678 5679.03)
(840.118 597.465 5679)
(723.66 734.483 5679.11)
(585.096 848.785 5679.07)
(428.804 937.56 5679.05)
(259.487 997.831 5678.97)
(82.2768 1027.69 5679.1)
(-97.3522 1026.26 5678.95)
(-274.23 993.956 5678.87)
(-442.677 931.229 5679.03)
(-597.464 840.118 5678.99)
(-734.482 723.66 5679.11)
(-848.784 585.096 5679.07)
(-937.559 428.804 5679.05)
(-997.83 259.487 5678.97)
(-1027.68 82.2773 5679.1)
(-1026.26 -97.3518 5678.95)
(-993.955 -274.229 5678.87)
(-931.229 -442.677 5679.03)
(-840.117 -597.464 5678.99)
(-723.659 -734.482 5679.11)
(-585.096 -848.785 5679.07)
(-428.804 -937.559 5679.05)
(-259.487 -997.831 5678.97)
(-82.2766 -1027.69 5679.1)
(97.3527 -1026.26 5678.95)
(274.23 -993.956 5678.87)
(442.678 -931.23 5679.03)
(597.464 -840.118 5679)
(734.483 -723.659 5679.11)
(848.785 -585.096 5679.07)
(937.559 -428.804 5679.05)
(997.831 -259.487 5678.97)
(1027.69 -82.2766 5679.1)
(1026.26 97.3526 5678.95)
(-295.212 -1943.2 6809.95)
(46.7674 -1964.89 6809.93)
(387.239 -1926.97 6809.94)
(715.974 -1830.45 6809.9)
(1022.95 -1678.34 6809.89)
(1298.85 -1475.2 6809.9)
(1535.29 -1227.34 6809.89)
(1725.05 -941.975 6809.98)
(1862.38 -628.052 6810)
(1943.2 -295.212 6809.95)
(1964.89 46.7672 6809.93)
(1926.97 387.239 6809.94)
(1830.45 715.974 6809.9)
(1678.34 1022.95 6809.89)
(1475.21 1298.85 6809.9)
(1227.34 1535.29 6809.89)
(941.975 1725.05 6809.98)
(628.052 1862.38 6810)
(295.212 1943.2 6809.95)
(-46.767 1964.89 6809.93)
(-387.239 1926.97 6809.94)
(-715.973 1830.45 6809.9)
(-1022.95 1678.34 6809.89)
(-1298.85 1475.21 6809.9)
(-1535.29 1227.34 6809.89)
(-1725.05 941.975 6809.98)
(-1862.38 628.052 6810)
(-1943.2 295.212 6809.95)
(-1964.89 -46.7673 6809.93)
(-1926.97 -387.239 6809.94)
(-1830.45 -715.973 6809.9)
(-1678.34 -1022.95 6809.89)
(-1475.21 -1298.85 6809.9)
(-1227.34 -1535.29 6809.89)
(-941.975 -1725.05 6809.98)
(-628.052 -1862.38 6810)
(-1080.64 -4896.06 8758.58)
(-214.122 -5009.44 8758.54)
(659.041 -4970.45 8758.56)
(1512.18 -4780.39 8758.57)
(2319.3 -4445.23 8758.54)
(3055.98 -3975.03 8758.61)
(3699.8 -3383.98 8758.56)
(4231.16 -2689.98 8758.47)
(4634.02 -1914.4 8758.57)
(4896.06 -1080.64 8758.58)
(5009.44 -214.122 8758.54)
(4970.46 659.041 8758.56)
(4780.39 1512.18 8758.57)
(4445.24 2319.3 8758.54)
(3975.04 3055.98 8758.61)
(3383.98 3699.8 8758.56)
(2689.98 4231.16 8758.47)
(1914.4 4634.02 8758.57)
(1080.64 4896.06 8758.58)
(214.122 5009.44 8758.54)
(-659.04 4970.45 8758.56)
(-1512.18 4780.39 8758.57)
(-2319.3 4445.24 8758.54)
(-3055.98 3975.03 8758.61)
(-3699.8 3383.98 8758.56)
(-4231.16 2689.98 8758.47)
(-4634.02 1914.4 8758.57)
(-4896.06 1080.64 8758.58)
(-5009.44 214.122 8758.54)
(-4970.45 -659.04 8758.56)
(-4780.39 -1512.18 8758.57)
(-4445.24 -2319.3 8758.54)
(-3975.04 -3055.98 8758.61)
(-3383.98 -3699.8 8758.56)
(-2689.98 -4231.16 8758.47)
(-1914.4 -4634.02 8758.57)
(-1339.97 -8676.83 11979.2)
(186.942 -8777.91 11979.2)
(1708.38 -8611.93 11979.2)
(3177.91 -8184.34 11979.2)
(4550.79 -7508.13 11979.2)
(5785.45 -6603.89 11979.2)
(6844.3 -5498.83 11979.2)
(7695.24 -4226.96 11979.2)
(8312.37 -2826.45 11979.3)
(8676.83 -1339.98 11979.2)
(8777.91 186.942 11979.2)
(8611.93 1708.38 11979.2)
(8184.34 3177.91 11979.2)
(7508.13 4550.79 11979.2)
(6603.89 5785.45 11979.2)
(5498.83 6844.3 11979.2)
(4226.96 7695.23 11979.2)
(2826.45 8312.37 11979.3)
(1339.98 8676.83 11979.2)
(-186.942 8777.91 11979.2)
(-1708.38 8611.93 11979.2)
(-3177.91 8184.34 11979.2)
(-4550.79 7508.13 11979.2)
(-5785.45 6603.89 11979.2)
(-6844.3 5498.82 11979.2)
(-7695.23 4226.96 11979.2)
(-8312.37 2826.45 11979.3)
(-8676.83 1339.97 11979.2)
(-8777.91 -186.942 11979.2)
(-8611.93 -1708.38 11979.2)
(-8184.34 -3177.91 11979.2)
(-7508.13 -4550.79 11979.2)
(-6603.89 -5785.45 11979.2)
(-5498.83 -6844.3 11979.2)
(-4226.96 -7695.23 11979.2)
(-2826.45 -8312.37 11979.3)
(-865.89 -12078.3 16032.5)
(1244.53 -12045.2 16032.5)
(3317.37 -11645.7 16032.5)
(5289.15 -10893 16032.5)
(7100.28 -9808.86 16032.4)
(8695.68 -8426.94 16032.4)
(10026.8 -6788.7 16032.4)
(11053.5 -4944.63 16032.4)
(11744.5 -2950.31 16032.7)
(12078.3 -865.89 16032.5)
(12045.2 1244.54 16032.5)
(11645.7 3317.37 16032.5)
(10893 5289.15 16032.5)
(9808.86 7100.28 16032.4)
(8426.94 8695.68 16032.4)
(6788.7 10026.8 16032.4)
(4944.63 11053.5 16032.4)
(2950.31 11744.5 16032.7)
(865.89 12078.3 16032.5)
(-1244.54 12045.2 16032.5)
(-3317.37 11645.7 16032.5)
(-5289.15 10893 16032.5)
(-7100.28 9808.86 16032.4)
(-8695.68 8426.94 16032.4)
(-10026.8 6788.7 16032.4)
(-11053.5 4944.63 16032.4)
(-11744.5 2950.31 16032.7)
(-12078.3 865.89 16032.5)
(-12045.2 -1244.54 16032.5)
(-11645.7 -3317.38 16032.5)
(-10893 -5289.15 16032.5)
(-9808.86 -7100.28 16032.4)
(-8426.94 -8695.68 16032.4)
(-6788.7 -10026.8 16032.4)