/*--------------------------------*- C++ -*----------------------------------*\
| =========                 |                                                 |
| \\      /  F ield         | OpenFOAM: The Open Source CFD Toolbox           |
|  \\    /   O peration     | Version:  2312                                  |
|   \\  /    A nd           | Website:  www.openfoam.com                      |
|    \\/     M anipulation  |                                                 |
\*---------------------------------------------------------------------------*/
FoamFile
{
    version     2.0;
    format      ascii;
    arch        "LSB;label=32;scalar=64";
    class       volVectorField;
    location    "0.7";
    object      traction;
}
// * * * * * * * * * * * * * * * * * * * * * * * * * * * * * * * * * * * * * //

dimensions      [1 -1 -2 0 0 0 0];

internalField   uniform (0 0 0);

boundaryField
{
    fixed
    {
        type            calculated;
        value           nonuniform List<vector> 
108
(
(2701.6 -4924.65 72889.9)
(5648.61 -13636.1 69412.8)
(9419.9 -18358.3 60545.2)
(12945.2 -19018.3 48204.3)
(15637.6 -17125.8 33689.5)
(17464.8 -13848.6 16110.6)
(18518.7 -9015.93 -6235.69)
(18676.3 -1207.08 -35867.9)
(18482 8685.47 -64103.3)
(-19092.9 8338.86 -64622.7)
(-19270.8 -1479.32 -38202.4)
(-18875.3 -8915.45 -11987.9)
(-17437 -13787.7 9458.86)
(-15147.4 -17030.3 26773.1)
(-12022.6 -18610.4 41146.3)
(-8275.21 -17571.2 53557.2)
(-4671.75 -12964.9 63140.7)
(-2282.04 -5159.53 68770.5)
(-2262.47 3806.39 68412)
(-4463.01 11115.1 62279.8)
(-7723.11 15366.8 52581.9)
(-11269.6 16593.7 41174.4)
(-14411.1 15566.4 29033.4)
(-16833.8 13054 15209.6)
(-18425.4 9157.83 -2126.52)
(-18907.6 2819.22 -26981.4)
(-18814.6 -6041.26 -53662.2)
(19108 -6988.82 -62245)
(19466 1163.59 -41370.2)
(19029.5 8077.34 -18231.4)
(17701.5 13098.5 2451.15)
(15582.9 16706.6 20283.1)
(12615.7 18737.5 35911)
(8872.54 18149.3 50137.1)
(5057.73 13706.5 62127.7)
(2433.93 5365.38 70147.2)
(2828.06 -21840.9 37488.6)
(4262.68 -14536.4 13969.4)
(4225.48 -9730.58 4855.66)
(4109.17 -7239.97 -2735.72)
(3969.95 -5522.03 -12373.3)
(3972.04 -3822.12 -24196.3)
(4206.46 -1399.92 -37583.7)
(4421.85 2407.14 -50184.7)
(3551.67 6323.9 -55313)
(-4014.82 6229.81 -56815.9)
(-4891.59 2282.53 -53973.2)
(-4714.29 -1383.81 -42829.3)
(-4436.99 -3839.21 -30364.7)
(-4269.31 -5707.71 -19096.3)
(-4160.28 -7625.49 -9781.26)
(-4005.2 -10290.3 -2334.23)
(-3833.91 -15225.2 7459.98)
(-2244.15 -22599 31231.8)
(-2040.13 21052.9 29415.1)
(-3349.32 13933 4921.77)
(-3381.15 9149.45 -4450.41)
(-3433.52 6687.55 -11266.4)
(-3509.56 5062.05 -18858.6)
(-3675.62 3611.51 -27549.4)
(-3972.3 1720.34 -37319.4)
(-4218.45 -1345.3 -46996.6)
(-3480.28 -4971.81 -51370.8)
(3947.07 -5286.55 -52978.8)
(4852.68 -2109 -50097.7)
(4830.9 1029.44 -39941)
(4694.72 3362.7 -27929.5)
(4621.64 5297.69 -16447.9)
(4578.26 7324.61 -6419.44)
(4490.21 10079.3 2045.37)
(4366.48 15093.6 12641.4)
(2934.52 22547.5 37486.3)
(-1670.63 4994.08 35264.8)
(-4763.75 12182 26369.9)
(-9196.22 15331.2 11883.6)
(-13087.1 15207.2 -3022.76)
(-15736.8 13409.3 -16003.3)
(-17140 11194.1 -25499.3)
(-17683.1 9285.67 -29539.3)
(-18109.8 7720.5 -28196.8)
(-18480.3 5891.29 -28241.2)
(17386.7 6210.95 -33597.3)
(17046.1 7736.94 -35584.5)
(16774.3 9146.74 -36267.3)
(16249.2 11093.6 -32117.8)
(14926.9 13288.6 -23706)
(12588.7 15000.9 -12588.5)
(9249.99 15025 3.20796)
(5496.91 11699.2 12250.5)
(3195.45 4090.79 18743.4)
(3369.78 -5442.89 17946.8)
(5929.23 -12798.9 10276.5)
(9884.65 -15840.3 -2838.75)
(13340.7 -15560.9 -15553.2)
(15744.1 -13582 -25857.9)
(17084.5 -11091.6 -32500.9)
(17611.7 -8870.8 -33771.9)
(17965.3 -7130.14 -29882.7)
(18155.6 -5278.32 -27922.3)
(-17986.7 -5611.09 -28961.1)
(-17710.2 -7473.89 -27219.8)
(-17175.1 -9367.99 -25574.9)
(-16231.3 -11590.6 -19628.7)
(-14475.9 -13822.6 -9696.15)
(-11726.5 -15389.5 2907.78)
(-8013.21 -15164.9 16862.7)
(-3956.63 -11662.7 29927.2)
(-1337.66 -4217.8 36783.8)
)
;
    }
    inside
    {
        type            calculated;
        value           nonuniform List<vector> 
540
(
(7330 275.068 -2522.66)
(11300.7 2195.76 -2738.7)
(18108.2 6881.79 -2089.64)
(23988.8 14233.4 -459.262)
(26997.5 23171.7 1853.35)
(26111.6 31747.8 4101.9)
(21237.8 36979.9 5159.38)
(14360.8 37465.4 4631.36)
(8265.53 37130.9 4370.85)
(-8491.07 40764.6 6201.21)
(-15425.1 42661.9 6882.33)
(-22766.6 41362.3 7021.37)
(-28236.1 35761.7 5733.46)
(-30507.9 27532.3 3548.3)
(-29785 19016.9 1319.17)
(-26978 11644.7 -404.79)
(-23377.9 5976.84 -1378.67)
(-22391.5 2137.3 -1348.83)
(-23125.1 -1491.95 -1133.9)
(-25281.8 -5800.04 -768.983)
(-29820.2 -12295.8 494.223)
(-32768.8 -20507.2 2207.64)
(-32784.7 -29362.3 3991.08)
(-29238.8 -37034 5297.47)
(-22254.5 -40704.4 5419.9)
(-13935 -39134.9 4286.58)
(-7137.18 -36983.6 3613)
(6560.09 -38373.1 3238.92)
(12453.4 -37499.9 2962.97)
(18177.6 -34797.3 2624.71)
(21669 -28506.4 1481.58)
(21746.8 -20189.9 -102.381)
(18636.5 -12095.4 -1529.55)
(13425.3 -5756.15 -2420.9)
(7959.26 -1928.8 -2698.06)
(5923.82 -581.553 -2488.05)
(16093.2 429.75 1446.11)
(16002.9 3132.73 987.7)
(16599 6135.09 447.727)
(16562.2 9219.53 3.79022)
(14973.6 11486.6 -448.911)
(11956.2 11962.9 -1183.35)
(8055.36 9378.1 -2687.95)
(5304.36 5632.93 -4454.53)
(4266.18 2806.52 -5522.1)
(-4666.36 4269.72 -5436.55)
(-5931.69 8318.86 -4213.04)
(-8932.83 12452.9 -2504.01)
(-12483 14131.8 -1531.04)
(-15525.7 13521.8 -1139.91)
(-17602.4 11466.6 -905.931)
(-18781.4 8711.61 -533.316)
(-19823.8 5788.03 109.463)
(-22347.8 2789.89 948.038)
(-22839 -989.974 1210.27)
(-20578 -4374.57 858.427)
(-19813.2 -7785.86 636.451)
(-18915.5 -11282 560.307)
(-16837 -14182 503.481)
(-13390.7 -15448.3 224.223)
(-8881 -13474 -680.321)
(-5316.56 -9761.65 -1874.39)
(-3349.74 -5589.75 -2802.17)
(2634.55 -4197.58 -4338.6)
(3468.69 -5624.3 -3975.13)
(5496.14 -8302.77 -3067.07)
(7673.97 -9127.94 -2451.99)
(9232.13 -8375.18 -1948.79)
(10002.5 -6831.09 -1308.67)
(10354.4 -5130.64 -466.232)
(11306.4 -3628.06 473.112)
(14207 -2073.14 1266.85)
(8298.91 -248.742 2428.47)
(8751.05 1171.77 1908.32)
(10687.2 3308.28 1054.53)
(12191.7 5968.27 260.705)
(12750 8837.63 -304.344)
(12113 11409.3 -721.174)
(10186.2 12614.1 -1428.11)
(8008.17 12804.6 -2575.45)
(6253.39 12424.6 -3698.63)
(-4593.31 11536.8 -5354.49)
(-6365.73 12233.1 -4549.58)
(-8934.88 13519.1 -3266.08)
(-11222.5 12884.3 -2721.56)
(-12379.1 10643.6 -2571.92)
(-12364.4 7911.58 -2223.09)
(-11687 5422.87 -1414.17)
(-11284.3 3461.58 -262.519)
(-13358.7 2021.99 811.665)
(-14308 -121.948 1241.23)
(-13407.8 -2297.87 1059.51)
(-14218.2 -5028.32 682.025)
(-15205.7 -8513.12 382.124)
(-15279.7 -12373.7 263.241)
(-13957.8 -15839.6 203.803)
(-11183.5 -17609.6 -164.535)
(-8079.71 -17848.9 -1029.22)
(-5299.71 -16241.7 -2295.97)
(2407.85 -12188.3 -5305.94)
(3918.53 -10410.5 -4957.49)
(5763.53 -10308.7 -3896.84)
(6884.7 -8684 -3190.86)
(6528.07 -5924.41 -2473.49)
(5178.36 -3496.99 -1354.12)
(3980.03 -2108.91 83.7369)
(3889.92 -1529.91 1455.63)
(6497.1 -1329.74 2291.52)
(1218.5 -559.551 4709.68)
(2601.18 -119.907 4039.9)
(6255.67 1548.06 2770.33)
(9414.44 4188.38 1567.8)
(11607.9 7559.85 613.864)
(12457.3 11199.8 -129.95)
(11673.4 13996.7 -991.1)
(9641.87 14627.1 -2514.68)
(7920.83 15425.4 -4235.58)
(-3750.73 11772.2 -7955.6)
(-5722.51 10451.7 -6908.14)
(-8154.6 12042.3 -4896.15)
(-9693.78 10889 -3913.68)
(-9459.64 7870.89 -3316.05)
(-7746.98 4758.18 -2368.01)
(-5429.66 2504.96 -853.245)
(-3560.99 1300.39 939.285)
(-4868.96 1160.33 2249.48)
(-6293 487.857 2771.44)
(-7328.52 -728.553 2580.78)
(-10049.5 -3136.76 1882.27)
(-12598.2 -6696.25 1128.23)
(-14110.7 -11045.9 524.666)
(-14144.5 -15550.1 63.1798)
(-12531.5 -19095 -501.93)
(-9576.85 -20007 -1643.69)
(-7003.08 -20934.4 -3488.18)
(1291.56 -14034 -8158.35)
(3063.84 -9422.26 -7512.13)
(5083.72 -9848.54 -5351.77)
(5914.25 -7976.69 -3742.99)
(4551.94 -4357.47 -2169.31)
(1716.97 -1238.12 -172.903)
(-951.594 215.451 2012.1)
(-2379.33 334.293 3867.23)
(-484.998 -466.322 4686.46)
(-3302.01 -605.423 7840.12)
(-951.537 -622.058 6804.64)
(3854.33 903.059 4930.7)
(8520.8 3921.65 3091.95)
(12046.3 8096.39 1535.68)
(13926.5 12899.9 245.124)
(13871.9 17288.7 -946.374)
(11808 19082.6 -2558.48)
(9683.76 21158.4 -4677.09)
(-2551.6 14923.1 -10400.3)
(-5349.77 11144.5 -9249.06)
(-8117.4 12801.6 -6445.96)
(-9444.17 11121.8 -4812.82)
(-8363.25 7248.15 -3511.51)
(-5428.24 3484.77 -1759.23)
(-1765.4 1003 591.644)
(1173.01 119.398 3104.77)
(593.734 698.81 4698.68)
(-1461.67 913.243 5158.91)
(-4247.99 77.5872 4653.23)
(-8444.59 -2447.09 3413.54)
(-12191.4 -6461.25 2033.91)
(-14634 -11495.8 777.137)
(-15451.6 -17003.9 -295.893)
(-14487.9 -22114.4 -1287.85)
(-11513.5 -24464.1 -2534.97)
(-8573.45 -27060.4 -4846.95)
(-199.71 -18893.7 -10885.9)
(2470.04 -11835.8 -10360.1)
(5062.9 -11848.6 -7166.36)
(6061.07 -9506.55 -4428.29)
(4412.32 -5132.43 -1773.8)
(760.483 -1086.21 1286)
(-3160.12 1083.72 4431.17)
(-5768.23 1325.64 6972.41)
(-4885.01 147.796 7954.88)
(-4511.61 -517.198 10801.6)
(-1744.88 -467.723 9380.68)
(3459.64 1201.08 6845.26)
(8868.19 4617.1 4215.97)
(13118.1 9435.66 1898.42)
(15553.3 15091.1 -50.6258)
(15866.2 20608.2 -1674.33)
(13772 23738.5 -3301.71)
(10890.9 25983.3 -5602.67)
(-1071.4 19149.2 -12860)
(-5099.41 14317.7 -11944.4)
(-8438.71 14976 -8423.75)
(-9891.2 12625.1 -6010.22)
(-8520.1 8067.87 -3903.83)
(-5006.02 3729.12 -1291.35)
(-650.763 901.939 1915.33)
(2760.42 27.0905 5118.95)
(2568.99 793.824 6992.57)
(42.0469 1243.82 7290.89)
(-3756.68 295.745 6343.4)
(-8698.49 -2557.85 4502.7)
(-13051.8 -7043.29 2454.37)
(-15903.8 -12620.8 533.867)
(-17028.7 -18804.6 -1164.57)
(-16298.4 -24893.7 -2655.46)
(-13385 -28940.9 -4085.29)
(-9505.6 -31033.7 -6444.74)
(-2007.86 -24999.3 -13531.4)
(1991.04 -17900.2 -13993.5)
(5301.53 -15404.6 -10033)
(6684.87 -12095.1 -5985.15)
(5374.81 -7293.99 -2194.5)
(1719.52 -2560.93 1929.07)
(-2677.62 430.165 6114.42)
(-5882.9 1197.12 9495.2)
(-5844.73 259.294 10910.6)
(-3231.54 -373.977 12539.8)
(-564.289 93.3209 10994.4)
(4507.95 2075.71 7959.53)
(9994.34 5796.85 4626.43)
(14445 10980.2 1593.06)
(17124.6 17126.7 -981.137)
(17623.9 23350.9 -3052.24)
(15557.6 27682.2 -4797.15)
(11803.3 29574.6 -7043.91)
(915.801 24047.7 -15543.8)
(-4570.17 18769.4 -15409.6)
(-8654.25 17312.5 -11163.7)
(-10644.1 14679.8 -7829.28)
(-9491.03 9716.72 -4933.11)
(-5863.83 4876.78 -1561.44)
(-1267.69 1666.19 2355.94)
(2304.32 591.797 6099.74)
(2326.53 1196.72 8213.69)
(-377.515 1463.18 8419.76)
(-4633.55 179.124 7144.19)
(-9943.86 -3031.57 4807.87)
(-14574 -7874.67 2194.12)
(-17536.8 -13774.9 -267.523)
(-18717.3 -20315.6 -2489.33)
(-18016.7 -26936 -4459)
(-15171.5 -32301.8 -6268.1)
(-10397.7 -34112.4 -8424.4)
(-4351.65 -31909.3 -16735.6)
(932.702 -24322 -18252.1)
(4865.49 -17879.4 -13871.2)
(7138.97 -14474.9 -8649.63)
(6730.76 -9832.87 -3805.69)
(3629.57 -4751.98 1234.92)
(-653.413 -1082.85 6306.48)
(-3924.47 322.195 10437.2)
(-4321.75 -33.6533 12406.8)
(-1307.04 -125.347 12888.8)
(1187.39 789.312 11472.2)
(6099.44 3082.28 8125.68)
(11381.3 6968.72 4305.37)
(15726.7 12226.2 742.324)
(18489.5 18518.7 -2358.72)
(19168.3 25155.9 -4910.24)
(17285.2 30581.3 -7005.58)
(12884.7 32859.8 -9249.42)
(3457.13 29422.8 -18868.8)
(-3519.85 22753 -19586.1)
(-8387.66 18455.1 -14650.4)
(-11345 16499.3 -10393.2)
(-10900.1 11620.3 -6764.83)
(-7465.96 6342.68 -2771.53)
(-2775.5 2659.35 1664.57)
(1102.43 1170.3 5833.82)
(1481.4 1443.89 8223.09)
(-1083.7 1438.82 8553.89)
(-5589.36 -82.4884 7156.45)
(-11301.4 -3491.69 4450.92)
(-16137.1 -8475.12 1427.99)
(-19105.9 -14424.7 -1410.51)
(-20280.5 -21023.2 -4046.75)
(-19608.7 -27872.5 -6494.19)
(-16913.7 -34170.6 -8883.15)
(-11676.8 -36844.8 -11111.3)
(-7083.15 -37717.2 -20902.1)
(-646.305 -29615.8 -22782.1)
(3822.38 -19175 -18501.6)
(7231.06 -16076.5 -12455.4)
(8014.59 -11981 -6579.73)
(5720.54 -6820.85 -697.252)
(1701.19 -2594.47 5115.08)
(-1619.1 -542.28 9866.06)
(-2294.38 -282.38 12385.2)
(-483.136 398.53 12662.1)
(2178.18 1474.14 11323.3)
(7438.04 3915.88 7582.37)
(12556.8 7791.92 3452.92)
(16708 12888 -444.854)
(19461.9 19034.6 -3968.91)
(20293.3 25769.1 -7044.17)
(18665.8 31957.3 -9737.1)
(13841.6 35022.2 -12241)
(6060.59 33290.1 -22776.5)
(-2233.84 25735.1 -24257.5)
(-8079.67 19237.5 -19171.2)
(-12124.2 18043.3 -13902.9)
(-12641.9 13517.7 -9487.41)
(-9543.5 7799.68 -4906.01)
(-4714.06 3488.29 -48.634)
(17.9735 1264.62 4638.13)
(1327.49 1099.41 7522.36)
(-574.144 983.242 8346.28)
(-5457.75 -423.326 6937.88)
(-12069.4 -3767.45 3798.07)
(-17191.3 -8630.18 498.323)
(-20185.6 -14364.8 -2572.97)
(-21379.2 -20744.9 -5538.26)
(-20797.9 -27528.3 -8476.95)
(-18297.2 -34211.3 -11540)
(-13220.8 -38475.8 -14454.3)
(-9572.37 -39100.5 -24996)
(-2324.66 -33474.7 -27174.4)
(3251.22 -22334 -24828.8)
(7474.65 -17542.2 -17960.9)
(9071.16 -13298.2 -10475.8)
(7622.75 -8273.6 -3548.33)
(3806.62 -3595.63 3082.7)
(-70.2557 -794.514 8615.22)
(-1503.63 36.1732 11863.2)
(-2105.31 1348.46 13094.3)
(1078.92 2116.44 11625.7)
(7993.67 4481.92 6706.43)
(13180 8180.32 2289.96)
(17187 12971.4 -1852.79)
(19815.7 18736.5 -5718.19)
(20648.8 25172 -9307.41)
(19158.7 31427.5 -12680.1)
(14180.7 35121 -15804.4)
(8095.86 32994.7 -26602.5)
(-890.264 26965.7 -29271)
(-8129.71 20537.1 -25316.9)
(-13153.8 19302 -18698)
(-14692.4 15292.7 -13293.4)
(-11959 9145.71 -7978.52)
(-6792.15 4040.66 -2560.42)
(77.5534 523.071 3334.34)
(3227.81 -101.905 7085.67)
(2793.83 -54.7748 8928.14)
(-2564.86 -848.884 7630.09)
(-11661.8 -3874.78 3270.87)
(-17268 -8411.69 -282.077)
(-20392.4 -13761.4 -3521.6)
(-21598.8 -19677.1 -6739.44)
(-21092.9 -26018.2 -10128.5)
(-18775.7 -32435.5 -13821.7)
(-14284.6 -37755.5 -17782.7)
(-11456.3 -36767.2 -28672.2)
(-4053.58 -36618.5 -31965.3)
(2779.31 -25964 -31583.1)
(6787.34 -16422.5 -23813.1)
(9259.07 -12658.7 -14988)
(8807.93 -8506.1 -6839.94)
(5207.27 -3781.24 857.195)
(-507.895 74.7579 8122.21)
(-2741.51 1109.6 11874.6)
(-14154.9 3575.13 21087.5)
(271.835 2795.87 11166.8)
(8821.51 5042.01 4824.74)
(13766 8518.96 344.37)
(17345.4 12921.8 -3900.39)
(19486.9 18066.6 -7971.82)
(19985.9 23736.2 -11966.4)
(18409.1 29291.5 -15968.4)
(13441 32945.6 -20068.1)
(9340.28 29777 -30359.7)
(281.61 27406.3 -34897.1)
(-8324.5 21347 -32463.5)
(-13879.7 19041.3 -24464)
(-16726.8 16573.5 -18449.3)
(-14762.4 10534 -12417)
(-9131.03 4571.24 -6060.1)
(-277.965 -166.969 1441.2)
(15297.7 -4044.36 12872)
(17054.4 -2589.53 16172.5)
(917.649 -1459.91 8528.22)
(-11866 -4191.92 1854.44)
(-17171.2 -8391.2 -1502.97)
(-20013 -13298.2 -4694.02)
(-20848.4 -18505.1 -7947.82)
(-20149.5 -23943.8 -11581.3)
(-17922.4 -29441.1 -15704.1)
(-14068.7 -34519.8 -20393)
(-12657 -32766.4 -32479.1)
(-5767.79 -35622.7 -35663.5)
(2082.13 -27898.4 -36995.9)
(6436.14 -15171.8 -30544.5)
(9362.53 -10784.5 -20769.4)
(9749.64 -7756.3 -11202.2)
(6928.54 -3819.51 -2533.94)
(-1971.55 1531.45 8377.1)
(-14839 5063.5 20302.9)
(-10570.6 3954.12 18397)
(1769.81 3510.04 8631.61)
(9349.97 5752.03 2250.06)
(14101.3 9147.27 -2810.33)
(16960.9 13113.1 -7344.14)
(18222.2 17385 -11615.7)
(17940.9 21761.5 -15829)
(15884.9 25763.8 -20147.8)
(10727 28158.4 -24971.3)
(9155.35 24440.1 -33403.5)
(729.255 24583.9 -38843.6)
(-8422.72 20628.7 -38768.1)
(-14758 18446.8 -31976.7)
(-18573.6 17251 -25817.7)
(-17857.1 11984.9 -19298.7)
(-11983.2 5284.61 -11434.1)
(-2662.11 -30.8302 -2469.77)
(12269.6 -4195.74 10445.7)
(14285.7 -3077.64 14291)
(117.044 -2068.59 6883.32)
(-11856.3 -4743.33 4.58759)
(-16933.4 -8946 -3642.01)
(-19044.2 -13459.6 -6855.3)
(-19097.6 -17797.3 -10039.9)
(-17868.2 -21950.5 -13627.7)
(-15625.1 -26001.8 -17821.2)
(-12451.9 -29865.5 -22600.4)
(-12697.9 -27040.4 -36499.5)
(-6899.23 -29622.6 -37059.5)
(1105.66 -27283.9 -39609.6)
(7734.7 -18509.4 -38342.3)
(10780.6 -10431 -29274.8)
(11012.9 -6523.22 -18072.6)
(8851.91 -3373.4 -8216.98)
(601.637 1651.03 4440.25)
(-10746 5015.61 17296.3)
(10121.6 2040.67 -2620.67)
(11743.4 4721.06 -3620.76)
(15471.7 7936.78 -8692.66)
(16842.7 11207.8 -12508.7)
(17087.9 14233.6 -16218.9)
(16422.1 17045.5 -19955.7)
(14724 19579.5 -23658.9)
(11754.4 21517.8 -27342.9)
(6082.97 21864.6 -31367.3)
(7497.23 18828.2 -36126.4)
(354.856 18964.9 -40397.7)
(-7765.23 18788.9 -43452.5)
(-14826.2 18050.7 -41143)
(-19503.4 16919 -36537.4)
(-21625.2 13797.9 -32064.7)
(-19465.2 8657.93 -25688.2)
(-13110.9 3576.27 -16689.7)
(-7155.61 969.322 -7945.03)
(-5122.87 -408.558 -1888.06)
(-10701.2 -2505.24 -3345.13)
(-18079.5 -6560.45 -8777.53)
(-19940.8 -11055.1 -11646.9)
(-19121.1 -14838 -13782.2)
(-17158.8 -17848.1 -15999.8)
(-14697.3 -20281.8 -18621.2)
(-12032.2 -22415.7 -21833.7)
(-9506.36 -24555.8 -25584.9)
(-9724.53 -17829.4 -38288.6)
(-7362.33 -22331 -39736.3)
(-710.117 -23142.5 -41814.6)
(6672.06 -20408.6 -43346.9)
(12849.2 -15307.1 -42023.8)
(16321.3 -10830.6 -36464.2)
(16691.4 -7150.22 -27786.3)
(13321.6 -3166.71 -15529.3)
(10212 -311.077 -5872.55)
(20848.5 3475.45 -30342.6)
(17923.3 7602.48 -30059.4)
(16398 9739.89 -31611.5)
(15160.8 11266.1 -33789.8)
(13443.6 12450.2 -35435.1)
(11190.3 13387 -36414.6)
(8528.13 14135.7 -37103.1)
(5401.73 14588.6 -37738.6)
(1118.08 13452.6 -37672.1)
(4995.15 13098.9 -38744.8)
(163.111 12856.7 -41492.3)
(-5151.93 13585.3 -45551.3)
(-10784.1 13537.1 -46878.4)
(-15750.5 12385.9 -45766.4)
(-20267 10372.7 -45613.6)
(-22887.7 6290.08 -44310.9)
(-22433.2 1743.69 -41270.5)
(-18761.2 1600.37 -34987)
(-19987.4 2052.43 -24969.5)
(-23916.9 -6579.02 -27452.7)
(-24147.6 -11226.6 -31894.8)
(-21441 -13577.9 -32773.2)
(-17583.3 -15083.4 -31957.9)
(-13613.3 -16073.3 -30832.4)
(-10043.2 -16693.5 -30132.7)
(-7151.76 -17193.4 -30192.3)
(-5702.98 -18129.4 -31094.1)
(-2462.98 -7574.65 -36568.3)
(-5585.08 -10442.2 -39933)
(-2450.91 -11855 -41418.2)
(1976.04 -12639.3 -44299.6)
(7604.36 -13260.6 -49997.6)
(13421.6 -12050.7 -53463)
(17377.7 -8782.71 -52281.4)
(19390.8 -6035.59 -47693.2)
(21235.4 -4467.68 -35398.5)
(14835.8 22.068 -52434.4)
(12155.6 1540 -58778.1)
(9566.29 4111.77 -65435.1)
(7127.74 6046.64 -70341.8)
(4954.2 7020.83 -72246.8)
(3240.61 7473.17 -71496.8)
(1952.92 7826.63 -69144.3)
(969.419 8026.52 -65930.1)
(2456.43 6880.97 -61282.5)
(5923.62 10802.9 -59898)
(3352.68 9117.09 -59542.8)
(309.296 8525.16 -59688.5)
(-3295.14 8567.26 -62006.3)
(-7011.77 7024.61 -57097.2)
(-10242.2 4867.49 -51674.5)
(-13976.6 3374.98 -53113.7)
(-16450.2 955.079 -50839.2)
(-18546.7 -263.089 -49614.2)
(-18250 337.208 -49367.3)
(-16194 -1258.68 -54685.7)
(-15077.4 -5104.25 -62951.4)
(-13921.7 -8078.81 -69466.9)
(-11874.4 -9293.61 -71201.8)
(-9516.45 -9544.77 -69311)
(-7508.24 -9811.12 -66027.5)
(-6217.96 -10734.1 -62772.8)
(-7039.35 -13554.4 -60656.1)
(-2159.7 -3340.65 -53712.8)
(-6475.61 -367.728 -53401.9)
(-5274.08 -344.558 -51579.9)
(-2250.01 -17.4424 -47914.3)
(690.716 -125.361 -49338.9)
(4314.48 98.7216 -52470.1)
(8596.34 1260.41 -53318.2)
(12760.3 2468.06 -49933.6)
(15713.2 1415.99 -49187.8)
)
;
    }
    outside
    {
        type            calculated;
        value           nonuniform List<vector> 
540
(
(26655.6 1892.66 1806.08)
(25521.6 5684.92 4296.97)
(21117.3 7776.1 7426.86)
(14800.9 6857.62 9817.59)
(7851.83 2154.38 10388.9)
(932.545 -7482.51 7987.85)
(-4552.8 -23166.6 1305.69)
(-6269.53 -45995.6 -11563.1)
(2194.46 -65423.4 -26498.5)
(-1956.98 -67981.9 -26378)
(7881.77 -50075 -12364.7)
(8431.27 -29357.9 -983.762)
(4499.15 -13518.1 5675.04)
(-1434.25 -3041.49 8644.39)
(-7943.56 2840.65 8999.6)
(-14549.2 5194.71 7755.11)
(-20211.6 4565.98 5874.82)
(-24052 1910.8 4666.4)
(-24298.9 -1619.18 4790.82)
(-20817 -4479.28 6158.35)
(-15192.8 -5350.26 7941.59)
(-9046.38 -3606.46 9021.76)
(-3456.54 814.543 8831.72)
(1478.19 8653.75 6929.98)
(5248.78 21253.2 2653.11)
(6655.2 41450.7 -5941.64)
(-703.499 60724.4 -17187.3)
(1653.46 67445 -21724.8)
(-8458.73 52747 -11946.9)
(-10502.8 33443.1 -2898.78)
(-7536.89 17275.9 2857.53)
(-1792.57 5677.57 5371.83)
(5178.55 -1429.9 5308.05)
(12670.5 -4716.54 3696.76)
(19532.9 -4601.44 1755.9)
(24392 -1965.83 897.492)
(9595.75 858.445 -1569.31)
(11087 2862.46 -34.3998)
(10680.5 4420.22 2363.62)
(9414.87 4912.7 5037.57)
(8265.63 4471.1 7495.01)
(7115.13 2961.08 9245.87)
(5896.98 -43.4971 9792.31)
(4147.29 -7173.9 7441.91)
(5960.99 -14206.5 2493.09)
(-5795.3 -14854.8 2862.82)
(-4152.42 -5577.97 8886.81)
(-5458.74 582.136 10734.8)
(-6813.54 3446.32 10280.1)
(-8115.7 4691.56 8707.5)
(-9391.44 4892.68 6487.89)
(-10987.4 4416.47 4104.39)
(-12169.7 3048.05 2044.87)
(-12600.5 1166.1 949.569)
(-12757.6 -815.825 1028.11)
(-13037.5 -2883.55 2210.49)
(-11818.5 -4507.12 4043.6)
(-9997.49 -5295.43 5890.37)
(-8455.73 -5476.44 7424.49)
(-7026.84 -4888.12 8523.05)
(-5573.57 -3029.79 9121.92)
(-3258.93 3549.56 7886.68)
(-4080.41 11532.2 4427.47)
(4873.69 15784.6 1463.82)
(2785.32 8687.15 5297.38)
(2995.12 3190.05 6627.86)
(3544.89 127.092 6292.44)
(4302.14 -1733.34 4897.03)
(5291.16 -2735.03 2804.73)
(6818.6 -3028.92 556.248)
(8172.15 -2301.64 -1239.86)
(8447.38 -805.941 -1983.03)
(4213.64 837.592 -3047.28)
(6677.74 2471.64 -2163.7)
(6866.37 3868.45 -479.532)
(5764.87 4245.35 1602.69)
(4711.46 3731.86 3675.66)
(3884.46 2444.07 5441.63)
(3269.24 461.897 6719.47)
(2367.5 -3550.17 6875.09)
(3955.52 -7931.39 5344.76)
(-4908.43 -11991.5 3988.39)
(-1946.12 -7690.66 6482.41)
(-2414.87 -2605.85 7416.65)
(-3036.72 106.752 6916.69)
(-4069.64 2011.4 5680.97)
(-5247.22 2924.97 3847.32)
(-6561.47 2992.24 1835.83)
(-7084.91 2066.8 153.184)
(-6470.81 662.92 -757.28)
(-6344.4 -669.147 -824.95)
(-7642.66 -2193.73 -176.823)
(-7372.59 -3539.76 950.294)
(-6001.65 -4114.93 2186.6)
(-4730.08 -4095.18 3305.72)
(-3694.2 -3548.63 4302.1)
(-2867.53 -2545.18 5317.73)
(-1557.05 522.515 6084.74)
(-1931.95 4718.54 6155.1)
(4085.4 11581.8 3165.96)
(678.506 10255 3917.53)
(13.8327 5551.07 4180.6)
(-176.16 2793.11 3674.16)
(419.018 435.162 2587.2)
(1480.17 -1146.01 894.801)
(2857.57 -1854.48 -997.525)
(3702.76 -1463.45 -2498.2)
(3173.91 -327.505 -3154.37)
(-368.88 926.031 -3340.34)
(2955.67 2153.77 -3082.52)
(3817 3438.8 -2080.3)
(3141.05 4038.38 -679.172)
(2579.75 4157.31 890.394)
(2499.4 4098.29 2706.78)
(2654.91 4034.85 4885.14)
(2453.65 3400.86 7320.82)
(3124.13 1857.3 8973.17)
(-5240.88 -2716.6 8125.15)
(-1970.95 -3970.92 7473.77)
(-2322.61 -224.796 6611.89)
(-1817.93 97.2739 5158.39)
(-1813.78 923.259 3789.48)
(-2124.74 1484.37 2266.08)
(-2640.49 1603.52 688.735)
(-2456.02 1001.84 -625.05)
(-1060.53 14.7637 -1384.51)
(-959.917 -791.283 -1657.49)
(-3153.71 -1887.14 -1621.99)
(-3986.13 -3125.45 -1224.8)
(-3484.88 -3918.7 -599.688)
(-2872.05 -4418.12 139.922)
(-2454.93 -4846.62 1119.94)
(-2139.69 -5417.51 2582.56)
(-1434.62 -5713.96 4741.26)
(-885.1 -5026.21 7456.63)
(4216.61 1929.45 6002.49)
(748.446 6513.43 5229.28)
(-113.416 2695.13 3660.56)
(-1402.15 2320.72 2302.82)
(-1787.02 1189.19 1204.34)
(-1403.6 31.9054 -61.2468)
(-590.766 -681.826 -1487.36)
(-309.514 -540.942 -2668.2)
(-1372.23 232.644 -3201.89)
(-4405.52 1125.72 -3428.72)
(-720.113 1959.01 -3804.09)
(968.085 3142.48 -3466.08)
(963.291 4003.57 -2643.05)
(880.557 4623.67 -1482.35)
(1212.65 5209.35 302.018)
(1698.09 5828.65 2918.75)
(2009.48 6629.4 6298.89)
(2456.22 6486.47 9465.28)
(-5298.69 1149.94 9378.36)
(-1807.85 -2625.64 8239.25)
(-2079.85 1570.93 5939.29)
(-852.127 295.053 3749.62)
(17.2427 195.703 2161.41)
(650.198 284.681 849.278)
(1078.95 295.286 -340.769)
(2041.33 -112.407 -1310.18)
(3770.65 -726.11 -1904.58)
(3581.71 -1104.8 -2397.28)
(756.106 -1838.29 -2971.96)
(-1072.9 -2970.77 -3216.77)
(-1402.34 -3926.29 -3062.44)
(-1297.57 -4715.98 -2595.13)
(-1210.64 -5548.06 -1685.33)
(-1112.4 -6625.71 -113.912)
(-812.525 -8257.41 2339.57)
(-61.9403 -9204.13 5964.27)
(3776.78 -2215.97 6157.87)
(1035.89 3903.82 6415.71)
(-374.529 733.534 3326.91)
(-2242.27 1522.5 1253.8)
(-3473.8 1449.88 28.6904)
(-3894.46 860.656 -910.903)
(-3813.86 324.753 -1875.01)
(-4226.81 367.162 -2677.42)
(-5469.29 813.3 -3053.73)
(-7358.37 1346.79 -3562.76)
(-3737.98 1889 -4452.07)
(-1391.51 2953.79 -4686.62)
(-697.518 3979.7 -4285.07)
(-317.762 4914.5 -3381.83)
(294.01 5839.39 -1640.55)
(947.502 6707.44 1164.78)
(1495.71 7837.63 4837.13)
(1979.11 7822.01 8600.14)
(-4922.02 2476.05 9149.51)
(-2280.69 317.242 8982.24)
(-1974.09 3311.01 5428.43)
(-517.535 1155.07 2748.45)
(977.647 101.354 915.394)
(2422.42 -394.085 -343.419)
(3784.62 -681.027 -1276.62)
(5451.47 -1065.54 -1955.13)
(7135.87 -1395.5 -2422.02)
(6588.64 -1465.32 -3120.73)
(3535.28 -1919.23 -4170.04)
(1065.87 -2922.09 -4889.58)
(80.638 -3950.49 -5041.38)
(-219.669 -4887.56 -4740.46)
(-351.908 -5888.03 -3934.57)
(-376.419 -7123.75 -2458.81)
(-216.271 -8941.39 -165.103)
(503.43 -10379.1 3472.27)
(2779.37 -5146.88 4909.89)
(1926.16 -991.786 6657.55)
(-578.733 -474.281 3315.44)
(-2395.36 133.894 545.486)
(-4225.14 1006.69 -881.86)
(-5416.56 1087.19 -1691.09)
(-6201.35 945.358 -2294.13)
(-7312.94 1057.07 -2714.65)
(-8511.76 1276.97 -2962.14)
(-9124.17 1475.89 -3786.86)
(-5775.16 1842.36 -4997.69)
(-3127.72 2769.83 -5599.79)
(-1936.95 3825.19 -5452.43)
(-1194.38 4899.73 -4710)
(-374.141 6008.37 -3064.62)
(405.761 7054.01 -283.56)
(1052.13 8291.96 3373.6)
(1602.69 8413.86 7400.6)
(-4438.48 4256.06 8576.24)
(-3038.75 4388.58 9137.16)
(-1843.41 4572.37 5007.32)
(-568.411 2412.22 1978.36)
(1310.99 410.994 65.1137)
(3230.03 -635.979 -1187.15)
(5248.31 -1282.53 -1961.34)
(7352.81 -1726.78 -2434.55)
(8839.05 -1859.8 -2861.79)
(8085.27 -1727.26 -3734.33)
(5178.23 -1969.94 -5039.18)
(2495.24 -2804.14 -6014.65)
(1106.82 -3804.3 -6343.61)
(512.033 -4783.15 -6175.72)
(210.019 -5848.46 -5546.08)
(75.1159 -7178.73 -4350.85)
(173.694 -9046.19 -2479)
(804.682 -11189.5 587.23)
(1667.71 -8777.78 2851.88)
(2706.75 -5659.89 5744.3)
(-660.916 -833.313 3891.64)
(-2110.17 -1438.11 191.724)
(-4227.65 126.077 -1436.13)
(-5927.73 806.03 -2270.6)
(-7451.29 1134.92 -2663.71)
(-9134.22 1417.43 -2800.76)
(-10294.4 1529.43 -2989.01)
(-9954.06 1458.46 -3902.09)
(-6995.36 1720.19 -5221.78)
(-4341.93 2504.9 -5976.12)
(-2855.1 3516.9 -5983.19)
(-1848.35 4642.69 -5397.34)
(-864.591 5878.91 -3949.58)
(47.3073 7174.85 -1414.33)
(818.358 8823.31 1938.92)
(1625.21 10291.7 5734.59)
(-4064.47 8001.34 7568.46)
(-3773.11 7733.75 8781.97)
(-1372.91 4420.8 5046.74)
(-939.045 4134.54 1224.56)
(1264.69 1038.97 -505.964)
(3394.9 -536.497 -1656.24)
(5782.45 -1545.97 -2246.87)
(8085.73 -2061.44 -2571.2)
(9395.63 -2063.83 -3031.1)
(8616.01 -1815.62 -4017.06)
(6036.2 -1900.11 -5361.82)
(3390.65 -2551.44 -6407.53)
(1785.11 -3465.48 -6848.74)
(993.029 -4425.82 -6839.96)
(572.776 -5493.12 -6474.29)
(355.778 -6865.62 -5707.66)
(412.776 -8779.98 -4439.25)
(895.691 -11666.9 -2341.21)
(639.134 -10874.1 771.356)
(3104.71 -8159.36 4704.92)
(110.686 -2448.4 4758.42)
(-1601.61 -2890.3 351.325)
(-3749.37 -1021.5 -1605.82)
(-5739.64 196.424 -2511.74)
(-7729.35 954.431 -2816.85)
(-9789.96 1434.43 -2799.78)
(-10995.3 1542.33 -2982.82)
(-10316.4 1313.94 -3507.35)
(-7817.93 1492.49 -4725.85)
(-5307.18 2126.47 -5522.01)
(-3638.07 3059.61 -5715.49)
(-2443.61 4175.27 -5363.83)
(-1364.95 5441.37 -4202.12)
(-378.921 6854.89 -2020.1)
(469.754 8666.4 969.784)
(1692.13 11078.2 4306.89)
(-3913.88 8825.15 6910.92)
(-3992.6 8029.2 8701.85)
(-1282.33 5011.32 5447.06)
(-1520.82 6276.41 290.242)
(969.771 2049.34 -1057.3)
(3277.8 -154.516 -1867.49)
(5902.86 -1536.25 -2089.22)
(8317.11 -2124.44 -2189.15)
(9501.37 -2038.21 -2654.62)
(8762.29 -1727.24 -3647.88)
(6535.13 -1684.73 -4853.09)
(4004.93 -2149.26 -5879.3)
(2293.93 -2934.15 -6448.81)
(1397 -3809.73 -6660.22)
(924.579 -4783.2 -6622.53)
(677.3 -6040.78 -6328.77)
(713.393 -7785.25 -5675.27)
(1149.2 -10461.7 -4372.03)
(-192.356 -10210.3 -78.5395)
(3479.85 -10301.6 3840.3)
(2015.22 -6574.12 4978.96)
(-1338.42 -3415.65 1665.85)
(-3143.52 -2244.06 -1305.57)
(-5343.46 -558.189 -2303.99)
(-7589.69 546.734 -2578.18)
(-9873.8 1214.93 -2454.41)
(-11126.6 1372.79 -2620.62)
(-10783.5 1147.51 -1978.79)
(-8648.78 1221.88 -3054.3)
(-6285.61 1680.6 -3984.47)
(-4482.64 2480.76 -4514.67)
(-3144.04 3505.28 -4507.83)
(-2005.25 4691.3 -3688.72)
(-986.681 6045.83 -1875.22)
(-95.3428 7712.02 814.189)
(1468.94 9833.49 3985.08)
(-4163.1 6700.77 8253.01)
(-4085.27 8017.46 9823.15)
(-2394.32 9107.08 5051.19)
(-2182.13 8521.43 -873.486)
(435.973 3472.19 -1852.21)
(3026.17 459.099 -1961.17)
(5837.7 -1319.48 -1520.51)
(8397.96 -2031.6 -1108.7)
(9696.49 -1934.15 -1251.04)
(8998.58 -1547.71 -2097.73)
(7003.35 -1376.29 -3140.08)
(4563.61 -1643.56 -4241.69)
(2826.74 -2244.14 -5051.74)
(1911.07 -2947.61 -5558.38)
(1431.15 -3723.55 -5884.06)
(1165.91 -4736.61 -6068.2)
(1144.42 -6206.09 -6065.66)
(1520.94 -8456.29 -5576.64)
(-812.57 -8820.96 276.347)
(4010.1 -11331.3 4023.4)
(3817.29 -9290.42 5989.24)
(-818.756 -3899.46 4329.43)
(-2597 -3435.12 -276.328)
(-5002.34 -1398.86 -1567.38)
(-7452.96 43.6838 -1783.39)
(-9954.52 947.796 -1388.13)
(-11369.7 1205.24 -1295.67)
(-10930.2 1031.24 828.125)
(-9484.12 1029.02 22.1424)
(-7289.16 1244.08 -1263.74)
(-5463.07 1797.42 -2232.83)
(-4009.24 2624.72 -2642.95)
(-2764.49 3683.48 -2243.5)
(-1643.63 4997.36 -905.865)
(-601.486 6698.48 1268.08)
(1374.28 8753.02 3943.47)
(-4987.01 7212.13 11815.9)
(-5170.51 10750.9 13510.4)
(-3517.56 12452.2 6005.69)
(-2065.64 8975.11 -851.962)
(-560.618 5309.7 -2948.97)
(2483.34 1215.54 -1806.95)
(5316.73 -936.366 -472.583)
(8081.16 -1903.54 902.099)
(9365.79 -1818.37 1306.68)
(8845.09 -1391.43 795.573)
(7422.16 -1131.82 14.6019)
(5131.48 -1158.55 -1400.02)
(3488.88 -1488.88 -2575.42)
(2625.2 -1923.57 -3413.16)
(2147.19 -2416.46 -4090.73)
(1840.01 -3098.75 -4713.57)
(1707.55 -4187.92 -5325.6)
(1910.99 -5920.65 -5669.08)
(-1545.98 -6690.61 1898.81)
(4385.3 -9759.77 6808.78)
(5932.32 -11146.7 9321.02)
(1678.15 -7203.82 7450.47)
(-2657.68 -3783.77 3013.37)
(-4722.29 -2288.55 -3.88838)
(-7364.42 -446.5 -81.5067)
(-10032.7 757.566 858.252)
(-11281.8 1073.9 1195.95)
(-10216.2 955.579 4844.56)
(-9142.26 831.713 3830.59)
(-7601.25 820.923 2476.18)
(-6075.5 1068.17 1292.06)
(-4602.16 1652.57 490.647)
(-3221.28 2615.8 360.987)
(-1948.32 3973.04 1071.7)
(-708.942 5771.87 2556.4)
(1479.48 7146.32 4824.85)
(-7009.19 9849.98 21396.9)
(-6576.37 12014.7 24069.4)
(-3527.65 12254.6 12475.5)
(-3185.69 11015.2 -346.554)
(-3161.35 8425.85 -4733.53)
(802.206 2435.99 -1137.42)
(3484.09 -159.013 1173.34)