/*--------------------------------*- C++ -*----------------------------------*\
| =========                 |                                                 |
| \\      /  F ield         | OpenFOAM: The Open Source CFD Toolbox           |
|  \\    /   O peration     | Version:  2312                                  |
|   \\  /    A nd           | Website:  www.openfoam.com                      |
|    \\/     M anipulation  |                                                 |
\*---------------------------------------------------------------------------*/
FoamFile
{
    version     2.0;
    format      ascii;
    arch        "LSB;label=32;scalar=64";
    class       volVectorField;
    location    "0.7";
    object      traction;
}
// * * * * * * * * * * * * * * * * * * * * * * * * * * * * * * * * * * * * * //

dimensions      [1 -1 -2 0 0 0 0];

internalField   uniform (0 0 0);

boundaryField
{
    fixed
    {
        type            calculated;
        value           nonuniform List<vector> 
108
(
(-3664.9 2763.34 -22256.6)
(2092.94 -3202.67 5062.87)
(8387.34 -6705.73 26183.2)
(12829 -7973.48 40370.4)
(15141.3 -8596.43 47455.7)
(16263.4 -9267.58 49226.1)
(17010.5 -9897.26 47614.5)
(17679.4 -10285.4 44176.6)
(18271.8 -10408.8 39992.6)
(18721 -10382.4 35606)
(18980.2 -10360.9 30940)
(19030.2 -10497.2 25196)
(18828 -10949.2 16814.4)
(18132.4 -11830.8 3745.95)
(16302.1 -12981.7 -15341.6)
(12808.5 -13590.7 -37907.6)
(8777.06 -12328.1 -53993.9)
(6545.82 -8647.17 -47496.1)
(3664.9 -2763.34 -22256.6)
(-2092.94 3202.67 5062.87)
(-8387.34 6705.73 26183.2)
(-12829 7973.48 40370.4)
(-15141.3 8596.43 47455.7)
(-16263.4 9267.58 49226.1)
(-17010.5 9897.26 47614.5)
(-17679.4 10285.4 44176.6)
(-18271.8 10408.8 39992.6)
(-18721 10382.4 35606)
(-18980.2 10360.9 30940)
(-19030.2 10497.2 25196)
(-18828 10949.2 16814.4)
(-18132.4 11830.8 3745.95)
(-16302.1 12981.7 -15341.6)
(-12808.5 13590.7 -37907.6)
(-8777.06 12328.1 -53993.9)
(-6545.82 8647.17 -47496.1)
(1041.86 -4064.36 -37698.7)
(-231.637 -12940 -18675.3)
(-139.934 -17216 2464.28)
(472.944 -18315.8 19994.7)
(855.443 -18365.2 32332.1)
(1059.62 -18425.9 40181.5)
(1330.78 -18658.1 44413.5)
(1740.36 -18926.3 45645.7)
(2212.38 -19120.1 44321.1)
(2624.11 -19240 40677.2)
(2876.53 -19395.9 34704.5)
(2930.34 -19750 26129.7)
(2763.34 -20378.3 14407.2)
(2206.1 -21062.4 -1094.06)
(824.457 -21130.8 -20163.3)
(-1582.09 -19544.2 -39828)
(-3631.94 -15147.8 -52988.3)
(-2971.35 -6899.6 -50603.3)
(-1041.86 4064.36 -37698.7)
(231.637 12940 -18675.3)
(139.934 17216 2464.28)
(-472.944 18315.8 19994.7)
(-855.443 18365.2 32332.1)
(-1059.62 18425.9 40181.5)
(-1330.78 18658.1 44413.5)
(-1740.36 18926.3 45645.7)
(-2212.38 19120.1 44321.1)
(-2624.11 19240 40677.2)
(-2876.53 19395.9 34704.5)
(-2930.34 19750 26129.7)
(-2763.34 20378.3 14407.2)
(-2206.1 21062.4 -1094.06)
(-824.458 21130.8 -20163.3)
(1582.09 19544.2 -39828)
(3631.94 15147.8 -52988.3)
(2971.35 6899.6 -50603.3)
(-3621.55 -6214.65 -46577.9)
(-9587.6 -10465.8 -42029.3)
(-13423.5 -12894.8 -32335.6)
(-15350.3 -13703.5 -18912.7)
(-16632.2 -13471.7 -4795.39)
(-17871.9 -13036.4 7898.47)
(-18828.5 -12933.3 17731.8)
(-19103.6 -13154.5 23734)
(-18628.2 -13403.6 25403.4)
(-17690 -13485.2 22602.1)
(-16672.2 -13496.3 15443)
(-15746.5 -13662.1 4268.25)
(-14819.7 -13897.7 -10193.9)
(-13837 -13572.7 -26368.4)
(-12924.4 -11969.2 -41356.1)
(-11709.7 -8988.77 -51497.2)
(-8735.42 -4843.39 -54524.3)
(-3162.56 544.649 -51625.5)
(3621.55 6214.65 -46577.9)
(9587.6 10465.8 -42029.3)
(13423.5 12894.8 -32335.6)
(15350.3 13703.5 -18912.7)
(16632.2 13471.7 -4795.39)
(17871.9 13036.4 7898.47)
(18828.5 12933.3 17731.8)
(19103.6 13154.5 23734)
(18628.2 13403.6 25403.4)
(17690 13485.2 22602.1)
(16672.2 13496.3 15443)
(15746.5 13662.1 4268.25)
(14819.7 13897.7 -10193.9)
(13837 13572.7 -26368.4)
(12924.4 11969.2 -41356.1)
(11709.7 8988.77 -51497.2)
(8735.42 4843.39 -54524.3)
(3162.56 -544.649 -51625.5)
)
;
    }
    inside
    {
        type            calculated;
        value           nonuniform List<vector> 
540
(
(14227.6 -13349.5 27895.4)
(13082.4 -3954.13 29742.2)
(7418.68 4007.35 27670)
(-1738.89 7604.51 23125.6)
(-10530.7 6674.62 18346.2)
(-16244.4 2716.88 14215)
(-17826.9 -2158.11 10704.5)
(-15522.1 -5849 7574.93)
(-10542.3 -6696.93 4700.28)
(-4737.58 -3729.1 2171.21)
(-247.737 3162.03 332.282)
(949.69 13042.8 -190.107)
(-2307.49 23833.8 1446.47)
(-9464.07 32527.1 5851.12)
(-17623.3 36253.6 12458.8)
(-22591.2 34195.1 19040.9)
(-21988.4 28371 23315.7)
(-17728.7 21309.7 25628)
(-14227.6 13349.5 27895.4)
(-13082.4 3954.13 29742.2)
(-7418.68 -4007.35 27670)
(1738.89 -7604.51 23125.6)
(10530.7 -6674.62 18346.2)
(16244.4 -2716.88 14215)
(17826.9 2158.11 10704.5)
(15522.1 5849 7574.93)
(10542.3 6696.93 4700.28)
(4737.58 3729.1 2171.21)
(247.737 -3162.03 332.282)
(-949.691 -13042.8 -190.107)
(2307.49 -23833.8 1446.47)
(9464.07 -32527.1 5851.12)
(17623.3 -36253.6 12458.8)
(22591.2 -34195.1 19040.9)
(21988.4 -28371 23315.7)
(17728.7 -21309.7 25628)
(8516.34 -14583.6 31935.5)
(12769.3 -312.653 33715.4)
(13506.7 11271.1 30961.2)
(10035.9 19154.8 26250.1)
(3276.69 21807.2 20943.4)
(-3260.12 20155.7 16232.7)
(-7188.98 16542.3 12306)
(-7961.81 13120.3 8898.97)
(-6244.17 11337.6 5793.16)
(-3312.92 11798.7 2963.02)
(-507.571 14224.6 558.256)
(1308.33 17600.9 -1181.99)
(2079.05 20624.5 -2028.53)
(2360.17 22452.1 -1818)
(2497.31 23304.7 -319.398)
(1937.14 24176.5 3147.48)
(-1361.95 26002.9 10601.4)
(-4393.78 24944.8 21994.5)
(-8516.34 14583.6 31935.5)
(-12769.3 312.653 33715.4)
(-13506.7 -11271.1 30961.2)
(-10035.9 -19154.8 26250.1)
(-3276.69 -21807.2 20943.4)
(3260.12 -20155.7 16232.7)
(7188.98 -16542.3 12306)
(7961.81 -13120.3 8898.97)
(6244.17 -11337.6 5793.16)
(3312.92 -11798.7 2963.02)
(507.571 -14224.6 558.256)
(-1308.33 -17600.9 -1181.99)
(-2079.05 -20624.5 -2028.53)
(-2360.17 -22452.1 -1818)
(-2497.31 -23304.7 -319.398)
(-1937.14 -24176.5 3147.48)
(1361.95 -26002.9 10601.4)
(4393.78 -24944.8 21994.5)
(40250.3 6773.66 37732.5)
(28339.7 16501.7 35339.6)
(26092.4 25110.4 29716.9)
(20509.1 31123.1 23690.7)
(12210.1 32393.1 18188.4)
(4656.35 30185.5 13800)
(-83.485 26868.9 10267.6)
(-1837.82 24201.8 7131.63)
(-1431.21 23230.1 4136.05)
(-146.948 24219.2 1301.58)
(800.484 26562.3 -1134.42)
(811.714 29087.1 -2861.38)
(73.2357 30697.2 -3639.34)
(-824.573 30911.6 -3362.62)
(-1557.73 30046.9 -2048.35)
(-1899.8 28710.5 7.55681)
(-5311.79 29715.5 3954.08)
(-30308.6 31644.3 18337.1)
(-40250.3 -6773.66 37732.5)
(-28339.7 -16501.7 35339.6)
(-26092.4 -25110.4 29716.9)
(-20509.1 -31123.1 23690.7)
(-12210.1 -32393.1 18188.4)
(-4656.35 -30185.5 13800)
(83.485 -26868.9 10267.6)
(1837.82 -24201.8 7131.63)
(1431.21 -23230.1 4136.05)
(146.948 -24219.2 1301.58)
(-800.484 -26562.3 -1134.42)
(-811.714 -29087.1 -2861.38)
(-73.2357 -30697.2 -3639.34)
(824.573 -30911.6 -3362.62)
(1557.73 -30046.9 -2048.35)
(1899.8 -28710.5 7.55648)
(5311.79 -29715.5 3954.08)
(30308.6 -31644.3 18337.1)
(11683.4 22393.2 11370.9)
(20402 25927.9 18478.2)
(21763.7 30381.1 17910)
(19239.6 34468.3 15476.7)
(13337.1 35167.4 12525.3)
(7476.38 33167.8 9706.11)
(3799.03 30507.2 7034.76)
(2544.08 28642.8 4299.74)
(2947.24 28296.8 1406.54)
(3851.42 29440.1 -1494.89)
(4280.17 31268.7 -4060.36)
(3931.98 32649.1 -5937.32)
(3154.9 32814.5 -6933.86)
(2603.39 31319.1 -7074.8)
(3174.44 27499.4 -6817.75)
(6277.06 20423.3 -7480.68)
(12699.7 8898.17 -10555.8)
(7436.85 -8458.5 -6834.27)
(-11683.4 -22393.2 11370.9)
(-20402 -25927.9 18478.2)
(-21763.7 -30381.1 17910)
(-19239.6 -34468.3 15476.7)
(-13337.1 -35167.4 12525.3)
(-7476.38 -33167.8 9706.11)
(-3799.03 -30507.2 7034.76)
(-2544.08 -28642.8 4299.74)
(-2947.24 -28296.8 1406.54)
(-3851.42 -29440.1 -1494.89)
(-4280.17 -31268.7 -4060.36)
(-3931.98 -32649.1 -5937.32)
(-3154.9 -32814.5 -6933.86)
(-2603.39 -31319.1 -7074.8)
(-3174.44 -27499.4 -6817.75)
(-6277.06 -20423.3 -7480.68)
(-12699.7 -8898.17 -10555.8)
(-7436.85 8458.5 -6834.27)
(-12993.5 22829.4 -223.364)
(344.089 25112.1 6147.7)
(7635.18 28330.9 8136.08)
(9474.32 31325.6 8437.77)
(8015.99 32289.4 7980.17)
(5819.98 31241 6794.59)
(4655.54 29505 4967.61)
(4995.13 28295.9 2592.03)
(6331.85 28167 -209.166)
(7757.73 28964.7 -3150.09)
(8571.82 29999.6 -5835.33)
(8619.14 30467.9 -7949.56)
(8138.43 29911.5 -9355.48)
(7652.07 27697 -9992.11)
(8391.56 22217.8 -10105.9)
(11937 12145.8 -10579.8)
(18756.5 -2231.55 -11816.6)
(21949 -16554.3 -9344.9)
(12993.5 -22829.4 -223.364)
(-344.089 -25112.1 6147.7)
(-7635.18 -28330.9 8136.08)
(-9474.32 -31325.6 8437.77)
(-8016 -32289.4 7980.17)
(-5819.98 -31241 6794.59)
(-4655.54 -29505 4967.61)
(-4995.13 -28295.9 2592.03)
(-6331.85 -28167 -209.166)
(-7757.73 -28964.7 -3150.09)
(-8571.82 -29999.6 -5835.33)
(-8619.14 -30467.9 -7949.56)
(-8138.42 -29911.5 -9355.48)
(-7652.07 -27697 -9992.11)
(-8391.56 -22217.8 -10105.9)
(-11937 -12145.8 -10579.8)
(-18756.5 2231.55 -11816.6)
(-21949 16554.3 -9344.9)
(-24562.4 22785.6 -4216.76)
(-15043.6 23550 826.995)
(-6973.33 24968.9 3406.26)
(-2163.25 27039.6 4838.09)
(465.418 28425.8 5688.71)
(2197.71 28438.2 5577.83)
(3955.43 27547.6 4404.8)
(6231.64 26670.5 2375.1)
(8815.68 26300.4 -242.952)
(11105.5 26331.8 -3089.65)
(12650.1 26327 -5805.8)
(13333.1 25814.9 -8200.32)
(13220.2 24498.6 -10214)
(12780 21607.9 -11573.6)
(13565.2 15222.3 -12052.2)
(17512.8 4288.42 -12082)
(24476 -8680.31 -11856.2)
(28810.9 -18682.7 -9770.03)
(24562.4 -22785.6 -4216.76)
(15043.6 -23550 826.995)
(6973.33 -24968.9 3406.26)
(2163.25 -27039.6 4838.09)
(-465.418 -28425.8 5688.71)
(-2197.71 -28438.2 5577.83)
(-3955.43 -27547.6 4404.8)
(-6231.64 -26670.5 2375.1)
(-8815.68 -26300.4 -242.952)
(-11105.5 -26331.8 -3089.65)
(-12650.1 -26327 -5805.8)
(-13333.1 -25814.9 -8200.32)
(-13220.2 -24498.6 -10214)
(-12780 -21607.9 -11573.6)
(-13565.2 -15222.3 -12052.2)
(-17512.8 -4288.42 -12082)
(-24476 8680.31 -11856.2)
(-28810.9 18682.7 -9770.03)
(-34398.6 22194.6 -3737.24)
(-27067.7 21885 -184.971)
(-18767.5 22384.5 2075.59)
(-11920.4 24054.7 3554.63)
(-6385.79 25804.9 4638.59)
(-1627.58 26533.8 4959.77)
(2615.31 26112.2 4239.78)
(6630.18 25172 2595.68)
(10398.8 24218 305.22)
(13584.7 23295.3 -2280.66)
(15897.8 22166.1 -4879.44)
(17208.7 20513.5 -7420.33)
(17525.6 18059.8 -9867.64)
(17478.2 14060.8 -11704.3)
(18841 6968.33 -12281.6)
(23455.5 -3476.82 -11633.6)
(30710.2 -14009 -10046.3)
(35966.8 -20471.2 -7478.86)
(34398.6 -22194.6 -3737.24)
(27067.7 -21885 -184.971)
(18767.5 -22384.5 2075.59)
(11920.4 -24054.7 3554.63)
(6385.79 -25804.9 4638.59)
(1627.58 -26533.8 4959.77)
(-2615.31 -26112.2 4239.78)
(-6630.18 -25172 2595.68)
(-10398.8 -24218 305.22)
(-13584.7 -23295.3 -2280.66)
(-15897.8 -22166.1 -4879.44)
(-17208.7 -20513.5 -7420.33)
(-17525.6 -18059.8 -9867.64)
(-17478.2 -14060.8 -11704.3)
(-18841 -6968.33 -12281.6)
(-23455.5 3476.82 -11633.6)
(-30710.2 14009 -10046.3)
(-35966.8 20471.2 -7478.86)
(-42108.8 21407.2 -485.573)
(-35921.4 19900.4 1597.7)
(-27583.6 20015.3 2814.95)
(-19445.2 21700.2 3599.79)
(-12038.5 23666.8 4232.92)
(-5298.93 24629.3 4486.43)
(742.061 24216.8 4012.65)
(6160.23 22903.5 2745.24)
(10985.3 21225.6 858.945)
(15039.5 19359.7 -1362.2)
(18114.4 17166.3 -3703.94)
(20077.6 14371.2 -6136.65)
(21037 10685.5 -8546.07)
(21866.9 5534.82 -10253.6)
(24320.1 -1921.93 -10457.9)
(29799.2 -11147.3 -9029.61)
(37322.5 -18976.1 -6419.22)
(42744.5 -22213.5 -3345.16)
(42108.8 -21407.2 -485.573)
(35921.4 -19900.4 1597.7)
(27583.6 -20015.3 2814.95)
(19445.2 -21700.2 3599.79)
(12038.5 -23666.8 4232.92)
(5298.93 -24629.3 4486.43)
(-742.061 -24216.8 4012.65)
(-6160.23 -22903.5 2745.24)
(-10985.3 -21225.6 858.945)
(-15039.5 -19359.7 -1362.2)
(-18114.4 -17166.3 -3703.94)
(-20077.6 -14371.2 -6136.65)
(-21037 -10685.5 -8546.07)
(-21866.9 -5534.82 -10253.6)
(-24320.1 1921.93 -10457.9)
(-29799.2 11147.3 -9029.61)
(-37322.5 18976.1 -6419.22)
(-42744.5 22213.5 -3345.16)
(-48521.5 20647.1 4245.92)
(-42640.3 17654.2 5158.87)
(-34223.1 17131.4 5155.53)
(-25371.9 18658.4 4905.85)
(-16878.1 20527.6 4769.35)
(-8935.17 21313.4 4656.81)
(-1670.99 20605.5 4227.56)
(4857.47 18807.5 3249.32)
(10630.3 16449 1747.4)
(15527.2 13759 -87.2516)
(19386.9 10648.6 -2084.34)
(22128.1 6893.63 -4170.32)
(24035.4 2248.13 -6100.5)
(26125.8 -3621.72 -7183.41)
(29910.9 -10891.1 -6715.37)
(36267.3 -18472.9 -4578.91)
(43915.1 -23549.2 -1330.43)
(49096.1 -23846.5 1964.99)
(48521.5 -20647.1 4245.92)
(42640.3 -17654.2 5158.87)
(34223.1 -17131.4 5155.53)
(25371.9 -18658.4 4905.85)
(16878.1 -20527.6 4769.35)
(8935.17 -21313.4 4656.81)
(1670.99 -20605.5 4227.56)
(-4857.47 -18807.5 3249.32)
(-10630.3 -16449 1747.4)
(-15527.2 -13759 -87.2517)
(-19386.9 -10648.6 -2084.34)
(-22128.1 -6893.63 -4170.32)
(-24035.4 -2248.13 -6100.5)
(-26125.8 3621.72 -7183.41)
(-29910.9 10891.1 -6715.37)
(-36267.3 18472.9 -4578.91)
(-43915.1 23549.2 -1330.43)
(-49096.1 23846.5 1964.99)
(-54029.6 19861.1 9948.28)
(-48116 15294 9958.88)
(-39613.6 13629.3 8952.26)
(-30412.2 14341.7 7743.8)
(-21338 15570.2 6811.66)
(-12680.2 15826.7 6196.21)
(-4592.99 14678.7 5621.35)
(2800.35 12426.7 4783.37)
(9408.4 9510.4 3583.13)
(15124.9 6154.64 2113.77)
(19838.4 2337.09 520.589)
(23565 -2077.83 -1038.5)
(26730.6 -7246.03 -2225.49)
(30322.8 -13257.2 -2456.68)
(35499.7 -19780.6 -1226.86)
(42645.3 -25394.2 1491.56)
(50245.7 -27668.2 5056.05)
(54922.1 -25211.7 8249.29)
(54029.6 -19861.1 9948.28)
(48116 -15294 9958.88)
(39613.6 -13629.3 8952.26)
(30412.2 -14341.7 7743.8)
(21338 -15570.2 6811.66)
(12680.2 -15826.7 6196.21)
(4592.99 -14678.7 5621.35)
(-2800.35 -12426.7 4783.37)
(-9408.4 -9510.4 3583.13)
(-15124.9 -6154.64 2113.77)
(-19838.4 -2337.09 520.589)
(-23565 2077.83 -1038.5)
(-26730.6 7246.03 -2225.49)
(-30322.8 13257.2 -2456.68)
(-35499.7 19780.6 -1226.86)
(-42645.3 25394.2 1491.56)
(-50245.7 27668.2 5056.05)
(-54922.1 25211.7 8249.29)
(-58558.1 18873.9 16665.7)
(-52675.1 12793.5 15959.3)
(-44265.2 9601.67 14248.6)
(-34995.6 8811.99 12347.9)
(-25667.5 8787.05 10766.3)
(-16607.7 8166.57 9633.27)
(-7995.78 6456.33 8779.92)
(16.5918 3769.48 7941.97)
(7314.6 395.049 6964.04)
(13821.9 -3458.56 5857.34)
(19496.3 -7730.44 4747.26)
(24442.3 -12460.1 3851.72)
(29110.7 -17687.5 3518.68)
(34303.6 -23250 4177.82)
(40781.1 -28436.9 6130.34)
(48496.5 -31686 9263.86)
(55809.5 -31071 12837.5)
(59818.9 -26071.8 15625.6)
(58558.1 -18873.9 16665.7)
(52675.1 -12793.5 15959.2)
(44265.2 -9601.67 14248.6)
(34995.6 -8811.99 12347.9)
(25667.5 -8787.05 10766.3)
(16607.7 -8166.57 9633.27)
(7995.78 -6456.33 8779.92)
(-16.5904 -3769.48 7941.97)
(-7314.6 -395.048 6964.04)
(-13821.9 3458.56 5857.33)
(-19496.3 7730.43 4747.26)
(-24442.3 12460.1 3851.72)
(-29110.7 17687.5 3518.68)
(-34303.6 23250 4177.82)
(-40781.1 28436.9 6130.34)
(-48496.5 31686 9263.86)
(-55809.5 31071 12837.5)
(-59818.9 26071.8 15625.6)
(-61372.8 17466.9 24811.8)
(-55883.9 10070.7 23554.9)
(-47989.1 5177.97 21415.9)
(-39059.6 2451.93 19105.8)
(-29843.3 709.236 17084.5)
(-20709.2 -1131.13 15532.4)
(-11885.7 -3623.33 14409.5)
(-3528.54 -6860.36 13555.2)
(4288.08 -10684.5 12813.1)
(11555 -14883.8 12132.2)
(18287.8 -19324.6 11606.4)
(24606.3 -23956.4 11454.5)
(30847.3 -28663.6 11967.5)
(37523.6 -33035.7 13419.1)
(44989.5 -36149.8 15911.4)
(52858.5 -36595.5 19163.2)
(59548.5 -33145.8 22374.9)
(62810.4 -26043.8 24477.8)
(61372.8 -17466.9 24811.8)
(55883.9 -10070.7 23554.9)
(47989.1 -5177.97 21415.9)
(39059.6 -2451.93 19105.8)
(29843.3 -709.236 17084.5)
(20709.2 1131.13 15532.4)
(11885.7 3623.33 14409.5)
(3528.54 6860.36 13555.2)
(-4288.08 10684.5 12813.1)
(-11555 14883.8 12132.2)
(-18287.8 19324.6 11606.4)
(-24606.3 23956.4 11454.5)
(-30847.3 28663.6 11967.5)
(-37523.6 33035.7 13419.1)
(-44989.5 36149.8 15911.4)
(-52858.5 36595.5 19163.2)
(-59548.5 33145.8 22374.9)
(-62810.4 26043.8 24477.8)
(-60380.9 15291.3 35145.4)
(-55926.1 7140.69 33597.9)
(-49285.3 801.319 31351.2)
(-41428.7 -3834.87 28951.1)
(-32996.5 -7443.02 26787)
(-24390 -10767.8 25088.1)
(-15874.2 -14324.9 23935.4)
(-7578.66 -18283.9 23253.7)
(487.071 -22511.4 22877.4)
(8348.82 -26763.9 22700.9)
(16004.2 -30864.3 22780.3)
(23479.6 -34687.2 23299.2)
(30906.8 -37985 24457.9)
(38474.6 -40233.6 26369.2)
(46175.7 -40608 28947.1)
(53450.7 -38198.2 31796.1)
(59057.8 -32560.3 34204.9)
(61584.5 -24355.9 35430.7)
(60380.9 -15291.3 35145.4)
(55926.1 -7140.69 33597.9)
(49285.3 -801.319 31351.2)
(41428.7 3834.87 28951.1)
(32996.5 7443.02 26787)
(24390 10767.8 25088.1)
(15874.2 14324.9 23935.4)
(7578.66 18283.9 23253.7)
(-487.07 22511.4 22877.4)
(-8348.82 26763.9 22700.9)
(-16004.2 30864.3 22780.3)
(-23479.6 34687.2 23299.2)
(-30906.8 37985 24457.9)
(-38474.6 40233.6 26369.2)
(-46175.7 40608 28947.1)
(-53450.7 38198.2 31796.1)
(-59057.8 32560.3 34204.9)
(-61584.5 24355.9 35430.7)
(-51159.5 11400.3 50090.7)
(-48367.7 3856.93 48613.2)
(-43844.3 -2692.07 46683.5)
(-38115.4 -8204.45 44671.3)
(-31626 -12954 42908)
(-24707.6 -17324.3 41645.2)
(-17567.7 -21590.9 40979.6)
(-10290.4 -25785.6 40801.1)
(-2888.85 -29744.4 40898.9)
(4591.78 -33256.5 41150.3)
(12063.9 -36175.5 41612.1)
(19423.7 -38357.1 42434.2)
(26619.7 -39547.4 43715)
(33588.6 -39352.6 45422)
(40128.3 -37329.7 47360.4)
(45775.2 -33182.6 49177.2)
(49847.8 -27007 50428.7)
(51725.2 -19419.2 50762)
(51159.5 -11400.3 50090.7)
(48367.7 -3856.93 48613.3)
(43844.3 2692.07 46683.5)
(38115.4 8204.45 44671.3)
(31626 12954 42908)
(24707.6 17324.3 41645.2)
(17567.7 21590.9 40979.6)
(10290.4 25785.6 40801.1)
(2888.85 29744.4 40898.9)
(-4591.77 33256.5 41150.3)
(-12063.9 36175.5 41612.1)
(-19423.7 38357.1 42434.2)
(-26619.7 39547.4 43715)
(-33588.6 39352.6 45422)
(-40128.3 37329.7 47360.4)
(-45775.2 33182.6 49177.2)
(-49847.9 27007 50428.7)
(-51725.2 19419.2 50762)
(-19162.7 3269.74 57469)
(-17987.8 127.123 57061.7)
(-16065.7 -2473.42 56620.8)
(-13634.3 -4469.67 56309.9)
(-10932.8 -5946.7 56257.7)
(-8168.96 -7065.93 56447.1)
(-5509.87 -8023.18 56766.9)
(-3042.99 -9016.66 57032.6)
(-744.027 -10206.6 57148.9)
(1499.47 -11619.6 57070)
(3830.47 -13124.4 56846.1)
(6337.9 -14468.6 56627.9)
(9038.08 -15348.6 56564.5)
(11848.4 -15477.4 56736.3)
(14579 -14638.7 57079)
(16945 -12768.2 57452.6)
(18632 -10009.1 57694.1)
(19401.5 -6696.31 57704)
(19162.7 -3269.74 57469)
(17987.8 -127.123 57061.7)
(16065.7 2473.42 56620.8)
(13634.3 4469.67 56309.9)
(10932.8 5946.7 56257.7)
(8168.96 7065.93 56447.1)
(5509.88 8023.18 56766.9)
(3042.99 9016.66 57032.6)
(744.028 10206.6 57148.9)
(-1499.46 11619.6 57070)
(-3830.47 13124.4 56846.1)
(-6337.9 14468.6 56627.9)
(-9038.08 15348.6 56564.5)
(-11848.4 15477.4 56736.3)
(-14579 14638.7 57079)
(-16945 12768.2 57452.6)
(-18632 10009.1 57694.1)
(-19401.5 6696.31 57704)
)
;
    }
    outside
    {
        type            calculated;
        value           nonuniform List<vector> 
540
(
(2476.67 -16479.3 -16515.2)
(24188.5 -12399.8 1445.29)
(36061 -2043.9 9417.37)
(39369.9 8849.11 11322.9)
(35883.9 16979.2 10383.1)
(28198.1 21603.6 8299.76)
(18611.4 23075.6 5781.07)
(8820.62 22143.7 3106.04)
(-97.8831 19667.8 399.481)
(-7569.18 16363.9 -2245.51)
(-13255.5 12517.1 -4760.7)
(-16622.3 7815.71 -7215.42)
(-16467.4 1561.76 -10110.5)
(-10876.1 -6420.36 -14868.9)
(1330.49 -14044.9 -23853.4)
(16964.2 -15830.2 -37438.4)
(27047.9 -6951.18 -47588.3)
(19904.1 8351.61 -39001)
(-2476.67 16479.3 -16515.2)
(-24188.5 12399.8 1445.29)
(-36061 2043.9 9417.37)
(-39369.9 -8849.11 11322.9)
(-35883.9 -16979.2 10383.1)
(-28198.1 -21603.6 8299.76)
(-18611.4 -23075.6 5781.07)
(-8820.62 -22143.7 3106.04)
(97.8832 -19667.8 399.481)
(7569.18 -16363.9 -2245.51)
(13255.5 -12517.1 -4760.7)
(16622.3 -7815.71 -7215.42)
(16467.4 -1561.76 -10110.5)
(10876.1 6420.36 -14868.9)
(-1330.49 14044.9 -23853.4)
(-16964.2 15830.2 -37438.4)
(-27047.9 6951.18 -47588.3)
(-19904.1 -8351.61 -39001)
(22826.7 -11178.6 -3167.29)
(29771.5 -8437.47 5997.03)
(31836.4 -2152.84 9144.02)
(29932.9 2717.97 9300.36)
(25446.6 5623.58 8396.71)
(19568.9 6787.79 6954.53)
(13167 6493.95 5108.24)
(6990.57 5384.29 2956.33)
(1449.38 4265.59 611.113)
(-3437.74 3762.12 -1768.6)
(-7865.1 4062.21 -3971.17)
(-11964.9 4870.48 -5762.12)
(-15604.2 5533.21 -6965.69)
(-18325.3 5209.93 -7658.9)
(-19600.2 3320.27 -8539.01)
(-19886.3 804.672 -10866.3)
(-20187.2 807.628 -13756.7)
(-17866.2 5341.25 -12625.2)
(-22826.7 11178.6 -3167.29)
(-29771.5 8437.47 5997.03)
(-31836.4 2152.84 9144.02)
(-29932.9 -2717.97 9300.36)
(-25446.6 -5623.58 8396.71)
(-19568.9 -6787.79 6954.53)
(-13167 -6493.95 5108.24)
(-6990.57 -5384.29 2956.33)
(-1449.38 -4265.59 611.113)
(3437.74 -3762.11 -1768.6)
(7865.1 -4062.21 -3971.17)
(11964.9 -4870.48 -5762.12)
(15604.2 -5533.21 -6965.69)
(18325.3 -5209.93 -7658.9)
(19600.2 -3320.27 -8539.01)
(19886.3 -804.672 -10866.3)
(20187.2 -807.628 -13756.7)
(17866.2 -5341.25 -12625.2)
(15417.3 -12125.5 7039.54)
(32531 -5855.57 12767.3)
(35245.6 1603.19 11798.8)
(32309.1 5554.23 9811.15)
(27725.4 8002.28 8088.25)
(22407.3 9460.54 6591.84)
(16653.2 9993.15 5004.11)
(10767.6 9876.35 3166.7)
(5036.72 9609.38 1113.09)
(-407.369 9604.09 -985.637)
(-5532.41 9932.63 -2868.26)
(-10244.1 10283.5 -4250.06)
(-14281.8 10000.2 -4928.92)
(-17176.9 7985.81 -4991.87)
(-18415.2 2908.94 -5225.07)
(-18513.4 -5021.04 -7398.46)
(-14831.1 -10906.8 -12449.9)
(-1632.37 -5151.97 -8408.88)
(-15417.3 12125.5 7039.54)
(-32531 5855.57 12767.3)
(-35245.6 -1603.19 11798.8)
(-32309.1 -5554.23 9811.15)
(-27725.4 -8002.28 8088.25)
(-22407.3 -9460.54 6591.84)
(-16653.2 -9993.15 5004.11)
(-10767.6 -9876.35 3166.7)
(-5036.72 -9609.38 1113.09)
(407.369 -9604.09 -985.637)
(5532.41 -9932.63 -2868.26)
(10244.1 -10283.5 -4250.06)
(14281.8 -10000.2 -4928.92)
(17176.9 -7985.81 -4991.87)
(18415.2 -2908.94 -5225.07)
(18513.4 5021.04 -7398.46)
(14831.1 10906.8 -12449.9)
(1632.37 5151.97 -8408.88)
(28771.9 7123.83 21980.2)
(35928.1 2617.41 18267.7)
(35534.5 4816.6 13319.8)
(32048 6869.53 9489.99)
(27319.4 8205.74 6900.99)
(22396.2 9104.3 5274.12)
(17407.5 9594.34 3923.7)
(12279.6 9706.87 2414.81)
(7086.82 9660.96 665.191)
(1960.3 9683.05 -1180.37)
(-2971.16 9793.69 -2853.32)
(-7542.95 9757.34 -4043.41)
(-11533.9 9047.75 -4485.38)
(-14634.3 6600.06 -4098.83)
(-16522.1 819.273 -3211.79)
(-17595.1 -8926.34 -2748.4)
(-16306.1 -17799.8 -3893.07)
(-18000.7 -19090.2 4370.72)
(-28771.9 -7123.83 21980.2)
(-35928.1 -2617.41 18267.7)
(-35534.5 -4816.6 13319.8)
(-32048 -6869.53 9489.99)
(-27319.4 -8205.74 6900.99)
(-22396.2 -9104.3 5274.12)
(-17407.5 -9594.34 3923.7)
(-12279.6 -9706.87 2414.81)
(-7086.82 -9660.96 665.191)
(-1960.3 -9683.05 -1180.37)
(2971.16 -9793.69 -2853.32)
(7542.95 -9757.34 -4043.41)
(11533.9 -9047.75 -4485.38)
(14634.3 -6600.06 -4098.83)
(16522.1 -819.273 -3211.79)
(17595.1 8926.34 -2748.4)
(16306.1 17799.8 -3893.07)
(18000.7 19090.2 4370.72)
(23809.6 11786.2 14289.9)
(28999.3 6782.64 15876.4)
(31436.6 6320.21 12816)
(29533.1 6957.61 8860.39)
(25574.6 7344.62 5913.16)
(21219.7 7482.49 4213.25)
(16921.7 7484.32 3016.87)
(12562 7324.87 1744.15)
(8085.23 7050.81 223.817)
(3568.56 6742.81 -1442.08)
(-850.9 6369.05 -2992.48)
(-4999.51 5732.9 -4071.98)
(-8671.67 4391.92 -4291.69)
(-11574.6 1420.01 -3413.59)
(-13380.4 -4342.3 -1656.94)
(-14469.6 -12375.5 328.991)
(-17287.8 -17247.7 2425.63)
(-22157.5 -16795.2 7165.27)
(-23809.6 -11786.2 14289.9)
(-28999.3 -6782.64 15876.4)
(-31436.6 -6320.21 12816)
(-29533.1 -6957.61 8860.39)
(-25574.6 -7344.62 5913.16)
(-21219.7 -7482.49 4213.25)
(-16921.7 -7484.32 3016.87)
(-12562 -7324.87 1744.15)
(-8085.23 -7050.81 223.817)
(-3568.56 -6742.81 -1442.08)
(850.9 -6369.05 -2992.48)
(4999.51 -5732.9 -4071.98)
(8671.67 -4391.92 -4291.69)
(11574.6 -1420.01 -3413.59)
(13380.4 4342.3 -1656.94)
(14469.6 12375.5 328.991)
(17287.8 17247.7 2425.63)
(22157.5 16795.2 7165.27)
(20709.5 12523 12523.8)
(23416.3 8115.5 14171.2)
(25981.8 6222.18 12412.8)
(25840.8 5924.69 8888.32)
(23341.9 5788.75 5811.83)
(19892 5431.02 3991.46)
(16266.4 4938.56 2818.67)
(12549 4333.17 1657.94)
(8702.79 3609.8 279.233)
(4777.88 2766.68 -1250.57)
(893.709 1735.72 -2672.16)
(-2792.81 350.692 -3568.7)
(-6083.25 -1703.03 -3425.83)
(-8677.36 -4959.4 -1975.05)
(-10266.7 -9754.36 323.765)
(-11269.7 -15026.8 2713.37)
(-13608.6 -17764.3 5220.32)
(-17674.6 -16550.9 8626.99)
(-20709.5 -12523 12523.8)
(-23416.3 -8115.5 14171.2)
(-25981.8 -6222.18 12412.8)
(-25840.8 -5924.69 8888.32)
(-23341.9 -5788.75 5811.83)
(-19892 -5431.02 3991.46)
(-16266.4 -4938.56 2818.67)
(-12549 -4333.17 1657.94)
(-8702.79 -3609.8 279.233)
(-4777.88 -2766.68 -1250.57)
(-893.709 -1735.72 -2672.16)
(2792.81 -350.693 -3568.7)
(6083.25 1703.03 -3425.83)
(8677.36 4959.4 -1975.05)
(10266.7 9754.36 323.765)
(11269.7 15026.8 2713.37)
(13608.6 17764.3 5220.32)
(17674.6 16550.9 8626.99)
(15866 12807.9 13188.5)
(18477.4 8399.78 14277.5)
(20964.7 5639.52 12951.2)
(21871.8 4391.9 9879.68)
(20798.3 3723.93 6751.2)
(18472.3 3051.47 4692.07)
(15638.6 2227.08 3395.45)
(12560.1 1231.09 2250.38)
(9291.19 39.5915 985.192)
(5906.03 -1383.76 -359.796)
(2526.58 -3107.63 -1526.39)
(-694.908 -5226.65 -2071.14)
(-3549.2 -7838.43 -1480.48)
(-5724.86 -11013.6 350.594)
(-7008.41 -14587.8 2743)
(-7927.83 -17692 5060.46)
(-9864.42 -18763.3 7519.27)
(-13045.5 -16917.7 10450.5)
(-15866 -12807.9 13188.5)
(-18477.4 -8399.78 14277.5)
(-20964.7 -5639.52 12951.2)
(-21871.8 -4391.9 9879.68)
(-20798.3 -3723.93 6751.2)
(-18472.3 -3051.47 4692.07)
(-15638.6 -2227.08 3395.45)
(-12560.1 -1231.09 2250.38)
(-9291.19 -39.5915 985.192)
(-5906.03 1383.76 -359.796)
(-2526.58 3107.63 -1526.39)
(694.908 5226.65 -2071.14)
(3549.2 7838.43 -1480.48)
(5724.86 11013.6 350.594)
(7008.41 14587.8 2743)
(7927.83 17692 5060.46)
(9864.42 18763.3 7519.27)
(13045.5 16917.7 10450.5)
(11059 13094.9 14961.2)
(13749.7 8371.67 15576.1)
(16318.7 4899.75 14350.9)
(17869.8 2739.88 11667.5)
(17910.9 1373.79 8631.88)
(16698.8 297.158 6343.56)
(14756 -841.46 4851.8)
(12398.2 -2199.83 3687.14)
(9761.13 -3843.44 2569.82)
(6961.37 -5810.4 1509.37)
(4138.42 -8122.99 733.646)
(1457.49 -10761.2 634.952)
(-841.959 -13611.4 1587.46)
(-2453.47 -16466.5 3489.22)
(-3319.39 -19024.9 5701.66)
(-4072.99 -20651.7 7880.25)
(-5720.68 -20379 10262.5)
(-8339.63 -17659.3 12875.5)
(-11059 -13094.9 14961.2)
(-13749.7 -8371.67 15576.1)
(-16318.7 -4899.75 14350.9)
(-17869.8 -2739.88 11667.5)
(-17910.9 -1373.79 8631.88)
(-16698.8 -297.158 6343.56)
(-14756 841.46 4851.8)
(-12398.2 2199.83 3687.14)
(-9761.13 3843.44 2569.82)
(-6961.37 5810.4 1509.37)
(-4138.42 8122.99 733.646)
(-1457.49 10761.2 634.952)
(841.959 13611.4 1587.46)
(2453.47 16466.5 3489.22)
(3319.39 19024.9 5701.66)
(4072.99 20651.7 7880.25)
(5720.68 20379 10262.5)
(8339.63 17659.3 12875.5)
(6404.01 13204.6 17433.3)
(9192.32 8038.11 17627.5)
(11861.3 3926.41 16400.1)
(13813.9 950.833 14054.8)
(14649.2 -1182.49 11284.1)
(14394 -2831.07 8946.1)
(13339.7 -4406.14 7328.34)
(11766.8 -6189.13 6182)
(9855.85 -8293.26 5267.21)
(7754.91 -10734.7 4556.09)
(5617.4 -13466.6 4211.77)
(3627.56 -16363.5 4516.55)
(2046.85 -19188.5 5657.24)
(1121.29 -21629.9 7420.71)
(722.342 -23332.7 9373.82)
(153.62 -23737.6 11407.5)
(-1337.08 -22163.2 13656.6)
(-3715.81 -18398.4 15907.6)
(-6404.01 -13204.6 17433.3)
(-9192.32 -8038.11 17627.5)
(-11861.3 -3926.41 16400.1)
(-13813.9 -950.833 14054.8)
(-14649.2 1182.49 11284.1)
(-14394 2831.07 8946.11)
(-13339.7 4406.14 7328.34)
(-11766.8 6189.13 6182)
(-9855.85 8293.26 5267.21)
(-7754.91 10734.7 4556.09)
(-5617.4 13466.6 4211.77)
(-3627.56 16363.5 4516.55)
(-2046.85 19188.5 5657.24)
(-1121.29 21629.9 7420.71)
(-722.342 23332.7 9373.82)
(-153.62 23737.6 11407.5)
(1337.08 22163.2 13656.6)
(3715.81 18398.4 15907.6)
(2231.63 12851.7 20297.4)
(4991.75 7221.57 20136.9)
(7614.72 2547.38 18914.5)
(9719.23 -1125.89 16909.7)
(11032.4 -3994.9 14558.1)
(11498.8 -6316.99 12429.2)
(11243.5 -8462.66 10865.2)
(10470.9 -10753.7 9823.37)
(9367.07 -13325.9 9146.39)
(8089.18 -16157.8 8778.27)
(6786.71 -19130.3 8802.08)
(5641.41 -22046.5 9369.27)
(4886.67 -24622.4 10512.7)
(4642.63 -26507.1 12028.5)
(4622.25 -27285.2 13701.9)
(4155.31 -26438.9 15531.1)
(2714.54 -23540 17518.2)
(426.319 -18706.6 19311.8)
(-2231.63 -12851.7 20297.4)
(-4991.75 -7221.57 20136.9)
(-7614.72 -2547.38 18914.5)
(-9719.23 1125.89 16909.7)
(-11032.4 3994.9 14558.1)
(-11498.8 6316.99 12429.2)
(-11243.5 8462.66 10865.2)
(-10470.9 10753.7 9823.37)
(-9367.07 13325.9 9146.39)
(-8089.18 16157.8 8778.27)
(-6786.71 19130.3 8802.08)
(-5641.41 22046.5 9369.27)
(-4886.67 24622.4 10512.7)
(-4642.63 26507.1 12028.5)
(-4622.25 27285.2 13701.9)
(-4155.31 26438.9 15531.1)
(-2714.54 23540 17518.2)
(-426.319 18706.6 19311.8)
(-1055.04 11813.5 23203.5)
(1448.53 5838.92 22810.6)
(3782.47 736.614 21698.9)
(5752.9 -3493.91 20113.2)
(7219.55 -7011.56 18321.3)
(8128.24 -10016.3 16645.9)
(8515.43 -12794.3 15352)
(8501.14 -15621.8 14514.7)
(8235.35 -18611.8 14073.4)
(7850.02 -21692.4 13969.7)
(7460.07 -24681.2 14215.4)
(7204.38 -27346.3 14849.8)
(7227.83 -29400.4 15828.9)
(7503.18 -30477.5 17026.7)
(7669.29 -30150.4 18376.3)
(7180.64 -28009.7 19889)
(5734.69 -23887.5 21459.3)
(3544.61 -18167.3 22709.9)
(1055.04 -11813.5 23203.5)
(-1448.53 -5838.92 22810.6)
(-3782.46 -736.615 21698.9)
(-5752.9 3493.91 20113.2)
(-7219.55 7011.56 18321.3)
(-8128.24 10016.3 16645.9)
(-8515.43 12794.3 15352)
(-8501.14 15621.8 14514.7)
(-8235.35 18611.8 14073.4)
(-7850.02 21692.4 13969.7)
(-7460.07 24681.2 14215.4)
(-7204.38 27346.3 14849.8)
(-7227.83 29400.4 15828.9)
(-7503.18 30477.5 17026.7)
(-7669.29 30150.4 18376.3)
(-7180.64 28009.7 19889)
(-5734.69 23887.5 21459.3)
(-3544.61 18167.3 22709.9)
(-3049 10012.7 25763.7)
(-1053.71 4026.34 25329.5)
(754.392 -1231.95 24513.6)
(2338.06 -5790.59 23481.4)
(3676.85 -9774.43 22362.5)
(4757.73 -13322.3 21291.4)
(5580.23 -16614.7 20416)
(6184.49 -19832 19841.5)
(6647.73 -23028.8 19588.6)
(7044.33 -26082.5 19625.7)
(7434.96 -28774.5 19924.6)
(7890.22 -30875.8 20457.7)
(8445.26 -32125.6 21167.5)
(8966.02 -32192.3 21998.7)
(9112.64 -30725.8 22945.1)
(8523.54 -27488.5 23991.5)
(7106.55 -22545 24990)
(5146.68 -16430.4 25654.3)
(3049 -10012.7 25763.7)
(1053.71 -4026.34 25329.5)
(-754.392 1231.95 24513.6)
(-2338.05 5790.59 23481.4)
(-3676.85 9774.43 22362.5)
(-4757.73 13322.3 21291.4)
(-5580.23 16614.7 20416)
(-6184.49 19832 19841.5)
(-6647.73 23028.8 19588.6)
(-7044.33 26082.5 19625.7)