/*--------------------------------*- C++ -*----------------------------------*\
| =========                 |                                                 |
| \\      /  F ield         | OpenFOAM: The Open Source CFD Toolbox           |
|  \\    /   O peration     | Version:  2312                                  |
|   \\  /    A nd           | Website:  www.openfoam.com                      |
|    \\/     M anipulation  |                                                 |
\*---------------------------------------------------------------------------*/
FoamFile
{
    version     2.0;
    format      ascii;
    arch        "LSB;label=32;scalar=64";
    class       volVectorField;
    location    "0.7";
    object      U;
}
// * * * * * * * * * * * * * * * * * * * * * * * * * * * * * * * * * * * * * //

dimensions      [0 1 -1 0 0 0 0];

internalField   nonuniform List<vector> 
1620
(
(0.000279292 8.44856e-05 6.08043e-05)
(0.000230138 1.80993e-05 -0.000118551)
(0.000194804 -5.77743e-05 -0.000228102)
(0.000161587 -8.60578e-05 -0.000265836)
(0.000128317 -7.38319e-05 -0.000255468)
(0.000101059 -4.83761e-05 -0.000216713)
(8.42223e-05 -2.5224e-05 -0.000165425)
(7.52272e-05 -6.79628e-06 -0.000114892)
(6.6598e-05 8.2169e-06 -7.3776e-05)
(5.0519e-05 1.98215e-05 -4.54728e-05)
(2.23116e-05 2.79881e-05 -2.86544e-05)
(-1.83e-05 3.70072e-05 -1.7271e-05)
(-6.89821e-05 5.71226e-05 5.14931e-07)
(-0.000129078 9.54704e-05 4.25732e-05)
(-0.000200451 0.000135564 0.000125032)
(-0.000277245 0.000129258 0.000235861)
(-0.000332528 4.28301e-05 0.000302017)
(-0.000329731 -6.25266e-05 0.000233291)
(-0.000279292 -8.44856e-05 6.08043e-05)
(-0.000230138 -1.80993e-05 -0.000118551)
(-0.000194804 5.77743e-05 -0.000228102)
(-0.000161587 8.60578e-05 -0.000265836)
(-0.000128317 7.38319e-05 -0.000255468)
(-0.000101059 4.83761e-05 -0.000216713)
(-8.42223e-05 2.5224e-05 -0.000165425)
(-7.52272e-05 6.79628e-06 -0.000114892)
(-6.6598e-05 -8.2169e-06 -7.3776e-05)
(-5.0519e-05 -1.98215e-05 -4.54728e-05)
(-2.23116e-05 -2.79881e-05 -2.86544e-05)
(1.83e-05 -3.70072e-05 -1.7271e-05)
(6.89821e-05 -5.71226e-05 5.14932e-07)
(0.000129078 -9.54704e-05 4.25732e-05)
(0.000200451 -0.000135564 0.000125032)
(0.000277245 -0.000129258 0.000235861)
(0.000332528 -4.28301e-05 0.000302017)
(0.000329731 6.25266e-05 0.000233291)
(0.000256838 2.40015e-06 4.00102e-05)
(0.000282268 -3.61528e-05 -4.39231e-05)
(0.000297547 -5.42003e-05 -0.000104368)
(0.000293658 -3.54921e-05 -0.000139838)
(0.0002696 3.58538e-06 -0.000158144)
(0.000233467 4.33822e-05 -0.000161917)
(0.00019461 7.5132e-05 -0.000153771)
(0.000157423 9.88883e-05 -0.000138352)
(0.000121017 0.000117193 -0.000119624)
(8.19734e-05 0.000131257 -9.89135e-05)
(3.748e-05 0.000140371 -7.51102e-05)
(-1.20673e-05 0.000143421 -4.58585e-05)
(-6.24607e-05 0.000140647 -8.63779e-06)
(-0.000108643 0.000132306 3.80494e-05)
(-0.000148926 0.000113575 9.11755e-05)
(-0.000184261 7.51848e-05 0.000136886)
(-0.000212762 2.12761e-05 0.000150466)
(-0.000233911 -1.32752e-05 0.000115477)
(-0.000256838 -2.40015e-06 4.00102e-05)
(-0.000282268 3.61528e-05 -4.39231e-05)
(-0.000297547 5.42003e-05 -0.000104368)
(-0.000293658 3.54921e-05 -0.000139838)
(-0.0002696 -3.58538e-06 -0.000158144)
(-0.000233467 -4.33822e-05 -0.000161917)
(-0.00019461 -7.5132e-05 -0.000153771)
(-0.000157423 -9.88883e-05 -0.000138352)
(-0.000121017 -0.000117193 -0.000119624)
(-8.19734e-05 -0.000131257 -9.89135e-05)
(-3.748e-05 -0.000140371 -7.51102e-05)
(1.20673e-05 -0.000143421 -4.58585e-05)
(6.24607e-05 -0.000140647 -8.63779e-06)
(0.000108643 -0.000132306 3.80494e-05)
(0.000148926 -0.000113575 9.11755e-05)
(0.000184261 -7.51848e-05 0.000136886)
(0.000212762 -2.12761e-05 0.000150466)
(0.000233911 1.32752e-05 0.000115477)
(0.000185569 -3.42318e-05 -1.43602e-06)
(0.000261521 -6.10508e-05 -2.24961e-05)
(0.00032739 -4.10292e-05 -4.49719e-05)
(0.000369147 1.27235e-05 -7.75912e-05)
(0.000378051 7.62336e-05 -0.000117903)
(0.000356853 0.000134602 -0.000154074)
(0.000314934 0.000182645 -0.000176685)
(0.000261227 0.000219414 -0.000182623)
(0.000201711 0.000244372 -0.000171872)
(0.000140309 0.000255779 -0.000144643)
(8.0788e-05 0.000250468 -0.00010181)
(2.82551e-05 0.000224815 -4.75793e-05)
(-1.13311e-05 0.000177244 8.45394e-06)
(-3.47897e-05 0.000111676 5.30378e-05)
(-4.5756e-05 3.99629e-05 7.5059e-05)
(-5.39125e-05 -1.80621e-05 7.11697e-05)
(-7.19829e-05 -3.90657e-05 4.91237e-05)
(-0.000115384 -1.3035e-05 2.32972e-05)
(-0.000185569 3.42318e-05 -1.43602e-06)
(-0.000261521 6.10508e-05 -2.24961e-05)
(-0.00032739 4.10292e-05 -4.49719e-05)
(-0.000369147 -1.27235e-05 -7.75912e-05)
(-0.000378051 -7.62336e-05 -0.000117903)
(-0.000356853 -0.000134602 -0.000154074)
(-0.000314934 -0.000182645 -0.000176685)
(-0.000261227 -0.000219414 -0.000182623)
(-0.000201711 -0.000244372 -0.000171872)
(-0.000140309 -0.000255779 -0.000144643)
(-8.0788e-05 -0.000250468 -0.00010181)
(-2.82551e-05 -0.000224815 -4.75793e-05)
(1.13311e-05 -0.000177244 8.45393e-06)
(3.47897e-05 -0.000111676 5.30378e-05)
(4.5756e-05 -3.99629e-05 7.5059e-05)
(5.39125e-05 1.80621e-05 7.11697e-05)
(7.19829e-05 3.90657e-05 4.91237e-05)
(0.000115384 1.3035e-05 2.32972e-05)
(0.000736268 6.97822e-06 0.000216557)
(0.000724628 -0.000152425 -0.000263343)
(0.000699626 -0.000225331 -0.000592459)
(0.000633722 -0.000156747 -0.000748377)
(0.000529754 -2.83188e-05 -0.000770819)
(0.000415613 8.28348e-05 -0.000705202)
(0.00031747 0.000153803 -0.000594795)
(0.000241394 0.000193526 -0.000476121)
(0.000175547 0.00021509 -0.000373543)
(0.000101066 0.000223911 -0.000297534)
(3.34772e-06 0.000219541 -0.000244293)
(-0.000119854 0.000206082 -0.000194576)
(-0.0002581 0.000201963 -0.000113412)
(-0.000398585 0.000229994 4.28955e-05)
(-0.000535689 0.000275618 0.000301178)
(-0.000660912 0.000256965 0.000615708)
(-0.000745844 0.000108092 0.000807579)
(-0.000761676 -4.69407e-05 0.000653085)
(-0.000736268 -6.97822e-06 0.000216557)
(-0.000724628 0.000152425 -0.000263343)
(-0.000699626 0.000225331 -0.000592459)
(-0.000633722 0.000156747 -0.000748377)
(-0.000529754 2.83188e-05 -0.000770819)
(-0.000415613 -8.28348e-05 -0.000705202)
(-0.00031747 -0.000153803 -0.000594795)
(-0.000241394 -0.000193526 -0.000476121)
(-0.000175547 -0.00021509 -0.000373543)
(-0.000101066 -0.000223911 -0.000297534)
(-3.34772e-06 -0.000219541 -0.000244293)
(0.000119854 -0.000206082 -0.000194576)
(0.0002581 -0.000201963 -0.000113412)
(0.000398585 -0.000229994 4.28955e-05)
(0.000535689 -0.000275618 0.000301178)
(0.000660912 -0.000256965 0.000615708)
(0.000745844 -0.000108092 0.000807579)
(0.000761676 4.69407e-05 0.000653085)
(0.000704719 -0.000112038 0.000227665)
(0.000777727 -0.000210046 -6.05882e-05)
(0.000817426 -0.000214769 -0.000282708)
(0.00080363 -0.000125082 -0.000430589)
(0.00073824 -2.2085e-07 -0.00050832)
(0.00064541 0.000114196 -0.000523972)
(0.000546285 0.000205104 -0.000496306)
(0.000448123 0.000275722 -0.000446197)
(0.000347021 0.000330613 -0.000387205)
(0.00023456 0.000369271 -0.000322451)
(0.000105163 0.00038623 -0.000245857)
(-3.73825e-05 0.000376541 -0.000145623)
(-0.000178749 0.000343472 -9.46046e-06)
(-0.000302952 0.000298383 0.000167936)
(-0.000404864 0.000245199 0.000373484)
(-0.000490027 0.000170658 0.000558628)
(-0.00056284 7.94219e-05 0.000630039)
(-0.000628592 4.32175e-05 0.000501412)
(-0.000704719 0.000112038 0.000227665)
(-0.000777727 0.000210046 -6.05882e-05)
(-0.000817426 0.000214769 -0.000282708)
(-0.00080363 0.000125082 -0.000430589)
(-0.00073824 2.20849e-07 -0.00050832)
(-0.00064541 -0.000114196 -0.000523972)
(-0.000546285 -0.000205104 -0.000496306)
(-0.000448123 -0.000275722 -0.000446197)
(-0.000347021 -0.000330613 -0.000387205)
(-0.00023456 -0.000369271 -0.000322451)
(-0.000105163 -0.00038623 -0.000245857)
(3.73825e-05 -0.000376541 -0.000145623)
(0.000178749 -0.000343472 -9.46046e-06)
(0.000302952 -0.000298383 0.000167936)
(0.000404864 -0.000245199 0.000373484)
(0.000490027 -0.000170658 0.000558628)
(0.00056284 -7.94219e-05 0.000630039)
(0.000628592 -4.32175e-05 0.000501412)
(0.000557471 -0.000193857 0.000186085)
(0.00069967 -0.000249694 6.04203e-05)
(0.000819332 -0.000208886 -6.25575e-05)
(0.000884278 -0.000106688 -0.000196706)
(0.000888282 1.57346e-05 -0.000317493)
(0.000844262 0.000138694 -0.000400355)
(0.000765184 0.000255823 -0.000440227)
(0.000658997 0.000361942 -0.00044241)
(0.000530965 0.00044971 -0.000410117)
(0.000386104 0.000509945 -0.000340087)
(0.000231467 0.000532129 -0.000225739)
(7.86965e-05 0.000505882 -6.53683e-05)
(-5.57102e-05 0.000425767 0.000127926)
(-0.000156973 0.000299727 0.000321151)
(-0.000223873 0.000156641 0.000468487)
(-0.000273153 4.44711e-05 0.000528553)
(-0.000330594 1.24637e-05 0.00048085)
(-0.000421141 8.35028e-05 0.000344451)
(-0.000557471 0.000193857 0.000186085)
(-0.00069967 0.000249694 6.04203e-05)
(-0.000819332 0.000208886 -6.25575e-05)
(-0.000884278 0.000106688 -0.000196706)
(-0.000888282 -1.57346e-05 -0.000317493)
(-0.000844262 -0.000138694 -0.000400355)
(-0.000765184 -0.000255823 -0.000440227)
(-0.000658997 -0.000361942 -0.00044241)
(-0.000530965 -0.00044971 -0.000410117)
(-0.000386104 -0.000509945 -0.000340087)
(-0.000231467 -0.000532129 -0.000225739)
(-7.86965e-05 -0.000505882 -6.53683e-05)
(5.57102e-05 -0.000425767 0.000127926)
(0.000156973 -0.000299727 0.000321151)
(0.000223873 -0.000156641 0.000468487)
(0.000273153 -4.44711e-05 0.000528553)
(0.000330594 -1.24637e-05 0.00048085)
(0.000421141 -8.35028e-05 0.000344451)
(0.00109142 -0.0003749 0.00052162)
(0.00111375 -0.000551046 -0.00025615)
(0.00108312 -0.000533462 -0.000827247)
(0.0009844 -0.000348585 -0.00111819)
(0.000836106 -0.000117527 -0.00119154)
(0.000670556 7.39816e-05 -0.00113656)
(0.000515195 0.000204125 -0.00101999)
(0.000379957 0.000283822 -0.000885132)
(0.000255771 0.000329376 -0.000758807)
(0.000122458 0.000350089 -0.000652448)
(-3.80082e-05 0.000348189 -0.000558412)
(-0.000228444 0.000329499 -0.000445699)
(-0.000432671 0.000316395 -0.000261468)
(-0.000627727 0.000339955 5.22276e-05)
(-0.000800408 0.000394195 0.000516211)
(-0.000944883 0.000399629 0.00104326)
(-0.00104782 0.000293835 0.00137484)
(-0.00108409 0.000234947 0.00119572)
(-0.00109142 0.0003749 0.00052162)
(-0.00111375 0.000551046 -0.00025615)
(-0.00108312 0.000533462 -0.000827247)
(-0.0009844 0.000348585 -0.00111819)
(-0.000836106 0.000117527 -0.00119154)
(-0.000670556 -7.39816e-05 -0.00113656)
(-0.000515195 -0.000204125 -0.00101999)
(-0.000379957 -0.000283822 -0.000885132)
(-0.000255771 -0.000329376 -0.000758807)
(-0.000122458 -0.000350089 -0.000652448)
(3.80082e-05 -0.000348189 -0.000558412)
(0.000228444 -0.000329499 -0.000445699)
(0.000432671 -0.000316395 -0.000261468)
(0.000627727 -0.000339955 5.22276e-05)
(0.000800408 -0.000394195 0.000516211)
(0.000944883 -0.000399629 0.00104326)
(0.00104782 -0.000293835 0.00137484)
(0.00108409 -0.000234947 0.00119572)
(0.00107673 -0.000404263 0.000586725)
(0.00116801 -0.000499461 6.8511e-05)
(0.00119888 -0.000453302 -0.000359944)
(0.0011596 -0.000298234 -0.000640953)
(0.00106442 -0.000106957 -0.000782845)
(0.000939607 7.11579e-05 -0.000819845)
(0.000802549 0.000220726 -0.000791707)
(0.000658637 0.000341441 -0.000729349)
(0.000504487 0.000435028 -0.000649358)
(0.000332932 0.000499481 -0.00055301)
(0.000140342 0.000528927 -0.000427141)
(-6.62944e-05 0.000519696 -0.000248308)
(-0.000268832 0.00047895 6.49284e-06)
(-0.000448251 0.00042402 0.000341579)
(-0.000597748 0.000365463 0.000721494)
(-0.000723833 0.000298926 0.00105531)
(-0.000836817 0.000243315 0.00120163)
(-0.000951528 0.000274037 0.00103368)
(-0.00107673 0.000404263 0.000586725)
(-0.00116801 0.000499461 6.8511e-05)
(-0.00119888 0.000453302 -0.000359944)
(-0.0011596 0.000298234 -0.000640953)
(-0.00106442 0.000106957 -0.000782845)
(-0.000939607 -7.11579e-05 -0.000819845)
(-0.000802549 -0.000220726 -0.000791707)
(-0.000658637 -0.000341441 -0.000729349)
(-0.000504487 -0.000435028 -0.000649358)
(-0.000332932 -0.000499481 -0.00055301)
(-0.000140342 -0.000528927 -0.000427141)
(6.62944e-05 -0.000519696 -0.000248308)
(0.000268832 -0.00047895 6.49284e-06)
(0.000448251 -0.00042402 0.000341579)
(0.000597748 -0.000365463 0.000721494)
(0.000723833 -0.000298926 0.00105531)
(0.000836817 -0.000243315 0.00120163)
(0.000951528 -0.000274037 0.00103368)
(0.000871338 -0.000409169 0.000556725)
(0.00104002 -0.000458992 0.000282391)
(0.00116885 -0.00040374 6.57921e-06)
(0.00122792 -0.000277492 -0.000247234)
(0.00122043 -0.000120072 -0.000440839)
(0.00116145 4.87002e-05 -0.00055622)
(0.00106007 0.000219158 -0.000603331)
(0.000920241 0.000379988 -0.0005987)
(0.000746431 0.000517098 -0.000548779)
(0.000546561 0.000616041 -0.000446123)
(0.000332887 0.00066402 -0.00027438)
(0.000121388 0.000651128 -2.0325e-05)
(-7.05945e-05 0.00057271 0.00030725)
(-0.000229789 0.000437456 0.00065916)
(-0.000355797 0.000281686 0.000949004)
(-0.000465011 0.00017072 0.00109207)
(-0.000579713 0.00016102 0.00104824)
(-0.000711341 0.000265762 0.000834925)
(-0.000871338 0.000409169 0.000556725)
(-0.00104002 0.000458992 0.000282391)
(-0.00116885 0.00040374 6.57922e-06)
(-0.00122792 0.000277492 -0.000247234)
(-0.00122043 0.000120072 -0.000440839)
(-0.00116145 -4.87002e-05 -0.00055622)
(-0.00106007 -0.000219158 -0.000603331)
(-0.000920241 -0.000379988 -0.0005987)
(-0.000746431 -0.000517098 -0.000548779)
(-0.000546561 -0.000616041 -0.000446123)
(-0.000332887 -0.00066402 -0.00027438)
(-0.000121388 -0.000651128 -2.0325e-05)
(7.05945e-05 -0.00057271 0.00030725)
(0.000229789 -0.000437456 0.00065916)
(0.000355797 -0.000281686 0.000949004)
(0.000465011 -0.00017072 0.00109207)
(0.000579713 -0.00016102 0.00104824)
(0.000711341 -0.000265762 0.000834925)
(0.0014021 -0.000964301 0.000939666)
(0.00140349 -0.00103839 -1.73037e-05)
(0.00132398 -0.000916964 -0.000779471)
(0.00118104 -0.00066163 -0.00119483)
(0.00101088 -0.00037611 -0.00133242)
(0.000829959 -0.000130799 -0.00132062)
(0.000649468 5.28904e-05 -0.00124159)
(0.00047621 0.00018063 -0.00113478)
(0.00030577 0.000265396 -0.00101895)
(0.000124219 0.000316974 -0.000899497)
(-8.14834e-05 0.000340035 -0.000765516)
(-0.000310998 0.000341737 -0.000584998)
(-0.000547035 0.000343187 -0.000305874)
(-0.000767656 0.000375394 0.000126059)
(-0.000962594 0.000446358 0.00071776)
(-0.00113315 0.000519637 0.00135767)
(-0.00127592 0.0005853 0.00178366)
(-0.00136153 0.000751696 0.00167753)
(-0.0014021 0.000964301 0.000939666)
(-0.00140349 0.00103839 -1.73037e-05)
(-0.00132398 0.000916964 -0.000779471)
(-0.00118104 0.00066163 -0.00119483)
(-0.00101088 0.00037611 -0.00133242)
(-0.000829959 0.000130799 -0.00132062)
(-0.000649468 -5.28904e-05 -0.00124159)
(-0.00047621 -0.00018063 -0.00113478)
(-0.00030577 -0.000265396 -0.00101895)
(-0.000124219 -0.000316974 -0.000899497)
(8.14834e-05 -0.000340035 -0.000765516)
(0.000310998 -0.000341737 -0.000584998)
(0.000547035 -0.000343187 -0.000305874)
(0.000767656 -0.000375394 0.000126059)
(0.000962594 -0.000446358 0.00071776)
(0.00113315 -0.000519637 0.00135767)
(0.00127592 -0.0005853 0.00178366)
(0.00136153 -0.000751696 0.00167753)
(0.00135741 -0.000805929 0.00102406)
(0.0014223 -0.000854544 0.000353735)
(0.00141086 -0.000752691 -0.00023712)
(0.0013375 -0.00055406 -0.000635493)
(0.00122452 -0.000322555 -0.000845299)
(0.00108704 -0.000101388 -0.000922094)
(0.000931453 9.18192e-05 -0.00091906)
(0.000759703 0.00025206 -0.000869395)
(0.00057055 0.000377756 -0.000787318)
(0.000361802 0.000466506 -0.000670679)
(0.000135131 0.000515131 -0.00050257)
(-0.000100196 0.000524379 -0.000255771)
(-0.000329836 0.000504751 9.43202e-05)
(-0.000542739 0.000474685 0.000545556)
(-0.000736036 0.000449112 0.00104162)
(-0.000911971 0.000439365 0.00146334)
(-0.00107365 0.000481886 0.00166176)
(-0.0012273 0.000628976 0.00152274)
(-0.00135741 0.000805929 0.00102406)
(-0.0014223 0.000854544 0.000353735)
(-0.00141086 0.000752691 -0.00023712)
(-0.0013375 0.00055406 -0.000635493)
(-0.00122452 0.000322555 -0.000845299)
(-0.00108704 0.000101388 -0.000922094)
(-0.000931453 -9.18192e-05 -0.00091906)
(-0.000759703 -0.00025206 -0.000869395)
(-0.00057055 -0.000377756 -0.000787318)
(-0.000361802 -0.000466506 -0.000670679)
(-0.000135131 -0.000515131 -0.00050257)
(0.000100196 -0.000524379 -0.000255771)
(0.000329836 -0.000504751 9.43202e-05)
(0.000542739 -0.000474685 0.000545556)
(0.000736036 -0.000449112 0.00104162)
(0.000911971 -0.000439365 0.00146334)
(0.00107365 -0.000481886 0.00166176)
(0.0012273 -0.000628976 0.00152274)
(0.00114844 -0.000675321 0.00100226)
(0.00127537 -0.000711363 0.000611601)
(0.00136386 -0.000634474 0.000209639)
(0.00139456 -0.000484719 -0.000148383)
(0.00136804 -0.000298858 -0.000412374)
(0.00129361 -9.79464e-05 -0.000566126)
(0.0011757 0.000105197 -0.000628578)
(0.00101537 0.000296534 -0.000623611)
(0.000816719 0.000459831 -0.000560707)
(0.00059046 0.000579993 -0.000431694)
(0.000353257 0.000646998 -0.000216234)
(0.000121748 0.000657072 0.000105522)
(-9.47053e-05 0.000610513 0.000529291)
(-0.000295055 0.000516052 0.000996019)
(-0.000482654 0.000409504 0.00138833)
(-0.00066335 0.00035741 0.00158883)
(-0.000841055 0.000409194 0.00155491)
(-0.00100898 0.000542284 0.00133211)
(-0.00114844 0.000675321 0.00100226)
(-0.00127537 0.000711363 0.000611601)
(-0.00136386 0.000634474 0.000209639)
(-0.00139456 0.000484719 -0.000148383)
(-0.00136804 0.000298858 -0.000412374)
(-0.00129361 9.79464e-05 -0.000566126)
(-0.0011757 -0.000105197 -0.000628578)
(-0.00101537 -0.000296534 -0.000623611)
(-0.000816719 -0.000459831 -0.000560707)
(-0.00059046 -0.000579993 -0.000431694)
(-0.000353257 -0.000646998 -0.000216234)
(-0.000121748 -0.000657072 0.000105522)
(9.47053e-05 -0.000610513 0.000529291)
(0.000295055 -0.000516052 0.000996019)
(0.000482654 -0.000409504 0.00138833)
(0.00066335 -0.00035741 0.00158883)
(0.000841055 -0.000409194 0.00155491)
(0.00100898 -0.000542284 0.00133211)
(0.00165466 -0.00132246 0.00137586)
(0.00161336 -0.00137519 0.000437823)
(0.00145956 -0.00123425 -0.000419715)
(0.00126327 -0.000981011 -0.000938264)
(0.00107595 -0.000696491 -0.00115646)
(0.000894728 -0.00043437 -0.00121133)
(0.000709657 -0.000218753 -0.00118864)
(0.000519445 -5.23183e-05 -0.00112242)
(0.000322098 7.17142e-05 -0.00102368)
(0.000111684 0.000160562 -0.0008933)
(-0.000115744 0.00021895 -0.000723341)
(-0.000354536 0.000254388 -0.000494063)
(-0.000590837 0.000286954 -0.000170285)
(-0.000816163 0.000347636 0.000291512)
(-0.00103534 0.000455562 0.000896381)
(-0.00125298 0.00060845 0.0015335)
(-0.00144977 0.000816036 0.001968)
(-0.00158792 0.00108672 0.00195375)
(-0.00165466 0.00132246 0.00137586)
(-0.00161336 0.00137519 0.000437823)
(-0.00145956 0.00123425 -0.000419715)
(-0.00126327 0.000981011 -0.000938264)
(-0.00107595 0.000696491 -0.00115646)
(-0.000894728 0.00043437 -0.00121133)
(-0.000709657 0.000218753 -0.00118864)
(-0.000519445 5.23183e-05 -0.00112242)
(-0.000322098 -7.17142e-05 -0.00102368)
(-0.000111684 -0.000160562 -0.0008933)
(0.000115744 -0.00021895 -0.000723341)
(0.000354536 -0.000254388 -0.000494063)
(0.000590837 -0.000286954 -0.000170285)
(0.000816163 -0.000347636 0.000291512)
(0.00103534 -0.000455562 0.000896381)
(0.00125298 -0.00060845 0.0015335)
(0.00144977 -0.000816036 0.001968)
(0.00158792 -0.00108672 0.00195375)
(0.00152758 -0.00106158 0.00140773)
(0.00154811 -0.00109977 0.000756241)
(0.00148793 -0.000996934 0.000100445)
(0.00137942 -0.000801934 -0.000383171)
(0.00125261 -0.000568035 -0.000663047)
(0.00111118 -0.000333696 -0.000792592)
(0.000949925 -0.000120011 -0.000827175)
(0.000766543 6.31423e-05 -0.000798795)
(0.000561257 0.000210988 -0.000719364)
(0.000336896 0.000320678 -0.000586138)
(0.000100587 0.000391706 -0.000385223)
(-0.000137219 0.000429306 -9.61363e-05)
(-0.000369351 0.00044749 0.000297844)
(-0.000598051 0.000465899 0.000788571)
(-0.000828514 0.000501731 0.00131429)
(-0.00105621 0.000573019 0.00175136)
(-0.00126362 0.00070837 0.00195795)
(-0.0014278 0.000901254 0.00184329)
(-0.00152758 0.00106158 0.00140773)
(-0.00154811 0.00109977 0.000756241)
(-0.00148793 0.000996934 0.000100445)
(-0.00137942 0.000801934 -0.000383171)
(-0.00125261 0.000568035 -0.000663047)
(-0.00111118 0.000333696 -0.000792592)
(-0.000949925 0.000120011 -0.000827175)
(-0.000766543 -6.31423e-05 -0.000798795)
(-0.000561257 -0.000210988 -0.000719364)
(-0.000336896 -0.000320678 -0.000586138)
(-0.000100587 -0.000391706 -0.000385223)
(0.000137219 -0.000429306 -9.61363e-05)
(0.000369351 -0.00044749 0.000297844)
(0.000598051 -0.000465899 0.00078857)
(0.000828514 -0.000501731 0.00131429)
(0.00105621 -0.000573019 0.00175136)
(0.00126362 -0.00070837 0.00195795)
(0.0014278 -0.000901254 0.00184329)
(0.00132747 -0.000879601 0.00139309)
(0.00138817 -0.000894307 0.000983425)
(0.00142321 -0.000817137 0.000532583)
(0.00141888 -0.000666746 0.000107627)
(0.0013697 -0.000473439 -0.000216422)
(0.00127985 -0.000261943 -0.000410898)
(0.00115049 -4.84535e-05 -0.000494148)
(0.000980795 0.00015206 -0.000493055)
(0.000774501 0.000323656 -0.000420092)
(0.000543697 0.000453024 -0.000270127)
(0.000306543 0.000534637 -2.55836e-05)
(7.72625e-05 0.000571932 0.000332544)
(-0.000144447 0.000571753 0.000801018)
(-0.000369454 0.000544045 0.00131734)
(-0.000603 0.00051848 0.00175248)
(-0.000837797 0.000545504 0.0019799)
(-0.00105534 0.000650184 0.00195784)
(-0.0012256 0.000786722 0.00173445)
(-0.00132747 0.000879601 0.00139309)
(-0.00138817 0.000894307 0.000983425)
(-0.00142321 0.000817137 0.000532583)
(-0.00141888 0.000666746 0.000107627)
(-0.0013697 0.000473439 -0.000216422)
(-0.00127985 0.000261943 -0.000410898)
(-0.00115049 4.84535e-05 -0.000494148)
(-0.000980795 -0.00015206 -0.000493055)
(-0.000774501 -0.000323656 -0.000420092)
(-0.000543697 -0.000453024 -0.000270127)
(-0.000306543 -0.000534637 -2.55836e-05)
(-7.72625e-05 -0.000571932 0.000332544)
(0.000144447 -0.000571753 0.000801018)
(0.000369454 -0.000544045 0.00131734)
(0.000603 -0.00051848 0.00175248)
(0.000837797 -0.000545504 0.0019799)
(0.00105534 -0.000650184 0.00195784)
(0.0012256 -0.000786722 0.00173445)
(0.00176278 -0.00142396 0.00167645)
(0.00168818 -0.00149426 0.000914825)
(0.00149237 -0.00139682 0.000116762)
(0.00125966 -0.00119908 -0.000444556)
(0.00105626 -0.000958879 -0.000736221)
(0.000876189 -0.000715543 -0.000859869)
(0.000695144 -0.000494889 -0.000891142)
(0.000502637 -0.000308161 -0.000859045)
(0.000296605 -0.000156521 -0.000771319)
(7.775e-05 -3.79649e-05 -0.000629941)
(-0.000149205 5.00613e-05 -0.000436452)
(-0.00037449 0.000115301 -0.000189939)
(-0.000591276 0.00017883 0.000123633)
(-0.000809327 0.000272159 0.000538283)
(-0.00104882 0.000417862 0.00106877)
(-0.00130753 0.000623538 0.00163169)
(-0.00154352 0.000891135 0.00203931)
(-0.00170549 0.0011888 0.00208906)
(-0.00176278 0.00142396 0.00167645)
(-0.00168818 0.00149426 0.000914825)
(-0.00149237 0.00139682 0.000116762)
(-0.00125966 0.00119908 -0.000444556)
(-0.00105626 0.000958879 -0.000736221)
(-0.000876189 0.000715543 -0.000859869)
(-0.000695144 0.000494889 -0.000891142)
(-0.000502637 0.000308161 -0.000859045)
(-0.000296605 0.000156521 -0.000771319)
(-7.775e-05 3.79649e-05 -0.000629941)
(0.000149205 -5.00613e-05 -0.000436452)
(0.00037449 -0.000115301 -0.000189939)
(0.000591276 -0.00017883 0.000123633)
(0.000809327 -0.000272159 0.000538283)
(0.00104882 -0.000417862 0.00106877)
(0.00130753 -0.000623538 0.00163169)
(0.00154352 -0.000891135 0.00203931)
(0.00170549 -0.0011888 0.00208906)
(0.00159563 -0.00115353 0.00173492)
(0.00157062 -0.00119729 0.00117495)
(0.00146929 -0.00112516 0.000558652)
(0.00133125 -0.000968631 4.97713e-05)
(0.00119028 -0.000765779 -0.000281944)
(0.0010468 -0.000547739 -0.000460632)
(0.000887484 -0.000336836 -0.000531069)
(0.000705015 -0.000147376 -0.000521801)
(0.000499498 1.20055e-05 -0.000444311)
(0.000276904 0.000136712 -0.000299037)
(4.77372e-05 0.000227143 -8.02587e-05)
(-0.000177995 0.000291496 0.000219993)
(-0.000400335 0.000346946 0.000606489)
(-0.000632811 0.000414182 0.00106707)
(-0.000885552 0.000508098 0.00154776)
(-0.00114353 0.000639396 0.00194594)
(-0.00136932 0.00081496 0.00214985)
(-0.00152701 0.0010075 0.00208404)
(-0.00159563 0.00115353 0.00173492)
(-0.00157062 0.00119729 0.00117495)
(-0.00146929 0.00112516 0.000558652)
(-0.00133125 0.000968631 4.97713e-05)
(-0.00119028 0.000765779 -0.000281944)
(-0.0010468 0.000547739 -0.000460632)
(-0.000887484 0.000336836 -0.000531069)
(-0.000705015 0.000147376 -0.000521801)
(-0.000499498 -1.20055e-05 -0.000444311)
(-0.000276904 -0.000136712 -0.000299037)
(-4.77372e-05 -0.000227143 -8.02587e-05)
(0.000177995 -0.000291496 0.000219993)
(0.000400335 -0.000346946 0.000606489)
(0.000632811 -0.000414182 0.00106707)
(0.000885552 -0.000508098 0.00154776)
(0.00114353 -0.000639396 0.00194594)
(0.00136932 -0.00081496 0.00214985)
(0.00152701 -0.0010075 0.00208404)
(0.00140548 -0.000980482 0.00176677)
(0.00141697 -0.000984527 0.00137241)
(0.00139859 -0.000917558 0.000925992)
(0.00135311 -0.000785931 0.000483939)
(0.00127777 -0.000609591 0.000126695)
(0.00117419 -0.00041065 -9.915e-05)
(0.00103991 -0.000205776 -0.000201464)
(0.000871135 -1.04784e-05 -0.000205622)
(0.000670397 0.00015949 -0.0001266)
(0.000449118 0.000292521 3.57071e-05)
(0.000223679 0.000386545 0.000292391)
(4.02987e-06 0.000449981 0.000656636)
(-0.000216655 0.000494902 0.00112203)
(-0.000453849 0.000532449 0.001626)
(-0.000709786 0.000581957 0.00204613)
(-0.00096528 0.000668906 0.00227096)
(-0.00118596 0.000792846 0.00226839)
(-0.00133636 0.000911337 0.00207948)
(-0.00140548 0.000980482 0.00176677)
(-0.00141697 0.000984527 0.00137241)
(-0.00139859 0.000917558 0.000925992)
(-0.00135311 0.000785931 0.00048394)
(-0.00127777 0.000609591 0.000126695)
(-0.00117419 0.00041065 -9.91499e-05)
(-0.00103991 0.000205776 -0.000201464)
(-0.000871135 1.04784e-05 -0.000205622)
(-0.000670397 -0.00015949 -0.0001266)
(-0.000449118 -0.000292521 3.57072e-05)
(-0.000223679 -0.000386545 0.000292391)
(-4.02988e-06 -0.000449981 0.000656636)
(0.000216655 -0.000494902 0.00112203)
(0.000453849 -0.000532449 0.001626)
(0.000709786 -0.000581957 0.00204613)
(0.00096528 -0.000668906 0.00227096)
(0.00118596 -0.000792846 0.00226839)
(0.00133636 -0.000911337 0.00207948)
(0.00172649 -0.00133409 0.00189206)
(0.00162715 -0.00143174 0.00132825)
(0.00142041 -0.00140024 0.000677107)
(0.00117914 -0.00127784 0.000148007)
(0.000967722 -0.00110187 -0.000180763)
(0.000788089 -0.000900972 -0.00035327)
(0.000613394 -0.000699218 -0.00042288)
(0.000427266 -0.000513329 -0.000413021)
(0.000226849 -0.000351968 -0.000331695)
(1.71821e-05 -0.000219045 -0.000186222)
(-0.000191786 -0.000114659 1.03813e-05)
(-0.00039032 -3.06501e-05 0.000243203)
(-0.000580957 5.46966e-05 0.000512717)
(-0.000787176 0.000170604 0.000849077)
(-0.00103291 0.000336667 0.00127646)
(-0.00130338 0.000558362 0.00173903)
(-0.0015428 0.000829373 0.00209096)
(-0.00169451 0.0011123 0.00216933)
(-0.00172649 0.00133409 0.00189206)
(-0.00162715 0.00143174 0.00132825)
(-0.00142041 0.00140024 0.000677107)
(-0.00117914 0.00127784 0.000148007)
(-0.000967722 0.00110187 -0.000180763)
(-0.000788089 0.000900972 -0.00035327)
(-0.000613394 0.000699218 -0.00042288)
(-0.000427266 0.000513329 -0.000413021)
(-0.000226849 0.000351968 -0.000331695)
(-1.71821e-05 0.000219045 -0.000186222)
(0.000191786 0.000114659 1.03813e-05)
(0.00039032 3.06501e-05 0.000243203)
(0.000580957 -5.46966e-05 0.000512717)
(0.000787176 -0.000170604 0.000849077)
(0.00103291 -0.000336667 0.00127646)
(0.00130338 -0.000558362 0.00173903)
(0.0015428 -0.000829373 0.00209096)
(0.00169451 -0.0011123 0.00216933)
(0.00156328 -0.0011136 0.00201298)
(0.00150659 -0.00116949 0.00156763)
(0.00138022 -0.00113677 0.00104381)
(0.00122376 -0.00103162 0.000566879)
(0.00107099 -0.000876839 0.000219023)
(0.000925449 -0.000694459 1.01077e-05)
(0.000771557 -0.000504544 -8.52028e-05)
(0.000597947 -0.000323832 -8.94269e-05)
(0.000403474 -0.000164549 -1.45268e-05)
(0.000195068 -3.36255e-05 0.000133994)
(-1.62699e-05 6.90854e-05 0.00035255)
(-0.000223156 0.000153052 0.000637286)
(-0.000431521 0.000236242 0.000983283)
(-0.00065939 0.000337087 0.00137738)
(-0.000914374 0.000464577 0.00177929)
(-0.00117282 0.000620128 0.00211522)
(-0.00138954 0.000799316 0.00230151)
(-0.00152562 0.00097812 0.0022735)
(-0.00156328 0.0011136 0.00201298)
(-0.00150659 0.00116949 0.00156763)
(-0.00138022 0.00113677 0.00104381)
(-0.00122376 0.00103162 0.000566879)
(-0.00107099 0.000876839 0.000219023)
(-0.000925449 0.000694459 1.01077e-05)
(-0.000771557 0.000504544 -8.52028e-05)
(-0.000597947 0.000323832 -8.94269e-05)
(-0.000403474 0.000164549 -1.45268e-05)
(-0.000195068 3.36255e-05 0.000133994)
(1.62699e-05 -6.90854e-05 0.00035255)
(0.000223156 -0.000153052 0.000637286)
(0.000431521 -0.000236242 0.000983283)
(0.00065939 -0.000337087 0.00137738)
(0.000914374 -0.000464577 0.00177929)
(0.00117282 -0.000620128 0.00211522)
(0.00138954 -0.000799316 0.00230151)
(0.00152562 -0.00097812 0.0022735)
(0.00141039 -0.000990631 0.00210331)
(0.0013858 -0.000993302 0.00175358)
(0.00132488 -0.000940276 0.00134649)
(0.00124116 -0.00083575 0.000928755)
(0.00114011 -0.000690888 0.000572445)
(0.00102488 -0.000519677 0.000333413)
(0.000890451 -0.000335879 0.000218522)
(0.000729626 -0.000154951 0.000208707)
(0.000542558 7.37876e-06 0.00028818)
(0.000338149 0.000140653 0.000452246)
(0.000128771 0.00024466 0.000705029)
(-8.03259e-05 0.000329849 0.00105212)
(-0.000298161 0.000410185 0.00148111)
(-0.000537161 0.000495262 0.00193155)
(-0.000793178 0.000592874 0.00230033)
(-0.00104133 0.000708767 0.00250277)
(-0.00124479 0.000831811 0.00251613)
(-0.00137048 0.000933688 0.00236843)
(-0.00141039 0.000990631 0.00210331)
(-0.0013858 0.000993302 0.00175358)
(-0.00132488 0.000940276 0.00134649)
(-0.00124116 0.00083575 0.000928755)
(-0.00114011 0.000690888 0.000572445)
(-0.00102488 0.000519677 0.000333413)
(-0.000890451 0.000335879 0.000218522)
(-0.000729626 0.000154951 0.000208707)
(-0.000542558 -7.37876e-06 0.00028818)
(-0.000338149 -0.000140653 0.000452246)
(-0.000128771 -0.00024466 0.000705029)
(8.03259e-05 -0.000329849 0.00105212)
(0.000298161 -0.000410185 0.00148111)
(0.000537161 -0.000495262 0.00193155)
(0.000793178 -0.000592874 0.00230033)
(0.00104133 -0.000708767 0.00250277)
(0.00124479 -0.000831811 0.00251613)