/*--------------------------------*- C++ -*----------------------------------*\
| =========                 |                                                 |
| \\      /  F ield         | OpenFOAM: The Open Source CFD Toolbox           |
|  \\    /   O peration     | Version:  2312                                  |
|   \\  /    A nd           | Website:  www.openfoam.com                      |
|    \\/     M anipulation  |                                                 |
\*---------------------------------------------------------------------------*/
FoamFile
{
    version     2.0;
    format      ascii;
    arch        "LSB;label=32;scalar=64";
    class       volVectorField;
    location    "0.7";
    object      U;
}
// * * * * * * * * * * * * * * * * * * * * * * * * * * * * * * * * * * * * * //

dimensions      [0 1 -1 0 0 0 0];

internalField   nonuniform List<vector> 
1620
(
(-7.88984e-05 0.000149192 -0.000237543)
(-7.11689e-05 0.00025538 -0.000220901)
(-6.77405e-05 0.000313055 -0.000186371)
(-6.30059e-05 0.000331705 -0.000138767)
(-4.71833e-05 0.000326305 -7.61523e-05)
(-2.01048e-05 0.000308728 5.62089e-06)
(6.9308e-06 0.000288736 0.000110493)
(1.57386e-05 0.000273245 0.000238492)
(1.1371e-05 0.000256706 0.000352216)
(-4.74209e-06 0.000244233 0.000324691)
(-3.85046e-05 0.0002256 0.000186785)
(-4.11474e-05 0.000203144 6.42928e-05)
(-1.36142e-05 0.000192237 -2.48717e-05)
(2.00174e-05 0.000189816 -8.69929e-05)
(4.35693e-05 0.000183832 -0.000128744)
(5.43368e-05 0.000160024 -0.000158397)
(5.93764e-05 0.000104062 -0.000185416)
(6.10433e-05 6.26778e-06 -0.000210262)
(5.75067e-05 -0.000119886 -0.000204749)
(5.17576e-05 -0.000222597 -0.000168255)
(5.0046e-05 -0.000284371 -0.00013087)
(5.22409e-05 -0.000310123 -9.33246e-05)
(5.13445e-05 -0.000309772 -5.02224e-05)
(4.35886e-05 -0.00029426 3.07077e-06)
(3.1782e-05 -0.00027498 7.52919e-05)
(2.61314e-05 -0.000261105 0.000180114)
(1.77734e-05 -0.00024661 0.00029755)
(1.59112e-05 -0.000235341 0.000295434)
(3.41508e-05 -0.000219591 0.000189658)
(2.52563e-05 -0.000204067 8.64173e-05)
(-1.31032e-05 -0.000200061 4.78292e-06)
(-5.78586e-05 -0.000202136 -5.58536e-05)
(-8.87693e-05 -0.000196096 -9.8405e-05)
(-9.92852e-05 -0.000165737 -0.000131462)
(-9.70669e-05 -9.71604e-05 -0.000168444)
(-8.90296e-05 1.50183e-05 -0.000214296)
(9.80263e-05 0.000111962 -0.00015939)
(8.87506e-05 0.000209028 -0.000121039)
(6.86969e-05 0.000255605 -8.38047e-05)
(4.64932e-05 0.000265281 -4.09496e-05)
(2.90284e-05 0.000245575 7.58964e-06)
(1.77123e-05 0.00020582 5.76731e-05)
(9.73991e-06 0.000156201 0.000103562)
(1.95704e-06 0.000107494 0.000139322)
(-9.28861e-07 7.24504e-05 0.000158525)
(-1.26029e-05 6.06133e-05 0.0001492)
(-2.22893e-05 7.02649e-05 0.000117876)
(-2.86265e-05 9.23608e-05 7.8004e-05)
(-2.7561e-05 0.000120906 3.64128e-05)
(-2.69069e-05 0.000147892 -3.00826e-06)
(-3.39661e-05 0.000162603 -3.67969e-05)
(-5.08777e-05 0.000153882 -6.368e-05)
(-7.31327e-05 0.000112794 -8.73547e-05)
(-9.33619e-05 2.37328e-05 -0.000116915)
(-9.50414e-05 -9.45624e-05 -0.000108412)
(-7.54053e-05 -0.000186312 -6.46328e-05)
(-4.75561e-05 -0.00023279 -3.2219e-05)
(-1.82946e-05 -0.000245084 -1.70986e-06)
(5.98957e-06 -0.000229616 2.99817e-05)
(2.26265e-05 -0.000195166 6.19127e-05)
(3.14207e-05 -0.000150163 9.30068e-05)
(3.26929e-05 -0.000102873 0.000122511)
(2.23614e-05 -6.53449e-05 0.000144588)
(1.75863e-05 -4.87953e-05 0.000140781)
(1.39107e-05 -5.66186e-05 0.000114707)
(8.04391e-06 -8.22097e-05 7.78526e-05)
(-3.30362e-06 -0.000118186 3.60949e-05)
(-1.09734e-05 -0.00015361 -5.95904e-06)
(-5.24526e-06 -0.00017372 -4.4004e-05)
(1.71773e-05 -0.000164099 -7.70254e-05)
(5.0349e-05 -0.000115349 -0.000110231)
(8.34609e-05 -1.57195e-05 -0.000154154)
(0.0002714 6.99348e-05 -5.39476e-05)
(0.000237395 0.000162292 -2.62286e-05)
(0.000176174 0.000204309 3.53435e-06)
(0.000109302 0.000200224 3.29499e-05)
(4.82725e-05 0.000159771 5.99598e-05)
(-1.18768e-06 9.68269e-05 7.85629e-05)
(-3.55154e-05 2.70712e-05 8.00591e-05)
(-4.96623e-05 -3.44586e-05 5.79917e-05)
(-3.25063e-05 -7.45773e-05 2.2673e-05)
(7.12944e-06 -8.83827e-05 2.03983e-05)
(2.84977e-05 -7.047e-05 5.54555e-05)
(2.87879e-05 -2.48856e-05 7.11036e-05)
(1.36551e-05 3.43226e-05 6.46218e-05)
(-1.53424e-05 9.25463e-05 4.65758e-05)
(-5.83235e-05 0.000134864 2.67993e-05)
(-0.000113574 0.000146682 1.20231e-05)
(-0.000173037 0.000116011 4.21335e-06)
(-0.000214644 3.63853e-05 1.25566e-06)
(-0.000213438 -6.27791e-05 1.08402e-05)
(-0.00016868 -0.000144229 2.82432e-05)
(-0.000103478 -0.000179686 4.32663e-05)
(-3.91978e-05 -0.000174181 5.85812e-05)
(1.45615e-05 -0.000137765 7.47633e-05)
(5.41203e-05 -8.22549e-05 8.73911e-05)
(7.66326e-05 -1.88906e-05 8.78803e-05)
(7.67844e-05 4.12189e-05 6.75282e-05)
(4.59708e-05 8.47214e-05 3.27651e-05)
(-3.09747e-06 0.00010263 2.70205e-05)
(-3.14286e-05 8.55339e-05 5.64388e-05)
(-4.07856e-05 3.62951e-05 6.58202e-05)
(-3.24831e-05 -3.20605e-05 5.27102e-05)
(-3.77518e-06 -0.000102533 2.72902e-05)
(4.75373e-05 -0.000155177 -1.14741e-06)
(0.00011849 -0.000170707 -2.67638e-05)
(0.000197061 -0.000135271 -4.79058e-05)
(0.000257243 -4.42362e-05 -6.26055e-05)
(2.95602e-08 0.00040705 -0.000607673)
(-2.14339e-05 0.000715299 -0.00056498)
(-7.1827e-05 0.00088861 -0.000471337)
(-0.000116872 0.000945051 -0.000339396)
(-0.000130064 0.000916259 -0.000164635)
(-0.000109 0.00083164 5.80856e-05)
(-7.16942e-05 0.000721866 0.000327265)
(-4.43234e-05 0.000617642 0.000623947)
(-2.18342e-05 0.000534013 0.000860737)
(-5.24645e-06 0.000487232 0.000838899)
(-3.37471e-05 0.00047159 0.000568734)
(-2.96908e-05 0.000481946 0.000267923)
(1.13178e-05 0.000514437 1.70367e-05)
(5.52691e-05 0.000545062 -0.000171177)
(7.39236e-05 0.000542185 -0.00030261)
(5.94082e-05 0.000473395 -0.000395034)
(2.5837e-05 0.000305499 -0.000470329)
(-4.61451e-06 1.6503e-05 -0.000525408)
(-4.00209e-06 -0.000340282 -0.00050573)
(3.27259e-05 -0.000639655 -0.000410338)
(8.69412e-05 -0.000812471 -0.000301692)
(0.00013817 -0.000871692 -0.000191736)
(0.000170106 -0.000848796 -7.04224e-05)
(0.000177945 -0.000774914 7.52683e-05)
(0.0001663 -0.00067982 0.000261617)
(0.000145483 -0.000590603 0.000498461)
(0.000100426 -0.000516306 0.000728181)
(4.50864e-05 -0.00046993 0.000758465)
(3.03394e-05 -0.000454665 0.000562937)
(-1.28532e-05 -0.000475724 0.000314625)
(-9.20746e-05 -0.00052532 8.71058e-05)
(-0.000169407 -0.000571436 -9.85681e-05)
(-0.000203185 -0.000573311 -0.000238056)
(-0.000175285 -0.000491853 -0.000345842)
(-0.000104913 -0.000294526 -0.000450554)
(-3.18943e-05 3.00895e-05 -0.000558316)
(0.00023147 0.000313446 -0.000495255)
(0.000201176 0.000583467 -0.000403839)
(0.000135504 0.000724848 -0.000281747)
(6.33642e-05 0.000759422 -0.000137188)
(6.85894e-06 0.000707032 2.5752e-05)
(-2.65477e-05 0.000595585 0.000197568)
(-4.11942e-05 0.000457687 0.000363205)
(-4.41838e-05 0.000326007 0.000502486)
(-3.25353e-05 0.000229099 0.000585297)
(-2.27042e-05 0.000188643 0.000572203)
(-1.86686e-05 0.000208189 0.000466831)
(-1.43944e-05 0.000268792 0.000317226)
(-6.13656e-06 0.000349829 0.000160039)
(-9.01449e-06 0.000424754 1.44633e-05)
(-3.7039e-05 0.000461143 -0.000109526)
(-9.1681e-05 0.000426914 -0.000210302)
(-0.000157533 0.000297311 -0.000293839)
(-0.000209488 4.68961e-05 -0.000359978)
(-0.000210041 -0.00026801 -0.000334421)
(-0.000153425 -0.000525635 -0.00022402)
(-6.94695e-05 -0.000661825 -0.000111446)
(1.64345e-05 -0.000695989 -2.09915e-06)
(8.51418e-05 -0.000650436 0.000107269)
(0.000128133 -0.000552664 0.000217605)
(0.000143555 -0.000429901 0.000328023)
(0.000131716 -0.000307379 0.000433778)
(9.03794e-05 -0.000209256 0.000513111)
(4.34642e-05 -0.00016007 0.000520852)
(3.90841e-06 -0.00017512 0.000444586)
(-3.4985e-05 -0.00024433 0.000317277)
(-7.41622e-05 -0.000345858 0.00016826)
(-9.22647e-05 -0.000445334 1.68318e-05)
(-6.67694e-05 -0.000498232 -0.000124155)
(7.15898e-06 -0.000461872 -0.000251259)
(0.000107524 -0.000309772 -0.000370572)
(0.000197052 -2.70699e-05 -0.000480882)
(0.000476526 0.000209972 -0.000354379)
(0.000431521 0.000441119 -0.000247423)
(0.000335074 0.000561155 -0.000104357)
(0.000216995 0.000574621 4.6584e-05)
(0.000101505 0.000498335 0.000189586)
(5.40961e-06 0.00036207 0.000306048)
(-6.05158e-05 0.000203328 0.000372854)
(-8.73579e-05 5.94974e-05 0.00037326)
(-5.75527e-05 -3.87532e-05 0.000329913)
(-1.09635e-07 -7.51248e-05 0.000326174)
(3.94267e-05 -4.19928e-05 0.000350672)
(4.95638e-05 4.99866e-05 0.00033249)
(2.91479e-05 0.000173374 0.000265035)
(-2.33324e-05 0.000293946 0.000166927)
(-0.000107758 0.000373632 5.98645e-05)
(-0.000215332 0.000376561 -3.95023e-05)
(-0.000324081 0.000277574 -0.0001199)
(-0.000396467 6.98771e-05 -0.000164278)
(-0.000396992 -0.000186469 -0.000134869)
(-0.00032183 -0.000397845 -4.47824e-05)
(-0.000201966 -0.000505959 6.01477e-05)
(-7.23835e-05 -0.000514445 0.000161701)
(4.19054e-05 -0.000442768 0.000253439)
(0.000125247 -0.000318468 0.000325545)
(0.000167498 -0.000171043 0.000361116)
(0.000161062 -3.00951e-05 0.000345715)
(9.55376e-05 7.42181e-05 0.000301657)
(1.08702e-05 0.000118287 0.000302756)
(-5.25098e-05 8.6289e-05 0.000328251)
(-8.88841e-05 -1.715e-05 0.000307592)
(-8.92978e-05 -0.000166892 0.000232412)
(-4.27758e-05 -0.00032159 0.000117528)
(5.50316e-05 -0.000428293 -1.83335e-05)
(0.000191574 -0.000437361 -0.000158523)
(0.000335799 -0.000320514 -0.000286384)
(0.000443663 -8.01075e-05 -0.00037091)
(3.2439e-05 0.000570948 -0.000821976)
(-3.71976e-06 0.00100041 -0.000778739)
(-8.04908e-05 0.00125545 -0.000653166)
(-0.000144465 0.00135219 -0.000450843)
(-0.000167155 0.00132237 -0.000167526)
(-0.000151306 0.00120075 0.000191366)
(-0.00011659 0.00102735 0.000605351)
(-8.66598e-05 0.000845971 0.00102821)
(-5.93711e-05 0.000696883 0.0013542)
(-3.7311e-05 0.000623205 0.00138109)
(-5.30298e-05 0.000625612 0.00105214)
(-5.0763e-05 0.000677648 0.000610563)
(-1.01337e-05 0.000747652 0.000201949)
(3.87778e-05 0.000795728 -0.000125516)
(6.20057e-05 0.00078114 -0.000360454)
(4.14955e-05 0.000664988 -0.000515872)
(-9.16294e-06 0.000411295 -0.000617956)
(-5.25046e-05 -3.81985e-07 -0.000670003)
(-4.70331e-05 -0.000491401 -0.000630121)
(1.65678e-05 -0.000907587 -0.000502533)
(0.000110392 -0.00115511 -0.00034583)
(0.00019512 -0.00124504 -0.000175094)
(0.000248352 -0.00121582 1.89624e-05)
(0.000267424 -0.00110764 0.000249182)
(0.000258747 -0.000958309 0.00052647)
(0.000230647 -0.000802723 0.000844056)
(0.000172038 -0.000669045 0.00113541)
(9.55599e-05 -0.000592992 0.00122068)
(4.26207e-05 -0.000589333 0.00100312)
(-1.73246e-05 -0.000650755 0.000652583)
(-0.000112067 -0.000744613 0.000290598)
(-0.000207528 -0.000817596 -2.95768e-05)
(-0.00025221 -0.000815111 -0.000281983)
(-0.000212065 -0.00068924 -0.000470322)
(-0.00010815 -0.000404 -0.000624542)
(-6.17859e-06 5.08522e-05 -0.00075813)
(0.000241161 0.000465339 -0.000763204)
(0.000208411 0.0008405 -0.000636231)
(0.000131513 0.00104309 -0.000439119)
(4.81756e-05 0.00110209 -0.000194841)
(-1.52135e-05 0.00103839 8.60472e-05)
(-5.16852e-05 0.000888664 0.000384497)
(-6.69667e-05 0.00069797 0.000672474)
(-6.97694e-05 0.000511554 0.000913601)
(-5.99081e-05 0.000368911 0.0010605)
(-4.86185e-05 0.000301082 0.00105705)
(-3.54791e-05 0.00032008 0.000895547)
(-2.27594e-05 0.000402353 0.000644675)
(-6.55193e-06 0.000512404 0.000369641)
(-3.56395e-06 0.000610157 0.00010925)
(-3.15617e-05 0.000649435 -0.000115016)
(-9.40195e-05 0.000585732 -0.000295345)
(-0.000170261 0.000390494 -0.000433896)
(-0.000226915 3.65927e-05 -0.00051669)
(-0.000223608 -0.000395421 -0.000470006)
(-0.000151884 -0.000751403 -0.000309277)
(-4.20484e-05 -0.000945937 -0.000124406)
(7.01003e-05 -0.00100158 6.14952e-05)
(0.000157835 -0.000944897 0.000247072)
(0.000209382 -0.000812793 0.000432297)
(0.000222556 -0.000644158 0.000614389)
(0.000199906 -0.000474812 0.000783193)
(0.000144211 -0.000336281 0.000909603)
(7.64865e-05 -0.000258654 0.000936445)
(8.75188e-06 -0.000268414 0.000830919)
(-5.44595e-05 -0.000358987 0.000630221)
(-0.000114911 -0.000495575 0.000379817)
(-0.000148564 -0.000628084 0.000113456)
(-0.000125829 -0.000693576 -0.000144059)
(-3.67777e-05 -0.000631039 -0.000378412)
(8.85747e-05 -0.000407357 -0.000584646)
(0.000198247 -7.34243e-06 -0.000743064)
(0.000506796 0.000346922 -0.000678836)
(0.000464675 0.000667611 -0.000497212)
(0.000369009 0.000833987 -0.000236554)
(0.000246467 0.000858656 4.83319e-05)
(0.0001232 0.000761791 0.000323743)
(1.9097e-05 0.000582541 0.000558497)
(-5.37237e-05 0.000372008 0.000719287)
(-8.7573e-05 0.000180964 0.000780613)
(-7.28854e-05 4.84915e-05 0.000757498)
(-2.48525e-05 -4.76998e-06 0.000740865)
(1.96649e-05 2.52705e-05 0.000725191)
(4.08654e-05 0.000129881 0.000650526)
(2.94108e-05 0.00027963 0.00050867)
(-2.23208e-05 0.000429796 0.000320552)
(-0.00011578 0.000525616 0.00011435)
(-0.000237505 0.000514618 -8.38588e-05)
(-0.000357091 0.000364371 -0.000247016)
(-0.000434211 7.00445e-05 -0.000331835)
(-0.00043149 -0.000288697 -0.000281503)
(-0.00034449 -0.00058068 -0.000117686)
(-0.000206236 -0.000735888 8.5286e-05)
(-5.31299e-05 -0.000758535 0.000283578)
(8.24681e-05 -0.000670668 0.000458536)
(0.000177132 -0.000508857 0.000596598)
(0.000218069 -0.000315462 0.000680768)
(0.000202028 -0.000131974 0.000696806)
(0.000131313 4.78559e-06 0.000663305)
(3.52987e-05 6.69414e-05 0.000660962)
(-5.02052e-05 4.10941e-05 0.000663777)
(-0.000110608 -7.48115e-05 0.000602726)
(-0.00013067 -0.000257332 0.000460822)
(-9.15723e-05 -0.000454498 0.000248676)
(1.46456e-05 -0.000590263 -1.15307e-05)
(0.000171071 -0.00058915 -0.000289449)
(0.00033669 -0.000411814 -0.00054168)
(0.000463111 -6.53948e-05 -0.000699851)
(1.18155e-05 0.000637063 -0.000793633)
(-2.99371e-05 0.00110397 -0.000782547)
(-0.000106802 0.00140003 -0.000664975)
(-0.000168175 0.00152806 -0.000430593)
(-0.000193783 0.00151194 -8.12087e-05)
(-0.000187876 0.00138582 0.00036118)
(-0.000163146 0.00119227 0.000857477)
(-0.00013539 0.000979412 0.00134642)
(-0.000107277 0.000800325 0.00172544)
(-7.28177e-05 0.000712655 0.00180641)
(-5.18673e-05 0.000722243 0.00148588)
(-5.84985e-05 0.000793821 0.000983791)
(-3.83864e-05 0.00087808 0.000481658)
(-5.89685e-06 0.000921114 5.88441e-05)
(1.21666e-05 0.000879126 -0.000249571)
(-4.92082e-06 0.000717275 -0.000441496)
(-4.867e-05 0.000411503 -0.000538606)
(-8.08129e-05 -4.22232e-05 -0.000559423)
(-6.0871e-05 -0.000559046 -0.000503123)
(2.20192e-05 -0.000999184 -0.000381548)
(0.000138528 -0.00127424 -0.000222373)
(0.000242805 -0.00138515 -3.31276e-05)
(0.000309963 -0.00136398 0.000191946)
(0.000337298 -0.00125012 0.000459407)
(0.000330627 -0.00108315 0.000770892)
(0.000297008 -0.000900868 0.00111045)
(0.00023439 -0.00074204 0.00142002)
(0.00014187 -0.000653086 0.00154547)
(3.96038e-05 -0.000653196 0.00136253)
(-2.42859e-05 -0.000728259 0.000988412)
(-0.000105971 -0.000836394 0.000560887)
(-0.000188231 -0.000909162 0.000157816)
(-0.000231432 -0.000887424 -0.000172305)
(-0.000199611 -0.000727623 -0.000413968)
(-0.000105789 -0.000403866 -0.000586305)
(-1.56908e-05 8.44136e-05 -0.00071561)
(0.000143975 0.000555415 -0.000828703)
(0.000119036 0.000967351 -0.000698178)
(5.62942e-05 0.00119836 -0.000463747)
(-9.89578e-06 0.00127516 -0.000156534)
(-5.88035e-05 0.00121939 0.000203543)
(-8.63038e-05 0.00106858 0.000587613)
(-9.66682e-05 0.000869633 0.000957436)
(-9.64306e-05 0.000670013 0.00126663)
(-8.57466e-05 0.000512218 0.0014603)
(-6.82649e-05 0.000428112 0.00147453)
(-4.283e-05 0.000435204 0.00129443)
(-2.63678e-05 0.000513378 0.000990355)
(-8.93529e-06 0.000617944 0.00064106)
(-8.96397e-07 0.000704125 0.000301774)
(-1.80094e-05 0.000722946 6.81155e-06)
(-6.57458e-05 0.000628569 -0.000226253)
(-0.000125861 0.000394485 -0.000390532)
(-0.000166978 1.64254e-06 -0.000464077)
(-0.000154095 -0.000462509 -0.000399991)
(-7.74245e-05 -0.00084535 -0.000223712)
(3.65579e-05 -0.00106369 -7.94456e-06)
(0.000150415 -0.00113551 0.000215798)
(0.00023628 -0.00108584 0.000439997)
(0.000281747 -0.000952312 0.000661784)
(0.00028505 -0.000777233 0.000876398)
(0.000250684 -0.000599636 0.00107173)
(0.000184002 -0.000452563 0.00121966)
(9.78473e-05 -0.000361311 0.0012632)
(4.99914e-06 -0.000355579 0.00116157)
(-7.31966e-05 -0.000437946 0.000938882)
(-0.00014283 -0.000567453 0.000639201)
(-0.000186869 -0.000690061 0.000303246)
(-0.000179203 -0.000740378 -3.51184e-05)
(-0.000107127 -0.000654811 -0.000349012)
(3.58386e-06 -0.000398507 -0.000615582)
(0.00010291 4.08432e-05 -0.000798847)
(0.000366166 0.000459364 -0.00085101)
(0.000339982 0.000817009 -0.000620885)
(0.000269979 0.000999881 -0.000278425)
(0.000178647 0.00102901 0.000103686)
(8.50795e-05 0.000931243 0.000477499)
(4.1195e-06 0.000748826 0.000803377)
(-5.47707e-05 0.000534838 0.0010429)
(-8.54354e-05 0.000340892 0.00116478)
(-8.43187e-05 0.000203577 0.0011723)
(-4.1461e-05 0.000140518 0.0011412)
(4.04842e-06 0.000151204 0.00109005)
(3.42422e-05 0.000234073 0.00097487)
(3.77413e-05 0.000365595 0.000781031)
(4.76789e-06 0.000502597 0.000529038)
(-6.81349e-05 0.000586633 0.00025047)
(-0.000169128 0.000558043 -2.03038e-05)
(-0.000269081 0.000378966 -0.000239893)
(-0.000331585 4.60477e-05 -0.000345899)
(-0.000321221 -0.000353192 -0.000277719)
(-0.000234431 -0.000675387 -6.63149e-05)
(-0.000103767 -0.000850509 0.00019839)
(3.71748e-05 -0.000884705 0.000457608)
(0.000157871 -0.000801181 0.000683116)
(0.000235122 -0.000638897 0.000859532)
(0.000257972 -0.000444644 0.000973714)
(0.000227531 -0.000262197 0.00101482)
(0.000156572 -0.000124354 0.000994339)
(4.67628e-05 -5.38587e-05 0.000979304)
(-5.47661e-05 -5.87482e-05 0.000967)
(-0.000134503 -0.000148743 0.000891885)
(-0.000178687 -0.000308733 0.000717787)
(-0.000167099 -0.000491725 0.000445492)
(-8.86681e-05 -0.000618974 9.47954e-05)
(4.37532e-05 -0.000604548 -0.000293256)
(0.000192943 -0.000398486 -0.000648022)
(0.00031499 -5.48657e-06 -0.000867959)
(-2.4706e-05 0.000631078 -0.000522726)
(-7.92146e-05 0.00107437 -0.000559926)
(-0.000151891 0.00137551 -0.000484204)
(-0.000205048 0.00152083 -0.000264575)
(-0.000228616 0.00152685 9.44698e-05)
(-0.000226074 0.00142555 0.000559383)
(-0.000203761 0.00125653 0.00108046)
(-0.000172632 0.0010626 0.00159154)
(-0.000139208 0.000894145 0.00199461)
(-8.78862e-05 0.00080766 0.00212391)
(-3.33267e-05 0.000812217 0.00186062)
(-5.19635e-05 0.000869564 0.00135531)
(-5.71544e-05 0.000935787 0.000816556)
(-5.13671e-05 0.000950152 0.000352562)
(-4.91473e-05 0.000870491 1.80578e-05)
(-6.39538e-05 0.00067176 -0.000172985)
(-8.97315e-05 0.000347388 -0.000240588)
(-9.54273e-05 -8.6264e-05 -0.00022373)
(-4.7703e-05 -0.000552945 -0.000161142)
(5.71906e-05 -0.000950964 -6.9758e-05)
(0.00018564 -0.00121185 5.42836e-05)
(0.000294932 -0.00132825 0.000217794)
(0.000363194 -0.00132273 0.00042643)
(0.000388079 -0.00122887 0.000681762)
(0.000375654 -0.00108262 0.000978919)
(0.000334104 -0.00091863 0.00129879)
(0.000267003 -0.000774461 0.00159128)
(0.000163319 -0.000692155 0.00173984)
(3.50328e-05 -0.000687149 0.00163131)
(-2.99666e-05 -0.000741092 0.00128997)
(-8.91359e-05 -0.000824856 0.000859414)
(-0.000141269 -0.000869554 0.000438244)
(-0.000167855 -0.000819378 8.94691e-05)
(-0.000145964 -0.000640771 -0.000158601)
(-8.1956e-05 -0.000321517 -0.000318092)
(-2.55887e-05 0.000127667 -0.000430111)
(-1.8145e-05 0.000592196 -0.000646635)
(-3.5921e-05 0.000989424 -0.00054084)
(-7.56779e-05 0.00122267 -0.000314192)
(-0.000112198 0.00130792 3.81358e-06)
(-0.000134058 0.00126975 0.000388015)
(-0.000140429 0.00114361 0.000804844)
(-0.000134435 0.000971199 0.00121126)
(-0.000120892 0.000793924 0.00155532)
(-9.984e-05 0.000649046 0.00177737)
(-6.88691e-05 0.000563645 0.00181323)
(-3.31215e-05 0.000556696 0.00164458)
(-1.48737e-05 0.000613611 0.00132844)
(1.43216e-06 0.000687683 0.00094928)
(1.33858e-05 0.000737448 0.000576993)
(1.03856e-05 0.000720219 0.000256838)
(-1.26009e-05 0.00059777 1.31647e-05)
(-4.33344e-05 0.000348258 -0.000142229)
(-5.78408e-05 -3.45716e-05 -0.000191148)
(-2.85076e-05 -0.000469253 -0.000119199)
(5.18489e-05 -0.00082823 4.20822e-05)
(0.000158314 -0.00104127 0.000243897)
(0.000256956 -0.00111865 0.000458188)
(0.00032398 -0.00108383 0.000675344)
(0.000349273 -0.000971304 0.000891119)
(0.000332874 -0.000820405 0.00109999)
(0.000281339 -0.000666704 0.00128971)
(0.000201401 -0.000537955 0.00143522)
(9.92498e-05 -0.000450807 0.00149102)
(-9.22641e-06 -0.000429967 0.00141784)
(-9.72487e-05 -0.000483955 0.00121521)
(-0.000170541 -0.000576088 0.000918958)
(-0.000220958 -0.000658179 0.000572728)
(-0.000231431 -0.000674038 0.000214407)
(-0.000191519 -0.000569582 -0.000123687)
(-0.000117425 -0.000311582 -0.00040917)
(-4.71081e-05 0.000107063 -0.000599898)
(9.06896e-05 0.000537781 -0.000770811)
(9.25862e-05 0.000886726 -0.000532072)
(6.45873e-05 0.00106422 -0.000161445)
(2.45838e-05 0.00109257 0.000258745)
(-1.72403e-05 0.00100584 0.000675172)
(-5.39177e-05 0.000845437 0.00104697)
(-8.05372e-05 0.000657998 0.00133466)
(-9.25569e-05 0.000487198 0.00150137)
(-8.76659e-05 0.000362847 0.00153509)
(-4.15386e-05 0.000298759 0.00149063)
(7.25438e-06 0.000294832 0.00141916)
(4.69391e-05 0.000349468 0.00128787)
(6.90198e-05 0.000442238 0.00107206)
(6.52533e-05 0.000539061 0.000793513)
(3.11396e-05 0.000590437 0.000486924)
(-2.69293e-05 0.00054097 0.000191413)
(-8.78595e-05 0.000350982 -4.16387e-05)
(-0.000122496 1.89211e-05 -0.000145178)
(-0.00010255 -0.000370872 -6.65727e-05)
(-2.54011e-05 -0.000684582 0.000156412)
(8.12195e-05 -0.000857869 0.000431916)
(0.000187493 -0.00089723 0.000699706)
(0.000269039 -0.000827719 0.000929973)
(0.000308241 -0.000687097 0.0011086)
(0.000298487 -0.000519286 0.00122696)
(0.000244012 -0.000362796 0.00127736)
(0.000160339 -0.000241952 0.00126213)
(3.81102e-05 -0.000170705 0.0012274)
(-7.61058e-05 -0.000158722 0.00121215)
(-0.000173421 -0.000214189 0.00115248)
(-0.000244709 -0.00032568 0.000987601)
(-0.000272722 -0.000458376 0.000709638)
(-0.000244984 -0.000547284 0.000332907)
(-0.000166447 -0.000513762 -0.000100574)
(-6.17428e-05 -0.000303144 -0.000507903)
(3.57715e-05 8.41622e-05 -0.000768928)
(-5.13301e-05 0.000584158 -5.95974e-05)
(-0.00012643 0.000962226 -0.000142257)
(-0.000201484 0.00123848 -0.000126865)
(-0.000248268 0.00138871 3.85121e-05)
(-0.000265683 0.00142235 0.0003551)
(-0.000258046 0.00136608 0.000786956)
(-0.00022872 0.00125233 0.00128179)
(-0.000185544 0.00111387 0.00177513)
(-0.000136836 0.000989201 0.00217691)
(-7.17561e-05 0.000921361 0.0023539)
(-1.09811e-05 0.000916007 0.00218072)
(-3.47125e-05 0.000936395 0.00171149)
(-6.04311e-05 0.000960184 0.00117884)
(-8.08175e-05 0.000930062 0.000718695)
(-9.70541e-05 0.000809491 0.000398668)
(-0.000110989 0.000586064 0.000237047)
(-0.000114961 0.000270028 0.000208974)
(-8.6432e-05 -0.000107723 0.000257184)
(-4.81563e-06 -0.00048736 0.00031914)
(0.000120211 -0.000807498 0.000374608)
(0.000250346 -0.00102447 0.000445254)
(0.000349791 -0.00113011 0.000552267)
(0.000404168 -0.00114011 0.000706578)
(0.000414456 -0.00108043 0.000909569)
(0.000388666 -0.000979489 0.00115407)
(0.000336743 -0.000864373 0.00142171)
(0.000264899 -0.000763377 0.00167373)
(0.000166061 -0.000705132 0.00183755)
(4.87642e-05 -0.000694922 0.00181237)
(-2.6199e-05 -0.000712901 0.00154162)
(-6.6241e-05 -0.000745653 0.00115862)
(-8.89655e-05 -0.000744138 0.000775619)
(-9.4552e-05 -0.000663662 0.000462205)
(-7.60676e-05 -0.000482096 0.000250517)
(-3.93714e-05 -0.000197676 0.000127498)
(-1.93045e-05 0.000173672 4.03499e-05)
(-0.000200564 0.000591035 -0.000235582)
(-0.000216592 0.000938562 -0.000172572)
(-0.000235535 0.00115208 8.78003e-06)
(-0.000240992 0.00123773 0.000288803)
(-0.000230314 0.00122094 0.000644393)
(-0.000206561 0.00113379 0.00104297)
(-0.000173588 0.00100985 0.00144151)
(-0.000136182 0.000880005 0.00178708)
(-9.60034e-05 0.000770716 0.00201986)
(-5.01799e-05 0.000701231 0.00208132)
(-9.05262e-06 0.00068544 0.00194519)
(1.33243e-05 0.000712693 0.00164634)
(3.02694e-05 0.000744242 0.00127346)
(4.62263e-05 0.000746875 0.000908553)
(5.6966e-05 0.000688682 0.00060436)
(5.99898e-05 0.000543199 0.000387388)
(6.20677e-05 0.000295718 0.000267078)
(7.85947e-05 -4.85815e-05 0.000248838)
(0.000127995 -0.000420825 0.000320617)
(0.000210821 -0.000726351 0.000449622)
(0.000302551 -0.000911797 0.00060672)
(0.000374811 -0.000982776 0.000774083)
(0.000410693 -0.000962149 0.000945508)
(0.000404844 -0.000880765 0.0011184)
(0.000360695 -0.000771781 0.0012883)
(0.000287565 -0.000662929 0.00144494)
(0.00019452 -0.000572034 0.00156983)
(8.59332e-05 -0.000507106 0.00163391)
(-2.67515e-05 -0.000479987 0.00160017)
(-0.000123648 -0.00049774 0.00144541)
(-0.000200148 -0.000539878 0.0011956)
(-0.000255889 -0.000569966 0.000892407)
(-0.000283359 -0.000545943 0.000572859)
(-0.000276655 -0.000427628 0.000267701)
(-0.00024394 -0.000187197 7.32307e-06)
(-0.000209815 0.000177039 -0.000171343)
(-0.000258269 0.000582216 -0.000415998)
(-0.000226651 0.000890652 -0.000210998)
(-0.000206104 0.00104644 0.000132031)
(-0.000187422 0.0010697 0.000530717)
(-0.000168038 0.00099825 0.000933298)
(-0.000148077 0.000871314 0.00130249)
(-0.00012781 0.000726466 0.00160061)
(-0.00010562 0.000595704 0.00178741)
(-7.94298e-05 0.000499125 0.00183862)
(-2.75729e-05 0.000444675 0.00178665)
(2.93142e-05 0.000436497 0.00170554)
(8.33574e-05 0.000468175 0.00157583)
(0.000127415 0.000519967 0.00136627)
(0.00015655 0.000568641 0.00109835)
(0.000166723 0.00057924 0.000808398)
(0.00015898 0.000507844 0.000536412)
(0.000144578 0.000318485 0.0003314)
(0.000142856 1.16169e-05 0.000250841)
(0.000172251 -0.000338571 0.000331576)
(0.000234187 -0.000619162 0.000534251)
(0.00030789 -0.000773927 0.000776678)
(0.000368574 -0.000809794 0.00100685)
(0.000398591 -0.000754239 0.00119993)
(0.000387524 -0.000643414 0.00134585)
(0.000334246 -0.000515415 0.00144049)
(0.00024651 -0.00039984 0.00147957)
(0.000138862 -0.000310132 0.00146135)
(1.29525e-05 -0.000248793 0.00141363)
(-0.000111995 -0.000229718 0.0014004)
(-0.00022857 -0.000255289 0.00137042)
(-0.000327171 -0.000316274 0.00124969)
(-0.000396264 -0.000389817 0.00101911)
(-0.00042461 -0.00042908 0.00068434)
(-0.000410951 -0.000371766 0.00028009)
(-0.000366215 -0.000168129 -0.000116003)
(-0.000308579 0.000181685 -0.000385604)
(-6.65433e-05 0.000522092 0.000524638)
(-0.000158234 0.000811377 0.000412175)
(-0.00023566 0.00103906 0.000365833)
(-0.000275744 0.00118238 0.000453439)
(-0.000283665 0.00124447 0.000689646)
(-0.000266105 0.00124259 0.00104587)
(-0.0002264 0.0011985 0.00147452)
(-0.000171298 0.00113316 0.0019189)
(-0.000110889 0.00107068 0.00230507)
(-4.49139e-05 0.00103672 0.00252995)
(5.50263e-06 0.00102783 0.00245215)
(-8.35666e-06 0.00101114 0.0020457)
(-4.99061e-05 0.00098523 0.00155251)
(-9.32423e-05 0.000907158 0.00112833)
(-0.000124418 0.000749227 0.000847555)
(-0.000134251 0.000512488 0.000728143)
(-0.000113174 0.000220942 0.000738116)
(-4.87455e-05 -8.78718e-05 0.000809149)
(6.23821e-05 -0.000371772 0.000869008)
(0.000197209 -0.000600876 0.0008934)
(0.000316416 -0.000756584 0.000908036)
(0.000392679 -0.000837761 0.00094418)
(0.000420787 -0.00085738 0.00102147)
(0.000407682 -0.000834023 0.001146)
(0.000365348 -0.000786643 0.00131277)
(0.000307194 -0.000731988 0.00150821)
(0.000242891 -0.000685733 0.00170876)
(0.000170725 -0.000662092 0.00187308)
(8.31582e-05 -0.000657204 0.00190829)
(-3.34275e-06 -0.000650021 0.00173537)
(-3.0844e-05 -0.000627759 0.00144056)
(-3.52207e-05 -0.000577224 0.00113585)
(-2.79172e-05 -0.000470699 0.00089408)
(-1.31591e-05 -0.000298204 0.000745663)
(1.87134e-06 -6.42037e-05 0.000673201)
(-7.64502e-06 0.000217612 0.000618373)
(-0.000366696 0.000564111 0.000336195)
(-0.000384746 0.000842983 0.000353796)
(-0.000387397 0.00102026 0.000469612)
(-0.000364832 0.0010992 0.00067847)
(-0.000321352 0.00110408 0.000966021)
(-0.00026422 0.00106197 0.0013059)
(-0.000199854 0.000997158 0.00165962)
(-0.000135132 0.00092877 0.0019785)
(-7.50483e-05 0.000870393 0.00220789)
(-1.87631e-05 0.00083146 0.0022945)
(2.60251e-05 0.000816008 0.00219911)
(5.58409e-05 0.000815755 0.00193704)
(7.39484e-05 0.000805884 0.00159856)
(9.24787e-05 0.000763092 0.00127139)
(0.000114639 0.000667739 0.00101102)
(0.000141145 0.000506052 0.00084304)
(0.000174502 0.000272206 0.000770496)
(0.000221162 -2.09984e-05 0.000783382)
(0.000288171 -0.000319839 0.000852317)
(0.000368468 -0.000558712 0.000944718)
(0.000439145 -0.000701825 0.00104354)
(0.000478172 -0.000755912 0.00114266)
(0.00047616 -0.00074446 0.0012433)
(0.00043384 -0.000695213 0.00134761)
(0.000359476 -0.000634297 0.00145451)
(0.000266547 -0.000579964 0.00155843)
(0.00016745 -0.000538834 0.00164962)
(6.52464e-05 -0.000509231 0.00171223)
(-4.15595e-05 -0.000486856 0.00171442)
(-0.000143301 -0.000475208 0.00162452)
(-0.000221525 -0.000472462 0.0014519)
(-0.000282087 -0.00045582 0.0012295)
(-0.000324904 -0.000398409 0.000989514)
(-0.000347655 -0.000273882 0.000757413)
(-0.000352937 -6.18609e-05 0.000555476)
(-0.000354277 0.000235573 0.000408568)
(-0.000598008 0.000591368 0.00015156)
(-0.000548285 0.000845471 0.000298301)
(-0.000487025 0.000970314 0.000572962)
(-0.000414422 0.000984948 0.000905213)
(-0.000334806 0.00092899 0.00125013)
(-0.000254681 0.000839252 0.00157626)
(-0.000180177 0.000744689 0.00185007)
(-0.000114587 0.000665019 0.00203162)
(-5.73797e-05 0.000608612 0.00208967)
(4.49897e-06 0.000575782 0.00203803)
(7.37767e-05 0.000572712 0.00195143)
(0.000142323 0.000588412 0.00183126)
(0.000206241 0.000606249 0.00164986)
(0.000264419 0.000612051 0.00142234)
(0.000313917 0.000585494 0.00118244)
(0.000351449 0.000496476 0.000967657)
(0.000379211 0.000316204 0.000817951)
(0.000406495 4.61007e-05 0.000772973)
(0.000442558 -0.000252204 0.00085187)
(0.000487481 -0.000488118 0.0010165)
(0.000526668 -0.000613422 0.00119914)
(0.000540127 -0.0006375 0.00136204)
(0.000516372 -0.000591338 0.00148905)
(0.000452005 -0.000510355 0.00157591)
(0.000352098 -0.000426827 0.00162357)
(0.000229377 -0.000360613 0.00163242)
(9.88075e-05 -0.000313193 0.00160249)
(-2.88244e-05 -0.000275237 0.00155083)
(-0.000164168 -0.000258907 0.00153872)
(-0.000293294 -0.000263718 0.00154157)
(-0.000410395 -0.000285769 0.00148784)
(-0.000510985 -0.000310943 0.00134174)
(-0.000586225 -0.000308136 0.00109761)