/*--------------------------------*- C++ -*----------------------------------*\
| =========                 |                                                 |
| \\      /  F ield         | OpenFOAM: The Open Source CFD Toolbox           |
|  \\    /   O peration     | Version:  2312                                  |
|   \\  /    A nd           | Website:  www.openfoam.com                      |
|    \\/     M anipulation  |                                                 |
\*---------------------------------------------------------------------------*/
FoamFile
{
    version     2.0;
    format      ascii;
    arch        "LSB;label=32;scalar=64";
    class       volVectorField;
    location    "0.2";
    object      D;
}
// * * * * * * * * * * * * * * * * * * * * * * * * * * * * * * * * * * * * * //

dimensions      [0 1 0 0 0 0 0];

internalField   nonuniform List<vector> 
1620
(
(6.31677e-05 0.000191009 1.56268e-05)
(2.90396e-05 0.000199076 1.56268e-05)
(-5.97065e-06 0.000201095 1.56269e-05)
(-4.07996e-05 0.000197003 1.5627e-05)
(-7.43891e-05 0.000186925 1.5627e-05)
(-0.000105718 0.000171168 1.56269e-05)
(-0.000133835 0.00015021 1.5627e-05)
(-0.000157885 0.000124687 1.56269e-05)
(-0.000177139 9.53765e-05 1.56268e-05)
(-0.000191009 6.31677e-05 1.56268e-05)
(-0.000199076 2.90396e-05 1.56268e-05)
(-0.000201095 -5.97067e-06 1.56269e-05)
(-0.000197003 -4.07996e-05 1.5627e-05)
(-0.000186925 -7.43891e-05 1.5627e-05)
(-0.000171168 -0.000105718 1.56269e-05)
(-0.00015021 -0.000133835 1.5627e-05)
(-0.000124687 -0.000157885 1.56269e-05)
(-9.53765e-05 -0.000177139 1.56268e-05)
(-6.31677e-05 -0.000191009 1.56268e-05)
(-2.90396e-05 -0.000199076 1.56268e-05)
(5.97068e-06 -0.000201095 1.56269e-05)
(4.07996e-05 -0.000197003 1.5627e-05)
(7.43891e-05 -0.000186925 1.5627e-05)
(0.000105718 -0.000171168 1.56269e-05)
(0.000133835 -0.00015021 1.5627e-05)
(0.000157885 -0.000124687 1.56269e-05)
(0.000177139 -9.53765e-05 1.56268e-05)
(0.000191009 -6.31677e-05 1.56268e-05)
(0.000199076 -2.90396e-05 1.56268e-05)
(0.000201095 5.97066e-06 1.56269e-05)
(0.000197003 4.07996e-05 1.5627e-05)
(0.000186925 7.43891e-05 1.5627e-05)
(0.000171168 0.000105718 1.56269e-05)
(0.00015021 0.000133835 1.5627e-05)
(0.000124687 0.000157885 1.56269e-05)
(9.53765e-05 0.000177139 1.56268e-05)
(3.31532e-05 0.000193476 2.42983e-05)
(-9.47272e-07 0.000196294 2.42984e-05)
(-3.50188e-05 0.000193147 2.42984e-05)
(-6.80263e-05 0.000184132 2.42984e-05)
(-9.89673e-05 0.000169522 2.42984e-05)
(-0.000126901 0.000149761 2.42984e-05)
(-0.000150979 0.00012545 2.42984e-05)
(-0.000170469 9.73266e-05 2.42984e-05)
(-0.00018478 6.62463e-05 2.42983e-05)
(-0.000193476 3.31532e-05 2.42983e-05)
(-0.000196294 -9.47288e-07 2.42984e-05)
(-0.000193147 -3.50188e-05 2.42984e-05)
(-0.000184132 -6.80264e-05 2.42984e-05)
(-0.000169522 -9.89673e-05 2.42984e-05)
(-0.000149761 -0.000126901 2.42984e-05)
(-0.00012545 -0.000150979 2.42984e-05)
(-9.73266e-05 -0.000170469 2.42984e-05)
(-6.62463e-05 -0.00018478 2.42983e-05)
(-3.31532e-05 -0.000193476 2.42983e-05)
(9.47296e-07 -0.000196294 2.42984e-05)
(3.50188e-05 -0.000193147 2.42984e-05)
(6.80264e-05 -0.000184132 2.42984e-05)
(9.89673e-05 -0.000169522 2.42984e-05)
(0.000126901 -0.000149761 2.42984e-05)
(0.000150979 -0.00012545 2.42984e-05)
(0.000170469 -9.73266e-05 2.42984e-05)
(0.00018478 -6.62463e-05 2.42983e-05)
(0.000193476 -3.31532e-05 2.42983e-05)
(0.000196294 9.47281e-07 2.42984e-05)
(0.000193147 3.50188e-05 2.42984e-05)
(0.000184132 6.80263e-05 2.42984e-05)
(0.000169522 9.89673e-05 2.42984e-05)
(0.000149761 0.000126901 2.42984e-05)
(0.00012545 0.000150979 2.42984e-05)
(9.73266e-05 0.000170469 2.42984e-05)
(6.62463e-05 0.00018478 2.42983e-05)
(-4.29498e-06 0.000195315 2.28801e-05)
(-3.81459e-05 0.000191602 2.28802e-05)
(-7.08377e-05 0.000182067 2.28801e-05)
(-0.000101377 0.000167 2.28801e-05)
(-0.000128836 0.00014686 2.28802e-05)
(-0.000152381 0.000122256 2.28801e-05)
(-0.000171296 9.39381e-05 2.28802e-05)
(-0.000185005 6.27657e-05 2.28801e-05)
(-0.000193094 2.96863e-05 2.28801e-05)
(-0.000195315 -4.29499e-06 2.28801e-05)
(-0.000191602 -3.81459e-05 2.28802e-05)
(-0.000182067 -7.08377e-05 2.28801e-05)
(-0.000167 -0.000101377 2.28801e-05)
(-0.00014686 -0.000128836 2.28802e-05)
(-0.000122256 -0.000152381 2.28801e-05)
(-9.39381e-05 -0.000171296 2.28802e-05)
(-6.27657e-05 -0.000185005 2.28801e-05)
(-2.96863e-05 -0.000193094 2.28801e-05)
(4.295e-06 -0.000195315 2.28801e-05)
(3.81459e-05 -0.000191602 2.28802e-05)
(7.08377e-05 -0.000182067 2.28801e-05)
(0.000101377 -0.000167 2.28801e-05)
(0.000128836 -0.00014686 2.28802e-05)
(0.000152381 -0.000122256 2.28801e-05)
(0.000171296 -9.39381e-05 2.28802e-05)
(0.000185005 -6.27657e-05 2.28801e-05)
(0.000193094 -2.96863e-05 2.28801e-05)
(0.000195315 4.29499e-06 2.28801e-05)
(0.000191602 3.81459e-05 2.28802e-05)
(0.000182067 7.08377e-05 2.28801e-05)
(0.000167 0.000101377 2.28801e-05)
(0.00014686 0.000128836 2.28802e-05)
(0.000122256 0.000152381 2.28801e-05)
(9.39381e-05 0.000171296 2.28802e-05)
(6.27657e-05 0.000185005 2.28801e-05)
(2.96863e-05 0.000193094 2.28801e-05)
(0.000124276 0.000584169 9.74242e-05)
(2.09486e-05 0.000596875 9.74242e-05)
(-8.30157e-05 0.000591445 9.74244e-05)
(-0.000184458 0.000568043 9.74247e-05)
(-0.000280295 0.000527383 9.74248e-05)
(-0.000367615 0.000470698 9.74247e-05)
(-0.000443767 0.000399711 9.74247e-05)
(-0.000506434 0.000316579 9.74245e-05)
(-0.000553714 0.000223828 9.74242e-05)
(-0.000584169 0.000124276 9.74242e-05)
(-0.000596875 2.09486e-05 9.74242e-05)
(-0.000591445 -8.30157e-05 9.74244e-05)
(-0.000568043 -0.000184458 9.74247e-05)
(-0.000527383 -0.000280295 9.74248e-05)
(-0.000470698 -0.000367616 9.74247e-05)
(-0.000399711 -0.000443767 9.74247e-05)
(-0.000316579 -0.000506434 9.74245e-05)
(-0.000223828 -0.000553714 9.74242e-05)
(-0.000124276 -0.000584169 9.74241e-05)
(-2.09486e-05 -0.000596875 9.74242e-05)
(8.30157e-05 -0.000591445 9.74244e-05)
(0.000184458 -0.000568043 9.74247e-05)
(0.000280295 -0.000527383 9.74248e-05)
(0.000367616 -0.000470698 9.74247e-05)
(0.000443767 -0.000399711 9.74247e-05)
(0.000506434 -0.000316579 9.74245e-05)
(0.000553714 -0.000223828 9.74242e-05)
(0.000584169 -0.000124276 9.74242e-05)
(0.000596875 -2.09486e-05 9.74242e-05)
(0.000591445 8.30157e-05 9.74244e-05)
(0.000568043 0.000184458 9.74247e-05)
(0.000527383 0.000280295 9.74248e-05)
(0.000470698 0.000367615 9.74247e-05)
(0.000399711 0.000443767 9.74247e-05)
(0.000316579 0.000506434 9.74245e-05)
(0.000223828 0.000553714 9.74242e-05)
(8.3296e-05 0.000575107 0.000113257)
(-1.78356e-05 0.000580834 0.000113257)
(-0.000118425 0.000568913 0.000113257)
(-0.000215417 0.000539706 0.000113258)
(-0.000305863 0.0004941 0.000113258)
(-0.000387016 0.000433481 0.000113258)
(-0.000456409 0.00035969 0.000113257)
(-0.000511935 0.000274971 0.000113257)
(-0.000551906 0.000181897 0.000113257)
(-0.000575107 8.32959e-05 0.000113257)
(-0.000580834 -1.78356e-05 0.000113257)
(-0.000568913 -0.000118425 0.000113257)
(-0.000539706 -0.000215417 0.000113258)
(-0.0004941 -0.000305863 0.000113258)
(-0.000433481 -0.000387016 0.000113258)
(-0.00035969 -0.000456409 0.000113257)
(-0.000274971 -0.000511935 0.000113257)
(-0.000181897 -0.000551906 0.000113257)
(-8.32959e-05 -0.000575107 0.000113257)
(1.78357e-05 -0.000580834 0.000113257)
(0.000118425 -0.000568913 0.000113257)
(0.000215417 -0.000539706 0.000113258)
(0.000305863 -0.0004941 0.000113258)
(0.000387016 -0.000433481 0.000113258)
(0.000456409 -0.00035969 0.000113257)
(0.000511935 -0.000274971 0.000113257)
(0.000551906 -0.000181897 0.000113257)
(0.000575107 -8.3296e-05 0.000113257)
(0.000580834 1.78356e-05 0.000113257)
(0.000568913 0.000118425 0.000113257)
(0.000539706 0.000215417 0.000113258)
(0.0004941 0.000305863 0.000113258)
(0.000433481 0.000387016 0.000113258)
(0.00035969 0.000456409 0.000113257)
(0.000274971 0.000511935 0.000113257)
(0.000181897 0.000551906 0.000113257)
(3.37743e-05 0.000563525 0.000124157)
(-6.45938e-05 0.000560829 0.000124157)
(-0.000160999 0.000541092 0.000124157)
(-0.000252513 0.000504914 0.000124157)
(-0.000336354 0.000453395 0.000124157)
(-0.000409975 0.000388099 0.000124157)
(-0.000471139 0.000311012 0.000124157)
(-0.000517988 0.000224474 0.000124157)
(-0.000549099 0.000131116 0.000124157)
(-0.000563525 3.37743e-05 0.000124157)
(-0.000560829 -6.45938e-05 0.000124157)
(-0.000541092 -0.000160999 0.000124157)
(-0.000504914 -0.000252513 0.000124157)
(-0.000453395 -0.000336354 0.000124157)
(-0.000388099 -0.000409975 0.000124157)
(-0.000311012 -0.000471139 0.000124157)
(-0.000224474 -0.000517988 0.000124157)
(-0.000131116 -0.000549099 0.000124157)
(-3.37743e-05 -0.000563525 0.000124157)
(6.45939e-05 -0.000560829 0.000124157)
(0.000160999 -0.000541092 0.000124157)
(0.000252513 -0.000504914 0.000124157)
(0.000336354 -0.000453395 0.000124157)
(0.000409975 -0.000388099 0.000124157)
(0.000471139 -0.000311012 0.000124157)
(0.000517988 -0.000224474 0.000124157)
(0.000549099 -0.000131116 0.000124157)
(0.000563525 -3.37743e-05 0.000124157)
(0.000560829 6.45938e-05 0.000124157)
(0.000541092 0.000160999 0.000124157)
(0.000504914 0.000252513 0.000124157)
(0.000453395 0.000336354 0.000124157)
(0.000388099 0.000409975 0.000124157)
(0.000311012 0.000471139 0.000124157)
(0.000224474 0.000517988 0.000124157)
(0.000131116 0.000549099 0.000124157)
(0.000167378 0.000970076 0.000227532)
(-3.61663e-06 0.000984403 0.000227532)
(-0.000174501 0.00096882 0.000227532)
(-0.000340084 0.000923799 0.000227532)
(-0.000495333 0.00085071 0.000227532)
(-0.000635532 0.000751772 0.000227532)
(-0.000756421 0.000629992 0.000227532)
(-0.000854326 0.000489069 0.000227532)
(-0.000926273 0.000333287 0.000227532)
(-0.000970076 0.000167378 0.000227532)
(-0.000984403 -3.61672e-06 0.000227532)
(-0.00096882 -0.000174501 0.000227532)
(-0.000923799 -0.000340084 0.000227532)
(-0.00085071 -0.000495333 0.000227532)
(-0.000751772 -0.000635532 0.000227532)
(-0.000629992 -0.000756421 0.000227532)
(-0.000489069 -0.000854326 0.000227532)
(-0.000333287 -0.000926273 0.000227532)
(-0.000167378 -0.000970076 0.000227532)
(3.61676e-06 -0.000984403 0.000227532)
(0.000174502 -0.00096882 0.000227532)
(0.000340084 -0.000923799 0.000227532)
(0.000495333 -0.00085071 0.000227532)
(0.000635532 -0.000751772 0.000227532)
(0.000756421 -0.000629992 0.000227532)
(0.000854326 -0.000489069 0.000227532)
(0.000926273 -0.000333287 0.000227532)
(0.000970076 -0.000167378 0.000227532)
(0.000984403 3.61668e-06 0.000227532)
(0.00096882 0.000174501 0.000227532)
(0.000923799 0.000340084 0.000227532)
(0.00085071 0.000495333 0.000227532)
(0.000751772 0.000635532 0.000227532)
(0.000629992 0.000756421 0.000227532)
(0.000489069 0.000854326 0.000227532)
(0.000333287 0.000926273 0.000227532)
(0.000113889 0.000943124 0.000248404)
(-5.16128e-05 0.000948573 0.000248404)
(-0.000215547 0.000925199 0.000248404)
(-0.000372931 0.000873714 0.000248404)
(-0.000518984 0.000795681 0.000248404)
(-0.000649268 0.000693473 0.000248404)
(-0.000759824 0.000570193 0.000248404)
(-0.000847294 0.000429588 0.000248404)
(-0.000909019 0.000275931 0.000248404)
(-0.000943124 0.000113889 0.000248404)
(-0.000948573 -5.16129e-05 0.000248404)
(-0.000925199 -0.000215547 0.000248404)
(-0.000873714 -0.000372931 0.000248404)
(-0.000795681 -0.000518984 0.000248404)
(-0.000693473 -0.000649268 0.000248404)
(-0.000570193 -0.000759824 0.000248404)
(-0.000429588 -0.000847294 0.000248404)
(-0.00027593 -0.000909019 0.000248404)
(-0.000113889 -0.000943124 0.000248404)
(5.16129e-05 -0.000948573 0.000248404)
(0.000215547 -0.000925199 0.000248404)
(0.000372931 -0.000873714 0.000248404)
(0.000518984 -0.000795681 0.000248404)
(0.000649268 -0.000693473 0.000248404)
(0.000759824 -0.000570193 0.000248404)
(0.000847294 -0.000429588 0.000248404)
(0.000909019 -0.000275931 0.000248404)
(0.000943124 -0.000113889 0.000248404)
(0.000948573 5.16129e-05 0.000248404)
(0.000925199 0.000215547 0.000248404)
(0.000873714 0.000372931 0.000248404)
(0.000795682 0.000518984 0.000248404)
(0.000693473 0.000649268 0.000248404)
(0.000570193 0.000759824 0.000248404)
(0.000429588 0.000847294 0.000248404)
(0.000275931 0.000909019 0.000248404)
(5.26085e-05 0.000912786 0.000265503)
(-0.000106694 0.000908054 0.000265503)
(-0.000262755 0.000875732 0.000265504)
(-0.000410832 0.000816801 0.000265504)
(-0.000546427 0.000733052 0.000265504)
(-0.000665419 0.000627029 0.000265504)
(-0.000764192 0.000501954 0.000265503)
(-0.000839745 0.000361627 0.000265503)
(-0.000889783 0.000210313 0.000265503)
(-0.000912786 5.26085e-05 0.000265503)
(-0.000908054 -0.000106694 0.000265503)
(-0.000875732 -0.000262755 0.000265504)
(-0.000816801 -0.000410832 0.000265504)
(-0.000733052 -0.000546427 0.000265504)
(-0.000627028 -0.000665419 0.000265504)
(-0.000501954 -0.000764192 0.000265503)
(-0.000361627 -0.000839745 0.000265503)
(-0.000210313 -0.000889784 0.000265503)
(-5.26084e-05 -0.000912786 0.000265503)
(0.000106694 -0.000908054 0.000265503)
(0.000262755 -0.000875732 0.000265504)
(0.000410832 -0.000816801 0.000265504)
(0.000546427 -0.000733052 0.000265504)
(0.000665419 -0.000627029 0.000265504)
(0.000764192 -0.000501954 0.000265503)
(0.000839745 -0.000361627 0.000265503)
(0.000889784 -0.000210313 0.000265503)
(0.000912786 -5.26085e-05 0.000265503)
(0.000908055 0.000106694 0.000265503)
(0.000875732 0.000262755 0.000265504)
(0.000816801 0.000410832 0.000265504)
(0.000733052 0.000546427 0.000265504)
(0.000627029 0.000665419 0.000265504)
(0.000501954 0.000764192 0.000265504)
(0.000361627 0.000839745 0.000265503)
(0.000210313 0.000889783 0.000265503)
(0.000180004 0.0013398 0.000392173)
(-5.53846e-05 0.00135071 0.000392173)
(-0.000289091 0.00132057 0.000392174)
(-0.000514013 0.00125031 0.000392174)
(-0.000723317 0.00114205 0.000392174)
(-0.000910644 0.000999101 0.000392174)
(-0.0010703 0.00082579 0.000392174)
(-0.00119744 0.000627388 0.000392174)
(-0.00128819 0.000409924 0.000392174)
(-0.0013398 0.000180004 0.000392173)
(-0.00135071 -5.53847e-05 0.000392173)
(-0.00132057 -0.000289091 0.000392174)
(-0.00125031 -0.000514013 0.000392174)
(-0.00114205 -0.000723317 0.000392174)
(-0.0009991 -0.000910644 0.000392174)
(-0.00082579 -0.0010703 0.000392174)
(-0.000627388 -0.00119744 0.000392174)
(-0.000409924 -0.00128819 0.000392174)
(-0.000180004 -0.0013398 0.000392173)
(5.53847e-05 -0.00135071 0.000392173)
(0.000289091 -0.00132057 0.000392174)
(0.000514013 -0.00125031 0.000392174)
(0.000723317 -0.00114205 0.000392174)
(0.000910644 -0.000999101 0.000392174)
(0.0010703 -0.00082579 0.000392174)
(0.00119744 -0.000627388 0.000392174)
(0.00128819 -0.000409924 0.000392174)
(0.0013398 -0.000180004 0.000392173)
(0.00135071 5.53846e-05 0.000392173)
(0.00132057 0.000289091 0.000392174)
(0.00125031 0.000514013 0.000392174)
(0.00114205 0.000723317 0.000392174)
(0.000999101 0.000910644 0.000392174)
(0.00082579 0.0010703 0.000392174)
(0.000627389 0.00119744 0.000392174)
(0.000409924 0.00128819 0.000392174)
(0.000119195 0.00128862 0.000414928)
(-0.000106382 0.00128974 0.000414928)
(-0.000328727 0.00125167 0.000414928)
(-0.000541083 0.00117557 0.000414928)
(-0.000736999 0.00106376 0.000414928)
(-0.000910521 0.000919617 0.000414928)
(-0.00105638 0.000747535 0.000414928)
(-0.00117014 0.00055274 0.000414928)
(-0.00124834 0.00034115 0.000414928)
(-0.00128862 0.000119195 0.000414928)
(-0.00128974 -0.000106382 0.000414928)
(-0.00125167 -0.000328727 0.000414928)
(-0.00117557 -0.000541083 0.000414928)
(-0.00106376 -0.000736999 0.000414928)
(-0.000919617 -0.000910521 0.000414928)
(-0.000747535 -0.00105638 0.000414928)
(-0.00055274 -0.00117014 0.000414928)
(-0.00034115 -0.00124834 0.000414928)
(-0.000119195 -0.00128862 0.000414928)
(0.000106382 -0.00128974 0.000414928)
(0.000328727 -0.00125167 0.000414928)
(0.000541083 -0.00117557 0.000414928)
(0.000736999 -0.00106376 0.000414928)
(0.000910521 -0.000919617 0.000414928)
(0.00105638 -0.000747535 0.000414928)
(0.00117014 -0.00055274 0.000414928)
(0.00124834 -0.00034115 0.000414928)
(0.00128862 -0.000119195 0.000414928)
(0.00128974 0.000106382 0.000414928)
(0.00125167 0.000328727 0.000414928)
(0.00117557 0.000541083 0.000414928)
(0.00106376 0.000736999 0.000414928)
(0.000919617 0.000910521 0.000414928)
(0.000747535 0.00105638 0.000414928)
(0.00055274 0.00117014 0.000414928)
(0.00034115 0.00124834 0.000414928)
(5.14374e-05 0.00123393 0.000434159)
(-0.000163614 0.00122412 0.000434159)
(-0.000373694 0.00117711 0.000434159)
(-0.00057242 0.00109434 0.000434159)
(-0.000753753 0.000978311 0.000434159)
(-0.000912184 0.000832561 0.000434159)
(-0.0010429 0.000661513 0.000434159)
(-0.00114193 0.000470366 0.000434159)
(-0.00120625 0.000264926 0.000434159)
(-0.00123393 5.14373e-05 0.000434159)
(-0.00122412 -0.000163614 0.000434159)
(-0.00117711 -0.000373695 0.000434159)
(-0.00109434 -0.00057242 0.000434159)
(-0.000978311 -0.000753753 0.000434159)
(-0.000832561 -0.000912184 0.000434159)
(-0.000661513 -0.0010429 0.000434159)
(-0.000470366 -0.00114193 0.000434159)
(-0.000264926 -0.00120625 0.000434159)
(-5.14373e-05 -0.00123393 0.000434159)
(0.000163614 -0.00122412 0.000434159)
(0.000373695 -0.00117711 0.000434159)
(0.00057242 -0.00109434 0.000434159)
(0.000753753 -0.000978311 0.000434159)
(0.000912184 -0.000832561 0.000434159)
(0.0010429 -0.000661513 0.000434159)
(0.00114193 -0.000470366 0.000434159)
(0.00120625 -0.000264926 0.000434159)
(0.00123393 -5.14374e-05 0.000434159)
(0.00122412 0.000163614 0.000434159)
(0.00117711 0.000373695 0.000434159)
(0.00109434 0.00057242 0.000434159)
(0.000978311 0.000753753 0.000434159)
(0.000832561 0.000912184 0.000434159)
(0.000661513 0.0010429 0.000434159)
(0.000470366 0.00114193 0.000434159)
(0.000264926 0.00120625 0.000434159)
(0.000161714 0.00168416 0.000583145)
(-0.000133194 0.00168666 0.000583145)
(-0.000424055 0.0016379 0.000583145)
(-0.000702031 0.00153938 0.000583145)
(-0.000958676 0.00139409 0.000583145)
(-0.00118619 0.00120644 0.000583145)
(-0.00137767 0.000982129 0.000583145)
(-0.00152728 0.000727979 0.000583145)
(-0.00163049 0.000451709 0.000583145)
(-0.00168416 0.000161714 0.000583145)
(-0.00168666 -0.000133194 0.000583145)
(-0.0016379 -0.000424055 0.000583145)
(-0.00153938 -0.000702031 0.000583145)
(-0.00139409 -0.000958677 0.000583145)
(-0.00120644 -0.00118619 0.000583145)
(-0.000982129 -0.00137767 0.000583145)
(-0.000727979 -0.00152728 0.000583145)
(-0.000451709 -0.00163049 0.000583145)
(-0.000161714 -0.00168416 0.000583145)
(0.000133194 -0.00168666 0.000583145)
(0.000424055 -0.0016379 0.000583145)
(0.000702031 -0.00153938 0.000583145)
(0.000958677 -0.00139409 0.000583145)
(0.00118619 -0.00120644 0.000583145)
(0.00137767 -0.00098213 0.000583145)
(0.00152728 -0.000727979 0.000583145)
(0.00163049 -0.000451709 0.000583145)
(0.00168416 -0.000161714 0.000583145)
(0.00168666 0.000133194 0.000583145)
(0.0016379 0.000424055 0.000583145)
(0.00153938 0.000702031 0.000583145)
(0.00139409 0.000958677 0.000583145)
(0.00120644 0.00118619 0.000583145)
(0.00098213 0.00137767 0.000583145)
(0.000727979 0.00152728 0.000583145)
(0.000451709 0.00163049 0.000583145)
(9.85981e-05 0.00160303 0.000604588)
(-0.000181262 0.00159579 0.000604588)
(-0.000455615 0.00154007 0.000604589)
(-0.000716124 0.00143756 0.000604589)
(-0.000954874 0.00129137 0.000604589)
(-0.00116461 0.00110594 0.000604589)
(-0.00133896 0.000886901 0.000604589)
(-0.00147263 0.000640919 0.000604589)
(-0.00156155 0.000375463 0.000604589)
(-0.00160303 9.8598e-05 0.000604588)
(-0.00159579 -0.000181262 0.000604588)
(-0.00154007 -0.000455615 0.000604589)
(-0.00143756 -0.000716124 0.000604589)
(-0.00129137 -0.000954874 0.000604589)
(-0.00110594 -0.00116461 0.000604589)
(-0.000886901 -0.00133896 0.000604589)
(-0.000640919 -0.00147263 0.000604589)
(-0.000375463 -0.00156155 0.000604589)
(-9.85979e-05 -0.00160303 0.000604588)
(0.000181263 -0.00159579 0.000604588)
(0.000455615 -0.00154007 0.000604589)
(0.000716124 -0.00143756 0.000604589)
(0.000954874 -0.00129137 0.000604589)
(0.00116461 -0.00110594 0.000604589)
(0.00133896 -0.000886901 0.000604589)
(0.00147263 -0.000640919 0.000604589)
(0.00156155 -0.000375463 0.000604589)
(0.00160303 -9.85981e-05 0.000604588)
(0.00159579 0.000181262 0.000604588)
(0.00154007 0.000455615 0.000604589)
(0.00143756 0.000716124 0.000604589)
(0.00129137 0.000954874 0.000604589)
(0.00110594 0.00116461 0.000604589)
(0.000886902 0.00133896 0.000604589)
(0.00064092 0.00147263 0.000604589)
(0.000375463 0.00156155 0.000604589)
(2.93614e-05 0.00151873 0.000622477)
(-0.000234809 0.00150076 0.000622477)
(-0.000491845 0.00143718 0.000622477)
(-0.000733937 0.00132994 0.000622477)
(-0.000953728 0.00118229 0.000622477)
(-0.00114454 0.000998713 0.000622477)
(-0.00130058 0.000784793 0.000622477)
(-0.0014171 0.000547027 0.000622477)
(-0.00149056 0.00029264 0.000622477)
(-0.00151873 2.93613e-05 0.000622477)
(-0.00150076 -0.000234809 0.000622477)
(-0.00143718 -0.000491846 0.000622477)
(-0.00132994 -0.000733937 0.000622477)
(-0.00118229 -0.000953728 0.000622477)
(-0.000998713 -0.00114454 0.000622477)
(-0.000784793 -0.00130058 0.000622477)
(-0.000547027 -0.0014171 0.000622477)
(-0.00029264 -0.00149056 0.000622477)
(-2.93612e-05 -0.00151873 0.000622477)
(0.000234809 -0.00150076 0.000622477)
(0.000491846 -0.00143718 0.000622477)
(0.000733937 -0.00132994 0.000622477)
(0.000953728 -0.00118229 0.000622477)
(0.00114454 -0.000998713 0.000622477)
(0.00130058 -0.000784793 0.000622477)
(0.0014171 -0.000547027 0.000622477)
(0.00149056 -0.00029264 0.000622477)
(0.00151873 -2.93614e-05 0.000622477)
(0.00150076 0.000234809 0.000622477)
(0.00143718 0.000491846 0.000622477)
(0.00132994 0.000733937 0.000622477)
(0.00118229 0.000953728 0.000622477)
(0.000998713 0.00114454 0.000622477)
(0.000784793 0.00130058 0.000622477)
(0.000547027 0.0014171 0.000622477)
(0.00029264 0.00149056 0.000622477)
(0.000115953 0.00199358 0.000794558)
(-0.00023199 0.00198343 0.000794558)
(-0.000572884 0.00191301 0.000794558)
(-0.00089637 0.00178447 0.000794558)
(-0.00119262 0.0016017 0.000794558)
(-0.00145264 0.00137027 0.000794558)
(-0.00166851 0.00109721 0.000794558)
(-0.00183369 0.000790804 0.000794558)
(-0.00194316 0.000460373 0.000794558)
(-0.00199358 0.000115953 0.000794558)
(-0.00198343 -0.00023199 0.000794558)
(-0.00191301 -0.000572884 0.000794558)
(-0.00178447 -0.00089637 0.000794558)
(-0.0016017 -0.00119262 0.000794558)
(-0.00137027 -0.00145264 0.000794558)
(-0.00109721 -0.00166851 0.000794558)
(-0.000790804 -0.00183369 0.000794558)
(-0.000460372 -0.00194316 0.000794558)
(-0.000115953 -0.00199358 0.000794558)
(0.00023199 -0.00198343 0.000794558)
(0.000572884 -0.00191301 0.000794558)
(0.00089637 -0.00178447 0.000794558)
(0.00119262 -0.0016017 0.000794558)
(0.00145264 -0.00137027 0.000794558)
(0.00166851 -0.00109721 0.000794558)
(0.00183369 -0.000790804 0.000794558)
(0.00194316 -0.000460373 0.000794558)
(0.00199358 -0.000115953 0.000794558)
(0.00198343 0.00023199 0.000794558)
(0.00191301 0.000572884 0.000794558)
(0.00178447 0.00089637 0.000794558)
(0.0016017 0.00119262 0.000794558)
(0.00137027 0.00145264 0.000794558)
(0.00109721 0.00166851 0.000794558)
(0.000790804 0.00183369 0.000794558)
(0.000460373 0.00194316 0.000794558)
(5.49243e-05 0.0018778 0.000811531)
(-0.000271987 0.00185881 0.000811531)
(-0.000590633 0.00178334 0.00081153)
(-0.000891334 0.00165368 0.000811531)
(-0.00116495 0.00147378 0.000811531)
(-0.00140317 0.0012491 0.000811531)
(-0.00159876 0.000986466 0.000811531)
(-0.00174577 0.000693858 0.000811531)
(-0.00183973 0.000380166 0.000811531)
(-0.0018778 5.49242e-05 0.000811531)
(-0.00185881 -0.000271987 0.000811531)
(-0.00178334 -0.000590634 0.00081153)
(-0.00165368 -0.000891334 0.000811531)
(-0.00147378 -0.00116495 0.000811531)
(-0.0012491 -0.00140317 0.000811531)
(-0.000986466 -0.00159876 0.000811531)
(-0.000693858 -0.00174577 0.000811531)
(-0.000380166 -0.00183973 0.000811531)
(-5.49241e-05 -0.0018778 0.000811531)
(0.000271987 -0.00185881 0.000811531)
(0.000590634 -0.00178334 0.00081153)
(0.000891334 -0.00165368 0.000811531)
(0.00116495 -0.00147378 0.000811531)
(0.00140317 -0.0012491 0.000811531)
(0.00159876 -0.000986466 0.000811531)
(0.00174577 -0.000693858 0.000811531)
(0.00183973 -0.000380166 0.000811531)
(0.0018778 -5.49243e-05 0.000811531)
(0.00185881 0.000271987 0.000811531)
(0.00178334 0.000590633 0.00081153)
(0.00165369 0.000891334 0.000811531)
(0.00147378 0.00116495 0.000811531)
(0.0012491 0.00140317 0.000811531)
(0.000986466 0.00159876 0.000811531)
(0.000693858 0.00174577 0.000811531)
(0.000380167 0.00183973 0.000811531)
(-1.13592e-05 0.00175958 0.000824841)
(-0.000316734 0.00173087 0.000824841)
(-0.000612485 0.00164958 0.000824841)
(-0.000889626 0.00151816 0.000824842)
(-0.00113974 0.00134061 0.000824841)
(-0.00135522 0.00112233 0.000824842)
(-0.00152952 0.000869952 0.000824841)
(-0.00165735 0.000591137 0.000824841)
(-0.00173482 0.000294361 0.000824841)
(-0.00175958 -1.13594e-05 0.000824841)
(-0.00173087 -0.000316734 0.000824841)
(-0.00164958 -0.000612485 0.000824841)
(-0.00151816 -0.000889626 0.000824842)
(-0.00134061 -0.00113974 0.000824841)
(-0.00112233 -0.00135522 0.000824841)
(-0.000869952 -0.00152952 0.000824841)
(-0.000591137 -0.00165735 0.000824841)
(-0.000294361 -0.00173482 0.000824841)
(1.13595e-05 -0.00175958 0.000824841)
(0.000316735 -0.00173087 0.000824841)
(0.000612486 -0.00164958 0.000824841)
(0.000889626 -0.00151816 0.000824842)
(0.00113974 -0.00134061 0.000824841)
(0.00135522 -0.00112233 0.000824841)
(0.00152952 -0.000869952 0.000824841)
(0.00165735 -0.000591137 0.000824841)
(0.00173482 -0.000294361 0.000824841)
(0.00175958 1.13593e-05 0.000824841)
(0.00173087 0.000316734 0.000824841)
(0.00164958 0.000612485 0.000824841)
(0.00151816 0.000889626 0.000824842)
(0.00134061 0.00113974 0.000824841)
(0.00112233 0.00135522 0.000824842)
(0.000869952 0.00152952 0.000824841)
(0.000591137 0.00165735 0.000824841)
(0.000294361 0.00173482 0.000824841)
(4.89236e-05 0.00225841 0.00102339)
(-0.000343989 0.0022326 0.00102339)
(-0.00072645 0.00213895 0.00102339)
(-0.00108684 0.0019803 0.00102339)
(-0.0014142 0.00176149 0.00102339)
(-0.0016986 0.00148916 0.00102339)
(-0.00193138 0.00117157 0.00102339)
(-0.00210548 0.000818395 0.00102339)
(-0.00221561 0.000440349 0.00102339)
(-0.00225841 4.89234e-05 0.00102339)
(-0.0022326 -0.000343989 0.00102339)
(-0.00213895 -0.00072645 0.00102339)
(-0.0019803 -0.00108684 0.00102339)
(-0.00176149 -0.0014142 0.00102339)
(-0.00148916 -0.0016986 0.00102339)
(-0.00117157 -0.00193138 0.00102339)
(-0.000818395 -0.00210548 0.00102339)
(-0.000440348 -0.00221561 0.00102339)
(-4.89233e-05 -0.00225841 0.00102339)
(0.000343989 -0.0022326 0.00102339)
(0.00072645 -0.00213895 0.00102339)
(0.00108684 -0.0019803 0.00102339)
(0.0014142 -0.00176149 0.00102339)
(0.0016986 -0.00148916 0.00102339)
(0.00193138 -0.00117157 0.00102339)
(0.00210548 -0.000818395 0.00102339)
(0.00221561 -0.000440349 0.00102339)
(0.00225841 -4.89235e-05 0.00102339)
(0.0022326 0.000343989 0.00102339)
(0.00213895 0.00072645 0.00102339)
(0.0019803 0.00108684 0.00102339)
(0.00176149 0.0014142 0.00102339)
(0.00148916 0.0016986 0.00102339)
(0.00117158 0.00193138 0.00102339)
(0.000818395 0.00210548 0.00102339)
(0.000440349 0.00221561 0.00102339)
(-6.26953e-06 0.00210432 0.00103268)
(-0.000371586 0.00207126 0.00103268)
(-0.000725612 0.00197527 0.00103268)
(-0.00105759 0.00181926 0.00103268)
(-0.00135743 0.00160797 0.00103268)
(-0.00161603 0.00134783 0.00103268)
(-0.00182553 0.00104673 0.00103268)
(-0.00197956 0.000713829 0.00103268)
(-0.00207344 0.000359237 0.00103268)
(-0.00210432 -6.26971e-06 0.00103268)
(-0.00207126 -0.000371586 0.00103268)
(-0.00197527 -0.000725612 0.00103268)
(-0.00181926 -0.00105759 0.00103268)
(-0.00160797 -0.00135743 0.00103268)
(-0.00134783 -0.00161603 0.00103268)
(-0.00104673 -0.00182553 0.00103268)
(-0.000713829 -0.00197956 0.00103268)
(-0.000359236 -0.00207344 0.00103268)
(6.26984e-06 -0.00210432 0.00103268)
(0.000371586 -0.00207126 0.00103268)
(0.000725612 -0.00197527 0.00103268)
(0.00105759 -0.00181926 0.00103268)
(0.00135743 -0.00160797 0.00103268)
(0.00161603 -0.00134783 0.00103268)
(0.00182553 -0.00104673 0.00103268)
(0.00197956 -0.000713829 0.00103268)
(0.00207344 -0.000359237 0.00103268)
(0.00210432 6.26962e-06 0.00103268)
(0.00207126 0.000371586 0.00103268)
(0.00197527 0.000725612 0.00103268)
(0.00181926 0.00105759 0.00103268)
(0.00160797 0.00135743 0.00103268)
(0.00134783 0.00161603 0.00103268)
(0.00104673 0.00182553 0.00103268)
(0.000713829 0.00197956 0.00103268)
(0.000359237 0.00207344 0.00103268)
(-6.57335e-05 0.00194887 0.00103816)
(-0.000403153 0.00190785 0.00103816)
(-0.000728323 0.00180886 0.00103816)
(-0.00103136 0.00165491 0.00103816)
(-0.00130307 0.00145067 0.00103816)
(-0.00153518 0.00120236 0.00103816)
(-0.00172064 0.00091751 0.00103816)
(-0.00185382 0.000604785 0.00103816)
(-0.00193068 0.000273684 0.00103816)
(-0.00194887 -6.57337e-05 0.00103816)
(-0.00190785 -0.000403153 0.00103816)
(-0.00180886 -0.000728323 0.00103816)
(-0.00165491 -0.00103136 0.00103816)
(-0.00145067 -0.00130307 0.00103816)
(-0.00120236 -0.00153518 0.00103816)
(-0.00091751 -0.00172064 0.00103816)
(-0.000604785 -0.00185382 0.00103816)
(-0.000273684 -0.00193068 0.00103816)
(6.57338e-05 -0.00194887 0.00103816)
(0.000403153 -0.00190785 0.00103816)
(0.000728323 -0.00180886 0.00103816)
(0.00103136 -0.00165491 0.00103816)
(0.00130307 -0.00145067 0.00103816)
(0.00153518 -0.00120236 0.00103816)
(0.00172064 -0.00091751 0.00103816)
(0.00185382 -0.000604785 0.00103816)
(0.00193068 -0.000273684 0.00103816)
(0.00194887 6.57336e-05 0.00103816)
(0.00190785 0.000403153 0.00103816)
(0.00180886 0.000728323 0.00103816)
(0.00165491 0.00103136 0.00103816)
(0.00145067 0.00130307 0.00103816)
(0.00120236 0.00153518 0.00103816)
(0.00091751 0.00172064 0.00103816)
(0.000604785 0.00185382 0.00103816)
(0.000273684 0.00193068 0.00103816)
(-3.11152e-05 0.00246858 0.00126865)
(-0.000459308 0.00242568 0.00126865)
(-0.000873545 0.00230907 0.00126865)
(-0.00126124 0.0021223 0.00126865)
(-0.00161061 0.00187105 0.00126865)
(-0.00191105 0.00156294 0.00126865)
(-0.00215341 0.00120735 0.00126865)
(-0.00233035 0.000815066 0.00126865)
(-0.00243648 0.000398022 0.00126865)
(-0.00246858 -3.11154e-05 0.00126865)