/*--------------------------------*- C++ -*----------------------------------*\
| =========                 |                                                 |
| \\      /  F ield         | OpenFOAM: The Open Source CFD Toolbox           |
|  \\    /   O peration     | Version:  2312                                  |
|   \\  /    A nd           | Website:  www.openfoam.com                      |
|    \\/     M anipulation  |                                                 |
\*---------------------------------------------------------------------------*/
FoamFile
{
    version     2.0;
    format      ascii;
    arch        "LSB;label=32;scalar=64";
    class       volVectorField;
    location    "0.2";
    object      D_0_0;
}
// * * * * * * * * * * * * * * * * * * * * * * * * * * * * * * * * * * * * * //

dimensions      [0 1 0 0 0 0 0];

internalField   nonuniform List<vector> 
1620
(
(5.86798e-05 0.000181109 1.52326e-05)
(2.63391e-05 0.000188547 1.52326e-05)
(-6.80183e-06 0.000190257 1.52326e-05)
(-3.97362e-05 0.000186185 1.52327e-05)
(-7.14633e-05 0.000176457 1.52327e-05)
(-0.000101019 0.000161366 1.52327e-05)
(-0.000127505 0.000141373 1.52327e-05)
(-0.000150117 0.000117084 1.52327e-05)
(-0.000168168 8.92376e-05 1.52326e-05)
(-0.000181109 5.86798e-05 1.52326e-05)
(-0.000188547 2.6339e-05 1.52326e-05)
(-0.000190257 -6.80185e-06 1.52326e-05)
(-0.000186185 -3.97362e-05 1.52327e-05)
(-0.000176457 -7.14633e-05 1.52327e-05)
(-0.000161366 -0.000101019 1.52327e-05)
(-0.000141373 -0.000127505 1.52327e-05)
(-0.000117084 -0.000150117 1.52327e-05)
(-8.92376e-05 -0.000168168 1.52326e-05)
(-5.86798e-05 -0.000181109 1.52326e-05)
(-2.6339e-05 -0.000188547 1.52326e-05)
(6.80185e-06 -0.000190257 1.52326e-05)
(3.97362e-05 -0.000186185 1.52327e-05)
(7.14633e-05 -0.000176457 1.52327e-05)
(0.000101019 -0.000161366 1.52327e-05)
(0.000127505 -0.000141373 1.52327e-05)
(0.000150117 -0.000117084 1.52327e-05)
(0.000168168 -8.92376e-05 1.52326e-05)
(0.000181109 -5.86798e-05 1.52326e-05)
(0.000188547 -2.6339e-05 1.52326e-05)
(0.000190257 6.80183e-06 1.52326e-05)
(0.000186185 3.97362e-05 1.52327e-05)
(0.000176457 7.14633e-05 1.52327e-05)
(0.000161366 0.000101019 1.52327e-05)
(0.000141373 0.000127505 1.52327e-05)
(0.000117084 0.000150117 1.52327e-05)
(8.92377e-05 0.000168168 1.52326e-05)
(3.11273e-05 0.00018169 2.26165e-05)
(-8.95763e-07 0.000184335 2.26165e-05)
(-3.28915e-05 0.000181379 2.26165e-05)
(-6.38878e-05 0.000172912 2.26165e-05)
(-9.29432e-05 0.000159191 2.26166e-05)
(-0.000119174 0.000140633 2.26165e-05)
(-0.000141784 0.000117802 2.26165e-05)
(-0.000160087 9.13917e-05 2.26165e-05)
(-0.000173525 6.22045e-05 2.26164e-05)
(-0.00018169 3.11273e-05 2.26165e-05)
(-0.000184335 -8.95779e-07 2.26165e-05)
(-0.000181379 -3.28915e-05 2.26165e-05)
(-0.000172912 -6.38878e-05 2.26165e-05)
(-0.000159191 -9.29432e-05 2.26166e-05)
(-0.000140633 -0.000119174 2.26165e-05)
(-0.000117802 -0.000141784 2.26165e-05)
(-9.13917e-05 -0.000160087 2.26165e-05)
(-6.22045e-05 -0.000173525 2.26164e-05)
(-3.11273e-05 -0.00018169 2.26165e-05)
(8.95785e-07 -0.000184335 2.26165e-05)
(3.28915e-05 -0.000181379 2.26165e-05)
(6.38878e-05 -0.000172912 2.26165e-05)
(9.29432e-05 -0.000159191 2.26166e-05)
(0.000119174 -0.000140633 2.26165e-05)
(0.000141784 -0.000117802 2.26165e-05)
(0.000160087 -9.13917e-05 2.26165e-05)
(0.000173525 -6.22045e-05 2.26164e-05)
(0.00018169 -3.11273e-05 2.26165e-05)
(0.000184335 8.9577e-07 2.26165e-05)
(0.000181379 3.28915e-05 2.26165e-05)
(0.000172912 6.38878e-05 2.26165e-05)
(0.000159191 9.29432e-05 2.26166e-05)
(0.000140633 0.000119174 2.26165e-05)
(0.000117802 0.000141784 2.26165e-05)
(9.13917e-05 0.000160087 2.26165e-05)
(6.22045e-05 0.000173525 2.26164e-05)
(-2.90919e-06 0.000181792 2.10465e-05)
(-3.44328e-05 0.000178525 2.10466e-05)
(-6.49103e-05 0.000169834 2.10466e-05)
(-9.34154e-05 0.000155982 2.10466e-05)
(-0.000119082 0.000137391 2.10467e-05)
(-0.000141131 0.000114625 2.10466e-05)
(-0.000158891 8.83765e-05 2.10466e-05)
(-0.000171824 5.94427e-05 2.10465e-05)
(-0.000179535 2.87028e-05 2.10465e-05)
(-0.000181792 -2.90921e-06 2.10465e-05)
(-0.000178525 -3.44328e-05 2.10466e-05)
(-0.000169834 -6.49103e-05 2.10466e-05)
(-0.000155982 -9.34154e-05 2.10466e-05)
(-0.000137391 -0.000119082 2.10467e-05)
(-0.000114625 -0.000141131 2.10466e-05)
(-8.83765e-05 -0.000158891 2.10466e-05)
(-5.94427e-05 -0.000171824 2.10465e-05)
(-2.87028e-05 -0.000179535 2.10465e-05)
(2.90921e-06 -0.000181792 2.10465e-05)
(3.44328e-05 -0.000178525 2.10466e-05)
(6.49103e-05 -0.000169834 2.10466e-05)
(9.34154e-05 -0.000155982 2.10466e-05)
(0.000119082 -0.000137391 2.10467e-05)
(0.000141131 -0.000114625 2.10466e-05)
(0.000158891 -8.83766e-05 2.10466e-05)
(0.000171824 -5.94427e-05 2.10465e-05)
(0.000179535 -2.87028e-05 2.10465e-05)
(0.000181792 2.9092e-06 2.10465e-05)
(0.000178525 3.44328e-05 2.10466e-05)
(0.000169834 6.49103e-05 2.10466e-05)
(0.000155982 9.34154e-05 2.10466e-05)
(0.000137391 0.000119082 2.10467e-05)
(0.000114625 0.000141131 2.10466e-05)
(8.83766e-05 0.000158891 2.10466e-05)
(5.94427e-05 0.000171824 2.10465e-05)
(2.87028e-05 0.000179535 2.10465e-05)
(0.00011566 0.000552894 9.15326e-05)
(1.78941e-05 0.000564578 9.15326e-05)
(-8.04156e-05 0.000559109 9.15328e-05)
(-0.000176282 0.00053665 9.1533e-05)
(-0.000266792 0.000497886 9.15332e-05)
(-0.000349196 0.000443994 9.15331e-05)
(-0.00042099 0.000376612 9.15331e-05)
(-0.000479992 0.000297786 9.15329e-05)
(-0.00052441 0.000209912 9.15326e-05)
(-0.000552894 0.00011566 9.15326e-05)
(-0.000564578 1.7894e-05 9.15326e-05)
(-0.000559109 -8.04157e-05 9.15328e-05)
(-0.00053665 -0.000176282 9.1533e-05)
(-0.000497886 -0.000266792 9.15332e-05)
(-0.000443994 -0.000349196 9.15331e-05)
(-0.000376612 -0.00042099 9.15331e-05)
(-0.000297786 -0.000479992 9.15329e-05)
(-0.000209912 -0.00052441 9.15326e-05)
(-0.00011566 -0.000552894 9.15326e-05)
(-1.7894e-05 -0.000564578 9.15326e-05)
(8.04157e-05 -0.000559109 9.15328e-05)
(0.000176282 -0.00053665 9.1533e-05)
(0.000266792 -0.000497886 9.15332e-05)
(0.000349196 -0.000443994 9.15331e-05)
(0.00042099 -0.000376612 9.15331e-05)
(0.000479992 -0.000297786 9.15329e-05)
(0.00052441 -0.000209912 9.15326e-05)
(0.000552894 -0.00011566 9.15326e-05)
(0.000564578 -1.78941e-05 9.15326e-05)
(0.000559109 8.04156e-05 9.15328e-05)
(0.00053665 0.000176282 9.1533e-05)
(0.000497886 0.000266792 9.15332e-05)
(0.000443994 0.000349196 9.15331e-05)
(0.000376612 0.00042099 9.15331e-05)
(0.000297786 0.000479992 9.15329e-05)
(0.000209912 0.00052441 9.15326e-05)
(7.87665e-05 0.000540105 0.000104902)
(-1.62181e-05 0.000545577 0.000104902)
(-0.00011071 0.000534472 0.000104902)
(-0.000201838 0.000507128 0.000104902)
(-0.000286834 0.000464375 0.000104902)
(-0.000363114 0.000407511 0.000104902)
(-0.000428361 0.000338266 0.000104902)
(-0.000480592 0.000258743 0.000104902)
(-0.000518221 0.000171358 0.000104902)
(-0.000540105 7.87665e-05 0.000104902)
(-0.000545577 -1.62182e-05 0.000104902)
(-0.000534472 -0.00011071 0.000104902)
(-0.000507128 -0.000201838 0.000104902)
(-0.000464375 -0.000286834 0.000104902)
(-0.000407511 -0.000363114 0.000104902)
(-0.000338266 -0.000428361 0.000104902)
(-0.000258743 -0.000480592 0.000104902)
(-0.000171358 -0.000518221 0.000104902)
(-7.87665e-05 -0.000540105 0.000104902)
(1.62182e-05 -0.000545577 0.000104902)
(0.00011071 -0.000534472 0.000104902)
(0.000201838 -0.000507128 0.000104902)
(0.000286834 -0.000464375 0.000104902)
(0.000363114 -0.000407511 0.000104902)
(0.000428361 -0.000338266 0.000104902)
(0.000480592 -0.000258743 0.000104902)
(0.000518221 -0.000171358 0.000104902)
(0.000540105 -7.87665e-05 0.000104902)
(0.000545577 1.62181e-05 0.000104902)
(0.000534472 0.00011071 0.000104902)
(0.000507128 0.000201838 0.000104902)
(0.000464375 0.000286834 0.000104902)
(0.000407512 0.000363114 0.000104902)
(0.000338266 0.000428361 0.000104902)
(0.000258743 0.000480592 0.000104902)
(0.000171358 0.000518221 0.000104902)
(3.44487e-05 0.000525182 0.000113998)
(-5.72716e-05 0.000523186 0.000113998)
(-0.000147251 0.000505292 0.000113998)
(-0.000232757 0.000472045 0.000113998)
(-0.000311191 0.000424456 0.000113998)
(-0.000380169 0.00036397 0.000113998)
(-0.000437597 0.000292424 0.000113998)
(-0.000481728 0.000211994 0.000113998)
(-0.000511222 0.000125122 0.000113998)
(-0.000525182 3.44486e-05 0.000113998)
(-0.000523186 -5.72716e-05 0.000113998)
(-0.000505292 -0.000147251 0.000113998)
(-0.000472045 -0.000232757 0.000113998)
(-0.000424456 -0.000311191 0.000113998)
(-0.00036397 -0.000380169 0.000113998)
(-0.000292424 -0.000437597 0.000113998)
(-0.000211994 -0.000481728 0.000113998)
(-0.000125122 -0.000511222 0.000113998)
(-3.44486e-05 -0.000525182 0.000113998)
(5.72716e-05 -0.000523186 0.000113998)
(0.000147252 -0.000505292 0.000113998)
(0.000232757 -0.000472045 0.000113998)
(0.000311191 -0.000424456 0.000113998)
(0.000380169 -0.00036397 0.000113998)
(0.000437597 -0.000292424 0.000113998)
(0.000481728 -0.000211994 0.000113998)
(0.000511222 -0.000125122 0.000113998)
(0.000525182 -3.44487e-05 0.000113998)
(0.000523186 5.72716e-05 0.000113998)
(0.000505292 0.000147251 0.000113998)
(0.000472046 0.000232757 0.000113998)
(0.000424456 0.000311191 0.000113998)
(0.00036397 0.000380169 0.000113998)
(0.000292424 0.000437597 0.000113998)
(0.000211994 0.000481728 0.000113998)
(0.000125122 0.000511222 0.000113998)
(0.000156209 0.00091744 0.000212311)
(-5.47563e-06 0.000930628 0.000212311)
(-0.000166994 0.000915539 0.000212312)
(-0.000323439 0.000872631 0.000212312)
(-0.000470055 0.000803209 0.000212312)
(-0.00060239 0.000709383 0.000212312)
(-0.000716421 0.000594001 0.000212312)
(-0.000808685 0.000460572 0.000212312)
(-0.000876377 0.000313148 0.000212311)
(-0.00091744 0.000156209 0.000212311)
(-0.000930627 -5.47571e-06 0.000212311)
(-0.000915539 -0.000166994 0.000212312)
(-0.000872631 -0.000323439 0.000212312)
(-0.000803209 -0.000470055 0.000212312)
(-0.000709383 -0.00060239 0.000212312)
(-0.000594001 -0.000716421 0.000212312)
(-0.000460572 -0.000808685 0.000212312)
(-0.000313148 -0.000876377 0.000212311)
(-0.000156209 -0.00091744 0.000212311)
(5.47575e-06 -0.000930628 0.000212311)
(0.000166994 -0.000915539 0.000212312)
(0.000323439 -0.000872631 0.000212312)
(0.000470056 -0.000803209 0.000212312)
(0.00060239 -0.000709383 0.000212312)
(0.000716421 -0.000594001 0.000212312)
(0.000808685 -0.000460572 0.000212312)
(0.000876377 -0.000313148 0.000212311)
(0.00091744 -0.000156209 0.000212311)
(0.000930628 5.47567e-06 0.000212311)
(0.000915539 0.000166994 0.000212312)
(0.000872631 0.000323439 0.000212312)
(0.000803209 0.000470055 0.000212312)
(0.000709383 0.00060239 0.000212312)
(0.000594001 0.000716421 0.000212312)
(0.000460572 0.000808685 0.000212312)
(0.000313148 0.000876377 0.000212311)
(0.000108519 0.000885811 0.000230014)
(-4.69494e-05 0.000891198 0.000230014)
(-0.000200991 0.000869506 0.000230014)
(-0.000348925 0.000821395 0.000230014)
(-0.000486258 0.000748325 0.000230014)
(-0.000608816 0.000652519 0.000230014)
(-0.000712875 0.000536886 0.000230014)
(-0.000795275 0.000404939 0.000230014)
(-0.00085351 0.000260689 0.000230014)
(-0.000885811 0.000108518 0.000230013)
(-0.000891198 -4.69494e-05 0.000230014)
(-0.000869506 -0.000200991 0.000230014)
(-0.000821395 -0.000348925 0.000230014)
(-0.000748325 -0.000486258 0.000230014)
(-0.000652519 -0.000608816 0.000230014)
(-0.000536886 -0.000712875 0.000230014)
(-0.000404939 -0.000795275 0.000230014)
(-0.000260689 -0.00085351 0.000230014)
(-0.000108518 -0.000885811 0.000230013)
(4.69495e-05 -0.000891198 0.000230014)
(0.000200991 -0.000869506 0.000230014)
(0.000348925 -0.000821395 0.000230014)
(0.000486258 -0.000748325 0.000230014)
(0.000608816 -0.000652519 0.000230014)
(0.000712875 -0.000536886 0.000230014)
(0.000795275 -0.000404939 0.000230014)
(0.00085351 -0.00026069 0.000230014)
(0.000885811 -0.000108519 0.000230014)
(0.000891198 4.69494e-05 0.000230014)
(0.000869506 0.000200991 0.000230014)
(0.000821395 0.000348925 0.000230014)
(0.000748325 0.000486258 0.000230014)
(0.000652519 0.000608816 0.000230014)
(0.000536886 0.000712875 0.000230014)
(0.000404939 0.000795275 0.000230014)
(0.00026069 0.00085351 0.000230014)
(5.40087e-05 0.00085129 0.000244494)
(-9.46368e-05 0.000847736 0.000244494)
(-0.000240406 0.000818423 0.000244494)
(-0.000378872 0.000764244 0.000244494)
(-0.000505825 0.000686843 0.000244494)
(-0.00061741 0.000588572 0.000244494)
(-0.000710234 0.000472418 0.000244494)
(-0.000781479 0.00034191 0.000244494)
(-0.000828978 0.000201013 0.000244494)
(-0.00085129 5.40086e-05 0.000244494)
(-0.000847736 -9.46368e-05 0.000244494)
(-0.000818423 -0.000240407 0.000244494)
(-0.000764244 -0.000378872 0.000244494)
(-0.000686843 -0.000505826 0.000244494)
(-0.000588572 -0.00061741 0.000244494)
(-0.000472418 -0.000710234 0.000244494)
(-0.00034191 -0.000781479 0.000244494)
(-0.000201013 -0.000828978 0.000244494)
(-5.40086e-05 -0.00085129 0.000244494)
(9.46369e-05 -0.000847736 0.000244494)
(0.000240407 -0.000818424 0.000244494)
(0.000378872 -0.000764244 0.000244494)
(0.000505826 -0.000686843 0.000244494)
(0.00061741 -0.000588572 0.000244494)
(0.000710234 -0.000472418 0.000244494)
(0.000781479 -0.00034191 0.000244494)
(0.000828979 -0.000201013 0.000244494)
(0.00085129 -5.40086e-05 0.000244494)
(0.000847736 9.46368e-05 0.000244494)
(0.000818424 0.000240406 0.000244494)
(0.000764244 0.000378872 0.000244494)
(0.000686843 0.000505826 0.000244494)
(0.000588572 0.00061741 0.000244494)
(0.000472418 0.000710234 0.000244494)
(0.00034191 0.000781479 0.000244494)
(0.000201013 0.000828978 0.000244494)
(0.000168843 0.00126645 0.000365108)
(-5.36394e-05 0.00127653 0.000365108)
(-0.000274492 0.00124782 0.000365108)
(-0.000487003 0.0011812 0.000365109)
(-0.000684718 0.00107869 0.000365109)
(-0.000861627 0.0009434 0.000365109)
(-0.00101236 0.000779447 0.000365109)
(-0.00113233 0.000591812 0.000365109)
(-0.00121789 0.000386194 0.000365108)
(-0.00126645 0.000168842 0.000365108)
(-0.00127653 -5.36395e-05 0.000365108)
(-0.00124782 -0.000274492 0.000365108)
(-0.0011812 -0.000487003 0.000365109)
(-0.00107869 -0.000684718 0.000365109)
(-0.0009434 -0.000861627 0.000365109)
(-0.000779447 -0.00101236 0.000365109)
(-0.000591812 -0.00113233 0.000365109)
(-0.000386194 -0.00121789 0.000365108)
(-0.000168842 -0.00126645 0.000365108)
(5.36395e-05 -0.00127653 0.000365108)
(0.000274492 -0.00124782 0.000365108)
(0.000487003 -0.0011812 0.000365109)
(0.000684718 -0.00107869 0.000365109)
(0.000861627 -0.0009434 0.000365109)
(0.00101236 -0.000779447 0.000365109)
(0.00113233 -0.000591812 0.000365109)
(0.00121789 -0.000386194 0.000365108)
(0.00126645 -0.000168842 0.000365108)
(0.00127653 5.36394e-05 0.000365108)
(0.00124782 0.000274492 0.000365108)
(0.0011812 0.000487003 0.000365109)
(0.00107869 0.000684718 0.000365109)
(0.0009434 0.000861627 0.000365109)
(0.000779447 0.00101236 0.000365109)
(0.000591812 0.00113233 0.000365109)
(0.000386194 0.00121789 0.000365108)
(0.000114965 0.00121062 0.0003845)
(-9.70025e-05 0.00121219 0.0003845)
(-0.000306023 0.00117693 0.0003845)
(-0.000505745 0.00110591 0.0003845)
(-0.0006901 0.00100128 0.0003845)
(-0.000853487 0.000866238 0.0003845)
(-0.000990941 0.000704871 0.0003845)
(-0.00109829 0.000522087 0.0003845)
(-0.00117226 0.00032344 0.0003845)
(-0.00121062 0.000114965 0.0003845)
(-0.00121219 -9.70026e-05 0.0003845)
(-0.00117693 -0.000306023 0.0003845)
(-0.00110591 -0.000505745 0.0003845)
(-0.00100128 -0.0006901 0.0003845)
(-0.000866238 -0.000853487 0.0003845)
(-0.000704871 -0.000990941 0.0003845)
(-0.000522087 -0.00109829 0.0003845)
(-0.00032344 -0.00117226 0.0003845)
(-0.000114965 -0.00121062 0.0003845)
(9.70026e-05 -0.00121219 0.0003845)
(0.000306023 -0.00117693 0.0003845)
(0.000505745 -0.00110591 0.0003845)
(0.0006901 -0.00100128 0.0003845)
(0.000853487 -0.000866238 0.0003845)
(0.000990941 -0.000704871 0.0003845)
(0.00109829 -0.000522087 0.0003845)
(0.00117226 -0.00032344 0.0003845)
(0.00121062 -0.000114965 0.0003845)
(0.00121219 9.70025e-05 0.0003845)
(0.00117693 0.000306023 0.0003845)
(0.00110591 0.000505745 0.0003845)
(0.00100128 0.0006901 0.0003845)
(0.000866238 0.000853487 0.0003845)
(0.000704871 0.000990941 0.0003845)
(0.000522088 0.00109829 0.0003845)
(0.00032344 0.00117226 0.0003845)
(5.49504e-05 0.00115178 0.00040089)
(-0.00014589 0.00114383 0.00040089)
(-0.000342297 0.00110112 0.00040089)
(-0.000528304 0.00102495 0.00040089)
(-0.000698258 0.00091764 0.00040089)
(-0.000846996 0.000782448 0.00040089)
(-0.000969999 0.000623481 0.00040089)
(-0.00106353 0.00044557 0.00040089)
(-0.00112474 0.000254121 0.00040089)
(-0.00115178 5.49503e-05 0.00040089)
(-0.00114383 -0.00014589 0.00040089)
(-0.00110112 -0.000342297 0.00040089)
(-0.00102495 -0.000528304 0.00040089)
(-0.00091764 -0.000698258 0.00040089)
(-0.000782448 -0.000846996 0.00040089)
(-0.000623481 -0.000969999 0.00040089)
(-0.00044557 -0.00106353 0.00040089)
(-0.000254121 -0.00112474 0.00040089)
(-5.49503e-05 -0.00115178 0.00040089)
(0.00014589 -0.00114383 0.00040089)
(0.000342297 -0.00110112 0.00040089)
(0.000528304 -0.00102495 0.00040089)
(0.000698258 -0.00091764 0.00040089)
(0.000846996 -0.000782448 0.00040089)
(0.000969999 -0.000623481 0.00040089)
(0.00106353 -0.00044557 0.00040089)
(0.00112474 -0.000254121 0.00040089)
(0.00115178 -5.49504e-05 0.00040089)
(0.00114383 0.00014589 0.00040089)
(0.00110112 0.000342297 0.00040089)
(0.00102495 0.000528304 0.00040089)
(0.00091764 0.000698258 0.00040089)
(0.000782448 0.000846996 0.00040089)
(0.000623481 0.000969999 0.00040089)
(0.00044557 0.00106353 0.00040089)
(0.000254121 0.00112474 0.00040089)
(0.000152928 0.00159155 0.00054246)
(-0.000125764 0.00159392 0.00054246)
(-0.000400635 0.00154787 0.00054246)
(-0.000663333 0.00145478 0.00054246)
(-0.000905875 0.0013175 0.00054246)
(-0.00112089 0.00114018 0.00054246)
(-0.00130185 0.000928213 0.00054246)
(-0.00144326 0.000688046 0.00054246)
(-0.00154081 0.000426974 0.00054246)
(-0.00159155 0.000152928 0.00054246)
(-0.00159392 -0.000125764 0.000542459)
(-0.00154787 -0.000400635 0.00054246)
(-0.00145478 -0.000663333 0.00054246)
(-0.0013175 -0.000905876 0.00054246)
(-0.00114018 -0.00112089 0.00054246)
(-0.000928213 -0.00130185 0.00054246)
(-0.000688046 -0.00144326 0.00054246)
(-0.000426974 -0.00154081 0.00054246)
(-0.000152928 -0.00159155 0.00054246)
(0.000125764 -0.00159392 0.000542459)
(0.000400635 -0.00154787 0.00054246)
(0.000663333 -0.00145478 0.00054246)
(0.000905876 -0.0013175 0.00054246)
(0.00112089 -0.00114018 0.00054246)
(0.00130185 -0.000928213 0.00054246)
(0.00144326 -0.000688046 0.00054246)
(0.00154081 -0.000426974 0.00054246)
(0.00159155 -0.000152928 0.00054246)
(0.00159392 0.000125764 0.00054246)
(0.00154787 0.000400635 0.00054246)
(0.00145478 0.000663333 0.00054246)
(0.0013175 0.000905876 0.00054246)
(0.00114018 0.00112089 0.00054246)
(0.000928213 0.00130185 0.00054246)
(0.000688046 0.00144326 0.00054246)
(0.000426974 0.00154081 0.00054246)
(9.73519e-05 0.00150666 0.000560788)
(-0.000165755 0.00150067 0.000560788)
(-0.000423826 0.00144909 0.000560788)
(-0.000669019 0.00135348 0.000560788)
(-0.000893884 0.00121674 0.000560788)
(-0.00109159 0.00104304 0.000560788)
(-0.00125613 0.000837638 0.000560788)
(-0.0013825 0.000606788 0.000560788)
(-0.00146686 0.000357501 0.000560788)
(-0.00150666 9.73518e-05 0.000560788)
(-0.00150067 -0.000165755 0.000560787)
(-0.00144909 -0.000423826 0.000560788)
(-0.00135348 -0.000669019 0.000560788)
(-0.00121674 -0.000893884 0.000560788)
(-0.00104304 -0.00109159 0.000560788)
(-0.000837638 -0.00125613 0.000560788)
(-0.000606788 -0.0013825 0.000560788)
(-0.000357501 -0.00146686 0.000560788)
(-9.73517e-05 -0.00150666 0.000560788)
(0.000165756 -0.00150067 0.000560787)
(0.000423826 -0.00144909 0.000560788)
(0.000669019 -0.00135348 0.000560788)
(0.000893884 -0.00121674 0.000560788)
(0.00109159 -0.00104304 0.000560788)
(0.00125613 -0.000837638 0.000560788)
(0.0013825 -0.000606788 0.000560788)
(0.00146686 -0.000357501 0.000560788)
(0.00150666 -9.73519e-05 0.000560788)
(0.00150067 0.000165755 0.000560788)
(0.00144909 0.000423826 0.000560788)
(0.00135348 0.000669019 0.000560788)
(0.00121674 0.000893884 0.000560788)
(0.00104304 0.00109159 0.000560788)
(0.000837638 0.00125613 0.000560788)
(0.000606788 0.0013825 0.000560788)
(0.000357501 0.00146686 0.000560788)
(3.63104e-05 0.00141906 0.000576082)
(-0.000210658 0.00140381 0.000576082)
(-0.000451226 0.0013459 0.000576082)
(-0.000678084 0.0012471 0.000576082)
(-0.000884338 0.0011104 0.000576082)
(-0.00106372 0.000939969 0.000576082)
(-0.00121079 0.000740976 0.000576082)
(-0.00132106 0.000519468 0.000576082)
(-0.0013912 0.000282176 0.000576082)
(-0.00141906 3.63102e-05 0.000576082)
(-0.00140381 -0.000210658 0.000576082)
(-0.0013459 -0.000451226 0.000576082)
(-0.0012471 -0.000678084 0.000576082)
(-0.0011104 -0.000884338 0.000576082)
(-0.000939969 -0.00106372 0.000576082)
(-0.000740976 -0.00121079 0.000576082)
(-0.000519468 -0.00132106 0.000576082)
(-0.000282176 -0.0013912 0.000576082)
(-3.63102e-05 -0.00141906 0.000576082)
(0.000210658 -0.00140381 0.000576082)
(0.000451227 -0.0013459 0.000576082)
(0.000678084 -0.0012471 0.000576082)
(0.000884338 -0.0011104 0.000576082)
(0.00106372 -0.00093997 0.000576082)
(0.00121079 -0.000740976 0.000576082)
(0.00132106 -0.000519468 0.000576082)
(0.0013912 -0.000282176 0.000576082)
(0.00141906 -3.63103e-05 0.000576082)
(0.00140381 0.000210658 0.000576082)
(0.0013459 0.000451226 0.000576082)
(0.0012471 0.000678084 0.000576082)
(0.0011104 0.000884338 0.000576082)
(0.00093997 0.00106372 0.000576082)
(0.000740976 0.00121079 0.000576082)
(0.000519468 0.00132106 0.000576082)
(0.000282176 0.0013912 0.000576082)
(0.000111337 0.00188403 0.000738915)
(-0.000217513 0.00187474 0.000738915)
(-0.000539755 0.00180849 0.000738915)
(-0.000845595 0.00168729 0.000738915)
(-0.00112574 0.00151482 0.000738915)
(-0.00137169 0.00129632 0.000738915)
(-0.00157595 0.00103844 0.000738915)
(-0.00173233 0.000749 0.000738915)
(-0.00183608 0.000436804 0.000738915)
(-0.00188403 0.000111337 0.000738915)
(-0.00187474 -0.000217514 0.000738915)
(-0.00180849 -0.000539755 0.000738915)
(-0.00168729 -0.000845596 0.000738915)
(-0.00151482 -0.00112574 0.000738915)
(-0.00129632 -0.00137169 0.000738915)
(-0.00103844 -0.00157595 0.000738915)
(-0.000749 -0.00173233 0.000738915)
(-0.000436804 -0.00183608 0.000738915)
(-0.000111336 -0.00188403 0.000738915)
(0.000217514 -0.00187474 0.000738915)
(0.000539755 -0.00180849 0.000738915)
(0.000845596 -0.00168729 0.000738915)
(0.00112574 -0.00151482 0.000738915)
(0.00137169 -0.00129632 0.000738915)
(0.00157595 -0.00103844 0.000738915)
(0.00173233 -0.000749 0.000738915)
(0.00183608 -0.000436804 0.000738915)
(0.00188403 -0.000111337 0.000738915)
(0.00187474 0.000217514 0.000738915)
(0.00180849 0.000539755 0.000738915)
(0.00168729 0.000845595 0.000738915)
(0.00151482 0.00112574 0.000738915)
(0.00129632 0.00137169 0.000738915)
(0.00103844 0.00157595 0.000738915)
(0.000749 0.00173233 0.000738915)
(0.000436804 0.00183608 0.000738915)
(5.80619e-05 0.00176607 0.000753385)
(-0.000249496 0.00174933 0.000753385)
(-0.000549472 0.00167942 0.000753385)
(-0.000832753 0.0015585 0.000753385)
(-0.00109073 0.00139021 0.000753385)
(-0.00131557 0.00117969 0.000753385)
(-0.00150043 0.00093332 0.000753385)
(-0.00163971 0.000658593 0.000753385)
(-0.00172916 0.000363855 0.000753385)
(-0.00176607 5.80617e-05 0.000753385)
(-0.00174933 -0.000249496 0.000753385)
(-0.00167942 -0.000549472 0.000753385)
(-0.0015585 -0.000832753 0.000753385)
(-0.00139021 -0.00109073 0.000753385)
(-0.00117969 -0.00131557 0.000753385)
(-0.00093332 -0.00150043 0.000753385)
(-0.000658593 -0.00163971 0.000753385)
(-0.000363855 -0.00172916 0.000753385)
(-5.80616e-05 -0.00176607 0.000753385)
(0.000249496 -0.00174933 0.000753385)
(0.000549473 -0.00167942 0.000753385)
(0.000832754 -0.0015585 0.000753385)
(0.00109073 -0.00139021 0.000753385)
(0.00131557 -0.00117969 0.000753385)
(0.00150043 -0.00093332 0.000753385)
(0.00163971 -0.000658594 0.000753385)
(0.00172916 -0.000363855 0.000753385)
(0.00176607 -5.80618e-05 0.000753385)
(0.00174933 0.000249496 0.000753385)
(0.00167942 0.000549472 0.000753385)
(0.0015585 0.000832753 0.000753385)
(0.00139021 0.00109073 0.000753385)
(0.00117969 0.00131557 0.000753385)
(0.00093332 0.00150043 0.000753385)
(0.000658594 0.00163971 0.000753385)
(0.000363855 0.00172916 0.000753385)
(3.17478e-08 0.00164602 0.000764727)
(-0.000285797 0.00162102 0.000764727)
(-0.000562942 0.00154676 0.000764727)
(-0.000822982 0.00142551 0.000764727)
(-0.00105802 0.00126094 0.000764727)
(-0.0012609 0.00105806 0.000764727)
(-0.00142548 0.000823037 0.000764727)
(-0.00154674 0.000563002 0.000764727)
(-0.00162101 0.000285859 0.000764727)
(-0.00164602 3.1605e-08 0.000764727)
(-0.00162102 -0.000285797 0.000764727)
(-0.00154676 -0.000562942 0.000764727)
(-0.00142551 -0.000822982 0.000764727)
(-0.00126094 -0.00105802 0.000764727)
(-0.00105806 -0.0012609 0.000764727)
(-0.000823037 -0.00142548 0.000764727)
(-0.000563002 -0.00154674 0.000764727)
(-0.000285859 -0.00162101 0.000764727)
(-3.15189e-08 -0.00164602 0.000764727)
(0.000285797 -0.00162102 0.000764727)
(0.000562942 -0.00154676 0.000764727)
(0.000822982 -0.00142551 0.000764727)
(0.00105802 -0.00126094 0.000764727)
(0.0012609 -0.00105806 0.000764727)
(0.00142548 -0.000823037 0.000764727)
(0.00154674 -0.000563002 0.000764727)
(0.00162101 -0.000285859 0.000764727)
(0.00164602 -3.16857e-08 0.000764727)
(0.00162102 0.000285797 0.000764727)
(0.00154676 0.000562942 0.000764727)
(0.00142551 0.000822982 0.000764727)
(0.00126094 0.00105802 0.000764727)
(0.00105806 0.0012609 0.000764727)
(0.000823037 0.00142548 0.000764727)
(0.000563002 0.00154674 0.000764727)
(0.00028586 0.00162101 0.000764727)
(4.9464e-05 0.00213509 0.000951541)
(-0.000322042 0.00211124 0.000951541)
(-0.000683763 0.00202325 0.000951541)
(-0.00102471 0.00187377 0.000951541)
(-0.00133452 0.00166737 0.00095154)
(-0.00160378 0.0014103 0.000951541)
(-0.00182431 0.00111038 0.000951541)
(-0.00198941 0.000776724 0.000951541)
(-0.00209406 0.000419466 0.000951541)
(-0.00213509 4.94638e-05 0.000951541)
(-0.00211124 -0.000322042 0.000951541)
(-0.00202325 -0.000683763 0.000951541)
(-0.00187377 -0.00102471 0.000951541)
(-0.00166737 -0.00133452 0.00095154)
(-0.0014103 -0.00160378 0.000951541)
(-0.00111038 -0.00182431 0.000951541)
(-0.000776724 -0.00198941 0.000951541)
(-0.000419466 -0.00209406 0.000951541)
(-4.94637e-05 -0.00213509 0.000951541)
(0.000322042 -0.00211124 0.000951541)
(0.000683763 -0.00202325 0.000951541)
(0.00102471 -0.00187377 0.000951541)
(0.00133452 -0.00166737 0.00095154)
(0.00160378 -0.0014103 0.000951541)
(0.00182431 -0.00111038 0.000951541)
(0.00198941 -0.000776724 0.000951541)
(0.00209406 -0.000419466 0.000951541)
(0.00213509 -4.94639e-05 0.000951541)
(0.00211124 0.000322042 0.000951541)
(0.00202325 0.000683763 0.000951541)
(0.00187377 0.00102471 0.000951541)
(0.00166737 0.00133452 0.00095154)
(0.0014103 0.00160378 0.000951541)
(0.00111038 0.00182431 0.000951541)
(0.000776724 0.00198941 0.000951541)
(0.000419466 0.00209406 0.000951541)
(1.98416e-06 0.00198088 0.000959266)
(-0.000342023 0.00195113 0.000959266)
(-0.000675637 0.0018621 0.000959266)
(-0.000988722 0.00171648 0.000959266)
(-0.00127176 0.00151872 0.000959266)
(-0.00151617 0.00127481 0.000959266)
(-0.0017145 0.000992158 0.000959266)
(-0.00186074 0.000679365 0.000959266)
(-0.00195044 0.00034593 0.000959266)
(-0.00198088 1.98399e-06 0.000959266)
(-0.00195113 -0.000342023 0.000959266)
(-0.0018621 -0.000675637 0.000959266)
(-0.00171648 -0.000988722 0.000959266)
(-0.00151872 -0.00127176 0.000959266)
(-0.00127481 -0.00151617 0.000959266)
(-0.000992158 -0.0017145 0.000959266)
(-0.000679365 -0.00186074 0.000959266)
(-0.000345929 -0.00195044 0.000959266)
(-1.98387e-06 -0.00198088 0.000959266)
(0.000342023 -0.00195113 0.000959266)
(0.000675637 -0.0018621 0.000959266)
(0.000988722 -0.00171648 0.000959266)
(0.00127177 -0.00151872 0.000959266)
(0.00151617 -0.00127481 0.000959266)
(0.0017145 -0.000992158 0.000959266)
(0.00186074 -0.000679366 0.000959266)
(0.00195044 -0.00034593 0.000959266)
(0.00198088 -1.98409e-06 0.000959266)
(0.00195113 0.000342023 0.000959266)
(0.0018621 0.000675637 0.000959266)
(0.00171648 0.000988722 0.000959266)
(0.00151872 0.00127176 0.000959266)
(0.00127481 0.00151617 0.000959266)
(0.000992158 0.0017145 0.000959266)
(0.000679366 0.00186074 0.000959266)
(0.00034593 0.00195044 0.000959266)
(-4.94367e-05 0.00182551 0.000963737)
(-0.000365681 0.00178919 0.000963737)
(-0.000670815 0.00169851 0.000963737)
(-0.000955566 0.00155622 0.000963737)
(-0.00121128 0.00136664 0.000963737)
(-0.00143019 0.00113554 0.000963737)
(-0.00160565 0.00086994 0.000963737)
(-0.00173232 0.000577905 0.000963737)
(-0.00180636 0.000268311 0.000963737)
(-0.00182551 -4.94368e-05 0.000963737)
(-0.00178919 -0.000365681 0.000963737)
(-0.00169851 -0.000670815 0.000963737)
(-0.00155622 -0.000955566 0.000963737)
(-0.00136664 -0.00121128 0.000963737)
(-0.00113554 -0.0014302 0.000963737)
(-0.00086994 -0.00160565 0.000963737)
(-0.000577905 -0.00173232 0.000963737)
(-0.00026831 -0.00180636 0.000963737)
(4.94369e-05 -0.00182551 0.000963737)
(0.000365681 -0.00178919 0.000963737)
(0.000670815 -0.00169851 0.000963737)
(0.000955566 -0.00155622 0.000963737)
(0.00121128 -0.00136664 0.000963737)
(0.0014302 -0.00113554 0.000963737)
(0.00160565 -0.00086994 0.000963737)
(0.00173232 -0.000577905 0.000963737)
(0.00180636 -0.000268311 0.000963737)
(0.00182551 4.94367e-05 0.000963737)
(0.00178919 0.000365681 0.000963737)
(0.00169851 0.000670815 0.000963737)
(0.00155622 0.000955566 0.000963737)
(0.00136664 0.00121128 0.000963737)
(0.00113554 0.00143019 0.000963737)
(0.00086994 0.00160565 0.000963737)
(0.000577905 0.00173232 0.000963737)
(0.000268311 0.00180636 0.000963737)
(-2.53649e-05 0.00233538 0.00117919)
(-0.000430514 0.0022955 0.00117919)
(-0.000822583 0.00218587 0.00117919)
(-0.00118966 0.00200982 0.00117919)
(-0.00152059 0.0017727 0.00117919)
(-0.00180531 0.00148172 0.00117919)
(-0.00203518 0.00114572 0.00117919)
(-0.00220322 0.000774912 0.00117919)
(-0.00230431 0.000380554 0.00117919)
(-0.00233538 -2.53651e-05 0.00117919)
(-0.0022955 -0.000430515 0.00117919)