/*--------------------------------*- C++ -*----------------------------------*\
| =========                 |                                                 |
| \\      /  F ield         | OpenFOAM: The Open Source CFD Toolbox           |
|  \\    /   O peration     | Version:  2312                                  |
|   \\  /    A nd           | Website:  www.openfoam.com                      |
|    \\/     M anipulation  |                                                 |
\*---------------------------------------------------------------------------*/
FoamFile
{
    version     2.0;
    format      ascii;
    arch        "LSB;label=32;scalar=64";
    class       pointVectorField;
    location    "0.2";
    object      pointD;
}
// * * * * * * * * * * * * * * * * * * * * * * * * * * * * * * * * * * * * * //

dimensions      [0 1 0 0 0 0 0];

internalField   nonuniform List<vector> 
2164
(
(0 0 0)
(0 0 0)
(0 0 0)
(0 0 0)
(0 0 0)
(0 0 0)
(0 0 0)
(0 0 0)
(0 0 0)
(0 0 0)
(0 0 0)
(0 0 0)
(0 0 0)
(0 0 0)
(0 0 0)
(0 0 0)
(0 0 0)
(0 0 0)
(0 0 0)
(0 0 0)
(0 0 0)
(0 0 0)
(0 0 0)
(0 0 0)
(0 0 0)
(0 0 0)
(0 0 0)
(0 0 0)
(0 0 0)
(0 0 0)
(0 0 0)
(0 0 0)
(0 0 0)
(0 0 0)
(0 0 0)
(0 0 0)
(7.94688e-05 0.000399182 4.38311e-05)
(8.94427e-06 0.000406918 4.38312e-05)
(-6.1852e-05 0.000402289 4.38315e-05)
(-0.000130769 0.000385437 4.38317e-05)
(-0.000195712 0.000356874 4.38316e-05)
(-0.00025471 0.000317467 4.38316e-05)
(-0.000305968 0.000268413 4.38316e-05)
(-0.000347929 0.000211205 4.38313e-05)
(-0.000379318 0.000147579 4.38312e-05)
(-0.000399182 7.94688e-05 4.38311e-05)
(-0.000406918 8.94423e-06 4.38312e-05)
(-0.000402289 -6.18521e-05 4.38315e-05)
(-0.000385437 -0.000130769 4.38317e-05)
(-0.000356874 -0.000195712 4.38316e-05)
(-0.000317466 -0.00025471 4.38316e-05)
(-0.000268413 -0.000305968 4.38316e-05)
(-0.000211205 -0.000347929 4.38313e-05)
(-0.000147579 -0.000379318 4.38312e-05)
(-7.94688e-05 -0.000399182 4.38311e-05)
(-8.94421e-06 -0.000406918 4.38312e-05)
(6.18521e-05 -0.000402289 4.38315e-05)
(0.000130769 -0.000385437 4.38317e-05)
(0.000195712 -0.000356874 4.38316e-05)
(0.00025471 -0.000317467 4.38316e-05)
(0.000305968 -0.000268413 4.38316e-05)
(0.000347929 -0.000211205 4.38313e-05)
(0.000379318 -0.000147579 4.38312e-05)
(0.000399182 -7.94688e-05 4.38311e-05)
(0.000406918 -8.94425e-06 4.38312e-05)
(0.000402289 6.1852e-05 4.38315e-05)
(0.000385437 0.000130769 4.38317e-05)
(0.000356874 0.000195712 4.38316e-05)
(0.000317467 0.00025471 4.38316e-05)
(0.000268413 0.000305968 4.38316e-05)
(0.000211205 0.000347929 4.38313e-05)
(0.000147579 0.000379318 4.38312e-05)
(4.54597e-05 0.000393981 5.74495e-05)
(-2.36449e-05 0.00039589 5.74495e-05)
(-9.20307e-05 0.000385769 5.74497e-05)
(-0.000157621 0.000363928 5.74499e-05)
(-0.000218422 0.000331028 5.74499e-05)
(-0.000272586 0.00028807 5.74498e-05)
(-0.000318468 0.00023636 5.74497e-05)
(-0.000354673 0.000177467 5.74496e-05)
(-0.000380102 0.000113183 5.74495e-05)
(-0.000393981 4.54597e-05 5.74495e-05)
(-0.00039589 -2.3645e-05 5.74495e-05)
(-0.000385769 -9.20308e-05 5.74497e-05)
(-0.000363928 -0.000157621 5.74499e-05)
(-0.000331028 -0.000218422 5.74499e-05)
(-0.00028807 -0.000272586 5.74498e-05)
(-0.00023636 -0.000318468 5.74497e-05)
(-0.000177467 -0.000354673 5.74496e-05)
(-0.000113183 -0.000380102 5.74495e-05)
(-4.54596e-05 -0.000393981 5.74495e-05)
(2.3645e-05 -0.00039589 5.74495e-05)
(9.20308e-05 -0.000385769 5.74497e-05)
(0.000157621 -0.000363928 5.74499e-05)
(0.000218422 -0.000331028 5.74499e-05)
(0.000272586 -0.00028807 5.74498e-05)
(0.000318468 -0.00023636 5.74497e-05)
(0.000354673 -0.000177467 5.74496e-05)
(0.000380102 -0.000113183 5.74495e-05)
(0.000393981 -4.54597e-05 5.74495e-05)
(0.00039589 2.3645e-05 5.74495e-05)
(0.000385769 9.20307e-05 5.74497e-05)
(0.000363928 0.000157621 5.74499e-05)
(0.000331028 0.000218422 5.74499e-05)
(0.00028807 0.000272586 5.74498e-05)
(0.00023636 0.000318468 5.74497e-05)
(0.000177467 0.000354673 5.74496e-05)
(0.000113183 0.000380102 5.74495e-05)
(0 0 0)
(0 0 0)
(0 0 0)
(0 0 0)
(0 0 0)
(0 0 0)
(0 0 0)
(0 0 0)
(0 0 0)
(0 0 0)
(0 0 0)
(0 0 0)
(0 0 0)
(0 0 0)
(0 0 0)
(0 0 0)
(0 0 0)
(0 0 0)
(0 0 0)
(0 0 0)
(0 0 0)
(0 0 0)
(0 0 0)
(0 0 0)
(0 0 0)
(0 0 0)
(0 0 0)
(0 0 0)
(0 0 0)
(0 0 0)
(0 0 0)
(0 0 0)
(0 0 0)
(0 0 0)
(0 0 0)
(0 0 0)
(6.32422e-06 0.000387767 6.65861e-05)
(-6.11068e-05 0.000382975 6.65861e-05)
(-0.000126681 0.000366545 6.65862e-05)
(-0.000188406 0.000338979 6.65862e-05)
(-0.000244407 0.000301112 6.65862e-05)
(-0.000292982 0.000254097 6.65862e-05)
(-0.000332654 0.000199361 6.65861e-05)
(-0.000362219 0.000138567 6.6586e-05)
(-0.000380778 7.35634e-05 6.6586e-05)
(-0.000387767 6.32419e-06 6.65861e-05)
(-0.000382975 -6.11068e-05 6.65861e-05)
(-0.000366545 -0.000126681 6.65862e-05)
(-0.000338979 -0.000188406 6.65862e-05)
(-0.000301112 -0.000244407 6.65862e-05)
(-0.000254097 -0.000292982 6.65862e-05)
(-0.000199361 -0.000332654 6.65861e-05)
(-0.000138567 -0.000362219 6.6586e-05)
(-7.35634e-05 -0.000380778 6.6586e-05)
(-6.32418e-06 -0.000387767 6.65861e-05)
(6.11068e-05 -0.000382975 6.65861e-05)
(0.000126681 -0.000366545 6.65862e-05)
(0.000188406 -0.000338979 6.65862e-05)
(0.000244407 -0.000301112 6.65862e-05)
(0.000292982 -0.000254097 6.65862e-05)
(0.000332654 -0.000199361 6.65861e-05)
(0.000362219 -0.000138567 6.6586e-05)
(0.000380778 -7.35634e-05 6.6586e-05)
(0.000387767 -6.3242e-06 6.65861e-05)
(0.000382975 6.11068e-05 6.65861e-05)
(0.000366545 0.000126681 6.65862e-05)
(0.000338979 0.000188406 6.65862e-05)
(0.000301112 0.000244407 6.65862e-05)
(0.000254097 0.000292982 6.65862e-05)
(0.000199361 0.000332654 6.65861e-05)
(0.000138567 0.000362219 6.6586e-05)
(7.35634e-05 0.000380778 6.6586e-05)
(0 0 0)
(0 0 0)
(0 0 0)
(0 0 0)
(0 0 0)
(0 0 0)
(0 0 0)
(0 0 0)
(0 0 0)
(0 0 0)
(0 0 0)
(0 0 0)
(0 0 0)
(0 0 0)
(0 0 0)
(0 0 0)
(0 0 0)
(0 0 0)
(0 0 0)
(0 0 0)
(0 0 0)
(0 0 0)
(0 0 0)
(0 0 0)
(0 0 0)
(0 0 0)
(0 0 0)
(0 0 0)
(0 0 0)
(0 0 0)
(0 0 0)
(0 0 0)
(0 0 0)
(0 0 0)
(0 0 0)
(0 0 0)
(-3.7363e-05 0.000378934 7.10197e-05)
(-0.000102596 0.000366689 7.10197e-05)
(-0.000164713 0.000343303 7.10197e-05)
(-0.000221825 0.000309485 7.10197e-05)
(-0.000272196 0.000266264 7.10198e-05)
(-0.000314297 0.000214952 7.10197e-05)
(-0.000346848 0.000157109 7.10196e-05)
(-0.00036886 9.44931e-05 7.10196e-05)
(-0.000379665 2.9006e-05 7.10196e-05)
(-0.000378934 -3.7363e-05 7.10197e-05)
(-0.000366689 -0.000102596 7.10197e-05)
(-0.000343303 -0.000164713 7.10197e-05)
(-0.000309485 -0.000221825 7.10197e-05)
(-0.000266264 -0.000272196 7.10197e-05)
(-0.000214952 -0.000314297 7.10197e-05)
(-0.000157109 -0.000346848 7.10196e-05)
(-9.44931e-05 -0.00036886 7.10196e-05)
(-2.90059e-05 -0.000379665 7.10196e-05)
(3.73631e-05 -0.000378934 7.10197e-05)
(0.000102596 -0.000366689 7.10197e-05)
(0.000164713 -0.000343303 7.10197e-05)
(0.000221825 -0.000309485 7.10197e-05)
(0.000272196 -0.000266264 7.10197e-05)
(0.000314297 -0.000214952 7.10197e-05)
(0.000346848 -0.00015711 7.10196e-05)
(0.00036886 -9.44931e-05 7.10196e-05)
(0.000379665 -2.9006e-05 7.10196e-05)
(0.000378934 3.7363e-05 7.10197e-05)
(0.000366689 0.000102596 7.10197e-05)
(0.000343303 0.000164713 7.10197e-05)
(0.000309485 0.000221825 7.10197e-05)
(0.000266264 0.000272196 7.10198e-05)
(0.000214952 0.000314297 7.10197e-05)
(0.00015711 0.000346848 7.10196e-05)
(9.44931e-05 0.00036886 7.10196e-05)
(2.9006e-05 0.000379665 7.10196e-05)
(0 0 0)
(0 0 0)
(0 0 0)
(0 0 0)
(0 0 0)
(0 0 0)
(0 0 0)
(0 0 0)
(0 0 0)
(0 0 0)
(0 0 0)
(0 0 0)
(0 0 0)
(0 0 0)
(0 0 0)
(0 0 0)
(0 0 0)
(0 0 0)
(0 0 0)
(0 0 0)
(0 0 0)
(0 0 0)
(0 0 0)
(0 0 0)
(0 0 0)
(0 0 0)
(0 0 0)
(0 0 0)
(0 0 0)
(0 0 0)
(0 0 0)
(0 0 0)
(0 0 0)
(0 0 0)
(0 0 0)
(0 0 0)
(0.000105874 0.000803958 0.000142721)
(-3.53399e-05 0.000810129 0.000142721)
(-0.000175481 0.000791684 0.000142721)
(-0.000310289 0.000749185 0.000142722)
(-0.000435669 0.000683922 0.000142722)
(-0.000547812 0.000597879 0.000142722)
(-0.00064331 0.000493669 0.000142722)
(-0.000719262 0.000374459 0.000142721)
(-0.000773359 0.000243871 0.000142721)
(-0.000803958 0.000105874 0.000142721)
(-0.000810129 -3.534e-05 0.000142721)
(-0.000791684 -0.000175481 0.000142721)
(-0.000749185 -0.000310289 0.000142722)
(-0.000683922 -0.000435669 0.000142722)
(-0.000597879 -0.000547812 0.000142722)
(-0.000493669 -0.00064331 0.000142721)
(-0.000374459 -0.000719262 0.000142721)
(-0.000243871 -0.000773359 0.000142721)
(-0.000105874 -0.000803958 0.000142721)
(3.534e-05 -0.000810129 0.000142721)
(0.000175481 -0.000791684 0.000142721)
(0.000310289 -0.000749185 0.000142722)
(0.000435669 -0.000683922 0.000142722)
(0.000547812 -0.000597879 0.000142722)
(0.00064331 -0.000493669 0.000142721)
(0.000719262 -0.000374459 0.000142721)
(0.000773359 -0.000243871 0.000142721)
(0.000803958 -0.000105874 0.000142721)
(0.000810129 3.534e-05 0.000142721)
(0.000791684 0.000175481 0.000142721)
(0.000749185 0.000310289 0.000142722)
(0.000683922 0.000435669 0.000142722)
(0.000597879 0.000547812 0.000142722)
(0.000493669 0.00064331 0.000142722)
(0.000374459 0.000719262 0.000142721)
(0.000243871 0.000773359 0.000142721)
(6.09329e-05 0.000783156 0.000162352)
(-7.59867e-05 0.000781839 0.000162352)
(-0.000210597 0.000756766 0.000162352)
(-0.000338808 0.000708699 0.000162353)
(-0.000456725 0.000639099 0.000162353)
(-0.000560765 0.000550081 0.000162352)
(-0.000647766 0.000444347 0.000162352)
(-0.000715086 0.000325113 0.000162352)
(-0.000760677 0.000196 0.000162352)
(-0.000783156 6.09329e-05 0.000162352)
(-0.000781839 -7.59868e-05 0.000162352)
(-0.000756766 -0.000210597 0.000162352)
(-0.000708699 -0.000338809 0.000162353)
(-0.000639099 -0.000456725 0.000162353)
(-0.000550081 -0.000560765 0.000162352)
(-0.000444347 -0.000647766 0.000162352)
(-0.000325113 -0.000715086 0.000162352)
(-0.000196 -0.000760677 0.000162352)
(-6.09328e-05 -0.000783156 0.000162352)
(7.59868e-05 -0.000781839 0.000162352)
(0.000210597 -0.000756766 0.000162352)
(0.000338809 -0.000708699 0.000162353)
(0.000456725 -0.000639099 0.000162353)
(0.000560765 -0.000550081 0.000162352)
(0.000647766 -0.000444347 0.000162352)
(0.000715086 -0.000325113 0.000162352)
(0.000760677 -0.000196 0.000162352)
(0.000783156 -6.09329e-05 0.000162352)
(0.000781839 7.59868e-05 0.000162352)
(0.000756766 0.000210597 0.000162352)
(0.000708699 0.000338809 0.000162353)
(0.000639099 0.000456725 0.000162353)
(0.000550081 0.000560765 0.000162352)
(0.000444347 0.000647766 0.000162352)
(0.000325113 0.000715086 0.000162352)
(0.000196 0.000760677 0.000162352)
(1.04782e-05 0.00076085 0.000179537)
(-0.0001218 0.000751111 0.000179537)
(-0.000250379 0.000718549 0.000179538)
(-0.00037135 0.000664155 0.000179538)
(-0.000481038 0.00058958 0.000179538)
(-0.000576109 0.000497092 0.000179538)
(-0.000653676 0.000389499 0.000179537)
(-0.000711381 0.000270073 0.000179537)
(-0.000747471 0.000142439 0.000179537)
(-0.00076085 1.04781e-05 0.000179537)
(-0.000751111 -0.0001218 0.000179537)
(-0.000718549 -0.000250379 0.000179538)
(-0.000664155 -0.00037135 0.000179538)
(-0.00058958 -0.000481038 0.000179538)
(-0.000497092 -0.000576109 0.000179538)
(-0.000389499 -0.000653676 0.000179537)
(-0.000270073 -0.000711381 0.000179537)
(-0.000142439 -0.000747471 0.000179537)
(-1.04781e-05 -0.00076085 0.000179537)
(0.0001218 -0.000751111 0.000179537)
(0.000250379 -0.000718549 0.000179538)
(0.00037135 -0.000664155 0.000179538)
(0.000481038 -0.00058958 0.000179538)
(0.000576109 -0.000497092 0.000179538)
(0.000653676 -0.000389499 0.000179537)
(0.000711381 -0.000270073 0.000179537)
(0.000747471 -0.000142439 0.000179537)
(0.00076085 -1.04781e-05 0.000179537)
(0.000751111 0.0001218 0.000179537)
(0.000718549 0.000250379 0.000179538)
(0.000664155 0.00037135 0.000179538)
(0.00058958 0.000481038 0.000179538)
(0.000497092 0.000576109 0.000179538)
(0.000389499 0.000653676 0.000179538)
(0.000270073 0.000711381 0.000179537)
(0.000142439 0.000747471 0.000179537)
(-4.39739e-05 0.000734278 0.000193683)
(-0.000170812 0.000715487 0.000193683)
(-0.000292459 0.000674956 0.000193683)
(-0.000405221 0.000613917 0.000193683)
(-0.00050567 0.000534224 0.000193683)
(-0.000590755 0.000438299 0.000193683)
(-0.00065789 0.000329057 0.000193683)
(-0.000705035 0.000209816 0.000193683)
(-0.000730758 8.42008e-05 0.000193683)
(-0.000734278 -4.3974e-05 0.000193683)
(-0.000715487 -0.000170812 0.000193683)
(-0.000674956 -0.000292459 0.000193683)
(-0.000613917 -0.000405221 0.000193683)
(-0.000534224 -0.00050567 0.000193683)
(-0.000438299 -0.000590755 0.000193683)
(-0.000329057 -0.00065789 0.000193683)
(-0.000209816 -0.000705035 0.000193683)
(-8.42008e-05 -0.000730759 0.000193683)
(4.3974e-05 -0.000734278 0.000193683)
(0.000170812 -0.000715487 0.000193683)
(0.000292459 -0.000674956 0.000193683)
(0.000405221 -0.000613917 0.000193683)
(0.00050567 -0.000534224 0.000193683)
(0.000590755 -0.000438299 0.000193683)
(0.00065789 -0.000329057 0.000193683)
(0.000705035 -0.000209816 0.000193683)
(0.000730759 -8.42008e-05 0.000193683)
(0.000734278 4.3974e-05 0.000193683)
(0.000715487 0.000170812 0.000193683)
(0.000674956 0.000292459 0.000193683)
(0.000613917 0.000405221 0.000193683)
(0.000534224 0.00050567 0.000193683)
(0.000438299 0.000590755 0.000193683)
(0.000329057 0.00065789 0.000193683)
(0.000209816 0.000705035 0.000193683)
(8.42008e-05 0.000730759 0.000193683)
(0.000106027 0.00119795 0.000291224)
(-0.000103606 0.00119816 0.000291224)
(-0.000310092 0.00116197 0.000291224)
(-0.000507154 0.00109047 0.000291225)
(-0.000688808 0.000985837 0.000291225)
(-0.000849531 0.00085125 0.000291225)
(-0.000984444 0.000690797 0.000291224)
(-0.00108944 0.000509355 0.000291224)
(-0.00116134 0.000312437 0.000291224)
(-0.00119795 0.000106027 0.000291224)
(-0.00119816 -0.000103607 0.000291224)
(-0.00116197 -0.000310092 0.000291224)
(-0.00109047 -0.000507154 0.000291225)
(-0.000985836 -0.000688808 0.000291225)
(-0.00085125 -0.000849532 0.000291225)
(-0.000690797 -0.000984444 0.000291224)
(-0.000509355 -0.00108944 0.000291224)
(-0.000312437 -0.00116134 0.000291224)
(-0.000106026 -0.00119795 0.000291224)
(0.000103607 -0.00119816 0.000291224)
(0.000310092 -0.00116197 0.000291224)
(0.000507154 -0.00109047 0.000291225)
(0.000688808 -0.000985837 0.000291225)
(0.000849532 -0.00085125 0.000291225)
(0.000984444 -0.000690797 0.000291224)
(0.00108944 -0.000509355 0.000291224)
(0.00116134 -0.000312438 0.000291224)
(0.00119795 -0.000106027 0.000291224)
(0.00119816 0.000103607 0.000291224)
(0.00116197 0.000310092 0.000291224)
(0.00109047 0.000507154 0.000291225)
(0.000985837 0.000688808 0.000291225)
(0.00085125 0.000849531 0.000291225)
(0.000690797 0.000984444 0.000291224)
(0.000509355 0.00108944 0.000291224)
(0.000312438 0.00116134 0.000291224)
(5.24054e-05 0.00115493 0.00031442)
(-0.000148942 0.00114648 0.00031442)
(-0.000345764 0.0011032 0.00031442)
(-0.000532079 0.0010264 0.00031442)
(-0.000702228 0.000918412 0.00031442)
(-0.00085104 0.000782519 0.00031442)
(-0.000973994 0.000622849 0.00031442)
(-0.00106735 0.000444254 0.00031442)
(-0.00112828 0.00025216 0.00031442)
(-0.00115493 5.24053e-05 0.00031442)
(-0.00114648 -0.000148942 0.00031442)
(-0.0011032 -0.000345764 0.00031442)
(-0.0010264 -0.00053208 0.00031442)
(-0.000918412 -0.000702228 0.00031442)
(-0.000782519 -0.00085104 0.00031442)
(-0.000622848 -0.000973994 0.00031442)
(-0.000444254 -0.00106735 0.00031442)
(-0.00025216 -0.00112828 0.00031442)
(-5.24052e-05 -0.00115493 0.00031442)
(0.000148942 -0.00114648 0.00031442)
(0.000345764 -0.0011032 0.00031442)
(0.00053208 -0.0010264 0.00031442)
(0.000702228 -0.000918412 0.00031442)
(0.00085104 -0.000782519 0.00031442)
(0.000973994 -0.000622849 0.00031442)
(0.00106735 -0.000444254 0.00031442)
(0.00112828 -0.00025216 0.00031442)
(0.00115493 -5.24053e-05 0.00031442)
(0.00114648 0.000148942 0.00031442)
(0.0011032 0.000345764 0.00031442)
(0.0010264 0.00053208 0.00031442)
(0.000918412 0.000702228 0.00031442)
(0.000782519 0.00085104 0.00031442)
(0.000622849 0.000973994 0.00031442)
(0.000444254 0.00106735 0.00031442)
(0.00025216 0.00112828 0.00031442)
(-6.43562e-06 0.0011104 0.000335358)
(-0.000199158 0.00109242 0.000335358)
(-0.000385828 0.00104124 0.000335358)
(-0.000560775 0.000958421 0.000335358)
(-0.000718684 0.000846482 0.000335358)
(-0.000854756 0.000708824 0.000335358)
(-0.000964856 0.000549629 0.000335358)
(-0.00104564 0.000373733 0.000335358)
(-0.00109465 0.000186482 0.000335358)
(-0.0011104 -6.43571e-06 0.000335358)
(-0.00109242 -0.000199158 0.000335358)
(-0.00104124 -0.000385828 0.000335358)
(-0.000958421 -0.000560775 0.000335358)
(-0.000846482 -0.000718684 0.000335358)
(-0.000708824 -0.000854756 0.000335358)
(-0.000549629 -0.000964856 0.000335358)
(-0.000373733 -0.00104564 0.000335358)
(-0.000186482 -0.00109465 0.000335358)
(6.43575e-06 -0.0011104 0.000335358)
(0.000199158 -0.00109242 0.000335358)
(0.000385828 -0.00104124 0.000335358)
(0.000560775 -0.000958421 0.000335358)
(0.000718684 -0.000846482 0.000335358)
(0.000854756 -0.000708824 0.000335358)
(0.000964856 -0.000549629 0.000335358)
(0.00104564 -0.000373733 0.000335358)
(0.00109465 -0.000186482 0.000335358)
(0.0011104 6.43567e-06 0.000335358)
(0.00109242 0.000199158 0.000335358)
(0.00104124 0.000385828 0.000335358)
(0.000958421 0.000560775 0.000335358)
(0.000846482 0.000718684 0.000335358)
(0.000708824 0.000854756 0.000335358)
(0.000549629 0.000964856 0.000335358)
(0.000373733 0.00104564 0.000335358)
(0.000186482 0.00109465 0.000335358)
(-6.81464e-05 0.00106092 0.000353453)
(-0.000251337 0.00103297 0.000353453)
(-0.000426893 0.000973633 0.000353453)
(-0.000589477 0.000884712 0.000353453)
(-0.000734149 0.00076891 0.000353453)
(-0.000856516 0.000629744 0.000353453)
(-0.000952858 0.000471445 0.000353452)
(-0.00102025 0.000298821 0.000353453)
(-0.00105664 0.000117116 0.000353453)
(-0.00106092 -6.81465e-05 0.000353453)
(-0.00103297 -0.000251337 0.000353453)
(-0.000973633 -0.000426893 0.000353453)
(-0.000884712 -0.000589477 0.000353453)
(-0.00076891 -0.00073415 0.000353453)
(-0.000629744 -0.000856516 0.000353453)
(-0.000471445 -0.000952858 0.000353452)
(-0.000298821 -0.00102025 0.000353453)
(-0.000117116 -0.00105664 0.000353453)
(6.81465e-05 -0.00106092 0.000353453)
(0.000251337 -0.00103297 0.000353453)
(0.000426893 -0.000973633 0.000353453)
(0.000589477 -0.000884712 0.000353453)
(0.00073415 -0.00076891 0.000353453)
(0.000856516 -0.000629744 0.000353453)
(0.000952858 -0.000471445 0.000353452)
(0.00102025 -0.000298821 0.000353453)
(0.00105664 -0.000117116 0.000353453)
(0.00106092 6.81464e-05 0.000353453)
(0.00103297 0.000251337 0.000353453)
(0.000973633 0.000426893 0.000353453)
(0.000884712 0.000589477 0.000353453)
(0.00076891 0.00073415 0.000353453)
(0.000629744 0.000856516 0.000353453)
(0.000471445 0.000952858 0.000353452)
(0.000298821 0.00102025 0.000353453)
(0.000117116 0.00105664 0.000353453)
(7.24992e-05 0.00157114 0.000470828)
(-0.00020143 0.00155986 0.000470828)
(-0.000469236 0.00150118 0.000470828)
(-0.000722784 0.0013969 0.000470829)
(-0.000954371 0.00125016 0.000470829)
(-0.00115696 0.00106545 0.000470829)
(-0.0013244 0.000848356 0.000470829)
(-0.00145159 0.000605487 0.000470828)
(-0.00153468 0.000344222 0.000470828)
(-0.00157114 7.2499e-05 0.000470828)
(-0.00155986 -0.00020143 0.000470828)
(-0.00150118 -0.000469236 0.000470828)
(-0.0013969 -0.000722784 0.000470829)
(-0.00125016 -0.000954371 0.000470829)
(-0.00106545 -0.00115696 0.000470829)
(-0.000848356 -0.0013244 0.000470829)
(-0.000605487 -0.00145159 0.000470828)
(-0.000344222 -0.00153468 0.000470828)
(-7.2499e-05 -0.00157114 0.000470828)
(0.00020143 -0.00155986 0.000470828)
(0.000469236 -0.00150118 0.000470828)
(0.000722784 -0.0013969 0.000470829)
(0.000954371 -0.00125016 0.000470829)
(0.00115696 -0.00106545 0.000470829)
(0.0013244 -0.000848356 0.000470829)
(0.00145159 -0.000605488 0.000470828)
(0.00153468 -0.000344222 0.000470828)
(0.00157114 -7.24991e-05 0.000470828)
(0.00155986 0.00020143 0.000470828)
(0.00150118 0.000469236 0.000470828)
(0.0013969 0.000722784 0.000470829)
(0.00125016 0.000954371 0.000470829)
(0.00106545 0.00115696 0.000470829)
(0.000848356 0.0013244 0.000470829)
(0.000605488 0.00145159 0.000470829)
(0.000344222 0.00153468 0.000470828)
(1.63231e-05 0.00150012 0.000494389)
(-0.000244418 0.00148016 0.000494389)
(-0.000497731 0.00141523 0.00049439)
(-0.000735922 0.0013073 0.00049439)
(-0.000951753 0.00115965 0.00049439)
(-0.00113866 0.000976761 0.00049439)
(-0.00129098 0.000764196 0.00049439)
(-0.00140407 0.000528409 0.00049439)
(-0.00147449 0.000276568 0.000494389)
(-0.00150012 1.6323e-05 0.000494389)
(-0.00148016 -0.000244418 0.000494389)
(-0.00141523 -0.000497732 0.00049439)
(-0.0013073 -0.000735922 0.00049439)
(-0.00115965 -0.000951753 0.00049439)
(-0.000976761 -0.00113866 0.00049439)
(-0.000764196 -0.00129098 0.00049439)
(-0.000528409 -0.00140407 0.00049439)
(-0.000276568 -0.00147449 0.000494389)
(-1.63229e-05 -0.00150012 0.000494389)
(0.000244418 -0.00148016 0.000494389)
(0.000497732 -0.00141523 0.00049439)
(0.000735922 -0.0013073 0.00049439)
(0.000951753 -0.00115965 0.00049439)
(0.00113866 -0.000976761 0.00049439)
(0.00129098 -0.000764196 0.00049439)
(0.00140407 -0.000528409 0.00049439)
(0.00147449 -0.000276568 0.000494389)
(0.00150012 -1.6323e-05 0.000494389)
(0.00148016 0.000244418 0.000494389)
(0.00141523 0.000497732 0.00049439)
(0.0013073 0.000735922 0.00049439)
(0.00115965 0.000951753 0.00049439)
(0.000976761 0.00113866 0.00049439)
(0.000764196 0.00129098 0.00049439)
(0.000528409 0.00140407 0.00049439)
(0.000276568 0.00147449 0.000494389)
(-4.44656e-05 0.00142799 0.000515632)
(-0.000291757 0.00139857 0.000515633)
(-0.000530184 0.00132666 0.000515633)
(-0.000752501 0.00121444 0.000515633)
(-0.000951953 0.00106532 0.000515633)
(-0.00112248 0.00088383 0.000515633)
(-0.0012589 0.000675485 0.000515633)
(-0.00135708 0.000446617 0.000515632)
(-0.00141401 0.000204177 0.000515633)
(-0.00142799 -4.44657e-05 0.000515632)
(-0.00139857 -0.000291757 0.000515632)
(-0.00132666 -0.000530184 0.000515633)
(-0.00121444 -0.000752502 0.000515633)
(-0.00106532 -0.000951953 0.000515633)
(-0.00088383 -0.00112248 0.000515633)
(-0.000675485 -0.0012589 0.000515633)
(-0.000446617 -0.00135708 0.000515632)
(-0.000204177 -0.00141401 0.000515633)
(4.44658e-05 -0.00142799 0.000515632)
(0.000291757 -0.00139857 0.000515632)
(0.000530184 -0.00132666 0.000515633)
(0.000752502 -0.00121444 0.000515633)
(0.000951953 -0.00106532 0.000515633)
(0.00112248 -0.00088383 0.000515633)
(0.0012589 -0.000675485 0.000515633)
(0.00135708 -0.000446617 0.000515632)
(0.00141401 -0.000204177 0.000515633)
(0.00142799 4.44657e-05 0.000515632)
(0.00139857 0.000291757 0.000515633)
(0.00132666 0.000530184 0.000515633)
(0.00121444 0.000752502 0.000515633)
(0.00106532 0.000951953 0.000515633)
(0.00088383 0.00112248 0.000515633)
(0.000675485 0.0012589 0.000515633)
(0.000446617 0.00135708 0.000515632)
(0.000204177 0.00141401 0.000515633)
(-0.000107484 0.00135073 0.000533926)
(-0.000340403 0.00131154 0.000533926)
(-0.000562979 0.00123251 0.000533926)
(-0.00076845 0.00111602 0.000533926)
(-0.000950569 0.00096563 0.000533926)
(-0.00110381 0.000785895 0.000533926)
(-0.00122351 0.000582281 0.000533926)
(-0.00130603 0.000360975 0.000533926)
(-0.00134887 0.0001287 0.000533926)
(-0.00135073 -0.000107485 0.000533926)
(-0.00131154 -0.000340404 0.000533926)
(-0.00123251 -0.000562979 0.000533926)
(-0.00111602 -0.00076845 0.000533926)
(-0.00096563 -0.000950569 0.000533926)
(-0.000785895 -0.00110381 0.000533926)
(-0.000582281 -0.00122351 0.000533926)
(-0.000360975 -0.00130603 0.000533926)
(-0.0001287 -0.00134887 0.000533926)
(0.000107485 -0.00135073 0.000533926)
(0.000340404 -0.00131154 0.000533926)
(0.000562979 -0.00123251 0.000533926)
(0.00076845 -0.00111602 0.000533926)
(0.000950569 -0.00096563 0.000533926)
(0.00110381 -0.000785895 0.000533926)
(0.00122351 -0.000582281 0.000533926)
(0.00130603 -0.000360975 0.000533926)
(0.00134887 -0.0001287 0.000533926)
(0.00135073 0.000107485 0.000533926)
(0.00131154 0.000340404 0.000533926)
(0.00123251 0.000562979 0.000533926)
(0.00111602 0.00076845 0.000533926)
(0.000965631 0.000950569 0.000533926)
(0.000785895 0.00110381 0.000533926)
(0.000582281 0.00122351 0.000533926)
(0.000360975 0.00130603 0.000533926)
(0.0001287 0.00134887 0.000533926)
(8.96545e-06 0.00191389 0.000674787)
(-0.000323514 0.00188637 0.000674787)
(-0.000646161 0.00180153 0.000674787)
(-0.000949178 0.00166196 0.000674787)
(-0.00122335 0.00147188 0.000674787)
(-0.00146036 0.00123709 0.000674787)
(-0.00165299 0.000964706 0.000674787)
(-0.0017954 0.000663011 0.000674787)
(-0.00188325 0.000341171 0.000674787)
(-0.00191389 8.9653e-06 0.000674787)
(-0.00188637 -0.000323514 0.000674787)
(-0.00180153 -0.000646162 0.000674787)
(-0.00166196 -0.000949178 0.000674787)
(-0.00147188 -0.00122335 0.000674787)
(-0.00123709 -0.00146036 0.000674787)
(-0.000964706 -0.00165299 0.000674787)
(-0.000663011 -0.0017954 0.000674787)
(-0.000341171 -0.00188325 0.000674787)
(-8.9652e-06 -0.00191389 0.000674787)
(0.000323514 -0.00188637 0.000674787)
(0.000646162 -0.00180153 0.000674787)
(0.000949178 -0.00166196 0.000674787)
(0.00122335 -0.00147188 0.000674787)
(0.00146036 -0.00123709 0.000674787)
(0.00165299 -0.000964706 0.000674787)
(0.0017954 -0.000663011 0.000674787)
(0.00188325 -0.000341171 0.000674787)
(0.00191389 -8.96538e-06 0.000674787)
(0.00188637 0.000323514 0.000674787)
(0.00180153 0.000646161 0.000674787)
(0.00166196 0.000949178 0.000674787)
(0.00147188 0.00122335 0.000674787)
(0.00123709 0.00146036 0.000674787)
(0.000964706 0.00165299 0.000674787)
(0.000663011 0.0017954 0.000674787)
(0.000341171 0.00188325 0.000674787)
(-4.45068e-05 0.00180994 0.000695539)
(-0.000358122 0.00177471 0.000695539)
(-0.000660857 0.00168556 0.000695539)
(-0.000943511 0.0015452 0.000695539)
(-0.0011975 0.00135788 0.000695539)
(-0.0014151 0.00112931 0.000695539)
(-0.0015897 0.000866425 0.000695539)
(-0.00171601 0.000577213 0.000695539)
(-0.00179017 0.000270462 0.000695539)
(-0.00180994 -4.45069e-05 0.000695539)
(-0.00177471 -0.000358122 0.000695539)
(-0.00168556 -0.000660857 0.000695539)
(-0.0015452 -0.000943511 0.000695539)
(-0.00135788 -0.0011975 0.000695539)
(-0.00112931 -0.0014151 0.000695539)
(-0.000866425 -0.0015897 0.000695539)
(-0.000577213 -0.00171601 0.000695539)
(-0.000270462 -0.00179017 0.000695539)
(4.4507e-05 -0.00180994 0.000695539)
(0.000358122 -0.00177471 0.000695539)
(0.000660857 -0.00168556 0.000695539)
(0.000943511 -0.0015452 0.000695539)
(0.0011975 -0.00135788 0.000695539)
(0.0014151 -0.00112931 0.000695539)
(0.0015897 -0.000866425 0.000695539)
(0.00171601 -0.000577213 0.000695539)
(0.00179017 -0.000270462 0.000695539)
(0.00180994 4.45068e-05 0.000695539)
(0.00177471 0.000358122 0.000695539)
(0.00168556 0.000660857 0.000695539)
(0.0015452 0.000943511 0.000695539)
(0.00135788 0.0011975 0.000695539)
(0.00112931 0.0014151 0.000695539)
(0.000866425 0.0015897 0.000695539)
(0.000577213 0.00171601 0.000695539)
(0.000270462 0.00179017 0.000695539)
(-0.000102031 0.00170553 0.000713849)
(-0.000396641 0.0016619 0.000713849)
(-0.000679201 0.00156777 0.00071385)
(-0.000941123 0.00142601 0.00071385)
(-0.00117445 0.00124092 0.00071385)
(-0.00137209 0.00101813 0.00071385)
(-0.00152804 0.000764401 0.00071385)
(-0.00163757 0.000487448 0.000713849)
(-0.00169733 0.000195681 0.00071385)
(-0.00170553 -0.000102031 0.000713849)
(-0.0016619 -0.000396641 0.000713849)
(-0.00156777 -0.000679201 0.000713849)
(-0.00142601 -0.000941123 0.00071385)
(-0.00124092 -0.00117445 0.00071385)
(-0.00101813 -0.00137209 0.000713849)
(-0.000764401 -0.00152804 0.000713849)
(-0.000487448 -0.00163757 0.000713849)
(-0.000195681 -0.00169733 0.000713849)
(0.000102031 -0.00170553 0.000713849)
(0.000396641 -0.0016619 0.000713849)
(0.000679201 -0.00156777 0.000713849)
(0.000941123 -0.00142601 0.00071385)
(0.00117445 -0.00124092 0.00071385)
(0.00137209 -0.00101813 0.000713849)
(0.00152804 -0.000764401 0.00071385)
(0.00163757 -0.000487448 0.000713849)
(0.00169733 -0.000195681 0.00071385)
(0.00170553 0.000102031 0.000713849)
(0.0016619 0.000396641 0.000713849)
(0.00156777 0.000679201 0.00071385)
(0.00142601 0.000941123 0.00071385)
(0.00124092 0.00117445 0.00071385)
(0.00101813 0.00137209 0.00071385)
(0.000764401 0.00152804 0.00071385)
(0.000487448 0.00163757 0.00071385)
(0.000195681 0.00169733 0.00071385)
(-0.000161198 0.00159623 0.000729014)
(-0.000435933 0.00154399 0.000729014)
(-0.000697422 0.00144484 0.000729014)
(-0.000937718 0.00130178 0.000729014)
(-0.00114952 0.00111917 0.000729014)
(-0.0013264 0.000902555 0.000729014)
(-0.00146298 0.000658516 0.000729014)
(-0.0015551 0.000394467 0.000729014)
(-0.00159997 0.000118433 0.000729014)
(-0.00159623 -0.000161198 0.000729014)
(-0.00154399 -0.000435933 0.000729014)
(-0.00144484 -0.000697422 0.000729014)
(-0.00130178 -0.000937718 0.000729014)
(-0.00111917 -0.00114952 0.000729014)
(-0.000902555 -0.0013264 0.000729014)
(-0.000658516 -0.00146298 0.000729014)
(-0.000394467 -0.0015551 0.000729014)
(-0.000118433 -0.00159997 0.000729014)
(0.000161198 -0.00159623 0.000729014)
(0.000435933 -0.00154399 0.000729014)
(0.000697422 -0.00144484 0.000729014)
(0.000937718 -0.00130178 0.000729014)
(0.00114952 -0.00111917 0.000729014)
(0.0013264 -0.000902555 0.000729014)
(0.00146298 -0.000658516 0.000729014)
(0.0015551 -0.000394467 0.000729014)
(0.00159997 -0.000118433 0.000729014)
(0.00159623 0.000161198 0.000729014)
(0.00154399 0.000435933 0.000729014)
(0.00144484 0.000697422 0.000729014)
(0.00130178 0.000937718 0.000729014)
(0.00111917 0.00114952 0.000729014)
(0.000902555 0.0013264 0.000729014)
(0.000658516 0.00146298 0.000729014)
(0.000394467 0.0015551 0.000729014)
(0.000118434 0.00159997 0.000729014)
(-7.83479e-05 0.00221656 0.000898713)
(-0.00046206 0.00216928 0.000898713)
(-0.000831732 0.00205609 0.000898713)
(-0.00117613 0.00188043 0.000898713)
(-0.0014848 0.00164762 0.000898713)
(-0.00174834 0.00136476 0.000898713)
(-0.00195877 0.00104043 0.000898713)
(-0.00210968 0.000684486 0.000898714)
(-0.00219649 0.000307744 0.000898714)
(-0.00221656 -7.83481e-05 0.000898713)
(-0.00216928 -0.00046206 0.000898713)
(-0.00205609 -0.000831732 0.000898713)
(-0.00188043 -0.00117613 0.000898713)
(-0.00164762 -0.0014848 0.000898713)