/*--------------------------------*- C++ -*----------------------------------*\
| =========                 |                                                 |
| \\      /  F ield         | OpenFOAM: The Open Source CFD Toolbox           |
|  \\    /   O peration     | Version:  2312                                  |
|   \\  /    A nd           | Website:  www.openfoam.com                      |
|    \\/     M anipulation  |                                                 |
\*---------------------------------------------------------------------------*/
FoamFile
{
    version     2.0;
    format      ascii;
    arch        "LSB;label=32;scalar=64";
    class       volSymmTensorField;
    location    "0.2";
    object      sigma;
}
// * * * * * * * * * * * * * * * * * * * * * * * * * * * * * * * * * * * * * //

dimensions      [1 -1 -2 0 0 0 0];

internalField   nonuniform List<symmTensor> 
1620
(
(-6011.04 -302.391 -660.794 -3660.98 4029.13 2324.07)
(-5836.74 -686.037 -1350.4 -3835.25 3853.17 2324.1)
(-5541.74 -986.946 -1998.99 -4130.23 3560.15 2324.08)
(-5161.69 -1168.79 -2586.82 -4510.43 3158.91 2324.08)
(-4742.32 -1209.67 -3096.05 -4929.81 2661.73 2324.08)
(-4334.22 -1104.66 -3511.22 -5337.87 2083.68 2324.08)
(-3986.63 -866.419 -3819.73 -5685.42 1442.31 2324.04)
(-3741.53 -523.657 -4012.14 -5930.52 757.113 2324.06)
(-3628.42 -117.734 -4082.67 -6043.61 48.9036 2324.06)
(-3660.98 302.391 -4029.13 -6011.04 -660.794 2324.07)
(-3835.25 686.037 -3853.17 -5836.74 -1350.4 2324.1)
(-4130.23 986.946 -3560.15 -5541.74 -1998.99 2324.08)
(-4510.43 1168.79 -3158.91 -5161.69 -2586.82 2324.08)
(-4929.81 1209.67 -2661.73 -4742.32 -3096.05 2324.08)
(-5337.87 1104.66 -2083.68 -4334.22 -3511.22 2324.08)
(-5685.42 866.419 -1442.31 -3986.63 -3819.73 2324.04)
(-5930.52 523.657 -757.113 -3741.53 -4012.14 2324.06)
(-6043.61 117.734 -48.9036 -3628.42 -4082.67 2324.06)
(-6011.04 -302.391 660.794 -3660.98 -4029.13 2324.07)
(-5836.74 -686.037 1350.4 -3835.25 -3853.17 2324.1)
(-5541.74 -986.946 1998.99 -4130.23 -3560.15 2324.08)
(-5161.69 -1168.79 2586.82 -4510.43 -3158.91 2324.08)
(-4742.32 -1209.67 3096.05 -4929.81 -2661.73 2324.08)
(-4334.22 -1104.66 3511.22 -5337.87 -2083.68 2324.08)
(-3986.63 -866.419 3819.73 -5685.42 -1442.31 2324.04)
(-3741.53 -523.657 4012.14 -5930.52 -757.113 2324.06)
(-3628.42 -117.734 4082.67 -6043.61 -48.9036 2324.06)
(-3660.98 302.391 4029.13 -6011.04 660.794 2324.07)
(-3835.25 686.037 3853.17 -5836.74 1350.4 2324.1)
(-4130.23 986.946 3560.15 -5541.74 1998.99 2324.08)
(-4510.43 1168.79 3158.91 -5161.69 2586.82 2324.08)
(-4929.81 1209.67 2661.73 -4742.32 3096.05 2324.08)
(-5337.87 1104.66 2083.68 -4334.22 3511.22 2324.08)
(-5685.42 866.419 1442.31 -3986.63 3819.73 2324.04)
(-5930.52 523.657 757.113 -3741.53 4012.14 2324.06)
(-6043.61 117.734 48.9035 -3628.42 4082.67 2324.06)
(-8568.44 -1140.23 -155.657 3016.15 851.835 -8828.01)
(-7829.13 -3052.54 -301.211 2276.88 811.865 -8827.99)
(-6480.33 -4596.69 -437.615 928.123 747.225 -8827.96)
(-4684.78 -5586.39 -560.748 -867.46 659.919 -8827.97)
(-2659.07 -5902.28 -666.847 -2893.24 552.547 -8827.98)
(-647.431 -5506.3 -752.635 -4904.86 428.337 -8827.99)
(1107.51 -4446.17 -815.538 -6659.7 291.117 -8827.96)
(2393.95 -2849.75 -853.701 -7946.22 145.075 -8828)
(3056.81 -909.617 -865.924 -8609.12 -5.37208 -8828.02)
(3016.15 1140.23 -851.835 -8568.44 -155.657 -8828.01)
(2276.88 3052.54 -811.865 -7829.13 -301.211 -8827.99)
(928.124 4596.69 -747.225 -6480.33 -437.615 -8827.96)
(-867.459 5586.39 -659.919 -4684.78 -560.748 -8827.96)
(-2893.24 5902.28 -552.547 -2659.07 -666.847 -8827.98)
(-4904.86 5506.3 -428.337 -647.43 -752.635 -8827.99)
(-6659.7 4446.17 -291.117 1107.51 -815.538 -8827.96)
(-7946.22 2849.75 -145.075 2393.95 -853.7 -8828)
(-8609.12 909.617 5.37207 3056.81 -865.924 -8828.02)
(-8568.44 -1140.23 155.657 3016.15 -851.835 -8828.01)
(-7829.13 -3052.54 301.211 2276.88 -811.865 -8827.99)
(-6480.33 -4596.69 437.615 928.124 -747.225 -8827.96)
(-4684.78 -5586.39 560.748 -867.459 -659.919 -8827.96)
(-2659.07 -5902.28 666.847 -2893.24 -552.546 -8827.98)
(-647.431 -5506.3 752.635 -4904.86 -428.337 -8827.99)
(1107.51 -4446.17 815.538 -6659.7 -291.117 -8827.96)
(2393.95 -2849.75 853.7 -7946.22 -145.075 -8828)
(3056.81 -909.617 865.924 -8609.12 5.3721 -8828.02)
(3016.15 1140.23 851.835 -8568.44 155.657 -8828.01)
(2276.88 3052.54 811.865 -7829.13 301.211 -8827.99)
(928.123 4596.69 747.225 -6480.33 437.615 -8827.96)
(-867.46 5586.39 659.919 -4684.78 560.748 -8827.97)
(-2893.24 5902.28 552.546 -2659.07 666.847 -8827.98)
(-4904.86 5506.3 428.336 -647.432 752.635 -8827.99)
(-6659.7 4446.17 291.117 1107.51 815.538 -8827.96)
(-7946.22 2849.75 145.075 2393.95 853.7 -8828)
(-8609.12 909.617 -5.37211 3056.81 865.924 -8828.02)
(-16033 -269.181 265.052 -11185.3 -6610.02 -8218.16)
(-15794.8 -1081.96 1408.84 -11423.5 -6463.58 -8218.16)
(-15292.9 -1764.24 2509.83 -11925.4 -6120.73 -8218.2)
(-14587.9 -2233.73 3534.56 -12630.3 -5591.91 -8218.17)
(-13764.9 -2433.81 4451.89 -13453.3 -4893.21 -8218.23)
(-12923.1 -2340.3 5233.94 -14295.1 -4045.8 -8218.15)
(-12164.1 -1964.53 5856.97 -15054.2 -3075.47 -8218.15)
(-11579.3 -1351.81 6302.05 -15639 -2011.67 -8218.2)
(-11239.4 -576.06 6555.63 -15978.9 -886.788 -8218.17)
(-11185.3 269.181 6610.02 -16033 265.053 -8218.16)
(-11423.5 1081.96 6463.58 -15794.8 1408.84 -8218.15)
(-11925.4 1764.24 6120.73 -15292.9 2509.83 -8218.2)
(-12630.3 2233.73 5591.91 -14587.9 3534.56 -8218.16)
(-13453.3 2433.81 4893.21 -13764.9 4451.89 -8218.23)
(-14295.1 2340.3 4045.8 -12923.1 5233.94 -8218.15)
(-15054.2 1964.53 3075.47 -12164.1 5856.97 -8218.14)
(-15639 1351.81 2011.67 -11579.3 6302.05 -8218.2)
(-15978.9 576.06 886.788 -11239.4 6555.63 -8218.17)
(-16033 -269.181 -265.053 -11185.3 6610.02 -8218.16)
(-15794.8 -1081.96 -1408.84 -11423.5 6463.58 -8218.15)
(-15292.9 -1764.24 -2509.83 -11925.4 6120.73 -8218.19)
(-14587.9 -2233.73 -3534.56 -12630.3 5591.91 -8218.16)
(-13764.9 -2433.81 -4451.89 -13453.3 4893.21 -8218.23)
(-12923.1 -2340.3 -5233.94 -14295.1 4045.8 -8218.15)
(-12164.1 -1964.53 -5856.97 -15054.2 3075.47 -8218.15)
(-11579.3 -1351.81 -6302.05 -15639 2011.67 -8218.2)
(-11239.4 -576.06 -6555.63 -15978.9 886.788 -8218.17)
(-11185.3 269.181 -6610.02 -16033 -265.053 -8218.16)
(-11423.5 1081.96 -6463.58 -15794.8 -1408.84 -8218.16)
(-11925.4 1764.24 -6120.73 -15292.9 -2509.83 -8218.2)
(-12630.3 2233.73 -5591.91 -14587.9 -3534.56 -8218.17)
(-13453.3 2433.81 -4893.21 -13764.9 -4451.89 -8218.23)
(-14295.1 2340.3 -4045.8 -12923.1 -5233.94 -8218.15)
(-15054.2 1964.53 -3075.47 -12164.1 -5856.97 -8218.15)
(-15639 1351.81 -2011.67 -11579.3 -6302.05 -8218.2)
(-15978.9 576.06 -886.788 -11239.4 -6555.63 -8218.17)
(1750.66 -346.622 -719.204 3368.51 3469.94 10595.6)
(1917.96 -602.371 -1310.8 3201.11 3292.31 10595.6)
(2162.72 -785.49 -1862.61 2956.46 3014.69 10595.7)
(2455.29 -873.831 -2357.78 2663.84 2645.41 10595.7)
(2760.48 -856.798 -2781.35 2358.71 2195.79 10595.7)
(3041.4 -736.423 -3120.36 2077.8 1679.48 10595.7)
(3264.18 -527.24 -3364.65 1854.9 1112.13 10595.6)
(3402.01 -254.439 -3506.63 1717.09 510.966 10595.7)
(3438.29 49.0428 -3542.11 1680.91 -105.712 10595.7)
(3368.51 346.622 -3469.94 1750.66 -719.204 10595.6)
(3201.11 602.371 -3292.31 1917.96 -1310.8 10595.6)
(2956.46 785.49 -3014.69 2162.72 -1862.61 10595.7)
(2663.84 873.831 -2645.41 2455.29 -2357.78 10595.7)
(2358.71 856.798 -2195.79 2760.48 -2781.35 10595.7)
(2077.8 736.423 -1679.48 3041.4 -3120.36 10595.7)
(1854.9 527.24 -1112.13 3264.18 -3364.65 10595.6)
(1717.09 254.439 -510.966 3402.01 -3506.63 10595.7)
(1680.91 -49.0428 105.712 3438.29 -3542.11 10595.7)
(1750.66 -346.622 719.204 3368.51 -3469.94 10595.6)
(1917.96 -602.371 1310.8 3201.11 -3292.31 10595.6)
(2162.72 -785.49 1862.61 2956.46 -3014.69 10595.7)
(2455.29 -873.831 2357.78 2663.84 -2645.41 10595.7)
(2760.48 -856.798 2781.35 2358.71 -2195.79 10595.7)
(3041.4 -736.423 3120.36 2077.8 -1679.48 10595.7)
(3264.18 -527.24 3364.65 1854.9 -1112.13 10595.6)
(3402.01 -254.439 3506.63 1717.09 -510.966 10595.7)
(3438.29 49.0428 3542.11 1680.91 105.712 10595.7)
(3368.51 346.622 3469.94 1750.66 719.204 10595.6)
(3201.11 602.371 3292.31 1917.96 1310.8 10595.6)
(2956.46 785.49 3014.69 2162.72 1862.61 10595.7)
(2663.84 873.831 2645.41 2455.29 2357.78 10595.7)
(2358.71 856.798 2195.79 2760.48 2781.35 10595.7)
(2077.8 736.423 1679.48 3041.4 3120.36 10595.7)
(1854.9 527.24 1112.13 3264.18 3364.65 10595.6)
(1717.09 254.439 510.966 3402.01 3506.63 10595.7)
(1680.91 -49.0428 -105.712 3438.29 3542.11 10595.7)
(-503.464 -1361.44 -209.285 10852.2 1369.72 -823.135)
(304.624 -3221.24 -443.965 10044.2 1312.62 -823.076)
(1699.98 -4692.55 -665.145 8648.69 1215.56 -823.148)
(3514.44 -5597.84 -866.139 6834.2 1081.62 -823.145)
(5529.12 -5827.96 -1040.79 4819.51 914.777 -823.152)
(7500.96 -5355.15 -1183.84 2847.6 720.155 -823.181)
(9192.31 -4236.43 -1290.88 1156.44 503.628 -823.108)
(10398.9 -2606.71 -1358.74 -50.1935 271.823 -823.096)
(10975.4 -662.623 -1385.26 -626.686 31.7494 -823.135)
(10852.2 1361.44 -1369.72 -503.464 -209.285 -823.135)
(10044.2 3221.24 -1312.62 304.624 -443.965 -823.076)
(8648.69 4692.55 -1215.56 1699.98 -665.145 -823.148)
(6834.2 5597.84 -1081.62 3514.44 -866.139 -823.145)
(4819.51 5827.96 -914.777 5529.12 -1040.79 -823.152)
(2847.6 5355.15 -720.155 7500.96 -1183.84 -823.181)
(1156.44 4236.43 -503.628 9192.31 -1290.88 -823.108)
(-50.1935 2606.71 -271.823 10398.9 -1358.74 -823.096)
(-626.686 662.623 -31.7494 10975.4 -1385.26 -823.135)
(-503.464 -1361.44 209.285 10852.2 -1369.72 -823.135)
(304.624 -3221.24 443.965 10044.2 -1312.62 -823.076)
(1699.98 -4692.55 665.145 8648.69 -1215.56 -823.148)
(3514.44 -5597.84 866.139 6834.2 -1081.62 -823.145)
(5529.12 -5827.96 1040.79 4819.51 -914.777 -823.152)
(7500.96 -5355.15 1183.84 2847.6 -720.155 -823.181)
(9192.31 -4236.43 1290.88 1156.44 -503.628 -823.108)
(10398.9 -2606.71 1358.74 -50.1935 -271.823 -823.096)
(10975.4 -662.623 1385.26 -626.686 -31.7494 -823.135)
(10852.2 1361.44 1369.72 -503.464 209.285 -823.135)
(10044.2 3221.24 1312.62 304.624 443.965 -823.076)
(8648.69 4692.55 1215.56 1699.98 665.145 -823.148)
(6834.2 5597.84 1081.62 3514.44 866.139 -823.145)
(4819.52 5827.96 914.777 5529.12 1040.79 -823.152)
(2847.6 5355.15 720.155 7500.96 1183.84 -823.181)
(1156.44 4236.43 503.628 9192.31 1290.88 -823.108)
(-50.1935 2606.71 271.823 10398.9 1358.74 -823.096)
(-626.686 662.623 31.7494 10975.4 1385.26 -823.135)
(-6670.7 -301.136 146.333 -1661.54 -6636.23 720.584)
(-6416.67 -1139.59 1296.47 -1915.57 -6510 720.569)
(-5891.16 -1840.59 2407.22 -2441.04 -6185.97 720.602)
(-5157.59 -2319.59 3444.83 -3174.57 -5673.98 720.63)
(-4304.4 -2518.83 4377.78 -4027.67 -4989.6 720.64)
(-3434.53 -2414.24 5177.7 -4897.46 -4153.6 720.72)
(-2653 -2018.47 5820.31 -5679.17 -3191.39 720.61)
(-2053.9 -1379.23 6286.07 -6278.29 -2132.21 720.585)
(-1709.58 -573.652 6560.82 -6622.64 -1008.27 720.592)
(-1661.54 301.136 6636.23 -6670.7 146.333 720.584)
(-1915.57 1139.59 6510 -6416.67 1296.47 720.569)
(-2441.04 1840.59 6185.97 -5891.16 2407.22 720.602)
(-3174.57 2319.59 5673.98 -5157.59 3444.83 720.631)
(-4027.67 2518.83 4989.6 -4304.4 4377.78 720.641)
(-4897.46 2414.24 4153.6 -3434.53 5177.7 720.72)
(-5679.17 2018.47 3191.39 -2653 5820.31 720.61)
(-6278.29 1379.23 2132.21 -2053.9 6286.07 720.585)
(-6622.64 573.652 1008.27 -1709.58 6560.82 720.592)
(-6670.7 -301.136 -146.333 -1661.54 6636.23 720.584)
(-6416.67 -1139.59 -1296.47 -1915.57 6510 720.569)
(-5891.16 -1840.59 -2407.22 -2441.04 6185.97 720.602)
(-5157.59 -2319.59 -3444.83 -3174.57 5673.98 720.631)
(-4304.4 -2518.83 -4377.78 -4027.67 4989.6 720.64)
(-3434.53 -2414.24 -5177.7 -4897.46 4153.6 720.72)
(-2653 -2018.47 -5820.31 -5679.17 3191.39 720.61)
(-2053.9 -1379.23 -6286.07 -6278.29 2132.21 720.585)
(-1709.58 -573.652 -6560.82 -6622.64 1008.27 720.592)
(-1661.54 301.136 -6636.23 -6670.7 -146.333 720.584)
(-1915.57 1139.59 -6510 -6416.67 -1296.47 720.569)
(-2441.04 1840.59 -6185.97 -5891.16 -2407.22 720.602)
(-3174.57 2319.59 -5673.98 -5157.59 -3444.83 720.63)
(-4027.67 2518.83 -4989.6 -4304.4 -4377.78 720.64)
(-4897.46 2414.24 -4153.6 -3434.53 -5177.7 720.72)
(-5679.17 2018.47 -3191.39 -2653 -5820.31 720.609)
(-6278.29 1379.23 -2132.21 -2053.9 -6286.07 720.584)
(-6622.64 573.652 -1008.27 -1709.58 -6560.82 720.592)
(1367.95 -358.796 -503.466 2928.09 3498.78 9865.95)
(1537.7 -603.967 -1103.4 2758.31 3358.19 9865.94)
(1781.08 -776.275 -1669.77 2514.94 3115.57 9865.95)
(2068.68 -854.943 -2185.4 2227.27 2778.26 9865.96)
(2365.93 -830.531 -2634.67 1930.14 2356.6 9865.94)
(2636.81 -705.893 -3003.82 1659.21 1863.26 9866)
(2848.74 -496.155 -3281.77 1447.21 1313.36 9865.91)
(2976.23 -226.554 -3459.97 1319.83 723.524 9865.97)
(3003.72 70.3581 -3533.05 1292.24 111.741 9865.9)
(2928.09 358.796 -3498.78 1367.95 -503.466 9865.95)
(2758.31 603.967 -3358.19 1537.7 -1103.4 9865.94)
(2514.94 776.275 -3115.57 1781.08 -1669.77 9865.95)
(2227.27 854.943 -2778.26 2068.68 -2185.4 9865.96)
(1930.14 830.531 -2356.6 2365.93 -2634.67 9865.94)
(1659.21 705.893 -1863.26 2636.81 -3003.82 9866)
(1447.21 496.155 -1313.36 2848.74 -3281.77 9865.91)
(1319.83 226.554 -723.524 2976.23 -3459.97 9865.97)
(1292.24 -70.3581 -111.741 3003.72 -3533.05 9865.9)
(1367.95 -358.796 503.466 2928.09 -3498.78 9865.95)
(1537.7 -603.967 1103.4 2758.31 -3358.19 9865.94)
(1781.08 -776.275 1669.77 2514.94 -3115.57 9865.95)
(2068.68 -854.943 2185.4 2227.27 -2778.26 9865.96)
(2365.93 -830.531 2634.67 1930.14 -2356.6 9865.94)
(2636.81 -705.893 3003.82 1659.21 -1863.26 9866)
(2848.74 -496.155 3281.77 1447.21 -1313.36 9865.91)
(2976.23 -226.554 3459.97 1319.83 -723.524 9865.97)
(3003.72 70.3581 3533.05 1292.24 -111.741 9865.9)
(2928.09 358.796 3498.78 1367.95 503.466 9865.95)
(2758.31 603.967 3358.19 1537.7 1103.4 9865.94)
(2514.94 776.275 3115.57 1781.08 1669.77 9865.95)
(2227.27 854.943 2778.26 2068.68 2185.4 9865.96)
(1930.14 830.531 2356.6 2365.93 2634.67 9865.94)
(1659.21 705.893 1863.26 2636.81 3003.82 9866)
(1447.21 496.155 1313.36 2848.74 3281.77 9865.91)
(1319.83 226.554 723.524 2976.23 3459.97 9865.97)
(1292.24 -70.3581 111.741 3003.72 3533.05 9865.9)
(-1264.29 -1471.51 -193.63 10040.4 1498.76 -1782.15)
(-420.129 -3315.97 -450.948 9196.22 1442.38 -1782.14)
(1003.97 -4760.49 -694.566 7772.12 1342.16 -1782.14)
(2836.27 -5630.8 -917.083 5939.92 1201.18 -1782.08)
(4855.73 -5822 -1111.69 3920.47 1023.64 -1782.11)
(6818.72 -5310.93 -1272.6 1957.37 815.071 -1782.13)
(8488.61 -4159.31 -1394.79 287.557 581.7 -1782.11)
(9663.81 -2506.01 -1474.62 -887.802 330.659 -1782.19)
(10202.8 -550.466 -1509.61 -1426.66 69.5713 -1782.12)
(10040.4 1471.51 -1498.76 -1264.29 -193.63 -1782.15)
(9196.22 3315.97 -1442.38 -420.129 -450.948 -1782.14)
(7772.12 4760.49 -1342.16 1003.97 -694.566 -1782.14)
(5939.92 5630.8 -1201.18 2836.27 -917.083 -1782.08)
(3920.47 5822 -1023.64 4855.73 -1111.69 -1782.11)
(1957.37 5310.93 -815.071 6818.72 -1272.6 -1782.13)
(287.557 4159.31 -581.7 8488.61 -1394.79 -1782.11)
(-887.802 2506.01 -330.659 9663.81 -1474.62 -1782.19)
(-1426.66 550.466 -69.5713 10202.8 -1509.61 -1782.12)
(-1264.29 -1471.51 193.63 10040.4 -1498.76 -1782.15)
(-420.129 -3315.96 450.948 9196.22 -1442.38 -1782.14)
(1003.97 -4760.49 694.566 7772.12 -1342.16 -1782.14)
(2836.27 -5630.8 917.083 5939.92 -1201.18 -1782.08)
(4855.73 -5822 1111.69 3920.47 -1023.64 -1782.11)
(6818.72 -5310.93 1272.6 1957.37 -815.071 -1782.13)
(8488.61 -4159.31 1394.79 287.557 -581.7 -1782.11)
(9663.81 -2506.01 1474.62 -887.802 -330.658 -1782.19)
(10202.8 -550.466 1509.61 -1426.66 -69.5713 -1782.12)
(10040.4 1471.51 1498.76 -1264.29 193.63 -1782.15)
(9196.22 3315.97 1442.38 -420.129 450.948 -1782.14)
(7772.12 4760.49 1342.16 1003.97 694.566 -1782.14)
(5939.92 5630.8 1201.18 2836.27 917.083 -1782.08)
(3920.47 5822 1023.64 4855.73 1111.69 -1782.11)
(1957.37 5310.93 815.071 6818.72 1272.6 -1782.13)
(287.557 4159.31 581.7 8488.61 1394.79 -1782.11)
(-887.802 2506.01 330.658 9663.81 1474.62 -1782.19)
(-1426.66 550.466 69.5712 10202.8 1509.61 -1782.12)
(-6329.51 -764.904 572.851 -1480.43 -6523.02 613.483)
(-5921.68 -1548.01 1696.85 -1888.23 -6324.45 613.477)
(-5270.57 -2144.42 2769.3 -2539.28 -5933.71 613.506)
(-4454.82 -2482.17 3757.61 -3355.12 -5362.67 613.475)
(-3572.72 -2520.54 4631.75 -4237.26 -4628.7 613.44)
(-2730.68 -2254.88 5365.15 -5079.3 -3754.08 613.46)
(-2030.29 -1717.27 5935.53 -5779.7 -2765.4 613.439)
(-1555.93 -972.523 6325.56 -6253.89 -1692.71 613.519)
(-1365.01 -110.472 6523.39 -6444.88 -568.567 613.502)
(-1480.43 764.904 6523.02 -6329.51 572.851 613.483)
(-1888.23 1548.01 6324.45 -5921.68 1696.85 613.477)
(-2539.28 2144.42 5933.71 -5270.57 2769.3 613.506)
(-3355.12 2482.17 5362.67 -4454.82 3757.61 613.475)
(-4237.26 2520.54 4628.7 -3572.72 4631.75 613.44)
(-5079.3 2254.88 3754.08 -2730.68 5365.15 613.461)
(-5779.7 1717.27 2765.4 -2030.29 5935.53 613.44)
(-6253.89 972.523 1692.71 -1555.93 6325.56 613.519)
(-6444.88 110.472 568.567 -1365.01 6523.39 613.503)
(-6329.51 -764.904 -572.851 -1480.43 6523.02 613.484)
(-5921.68 -1548.01 -1696.85 -1888.23 6324.45 613.477)
(-5270.57 -2144.42 -2769.3 -2539.28 5933.71 613.506)
(-4454.82 -2482.17 -3757.61 -3355.12 5362.67 613.475)
(-3572.72 -2520.54 -4631.75 -4237.26 4628.7 613.44)
(-2730.68 -2254.88 -5365.15 -5079.3 3754.08 613.461)
(-2030.29 -1717.27 -5935.53 -5779.7 2765.4 613.439)
(-1555.93 -972.523 -6325.56 -6253.89 1692.71 613.519)
(-1365.01 -110.472 -6523.39 -6444.88 568.567 613.502)
(-1480.43 764.904 -6523.02 -6329.51 -572.851 613.483)
(-1888.23 1548.01 -6324.45 -5921.68 -1696.85 613.477)
(-2539.28 2144.42 -5933.71 -5270.57 -2769.3 613.506)
(-3355.12 2482.17 -5362.67 -4454.82 -3757.61 613.475)
(-4237.26 2520.54 -4628.7 -3572.72 -4631.75 613.44)
(-5079.3 2254.88 -3754.08 -2730.68 -5365.15 613.46)
(-5779.7 1717.27 -2765.4 -2030.29 -5935.53 613.439)
(-6253.89 972.523 -1692.71 -1555.93 -6325.56 613.519)
(-6444.88 110.472 -568.567 -1365.01 -6523.39 613.502)
(1473.77 -270.014 -58.508 3040.4 3588.03 9612.34)
(1613.35 -521.648 -680.69 2900.81 3523.37 9612.3)
(1830.58 -710.361 -1282.18 2683.57 3351.65 9612.29)
(2099.27 -813.382 -1844.71 2414.88 3078.06 9612.32)
(2386.98 -818.305 -2351.16 2127.21 2710.99 9612.33)
(2659.02 -724.522 -2786.21 1855.13 2261.51 9612.33)
(2882.63 -543.371 -3136.6 1631.62 1743.35 9612.34)
(3030.69 -296.659 -3391.68 1483.43 1172.18 9612.28)
(3085.52 -14.1731 -3543.67 1428.67 565.426 9612.36)
(3040.4 270.014 -3588.03 1473.77 -58.508 9612.34)
(2900.81 521.648 -3523.37 1613.35 -680.69 9612.3)
(2683.57 710.361 -3351.65 1830.58 -1282.18 9612.29)
(2414.88 813.382 -3078.06 2099.27 -1844.71 9612.32)
(2127.21 818.305 -2710.99 2386.98 -2351.16 9612.33)
(1855.13 724.522 -2261.51 2659.02 -2786.21 9612.33)
(1631.62 543.371 -1743.35 2882.63 -3136.6 9612.34)
(1483.43 296.659 -1172.18 3030.69 -3391.68 9612.28)
(1428.67 14.1731 -565.426 3085.52 -3543.67 9612.36)
(1473.77 -270.014 58.508 3040.4 -3588.03 9612.34)
(1613.35 -521.648 680.69 2900.81 -3523.37 9612.3)
(1830.58 -710.361 1282.18 2683.57 -3351.65 9612.29)
(2099.27 -813.382 1844.71 2414.88 -3078.06 9612.32)
(2386.98 -818.305 2351.16 2127.21 -2710.99 9612.33)
(2659.02 -724.522 2786.21 1855.13 -2261.51 9612.33)
(2882.63 -543.371 3136.6 1631.62 -1743.35 9612.34)
(3030.69 -296.659 3391.68 1483.43 -1172.18 9612.28)
(3085.52 -14.1731 3543.67 1428.67 -565.426 9612.36)
(3040.4 270.014 3588.03 1473.77 58.508 9612.34)
(2900.81 521.648 3523.37 1613.35 680.69 9612.3)
(2683.57 710.361 3351.65 1830.58 1282.18 9612.29)
(2414.88 813.382 3078.06 2099.27 1844.71 9612.32)
(2127.21 818.305 2710.99 2386.98 2351.16 9612.33)
(1855.13 724.522 2261.51 2659.02 2786.21 9612.33)
(1631.62 543.371 1743.35 2882.63 3136.6 9612.34)
(1483.43 296.659 1172.18 3030.69 3391.68 9612.28)
(1428.67 14.1727 565.425 3085.52 3543.67 9612.36)
(-1169.75 -1544.55 -167.191 10088.2 1570.34 -1880.1)
(-302.001 -3376.62 -437.335 9220.45 1517.44 -1880.09)
(1140.01 -4801.43 -694.189 7778.41 1418.43 -1880.12)
(2982.39 -5647.1 -929.964 5936.09 1276.36 -1880.07)
(5002.82 -5811.64 -1137.48 3915.57 1095.49 -1880.11)
(6957.77 -5275.23 -1310.42 1960.69 881.32 -1880.08)
(8611.31 -4102.55 -1443.53 307.112 640.37 -1880.11)
(9764.09 -2435.02 -1532.81 -845.626 379.976 -1880.09)
(10277 -473.808 -1575.51 -1358.55 108.035 -1880.1)
(10088.2 1544.55 -1570.34 -1169.75 -167.191 -1880.1)
(9220.45 3376.62 -1517.44 -302.001 -437.335 -1880.09)
(7778.41 4801.43 -1418.43 1140.01 -694.189 -1880.12)
(5936.09 5647.1 -1276.36 2982.39 -929.964 -1880.07)
(3915.57 5811.64 -1095.49 5002.82 -1137.48 -1880.11)
(1960.69 5275.23 -881.32 6957.77 -1310.42 -1880.08)
(307.112 4102.55 -640.37 8611.31 -1443.53 -1880.11)
(-845.625 2435.02 -379.976 9764.09 -1532.81 -1880.09)
(-1358.55 473.808 -108.035 10277 -1575.51 -1880.1)
(-1169.75 -1544.55 167.191 10088.2 -1570.34 -1880.1)
(-302.001 -3376.62 437.335 9220.45 -1517.44 -1880.09)
(1140.01 -4801.43 694.189 7778.41 -1418.43 -1880.12)
(2982.39 -5647.1 929.964 5936.09 -1276.36 -1880.07)
(5002.82 -5811.64 1137.48 3915.57 -1095.49 -1880.11)
(6957.77 -5275.23 1310.42 1960.69 -881.32 -1880.08)
(8611.31 -4102.55 1443.53 307.112 -640.37 -1880.11)
(9764.09 -2435.02 1532.81 -845.626 -379.976 -1880.09)
(10277 -473.808 1575.51 -1358.55 -108.035 -1880.1)
(10088.2 1544.55 1570.34 -1169.75 167.191 -1880.1)
(9220.45 3376.62 1517.44 -302.001 437.335 -1880.09)
(7778.41 4801.43 1418.43 1140.01 694.189 -1880.12)
(5936.09 5647.1 1276.36 2982.39 929.964 -1880.07)
(3915.57 5811.64 1095.49 5002.82 1137.48 -1880.11)
(1960.69 5275.23 881.32 6957.77 1310.42 -1880.08)
(307.112 4102.55 640.37 8611.31 1443.53 -1880.11)
(-845.626 2435.02 379.976 9764.09 1532.81 -1880.09)
(-1358.55 473.808 108.035 10277 1575.51 -1880.1)
(-5674.81 -1208.69 975.997 -1068.03 -6409.44 801.181)
(-5122.54 -1923.61 2074.16 -1620.36 -6142.59 801.128)
(-4358.98 -2406.5 3109.3 -2383.85 -5689.09 801.175)
(-3476.39 -2599.13 4049.96 -3266.52 -5062.74 801.153)
(-2581.07 -2478.29 4867.57 -4161.77 -4282.56 801.156)
(-1781.12 -2058.51 5537.28 -4961.73 -3372.26 801.174)
(-1173.01 -1390.45 6038.74 -5569.91 -2359.48 801.144)
(-829.998 -554.685 6356.72 -5912.87 -1275.03 801.138)
(-793.546 347.996 6481.55 -5949.29 -151.813 801.177)
(-1068.03 1208.69 6409.44 -5674.81 975.997 801.182)
(-1620.36 1923.61 6142.59 -5122.54 2074.16 801.129)
(-2383.85 2406.5 5689.09 -4358.98 3109.3 801.175)
(-3266.52 2599.13 5062.74 -3476.39 4049.96 801.154)
(-4161.77 2478.29 4282.56 -2581.07 4867.57 801.156)
(-4961.73 2058.51 3372.26 -1781.12 5537.28 801.175)
(-5569.91 1390.45 2359.48 -1173 6038.74 801.144)
(-5912.87 554.685 1275.03 -829.998 6356.72 801.138)
(-5949.29 -347.996 151.813 -793.546 6481.55 801.177)
(-5674.81 -1208.69 -975.997 -1068.03 6409.44 801.182)
(-5122.54 -1923.61 -2074.16 -1620.36 6142.59 801.129)
(-4358.98 -2406.5 -3109.3 -2383.85 5689.09 801.175)
(-3476.39 -2599.13 -4049.96 -3266.52 5062.74 801.153)
(-2581.07 -2478.29 -4867.57 -4161.77 4282.56 801.156)
(-1781.12 -2058.51 -5537.28 -4961.73 3372.26 801.175)
(-1173 -1390.45 -6038.74 -5569.91 2359.48 801.144)
(-829.998 -554.685 -6356.72 -5912.87 1275.03 801.138)
(-793.546 347.996 -6481.55 -5949.29 151.813 801.177)
(-1068.03 1208.69 -6409.44 -5674.81 -975.997 801.182)
(-1620.36 1923.61 -6142.59 -5122.54 -2074.16 801.128)
(-2383.85 2406.5 -5689.09 -4358.98 -3109.3 801.175)
(-3266.52 2599.13 -5062.74 -3476.39 -4049.96 801.153)
(-4161.77 2478.29 -4282.56 -2581.07 -4867.57 801.156)
(-4961.73 2058.51 -3372.26 -1781.12 -5537.28 801.174)
(-5569.91 1390.45 -2359.48 -1173.01 -6038.74 801.144)
(-5912.87 554.685 -1275.03 -829.999 -6356.72 801.138)
(-5949.29 -347.996 -151.813 -793.546 -6481.55 801.176)
(1409.95 -135.363 417.508 2929.98 3664.11 9168.96)
(1502.13 -387.142 -225.105 2837.92 3680.96 9168.99)
(1674.75 -592.226 -860.875 2665.16 3585.95 9168.92)
(1907.21 -725.893 -1470.52 2432.77 3381.98 9168.95)
(2171.29 -771.971 -2035.42 2168.62 3075.23 9168.97)
(2435.27 -724.977 -2538.54 1904.69 2675.08 9168.94)
(2667.27 -590.52 -2964.47 1672.79 2193.64 9169)
(2839.19 -384.842 -3300.37 1500.73 1645.53 9168.92)
(2930.45 -132.735 -3535.95 1409.49 1047.42 9168.97)
(2929.98 135.363 -3664.11 1409.95 417.508 9168.96)
(2837.92 387.142 -3680.96 1502.13 -225.105 9168.99)
(2665.16 592.226 -3585.95 1674.75 -860.875 9168.92)
(2432.77 725.893 -3381.98 1907.21 -1470.52 9168.95)
(2168.62 771.971 -3075.23 2171.29 -2035.42 9168.97)
(1904.69 724.977 -2675.08 2435.27 -2538.54 9168.94)
(1672.79 590.52 -2193.64 2667.27 -2964.47 9169)
(1500.73 384.842 -1645.53 2839.19 -3300.37 9168.92)
(1409.49 132.735 -1047.42 2930.45 -3535.95 9168.97)
(1409.95 -135.363 -417.508 2929.98 -3664.11 9168.96)
(1502.13 -387.142 225.105 2837.92 -3680.96 9168.99)
(1674.75 -592.226 860.875 2665.16 -3585.95 9168.92)
(1907.21 -725.893 1470.52 2432.77 -3381.98 9168.95)
(2171.29 -771.971 2035.42 2168.62 -3075.23 9168.97)
(2435.27 -724.977 2538.54 1904.69 -2675.08 9168.94)
(2667.27 -590.52 2964.47 1672.79 -2193.64 9169)
(2839.19 -384.842 3300.37 1500.73 -1645.53 9168.92)
(2930.45 -132.735 3535.95 1409.49 -1047.42 9168.97)
(2929.98 135.363 3664.11 1409.95 -417.508 9168.96)
(2837.92 387.142 3680.96 1502.13 225.105 9168.99)
(2665.16 592.226 3585.95 1674.75 860.875 9168.92)
(2432.77 725.893 3381.98 1907.21 1470.52 9168.95)
(2168.62 771.971 3075.23 2171.29 2035.42 9168.97)
(1904.69 724.977 2675.08 2435.27 2538.54 9168.94)
(1672.79 590.52 2193.64 2667.27 2964.47 9169)
(1500.73 384.842 1645.53 2839.19 3300.37 9168.92)
(1409.49 132.735 1047.42 2930.45 3535.95 9168.97)
(-1193.53 -1573.56 -142.683 9980.78 1654.1 -2071.31)
(-318.446 -3389.59 -427.749 9105.58 1604.19 -2071.37)
(1125.08 -4796.78 -699.807 7662.15 1505.53 -2071.33)
(2962.77 -5625.41 -950.609 5824.39 1361.13 -2071.37)
(4973.04 -5775.51 -1172.55 3814.12 1175.41 -2071.34)
(6913.46 -5229.03 -1358.81 1873.77 953.924 -2071.33)
(8549.9 -4051.84 -1503.82 237.242 703.475 -2071.38)
(9685.1 -2385.93 -1603.15 -897.85 431.659 -2071.31)
(10182 -432.239 -1653.75 -1394.8 146.714 -2071.34)
(9980.78 1573.56 -1654.1 -1193.53 -142.683 -2071.31)
(9105.58 3389.59 -1604.19 -318.446 -427.749 -2071.37)
(7662.15 4796.78 -1505.53 1125.08 -699.807 -2071.33)
(5824.39 5625.41 -1361.13 2962.77 -950.609 -2071.37)
(3814.12 5775.51 -1175.41 4973.04 -1172.55 -2071.34)
(1873.77 5229.03 -953.924 6913.46 -1358.81 -2071.33)
(237.242 4051.84 -703.475 8549.9 -1503.82 -2071.38)
(-897.85 2385.93 -431.659 9685.1 -1603.15 -2071.31)
(-1394.8 432.239 -146.714 10182 -1653.75 -2071.34)
(-1193.53 -1573.56 142.683 9980.78 -1654.1 -2071.31)
(-318.446 -3389.59 427.749 9105.58 -1604.19 -2071.37)
(1125.08 -4796.78 699.807 7662.15 -1505.53 -2071.33)
(2962.77 -5625.41 950.609 5824.39 -1361.13 -2071.37)
(4973.04 -5775.51 1172.55 3814.12 -1175.41 -2071.34)
(6913.46 -5229.03 1358.81 1873.77 -953.924 -2071.33)
(8549.9 -4051.84 1503.82 237.242 -703.475 -2071.38)
(9685.1 -2385.93 1603.15 -897.85 -431.658 -2071.31)
(10182 -432.239 1653.75 -1394.8 -146.714 -2071.34)
(9980.78 1573.56 1654.1 -1193.53 142.683 -2071.31)
(9105.58 3389.59 1604.19 -318.446 427.749 -2071.37)
(7662.15 4796.78 1505.53 1125.08 699.807 -2071.33)
(5824.39 5625.41 1361.13 2962.77 950.609 -2071.37)
(3814.12 5775.51 1175.41 4973.04 1172.55 -2071.34)
(1873.77 5229.03 953.924 6913.46 1358.81 -2071.33)
(237.242 4051.84 703.475 8549.9 1503.82 -2071.38)
(-897.85 2385.93 431.658 9685.1 1603.15 -2071.31)
(-1394.8 432.239 146.714 10182 1653.75 -2071.34)
(-5231.39 -1617.37 1347.94 -918.137 -6292.78 726.678)
(-4548.1 -2257.44 2420.2 -1601.35 -5963.1 726.759)
(-3687.18 -2625.23 3418.91 -2462.32 -5452.24 726.707)
(-2752.34 -2676.36 4313.74 -3397.12 -4775.72 726.753)
(-1856.43 -2404.7 5077.5 -4293.06 -3954.1 726.725)
(-1107.44 -1842.99 5686.98 -5042.02 -3012.33 726.75)
(-595.756 -1059 6123.67 -5553.75 -1979.03 726.704)
(-383.091 -147.263 6374.29 -5766.46 -885.602 726.709)
(-494.999 782.236 6431.24 -5654.48 234.743 726.702)
(-918.137 1617.37 6292.78 -5231.39 1347.94 726.678)
(-1601.35 2257.44 5963.1 -4548.1 2420.2 726.759)
(-2462.32 2625.23 5452.24 -3687.18 3418.91 726.707)
(-3397.12 2676.36 4775.72 -2752.34 4313.74 726.754)
(-4293.06 2404.7 3954.1 -1856.43 5077.5 726.725)
(-5042.02 1842.99 3012.33 -1107.44 5686.98 726.751)
(-5553.75 1059 1979.03 -595.756 6123.67 726.705)
(-5766.46 147.263 885.602 -383.09 6374.29 726.71)
(-5654.48 -782.236 -234.743 -494.999 6431.24 726.702)
(-5231.39 -1617.37 -1347.94 -918.137 6292.78 726.678)
(-4548.1 -2257.44 -2420.2 -1601.35 5963.1 726.759)
(-3687.18 -2625.23 -3418.91 -2462.32 5452.24 726.708)
(-2752.34 -2676.36 -4313.74 -3397.12 4775.72 726.754)
(-1856.43 -2404.7 -5077.5 -4293.06 3954.1 726.725)
(-1107.44 -1842.99 -5686.98 -5042.02 3012.33 726.75)
(-595.756 -1059 -6123.67 -5553.75 1979.03 726.704)
(-383.091 -147.263 -6374.29 -5766.46 885.602 726.709)
(-494.999 782.236 -6431.24 -5654.48 -234.743 726.702)
(-918.137 1617.37 -6292.78 -5231.39 -1347.94 726.678)
(-1601.35 2257.44 -5963.1 -4548.1 -2420.2 726.759)
(-2462.32 2625.23 -5452.24 -3687.18 -3418.91 726.707)
(-3397.12 2676.36 -4775.72 -2752.34 -4313.74 726.753)
(-4293.06 2404.7 -3954.1 -1856.43 -5077.5 726.725)
(-5042.02 1842.99 -3012.33 -1107.44 -5686.98 726.75)
(-5553.75 1059 -1979.03 -595.756 -6123.67 726.704)
(-5766.46 147.263 -885.602 -383.091 -6374.29 726.709)
(-5654.48 -782.236 234.743 -494.999 -6431.24 726.702)
(1356.86 45.1592 903.981 2758.7 3717.8 8693.04)
(1383.71 -197.286 244.671 2731.9 3818.29 8693.07)
(1491.8 -415.934 -422.073 2623.72 3802.76 8693.05)
(1668.23 -584.44 -1076.04 2447.38 3671.71 8693.04)
(1891.59 -682.43 -1697.27 2223.96 3429.06 8693.04)
(2135.03 -698.121 -2266.95 1980.54 3082.25 8693.02)
(2369.12 -629.585 -2767.69 1746.44 2641.77 8693.07)
(2565.65 -485.141 -3184.4 1549.85 2121.04 8693)
(2701 -282.163 -3504.34 1414.59 1535.84 8693.05)
(2758.7 -45.1592 -3717.8 1356.86 903.981 8693.04)
(2731.9 197.286 -3818.29 1383.71 244.671 8693.07)
(2623.72 415.934 -3802.76 1491.8 -422.073 8693.05)
(2447.38 584.44 -3671.71 1668.23 -1076.04 8693.04)
(2223.96 682.43 -3429.06 1891.59 -1697.27 8693.04)
(1980.54 698.121 -3082.25 2135.03 -2266.95 8693.02)
(1746.44 629.585 -2641.77 2369.12 -2767.69 8693.07)
(1549.85 485.141 -2121.04 2565.65 -3184.4 8693)
(1414.59 282.163 -1535.84 2701 -3504.34 8693.05)