/*--------------------------------*- C++ -*----------------------------------*\
| =========                 |                                                 |
| \\      /  F ield         | OpenFOAM: The Open Source CFD Toolbox           |
|  \\    /   O peration     | Version:  2312                                  |
|   \\  /    A nd           | Website:  www.openfoam.com                      |
|    \\/     M anipulation  |                                                 |
\*---------------------------------------------------------------------------*/
FoamFile
{
    version     2.0;
    format      ascii;
    arch        "LSB;label=32;scalar=64";
    class       volScalarField;
    location    "0.2";
    object      sigmaHyd;
}
// * * * * * * * * * * * * * * * * * * * * * * * * * * * * * * * * * * * * * //

dimensions      [1 -1 -2 0 0 0 0];

internalField   nonuniform List<scalar> 
1620
(
-6449.32
-6449.3
-6449.3
-6449.35
-6449.35
-6449.34
-6449.33
-6449.33
-6449.32
-6449.32
-6449.3
-6449.3
-6449.35
-6449.35
-6449.34
-6449.33
-6449.33
-6449.32
-6449.31
-6449.3
-6449.3
-6449.35
-6449.35
-6449.34
-6449.33
-6449.33
-6449.32
-6449.32
-6449.3
-6449.3
-6449.35
-6449.35
-6449.34
-6449.33
-6449.33
-6449.32
-8793.43
-8793.41
-8793.39
-8793.4
-8793.43
-8793.42
-8793.38
-8793.43
-8793.44
-8793.43
-8793.41
-8793.39
-8793.4
-8793.43
-8793.42
-8793.38
-8793.43
-8793.44
-8793.43
-8793.41
-8793.39
-8793.4
-8793.43
-8793.42
-8793.38
-8793.43
-8793.44
-8793.43
-8793.41
-8793.39
-8793.4
-8793.43
-8793.43
-8793.38
-8793.43
-8793.44
-15812.1
-15812.1
-15812.2
-15812.1
-15812.2
-15812.1
-15812.1
-15812.2
-15812.2
-15812.1
-15812.1
-15812.2
-15812.1
-15812.2
-15812.1
-15812.1
-15812.2
-15812.2
-15812.1
-15812.1
-15812.2
-15812.1
-15812.2
-15812.1
-15812.1
-15812.2
-15812.2
-15812.1
-15812.1
-15812.2
-15812.1
-15812.2
-15812.1
-15812.1
-15812.2
-15812.2
1238.27
1238.24
1238.28
1238.28
1238.31
1238.31
1238.23
1238.25
1238.28
1238.27
1238.24
1238.28
1238.28
1238.31
1238.31
1238.23
1238.25
1238.28
1238.27
1238.24
1238.28
1238.28
1238.31
1238.31
1238.23
1238.25
1238.28
1238.27
1238.24
1238.28
1238.28
1238.31
1238.31
1238.23
1238.25
1238.28
-824.805
-824.764
-824.827
-824.836
-824.839
-824.873
-824.787
-824.783
-824.806
-824.805
-824.764
-824.827
-824.836
-824.839
-824.873
-824.787
-824.783
-824.806
-824.805
-824.764
-824.827
-824.836
-824.839
-824.873
-824.787
-824.783
-824.806
-824.805
-824.764
-824.827
-824.836
-824.839
-824.873
-824.787
-824.783
-824.806
-6537.22
-6537.22
-6537.2
-6537.18
-6537.14
-6537.09
-6537.19
-6537.2
-6537.21
-6537.22
-6537.22
-6537.2
-6537.18
-6537.14
-6537.09
-6537.19
-6537.2
-6537.21
-6537.22
-6537.22
-6537.2
-6537.18
-6537.14
-6537.09
-6537.19
-6537.2
-6537.21
-6537.22
-6537.22
-6537.2
-6537.18
-6537.14
-6537.09
-6537.19
-6537.2
-6537.21
720.662
720.648
720.658
720.633
720.669
720.673
720.618
720.679
720.621
720.662
720.648
720.658
720.633
720.669
720.673
720.618
720.679
720.621
720.662
720.648
720.658
720.633
720.669
720.673
720.618
720.679
720.621
720.662
720.648
720.658
720.633
720.669
720.673
720.618
720.679
720.621
-1668.69
-1668.68
-1668.68
-1668.63
-1668.64
-1668.68
-1668.65
-1668.73
-1668.65
-1668.69
-1668.68
-1668.68
-1668.63
-1668.64
-1668.68
-1668.65
-1668.73
-1668.65
-1668.69
-1668.68
-1668.68
-1668.63
-1668.64
-1668.68
-1668.65
-1668.73
-1668.65
-1668.69
-1668.68
-1668.68
-1668.63
-1668.64
-1668.68
-1668.65
-1668.73
-1668.65
-6398.82
-6398.81
-6398.78
-6398.82
-6398.85
-6398.84
-6398.85
-6398.77
-6398.8
-6398.82
-6398.81
-6398.78
-6398.82
-6398.85
-6398.84
-6398.85
-6398.77
-6398.8
-6398.82
-6398.81
-6398.78
-6398.82
-6398.85
-6398.84
-6398.85
-6398.77
-6398.8
-6398.82
-6398.81
-6398.78
-6398.82
-6398.85
-6398.84
-6398.85
-6398.77
-6398.8
708.837
708.823
708.813
708.825
708.839
708.827
708.862
708.8
708.849
708.837
708.823
708.813
708.825
708.839
708.827
708.862
708.8
708.849
708.837
708.823
708.813
708.825
708.839
708.827
708.862
708.8
708.849
708.837
708.823
708.813
708.825
708.839
708.827
708.862
708.8
708.849
-1653.89
-1653.88
-1653.9
-1653.87
-1653.9
-1653.87
-1653.9
-1653.88
-1653.89
-1653.89
-1653.88
-1653.9
-1653.87
-1653.9
-1653.87
-1653.9
-1653.88
-1653.89
-1653.89
-1653.88
-1653.9
-1653.87
-1653.9
-1653.87
-1653.9
-1653.88
-1653.89
-1653.89
-1653.88
-1653.9
-1653.87
-1653.9
-1653.87
-1653.9
-1653.88
-1653.89
-5980.55
-5980.59
-5980.55
-5980.59
-5980.56
-5980.56
-5980.59
-5980.58
-5980.55
-5980.55
-5980.59
-5980.55
-5980.59
-5980.56
-5980.56
-5980.59
-5980.58
-5980.55
-5980.55
-5980.59
-5980.55
-5980.59
-5980.56
-5980.56
-5980.59
-5980.58
-5980.55
-5980.55
-5980.59
-5980.55
-5980.59
-5980.56
-5980.56
-5980.59
-5980.58
-5980.55
502.963
503.016
502.947
502.977
502.96
502.965
503.019
502.945
502.968
502.963
503.016
502.947
502.977
502.96
502.965
503.019
502.945
502.968
502.963
503.016
502.947
502.977
502.96
502.965
503.019
502.945
502.968
502.963
503.016
502.947
502.977
502.96
502.965
503.019
502.945
502.968
-1761.35
-1761.41
-1761.37
-1761.4
-1761.39
-1761.37
-1761.41
-1761.35
-1761.38
-1761.35
-1761.41
-1761.37
-1761.4
-1761.39
-1761.37
-1761.41
-1761.35
-1761.38
-1761.35
-1761.41
-1761.37
-1761.4
-1761.39
-1761.37
-1761.41
-1761.35
-1761.38
-1761.35
-1761.41
-1761.37
-1761.4
-1761.39
-1761.37
-1761.41
-1761.35
-1761.38
-5807.62
-5807.57
-5807.6
-5807.57
-5807.59
-5807.57
-5807.6
-5807.61
-5807.59
-5807.62
-5807.57
-5807.6
-5807.57
-5807.59
-5807.57
-5807.6
-5807.61
-5807.59
-5807.62
-5807.57
-5807.6
-5807.57
-5807.59
-5807.57
-5807.6
-5807.61
-5807.59
-5807.62
-5807.57
-5807.6
-5807.57
-5807.59
-5807.57
-5807.6
-5807.61
-5807.59
269.532
269.559
269.522
269.552
269.531
269.53
269.543
269.499
269.546
269.531
269.559
269.522
269.552
269.531
269.53
269.543
269.499
269.546
269.531
269.559
269.522
269.552
269.531
269.53
269.543
269.499
269.546
269.531
269.559
269.522
269.552
269.531
269.53
269.543
269.5
269.546
-1850.46
-1850.52
-1850.48
-1850.49
-1850.49
-1850.49
-1850.49
-1850.45
-1850.51
-1850.46
-1850.52
-1850.48
-1850.49
-1850.49
-1850.49
-1850.49
-1850.45
-1850.51
-1850.46
-1850.52
-1850.48
-1850.49
-1850.49
-1850.49
-1850.49
-1850.45
-1850.51
-1850.46
-1850.52
-1850.48
-1850.49
-1850.49
-1850.49
-1850.49
-1850.45
-1850.51
-5624.93
-5624.92
-5624.96
-5624.94
-5624.96
-5625.01
-5624.95
-5625
-5624.96
-5624.93
-5624.92
-5624.96
-5624.94
-5624.96
-5625.01
-5624.95
-5625
-5624.96
-5624.93
-5624.92
-5624.96
-5624.94
-5624.96
-5625.01
-5624.95
-5625
-5624.96
-5624.93
-5624.92
-5624.96
-5624.94
-5624.96
-5625.01
-5624.95
-5625
-5624.96
-25.067
-25.0412
-25.1116
-25.0274
-25.0685
-25.1209
-25.047
-25.1101
-25.0718
-25.0672
-25.0413
-25.1117
-25.0274
-25.0685
-25.1209
-25.047
-25.11
-25.0717
-25.0672
-25.0412
-25.1117
-25.0274
-25.0684
-25.1208
-25.0469
-25.11
-25.0717
-25.0671
-25.0412
-25.1116
-25.0274
-25.0684
-25.1207
-25.0468
-25.1099
-25.0716
-1939.86
-1939.94
-1939.88
-1939.94
-1939.9
-1939.86
-1939.93
-1939.87
-1939.94
-1939.86
-1939.94
-1939.88
-1939.94
-1939.9
-1939.86
-1939.93
-1939.87
-1939.94
-1939.86
-1939.94
-1939.88
-1939.94
-1939.9
-1939.86
-1939.93
-1939.87
-1939.94
-1939.86
-1939.94
-1939.88
-1939.94
-1939.9
-1939.86
-1939.93
-1939.87
-1939.94
-5382.12
-5382.05
-5382.11
-5382.07
-5382.08
-5382.09
-5382.08
-5382.11
-5382.05
-5382.12
-5382.05
-5382.11
-5382.07
-5382.08
-5382.09
-5382.08
-5382.11
-5382.05
-5382.12
-5382.05
-5382.11
-5382.07
-5382.08
-5382.09
-5382.08
-5382.11
-5382.05
-5382.13
-5382.05
-5382.11
-5382.07
-5382.08
-5382.09
-5382.09
-5382.11
-5382.05
-403.142
-403.164
-403.177
-403.134
-403.179
-403.174
-403.173
-403.187
-403.193
-403.142
-403.164
-403.177
-403.134
-403.179
-403.174
-403.173
-403.186
-403.193
-403.142
-403.164
-403.177
-403.134
-403.179
-403.174
-403.173
-403.186
-403.193
-403.142
-403.164
-403.177
-403.134
-403.179
-403.174
-403.173
-403.186
-403.193
-2021.48
-2021.48
-2021.43
-2021.5
-2021.47
-2021.43
-2021.47
-2021.47
-2021.42
-2021.48
-2021.48
-2021.44
-2021.5
-2021.47
-2021.43
-2021.47
-2021.47
-2021.42
-2021.48
-2021.48
-2021.43
-2021.5
-2021.47
-2021.43
-2021.47
-2021.47
-2021.42
-2021.48
-2021.48
-2021.44
-2021.5
-2021.47
-2021.43
-2021.47
-2021.47
-2021.42
-5011.8
-5011.78
-5011.78
-5011.77
-5011.8
-5011.81
-5011.81
-5011.8
-5011.79
-5011.8
-5011.78
-5011.78
-5011.77
-5011.8
-5011.81
-5011.81
-5011.8
-5011.79
-5011.8
-5011.78
-5011.78
-5011.77
-5011.8
-5011.81
-5011.81
-5011.8
-5011.79
-5011.8
-5011.78
-5011.78
-5011.77
-5011.8
-5011.81
-5011.81
-5011.8
-5011.79
-883.195
-883.176
-883.163
-883.164
-883.183
-883.191
-883.194
-883.177
-883.159
-883.195
-883.176
-883.163
-883.164
-883.183
-883.191
-883.194
-883.177
-883.159
-883.195
-883.176
-883.163
-883.164
-883.182
-883.191
-883.194
-883.177
-883.159
-883.195
-883.176
-883.163
-883.164
-883.182
-883.191
-883.194
-883.177
-883.159
-2082.19
-2082.19
-2082.19
-2082.15
-2082.18
-2082.2
-2082.15
-2082.19
-2082.19
-2082.19
-2082.19
-2082.19
-2082.15
-2082.18
-2082.2
-2082.15
-2082.19
-2082.19
-2082.19
-2082.19
-2082.19
-2082.15
-2082.18
-2082.2
-2082.15
-2082.19
-2082.19
-2082.19
-2082.19
-2082.19
-2082.15
-2082.18
-2082.2
-2082.15
-2082.19
-2082.19
-4445.51
-4445.55
-4445.54
-4445.55
-4445.56
-4445.54
-4445.53
-4445.52
-4445.57
-4445.51
-4445.55
-4445.54
-4445.55
-4445.56
-4445.54
-4445.53
-4445.52
-4445.57
-4445.51
-4445.55
-4445.54
-4445.55
-4445.56
-4445.54
-4445.53
-4445.52
-4445.57
-4445.51
-4445.55
-4445.54
-4445.55
-4445.56
-4445.54
-4445.53
-4445.52
-4445.57
-1455.23
-1455.26
-1455.23
-1455.18
-1455.21
-1455.23
-1455.24
-1455.2
-1455.22
-1455.23
-1455.26
-1455.23
-1455.18
-1455.21
-1455.23
-1455.24
-1455.2
-1455.22
-1455.23
-1455.26
-1455.23
-1455.18
-1455.21
-1455.23
-1455.24
-1455.2
-1455.22
-1455.23
-1455.26
-1455.23
-1455.18
-1455.21
-1455.23
-1455.24
-1455.2
-1455.22
-2100.31
-2100.29
-2100.33
-2100.34
-2100.31
-2100.34
-2100.31
-2100.32
-2100.35
-2100.31
-2100.29
-2100.33
-2100.34
-2100.31
-2100.34
-2100.3
-2100.32
-2100.35
-2100.31
-2100.29
-2100.33
-2100.34
-2100.31
-2100.34
-2100.3
-2100.32
-2100.35
-2100.31
-2100.29
-2100.33
-2100.34
-2100.31
-2100.34
-2100.3
-2100.32
-2100.35
-3633.67
-3633.72
-3633.69
-3633.73
-3633.69
-3633.69
-3633.65
-3633.69
-3633.71
-3633.67
-3633.72
-3633.69
-3633.73
-3633.69
-3633.69
-3633.65
-3633.69
-3633.71
-3633.67
-3633.72
-3633.69
-3633.73
-3633.69
-3633.69
-3633.66
-3633.7
-3633.71
-3633.67
-3633.72
-3633.69
-3633.73
-3633.69
-3633.69
-3633.66
-3633.7
-3633.71
-2035
-2035
-2034.96
-2034.96
-2034.96
-2034.97
-2034.95
-2035.01
-2035
-2035
-2035
-2034.96
-2034.96
-2034.96
-2034.97
-2034.95
-2035.01
-2035
-2035
-2035
-2034.96
-2034.96
-2034.96
-2034.97
-2034.95
-2035.01
-2035
-2035
-2035
-2034.96
-2034.96
-2034.96
-2034.97
-2034.95
-2035.01
-2035
-2035.59
-2035.54
-2035.58
-2035.57
-2035.58
-2035.56
-2035.57
-2035.61
-2035.57
-2035.59
-2035.54
-2035.58
-2035.57
-2035.58
-2035.56
-2035.57
-2035.61
-2035.57
-2035.59
-2035.54
-2035.58
-2035.57
-2035.58
-2035.56
-2035.57
-2035.61
-2035.57
-2035.59
-2035.54
-2035.58
-2035.57
-2035.58
-2035.56
-2035.57
-2035.61
-2035.57
-2608.47
-2608.5
-2608.5
-2608.54
-2608.52
-2608.51
-2608.51
-2608.48
-2608.47
-2608.47
-2608.5
-2608.5
-2608.54
-2608.52
-2608.51
-2608.51
-2608.48
-2608.47
-2608.47
-2608.5
-2608.5
-2608.54
-2608.52
-2608.51
-2608.51
-2608.48
-2608.47
-2608.47
-2608.5
-2608.5
-2608.54
-2608.52
-2608.51
-2608.51
-2608.48
-2608.48
-2364.55
-2364.49
-2364.44
-2364.48
-2364.45
-2364.47
-2364.47
-2364.52
-2364.6
-2364.55
-2364.49
-2364.44
-2364.48
-2364.45
-2364.47
-2364.47
-2364.52
-2364.6
-2364.55
-2364.49
-2364.44
-2364.48
-2364.45
-2364.47
-2364.47
-2364.52
-2364.6
-2364.56
-2364.49
-2364.44
-2364.48
-2364.45
-2364.47
-2364.47
-2364.52
-2364.6
-1792.37
-1792.35
-1792.36
-1792.39
-1792.35
-1792.38
-1792.38
-1792.38
-1792.38
-1792.37
-1792.35
-1792.36
-1792.39
-1792.35
-1792.38
-1792.38
-1792.38
-1792.38
-1792.37
-1792.35
-1792.36
-1792.39
-1792.35
-1792.38
-1792.38
-1792.38
-1792.38
-1792.37
-1792.35
-1792.36
-1792.39
-1792.35
-1792.38
-1792.38
-1792.38
-1792.38
-1556.19
-1556.25
-1556.27
-1556.31
-1556.28
-1556.3
-1556.23
-1556.19
-1556.17
-1556.18
-1556.25
-1556.27
-1556.31
-1556.28
-1556.3
-1556.23
-1556.19
-1556.17
-1556.18
-1556.25
-1556.27
-1556.31
-1556.28
-1556.3
-1556.23
-1556.19
-1556.17
-1556.18
-1556.25
-1556.27
-1556.31
-1556.28
-1556.3
-1556.23
-1556.2
-1556.17
-1706.49
-1706.4
-1706.31
-1706.36
-1706.31
-1706.31
-1706.35
-1706.48
-1706.55
-1706.49
-1706.4
-1706.31
-1706.36
-1706.31
-1706.31
-1706.35
-1706.48
-1706.55
-1706.49
-1706.4
-1706.31
-1706.36
-1706.31
-1706.31
-1706.35
-1706.48
-1706.55
-1706.49
-1706.4
-1706.31
-1706.36
-1706.31
-1706.31
-1706.35
-1706.48
-1706.55
-919.283
-919.283
-919.297
-919.25
-919.314
-919.232
-919.266
-919.249
-919.264
-919.283
-919.283
-919.297
-919.251
-919.314
-919.233
-919.266
-919.249
-919.263
-919.282
-919.283
-919.297
-919.25
-919.314
-919.232
-919.265
-919.249
-919.263
-919.283
-919.283
-919.297
-919.251
-919.314
-919.232
-919.266
-919.249
-919.264
-1255.56
-1255.68
-1255.71
-1255.77
-1255.74
-1255.73
-1255.63
-1255.55
-1255.5
-1255.56
-1255.68
-1255.71
-1255.77
-1255.75
-1255.73
-1255.63
-1255.55
-1255.5
-1255.56
-1255.68
-1255.71
-1255.77
-1255.75
-1255.73
-1255.63
-1255.55
-1255.5
-1255.56
-1255.68
-1255.71
-1255.77
-1255.75
-1255.73
-1255.63
-1255.56
-1255.5
-560.148
-559.721
-558.982
-559.436
-560.223
-559.502
-558.971
-559.826
-560.3
-560.156
-559.729
-558.988
-559.439
-560.223
-559.503
-558.973
-559.83
-560.305
-560.161
-559.733
-558.991
-559.442
-560.226
-559.505
-558.976
-559.832
-560.305
-560.162
-559.735
-558.994
-559.445
-560.229
-559.508
-558.976
-559.826
-560.295
642.031
641.915
641.795
642.043
641.93
641.882
641.816
642.022
642.017
642.034
641.918
641.797
642.044
641.93
641.883
641.818
642.023
642.017
642.035
641.919
641.798
642.045
641.932
641.884
641.819
642.024
642.019
642.036
641.921
641.799
642.046
641.932
641.883
641.817
642.02
642.014
-3077.3
-3077.41
-3077.48
-3077.49
-3077.39
-3077.48
-3077.39
-3077.26
-3077.25
-3077.3
-3077.41
-3077.48
-3077.49
-3077.39
-3077.49
-3077.39
-3077.26
-3077.25
-3077.3
-3077.41
-3077.48
-3077.49
-3077.39
-3077.48
-3077.39
-3077.26
-3077.25
-3077.3
-3077.4
-3077.48
-3077.49
-3077.39
-3077.48
-3077.4
-3077.27
-3077.25
11716.8
11718.8
11711
11712
11719.6
11714.9
11710.2
11715.1
11714.3
11716.8
11718.9
11711
11712.1
11719.7
11714.9
11710.3
11715.1
11714.3
11716.8
11718.9
11711
11712.1
11719.7
11714.9
11710.3
11715.1
11714.3
11716.8
11718.9
11711
11712.1
11719.7
11714.9
11710.3
11715.1
11714.3
5514.86
5514.58
5514.28
5514.22
5515.27
5514.22
5514.4
5514.77
5514.87
5514.86
5514.58
5514.28
5514.21
5515.26
5514.22
5514.4
5514.78
5514.88
5514.86
5514.58
5514.28
5514.22
5515.27
5514.22
5514.4
5514.78
5514.88
5514.86
5514.58
5514.28
5514.22
5515.27
5514.22
5514.4
5514.77
5514.87
-21157.1
-21156.8
-21157.7
-21156.9
-21157.6
-21156.9
-21157.6
-21156.9
-21157.2
-21157.1
-21156.8
-21157.7
-21156.9
-21157.6
-21156.9
-21157.6
-21156.9
-21157.2
-21157.1
-21156.8
-21157.7
-21156.9
-21157.6
-21156.9
-21157.6
-21156.9
-21157.2
-21157.1
-21156.8
-21157.7
-21156.9
-21157.6
-21156.9
-21157.6
-21156.9
-21157.2
)
;

boundaryField
{
    fixed
    {
        type            zeroGradient;
    }
    inside
    {
        type            zeroGradient;
    }
    outside
    {
        type            zeroGradient;
    }
}


// ************************************************************************* //
