/*--------------------------------*- C++ -*----------------------------------*\
| =========                 |                                                 |
| \\      /  F ield         | OpenFOAM: The Open Source CFD Toolbox           |
|  \\    /   O peration     | Version:  2412                                  |
|   \\  /    A nd           | Website:  www.openfoam.com                      |
|    \\/     M anipulation  |                                                 |
\*---------------------------------------------------------------------------*/
FoamFile
{
    version     2.0;
    format      ascii;
    arch        "LSB;label=32;scalar=64";
    class       volScalarField;
    location    "0.0149845";
    object      Vm;
}
// * * * * * * * * * * * * * * * * * * * * * * * * * * * * * * * * * * * * * //

dimensions      [0 0 0 0 0 0 0];

internalField   nonuniform List<scalar> 
8796
(
4.24916e-16
4.24916e-16
4.24916e-16
1.01047e-16
5.86851e-16
2.62982e-16
1.01047e-16
2.62982e-16
2.62982e-16
4.24916e-16
2.62982e-16
4.24916e-16
4.24916e-16
2.62982e-16
4.24916e-16
2.62982e-16
4.24916e-16
1.01047e-16
-6.08874e-17
-6.08874e-17
-6.08874e-17
1.01047e-16
-6.08874e-17
-6.08874e-17
-6.08874e-17
5.86851e-16
-6.08874e-17
-6.08874e-17
7.48785e-16
1.01047e-16
-6.08874e-17
1.01047e-16
-6.08874e-17
-6.08874e-17
1.07265e-15
1.07265e-15
4.24916e-16
9.1072e-16
4.24916e-16
2.62982e-16
2.62982e-16
1.01047e-16
1.01047e-16
2.62982e-16
4.24916e-16
4.24916e-16
-6.08874e-17
4.24916e-16
-3.84756e-16
4.24916e-16
4.24916e-16
-2.22822e-16
-6.08874e-17
4.24916e-16
-2.22822e-16
-6.08874e-17
-6.08874e-17
2.62982e-16
-2.22822e-16
-2.22822e-16
-6.08874e-17
-6.08874e-17
-6.08874e-17
-6.08874e-17
-6.08874e-17
-6.08874e-17
-6.08874e-17
-6.08874e-17
4.24916e-16
7.48785e-16
1.07265e-15
4.24916e-16
4.24916e-16
1.01047e-16
4.24916e-16
4.24916e-16
2.62982e-16
1.01047e-16
-6.08874e-17
-3.84756e-16
2.62982e-16
-6.08874e-17
4.24916e-16
1.01047e-16
4.24916e-16
4.24916e-16
4.24916e-16
4.24916e-16
-6.08874e-17
-3.84756e-16
-1.68023e-15
-1.35636e-15
-2.22822e-16
-6.08874e-17
2.62982e-16
-5.46691e-16
-6.08874e-17
-6.08874e-17
-6.08874e-17
-6.08874e-17
-6.08874e-17
-5.46691e-16
4.24916e-16
4.24916e-16
9.1072e-16
9.1072e-16
1.01047e-16
9.1072e-16
9.1072e-16
1.01047e-16
2.62982e-16
4.24916e-16
1.01047e-16
-6.08874e-17
4.24916e-16
1.01047e-16
-6.08874e-17
4.24916e-16
-6.08874e-17
4.24916e-16
4.24916e-16
-6.08874e-17
4.24916e-16
-2.22822e-16
-2.22822e-16
4.24916e-16
-2.22822e-16
-2.22822e-16
5.86851e-16
-7.08625e-16
-6.08874e-17
4.24916e-16
-6.08874e-17
-6.08874e-17
-6.08874e-17
-7.08625e-16
7.48785e-16
1.07265e-15
9.1072e-16
2.62982e-16
1.01047e-16
1.01047e-16
1.01047e-16
1.01047e-16
-6.08874e-17
1.01047e-16
1.01047e-16
-6.08874e-17
-6.08874e-17
4.24916e-16
4.24916e-16
-6.08874e-17
-6.08874e-17
4.24916e-16
-6.08874e-17
-6.08874e-17
-6.08874e-17
-6.08874e-17
-6.08874e-17
-6.08874e-17
-2.22822e-16
-6.08874e-17
-6.08874e-17
-6.08874e-17
-6.08874e-17
-6.08874e-17
-6.08874e-17
1.01047e-16
-6.08874e-17
4.24916e-16
2.62982e-16
4.24916e-16
7.48785e-16
9.1072e-16
4.24916e-16
4.24916e-16
9.1072e-16
2.62982e-16
-6.08874e-17
-6.08874e-17
4.24916e-16
-6.08874e-17
4.24916e-16
1.01047e-16
4.24916e-16
-6.08874e-17
-6.08874e-17
-6.08874e-17
-6.08874e-17
1.01047e-16
4.24916e-16
4.24916e-16
4.24916e-16
4.24916e-16
4.24916e-16
4.24916e-16
-6.08874e-17
-6.08874e-17
-6.08874e-17
-5.46691e-16
1.01047e-16
-5.46691e-16
-6.08874e-17
-6.08874e-17
-6.08874e-17
-6.08874e-17
1.01047e-16
4.24916e-16
1.01047e-16
-6.08874e-17
1.01047e-16
4.24916e-16
2.62982e-16
4.24916e-16
1.01047e-16
4.24916e-16
4.24916e-16
1.01047e-16
1.01047e-16
-2.22822e-16
-6.08874e-17
-6.08874e-17
4.24916e-16
1.01047e-16
-6.08874e-17
-2.22822e-16
1.01047e-16
-6.08874e-17
-2.22822e-16
1.01047e-16
1.01047e-16
-6.08874e-17
-6.08874e-17
1.01047e-16
-6.08874e-17
-6.08874e-17
-6.08874e-17
-6.08874e-17
1.01047e-16
4.24916e-16
1.01047e-16
1.01047e-16
4.24916e-16
1.01047e-16
4.24916e-16
1.01047e-16
-6.08874e-17
-2.22822e-16
4.24916e-16
-6.08874e-17
-2.22822e-16
4.24916e-16
-2.22822e-16
1.01047e-16
-6.08874e-17
1.01047e-16
-2.22822e-16
-2.22822e-16
-6.08874e-17
4.24916e-16
4.24916e-16
-6.08874e-17
4.24916e-16
4.24916e-16
1.23459e-15
4.24916e-16
1.01047e-16
1.07265e-15
-6.08874e-17
-5.46691e-16
-6.08874e-17
4.24916e-16
2.62982e-16
9.1072e-16
9.1072e-16
9.1072e-16
9.1072e-16
1.01047e-16
-6.08874e-17
-6.08874e-17
-6.08874e-17
-6.08874e-17
4.24916e-16
-6.08874e-17
4.24916e-16
1.01047e-16
4.24916e-16
9.1072e-16
-6.08874e-17
-6.08874e-17
-6.08874e-17
1.01047e-16
4.24916e-16
4.24916e-16
4.24916e-16
4.24916e-16
-6.08874e-17
4.24916e-16
-6.08874e-17
-6.08874e-17
-6.08874e-17
-6.08874e-17
4.24916e-16
-6.08874e-17
-6.08874e-17
-6.08874e-17
4.24916e-16
4.24916e-16
-6.08874e-17
4.24916e-16
4.24916e-16
-6.08874e-17
4.24916e-16
4.24916e-16
-6.08874e-17
4.24916e-16
-2.22822e-16
-6.08874e-17
-6.08874e-17
-2.22822e-16
-6.08874e-17
4.24916e-16
-6.08874e-17
-2.22822e-16
4.24916e-16
-6.08874e-17
4.24916e-16
4.24916e-16
4.24916e-16
-7.08625e-16
-2.22822e-16
-2.22822e-16
-6.08874e-17
-8.7056e-16
-2.22822e-16
-2.22822e-16
-6.08874e-17
-7.08625e-16
-2.22822e-16
-6.08874e-17
1.01047e-16
1.01047e-16
-6.08874e-17
-2.22822e-16
4.24916e-16
4.24916e-16
-6.08874e-17
4.24916e-16
4.24916e-16
4.24916e-16
-6.08874e-17
4.24916e-16
-2.22822e-16
-6.08874e-17
-2.22822e-16
1.01047e-16
-7.08625e-16
-6.08874e-17
-6.08874e-17
-2.22822e-16
4.24916e-16
-6.08874e-17
-6.08874e-17
-1.03249e-15
-6.08874e-17
-6.08874e-17
-3.84756e-16
-2.16604e-15
-2.97571e-15
-2.65184e-15
-2.16604e-15
-8.7056e-16
-5.46691e-16
-6.08874e-17
-6.08874e-17
2.62982e-16
-5.46691e-16
-6.08874e-17
-6.08874e-17
4.24916e-16
-6.08874e-17
-6.08874e-17
-6.08874e-17
-6.08874e-17
-6.08874e-17
-6.08874e-17
-6.08874e-17
-6.08874e-17
-6.08874e-17
-2.22822e-16
-8.7056e-16
-6.08874e-17
-6.08874e-17
-2.22822e-16
-8.7056e-16
-2.22822e-16
2.62982e-16
-7.08625e-16
-2.22822e-16
2.62982e-16
-2.22822e-16
-7.08625e-16
2.62982e-16
-2.22822e-16
-7.08625e-16
5.86851e-16
4.24916e-16
-2.22822e-16
4.24916e-16
-6.08874e-17
4.24916e-16
4.24916e-16
4.24916e-16
4.24916e-16
4.24916e-16
4.24916e-16
-6.08874e-17
-6.08874e-17
-2.22822e-16
-6.08874e-17
-6.08874e-17
-2.22822e-16
-6.08874e-17
4.24916e-16
-6.08874e-17
-2.22822e-16
4.24916e-16
-6.08874e-17
4.24916e-16
4.24916e-16
4.24916e-16
-7.08625e-16
2.62982e-16
-6.08874e-17
5.86851e-16
-7.08625e-16
-2.22822e-16
-2.22822e-16
2.62982e-16
-5.46691e-16
-2.22822e-16
-6.08874e-17
-6.08874e-17
-6.08874e-17
-6.08874e-17
-2.22822e-16
-6.08874e-17
-6.08874e-17
-6.08874e-17
4.24916e-16
-6.08874e-17
4.24916e-16
-6.08874e-17
4.24916e-16
-2.22822e-16
-6.08874e-17
-2.22822e-16
2.62982e-16
-7.08625e-16
-6.08874e-17
-6.08874e-17
-2.22822e-16
4.24916e-16
-6.08874e-17
-6.08874e-17
-1.03249e-15
-6.08874e-17
-6.08874e-17
-3.84756e-16
-2.16604e-15
-2.48991e-15
-1.84217e-15
-5.46691e-16
-6.08874e-17
-5.46691e-16
-6.08874e-17
4.24916e-16
4.24916e-16
-6.08874e-17
4.24916e-16
4.24916e-16
-6.08874e-17
4.24916e-16
-2.22822e-16
-6.08874e-17
4.24916e-16
-2.22822e-16
-6.08874e-17
-6.08874e-17
-2.22822e-16
-6.08874e-17
4.24916e-16
-6.08874e-17
-2.22822e-16
4.24916e-16
4.24916e-16
4.24916e-16
4.24916e-16
1.01047e-16
-7.08625e-16
2.62982e-16
-2.22822e-16
-6.08874e-17
-8.7056e-16
1.01047e-16
4.24916e-16
-6.08874e-17
-6.08874e-17
-2.22822e-16
-6.08874e-17
1.72661e-14
1.62945e-14
1.64564e-14
1.61326e-14
1.4999e-14
1.38655e-14
1.33797e-14
1.17603e-14
1.0141e-14
9.16938e-15
8.19777e-15
8.19777e-15
6.74036e-15
6.25456e-15
5.44489e-15
4.31134e-15
3.1778e-15
9.1072e-16
1.07265e-15
4.24916e-16
1.01047e-16
1.01047e-16
-6.08874e-17
-6.08874e-17
-6.08874e-17
-6.08874e-17
-6.08874e-17
-6.08874e-17
-6.08874e-17
4.24916e-16
-6.08874e-17
1.01047e-16
-6.08874e-17
-6.08874e-17
1.62945e-14
1.64564e-14
1.64564e-14
1.66184e-14
1.48371e-14
1.37035e-14
1.257e-14
1.15984e-14
1.03029e-14
9.65518e-15
9.00745e-15
7.55003e-15
6.57843e-15
5.12102e-15
3.66361e-15
3.66361e-15
2.04426e-15
7.48785e-16
7.48785e-16
4.24916e-16
1.01047e-16
-6.08874e-17
-6.08874e-17
1.01047e-16
-6.08874e-17
-2.22822e-16
-6.08874e-17
-6.08874e-17
-2.22822e-16
1.01047e-16
-6.08874e-17
-6.08874e-17
-6.08874e-17
-6.08874e-17
1.61326e-14
1.64564e-14
1.56468e-14
1.4999e-14
1.40274e-14
1.38655e-14
1.257e-14
1.19223e-14
1.17603e-14
9.65518e-15
7.71197e-15
7.22617e-15
5.93069e-15
4.31134e-15
3.98748e-15
4.14941e-15
2.2062e-15
7.48785e-16
7.48785e-16
7.48785e-16
2.62982e-16
-6.08874e-17
-1.35636e-15
-1.35636e-15
-6.08874e-17
-6.08874e-17
-6.08874e-17
-1.03249e-15
-6.08874e-17
-6.08874e-17
-6.08874e-17
-6.08874e-17
-6.08874e-17
4.24916e-16
1.71042e-14
1.72661e-14
1.59706e-14
1.59706e-14
1.46752e-14
1.53229e-14
1.37035e-14
1.15984e-14
9.81712e-15
8.52164e-15
7.3881e-15
6.09262e-15
5.44489e-15
4.31134e-15
4.63521e-15
3.66361e-15
2.2062e-15
2.36813e-15
1.39652e-15
1.23459e-15
5.86851e-16
4.24916e-16
1.01047e-16
4.24916e-16
4.24916e-16
-6.08874e-17
5.86851e-16
-7.08625e-16
4.24916e-16
1.07265e-15
-6.08874e-17
-3.84756e-16
2.62982e-16
-8.7056e-16
1.37035e-14
1.37035e-14
1.43513e-14
1.41893e-14
1.33797e-14
1.27319e-14
1.20842e-14
9.97905e-15
9.00745e-15
8.35971e-15
7.06423e-15
5.60682e-15
3.66361e-15
2.85393e-15
2.53006e-15
1.07265e-15
1.39652e-15
1.39652e-15
4.24916e-16
4.24916e-16
-6.08874e-17
-6.08874e-17
4.24916e-16
-6.08874e-17
1.01047e-16
4.24916e-16
-6.08874e-17
4.24916e-16
4.24916e-16
-6.08874e-17
-6.08874e-17
1.01047e-16
-6.08874e-17
-6.08874e-17
1.20842e-14
1.257e-14
1.27319e-14
1.20842e-14
1.19223e-14
1.24081e-14
1.14365e-14
9.65518e-15
9.16938e-15
6.57843e-15
4.47328e-15
3.98748e-15
2.692e-15
1.72039e-15
7.48785e-16
1.07265e-15
-6.08874e-17
4.24916e-16
2.62982e-16
4.24916e-16
-6.08874e-17
-6.08874e-17
-6.08874e-17
-6.08874e-17
-6.08874e-17
-6.08874e-17
4.24916e-16
9.1072e-16
-6.08874e-17
-6.08874e-17
-6.08874e-17
-6.08874e-17
-6.08874e-17
-6.08874e-17
9.65518e-15
9.97905e-15
1.04649e-14
9.65518e-15
8.35971e-15
7.8739e-15
7.22617e-15
7.22617e-15
5.44489e-15
3.82554e-15
3.66361e-15
4.14941e-15
3.1778e-15
1.88233e-15
1.88233e-15
1.72039e-15
1.55846e-15
9.1072e-16
4.24916e-16
4.24916e-16
-6.08874e-17
-2.22822e-16
-6.08874e-17
-6.08874e-17
-2.22822e-16
-6.08874e-17
1.01047e-16
-6.08874e-17
-6.08874e-17
1.01047e-16
-6.08874e-17
-6.08874e-17
-6.08874e-17
-6.08874e-17
7.06423e-15
7.55003e-15
7.71197e-15
7.22617e-15
5.60682e-15
4.79715e-15
4.47328e-15
4.63521e-15
3.33974e-15
2.692e-15
2.2062e-15
2.04426e-15
2.692e-15
1.88233e-15
1.55846e-15
1.07265e-15
5.86851e-16
5.86851e-16
4.24916e-16
4.24916e-16
1.01047e-16
4.24916e-16
4.24916e-16
4.24916e-16
4.24916e-16
4.24916e-16
-6.08874e-17
4.24916e-16
4.24916e-16
1.23459e-15
4.24916e-16
-6.08874e-17
-6.08874e-17
4.24916e-16
4.31134e-15
4.31134e-15
5.93069e-15
5.44489e-15
5.44489e-15
4.63521e-15
4.14941e-15
2.04426e-15
1.23459e-15
4.24916e-16
4.24916e-16
1.01047e-16
4.24916e-16
4.24916e-16
2.62982e-16
4.24916e-16
-6.08874e-17
-6.08874e-17
-6.08874e-17
4.24916e-16
4.24916e-16
1.01047e-16
4.24916e-16
4.24916e-16
-6.08874e-17
4.24916e-16
4.24916e-16
-6.08874e-17
-6.08874e-17
-6.08874e-17
-6.08874e-17
1.01047e-16
4.24916e-16
-6.08874e-17
7.48785e-16
7.48785e-16
1.07265e-15
1.72039e-15
1.88233e-15
1.55846e-15
2.36813e-15
1.72039e-15
4.24916e-16
9.1072e-16
4.24916e-16
5.86851e-16
4.24916e-16
2.62982e-16
4.24916e-16
-2.22822e-16
-7.08625e-16
-2.22822e-16
-2.22822e-16
-6.08874e-17
-6.08874e-17
4.24916e-16
4.24916e-16
-6.08874e-17
4.24916e-16
-6.08874e-17
1.01047e-16
-6.08874e-17
-1.03249e-15
-8.7056e-16
-1.03249e-15
-6.08874e-17
-6.08874e-17
5.86851e-16
1.39652e-15
1.23459e-15
4.24916e-16
1.23459e-15
1.23459e-15
1.39652e-15
4.24916e-16
4.24916e-16
4.24916e-16
1.01047e-16
2.62982e-16
4.24916e-16
-6.08874e-17
-6.08874e-17
4.24916e-16
-6.08874e-17
-7.08625e-16
-6.08874e-17
4.24916e-16
-2.22822e-16
-6.08874e-17
4.24916e-16
-6.08874e-17
-6.08874e-17
4.24916e-16
-6.08874e-17
-2.22822e-16
-6.08874e-17
-6.08874e-17
-6.08874e-17
-6.08874e-17
-5.46691e-16
-6.08874e-17
-3.84756e-16
-6.08874e-17
-6.08874e-17
-6.08874e-17
-6.08874e-17
-6.08874e-17
1.01047e-16
4.24916e-16
2.62982e-16
4.24916e-16
-6.08874e-17
4.24916e-16
4.24916e-16
-6.08874e-17
4.24916e-16
-6.08874e-17
-2.22822e-16
-6.08874e-17
-6.08874e-17
4.24916e-16
-2.22822e-16
-6.08874e-17
-2.22822e-16
-5.46691e-16
-6.08874e-17
-2.22822e-16
-1.03249e-15
-2.22822e-16
-6.08874e-17
-5.46691e-16
-2.22822e-16
-6.08874e-17
-6.08874e-17
-6.08874e-17
5.86851e-16
-2.22822e-16
4.24916e-16
2.62982e-16
4.24916e-16
9.1072e-16
2.62982e-16
4.24916e-16
-2.22822e-16
-6.08874e-17
-6.08874e-17
1.01047e-16
-6.08874e-17
4.24916e-16
1.01047e-16
4.24916e-16
1.01047e-16
-6.08874e-17
1.01047e-16
1.01047e-16
-2.22822e-16
4.24916e-16
4.24916e-16
4.24916e-16
-7.08625e-16
1.01047e-16
-2.22822e-16
-6.08874e-17
-7.08625e-16
2.62982e-16
-6.08874e-17
4.24916e-16
-6.08874e-17
-2.22822e-16
-2.22822e-16
-6.08874e-17
-6.08874e-17
4.24916e-16
-6.08874e-17
4.24916e-16
4.24916e-16
4.24916e-16
-6.08874e-17
4.24916e-16
-6.08874e-17
-2.22822e-16
4.24916e-16
-6.08874e-17
-2.22822e-16
1.01047e-16
-2.22822e-16
-7.08625e-16
4.24916e-16
4.24916e-16
-6.08874e-17
4.24916e-16
4.24916e-16
-6.08874e-17
-5.46691e-16
2.62982e-16
-6.08874e-17
-2.22822e-16
-1.68023e-15
-1.35636e-15
-2.22822e-16
-6.08874e-17
-5.46691e-16
1.01047e-16
-6.08874e-17
-8.7056e-16
1.01047e-16
4.24916e-16
1.01047e-16
-6.08874e-17
-6.08874e-17
-2.22822e-16
1.01047e-16
-6.08874e-17
4.24916e-16
7.48785e-16
-6.08874e-17
-2.22822e-16
4.24916e-16
-2.22822e-16
4.24916e-16
-6.08874e-17
4.24916e-16
4.24916e-16
9.1072e-16
-6.08874e-17
4.24916e-16
1.07265e-15
-6.08874e-17
4.24916e-16
1.01047e-16
-6.08874e-17
4.24916e-16
-6.08874e-17
5.86851e-16
-2.22822e-16
-6.08874e-17
-7.08625e-16
2.62982e-16
1.5491e-13
1.52967e-13
1.50214e-13
1.44709e-13
1.38231e-13
1.3143e-13
1.21552e-13
1.12322e-13
1.02444e-13
9.01366e-14
7.99348e-14
6.9409e-14
5.93691e-14
4.98149e-14
4.20421e-14
3.41073e-14
2.81157e-14
2.27719e-14
1.7428e-14
1.33797e-14
9.97905e-15
6.9023e-15
4.31134e-15
3.1778e-15
9.1072e-16
9.1072e-16
9.1072e-16
4.24916e-16
-6.08874e-17
1.01047e-16
-6.08874e-17
-6.08874e-17
-6.08874e-17
-6.08874e-17
1.51834e-13
1.507e-13
1.473e-13
1.41956e-13
1.34992e-13
1.28353e-13
1.20418e-13
1.11188e-13
1.00015e-13
8.83554e-14
7.79915e-14
6.82755e-14
5.74259e-14
4.90053e-14
4.12324e-14
3.31357e-14
2.66583e-14
2.26099e-14
1.85616e-14
1.43513e-14
9.65518e-15
6.09262e-15
3.50167e-15
3.66361e-15
2.36813e-15
1.07265e-15
5.86851e-16
-6.08874e-17
-6.08874e-17
-6.08874e-17
-6.08874e-17
-6.08874e-17
-6.08874e-17
-6.08874e-17
1.50214e-13
1.47138e-13
1.42765e-13
1.38069e-13
1.31754e-13
1.25114e-13
1.16208e-13
1.07464e-13
9.72618e-14
8.65741e-14
7.6858e-14
6.66561e-14
5.80736e-14
4.77098e-14
3.9775e-14
3.37834e-14
2.7468e-14
2.22861e-14
1.71042e-14
1.257e-14
9.16938e-15
7.22617e-15
4.95908e-15
3.66361e-15
1.55846e-15
9.1072e-16
4.24916e-16
-6.08874e-17
-6.08874e-17
-5.46691e-16
4.24916e-16
4.24916e-16
4.24916e-16
4.24916e-16
1.41632e-13
1.40012e-13
1.3726e-13
1.3224e-13
1.25762e-13
1.17666e-13
1.09569e-13
1.00824e-13
9.14321e-14
8.23638e-14
7.28096e-14
6.24458e-14
5.37014e-14
4.51188e-14
3.81557e-14
3.02209e-14
2.42293e-14
1.96951e-14
1.4999e-14
1.14365e-14
9.97905e-15
7.22617e-15
5.28295e-15
3.66361e-15
1.23459e-15
5.86851e-16
5.86851e-16
4.24916e-16
-2.22822e-16
-2.22822e-16
-6.08874e-17
1.01047e-16
4.24916e-16
1.01047e-16
1.29163e-13
1.27705e-13
1.24953e-13
1.20418e-13
1.15398e-13
1.07949e-13
1.00662e-13
9.19179e-14
8.33354e-14
7.42671e-14
6.55226e-14
5.69401e-14
4.83575e-14
4.05847e-14
3.39454e-14
2.82777e-14
2.29338e-14
1.83996e-14
1.37035e-14
9.81712e-15
7.06423e-15
5.28295e-15
3.50167e-15
2.04426e-15
2.62982e-16
4.24916e-16
1.01047e-16
-6.08874e-17
4.24916e-16
1.01047e-16
4.24916e-16
1.01047e-16
-6.08874e-17
-6.08874e-17
1.14913e-13
1.14427e-13
1.12646e-13
1.08759e-13
1.03739e-13
9.69379e-14
8.98128e-14
8.15541e-14
7.31335e-14
6.50368e-14
5.67781e-14
4.94911e-14
4.26898e-14
3.52408e-14
2.89254e-14
2.35816e-14
1.83996e-14
1.48371e-14
1.07887e-14
8.19777e-15
6.09262e-15
4.47328e-15
3.50167e-15
1.88233e-15
2.62982e-16
4.24916e-16
4.24916e-16
4.24916e-16
-6.08874e-17
1.01047e-16
-6.08874e-17
-2.22822e-16
-8.7056e-16
-8.7056e-16
9.64521e-14
9.58043e-14
9.38611e-14
8.99747e-14
8.57644e-14
8.04206e-14
7.34574e-14
6.74658e-14
6.00168e-14
5.30536e-14
4.67382e-14
4.05847e-14
3.42692e-14
2.89254e-14
2.45532e-14
1.92093e-14
1.58087e-14
1.15984e-14
8.52164e-15
5.76876e-15
3.50167e-15
2.53006e-15
1.01047e-16
-5.46691e-16
1.01047e-16
-6.08874e-17
-2.22822e-16
-3.84756e-16
-6.08874e-17
-2.22822e-16
-6.08874e-17
-8.7056e-16
-1.03249e-15
-6.08874e-17
7.63722e-14
7.55625e-14
7.36193e-14
7.00568e-14
6.56845e-14
6.13123e-14
5.67781e-14
5.09485e-14
4.59285e-14
4.07466e-14
3.71841e-14
3.24879e-14
2.68202e-14
2.27719e-14
1.87235e-14
1.53229e-14
1.17603e-14
8.84551e-15
7.22617e-15
6.25456e-15
5.44489e-15
3.98748e-15
2.36813e-15
1.39652e-15
7.48785e-16
-6.08874e-17
-2.22822e-16
4.24916e-16
1.01047e-16
-2.22822e-16
-8.7056e-16
-6.08874e-17
4.24916e-16
1.01047e-16
5.30536e-14
5.40252e-14
5.24059e-14
5.09485e-14
4.81956e-14
4.39853e-14
4.04227e-14
3.66982e-14
3.34596e-14
2.90873e-14
2.53628e-14
2.16383e-14
1.7428e-14
1.45132e-14
1.14365e-14
9.16938e-15
7.71197e-15
6.57843e-15
4.95908e-15
3.33974e-15
3.1778e-15
2.53006e-15
1.39652e-15
5.86851e-16
4.24916e-16
1.01047e-16
4.24916e-16
4.24916e-16
4.24916e-16
-6.08874e-17
-6.08874e-17
1.01047e-16
-6.08874e-17
4.24916e-16
3.29738e-14
3.24879e-14
3.16783e-14
3.10305e-14
2.94112e-14
2.68202e-14
2.42293e-14
2.14764e-14
1.93713e-14
1.69422e-14
1.48371e-14
1.37035e-14
1.22461e-14
1.04649e-14
7.06423e-15
4.79715e-15
3.98748e-15
3.66361e-15
2.2062e-15
1.39652e-15
1.07265e-15
1.01047e-16
4.24916e-16
4.24916e-16
-3.84756e-16
-6.08874e-17
-2.22822e-16
-6.08874e-17
4.24916e-16
-6.08874e-17
-6.08874e-17
4.24916e-16
-6.08874e-17
-6.08874e-17
1.79138e-14
1.77519e-14
1.85616e-14
1.80758e-14
1.64564e-14
1.46752e-14
1.30558e-14
1.11126e-14
9.65518e-15
8.52164e-15
7.3881e-15
6.41649e-15
6.41649e-15
4.79715e-15
4.14941e-15
2.36813e-15
1.39652e-15
1.01047e-16
5.86851e-16
2.62982e-16
5.86851e-16
1.23459e-15
4.24916e-16
-6.08874e-17
-6.08874e-17
-2.22822e-16
-6.08874e-17
-6.08874e-17
-6.08874e-17
-6.08874e-17
-6.08874e-17
-6.08874e-17
-6.08874e-17
-6.08874e-17
8.35971e-15
7.55003e-15
8.35971e-15
8.19777e-15
7.71197e-15
7.22617e-15
6.57843e-15
6.41649e-15
5.12102e-15
3.66361e-15
3.33974e-15
3.33974e-15
2.85393e-15
2.2062e-15
9.1072e-16
1.07265e-15
4.24916e-16
2.62982e-16
4.24916e-16
-6.08874e-17
-6.08874e-17
4.24916e-16
-6.08874e-17
-6.08874e-17
4.24916e-16
-6.08874e-17
-6.08874e-17
-6.08874e-17
4.24916e-16
-6.08874e-17
-6.08874e-17
4.24916e-16
-6.08874e-17
-6.08874e-17
4.95908e-15
4.31134e-15
4.63521e-15
4.63521e-15
2.85393e-15
2.85393e-15
1.55846e-15
1.39652e-15
1.55846e-15
2.62982e-16
9.1072e-16
9.1072e-16
9.1072e-16
2.62982e-16
1.01047e-16
1.01047e-16
4.24916e-16
1.01047e-16
1.01047e-16
1.01047e-16
1.01047e-16
-2.22822e-16
4.24916e-16
4.24916e-16
-6.08874e-17
-6.08874e-17
-5.46691e-16
-6.08874e-17
-2.22822e-16
-6.08874e-17
-6.08874e-17
4.24916e-16
-6.08874e-17
1.01047e-16
4.24916e-16
4.24916e-16
1.01047e-16
7.48785e-16
1.07265e-15
5.86851e-16
1.01047e-16
4.24916e-16
1.01047e-16
-6.08874e-17
-6.08874e-17
-6.08874e-17
4.24916e-16
-6.08874e-17
-6.08874e-17
1.01047e-16
-6.08874e-17
-6.08874e-17
4.24916e-16
-6.08874e-17
4.24916e-16
-2.22822e-16
4.24916e-16
-6.08874e-17
4.24916e-16
4.24916e-16
4.24916e-16
-6.08874e-17
4.24916e-16
4.24916e-16
-6.08874e-17
-6.08874e-17
-6.08874e-17
4.24916e-16
-6.08874e-17
1.01047e-16
-6.08874e-17
-2.22822e-16
-2.22822e-16
-6.08874e-17
2.62982e-16
-3.84756e-16
4.24916e-16
-6.08874e-17
-2.22822e-16
-6.08874e-17
1.01047e-16
1.01047e-16
-6.08874e-17
-5.46691e-16
-6.08874e-17
1.01047e-16
4.24916e-16
1.01047e-16
1.01047e-16
1.01047e-16
-6.08874e-17
4.24916e-16
4.24916e-16
1.01047e-16
-2.22822e-16
-6.08874e-17
1.01047e-16
4.24916e-16
-6.08874e-17
-6.08874e-17
-6.08874e-17
-2.22822e-16
1.17656e-12
1.16376e-12
1.13575e-12
1.0964e-12
1.04474e-12
9.84015e-13
9.15679e-13
8.41027e-13
7.64108e-13
6.84436e-13
6.04603e-13
5.27522e-13
4.54975e-13
3.86315e-13
3.24618e-13
2.68427e-13
2.18389e-13
1.76448e-13
1.40498e-13
1.09569e-13
8.33354e-14
6.09884e-14
4.38234e-14
3.15163e-14
2.16383e-14
1.4999e-14
1.09507e-14
6.25456e-15
3.98748e-15
2.36813e-15
1.01047e-16
1.01047e-16
4.24916e-16
-7.08625e-16
1.16036e-12
1.14741e-12
1.12036e-12
1.0815e-12
1.03065e-12
9.69603e-13
9.01752e-13
8.2872e-13
7.52125e-13
6.73587e-13
5.95048e-13
5.19587e-13
4.47688e-13
3.79837e-13
3.17817e-13
2.61463e-13
2.13855e-13
1.72399e-13
1.37422e-13
1.0714e-13
8.23638e-14
6.09884e-14
4.33376e-14
3.13544e-14
2.08287e-14
1.41893e-14
9.00745e-15
6.25456e-15
4.95908e-15
2.85393e-15
9.1072e-16
1.01047e-16
-6.08874e-17
-6.08874e-17
1.12506e-12
1.11211e-12
1.08636e-12
1.04863e-12
1.00021e-12
9.40941e-13
8.74871e-13
8.04268e-13
7.29778e-13
6.53345e-13
5.77236e-13
5.02746e-13
4.32466e-13
3.66397e-13
3.06481e-13
2.5369e-13
2.06568e-13
1.65436e-13
1.3143e-13
1.01796e-13
7.88012e-14
5.93691e-14
4.34995e-14
3.10305e-14
2.13145e-14
1.45132e-14
9.33131e-15
6.57843e-15
3.33974e-15
1.39652e-15
1.07265e-15
7.48785e-16
4.24916e-16
4.24916e-16
1.06952e-12
1.05689e-12
1.0326e-12
9.96322e-13
9.48228e-13
8.92846e-13
8.30015e-13
7.60869e-13
6.89618e-13
6.1691e-13
5.44687e-13
4.74083e-13
4.07852e-13
3.46965e-13
2.90612e-13
2.39116e-13
1.93613e-13
1.55558e-13
1.22524e-13
9.46708e-14
7.1838e-14
5.41872e-14
3.99369e-14
2.82777e-14
2.05048e-14
1.58087e-14
1.17603e-14
7.55003e-15
3.1778e-15
9.1072e-16
-6.08874e-17
-6.08874e-17
-6.08874e-17
4.24916e-16
9.84177e-13
9.72194e-13
9.49199e-13
9.15355e-13
8.71956e-13
8.20461e-13
7.62489e-13
7.00306e-13
6.3456e-13
5.66548e-13
4.99507e-13
4.35219e-13
3.74494e-13
3.16845e-13
2.6454e-13
2.17579e-13
1.76448e-13
1.4147e-13
1.11674e-13
8.6736e-14
6.58465e-14
4.90053e-14
3.75079e-14
2.63344e-14
1.87235e-14
1.40274e-14
9.65518e-15
6.09262e-15
4.14941e-15
1.55846e-15
7.48785e-16
4.24916e-16
-6.08874e-17
2.62982e-16
8.7228e-13
8.60783e-13
8.39731e-13
8.09126e-13
7.70909e-13
7.25892e-13
6.73425e-13
6.18367e-13
5.60233e-13
4.99507e-13
4.39915e-13
3.82428e-13
3.2818e-13
2.78143e-13
2.31344e-13
1.89888e-13
1.53129e-13
1.21876e-13
9.58043e-14
7.34574e-14
5.56446e-14
4.13943e-14
3.05447e-14
2.13145e-14
1.4999e-14
1.03029e-14
7.3881e-15
5.12102e-15
2.692e-15
5.86851e-16
4.24916e-16
1.01047e-16
-6.08874e-17
-6.08874e-17
7.29292e-13
7.20062e-13
7.01925e-13
6.76987e-13
6.43467e-13
6.05088e-13
5.6088e-13
5.14081e-13
4.64205e-13
4.13358e-13
3.64616e-13
3.16197e-13
2.70694e-13
2.29724e-13
1.91832e-13
1.56692e-13
1.2641e-13
9.98527e-14
7.86393e-14
6.00168e-14
4.4633e-14
3.29738e-14
2.42293e-14
1.64564e-14
1.19223e-14
8.84551e-15
7.55003e-15
5.28295e-15
2.85393e-15
5.86851e-16
4.24916e-16
5.86851e-16
-6.08874e-17
4.24916e-16
5.64281e-13
5.57965e-13
5.45335e-13
5.26064e-13
5.00479e-13
4.69225e-13
4.36515e-13
3.99108e-13
3.60081e-13
3.21055e-13
2.82515e-13
2.4446e-13
2.0932e-13
1.76124e-13
1.4568e-13
1.19123e-13
9.56424e-14
7.73438e-14
6.08265e-14
4.67382e-14
3.4917e-14
2.60106e-14
1.85616e-14
1.33797e-14
9.97905e-15
7.3881e-15
4.31134e-15
2.2062e-15
9.1072e-16
1.01047e-16
-7.08625e-16
-2.22822e-16
-6.08874e-17
-6.08874e-17
4.02508e-13
3.9765e-13
3.88096e-13
3.73684e-13
3.55385e-13
3.34334e-13
3.1053e-13
2.83648e-13
2.56605e-13
2.27457e-13
1.99766e-13
1.73209e-13
1.48595e-13
1.24953e-13
1.04063e-13
8.44689e-14
6.77897e-14
5.43491e-14
4.28518e-14
3.28118e-14
2.45532e-14
1.83996e-14
1.30558e-14
9.00745e-15
6.57843e-15
3.98748e-15
2.2062e-15
4.24916e-16
1.01047e-16
-6.08874e-17
-6.08874e-17
1.01047e-16
-6.08874e-17
-5.46691e-16
2.61949e-13
2.5871e-13
2.52233e-13
2.42355e-13
2.30048e-13
2.15636e-13
1.99119e-13
1.82601e-13
1.64141e-13
1.45842e-13
1.28839e-13
1.11674e-13
9.64521e-14
8.02586e-14
6.58465e-14
5.4511e-14
4.41472e-14
3.52408e-14
2.82777e-14
2.18003e-14
1.58087e-14
1.22461e-14
9.97905e-15
7.22617e-15
4.63521e-15
2.04426e-15
1.23459e-15
4.24916e-16
-7.08625e-16
1.01047e-16
-6.08874e-17
1.01047e-16
-2.22822e-16
4.24916e-16
1.51834e-13
1.50214e-13
1.47461e-13
1.41632e-13
1.33859e-13
1.25438e-13
1.16208e-13
1.05197e-13
9.43469e-14
8.47928e-14
7.34574e-14
6.39032e-14
5.4511e-14
4.51188e-14
3.78318e-14
3.10305e-14
2.45532e-14
1.95332e-14
1.56468e-14
1.17603e-14
8.84551e-15
6.9023e-15
5.28295e-15
3.98748e-15
1.55846e-15
9.1072e-16
4.24916e-16
-6.08874e-17
-6.08874e-17
-6.08874e-17
-6.08874e-17
-2.22822e-16
-6.08874e-17
-6.08874e-17
7.99348e-14
7.83154e-14
7.62103e-14
7.29716e-14
6.90851e-14
6.4389e-14
6.00168e-14
5.4673e-14
4.90053e-14
4.31756e-14
3.83176e-14
3.24879e-14
2.7306e-14
2.19622e-14
1.79138e-14
1.45132e-14
1.20842e-14
9.65518e-15
7.55003e-15
5.60682e-15
3.66361e-15
2.2062e-15
2.2062e-15
2.62982e-16
4.24916e-16
-6.08874e-17
1.01047e-16
-6.08874e-17
-6.08874e-17
-6.08874e-17
-6.08874e-17
-5.46691e-16
-6.08874e-17
-6.08874e-17
3.86415e-14
3.88034e-14
3.7346e-14
3.41073e-14
3.20021e-14
3.03828e-14
2.81157e-14
2.58486e-14
2.2448e-14
1.95332e-14
1.77519e-14
1.53229e-14
1.20842e-14
9.65518e-15
8.52164e-15
5.93069e-15
4.47328e-15
2.53006e-15
1.07265e-15
4.24916e-16
4.24916e-16
4.24916e-16
1.01047e-16
-6.08874e-17
4.24916e-16
-6.08874e-17
1.01047e-16
-6.08874e-17
-6.08874e-17
1.01047e-16
-6.08874e-17
-5.46691e-16
-6.08874e-17
-6.08874e-17
1.59706e-14
1.61326e-14
1.56468e-14
1.56468e-14
1.38655e-14
1.257e-14
1.20842e-14
9.81712e-15
9.00745e-15
8.68358e-15
6.09262e-15
5.28295e-15
5.44489e-15
3.66361e-15
3.66361e-15
2.53006e-15
9.1072e-16
1.23459e-15
9.1072e-16
1.01047e-16
-6.08874e-17
1.01047e-16
-6.08874e-17
1.01047e-16
1.01047e-16
1.01047e-16
-6.08874e-17
-6.08874e-17
4.24916e-16
-6.08874e-17
-2.22822e-16
-2.22822e-16
-6.08874e-17
-7.08625e-16
9.97905e-15
9.97905e-15
9.49325e-15
9.33131e-15
7.71197e-15
7.3881e-15
6.09262e-15
5.44489e-15
4.63521e-15
3.33974e-15
1.88233e-15
1.07265e-15
1.88233e-15
1.88233e-15
9.1072e-16
-3.84756e-16
4.24916e-16
1.39652e-15
7.48785e-16
4.24916e-16
1.01047e-16
1.01047e-16
4.24916e-16
1.01047e-16
1.01047e-16
-7.08625e-16
1.01047e-16
4.24916e-16
-7.08625e-16
1.01047e-16
-6.08874e-17
1.01047e-16
-2.22822e-16
2.62982e-16
8.62975e-12
8.5279e-12
8.32807e-12
8.03481e-12
7.65944e-12
7.21445e-12
6.71148e-12
6.16835e-12
5.59866e-12
5.01829e-12
4.44132e-12
3.87892e-12
3.34372e-12
2.84367e-12
2.38604e-12
1.9736e-12
1.61022e-12
1.29477e-12
1.02644e-12
8.02163e-13
6.17072e-13
4.67444e-13
3.47451e-13
2.54662e-13
1.83573e-13
1.31268e-13
9.06224e-14
6.24458e-14
4.2366e-14
2.84396e-14
1.87235e-14
1.30558e-14
7.55003e-15
5.44489e-15
8.50733e-12
8.40661e-12
8.20872e-12
7.91902e-12
7.54868e-12
7.1087e-12
6.61286e-12
6.07637e-12
5.51446e-12
4.94169e-12
4.37282e-12
3.81884e-12
3.29126e-12
2.79865e-12
2.34653e-12
1.9404e-12
1.58204e-12
1.27242e-12
1.00814e-12
7.88074e-13
6.0687e-13
4.59023e-13
3.41621e-13
2.49318e-13
1.8001e-13
1.28353e-13
8.88412e-14
6.13123e-14
4.12324e-14
2.69822e-14
1.71042e-14
1.14365e-14
7.22617e-15
3.1778e-15
8.24985e-12
8.15075e-12
7.9574e-12
7.67564e-12
7.31517e-12
6.88815e-12
6.40558e-12
5.88432e-12
5.33843e-12
4.78154e-12
4.2287e-12
3.69075e-12
3.17952e-12
2.70198e-12
2.26395e-12
1.87158e-12
1.52601e-12
1.22692e-12
9.72518e-13
7.60546e-13
5.85009e-13
4.42992e-13
3.2899e-13
2.40088e-13
1.73371e-13
1.22847e-13
8.57644e-14
5.90452e-14
3.89653e-14
2.58486e-14
1.71042e-14
1.17603e-14
7.06423e-15
4.63521e-15
7.82575e-12
7.73231e-12
7.54787e-12
7.27938e-12
6.93592e-12
6.52768e-12
6.06795e-12
5.57178e-12
5.05051e-12
4.52147e-12
3.9947e-12
3.48364e-12
2.99848e-12
2.54749e-12
2.13391e-12
1.76211e-12
1.43549e-12
1.15307e-12
9.12116e-13
7.10508e-13
5.45658e-13
4.13034e-13
3.07615e-13
2.24704e-13
1.61388e-13
1.14265e-13
7.97728e-14
5.54827e-14
3.70221e-14
2.4877e-14
1.64564e-14
9.65518e-15
5.60682e-15
3.1778e-15
7.20667e-12
7.12036e-12
6.95017e-12
6.70111e-12
6.38226e-12
6.00577e-12
5.5802e-12
5.1195e-12
4.6371e-12
4.14822e-12
3.66306e-12
3.19102e-12
2.74311e-12
2.32791e-12
1.94704e-12
1.60682e-12
1.30772e-12
1.0496e-12
8.30501e-13
6.46544e-13
4.96106e-13
3.74979e-13
2.79438e-13
2.04462e-13
1.473e-13
1.03739e-13
7.2e-14
4.98149e-14
3.36215e-14
2.29338e-14
1.4999e-14
9.65518e-15
5.93069e-15
2.692e-15
6.36623e-12
6.28931e-12
6.13693e-12
5.91557e-12
5.63202e-12
5.29698e-12
4.91821e-12
4.50998e-12
4.08231e-12
3.64816e-12
3.21871e-12
2.80108e-12
2.40515e-12
2.03772e-12
1.703e-12
1.40375e-12
1.14223e-12
9.14707e-13
7.22167e-13
5.61366e-13
4.30037e-13
3.24132e-13
2.40412e-13
1.76124e-13
1.26572e-13
8.99747e-14
6.29316e-14
4.28518e-14
2.92493e-14
1.92093e-14
1.19223e-14
7.06423e-15
3.33974e-15
9.1072e-16
5.31366e-12
5.2484e-12
5.11966e-12
4.93263e-12
4.69458e-12
4.41184e-12
4.09494e-12
3.75245e-12
3.39409e-12
3.03103e-12
2.67056e-12
2.32176e-12
1.99157e-12
1.68697e-12
1.40747e-12
1.15826e-12
9.39969e-13
7.51315e-13
5.92134e-13
4.59185e-13
3.51013e-13
2.65026e-13
1.97985e-13
1.43737e-13
1.03415e-13
7.32954e-14
5.17582e-14
3.63744e-14
2.40674e-14
1.72661e-14
1.11126e-14
6.25456e-15
2.36813e-15
1.39652e-15
4.12571e-12
4.07454e-12
3.97462e-12
3.8292e-12
3.64314e-12
3.42194e-12
3.17337e-12
2.90618e-12
2.62716e-12
2.34394e-12
2.06315e-12
1.79191e-12
1.5367e-12
1.30011e-12
1.08425e-12
8.91551e-13
7.22653e-13
5.77883e-13
4.54489e-13
3.52147e-13
2.68588e-13
2.02195e-13
1.50538e-13
1.09083e-13
7.89632e-14
5.59685e-14
3.94511e-14
2.68202e-14
1.79138e-14
1.27319e-14
8.68358e-15
5.12102e-15
3.1778e-15
1.55846e-15
2.94067e-12
2.9044e-12
2.83234e-12
2.72918e-12
2.59575e-12
2.43705e-12
2.25876e-12
2.06541e-12
1.86559e-12
1.66301e-12
1.4635e-12
1.27015e-12
1.08733e-12
9.18108e-13
7.6427e-13
6.28245e-13
5.08252e-13
4.04775e-13
3.18788e-13
2.47375e-13
1.88431e-13
1.41146e-13
1.04549e-13
7.65341e-14
5.51588e-14
3.86415e-14
2.63344e-14
1.80758e-14
1.11126e-14
7.22617e-15
3.82554e-15
2.36813e-15
2.62982e-16
4.24916e-16
1.90445e-12
1.88048e-12
1.83352e-12
1.76535e-12
1.67936e-12
1.57621e-12
1.45913e-12
1.33347e-12
1.20279e-12
1.07227e-12
9.41588e-13
8.15117e-13
6.97067e-13
5.86952e-13
4.87524e-13
3.99755e-13
3.2316e-13
2.57091e-13
2.01871e-13
1.56044e-13
1.20095e-13
9.02986e-14
6.68181e-14
4.81956e-14
3.52408e-14
2.55248e-14
1.69422e-14
1.14365e-14
6.57843e-15
4.14941e-15
2.85393e-15
1.55846e-15
7.48785e-16
4.24916e-16
1.11356e-12
1.09964e-12
1.07195e-12
1.03276e-12
9.81586e-13