/*--------------------------------*- C++ -*----------------------------------*\
| =========                 |                                                 |
| \\      /  F ield         | OpenFOAM: The Open Source CFD Toolbox           |
|  \\    /   O peration     | Version:  2412                                  |
|   \\  /    A nd           | Website:  www.openfoam.com                      |
|    \\/     M anipulation  |                                                 |
\*---------------------------------------------------------------------------*/
FoamFile
{
    version     2.0;
    format      ascii;
    arch        "LSB;label=32;scalar=64";
    class       volScalarField;
    location    "0.030011";
    object      ionicCurrent;
}
// * * * * * * * * * * * * * * * * * * * * * * * * * * * * * * * * * * * * * //

dimensions      [1 2 -4 0 0 -1 0];

internalField   nonuniform List<scalar> 
8730
(
9.90556e-08
8.00969e-08
6.43973e-08
5.14775e-08
4.09121e-08
3.23263e-08
2.53929e-08
1.98282e-08
1.53896e-08
1.1871e-08
9.09907e-09
6.92941e-09
5.24225e-09
3.93902e-09
2.93917e-09
9.69929e-08
7.84299e-08
6.30583e-08
5.04085e-08
4.0064e-08
3.16576e-08
2.48687e-08
1.94199e-08
1.50733e-08
1.16274e-08
8.91263e-09
6.78754e-09
5.13495e-09
3.85837e-09
2.87893e-09
9.2944e-08
7.51587e-08
6.04307e-08
4.83105e-08
3.83988e-08
3.03438e-08
2.38382e-08
1.86163e-08
1.44502e-08
1.1147e-08
8.54448e-09
6.5071e-09
4.92265e-09
3.69868e-09
2.7596e-09
8.70555e-08
7.04003e-08
5.66074e-08
4.52562e-08
3.59731e-08
2.84285e-08
2.23347e-08
1.74426e-08
1.35394e-08
1.04443e-08
8.00549e-09
6.09628e-09
4.6115e-09
3.46453e-09
2.58456e-09
7.95434e-08
6.43281e-08
5.17266e-08
4.13555e-08
3.28735e-08
2.59796e-08
2.04107e-08
1.59396e-08
1.2372e-08
9.54296e-09
7.31385e-09
5.56886e-09
4.21187e-09
3.1637e-09
2.35959e-09
7.07138e-08
5.71901e-08
4.59883e-08
3.67686e-08
2.92277e-08
2.3098e-08
1.8146e-08
1.41699e-08
1.09971e-08
8.48115e-09
6.49887e-09
4.94726e-09
3.7408e-09
2.80903e-09
2.09434e-09
6.09946e-08
4.93305e-08
3.96686e-08
3.17157e-08
2.52105e-08
1.99222e-08
1.56495e-08
1.22186e-08
9.48086e-09
7.31007e-09
5.59995e-09
4.26159e-09
3.22115e-09
2.41778e-09
1.80174e-09
5.09044e-08
4.11688e-08
3.31041e-08
2.64657e-08
2.10354e-08
1.66205e-08
1.30534e-08
1.01891e-08
7.90366e-09
6.09184e-09
4.66485e-09
3.54836e-09
2.68064e-09
2.01087e-09
1.4975e-09
4.09951e-08
3.31522e-08
2.66554e-08
2.13073e-08
1.69321e-08
1.33748e-08
1.05007e-08
8.19316e-09
6.35244e-09
4.89364e-09
3.7451e-09
2.84685e-09
2.14908e-09
1.61079e-09
1.19846e-09
3.18049e-08
2.57144e-08
2.06695e-08
1.65169e-08
1.31199e-08
1.03584e-08
8.12783e-09
6.33768e-09
4.91034e-09
3.77974e-09
2.89013e-09
2.19484e-09
1.65513e-09
1.23912e-09
9.20779e-10
2.37548e-08
1.91967e-08
1.54219e-08
1.23155e-08
9.77537e-09
7.71152e-09
6.04549e-09
4.70938e-09
3.64488e-09
2.80241e-09
2.14011e-09
1.623e-09
1.22207e-09
9.13441e-10
6.77601e-10
1.71229e-08
1.38256e-08
1.10963e-08
8.85184e-09
7.01797e-09
5.52938e-09
4.32899e-09
3.36738e-09
2.60216e-09
1.99732e-09
1.52251e-09
1.15238e-09
8.65893e-10
6.45774e-10
4.77911e-10
1.20697e-08
9.73222e-09
7.79952e-09
6.21202e-09
4.91671e-09
3.86681e-09
3.02147e-09
2.34541e-09
1.80838e-09
1.38472e-09
1.05284e-09
7.94727e-10
5.95439e-10
4.4272e-10
3.26581e-10
8.67202e-09
6.97991e-09
5.58294e-09
4.43742e-09
3.50439e-09
2.74957e-09
2.14305e-09
1.65905e-09
1.27551e-09
9.73709e-10
7.37947e-10
5.55123e-10
4.14409e-10
3.06935e-10
2.25495e-10
6.96437e-09
5.59675e-09
4.46917e-09
3.54585e-09
2.79494e-09
2.18844e-09
1.70198e-09
1.31453e-09
1.00813e-09
7.67575e-10
5.80104e-10
4.35093e-10
3.23784e-10
2.39013e-10
1.74973e-10
6.09666e-07
4.93814e-07
3.97758e-07
3.18571e-07
2.53683e-07
2.00845e-07
1.58097e-07
1.23731e-07
9.62716e-08
7.44614e-08
5.72396e-08
4.37231e-08
3.31817e-08
2.50145e-08
1.87293e-08
5.96956e-07
4.83529e-07
3.89483e-07
3.11951e-07
2.4842e-07
1.96688e-07
1.54834e-07
1.21185e-07
9.42979e-08
7.29391e-08
5.60718e-08
4.28322e-08
3.2506e-08
2.45051e-08
1.83477e-08
5.72049e-07
4.63379e-07
3.73267e-07
2.98978e-07
2.38103e-07
1.88535e-07
1.4843e-07
1.16184e-07
9.04133e-08
6.9938e-08
5.37657e-08
4.10702e-08
3.11678e-08
2.34953e-08
1.75907e-08
5.35907e-07
4.34134e-07
3.49726e-07
2.80133e-07
2.23106e-07
1.76672e-07
1.39102e-07
1.08891e-07
8.47429e-08
6.55525e-08
5.0393e-08
3.84917e-08
2.92087e-08
2.20164e-08
1.64816e-08
4.89867e-07
3.96862e-07
3.19709e-07
2.56092e-07
2.03963e-07
1.61518e-07
1.27175e-07
9.95559e-08
7.74759e-08
5.99272e-08
4.60637e-08
3.51803e-08
2.66921e-08
2.01162e-08
1.50562e-08
4.35756e-07
3.53042e-07
2.84409e-07
2.27813e-07
1.8144e-07
1.43683e-07
1.13132e-07
8.85608e-08
6.89139e-08
5.32975e-08
4.09607e-08
3.12768e-08
2.37252e-08
1.78758e-08
1.33754e-08
3.76147e-07
3.0475e-07
2.455e-07
1.96643e-07
1.56614e-07
1.24024e-07
9.76519e-08
7.64369e-08
5.9471e-08
4.59846e-08
3.53313e-08
2.69704e-08
2.0452e-08
1.54039e-08
1.15208e-08
3.14241e-07
2.54579e-07
2.05068e-07
1.64249e-07
1.3081e-07
1.03586e-07
8.15514e-08
6.38229e-08
4.96438e-08
3.83735e-08
2.94726e-08
2.2489e-08
1.7046e-08
1.2832e-08
9.59132e-09
2.53362e-07
2.05241e-07
1.65317e-07
1.32406e-07
1.05443e-07
8.34865e-08
6.57116e-08
5.14083e-08
3.99695e-08
3.088e-08
2.37044e-08
1.8077e-08
1.36929e-08
1.03001e-08
7.69231e-09
1.96895e-07
1.59468e-07
1.28426e-07
1.02839e-07
8.18748e-08
6.48005e-08
5.09779e-08
3.98572e-08
3.09675e-08
2.39075e-08
1.83376e-08
1.39721e-08
1.05732e-08
7.94475e-09
5.92615e-09
1.47424e-07
1.19358e-07
9.60844e-08
7.69015e-08
6.11853e-08
4.8388e-08
3.80327e-08
2.97075e-08
2.3058e-08
1.77819e-08
1.3623e-08
1.03664e-08
7.83334e-09
5.87673e-09
4.37616e-09
1.06621e-07
8.62633e-08
6.93852e-08
5.54782e-08
4.40909e-08
3.48262e-08
2.73374e-08
2.13238e-08
1.65266e-08
1.27248e-08
9.73175e-09
7.39128e-09
5.57374e-09
4.17235e-09
3.09975e-09
7.54595e-08
6.09755e-08
4.89762e-08
3.90994e-08
3.10225e-08
2.44609e-08
1.91656e-08
1.49202e-08
1.15391e-08
8.86419e-09
6.76234e-09
5.12229e-09
3.85173e-09
2.87464e-09
2.12886e-09
5.44377e-08
4.39109e-08
3.52028e-08
2.80471e-08
2.22063e-08
1.74703e-08
1.36557e-08
1.06036e-08
8.17798e-09
6.26356e-09
4.76323e-09
3.59591e-09
2.69435e-09
2.00327e-09
1.4776e-09
4.3834e-08
3.5304e-08
2.82574e-08
2.24754e-08
1.77629e-08
1.39476e-08
1.08795e-08
8.42892e-09
6.48516e-09
4.95432e-09
3.75739e-09
2.82841e-09
2.1128e-09
1.56575e-09
1.15086e-09
4.25961e-06
3.45402e-06
2.78654e-06
2.2361e-06
1.78432e-06
1.41549e-06
1.11627e-06
8.75184e-07
6.82268e-07
5.28879e-07
4.07603e-07
3.12231e-07
2.3765e-07
1.79687e-07
1.34943e-07
4.17041e-06
3.3819e-06
2.72854e-06
2.18965e-06
1.7473e-06
1.38617e-06
1.09321e-06
8.57164e-07
6.68283e-07
5.18086e-07
3.99312e-07
3.0589e-07
2.32824e-07
1.76036e-07
1.32199e-07
3.9961e-06
3.24094e-06
2.61506e-06
2.09873e-06
1.67484e-06
1.32875e-06
1.048e-06
8.21803e-07
6.40794e-07
4.96826e-07
3.82945e-07
2.93349e-07
2.23266e-07
1.68797e-07
1.26754e-07
3.7438e-06
3.0369e-06
2.45075e-06
1.96699e-06
1.56973e-06
1.24539e-06
9.82309e-07
7.70374e-07
6.00765e-07
4.65827e-07
3.59055e-07
2.7503e-07
2.093e-07
1.58219e-07
1.18798e-07
3.42313e-06
2.7774e-06
2.2416e-06
1.79915e-06
1.43571e-06
1.13899e-06
8.98374e-07
7.04575e-07
5.49479e-07
4.2606e-07
3.28378e-07
2.51497e-07
1.91359e-07
1.44632e-07
1.08578e-07
3.04677e-06
2.47254e-06
1.99562e-06
1.60157e-06
1.27787e-06
1.01366e-06
7.99496e-07
6.27051e-07
4.89032e-07
3.79172e-07
2.92198e-07
2.2374e-07
1.70199e-07
1.28609e-07
9.65266e-08
2.63185e-06
2.13613e-06
1.72405e-06
1.38343e-06
1.10365e-06
8.75422e-07
6.90499e-07
5.41604e-07
4.22392e-07
3.27459e-07
2.52283e-07
1.93115e-07
1.46854e-07
1.10932e-07
8.32297e-08
2.20123e-06
1.78652e-06
1.44157e-06
1.15649e-06
9.22485e-07
7.31716e-07
5.77187e-07
4.52732e-07
3.53037e-07
2.73616e-07
2.1072e-07
1.61232e-07
1.22558e-07
9.25398e-08
6.93956e-08
1.77699e-06
1.44193e-06
1.16327e-06
9.33116e-07
7.44307e-07
5.90418e-07
4.65723e-07
3.65235e-07
2.84701e-07
2.20539e-07
1.69747e-07
1.29807e-07
9.86152e-08
7.44158e-08
5.57638e-08
1.38326e-06
1.12199e-06
9.04909e-07
7.25766e-07
5.78876e-07
4.5913e-07
3.62047e-07
2.83777e-07
2.21049e-07
1.71097e-07
1.31587e-07
1.00547e-07
7.63217e-08
5.75378e-08
4.30681e-08
1.03787e-06
8.41475e-07
6.78462e-07
5.44005e-07
4.33737e-07
3.43808e-07
2.70884e-07
2.12108e-07
1.65041e-07
1.27605e-07
9.80301e-08
7.48181e-08
5.67176e-08
4.26946e-08
3.19045e-08
7.52571e-07
6.09851e-07
4.91439e-07
3.9376e-07
3.13641e-07
2.48312e-07
1.95375e-07
1.52763e-07
1.18692e-07
9.16341e-08
7.02848e-08
5.35481e-08
4.05132e-08
3.04303e-08
2.26868e-08
5.34347e-07
4.32602e-07
3.48195e-07
2.78584e-07
2.21531e-07
1.75072e-07
1.37493e-07
1.07302e-07
8.32073e-08
6.41024e-08
4.90519e-08
3.72742e-08
2.81211e-08
2.10592e-08
1.5651e-08
3.86801e-07
3.12636e-07
2.51162e-07
2.00538e-07
1.59127e-07
1.25481e-07
9.83265e-08
7.6555e-08
5.92121e-08
4.54876e-08
3.47001e-08
2.62808e-08
1.97577e-08
1.47414e-08
1.09129e-08
3.12112e-07
2.51878e-07
2.02019e-07
1.61027e-07
1.27556e-07
1.00406e-07
7.85286e-08
6.10132e-08
4.70828e-08
3.60792e-08
2.74494e-08
2.07308e-08
1.55391e-08
1.15573e-08
8.52679e-09
2.98872e-05
2.42233e-05
1.9546e-05
1.57051e-05
1.25607e-05
9.99215e-06
7.90072e-06
6.207e-06
4.84614e-06
3.76225e-06
2.90543e-06
2.23166e-06
1.704e-06
1.29262e-06
9.73753e-07
2.92523e-05
2.37111e-05
1.91362e-05
1.53785e-05
1.23009e-05
9.78604e-06
7.73777e-06
6.0791e-06
4.74651e-06
3.6853e-06
2.84632e-06
2.18638e-06
1.66943e-06
1.26634e-06
9.53913e-07
2.80202e-05
2.27163e-05
1.83381e-05
1.47409e-05
1.17928e-05
9.38216e-06
7.41822e-06
5.82793e-06
4.55079e-06
3.53393e-06
2.72982e-06
2.09701e-06
1.60108e-06
1.21432e-06
9.14585e-07
2.62386e-05
2.12799e-05
1.71862e-05
1.38199e-05
1.1058e-05
8.79744e-06
6.95517e-06
5.46385e-06
4.26688e-06
3.31409e-06
2.56038e-06
1.96686e-06
1.50151e-06
1.13854e-06
8.57341e-07
2.39803e-05
1.94601e-05
1.57257e-05
1.26502e-05
1.01226e-05
8.05159e-06
6.36351e-06
4.99808e-06
3.9033e-06
3.03217e-06
2.34281e-06
1.79965e-06
1.3736e-06
1.04129e-06
7.83931e-07
2.13414e-05
1.73312e-05
1.40127e-05
1.1274e-05
9.01923e-06
7.17053e-06
5.66489e-06
4.44876e-06
3.47477e-06
2.69983e-06
2.08618e-06
1.60229e-06
1.22258e-06
9.26482e-07
6.97305e-07
1.84336e-05
1.49829e-05
1.212e-05
9.75096e-06
7.79748e-06
6.19607e-06
4.89374e-06
3.84358e-06
3.003e-06
2.33375e-06
1.8032e-06
1.3845e-06
1.05592e-06
7.99832e-07
6.01786e-07
1.54306e-05
1.25496e-05
1.01516e-05
8.16314e-06
6.52358e-06
5.18153e-06
4.09229e-06
3.21511e-06
2.51274e-06
1.95283e-06
1.50844e-06
1.15757e-06
8.82347e-07
6.68059e-07
5.02462e-07
1.24753e-05
1.0148e-05
8.20583e-06
6.59445e-06
5.26719e-06
4.18314e-06
3.30472e-06
2.59714e-06
2.02982e-06
1.57696e-06
1.21728e-06
9.33423e-07
7.11026e-07
5.38078e-07
4.04506e-07
9.73707e-06
7.91494e-06
6.39407e-06
5.13452e-06
4.10005e-06
3.25686e-06
2.57354e-06
2.02237e-06
1.57979e-06
1.22623e-06
9.45571e-07
7.24393e-07
5.51382e-07
4.16972e-07
3.13193e-07
7.32666e-06
5.94868e-06
4.80153e-06
3.85445e-06
3.07805e-06
2.44504e-06
1.93132e-06
1.51637e-06
1.18303e-06
9.16989e-07
7.06206e-07
5.4043e-07
4.10925e-07
3.10372e-07
2.32768e-07
5.32539e-06
4.31973e-06
3.48533e-06
2.79741e-06
2.23315e-06
1.77246e-06
1.39822e-06
1.09599e-06
8.5357e-07
6.60557e-07
5.0799e-07
3.8818e-07
2.94661e-07
2.22103e-07
1.66179e-07
3.78902e-06
3.07206e-06
2.47745e-06
1.98676e-06
1.58383e-06
1.25475e-06
9.87712e-07
7.72565e-07
6.00497e-07
4.6384e-07
3.55993e-07
2.71396e-07
2.0545e-07
1.54388e-07
1.15143e-07
2.7498e-06
2.22717e-06
1.79338e-06
1.43529e-06
1.14151e-06
9.02129e-07
7.0848e-07
5.52944e-07
4.28843e-07
3.30437e-07
2.52883e-07
1.9216e-07
1.44949e-07
1.08519e-07
8.06242e-08
2.22269e-06
1.79779e-06
1.44517e-06
1.15444e-06
9.16406e-07
7.22938e-07
5.66795e-07
4.41586e-07
3.41793e-07
2.62746e-07
2.00547e-07
1.51956e-07
1.14283e-07
8.52998e-08
6.31701e-08
0.000211071
0.000170875
0.000137435
0.000110141
8.80581e-05
7.02303e-05
5.57844e-05
4.40262e-05
3.44755e-05
2.67881e-05
2.06947e-05
1.59167e-05
1.21879e-05
9.28219e-06
7.02108e-06
0.000206492
0.000167148
0.000134468
0.000107806
8.62306e-05
6.87972e-05
5.46526e-05
4.31315e-05
3.37664e-05
2.62349e-05
2.02692e-05
1.55915e-05
1.19399e-05
9.09329e-06
6.87757e-06
0.000197837
0.000160016
0.000128751
0.000103281
8.26676e-05
6.59855e-05
5.24221e-05
4.13571e-05
3.23683e-05
2.51481e-05
1.94346e-05
1.49537e-05
1.14526e-05
8.72076e-06
6.59365e-06
0.00018512
0.00014969
0.000120514
9.67733e-05
7.75418e-05
6.19328e-05
4.92004e-05
3.87963e-05
3.03484e-05
2.35786e-05
1.82278e-05
1.40294e-05
1.07455e-05
8.18021e-06
6.18225e-06
0.000168929
0.000136637
0.000110138
8.8576e-05
7.10602e-05
5.67767e-05
4.50772e-05
3.55085e-05
2.77568e-05
2.15664e-05
1.66797e-05
1.28437e-05
9.83882e-06
7.48812e-06
5.65633e-06
0.00015008
0.000121497
9.80824e-05
7.90034e-05
6.34326e-05
5.06647e-05
4.0181e-05
3.16131e-05
2.46984e-05
1.91974e-05
1.48574e-05
1.14454e-05
8.76658e-06
6.66807e-06
5.03359e-06
0.000129255
0.000104836
8.48259e-05
6.84434e-05
5.49748e-05
4.38664e-05
3.47379e-05
2.73023e-05
2.13345e-05
1.65962e-05
1.2854e-05
9.90455e-06
7.583e-06
5.76297e-06
4.34714e-06
0.000107963
8.77867e-05
7.11765e-05
5.74721e-05
4.61282e-05
3.67471e-05
2.90516e-05
2.28265e-05
1.78514e-05
1.39007e-05
1.07721e-05
8.29825e-06
6.34777e-06
4.8196e-06
3.63352e-06
8.72038e-05
7.11087e-05
5.77365e-05
4.6599e-05
3.73327e-05
2.96812e-05
2.34499e-05
1.84381e-05
1.4435e-05
1.12481e-05
8.71489e-06
6.7066e-06
5.12353e-06
3.88651e-06
2.92914e-06
6.82676e-05
5.57214e-05
4.5192e-05
3.63845e-05
2.90795e-05
2.31001e-05
1.82632e-05
1.43761e-05
1.12628e-05
8.77373e-06
6.78924e-06
5.21594e-06
3.97934e-06
3.01662e-06
2.27275e-06
5.16587e-05
4.20885e-05
3.40394e-05
2.73374e-05
2.18319e-05
1.73544e-05
1.37338e-05
1.08152e-05
8.46729e-06
6.58458e-06
5.08434e-06
3.89931e-06
2.97193e-06
2.25144e-06
1.69469e-06
3.77445e-05
3.06456e-05
2.47259e-05
1.98494e-05
1.58631e-05
1.26189e-05
9.98557e-06
7.85345e-06
6.13444e-06
4.75834e-06
3.66681e-06
2.80865e-06
2.13847e-06
1.61778e-06
1.2152e-06
2.68854e-05
2.17986e-05
1.75912e-05
1.41312e-05
1.12957e-05
8.97752e-06
7.08872e-06
5.55875e-06
4.3294e-06
3.35079e-06
2.57804e-06
1.97155e-06
1.49792e-06
1.12994e-06
8.45839e-07
1.95084e-05
1.58204e-05
1.27674e-05
1.02481e-05
8.17562e-06
6.47891e-06
5.0993e-06
3.98734e-06
3.09898e-06
2.39424e-06
1.83828e-06
1.40191e-06
1.06136e-06
7.97418e-07
5.94494e-07
1.57704e-05
1.27869e-05
1.031e-05
8.26068e-06
6.57436e-06
5.1969e-06
4.08184e-06
3.18694e-06
2.47351e-06
1.90774e-06
1.46135e-06
1.11123e-06
8.38577e-07
6.2801e-07
4.66751e-07
0.0990005
0.00122289
0.000982061
0.000780794
0.000617995
0.000489655
0.000389502
0.00031003
0.000245321
0.000191747
0.000148032
0.000113568
8.6876e-05
6.63376e-05
5.04687e-05
0.0968977
0.00119577
0.000959934
0.000763237
0.00060447
0.0004795
0.000381829
0.000304054
0.000240419
0.000187752
0.0001449
0.000111175
8.50756e-05
6.49853e-05
4.94454e-05
0.0935105
0.00114542
0.000917806
0.000729582
0.000578413
0.000459629
0.000366532
0.000291907
0.000230721
0.000179919
0.000138817
0.000106544
8.15753e-05
6.23311e-05
4.74133e-05
0.0881073
0.00107059
0.000856627
0.000681189
0.000541182
0.000431349
0.00034471
0.000274544
0.000216677
0.000168634
0.000130074
9.98852e-05
7.65368e-05
5.85053e-05
4.44859e-05
0.00120767
0.000974794
0.000779493
0.000620808
0.000494896
0.000395914
0.000316879
0.000252073
0.000198374
0.000154094
0.000118865
9.13861e-05
7.01293e-05
5.36489e-05
4.07709e-05
0.00107317
0.000863566
0.000690418
0.000551335
0.00044145
0.000354394
0.000283824
0.0002253
0.000176521
0.000136935
0.000105708
8.14049e-05
6.25565e-05
4.78584e-05
3.63284e-05
0.000920113
0.000739624
0.000592786
0.000475927
0.000383235
0.000308402
0.000246654
0.000194957
0.000152228
0.000118101
9.13356e-05
7.04998e-05
5.4244e-05
4.14714e-05
3.14195e-05
0.000762828
0.000614331
0.000495001
0.00040008
0.000323548
0.00026025
0.000207177
0.000162863
0.000127045
9.87215e-05
7.65507e-05
5.92143e-05
4.55707e-05
3.47818e-05
2.62919e-05
0.000609434
0.000494164
0.000401699
0.000326635
0.000264229
0.000211579
0.00016729
0.000131211
0.000102481
7.98595e-05
6.20891e-05
4.80564e-05
3.69165e-05
2.80935e-05
2.12035e-05
0.000474166
0.000387945
0.000317075
0.000257621
0.000207247
0.000164717
0.000129906
0.000102021
7.99307e-05
6.24741e-05
4.86136e-05
3.75523e-05
2.87418e-05
2.18188e-05
1.64617e-05
0.000360496
0.000296207
0.000241608
0.000194962
0.000155577
0.000123344
9.74209e-05
7.67629e-05
6.03196e-05
4.71646e-05
3.66034e-05
2.81539e-05
2.14855e-05
1.62993e-05
1.23014e-05
0.000267141
0.000218366
0.000176395
0.000141322
0.000112652
8.95132e-05
7.09506e-05
5.60442e-05
4.40124e-05
3.429e-05
2.64826e-05
2.03066e-05
1.54846e-05
1.1748e-05
8.8623e-06
0.000191847
0.000155369
0.000125067
0.000100278
8.01799e-05
6.39196e-05
5.07196e-05
3.99711e-05
3.12336e-05
2.42075e-05
1.86426e-05
1.42825e-05
1.08866e-05
8.24856e-06
6.20368e-06
0.000138703
0.000112225
9.05037e-05
7.27755e-05
5.82987e-05
4.6434e-05
3.66989e-05
2.87605e-05
2.23742e-05
1.73059e-05
1.33176e-05
1.01932e-05
7.75159e-06
5.84957e-06
4.37721e-06
0.000111539
9.04258e-05
7.3094e-05
5.88362e-05
4.70664e-05
3.73508e-05
2.93905e-05
2.2963e-05
1.78421e-05
1.3794e-05
1.06064e-05
8.10171e-06
6.13998e-06
4.61442e-06
3.44018e-06
0.694304
0.582789
0.478444
0.383165
0.299656
0.23086
0.178765
0.141472
0.113784
0.0914273
0.00107313
0.000820839
0.00062195
0.000471064
0.000358829
0.681561
0.571371
0.468292
0.374296
0.292336
0.225439
0.174975
0.138807
0.111674
0.0899638
0.00104986
0.000802457
0.000608204
0.000461107
0.000351665
0.658605
0.550054
0.448789
0.357332
0.278452
0.214749
0.167423
0.133474
0.107675
0.0863982
0.00100542
0.000767528
0.000581774
0.000441706
0.000337289
0.623394
0.517675
0.41973
0.332387
0.258325
0.199808
0.157027
0.126005
0.101928
0.00121805
0.000941479
0.000717739
0.00054438
0.000414246
0.000316864
0.576082
0.474681
0.382008
0.300668
0.233267
0.18166
0.14429
0.116436
0.0942592
0.0011151
0.000858639
0.00065426
0.0004975
0.000380174
0.000291454
0.518797
0.422889
0.33681
0.263501
0.204896
0.161456
0.129899
0.105298
0.0012717
0.000990856
0.000760453
0.000579659
0.000442528
0.000339724
0.00026079
0.449316
0.361512
0.285079
0.222644
0.17505
0.140402
0.114146
0.0926859
0.00110039
0.000851614
0.000652733
0.000499304
0.000383704
0.000295832
0.000226884
0.373625
0.296908
0.232912
0.18335
0.147049
0.119765
0.0976178
0.001175
0.000916874
0.000707075
0.00054297
0.000418277
0.000323806
0.000250172
0.000190886
0.293926
0.232233
0.18405
0.148398
0.121478
0.0995809
0.00120629
0.000947194
0.000734618
0.000566872
0.000438262
0.000340565
0.000264577
0.000203571
0.000154141
0.221537
0.17717
0.144081
0.118624
0.0976401
0.001188
0.00093764
0.000731156
0.000567263
0.000440848
0.000344272
0.000268848
0.000207991
0.000158477
0.000119461
0.163882
0.134979
0.111945
0.0926224
0.00112322
0.000888996
0.000696602
0.000543754
0.000425409
0.00033416
0.000262157
0.000203755
0.000155969
0.0001182
8.90863e-05
0.122798
0.1026
0.00126986
0.00102068
0.000809901
0.000637844
0.000501487
0.000395515
0.000312701
0.000246361
0.000191879
0.00014738
0.000112229
8.50601e-05
6.42982e-05
0.0913888
0.00112236
0.000901726
0.000717625
0.000568652
0.000451025
0.000358818
0.000285365
0.00022532
0.000175571
0.000135207
0.000103411
7.88006e-05
5.98946e-05
4.53301e-05
0.00100096
0.000805291
0.000643736
0.000513818
0.000411086
0.000329445
0.000263017
0.000207917
0.000162154
0.000125273
9.62546e-05
7.37289e-05
5.63084e-05
4.27729e-05
3.22013e-05
0.000796604
0.000639896
0.000513892
0.000413796
0.000333496
0.000267459
0.000212195
0.000166058
0.000128784
9.939e-05
7.64949e-05
5.87008e-05
4.47859e-05
3.38613e-05
2.53331e-05
-14.4845
2.35127
2.28957
2.22263
2.16634
2.11643
1.40608
1.02297
0.794798
0.646898
0.520823
0.406773
0.307381
0.226813
0.167719
-9.43143
2.33963
2.27835
2.21896
2.16325
2.11445
1.36537
0.997684
0.779816
0.635279
0.510331
0.397608
0.300028
0.221232
0.163991
-2.9211
2.33149
2.27062
2.21207
2.15021
1.77328
1.2851
0.949194
0.751715
0.613334
0.49076
0.380341
0.285696
0.210599
0.156799
2.37447
2.31174
2.25173
2.19444
2.13457
1.62317
1.17556
0.885996
0.713154
0.581375
0.462289
0.355768
0.265746
0.195842
0.146835
2.34802
2.28759
2.22178
2.16643
2.11705
1.43473
1.04784
0.813167
0.663855
0.538285
0.424124
0.323627
0.24048
0.177986
0.13507
2.31168
2.25228
2.19556
2.14361
1.67515
1.21938
0.916608
0.735952
0.603348
0.484255
0.376829
0.284327
0.210618
0.157567
0.121326
2.26972
2.21242
2.15895
1.84482
1.36059
1.00804
0.794814
0.653347
0.531406
0.420238
0.322298
0.240991
0.179449
0.136836
0.106795
2.21792
2.16431
2.11636
1.4463
1.07046
0.834948
0.685645
0.562709
0.450293
0.349746
0.264314
0.197368
0.149775
0.116784
0.0918
2.16284
2.11595
1.45268
1.08145
0.846835
0.697488
0.575747
0.463936
0.363231
0.276902
0.207786
0.15764
0.122883
0.0973752
0.00112976
1.83638
1.38226
1.04152
0.826724
0.686113
0.568446
0.459904
0.361678
0.27714
0.209125
0.159378
0.124691
0.0988392
0.00115896
0.000877361
1.2395
0.957492
0.779595
0.653091
0.541065
0.437374
0.344152
0.264313
0.200739
0.154359
0.121686
0.0973363
0.001141
0.000867529
0.000649813
0.856476
0.716009
0.602094
0.496909
0.40012
0.314054
0.241546
0.185037
0.144284
0.114931
0.0920712
0.0010797
0.000823063
0.000619444
0.000464336
0.646386
0.54149
0.4436
0.354568
0.277194
0.214095
0.166361
0.131953
0.106088
0.00127665
0.000991494
0.000756566
0.000571826
0.000431748
0.000327569
0.489733
0.398306
0.316594
0.247265
0.192409
0.151935
0.122223
0.0988869
0.0011839
0.000917863
0.00070144
0.000532617
0.000405048
0.000309396
0.000235753
0.393488
0.313152
0.245483
0.192347
0.153179
0.124092
0.100876
0.00121115
0.000941265
0.000721649
0.000550179
0.00042042
0.000322678
0.000247107
0.000186789
-24.9489
-28.1403
-33.6431
-46.7606
-74.2224
-131.855
-209.197
-182.08
-70.7962
-0.350861
2.3157
2.24235
2.18066
2.11963
1.33103
-25.0485
-28.232
-35.357
-48.2219
-77.2917
-140.281
-211.139
-178.127
-61.0803
2.38527
2.31109
2.23862
2.17042
2.11732
1.28713
-25.8224
-29.5431
-36.2891
-52.4906
-86.8076
-154.084
-218.103
-154.289
-45.1546
2.37423
2.2961
2.22387
2.16423
1.76417
1.2134
-26.8408
-31.2793
-39.6924
-59.9539
-102.654
-177.209
-215.783
-122.982
-25.0986
2.35313
2.2779
2.20675
2.14896
1.61883
1.1083
-28.313
-33.8801
-46.7921
-73.2529
-128.797
-207.095
-191.291
-79.1851
-5.43468
2.32151
2.25596
2.18686
2.13164
1.43369
0.990991
-31.3644
-39.8786
-57.6338
-98.5636
-170.355
-214.09
-140.98
-35.8136
2.36184
2.2935
2.22254
2.16347
1.76221
1.2176
0.865969
-36.8672
-51.4085
-82.2148
-144.987
-211.366
-174.994
-68.9621
-1.66167
2.31816
2.2539
2.18594
2.13152
1.44714
1.00518
0.753365
-48.3238
-75.7144
-130.574
-200.963
-198.101
-92.5724
-12.2765
2.33714
2.27255
2.20407
2.14793
1.63113
1.1337
0.827051
0.651584
-77.09
-131.254
-200.512
-194.045
-99.7809
-17.1082
2.34921
2.27742
2.21647
2.15287
1.73266
1.21474
0.876038
0.68608
0.546736
-145.336
-210.457
-188.331
-86.8931
-12.4643
2.33951
2.27625
2.21599
2.15301
1.74606
1.23265
0.890719
0.697523
0.558415
0.435832
-215.706
-157.038
-58.8271
-1.52804
2.32878
2.26009
2.20157
2.14767
1.6637
1.17886
0.865476
0.685278
0.550794
0.431201
0.325898
-105.912
-25.0535
2.36069
2.29796
2.2387
2.18238
2.13141
1.50266
1.07469
0.81149
0.65252
0.524916
0.410619
0.31048
0.227989
0.0107014
2.33108
2.26376
2.2062
2.15284
1.78947
1.30192
0.953928
0.747403
0.607524
0.48684
0.378658
0.285315
0.209999
0.155168
2.30039
2.24159
2.18552
2.1344
1.56855
1.14336
0.867263
0.699117
0.570284
0.454726
0.351431
0.263752
0.194809
0.14577
0.111944
2.24245
2.18565
2.13394
1.55585
1.14184
0.875514
0.711193
0.582635
0.46571
0.360776
0.271322
0.201083
0.15113
0.116726
0.0913588
2.86418
2.18257
0.443049
-1.33957
-4.16362
-9.17262
-14.2764
-19.7633
-23.8835
-26.6616
-32.709
-45.3044
-73.1679
-137.482
-218.187
2.95591
1.62733
0.495858
-1.35652
-5.03091
-9.24494
-15.4043
-19.8653
-24.0314
-26.9243
-33.2604
-46.3799
-78.02
-144.224
-218.336
2.61549
1.81753
-0.102372
-2.12856
-5.3058
-10.7157
-15.8536
-21.1073
-23.956
-28.1658
-35.4578
-49.6411
-85.4545
-159.808
-221.69
2.30976
1.30734
-0.146019
-3.12855
-6.60999
-12.3342
-17.3302
-22.1383
-24.8083
-29.453
-38.0785
-55.7299
-99.5064
-182.442
-212.855
2.0109
0.887607
-1.50938
-4.18828
-9.09108
-14.2175
-18.9119
-23.0711
-26.8309
-31.1904
-42.0457
-67.3567
-122.006
-207.054
-181.782
1.28957
-0.168347
-3.11791
-6.52214
-11.2197
-17.2412
-21.1076
-24.9357
-28.0791
-35.3974
-51.1588
-86.0618
-160.326
-221.929
-125.173
0.246339
-1.75684
-5.51046
-9.74671
-14.7978
-20.173
-23.1358
-27.0246
-31.5436
-42.5229
-67.7453
-121.593
-205.989
-187.332
-54.792
-1.6122
-4.51494
-8.53655
-14.3941
-19.002
-22.2936
-26.0619
-29.825
-38.6631
-58.0239
-100.056
-180.796
-218.035
-98.8566
-4.12681
-4.64693
-8.61617
-14.3499
-18.8844
-22.1813
-25.952
-29.6582
-36.7705
-53.5695
-91.8137
-163.929
-221.621
-125.601
-17.4103
2.33498
-9.84508
-14.7744
-19.0518
-23.2005
-25.8354
-29.5853
-38.0264
-53.7408
-91.5228
-162.063
-223.031
-134.798
-22.7722
2.33923
2.26227
-16.5328
-20.3114
-24.1338
-26.8687
-31.3329
-39.8444
-59.7546
-100.064
-176.525
-217.763
-123.314
-16.7779
2.33619
2.26054
2.19051
-22.294
-24.9872
-28.2937
-33.7919
-46.1586
-70.4775
-120.715
-200.606
-203.721
-90.1158
-3.84938
2.31879
2.24564
2.18483
2.12362
-26.6195
-30.8941
-38.8593
-55.2611
-89.327
-156.095
-218.47
-162.613
-49.246
2.37081
2.29762
2.22659
2.16798
1.78226
1.22663
-33.1577
-43.3043
-65.4353
-112.499
-188.048
-211.317
-120.989
-22.6717
2.34963
2.28107
2.21044
2.15294
1.63116
1.12198
0.806667
-42.1612
-63.6528
-111.166
-188.679
-210.227
-116.816
-25.6209
2.35866
2.28921
2.21656
2.15675
1.682
1.16079
0.836267
0.652174
5.80978
5.8374
5.44027
5.41272
5.36802
4.8648
4.30744
4.23969
3.5857
3.43455
2.49628
1.19555
-0.833565
-4.10678
-9.14313
-15.7259
5.87523
5.89943
5.51098
5.51301
5.0152
4.97063
4.38182
4.32007
3.71725
3.0154
2.01549
1.21746
-0.960768
-4.34779
-9.59249
-16.2226
5.71677
5.72531
5.71932
5.27349
5.24071
4.68337
4.61812
4.03999
3.40032
3.20102
2.1711
0.691011
-1.62604
-5.27352
-10.7721
-17.4159
5.68428
5.67753
5.65963
5.18341
5.14554
4.5762
4.50978
3.9207
3.2543
3.001
1.86199
0.21307
-2.41498
-6.62793
-11.8668
-18.5285
5.78949
5.76867
5.31313
5.2822
4.72958
4.65814
4.02291
3.93811
3.23118
2.28362
1.58401
-0.366533
-3.38717
-8.11053
-14.4969
-20.6725
5.66289
5.62359
5.12065
5.02393
4.91455
4.28133
4.19737
3.53311
2.71507
2.21683
0.651911
-1.71488
-5.5398
-10.3482
-17.0351
-22.5442
5.63282
5.55604
5.01894
4.93512
4.30734
4.20485
3.50179
3.29868
2.26195
1.50264
-0.486498
-3.50816
-8.17371
-14.6038
-19.9597
-24.7304
5.42317
5.30546
4.68927
4.52678
4.38476
3.67039
3.4711
2.49799
1.8549
0.052103
-2.69458
-6.11729
-11.92
-18.2824
-23.3113
-27.5963
5.30582
4.67648
4.51087
4.3502
3.61263
3.36524
2.98113
1.75534
-0.0119221
-1.9021
-5.84639
-10.6248
-17.0521
-22.3455
-26.5397
-32.4527
4.89991
4.70481
3.97934
3.76948
3.51933
2.50014
1.83162
0.0131459
-1.91464
-5.82594
-10.5165
-16.9002
-22.2906
-26.6643
-31.2969
-42.4596
4.27997
3.98715
3.68092
3.34342
2.21996
1.38449
0.0351483
-2.82142
-6.18811
-11.8868
-17.3197
-22.4881
-26.6521
-32.5486
-42.8527
-68.6966
3.73235
3.33937
2.81376
2.08464
1.07492
-1.18221
-3.66178
-8.30638
-13.526
-18.7778
-23.5721
-27.9091
-33.2257
-46.1205
-75.7885
-136.395
3.05708
2.4079
1.47861
0.148349
-2.60493
-5.73237
-10.1436
-16.3832
-21.0574
-24.4526
-29.228
-35.818
-51.7677
-88.2625
-158.507
-223.211
1.9251
0.78779
-0.925727
-3.51562
-7.253
-13.0858
-18.198
-22.0122
-26.0022
-29.8026
-38.7981
-56.7216
-100.953
-180.561
-217.354
-97.6514
0.83929
-0.887581
-3.43774
-8.04148
-13.1367
-18.2423
-21.9
-25.6486
-29.1054
-35.9297
-53.2432
-91.8138
-172.758
-223.199
-107.843
-6.61859
5.53701
5.73474
5.72186
5.93768
5.91038
5.85496
6.08377
5.99967
5.89912
5.76792
5.59838
5.37812
5.09616
4.74568
4.33282
3.8644
5.61247
5.59929
5.81235
5.77688
5.99817
5.95024
5.86386
6.08632
5.9712
5.83899
5.65556
5.41607
5.11876
4.7574
4.33405
3.8662
5.56046
5.75443
5.73173
5.94621
5.91096
5.84296
6.06085
5.96293
5.83395
5.6358
5.79775
5.51796
5.20339
4.83774
4.43499
4.04616
5.59385
5.78951
5.75291
5.96403
5.91998
5.8422
6.06022
5.94428
5.80136
5.58667
5.7355
5.43299
5.08949
4.68335
4.23066
3.76778
5.72551
5.6877
5.88847
5.82338
6.03751
5.95288
5.82897
6.02538
5.86352
5.66441
5.41157
5.09789
4.68579
4.73096
4.29424
3.28015
5.75474
5.69499
5.87235
6.05636
5.97174
5.85407
6.04772
5.87924
5.66142
5.80441
5.50367
5.16923
4.77294
4.30873
3.81281
3.2507
5.87463
5.79899
5.98124
5.8714
6.05659
5.90186
6.07361
5.88282
5.65176
5.33408
5.41954
5.01722
4.58368
4.1054
3.56408
2.88937
5.92006
5.80749
5.95823
6.11574
5.97362
5.7919
5.94393
5.69659
5.38628
5.46721
5.06936
4.63397
4.17047
3.67279
3.07776
2.23265
5.81689
5.95162
6.0891
5.90281
6.04391
5.79687
5.90606
5.6042
5.22993
5.26456
4.8018
4.32061
3.81055
3.23686
2.46354
1.27418
5.85944
5.96878
6.08179
5.83919
5.94307
5.62615
5.68768
5.26488
5.27162
4.77795
4.26328
3.67453
3.58168
2.72824
1.53169
-0.310225
6.0854
5.82668
5.88327
5.93748
5.57781
5.60382
5.13309
5.10589
4.5199
4.44839
3.84388
3.20056
2.2915
1.6244
-0.339282
-3.34993
6.08393
5.75066
5.75431
5.7477
5.27562
5.20698
5.12074
4.54348
3.90659
3.79037
3.05052
2.06517
1.2882
-0.801857
-3.99763
-8.95291
5.77075
5.70539
5.65203
5.12497
5.01303
4.86972
4.19979
4.06789
3.31289
3.03779
1.924
0.306946
-1.4269
-5.08866
-10.5293
-17.3478
5.59017
5.49309
4.91275
4.74885
4.53717
4.35801
3.62134
3.42726
2.45957
1.85303
0.0844759
-2.6791
-6.10665
-12.1355
-18.8366
-24.4025
5.18787
5.00744
4.85362
4.17238
3.98452
3.80133
2.98865
2.62181
1.98278
0.262095
-2.37929
-5.78677
-11.8997
-17.8235
-23.1841
-27.4601
4.2579
4.39908
4.53324
4.7972
4.94367
5.08097
5.20493
5.50668
5.63154
5.75339
5.86682
5.96949
6.06344
6.15814
5.90308
5.92522
4.20666
4.45281
4.59047
4.72344
4.99816
5.14281
5.27904
5.40908
5.53391
5.65012
5.75338
5.83997
5.90781
5.95726
5.98392
5.99875
4.30665
4.44489
4.5752
4.84194
4.97556
5.10041
5.39133
5.51759
5.64075
5.75377
5.85162
5.93597
6.00736
6.06941
6.13563
5.81652
4.35946
4.49451
4.62088
4.8863
5.01567
5.13506
5.42213
5.54422
5.65804
5.76224
5.85162
5.92249
5.98577
6.0398
6.09813
5.76306
4.36499
4.60753
4.72961
4.99074
5.12331
5.24486
5.34986
5.64314
5.74599
5.84472
5.93293
6.00808
6.07118
6.13223
5.82841
5.82862
4.4436
4.68389
4.79599
5.05679
5.17087
5.27419
5.55642
5.65351
5.75104
5.83215
5.90115
5.95418
5.98296
5.99698
5.9959
5.988
4.59569
4.83749