/*--------------------------------*- C++ -*----------------------------------*\
| =========                 |                                                 |
| \\      /  F ield         | OpenFOAM: The Open Source CFD Toolbox           |
|  \\    /   O peration     | Version:  2412                                  |
|   \\  /    A nd           | Website:  www.openfoam.com                      |
|    \\/     M anipulation  |                                                 |
\*---------------------------------------------------------------------------*/
FoamFile
{
    version     2.0;
    format      ascii;
    arch        "LSB;label=32;scalar=64";
    class       volScalarField;
    location    "0.030011";
    object      Jsi;
}
// * * * * * * * * * * * * * * * * * * * * * * * * * * * * * * * * * * * * * //

dimensions      [0 0 0 0 0 0 0];

internalField   nonuniform List<scalar> 
8730
(
0
0
0
0
0
0
0
0
0
0
0
0
0
0
0
0
0
0
0
0
0
0
0
0
0
0
0
0
0
0
0
0
0
0
0
0
0
0
0
0
0
0
0
0
0
0
0
0
0
0
0
0
0
0
0
0
0
0
0
0
0
0
0
0
0
0
0
0
0
0
0
0
0
0
0
0
0
0
0
0
0
0
0
0
0
0
0
0
0
0
0
0
0
0
0
0
0
0
0
0
0
0
0
0
0
0
0
0
0
0
0
0
0
0
0
0
0
0
0
0
0
0
0
0
0
0
0
0
0
0
0
0
0
0
0
0
0
0
0
0
0
0
0
0
0
0
0
0
0
0
0
0
0
0
0
0
0
0
0
0
0
0
0
0
0
0
0
0
0
0
0
0
0
0
0
0
0
0
0
0
0
0
0
0
0
0
0
0
0
0
0
0
0
0
0
0
0
0
0
0
0
0
0
0
0
0
0
0
0
0
0
0
0
0
0
0
0
0
0
0
0
0
0
0
0
0
0
0
0
0
0
0
0
0
0
0
0
0
0
0
0
0
0
0
0
0
0
0
0
0
0
0
0
0
0
0
0
0
0
0
0
0
0
0
0
0
0
0
0
0
0
0
0
0
0
0
0
0
0
0
0
0
0
0
0
0
0
0
0
0
0
0
0
0
0
0
0
0
0
0
0
0
0
0
0
0
0
0
0
0
0
0
0
0
0
0
0
0
0
0
0
0
0
0
0
0
0
0
0
0
0
0
0
0
0
0
0
0
0
0
0
0
0
0
0
0
0
0
0
0
0
0
0
0
0
0
0
0
0
0
0
0
0
0
0
0
0
0
0
0
0
0
0
0
0
0
0
0
0
0
0
0
0
0
0
0
0
0
0
0
0
0
0
0
0
0
0
0
0
0
0
0
0
0
0
0
0
0
0
0
0
0
0
0
0
0
0
0
0
0
0
0
0
0
0
0
0
0
0
0
0
0
0
0
0
0
0
0
0
0
0
0
0
0
0
0
0
0
0
0
0
0
0
0
0
0
0
0
0
0
0
0
0
0
0
0
0
0
0
0
0
0
0
0
0
0
0
0
0
0
0
0
0
0
0
0
0
0
0
0
0
0
0
0
0
0
0
0
0
0
0
0
0
0
0
0
0
0
0
0
0
0
0
0
0
0
0
0
0
0
0
0
0
0
0
0
0
0
0
0
0
0
0
0
0
0
0
0
0
0
0
0
0
0
0
0
0
0
0
0
0
0
0
0
0
0
0
0
0
0
0
0
0
0
0
0
0
0
0
0
0
0
0
0
0
0
0
0
0
0
0
0
0
0
0
0
0
0
0
0
0
0
0
0
0
0
0
0
0
0
0
0
0
0
0
0
0
0
0
0
0
0
0
0
0
0
0
0
0
0
0
0
0
0
0
0
0
0
0
0
0
0
0
0
0
0
0
0
0
0
0
0
0
0
0
0
0
0
0
0
0
0
0
0
0
0
0
0
0
0
0
0
0
0
0
0
0
0
0
0
0
0
0
0
0
0
0
0
0
0
0
0
0
0
0
0
0
0
0
0
0
0
0
0
0
0
0
0
0
0
0
0
0
0
0
0
0
0
0
0
0
0
0
0
0
0
0
0
0
0
0
0
0
0
0
0
0
0
0
0
0
0
0
0
0
0
0
0
0
0
0
0
0
0
0
0
0
0
0
0
0
0
0
0
0
0
0
0
0
0
0
0
0
0
0
0
0
0
0
0
0
0
0
0
0
0
0
0
0
0
0
0
0
0
0
0
0
0
0
0
0
0
0
0
0
0
0
0
0
0
0
0
0
0
0
0
0
0
0
0
0
0
0
0
0
0
0
0
0
0
0
0
0
0
0
0
0
0
0
0
0
0
0
0
0
0
0
0
0
0
0
0
0
0
0
0
0
0
0
0
0
0
0
0
0
0
0
0
0
0
0
0
0
0
0
0
0
0
0
0
0
0
0
0
0
0
0
0
0
0
0
0
0
0
0
0
0
0
0
0
0
0
0
0
0
0
0
0
0
0
0
0
0
0
0
0
0
0
0
0
0
0
0
0
0
0
0
0
0
0
0
0
0
0
0
0
0
0
0
0
0
0
0
0
0
0
0
0
0
0
0
0
0
0
0
0
0
0
0
0
0
0
0
0
0
0
0
0
0
0
0
0
0
0
0
0
0
0
0
0
0
0
0
0
0
0
0
0
0
0
0
0
0
0
0
0
0
0
0
0
0
0
0
0
0
0
0
0
0
0
0
0
0
0
0
0
0
0
0
0
0
0
0
0
0
0
0
0
0
0
0
0
0
0
0
0
0
0
0
0
0
0
0
0
0
0
0
0
0
0
0
0
0
0
0
0
0
0
0
0
0
0
0
0
0
0
0
0
0
0
0
0
0
0
0
0
0
0
0
0
0
0
0
0
0
0
0
0
0
0
0
0
0
0
0
0
0
0
0
0
0
0
0
0
0
0
0
0
0
0
0
0
0
0
0
0
0
0
0
0
0
0
0
0
0
0
0
0
0
0
0
0
0
0
0
0
0
0
0
0
0
0
0
0
0
0
0
0
0
0
0
0
0
0
0
0
0
0
0
0
0
0
0
0
0
0
0
0
0
0
0
0
0
0
0
0
0
0
0
0
0
0
0
0
0
0
0
0
0
0
0
0
0
0
0
0
0
0
0
0
0
0
0
0
0
0
0
0
0
0
0
0
0
0
0
0
0
0
0
0
0
0
0
0
0
0
0
0
0
0
0
0
0
0
0
0
0
0
0
0
0
0
0
0
0
0
0
0
0
0
0
0
0
0
0
0
0
0
0
0
0
0
0
0
0
0
0
0
0
0
0
0
0
0
0
0
0
0
0
0
0
0
0
0
0
0
0
0
0
0
0
0
0
0
0
0
0
0
0
0
0
0
0
0
0
0
0
0
0
0
0
0
0
0
0
0
0
0
0
0
0
0
0
0
0
0
0
0
0
0
0
0
0
0
0
0
0
0
0
0
0
0
0
0
0
0
0
0
0
0
0
0
0
0
0
0
0
0
0
0
0
0
0
0
0
0
0
0
0
0
0
0
0
0
0
0
0
0
0
0
0
0
0
0
0
0
0
0
0
0
0
0
0
0
0
0
0
0
0
0
0
0
0
0
0
0
0
0
0
0
0
0
0
0
0
0
0
0
0
0
0
0
0
0
0
0
0
0
0
0
0
0
0
0
0
0
0
0
0
0
0
0
0
0
0
0
0
0
0
0
0
0
0
0
0
0
0
0
0
0
0
0
0
0
0
0
0
0
0
0
0
0
0
0
0
0
0
0
0
0
0
0
0
0
0
0
0
0
0
0
0
0
0
0
0
0
0
0
0
0
0
0
0
0
0
0
0
0
0
0
0
0
0
0
0
0
0
0
0
0
0
0
0
0
0
0
0
0
0
0
0
0
0
0
0
0
0
0
0
0
0
0
0
0
0
0
0
0
0
0
0
0
0
0
0
0
0
0
0
0
0
0
0
0
0
0
0
0
0
0
0
0
0
0
0
0
0
0
0
0
0
0
0
0
0
-0.0132104
-0.0129981
-0.0128155
-0.012748
-0.0126195
-0.0125159
0
0
0
0
0
0
0
0
0
-0.0131576
-0.0130347
-0.0128584
-0.012708
-0.0125833
-0.0124855
0
0
0
0
0
0
0
0
0
-0.013146
-0.012947
-0.0127756
-0.0126333
-0.0126014
0
0
0
0
0
0
0
0
0
0
-0.0130851
-0.0128975
-0.0127367
-0.0126052
-0.0125842
0
0
0
0
0
0
0
0
0
0
-0.0129755
-0.0128039
-0.0127461
-0.0126279
-0.0125325
0
0
0
0
0
0
0
0
0
0
-0.012908
-0.0127556
-0.0126285
-0.0125278
0
0
0
0
0
0
0
0
0
0
0
-0.0127857
-0.0126572
-0.0125529
0
0
0
0
0
0
0
0
0
0
0
0
-0.0127138
-0.0126129
-0.012533
0
0
0
0
0
0
0
0
0
0
0
0
-0.0125991
-0.0125297
0
0
0
0
0
0
0
0
0
0
0
0
0
0
0
0
0
0
0
0
0
0
0
0
0
0
0
0
0
0
0
0
0
0
0
0
0
0
0
0
0
0
0
0
0
0
0
0
0
0
0
0
0
0
0
0
0
0
0
0
0
0
0
0
0
0
0
0
0
0
0
0
0
0
0
0
0
0
0
0
0
0
0
0
0
0
0
0
0
0
0
0
0
0
0
0
0
0
0
0
0
0
0
-0.0371418
-0.0336517
-0.0300622
-0.0265555
-0.0228239
-0.0191285
-0.0160184
-0.0140543
-0.0133907
-0.0130392
-0.0128575
-0.0127202
-0.0125336
-0.0124686
0
-0.036683
-0.0332033
-0.0298025
-0.0261479
-0.022419
-0.0189176
-0.0157594
-0.01402
-0.0133315
-0.0130765
-0.0128156
-0.0126803
-0.0125853
-0.0124366
0
-0.0360819
-0.0325839
-0.0289926
-0.0254928
-0.021791
-0.0181873
-0.0153486
-0.0137969
-0.0133004
-0.0129879
-0.01282
-0.0126922
-0.0125161
0
0
-0.035005
-0.0314933
-0.0278928
-0.0244058
-0.0207482
-0.0172758
-0.0147906
-0.0136093
-0.0132305
-0.0129429
-0.012788
-0.0126716
-0.0125037
0
0
-0.033427
-0.0299207
-0.0265193
-0.0229059
-0.0193103
-0.01623
-0.0141906
-0.0133925
-0.013116
-0.0129366
-0.0127123
-0.0126122
-0.012459
0
0
-0.0316019
-0.0280824
-0.0245005
-0.0210747
-0.0176531
-0.0149638
-0.013748
-0.0132464
-0.0130374
-0.0127974
-0.012681
-0.0125124
0
0
0
-0.0290681
-0.0255536
-0.0220878
-0.0187204
-0.0157523
-0.0140026
-0.0134073
-0.0130784
-0.0129111
-0.0126991
-0.0126086
-0.0124639
0
0
0
-0.0261936
-0.0227195
-0.019282
-0.0162115
-0.0143202
-0.0134919
-0.0131297
-0.0129583
-0.0127441
-0.0126499
-0.012501
0
0
0
0
-0.0225509
-0.0192383
-0.0162604
-0.0142911
-0.0135448
-0.0131798
-0.0129307
-0.0128022
-0.0126248
-0.0125659
0
0
0
0
0
-0.0186819
-0.0159071
-0.014176
-0.0134623
-0.013134
-0.0129845
-0.0127863
-0.0126185
-0.0125674
0
0
0
0
0
0
-0.0151043
-0.0138591
-0.0133513
-0.013082
-0.0128721
-0.0127758
-0.0126254
-0.012502
0
0
0
0
0
0
0
-0.0135852
-0.0132542
-0.0130368
-0.0128536
-0.0127002
-0.0125722
-0.0124686
0
0
0
0
0
0
0
0
-0.0131262
-0.0128643
-0.0127968
-0.0126686
-0.0125642
0
0
0
0
0
0
0
0
0
0
-0.0128041
-0.0126779
-0.012574
-0.0124921
0
0
0
0
0
0
0
0
0
0
0
-0.0126429
-0.0125492
-0.0124773
0
0
0
0
0
0
0
0
0
0
0
0
-0.067659
-0.0643931
-0.0611961
-0.0577122
-0.0541114
-0.0506039
-0.0469195
-0.0431689
-0.0394051
-0.0353553
-0.0313694
-0.0273019
-0.0230875
-0.0189444
-0.0154747
-0.067245
-0.0641664
-0.0608064
-0.0573164
-0.0539041
-0.0502421
-0.0466459
-0.0428038
-0.0390172
-0.035028
-0.0309489
-0.0268834
-0.0227626
-0.0186506
-0.0152796
-0.0666718
-0.0633962
-0.0601999
-0.0567243
-0.0531299
-0.049625
-0.0458744
-0.0421902
-0.0383068
-0.034334
-0.0303491
-0.0261726
-0.0220496
-0.0180085
-0.0148634
-0.0656984
-0.0623923
-0.0590711
-0.0556957
-0.0521379
-0.0486508
-0.044907
-0.0412277
-0.0373452
-0.0333667
-0.029375
-0.0251965
-0.021
-0.0171335
-0.0143674
-0.0642712
-0.0610449
-0.0577731
-0.0543196
-0.0509211
-0.0472534
-0.0435427
-0.0397848
-0.0360028
-0.0319304
-0.0279235
-0.0238534
-0.0197322
-0.0160279
-0.0138845
-0.0625806
-0.0592815
-0.0560723
-0.0525856
-0.0489889
-0.0454856
-0.0417271
-0.0380257
-0.0340442
-0.0301271
-0.0261332
-0.0220064
-0.0180027
-0.0148932
-0.0135138
-0.0602423
-0.0569295
-0.0537229
-0.0502496
-0.0466565
-0.0431591
-0.0393939
-0.0356756
-0.0317578
-0.0277636
-0.0237973
-0.0197721
-0.016127
-0.0139567
-0.0132418
-0.0575752
-0.05424
-0.0508245
-0.0475127
-0.0439352
-0.0403173
-0.0366176
-0.0328051
-0.0289071
-0.0250224
-0.0209526
-0.0172474
-0.0145313
-0.0134565
-0.0130167
-0.0541152
-0.0508115
-0.0476111
-0.0441532
-0.0405657
-0.0370415
-0.0332457
-0.029399
-0.0255021
-0.0216721
-0.0178247
-0.0148951
-0.0135699
-0.0131565
-0.0128463
-0.0502366
-0.0469304
-0.043547
-0.0402507
-0.0366756
-0.0329698
-0.0293328
-0.0254502
-0.02169
-0.0179192
-0.0150029
-0.0136335
-0.0131176
-0.0128931
-0.0127252
-0.0456991
-0.0424032
-0.0391964
-0.0357199
-0.0320978
-0.0284457
-0.0247411
-0.0209454
-0.0174723
-0.0146902
-0.0135282
-0.013153
-0.0128625
-0.0127051
-0.0125901
-0.0407793
-0.0374534
-0.0340141
-0.0305594
-0.0270437
-0.0233823
-0.0197244
-0.0165032
-0.0142186
-0.0133929
-0.0130197
-0.0128383
-0.0127036
-0.0125186
-0.0124539
-0.035354
-0.0320197
-0.0285758
-0.0251252
-0.0215685
-0.0182048
-0.0153143
-0.0138032
-0.0132138
-0.0129973
-0.0127589
-0.0126463
-0.0124831
0
0
-0.0301829
-0.0268415
-0.0234237
-0.0200005
-0.0168789
-0.0145382
-0.0134968
-0.0130853
-0.0129099
-0.0126971
-0.012604
-0.0124583
0
0
0
-0.026505
-0.023193
-0.0198758
-0.0167645
-0.0145042
-0.0135
-0.0130985
-0.0129286
-0.0127171
-0.0126298
-0.0124854
0
0
0
0
-0.0973579
-0.0945341
-0.091786
-0.0887401
-0.0856406
-0.0824956
-0.0793227
-0.0758419
-0.0724082
-0.0687583
-0.0651113
-0.0613086
-0.057477
-0.0535319
-0.0494773
-0.0453182
-0.0969796
-0.0941483
-0.0914068
-0.0883892
-0.085417
-0.0821718
-0.0789668
-0.0755449
-0.0720556
-0.0685493
-0.0649148
-0.0610497
-0.0571696
-0.0531279
-0.0490624
-0.0449014
-0.0964885
-0.0936718
-0.0907979
-0.0878671
-0.0847314
-0.0816462
-0.0783448
-0.0749684
-0.0715596
-0.0679034
-0.0641526
-0.0603885
-0.0565198
-0.0525448
-0.0484678
-0.0443031
-0.0956608
-0.0928379
-0.0898869
-0.087021
-0.0838845
-0.0807978
-0.0774946
-0.0741127
-0.0706978
-0.0670361
-0.0632734
-0.0595016
-0.0556185
-0.0516074
-0.0473763
-0.0431516
-0.0944617
-0.0916064
-0.08884
-0.0858075
-0.0828213
-0.0795582
-0.0763301
-0.0728179
-0.0693745
-0.0658165
-0.0620302
-0.058154
-0.0542638
-0.0502655
-0.0461765
-0.0420049
-0.0929879
-0.0901416
-0.0873635
-0.0842878
-0.0810836
-0.0779506
-0.0746131
-0.0711927
-0.067742
-0.0640499
-0.0602707
-0.0564847
-0.052577
-0.0484472
-0.0443175
-0.0401242
-0.0909508
-0.0880625
-0.0852753
-0.0822127
-0.0791923
-0.0758918
-0.072629
-0.0690895
-0.0655928
-0.0618771
-0.0580824
-0.0542884
-0.0503966
-0.0463866
-0.04217
-0.0379392
-0.088592
-0.085692
-0.0828714
-0.0797593
-0.07653
-0.0733682
-0.069926
-0.0665378
-0.0629404
-0.0592515
-0.0555454
-0.0516251
-0.0476381
-0.0436648
-0.0395905
-0.0353983
-0.085513
-0.0827982
-0.0797988
-0.0766661
-0.0735932
-0.0702336
-0.0668093
-0.0633356
-0.0598348
-0.0560437
-0.0523074
-0.0483797
-0.0444771
-0.0404335
-0.0363602
-0.0321627
-0.0819787
-0.0790477
-0.076201
-0.0730646
-0.0697984
-0.0665984
-0.0631121
-0.059683
-0.0559756
-0.0523298
-0.0485001
-0.0446049
-0.0407153
-0.0367084
-0.0324858
-0.0282446
-0.0780859
-0.0751084
-0.0720177
-0.068823
-0.0657097
-0.0623096
-0.0588499
-0.0553189
-0.0516681
-0.0479341
-0.0441007
-0.0402109
-0.0363126
-0.0322834
-0.0280492
-0.0238322
-0.0734401
-0.0704412
-0.0673194
-0.0640794
-0.0608216
-0.057496
-0.0539761
-0.0505218
-0.046792
-0.0430239
-0.03921
-0.035384
-0.0313517
-0.027313
-0.0231389
-0.0190282
-0.0682804
-0.0652444
-0.0620953
-0.0589252
-0.0556843
-0.0522541
-0.0487885
-0.0452471
-0.041521
-0.0377413
-0.033968
-0.0299263
-0.0259736
-0.0219249
-0.0180037
-0.014884
-0.063308
-0.0602526
-0.0570884
-0.0538107
-0.050443
-0.0470954
-0.0436457
-0.0400029
-0.0363523
-0.0325887
-0.028725
-0.024781
-0.0208936
-0.017072
-0.0143776
-0.0133292
-0.0595322
-0.0564526
-0.0532944
-0.0502396
-0.0469158
-0.0434684
-0.0399159
-0.0364276
-0.0326643
-0.0287776
-0.0249848
-0.0210018
-0.0173396
-0.0145486
-0.0133243
-0.0129674
-0.119632
-0.117228
-0.11478
-0.112191
-0.109551
-0.106884
-0.103964
-0.100956
-0.0979386
-0.0948096
-0.091559
-0.0881807
-0.0846755
-0.0810448
-0.0772919
-0.0734043
-0.119344
-0.117066
-0.114532
-0.112043
-0.109348
-0.106591
-0.103789
-0.100751
-0.0977147
-0.0945199
-0.0912731
-0.0878965
-0.0843884
-0.0807497
-0.0769793
-0.0730782
-0.11897
-0.116565
-0.114112
-0.111526
-0.108882
-0.1062
-0.103269
-0.100264
-0.0972417
-0.0940739
-0.0906483
-0.0872043
-0.0836658
-0.0800092
-0.0762343
-0.0723563
-0.118282
-0.115804
-0.113412
-0.110822
-0.108174
-0.105487
-0.102481
-0.0995372
-0.0965035
-0.0933254
-0.0898914
-0.0864397
-0.0828916
-0.0792215
-0.0754317
-0.0715258
-0.117237
-0.114939
-0.112376
-0.109859
-0.10708
-0.104369
-0.101535
-0.0984582
-0.095306
-0.0921307
-0.0888332
-0.0854102
-0.0818402
-0.0780197
-0.0741999
-0.0704077
-0.11604
-0.113727
-0.111122
-0.108457
-0.105757
-0.103031
-0.0999896
-0.0970075
-0.093916
-0.0905752
-0.0872215
-0.0837819
-0.0802225
-0.0765279
-0.0727073
-0.0687664
-0.114255
-0.111931
-0.109341
-0.106798
-0.103978
-0.101201
-0.0981959
-0.0951217
-0.0920329
-0.0887982
-0.085318
-0.0818246
-0.0782375
-0.0745265
-0.0706857
-0.066718
-0.11224
-0.109888
-0.107244
-0.104541
-0.101801
-0.0990388
-0.0959585
-0.0929433
-0.0898172
-0.0864557
-0.0830036
-0.0795293
-0.0759381
-0.0722161
-0.0683588
-0.0643663
-0.109784
-0.107239
-0.104554
-0.101947
-0.0990653
-0.0962354
-0.0931818
-0.0900599
-0.0869028
-0.0835046
-0.0801062
-0.0765455
-0.0729395
-0.0692059
-0.065337
-0.0613345
-0.106708
-0.10414
-0.101433
-0.0988067
-0.0958989
-0.0930422
-0.0898934
-0.0867861
-0.0834661
-0.0801488
-0.0766754
-0.0731437
-0.0693623
-0.0655553
-0.0616533
-0.0576341
-0.103051
-0.100622
-0.0978896
-0.0950304
-0.0922451
-0.0891809
-0.086158
-0.0828574
-0.0795867
-0.0761084
-0.0726404
-0.0690127
-0.0653165
-0.0613773
-0.0574205
-0.0533778
-0.0989309
-0.0963989
-0.0936417
-0.0907527
-0.0879308
-0.0848112
-0.0816248
-0.0783863
-0.0751152
-0.0716164
-0.0680361
-0.0644231
-0.0605818
-0.0567263
-0.0527896
-0.0487493
-0.0943905
-0.0917369
-0.0889106
-0.0860907
-0.0830606
-0.0799607
-0.0767864
-0.0734815
-0.0700799
-0.0665328
-0.0629829
-0.0592538
-0.0553777
-0.0515038
-0.047558
-0.0435153
-0.0897234
-0.0869675
-0.0842312
-0.0813551
-0.0782462
-0.075026
-0.071892
-0.0684756
-0.0651123
-0.0614646
-0.0578881
-0.054204
-0.0502333
-0.0463431
-0.0423877
-0.0383198
-0.08636
-0.0835566
-0.080669
-0.0778601
-0.0747603
-0.0715272
-0.0683593
-0.0649016
-0.0613853
-0.0578086
-0.0542167
-0.0503376
-0.0465122
-0.0425123
-0.038524
-0.0343729
-0.138072
-0.136075
-0.134067
-0.131833
-0.129547
-0.127253
-0.124825
-0.12215
-0.119474
-0.116716
-0.113845
-0.110857
-0.107748
-0.104526
-0.101309
-0.0979245
-0.137939
-0.135837
-0.13382
-0.1317
-0.129352
-0.126957
-0.124549
-0.122035
-0.119416
-0.116684
-0.113831
-0.110847
-0.107727
-0.104475
-0.101161
-0.0976497
-0.137526
-0.135524
-0.133507
-0.131211
-0.128986
-0.126664
-0.124103
-0.121545
-0.118911
-0.116162
-0.113284
-0.110277
-0.107143
-0.103881
-0.100505
-0.097205
-0.136953
-0.13495
-0.132932
-0.130633
-0.12841
-0.126087
-0.123523
-0.120891
-0.118243
-0.115482
-0.112593
-0.109644
-0.106502
-0.103233
-0.0998504
-0.0964585
-0.136201
-0.134079
-0.132018
-0.129752
-0.127441
-0.125125
-0.122668
-0.119965
-0.117261
-0.114473
-0.111569
-0.108545
-0.105396
-0.102128
-0.0988617
-0.0954362
-0.135218
-0.133085
-0.131006
-0.128658
-0.126392
-0.124033
-0.121437
-0.118835
-0.116085
-0.113289
-0.11037
-0.10732
-0.104209
-0.100894
-0.0974537
-0.0938895
-0.133732
-0.131579
-0.129515
-0.127347
-0.124889
-0.122497
-0.119988
-0.117252
-0.114517
-0.111693
-0.108748
-0.105676
-0.102475
-0.0991393
-0.0956642
-0.0920659
-0.132038
-0.129859
-0.127738
-0.125349
-0.123039
-0.120637
-0.118002
-0.115294
-0.112573
-0.109738
-0.106777
-0.10368
-0.100449
-0.0970833
-0.0936515
-0.0900145
-0.12982
-0.127774
-0.125462
-0.123206
-0.120746
-0.118226
-0.115663
-0.112869
-0.110081
-0.107209
-0.104152
-0.101036
-0.0977865
-0.0944733
-0.0909575
-0.0872956
-0.127238
-0.125096
-0.122755
-0.120479
-0.117998
-0.115452
-0.11286
-0.110032
-0.107201
-0.104219
-0.101191
-0.0980346
-0.0947418
-0.0913193
-0.0877668
-0.0841569
-0.124177
-0.122071
-0.119674
-0.117229
-0.114725
-0.112082
-0.109382
-0.106632
-0.103633
-0.100625
-0.0975374
-0.0943385
-0.0910161
-0.0875688
-0.0839879
-0.0802671
-0.120704
-0.118391
-0.116019
-0.11358
-0.110954
-0.108363
-0.105562
-0.102668
-0.099619
-0.0965695
-0.0934303
-0.0901709
-0.0867886
-0.0832863
-0.0796594
-0.0758973
-0.116542
-0.114283
-0.111812
-0.109283
-0.106691
-0.103962
-0.101139
-0.0981712
-0.0951852
-0.0920193
-0.0886923
-0.0853534
-0.0819234
-0.0783764
-0.0746978
-0.0708835
-0.112418
-0.109984
-0.107571
-0.105006
-0.102246
-0.0995563
-0.0965986
-0.093678
-0.0904701
-0.0873272
-0.0840693
-0.0805763
-0.0769944
-0.073394
-0.0696698
-0.0658112
-0.109176
-0.106772
-0.10432
-0.101657
-0.0989267
-0.0961317
-0.0932042
-0.0901756
-0.0870021
-0.083744
-0.0804482
-0.0769181
-0.0733751
-0.0696623
-0.0659042
-0.0620146
-0.153361
-0.151675
-0.149919
-0.147958
-0.146019
-0.143962
-0.141877
-0.139687
-0.137455
-0.135058
-0.132556
-0.129957
-0.127369
-0.124626
-0.121678
-0.118775
-0.153314
-0.151468
-0.1497
-0.147848
-0.145785
-0.143746
-0.141648
-0.139458
-0.137175
-0.134813
-0.132461
-0.129889
-0.127233
-0.124368
-0.121385
-0.118482
-0.152913
-0.151206
-0.149323
-0.147474
-0.145513
-0.143531
-0.141444
-0.139254
-0.136952
-0.134605
-0.13208
-0.129446
-0.126708
-0.124049
-0.121088
-0.117988
-0.152401
-0.150732
-0.148865
-0.14696
-0.14506
-0.143076
-0.140983
-0.138786
-0.136476
-0.134051
-0.13158
-0.128931
-0.126183
-0.123508
-0.120537
-0.117421
-0.151745
-0.15
-0.148261
-0.146411
-0.144356
-0.14231
-0.140132
-0.137977
-0.135651
-0.133217
-0.130674
-0.128036
-0.125404
-0.12262
-0.119614
-0.116542
-0.150855
-0.149153
-0.147379
-0.145402
-0.143374
-0.141351
-0.139231
-0.137008
-0.134674
-0.132222
-0.129723
-0.127039
-0.124233
-0.121323
-0.118482
-0.115337
-0.149835
-0.147942
-0.146139
-0.144248
-0.142153
-0.140076
-0.137869
-0.135623
-0.133266
-0.13086
-0.12827
-0.125566
-0.122754
-0.120013
-0.116976
-0.113772
-0.148392
-0.146478
-0.144629
-0.142598
-0.140534
-0.138472
-0.136321
-0.134066
-0.131694
-0.129203
-0.126591
-0.12392
-0.121059
-0.118067
-0.114963
-0.111926
-0.146463
-0.144686
-0.142663
-0.140717
-0.138686
-0.136444
-0.134213
-0.13191
-0.129516
-0.127012
-0.124389
-0.121637
-0.118752
-0.115757
-0.112828
-0.109599
-0.144231
-0.142366
-0.140383
-0.138371
-0.136345
-0.134192
-0.13182
-0.129451
-0.127006
-0.124455
-0.121793
-0.119011
-0.116094
-0.113047
-0.109885
-0.106779
-0.141615
-0.139729
-0.137726
-0.135679
-0.133604
-0.131312
-0.128952
-0.126574
-0.124057
-0.121293
-0.11852
-0.115663
-0.112718
-0.109852
-0.106678
-0.103339
-0.138543
-0.136567
-0.13455
-0.132416
-0.130237
-0.128016
-0.125572
-0.12312
-0.120574
-0.117841
-0.115033
-0.111985
-0.10899
-0.105852
-0.10272
-0.0993481
-0.134993
-0.132922
-0.13087
-0.128685
-0.126498
-0.12404
-0.121653
-0.119152
-0.116333
-0.11358
-0.110745
-0.107798
-0.104731
-0.101531
-0.0981932
-0.0947816
-0.131198
-0.129065
-0.12704
-0.12475
-0.122512
-0.120071
-0.117568
-0.115029
-0.11225
-0.109388
-0.106504
-0.103498
-0.100361
-0.0970878
-0.0936769
-0.0901235
-0.128322
-0.126154
-0.123965
-0.121722
-0.119355
-0.116897
-0.114306
-0.111718
-0.108932
-0.105972
-0.103003
-0.0999409
-0.0967599
-0.093452
-0.0900121
-0.0864365
-0.166179
-0.164686
-0.163145
-0.161533
-0.159845
-0.158069
-0.1562
-0.154302
-0.152261
-0.150146
-0.148121
-0.145845
-0.143454
-0.141123
-0.138591
-0.135968
-0.166085
-0.164564
-0.162952
-0.161327
-0.159624
-0.157897
-0.156029
-0.154076
-0.152055
-0.150064
-0.147953
-0.145663
-0.143431
-0.140929
-0.138358
-0.13575
-0.165839
-0.16435
-0.162798
-0.161178
-0.159482
-0.157708
-0.155839
-0.153878
-0.15188
-0.149736
-0.147517
-0.145392
-0.143019
-0.140681
-0.138055
-0.135362
-0.165474
-0.163984
-0.162433
-0.16081
-0.159108
-0.157328
-0.155452
-0.153484
-0.15148
-0.149327
-0.147102
-0.144963
-0.142553
-0.140088
-0.137553
-0.134877
-0.164919
-0.163346
-0.16179
-0.160159
-0.158444
-0.156644
-0.154751
-0.15283
-0.150758
-0.148609
-0.14655
-0.144246
-0.14182
-0.13946
-0.136842
-0.134247
-0.164075
-0.162571
-0.16101
-0.159374
-0.157659
-0.155865
-0.153973
-0.151989
-0.149968
-0.147798
-0.14555
-0.143385
-0.140947
-0.138452
-0.135892
-0.133188
-0.163248
-0.161608
-0.159939
-0.158284
-0.156551
-0.154732
-0.152825
-0.150882
-0.148786
-0.146586
-0.144307
-0.142122
-0.139665
-0.137142
-0.134555
-0.131823
-0.161984
-0.160281
-0.158661
-0.156993
-0.155254
-0.153428
-0.151512
-0.1495
-0.147448
-0.145233
-0.142915
-0.140506
-0.138178
-0.135569
-0.132899
-0.130169
-0.160293
-0.158725
-0.157079
-0.155241
-0.153431
-0.151577
-0.149651
-0.147633
-0.145513
-0.143312
-0.141125
-0.1388
-0.136265
-0.133683
-0.131038
-0.128257
-0.15844
-0.156764
-0.155057
-0.153328
-0.151397
-0.149485
-0.147518
-0.145465
-0.14331
-0.141056
-0.138728
-0.136475
-0.133936
-0.131243
-0.128493
-0.125685
-0.156111
-0.154416
-0.152695
-0.150957
-0.149016
-0.147092
-0.145107
-0.143024
-0.140837
-0.138535
-0.136131
-0.133625
-0.131082
-0.128478
-0.125645
-0.122733
-0.15342
-0.151703
-0.149936
-0.148059
-0.146205
-0.144287
-0.14218
-0.139908
-0.137633
-0.13535
-0.132923
-0.130504
-0.127872
-0.12509
-0.122231
-0.119182
-0.150233
-0.148519
-0.146699
-0.144863
-0.142785
-0.140791
-0.13873
-0.136535
-0.1341
-0.131662
-0.129154
-0.126568
-0.123991
-0.121178
-0.118265
-0.115134
-0.146826
-0.145
-0.143234
-0.141282
-0.139247
-0.137091
-0.134964
-0.132766
-0.130382
-0.127944
-0.125384
-0.122773
-0.119974
-0.117043
-0.113979
-0.11077
-0.143982
-0.142192
-0.140337
-0.138355
-0.13636
-0.134103
-0.131923
-0.129671
-0.127285
-0.12465
-0.122003
-0.119265
-0.116417
-0.113446
-0.110359
-0.10726
-0.177377
-0.175933
-0.174494
-0.173116
-0.17158
-0.169993
-0.168267
-0.166485
-0.164794
-0.162874
-0.160928
-0.15897
-0.156991
-0.15481
-0.152611
-0.150154
-0.177366
-0.175975
-0.174527
-0.173012
-0.171481
-0.169829
-0.168114
-0.166492
-0.164657
-0.162738
-0.160894
-0.158892
-0.156821
-0.154621
-0.152432
-0.150154
-0.177052
-0.17564
-0.174176
-0.172661
-0.171097
-0.169579
-0.167954
-0.166161
-0.164296
-0.16253
-0.160609
-0.158629
-0.156532
-0.154428
-0.152069
-0.149786
-0.176744
-0.175331
-0.173863
-0.17234
-0.170772
-0.169244
-0.167607
-0.165806
-0.163938
-0.162172
-0.160191
-0.158269
-0.156169
-0.154
-0.151697
-0.149391
-0.17637
-0.174971
-0.173516
-0.171987
-0.17039
-0.168778
-0.167032
-0.165228
-0.163517
-0.161583
-0.15961
-0.157605
-0.155489
-0.1534
-0.151148
-0.14875
-0.175553
-0.174104
-0.172622
-0.171093
-0.169512
-0.167971
-0.166322
-0.16451
-0.162635
-0.160856
-0.158858
-0.156919
-0.154797
-0.152599
-0.150269
-0.147935
-0.174776
-0.173372
-0.171903
-0.170359
-0.168745
-0.167114
-0.165354
-0.163537
-0.161813
-0.159862
-0.157871
-0.155843
-0.153701
-0.151487
-0.149137
-0.14678
-0.173636
-0.172238
-0.170768
-0.169223
-0.167606
-0.165971
-0.164206
-0.162362
-0.160456
-0.158636
-0.156575
-0.15447
-0.152329
-0.150065
-0.147803
-0.145448
-0.172245
-0.170809
-0.1692
-0.167606
-0.165977
-0.164303
-0.162675
-0.160931
-0.15901
-0.156998
-0.154968
-0.152905
-0.15072
-0.148462
-0.146074
-0.143678
-0.170411
-0.168946
-0.167476
-0.16593
-0.164308
-0.162667
-0.160895
-0.15903
-0.157079
-0.155118
-0.15312
-0.150942
-0.148699
-0.146467
-0.143974
-0.141517
-0.168433
-0.166898
-0.165398
-0.163851
-0.162224
-0.160515
-0.158714
-0.156822
-0.154836
-0.152825
-0.15068
-0.148556
-0.146292
-0.143854
-0.141474
-0.13889
-0.165897
-0.164343
-0.16283
-0.161272
-0.159636
-0.157917
-0.156102
-0.154185
-0.152179
-0.150081
-0.147945
-0.145654
-0.143264
-0.140949
-0.13837
-0.13582
-0.163058
-0.161431
-0.159886
-0.158267
-0.156458
-0.154667
-0.152822
-0.150888
-0.148852
-0.146721
-0.144482
-0.142219
-0.139912
-0.137389
-0.134791
-0.132112
-0.159772
-0.158182
-0.156625
-0.154919
-0.153076
-0.151247
-0.149364
-0.147407
-0.145348
-0.143175
-0.140889
-0.138551
-0.136042
-0.133426
-0.130872
-0.128019
-0.157169
-0.155505
-0.153898
-0.152065
-0.150304
-0.148457
-0.146406
-0.144369
-0.142261
-0.140046
-0.137723
-0.135291
-0.132829
-0.130303
-0.127558
-0.124729
-0.187423
-0.186058
-0.184654
-0.183302
-0.181856
-0.180282
-0.178799
-0.177182
-0.175524
-0.173773
-0.172055
-0.170274
-0.168249
-0.166294
-0.164289
-0.162258
-0.187268
-0.186027
-0.184649
-0.183246
-0.181731
-0.180301
-0.178677
-0.177036
-0.175398
-0.173753
-0.171945
-0.170149
-0.168273
-0.166218
-0.164179
-0.162088
-0.187118
-0.185802
-0.184404
-0.183044
-0.181607
-0.180049
-0.17857
-0.176904
-0.175297
-0.173557
-0.171757
-0.169863
-0.167997
-0.166076
-0.164076
-0.161979
-0.186835
-0.185514
-0.184095
-0.182633
-0.181269
-0.179705
-0.178122
-0.176517
-0.174838
-0.173197
-0.171435
-0.169553
-0.167692
-0.165765
-0.163726
-0.161476
-0.186368
-0.185022
-0.183714
-0.182323
-0.18079
-0.179197
-0.177703
-0.176029
-0.174418
-0.172667
-0.170919
-0.168954
-0.167078
-0.165156
-0.163148
-0.161035
-0.185782
-0.184407
-0.183005
-0.181639
-0.180183
-0.178583
-0.176983
-0.175369
-0.173684
-0.172036
-0.170262
-0.168359
-0.166464
-0.164492
-0.162319
-0.160149
-0.185086
-0.18372
-0.18229
-0.180855
-0.179302
-0.1777
-0.176202
-0.174519
-0.172903
-0.171138
-0.169383
-0.167407
-0.165514
-0.163556
-0.161477
-0.159185
-0.184043
-0.182676
-0.181248
-0.179809
-0.178252
-0.176654
-0.175158
-0.173475
-0.171853
-0.17009
-0.168262
-0.166336
-0.16442
-0.162416
-0.160219
-0.158026
-0.182593
-0.181206
-0.17989
-0.178436
-0.176951
-0.175347
-0.173754
-0.172139
-0.170441
-0.168686
-0.166829
-0.164966
-0.162882
-0.160867
-0.158753
-0.156424
-0.180996
-0.179642
-0.178232
-0.17675
-0.175204
-0.173655
-0.172091
-0.170374
-0.168624
-0.166915
-0.164987
-0.163113
-0.161061
-0.158972
-0.156843
-0.154492
-0.179103
-0.177764
-0.176421
-0.174948
-0.173402
-0.171777
-0.170082
-0.168362
-0.166527
-0.164803
-0.16286
-0.160975
-0.158908
-0.156792
-0.154638
-0.152272
-0.176672
-0.175319
-0.173915
-0.172452
-0.170915
-0.169357
-0.167655
-0.165874
-0.164033
-0.162293
-0.160329
-0.158412
-0.156318
-0.154144
-0.151845
-0.149508
-0.173994
-0.172513
-0.171066
-0.169575
-0.168016
-0.16638
-0.164674
-0.162886
-0.161089
-0.159259
-0.157306
-0.155189
-0.153137
-0.150845
-0.148587
-0.146134
-0.170791
-0.169351
-0.167929
-0.166434
-0.164829
-0.163041
-0.161286
-0.159594
-0.157787
-0.155811
-0.153721
-0.151605
-0.149454
-0.147176
-0.144869
-0.142284
-0.168107
-0.166662
-0.165111
-0.163584
-0.162009
-0.160349
-0.158598
-0.156768
-0.154845
-0.152896
-0.15078
-0.148584
-0.146463
-0.144072
-0.141604
-0.139063
-0.196546
-0.195277
-0.19393
-0.192525
-0.191101
-0.189599
-0.188143
-0.186637
-0.184973
-0.183338
-0.181669
-0.179949
-0.178157
-0.176289
-0.174345
-0.172373
-0.196481
-0.195197
-0.193799
-0.192481
-0.191055
-0.189585
-0.18804
-0.186531
-0.184982
-0.183364
-0.181584
-0.179822
-0.178012
-0.176137
-0.174266
-0.172362
-0.196278
-0.194915
-0.193653
-0.192234
-0.190877
-0.1894
-0.187951
-0.186397
-0.184753
-0.183128
-0.181464
-0.179735
-0.177994
-0.17613
-0.17418
-0.172203
-0.196021
-0.194666
-0.193403
-0.191975
-0.190619
-0.189137
-0.187615
-0.186022
-0.18446
-0.182869
-0.181221
-0.179494
-0.177695
-0.175871
-0.173908
-0.171854
-0.195576
-0.194308
-0.192967
-0.191556
-0.190129
-0.18863
-0.187181
-0.185676
-0.18397
-0.182347
-0.180685
-0.179008
-0.177203
-0.175331
-0.173374
-0.171383
-0.195
-0.193639
-0.192379
-0.190959
-0.189597
-0.18811
-0.186581
-0.184983
-0.183417
-0.181819
-0.180156
-0.178389
-0.176447
-0.174588
-0.172732
-0.170714
-0.194259
-0.192978
-0.191583
-0.190275
-0.188792
-0.18737
-0.185827
-0.184291
-0.182568
-0.180937
-0.179272
-0.177537
-0.175779
-0.17389
-0.171915
-0.169847
-0.193379
-0.192007
-0.190596
-0.18928
-0.187797
-0.186375
-0.184833
-0.183301
-0.181581
-0.17995
-0.178276
-0.176525
-0.174677
-0.172699
-0.17069
-0.168737
-0.192137
-0.190763
-0.189335
-0.187924
-0.186512
-0.185025
-0.183559
-0.181912
-0.180343
-0.178715
-0.176921
-0.175139
-0.173305
-0.171392
-0.169398
-0.16737
-0.190619
-0.18927
-0.187862
-0.186462
-0.185044
-0.183544
-0.181921
-0.180376
-0.178702
-0.177004
-0.175293
-0.173405
-0.171529
-0.169611
-0.167672
-0.165573
-0.188583
-0.187251
-0.185972
-0.18456
-0.18311
-0.181545
-0.180068
-0.178411
-0.176817
-0.175085
-0.173373
-0.17158
-0.169602
-0.167637
-0.16561
-0.163486
-0.186279
-0.184936
-0.183556
-0.182137
-0.180807
-0.179277
-0.177725
-0.17614
-0.174472
-0.1728
-0.170919
-0.169089
-0.167083
-0.165097
-0.163051
-0.160908
-0.183526
-0.182193
-0.180806
-0.179415
-0.177908
-0.176343
-0.174874
-0.173201
-0.171493
-0.169756
-0.167912
-0.166066
-0.164035
-0.16197
-0.15991
-0.157746
-0.180433
-0.179129
-0.177757
-0.176313
-0.17479
-0.173195
-0.171591
-0.169858
-0.168114
-0.166353
-0.164487
-0.162556
-0.160509
-0.158472
-0.156337
-0.153986
-0.177511
-0.176174
-0.174797
-0.173366
-0.171864
-0.170285
-0.168627
-0.166943
-0.165142
-0.163382
-0.161521
-0.159647
-0.157539
-0.155458
-0.153188
-0.150837
-0.205005
-0.203753
-0.202388
-0.201051
-0.199612
-0.198088
-0.196635
-0.195109
-0.19353
-0.191894
-0.190253
-0.188516
-0.186865
-0.185012
-0.18313
-0.181267
-0.179192
-0.204841
-0.203579
-0.202212
-0.200883
-0.199518
-0.198089
-0.196516
-0.194965
-0.193388
-0.191825
-0.190241
-0.188522
-0.18677
-0.1849
-0.183102
-0.181159
-0.179113
-0.204729
-0.203417
-0.202087
-0.200761
-0.199309
-0.197876
-0.19641
-0.194947
-0.193371
-0.191738
-0.190045
-0.188339
-0.186523
-0.184796
-0.182936
-0.181006
-0.178986
-0.204514
-0.203204
-0.201858
-0.200442
-0.19906
-0.197651
-0.196199
-0.194685
-0.193165
-0.191534
-0.189839
-0.188123
-0.186281
-0.184436
-0.182568
-0.180613
-0.178654
-0.204127
-0.202873
-0.201507
-0.200101
-0.198623
-0.197185
-0.195721
-0.194264
-0.192692
-0.191055
-0.189349
-0.187633
-0.185806
-0.184074
-0.182207
-0.18027
-0.178243
-0.203546
-0.202239
-0.200912
-0.199591
-0.198139
-0.196705
-0.195244
-0.193729
-0.192209
-0.19058
-0.188875
-0.187151
-0.185306
-0.183468
-0.181605
-0.179653
-0.177688
-0.202817
-0.201511
-0.200151
-0.198824
-0.197442
-0.195925
-0.194434
-0.192919
-0.191351
-0.18972
-0.188023
-0.186315
-0.184495
-0.182756
-0.180815
-0.178824
-0.176853
-0.201948
-0.200601
-0.199304
-0.197892
-0.196489
-0.194959
-0.193465
-0.191953
-0.19039
-0.188766
-0.187073
-0.185364
-0.183522
-0.181675
-0.179807
-0.177857
-0.175888
-0.200719
-0.199357
-0.197975
-0.196648
-0.195283
-0.193777
-0.192306
-0.190796
-0.189242
-0.187622
-0.185931
-0.184165
-0.18238
-0.180466
-0.178547
-0.17658
-0.1745
-0.199198
-0.197896