/*--------------------------------*- C++ -*----------------------------------*\
| =========                 |                                                 |
| \\      /  F ield         | OpenFOAM: The Open Source CFD Toolbox           |
|  \\    /   O peration     | Version:  2412                                  |
|   \\  /    A nd           | Website:  www.openfoam.com                      |
|    \\/     M anipulation  |                                                 |
\*---------------------------------------------------------------------------*/
FoamFile
{
    version     2.0;
    format      ascii;
    arch        "LSB;label=32;scalar=64";
    class       volScalarField;
    location    "0.030011";
    object      Vm;
}
// * * * * * * * * * * * * * * * * * * * * * * * * * * * * * * * * * * * * * //

dimensions      [0 0 0 0 0 0 0];

internalField   nonuniform List<scalar> 
8730
(
4.62336e-07
3.73848e-07
3.00571e-07
2.40269e-07
1.90955e-07
1.50881e-07
1.1852e-07
9.25473e-08
7.18303e-08
5.54071e-08
4.24694e-08
3.23426e-08
2.44679e-08
1.83851e-08
1.37184e-08
4.52709e-07
3.66067e-07
2.94321e-07
2.35279e-07
1.86996e-07
1.4776e-07
1.16073e-07
9.06413e-08
7.0354e-08
5.42704e-08
4.15992e-08
3.16805e-08
2.39671e-08
1.80087e-08
1.34373e-08
4.33811e-07
3.50799e-07
2.82057e-07
2.25486e-07
1.79224e-07
1.41628e-07
1.11264e-07
8.68904e-08
6.74456e-08
5.20282e-08
3.98809e-08
3.03715e-08
2.29762e-08
1.72634e-08
1.28803e-08
4.06327e-07
3.2859e-07
2.64212e-07
2.11231e-07
1.67902e-07
1.32689e-07
1.04246e-07
8.14126e-08
6.31942e-08
4.8748e-08
3.73652e-08
2.84541e-08
2.15239e-08
1.61705e-08
1.20633e-08
3.71264e-07
3.00248e-07
2.41431e-07
1.93025e-07
1.53435e-07
1.21258e-07
9.52657e-08
7.43974e-08
5.77457e-08
4.45412e-08
3.4137e-08
2.59923e-08
1.96587e-08
1.47664e-08
1.10133e-08
3.30053e-07
2.66931e-07
2.14648e-07
1.71615e-07
1.36419e-07
1.07809e-07
8.46957e-08
6.61374e-08
5.13284e-08
3.95853e-08
3.03331e-08
2.30911e-08
1.746e-08
1.3111e-08
9.77524e-09
2.84689e-07
2.30247e-07
1.85151e-07
1.48031e-07
1.17669e-07
9.29858e-08
7.30433e-08
5.70298e-08
4.42514e-08
3.41193e-08
2.61375e-08
1.98908e-08
1.50345e-08
1.12848e-08
8.40952e-09
2.37594e-07
1.92153e-07
1.54512e-07
1.23527e-07
9.81814e-08
7.75754e-08
6.09259e-08
4.7557e-08
3.68899e-08
2.84333e-08
2.17729e-08
1.65618e-08
1.25117e-08
9.38562e-09
6.98949e-09
1.91343e-07
1.54736e-07
1.24413e-07
9.94506e-08
7.90294e-08
6.24262e-08
4.90114e-08
3.82411e-08
2.96497e-08
2.28408e-08
1.74801e-08
1.32875e-08
1.00307e-08
7.51827e-09
5.59375e-09
1.48448e-07
1.2002e-07
9.64739e-08
7.70916e-08
6.12362e-08
4.83472e-08
3.79362e-08
2.95808e-08
2.29187e-08
1.76417e-08
1.34895e-08
1.02443e-08
7.72521e-09
5.78353e-09
4.29769e-09
1.10874e-07
8.95996e-08
7.1981e-08
5.74821e-08
4.5626e-08
3.59931e-08
2.8217e-08
2.19808e-08
1.70123e-08
1.30801e-08
9.98883e-09
7.57527e-09
5.70396e-09
4.26344e-09
3.16266e-09
7.99203e-08
6.45302e-08
5.17916e-08
4.13155e-08
3.2756e-08
2.58081e-08
2.02053e-08
1.5717e-08
1.21454e-08
9.3224e-09
7.10625e-09
5.37865e-09
4.04151e-09
3.01412e-09
2.23062e-09
5.63345e-08
4.54246e-08
3.64038e-08
2.89943e-08
2.29485e-08
1.80481e-08
1.41026e-08
1.09471e-08
8.44049e-09
6.4631e-09
4.91409e-09
3.70934e-09
2.77918e-09
2.06637e-09
1.5243e-09
4.04762e-08
3.25783e-08
2.60581e-08
2.07114e-08
1.63565e-08
1.28334e-08
1.00026e-08
7.74355e-09
5.95335e-09
4.54473e-09
3.44433e-09
2.591e-09
1.93423e-09
1.4326e-09
1.05248e-09
3.25058e-08
2.61225e-08
2.08596e-08
1.65501e-08
1.30452e-08
1.02144e-08
7.94389e-09
6.13547e-09
4.70538e-09
3.58261e-09
2.7076e-09
2.03077e-09
1.51124e-09
1.11558e-09
8.16675e-10
2.84558e-06
2.30485e-06
1.85651e-06
1.48691e-06
1.18405e-06
9.37434e-07
7.37909e-07
5.77506e-07
4.49342e-07
3.47544e-07
2.67163e-07
2.04075e-07
1.54874e-07
1.16754e-07
8.7418e-08
2.78626e-06
2.25685e-06
1.81789e-06
1.45601e-06
1.15948e-06
9.1803e-07
7.22679e-07
5.65626e-07
4.4013e-07
3.40439e-07
2.61712e-07
1.99917e-07
1.5172e-07
1.14376e-07
8.56368e-08
2.67e-06
2.16279e-06
1.7422e-06
1.39546e-06
1.11133e-06
8.79974e-07
6.92787e-07
5.42282e-07
4.21999e-07
3.26432e-07
2.50949e-07
1.91693e-07
1.45474e-07
1.09663e-07
8.21035e-08
2.50132e-06
2.0263e-06
1.63233e-06
1.3075e-06
1.04134e-06
8.24608e-07
6.49252e-07
5.08245e-07
3.95533e-07
3.05963e-07
2.35206e-07
1.79658e-07
1.3633e-07
1.0276e-07
7.69268e-08
2.28643e-06
1.85233e-06
1.49222e-06
1.1953e-06
9.51985e-07
7.53875e-07
5.9358e-07
4.64672e-07
3.61615e-07
2.79707e-07
2.15e-07
1.64202e-07
1.24584e-07
9.38914e-08
7.02741e-08
2.03387e-06
1.64781e-06
1.32746e-06
1.06331e-06
8.46859e-07
6.70631e-07
5.28038e-07
4.13352e-07
3.21652e-07
2.48763e-07
1.91182e-07
1.45983e-07
1.10736e-07
8.34345e-08
6.24292e-08
1.75564e-06
1.4224e-06
1.14586e-06
9.1782e-07
7.30988e-07
5.78876e-07
4.55785e-07
3.56765e-07
2.77577e-07
2.14631e-07
1.64907e-07
1.25883e-07
9.54584e-08
7.18969e-08
5.37727e-08
1.4667e-06
1.18823e-06
9.57145e-07
7.66625e-07
6.10551e-07
4.8348e-07
3.80636e-07
2.9789e-07
2.31709e-07
1.79106e-07
1.37562e-07
1.04966e-07
7.95614e-08
5.98925e-08
4.47669e-08
1.18255e-06
9.5795e-07
7.71608e-07
6.17997e-07
4.92151e-07
3.89669e-07
3.06705e-07
2.39945e-07
1.86556e-07
1.44131e-07
1.10639e-07
8.43736e-08
6.39109e-08
4.80751e-08
3.59034e-08
9.18995e-07
7.44307e-07
5.9942e-07
4.79994e-07
3.82146e-07
3.02453e-07
2.37937e-07
1.86031e-07
1.44539e-07
1.11587e-07
8.55897e-08
6.52141e-08
4.935e-08
3.70817e-08
2.766e-08
6.88092e-07
5.57097e-07
4.48469e-07
3.58934e-07
2.85579e-07
2.25848e-07
1.77516e-07
1.38658e-07
1.07622e-07
8.29962e-08
6.35848e-08
4.83845e-08
3.65617e-08
2.74293e-08
2.04255e-08
4.97649e-07
4.02629e-07
3.23852e-07
2.58942e-07
2.05792e-07
1.62549e-07
1.27596e-07
9.95279e-08
7.7137e-08
5.93923e-08
4.54224e-08
3.44984e-08
2.60151e-08
1.94742e-08
1.44679e-08
3.52203e-07
2.846e-07
2.28594e-07
1.82494e-07
1.44796e-07
1.1417e-07
8.94543e-08
6.96394e-08
5.38582e-08
4.13731e-08
3.15628e-08
2.3908e-08
1.79778e-08
1.34172e-08
9.93632e-09
2.54085e-07
2.04952e-07
1.64307e-07
1.30908e-07
1.03647e-07
8.15418e-08
6.37372e-08
4.94916e-08
3.81703e-08
2.92348e-08
2.22321e-08
1.67837e-08
1.25757e-08
9.35016e-09
6.89662e-09
2.04593e-07
1.64779e-07
1.3189e-07
1.04903e-07
8.29074e-08
6.50999e-08
5.07795e-08
3.93415e-08
3.02691e-08
2.3124e-08
1.75374e-08
1.32014e-08
9.86136e-09
7.30807e-09
5.37159e-09
1.98815e-05
1.61214e-05
1.3006e-05
1.04369e-05
8.3282e-06
6.60672e-06
5.21014e-06
4.08487e-06
3.18445e-06
2.46851e-06
1.90247e-06
1.45732e-06
1.10922e-06
8.38677e-07
6.29838e-07
1.94652e-05
1.57848e-05
1.27353e-05
1.02201e-05
8.15544e-06
6.46989e-06
5.10248e-06
4.00077e-06
3.11917e-06
2.41814e-06
1.86377e-06
1.42772e-06
1.08669e-06
8.21637e-07
6.17033e-07
1.86516e-05
1.51269e-05
1.22057e-05
9.79573e-06
7.8172e-06
6.20185e-06
4.89146e-06
3.83572e-06
2.99087e-06
2.31891e-06
1.78737e-06
1.36919e-06
1.04208e-06
7.87849e-07
5.91619e-07
1.7474e-05
1.41746e-05
1.14387e-05
9.18081e-06
7.32665e-06
5.81279e-06
4.58487e-06
3.59568e-06
2.80404e-06
2.17422e-06
1.67587e-06
1.28369e-06
9.76898e-07
7.38478e-07
5.54482e-07
1.59773e-05
1.29634e-05
1.04626e-05
8.39743e-06
6.7011e-06
5.31619e-06
4.19311e-06
3.28857e-06
2.56466e-06
1.98861e-06
1.53268e-06
1.17385e-06
8.93158e-07
6.75063e-07
5.06783e-07
1.42206e-05
1.15404e-05
9.31446e-06
7.47526e-06
5.96436e-06
4.7312e-06
3.7316e-06
2.92672e-06
2.28253e-06
1.76976e-06
1.36382e-06
1.0443e-06
7.94395e-07
6.00276e-07
4.50532e-07
1.2284e-05
9.97027e-06
8.04689e-06
6.45707e-06
5.15125e-06
4.08598e-06
3.22287e-06
2.52791e-06
1.97149e-06
1.5284e-06
1.17751e-06
9.01353e-07
6.85432e-07
5.1777e-07
3.8847e-07
1.02741e-05
8.33847e-06
6.72844e-06
5.39783e-06
4.30565e-06
3.41525e-06
2.69399e-06
2.1131e-06
1.64778e-06
1.27709e-06
9.83524e-07
7.52543e-07
5.72032e-07
4.31924e-07
3.239e-07
8.29399e-06
6.73011e-06
5.42951e-06
4.35527e-06
3.47401e-06
2.75574e-06
2.17374e-06
1.70471e-06
1.32883e-06
1.02936e-06
7.92284e-07
6.05869e-07
4.60281e-07
3.47332e-07
2.60274e-07
6.4563e-06
5.23685e-06
4.22361e-06
3.38747e-06
2.70187e-06
2.14297e-06
1.68984e-06
1.32451e-06
1.03173e-06
7.98586e-07
6.14174e-07
4.69295e-07
3.56227e-07
2.68555e-07
2.01018e-07
4.8442e-06
3.92754e-06
3.16669e-06
2.53911e-06
2.02444e-06
1.60471e-06
1.26434e-06
9.9e-07
7.70321e-07
5.95591e-07
4.5755e-07
3.49209e-07
2.64726e-07
1.99275e-07
1.48912e-07
3.51258e-06
2.84645e-06
2.29377e-06
1.83786e-06
1.4639e-06
1.15898e-06
9.11903e-07
7.13012e-07
5.53991e-07
4.27697e-07
3.2805e-07
2.49933e-07
1.89093e-07
1.42032e-07
1.0589e-07
2.49404e-06
2.01915e-06
1.62518e-06
1.30028e-06
1.03398e-06
8.17139e-07
6.41742e-07
5.00827e-07
3.88366e-07
2.99194e-07
2.28947e-07
1.73975e-07
1.31254e-07
9.82924e-08
7.30501e-08
1.80537e-06
1.45921e-06
1.17229e-06
9.36e-07
7.42716e-07
5.85675e-07
4.58934e-07
3.57316e-07
2.76369e-07
2.12311e-07
1.61961e-07
1.22664e-07
9.2218e-08
6.88046e-08
5.09352e-08
1.45676e-06
1.17563e-06
9.42911e-07
7.51586e-07
5.95358e-07
4.6864e-07
3.66528e-07
2.84776e-07
2.19756e-07
1.68398e-07
1.28119e-07
9.676e-08
7.25277e-08
5.39429e-08
3.97983e-08
0.000139497
0.000113061
9.12298e-05
7.33026e-05
5.86262e-05
4.66378e-05
3.68762e-05
2.89708e-05
2.26191e-05
1.75601e-05
1.3561e-05
1.04161e-05
7.95333e-06
6.03322e-06
4.54494e-06
0.000136533
0.00011067
8.93173e-05
7.17783e-05
5.74139e-05
4.56758e-05
3.61156e-05
2.83739e-05
2.21541e-05
1.72009e-05
1.3285e-05
1.02048e-05
7.79197e-06
5.91058e-06
4.45234e-06
0.000130783
0.000106027
8.55923e-05
6.88022e-05
5.50423e-05
4.37907e-05
3.46241e-05
2.72016e-05
2.12406e-05
1.64944e-05
1.27413e-05
9.78766e-06
7.47296e-06
5.66775e-06
4.26878e-06
0.000122467
9.93229e-05
8.02154e-05
6.45035e-05
5.16127e-05
4.10616e-05
3.24629e-05
2.55022e-05
1.99154e-05
1.54684e-05
1.19504e-05
9.18023e-06
7.0082e-06
5.31409e-06
4.00159e-06
0.000111927
9.08289e-05
7.3399e-05
5.9044e-05
4.72468e-05
3.75803e-05
2.97013e-05
2.33283e-05
1.82184e-05
1.41525e-05
1.09349e-05
8.39975e-06
6.4112e-06
4.86019e-06
3.65896e-06
9.96097e-05
8.08923e-05
6.54034e-05
5.26206e-05
4.20967e-05
3.3468e-05
2.64406e-05
2.07643e-05
1.62183e-05
1.26013e-05
9.73711e-06
7.47861e-06
5.70633e-06
4.3243e-06
3.25463e-06
8.60378e-05
6.99317e-05
5.65693e-05
4.55121e-05
3.63943e-05
2.89198e-05
2.28412e-05
1.79397e-05
1.40164e-05
1.08926e-05
8.41634e-06
6.4621e-06
4.92843e-06
3.73317e-06
2.8088e-06
7.20215e-05
5.85744e-05
4.73818e-05
3.8101e-05
3.04484e-05
2.41845e-05
1.91006e-05
1.50064e-05
1.17281e-05
9.11472e-06
7.04054e-06
5.40289e-06
4.1183e-06
3.11813e-06
2.34521e-06
5.82279e-05
4.73651e-05
3.83002e-05
3.07792e-05
2.45843e-05
1.95246e-05
1.54246e-05
1.2122e-05
9.47409e-06
7.36035e-06
5.68159e-06
4.3567e-06
3.31867e-06
2.51145e-06
1.88801e-06
4.54472e-05
3.69425e-05
2.9844e-05
2.39651e-05
1.91367e-05
1.52012e-05
1.20119e-05
9.43931e-06
7.37357e-06
5.72335e-06
4.4134e-06
3.38106e-06
2.57355e-06
1.9462e-06
1.46181e-06
3.41968e-05
2.77651e-05
2.24109e-05
1.79904e-05
1.43666e-05
1.14121e-05
9.01431e-06
7.07757e-06
5.52173e-06
4.28e-06
3.29618e-06
2.52243e-06
1.91797e-06
1.44865e-06
1.08643e-06
2.48559e-05
2.01621e-05
1.62676e-05
1.30568e-05
1.04231e-05
8.27287e-06
6.52612e-06
5.11547e-06
3.98399e-06
3.08311e-06
2.37101e-06
1.81181e-06
1.37531e-06
1.03665e-06
7.7563e-07
1.7685e-05
1.43387e-05
1.15634e-05
9.2731e-06
7.39242e-06
5.85648e-06
4.61009e-06
3.6059e-06
2.80279e-06
2.16495e-06
1.66158e-06
1.26673e-06
9.58925e-07
7.206e-07
5.37423e-07
1.28346e-05
1.03952e-05
8.37049e-06
6.69915e-06
5.32793e-06
4.21064e-06
3.30679e-06
2.58083e-06
2.0016e-06
1.54229e-06
1.18032e-06
8.96895e-07
6.76543e-07
5.06509e-07
3.76309e-07
1.03743e-05
8.39107e-06
6.74526e-06
5.38827e-06
4.27728e-06
3.37428e-06
2.64548e-06
2.06108e-06
1.5953e-06
1.22635e-06
9.3604e-07
7.09245e-07
5.3341e-07
3.98132e-07
2.94843e-07
0.000985161
0.000797552
0.000641472
0.000514078
0.000411006
0.000327796
0.00026037
0.00020549
0.000160913
0.000125032
9.65914e-05
7.42902e-05
5.68863e-05
4.33241e-05
3.27705e-05
0.000963792
0.000780153
0.000627622
0.000503179
0.000402477
0.000321107
0.000255088
0.000201314
0.000157603
0.00012245
9.46054e-05
7.27726e-05
5.57291e-05
4.24424e-05
3.21007e-05
0.000923395
0.000746867
0.00060094
0.000482059
0.000385846
0.000307984
0.000244677
0.000193032
0.000151077
0.000117377
9.07101e-05
6.97954e-05
5.34546e-05
4.07037e-05
3.07755e-05
0.000864038
0.000698668
0.00056249
0.000451684
0.000361922
0.000289068
0.00022964
0.000181079
0.000141649
0.000110052
8.50771e-05
6.54817e-05
5.0154e-05
3.81807e-05
2.88553e-05
0.000788465
0.000637745
0.000514065
0.000413424
0.00033167
0.000265002
0.000210395
0.000165734
0.000129553
0.00010066
7.78516e-05
5.99474e-05
4.59221e-05
3.49504e-05
2.64006e-05
0.000700489
0.000567081
0.000457794
0.000368744
0.000296068
0.000236475
0.000187543
0.000147552
0.000115279
8.9603e-05
6.93459e-05
5.34207e-05
4.09175e-05
3.11229e-05
2.3494e-05
0.000603288
0.000489318
0.00039592
0.000319456
0.000256592
0.000204744
0.000162137
0.000127432
9.95775e-05
7.74617e-05
5.99955e-05
4.62289e-05
3.53932e-05
2.68983e-05
2.02901e-05
0.00050391
0.000409739
0.000332212
0.000268248
0.000215301
0.000171515
0.000135597
0.000106541
8.33206e-05
6.48808e-05
5.02782e-05
3.87316e-05
2.96279e-05
2.24952e-05
1.69593e-05
0.000407019
0.000331896
0.000269482
0.000217498
0.000174248
0.000138535
0.000109451
8.60586e-05
6.73747e-05
5.24999e-05
4.06763e-05
3.13027e-05
2.39138e-05
1.81401e-05
1.36716e-05
0.000318635
0.000260077
0.000210931
0.000169823
0.000135727
0.000107819
8.52422e-05
6.70995e-05
5.25684e-05
4.09509e-05
3.16884e-05
2.43451e-05
1.85733e-05
1.40799e-05
1.06079e-05
0.000241114
0.000196446
0.000158877
0.000127596
0.000101899
8.10005e-05
6.41018e-05
5.04794e-05
3.95206e-05
3.07332e-05
2.37309e-05
1.81998e-05
1.38713e-05
1.05085e-05
7.90985e-06
0.00017617
0.000143037
0.000115407
9.2646e-05
7.404e-05
5.88979e-05
4.66071e-05
3.66556e-05
2.86321e-05
2.22093e-05
1.71146e-05
1.31092e-05
9.98119e-06
7.55089e-06
5.67189e-06
0.000125486
0.000101744
8.2106e-05
6.59565e-05
5.27218e-05
4.19021e-05
3.30862e-05
2.59452e-05
2.02072e-05
1.56396e-05
1.20328e-05
9.20209e-06
6.99145e-06
5.27392e-06
3.94791e-06
9.10546e-05
7.38407e-05
5.95912e-05
4.78322e-05
3.81593e-05
3.024e-05
2.38007e-05
1.86107e-05
1.44643e-05
1.1175e-05
8.58005e-06
6.54334e-06
4.95383e-06
3.7219e-06
2.77477e-06
7.36076e-05
5.96821e-05
4.81211e-05
3.85563e-05
3.06855e-05
2.42563e-05
1.90517e-05
1.48749e-05
1.1545e-05
8.90426e-06
6.82079e-06
5.1866e-06
3.91401e-06
2.9312e-06
2.17853e-06
0.00693119
0.00570775
0.00458371
0.00364431
0.00288446
0.00228544
0.00181798
0.00144705
0.00114502
0.00089497
0.00069093
0.000530072
0.000405489
0.000309627
0.00023556
0.00678397
0.00558119
0.00448044
0.00356237
0.00282133
0.00223804
0.00178216
0.00141916
0.00112214
0.000876324
0.000676312
0.000518904
0.000397086
0.000303315
0.000230783
0.00654682
0.00534616
0.00428381
0.00340528
0.00269971
0.0021453
0.00171077
0.00136246
0.00107688
0.00083976
0.000647921
0.000497287
0.000380748
0.000290927
0.000221299
0.00616854
0.00499692
0.00399826
0.00317941
0.00252594
0.0020133
0.00160891
0.00128142
0.00101133
0.000787089
0.000607111
0.000466209
0.000357231
0.00027307
0.000207636
0.00563674
0.00454979
0.00363824
0.00289759
0.0023099
0.00184791
0.00147901
0.00117654
0.000925901
0.000719227
0.000554796
0.00042654
0.000327325
0.000250403
0.000190296
0.00500895
0.00403065
0.00322249
0.00257333
0.00206044
0.00165411
0.00132473
0.00105157
0.000823904
0.000639137
0.000493386
0.000379953
0.000291979
0.000223376
0.000169561
0.00429458
0.00345216
0.0027668
0.00222136
0.00178873
0.00143945
0.00115124
0.000909953
0.000710515
0.000551229
0.000426304
0.000329054
0.000253181
0.000193565
0.000146649
0.00356046
0.00286735
0.00231039
0.00186735
0.00151014
0.0012147
0.000966985
0.000760155
0.000592977
0.000460777
0.000357296
0.00027638
0.000212699
0.000162342
0.000122716
0.0028445
0.00230649
0.00187491
0.00152455
0.00123327
0.000987531
0.000780818
0.00061242
0.000478323
0.00037274
0.000289798
0.000224301
0.000172306
0.000131125
9.89662e-05
0.00221314
0.00181071
0.00147993
0.00120243
0.000967316
0.000768808
0.000606329
0.00047618
0.000373072
0.000291594
0.000226901
0.000175274
0.000134151
0.000101838
7.68339e-05
0.00168259
0.00138253
0.00112769
0.000909974
0.000726148
0.000575699
0.000454707
0.000358286
0.000281538
0.000220138
0.000170844
0.000131407
0.000100283
7.60763e-05
5.74163e-05
0.00124686
0.00101921
0.000823313
0.000659614
0.000525799
0.000417798
0.000331158
0.000261583
0.000205425
0.000160047
0.000123606
9.47799e-05
7.22736e-05
5.48331e-05
4.13643e-05
0.000895435
0.000725175
0.000583744
0.000468043
0.000374235
0.000298341
0.000236731
0.000186563
0.000145781
0.000112987
8.70132e-05
6.66629e-05
5.08127e-05
3.84997e-05
2.89553e-05
0.000647391
0.000523805
0.000422421
0.000339676
0.000272106
0.000216728
0.00017129
0.000134238
0.00010443
8.07744e-05
6.2159e-05
4.75762e-05
3.61801e-05
2.73025e-05
2.04304e-05
0.000520604
0.000422058
0.000341162
0.000274615
0.00021968
0.000174333
0.000137178
0.000107178
8.3277e-05
6.43828e-05
4.9505e-05
3.78143e-05
2.8658e-05
2.15375e-05
1.60568e-05
0.0486093
0.040802
0.0334967
0.026826
0.0209794
0.0161629
0.0125156
0.00990469
0.00796623
0.00640098
0.0050088
0.00383122
0.00290292
0.00219866
0.00167482
0.0477172
0.0400026
0.0327859
0.0262051
0.0204669
0.0157834
0.0122503
0.00971813
0.00781848
0.00629852
0.00490014
0.00374542
0.00283876
0.00215219
0.00164138
0.0461101
0.0385102
0.0314204
0.0250174
0.0194949
0.015035
0.0117216
0.00934471
0.00753848
0.00604888
0.00469274
0.00358239
0.0027154
0.00206164
0.00157428
0.0436449
0.0362433
0.029386
0.0232709
0.0180858
0.0139889
0.0109938
0.00882179
0.00713611
0.00568516
0.0043943
0.00335001
0.00254086
0.00193347
0.00147894
0.0403325
0.0332332
0.026745
0.0210503
0.0163314
0.0127183
0.010102
0.00815184
0.00659924
0.00520466
0.00400765
0.00305372
0.00232205
0.00177444
0.00136034
0.0363218
0.0296072
0.0235806
0.0184482
0.0143451
0.0113038
0.00909445
0.00737209
0.00593557
0.00462476
0.00354937
0.00270553
0.00206547
0.00158564
0.00121722
0.0314574
0.02531
0.0199589
0.0155877
0.0122556
0.0098298
0.00799155
0.0064891
0.00513603
0.00397486
0.00304659
0.00233047
0.00179092
0.00138078
0.00105897
0.0261581
0.020787
0.0163065
0.0128367
0.0102952
0.00838495
0.00683439
0.00548426
0.00427946
0.00330023
0.00253428
0.00195229
0.00151135
0.00116766
0.000890949
0.0205783
0.016259
0.0128857
0.0103896
0.0085049
0.00697183
0.00563029
0.00442097
0.00342879
0.00264584
0.00204556
0.00158957
0.0012349
0.000950155
0.000719442
0.0155102
0.012404
0.0100874
0.00830503
0.00683595
0.00554494
0.00437638
0.00341263
0.00264767
0.00205763
0.00160687
0.00125483
0.000970785
0.000739683
0.000557576
0.0114736
0.00945012
0.00783744
0.00648465
0.00524259
0.00414934
0.00325135
0.00253794
0.00198557
0.00155967
0.0012236
0.000951016
0.000727975
0.000551692
0.000415805
0.00859729
0.0071832
0.005927
0.00476398
0.00378017
0.0029771
0.00234066
0.00184604
0.00145952
0.00114987
0.000895585
0.000687886
0.000523823
0.000397014
0.000300108
0.00639828
0.00523856
0.00420876
0.00334947
0.00265415
0.00210513
0.00167476
0.00133192
0.00105167
0.000819468
0.00063107
0.000482664
0.000367797
0.000279555
0.000211576
0.00467191
0.00375865
0.0030046
0.00239822
0.00191872
0.00153766
0.00122762
0.000970441
0.000756844
0.000584705
0.000449263
0.000344125
0.000262816
0.00019964
0.000150298
0.00371811
0.00298668
0.00239856
0.00193137
0.00155657
0.00124835
0.000990409
0.000775066
0.000601092
0.000463897
0.000357036
0.000273983
0.000209036
0.000158046
0.000118241
0.318722
0.28295
0.249599
0.213521
0.174681
0.13489
0.0984418
0.07162
0.0556451
0.0452904
0.0364637
0.0284789
0.0215203
0.0158796
0.0117423
0.313055
0.279496
0.246091
0.2097
0.17078
0.131497
0.095592
0.0698495
0.0545962
0.0444769
0.0357291
0.0278372
0.0210055
0.0154888
0.0114813
0.305659
0.273008
0.239051
0.202385
0.163374
0.12415
0.0899717
0.0664547
0.0526288
0.0429405
0.0343589
0.0266283
0.0200021
0.0147444
0.0109778
0.295019
0.262719
0.228111
0.190932
0.151914
0.113641
0.0823027
0.06203
0.0499291
0.040703
0.0323656
0.0249079
0.0186054
0.0137112
0.0102801
0.280847
0.248221
0.212981
0.175184
0.136391
0.100448
0.0733612
0.0569312
0.0464776
0.0376863
0.0296936
0.0226577
0.0168364
0.0124611
0.00945645
0.263084
0.229198
0.19275
0.154783
0.11728
0.0853711
0.0641733
0.0515252
0.0422414
0.0339035
0.0263824
0.0199062
0.0147457
0.0110315
0.00849422
0.239033
0.203725
0.166357
0.129159
0.0952569
0.0705745
0.0556463
0.0457419
0.0372046
0.0294215
0.0225646
0.0168722
0.0125635
0.00958015
0.00747691
0.209411
0.173054
0.135914
0.101258
0.0749448
0.0584561
0.0480031
0.0393962
0.0315257
0.0244863
0.0185051
0.0138181
0.010486
0.00817625
0.00642707
0.17138
0.135406
0.101704
0.0757143
0.0592883
0.0488323
0.040309
0.032481
0.0254304
0.0193863
0.0145475
0.0110367
0.00860324
0.0068174
0.0052731
0.128568
0.096774
0.0729185
0.0578804
0.0480359
0.0397979
0.0321987
0.0253217
0.019403
0.0146412
0.0111583
0.00872986
0.0069199
0.00540936
0.00409504
0.0867792
0.0670356
0.0545807
0.045724
0.0378809
0.0306213
0.0240946
0.018505
0.0140541
0.0108069
0.00851946
0.00681467
0.00532553
0.00404914
0.00303296
0.0599633
0.050129
0.0421536
0.0347894
0.0280131
0.0219875
0.0169111
0.0129547
0.0101016
0.00804648
0.00644606
0.00503944
0.0038416
0.00289122
0.00216726
0.0452546
0.0379107
0.0310572
0.0248239
0.0194068
0.0149891
0.0116472
0.00923825
0.0074274
0.00595868
0.00462774
0.00353123
0.00266896
0.00201516
0.00152891
0.0342871
0.027886
0.0221653
0.0173114
0.0134709
0.0106372
0.00855701
0.00692324
0.00552579
0.00428407
0.00327393
0.00248596
0.00189054
0.00144409
0.00110036
0.0275487
0.0219243
0.0171867
0.0134665
0.0107243
0.00868789
0.00706248
0.00565299
0.0043933
0.00336826
0.00256793
0.00196229
0.00150608
0.00115336
0.000871829
1.38155
1.38593
1.38541
1.37438
1.33109
1.21629
0.969675
0.627006
0.39156
0.30292
0.262952
0.222612
0.178993
0.134263
0.0931876
1.38118
1.38561
1.38596
1.37112
1.32418
1.20538
0.939634
0.602548
0.37851
0.298856
0.259339
0.218901
0.175398
0.130517
0.090114
1.38347
1.3867
1.38368
1.36696
1.30984
1.16323
0.878416
0.547927
0.356034
0.291702
0.252768
0.211621
0.167728
0.123512
0.0849518
1.38505
1.38676
1.38045
1.35625
1.28107
1.09643
0.782282
0.480259
0.330808
0.281789
0.243035
0.201244
0.156997
0.113337
0.0775939
1.38545
1.38483
1.3743
1.33324
1.22476
0.991488
0.654026
0.406457
0.308362
0.268396
0.229183
0.186809
0.142367
0.100375
0.069381
1.38657
1.38007
1.35562
1.29073
1.12419
0.81878
0.512717
0.344594
0.288513
0.250692
0.210388
0.16703
0.123375
0.0852462
0.0606279
1.38237
1.36402
1.31292
1.19171
0.934197
0.607872
0.389073
0.304317
0.26602
0.227574
0.18608
0.14258
0.101317
0.0703744
0.0527444
1.3709
1.32776
1.21988
0.990579
0.675991
0.42613
0.316243
0.27577
0.238679
0.198684
0.156142
0.114198
0.0793724
0.0579032
0.0456185
1.32465
1.21798
0.994718
0.682069
0.437056
0.321689
0.279767
0.243385
0.204428
0.163123
0.121307
0.0850461
0.0613329
0.0480336
0.0382779
1.19066
0.952262
0.64504
0.417689
0.316454
0.27768
0.242184
0.203862
0.163301
0.122245
0.0863
0.0623607
0.0488347
0.0390956
0.0305133
0.836094
0.553805
0.375528
0.304173
0.269143
0.233935
0.196061
0.156028
0.116478
0.0825336
0.0605934
0.0479775
0.038562
0.0301891
0.0228167
0.44655
0.330755
0.288035
0.254922
0.219833
0.182058
0.14279
0.105204
0.0752409
0.0568137
0.045684
0.0367502
0.0287481
0.0217372
0.0159619
0.302526
0.269838
0.236606
0.20079
0.163009
0.125284
0.0911499
0.0667861
0.0523269
0.0425337
0.0340845
0.0265105
0.0199754
0.0147024
0.0108636
0.2541
0.220344
0.184048
0.146321
0.109817
0.0800487
0.0607185
0.0489464
0.0399266
0.0318361
0.0246043
0.0184657
0.0136389
0.0102056
0.00783735
0.219228
0.182848
0.145109
0.108928
0.0799419
0.0612962
0.0497918
0.0407912
0.0326051
0.0252585
0.0189957
0.0140781
0.0105808
0.00817221
0.00639618
1.36996
1.37662
1.38264
1.38534
1.38472
1.38151
1.37585
1.37527
1.38049
1.38561
1.38786
1.37767
1.33349
1.21325
0.924311
1.37024
1.37772
1.38272
1.38514
1.38532
1.38115
1.37647
1.37487
1.37999
1.38486
1.38649
1.37527
1.3295
1.19399
0.88679
1.3721
1.37829
1.38373
1.38568
1.38407
1.38004
1.3748
1.37552
1.38003
1.38603
1.38585
1.36805
1.31297
1.16115
0.829826
1.37399
1.37935
1.38315
1.38529
1.38296
1.37849
1.37426
1.37681
1.38199
1.38709
1.38436
1.35993
1.28857
1.09824
0.732831
1.37578
1.38075
1.38468
1.38469
1.38189
1.37614
1.37344
1.37833
1.38531
1.38707
1.38002
1.34622
1.24289
0.991917
0.611787
1.37935
1.38313
1.38545
1.38341
1.37812
1.3747
1.3754
1.3818
1.38618
1.38595
1.36995
1.3116
1.15947
0.832395
0.477719
1.38145
1.3834
1.38349
1.37939
1.37404
1.37401
1.37805
1.38474
1.38619
1.37894
1.34537
1.24396
1.0011
0.626413
0.368095
1.38421
1.38343
1.37969
1.37562
1.37326
1.37613
1.38297
1.38607
1.38296
1.36049
1.28726
1.10502
0.757894
0.435635
0.306964
1.38289
1.3794
1.37579
1.37368
1.37652
1.38336
1.38656
1.38267
1.36466
1.30623
1.14737
0.829151
0.48482
0.322032
0.270836
1.37904
1.37419
1.373
1.37807
1.38358
1.38668
1.38446
1.36429
1.30689
1.1537
0.845895
0.501266
0.328146
0.274313
0.232871
1.37253
1.37339
1.37974
1.38515
1.38676
1.38023
1.35676
1.28724
1.12169
0.795818
0.47462
0.321316
0.271937
0.23116
0.187849
1.37624
1.38153
1.38564
1.38518
1.37578
1.33941
1.24618
1.03819
0.695814
0.418535
0.306666
0.263585
0.223571
0.180758
0.136267
1.38571
1.38779
1.38246
1.36093
1.30408
1.17293
0.898361
0.565998
0.361127
0.290684
0.251071
0.210973
0.168322
0.124779
0.0858783
1.39102
1.38187
1.35023
1.26664
1.07305
0.755988
0.470763
0.328033
0.27921
0.240833
0.200061
0.157056
0.1142
0.0785516
0.0564761
1.38425
1.35395
1.26981
1.06994
0.750277
0.469674
0.331419
0.283529
0.245505
0.204718
0.161136
0.11776
0.0812689
0.0585484
0.0456598
1.28327
1.29255
1.30246
1.31171
1.32096
1.33105
1.34124
1.35063
1.36062
1.36953
1.37837
1.38588
1.39099
1.39242
1.38939
1.38378
1.28356
1.2928
1.30276
1.31225
1.32217
1.33157
1.34152
1.35095
1.36117
1.37109
1.37978
1.38588
1.3904
1.39143
1.38779
1.38215
1.28549
1.29473
1.30402
1.31395
1.32335
1.33325
1.34265
1.35289
1.36305
1.37174
1.38019
1.3871
1.39132
1.39178
1.38779
1.38268
1.28832
1.29751
1.30673
1.31661
1.32603
1.33597
1.3454
1.35563
1.36569
1.37411
1.38216
1.3885
1.39176
1.39064
1.38392
1.37903
1.29209
1.30118
1.31102
1.32044
1.33033
1.33969
1.34961
1.35892
1.36877
1.37766
1.38415
1.38938
1.39148
1.38911
1.38357
1.38126
1.2975
1.30661
1.31637
1.32542
1.33445
1.34424
1.35361
1.36359
1.37302
1.38036
1.3869
1.39097
1.39085
1.38511
1.37949
1.37992
1.30343
1.31236
1.3221
1.33136
1.34117
1.35045
1.36027
1.36899
1.37747
1.38374
1.38888
1.39105
1.38893
1.38329
1.37894
1.38235
1.31169
1.32053
1.33009
1.33897
1.34799
1.35771
1.36647
1.37523
1.382
1.38775
1.39069
1.38854
1.38382
1.3799
1.38213
1.38768
1.32043
1.32996
1.33889
1.34785
1.3575
1.36606
1.37392
1.38171
1.3877
1.39011
1.38969
1.38416
1.37948
1.38056
1.38615
1.38862
1.33099
1.33971
1.34929
1.35811
1.36666
1.37526
1.38196
1.38775
1.39004
1.38977
1.38456
1.37998
1.38077
1.3859
1.38694
1.37919
1.3443
1.35265
1.36095
1.3691
1.37732
1.38338
1.38755
1.39014
1.3883
1.38401
1.37855
1.3801
1.38585
1.38842
1.37829
1.34336
1.35808
1.36602
1.37333
1.37977
1.3852
1.38964
1.39039
1.38852
1.38258
1.37824
1.38132
1.3869
1.38667
1.37593
1.3344
1.2163
1.37118
1.37801
1.38371
1.38804
1.39107
1.39008
1.38588
1.38174
1.38003
1.38305
1.38778
1.38497
1.36864
1.31416
1.16539
0.848083
1.38245
1.38746
1.39051
1.39088
1.38815
1.38407
1.38015
1.3814
1.38752
1.39051
1.38726
1.36323
1.29369
1.10603
0.754256
0.42945
1.38742
1.39045
1.391
1.38934
1.38387
1.37997
1.38169
1.38844
1.39217
1.38903
1.37056
1.30614
1.13539
0.787912
0.449571
0.30965
1.20525
1.21368
1.22281
1.23204
1.24202
1.25236
1.2625
1.2733
1.28453
1.29592
1.30738
1.31878
1.33002
1.34106
1.35191
1.36259
1.20592
1.2147
1.22365
1.23319
1.2428
1.25311
1.26365
1.27396
1.285
1.29631
1.30764
1.31888
1.33001
1.34097
1.35176
1.36245
1.20763
1.21612
1.22531
1.23464
1.24469
1.25506
1.26517
1.27599
1.2871
1.29806
1.30834
1.3192
1.33017
1.34108
1.35198
1.36308
1.21014
1.2187
1.22796
1.23735
1.24746
1.25789
1.26802
1.27886
1.28997
1.30091
1.31114
1.32193
1.33279
1.34354
1.35421
1.36498
1.21357
1.22255
1.23165
1.24134
1.25109
1.26153
1.27214
1.28241
1.29335
1.3045
1.31561
1.32662
1.33726
1.34702
1.35777
1.36947
1.21851
1.22758
1.23659
1.24589
1.256
1.26645
1.27657
1.28733
1.29815
1.30834
1.3191
1.33
1.34079
1.35139
1.36199
1.37235
1.22412
1.23333
1.2426
1.25246
1.26224
1.27257
1.28264
1.29338
1.30433
1.31501
1.32498
1.33555
1.34624
1.35687
1.3673
1.37716
1.23188
1.24118
1.25038
1.25987
1.27016
1.28072
1.29081
1.30153
1.31222
1.32218
1.33272
1.34339
1.35411
1.36479
1.37504
1.38421
1.24119
1.25031
1.2596
1.26959
1.27941
1.28974
1.29966
1.31023
1.32075
1.33049
1.34091
1.35146
1.36208
1.37247
1.38198
1.38986
1.25225
1.26149
1.2709
1.28097
1.29075
1.30103
1.31076
1.32093
1.33051
1.34078
1.3512
1.36145
1.37054
1.37962
1.38744
1.39309
1.26523
1.275
1.28434
1.29378
1.30388
1.31346
1.32346
1.33288
1.34271
1.35199
1.36212
1.37221
1.38119
1.38773
1.3929
1.39508
1.27967
1.28946
1.29873
1.30801
1.31787
1.32702
1.33612
1.34607
1.35604
1.36513
1.37477
1.38349
1.38965
1.39452
1.39632
1.39375
1.29564
1.30456
1.31365
1.32336
1.33238
1.34125
1.35088
1.35996
1.36949
1.37779
1.38598
1.39243
1.39537
1.39589
1.39233
1.38697
1.3099
1.31887
1.32852
1.3374
1.34597
1.35474
1.36438
1.3731
1.38187
1.38873
1.39469
1.39771
1.39584
1.39098
1.38664
1.38773
1.32012
1.32878
1.3377
1.34742
1.35631
1.36516
1.37461
1.38253
1.38925
1.39535
1.39877
1.39694
1.39175
1.38533
1.38665
1.39216
1.14477
1.15135
1.1584
1.16567
1.17358
1.182
1.19073
1.19957
1.20913
1.21923
1.22976
1.24068
1.25199
1.26376
1.27629
1.28844
1.14544
1.1519
1.15898
1.16646
1.17416
1.18253
1.19144
1.2008
1.21064
1.2209
1.23154
1.24248
1.2537
1.26518
1.27693
1.28888
1.14652
1.15319
1.16031
1.16765
1.17561
1.18397
1.19247
1.2017
1.21146
1.22163
1.23214
1.24301
1.25422
1.2658
1.27782
1.29065
1.14833
1.15509
1.1623
1.16971
1.17777
1.18623
1.19478
1.20402
1.21382
1.22404
1.23461
1.24555
1.25683
1.26847
1.28055
1.29335
1.15097
1.15764
1.16486
1.17234
1.18048
1.18911
1.19804
1.20704
1.21678
1.22705
1.23774
1.24878
1.26017
1.27198
1.28461
1.2969
1.15464
1.16146
1.16882
1.1764
1.18465
1.19333
1.20209
1.21153
1.22151
1.23192
1.2427
1.25382
1.26521
1.27684
1.28871
1.30085
1.15894
1.16596
1.17361
1.18167
1.18986
1.19869
1.20785
1.21713
1.22716