Label X Y Z
P1 0.0 0.0 0.007
P2 0.0 0.0 0.0
P3 0.019999 0.0 0.007
P4 0.019999 0.0 0.0
P5 0.0 0.003 0.007
P6 0.0 0.003 0.0
P7 0.019999 0.003 0.007
P8 0.019999 0.003 0.0
P9 0.01 0.0015 0.0035
