/*--------------------------------*- C++ -*----------------------------------*\
| =========                 |                                                 |
| \\      /  F ield         | OpenFOAM: The Open Source CFD Toolbox           |
|  \\    /   O peration     | Version:  2412                                  |
|   \\  /    A nd           | Website:  www.openfoam.com                      |
|    \\/     M anipulation  |                                                 |
\*---------------------------------------------------------------------------*/
FoamFile
{
    version     2.0;
    format      ascii;
    arch        "LSB;label=32;scalar=64";
    class       volScalarField;
    location    "0.0250162";
    object      ionicCurrent;
}
// * * * * * * * * * * * * * * * * * * * * * * * * * * * * * * * * * * * * * //

dimensions      [1 2 -4 0 0 -1 0];

internalField   nonuniform List<scalar> 
8835
(
1.97676e-13
1.29744e-13
8.43639e-14
5.39022e-14
3.40222e-14
2.11159e-14
1.28586e-14
8.00138e-15
4.7401e-15
2.72782e-15
1.65229e-15
7.15539e-16
4.37983e-16
1.95122e-16
2.16493e-17
-1.30451e-17
-1.30451e-17
-1.30451e-17
1.93374e-13
1.27038e-13
8.24904e-14
5.26532e-14
3.31549e-14
2.06996e-14
1.26851e-14
7.8279e-15
4.7054e-15
2.51965e-15
1.09718e-15
3.68594e-16
-8.24341e-17
-1.30451e-17
-1.30451e-17
-1.30451e-17
-1.30451e-17
-1.30451e-17
1.84249e-13
1.20654e-13
7.79801e-14
4.97041e-14
3.13161e-14
1.95199e-14
1.19912e-14
7.27279e-15
4.1156e-15
2.03393e-15
9.93094e-16
6.11455e-16
2.29816e-16
2.16493e-17
1.25733e-16
-1.30451e-17
-1.30451e-17
-1.30451e-17
1.71065e-13
1.12154e-13
7.28453e-14
4.65469e-14
2.94079e-14
1.83056e-14
1.12627e-14
6.71768e-15
3.94212e-15
2.2421e-15
1.06248e-15
5.07372e-16
5.63438e-17
9.10383e-17
1.25733e-16
9.10383e-17
2.29816e-16
2.16493e-17
1.53822e-13
1.00878e-13
6.51779e-14
4.1655e-14
2.64588e-14
1.65015e-14
1.02218e-14
6.05849e-15
3.31762e-15
1.72168e-15
7.84928e-16
5.42066e-16
9.10383e-17
2.16493e-17
9.10383e-17
-1.30451e-17
-1.30451e-17
-1.30451e-17
1.33769e-13
8.76252e-14
5.65389e-14
3.58957e-14
2.25384e-14
1.39688e-14
8.76466e-15
5.22582e-15
2.79721e-15
1.34004e-15
5.07372e-16
9.10383e-17
9.10383e-17
2.16493e-17
2.16493e-17
5.63438e-17
2.16493e-17
-1.30451e-17
1.11946e-13
7.34698e-14
4.75878e-14
3.02752e-14
1.91036e-14
1.19565e-14
7.27279e-15
4.49724e-15
2.58904e-15
1.16657e-15
4.72677e-16
9.10383e-17
9.10383e-17
9.10383e-17
-1.30451e-17
-1.30451e-17
2.16493e-17
-1.30451e-17
8.89783e-14
5.82043e-14
3.74917e-14
2.40996e-14
1.51831e-14
9.14629e-15
5.26051e-15
3.07476e-15
1.86046e-15
7.84928e-16
1.60427e-16
2.16493e-17
9.10383e-17
2.29816e-16
-1.30451e-17
-1.30451e-17
-1.30451e-17
-4.77396e-17
6.67044e-14
4.34938e-14
2.78466e-14
1.75077e-14
1.07422e-14
6.54421e-15
3.83804e-15
2.10332e-15
9.584e-16
3.68594e-16
9.10383e-17
-1.30451e-17
-1.30451e-17
2.16493e-17
-1.30451e-17
5.63438e-17
2.16493e-17
-1.30451e-17
4.68592e-14
3.03099e-14
1.95199e-14
1.24423e-14
7.44627e-15
4.46254e-15
2.55435e-15
1.09718e-15
4.37983e-16
9.10383e-17
2.16493e-17
-1.30451e-17
-1.51823e-16
-1.30451e-17
-1.30451e-17
9.10383e-17
-1.30451e-17
9.10383e-17
3.05875e-14
1.95546e-14
1.23729e-14
7.68913e-15
4.63601e-15
2.69312e-15
1.47882e-15
7.84928e-16
1.95122e-16
1.25733e-16
2.16493e-17
2.29816e-16
5.63438e-17
1.25733e-16
2.16493e-17
-1.30451e-17
-4.77396e-17
-4.77396e-17
1.88954e-14
1.19912e-14
7.30749e-15
4.25437e-15
2.41557e-15
1.23596e-15
5.07372e-16
5.63438e-17
-8.24341e-17
-4.77396e-17
-1.30451e-17
-4.77396e-17
-1.51823e-16
2.16493e-17
-1.30451e-17
-1.51823e-16
-4.77396e-17
-1.30451e-17
1.07422e-14
6.99524e-15
4.18499e-15
2.31148e-15
1.27065e-15
4.37983e-16
5.63438e-17
1.25733e-16
-1.51823e-16
-4.77396e-17
-4.77396e-17
-4.77396e-17
-1.51823e-16
-1.30451e-17
9.10383e-17
-1.30451e-17
-1.51823e-16
-1.30451e-17
6.19726e-15
4.01151e-15
2.45026e-15
1.51351e-15
8.54317e-16
1.60427e-16
5.63438e-17
-1.30451e-17
-1.30451e-17
1.25733e-16
-1.30451e-17
2.16493e-17
-1.30451e-17
-1.30451e-17
2.16493e-17
-1.30451e-17
-1.30451e-17
-1.30451e-17
3.83804e-15
2.41557e-15
1.27065e-15
6.11455e-16
3.68594e-16
9.10383e-17
-1.51823e-16
-1.30451e-17
-1.30451e-17
9.10383e-17
-4.77396e-17
-4.77396e-17
-1.30451e-17
-1.30451e-17
-1.30451e-17
-4.77396e-17
-1.51823e-16
-1.30451e-17
1.32192e-12
8.72553e-13
5.68421e-13
3.65389e-13
2.31746e-13
1.4494e-13
8.96028e-14
5.44226e-14
3.2461e-14
1.88607e-14
1.07769e-14
6.23196e-15
3.66457e-15
2.10332e-15
1.13187e-15
4.03289e-16
1.95122e-16
2.16493e-17
1.29194e-12
8.52881e-13
5.55792e-13
3.57201e-13
2.26403e-13
1.4154e-13
8.72089e-14
5.30001e-14
3.1663e-14
1.8375e-14
1.03953e-14
5.74624e-15
2.97068e-15
1.51351e-15
6.11455e-16
5.63438e-17
2.16493e-17
-1.30451e-17
1.23261e-12
8.13017e-13
5.29425e-13
3.39923e-13
2.1544e-13
1.34671e-13
8.28373e-14
5.0398e-14
2.9963e-14
1.74383e-14
9.97896e-15
5.57276e-15
3.10946e-15
1.5829e-15
9.93094e-16
5.07372e-16
9.10383e-17
-1.30451e-17
1.14487e-12
7.548e-13
4.91504e-13
3.15741e-13
2.00139e-13
1.24714e-13
7.65923e-14
4.63041e-14
2.76038e-14
1.61199e-14
9.21568e-15
5.05235e-15
2.69312e-15
1.75637e-15
7.84928e-16
5.76761e-16
4.72677e-16
1.25733e-16
1.03121e-12
6.79374e-13
4.41613e-13
2.83337e-13
1.79184e-13
1.11773e-13
6.85779e-14
4.14468e-14
2.46894e-14
1.45239e-14
8.24424e-15
4.49724e-15
2.48496e-15
1.47882e-15
7.84928e-16
4.03289e-16
9.10383e-17
1.25733e-16
8.95937e-13
5.89481e-13
3.82598e-13
2.44791e-13
1.5462e-13
9.61253e-14
5.87247e-14
3.52365e-14
2.07342e-14
1.19912e-14
6.78707e-15
3.80335e-15
2.03393e-15
8.89011e-16
2.29816e-16
9.10383e-17
2.16493e-17
1.95122e-16
7.47826e-13
4.91365e-13
3.18586e-13
2.03609e-13
1.28356e-13
7.97495e-14
4.89409e-14
2.95466e-14
1.7473e-14
1.0083e-14
5.64215e-15
3.04007e-15
1.61759e-15
9.584e-16
2.29816e-16
9.10383e-17
2.16493e-17
-1.30451e-17
5.95101e-13
3.90196e-13
2.52355e-13
1.61143e-13
1.01225e-13
6.25411e-14
3.78733e-14
2.26771e-14
1.36219e-14
7.65443e-15
4.25437e-15
2.27679e-15
1.20126e-15
8.19622e-16
1.95122e-16
-1.30451e-17
-1.30451e-17
-4.77396e-17
4.48899e-13
2.93363e-13
1.89107e-13
1.19995e-13
7.51352e-14
4.62694e-14
2.78466e-14
1.64668e-14
9.7361e-15
5.39929e-15
2.90129e-15
1.5829e-15
8.19622e-16
1.25733e-16
2.16493e-17
5.63438e-17
2.16493e-17
-1.30451e-17
3.1935e-13
2.08015e-13
1.33457e-13
8.43292e-14
5.27225e-14
3.23569e-14
1.9624e-14
1.1679e-14
6.68299e-15
3.66457e-15
1.92985e-15
9.93094e-16
5.07372e-16
-4.77396e-17
2.16493e-17
-1.30451e-17
-1.30451e-17
2.16493e-17
2.12074e-13
1.37516e-13
8.7868e-14
5.54981e-14
3.42998e-14
2.09424e-14
1.24076e-14
7.55035e-15
4.18499e-15
2.27679e-15
1.20126e-15
5.42066e-16
3.339e-16
1.60427e-16
2.29816e-16
-1.51823e-16
-4.77396e-17
-4.77396e-17
1.30993e-13
8.4468e-14
5.36246e-14
3.35018e-14
2.06302e-14
1.2581e-14
7.27279e-15
4.0809e-15
2.06862e-15
1.16657e-15
5.76761e-16
2.29816e-16
-8.24341e-17
2.16493e-17
-1.30451e-17
-1.51823e-16
-4.77396e-17
-1.51823e-16
7.5274e-14
4.82123e-14
3.02405e-14
1.87914e-14
1.13667e-14
6.85646e-15
4.15029e-15
2.27679e-15
1.09718e-15
5.07372e-16
2.99205e-16
9.10383e-17
-1.30451e-17
2.16493e-17
-1.30451e-17
-1.30451e-17
-1.30451e-17
-1.30451e-17
4.18285e-14
2.68058e-14
1.67097e-14
1.03953e-14
5.9891e-15
3.42171e-15
1.99923e-15
1.34004e-15
6.11455e-16
1.25733e-16
1.25733e-16
-8.24341e-17
9.10383e-17
1.25733e-16
1.25733e-16
-1.51823e-16
-4.77396e-17
-4.77396e-17
2.64935e-14
1.68138e-14
1.02912e-14
6.33604e-15
3.76865e-15
2.27679e-15
9.584e-16
3.339e-16
-1.30451e-17
-1.30451e-17
-4.77396e-17
-4.77396e-17
-1.30451e-17
-1.30451e-17
1.25733e-16
-1.30451e-17
-1.51823e-16
9.10383e-17
9.96181e-12
6.60526e-12
4.32281e-12
2.79074e-12
1.77676e-12
1.115e-12
6.89401e-13
4.19755e-13
2.51452e-13
1.48341e-13
8.5717e-14
4.89755e-14
2.74303e-14
1.52178e-14
8.41771e-15
4.39315e-15
2.31148e-15
1.37473e-15
9.73893e-12
6.45632e-12
4.22428e-12
2.72652e-12
1.73551e-12
1.08891e-12
6.73025e-13
4.09486e-13
2.45346e-13
1.44489e-13
8.35659e-14
4.75878e-14
2.63894e-14
1.42811e-14
7.72382e-15
3.90743e-15
1.96454e-15
1.13187e-15
9.29595e-12
6.16013e-12
4.02847e-12
2.59912e-12
1.65349e-12
1.03694e-12
6.40655e-13
3.89779e-13
2.33307e-13
1.37551e-13
7.96802e-14
4.55408e-14
2.55568e-14
1.37607e-14
7.44627e-15
3.97682e-15
1.92985e-15
8.89011e-16
8.6387e-12
5.72083e-12
3.73873e-12
2.41014e-12
1.53175e-12
9.59428e-13
5.91944e-13
3.59769e-13
2.15023e-13
1.26587e-13
7.32964e-14
4.17244e-14
2.35445e-14
1.29627e-14
7.2034e-15
3.76865e-15
1.96454e-15
9.93094e-16
7.7857e-12
5.15076e-12
3.3623e-12
2.1651e-12
1.37476e-12
8.60271e-13
5.30188e-13
3.21882e-13
1.92298e-13
1.13022e-13
6.51432e-14
3.69713e-14
2.05955e-14
1.15749e-14
6.30135e-15
3.42171e-15
1.82576e-15
9.23706e-16
6.77374e-12
4.47543e-12
2.91751e-12
1.87599e-12
1.18904e-12
7.42622e-13
4.57087e-13
2.76988e-13
1.65271e-13
9.68886e-14
5.57063e-14
3.12467e-14
1.71954e-14
9.28507e-15
4.94826e-15
2.38087e-15
1.16657e-15
6.11455e-16
5.65865e-12
3.73224e-12
2.42867e-12
1.55857e-12
9.85796e-13
6.14495e-13
3.77081e-13
2.28034e-13
1.35434e-13
7.91944e-14
4.53673e-14
2.54527e-14
1.4177e-14
7.8626e-15
4.32376e-15
2.31148e-15
1.02779e-15
6.4615e-16
4.51242e-12
2.96956e-12
1.92799e-12
1.23428e-12
7.786e-13
4.83801e-13
2.96139e-13
1.78421e-13
1.05736e-13
6.16043e-14
3.53059e-14
1.99016e-14
1.10545e-14
5.88501e-15
3.14415e-15
1.37473e-15
5.42066e-16
2.99205e-16
3.41316e-12
2.2399e-12
1.44987e-12
9.25254e-13
5.81744e-13
3.60358e-13
2.19915e-13
1.32034e-13
7.81189e-14
4.54367e-14
2.57996e-14
1.44199e-14
7.8626e-15
4.28907e-15
2.2074e-15
9.584e-16
3.68594e-16
1.95122e-16
2.43186e-12
1.59024e-12
1.02559e-12
6.51861e-13
4.08549e-13
2.51903e-13
1.53059e-13
9.17885e-14
5.40062e-14
3.09344e-14
1.74383e-14
9.56263e-15
5.15643e-15
2.79721e-15
1.5829e-15
8.89011e-16
1.95122e-16
5.63438e-17
1.62053e-12
1.05525e-12
6.77639e-13
4.29088e-13
2.67551e-13
1.64231e-13
9.92825e-14
5.88635e-14
3.44039e-14
1.96587e-14
1.10892e-14
6.19726e-15
3.21354e-15
1.5829e-15
8.19622e-16
4.03289e-16
1.25733e-16
-1.30451e-17
1.00411e-12
6.50439e-13
4.15557e-13
2.61549e-13
1.62218e-13
9.90744e-14
5.96961e-14
3.53059e-14
2.03526e-14
1.15402e-14
6.50952e-15
3.62987e-15
2.03393e-15
9.93094e-16
2.29816e-16
2.16493e-17
-4.77396e-17
-1.30451e-17
5.78725e-13
3.7264e-13
2.36638e-13
1.47889e-13
9.11987e-14
5.5394e-14
3.30855e-14
1.94852e-14
1.11933e-14
6.54421e-15
3.66457e-15
1.92985e-15
1.09718e-15
6.11455e-16
1.95122e-16
-8.24341e-17
5.63438e-17
2.16493e-17
3.21501e-13
2.05344e-13
1.29467e-13
8.05475e-14
4.92531e-14
2.97895e-14
1.77505e-14
1.02912e-14
5.85032e-15
3.28293e-15
1.89515e-15
1.16657e-15
5.76761e-16
2.16493e-17
2.16493e-17
-1.30451e-17
-1.30451e-17
2.16493e-17
2.02776e-13
1.2853e-13
8.04087e-14
4.93572e-14
2.98242e-14
1.76811e-14
1.043e-14
5.88501e-15
3.00537e-15
1.54821e-15
7.15539e-16
4.37983e-16
2.64511e-16
2.16493e-17
-1.30451e-17
-4.77396e-17
-1.30451e-17
-1.30451e-17
7.5215e-11
5.01003e-11
3.29335e-11
2.13537e-11
1.36502e-11
8.59825e-12
5.33454e-12
3.25856e-12
1.95835e-12
1.15767e-12
6.72851e-13
3.84402e-13
2.15752e-13
1.19128e-13
6.49003e-14
3.47508e-14
1.83056e-14
9.28507e-15
7.35501e-11
4.89811e-11
3.21903e-11
2.08667e-11
1.33351e-11
8.39733e-12
5.20829e-12
3.17998e-12
1.91072e-12
1.12912e-12
6.56025e-13
3.74826e-13
2.1034e-13
1.15832e-13
6.26105e-14
3.30161e-14
1.71607e-14
8.72996e-15
7.02309e-11
4.67507e-11
3.07101e-11
1.98971e-11
1.27085e-11
7.99803e-12
4.95748e-12
3.02507e-12
1.81645e-12
1.07291e-12
6.23065e-13
3.55571e-13
1.99445e-13
1.09691e-13
5.92798e-14
3.13854e-14
1.62934e-14
8.31363e-15
6.53039e-11
4.34411e-11
2.85147e-11
1.84598e-11
1.17804e-11
7.40715e-12
4.58684e-12
2.79594e-12
1.67694e-12
9.8923e-13
5.7366e-13
3.26809e-13
1.8307e-13
1.00844e-13
5.44573e-14
2.90956e-14
1.53219e-14
8.00138e-15
5.89037e-11
3.91446e-11
2.56674e-11
1.65978e-11
1.05794e-11
6.64377e-12
4.10871e-12
2.50125e-12
1.49809e-12
8.82371e-13
5.10898e-13
2.90727e-13
1.62531e-13
8.93252e-14
4.83857e-14
2.56262e-14
1.31709e-14
6.71768e-15
5.13019e-11
3.40468e-11
2.2293e-11
1.43941e-11
9.16033e-12
5.74314e-12
3.54541e-12
2.15444e-12
1.28812e-12
7.57194e-13
4.3738e-13
2.4833e-13
1.38453e-13
7.60372e-14
4.0857e-14
2.15322e-14
1.11586e-14
5.46868e-15
4.29182e-11
2.84324e-11
1.85817e-11
1.19741e-11
7.60467e-12
4.75754e-12
2.93059e-12
1.77679e-12
1.05956e-12
6.21365e-13
3.58069e-13
2.02741e-13
1.12709e-13
6.15696e-14
3.31202e-14
1.76811e-14
9.28507e-15
4.7054e-15
3.42882e-11
2.26631e-11
1.47756e-11
9.49756e-12
6.01597e-12
3.75323e-12
2.30526e-12
1.39332e-12
8.28387e-13
4.84287e-13
2.78237e-13
1.57118e-13
8.71742e-14
4.76919e-14
2.56262e-14
1.3379e-14
6.75238e-15
3.35232e-15
2.59933e-11
1.71306e-11
1.11346e-11
7.13442e-12
4.5043e-12
2.80059e-12
1.71407e-12
1.03239e-12
6.1165e-13
3.56334e-13
2.0406e-13
1.14756e-13
6.34778e-14
3.43692e-14
1.83056e-14
9.66671e-15
5.08704e-15
2.51965e-15
1.8568e-11
1.21924e-11
7.89437e-12
5.03818e-12
3.1679e-12
1.9612e-12
1.19514e-12
7.16705e-13
4.226e-13
2.44861e-13
1.39771e-13
7.83618e-14
4.2904e-14
2.31976e-14
1.20953e-14
6.23196e-15
3.14415e-15
1.54821e-15
1.24089e-11
8.11162e-12
5.22768e-12
3.32046e-12
2.07746e-12
1.27966e-12
7.75894e-13
4.62672e-13
2.71332e-13
1.56563e-13
8.8666e-14
4.92531e-14
2.69793e-14
1.46627e-14
7.89729e-15
4.15029e-15
1.96454e-15
9.23706e-16
7.70757e-12
5.01077e-12
3.21138e-12
2.02819e-12
1.26158e-12
7.72633e-13
4.65691e-13
2.76051e-13
1.60796e-13
9.22395e-14
5.21674e-14
2.90956e-14
1.59117e-14
8.62588e-15
4.53193e-15
2.13801e-15
9.584e-16
4.03289e-16
4.44889e-12
2.873e-12
1.8288e-12
1.14688e-12
7.08621e-13
4.3117e-13
2.58149e-13
1.52053e-13
8.77987e-14
4.98429e-14
2.80548e-14
1.55995e-14
8.41771e-15
4.53193e-15
2.27679e-15
1.23596e-15
6.80844e-16
2.99205e-16
2.46774e-12
1.58049e-12
9.97765e-13
6.20567e-13
3.80134e-13
2.29248e-13
1.36128e-13
7.95067e-14
4.53326e-14
2.55221e-14
1.43158e-14
7.8279e-15
4.1156e-15
2.2421e-15
9.23706e-16
4.72677e-16
1.95122e-16
2.16493e-17
1.55066e-12
9.85067e-13
6.16612e-13
3.80273e-13
2.31226e-13
1.38383e-13
8.1623e-14
4.74143e-14
2.68752e-14
1.49403e-14
8.34832e-15
4.67071e-15
2.41557e-15
1.44412e-15
7.84928e-16
4.72677e-16
2.64511e-16
-1.30451e-17
5.6756e-10
3.79839e-10
2.50847e-10
1.63382e-10
1.04893e-10
6.63413e-11
4.13131e-11
2.53175e-11
1.52607e-11
9.04348e-12
5.26647e-12
3.01306e-12
1.69297e-12
9.33893e-13
5.05589e-13
2.68973e-13
1.4043e-13
7.20474e-14
5.55138e-10
3.71452e-10
2.45253e-10
1.59699e-10
1.02499e-10
6.48085e-11
4.03454e-11
2.4716e-11
1.48926e-11
8.82213e-12
5.13574e-12
2.93719e-12
1.64974e-12
9.09711e-13
4.92406e-13
2.61757e-13
1.36857e-13
7.0278e-14
5.30328e-10
3.54705e-10
2.34089e-10
1.52353e-10
9.77305e-11
6.17557e-11
3.84201e-11
2.35201e-11
1.41615e-11
8.38269e-12
4.87633e-12
2.78658e-12
1.56367e-12
8.61693e-13
4.65968e-13
2.47359e-13
1.29085e-13
6.63575e-14
4.93431e-10
3.29803e-10
2.17495e-10
1.4144e-10
9.06522e-11
5.723e-11
3.55693e-11
2.17525e-11
1.30832e-11
7.73578e-12
4.49434e-12
2.56498e-12
1.43759e-12
7.9109e-13
4.27215e-13
2.26368e-13
1.1774e-13
6.01125e-14
4.45441e-10
2.9743e-10
1.95937e-10
1.27275e-10
8.14747e-11
5.13703e-11
3.18842e-11
1.94711e-11
1.16935e-11
6.90318e-12
4.00418e-12
2.28143e-12
1.27636e-12
7.01232e-13
3.77844e-13
1.99862e-13
1.03793e-13
5.30348e-14
3.88392e-10
2.58983e-10
1.70361e-10
1.10491e-10
7.06154e-11
4.44471e-11
2.75374e-11
1.67853e-11
1.00613e-11
5.92788e-12
3.43134e-12
1.95086e-12
1.08936e-12
5.97218e-13
3.21327e-13
1.69747e-13
8.80068e-14
4.47428e-14
3.25419e-10
2.16597e-10
1.42205e-10
9.2043e-11
5.86991e-11
3.6864e-11
2.27864e-11
1.3856e-11
8.28478e-12
4.86887e-12
2.81111e-12
1.59402e-12
8.87749e-13
4.85536e-13
2.60404e-13
1.37065e-13
7.09718e-14
3.59998e-14
2.60497e-10
1.72977e-10
1.13284e-10
7.31314e-11
4.65104e-11
2.91259e-11
1.795e-11
1.08817e-11
6.48601e-12
3.79966e-12
2.18695e-12
1.23629e-12
6.86139e-13
3.73716e-13
1.99758e-13
1.04625e-13
5.39369e-14
2.73262e-14
1.97958e-10
1.31055e-10
8.55573e-11
5.50487e-11
3.4889e-11
2.17699e-11
1.33669e-11
8.07228e-12
4.79251e-12
2.79629e-12
1.6028e-12
9.02217e-13
4.98755e-13
2.70569e-13
1.44108e-13
7.54127e-14
3.88448e-14
1.95893e-14
1.41812e-10
9.35284e-11
6.0816e-11
3.89678e-11
2.4591e-11
1.52758e-11
9.33641e-12
5.61171e-12
3.31581e-12
1.92529e-12
1.0981e-12
6.15189e-13
3.38258e-13
1.8248e-13
9.65764e-14
5.00164e-14
2.54874e-14
1.27198e-14
9.50622e-11
6.23989e-11
4.03744e-11
2.5738e-11
1.61571e-11
9.98287e-12
6.06784e-12
3.62684e-12
2.13078e-12
1.23022e-12
6.97727e-13
3.88947e-13
2.12942e-13
1.14583e-13
6.03553e-14
3.13854e-14
1.60505e-14
7.93199e-15
5.92121e-11
3.86403e-11
2.48519e-11
1.57452e-11
9.82189e-12
6.02985e-12
3.64159e-12
2.16267e-12
1.26255e-12
7.24165e-13
4.08167e-13
2.26091e-13
1.22909e-13
6.54207e-14
3.39875e-14
1.75077e-14
8.79935e-15
4.28907e-15
3.42406e-11
2.21842e-11
1.41636e-11
8.90727e-12
5.51512e-12
3.36039e-12
2.01438e-12
1.18751e-12
6.88325e-13
3.91965e-13
2.19429e-13
1.20585e-13
6.49003e-14
3.42651e-14
1.77852e-14
8.83404e-15
4.25437e-15
2.17271e-15
1.89893e-11
1.21938e-11
7.71524e-12
4.80829e-12
2.95068e-12
1.7821e-12
1.05886e-12
6.18832e-13
3.55501e-13
2.00729e-13
1.11391e-13
6.10145e-14
3.28773e-14
1.72995e-14
8.79935e-15
4.39315e-15
2.17271e-15
1.02779e-15
1.19028e-11
7.57441e-12
4.74931e-12
2.93327e-12
1.78387e-12
1.06819e-12
6.29553e-13
3.65007e-13
2.08188e-13
1.16873e-13
6.45881e-14
3.51325e-14
1.8722e-14
9.70141e-15
5.08704e-15
2.38087e-15
1.27065e-15
5.76761e-16
4.27894e-09
2.87789e-09
1.90987e-09
1.24989e-09
8.06154e-10
5.12111e-10
3.2021e-10
1.96954e-10
1.19099e-10
7.07658e-11
4.12954e-11
2.36565e-11
1.32989e-11
7.33468e-12
3.96782e-12
2.10511e-12
1.0954e-12
5.59192e-13
4.18644e-09
2.81514e-09
1.86782e-09
1.22208e-09
7.87995e-10
5.00422e-10
3.12797e-10
1.92326e-10
1.16255e-10
6.9049e-11
4.0277e-11
2.30635e-11
1.29599e-11
7.14472e-12
3.86349e-12
2.04918e-12
1.06629e-12
5.441e-13
4.00129e-09
2.68959e-09
1.78374e-09
1.16649e-09
7.51736e-10
4.77102e-10
2.9802e-10
1.83108e-10
1.10599e-10
6.56366e-11
3.82547e-11
2.18866e-11
1.22879e-11
6.76818e-12
3.65668e-12
1.93778e-12
1.00713e-12
5.13569e-13
3.72534e-09
2.50243e-09
1.65841e-09
1.08367e-09
6.97758e-10
4.42427e-10
2.76081e-10
1.69445e-10
1.0223e-10
6.05982e-11
3.52746e-11
2.01558e-11
1.13014e-11
6.21672e-12
3.35421e-12
1.77506e-12
9.21472e-13
4.69299e-13
3.36588e-09
2.25871e-09
1.49529e-09
9.75955e-10
6.27631e-10
3.97439e-10
2.47662e-10
1.5178e-10
9.14317e-11
5.41105e-11
3.14456e-11
1.79375e-11
1.00399e-11
5.5128e-12
2.96907e-12
1.56832e-12
8.12705e-13
4.13094e-13
2.93825e-09
1.96901e-09
1.30158e-09
8.48192e-10
5.44556e-10
3.44224e-10
2.14103e-10
1.30959e-10
7.87295e-11
4.64953e-11
2.69618e-11
1.53458e-11
8.57001e-12
4.69502e-12
2.52297e-12
1.32979e-12
6.87597e-13
3.48944e-13
2.46582e-09
1.64936e-09
1.08814e-09
7.07621e-10
4.53304e-10
2.85877e-10
1.7738e-10
1.08223e-10
6.48913e-11
3.82195e-11
2.21018e-11
1.2544e-11
6.98572e-12
3.81627e-12
2.04491e-12
1.07454e-12
5.54058e-13
2.80492e-13
1.97803e-09
1.31989e-09
8.68553e-10
5.63294e-10
3.59818e-10
2.2624e-10
1.3994e-10
8.5105e-11
5.08597e-11
2.9853e-11
1.72032e-11
9.72918e-12
5.39865e-12
2.93878e-12
1.56901e-12
8.2176e-13
4.22253e-13
2.13011e-13
1.50703e-09
1.00251e-09
6.57549e-10
4.24977e-10
2.70481e-10
1.69426e-10
1.04387e-10
6.32261e-11
3.76271e-11
2.19918e-11
1.26181e-11
7.10514e-12
3.92553e-12
2.12783e-12
1.13137e-12
5.90244e-13
3.02106e-13
1.51741e-13
1.08292e-09
7.17557e-10
4.68698e-10
3.01606e-10
1.9109e-10
1.19134e-10
7.30452e-11
4.40218e-11
2.60646e-11
1.5155e-11
8.64998e-12
4.84545e-12
2.66296e-12
1.43585e-12
7.59518e-13
3.94116e-13
2.00556e-13
1.00185e-13
7.28431e-10
4.80278e-10
3.12083e-10
1.99742e-10
1.25846e-10
7.80074e-11
4.75473e-11
2.84832e-11
1.67619e-11
9.6862e-12
5.49486e-12
3.05941e-12
1.67146e-12
8.95972e-13
4.71381e-13
2.43334e-13
1.23187e-13
6.12227e-14
4.55271e-10
2.98317e-10
1.92605e-10
1.2246e-10
7.66339e-11
4.71754e-11
2.85533e-11
1.69838e-11
9.92396e-12
5.69453e-12
3.20798e-12
1.77398e-12
9.6262e-13
5.12563e-13
2.68036e-13
1.37828e-13
6.97228e-14
3.46814e-14
2.6395e-10
1.71618e-10
1.09929e-10
6.93331e-11
4.30352e-11
2.62755e-11
1.57731e-11
9.30553e-12
5.39349e-12
3.07031e-12
1.71632e-12
9.42011e-13
5.07741e-13
2.68522e-13
1.39598e-13
7.13188e-14
3.59651e-14
1.80281e-14
1.46483e-10
9.4316e-11
5.98203e-11
3.73564e-11
2.29583e-11
1.38798e-11
8.25162e-12
4.82234e-12
2.76965e-12
1.56276e-12
8.66134e-13
4.71519e-13
2.52112e-13
1.32381e-13
6.83351e-14
3.47855e-14
1.73342e-14
8.69527e-15
9.16943e-11
5.84511e-11
3.67003e-11
2.26878e-11
1.3804e-11
8.26313e-12
4.86509e-12
2.81662e-12
1.60301e-12
8.96874e-13
4.93342e-13
2.66718e-13
1.41714e-13
7.38862e-14
3.78039e-14
1.90342e-14
9.28507e-15
4.63601e-15
3.22221e-08
2.17848e-08
1.45317e-08
9.55806e-09
6.19504e-09
3.95404e-09
2.48337e-09
1.53367e-09
9.30726e-10
5.54679e-10
3.24445e-10
1.86162e-10
1.04736e-10
5.77573e-11
3.12121e-11
1.65273e-11
8.57486e-12
4.35966e-12
3.15343e-08
2.13161e-08
1.42161e-08
9.34824e-09
6.05738e-09
3.86499e-09
2.42661e-09
1.49805e-09
9.08745e-10
5.41349e-10
3.16508e-10
1.81525e-10
1.02079e-10
5.6266e-11
3.03919e-11
1.60852e-11
8.34186e-12
4.23955e-12
3.01548e-08
2.03763e-08
1.35837e-08
8.92813e-09
5.78202e-09
3.68699e-09
2.31325e-09
1.42699e-09
8.64931e-10
5.14809e-10
3.00723e-10
1.72313e-10
9.6809e-11
5.33107e-11
2.87687e-11
1.52121e-11
7.88174e-12
4.00203e-12
2.80944e-08
1.89715e-08
1.2638e-08
8.29999e-09
5.37055e-09
3.42134e-09
2.14434e-09
1.32131e-09
7.99928e-10
4.75525e-10
2.77414e-10
1.58743e-10
8.90622e-11
4.89763e-11
2.63926e-11
1.39365e-11
7.21127e-12
3.65675e-12
2.54059e-08
1.71387e-08
1.14047e-08
7.4814e-09
4.8349e-09
3.076e-09
1.92513e-09
1.18443e-09
7.15917e-10
4.24872e-10
2.47432e-10
1.41331e-10
7.91464e-11
4.34415e-11
2.33656e-11
1.23145e-11
6.35966e-12
3.21904e-12
2.22055e-08
1.49584e-08
9.93889e-09
6.50946e-09
4.19964e-09
2.667e-09
1.66596e-09
1.02291e-09
6.1699e-10
3.6536e-10
2.1229e-10
1.20974e-10
6.75838e-11
3.7005e-11
1.98549e-11
1.04387e-11
5.37808e-12
2.71601e-12
1.8667e-08
1.25509e-08
8.32251e-09
5.43925e-09
3.50126e-09
2.21815e-09
1.38207e-09
8.46367e-10
5.09103e-10
3.00617e-10
1.74159e-10
9.89467e-11
5.51089e-11
3.0081e-11
1.60899e-11
8.43335e-12
4.33218e-12
2.18119e-12
1.50075e-08
1.00655e-08
6.6571e-09
4.33878e-09
2.78464e-09
1.75864e-09
1.09218e-09
6.6657e-10
3.99542e-10
2.35066e-10
1.35676e-10
7.67905e-11
4.26052e-11
2.31668e-11
1.23444e-11
6.44598e-12
3.29891e-12
1.65526e-12
1.14653e-08
7.66554e-09
5.0529e-09
3.28153e-09
2.09814e-09
1.31982e-09
8.16267e-10
4.96041e-10
2.9601e-10
1.73361e-10
9.95964e-11
5.61058e-11
3.09823e-11
1.67681e-11
8.89374e-12
4.6232e-12
2.35598e-12
1.17727e-12
8.26561e-09
5.50407e-09
3.61263e-09
2.33553e-09
1.48617e-09
9.30224e-10
5.72358e-10
3.45972e-10
2.0533e-10
1.19583e-10
6.83132e-11
3.8265e-11
2.10115e-11
1.13084e-11
5.96532e-12
3.08446e-12
1.56387e-12
7.77629e-13
5.58116e-09
3.6974e-09
2.41362e-09
1.55149e-09
9.8141e-10
6.10527e-10
3.73285e-10
2.24181e-10
1.32172e-10
7.64641e-11
4.33896e-11
2.41427e-11
1.31699e-11
7.04272e-12
3.692e-12
1.89757e-12
9.56618e-13
4.73289e-13
3.50219e-09
2.30497e-09
1.4944e-09
9.53839e-10
5.98994e-10
3.69865e-10
2.24429e-10
1.33748e-10
7.82452e-11
4.49171e-11
2.52934e-11
1.39679e-11
7.56373e-12
4.01611e-12
2.09116e-12
1.06809e-12
5.35323e-13
2.63387e-13
2.0373e-09
1.32973e-09
8.54778e-10
5.40846e-10
3.36643e-10
2.0601e-10
1.23879e-10
7.31622e-11
4.24204e-11
2.41387e-11
1.34766e-11
7.38113e-12
3.96539e-12
2.09009e-12
1.0811e-12
5.48958e-13
2.73726e-13
1.3422e-13
1.13258e-09
7.31405e-10
4.65115e-10
2.91101e-10
1.79216e-10
1.08479e-10
6.45288e-11
3.77081e-11
2.16391e-11
1.21915e-11
6.74199e-12
3.65952e-12
1.94978e-12
1.01983e-12
5.23631e-13
2.64047e-13
1.3082e-13
6.3686e-14
7.08764e-10
4.52699e-10
2.8468e-10
1.76173e-10
1.07243e-10
6.41913e-11
3.77667e-11
2.18346e-11
1.24015e-11
6.91883e-12
3.79119e-12
2.04037e-12
1.07864e-12
5.60441e-13
2.8639e-13
1.44073e-13
7.13188e-14
3.48549e-14
2.42276e-07
1.64703e-07
1.10471e-07
7.30487e-08
4.75907e-08
3.05281e-08
1.92663e-08
1.19517e-08
7.28184e-09
4.35432e-09
2.55379e-09
1.46813e-09
8.26828e-10
4.55975e-10
2.46157e-10
1.30065e-10
6.72628e-11
3.4049e-11
2.37165e-07
1.61206e-07
1.08104e-07
7.14667e-08
4.65476e-08
2.98499e-08
1.88317e-08
1.16776e-08
7.11178e-09
4.25071e-09
2.49184e-09
1.43181e-09
8.05961e-10
4.4424e-10
2.397e-10
1.2659e-10
6.54334e-11
3.31075e-11
2.26906e-07
1.54185e-07
1.03356e-07
6.82958e-08
4.44587e-08
2.84927e-08
1.79626e-08
1.11297e-08
6.77221e-09
4.04402e-09
2.3684e-09
1.35953e-09
7.64499e-10
4.20957e-10
2.26907e-10
1.19713e-10
6.18181e-11
3.12483e-11
2.11552e-07
1.4366e-07
9.62286e-08
6.35348e-08
4.13233e-08
2.64578e-08
1.66619e-08
1.03117e-08
6.26669e-09
3.73725e-09
2.18574e-09
1.25288e-09
7.03494e-10
3.86787e-10
2.08175e-10
1.09666e-10
5.6546e-11
2.85419e-11
1.91483e-07
1.299e-07
8.69142e-08
5.73178e-08
3.7234e-08
2.38079e-08
1.49713e-08
9.25084e-09
5.6126e-09
3.34133e-09
1.95061e-09
1.11597e-09
6.25383e-10
3.43149e-10
1.84312e-10
9.68971e-11
4.98609e-11
2.51174e-11
1.67585e-07
1.1352e-07
7.5834e-08
4.99287e-08
3.23785e-08
2.06653e-08
1.29695e-08
7.99723e-09
4.84144e-09
2.87568e-09
1.67478e-09
9.55795e-10
5.34254e-10
2.92382e-10
1.56631e-10
8.21274e-11
4.21503e-11
2.11787e-11
1.41137e-07
9.54152e-08
6.36074e-08
4.17887e-08
2.7038e-08
1.72144e-08
1.07752e-08
6.62582e-09
3.99969e-09
2.36862e-09
1.3752e-09
7.82311e-10
4.35852e-10
2.37739e-10
1.26934e-10
6.6336e-11
3.39347e-11
1.69965e-11
1.13739e-07
7.66951e-08
5.09918e-08
3.34073e-08
2.15505e-08
1.36762e-08
8.53114e-09
5.22709e-09
3.14361e-09
1.85448e-09
1.07241e-09
6.07578e-10
3.37106e-10
1.83116e-10
9.73661e-11
5.06757e-11
2.58197e-11
1.28817e-11
8.71455e-08
5.85713e-08
3.88101e-08
2.53348e-08
1.62794e-08
1.02881e-08
6.38958e-09
3.89719e-09
2.3328e-09
1.36948e-09
7.8799e-10
4.44178e-10
2.45189e-10
1.32509e-10
7.0103e-11
3.63063e-11
1.84099e-11
9.14257e-12
6.30428e-08
4.21971e-08
2.7839e-08
1.80883e-08
1.15649e-08
7.27028e-09
4.49073e-09
2.72359e-09
1.6208e-09
9.45787e-10
5.40877e-10
3.03008e-10
1.66235e-10
8.92938e-11
4.69587e-11
2.41792e-11
1.21926e-11
6.02322e-12
4.27441e-08
2.84601e-08
1.86708e-08
1.20586e-08
7.66121e-09
4.78481e-09
2.93564e-09
1.76811e-09
1.04471e-09
6.05215e-10
3.4359e-10
1.91087e-10
1.04081e-10
5.55137e-11
2.89946e-11
1.48315e-11
7.4322e-12
3.64991e-12
2.69444e-08
1.78182e-08
1.1605e-08
7.43856e-09
4.68926e-09
2.90536e-09
1.76798e-09
1.05596e-09
6.18658e-10
3.5536e-10
2.00046e-10
1.10333e-10
5.96091e-11
3.15446e-11
1.6352e-11
8.30515e-12
4.13404e-12
2.01785e-12
1.57408e-08
1.03169e-08
6.65767e-09
4.22738e-09
2.63946e-09
1.61944e-09
9.75747e-10
5.77011e-10
3.34725e-10
1.90403e-10
1.06168e-10
5.80177e-11
3.10685e-11
1.63039e-11
8.38543e-12
4.22824e-12
2.09095e-12
1.01456e-12
8.77546e-09
5.68557e-09
3.6261e-09
2.27513e-09
1.40348e-09
8.50725e-10
5.06434e-10
2.95944e-10
1.69699e-10
9.54539e-11
5.26571e-11
2.84848e-11
1.51097e-11
7.86019e-12
4.0107e-12
2.008e-12
9.86698e-13
4.76169e-13
5.49597e-09
3.51835e-09
2.21653e-09
1.37344e-09
8.36622e-10
5.0077e-10
2.94419e-10
1.69967e-10
9.63201e-11
5.35727e-11
2.92413e-11
1.56628e-11
8.23368e-12
4.24874e-12
2.15247e-12
1.07104e-12
5.237e-13
2.51695e-13
1.81823e-06
1.24304e-06
8.38788e-07
5.57883e-07
3.65428e-07
2.35635e-07
1.49478e-07
9.31879e-08
5.70298e-08
3.42309e-08
2.01374e-08
1.16027e-08
6.54296e-09
3.60908e-09
1.94648e-09
1.02622e-09
5.2886e-10
2.66443e-10
1.78021e-06
1.21695e-06
8.21048e-07
5.45953e-07
3.57516e-07
2.30465e-07
1.46149e-07
9.10766e-08
5.57128e-08
3.34242e-08
1.96528e-08
1.13173e-08
6.3785e-09
3.51638e-09
1.89543e-09
9.98756e-10
5.14435e-10
2.59043e-10
1.70397e-06
1.16463e-06
7.85479e-07
5.22057e-07
3.41686e-07
2.20127e-07
1.39493e-07
8.68545e-08
5.30795e-08
3.18122e-08
1.86854e-08
1.07486e-08
6.05124e-09
3.33224e-09
1.79419e-09
9.44384e-10
4.85915e-10
2.44431e-10
1.58975e-06
1.08598e-06
7.31874e-07
4.85997e-07
3.17793e-07
2.04539e-07
1.29476e-07
8.05196e-08
4.91432e-08
2.94124e-08
1.72509e-08
9.90843e-09
5.56949e-09
3.06204e-09
1.64603e-09
8.65002e-10
4.4436e-10
2.23177e-10
1.44027e-06
9.8297e-07
6.61674e-07
4.38822e-07
2.86586e-07
1.84215e-07
1.16442e-07
7.22973e-08
4.4048e-08
2.63148e-08
1.54046e-08
8.83017e-09
4.95298e-09
2.71721e-09
1.45746e-09
7.64224e-10
3.91732e-10
1.96322e-10
1.26229e-06
8.60252e-07
5.78047e-07
3.82669e-07
2.49477e-07
1.60074e-07
1.00984e-07
6.25644e-08
3.80318e-08
2.26673e-08
1.32367e-08
7.56779e-09
4.23338e-09
2.31596e-09
1.23873e-09
6.47682e-10
3.31053e-10
1.65451e-10
1.06517e-06
7.2445e-07
4.85689e-07
3.20802e-07
2.08671e-07
1.33565e-07
8.40324e-08
5.19105e-08
3.14601e-08
1.8692e-08
1.08798e-08
6.19915e-09
3.45562e-09
1.88373e-09
1.00392e-09
5.23028e-10
2.6639e-10
1.32672e-10
8.60686e-07
5.83762e-07
3.90253e-07
2.57042e-07
1.66708e-07
1.06358e-07
6.66736e-08
4.10297e-08
2.47677e-08
1.46557e-08
8.4942e-09
4.81866e-09
2.67411e-09
1.45117e-09
7.69932e-10
3.99345e-10
2.02512e-10
1.00433e-10
6.61602e-07
4.47131e-07
2.97855e-07
1.95481e-07
1.26288e-07
8.02223e-08
5.00558e-08
3.06549e-08
1.8413e-08
1.08392e-08
6.24863e-09
3.52534e-09
1.94556e-09
1.04997e-09
5.54014e-10
2.85807e-10
1.44178e-10
7.1144e-11
4.80401e-07
3.23247e-07
2.14389e-07
1.4005e-07
9.0013e-08
5.68604e-08
3.52724e-08
2.14721e-08
1.28175e-08
7.49674e-09
4.29313e-09
2.40586e-09
1.31884e-09
7.07012e-10
3.70619e-10
1.89982e-10
9.5254e-11
4.67303e-11
3.27142e-07
2.1895e-07
1.44401e-07
9.37478e-08
5.985e-08
3.7542e-08
2.31214e-08
1.39712e-08
8.2761e-09
4.8025e-09
2.72833e-09
1.51678e-09
8.24906e-10
4.38794e-10
2.28284e-10
1.16174e-10
5.78471e-11
2.8196e-11
2.07248e-07
1.37753e-07
9.01691e-08
5.80671e-08
3.67601e-08
2.28612e-08
1.39565e-08
8.35722e-09
4.90488e-09
2.81973e-09
1.58705e-09
8.74217e-10
4.7118e-10
2.48455e-10
1.28182e-10
6.47175e-11
3.19875e-11
1.54851e-11
1.21696e-07
8.01314e-08
5.19315e-08
3.3102e-08
2.0739e-08
1.27619e-08
7.70715e-09
4.56473e-09
2.64981e-09
1.5069e-09
8.39177e-10
4.5751e-10
2.44152e-10
1.27536e-10
6.522e-11
3.26609e-11
1.60231e-11
7.70487e-12
6.81194e-08
4.42944e-08
2.83411e-08
1.78321e-08
1.10257e-08
6.69449e-09
3.98898e-09
2.33133e-09
1.33581e-09
7.50111e-10
4.1269e-10
2.22419e-10
1.17423e-10
6.07318e-11
3.07784e-11
1.52896e-11
7.44788e-12
3.5595e-12
4.27417e-08
2.74341e-08
1.73208e-08
1.07498e-08
6.55416e-09
3.92366e-09
2.30532e-09
1.32882e-09
7.51214e-10
4.16415e-10
2.2631e-10
1.20585e-10
6.29989e-11
3.22779e-11
1.6223e-11
8.0015e-12
3.87432e-12
1.84258e-12
1.3624e-05
9.35746e-06
6.35507e-06
4.25634e-06