/*--------------------------------*- C++ -*----------------------------------*\
| =========                 |                                                 |
| \\      /  F ield         | OpenFOAM: The Open Source CFD Toolbox           |
|  \\    /   O peration     | Version:  2412                                  |
|   \\  /    A nd           | Website:  www.openfoam.com                      |
|    \\/     M anipulation  |                                                 |
\*---------------------------------------------------------------------------*/
FoamFile
{
    version     2.0;
    format      ascii;
    arch        "LSB;label=32;scalar=64";
    class       volScalarField;
    location    "0.0250162";
    object      Jsi;
}
// * * * * * * * * * * * * * * * * * * * * * * * * * * * * * * * * * * * * * //

dimensions      [0 0 0 0 0 0 0];

internalField   nonuniform List<scalar> 
8835
(
0
0
0
0
0
0
0
0
0
0
0
0
0
0
0
0
0
0
0
0
0
0
0
0
0
0
0
0
0
0
0
0
0
0
0
0
0
0
0
0
0
0
0
0
0
0
0
0
0
0
0
0
0
0
0
0
0
0
0
0
0
0
0
0
0
0
0
0
0
0
0
0
0
0
0
0
0
0
0
0
0
0
0
0
0
0
0
0
0
0
0
0
0
0
0
0
0
0
0
0
0
0
0
0
0
0
0
0
0
0
0
0
0
0
0
0
0
0
0
0
0
0
0
0
0
0
0
0
0
0
0
0
0
0
0
0
0
0
0
0
0
0
0
0
0
0
0
0
0
0
0
0
0
0
0
0
0
0
0
0
0
0
0
0
0
0
0
0
0
0
0
0
0
0
0
0
0
0
0
0
0
0
0
0
0
0
0
0
0
0
0
0
0
0
0
0
0
0
0
0
0
0
0
0
0
0
0
0
0
0
0
0
0
0
0
0
0
0
0
0
0
0
0
0
0
0
0
0
0
0
0
0
0
0
0
0
0
0
0
0
0
0
0
0
0
0
0
0
0
0
0
0
0
0
0
0
0
0
0
0
0
0
0
0
0
0
0
0
0
0
0
0
0
0
0
0
0
0
0
0
0
0
0
0
0
0
0
0
0
0
0
0
0
0
0
0
0
0
0
0
0
0
0
0
0
0
0
0
0
0
0
0
0
0
0
0
0
0
0
0
0
0
0
0
0
0
0
0
0
0
0
0
0
0
0
0
0
0
0
0
0
0
0
0
0
0
0
0
0
0
0
0
0
0
0
0
0
0
0
0
0
0
0
0
0
0
0
0
0
0
0
0
0
0
0
0
0
0
0
0
0
0
0
0
0
0
0
0
0
0
0
0
0
0
0
0
0
0
0
0
0
0
0
0
0
0
0
0
0
0
0
0
0
0
0
0
0
0
0
0
0
0
0
0
0
0
0
0
0
0
0
0
0
0
0
0
0
0
0
0
0
0
0
0
0
0
0
0
0
0
0
0
0
0
0
0
0
0
0
0
0
0
0
0
0
0
0
0
0
0
0
0
0
0
0
0
0
0
0
0
0
0
0
0
0
0
0
0
0
0
0
0
0
0
0
0
0
0
0
0
0
0
0
0
0
0
0
0
0
0
0
0
0
0
0
0
0
0
0
0
0
0
0
0
0
0
0
0
0
0
0
0
0
0
0
0
0
0
0
0
0
0
0
0
0
0
0
0
0
0
0
0
0
0
0
0
0
0
0
0
0
0
0
0
0
0
0
0
0
0
0
0
0
0
0
0
0
0
0
0
0
0
0
0
0
0
0
0
0
0
0
0
0
0
0
0
0
0
0
0
0
0
0
0
0
0
0
0
0
0
0
0
0
0
0
0
0
0
0
0
0
0
0
0
0
0
0
0
0
0
0
0
0
0
0
0
0
0
0
0
0
0
0
0
0
0
0
0
0
0
0
0
0
0
0
0
0
0
0
0
0
0
0
0
0
0
0
0
0
0
0
0
0
0
0
0
0
0
0
0
0
0
0
0
0
0
0
0
0
0
0
0
0
0
0
0
0
0
0
0
0
0
0
0
0
0
0
0
0
0
0
0
0
0
0
0
0
0
0
0
0
0
0
0
0
0
0
0
0
0
0
0
0
0
0
0
0
0
0
0
0
0
0
0
0
0
0
0
0
0
0
0
0
0
0
0
0
0
0
0
0
0
0
0
0
0
0
0
0
0
0
0
0
0
0
0
0
0
0
0
0
0
0
0
0
0
0
0
0
0
0
0
0
0
0
0
0
0
0
0
0
0
0
0
0
0
0
0
0
0
0
0
0
0
0
0
0
0
0
0
0
0
0
0
0
0
0
0
0
0
0
0
0
0
0
0
0
0
0
0
0
0
0
0
0
0
0
0
0
0
0
0
0
0
0
0
0
0
0
0
0
0
0
0
0
0
0
0
0
0
0
0
0
0
0
0
0
0
0
0
0
0
0
0
0
0
0
0
0
0
0
0
0
0
0
0
0
0
0
0
0
0
0
0
0
0
0
0
0
0
0
0
0
0
0
0
0
0
0
0
0
0
0
0
0
0
0
0
0
0
0
0
0
0
0
0
0
0
0
0
0
0
0
0
0
0
0
0
0
0
0
0
0
0
0
0
0
0
0
0
0
0
0
0
0
0
0
0
0
0
0
0
0
0
0
0
0
0
0
0
0
0
0
0
0
0
0
0
0
0
0
0
0
0
0
0
0
0
0
0
0
0
0
0
0
0
0
0
0
0
0
0
0
0
0
0
0
0
0
0
0
0
0
0
0
0
0
0
0
0
0
0
0
0
0
0
0
0
0
0
0
0
0
0
0
0
0
0
0
0
0
0
0
0
0
0
0
0
0
0
0
0
0
0
0
0
0
0
0
0
0
0
0
0
0
0
0
0
0
0
0
0
0
0
0
0
0
0
0
0
0
0
0
0
0
0
0
0
0
0
0
0
0
0
0
0
0
0
0
0
0
0
0
0
0
0
0
0
0
0
0
0
0
0
0
0
0
0
0
0
0
0
0
0
0
0
0
0
0
0
0
0
0
0
0
0
0
0
0
0
0
0
0
0
0
0
0
0
0
0
0
0
0
0
0
0
0
0
0
0
0
0
0
0
0
0
0
0
0
0
0
0
0
0
0
0
0
0
0
0
0
0
0
0
0
0
0
0
0
0
0
0
0
0
0
0
0
0
0
0
0
0
0
0
0
0
0
0
0
0
0
0
0
0
0
0
0
0
0
0
0
0
0
0
0
0
0
0
0
0
0
0
0
0
0
0
0
0
0
0
0
0
0
0
0
0
0
0
0
0
0
0
0
0
0
0
0
0
0
0
0
0
0
0
0
0
0
0
0
0
0
0
0
0
0
0
0
0
0
0
0
0
0
0
0
0
0
0
0
0
0
0
0
0
0
0
0
0
0
0
0
0
0
0
0
0
0
0
0
0
0
0
0
0
0
0
0
0
0
0
0
0
0
0
0
0
0
0
0
0
0
0
0
0
0
0
0
0
0
0
0
0
0
0
0
0
0
0
0
0
0
0
0
0
0
0
0
0
0
0
0
0
0
0
0
0
0
0
0
0
0
0
0
0
0
0
0
0
0
0
0
0
0
0
0
0
0
0
0
0
0
0
0
0
0
0
0
0
0
0
0
0
0
0
0
0
0
0
0
0
0
0
0
0
0
0
0
0
0
0
0
0
0
0
0
0
0
0
0
0
0
0
0
0
0
0
0
0
0
0
0
0
0
0
0
0
0
0
0
0
0
0
0
0
0
0
0
0
0
0
0
0
0
0
0
0
0
0
0
0
0
0
0
0
0
0
0
0
0
0
0
0
0
0
0
0
0
0
0
0
0
0
0
0
0
0
0
0
0
0
0
0
0
0
0
0
0
0
0
0
0
0
0
0
0
0
0
0
0
0
0
0
0
0
0
0
0
0
0
0
0
0
0
0
0
0
0
0
0
0
0
0
0
0
0
0
0
0
0
0
0
0
0
0
0
0
0
0
0
0
0
0
0
0
0
0
0
0
0
0
0
0
0
0
0
0
0
0
0
0
0
0
0
0
0
0
0
0
0
0
0
0
0
0
0
0
0
0
0
0
0
0
0
0
0
0
0
0
0
0
0
0
0
0
0
0
0
0
0
0
0
0
0
0
0
0
0
0
0
0
0
0
0
0
0
0
0
0
0
0
0
0
0
0
0
0
0
0
0
0
0
0
0
0
0
0
0
0
0
0
0
0
0
0
0
0
0
0
0
0
0
0
0
0
0
0
0
0
0
0
0
0
0
0
0
0
0
0
0
0
0
0
0
0
0
0
0
0
0
0
0
0
0
0
0
0
0
0
0
0
0
0
0
0
0
0
0
0
0
0
0
0
0
0
0
0
0
0
0
0
0
0
0
0
0
0
0
0
0
0
0
0
0
0
0
0
0
0
0
0
0
0
0
0
0
0
0
0
0
0
0
0
0
0
0
0
0
0
0
0
0
0
0
0
0
0
0
0
0
0
0
0
0
0
0
0
0
0
0
0
0
0
0
0
0
0
0
0
0
0
0
0
0
0
0
0
0
0
0
0
0
0
0
0
0
0
0
0
0
0
0
0
0
0
0
0
0
0
0
0
0
0
0
0
0
0
0
0
0
0
0
0
0
0
0
0
0
0
0
0
0
0
0
0
0
0
0
0
0
0
0
0
0
0
0
0
0
0
0
0
0
0
0
0
0
0
0
0
0
0
0
0
0
0
0
0
0
0
0
0
0
0
0
0
0
0
0
0
0
0
0
0
0
0
0
0
0
0
0
0
0
0
0
0
0
0
0
0
0
0
0
0
0
0
0
0
0
0
0
0
0
0
0
0
0
0
0
0
0
0
0
0
0
0
0
0
0
0
0
0
0
0
0
0
0
0
0
0
0
0
0
0
0
0
0
0
0
0
0
0
0
0
0
0
0
0
0
0
0
0
0
0
0
0
0
0
0
0
0
0
0
0
0
0
0
0
0
0
0
0
0
0
0
0
0
0
0
0
0
0
0
0
0
0
0
0
0
0
0
0
0
0
0
0
0
0
0
0
0
0
0
0
0
0
0
0
0
0
0
0
0
0
0
0
0
0
0
0
0
0
0
0
0
0
0
0
0
0
0
0
0
0
0
0
0
0
0
0
0
0
0
0
0
0
0
0
0
0
0
0
0
0
0
0
0
0
0
0
0
0
0
0
0
0
0
0
0
0
0
0
0
0
0
0
0
0
0
0
0
0
0
0
0
0
0
0
0
0
0
0
0
0
0
0
0
0
0
0
0
0
0
0
0
0
0
0
0
0
0
0
0
0
0
0
0
0
0
0
0
0
0
0
0
0
0
0
0
0
0
0
0
0
0
0
0
0
0
0
0
0
0
0
0
0
0
0
0
0
0
0
0
0
0
0
0
0
0
0
0
0
0
0
0
0
0
0
0
0
0
0
0
0
0
0
0
0
0
0
0
0
0
0
0
0
0
0
0
0
0
0
0
0
0
0
0
0
0
0
0
0
0
0
0
0
0
0
0
0
0
0
0
0
0
0
0
0
0
0
0
0
0
0
0
0
0
0
0
0
0
0
0
0
0
0
0
0
0
0
0
0
0
0
0
0
0
0
0
0
0
0
0
0
0
0
0
0
0
0
0
0
0
0
0
0
0
0
0
0
0
0
0
0
0
0
0
0
0
0
0
0
0
0
0
0
0
0
0
0
0
0
0
0
0
0
0
0
0
0
0
0
0
0
0
0
0
0
0
0
0
0
0
0
0
0
0
0
0
0
0
0
0
0
0
0
0
0
0
0
0
0
0
0
0
0
0
0
0
0
0
0
0
0
0
0
0
0
0
0
0
0
0
0
0
0
0
0
0
0
0
0
0
0
0
0
0
0
0
0
0
0
0
0
0
0
0
0
0
0
0
0
0
0
0
0
0
0
0
0
0
0
0
0
0
0
0
0
0
0
0
0
0
0
0
0
0
0
0
0
0
0
0
0
0
0
0
0
0
0
0
0
0
0
0
0
0
0
0
0
0
0
0
0
0
0
0
0
0
0
0
0
0
0
0
0
0
0
0
0
0
0
0
0
0
0
0
0
0
0
0
0
0
0
0
0
0
0
0
0
0
0
0
0
0
0
0
0
0
0
0
0
0
0
0
0
0
0
0
0
0
0
0
0
0
0
0
0
0
0
0
0
0
0
0
0
0
0
0
0
0
0
0
0
0
0
0
0
0
0
0
0
0
0
0
0
0
0
0
0
0
0
0
0
0
0
0
0
0
0
0
0
0
0
0
0
0
0
0
0
0
0
0
0
0
0
0
0
0
0
0
0
0
0
0
0
0
0
0
0
0
0
0
0
0
0
0
0
0
0
0
0
0
0
0
0
0
0
0
0
0
0
0
0
0
0
0
0
0
0
0
0
0
0
0
0
0
0
0
0
0
0
0
0
0
0
0
0
0
0
0
0
0
0
0
0
0
0
0
0
0
0
0
0
0
0
0
0
0
0
0
0
0
0
0
0
0
0
0
0
0
0
0
0
0
0
0
0
0
0
0
0
0
0
0
0
0
0
0
0
0
0
0
0
0
0
0
0
0
0
0
0
0
0
0
0
0
0
0
0
0
0
0
0
0
0
0
0
0
0
0
0
0
0
0
0
0
0
0
0
0
0
0
0
0
0
0
0
0
0
0
0
0
0
0
0
0
0
0
0
0
0
0
0
0
0
0
0
0
0
0
0
0
0
0
0
0
0
0
0
0
0
0
0
0
0
0
0
0
0
0
0
0
0
0
0
0
0
0
0
0
0
0
0
0
0
0
0
0
0
0
0
0
0
0
0
0
0
0
0
0
0
0
0
0
0
0
0
0
0
0
0
0
0
0
0
0
0
0
0
0
0
0
0
0
0
0
0
0
0
0
0
0
0
0
0
0
0
0
0
0
0
0
0
0
0
0
0
0
0
0
0
0
0
0
0
0
0
0
0
0
0
0
0
0
0
0
0
0
0
0
0
0
0
0
0
0
0
0
0
0
0
0
0
0
0
0
0
0
0
0
0
0
0
0
0
0
0
0
0
0
0
0
0
0
0
0
0
0
0
0
0
0
0
0
0
0
0
0
0
0
0
0
0
0
0
0
0
0
0
0
0
0
0
0
0
0
0
0
0
0
0
0
0
0
0
0
0
0
0
0
0
0
0
0
0
0
0
0
0
0
0
0
0
0
0
0
0
0
0
0
0
0
0
0
0
0
0
0
0
0
0
0
0
0
0
0
0
0
0
0
0
0
0
0
0
0
0
0
0
0
0
0
0
0
0
0
0
0
0
0
0
0
0
0
0
0
0
0
0
0
0
0
0
0
0
0
0
0
0
0
0
0
0
0
0
0
0
0
0
0
0
0
0
0
0
0
0
0
0
0
0
0
0
0
0
0
0
0
0
0
0
0
0
0
0
0
0
0
0
0
0
0
0
0
0
0
0
0
0
0
0
0
0
0
0
0
0
0
0
0
0
0
0
0
0
0
0
0
0
0
0
0
0
0
0
0
0
0
0
0
0
0
0
0
0
0
0
0
0
0
0
0
0
0
0
0
0
0
0
0
0
0
0
0
0
0
0
0
0
0
0
0
0
0
0
0
0
0
0
0
0
0
0
0
0
0
0
0
0
0
0
0
0
0
0
0
0
0
0
0
0
0
0
0
0
0
0
0
0
0
0
0
0
0
0
0
0
0
0
0
0
0
0
0
0
0
0
0
0
0
0
0
0
0
0
0
0
0
0
0
0
0
0
0
0
0
0
0
0
0
0
0
0
0
0
0
0
0
0
0
0
0
0
0
0
0
0
0
0
0
0
0
0
0
0
0
0
0
0
0
0
0
0
0
0
0
0
0
0
0
0
0
0
0
0
0
0
0
0
0
0
0
0
0
0
0
0
0
0
0
0
0
0
0
0
0
0
0
0
0
0
0
0
0
0
0
0
0
0
0
0
0
0
0
0
0
0
0
0
0
0
0
0
0
0
0
0
0
0
0
0
0
0
0
0
0
0
0
0
0
0
0
0
0
0
0
0
0
0
0
0
0
0
0
0
0
0
0
0
0
0
0
0
0
0
0
0
0
0
0
0
0
0
0
0
0
0
0
0
0
0
0
0
0
0
0
0
0
0
0
0
0
0
0
0
0
0
0
0
0
0
0
0
0
0
0
0
0
0
0
0
0
0
0
0
0
0
0
0
0
0
0
0
0
0
0
0
0
0
0
0
0
0
0
0
0
0
0
0
0
0
0
0
0
0
0
0
0
0
0
0
0
0
0
0
0
0
0
0
0
0
0
0
0
0
0
0
0
0
0
0
0
0
0
0
0
0
0
0
0
0
0
0
0
0
0
0
0
0
0
0
0
0
0
0
0
0
0
0
0
0
0
0
0
0
0
0
0
0
0
0
0
0
0
0
0
0
0
0
0
0
0
0
0
0
0
0
0
0
0
0
0
0
0
0
0
-0.0125687
-0.0124642
0
0
0
0
0
0
0
0
0
0
0
0
0
0
0
0
0
-0.0125367
-0.012434
0
0
0
0
0
0
0
0
0
0
0
0
0
0
0
0
0
-0.0125558
-0.0123761
0
0
0
0
0
0
0
0
0
0
0
0
0
0
0
0
0
-0.0125411
-0.0123703
0
0
0
0
0
0
0
0
0
0
0
0
0
0
0
0
0
-0.0124872
-0.0123338
0
0
0
0
0
0
0
0
0
0
0
0
0
0
0
0
0
-0.012478
0
0
0
0
0
0
0
0
0
0
0
0
0
0
0
0
0
0
-0.0124247
0
0
0
0
0
0
0
0
0
0
0
0
0
0
0
0
0
0
0
0
0
0
0
0
0
0
0
0
0
0
0
0
0
0
0
0
0
0
0
0
0
0
0
0
0
0
0
0
0
0
0
0
0
0
0
0
0
0
0
0
0
0
0
0
0
0
0
0
0
0
0
0
0
0
0
0
0
0
0
0
0
0
0
0
0
0
0
0
0
0
0
0
0
0
0
0
0
0
0
0
0
0
0
0
0
0
0
0
0
0
0
0
0
0
0
0
0
0
0
0
0
0
0
0
0
0
0
0
0
0
0
0
0
0
0
0
0
0
0
0
0
0
0
0
0
0
0
0
0
0
0
0
0
0
0
0
0
0
0
0
0
0
0
0
0
0
0
0
0
0
-0.0264744
-0.02143
-0.0165511
-0.0135874
-0.0128435
-0.0125705
-0.0123957
0
0
0
0
0
0
0
0
0
0
0
0
-0.0262057
-0.0211095
-0.0164191
-0.0134848
-0.0128017
-0.0125368
-0.0123663
0
0
0
0
0
0
0
0
0
0
0
0
-0.0255764
-0.0205037
-0.0158866
-0.0133888
-0.0128071
-0.0125563
-0.0123935
0
0
0
0
0
0
0
0
0
0
0
0
-0.0245671
-0.0195269
-0.0152047
-0.0132257
-0.0127687
-0.0125405
-0.0123918
0
0
0
0
0
0
0
0
0
0
0
0
-0.0233082
-0.0183494
-0.0144232
-0.0130434
-0.0126889
-0.0124844
-0.0123524
0
0
0
0
0
0
0
0
0
0
0
0
-0.0214681
-0.0167408
-0.0137113
-0.0129215
-0.0125619
-0.0123874
0
0
0
0
0
0
0
0
0
0
0
0
0
-0.0191846
-0.0149994
-0.0131996
-0.0127777
-0.0124749
-0.0123337
0
0
0
0
0
0
0
0
0
0
0
0
0
-0.0166123
-0.0137183
-0.0128708
-0.0126056
-0.012437
0
0
0
0
0
0
0
0
0
0
0
0
0
0
-0.0143054
-0.0130687
-0.0126601
-0.0124723
-0.0123526
0
0
0
0
0
0
0
0
0
0
0
0
0
0
-0.0131544
-0.0127907
-0.0125111
-0.0123879
0
0
0
0
0
0
0
0
0
0
0
0
0
0
0
-0.0127243
-0.0125412
-0.0124265
0
0
0
0
0
0
0
0
0
0
0
0
0
0
0
0
-0.0125481
-0.0123637
0
0
0
0
0
0
0
0
0
0
0
0
0
0
0
0
0
-0.0123864
0
0
0
0
0
0
0
0
0
0
0
0
0
0
0
0
0
0
0
0
0
0
0
0
0
0
0
0
0
0
0
0
0
0
0
0
0
0
0
0
0
0
0
0
0
0
0
0
0
0
0
0
0
0
0
0
-0.0541035
-0.0490799
-0.0439185
-0.0386207
-0.0331805
-0.0276848
-0.0220505
-0.0167075
-0.013411
-0.0126472
-0.0123578
0
0
0
0
0
0
0
0
-0.0538795
-0.0488214
-0.0436485
-0.0383478
-0.0329115
-0.0273408
-0.021717
-0.0164288
-0.0133173
-0.0126108
-0.0124188
0
0
0
0
0
0
0
0
-0.0533586
-0.0483335
-0.0431439
-0.0377141
-0.0322201
-0.026614
-0.0210734
-0.0159072
-0.0131334
-0.0126246
-0.0123564
0
0
0
0
0
0
0
0
-0.0524856
-0.047424
-0.0421193
-0.0367732
-0.0313071
-0.0257206
-0.0201473
-0.0152774
-0.012998
-0.012508
-0.0123481
0
0
0
0
0
0
0
0
-0.0511652
-0.0461148
-0.0409121
-0.0354689
-0.0299611
-0.0243674
-0.0189508
-0.0144283
-0.0128342
-0.0125334
-0.0123094
0
0
0
0
0
0
0
0
-0.049463
-0.0442704
-0.0390458
-0.0337156
-0.0282609
-0.0227275
-0.0173993
-0.01363
-0.0127393
-0.0124248
-0.0123221
0
0
0
0
0
0
0
0
-0.0471799
-0.0419693
-0.0367322
-0.0313931
-0.0259463
-0.0204922
-0.0155519
-0.0130609
-0.0126147
-0.0123627
0
0
0
0
0
0
0
0
0
-0.0442669
-0.0391713
-0.0339647
-0.028617
-0.0231704
-0.0178884
-0.0139248
-0.0127845
-0.0124559
-0.012346
0
0
0
0
0
0
0
0
0
-0.0409357
-0.0357533
-0.030516
-0.0251812
-0.0198661
-0.0151703
-0.0130388
-0.0125806
-0.0123487
0
0
0
0
0
0
0
0
0
0
-0.0366389
-0.0315313
-0.0262384
-0.0209954
-0.016074
-0.0132554
-0.0127101
-0.0124539
-0.012292
0
0
0
0
0
0
0
0
0
0
-0.0316369
-0.026547
-0.0213469
-0.0165306
-0.0134676
-0.0127313
-0.0124669
-0.0123029
0
0
0
0
0
0
0
0
0
0
0
-0.0257938
-0.0208031
-0.0160468
-0.0133255
-0.0126903
-0.0124483
-0.0122993
0
0
0
0
0
0
0
0
0
0
0
0
-0.0192307
-0.0150566
-0.0130291
-0.0125995
-0.0124014
-0.0122807
0
0
0
0
0
0
0
0
0
0
0
0
0
-0.0138898
-0.0127898
-0.0125148
-0.0123664
0
0
0
0
0
0
0
0
0
0
0
0
0
0
0
-0.0127332
-0.012505
-0.0122869
0
0
0
0
0
0
0
0
0
0
0
0
0
0
0
0
-0.078969
-0.0741785
-0.0691925
-0.0640878
-0.0587083
-0.0531456
-0.0476068
-0.0417374
-0.0357702
-0.0297719
-0.0235153
-0.0176119
-0.0134003
-0.0124906
-0.0122529
0
0
0
0
-0.0786665
-0.0738655
-0.0688718
-0.0637616
-0.0583884
-0.0530288
-0.0473247
-0.0415107
-0.0355555
-0.029481
-0.0233771
-0.017444
-0.0133053
-0.0124564
-0.0122272
0
0
0
0
-0.0782796
-0.0735386
-0.0685366
-0.0633456
-0.0580383
-0.0524544
-0.0467674
-0.0409495
-0.0350031
-0.0289871
-0.0227386
-0.0169051
-0.0131749
-0.0124642
-0.0122534
0
0
0
0
-0.077311
-0.0724541
-0.0675099
-0.0624253
-0.0571457
-0.0515693
-0.0458054
-0.0400677
-0.0341152
-0.0279069
-0.0218197
-0.0160823
-0.0129859
-0.0124418
-0.012256
0
0
0
0
-0.0762941
-0.0715213
-0.0664872
-0.0612659
-0.055933
-0.0503233
-0.044617
-0.0387853
-0.0328273
-0.0267107
-0.0206065
-0.0151707
-0.0127897
-0.0123828
0
0
0
0
0
-0.0745807
-0.0696993
-0.0647109
-0.0594714
-0.0541634
-0.048677
-0.0429076
-0.0370602
-0.0310796
-0.0250012
-0.0190617
-0.0141705
-0.0125907
-0.0122925
0
0
0
0
0
-0.0725044
-0.0675768
-0.0625509
-0.0572791
-0.0519515
-0.04645
-0.0406753
-0.0348273
-0.028846
-0.0227993
-0.0170074
-0.0132099
-0.0124617
-0.012247
0
0
0
0
0
-0.0700089
-0.0650786
-0.0599589
-0.0547317
-0.0492454
-0.0435778
-0.0378431
-0.032003
-0.0260424
-0.0199841
-0.0148382
-0.0127597
-0.0123941
0
0
0
0
0
0
-0.0666554
-0.0616743
-0.0566017
-0.0512709
-0.045758
-0.0400902
-0.0344755
-0.0285709
-0.0226509
-0.0170604
-0.0132657
-0.01251
-0.012301
0
0
0
0
0
0
-0.0626186
-0.0576092
-0.0525125
-0.0471681
-0.0416538
-0.0359885
-0.0302682
-0.0244488
-0.0187538
-0.0140591
-0.0126543
-0.0123769
0
0
0
0
0
0
0
-0.0578779
-0.0528324
-0.0476194
-0.0422511
-0.0368214
-0.0311624
-0.0253793
-0.0197212
-0.0147349
-0.0127936
-0.012364
-0.0122305
0
0
0
0
0
0
0
-0.0520252
-0.0469207
-0.0416894
-0.0363238
-0.0308141
-0.0251848
-0.0196785
-0.0148064
-0.0127543
-0.0124094
-0.0121941
0
0
0
0
0
0
0
0
-0.0453162
-0.040205
-0.0347847
-0.0293951
-0.0240075
-0.0186353
-0.0142208
-0.0126782
-0.0124096
-0.0122186
0
0
0
0
0
0
0
0
0
-0.0377977
-0.0325886
-0.0273375
-0.0220398
-0.0169695
-0.0134483
-0.0125722
-0.0123055
0
0
0
0
0
0
0
0
0
0
0
-0.0316253
-0.026497
-0.0213205
-0.01625
-0.0131605
-0.0124758
-0.012242
0
0
0
0
0
0
0
0
0
0
0
0
-0.0999977
-0.0956733
-0.090965
-0.0860981
-0.0811456
-0.0758124
-0.0704478
-0.064864
-0.0589618
-0.0529276
-0.0466878
-0.040226
-0.0334703
-0.0267587
-0.0201234
-0.0143592
-0.0125171
-0.0121757
0
-0.0999822
-0.0954658
-0.0908124
-0.0859803
-0.0809372
-0.0757575
-0.0702791
-0.0645743
-0.0586274
-0.0525647
-0.0463151
-0.0398648
-0.0333284
-0.0265887
-0.0198966
-0.014203
-0.0124759
-0.0121491
0
-0.0994816
-0.0950032
-0.0903732
-0.0855263
-0.0804649
-0.0751753
-0.0697415
-0.0640061
-0.0581472
-0.0520933
-0.0458158
-0.0392404
-0.0325795
-0.0258249
-0.0192604
-0.0138621
-0.0123863
-0.0121829
0
-0.0988298
-0.094264
-0.0896854
-0.0848024
-0.0795932
-0.0743546
-0.0688043
-0.0631519
-0.0573043
-0.0512225
-0.0448271
-0.0383303
-0.0317022
-0.0249728
-0.0184017
-0.0135
-0.0123528
-0.012094
0
-0.0977561
-0.0932365
-0.0885662
-0.0836791
-0.0785756
-0.073246
-0.0677704
-0.0619971
-0.0560967
-0.0499885
-0.0435639
-0.037046
-0.0304066
-0.0236879
-0.017332
-0.0130735
-0.0122855
0
0
-0.0964455
-0.0918263
-0.0870768
-0.0821623
-0.0770315
-0.0717668
-0.0662015
-0.0604134
-0.054387
-0.0482511
-0.0419368
-0.0354475
-0.0289037
-0.0222214
-0.0159874
-0.0127071
-0.0122745
0
0
-0.0945948
-0.0899319
-0.0851403
-0.0801968
-0.0750305
-0.0697347
-0.0641377
-0.0583208
-0.0522682
-0.0461099
-0.0397804
-0.0332895
-0.0267556
-0.0201622
-0.0144487
-0.0124744
-0.0122247
0
0
-0.0922838
-0.0876073
-0.0827079
-0.0776725
-0.0725486
-0.0670433
-0.061478
-0.0556073
-0.049622
-0.0434398
-0.036974
-0.0304628
-0.0238806
-0.0175307
-0.0131415
-0.0123632
0
0
0
-0.089243
-0.0844904
-0.0796165
-0.0745818
-0.0693188
-0.0638138
-0.0581376
-0.0522277
-0.0462237
-0.0400331
-0.0335661
-0.0270659
-0.0205923
-0.0148532
-0.0125427
-0.012252
0
0
0
-0.0854926
-0.0807702
-0.0757668
-0.0706823
-0.0653729
-0.0598273
-0.0541031
-0.048161
-0.0420987
-0.0357662
-0.0294024
-0.0229974
-0.0168989
-0.0130144
-0.0123136
0
0
0
0
-0.0809899
-0.0762104
-0.0711376
-0.0658668
-0.0605828
-0.0549286
-0.0491229
-0.0432256
-0.0370704
-0.0307785
-0.0244742
-0.0182473
-0.0135442
-0.0123841
-0.0121359
0
0
0
0
-0.0754792
-0.070638
-0.0655082
-0.060166
-0.0546983
-0.0489443
-0.0432096
-0.0371492
-0.0311054
-0.0248801
-0.0188332
-0.0139072
-0.0125098
-0.0122415
0
0
0
0
0
-0.0688899
-0.0638978
-0.0587047
-0.0533164
-0.0478101
-0.0420272
-0.0361751
-0.0301927
-0.0241364
-0.0181235
-0.0136291
-0.0124525
-0.0122171
0
0
0
0
0
0
-0.061186
-0.0561198
-0.0508741
-0.0454491
-0.0398408
-0.0341527
-0.0282436
-0.0223605
-0.0167939
-0.0131475
-0.0123412
-0.0121714
0
0
0
0
0
0
0
-0.0548489
-0.0496167
-0.0443064
-0.0389514
-0.0333696
-0.0276421
-0.0218265
-0.0163768
-0.0129661
-0.0122833
-0.0121399
0
0
0
0
0
0
0
0
-0.113621
-0.109225
-0.104735
-0.100049
-0.0951218
-0.0899447
-0.0845895
-0.0789039
-0.0729658
-0.0667736
-0.0603955
-0.0536707
-0.0467707
-0.0396911
-0.0324262
-0.0251737
-0.017991
-0.013061
-0.113395
-0.109127
-0.104523
-0.0997885
-0.0948402
-0.0897261
-0.0842903
-0.0785908
-0.0726348
-0.0665051
-0.0600301
-0.0533778
-0.0465304
-0.039471
-0.0322076
-0.0248855
-0.0177968
-0.0129644
-0.113123
-0.108731
-0.104205
-0.0994481
-0.0943316
-0.0890725
-0.0835905
-0.0779466
-0.0719745
-0.0658718
-0.059528
-0.0528204
-0.0459372
-0.0388609
-0.0316275
-0.024303
-0.0173206
-0.0128694
-0.112383
-0.108074
-0.103537
-0.0986371
-0.0936013
-0.088357
-0.0828705
-0.0771326
-0.0712134
-0.0649661
-0.0585933
-0.0519801
-0.0450168
-0.0380101
-0.030689
-0.0233585
-0.0165458
-0.0126116
-0.111586
-0.107146
-0.102572
-0.0977657
-0.0926018
-0.0872946
-0.0817639
-0.0759947
-0.0700546
-0.063897
-0.0575089
-0.0507628
-0.0437642
-0.0367401
-0.0295077
-0.022223
-0.0155703
-0.0125267
-0.110324
-0.105862
-0.101141
-0.0962948
-0.0912377
-0.086018
-0.0804806
-0.0746868
-0.0686419
-0.0624208
-0.0558563
-0.0490378
-0.0421964
-0.0349984
-0.0278117
-0.0206249
-0.0143412
-0.0123299
-0.108625
-0.104223
-0.0995111
-0.0945341
-0.0894887
-0.0841428
-0.0785615
-0.0727278
-0.066645
-0.0603869
-0.0537902
-0.0469407
-0.0400611
-0.0328261
-0.0255447
-0.0185729
-0.0132394
-0.012215
-0.106492
-0.102022
-0.0972382
-0.0923094
-0.0871385
-0.0815973
-0.0759042
-0.0700714
-0.0639145
-0.0575212
-0.0511038
-0.0442849
-0.0372132
-0.0300415
-0.0228618
-0.0161655
-0.0126414
-0.0120902
-0.103696
-0.099174
-0.0944339
-0.0893561
-0.0841336
-0.0786837
-0.0729918
-0.0670444
-0.0608498
-0.0544145
-0.0478297
-0.0409325
-0.0338218
-0.0266682
-0.019657
-0.0138912
-0.0123337
0
-0.100327
-0.0956364
-0.0907981
-0.0856301
-0.0803295
-0.0748134
-0.069041
-0.0629015
-0.0566039
-0.0501071
-0.0435973
-0.0367291
-0.0296796
-0.0226598
-0.0160893
-0.0126457
-0.0121091
0
-0.0960157
-0.0912484
-0.0863245
-0.0810859
-0.0757074
-0.0700958
-0.0641555
-0.0580613
-0.0517479
-0.0452052
-0.0384546
-0.0315286
-0.0246022
-0.0179163
-0.013176
-0.0122089
0
0
-0.0907036
-0.0857637
-0.0806425
-0.0754242
-0.0699819
-0.0642188
-0.0582303
-0.0521078
-0.0457525
-0.0392488
-0.0323758
-0.0255982
-0.0189131
-0.0136727
-0.0122956
0
0
0
-0.0840831
-0.0791064
-0.0739282
-0.0685208
-0.062856
-0.0571048
-0.0510608
-0.0447704
-0.0383734
-0.0318276
-0.025184
-0.0186972
-0.0136425
-0.0123096
0
0
0
0
-0.076329
-0.0712699
-0.0660286
-0.0604827
-0.0547593
-0.0489388
-0.0427491
-0.036546
-0.0302009
-0.0236894
-0.0174944
-0.013137
-0.0122499
0
0
0
0
0
-0.0697221
-0.0645385
-0.0592672
-0.0537907
-0.0479914
-0.0420603
-0.0359667
-0.0297381
-0.0234251
-0.0173672
-0.013051
-0.0122207
0
0
0
0
0
0
-0.128144
-0.124126
-0.119971
-0.115489
-0.110805
-0.105767
-0.100529
-0.0950738
-0.0893329
-0.0833338
-0.0770386
-0.0705719
-0.0638354
-0.0566338
-0.0493343
-0.0418094
-0.0340743
-0.0262371
-0.128161
-0.124116
-0.119832
-0.115301
-0.110581
-0.105537
-0.100412
-0.0948465
-0.0890438
-0.083113
-0.0768393
-0.0702736
-0.0635203
-0.0564925
-0.0490911
-0.0415387
-0.0338012
-0.025964
-0.127656
-0.123581
-0.119342
-0.114798
-0.110125
-0.105175
-0.0998691
-0.0944642
-0.088701
-0.0825395
-0.0763206
-0.0698371
-0.0628827
-0.0558418
-0.0485603
-0.041035
-0.0332903
-0.0254434
-0.127172
-0.12308
-0.118747
-0.114233
-0.109409
-0.104519
-0.0991989
-0.0936616
-0.0878839
-0.0818018
-0.0755581
-0.0689593
-0.0620679
-0.0550125
-0.047716
-0.0401612
-0.0322899
-0.0244199
-0.126312
-0.122188
-0.117899
-0.113302
-0.108572
-0.103566
-0.0982053
-0.0927418
-0.0868497
-0.080713
-0.0744384
-0.0678982
-0.0608947
-0.0538022
-0.0464711
-0.0388993
-0.0311187
-0.0231964
-0.125362
-0.121212
-0.116818
-0.112245
-0.107335
-0.102171
-0.0969399
-0.0912787
-0.085494
-0.0793625
-0.0729495
-0.0662626
-0.0593941
-0.0522572
-0.0447604
-0.0371187
-0.0293497
-0.021627
-0.123881
-0.119686
-0.115245
-0.110619
-0.105651
-0.10043
-0.0951578
-0.0894577
-0.0836268
-0.0774511
-0.0709884
-0.0642541
-0.0573232
-0.0500139
-0.0425556
-0.0348259
-0.0270785
-0.0195033
-0.122033
-0.117791
-0.113302
-0.108561
-0.103627
-0.098347
-0.0928774
-0.087178
-0.0812145
-0.0749749
-0.0684749
-0.0617726
-0.0546336
-0.0474062
-0.0399434
-0.0321593
-0.0243995
-0.0170882
-0.119381
-0.115064
-0.110512
-0.105775
-0.100701
-0.0953654
-0.0899587
-0.0841129
-0.0780443
-0.0717453
-0.0651699
-0.0584175
-0.0512204
-0.0439632
-0.0365033
-0.0288701
-0.0211995
-0.0145603
-0.116366
-0.111834
-0.10715
-0.102234
-0.0970692
-0.0917254
-0.0861898
-0.0802907
-0.0741619
-0.067802
-0.0611798
-0.0543726
-0.0471424
-0.0398307
-0.0322221
-0.0246489
-0.0173724
-0.0127346
-0.112324
-0.10782
-0.102937
-0.0979037
-0.0926356
-0.0872105
-0.0815874
-0.0756147
-0.0694099
-0.0628475
-0.0562289
-0.0491788
-0.0420522
-0.0346233
-0.0270798
-0.0197739
-0.0137435
-0.0122119
-0.107288
-0.102693
-0.0978565
-0.0927484
-0.0872734
-0.0817655
-0.0759481
-0.0698572
-0.0635719
-0.0569293
-0.0501079
-0.0430845
-0.0358487
-0.0284657
-0.0211356
-0.0147705
-0.012289
0
-0.10091
-0.0961862
-0.0910515
-0.0858488
-0.0804136
-0.0747483
-0.0688269
-0.0627307
-0.0563017
-0.0496149
-0.0426834
-0.035721
-0.028466
-0.0213104
-0.0149176
-0.0123588
0
0
-0.0930966
-0.0882846
-0.0831514
-0.0777762
-0.0721374
-0.0663728
-0.060392
-0.054176
-0.0477206
-0.0410353
-0.034135
-0.0271792
-0.0202013
-0.0142669
-0.0123105
0
0
0
-0.0863847
-0.0814333
-0.0762548
-0.0707296
-0.0651772
-0.0594101
-0.0533293
-0.0470197
-0.0405914
-0.0339598
-0.027177
-0.0204059
-0.0143914
-0.0123044
0
0
0
0
-0.135901
-0.131871
-0.127565
-0.123135
-0.11845
-0.11329
-0.108031
-0.102514
-0.0967118
-0.0906184
-0.0842223
-0.0775208
-0.070604
-0.0633027
-0.0557068
-0.0478236
-0.0399175
-0.135846
-0.131792
-0.12751
-0.122955
-0.118244
-0.113262
-0.107873
-0.102302
-0.0964803
-0.0903692
-0.0839562
-0.0772495
-0.0702371
-0.0629287
-0.0554548
-0.0477256
-0.0396325
-0.135562
-0.131483
-0.127153
-0.122661
-0.117735
-0.112733
-0.107484
-0.10195
-0.0961153
-0.0899829
-0.0835575
-0.0768317
-0.0698185
-0.0625919
-0.0549863
-0.0470932
-0.0389329
-0.135007
-0.130854
-0.126604
-0.122045
-0.117177
-0.112149
-0.106873
-0.10129
-0.0952754
-0.0890536
-0.082568
-0.0758031
-0.0688871
-0.0616135
-0.0541112
-0.0462357
-0.0380945
-0.13432
-0.130191
-0.125808
-0.12126
-0.116277
-0.111215
-0.105904
-0.100308
-0.0944065
-0.0882078
-0.0817163
-0.0749235
-0.0678395
-0.0604715
-0.0528974
-0.0449656
-0.0367789
-0.133256
-0.129083
-0.12476
-0.120006
-0.115172
-0.110071
-0.104549
-0.0988454
-0.0928923
-0.0866543
-0.0801181
-0.0732921
-0.0661606
-0.058722
-0.0510072
-0.0431744
-0.0351279
-0.131925
-0.127662
-0.123276
-0.118456
-0.113572
-0.10844
-0.103001
-0.0971628
-0.0911266
-0.0848214
-0.0782236
-0.0713399
-0.0641542
-0.0566687
-0.0489108
-0.0410343
-0.0329721
-0.130173
-0.125906
-0.121401
-0.116615
-0.111642
-0.10629
-0.100692
-0.0949093
-0.0888456
-0.0824956
-0.0758495
-0.0689052
-0.0616697
-0.0541585
-0.0464536
-0.0384195
-0.030186
-0.127824
-0.123505
-0.118913
-0.114063
-0.108926
-0.10359
-0.0978597
-0.0919728
-0.0858396
-0.0793444
-0.0726377
-0.0656372
-0.0583605
-0.050887
-0.0430595
-0.0350003
-0.0267951
-0.124815
-0.120396
-0.115621
-0.110776
-0.105491
-0.100113
-0.0944467
-0.0883871
-0.0821447
-0.0755563
-0.0687606
-0.0616808
-0.0543315
-0.0467135
-0.0388508
-0.0308921
-0.0228274
-0.121016
-0.116389
-0.111705
-0.106606
-0.101393
-0.095752
-0.0899776
-0.0838289
-0.0774157
-0.0707998
-0.06377
-0.0565601
-0.0491099
-0.0414287
-0.0335358
-0.0255374
-0.0178928
-0.116183
-0.111454
-0.106453
-0.101258
-0.0958698
-0.090183
-0.0842359
-0.0779917
-0.0714998
-0.0648133
-0.0577406
-0.0504936
-0.0430157
-0.0353144
-0.0274755
-0.0198107
-0.0136309
-0.109698
-0.104871
-0.0997803
-0.094504
-0.0890185
-0.083166
-0.0770983
-0.0707894
-0.0642123
-0.0573571
-0.0502228
-0.0429454
-0.0354535
-0.0276081
-0.0200828
-0.0138768
-0.0121642
-0.101836
-0.0969321
-0.0917714
-0.0863478
-0.0806782
-0.0747361
-0.0685958
-0.0621191
-0.0554986
-0.0486265
-0.041382
-0.0341463
-0.026693
-0.0194098
-0.0135988
-0.0120948
0
-0.0947899
-0.0898299
-0.0845253
-0.0790732
-0.0734054
-0.0674877
-0.0613125
-0.0548784
-0.048191
-0.0412518
-0.0341645
-0.0269611
-0.0197749
-0.0138153
-0.0121162
0
0
-0.145144
-0.141285
-0.137193
-0.132861
-0.128264
-0.123393
-0.118306
-0.112851
-0.107095
-0.10117
-0.0949158
-0.0882511
-0.0814831
-0.0742385
-0.0668701
-0.0590449
-0.14492
-0.141046
-0.13695
-0.132607
-0.128077
-0.123195
-0.118014
-0.11255
-0.106922
-0.100984
-0.0946388
-0.0880885
-0.0812244
-0.073936
-0.066548
-0.0586932
-0.14474
-0.140692
-0.13651
-0.132144
-0.12766
-0.122819
-0.117672
-0.112284
-0.106513
-0.100432
-0.0942607
-0.0876228
-0.0807495
-0.0735719
-0.065973
-0.0582687
-0.144203
-0.140231
-0.13606
-0.131651
-0.126997
-0.122083
-0.117028
-0.111665
-0.105892
-0.0997983
-0.0935174
-0.0869156
-0.0798999
-0.0727789
-0.0651852
-0.0574745
-0.143615
-0.13952
-0.135287
-0.130867
-0.126323
-0.121419
-0.116209
-0.110759
-0.104925
-0.0987706
-0.0925286
-0.0858084
-0.0787391
-0.0715825
-0.0639589
-0.0562205
-0.142546
-0.138565
-0.134358
-0.129969
-0.125251
-0.120244
-0.114934
-0.109341
-0.103588
-0.0975192
-0.0910453
-0.0843732
-0.0773833
-0.0699694
-0.0624653
-0.0545078
-0.141388
-0.137326
-0.133057
-0.128536
-0.123759
-0.1187
-0.113364
-0.107847
-0.102026
-0.0957971
-0.0892512
-0.0825121
-0.0754641
-0.0679944
-0.0604352
-0.0524297
-0.139707
-0.135629
-0.131314
-0.126739
-0.12189
-0.116837
-0.111418
-0.105705
-0.0996874
-0.0934964
-0.0869911
-0.0800651
-0.0728119
-0.0654844
-0.0577031
-0.04982
-0.137659
-0.133493
-0.128946
-0.124244
-0.119295
-0.114071
-0.108576
-0.102928
-0.0969757
-0.0906112
-0.0839227
-0.0769179
-0.0698218
-0.0622626
-0.054381
-0.0464319
-0.134861
-0.13062
-0.126072
-0.121337
-0.116322
-0.11103
-0.10544
-0.0995547
-0.0934541
-0.086969
-0.0801807
-0.0730874
-0.0658256
-0.0582854
-0.0503576
-0.0423497
-0.131201
-0.12688
-0.122185
-0.117336
-0.11224
-0.106857
-0.101181
-0.0952104
-0.0889392
-0.0823613
-0.0754842
-0.0683001
-0.0608244
-0.0532788
-0.0453103
-0.0370735
-0.126551
-0.122043
-0.117251
-0.112301
-0.107003
-0.101375
-0.0955645
-0.0894897
-0.0831254
-0.0764621
-0.0695111
-0.0622659
-0.0547249
-0.04691
-0.0388418
-0.0308132
-0.120369
-0.11564
-0.110772
-0.105613
-0.100278
-0.0944701
-0.088578
-0.0824302
-0.0758957
-0.0690345
-0.0619794
-0.0546697
-0.0470924
-0.0392745
-0.031258
-0.0232116
-0.112507
-0.107698
-0.102705
-0.0973673
-0.0918795
-0.0860984
-0.0799332
-0.073714
-0.0671434
-0.0602904
-0.0532498
-0.0459533
-0.0382322
-0.0304903
-0.0227388
-0.0156676
-0.105402
-0.100367
-0.095247
-0.0899095
-0.0845128
-0.0786981
-0.0725955
-0.0662109
-0.0596333
-0.0528155
-0.0457617
-0.0384444
-0.030932
-0.0233304
-0.01627
-0.0124414
-0.152079
-0.148202
-0.144107
-0.139987
-0.135469
-0.130868
-0.12583
-0.120669
-0.115045
-0.109288
-0.103044
-0.0966685
-0.0899974
-0.0828229
-0.0755183
-0.0679229
-0.151921
-0.148034
-0.144138
-0.139872
-0.135431
-0.130712
-0.125618
-0.120435
-0.114787
-0.109039
-0.102996
-0.0964576
-0.0897649
-0.0826832
-0.0752822
-0.0676613
-0.151608
-0.147836
-0.143764
-0.139565
-0.135103
-0.130273
-0.125359
-0.119997
-0.114534
-0.108697
-0.102531
-0.0961253
-0.0892353
-0.0822151
-0.0748855
-0.0670637
-0.151127
-0.147418
-0.143329
-0.138989
-0.134599
-0.129782
-0.124866
-0.119493
-0.113981
-0.107991
-0.101864
-0.0952417
-0.088502
-0.0814683
-0.0739213
-0.0662592
-0.150587
-0.146773
-0.142643
-0.138391
-0.133873
-0.128979
-0.124004
-0.118579
-0.11303
-0.106994
-0.100853
-0.0944133
-0.0874774
-0.0804045
-0.0729396
-0.0651569
-0.149755
-0.145907
-0.141831
-0.137432
-0.132877
-0.128034
-0.122814
-0.117491
-0.111706
-0.10582
-0.0996458
-0.0929748
-0.0861381
-0.0788071
-0.0713669
-0.0636427
-0.148526
-0.144656
-0.140532
-0.136075
-0.131548
-0.126603
-0.121458
-0.116002
-0.110121
-0.104162
-0.0979182
-0.0911795
-0.0842773
-0.0768822
-0.0693802
-0.061599
-0.147037
-0.143109
-0.138931
-0.134403
-0.129604
-0.124741
-0.119445
-0.114017
-0.108124
-0.102089
-0.0955732
-0.0889072
-0.081762
-0.0744976
-0.0669414
-0.0589114
-0.145112
-0.140975
-0.13661
-0.132197
-0.12736
-0.122227
-0.117001
-0.111335
-0.105443
-0.0992437
-0.0927334
-0.0859102
-0.0788564
-0.0713448
-0.0636964
-0.0555773
-0.142607
-0.138414
-0.133967
-0.129266
-0.124295
-0.119248
-0.113751
-0.107935
-0.102019
-0.0956373
-0.0891191
-0.0821383
-0.0750054
-0.0674221
-0.0597004
-0.0515319
-0.139107
-0.134852
-0.13041
-0.125635
-0.120579
-0.115232
-0.109599
-0.103857
-0.0976672
-0.0911437
-0.0845105
-0.0774157
-0.0699819
-0.0624668
-0.0544907
-0.0464253
-0.134448
-0.130114
-0.125535
-0.120685
-0.115552
-0.110123
-0.104401
-0.0983741
-0.0920298
-0.0853828
-0.0786589
-0.0714793
-0.063972
-0.0563877
-0.048357
-0.0400372
-0.128344
-0.123908
-0.119225
-0.114064
-0.10881
-0.103299
-0.0975077
-0.0914169
-0.0850155
-0.0783046
-0.0713056
-0.0640032
-0.0564132
-0.0487923
-0.0407586
-0.0324809
-0.12058
-0.115962
-0.111118
-0.105995
-0.100594
-0.0949066
-0.0890397
-0.0828137
-0.0762757
-0.0695423
-0.0625538
-0.0552901
-0.047755
-0.039978
-0.0319908
-0.0239228
-0.113285
-0.108749
-0.103832
-0.0986265
-0.0931413
-0.0874517
-0.0815153
-0.075239
-0.0688226
-0.0619915
-0.055038
-0.0477299
-0.0401768
-0.0325151
-0.0247339
-0.0172728
-0.157222
-0.15338
-0.149491
-0.145232
-0.140935
-0.136438
-0.131602
-0.126441
-0.121087
-0.115464
-0.109442
-0.103054
-0.0964492
-0.0895628
-0.0823765
-0.0748805
-0.157035
-0.153192
-0.149328
-0.145262
-0.140793
-0.136259
-0.131494
-0.126373
-0.120925
-0.115273
-0.109328
-0.102972
-0.096252
-0.0893153
-0.0820972