/*--------------------------------*- C++ -*----------------------------------*\
| =========                 |                                                 |
| \\      /  F ield         | OpenFOAM: The Open Source CFD Toolbox           |
|  \\    /   O peration     | Version:  2412                                  |
|   \\  /    A nd           | Website:  www.openfoam.com                      |
|    \\/     M anipulation  |                                                 |
\*---------------------------------------------------------------------------*/
FoamFile
{
    version     2.0;
    format      ascii;
    arch        "LSB;label=32;scalar=64";
    class       volScalarField;
    location    "0.0250162";
    object      Vm;
}
// * * * * * * * * * * * * * * * * * * * * * * * * * * * * * * * * * * * * * //

dimensions      [0 0 0 0 0 0 0];

internalField   nonuniform List<scalar> 
8835
(
9.22642e-13
6.05574e-13
3.93764e-13
2.51585e-13
1.58797e-13
9.85572e-14
6.00168e-14
3.7346e-14
2.21241e-14
1.27319e-14
7.71197e-15
3.33974e-15
2.04426e-15
9.1072e-16
1.01047e-16
-6.08874e-17
-6.08874e-17
-6.08874e-17
9.02562e-13
5.92943e-13
3.85019e-13
2.45756e-13
1.54749e-13
9.6614e-14
5.92071e-14
3.65363e-14
2.19622e-14
1.17603e-14
5.12102e-15
1.72039e-15
-3.84756e-16
-6.08874e-17
-6.08874e-17
-6.08874e-17
-6.08874e-17
-6.08874e-17
8.59973e-13
5.63147e-13
3.63968e-13
2.31991e-13
1.46166e-13
9.11082e-14
5.59685e-14
3.39454e-14
1.92093e-14
9.49325e-15
4.63521e-15
2.85393e-15
1.07265e-15
1.01047e-16
5.86851e-16
-6.08874e-17
-6.08874e-17
-6.08874e-17
7.98438e-13
5.23473e-13
3.40002e-13
2.17255e-13
1.3726e-13
8.54405e-14
5.25678e-14
3.13544e-14
1.83996e-14
1.04649e-14
4.95908e-15
2.36813e-15
2.62982e-16
4.24916e-16
5.86851e-16
4.24916e-16
1.07265e-15
1.01047e-16
7.17957e-13
4.70845e-13
3.04214e-13
1.94422e-13
1.23495e-13
7.70199e-14
4.77098e-14
2.82777e-14
1.54848e-14
8.03584e-15
3.66361e-15
2.53006e-15
4.24916e-16
1.01047e-16
4.24916e-16
-6.08874e-17
-6.08874e-17
-6.08874e-17
6.24359e-13
4.08986e-13
2.63892e-13
1.67541e-13
1.05197e-13
6.51987e-14
4.09085e-14
2.43912e-14
1.30558e-14
6.25456e-15
2.36813e-15
4.24916e-16
4.24916e-16
1.01047e-16
1.01047e-16
2.62982e-16
1.01047e-16
-6.08874e-17
5.22502e-13
3.42916e-13
2.22113e-13
1.41308e-13
8.9165e-14
5.58065e-14
3.39454e-14
2.09906e-14
1.20842e-14
5.44489e-15
2.2062e-15
4.24916e-16
4.24916e-16
4.24916e-16
-6.08874e-17
-6.08874e-17
1.01047e-16
-6.08874e-17
4.15301e-13
2.71665e-13
1.7499e-13
1.12484e-13
7.08664e-14
4.26898e-14
2.45532e-14
1.43513e-14
8.68358e-15
3.66361e-15
7.48785e-16
1.01047e-16
4.24916e-16
1.07265e-15
-6.08874e-17
-6.08874e-17
-6.08874e-17
-2.22822e-16
3.11339e-13
2.03005e-13
1.29973e-13
8.1716e-14
5.01388e-14
3.05447e-14
1.79138e-14
9.81712e-15
4.47328e-15
1.72039e-15
4.24916e-16
-6.08874e-17
-6.08874e-17
1.01047e-16
-6.08874e-17
2.62982e-16
1.01047e-16
-6.08874e-17
2.18713e-13
1.4147e-13
9.11082e-14
5.80736e-14
3.4755e-14
2.08287e-14
1.19223e-14
5.12102e-15
2.04426e-15
4.24916e-16
1.01047e-16
-6.08874e-17
-7.08625e-16
-6.08874e-17
-6.08874e-17
4.24916e-16
-6.08874e-17
4.24916e-16
1.42765e-13
9.12702e-14
5.77497e-14
3.58886e-14
2.16383e-14
1.257e-14
6.9023e-15
3.66361e-15
9.1072e-16
5.86851e-16
1.01047e-16
1.07265e-15
2.62982e-16
5.86851e-16
1.01047e-16
-6.08874e-17
-2.22822e-16
-2.22822e-16
8.81934e-14
5.59685e-14
3.41073e-14
1.98571e-14
1.12745e-14
5.76876e-15
2.36813e-15
2.62982e-16
-3.84756e-16
-2.22822e-16
-6.08874e-17
-2.22822e-16
-7.08625e-16
1.01047e-16
-6.08874e-17
-7.08625e-16
-2.22822e-16
-6.08874e-17
5.01388e-14
3.26499e-14
1.95332e-14
1.07887e-14
5.93069e-15
2.04426e-15
2.62982e-16
5.86851e-16
-7.08625e-16
-2.22822e-16
-2.22822e-16
-2.22822e-16
-7.08625e-16
-6.08874e-17
4.24916e-16
-6.08874e-17
-7.08625e-16
-6.08874e-17
2.89254e-14
1.87235e-14
1.14365e-14
7.06423e-15
3.98748e-15
7.48785e-16
2.62982e-16
-6.08874e-17
-6.08874e-17
5.86851e-16
-6.08874e-17
1.01047e-16
-6.08874e-17
-6.08874e-17
1.01047e-16
-6.08874e-17
-6.08874e-17
-6.08874e-17
1.79138e-14
1.12745e-14
5.93069e-15
2.85393e-15
1.72039e-15
4.24916e-16
-7.08625e-16
-6.08874e-17
-6.08874e-17
4.24916e-16
-2.22822e-16
-2.22822e-16
-6.08874e-17
-6.08874e-17
-6.08874e-17
-2.22822e-16
-7.08625e-16
-6.08874e-17
6.16997e-12
4.07259e-12
2.65307e-12
1.70543e-12
1.08166e-12
6.76502e-13
4.18216e-13
2.54014e-13
1.5151e-13
8.80315e-14
5.03007e-14
2.90873e-14
1.71042e-14
9.81712e-15
5.28295e-15
1.88233e-15
9.1072e-16
1.01047e-16
6.03006e-12
3.98078e-12
2.59413e-12
1.66722e-12
1.05672e-12
6.60632e-13
4.07042e-13
2.47375e-13
1.47785e-13
8.57644e-14
4.85195e-14
2.68202e-14
1.38655e-14
7.06423e-15
2.85393e-15
2.62982e-16
1.01047e-16
-6.08874e-17
5.75315e-12
3.79471e-12
2.47106e-12
1.58657e-12
1.00555e-12
6.28569e-13
3.86639e-13
2.3523e-13
1.39851e-13
8.13922e-14
4.65763e-14
2.60106e-14
1.45132e-14
7.3881e-15
4.63521e-15
2.36813e-15
4.24916e-16
-6.08874e-17
5.34362e-12
3.52299e-12
2.29407e-12
1.47371e-12
9.34139e-13
5.82094e-13
3.57491e-13
2.16122e-13
1.28839e-13
7.52387e-14
4.30137e-14
2.35816e-14
1.257e-14
8.19777e-15
3.66361e-15
2.692e-15
2.2062e-15
5.86851e-16
4.81312e-12
3.17094e-12
2.0612e-12
1.32246e-12
8.36331e-13
5.21692e-13
3.20084e-13
1.93451e-13
1.15236e-13
6.77897e-14
3.84795e-14
2.09906e-14
1.15984e-14
6.9023e-15
3.66361e-15
1.88233e-15
4.24916e-16
5.86851e-16
4.18174e-12
2.75137e-12
1.78575e-12
1.14255e-12
7.21681e-13
4.4866e-13
2.74094e-13
1.64465e-13
9.6776e-14
5.59685e-14
3.16783e-14
1.77519e-14
9.49325e-15
4.14941e-15
1.07265e-15
4.24916e-16
1.01047e-16
9.1072e-16
3.49044e-12
2.29342e-12
1.48698e-12
9.50333e-13
5.99097e-13
3.72227e-13
2.28429e-13
1.37907e-13
8.15541e-14
4.70621e-14
2.63344e-14
1.41893e-14
7.55003e-15
4.47328e-15
1.07265e-15
4.24916e-16
1.01047e-16
-6.08874e-17
2.7776e-12
1.82122e-12
1.17785e-12
7.52125e-13
4.72464e-13
2.91907e-13
1.76772e-13
1.05844e-13
6.35794e-14
3.57266e-14
1.98571e-14
1.06268e-14
5.60682e-15
3.82554e-15
9.1072e-16
-6.08874e-17
-6.08874e-17
-2.22822e-16
2.09521e-12
1.36926e-12
8.82644e-13
5.60071e-13
3.50689e-13
2.1596e-13
1.29973e-13
7.6858e-14
4.54427e-14
2.52009e-14
1.35416e-14
7.3881e-15
3.82554e-15
5.86851e-16
1.01047e-16
2.62982e-16
1.01047e-16
-6.08874e-17
1.49055e-12
9.70898e-13
6.22901e-13
3.93602e-13
2.4608e-13
1.51024e-13
9.1594e-14
5.4511e-14
3.11925e-14
1.71042e-14
9.00745e-15
4.63521e-15
2.36813e-15
-2.22822e-16
1.01047e-16
-6.08874e-17
-6.08874e-17
1.01047e-16
9.89845e-13
6.41848e-13
4.10119e-13
2.59034e-13
1.60092e-13
9.77476e-14
5.79117e-14
3.52408e-14
1.95332e-14
1.06268e-14
5.60682e-15
2.53006e-15
1.55846e-15
7.48785e-16
1.07265e-15
-7.08625e-16
-2.22822e-16
-2.22822e-16
6.11404e-13
3.9425e-13
2.5029e-13
1.56368e-13
9.62901e-14
5.87213e-14
3.39454e-14
1.90474e-14
9.65518e-15
5.44489e-15
2.692e-15
1.07265e-15
-3.84756e-16
1.01047e-16
-6.08874e-17
-7.08625e-16
-2.22822e-16
-7.08625e-16
3.51337e-13
2.25028e-13
1.41146e-13
8.77076e-14
5.30536e-14
3.20021e-14
1.93713e-14
1.06268e-14
5.12102e-15
2.36813e-15
1.39652e-15
4.24916e-16
-6.08874e-17
1.01047e-16
-6.08874e-17
-6.08874e-17
-6.08874e-17
-6.08874e-17
1.95232e-13
1.25114e-13
7.79915e-14
4.85195e-14
2.79538e-14
1.59706e-14
9.33131e-15
6.25456e-15
2.85393e-15
5.86851e-16
5.86851e-16
-3.84756e-16
4.24916e-16
5.86851e-16
5.86851e-16
-7.08625e-16
-2.22822e-16
-2.22822e-16
1.23657e-13
7.84774e-14
4.80337e-14
2.95731e-14
1.759e-14
1.06268e-14
4.47328e-15
1.55846e-15
-6.08874e-17
-6.08874e-17
-2.22822e-16
-2.22822e-16
-6.08874e-17
-6.08874e-17
5.86851e-16
-6.08874e-17
-7.08625e-16
4.24916e-16
4.64962e-11
3.08297e-11
2.01765e-11
1.30256e-11
8.29293e-12
5.20419e-12
3.21774e-12
1.95918e-12
1.17364e-12
6.92371e-13
4.00079e-13
2.28591e-13
1.28029e-13
7.10284e-14
3.92892e-14
2.05048e-14
1.07887e-14
6.41649e-15
4.54559e-11
3.01345e-11
1.97166e-11
1.27259e-11
8.10039e-12
5.08242e-12
3.14131e-12
1.91125e-12
1.14514e-12
6.74396e-13
3.90039e-13
2.22113e-13
1.23171e-13
6.66561e-14
3.60505e-14
1.82377e-14
9.16938e-15
5.28295e-15
4.33883e-11
2.87521e-11
1.88026e-11
1.21313e-11
7.71758e-12
4.83984e-12
2.99022e-12
1.81927e-12
1.08895e-12
6.42009e-13
3.71903e-13
2.12559e-13
1.19285e-13
6.42271e-14
3.4755e-14
1.85616e-14
9.00745e-15
4.14941e-15
4.03207e-11
2.67016e-11
1.74503e-11
1.12492e-11
7.14935e-12
4.47808e-12
2.76287e-12
1.6792e-12
1.00361e-12
5.90838e-13
3.42107e-13
1.94746e-13
1.09893e-13
6.05026e-14
3.36215e-14
1.759e-14
9.16938e-15
4.63521e-15
3.63393e-11
2.40409e-11
1.56933e-11
1.01055e-11
6.41659e-12
4.01527e-12
2.47462e-12
1.50237e-12
8.97542e-13
5.27522e-13
3.04052e-13
1.72561e-13
9.61282e-14
5.40252e-14
2.94112e-14
1.59706e-14
8.52164e-15
4.31134e-15
3.1616e-11
2.08888e-11
1.36173e-11
8.75606e-12
5.54976e-12
3.46615e-12
2.13343e-12
1.29282e-12
7.71395e-13
4.52222e-13
2.60006e-13
1.45842e-13
8.02586e-14
4.33376e-14
2.30957e-14
1.11126e-14
5.44489e-15
2.85393e-15
2.64115e-11
1.742e-11
1.13357e-11
7.27452e-12
4.60115e-12
2.86812e-12
1.76001e-12
1.06433e-12
6.32131e-13
3.69636e-13
2.11749e-13
1.18799e-13
6.61703e-14
3.66982e-14
2.01809e-14
1.07887e-14
4.79715e-15
3.01587e-15
2.10615e-11
1.38602e-11
8.9988e-12
5.76092e-12
3.63407e-12
2.25812e-12
1.38221e-12
8.32768e-13
4.93516e-13
2.87535e-13
1.64788e-13
9.28895e-14
5.15962e-14
2.7468e-14
1.46752e-14
6.41649e-15
2.53006e-15
1.39652e-15
1.59307e-11
1.04546e-11
6.76718e-12
4.31857e-12
2.71526e-12
1.68195e-12
1.02644e-12
6.16262e-13
3.64616e-13
2.12073e-13
1.20418e-13
6.73039e-14
3.66982e-14
2.0019e-14
1.03029e-14
4.47328e-15
1.72039e-15
9.1072e-16
1.13506e-11
7.42237e-12
4.78689e-12
3.04253e-12
1.90688e-12
1.17575e-12
7.14394e-13
4.28418e-13
2.52071e-13
1.44385e-13
8.13922e-14
4.4633e-14
2.40674e-14
1.30558e-14
7.3881e-15
4.14941e-15
9.1072e-16
2.62982e-16
7.56374e-12
4.92534e-12
3.16284e-12
2.00275e-12
1.24878e-12
7.66537e-13
4.63396e-13
2.74742e-13
1.60578e-13
9.1756e-14
5.17582e-14
2.89254e-14
1.4999e-14
7.3881e-15
3.82554e-15
1.88233e-15
5.86851e-16
-6.08874e-17
4.68665e-12
3.03589e-12
1.93959e-12
1.22076e-12
7.57145e-13
4.62424e-13
2.78628e-13
1.64788e-13
9.49947e-14
5.38633e-14
3.03828e-14
1.69422e-14
9.49325e-15
4.63521e-15
1.07265e-15
1.01047e-16
-2.22822e-16
-6.08874e-17
2.70117e-12
1.73928e-12
1.10449e-12
6.90266e-13
4.25665e-13
2.58549e-13
1.54425e-13
9.09463e-14
5.2244e-14
3.05447e-14
1.71042e-14
9.00745e-15
5.12102e-15
2.85393e-15
9.1072e-16
-3.84756e-16
2.62982e-16
1.01047e-16
1.50059e-12
9.58429e-13
6.04279e-13
3.75951e-13
2.29886e-13
1.39041e-13
8.28496e-14
4.80337e-14
2.7306e-14
1.53229e-14
8.84551e-15
5.44489e-15
2.692e-15
1.01047e-16
1.01047e-16
-6.08874e-17
-6.08874e-17
1.01047e-16
9.46446e-13
5.99906e-13
3.75303e-13
2.30372e-13
1.39203e-13
8.25257e-14
4.86814e-14
2.7468e-14
1.40274e-14
7.22617e-15
3.33974e-15
2.04426e-15
1.23459e-15
1.01047e-16
-6.08874e-17
-2.22822e-16
-6.08874e-17
-6.08874e-17
3.51062e-10
2.3384e-10
1.53715e-10
9.96674e-11
6.37115e-11
4.01318e-11
2.48987e-11
1.52092e-11
9.14049e-12
5.40337e-12
3.1405e-12
1.79417e-12
1.00701e-12
5.56022e-13
3.02919e-13
1.62197e-13
8.54405e-14
4.33376e-14
3.43291e-10
2.28616e-10
1.50247e-10
9.73943e-11
6.22409e-11
3.91941e-11
2.43094e-11
1.48424e-11
8.91816e-12
5.2701e-12
3.06196e-12
1.74948e-12
9.81748e-13
5.40638e-13
2.92231e-13
1.54101e-13
8.00967e-14
4.07466e-14
3.27799e-10
2.18206e-10
1.43338e-10
9.28687e-11
5.93162e-11
3.73304e-11
2.31388e-11
1.41193e-11
8.47818e-12
5.00776e-12
2.90812e-12
1.65961e-12
9.30901e-13
5.11976e-13
2.76685e-13
1.4649e-13
7.60483e-14
3.88034e-14
3.04802e-10
2.02759e-10
1.33091e-10
8.61603e-11
5.49843e-11
3.45725e-11
2.14088e-11
1.30499e-11
7.82704e-12
4.61718e-12
2.67753e-12
1.52536e-12
8.54468e-13
4.70683e-13
2.54176e-13
1.35802e-13
7.15142e-14
3.7346e-14
2.7493e-10
1.82705e-10
1.19801e-10
7.74694e-11
4.93788e-11
3.10094e-11
1.91772e-11
1.16744e-11
6.99227e-12
4.11842e-12
2.38459e-12
1.35695e-12
7.58602e-13
4.1692e-13
2.25838e-13
1.19609e-13
6.14742e-14
3.13544e-14
2.39449e-10
1.58911e-10
1.04051e-10
6.71835e-11
4.27553e-11
2.68058e-11
1.6548e-11
1.00557e-11
6.01224e-12
3.53416e-12
2.04145e-12
1.15907e-12
6.4622e-13
3.549e-13
1.90698e-13
1.005e-13
5.2082e-14
2.55248e-14
2.00318e-10
1.32707e-10
8.67291e-11
5.58886e-11
3.54944e-11
2.22055e-11
1.36784e-11
8.29309e-12
4.94542e-12
2.90019e-12
1.67127e-12
9.46284e-13
5.26064e-13
2.87373e-13
1.54587e-13
8.25257e-14
4.33376e-14
2.19622e-14
1.60038e-10
1.05779e-10
6.89644e-11
4.43294e-11
2.80792e-11
1.7518e-11
1.07597e-11
6.50323e-12
3.86645e-12
2.26038e-12
1.29865e-12
7.33341e-13
4.06881e-13
2.22599e-13
1.19609e-13
6.24458e-14
3.15163e-14
1.56468e-14
1.21322e-10
7.99562e-11
5.19699e-11
3.32995e-11
2.10236e-11
1.30716e-11
8.00031e-12
4.81862e-12
2.85484e-12
1.66317e-12
9.52438e-13
5.35618e-13
2.96279e-13
1.60416e-13
8.54405e-14
4.51188e-14
2.37435e-14
1.17603e-14
8.66652e-11
5.69071e-11
3.68465e-11
2.35154e-11
1.4786e-11
9.15377e-12
5.57826e-12
3.34518e-12
1.97246e-12
1.14287e-12
6.52373e-13
3.65749e-13
2.00252e-13
1.08273e-13
5.64543e-14
2.90873e-14
1.46752e-14
7.22617e-15
5.79179e-11
3.78606e-11
2.43999e-11
1.5498e-11
9.69642e-12
5.97273e-12
3.62144e-12
2.1595e-12
1.26643e-12
7.3075e-13
4.13844e-13
2.29886e-13
1.25924e-13
6.84374e-14
3.68602e-14
1.93713e-14
9.16938e-15
4.31134e-15
3.59747e-11
2.33875e-11
1.49889e-11
9.46647e-12
5.88836e-12
3.60622e-12
2.17359e-12
1.28845e-12
7.50506e-13
4.30523e-13
2.43489e-13
1.35802e-13
7.42671e-14
4.02608e-14
2.11525e-14
9.97905e-15
4.47328e-15
1.88233e-15
2.0765e-11
1.34096e-11
8.53583e-12
5.35301e-12
3.30745e-12
2.01246e-12
1.20489e-12
7.09698e-13
4.09795e-13
2.32639e-13
1.30944e-13
7.28096e-14
3.92892e-14
2.11525e-14
1.06268e-14
5.76876e-15
3.1778e-15
1.39652e-15
1.1518e-11
7.37687e-12
4.65701e-12
2.89646e-12
1.77426e-12
1.07e-12
6.3537e-13
3.71093e-13
2.11588e-13
1.19123e-13
6.68181e-14
3.65363e-14
1.92093e-14
1.04649e-14
4.31134e-15
2.2062e-15
9.1072e-16
1.01047e-16
7.2376e-12
4.59775e-12
2.878e-12
1.7749e-12
1.07923e-12
6.45896e-13
3.80971e-13
2.21304e-13
1.25438e-13
6.97329e-14
3.89653e-14
2.18003e-14
1.12745e-14
6.74036e-15
3.66361e-15
2.2062e-15
1.23459e-15
-6.08874e-17
2.64905e-09
1.77288e-09
1.17082e-09
7.62577e-10
4.8958e-10
3.09644e-10
1.92827e-10
1.18168e-10
7.12283e-11
4.221e-11
2.4581e-11
1.40633e-11
7.90186e-12
4.35889e-12
2.35981e-12
1.25542e-12
6.5545e-13
3.36277e-13
2.59108e-09
1.73373e-09
1.14471e-09
7.45386e-10
4.7841e-10
3.0249e-10
1.8831e-10
1.1536e-10
6.95105e-11
4.11768e-11
2.39708e-11
1.37092e-11
7.70009e-12
4.24602e-12
2.29828e-12
1.22174e-12
6.38771e-13
3.28018e-13
2.47528e-09
1.65556e-09
1.0926e-09
7.11098e-10
4.56152e-10
2.88241e-10
1.79323e-10
1.09779e-10
6.60979e-11
3.91257e-11
2.276e-11
1.30062e-11
7.29833e-12
4.02191e-12
2.17488e-12
1.15453e-12
6.02497e-13
3.0972e-13
2.30306e-09
1.53934e-09
1.01515e-09
6.60164e-10
4.23114e-10
2.67118e-10
1.66018e-10
1.01529e-10
6.10651e-11
3.61063e-11
2.09771e-11
1.19719e-11
6.70986e-12
3.69237e-12
1.994e-12
1.05656e-12
5.49545e-13
2.80572e-13
2.07907e-09
1.38824e-09
9.14525e-10
5.94051e-10
3.80279e-10
2.39768e-10
1.48818e-10
9.08802e-11
5.4579e-11
3.22202e-11
1.86893e-11
1.06484e-11
5.95735e-12
3.27296e-12
1.76357e-12
9.32844e-13
4.84447e-13
2.47537e-13
1.8128e-09
1.20879e-09
7.95152e-10
5.15713e-10
3.29593e-10
2.07454e-10
1.28529e-10
7.83445e-11
4.69605e-11
2.76681e-11
1.60156e-11
9.10552e-12
5.08452e-12
2.78748e-12
1.49978e-12
7.92285e-13
4.10767e-13
2.08835e-13
1.51887e-09
1.01096e-09
6.63736e-10
4.29606e-10
2.73975e-10
1.72061e-10
1.06354e-10
6.4672e-11
3.86688e-11
2.27252e-11
1.31207e-11
7.44002e-12
4.14352e-12
2.26621e-12
1.21542e-12
6.39742e-13
3.31257e-13
1.68027e-13
1.21586e-09
8.07362e-10
5.28748e-10
3.41337e-10
2.17085e-10
1.35944e-10
8.37806e-11
5.07899e-11
3.02731e-11
1.77347e-11
1.02075e-11
5.77031e-12
3.20252e-12
1.7443e-12
9.32358e-13
4.88334e-13
2.51747e-13
1.27544e-13
9.23956e-10
6.11691e-10
3.99334e-10
2.56937e-10
1.62842e-10
1.0161e-10
6.23891e-11
3.76769e-11
2.23688e-11
1.30515e-11
7.48099e-12
4.21105e-12
2.32791e-12
1.26287e-12
6.72615e-13
3.51985e-13
1.81306e-13
9.14321e-14
6.61901e-10
4.36539e-10
2.83855e-10
1.8188e-10
1.14777e-10
7.12989e-11
4.35772e-11
2.61924e-11
1.54763e-11
8.98617e-12
5.12533e-12
2.87136e-12
1.5788e-12
8.51715e-13
4.50765e-13
2.33449e-13
1.18961e-13
5.93691e-14
4.43697e-10
2.91243e-10
1.88445e-10
1.20131e-10
7.54122e-11
4.65945e-11
2.83213e-11
1.69281e-11
9.94531e-12
5.74198e-12
3.2566e-12
1.81539e-12
9.93893e-13
5.34809e-13
2.81705e-13
1.4649e-13
7.49148e-14
3.70221e-14
2.76369e-10
1.80351e-10
1.15995e-10
7.349e-11
4.58431e-11
2.8144e-11
1.69969e-11
1.00941e-11
5.8929e-12
3.38e-12
1.9051e-12
1.05527e-12
5.73673e-13
3.05348e-13
1.58635e-13
8.1716e-14
4.10705e-14
2.0019e-14
1.59816e-10
1.03544e-10
6.61079e-11
4.15742e-11
2.57415e-11
1.56844e-11
9.40202e-12
5.54263e-12
3.21272e-12
1.82948e-12
1.02417e-12
5.62823e-13
3.02919e-13
1.5993e-13
8.30115e-14
4.12324e-14
1.98571e-14
1.0141e-14
8.86317e-11
5.69139e-11
3.60105e-11
2.24424e-11
1.37721e-11
8.31787e-12
4.94218e-12
2.88837e-12
1.65928e-12
9.36892e-13
5.19911e-13
2.84782e-13
1.53453e-13
8.07444e-14
4.10705e-14
2.05048e-14
1.0141e-14
4.79715e-15
5.55556e-11
3.53532e-11
2.21672e-11
1.36909e-11
8.32613e-12
4.98574e-12
2.9384e-12
1.70365e-12
9.71708e-13
5.45496e-13
3.01461e-13
1.63979e-13
8.73837e-14
4.52808e-14
2.37435e-14
1.11126e-14
5.93069e-15
2.692e-15
1.99717e-08
1.34324e-08
8.91422e-09
5.83381e-09
3.76268e-09
2.39025e-09
1.49456e-09
9.19274e-10
5.55886e-10
3.30295e-10
1.92744e-10
1.10415e-10
6.20719e-11
3.42342e-11
1.85196e-11
9.82548e-12
5.1127e-12
2.61e-12
1.954e-08
1.31395e-08
8.71797e-09
5.70397e-09
3.67792e-09
2.33569e-09
1.45996e-09
8.9767e-10
5.42616e-10
3.22282e-10
1.87991e-10
1.07648e-10
6.04896e-11
3.33476e-11
1.80326e-11
9.56444e-12
4.97683e-12
2.53956e-12
1.86758e-08
1.25535e-08
8.32551e-09
5.44452e-09
3.50869e-09
2.22685e-09
1.39099e-09
8.54646e-10
5.16214e-10
3.06355e-10
1.78552e-10
1.02155e-10
5.73529e-11
3.15901e-11
1.70674e-11
9.04447e-12
4.70074e-12
2.39706e-12
1.73878e-08
1.168e-08
7.74054e-09
5.05796e-09
3.25675e-09
2.065e-09
1.28859e-09
7.90876e-10
4.77153e-10
2.82839e-10
1.64642e-10
9.40763e-11
5.27485e-11
2.90162e-11
1.56556e-11
8.28499e-12
4.30092e-12
2.19043e-12
1.57101e-08
1.05424e-08
6.97917e-09
4.55522e-09
2.92943e-09
1.85503e-09
1.15595e-09
7.08425e-10
4.26753e-10
2.52558e-10
1.4677e-10
8.37225e-11
4.68607e-11
2.57307e-11
1.3858e-11
7.32003e-12
3.79326e-12
1.92809e-12
1.37141e-08
9.19024e-09
6.07505e-09
3.95889e-09
2.54169e-09
1.60665e-09
9.99314e-10
6.11243e-10
3.67466e-10
2.17014e-10
1.25842e-10
7.16257e-11
4e-11
2.19137e-11
1.17758e-11
6.20673e-12
3.20932e-12
1.62868e-12
1.15091e-08
7.69829e-09
5.07882e-09
3.30278e-09
2.11577e-09
1.33431e-09
8.27912e-10
5.05125e-10
3.02877e-10
1.78387e-10
1.03159e-10
5.85487e-11
3.26055e-11
1.78122e-11
9.54452e-12
5.01537e-12
2.58603e-12
1.30918e-12
9.23234e-09
6.16053e-09
4.05392e-09
2.62915e-09
1.67943e-09
1.05596e-09
6.53163e-10
3.97223e-10
2.37385e-10
1.39337e-10
8.02952e-11
4.54104e-11
2.51979e-11
1.37166e-11
7.32327e-12
3.83552e-12
1.97084e-12
9.94217e-13
7.03398e-09
4.67917e-09
3.06907e-09
1.98356e-09
1.26245e-09
7.90785e-10
4.8722e-10
2.95104e-10
1.75623e-10
1.02646e-10
5.88944e-11
3.31628e-11
1.83222e-11
9.93154e-12
5.28062e-12
2.75493e-12
1.41006e-12
7.08241e-13
5.05445e-09
3.34916e-09
2.18762e-09
1.40773e-09
8.91903e-10
5.56052e-10
3.40934e-10
2.05469e-10
1.21655e-10
7.0735e-11
4.03733e-11
2.26159e-11
1.24292e-11
6.70176e-12
3.54501e-12
1.83952e-12
9.36083e-13
4.67606e-13
3.39991e-09
2.24167e-09
1.45663e-09
9.32283e-10
5.87377e-10
3.64095e-10
2.21925e-10
1.32944e-10
7.82352e-11
4.52098e-11
2.5647e-11
1.42796e-11
7.80146e-12
4.1819e-12
2.20014e-12
1.13575e-12
5.74969e-13
2.85754e-13
2.12495e-09
1.39238e-09
8.98971e-10
5.71575e-10
3.57684e-10
2.20188e-10
1.33271e-10
7.92711e-11
4.63195e-11
2.65789e-11
1.49731e-11
8.27997e-12
4.49297e-12
2.39236e-12
1.25105e-12
6.43305e-13
3.25427e-13
1.61874e-13
1.23197e-09
8.01017e-10
5.13087e-10
3.23609e-10
2.00865e-10
1.22639e-10
7.36201e-11
4.3433e-11
2.51738e-11
1.43305e-11
8.01084e-12
4.39679e-12
2.36985e-12
1.25331e-12
6.51564e-13
3.32876e-13
1.67865e-13
8.41451e-14
6.837e-10
4.40215e-10
2.79208e-10
1.74359e-10
1.07157e-10
6.47833e-11
3.8514e-11
2.2508e-11
1.29272e-11
7.29412e-12
4.04263e-12
2.20079e-12
1.17672e-12
6.17881e-13
3.1895e-13
1.62359e-13
8.09064e-14
4.05847e-14
4.27978e-10
2.72817e-10
1.71297e-10
1.05894e-10
6.44296e-11
3.85677e-11
2.27075e-11
1.31464e-11
7.48196e-12
4.18611e-12
2.30265e-12
1.24489e-12
6.61442e-13
3.4486e-13
1.76448e-13
8.88412e-14
4.33376e-14
2.16383e-14
1.50395e-07
1.0168e-07
6.78259e-08
4.46117e-08
2.8915e-08
1.84553e-08
1.1591e-08
7.15833e-09
4.34411e-09
2.58893e-09
1.51433e-09
8.68899e-10
4.88848e-10
2.69579e-10
1.45681e-10
7.714e-11
4.00227e-11
2.03485e-11
1.47184e-07
9.94918e-08
6.63529e-08
4.36324e-08
2.82725e-08
1.80396e-08
1.13261e-08
6.99208e-09
4.24152e-09
2.52672e-09
1.47728e-09
8.47257e-10
4.7645e-10
2.62618e-10
1.41853e-10
7.5077e-11
3.89351e-11
1.97879e-11
1.40746e-07
9.51055e-08
6.34011e-08
4.16716e-08
2.69872e-08
1.72088e-08
1.0797e-08
6.66038e-09
4.03702e-09
2.40284e-09
1.40361e-09
8.04262e-10
4.51851e-10
2.48825e-10
1.34276e-10
7.10017e-11
3.67876e-11
1.86792e-11
1.31129e-07
8.85486e-08
5.89872e-08
3.87397e-08
2.50668e-08
1.59689e-08
1.00086e-08
6.16713e-09
3.73362e-09
2.21949e-09
1.29481e-09
7.40926e-10
4.15693e-10
2.28594e-10
1.23186e-10
6.50481e-11
3.36582e-11
1.70677e-11
1.1858e-07
7.99938e-08
5.32308e-08
3.4919e-08
2.25666e-08
1.43571e-08
8.98545e-09
5.52828e-09
3.3415e-09
1.98307e-09
1.15487e-09
6.59656e-10
3.69411e-10
2.02761e-10
1.09058e-10
5.74775e-11
2.96833e-11
1.50247e-11
1.03643e-07
6.98177e-08
4.63892e-08
3.03825e-08
1.96016e-08
1.24481e-08
7.77576e-09
4.7744e-09
2.87977e-09
1.7053e-09
9.90852e-10
5.6464e-10
3.15444e-10
1.72719e-10
9.26718e-11
4.87218e-11
2.51019e-11
1.26768e-11
8.71271e-08
5.85805e-08
3.88449e-08
2.53874e-08
1.63419e-08
1.03531e-08
6.45074e-09
3.95037e-09
2.37621e-09
1.40311e-09
8.12878e-10
4.61828e-10
2.57218e-10
1.40401e-10
7.50989e-11
3.93622e-11
2.02202e-11
1.01806e-11
7.00468e-08
4.69803e-08
3.10717e-08
2.0251e-08
1.29972e-08
8.20836e-09
5.0977e-09
3.11118e-09
1.86484e-09
1.09716e-09
6.33258e-10
3.58416e-10
1.98858e-10
1.0813e-10
5.76167e-11
3.00862e-11
1.53975e-11
7.72583e-12
5.35134e-08
3.57785e-08
2.35842e-08
1.53163e-08
9.79294e-09
6.16017e-09
3.80988e-09
2.31524e-09
1.38161e-09
8.09155e-10
4.6486e-10
2.61871e-10
1.44608e-10
7.8264e-11
4.1511e-11
2.15785e-11
1.09964e-11
5.49486e-12
3.85793e-08
2.569e-08
1.68617e-08
1.0901e-08
6.93662e-09
4.34177e-09
2.67145e-09
1.61481e-09
9.58366e-10
5.58149e-10
3.18848e-10
1.786e-10
9.80701e-11
5.27815e-11
2.78428e-11
1.43966e-11
7.2993e-12
3.62954e-12
2.60498e-08
1.72574e-08
1.12654e-08
7.24148e-09
4.58068e-09
2.8496e-09
1.74229e-09
1.04635e-09
6.16906e-10
3.56892e-10
2.02518e-10
1.12685e-10
6.147e-11
3.28715e-11
1.72322e-11
8.85679e-12
4.46496e-12
2.20905e-12
1.63463e-08
1.07583e-08
6.97504e-09
4.45199e-09
2.79577e-09
1.72632e-09
1.04751e-09
6.24262e-10
3.65205e-10
2.09648e-10
1.18056e-10
6.51943e-11
3.53033e-11
1.8745e-11
9.76038e-12
4.98526e-12
2.49859e-12
1.22935e-12
9.50901e-09
6.20643e-09
3.98963e-09
2.52437e-09
1.57126e-09
9.61539e-10
5.78196e-10
3.41481e-10
1.97995e-10
1.12666e-10
6.29015e-11
3.4451e-11
1.85082e-11
9.75536e-12
5.04598e-12
2.56223e-12
1.2776e-12
6.26464e-13
5.28627e-09
3.41379e-09
2.1709e-09
1.3587e-09
8.3648e-10
5.06318e-10
3.01184e-10
1.76001e-10
1.00999e-10
5.69032e-11
3.14679e-11
1.70806e-11
9.1005e-12
4.76e-12
2.44402e-12
1.23242e-12
6.10594e-13
2.97251e-13
3.30812e-09
2.11295e-09
1.32873e-09
8.22276e-10
5.00551e-10
2.9961e-10
1.76274e-10
1.01912e-10
5.78831e-11
3.22932e-11
1.76952e-11
9.52331e-12
5.03448e-12
2.61583e-12
1.33671e-12
6.72453e-13
3.32876e-13
1.62683e-13
1.13081e-06
7.68742e-07
5.15619e-07
3.40951e-07
2.22127e-07
1.42488e-07
8.99244e-08
5.57841e-08
3.39876e-08
2.03235e-08
1.19197e-08
6.85243e-09
3.85917e-09
2.12824e-09
1.14892e-09
6.0707e-10
3.13945e-10
1.58922e-10
1.10695e-06
7.52418e-07
5.04571e-07
3.33567e-07
2.17258e-07
1.39323e-07
8.78959e-08
5.45045e-08
3.31939e-08
1.98399e-08
1.16305e-08
6.68289e-09
3.76178e-09
2.07347e-09
1.11879e-09
5.90851e-10
3.05407e-10
1.54527e-10
1.05907e-06
7.19649e-07
4.82407e-07
3.18767e-07
2.07509e-07
1.32988e-07
8.38395e-08
5.19472e-08
3.16089e-08
1.88752e-08
1.10544e-08
6.34552e-09
3.56826e-09
1.96479e-09
1.05908e-09
5.58754e-10
2.88532e-10
1.45849e-10
9.87409e-07
6.70524e-07
4.49142e-07
2.96545e-07
1.92874e-07
1.23491e-07
7.77687e-08
4.81294e-08
2.92494e-08
1.74434e-08
1.02018e-08
5.84777e-09
3.28352e-09
1.80531e-09
9.71645e-10
5.11859e-10
2.63926e-10
1.33218e-10
8.93737e-07
6.06299e-07
4.05667e-07
2.67528e-07
1.73788e-07
1.11122e-07
6.98776e-08
4.31778e-08
2.61965e-08
1.55955e-08
9.10436e-09
5.20874e-09
2.91894e-09
1.60163e-09
8.60267e-10
4.52262e-10
2.32723e-10
1.17234e-10
7.82193e-07
5.29847e-07
3.53951e-07
2.3304e-07
1.51125e-07
9.64543e-08
6.05345e-08
3.73266e-08
2.25972e-08
1.34221e-08
7.81695e-09
4.46112e-09
2.4936e-09
1.36468e-09
7.31067e-10
3.83325e-10
1.96734e-10
9.88503e-11
6.58749e-07
4.45345e-07
2.96884e-07
1.95047e-07
1.26198e-07
8.03471e-08
5.02928e-08
3.09256e-08
1.86683e-08
1.10554e-08
6.41865e-09
3.65139e-09
2.03431e-09
1.10963e-09
5.9246e-10
3.0962e-10
1.58388e-10
7.933e-11
5.30872e-07
3.5797e-07
2.38001e-07
1.55927e-07
1.00586e-07
6.38331e-08
3.98186e-08
2.43971e-08
1.46726e-08
8.65568e-09
5.0054e-09
2.83584e-09
1.57342e-09
8.54683e-10
4.54451e-10
2.36526e-10
1.20512e-10
6.01246e-11
4.06747e-07
2.73378e-07
1.81144e-07
1.18249e-07
7.59831e-08
4.8019e-08
2.9823e-08
1.81899e-08
1.08882e-08
6.39197e-09
3.6779e-09
2.07317e-09
1.14441e-09
6.18478e-10
3.27202e-10
1.69457e-10
8.59271e-11
4.26724e-11
2.94249e-07
1.96952e-07
1.29937e-07
8.44259e-08
5.39787e-08
3.39336e-08
2.09602e-08
1.27122e-08
7.56497e-09
4.41441e-09
2.52451e-09
1.41427e-09
7.75895e-10
4.16774e-10
2.19177e-10
1.12855e-10
5.69084e-11
2.81131e-11
1.99506e-07
1.32836e-07
8.71451e-08
5.62827e-08
3.57583e-08
2.23328e-08
1.37019e-08
8.25257e-09
4.87614e-09
2.82481e-09
1.60369e-09
8.91888e-10
4.85791e-10
2.59107e-10
1.35331e-10
6.92253e-11
3.46894e-11
1.70358e-11
1.25762e-07
8.31656e-08
5.41656e-08
3.47191e-08
2.18869e-08
1.35606e-08
8.25197e-09
4.92864e-09
2.88755e-09
1.65863e-09
9.33705e-10
5.14974e-10
2.78222e-10
1.47233e-10
7.63219e-11
3.87638e-11
1.92954e-11
9.41821e-12
7.34694e-08
4.81535e-08
3.10743e-08
1.97311e-08
1.23195e-08
7.55862e-09
4.55425e-09
2.69317e-09
1.56231e-09
8.88693e-10
4.95535e-10
2.70794e-10
1.45011e-10
7.60977e-11
3.91385e-11
1.97351e-11
9.75941e-12
4.73539e-12
4.0959e-08
2.65371e-08
1.69246e-08
1.0619e-08
6.55068e-09
3.97071e-09
2.36375e-09
1.3813e-09
7.92059e-10
4.45526e-10
2.45774e-10
1.32951e-10
7.05239e-11
3.6687e-11
1.87197e-11
9.37222e-12
4.60536e-12
2.22249e-12
2.56522e-08
1.64217e-08
1.03455e-08
6.41045e-09
3.90489e-09
2.33731e-09
1.37418e-09
7.9331e-10
4.49569e-10
2.50048e-10
1.36482e-10
7.31054e-11
3.84302e-11
1.98308e-11
1.00465e-11
4.99902e-12
2.44434e-12
1.17477e-12
8.4865e-06
5.80181e-06
3.915e-06
2.60389e-06
1.70562e-06
1.09981e-06
6.97678e-07
4.34949e-07
2.66183e-07
1.59771e-07
9.39903e-08
5.41548e-08
3.05389e-08
1.68452e-08
9.08508e-09
4.78981e-09
2.46842e-09
1.24361e-09
8.30901e-06
5.68005e-06
3.8322e-06
2.54821e-06
1.66869e-06
1.07568e-06
6.82141e-07
4.25095e-07
2.60036e-07
1.56005e-07
9.17282e-08
5.2823e-08
2.97713e-08
1.64125e-08
8.8468e-09
4.66164e-09
2.4011e-09
1.20907e-09
7.95319e-06
5.43583e-06
3.66618e-06
2.43667e-06
1.5948e-06
1.02743e-06
6.51074e-07
4.05389e-07
2.47746e-07
1.48482e-07
8.7213e-08
5.01684e-08
2.82438e-08
1.55531e-08
8.37427e-09
4.40786e-09
2.26798e-09
1.14087e-09
7.42008e-06
5.06873e-06
3.41598e-06
2.26836e-06
1.48328e-06
9.54675e-07
6.0432e-07
3.75821e-07
2.29373e-07
1.37281e-07
8.05176e-08
4.6247e-08
2.59953e-08
1.42919e-08
7.68276e-09
4.03735e-09
2.07403e-09
1.04167e-09
6.72236e-06
4.58796e-06
3.08833e-06
2.04818e-06
1.33762e-06
8.59813e-07
5.43489e-07
3.37444e-07
2.05592e-07
1.22823e-07
7.19002e-08
4.12143e-08
2.31177e-08
1.26824e-08
6.80263e-09
3.56697e-09
1.82839e-09
9.16324e-10
5.89166e-06
4.01518e-06
2.698e-06
1.78609e-06
1.16442e-06
7.47135e-07
4.71335e-07
2.92016e-07
1.77511e-07
1.05798e-07
6.17815e-08
3.53222e-08
1.97591e-08
1.08096e-08
5.7817e-09
3.02302e-09
1.54517e-09
7.72233e-10
4.97162e-06
3.38133e-06
2.26693e-06
1.49733e-06
9.7396e-07
6.23407e-07
3.92216e-07
2.42289e-07
1.46838e-07
8.72438e-08
5.07808e-08
2.89342e-08
1.61289e-08
8.79221e-09
4.68576e-09
2.4412e-09
1.24336e-09
6.1924e-10
4.0172e-06
2.72468e-06
1.82148e-06
1.19973e-06
7.78099e-07
4.9642e-07
3.11195e-07
1.91504e-07
1.15602e-07
6.84046e-08
3.96462e-08
2.24908e-08
1.24812e-08
6.77327e-09
3.59362e-09
1.86392e-09
9.45213e-10
4.68767e-10
3.08799e-06
2.08696e-06
1.39022e-06
9.12396e-07
5.89444e-07
3.74433e-07
2.33633e-07
1.4308e-07
8.59418e-08
5.05916e-08
2.91651e-08
1.64543e-08
9.08078e-09
4.90066e-09
2.58583e-09
1.33399e-09
6.72942e-10
3.32061e-10
2.24225e-06
1.50874e-06
1.00065e-06
6.53675e-07
4.20131e-07
2.65393e-07
1.64632e-07
1.0022e-07
5.98249e-08
3.49906e-08
2.00379e-08
1.12292e-08
6.15561e-09
3.29994e-09
1.72984e-09
8.86732e-10
4.44593e-10
2.18111e-10
1.52692e-06
1.02194e-06
6.73984e-07
4.37563e-07
2.79347e-07
1.75225e-07
1.07918e-07
6.52097e-08
3.86283e-08
2.24154e-08
1.27343e-08
7.07949e-09
3.8502e-09
2.04805e-09
1.0655e-09
5.42234e-10
2.69998e-10
1.31603e-10
9.67319e-07
6.42956e-07
4.20859e-07
2.71025e-07
1.71576e-07
1.06703e-07
6.51411e-08
3.90069e-08
2.28932e-08
1.31609e-08
7.40746e-09
4.08036e-09
2.1992e-09
1.15965e-09
5.98284e-10
3.02065e-10
1.493e-10
7.22757e-11
5.68008e-07
3.74009e-07
2.42387e-07
1.54502e-07
9.67981e-08
5.95652e-08
3.59727e-08
2.13056e-08
1.23679e-08
7.03337e-09
3.91681e-09
2.1354e-09
1.13957e-09
5.95266e-10
3.04411e-10
1.52443e-10
7.47868e-11
3.5962e-11
3.17944e-07
2.06742e-07
1.32281e-07
8.32304e-08
5.14617e-08
3.12461e-08
1.86184e-08
1.08814e-08
6.23483e-09
3.5011e-09
1.92621e-09
1.03813e-09
5.48067e-10
2.83462e-10
1.43657e-10
7.13635e-11
3.47626e-11
1.66138e-11
1.99495e-07
1.28047e-07
8.0844e-08
5.0174e-08
3.05912e-08
1.83135e-08
1.07599e-08
6.2022e-09
3.50625e-09
1.94359e-09
1.05629e-09
5.62823e-10
2.94044e-10
1.50655e-10
7.57199e-11
3.73466e-11
1.80832e-11
8.60012e-12
6.35892e-05
4.36754e-05
2.96619e-05
1.98662e-05
1.3092e-05
8.48629e-06