/*--------------------------------*- C++ -*----------------------------------*\
| =========                 |                                                 |
| \\      /  F ield         | OpenFOAM: The Open Source CFD Toolbox           |
|  \\    /   O peration     | Version:  2312                                  |
|   \\  /    A nd           | Website:  www.openfoam.com                      |
|    \\/     M anipulation  |                                                 |
\*---------------------------------------------------------------------------*/
FoamFile
{
    version     2.0;
    format      ascii;
    arch        "LSB;label=32;scalar=64";
    class       volScalarField;
    location    "0.6";
    object      sigmaHyd;
}
// * * * * * * * * * * * * * * * * * * * * * * * * * * * * * * * * * * * * * //

dimensions      [1 -1 -2 0 0 0 0];

internalField   nonuniform List<scalar> 
1620
(
-7079.99
-7079.94
-7079.93
-7080.08
-7080.1
-7080.03
-7080.03
-7080.03
-7080.01
-7079.99
-7079.94
-7079.93
-7080.08
-7080.1
-7080.03
-7080.03
-7080.02
-7080
-7079.99
-7079.94
-7079.93
-7080.08
-7080.1
-7080.04
-7080.03
-7080.03
-7080.01
-7079.99
-7079.95
-7079.93
-7080.08
-7080.1
-7080.04
-7080.03
-7080.03
-7080.01
-22172.4
-22172.3
-22172.3
-22172.4
-22172.4
-22172.4
-22172.4
-22172.4
-22172.4
-22172.4
-22172.3
-22172.3
-22172.4
-22172.4
-22172.4
-22172.3
-22172.4
-22172.4
-22172.4
-22172.3
-22172.3
-22172.4
-22172.4
-22172.4
-22172.4
-22172.4
-22172.4
-22172.4
-22172.3
-22172.3
-22172.4
-22172.4
-22172.5
-22172.4
-22172.4
-22172.4
-40450.8
-40450.8
-40450.9
-40450.8
-40450.8
-40450.7
-40450.8
-40450.9
-40450.8
-40450.8
-40450.8
-40450.9
-40450.8
-40450.8
-40450.7
-40450.8
-40450.9
-40450.8
-40450.8
-40450.8
-40450.9
-40450.8
-40450.8
-40450.7
-40450.8
-40450.9
-40450.8
-40450.8
-40450.8
-40450.9
-40450.8
-40450.8
-40450.7
-40450.8
-40450.9
-40450.8
6439.55
6439.47
6439.57
6439.58
6439.63
6439.62
6439.42
6439.51
6439.57
6439.55
6439.47
6439.57
6439.57
6439.63
6439.62
6439.42
6439.51
6439.57
6439.55
6439.47
6439.57
6439.57
6439.63
6439.62
6439.42
6439.51
6439.57
6439.55
6439.47
6439.57
6439.57
6439.63
6439.62
6439.42
6439.51
6439.57
-4940.04
-4939.96
-4940.07
-4940.07
-4940.07
-4940.21
-4939.99
-4940
-4940.03
-4940.04
-4939.96
-4940.07
-4940.07
-4940.07
-4940.21
-4939.99
-4940
-4940.03
-4940.04
-4939.96
-4940.07
-4940.07
-4940.07
-4940.21
-4939.99
-4940
-4940.03
-4940.04
-4939.96
-4940.07
-4940.07
-4940.07
-4940.21
-4939.99
-4940
-4940.03
-21969.7
-21969.7
-21969.7
-21969.7
-21969.6
-21969.4
-21969.6
-21969.6
-21969.7
-21969.7
-21969.7
-21969.7
-21969.7
-21969.6
-21969.4
-21969.6
-21969.6
-21969.7
-21969.7
-21969.7
-21969.7
-21969.7
-21969.6
-21969.4
-21969.6
-21969.6
-21969.7
-21969.7
-21969.7
-21969.7
-21969.7
-21969.6
-21969.4
-21969.6
-21969.6
-21969.7
3500.67
3500.58
3500.65
3500.61
3500.72
3500.71
3500.54
3500.66
3500.53
3500.67
3500.58
3500.65
3500.61
3500.72
3500.71
3500.54
3500.66
3500.53
3500.67
3500.58
3500.65
3500.61
3500.72
3500.71
3500.54
3500.66
3500.53
3500.67
3500.58
3500.65
3500.61
3500.72
3500.71
3500.54
3500.66
3500.53
-5598.47
-5598.42
-5598.46
-5598.32
-5598.34
-5598.47
-5598.37
-5598.56
-5598.38
-5598.47
-5598.42
-5598.46
-5598.32
-5598.34
-5598.47
-5598.37
-5598.56
-5598.38
-5598.47
-5598.42
-5598.46
-5598.32
-5598.34
-5598.47
-5598.37
-5598.56
-5598.38
-5598.47
-5598.42
-5598.46
-5598.32
-5598.34
-5598.47
-5598.37
-5598.56
-5598.38
-22076.4
-22076.4
-22076.3
-22076.4
-22076.4
-22076.4
-22076.5
-22076.3
-22076.3
-22076.4
-22076.4
-22076.3
-22076.4
-22076.4
-22076.4
-22076.5
-22076.3
-22076.3
-22076.4
-22076.4
-22076.3
-22076.4
-22076.4
-22076.4
-22076.5
-22076.3
-22076.3
-22076.4
-22076.4
-22076.3
-22076.4
-22076.4
-22076.4
-22076.5
-22076.3
-22076.3
2752.96
2752.97
2752.91
2753
2753.03
2753.01
2753.08
2752.92
2753
2752.96
2752.97
2752.91
2753
2753.03
2753.01
2753.08
2752.92
2753
2752.96
2752.97
2752.91
2753
2753.03
2753.01
2753.08
2752.92
2753
2752.96
2752.97
2752.91
2753
2753.03
2753.01
2753.08
2752.92
2753
-5362.15
-5362.15
-5362.18
-5362.11
-5362.2
-5362.12
-5362.18
-5362.15
-5362.15
-5362.15
-5362.15
-5362.18
-5362.11
-5362.2
-5362.12
-5362.18
-5362.15
-5362.15
-5362.15
-5362.15
-5362.18
-5362.11
-5362.2
-5362.12
-5362.18
-5362.15
-5362.15
-5362.15
-5362.15
-5362.18
-5362.11
-5362.2
-5362.12
-5362.18
-5362.15
-5362.15
-20553.4
-20553.5
-20553.4
-20553.5
-20553.5
-20553.4
-20553.5
-20553.4
-20553.4
-20553.4
-20553.5
-20553.4
-20553.5
-20553.5
-20553.4
-20553.5
-20553.4
-20553.4
-20553.4
-20553.5
-20553.4
-20553.5
-20553.5
-20553.4
-20553.5
-20553.4
-20553.4
-20553.4
-20553.5
-20553.4
-20553.5
-20553.5
-20553.4
-20553.5
-20553.4
-20553.4
1775.53
1775.64
1775.46
1775.56
1775.5
1775.52
1775.68
1775.47
1775.55
1775.53
1775.64
1775.46
1775.56
1775.5
1775.52
1775.68
1775.47
1775.55
1775.53
1775.64
1775.46
1775.56
1775.5
1775.52
1775.68
1775.47
1775.55
1775.53
1775.64
1775.46
1775.56
1775.5
1775.52
1775.68
1775.47
1775.55
-5589.43
-5589.59
-5589.43
-5589.54
-5589.51
-5589.45
-5589.57
-5589.43
-5589.49
-5589.43
-5589.59
-5589.43
-5589.54
-5589.51
-5589.45
-5589.57
-5589.43
-5589.49
-5589.43
-5589.59
-5589.43
-5589.54
-5589.51
-5589.45
-5589.57
-5589.43
-5589.49
-5589.43
-5589.59
-5589.43
-5589.54
-5589.51
-5589.45
-5589.57
-5589.43
-5589.49
-19443.1
-19443
-19443.1
-19443.1
-19443
-19443.1
-19443.1
-19443.1
-19443
-19443.1
-19443
-19443.1
-19443.1
-19443
-19443.1
-19443.1
-19443.1
-19443
-19443.1
-19443
-19443.1
-19443.1
-19443
-19443.1
-19443.1
-19443.1
-19443
-19443.1
-19443
-19443.1
-19443.1
-19443
-19443.1
-19443.1
-19443.1
-19443
707.315
707.393
707.291
707.385
707.318
707.321
707.359
707.255
707.368
707.314
707.393
707.291
707.385
707.318
707.321
707.359
707.255
707.368
707.315
707.394
707.292
707.385
707.319
707.322
707.36
707.255
707.368
707.315
707.394
707.292
707.385
707.319
707.321
707.36
707.255
707.368
-5901.93
-5902.07
-5901.96
-5902
-5901.99
-5902
-5902.02
-5901.87
-5902.05
-5901.93
-5902.07
-5901.96
-5902
-5901.99
-5902
-5902.02
-5901.87
-5902.05
-5901.93
-5902.07
-5901.96
-5902
-5901.99
-5902
-5902.02
-5901.87
-5902.05
-5901.93
-5902.07
-5901.96
-5902
-5901.99
-5902
-5902.02
-5901.87
-5902.05
-18198
-18197.9
-18198.1
-18198
-18198
-18198.2
-18198
-18198.1
-18198
-18198
-18197.9
-18198.1
-18198
-18198
-18198.2
-18198
-18198.1
-18198
-18198
-18197.9
-18198.1
-18198
-18198
-18198.2
-18198
-18198.1
-18198
-18198
-18197.9
-18198.1
-18198
-18198
-18198.2
-18198
-18198.1
-18198
-701.585
-701.523
-701.724
-701.454
-701.596
-701.721
-701.533
-701.703
-701.601
-701.586
-701.523
-701.724
-701.453
-701.595
-701.721
-701.532
-701.703
-701.601
-701.585
-701.522
-701.724
-701.453
-701.595
-701.72
-701.532
-701.703
-701.601
-701.585
-701.522
-701.724
-701.453
-701.595
-701.72
-701.532
-701.703
-701.601
-6304.57
-6304.82
-6304.61
-6304.78
-6304.7
-6304.55
-6304.75
-6304.6
-6304.78
-6304.57
-6304.82
-6304.61
-6304.78
-6304.7
-6304.55
-6304.75
-6304.6
-6304.78
-6304.57
-6304.82
-6304.61
-6304.78
-6304.7
-6304.55
-6304.75
-6304.6
-6304.78
-6304.57
-6304.82
-6304.61
-6304.78
-6304.7
-6304.55
-6304.75
-6304.6
-6304.78
-16687.7
-16687.5
-16687.7
-16687.6
-16687.6
-16687.7
-16687.6
-16687.7
-16687.5
-16687.7
-16687.5
-16687.7
-16687.6
-16687.6
-16687.7
-16687.6
-16687.7
-16687.5
-16687.7
-16687.5
-16687.7
-16687.6
-16687.6
-16687.7
-16687.6
-16687.7
-16687.5
-16687.7
-16687.5
-16687.7
-16687.6
-16687.6
-16687.7
-16687.6
-16687.7
-16687.5
-2528.41
-2528.49
-2528.53
-2528.39
-2528.53
-2528.53
-2528.5
-2528.54
-2528.55
-2528.41
-2528.49
-2528.53
-2528.39
-2528.53
-2528.53
-2528.5
-2528.54
-2528.55
-2528.41
-2528.49
-2528.53
-2528.39
-2528.53
-2528.53
-2528.5
-2528.54
-2528.55
-2528.41
-2528.49
-2528.53
-2528.39
-2528.53
-2528.53
-2528.5
-2528.54
-2528.55
-6739.33
-6739.33
-6739.22
-6739.38
-6739.29
-6739.19
-6739.31
-6739.29
-6739.18
-6739.33
-6739.33
-6739.22
-6739.38
-6739.29
-6739.19
-6739.31
-6739.29
-6739.18
-6739.33
-6739.33
-6739.22
-6739.38
-6739.29
-6739.19
-6739.31
-6739.29
-6739.18
-6739.33
-6739.33
-6739.22
-6739.38
-6739.29
-6739.19
-6739.31
-6739.29
-6739.18
-14685.1
-14685
-14685
-14685
-14685
-14685.1
-14685.1
-14685.1
-14685
-14685.1
-14685
-14685
-14685
-14685
-14685.1
-14685.1
-14685.1
-14685
-14685.1
-14685
-14685
-14685
-14685
-14685.1
-14685.1
-14685.1
-14685
-14685.1
-14685
-14685
-14685
-14685
-14685.1
-14685.1
-14685.1
-14685
-4710.44
-4710.41
-4710.34
-4710.37
-4710.43
-4710.46
-4710.47
-4710.4
-4710.33
-4710.44
-4710.41
-4710.34
-4710.37
-4710.43
-4710.46
-4710.47
-4710.4
-4710.33
-4710.44
-4710.41
-4710.34
-4710.37
-4710.43
-4710.46
-4710.46
-4710.4
-4710.33
-4710.44
-4710.41
-4710.34
-4710.37
-4710.43
-4710.46
-4710.46
-4710.4
-4710.33
-7113
-7112.97
-7113
-7112.86
-7112.95
-7112.99
-7112.89
-7113.01
-7112.98
-7113
-7112.97
-7113
-7112.86
-7112.95
-7112.99
-7112.89
-7113.01
-7112.97
-7113
-7112.97
-7113
-7112.86
-7112.95
-7112.99
-7112.89
-7113.01
-7112.98
-7113
-7112.97
-7113
-7112.86
-7112.95
-7112.99
-7112.89
-7113.01
-7112.98
-12012.3
-12012.4
-12012.3
-12012.4
-12012.4
-12012.4
-12012.3
-12012.3
-12012.5
-12012.3
-12012.4
-12012.3
-12012.4
-12012.4
-12012.4
-12012.3
-12012.3
-12012.5
-12012.3
-12012.4
-12012.3
-12012.4
-12012.4
-12012.4
-12012.3
-12012.3
-12012.5
-12012.3
-12012.4
-12012.3
-12012.4
-12012.4
-12012.4
-12012.3
-12012.3
-12012.5
-6958.06
-6958.12
-6958.04
-6957.93
-6958.01
-6958.06
-6958.1
-6957.97
-6957.98
-6958.06
-6958.12
-6958.04
-6957.93
-6958.01
-6958.06
-6958.1
-6957.97
-6957.98
-6958.06
-6958.12
-6958.04
-6957.93
-6958.01
-6958.06
-6958.1
-6957.97
-6957.98
-6958.06
-6958.12
-6958.04
-6957.93
-6958.01
-6958.06
-6958.1
-6957.97
-6957.98
-7270.29
-7270.25
-7270.36
-7270.39
-7270.31
-7270.41
-7270.29
-7270.32
-7270.39
-7270.29
-7270.25
-7270.36
-7270.39
-7270.31
-7270.41
-7270.29
-7270.32
-7270.39
-7270.29
-7270.25
-7270.36
-7270.39
-7270.31
-7270.41
-7270.29
-7270.32
-7270.39
-7270.29
-7270.25
-7270.36
-7270.39
-7270.31
-7270.41
-7270.29
-7270.32
-7270.39
-8692.22
-8692.32
-8692.27
-8692.35
-8692.24
-8692.2
-8692.18
-8692.26
-8692.34
-8692.22
-8692.32
-8692.27
-8692.35
-8692.24
-8692.2
-8692.18
-8692.26
-8692.34
-8692.22
-8692.32
-8692.27
-8692.35
-8692.25
-8692.2
-8692.18
-8692.27
-8692.34
-8692.22
-8692.32
-8692.27
-8692.35
-8692.25
-8692.2
-8692.18
-8692.26
-8692.34
-8610.41
-8610.44
-8610.32
-8610.35
-8610.37
-8610.38
-8610.33
-8610.46
-8610.46
-8610.41
-8610.44
-8610.32
-8610.35
-8610.37
-8610.38
-8610.33
-8610.46
-8610.45
-8610.41
-8610.44
-8610.32
-8610.35
-8610.37
-8610.38
-8610.33
-8610.46
-8610.45
-8610.41
-8610.44
-8610.32
-8610.35
-8610.37
-8610.38
-8610.33
-8610.46
-8610.45
-6962.37
-6962.22
-6962.35
-6962.33
-6962.36
-6962.31
-6962.33
-6962.44
-6962.32
-6962.37
-6962.22
-6962.35
-6962.33
-6962.36
-6962.31
-6962.33
-6962.44
-6962.32
-6962.37
-6962.22
-6962.35
-6962.33
-6962.36
-6962.31
-6962.33
-6962.44
-6962.32
-6962.37
-6962.22
-6962.35
-6962.33
-6962.36
-6962.31
-6962.33
-6962.44
-6962.32
-5180.21
-5180.33
-5180.24
-5180.35
-5180.3
-5180.29
-5180.36
-5180.24
-5180.29
-5180.2
-5180.33
-5180.25
-5180.35
-5180.3
-5180.29
-5180.36
-5180.24
-5180.29
-5180.21
-5180.34
-5180.25
-5180.35
-5180.3
-5180.29
-5180.36
-5180.24
-5180.29
-5180.21
-5180.34
-5180.25
-5180.35
-5180.3
-5180.29
-5180.36
-5180.24
-5180.29
-8385.16
-8385
-8384.91
-8385.04
-8385
-8385
-8384.94
-8385.1
-8385.34
-8385.17
-8385.01
-8384.91
-8385.04
-8385
-8385
-8384.94
-8385.1
-8385.34
-8385.17
-8385
-8384.91
-8385.04
-8385
-8385
-8384.94
-8385.1
-8385.34
-8385.17
-8385.01
-8384.91
-8385.04
-8385
-8385
-8384.94
-8385.1
-8385.34
-5702.08
-5702
-5702.08
-5702.15
-5702.09
-5702.12
-5702.13
-5702.17
-5702.1
-5702.08
-5702
-5702.08
-5702.15
-5702.08
-5702.12
-5702.13
-5702.17
-5702.1
-5702.08
-5702
-5702.08
-5702.15
-5702.09
-5702.12
-5702.13
-5702.17
-5702.1
-5702.08
-5702
-5702.08
-5702.15
-5702.09
-5702.12
-5702.13
-5702.17
-5702.1
-2433.53
-2433.68
-2433.63
-2433.67
-2433.63
-2433.67
-2433.56
-2433.46
-2433.46
-2433.52
-2433.68
-2433.63
-2433.67
-2433.64
-2433.67
-2433.56
-2433.46
-2433.46
-2433.52
-2433.68
-2433.63
-2433.67
-2433.64
-2433.67
-2433.56
-2433.46
-2433.46
-2433.53
-2433.68
-2433.63
-2433.67
-2433.64
-2433.67
-2433.56
-2433.46
-2433.47
-4325.06
-4324.77
-4324.83
-4324.98
-4324.72
-4324.7
-4324.98
-4325.13
-4325.33
-4325.06
-4324.77
-4324.82
-4324.97
-4324.72
-4324.69
-4324.98
-4325.12
-4325.32
-4325.06
-4324.77
-4324.82
-4324.97
-4324.72
-4324.69
-4324.98
-4325.13
-4325.33
-4325.06
-4324.77
-4324.83
-4324.98
-4324.72
-4324.7
-4324.98
-4325.12
-4325.32
-3069.69
-3069.6
-3069.62
-3069.6
-3069.67
-3069.6
-3069.6
-3069.65
-3069.64
-3069.69
-3069.6
-3069.62
-3069.61
-3069.67
-3069.61
-3069.6
-3069.65
-3069.64
-3069.69
-3069.61
-3069.62
-3069.61
-3069.67
-3069.61
-3069.6
-3069.65
-3069.64
-3069.69
-3069.61
-3069.62
-3069.61
-3069.67
-3069.61
-3069.6
-3069.65
-3069.64
-2702
-2702.32
-2702.28
-2702.34
-2702.27
-2702.26
-2702.19
-2701.9
-2701.92
-2702
-2702.32
-2702.29
-2702.34
-2702.27
-2702.26
-2702.19
-2701.91
-2701.92
-2702
-2702.32
-2702.29
-2702.34
-2702.27
-2702.26
-2702.19
-2701.91
-2701.92
-2702
-2702.32
-2702.28
-2702.34
-2702.27
-2702.26
-2702.2
-2701.91
-2701.92
755.015
756.098
759.403
757.809
754.122
757.139
759.582
756.14
754.483
754.978
756.06
759.375
757.796
754.12
757.139
759.577
756.128
754.47
754.965
756.05
759.369
757.791
754.112
757.13
759.568
756.124
754.468
754.962
756.045
759.36
757.778
754.102
757.125
759.571
756.148
754.511
3527.06
3526.75
3526.12
3526.67
3526.77
3526.57
3526.09
3526.76
3526.94
3527.07
3526.76
3526.13
3526.67
3526.77
3526.57
3526.09
3526.76
3526.94
3527.07
3526.76
3526.12
3526.67
3526.77
3526.56
3526.09
3526.76
3526.94
3527.07
3526.76
3526.13
3526.67
3526.78
3526.57
3526.09
3526.75
3526.94
-6197.48
-6197.84
-6197.93
-6197.79
-6197.79
-6197.88
-6197.73
-6197.28
-6197.35
-6197.48
-6197.84
-6197.93
-6197.79
-6197.79
-6197.89
-6197.73
-6197.28
-6197.35
-6197.48
-6197.84
-6197.93
-6197.79
-6197.79
-6197.89
-6197.73
-6197.28
-6197.34
-6197.47
-6197.83
-6197.92
-6197.79
-6197.78
-6197.88
-6197.73
-6197.29
-6197.36
33323.5
33329.4
33295.9
33304.2
33336.3
33314.5
33292.9
33317.8
33317.2
33323.6
33329.6
33296
33304.3
33336.4
33314.5
33292.9
33317.9
33317.3
33323.6
33329.7
33296
33304.3
33336.4
33314.5
33292.9
33317.9
33317.2
33323.6
33329.6
33296
33304.3
33336.4
33314.5
33292.9
33317.8
33317.1
20195.9
20193.3
20192.6
20193
20196.4
20191.5
20193.1
20194.5
20196
20196
20193.4
20192.7
20193
20196.4
20191.6
20193.1
20194.6
20196
20196
20193.4
20192.7
20193
20196.4
20191.6
20193.1
20194.6
20196
20196
20193.4
20192.7
20193
20196.4
20191.6
20193.1
20194.5
20195.9
-47849.1
-47848.3
-47850.6
-47848.6
-47849.9
-47848.7
-47850.3
-47848.1
-47849.1
-47849.1
-47848.3
-47850.6
-47848.7
-47849.9
-47848.7
-47850.3
-47848.1
-47849.2
-47849.1
-47848.3
-47850.6
-47848.7
-47849.9
-47848.7
-47850.3
-47848.1
-47849.2
-47849.1
-47848.3
-47850.6
-47848.7
-47849.9
-47848.7
-47850.3
-47848.1
-47849.2
)
;

boundaryField
{
    fixed
    {
        type            zeroGradient;
    }
    inside
    {
        type            zeroGradient;
    }
    outside
    {
        type            zeroGradient;
    }
}


// ************************************************************************* //
