/*--------------------------------*- C++ -*----------------------------------*\
| =========                 |                                                 |
| \\      /  F ield         | OpenFOAM: The Open Source CFD Toolbox           |
|  \\    /   O peration     | Version:  2312                                  |
|   \\  /    A nd           | Website:  www.openfoam.com                      |
|    \\/     M anipulation  |                                                 |
\*---------------------------------------------------------------------------*/
FoamFile
{
    version     2.0;
    format      ascii;
    arch        "LSB;label=32;scalar=64";
    class       volVectorField;
    location    "0.6";
    object      traction;
}
// * * * * * * * * * * * * * * * * * * * * * * * * * * * * * * * * * * * * * //

dimensions      [1 -1 -2 0 0 0 0];

internalField   uniform (0 0 0);

boundaryField
{
    fixed
    {
        type            calculated;
        value           nonuniform List<vector> 
108
(
(-1642.27 13431.1 20034.2)
(-3949.6 12941.8 20034.2)
(-6136.94 12059.4 20034.2)
(-8137.76 10810.5 20034.2)
(-9891.31 9233.11 20034.2)
(-11344.4 7375.27 20034.2)
(-12452.8 5293.33 20034.1)
(-13182.8 3050.49 20034.2)
(-13512.2 714.985 20034.2)
(-13431.1 -1642.27 20034.2)
(-12941.8 -3949.6 20034.2)
(-12059.4 -6136.94 20034.2)
(-10810.5 -8137.76 20034.2)
(-9233.11 -9891.31 20034.2)
(-7375.27 -11344.4 20034.2)
(-5293.33 -12452.8 20034.1)
(-3050.49 -13182.8 20034.2)
(-714.985 -13512.2 20034.2)
(1642.27 -13431.1 20034.2)
(3949.6 -12941.8 20034.2)
(6136.94 -12059.4 20034.2)
(8137.76 -10810.5 20034.2)
(9891.31 -9233.11 20034.2)
(11344.4 -7375.27 20034.2)
(12452.8 -5293.33 20034.1)
(13182.8 -3050.49 20034.2)
(13512.2 -714.985 20034.2)
(13431.1 1642.27 20034.2)
(12941.8 3949.6 20034.2)
(12059.4 6136.94 20034.2)
(10810.5 8137.76 20034.2)
(9233.11 9891.31 20034.2)
(7375.27 11344.4 20034.2)
(5293.33 12452.8 20034.1)
(3050.49 13182.8 20034.2)
(714.985 13512.2 20034.2)
(-783.891 3526.96 -22123)
(-1384.43 3337.26 -22122.9)
(-1942.89 3046.12 -22122.9)
(-2442.41 2662.57 -22122.9)
(-2867.76 2198.11 -22122.9)
(-3205.77 1666.66 -22123)
(-3446.35 1084.6 -22122.9)
(-3582.36 469.679 -22123)
(-3609.5 -159.531 -22123)
(-3526.96 -783.89 -22123)
(-3337.26 -1384.43 -22122.9)
(-3046.12 -1942.89 -22122.9)
(-2662.57 -2442.41 -22122.9)
(-2198.11 -2867.75 -22122.9)
(-1666.66 -3205.77 -22123)
(-1084.6 -3446.35 -22122.9)
(-469.679 -3582.36 -22123)
(159.531 -3609.5 -22123)
(783.89 -3526.96 -22123)
(1384.43 -3337.26 -22122.9)
(1942.89 -3046.12 -22122.9)
(2442.41 -2662.57 -22122.9)
(2867.75 -2198.11 -22122.9)
(3205.77 -1666.66 -22123)
(3446.35 -1084.6 -22122.9)
(3582.36 -469.679 -22123)
(3609.5 159.531 -22123)
(3526.96 783.89 -22123)
(3337.26 1384.43 -22122.9)
(3046.12 1942.89 -22122.9)
(2662.57 2442.41 -22122.9)
(2198.11 2867.75 -22122.9)
(1666.66 3205.77 -22123)
(1084.6 3446.35 -22122.9)
(469.679 3582.36 -22123)
(-159.531 3609.5 -22123)
(1204.86 -19076.4 -17732.4)
(4499.12 -18577.3 -17732.4)
(7656.73 -17513.8 -17732.5)
(10581.7 -15918.1 -17732.4)
(13185.1 -13838.9 -17732.6)
(15387.8 -11339.1 -17732.4)
(17123 -8494.74 -17732.4)
(18338 -5392.26 -17732.5)
(18995.8 -2126 -17732.5)
(19076.4 1204.86 -17732.4)
(18577.3 4499.12 -17732.4)
(17513.8 7656.73 -17732.5)
(15918.1 10581.7 -17732.4)
(13838.9 13185.1 -17732.6)
(11339.1 15387.8 -17732.4)
(8494.74 17123 -17732.4)
(5392.26 18338 -17732.5)
(2126 18995.8 -17732.5)
(-1204.86 19076.4 -17732.4)
(-4499.12 18577.3 -17732.4)
(-7656.73 17513.8 -17732.5)
(-10581.7 15918.1 -17732.4)
(-13185.1 13838.9 -17732.6)
(-15387.8 11339.1 -17732.4)
(-17123 8494.74 -17732.4)
(-18338 5392.26 -17732.5)
(-18995.8 2126 -17732.5)
(-19076.4 -1204.86 -17732.4)
(-18577.3 -4499.12 -17732.4)
(-17513.8 -7656.73 -17732.5)
(-15918.1 -10581.7 -17732.4)
(-13838.9 -13185.1 -17732.6)
(-11339.1 -15387.8 -17732.4)
(-8494.74 -17123 -17732.4)
(-5392.26 -18338 -17732.5)
(-2126 -18995.8 -17732.5)
)
;
    }
    inside
    {
        type            calculated;
        value           nonuniform List<vector> 
540
(
(39377.9 5568.05 2317.16)
(37812.9 12321.1 2317.1)
(35098.8 18700.5 2317.17)
(31318.4 24511 2317.13)
(26586.3 29577 2317.14)
(21046.2 33744.3 2317.13)
(14867.2 36886.2 2317.11)
(8235.62 38907.7 2317.15)
(1354.58 39746.6 2317.15)
(-5568.05 39377.9 2317.16)
(-12321.1 37812.9 2317.09)
(-18700.5 35098.8 2317.17)
(-24511 31318.4 2317.13)
(-29577 26586.3 2317.14)
(-33744.3 21046.2 2317.12)
(-36886.2 14867.2 2317.11)
(-38907.7 8235.62 2317.15)
(-39746.6 1354.58 2317.15)
(-39377.9 -5568.05 2317.15)
(-37812.9 -12321.1 2317.09)
(-35098.8 -18700.5 2317.17)
(-31318.4 -24511 2317.13)
(-26586.3 -29577 2317.14)
(-21046.2 -33744.3 2317.13)
(-14867.2 -36886.2 2317.11)
(-8235.62 -38907.7 2317.15)
(-1354.58 -39746.6 2317.15)
(5568.05 -39377.9 2317.16)
(12321.1 -37812.9 2317.1)
(18700.5 -35098.8 2317.17)
(24511 -31318.4 2317.13)
(29577 -26586.3 2317.14)
(33744.3 -21046.2 2317.13)
(36886.2 -14867.2 2317.11)
(38907.7 -8235.62 2317.15)
(39746.6 -1354.58 2317.15)
(20731.2 5403.49 298.833)
(19478 8921.16 298.864)
(17632.9 12168 298.846)
(15252 15045 298.813)
(12407.7 17464.9 298.81)
(9186.4 19354 298.778)
(5686.09 20655.4 298.821)
(2012.91 21329 298.828)
(-1721.22 21354.5 298.874)
(-5403.49 20731.2 298.833)
(-8921.16 19478 298.864)
(-12168 17632.9 298.846)
(-15045 15252 298.813)
(-17464.9 12407.7 298.81)
(-19354 9186.4 298.779)
(-20655.4 5686.09 298.821)
(-21329 2012.91 298.828)
(-21354.5 -1721.22 298.874)
(-20731.2 -5403.49 298.833)
(-19478 -8921.15 298.864)
(-17632.9 -12168 298.846)
(-15252 -15045 298.813)
(-12407.7 -17464.9 298.81)
(-9186.4 -19354 298.779)
(-5686.09 -20655.4 298.821)
(-2012.91 -21329 298.828)
(1721.22 -21354.5 298.874)
(5403.49 -20731.2 298.833)
(8921.16 -19478 298.864)
(12168 -17632.9 298.846)
(15045 -15252 298.813)
(17464.9 -12407.7 298.81)
(19354 -9186.4 298.779)
(20655.4 -5686.09 298.821)
(21329 -2012.91 298.828)
(21354.5 1721.22 298.874)
(19881 7620.78 -653.181)
(18255.6 10957.2 -653.186)
(16075.5 13960.8 -653.194)
(13407.1 16540.2 -653.166)
(10331.2 18617.1 -653.17)
(6941.39 20128.3 -653.173)
(3340.73 21027.9 -653.185)
(-361.519 21288.3 -653.212)
(-4052.64 20902.2 -653.178)
(-7620.78 19880.9 -653.181)
(-10957.2 18255.6 -653.186)
(-13960.8 16075.5 -653.194)
(-16540.2 13407.1 -653.166)
(-18617.1 10331.2 -653.17)
(-20128.3 6941.39 -653.172)
(-21027.9 3340.73 -653.185)
(-21288.3 -361.519 -653.212)
(-20902.2 -4052.64 -653.178)
(-19880.9 -7620.78 -653.181)
(-18255.6 -10957.2 -653.186)
(-16075.5 -13960.8 -653.194)
(-13407.1 -16540.2 -653.166)
(-10331.2 -18617.1 -653.17)
(-6941.39 -20128.3 -653.172)
(-3340.73 -21027.9 -653.185)
(361.519 -21288.3 -653.212)
(4052.64 -20902.2 -653.178)
(7620.78 -19881 -653.181)
(10957.2 -18255.6 -653.186)
(13960.8 -16075.5 -653.194)
(16540.2 -13407.1 -653.166)
(18617.1 -10331.2 -653.17)
(20128.3 -6941.39 -653.173)
(21027.9 -3340.73 -653.185)
(21288.3 361.519 -653.212)
(20902.2 4052.64 -653.178)
(17543.4 9041.53 -1534.94)
(15706.9 11950.7 -1534.9)
(13393 14496.5 -1534.94)
(10672.3 16602 -1534.96)
(7627.23 18203 -1534.94)
(4350.43 19250.9 -1534.96)
(941.457 19713.9 -1534.94)
(-2496.1 19577.9 -1534.9)
(-5857.92 18846.9 -1534.96)
(-9041.53 17543.4 -1534.94)
(-11950.7 15706.9 -1534.9)
(-14496.5 13393 -1534.94)
(-16602 10672.3 -1534.96)
(-18203 7627.23 -1534.94)
(-19250.9 4350.43 -1534.96)
(-19713.9 941.457 -1534.94)
(-19577.9 -2496.1 -1534.9)
(-18846.9 -5857.92 -1534.96)
(-17543.4 -9041.53 -1534.94)
(-15706.9 -11950.7 -1534.9)
(-13393 -14496.5 -1534.94)
(-10672.3 -16602 -1534.96)
(-7627.23 -18203 -1534.94)
(-4350.43 -19250.9 -1534.96)
(-941.457 -19713.9 -1534.94)
(2496.1 -19577.9 -1534.9)
(5857.92 -18846.9 -1534.96)
(9041.53 -17543.4 -1534.94)
(11950.7 -15706.9 -1534.9)
(14496.5 -13393 -1534.94)
(16602 -10672.3 -1534.96)
(18203 -7627.23 -1534.94)
(19250.9 -4350.43 -1534.96)
(19713.9 -941.457 -1534.94)
(19577.9 2496.1 -1534.9)
(18846.9 5857.92 -1534.96)
(15716.2 10136 -2110.09)
(13717.2 12711.1 -2110.12)
(11301.6 14899.9 -2110.11)
(8542.53 16636.1 -2110.11)
(5523.92 17866.7 -2110.11)
(2337.49 18554.5 -2110.11)
(-919.998 18678.6 -2110.12)
(-4149.47 18235.1 -2110.11)
(-7253 17237.4 -2110.11)
(-10136 15716.2 -2110.09)
(-12711.1 13717.2 -2110.12)
(-14899.9 11301.6 -2110.11)
(-16636.1 8542.53 -2110.11)
(-17866.7 5523.92 -2110.11)
(-18554.5 2337.49 -2110.11)
(-18678.6 -919.997 -2110.12)
(-18235.1 -4149.47 -2110.11)
(-17237.4 -7253 -2110.11)
(-15716.2 -10136 -2110.09)
(-13717.2 -12711.1 -2110.12)
(-11301.6 -14899.9 -2110.11)
(-8542.53 -16636.1 -2110.11)
(-5523.92 -17866.7 -2110.11)
(-2337.49 -18554.5 -2110.11)
(919.997 -18678.6 -2110.12)
(4149.47 -18235.1 -2110.11)
(7253 -17237.4 -2110.11)
(10136 -15716.2 -2110.09)
(12711.1 -13717.2 -2110.12)
(14899.9 -11301.6 -2110.11)
(16636.1 -8542.53 -2110.11)
(17866.7 -5523.92 -2110.11)
(18554.5 -2337.49 -2110.11)
(18678.6 919.997 -2110.12)
(18235.1 4149.47 -2110.12)
(17237.4 7253 -2110.11)
(13875.4 10723.5 -2411)
(11802.4 12970 -2411)
(9370.92 14822.6 -2411.02)
(6654.65 16224.5 -2410.97)
(3736.21 17133.7 -2410.97)
(704.224 17522.3 -2411)
(-2349.12 17378.2 -2411.01)
(-5331.17 16706.4 -2411.02)
(-8151.24 15526.7 -2411.02)
(-10723.5 13875.4 -2411)
(-12970 11802.4 -2411)
(-14822.6 9370.92 -2411.02)
(-16224.5 6654.65 -2410.97)
(-17133.7 3736.21 -2410.97)
(-17522.3 704.224 -2411)
(-17378.2 -2349.12 -2411.01)
(-16706.4 -5331.17 -2411.02)
(-15526.7 -8151.24 -2411.02)
(-13875.4 -10723.5 -2411)
(-11802.4 -12970 -2411)
(-9370.92 -14822.6 -2411.02)
(-6654.65 -16224.5 -2410.97)
(-3736.21 -17133.7 -2410.97)
(-704.225 -17522.3 -2411)
(2349.12 -17378.2 -2411.01)
(5331.17 -16706.4 -2411.02)
(8151.24 -15526.7 -2411.02)
(10723.5 -13875.4 -2411)
(12970 -11802.4 -2411)
(14822.6 -9370.92 -2411.02)
(16224.5 -6654.65 -2410.97)
(17133.7 -3736.21 -2410.97)
(17522.3 -704.224 -2411)
(17378.2 2349.12 -2411.01)
(16706.4 5331.17 -2411.02)
(15526.7 8151.24 -2411.02)
(11916.9 10738.9 -2394.65)
(9870.9 12645 -2394.62)
(7525.26 14167.1 -2394.64)
(4950.78 15258.5 -2394.64)
(2225.98 15886.4 -2394.67)
(-566.46 16031.7 -2394.66)
(-3341.74 15689.7 -2394.63)
(-6015.45 14871.1 -2394.66)
(-8506.32 13600.4 -2394.6)
(-10738.9 11916.9 -2394.65)
(-12645 9870.9 -2394.62)
(-14167.1 7525.26 -2394.64)
(-15258.5 4950.78 -2394.64)
(-15886.4 2225.98 -2394.67)
(-16031.7 -566.46 -2394.66)
(-15689.7 -3341.74 -2394.63)
(-14871.1 -6015.45 -2394.66)
(-13600.4 -8506.32 -2394.6)
(-11916.9 -10738.9 -2394.65)
(-9870.9 -12645 -2394.62)
(-7525.26 -14167.1 -2394.64)
(-4950.78 -15258.5 -2394.64)
(-2225.98 -15886.4 -2394.67)
(566.46 -16031.7 -2394.66)
(3341.74 -15689.7 -2394.63)
(6015.45 -14871.1 -2394.66)
(8506.32 -13600.4 -2394.6)
(10738.9 -11916.9 -2394.65)
(12645 -9870.9 -2394.62)
(14167.1 -7525.26 -2394.64)
(15258.5 -4950.78 -2394.64)
(15886.4 -2225.98 -2394.67)
(16031.7 566.46 -2394.66)
(15689.7 3341.74 -2394.63)
(14871.1 6015.45 -2394.66)
(13600.4 8506.32 -2394.6)
(9738.41 10040.5 -1956.02)
(7846.86 11579 -1956)
(5717.06 12765.6 -1955.93)
(3413.42 13564.4 -1955.95)
(1006.15 13951.2 -1955.98)
(-1431.7 13914 -1955.98)
(-3826.15 13454 -1955.97)
(-6104.21 12585.2 -1956.01)
(-8196.9 11333.9 -1956.01)
(-10040.5 9738.41 -1956.02)
(-11579 7846.86 -1956)
(-12765.6 5717.06 -1955.93)
(-13564.4 3413.42 -1955.95)
(-13951.2 1006.16 -1955.98)
(-13914 -1431.7 -1955.98)
(-13454 -3826.15 -1955.97)
(-12585.2 -6104.21 -1956.01)
(-11333.9 -8196.9 -1956.01)
(-9738.41 -10040.5 -1956.02)
(-7846.87 -11579 -1956)
(-5717.06 -12765.6 -1955.93)
(-3413.42 -13564.5 -1955.95)
(-1006.16 -13951.2 -1955.98)
(1431.7 -13914 -1955.98)
(3826.15 -13454 -1955.97)
(6104.21 -12585.2 -1956.01)
(8196.9 -11333.9 -1956.01)
(10040.5 -9738.41 -1956.02)
(11579 -7846.87 -1956)
(12765.6 -5717.06 -1955.93)
(13564.5 -3413.42 -1955.95)
(13951.2 -1006.16 -1955.98)
(13914 1431.7 -1955.98)
(13454 3826.15 -1955.97)
(12585.2 6104.21 -1956.01)
(11333.9 8196.9 -1956.01)
(7386.32 8516 -948.443)
(5795.31 9669.41 -948.499)
(4028.18 10528.8 -948.501)
(2138.72 11068.4 -948.517)
(184.25 11271.7 -948.47)
(-1775.85 11132.3 -948.503)
(-3682 10654.8 -948.506)
(-5476.21 9853.54 -948.486)
(-7104.21 8753.03 -948.505)
(-8516 7386.32 -948.442)
(-9669.41 5795.31 -948.499)
(-10528.8 4028.18 -948.5)
(-11068.4 2138.72 -948.516)
(-11271.7 184.251 -948.469)
(-11132.3 -1775.85 -948.503)
(-10654.8 -3682 -948.506)
(-9853.54 -5476.21 -948.486)
(-8753.04 -7104.22 -948.505)
(-7386.32 -8516 -948.442)
(-5795.31 -9669.41 -948.499)
(-4028.18 -10528.8 -948.501)
(-2138.72 -11068.4 -948.517)
(-184.251 -11271.7 -948.47)
(1775.85 -11132.3 -948.504)
(3682 -10654.8 -948.507)
(5476.21 -9853.54 -948.487)
(7104.22 -8753.04 -948.506)
(8516 -7386.32 -948.444)
(9669.41 -5795.31 -948.501)
(10528.8 -4028.18 -948.502)
(11068.4 -2138.72 -948.518)
(11271.7 -184.25 -948.471)
(11132.3 1775.85 -948.504)
(10654.8 3682 -948.507)
(9853.54 5476.21 -948.487)
(8753.03 7104.22 -948.506)
(5138.7 6242.1 709.566)
(3976.77 7039.7 709.602)
(2693.86 7623.3 709.569)
(1329.18 7975.31 709.498)
(-75.9566 8084.85 709.49)
(-1478.7 7948.81 709.581)
(-2836.48 7571.27 709.609)
(-4108.17 6963.78 709.623)
(-5255.08 6144.64 709.529)
(-6242.1 5138.7 709.566)
(-7039.7 3976.77 709.603)
(-7623.29 2693.86 709.571)
(-7975.31 1329.18 709.499)
(-8084.85 -75.9559 709.491)
(-7948.81 -1478.7 709.582)
(-7571.27 -2836.48 709.609)
(-6963.78 -4108.17 709.623)
(-6144.64 -5255.08 709.529)
(-5138.7 -6242.1 709.566)
(-3976.77 -7039.7 709.602)
(-2693.86 -7623.3 709.57)
(-1329.18 -7975.31 709.498)
(75.9561 -8084.85 709.49)
(1478.7 -7948.82 709.58)
(2836.49 -7571.27 709.608)
(4108.17 -6963.78 709.621)
(5255.09 -6144.65 709.527)
(6242.11 -5138.7 709.564)
(7039.7 -3976.77 709.6)
(7623.3 -2693.86 709.568)
(7975.31 -1329.18 709.497)
(8084.85 75.9562 709.489)
(7948.82 1478.7 709.579)
(7571.27 2836.49 709.607)
(6963.78 4108.17 709.622)
(6144.64 5255.09 709.528)
(3571.68 3667.37 2799.85)
(2880.68 4231.97 2799.82)
(2102.01 4667.85 2799.87)
(1259.56 4962.02 2799.83)
(378.775 5105.33 2799.87)
(-513.529 5093.52 2799.88)
(-1390.23 4926.99 2799.78)
(-2224.63 4610.62 2799.84)
(-2991.5 4154.31 2799.81)
(-3667.37 3571.68 2799.85)
(-4231.97 2880.68 2799.81)
(-4667.85 2102.01 2799.87)
(-4962.02 1259.56 2799.83)
(-5105.33 378.776 2799.87)
(-5093.52 -513.529 2799.88)
(-4926.99 -1390.23 2799.78)
(-4610.63 -2224.63 2799.84)
(-4154.31 -2991.5 2799.81)
(-3571.68 -3667.37 2799.85)
(-2880.68 -4231.98 2799.81)
(-2102.01 -4667.85 2799.87)
(-1259.56 -4962.02 2799.83)
(-378.776 -5105.33 2799.87)
(513.53 -5093.53 2799.88)
(1390.23 -4926.99 2799.78)
(2224.64 -4610.63 2799.84)
(2991.5 -4154.31 2799.81)
(3667.37 -3571.68 2799.85)
(4231.98 -2880.68 2799.81)
(4667.85 -2102.01 2799.87)
(4962.02 -1259.56 2799.83)
(5105.33 -378.776 2799.87)
(5093.53 513.529 2799.87)
(4926.99 1390.23 2799.78)
(4610.63 2224.63 2799.84)
(4154.31 2991.5 2799.81)
(3390.28 1589.35 4428.43)
(3062.84 2153.98 4428.29)
(2642.26 2653.12 4428.33)
(2141.43 3071.66 4428.32)
(1575.5 3396.82 4428.34)
(961.717 3618.82 4428.32)
(318.713 3730.7 4428.33)
(-333.95 3729.34 4428.44)
(-976.446 3614.67 4428.42)
(-1589.34 3390.28 4428.43)
(-2153.98 3062.84 4428.29)
(-2653.12 2642.26 4428.33)
(-3071.66 2141.44 4428.32)
(-3396.82 1575.51 4428.34)
(-3618.82 961.718 4428.32)
(-3730.7 318.713 4428.33)
(-3729.34 -333.951 4428.44)
(-3614.67 -976.447 4428.42)
(-3390.28 -1589.35 4428.43)
(-3062.84 -2153.98 4428.29)
(-2642.26 -2653.12 4428.33)
(-2141.43 -3071.66 4428.31)
(-1575.5 -3396.82 4428.33)
(-961.717 -3618.82 4428.31)
(-318.712 -3730.7 4428.33)
(333.951 -3729.34 4428.44)
(976.447 -3614.67 4428.41)
(1589.35 -3390.28 4428.43)
(2153.98 -3062.84 4428.29)
(2653.12 -2642.26 4428.33)
(3071.66 -2141.43 4428.31)
(3396.82 -1575.5 4428.33)
(3618.82 -961.717 4428.31)
(3730.71 -318.712 4428.32)
(3729.34 333.951 4428.44)
(3614.67 976.447 4428.41)
(5283.22 1165 2790.97)
(5000.77 2064.88 2790.71)
(4566.25 2901.9 2790.74)
(3992.97 3650.77 2790.74)
(3298.37 4288.64 2790.8)
(2503.55 4796.22 2790.82)
(1632.66 5158 2790.77)
(712.229 5362.98 2791.02)
(-229.861 5405.18 2791)
(-1165 5283.21 2790.97)
(-2064.88 5000.77 2790.71)
(-2901.9 4566.25 2790.74)
(-3650.78 3992.97 2790.74)
(-4288.64 3298.37 2790.8)
(-4796.22 2503.55 2790.82)
(-5158 1632.65 2790.77)
(-5362.99 712.228 2791.02)
(-5405.18 -229.862 2791)
(-5283.21 -1165 2790.97)
(-5000.77 -2064.88 2790.71)
(-4566.25 -2901.9 2790.74)
(-3992.97 -3650.78 2790.74)
(-3298.37 -4288.64 2790.8)
(-2503.55 -4796.22 2790.82)
(-1632.65 -5158 2790.77)
(-712.228 -5362.98 2791.02)
(229.861 -5405.17 2791)
(1165 -5283.21 2790.97)
(2064.88 -5000.77 2790.71)
(2901.9 -4566.25 2790.75)
(3650.77 -3992.97 2790.74)
(4288.64 -3298.37 2790.8)
(4796.22 -2503.55 2790.82)
(5158 -1632.65 2790.77)
(5362.99 -712.227 2791.01)
(5405.18 229.863 2791)
(7195.89 1666.06 -4776.11)
(6797.44 2890.56 -4776.32)
(6192.22 4026.96 -4776.45)
(5398.87 5041.09 -4776.26)
(4441.51 5902.01 -4776.23)
(3349.17 6583.59 -4776.36)
(2155.02 7065.11 -4776.21)
(895.57 7331.68 -4775.93)
(-391.267 7375.97 -4775.86)
(-1666.06 7195.89 -4776.1)
(-2890.56 6797.44 -4776.32)
(-4026.96 6192.22 -4776.45)
(-5041.09 5398.87 -4776.26)
(-5902.01 4441.51 -4776.24)
(-6583.6 3349.17 -4776.36)
(-7065.11 2155.02 -4776.22)
(-7331.68 895.569 -4775.93)
(-7375.97 -391.269 -4775.86)
(-7195.89 -1666.06 -4776.1)
(-6797.44 -2890.56 -4776.31)
(-6192.22 -4026.96 -4776.45)
(-5398.87 -5041.09 -4776.26)
(-4441.51 -5902.01 -4776.23)
(-3349.17 -6583.6 -4776.36)
(-2155.03 -7065.12 -4776.19)
(-895.57 -7331.68 -4775.93)
(391.267 -7375.97 -4775.86)
(1666.05 -7195.89 -4776.1)
(2890.56 -6797.44 -4776.31)
(4026.95 -6192.22 -4776.44)
(5041.08 -5398.86 -4776.25)
(5902.01 -4441.51 -4776.23)
(6583.6 -3349.16 -4776.36)
(7065.11 -2155.02 -4776.22)
(7331.68 -895.567 -4775.94)
(7375.98 391.271 -4775.87)
(13211.9 6818.85 -49947)
(11827 9009.67 -49946.2)
(10083.3 10926.8 -49948.4)
(8031.8 12511.1 -49947)
(5738.33 13716.9 -49947.2)
(3268.64 14503.6 -49947.1)
(700.408 14851.8 -49948)
(-1888.74 14747.3 -49946.1)
(-4421.28 14195.3 -49947.1)
(-6818.84 13211.9 -49947)
(-9009.67 11827 -49946.2)
(-10926.8 10083.3 -49948.5)
(-12511.1 8031.8 -49947)
(-13716.9 5738.33 -49947.2)
(-14503.6 3268.64 -49947.1)
(-14851.8 700.405 -49948)
(-14747.3 -1888.74 -49946.1)
(-14195.3 -4421.28 -49947.1)
(-13211.9 -6818.85 -49947)
(-11827 -9009.68 -49946.2)
(-10083.3 -10926.8 -49948.5)
(-8031.79 -12511.1 -49947)
(-5738.33 -13716.9 -49947.2)
(-3268.63 -14503.6 -49947.1)
(-700.399 -14851.8 -49948)
(1888.75 -14747.3 -49946.1)
(4421.29 -14195.3 -49947.1)
(6818.85 -13211.9 -49947)
(9009.68 -11827 -49946.2)
(10926.8 -10083.3 -49948.4)
(12511.1 -8031.79 -49947)
(13716.9 -5738.32 -49947.2)
(14503.6 -3268.63 -49947.1)
(14851.8 -700.399 -49948)
(14747.3 1888.74 -49946.1)
(14195.3 4421.29 -49947.1)
)
;
    }
    outside
    {
        type            calculated;
        value           nonuniform List<vector> 
540
(
(-6962.6 -990.657 4767.68)
(-6684.74 -2184.66 4767.74)
(-6203.83 -3312.24 4767.66)
(-5534.53 -4339.28 4767.73)
(-4696.94 -5234.44 4767.81)
(-3716.59 -5970.48 4767.77)
(-2623.38 -6525.15 4767.64)
(-1450.46 -6881.55 4767.69)
(-233.435 -7028.86 4767.68)
(990.656 -6962.6 4767.68)
(2184.66 -6684.74 4767.74)
(3312.24 -6203.83 4767.66)
(4339.28 -5534.53 4767.73)
(5234.44 -4696.94 4767.81)
(5970.48 -3716.59 4767.77)
(6525.15 -2623.38 4767.64)
(6881.55 -1450.46 4767.69)
(7028.86 -233.435 4767.68)
(6962.6 990.656 4767.68)
(6684.74 2184.66 4767.74)
(6203.83 3312.24 4767.66)
(5534.53 4339.28 4767.73)
(4696.94 5234.44 4767.81)
(3716.59 5970.48 4767.77)
(2623.38 6525.15 4767.64)
(1450.46 6881.55 4767.69)
(233.435 7028.86 4767.68)
(-990.657 6962.6 4767.68)
(-2184.66 6684.74 4767.74)
(-3312.24 6203.83 4767.66)
(-4339.28 5534.53 4767.73)
(-5234.44 4696.94 4767.81)
(-5970.48 3716.59 4767.77)
(-6525.15 2623.38 4767.64)
(-6881.55 1450.46 4767.69)
(-7028.86 233.435 4767.68)
(6497.89 654.243 5275.31)
(6285.48 1772.65 5275.5)
(5882.26 2837.22 5275.52)
(5300.24 3815.56 5275.4)
(4557.17 4678.01 5275.28)
(3675.6 5398.29 5275.47)
(2682.31 5954.35 5275.48)
(1607.62 6329.75 5275.47)
(484.008 6512.8 5275.37)
(-654.242 6497.89 5275.31)
(-1772.65 6285.48 5275.5)
(-2837.22 5882.26 5275.52)
(-3815.56 5300.24 5275.4)
(-4678.01 4557.17 5275.27)
(-5398.29 3675.6 5275.46)
(-5954.34 2682.31 5275.48)
(-6329.75 1607.62 5275.47)
(-6512.8 484.008 5275.37)
(-6497.89 -654.242 5275.31)
(-6285.48 -1772.65 5275.5)
(-5882.26 -2837.22 5275.52)
(-5300.24 -3815.56 5275.4)
(-4557.17 -4678.01 5275.27)
(-3675.6 -5398.29 5275.46)
(-2682.31 -5954.34 5275.48)
(-1607.62 -6329.75 5275.47)
(-484.008 -6512.8 5275.37)
(654.242 -6497.89 5275.31)
(1772.65 -6285.48 5275.5)
(2837.22 -5882.26 5275.52)
(3815.56 -5300.24 5275.4)
(4678.01 -4557.17 5275.28)
(5398.29 -3675.6 5275.47)
(5954.35 -2682.31 5275.48)
(6329.75 -1607.62 5275.47)
(6512.8 -484.008 5275.38)
(4160.5 -47.4525 2942.01)
(4105.44 675.709 2941.83)
(3925.79 1378.39 2941.89)
(3626.77 2039.13 2941.79)
(3217.64 2638.01 2941.73)
(2710.68 3156.67 2941.79)
(2121.31 3579.26 2941.82)
(1467.55 3893.36 2941.85)
(769.188 4088.92 2942.05)
(47.4526 4160.5 2942.01)
(-675.709 4105.44 2941.83)
(-1378.39 3925.79 2941.89)
(-2039.13 3626.77 2941.79)
(-2638.01 3217.64 2941.73)
(-3156.67 2710.68 2941.79)
(-3579.26 2121.31 2941.82)
(-3893.36 1467.55 2941.84)
(-4088.92 769.188 2942.05)
(-4160.5 47.4525 2942.01)
(-4105.44 -675.709 2941.83)
(-3925.79 -1378.39 2941.89)
(-3626.77 -2039.13 2941.79)
(-3217.64 -2638.01 2941.73)
(-2710.68 -3156.67 2941.79)
(-2121.31 -3579.26 2941.82)
(-1467.55 -3893.36 2941.84)
(-769.188 -4088.92 2942.05)
(-47.4525 -4160.5 2942.01)
(675.709 -4105.44 2941.83)
(1378.39 -3925.79 2941.89)
(2039.13 -3626.77 2941.79)
(2638.01 -3217.64 2941.73)
(3156.67 -2710.68 2941.79)
(3579.26 -2121.31 2941.82)
(3893.36 -1467.55 2941.85)
(4088.92 -769.188 2942.05)
(3814.59 -475.774 1552.26)
(3839.24 193.868 1552.26)
(3747.21 857.566 1552.3)
(3541.43 1495.29 1552.34)
(3228.01 2087.57 1552.52)
(2816.45 2616.36 1552.33)
(2319.35 3065.75 1552.27)
(1751.74 3421.77 1552.22)
(1130.92 3674.05 1552.3)
(475.774 3814.59 1552.25)
(-193.868 3839.24 1552.26)
(-857.566 3747.21 1552.3)
(-1495.29 3541.43 1552.34)
(-2087.57 3228.01 1552.52)
(-2616.36 2816.45 1552.33)
(-3065.75 2319.35 1552.27)
(-3421.77 1751.74 1552.22)
(-3674.05 1130.92 1552.3)
(-3814.59 475.774 1552.25)
(-3839.24 -193.868 1552.26)
(-3747.21 -857.566 1552.3)
(-3541.43 -1495.29 1552.34)
(-3228.01 -2087.57 1552.52)
(-2816.45 -2616.36 1552.33)
(-2319.35 -3065.75 1552.27)
(-1751.74 -3421.77 1552.22)
(-1130.92 -3674.05 1552.3)
(-475.773 -3814.59 1552.25)
(193.868 -3839.24 1552.26)
(857.566 -3747.21 1552.3)
(1495.29 -3541.43 1552.34)
(2087.57 -3228.01 1552.52)
(2616.36 -2816.45 1552.33)
(3065.75 -2319.35 1552.27)
(3421.77 -1751.74 1552.22)
(3674.05 -1130.92 1552.3)
(3071.37 -957.535 443.747)
(3191.06 -409.585 443.808)
(3213.59 150.647 443.858)
(3138.66 706.464 443.756)
(2968.28 1240.7 443.834)
(2707.74 1737.3 443.784)
(2364.96 2181.26 443.857)
(1950.26 2558.58 443.765)
(1476.31 2858.44 443.795)
(957.535 3071.37 443.746)
(409.585 3191.06 443.807)
(-150.646 3213.59 443.857)
(-706.464 3138.66 443.755)
(-1240.7 2968.28 443.833)
(-1737.3 2707.74 443.783)
(-2181.26 2364.96 443.856)
(-2558.58 1950.26 443.764)
(-2858.44 1476.31 443.795)
(-3071.37 957.535 443.746)
(-3191.06 409.585 443.806)
(-3213.59 -150.647 443.857)
(-3138.66 -706.464 443.755)
(-2968.28 -1240.7 443.833)
(-2707.74 -1737.3 443.783)
(-2364.96 -2181.26 443.857)
(-1950.26 -2558.58 443.764)
(-1476.31 -2858.44 443.795)
(-957.535 -3071.37 443.746)
(-409.585 -3191.06 443.807)
(150.647 -3213.59 443.857)
(706.464 -3138.66 443.756)
(1240.7 -2968.28 443.834)
(1737.3 -2707.74 443.784)
(2181.26 -2364.96 443.858)
(2558.58 -1950.26 443.765)
(2858.44 -1476.31 443.796)
(2156.27 -1438.53 -379.566)
(2373.39 -1042.19 -379.438)
(2518.22 -614.289 -379.446)
(2586.68 -167.605 -379.587)
(2576.45 284.048 -379.635)
(2487.99 727.134 -379.548)
(2323.95 1148.17 -379.46)
(2089.27 1534.18 -379.423)
(1791.09 1873.76 -379.544)
(1438.53 2156.27 -379.567)
(1042.19 2373.39 -379.439)
(614.289 2518.22 -379.447)
(167.605 2586.68 -379.588)
(-284.048 2576.45 -379.636)
(-727.134 2487.99 -379.549)
(-1148.17 2323.95 -379.461)
(-1534.18 2089.27 -379.423)
(-1873.76 1791.09 -379.545)
(-2156.27 1438.53 -379.568)
(-2373.39 1042.19 -379.44)
(-2518.22 614.289 -379.447)
(-2586.68 167.605 -379.588)
(-2576.45 -284.048 -379.636)
(-2487.99 -727.134 -379.548)
(-2323.95 -1148.17 -379.461)
(-2089.27 -1534.18 -379.423)
(-1791.09 -1873.76 -379.544)
(-1438.53 -2156.27 -379.567)
(-1042.19 -2373.39 -379.439)
(-614.289 -2518.23 -379.446)
(-167.605 -2586.68 -379.587)
(284.048 -2576.45 -379.635)
(727.134 -2487.99 -379.547)
(1148.17 -2323.95 -379.46)
(1534.18 -2089.27 -379.422)
(1873.76 -1791.09 -379.543)
(937.171 -2036.37 -900.802)
(1276.58 -1842.65 -900.866)
(1577.03 -1593.12 -900.799)
(1829.85 -1294.85 -900.882)
(2026.83 -957.569 -900.94)
(2162.31 -591.172 -900.82)
(2232.13 -206.524 -900.852)
(2234.1 184.044 -900.813)
(2168.17 569.306 -900.792)
(2036.37 937.171 -900.803)
(1842.65 1276.58 -900.867)
(1593.12 1577.03 -900.8)
(1294.85 1829.85 -900.883)
(957.569 2026.83 -900.941)
(591.172 2162.31 -900.821)
(206.524 2232.13 -900.853)
(-184.044 2234.1 -900.814)
(-569.306 2168.17 -900.792)
(-937.171 2036.37 -900.804)
(-1276.58 1842.65 -900.868)
(-1577.03 1593.12 -900.801)
(-1829.85 1294.85 -900.883)
(-2026.83 957.569 -900.941)
(-2162.31 591.171 -900.821)
(-2232.13 206.523 -900.853)
(-2234.1 -184.045 -900.813)
(-2168.17 -569.307 -900.792)
(-2036.37 -937.171 -900.803)
(-1842.65 -1276.58 -900.867)
(-1593.12 -1577.03 -900.8)
(-1294.85 -1829.85 -900.882)
(-957.568 -2026.83 -900.94)
(-591.171 -2162.31 -900.82)
(-206.523 -2232.13 -900.852)
(184.044 -2234.1 -900.812)
(569.306 -2168.17 -900.791)
(-589.744 -2811.49 -1106.62)
(-92.5866 -2871.23 -1106.45)
(407.362 -2843.72 -1106.51)
(895.077 -2729.66 -1106.42)
(1355.44 -2532.88 -1106.36)
(1774.67 -2259.03 -1106.39)
(2139.97 -1916.54 -1106.51)
(2440.28 -1515.85 -1106.42)
(2666.42 -1069.12 -1106.58)
(2811.49 -589.745 -1106.62)
(2871.23 -92.5871 -1106.45)
(2843.72 407.362 -1106.51)
(2729.66 895.077 -1106.42)
(2532.88 1355.44 -1106.37)
(2259.03 1774.67 -1106.39)
(1916.55 2139.97 -1106.51)
(1515.85 2440.28 -1106.42)
(1069.12 2666.42 -1106.58)
(589.745 2811.49 -1106.62)
(92.5869 2871.23 -1106.45)
(-407.362 2843.72 -1106.51)
(-895.077 2729.66 -1106.42)
(-1355.44 2532.87 -1106.37)
(-1774.67 2259.03 -1106.39)
(-2139.97 1916.54 -1106.51)
(-2440.28 1515.85 -1106.42)
(-2666.42 1069.12 -1106.58)
(-2811.49 589.744 -1106.62)
(-2871.23 92.5863 -1106.45)
(-2843.72 -407.362 -1106.51)
(-2729.65 -895.078 -1106.42)
(-2532.87 -1355.44 -1106.36)
(-2259.03 -1774.67 -1106.39)
(-1916.54 -2139.97 -1106.51)
(-1515.85 -2440.28 -1106.42)
(-1069.12 -2666.42 -1106.58)
(-2364.85 -3719.2 -971.563)
(-1683.07 -4073.32 -971.575)
(-950.162 -4303.67 -971.686)
(-188.422 -4403.3 -971.675)
(579.051 -4369.17 -971.65)
(1328.95 -4202.27 -971.644)
(2038.48 -3907.66 -971.643)
(2686.08 -3494.24 -971.563)
(3252.01 -2974.67 -971.62)
(3719.2 -2364.85 -971.563)
(4073.32 -1683.07 -971.576)
(4303.67 -950.162 -971.687)
(4403.3 -188.422 -971.676)
(4369.17 579.05 -971.651)
(4202.27 1328.95 -971.645)
(3907.66 2038.48 -971.644)
(3494.24 2686.08 -971.564)
(2974.67 3252.01 -971.621)
(2364.85 3719.2 -971.564)
(1683.07 4073.32 -971.577)
(950.162 4303.67 -971.688)
(188.422 4403.3 -971.677)
(-579.051 4369.17 -971.651)
(-1328.95 4202.27 -971.645)
(-2038.48 3907.66 -971.643)
(-2686.08 3494.24 -971.563)
(-3252.01 2974.67 -971.62)
(-3719.2 2364.85 -971.563)
(-4073.32 1683.07 -971.576)
(-4303.67 950.161 -971.686)
(-4403.3 188.422 -971.675)
(-4369.17 -579.051 -971.65)
(-4202.27 -1328.95 -971.644)
(-3907.66 -2038.48 -971.643)
(-3494.24 -2686.08 -971.563)
(-2974.67 -3252.01 -971.62)
(-4226.83 -4526.12 -436.154)
(-3376.74 -5191.37 -436.23)
(-2423.89 -5698.81 -436.221)
(-1397.41 -6033.06 -436.227)
(-328.586 -6184.12 -436.207)
(750.268 -6147.26 -436.165)
(1806.33 -5923.64 -436.189)
(2807.49 -5519.89 -436.294)
(3723.36 -4948.5 -436.183)
(4526.13 -4226.83 -436.154)
(5191.37 -3376.74 -436.231)
(5698.81 -2423.89 -436.222)
(6033.06 -1397.41 -436.228)
(6184.12 -328.587 -436.208)
(6147.26 750.267 -436.167)
(5923.64 1806.33 -436.19)
(5519.89 2807.49 -436.295)
(4948.5 3723.36 -436.185)
(4226.83 4526.12 -436.155)
(3376.74 5191.37 -436.232)
(2423.89 5698.81 -436.222)
(1397.41 6033.06 -436.229)
(328.586 6184.12 -436.208)
(-750.268 6147.26 -436.166)
(-1806.33 5923.64 -436.19)
(-2807.49 5519.89 -436.294)
(-3723.36 4948.5 -436.183)
(-4526.12 4226.83 -436.153)
(-5191.37 3376.74 -436.23)
(-5698.81 2423.89 -436.221)
(-6033.06 1397.41 -436.227)
(-6184.12 328.586 -436.207)
(-6147.26 -750.268 -436.165)
(-5923.64 -1806.33 -436.189)
(-5519.89 -2807.49 -436.294)
(-4948.5 -3723.36 -436.183)
(-5814.25 -4738.66 601.582)
(-4903.14 -5676.32 601.447)
(-3842.88 -6441.42 601.497)
(-2665.97 -7010.91 601.506)
(-1408.05 -7367.35 601.488)
(-107.337 -7499.92 601.53)
(1196.65 -7404.59 601.471)
(2464.31 -7084.39 601.516)
(3657.07 -6548.78 601.652)
(4738.66 -5814.25 601.583)
(5676.32 -4903.15 601.447)
(6441.42 -3842.88 601.496)
(7010.91 -2665.97 601.504)
(7367.35 -1408.05 601.487)
(7499.92 -107.337 601.528)
(7404.59 1196.65 601.469)
(7084.39 2464.31 601.514)
(6548.78 3657.07 601.651)
(5814.25 4738.66 601.582)
(4903.14 5676.32 601.446)
(3842.88 6441.42 601.495)
(2665.97 7010.91 601.504)
(1408.05 7367.34 601.487)
(107.337 7499.92 601.529)
(-1196.65 7404.59 601.47)
(-2464.31 7084.39 601.516)
(-3657.07 6548.78 601.652)
(-4738.66 5814.25 601.584)
(-5676.32 4903.14 601.448)
(-6441.42 3842.88 601.497)
(-7010.91 2665.97 601.506)
(-7367.35 1408.05 601.488)
(-7499.92 107.336 601.529)
(-7404.59 -1196.65 601.47)
(-7084.39 -2464.31 601.515)
(-6548.78 -3657.07 601.651)
(-6258.61 -3692.27 2098.8)
(-5522.3 -4722.89 2098.7)
(-4618.19 -5610.02 2098.76)
(-3573.98 -6326.84 2098.73)
(-2421.03 -6851.3 2098.72)
(-1194.53 -7167.6 2098.74)
(68.2812 -7266.01 2098.81)
(1329.01 -7143.95 2098.76)
(2549.44 -6804.72 2099)
(3692.27 -6258.61 2098.8)
(4722.9 -5522.31 2098.7)
(5610.02 -4618.19 2098.76)
(6326.84 -3573.98 2098.73)
(6851.3 -2421.03 2098.72)
(7167.6 -1194.53 2098.74)
(7266.01 68.2804 2098.81)
(7143.95 1329.01 2098.76)
(6804.72 2549.44 2099)
(6258.61 3692.27 2098.8)
(5522.31 4722.9 2098.7)