/*--------------------------------*- C++ -*----------------------------------*\
| =========                 |                                                 |
| \\      /  F ield         | OpenFOAM: The Open Source CFD Toolbox           |
|  \\    /   O peration     | Version:  2312                                  |
|   \\  /    A nd           | Website:  www.openfoam.com                      |
|    \\/     M anipulation  |                                                 |
\*---------------------------------------------------------------------------*/
FoamFile
{
    version     2.0;
    format      ascii;
    arch        "LSB;label=32;scalar=64";
    class       volVectorField;
    location    "0.6";
    object      U;
}
// * * * * * * * * * * * * * * * * * * * * * * * * * * * * * * * * * * * * * //

dimensions      [0 1 -1 0 0 0 0];

internalField   nonuniform List<vector> 
1620
(
(6.98289e-05 0.000122821 3.93836e-06)
(4.74404e-05 0.000133081 3.93793e-06)
(2.36106e-05 0.000139297 3.93804e-06)
(-9.3645e-07 0.000141281 3.9387e-06)
(-2.54554e-05 0.000138972 3.93878e-06)
(-4.92012e-05 0.000132441 3.93846e-06)
(-7.14519e-05 0.000121885 3.93891e-06)
(-9.15316e-05 0.000107625 3.93902e-06)
(-0.00010883 9.00958e-05 3.93848e-06)
(-0.000122821 6.98289e-05 3.93835e-06)
(-0.000133081 4.74404e-05 3.93793e-06)
(-0.000139297 2.36106e-05 3.93804e-06)
(-0.000141281 -9.36432e-07 3.9387e-06)
(-0.000138972 -2.54553e-05 3.93879e-06)
(-0.000132441 -4.92012e-05 3.93847e-06)
(-0.000121885 -7.14519e-05 3.93891e-06)
(-0.000107625 -9.15316e-05 3.93902e-06)
(-9.00958e-05 -0.00010883 3.93849e-06)
(-6.98289e-05 -0.000122821 3.93836e-06)
(-4.74404e-05 -0.000133081 3.93793e-06)
(-2.36106e-05 -0.000139297 3.93805e-06)
(9.36416e-07 -0.000141281 3.93871e-06)
(2.54553e-05 -0.000138972 3.9388e-06)
(4.92012e-05 -0.000132441 3.93847e-06)
(7.14519e-05 -0.000121885 3.93892e-06)
(9.15316e-05 -0.000107625 3.93903e-06)
(0.00010883 -9.00958e-05 3.93849e-06)
(0.000122821 -6.98289e-05 3.93836e-06)
(0.000133081 -4.74404e-05 3.93794e-06)
(0.000139297 -2.36106e-05 3.93805e-06)
(0.000141281 9.36434e-07 3.9387e-06)
(0.000138972 2.54553e-05 3.93879e-06)
(0.000132441 4.92012e-05 3.93847e-06)
(0.000121885 7.14519e-05 3.93892e-06)
(0.000107625 9.15316e-05 3.93902e-06)
(9.00958e-05 0.00010883 3.93849e-06)
(2.55433e-05 0.000193396 6.02753e-05)
(-8.42745e-06 0.000194893 6.02752e-05)
(-4.21419e-05 0.000190469 6.02752e-05)
(-7.45761e-05 0.000180257 6.02755e-05)
(-0.000104745 0.000164569 6.02757e-05)
(-0.000131731 0.00014388 6.02755e-05)
(-0.000154714 0.000118819 6.02755e-05)
(-0.000172996 9.01482e-05 6.02755e-05)
(-0.000186022 5.87381e-05 6.02752e-05)
(-0.000193396 2.55434e-05 6.02753e-05)
(-0.000194893 -8.42743e-06 6.02752e-05)
(-0.000190469 -4.21419e-05 6.02752e-05)
(-0.000180257 -7.45761e-05 6.02755e-05)
(-0.000164569 -0.000104745 6.02757e-05)
(-0.00014388 -0.000131731 6.02755e-05)
(-0.000118819 -0.000154714 6.02755e-05)
(-9.01482e-05 -0.000172996 6.02755e-05)
(-5.87381e-05 -0.000186022 6.02752e-05)
(-2.55434e-05 -0.000193396 6.02753e-05)
(8.42742e-06 -0.000194893 6.02752e-05)
(4.21419e-05 -0.000190469 6.02752e-05)
(7.45761e-05 -0.000180257 6.02755e-05)
(0.000104745 -0.000164569 6.02757e-05)
(0.000131731 -0.00014388 6.02755e-05)
(0.000154714 -0.000118819 6.02755e-05)
(0.000172996 -9.01482e-05 6.02755e-05)
(0.000186022 -5.87381e-05 6.02753e-05)
(0.000193396 -2.55434e-05 6.02753e-05)
(0.000194893 8.42744e-06 6.02752e-05)
(0.000190469 4.21419e-05 6.02752e-05)
(0.000180257 7.45761e-05 6.02755e-05)
(0.000164569 0.000104745 6.02757e-05)
(0.00014388 0.000131731 6.02755e-05)
(0.000118819 0.000154714 6.02755e-05)
(9.01482e-05 0.000172996 6.02755e-05)
(5.87381e-05 0.000186022 6.02753e-05)
(-6.29709e-05 0.000245145 9.45904e-05)
(-0.000104583 0.000230486 9.45906e-05)
(-0.000143018 0.000208824 9.45905e-05)
(-0.000177107 0.000180817 9.45905e-05)
(-0.000205815 0.000147316 9.45908e-05)
(-0.000228269 0.000109338 9.45908e-05)
(-0.000243788 6.8038e-05 9.45907e-05)
(-0.000251898 2.4671e-05 9.45903e-05)
(-0.000252356 -1.94454e-05 9.45904e-05)
(-0.000245145 -6.29709e-05 9.45904e-05)
(-0.000230486 -0.000104583 9.45906e-05)
(-0.000208824 -0.000143018 9.45905e-05)
(-0.000180817 -0.000177107 9.45905e-05)
(-0.000147316 -0.000205815 9.45908e-05)
(-0.000109338 -0.000228269 9.45908e-05)
(-6.8038e-05 -0.000243788 9.45907e-05)
(-2.4671e-05 -0.000251898 9.45903e-05)
(1.94454e-05 -0.000252356 9.45904e-05)
(6.29709e-05 -0.000245145 9.45904e-05)
(0.000104583 -0.000230486 9.45906e-05)
(0.000143018 -0.000208824 9.45905e-05)
(0.000177107 -0.000180817 9.45905e-05)
(0.000205815 -0.000147316 9.45908e-05)
(0.000228269 -0.000109338 9.45908e-05)
(0.000243788 -6.8038e-05 9.45907e-05)
(0.000251898 -2.4671e-05 9.45903e-05)
(0.000252356 1.94454e-05 9.45904e-05)
(0.000245145 6.29709e-05 9.45904e-05)
(0.000230486 0.000104583 9.45906e-05)
(0.000208824 0.000143018 9.45905e-05)
(0.000180816 0.000177107 9.45905e-05)
(0.000147316 0.000205815 9.45908e-05)
(0.000109338 0.000228269 9.45908e-05)
(6.8038e-05 0.000243788 9.45907e-05)
(2.4671e-05 0.000251898 9.45903e-05)
(-1.94454e-05 0.000252356 9.45904e-05)
(0.000117655 0.000379245 5.33054e-05)
(5.0013e-05 0.000393914 5.33047e-05)
(-1.91492e-05 0.000396614 5.33049e-05)
(-8.77294e-05 0.000387263 5.3307e-05)
(-0.000153644 0.000366146 5.3308e-05)
(-0.00021489 0.000333904 5.33072e-05)
(-0.000269608 0.000291516 5.33072e-05)
(-0.000316134 0.00024027 5.33069e-05)
(-0.000353053 0.000181723 5.33058e-05)
(-0.000379245 0.000117655 5.33054e-05)
(-0.000393914 5.0013e-05 5.33047e-05)
(-0.000396614 -1.91491e-05 5.33049e-05)
(-0.000387263 -8.77293e-05 5.3307e-05)
(-0.000366146 -0.000153644 5.3308e-05)
(-0.000333904 -0.00021489 5.33072e-05)
(-0.000291516 -0.000269608 5.33072e-05)
(-0.00024027 -0.000316134 5.33069e-05)
(-0.000181723 -0.000353053 5.33058e-05)
(-0.000117655 -0.000379245 5.33054e-05)
(-5.00131e-05 -0.000393913 5.33047e-05)
(1.91491e-05 -0.000396614 5.33049e-05)
(8.77293e-05 -0.000387263 5.3307e-05)
(0.000153644 -0.000366146 5.3308e-05)
(0.00021489 -0.000333904 5.33072e-05)
(0.000269608 -0.000291516 5.33072e-05)
(0.000316134 -0.00024027 5.33069e-05)
(0.000353053 -0.000181723 5.33058e-05)
(0.000379245 -0.000117655 5.33054e-05)
(0.000393913 -5.00131e-05 5.33047e-05)
(0.000396614 1.91491e-05 5.33049e-05)
(0.000387263 8.77293e-05 5.3307e-05)
(0.000366146 0.000153644 5.3308e-05)
(0.000333904 0.00021489 5.33072e-05)
(0.000291516 0.000269608 5.33072e-05)
(0.00024027 0.000316134 5.33069e-05)
(0.000181723 0.000353053 5.33058e-05)
(1.70905e-05 0.000559503 0.000189277)
(-8.03252e-05 0.00055397 0.000189276)
(-0.000175301 0.000531607 0.000189276)
(-0.000264949 0.00049309 0.000189278)
(-0.000346549 0.000439591 0.000189278)
(-0.000417618 0.000372734 0.000189278)
(-0.000475998 0.000294553 0.000189278)
(-0.000519915 0.000207421 0.000189277)
(-0.000548035 0.000113988 0.000189277)
(-0.000559503 1.70906e-05 0.000189277)
(-0.00055397 -8.03252e-05 0.000189276)
(-0.000531607 -0.0001753 0.000189276)
(-0.00049309 -0.000264949 0.000189278)
(-0.000439591 -0.000346549 0.000189278)
(-0.000372735 -0.000417618 0.000189278)
(-0.000294553 -0.000475998 0.000189278)
(-0.000207421 -0.000519915 0.000189277)
(-0.000113988 -0.000548035 0.000189277)
(-1.70906e-05 -0.000559503 0.000189277)
(8.03251e-05 -0.00055397 0.000189276)
(0.0001753 -0.000531607 0.000189276)
(0.000264949 -0.00049309 0.000189278)
(0.000346549 -0.000439591 0.000189278)
(0.000417618 -0.000372734 0.000189278)
(0.000475998 -0.000294553 0.000189278)
(0.000519915 -0.000207421 0.000189277)
(0.000548035 -0.000113988 0.000189277)
(0.000559503 -1.70906e-05 0.000189277)
(0.00055397 8.03252e-05 0.000189276)
(0.000531607 0.000175301 0.000189276)
(0.00049309 0.000264949 0.000189278)
(0.000439591 0.000346549 0.000189278)
(0.000372734 0.000417618 0.000189278)
(0.000294553 0.000475998 0.000189278)
(0.000207421 0.000519915 0.000189277)
(0.000113988 0.000548035 0.000189277)
(-0.000136101 0.000716719 0.000292973)
(-0.00025849 0.000682197 0.000292973)
(-0.000373024 0.000626947 0.000292973)
(-0.000476225 0.000552647 0.000292973)
(-0.000564956 0.000461555 0.000292973)
(-0.000636522 0.000356438 0.000292973)
(-0.000688746 0.000240492 0.000292973)
(-0.000720045 0.000117239 0.000292973)
(-0.000729464 -9.57625e-06 0.000292973)
(-0.000716719 -0.000136101 0.000292973)
(-0.000682197 -0.00025849 0.000292973)
(-0.000626947 -0.000373024 0.000292973)
(-0.000552647 -0.000476225 0.000292973)
(-0.000461555 -0.000564956 0.000292973)
(-0.000356438 -0.000636521 0.000292973)
(-0.000240492 -0.000688746 0.000292973)
(-0.000117239 -0.000720044 0.000292973)
(9.5762e-06 -0.000729464 0.000292973)
(0.000136101 -0.000716719 0.000292973)
(0.00025849 -0.000682197 0.000292973)
(0.000373024 -0.000626947 0.000292973)
(0.000476225 -0.000552647 0.000292973)
(0.000564956 -0.000461555 0.000292973)
(0.000636521 -0.000356438 0.000292973)
(0.000688746 -0.000240492 0.000292973)
(0.000720044 -0.000117239 0.000292973)
(0.000729464 9.57626e-06 0.000292973)
(0.000716719 0.000136101 0.000292973)
(0.000682197 0.00025849 0.000292973)
(0.000626947 0.000373024 0.000292973)
(0.000552647 0.000476225 0.000292973)
(0.000461555 0.000564956 0.000292973)
(0.000356438 0.000636522 0.000292973)
(0.000240492 0.000688746 0.000292973)
(0.000117239 0.000720044 0.000292973)
(-9.5763e-06 0.000729464 0.000292973)
(8.16868e-05 0.000666101 0.000151886)
(-3.52211e-05 0.000670165 0.000151886)
(-0.000151059 0.000653868 0.000151887)
(-0.000262307 0.000617703 0.000151889)
(-0.000365585 0.00056277 0.00015189)
(-0.000457755 0.000490737 0.00015189)
(-0.000536017 0.000403794 0.00015189)
(-0.000597991 0.000304581 0.000151889)
(-0.000641796 0.000196113 0.000151887)
(-0.000666101 8.16868e-05 0.000151886)
(-0.000670165 -3.5221e-05 0.000151886)
(-0.000653868 -0.000151059 0.000151887)
(-0.000617703 -0.000262307 0.000151889)
(-0.00056277 -0.000365585 0.00015189)
(-0.000490738 -0.000457755 0.00015189)
(-0.000403794 -0.000536016 0.00015189)
(-0.000304581 -0.000597991 0.000151889)
(-0.000196113 -0.000641796 0.000151887)
(-8.16869e-05 -0.000666101 0.000151887)
(3.52209e-05 -0.000670165 0.000151886)
(0.000151059 -0.000653868 0.000151887)
(0.000262307 -0.000617703 0.000151889)
(0.000365585 -0.00056277 0.00015189)
(0.000457755 -0.000490738 0.00015189)
(0.000536016 -0.000403794 0.00015189)
(0.000597991 -0.000304581 0.000151889)
(0.000641796 -0.000196113 0.000151887)
(0.000666101 -8.16868e-05 0.000151887)
(0.000670165 3.5221e-05 0.000151886)
(0.000653868 0.000151059 0.000151887)
(0.000617703 0.000262307 0.000151889)
(0.00056277 0.000365585 0.00015189)
(0.000490737 0.000457755 0.00015189)
(0.000403794 0.000536017 0.00015189)
(0.000304581 0.000597991 0.000151889)
(0.000196113 0.000641796 0.000151887)
(-5.19065e-05 0.000910461 0.00032604)
(-0.000209217 0.000887616 0.00032604)
(-0.000360171 0.000837801 0.00032604)
(-0.000500181 0.00076253 0.000326041)
(-0.000624995 0.00066409 0.000326042)
(-0.000730818 0.000545471 0.000326042)
(-0.000814435 0.000410279 0.000326042)
(-0.000873307 0.00026262 0.000326041)
(-0.000905643 0.000106982 0.000326041)
(-0.000910461 -5.19064e-05 0.00032604)
(-0.000887616 -0.000209217 0.00032604)
(-0.000837801 -0.000360171 0.00032604)
(-0.00076253 -0.000500181 0.000326041)
(-0.00066409 -0.000624995 0.000326042)
(-0.000545471 -0.000730817 0.000326042)
(-0.000410279 -0.000814435 0.000326042)
(-0.00026262 -0.000873307 0.000326041)
(-0.000106982 -0.000905643 0.000326041)
(5.19063e-05 -0.000910461 0.00032604)
(0.000209217 -0.000887616 0.00032604)
(0.000360171 -0.000837801 0.00032604)
(0.000500181 -0.00076253 0.000326041)
(0.000624995 -0.00066409 0.000326042)
(0.000730817 -0.000545471 0.000326042)
(0.000814435 -0.000410279 0.000326042)
(0.000873307 -0.00026262 0.000326041)
(0.000905643 -0.000106982 0.000326041)
(0.000910461 5.19064e-05 0.00032604)
(0.000887616 0.000209217 0.00032604)
(0.000837801 0.000360171 0.00032604)
(0.00076253 0.000500181 0.000326041)
(0.00066409 0.000624995 0.000326042)
(0.000545471 0.000730818 0.000326042)
(0.000410279 0.000814435 0.000326042)
(0.00026262 0.000873307 0.000326041)
(0.000106982 0.000905643 0.000326041)
(-0.000231615 0.00112808 0.000469111)
(-0.000423985 0.00107073 0.000469111)
(-0.000603473 0.000980836 0.000469111)
(-0.000764625 0.000861143 0.000469111)
(-0.000902544 0.000715284 0.000469112)
(-0.00101304 0.000547691 0.000469112)
(-0.00109276 0.000363458 0.000469112)
(-0.00113927 0.000168181 0.000469112)
(-0.00115116 -3.22065e-05 0.000469112)
(-0.00112808 -0.000231615 0.000469111)
(-0.00107073 -0.000423985 0.000469111)
(-0.000980836 -0.000603473 0.000469111)
(-0.000861143 -0.000764625 0.000469111)
(-0.000715284 -0.000902544 0.000469112)
(-0.000547691 -0.00101304 0.000469112)
(-0.000363458 -0.00109276 0.000469112)
(-0.000168181 -0.00113927 0.000469112)
(3.22064e-05 -0.00115116 0.000469112)
(0.000231615 -0.00112808 0.000469111)
(0.000423985 -0.00107073 0.000469111)
(0.000603473 -0.000980836 0.000469111)
(0.000764625 -0.000861143 0.000469111)
(0.000902544 -0.000715284 0.000469112)
(0.00101304 -0.000547691 0.000469112)
(0.00109276 -0.000363458 0.000469112)
(0.00113927 -0.000168181 0.000469112)
(0.00115116 3.22065e-05 0.000469112)
(0.00112808 0.000231615 0.000469111)
(0.00107073 0.000423985 0.000469111)
(0.000980836 0.000603473 0.000469111)
(0.000861143 0.000764625 0.000469111)
(0.000715284 0.000902544 0.000469112)
(0.000547691 0.00101304 0.000469112)
(0.000363458 0.00109276 0.000469112)
(0.000168181 0.00113927 0.000469112)
(-3.22065e-05 0.00115116 0.000469112)
(-5.81507e-05 0.000964176 0.000234598)
(-0.000224695 0.00093943 0.000234597)
(-0.000384412 0.00088614 0.000234598)
(-0.000532448 0.000805925 0.000234599)
(-0.000664306 0.000701223 0.0002346)
(-0.00077598 0.000575214 0.000234601)
(-0.000864076 0.000431728 0.000234601)
(-0.000925917 0.000275124 0.000234601)
(-0.000959625 0.00011016 0.000234599)
(-0.000964176 -5.81506e-05 0.000234598)
(-0.00093943 -0.000224695 0.000234597)
(-0.00088614 -0.000384412 0.000234598)
(-0.000805925 -0.000532448 0.000234599)
(-0.000701223 -0.000664306 0.0002346)
(-0.000575214 -0.00077598 0.000234601)
(-0.000431728 -0.000864076 0.000234601)
(-0.000275124 -0.000925917 0.000234601)
(-0.00011016 -0.000959625 0.000234599)
(5.81505e-05 -0.000964176 0.000234598)
(0.000224695 -0.00093943 0.000234598)
(0.000384411 -0.00088614 0.000234598)
(0.000532448 -0.000805925 0.000234599)
(0.000664306 -0.000701223 0.0002346)
(0.00077598 -0.000575214 0.000234601)
(0.000864076 -0.000431728 0.000234601)
(0.000925917 -0.000275124 0.000234601)
(0.000959625 -0.00011016 0.000234599)
(0.000964176 5.81506e-05 0.000234598)
(0.00093943 0.000224695 0.000234598)
(0.00088614 0.000384412 0.000234598)
(0.000805925 0.000532448 0.000234599)
(0.000701223 0.000664306 0.0002346)
(0.000575214 0.00077598 0.000234601)
(0.000431727 0.000864076 0.000234601)
(0.000275123 0.000925917 0.000234601)
(0.00011016 0.000959625 0.000234599)
(-0.000187829 0.00123084 0.000422742)
(-0.000398709 0.00117953 0.000422741)
(-0.000597475 0.00109237 0.000422742)
(-0.000778086 0.000972027 0.000422742)
(-0.000935055 0.000822147 0.000422743)
(-0.00106361 0.000647286 0.000422743)
(-0.00115986 0.000452757 0.000422743)
(-0.00122086 0.000244472 0.000422743)
(-0.00124476 2.87581e-05 0.000422743)
(-0.00123084 -0.000187829 0.000422742)
(-0.00117953 -0.000398709 0.000422741)
(-0.00109237 -0.000597475 0.000422742)
(-0.000972027 -0.000778086 0.000422742)
(-0.000822147 -0.000935055 0.000422743)
(-0.000647286 -0.00106361 0.000422743)
(-0.000452757 -0.00115986 0.000422743)
(-0.000244472 -0.00122085 0.000422743)
(-2.87582e-05 -0.00124476 0.000422743)
(0.000187829 -0.00123084 0.000422742)
(0.000398709 -0.00117953 0.000422742)
(0.000597475 -0.00109237 0.000422742)
(0.000778086 -0.000972027 0.000422742)
(0.000935055 -0.000822147 0.000422743)
(0.00106361 -0.000647286 0.000422743)
(0.00115986 -0.000452757 0.000422743)
(0.00122085 -0.000244472 0.000422743)
(0.00124476 -2.87581e-05 0.000422743)
(0.00123084 0.000187829 0.000422742)
(0.00117953 0.000398709 0.000422742)
(0.00109237 0.000597475 0.000422742)
(0.000972027 0.000778086 0.000422742)
(0.000822147 0.000935055 0.000422743)
(0.000647286 0.00106361 0.000422743)
(0.000452757 0.00115986 0.000422743)
(0.000244472 0.00122085 0.000422743)
(2.8758e-05 0.00124476 0.000422743)
(-0.000357707 0.00147067 0.000581544)
(-0.000607652 0.00138621 0.000581544)
(-0.000839134 0.00125964 0.000581544)
(-0.00104512 0.00109479 0.000581544)
(-0.00121935 0.000896671 0.000581544)
(-0.00135653 0.000671311 0.000581544)
(-0.00145249 0.000425553 0.000581544)
(-0.00150432 0.000166865 0.000581544)
(-0.00151044 -9.68931e-05 0.000581544)
(-0.00147067 -0.000357707 0.000581544)
(-0.00138621 -0.000607652 0.000581544)
(-0.00125964 -0.000839134 0.000581544)
(-0.00109479 -0.00104512 0.000581544)
(-0.000896671 -0.00121935 0.000581544)
(-0.000671312 -0.00135653 0.000581544)
(-0.000425553 -0.00145249 0.000581544)
(-0.000166865 -0.00150432 0.000581544)
(9.6893e-05 -0.00151044 0.000581544)
(0.000357707 -0.00147067 0.000581544)
(0.000607652 -0.00138621 0.000581544)
(0.000839134 -0.00125964 0.000581544)
(0.00104512 -0.00109479 0.000581544)
(0.00121935 -0.000896671 0.000581544)
(0.00135653 -0.000671311 0.000581544)
(0.00145249 -0.000425553 0.000581544)
(0.00150432 -0.000166865 0.000581544)
(0.00151044 9.68931e-05 0.000581545)
(0.00147067 0.000357707 0.000581544)
(0.00138621 0.000607652 0.000581544)
(0.00125964 0.000839134 0.000581544)
(0.00109479 0.00104512 0.000581544)
(0.000896671 0.00121935 0.000581544)
(0.000671311 0.00135653 0.000581544)
(0.000425553 0.00145249 0.000581544)
(0.000166865 0.00150432 0.000581544)
(-9.68932e-05 0.00151044 0.000581544)
(-0.000270436 0.00123596 0.00026744)
(-0.00048095 0.00117022 0.000267439)
(-0.000676851 0.00106893 0.000267439)
(-0.000852185 0.000935157 0.00026744)
(-0.00100163 0.000772969 0.000267441)
(-0.00112063 0.000587295 0.000267442)
(-0.00120559 0.000383776 0.000267442)
(-0.00125392 0.000168597 0.000267442)
(-0.00126415 -5.17047e-05 0.000267441)
(-0.00123596 -0.000270436 0.00026744)
(-0.00117022 -0.00048095 0.000267439)
(-0.00106893 -0.000676851 0.000267439)
(-0.000935157 -0.000852185 0.00026744)
(-0.000772969 -0.00100163 0.000267441)
(-0.000587295 -0.00112063 0.000267442)
(-0.000383777 -0.00120559 0.000267442)
(-0.000168597 -0.00125392 0.000267442)
(5.17046e-05 -0.00126415 0.000267441)
(0.000270436 -0.00123596 0.000267441)
(0.00048095 -0.00117022 0.000267439)
(0.000676851 -0.00106893 0.000267439)
(0.000852185 -0.000935157 0.00026744)
(0.00100163 -0.000772969 0.000267441)
(0.00112063 -0.000587295 0.000267442)
(0.00120559 -0.000383776 0.000267442)
(0.00125392 -0.000168597 0.000267442)
(0.00126415 5.17047e-05 0.000267441)
(0.00123596 0.000270436 0.000267441)
(0.00117022 0.00048095 0.000267439)
(0.00106893 0.000676851 0.00026744)
(0.000935157 0.000852185 0.00026744)
(0.000772969 0.00100163 0.000267441)
(0.000587295 0.00112063 0.000267442)
(0.000383776 0.00120559 0.000267442)
(0.000168597 0.00125392 0.000267442)
(-5.17048e-05 0.00126415 0.000267441)
(-0.000377736 0.00150522 0.000457956)
(-0.000633377 0.00141676 0.000457955)
(-0.000869772 0.00128525 0.000457956)
(-0.00107974 0.00111469 0.000457956)
(-0.0012569 0.000910264 0.000457956)
(-0.00139587 0.000678176 0.000457957)
(-0.00149243 0.000425483 0.000457957)
(-0.00154364 0.000159861 0.000457957)
(-0.00154795 -0.000110618 0.000457957)
(-0.00150522 -0.000377736 0.000457956)
(-0.00141676 -0.000633376 0.000457955)
(-0.00128525 -0.000869772 0.000457956)
(-0.00111469 -0.00107974 0.000457956)
(-0.000910264 -0.0012569 0.000457956)
(-0.000678176 -0.00139587 0.000457957)
(-0.000425483 -0.00149243 0.000457957)
(-0.000159861 -0.00154364 0.000457957)
(0.000110618 -0.00154795 0.000457957)
(0.000377736 -0.00150522 0.000457956)
(0.000633376 -0.00141676 0.000457955)
(0.000869772 -0.00128525 0.000457956)
(0.00107974 -0.00111469 0.000457956)
(0.0012569 -0.000910264 0.000457957)
(0.00139587 -0.000678176 0.000457957)
(0.00149243 -0.000425483 0.000457957)
(0.00154364 -0.000159861 0.000457957)
(0.00154795 0.000110618 0.000457957)
(0.00150522 0.000377736 0.000457956)
(0.00141676 0.000633376 0.000457955)
(0.00128525 0.000869772 0.000457956)
(0.00111469 0.00107974 0.000457956)
(0.000910264 0.0012569 0.000457957)
(0.000678176 0.00139587 0.000457957)
(0.000425483 0.00149243 0.000457957)
(0.000159861 0.00154364 0.000457957)
(-0.000110618 0.00154795 0.000457957)
(-0.000519705 0.00174922 0.000620796)
(-0.000815559 0.0016324 0.000620796)
(-0.00108663 0.00146598 0.000620796)
(-0.00132469 0.00125502 0.000620796)
(-0.0015225 0.00100592 0.000620796)
(-0.00167404 0.000726263 0.000620796)
(-0.00177472 0.000424535 0.000620796)
(-0.00182148 0.000109907 0.000620796)
(-0.0018129 -0.00020806 0.000620796)
(-0.00174922 -0.000519705 0.000620796)
(-0.0016324 -0.000815559 0.000620796)
(-0.00146598 -0.00108663 0.000620796)
(-0.00125502 -0.00132469 0.000620796)
(-0.00100592 -0.0015225 0.000620796)
(-0.000726263 -0.00167404 0.000620796)
(-0.000424535 -0.00177472 0.000620796)
(-0.000109907 -0.00182148 0.000620796)
(0.00020806 -0.0018129 0.000620796)
(0.000519705 -0.00174922 0.000620796)
(0.000815559 -0.0016324 0.000620796)
(0.00108663 -0.00146598 0.000620796)
(0.00132469 -0.00125502 0.000620796)
(0.0015225 -0.00100592 0.000620796)
(0.00167404 -0.000726263 0.000620796)
(0.00177472 -0.000424535 0.000620796)
(0.00182148 -0.000109907 0.000620796)
(0.0018129 0.00020806 0.000620796)
(0.00174922 0.000519705 0.000620796)
(0.0016324 0.000815559 0.000620796)
(0.00146598 0.00108663 0.000620796)
(0.00125502 0.00132469 0.000620796)
(0.00100592 0.0015225 0.000620796)
(0.000726263 0.00167404 0.000620796)
(0.000424535 0.00177472 0.000620796)
(0.000109907 0.00182148 0.000620796)
(-0.00020806 0.0018129 0.000620796)
(-0.000513764 0.00144859 0.000241471)
(-0.000757504 0.00133736 0.000241469)
(-0.000978226 0.00118551 0.000241469)
(-0.00116923 0.000997629 0.00024147)
(-0.0013247 0.000779439 0.00024147)
(-0.00143992 0.000537565 0.00024147)
(-0.00151139 0.000279359 0.00024147)
(-0.00153694 1.26639e-05 0.000241471)
(-0.00151579 -0.000254415 0.000241472)
(-0.00144859 -0.000513764 0.000241471)
(-0.00133736 -0.000757503 0.000241469)
(-0.00118551 -0.000978226 0.000241469)
(-0.000997629 -0.00116923 0.00024147)
(-0.000779439 -0.0013247 0.00024147)
(-0.000537566 -0.00143992 0.000241471)
(-0.000279359 -0.00151139 0.00024147)
(-1.2664e-05 -0.00153694 0.000241471)
(0.000254415 -0.00151579 0.000241472)
(0.000513764 -0.00144859 0.000241471)
(0.000757503 -0.00133736 0.000241469)
(0.000978226 -0.00118551 0.000241469)
(0.00116923 -0.000997629 0.00024147)
(0.0013247 -0.000779438 0.000241471)
(0.00143992 -0.000537565 0.000241471)
(0.00151139 -0.000279359 0.000241471)
(0.00153694 -1.26639e-05 0.000241471)
(0.00151579 0.000254415 0.000241472)
(0.00144859 0.000513764 0.000241471)
(0.00133736 0.000757503 0.000241469)
(0.00118551 0.000978226 0.000241469)
(0.000997629 0.00116923 0.00024147)
(0.000779438 0.0013247 0.000241471)
(0.000537565 0.00143992 0.000241471)
(0.000279359 0.00151139 0.00024147)
(1.26638e-05 0.00153694 0.000241471)
(-0.000254415 0.00151579 0.000241472)
(-0.000599254 0.00171703 0.000429629)
(-0.00088831 0.00158689 0.000429628)
(-0.00115037 0.00140853 0.000429628)
(-0.00137749 0.00118737 0.000429628)
(-0.00156274 0.000930132 0.000429628)
(-0.00170052 0.000644633 0.000429628)
(-0.00178662 0.000339548 0.000429628)
(-0.00181844 2.41464e-05 0.000429629)
(-0.00179501 -0.00029199 0.000429629)
(-0.00171703 -0.000599253 0.000429629)
(-0.00158689 -0.00088831 0.000429628)
(-0.00140853 -0.00115037 0.000429628)
(-0.00118737 -0.00137749 0.000429628)
(-0.000930132 -0.00156274 0.000429628)
(-0.000644633 -0.00170052 0.000429628)
(-0.000339549 -0.00178662 0.000429628)
(-2.41465e-05 -0.00181844 0.000429629)
(0.00029199 -0.00179501 0.000429629)
(0.000599253 -0.00171703 0.000429629)
(0.00088831 -0.00158689 0.000429628)
(0.00115037 -0.00140853 0.000429628)
(0.00137749 -0.00118737 0.000429628)
(0.00156274 -0.000930132 0.000429629)
(0.00170052 -0.000644633 0.000429629)
(0.00178662 -0.000339548 0.000429629)
(0.00181844 -2.41463e-05 0.000429629)
(0.00179501 0.00029199 0.000429629)
(0.00171703 0.000599254 0.000429629)
(0.00158689 0.00088831 0.000429628)
(0.00140853 0.00115037 0.000429628)
(0.00118737 0.00137749 0.000429628)
(0.000930132 0.00156274 0.000429628)
(0.000644633 0.00170052 0.000429628)
(0.000339548 0.00178662 0.000429629)
(2.41462e-05 0.00181844 0.000429629)
(-0.00029199 0.00179501 0.000429629)
(-0.000712679 0.00196342 0.000590802)
(-0.0010428 0.00180984 0.000590802)
(-0.00134123 0.00160126 0.000590802)
(-0.00159891 0.00134404 0.000590801)
(-0.00180801 0.00104597 0.000590801)
(-0.00196217 0.00071612 0.000590801)
(-0.00205671 0.000364514 0.000590802)
(-0.00208876 1.8312e-06 0.000590802)
(-0.00205735 -0.000360907 0.000590802)
(-0.00196342 -0.000712679 0.000590802)
(-0.00180984 -0.0010428 0.000590801)
(-0.00160126 -0.00134123 0.000590802)
(-0.00134404 -0.00159891 0.000590801)
(-0.00104597 -0.00180801 0.000590801)
(-0.00071612 -0.00196217 0.000590801)
(-0.000364514 -0.00205671 0.000590802)
(-1.83132e-06 -0.00208876 0.000590802)
(0.000360907 -0.00205735 0.000590802)
(0.000712679 -0.00196342 0.000590802)
(0.0010428 -0.00180984 0.000590802)
(0.00134123 -0.00160126 0.000590802)
(0.00159891 -0.00134404 0.000590802)
(0.00180801 -0.00104597 0.000590801)
(0.00196217 -0.00071612 0.000590802)
(0.00205671 -0.000364514 0.000590802)
(0.00208876 -1.83116e-06 0.000590802)
(0.00205735 0.000360907 0.000590802)
(0.00196342 0.000712679 0.000590802)
(0.00180984 0.0010428 0.000590802)
(0.00160126 0.00134123 0.000590802)
(0.00134404 0.00159891 0.000590802)
(0.00104597 0.00180801 0.000590801)
(0.00071612 0.00196217 0.000590802)
(0.000364514 0.00205671 0.000590802)
(1.83106e-06 0.00208876 0.000590802)
(-0.000360907 0.00205735 0.000590802)
(-0.000746581 0.00158217 0.000169805)
(-0.00100998 0.00142849 0.000169804)
(-0.00124269 0.00123141 0.000169803)
(-0.00143764 0.000996909 0.000169803)
(-0.00158891 0.000732119 0.000169803)
(-0.00169191 0.000445084 0.000169803)
(-0.00174349 0.000144526 0.000169804)
(-0.0017421 -0.000160423 0.000169804)
(-0.00168778 -0.000460498 0.000169805)
(-0.00158217 -0.000746581 0.000169805)
(-0.00142849 -0.00100998 0.000169804)
(-0.00123141 -0.00124269 0.000169803)
(-0.000996909 -0.00143764 0.000169803)
(-0.000732119 -0.00158891 0.000169803)
(-0.000445084 -0.00169191 0.000169803)
(-0.000144526 -0.00174349 0.000169804)
(0.000160423 -0.0017421 0.000169805)
(0.000460498 -0.00168778 0.000169805)
(0.00074658 -0.00158217 0.000169805)
(0.00100998 -0.00142849 0.000169804)
(0.00124269 -0.00123141 0.000169803)
(0.00143764 -0.000996909 0.000169803)
(0.00158891 -0.000732119 0.000169803)
(0.00169191 -0.000445084 0.000169804)
(0.00174349 -0.000144526 0.000169804)
(0.0017421 0.000160423 0.000169805)
(0.00168778 0.000460498 0.000169806)
(0.00158217 0.000746581 0.000169805)
(0.00142849 0.00100998 0.000169804)
(0.00123141 0.00124269 0.000169803)
(0.000996909 0.00143764 0.000169803)
(0.000732119 0.00158891 0.000169803)
(0.000445084 0.00169191 0.000169803)
(0.000144526 0.00174349 0.000169804)
(-0.000160423 0.0017421 0.000169804)
(-0.000460498 0.00168778 0.000169805)
(-0.000823645 0.00185081 0.000351738)
(-0.00113252 0.00167967 0.000351737)
(-0.00140699 0.00145749 0.000351737)
(-0.0016387 0.00119103 0.000351737)
(-0.00182063 0.000888376 0.000351736)
(-0.00194723 0.000558732 0.000351737)
(-0.00201467 0.000212109 0.000351737)
(-0.0020209 -0.000140957 0.000351737)
(-0.00196572 -0.000489742 0.000351738)
(-0.00185081 -0.000823644 0.000351738)
(-0.00167967 -0.00113252 0.000351737)
(-0.00145749 -0.00140699 0.000351737)
(-0.00119103 -0.0016387 0.000351737)
(-0.000888376 -0.00182063 0.000351736)
(-0.000558732 -0.00194723 0.000351737)
(-0.00021211 -0.00201467 0.000351737)
(0.000140957 -0.0020209 0.000351737)
(0.000489742 -0.00196572 0.000351738)
(0.000823644 -0.00185081 0.000351738)
(0.00113252 -0.00167967 0.000351737)
(0.00140699 -0.00145749 0.000351737)
(0.0016387 -0.00119103 0.000351737)
(0.00182063 -0.000888376 0.000351737)
(0.00194723 -0.000558732 0.000351737)
(0.00201467 -0.000212109 0.000351737)
(0.0020209 0.000140957 0.000351738)
(0.00196572 0.000489742 0.000351738)
(0.00185081 0.000823644 0.000351738)
(0.00167967 0.00113252 0.000351737)
(0.00145749 0.00140699 0.000351737)
(0.00119103 0.0016387 0.000351737)
(0.000888376 0.00182063 0.000351736)
(0.000558732 0.00194723 0.000351737)
(0.000212109 0.00201467 0.000351737)
(-0.000140957 0.0020209 0.000351737)
(-0.000489742 0.00196572 0.000351738)
(-0.000919667 0.00210396 0.000505915)
(-0.00127104 0.00191229 0.000505915)
(-0.0015838 0.00166253 0.000505914)
(-0.00184843 0.00136225 0.000505914)
(-0.0020569 0.00102057 0.000505914)
(-0.00220287 0.000647892 0.000505914)
(-0.00228191 0.000255524 0.000505914)
(-0.00229162 -0.000144607 0.000505915)
(-0.00223169 -0.000540346 0.000505915)
(-0.00210396 -0.000919666 0.000505914)
(-0.00191229 -0.00127104 0.000505915)
(-0.00166253 -0.0015838 0.000505914)
(-0.00136225 -0.00184843 0.000505914)
(-0.00102057 -0.0020569 0.000505914)
(-0.000647892 -0.00220287 0.000505914)
(-0.000255524 -0.00228191 0.000505914)
(0.000144607 -0.00229162 0.000505915)
(0.000540345 -0.00223169 0.000505915)
(0.000919666 -0.00210396 0.000505915)
(0.00127104 -0.00191229 0.000505915)
(0.0015838 -0.00166253 0.000505915)
(0.00184843 -0.00136225 0.000505914)
(0.0020569 -0.00102057 0.000505914)
(0.00220287 -0.000647892 0.000505915)
(0.00228191 -0.000255524 0.000505915)
(0.00229162 0.000144608 0.000505915)
(0.00223169 0.000540346 0.000505915)
(0.00210396 0.000919667 0.000505915)
(0.00191229 0.00127104 0.000505915)
(0.00166253 0.0015838 0.000505915)
(0.00136225 0.00184843 0.000505915)
(0.00102057 0.0020569 0.000505914)
(0.000647892 0.00220287 0.000505915)
(0.000255524 0.00228191 0.000505915)
(-0.000144608 0.00229162 0.000505915)
(-0.000540346 0.00223169 0.000505915)
(-0.000928541 0.00162713 8.03659e-05)
(-0.00119698 0.00144117 8.0365e-05)
(-0.00142905 0.00121142 8.0364e-05)
(-0.00161771 0.000944866 8.03629e-05)
(-0.0017572 0.000649599 8.03622e-05)
(-0.00184331 0.000334595 8.03631e-05)
(-0.00187341 9.42505e-06 8.0364e-05)
(-0.00184658 -0.000316032 8.03647e-05)