/*--------------------------------*- C++ -*----------------------------------*\
| =========                 |                                                 |
| \\      /  F ield         | OpenFOAM: The Open Source CFD Toolbox           |
|  \\    /   O peration     | Version:  2412                                  |
|   \\  /    A nd           | Website:  www.openfoam.com                      |
|    \\/     M anipulation  |                                                 |
\*---------------------------------------------------------------------------*/
FoamFile
{
    version     2.0;
    format      ascii;
    arch        "LSB;label=32;scalar=64";
    class       volScalarField;
    location    "0.0250162";
    object      activationTime;
}
// * * * * * * * * * * * * * * * * * * * * * * * * * * * * * * * * * * * * * //

dimensions      [0 0 1 0 0 0 0];

internalField   nonuniform List<scalar> 
8730
(
0
0
0
0
0
0
0
0
0
0
0
0
0
0
0
0
0
0
0
0
0
0
0
0
0
0
0
0
0
0
0
0
0
0
0
0
0
0
0
0
0
0
0
0
0
0
0
0
0
0
0
0
0
0
0
0
0
0
0
0
0
0
0
0
0
0
0
0
0
0
0
0
0
0
0
0
0
0
0
0
0
0
0
0
0
0
0
0
0
0
0
0
0
0
0
0
0
0
0
0
0
0
0
0
0
0
0
0
0
0
0
0
0
0
0
0
0
0
0
0
0
0
0
0
0
0
0
0
0
0
0
0
0
0
0
0
0
0
0
0
0
0
0
0
0
0
0
0
0
0
0
0
0
0
0
0
0
0
0
0
0
0
0
0
0
0
0
0
0
0
0
0
0
0
0
0
0
0
0
0
0
0
0
0
0
0
0
0
0
0
0
0
0
0
0
0
0
0
0
0
0
0
0
0
0
0
0
0
0
0
0
0
0
0
0
0
0
0
0
0
0
0
0
0
0
0
0
0
0
0
0
0
0
0
0
0
0
0
0
0
0
0
0
0
0
0
0
0
0
0
0
0
0
0
0
0
0
0
0
0
0
0
0
0
0
0
0
0
0
0
0
0
0
0
0
0
0
0
0
0
0
0
0
0
0
0
0
0
0
0
0
0
0
0
0
0
0
0
0
0
0
0
0
0
0
0
0
0
0
0
0
0
0
0
0
0
0
0
0
0
0
0
0
0
0
0
0
0
0
0
0
0
0
0
0
0
0
0
0
0
0
0
0
0
0
0
0
0
0
0
0
0
0
0
0
0
0
0
0
0
0
0
0
0
0
0
0
0
0
0
0
0
0
0
0
0
0
0
0
0
0
0
0
0
0
0
0
0
0
0
0
0
0
0
0
0
0
0
0
0
0
0
0
0
0
0
0
0
0
0
0
0
0
0
0
0
0
0
0
0
0
0
0
0
0
0
0
0
0
0
0
0
0
0
0
0
0
0
0
0
0
0
0
0
0
0
0
0
0
0
0
0
0
0
0
0
0
0
0
0
0
0
0
0
0
0
0
0
0
0
0
0
0
0
0
0
0
0
0
0
0
0
0
0
0
0
0
0
0
0
0
0
0
0
0
0
0
0
0
0
0
0
0
0
0
0
0
0
0
0
0
0
0
0
0
0
0
0
0
0
0
0
0
0
0
0
0
0
0
0
0
0
0
0
0
0
0
0
0
0
0
0
0
0
0
0
0
0
0
0
0
0
0
0
0
0
0
0
0
0
0
0
0
0
0
0
0
0
0
0
0
0
0
0
0
0
0
0
0
0
0
0
0
0
0
0
0
0
0
0
0
0
0
0
0
0
0
0
0
0
0
0
0
0
0
0
0
0
0
0
0
0
0
0
0
0
0
0
0
0
0
0
0
0
0
0
0
0
0
0
0
0
0
0
0
0
0
0
0
0
0
0
0
0
0
0
0
0
0
0
0
0
0
0
0
0
0
0
0
0
0
0
0
0
0
0
0
0
0
0
0
0
0
0
0
0
0
0
0
0
0
0
0
0
0
0
0
0
0
0
0
0
0
0
0
0
0
0
0
0
0
0
0
0
0
0
0
0
0
0
0
0
0
0
0
0
0
0
0
0
0
0
0
0
0
0
0
0
0
0
0
0
0
0
0
0
0
0
0
0
0
0
0
0
0
0
0
0
0
0
0
0
0
0
0
0
0
0
0
0
0
0
0
0
0
0
0
0
0
0
0
0
0
0
0
0
0
0
0
0
0
0
0
0
0
0
0
0
0
0
0
0
0
0
0
0
0
0
0
0
0
0
0
0
0
0
0
0
0
0
0
0
0
0
0
0
0
0
0
0
0
0
0
0
0
0
0
0
0
0
0
0
0
0
0
0
0
0
0
0
0
0
0
0
0
0
0
0
0
0
0
0
0
0
0
0
0
0
0
0
0
0
0
0
0
0
0
0
0
0
0
0
0
0
0
0
0
0
0
0
0
0
0
0
0
0
0
0
0
0
0
0
0
0
0
0
0
0
0
0
0
0
0
0
0
0
0
0
0
0
0
0
0
0
0
0
0
0
0
0
0
0
0
0
0
0
0
0
0
0
0
0
0
0
0
0
0
0
0
0
0
0
0
0
0
0
0
0
0
0
0
0
0
0
0
0
0
0
0
0
0
0
0
0
0
0
0
0
0
0
0
0
0
0
0
0
0
0
0
0
0
0
0
0
0
0
0
0
0
0
0
0
0
0
0
0
0
0
0
0
0
0
0
0
0
0
0
0
0
0
0
0
0
0
0
0
0
0
0
0
0
0
0
0
0
0
0
0
0
0
0
0
0
0
0
0
0
0
0
0
0
0
0
0
0
0
0
0
0
0
0
0
0
0
0
0
0
0
0
0
0
0
0
0
0
0
0
0
0
0
0
0
0
0
0
0
0
0
0
0
0
0
0
0
0
0
0
0
0
0
0
0
0
0
0
0
0
0
0
0
0
0
0
0
0
0
0
0
0
0
0
0
0
0
0
0
0
0
0
0
0
0
0
0
0
0
0
0
0
0
0
0
0
0
0
0
0
0
0
0
0
0
0
0
0
0
0
0
0
0
0
0
0
0
0
0
0
0
0
0
0
0
0
0
0
0
0
0
0
0
0
0
0
0
0
0
0
0
0
0
0
0
0
0
0
0
0
0
0
0
0
0
0
0
0
0
0
0
0
0
0
0
0
0
0
0
0
0
0
0
0
0
0
0
0
0
0
0
0
0
0
0
0
0
0
0
0
0
0
0
0
0
0
0
0
0
0
0
0
0
0
0
0
0
0
0
0
0
0
0
0
0
0
0
0
0
0
0
0
0
0
0
0
0
0
0
0
0
0
0
0
0
0
0
0
0
0
0
0
0
0
0
0
0
0
0
0
0
0
0
0
0
0
0
0
0
0
0
0
0
0
0
0
0
0
0
0
0
0
0
0
0
0
0
0
0
0
0
0
0
0
0
0
0
0
0
0
0
0
0
0
0
0
0
0
0
0
0
0
0
0
0
0
0
0
0
0
0
0
0
0
0
0
0
0
0
0
0
0
0
0
0
0
0
0
0
0
0
0
0
0
0
0
0
0
0
0
0
0
0
0
0
0
0
0
0
0
0
0
0
0
0
0
0
0
0
0
0
0
0
0
0
0
0
0
0
0
0
0
0
0
0
0
0
0
0
0
0
0
0
0
0
0
0
0
0
0
0
0
0
0
0
0
0
0
0
0
0
0
0
0
0
0
0
0
0
0
0
0
0
0
0
0
0
0
0
0
0
0
0
0
0
0
0
0
0
0
0
0
0
0
0
0
0
0
0
0
0
0
0
0
0
0
0
0
0
0
0
0
0
0
0
0
0
0
0
0
0
0
0
0
0
0
0
0
0
0
0
0
0
0
0
0
0
0
0
0
0
0
0
0
0
0
0
0
0
0
0
0
0
0
0
0
0
0
0
0
0
0
0
0
0
0
0
0
0
0
0
0
0
0
0
0
0
0
0
0
0
0
0
0
0
0
0
0
0
0
0
0
0
0
0
0
0
0
0
0
0
0
0
0
0
0
0
0
0
0
0
0
0
0
0
0
0
0
0
0
0
0
0
0
0
0
0
0
0
0
0
0
0
0
0
0
0
0
0
0
0
0
0
0
0
0
0
0
0
0
0
0
0
0
0
0
0
0
0
0
0
0
0
0
0
0
0
0
0
0
0
0
0
0
0
0
0
0
0
0
0
0
0
0
0
0
0
0
0
0
0
0
0
0
0
0
0
0
0
0
0
0
0
0
0
0
0
0
0
0
0
0
0
0
0
0
0
0
0
0
0
0
0
0
0
0
0
0
0
0
0
0
0
0
0
0
0
0
0
0
0
0
0
0
0
0
0
0
0
0
0
0
0
0
0
0
0
0
0
0
0
0
0
0
0
0
0
0
0
0
0
0
0
0
0
0
0
0
0
0
0
0
0
0
0
0
0
0
0
0
0
0
0
0
0
0
0
0
0
0
0
0
0
0
0
0
0
0
0
0
0
0
0
0
0
0
0
0
0
0
0
0
0
0
0
0
0
0
0
0
0
0
0
0
0
0
0
0
0
0
0
0
0
0
0
0
0
0
0
0
0
0
0
0
0
0
0
0
0
0
0
0
0
0
0
0
0
0
0
0
0
0
0
0
0
0
0
0
0
0
0
0
0
0
0
0
0
0
0
0
0
0
0
0
0
0
0
0
0
0
0
0
0
0
0
0
0
0
0
0
0
0
0
0
0
0
0
0
0
0
0
0
0
0
0
0
0
0
0
0
0
0
0
0
0
0
0
0
0
0
0
0
0
0
0
0
0
0
0
0
0
0
0
0
0
0
0
0
0
0
0
0
0
0
0
0
0
0
0
0
0
0
0
0
0
0
0
0
0
0
0
0
0
0
0
0
0
0
0
0
0
0
0
0
0
0
0
0
0
0
0
0
0
0
0
0
0
0
0
0
0
0
0
0
0
0
0
0
0
0
0
0
0
0
0
0
0
0
0
0
0
0
0
0
0
0
0
0
0
0
0
0
0
0
0
0
0
0
0
0
0
0
0
0
0
0
0
0
0
0
0
0
0
0
0
0
0
0
0
0
0
0
0
0
0
0
0
0
0
0
0
0
0
0
0
0
0
0
0
0
0
0
0
0
0
0
0
0
0
0
0
0
0
0
0
0
0
0
0
0
0
0
0
0
0
0
0
0
0
0
0
0
0
0
0
0
0
0
0
0
0
0
0
0
0
0
0
0
0
0
0
0
0
0
0
0
0
0
0
0
0
0
0
0
0
0
0
0
0
0
0
0
0
0
0
0
0
0
0
0
0
0
0
0
0
0
0
0
0
0
0
0
0
0
0
0
0
0
0
0
0
0
0
0
0
0
0
0
0
0
0
0
0
0
0
0
0
0
0
0
0
0
0
0
0
0
0
0
0
0
0
0
0
0
0
0
0
0
0
0
0
0
0
0
0
0
0
0
0
0
0
0
0
0
0
0
0
0
0
0
0
0
0
0
0
0
0
0
0
0
0
0
0
0
0
0
0
0
0
0
0
0
0
0
0
0
0
0
0
0
0
0
0
0
0
0
0
0
0
0
0
0
0
0
0
0
0
0
0
0
0
0
0
0
0
0
0
0
0
0
0
0
0
0
0
0
0
0
0
0
0
0
0
0
0
0
0
0
0
0
0
0
0
0
0
0
0
0
0
0
0
0
0
0
0
0
0
0
0
0
0
0
0
0
0
0
0
0
0
0
0
0
0
0
0
0
0
0
0
0
0
0
0
0
0
0
0
0
0
0
0
0
0
0
0
0
0
0
0
0
0
0
0
0
0
0
0
0
0
0
0
0
0
0
0
0
0
0
0
0
0
0
0
0
0
0
0
0
0
0
0
0
0
0
0
0
0
0
0
0
0
0
0
0
0
0
0
0
0
0
0
0
0
0
0
0
0
0
0
0
0
0
0
0
0
0
0
0
0
0
0
0
0
0
0
0
0
0
0
0
0
0
0
0
0
0
0
0
0
0
0
0
0
0
0
0
0
0
0
0
0
0
0
0
0
0
0
0
0
0
0
0
0
0
0
0
0
0
0
0
0
0
0
0
0
0
0
0
0
0
0
0
0
0
0
0
0
0
0
0
0
0
0
0
0
0
0
0
0
0
0
0
0
0
0
0
0
0
0
0
0
0
0
0
0
0
0
0
0
0
0
0
0
0
0
0
0
0
0
0
0
0
0
0
0
0
0
0
0
0
0
0
0
0
0
0
0
0
0
0
0
0
0
0
0
0
0
0
0
0
0
0
0
0
0
0
0
0
0
0
0
0
0
0
0
0
0
0
0
0
0
0
0
0
0
0
0
0
0
0
0
0
0
0
0
0
0
0
0
0
0
0
0
0
0
0
0
0
0
0
0
0
0
0
0
0
0
0
0
0
0
0
0
0
0
0
0
0
0
0
0
0
0
0
0
0
0
0
0
0
0
0
0
0
0
0
0
0
0
0
0
0
0
0
0
0
0
0
0
0
0
0
0
0
0
0
0
0
0
0
0
0
0
0
0
0
0
0
0
0
0
0
0
0
0
0
0
0
0
0
0
0
0
0
0
0
0
0
0
0
0
0
0
0
0
0
0
0
0
0
0
0
0
0.0241706
0.0243146
0.0244594
0.0246115
0.0247623
0.0249151
0
0
0
0
0
0
0
0
0
0
0.0241816
0.0243286
0.0244741
0.0246219
0.0247764
0.0249297
0
0
0
0
0
0
0
0
0
0
0.0242108
0.0243543
0.0244987
0.0246499
0.0248001
0.0249522
0
0
0
0
0
0
0
0
0
0
0.024252
0.0243948
0.0245387
0.0246892
0.0248389
0.0249901
0
0
0
0
0
0
0
0
0
0
0.0243059
0.0244518
0.0245957
0.0247473
0.024897
0
0
0
0
0
0
0
0
0
0
0
0.0243791
0.024524
0.0246678
0.0248182
0.0249672
0
0
0
0
0
0
0
0
0
0
0
0.0244772
0.0246216
0.0247641
0.0249093
0
0
0
0
0
0
0
0
0
0
0
0
0.0245947
0.0247382
0.0248803
0
0
0
0
0
0
0
0
0
0
0
0
0
0.0247402
0.0248784
0
0
0
0
0
0
0
0
0
0
0
0
0
0
0.024911
0
0
0
0
0
0
0
0
0
0
0
0
0
0
0
0
0
0
0
0
0
0
0
0
0
0
0
0
0
0
0
0
0
0
0
0
0
0
0
0
0
0
0
0
0
0
0
0
0
0
0
0
0
0
0
0
0
0
0
0
0
0
0
0
0
0
0
0
0
0
0
0
0
0
0
0
0
0
0
0
0
0
0
0
0
0
0
0
0
0
0
0
0
0
0
0.022973
0.0231219
0.0232728
0.0234302
0.0235869
0.0237456
0.0239062
0.0240693
0.0242348
0.0244028
0.0245733
0.0247464
0.0249167
0
0
0
0.0229839
0.0231359
0.0232872
0.0234407
0.023601
0.0237606
0.0239217
0.0240851
0.0242508
0.0244187
0.0245841
0.0247543
0.0249277
0
0
0
0.0230115
0.0231599
0.0233152
0.0234689
0.0236241
0.0237817
0.0239415
0.024104
0.0242691
0.0244369
0.0246072
0.0247799
0.0249552
0
0
0
0.0230533
0.0232001
0.0233543
0.0235071
0.023662
0.023819
0.0239783
0.0241402
0.0243049
0.0244724
0.0246424
0.0248151
0.0249904
0
0
0
0.0231109
0.0232583
0.0234076
0.023559
0.0237171
0.0238755
0.0240355
0.0241975
0.0243621
0.0245291
0.0246987
0.0248709
0
0
0
0
0.0231853
0.0233321
0.0234808
0.0236358
0.0237908
0.0239473
0.0241058
0.0242667
0.0244303
0.0245965
0.0247653
0.0249367
0
0
0
0
0.0232786
0.0234283
0.0235772
0.0237279
0.023885
0.0240421
0.0242005
0.0243609
0.0245239
0.0246894
0.0248574
0
0
0
0
0
0.023399
0.0235469
0.0236954
0.0238494
0.0240027
0.0241574
0.0243138
0.0244724
0.0246342
0.0247988
0.0249657
0
0
0
0
0
0.0235478
0.0236921
0.0238416
0.0239918
0.0241426
0.0243003
0.024458
0.0246164
0.0247766
0.0249388
0
0
0
0
0
0
0.0237241
0.0238665
0.024015
0.0241628
0.0243118
0.0244632
0.0246221
0.0247802
0.0249391
0
0
0
0
0
0
0
0.0239257
0.0240662
0.0242122
0.0243578
0.0245045
0.0246584
0.0248114
0.0249662
0
0
0
0
0
0
0
0
0.0241528
0.0242947
0.0244356
0.0245824
0.0247278
0.0248754
0
0
0
0
0
0
0
0
0
0
0.0244061
0.0245458
0.0246839
0.0248288
0.0249718
0
0
0
0
0
0
0
0
0
0
0
0.0246622
0.0248002
0.0249364
0
0
0
0
0
0
0
0
0
0
0
0
0
0.0248532
0.0249895
0
0
0
0
0
0
0
0
0
0
0
0
0
0
0.0217888
0.0219437
0.0221006
0.0222595
0.0224208
0.0225851
0.0227522
0.0229222
0.0230952
0.0232712
0.0234443
0.0236222
0.0238039
0.0239843
0.0241696
0.0243543
0.0218011
0.0219564
0.0221135
0.022273
0.0224349
0.0225995
0.0227667
0.0229368
0.0231098
0.0232804
0.0234557
0.0236349
0.0238129
0.0239956
0.0241823
0.0243676
0.0218253
0.0219801
0.0221369
0.0222958
0.0224571
0.0226212
0.0227881
0.0229575
0.0231299
0.0233052
0.0234833
0.0236583
0.0238383
0.0240181
0.0242032
0.024392
0.0218641
0.0220185
0.0221748
0.0223334
0.0224948
0.0226589
0.0228255
0.0229947
0.0231664
0.0233411
0.0235189
0.0236938
0.0238737
0.0240577
0.02424
0.0244268
0.0219208
0.0220748
0.0222311
0.0223895
0.0225504
0.0227141
0.0228805
0.0230498
0.0232219
0.0233969
0.0235694
0.0237465
0.0239271
0.0241067
0.0242909
0.024474
0.0219986
0.0221517
0.022307
0.0224644
0.0226241
0.0227871
0.0229527
0.0231209
0.0232916
0.0234651
0.0236418
0.0238158
0.0239947
0.0241769
0.0243585
0.0245447
0.0220921
0.0222474
0.0224032
0.0225604
0.0227198
0.0228817
0.0230465
0.023214
0.0233844
0.0235578
0.023734
0.0239071
0.0240852
0.0242677
0.0244482
0.0246335
0.0222153
0.0223692
0.0225235
0.0226791
0.0228368
0.0229977
0.0231615
0.0233279
0.0234969
0.0236684
0.0238431
0.0240211
0.0241959
0.0243757
0.0245593
0.0247414
0.0223683
0.0225185
0.0226698
0.022829
0.022988
0.0231479
0.0233096
0.023474
0.0236414
0.023812
0.0239802
0.0241535
0.0243301
0.0245096
0.0246878
0.0248712
0.0225466
0.0226977
0.0228482
0.0230001
0.0231603
0.0233199
0.0234807
0.0236437
0.0238094
0.0239781
0.0241492
0.0243176
0.0244914
0.0246689
0.0248495
0
0.0227566
0.0229059
0.0230541
0.0232037
0.0233613
0.0235182
0.0236761
0.0238368
0.0240005
0.0241669
0.0243359
0.0245073
0.0246816
0.0248539
0
0
0.0229958
0.0231427
0.0232883
0.0234406
0.0235916
0.0237449
0.0239006
0.0240637
0.0242267
0.0243914
0.0245588
0.0247235
0.0248937
0
0
0
0.0232647
0.0234054
0.0235517
0.0236985
0.0238513
0.024003
0.0241568
0.024313
0.0244768
0.0246404
0.0248057
0.0249729
0
0
0
0
0.0235387
0.0236802
0.0238215
0.0239682
0.024116
0.0242692
0.0244215
0.0245756
0.0247321
0.024891
0
0
0
0
0
0
0.0237524
0.0238926
0.0240321
0.0241771
0.024323
0.0244744
0.0246259
0.0247785
0.0249328
0
0
0
0
0
0
0
0.0206147
0.0207781
0.0209434
0.0211059
0.0212733
0.0214444
0.0216191
0.0217976
0.0219736
0.0221547
0.0223407
0.0225246
0.0227088
0.0229004
0.0230906
0.0232875
0.0206242
0.0207848
0.0209482
0.0211146
0.021284
0.0214565
0.0216322
0.0218057
0.0219841
0.0221665
0.022348
0.0225341
0.0227203
0.0229119
0.0231033
0.0232947
0.0206514
0.0208134
0.0209777
0.0211446
0.0213143
0.0214817
0.0216541
0.0218309
0.0220116
0.0221898
0.0223731
0.0225566
0.0227448
0.0229331
0.0231267
0.0233204
0.0206897
0.0208514
0.0210155
0.0211824
0.021352
0.0215194
0.0216918
0.021868
0.0220487
0.0222265
0.0224094
0.0225922
0.0227803
0.0229676
0.0231614
0.0233549
0.0207425
0.0209022
0.0210653
0.0212311
0.0213998
0.0215711
0.0217454
0.0219232
0.0220986
0.0222789
0.0224637
0.0226468
0.0228348
0.0230226
0.0232103
0.0234059
0.0208225
0.020984
0.0211474
0.0213133
0.0214819
0.0216482
0.0218196
0.021995
0.0221745
0.0223513
0.0225332
0.0227147
0.0229022
0.0230884
0.0232816
0.0234736
0.0209188
0.0210769
0.0212379
0.0214025
0.0215699
0.0217398
0.0219128
0.0220891
0.022263
0.0224418
0.0226242
0.022806
0.0229925
0.0231784
0.0233707
0.0235624
0.0210449
0.0212011
0.0213607
0.0215237
0.0216897
0.0218583
0.0220296
0.0222038
0.0223816
0.0225567
0.0227371
0.0229216
0.0231049
0.023293
0.0234814
0.0236697
0.0211983
0.0213538
0.0215166
0.0216796
0.0218446
0.0220122
0.0221774
0.0223477
0.0225218
0.022699
0.0228798
0.0230591
0.0232432
0.0234265
0.0236164
0.0238049
0.0213892
0.0215422
0.0216977
0.021857
0.022019
0.0221838
0.022351
0.0225212
0.0226943
0.0228703
0.0230446
0.0232247
0.0234084
0.0235898
0.0237784
0.0239649
0.0216024
0.0217573
0.0219113
0.0220682
0.0222277
0.0223901
0.0225554
0.0227238
0.0228951
0.0230693
0.0232461
0.0234205
0.0236015
0.0237858
0.0239678
0.0241572
0.0218558
0.0220086
0.0221603
0.0223146
0.0224712
0.0226306
0.0227931
0.0229587
0.0231271
0.0232984
0.0234727
0.0236497
0.0238298
0.0240073
0.0241914
0.0243742
0.0221397
0.022289
0.0224393
0.0225906
0.0227487
0.0229076
0.0230682
0.0232311
0.0233967
0.0235652
0.0237369
0.0239116
0.0240842
0.0242615
0.0244442
0.0246245
0.0224386
0.0225857
0.022733
0.0228817
0.0230379
0.0231946
0.0233525
0.0235123
0.0236748
0.0238406
0.0240094
0.0241815
0.0243562
0.0245341
0.0247094
0.0248895
0.0226743
0.0228196
0.0229647
0.0231159
0.0232671
0.0234195
0.0235797
0.0237398
0.0239013
0.0240653
0.0242321
0.0244019
0.0245747
0.0247454
0.0249207
0
0.0194533
0.0196229
0.0197958
0.0199668
0.0201431
0.0203244
0.020504
0.020689
0.0208742
0.0210649
0.0212555
0.0214465
0.0216457
0.0218443
0.0220439
0.0222455
0.0194693
0.0196339
0.019804
0.0199779
0.0201562
0.0203329
0.0205149
0.0207016
0.0208867
0.0210724
0.0212658
0.0214585
0.0216527
0.0218545
0.0220557
0.0222579
0.0194889
0.0196582
0.0198307
0.0200014
0.0201773
0.020357
0.0205365
0.0207213
0.0209052
0.0210958
0.0212851
0.0214813
0.0216769
0.0218732
0.0220723
0.0222746
0.0195266
0.0196954
0.0198676
0.0200429
0.0202159
0.0203945
0.0205782
0.02076
0.0209472
0.0211343
0.0213216
0.0215169
0.0217114
0.0219071
0.0221063
0.0223129
0.0195853
0.0197541
0.0199212
0.0200937
0.0202699
0.0204506
0.0206294
0.0208133
0.0209973
0.0211868
0.0213758
0.021571
0.0217663
0.021962
0.0221597
0.0223613
0.0196609
0.019829
0.0200001
0.0201692
0.0203437
0.0205223
0.0207057
0.0208866
0.0210727
0.0212589
0.0214453
0.02164
0.0218337
0.0220291
0.022232
0.0224346
0.0197586
0.0199249
0.0200942
0.0202662
0.0204413
0.020621
0.0207984
0.0209808
0.0211633
0.0213514
0.0215384
0.0217323
0.0219256
0.0221193
0.022317
0.0225219
0.0198857
0.0200508
0.0202189
0.0203899
0.020564
0.0207421
0.0209181
0.0210996
0.0212798
0.0214672
0.0216529
0.0218456
0.022037
0.0222314
0.0224321
0.0226322
0.0200484
0.0202141
0.0203768
0.0205446
0.0207161
0.0208913
0.0210694
0.0212466
0.0214291
0.0216106
0.0217987
0.021986
0.02218
0.0223723
0.022568
0.0227705
0.0202407
0.0204014
0.0205653
0.0207324
0.0209028
0.0210773
0.0212495
0.021427
0.0216086
0.0217886
0.0219753
0.0221603
0.0223532
0.022544
0.0227371
0.0229379
0.020467
0.0206252
0.0207861
0.0209503
0.0211178
0.0212886
0.0214622
0.0216391
0.0218193
0.0219972
0.0221818
0.0223646
0.0225548
0.0227436
0.0229348
0.023132
0.0207363
0.0208925
0.021051
0.0212122
0.0213764
0.0215437
0.0217144
0.0218886
0.0220661
0.0222411
0.0224226
0.0226038
0.02279
0.0229774
0.0231689
0.0233619
0.0210374
0.0211942
0.0213517
0.0215108
0.0216723
0.0218367
0.0220043
0.0221754
0.0223501
0.0225226
0.0227003
0.0228826
0.0230644
0.0232505
0.0234377
0.0236294
0.0213665
0.0215179
0.0216706
0.0218256
0.0219848
0.0221516
0.022319
0.0224836
0.022653
0.0228257
0.0230018
0.0231827
0.0233611
0.0235445
0.0237287
0.0239181
0.0216326
0.0217797
0.0219343
0.0220884
0.0222442
0.022404
0.0225669
0.0227323
0.0229004
0.0230712
0.0232451
0.0234223
0.0235987
0.02378
0.0239649
0.0241499
0.0183134
0.0184876
0.0186674
0.0188519
0.0190357
0.0192253
0.0194154
0.0196061
0.0198049
0.0200039
0.0202041
0.0204063
0.020611
0.0208189
0.0210302
0.0212451
0.0183239
0.0185005
0.0186815
0.0188621
0.0190478
0.0192341
0.0194266
0.0196193
0.0198127
0.0200097
0.0202136
0.0204177
0.0206236
0.0208322
0.021044
0.0212542
0.0183483
0.0185275
0.0187045
0.018887
0.0190702
0.0192589
0.019448
0.0196382
0.0198361
0.0200337
0.0202327
0.0204352
0.0206406
0.0208485
0.0210594
0.0212731
0.0183854
0.018564
0.0187408
0.0189233
0.0191058
0.0192945
0.0194826
0.0196774
0.0198723
0.020068
0.020267
0.0204693
0.0206745
0.0208825
0.0210932
0.0213069
0.0184421
0.0186155
0.0187945
0.0189785
0.0191616
0.01935
0.0195389
0.019728
0.0199257
0.020123
0.0203215
0.0205227
0.0207275
0.020935
0.0211453
0.0213584
0.0185184
0.0186963
0.0188718
0.0190531
0.0192348
0.0194225
0.0196097
0.0198035
0.0199973
0.0201919
0.0203901
0.0205914
0.0208006
0.0210103
0.0212166
0.0214276
0.0186213
0.0187952
0.0189733
0.0191512
0.0193347
0.0195176
0.0197079
0.0198967
0.0200934
0.0202892
0.020486
0.020686
0.0208893
0.0210953
0.0213042
0.021516
0.0187488
0.0189226
0.0191004
0.0192772
0.0194599
0.0196416
0.0198307
0.0200183
0.0202137
0.0204078
0.0206036
0.0208028
0.0210047
0.0212145
0.0214248
0.0216318
0.0189116
0.0190837
0.0192595
0.0194392
0.0196173
0.0198009
0.019984
0.0201741
0.0203631
0.0205544
0.0207529
0.0209509
0.0211511
0.0213549
0.0215614
0.0217706
0.0191104
0.0192799
0.0194531
0.01963
0.0198052
0.0199866
0.0201728
0.020357
0.0205491
0.0207389
0.0209316
0.0211319
0.0213315
0.0215323
0.0217366
0.0219437
0.0193552
0.0195232
0.0196889
0.0198608
0.0200371
0.0202174
0.0203959
0.0205815
0.020766
0.0209571
0.0211474
0.0213407
0.0215406
0.0217405
0.0219432
0.0221485
0.0196385
0.0198031
0.0199704
0.020141
0.0203098
0.0204846
0.0206647
0.0208435
0.0210274
0.0212132
0.0214034
0.021595
0.0217927
0.0219902
0.0221902
0.0223926
0.0199675
0.0201285
0.0202924
0.0204595
0.0206299
0.020804
0.0209762
0.0211535
0.021337
0.0215185
0.0217062
0.0218943
0.0220895
0.0222836
0.0224801
0.0226787
0.0203267
0.0204828
0.0206433
0.0208072
0.0209743
0.0211444
0.0213172
0.0214939
0.0216752
0.0218538
0.0220381
0.0222235
0.022414
0.0226056
0.022798
0.0229975
0.0206308
0.020786
0.020943
0.0211037
0.0212672
0.0214339
0.0216038
0.0217772
0.0219545
0.0221304
0.0223117
0.0224926
0.02268
0.0228673
0.023061
0.0232542
0.0171957
0.0173797
0.0175711
0.0177619
0.0179552
0.0181561
0.0183572
0.0185602
0.018766
0.0189755
0.0191886
0.0194055
0.0196203
0.0198404
0.0200649
0.0202896
0.0205196
0.017209
0.0173943
0.0175852
0.0177771
0.0179697
0.0181657
0.0183696
0.018574
0.0187808
0.0189906
0.0191989
0.0194125
0.0196302
0.0198517
0.0200734
0.0203001
0.0205319
0.0172306
0.0174177
0.0176059
0.0177949
0.0179924
0.0181898
0.018389
0.0185914
0.0187974
0.0190063
0.0192184
0.0194337
0.019654
0.0198723
0.0200959
0.0203201
0.0205506
0.0172663
0.0174531
0.0176404
0.017834
0.0180286
0.0182243
0.018423
0.0186256
0.0188312
0.0190397
0.0192515
0.0194665
0.0196852
0.0199095
0.020131
0.020358
0.020586
0.0173212
0.0175044
0.0176949
0.0178846
0.0180821
0.0182797
0.0184786
0.0186799
0.0188848
0.0190932
0.0193048
0.0195202
0.0197402
0.0199579
0.020181
0.020405
0.020635
0.0173995
0.0175852
0.0177719
0.0179596
0.0181556
0.0183514
0.0185493
0.0187511
0.0189556
0.0191632
0.0193742
0.0195885
0.0198061
0.0200282
0.020249
0.0204749
0.0207012
0.0175034
0.0176865
0.0178751
0.018064
0.0182542
0.0184531
0.0186517
0.0188518
0.0190547
0.0192613
0.0194712
0.0196843
0.019902
0.0201182
0.0203397
0.0205655
0.0207918
0.0176343
0.0178177
0.0180009
0.0181915
0.0183814
0.0185799
0.0187777
0.0189766
0.0191784
0.0193837
0.0195921
0.0198037
0.020019
0.020239
0.0204571
0.0206808
0.0209042
0.0178029
0.0179842
0.0181701
0.0183561
0.0185432
0.0187385
0.0189333
0.0191309
0.0193314
0.0195348
0.0197414
0.0199514
0.0201649
0.0203819
0.0206022
0.0208221
0.0210482
0.0180114
0.01819
0.0183737
0.0185563
0.0187464
0.0189355
0.0191273
0.0193271
0.0195266
0.0197275
0.0199323
0.0201402
0.0203516
0.0205667
0.0207813
0.0210012
0.0212254
0.0182627
0.0184395
0.0186206
0.0187999
0.0189872
0.0191733
0.0193671
0.0195598
0.0197562
0.0199548
0.0201563
0.0203611
0.0205695
0.0207816
0.020997
0.021216
0.0214386
0.01857
0.0187436
0.0189161
0.0190941
0.0192783
0.0194611
0.0196507
0.019841
0.0200335
0.0202327
0.0204329
0.0206351
0.0208402
0.0210486
0.0212606
0.0214763
0.021696
0.0189278
0.0190967
0.0192693
0.0194464
0.0196224
0.0198039
0.0199918
0.020178
0.0203662
0.0205615
0.020758
0.0209563
0.0211574
0.0213676
0.0215731
0.0217835
0.0219982
0.0193332
0.0194982
0.0196669
0.019839
0.0200142
0.020194
0.0203734
0.0205579
0.0207431
0.0209347
0.0211266
0.0213251
0.0215244
0.0217262
0.0219302
0.0221373
0.0223478
0.0196828
0.0198449
0.0200102
0.0201789
0.0203512
0.020523
0.0207003
0.0208821
0.021063
0.0212502
0.0214377
0.0216317
0.0218251
0.0220223
0.0222265
0.0224313
0.0226384
0.0161104
0.0163082
0.0165079
0.0167104
0.0169163
0.0171261
0.0173401
0.0175585
0.0177753
0.017998
0.0182271
0.0184549
0.0186843
0.0189214
0.0191592
0.0193983
0.019641
0.0161195
0.0163205
0.016522
0.0167255
0.0169322
0.0171427
0.017352
0.017567
0.0177863
0.0180103
0.0182347
0.0184647
0.0186961
0.0189337
0.0191717
0.0194117
0.0196543
0.0161449
0.0163408
0.0165393
0.0167422
0.0169486
0.0171584
0.0173717
0.0175888
0.0178114
0.0180318
0.0182577
0.0184852
0.0187181
0.0189528
0.0191889
0.0194329
0.0196782
0.0161796
0.0163747
0.0165736
0.0167765
0.0169826
0.0171922
0.0174055
0.0176224
0.0178441
0.018065
0.018291
0.0185177
0.0187509
0.0189847
0.0192254
0.0194676
0.0197116
0.0162347
0.0164315
0.0166301
0.0168316
0.0170373
0.0172466
0.0174596
0.0176771
0.017894
0.0181163
0.0183431
0.0185707
0.0188035
0.0190378
0.0192736
0.0195173
0.0197624
0.0163101
0.0165055
0.0167033
0.0169053
0.0171105
0.0173191
0.0175313
0.0177473
0.0179675
0.0181874
0.0184126
0.0186434
0.0188735
0.019105
0.0193443
0.0195851
0.0198279
0.0164138
0.0166124
0.0168114
0.0170122
0.0172158
0.017423
0.0176342
0.0178499
0.0180644
0.0182847
0.0185095
0.0187353
0.0189664
0.0191986
0.0194324
0.0196749
0.0199179
0.0165525
0.0167436
0.0169391
0.0171421
0.0173462
0.0175528
0.0177631
0.0179776
0.0181904
0.0184092
0.0186326
0.0188563
0.0190862
0.0193164
0.0195538
0.0197925
0.0200329
0.0167259
0.0169151
0.0171086
0.01731
0.017512
0.0177164
0.0179243
0.0181365
0.0183529
0.0185674
0.0187879
0.0190129
0.0192391
0.0194713
0.0197046
0.0199386
0.0201819
0.016941
0.0171311
0.0173225
0.0175221
0.0177213
0.0179224
0.0181277
0.0183365
0.0185492
0.0187664
0.0189821
0.0192041
0.019431
0.0196586
0.0198922
0.0201268
0.0203628
0.0172123
0.0173967
0.0175864
0.017779
0.0179786
0.018178
0.0183801
0.0185855
0.0187948
0.019008
0.019225
0.0194413
0.0196641
0.0198916
0.0201195
0.0203538
0.020589
0.0175428
0.0177274
0.0179111
0.0181023
0.0182936
0.0184881
0.018685
0.0188903
0.0190971
0.019307
0.0195209
0.0197325
0.0199507
0.0201742
0.0203967
0.0206272
0.020857
0.0179458
0.0181208
0.0183019
0.0184852
0.0186742
0.0188651
0.0190627
0.0192612
0.0194624
0.0196665
0.0198742
0.0200853
0.0203005
0.0205201
0.0207382
0.0209637
0.021189
0.018406
0.0185784
0.0187555
0.0189378
0.0191199
0.0193076
0.0194974
0.0196885
0.0198877
0.0200878
0.0202902
0.0204958
0.0207051
0.0209187
0.021136
0.0213573
0.0215767
0.0188088
0.0189782
0.0191517
0.0193294
0.0195067
0.0196895
0.019878
0.0200646
0.0202552
0.0204513
0.0206481
0.0208484
0.0210518
0.0212588
0.0214695
0.0216837
0.021901
0.0150605
0.0152712
0.0154861
0.0157065
0.0159258
0.0161508
0.0163771
0.0166102
0.0168443
0.0170862
0.0173296
0.0175757
0.017825
0.018078
0.0183345
0.0185899
0.0188508
0.019117
0.0150754
0.0152866
0.0155023
0.0157171
0.015938
0.0161646
0.0163915
0.0166249
0.0168595
0.0170965
0.0173365
0.0175858
0.0178367
0.0180904
0.0183421
0.0185998
0.0188624
0.0191292
0.015094
0.0153046
0.0155193
0.0157378
0.0159623
0.0161852
0.0164145
0.0166453
0.0168778
0.0171189
0.0173614
0.0176063
0.0178546
0.0181065
0.0183623
0.0186223
0.0188814
0.0191458
0.0151314
0.0153408
0.0155547
0.0157728
0.015996
0.0162195
0.016449
0.01668
0.0169173
0.0171561
0.017397
0.0176409
0.0178881
0.0181394
0.0183946
0.0186541
0.0189177
0.0191797
0.0151842
0.0153945
0.0156088
0.0158276
0.0160466
0.0162712
0.0165017
0.0167323
0.016965
0.0172057
0.0174482
0.0176929
0.0179407
0.0181922
0.0184476
0.0187072
0.0189659
0.01923
0.0152599
0.0154693
0.0156827
0.0159001
0.0161227
0.0163453
0.0165738
0.0168038
0.0170399
0.0172779
0.0175178
0.017761
0.0180078
0.0182586
0.0185134
0.0187722
0.0190349
0.0193019
0.0153678
0.0155764
0.0157897
0.0160079
0.0162243
0.0164468
0.0166708
0.0169016
0.0171333
0.0173727
0.0176137
0.0178568
0.0181029
0.0183528
0.0186067
0.0188646
0.0191266
0.0193878
0.0155086
0.0157168
0.0159237
0.0161368
0.0163549
0.0165775
0.0168008
0.0170303
0.0172606
0.0174987
0.0177383
0.0179798
0.0182244
0.0184727
0.0187251
0.0189818
0.0192426
0.0195078
0.0156858
0.0158901
0.0160981
0.0163102
0.0165266
0.0167479
0.0169694
0.017197
0.017425
0.0176611
0.0178981
0.018137
0.0183798
0.018632
0.0188859
0.019137
0.0193934
0.0196553
0.0159186
0.0161205
0.0163258
0.0165353
0.0167495
0.0169634
0.0171838
0.0174094
0.0176348
0.0178681
0.0181017
0.0183377
0.0185826
0.0188288
0.0190778
0.0193301
0.0195862
0.0198466
0.0162119
0.0164094
0.0166105
0.0168153
0.0170243
0.0172375
0.0174554
0.0176728
0.0178975
0.0181275
0.0183577
0.0185895
0.0188307
0.0190726
0.0193169
0.0195647
0.0198169
0.0200735
0.0165745
0.0167664
0.0169665
0.0171673
0.017372
0.0175804
0.0177931
0.0180051
0.0182241
0.0184488
0.0186728
0.0189042
0.019136
0.0193766
0.0196174
0.0198606
0.0201073
0.0203579
0.0170194
0.017208
0.0173995
0.0175931
0.0177951
0.0179993
0.0182067
0.0184175
0.0186326
0.0188469
0.019068
0.0192941
0.0195195
0.0197542
0.0199884
0.0202253
0.0204706
0.0207165
0.0175541
0.0177351
0.0179218
0.0181107
0.0183066
0.0185034
0.0187032
0.0189063
0.0191135
0.0193243
0.0195393
0.0197587
0.019977
0.020203
0.020434
0.0206644
0.0208966
0.0211372
0.0180331
0.0182076
0.0183878
0.0185742
0.0187596
0.0189533
0.0191464
0.0193423
0.0195421
0.0197452
0.0199517
0.0201619
0.0203755
0.0205927
0.0208139
0.0210409
0.0212661
0.0214978
0.0140715
0.0143002
0.0145303
0.0147679
0.015007
0.0152488
0.0154942
0.0157439
0.0159979
0.0162563
0.0165194
0.0167875
0.0170552
0.0173292
0.0176034
0.0178783
0.0181617
0.0184448
0.0140843
0.0143129
0.014544
0.0147765
0.0150183
0.0152618
0.0155082
0.0157582
0.0160123
0.016271
0.0165343
0.016797
0.0170662
0.0173346
0.0176115
0.0178875
0.0181717
0.0184563
0.0141073
0.0143336
0.0145664
0.0148015
0.015039
0.0152799
0.0155262
0.0157767
0.0160307
0.0162888
0.0165521
0.0168196
0.0170857
0.0173592
0.0176316
0.0179123
0.018193
0.0184747
0.0141421
0.0143678
0.0146002
0.0148348
0.0150719
0.0153183
0.0155668
0.0158185
0.0160738
0.0163277
0.0165885
0.0168546
0.0171201
0.0173924
0.017665
0.0179448
0.0182243
0.0185064
0.0141966
0.0144222
0.0146555
0.0148898
0.0151271
0.0153677
0.0156129
0.0158628
0.0161166
0.0163749
0.0166379
0.0169052
0.0171713
0.0174446
0.017717
0.0179976
0.0182779
0.0185593
0.0142708
0.0144961
0.0147278
0.0149618
0.015198
0.0154435
0.015691
0.0159416
0.0161961
0.0164499
0.0167095
0.0169749
0.0172449
0.0175143
0.0177903
0.0180666
0.0183435
0.0186301
0.0143753
0.0146016
0.0148301
0.0150653
0.0153024
0.0155423
0.0157858
0.0160336
0.016286
0.0165429
0.0168044
0.0170703
0.0173348
0.017607
0.0178781
0.0181572
0.0184354
0.0187161
0.0145156
0.0147377
0.0149671
0.0151973
0.0154363
0.0156765
0.0159192
0.0161657
0.0164165
0.0166715
0.0169312
0.0171958
0.017459
0.0177296
0.0179998
0.018277
0.0185533
0.0188388
0.0147051
0.0149273
0.0151555
0.0153844
0.0156149
0.0158555
0.0160969
0.0163411
0.016589
0.0168415
0.0170986
0.0173606
0.0176218
0.0178889
0.018162
0.0184337
0.0187131
0.0189925
0.0149494
0.0151681
0.0153922
0.0156162
0.0158487
0.0160817
0.0163238
0.016567
0.0168125
0.0170616
0.0173151
0.0175732
0.0178307
0.0180936
0.0183632
0.0186312
0.0189068
0.0191811
0.0152737
0.0154874
0.0157014
0.0159225
0.0161496
0.0163769
0.0166133
0.0168508
0.0170907
0.0173344
0.017583
0.0178356
0.0180915
0.0183524
0.018618
0.018882
0.0191525
0.0194287
0.0156769
0.0158834
0.0160941
0.0163098
0.0165306
0.0167513
0.0169808
0.0172101
0.0174489
0.0176876
0.0179286
0.0181738
0.0184237
0.0186772
0.0189356
0.0191979
0.0194645
0.0197296
0.0161847
0.0163829
0.0165855
0.0167929
0.0170049
0.0172214
0.0174429
0.0176695
0.0178969
0.0181306
0.0183655
0.0186017
0.0188421
0.0190924
0.0193438
0.0195984
0.0198511
0.0201093
0.0168001
0.0169939
0.0171897
0.0173881
0.0175902
0.0177963
0.0180072
0.0182228
0.0184425
0.0186669
0.01889
0.019121
0.0193516
0.0195919
0.0198323
0.0200745
0.0203192
0.0205673
0.017362
0.0175462
0.0177335
0.0179255
0.0181199
0.0183173
0.0185217
0.0187279
0.0189375
0.019151
0.0193638
0.019582
0.0198046
0.0200296
0.0202596
0.0204909
0.0207278
0.0209664
0.0131639
0.0134123
0.0136654
0.0139233
0.0141811
0.014445
0.0147155
0.014985
0.0152634
0.0155414
0.0158218
0.0161117
0.016402
0.0166943
0.0169896
0.0172877
0.0175829
0.0178821
0.0131743
0.0134245
0.0136784
0.013932
0.0141919
0.0144578
0.0147289
0.0150003
0.0152732
0.0155546
0.0158363
0.0161198
0.0164076
0.0166987
0.0169924
0.0172889
0.0175878
0.0178904
0.0131936
0.0134418
0.0136945
0.0139519
0.0142144
0.014477
0.0147473
0.0150232
0.0152989
0.0155751
0.0158609
0.0161475
0.0164358
0.0167264
0.01702
0.0173163
0.0176159
0.0179187
0.0132273
0.0134748
0.013727
0.0139843
0.0142468
0.0145144
0.0147816
0.0150566
0.0153315
0.0156083
0.0158934
0.0161792
0.0164672
0.0167576
0.0170511
0.0173474
0.0176469
0.0179494
0.0132811
0.0135285
0.0137808
0.0140378
0.0143
0.0145625
0.0148328
0.0151035
0.015381
0.0156582
0.0159447
0.0162317
0.0165203
0.0168109
0.0171045
0.0174006
0.0177
0.0180025
0.0133558
0.0136023
0.0138537
0.0141102
0.0143721
0.0146388
0.0149049
0.015179
0.0154528
0.015735
0.0160175
0.0163014
0.016588
0.0168772
0.0171698
0.0174657
0.0177644
0.0180663
0.0134648
0.0137118
0.0139632
0.0142193
0.0144752
0.0147375
0.0150063
0.0152747
0.015551
0.0158271
0.0161123
0.0163979
0.0166852
0.0169745
0.0172666
0.0175614
0.0178594
0.0181602
0.0136073
0.0138509
0.0141
0.0143537
0.0146121
0.0148754
0.0151436
0.015411
0.0156861
0.0159609
0.0162386
0.016525
0.0168119
0.0171003
0.0173913
0.0176847
0.0179814
0.0182813
0.0138085
0.0140518
0.0142981
0.0145488
0.0148042
0.0150649
0.0153253
0.015593