/*--------------------------------*- C++ -*----------------------------------*\
| =========                 |                                                 |
| \\      /  F ield         | OpenFOAM: The Open Source CFD Toolbox           |
|  \\    /   O peration     | Version:  2412                                  |
|   \\  /    A nd           | Website:  www.openfoam.com                      |
|    \\/     M anipulation  |                                                 |
\*---------------------------------------------------------------------------*/
FoamFile
{
    version     2.0;
    format      ascii;
    arch        "LSB;label=32;scalar=64";
    class       volScalarField;
    location    "0.0250162";
    object      Jsi;
}
// * * * * * * * * * * * * * * * * * * * * * * * * * * * * * * * * * * * * * //

dimensions      [0 0 0 0 0 0 0];

internalField   nonuniform List<scalar> 
8730
(
0
0
0
0
0
0
0
0
0
0
0
0
0
0
0
0
0
0
0
0
0
0
0
0
0
0
0
0
0
0
0
0
0
0
0
0
0
0
0
0
0
0
0
0
0
0
0
0
0
0
0
0
0
0
0
0
0
0
0
0
0
0
0
0
0
0
0
0
0
0
0
0
0
0
0
0
0
0
0
0
0
0
0
0
0
0
0
0
0
0
0
0
0
0
0
0
0
0
0
0
0
0
0
0
0
0
0
0
0
0
0
0
0
0
0
0
0
0
0
0
0
0
0
0
0
0
0
0
0
0
0
0
0
0
0
0
0
0
0
0
0
0
0
0
0
0
0
0
0
0
0
0
0
0
0
0
0
0
0
0
0
0
0
0
0
0
0
0
0
0
0
0
0
0
0
0
0
0
0
0
0
0
0
0
0
0
0
0
0
0
0
0
0
0
0
0
0
0
0
0
0
0
0
0
0
0
0
0
0
0
0
0
0
0
0
0
0
0
0
0
0
0
0
0
0
0
0
0
0
0
0
0
0
0
0
0
0
0
0
0
0
0
0
0
0
0
0
0
0
0
0
0
0
0
0
0
0
0
0
0
0
0
0
0
0
0
0
0
0
0
0
0
0
0
0
0
0
0
0
0
0
0
0
0
0
0
0
0
0
0
0
0
0
0
0
0
0
0
0
0
0
0
0
0
0
0
0
0
0
0
0
0
0
0
0
0
0
0
0
0
0
0
0
0
0
0
0
0
0
0
0
0
0
0
0
0
0
0
0
0
0
0
0
0
0
0
0
0
0
0
0
0
0
0
0
0
0
0
0
0
0
0
0
0
0
0
0
0
0
0
0
0
0
0
0
0
0
0
0
0
0
0
0
0
0
0
0
0
0
0
0
0
0
0
0
0
0
0
0
0
0
0
0
0
0
0
0
0
0
0
0
0
0
0
0
0
0
0
0
0
0
0
0
0
0
0
0
0
0
0
0
0
0
0
0
0
0
0
0
0
0
0
0
0
0
0
0
0
0
0
0
0
0
0
0
0
0
0
0
0
0
0
0
0
0
0
0
0
0
0
0
0
0
0
0
0
0
0
0
0
0
0
0
0
0
0
0
0
0
0
0
0
0
0
0
0
0
0
0
0
0
0
0
0
0
0
0
0
0
0
0
0
0
0
0
0
0
0
0
0
0
0
0
0
0
0
0
0
0
0
0
0
0
0
0
0
0
0
0
0
0
0
0
0
0
0
0
0
0
0
0
0
0
0
0
0
0
0
0
0
0
0
0
0
0
0
0
0
0
0
0
0
0
0
0
0
0
0
0
0
0
0
0
0
0
0
0
0
0
0
0
0
0
0
0
0
0
0
0
0
0
0
0
0
0
0
0
0
0
0
0
0
0
0
0
0
0
0
0
0
0
0
0
0
0
0
0
0
0
0
0
0
0
0
0
0
0
0
0
0
0
0
0
0
0
0
0
0
0
0
0
0
0
0
0
0
0
0
0
0
0
0
0
0
0
0
0
0
0
0
0
0
0
0
0
0
0
0
0
0
0
0
0
0
0
0
0
0
0
0
0
0
0
0
0
0
0
0
0
0
0
0
0
0
0
0
0
0
0
0
0
0
0
0
0
0
0
0
0
0
0
0
0
0
0
0
0
0
0
0
0
0
0
0
0
0
0
0
0
0
0
0
0
0
0
0
0
0
0
0
0
0
0
0
0
0
0
0
0
0
0
0
0
0
0
0
0
0
0
0
0
0
0
0
0
0
0
0
0
0
0
0
0
0
0
0
0
0
0
0
0
0
0
0
0
0
0
0
0
0
0
0
0
0
0
0
0
0
0
0
0
0
0
0
0
0
0
0
0
0
0
0
0
0
0
0
0
0
0
0
0
0
0
0
0
0
0
0
0
0
0
0
0
0
0
0
0
0
0
0
0
0
0
0
0
0
0
0
0
0
0
0
0
0
0
0
0
0
0
0
0
0
0
0
0
0
0
0
0
0
0
0
0
0
0
0
0
0
0
0
0
0
0
0
0
0
0
0
0
0
0
0
0
0
0
0
0
0
0
0
0
0
0
0
0
0
0
0
0
0
0
0
0
0
0
0
0
0
0
0
0
0
0
0
0
0
0
0
0
0
0
0
0
0
0
0
0
0
0
0
0
0
0
0
0
0
0
0
0
0
0
0
0
0
0
0
0
0
0
0
0
0
0
0
0
0
0
0
0
0
0
0
0
0
0
0
0
0
0
0
0
0
0
0
0
0
0
0
0
0
0
0
0
0
0
0
0
0
0
0
0
0
0
0
0
0
0
0
0
0
0
0
0
0
0
0
0
0
0
0
0
0
0
0
0
0
0
0
0
0
0
0
0
0
0
0
0
0
0
0
0
0
0
0
0
0
0
0
0
0
0
0
0
0
0
0
0
0
0
0
0
0
0
0
0
0
0
0
0
0
0
0
0
0
0
0
0
0
0
0
0
0
0
0
0
0
0
0
0
0
0
0
0
0
0
0
0
0
0
0
0
0
0
0
0
0
0
0
0
0
0
0
0
0
0
0
0
0
0
0
0
0
0
0
0
0
0
0
0
0
0
0
0
0
0
0
0
0
0
0
0
0
0
0
0
0
0
0
0
0
0
0
0
0
0
0
0
0
0
0
0
0
0
0
0
0
0
0
0
0
0
0
0
0
0
0
0
0
0
0
0
0
0
0
0
0
0
0
0
0
0
0
0
0
0
0
0
0
0
0
0
0
0
0
0
0
0
0
0
0
0
0
0
0
0
0
0
0
0
0
0
0
0
0
0
0
0
0
0
0
0
0
0
0
0
0
0
0
0
0
0
0
0
0
0
0
0
0
0
0
0
0
0
0
0
0
0
0
0
0
0
0
0
0
0
0
0
0
0
0
0
0
0
0
0
0
0
0
0
0
0
0
0
0
0
0
0
0
0
0
0
0
0
0
0
0
0
0
0
0
0
0
0
0
0
0
0
0
0
0
0
0
0
0
0
0
0
0
0
0
0
0
0
0
0
0
0
0
0
0
0
0
0
0
0
0
0
0
0
0
0
0
0
0
0
0
0
0
0
0
0
0
0
0
0
0
0
0
0
0
0
0
0
0
0
0
0
0
0
0
0
0
0
0
0
0
0
0
0
0
0
0
0
0
0
0
0
0
0
0
0
0
0
0
0
0
0
0
0
0
0
0
0
0
0
0
0
0
0
0
0
0
0
0
0
0
0
0
0
0
0
0
0
0
0
0
0
0
0
0
0
0
0
0
0
0
0
0
0
0
0
0
0
0
0
0
0
0
0
0
0
0
0
0
0
0
0
0
0
0
0
0
0
0
0
0
0
0
0
0
0
0
0
0
0
0
0
0
0
0
0
0
0
0
0
0
0
0
0
0
0
0
0
0
0
0
0
0
0
0
0
0
0
0
0
0
0
0
0
0
0
0
0
0
0
0
0
0
0
0
0
0
0
0
0
0
0
0
0
0
0
0
0
0
0
0
0
0
0
0
0
0
0
0
0
0
0
0
0
0
0
0
0
0
0
0
0
0
0
0
0
0
0
0
0
0
0
0
0
0
0
0
0
0
0
0
0
0
0
0
0
0
0
0
0
0
0
0
0
0
0
0
0
0
0
0
0
0
0
0
0
0
0
0
0
0
0
0
0
0
0
0
0
0
0
0
0
0
0
0
0
0
0
0
0
0
0
0
0
0
0
0
0
0
0
0
0
0
0
0
0
0
0
0
0
0
0
0
0
0
0
0
0
0
0
0
0
0
0
0
0
0
0
0
0
0
0
0
0
0
0
0
0
0
0
0
0
0
0
0
0
0
0
0
0
0
0
0
0
0
0
0
0
0
0
0
0
0
0
0
0
0
0
0
0
0
0
0
0
0
0
0
0
0
0
0
0
0
0
0
0
0
0
0
0
0
0
0
0
0
0
0
0
0
0
0
0
0
0
0
0
0
0
0
0
0
0
0
0
0
0
0
0
0
0
0
0
0
0
0
0
0
0
0
0
0
0
0
0
0
0
0
0
0
0
0
0
0
0
0
0
0
0
0
0
0
0
0
0
0
0
0
0
0
0
0
0
0
0
0
0
0
0
0
0
0
0
0
0
0
0
0
0
0
0
0
0
0
0
0
0
0
0
0
0
0
0
0
0
0
0
0
0
0
0
0
0
0
0
0
0
0
0
0
0
0
0
0
0
0
0
0
0
0
0
0
0
0
0
0
0
0
0
0
0
0
0
0
0
0
0
0
0
0
0
0
0
0
0
0
0
0
0
0
0
0
0
0
0
0
0
0
0
0
0
0
0
0
0
0
0
0
0
0
0
0
0
0
0
0
0
0
0
0
0
0
0
0
0
0
0
0
0
0
0
0
0
0
0
0
0
0
0
0
0
0
0
0
0
0
0
0
0
0
0
0
0
0
0
0
0
0
0
0
0
0
0
0
0
0
0
0
0
0
0
0
0
0
0
0
0
0
0
0
0
0
0
0
0
0
0
0
0
0
0
0
0
0
0
0
0
0
0
0
0
0
0
0
0
0
0
0
0
0
0
0
0
0
0
0
0
0
0
0
0
0
0
0
0
0
0
0
0
0
0
0
0
0
0
0
0
0
0
0
0
0
0
0
0
0
0
0
0
0
0
0
0
0
0
0
0
0
0
0
0
0
0
0
0
0
0
0
0
0
0
0
0
0
0
0
0
0
0
0
0
0
0
0
0
0
0
0
0
0
0
0
0
0
0
0
0
0
0
0
0
0
0
0
0
0
0
0
0
0
0
0
0
0
0
0
0
0
0
0
0
0
0
0
0
0
0
0
0
0
0
0
0
0
0
0
0
0
0
0
0
0
0
0
0
0
0
0
0
0
0
0
0
0
0
0
0
0
0
0
0
0
0
0
0
0
0
0
0
0
0
0
0
0
0
0
0
0
0
0
0
0
0
0
0
0
0
0
0
0
0
0
0
0
0
0
0
0
0
0
0
0
0
0
0
0
0
0
0
0
0
0
0
0
0
0
0
0
0
0
0
0
0
0
0
0
0
0
0
0
0
0
0
0
0
0
0
0
0
0
0
0
0
0
0
0
0
0
0
0
0
0
0
0
0
0
0
0
0
0
0
0
0
0
0
0
0
0
0
0
0
0
0
0
0
0
0
0
0
0
0
0
0
0
0
0
0
0
0
0
0
0
0
0
0
0
0
0
0
0
0
0
0
0
0
0
0
0
0
0
0
0
0
0
0
0
0
0
0
0
0
0
0
0
0
0
0
0
0
0
0
0
0
0
0
0
0
0
0
0
0
0
0
0
0
0
0
0
0
0
0
0
0
0
0
0
0
0
0
0
0
0
0
0
0
0
0
0
0
0
0
0
0
0
0
0
0
0
0
0
0
0
0
0
0
0
0
0
0
0
0
0
0
0
0
0
0
0
0
0
0
0
0
0
0
0
0
0
0
0
0
0
0
0
0
0
0
0
0
0
0
0
0
0
0
0
0
0
0
0
0
0
0
0
0
0
0
0
0
0
0
0
0
0
0
0
0
0
0
0
0
0
0
0
0
0
0
0
0
0
0
0
0
0
0
0
0
0
0
0
0
0
0
0
0
0
0
0
0
0
0
0
0
0
0
0
-0.0131751
-0.0129967
-0.0127721
-0.0126668
-0.0125085
0
0
0
0
0
0
0
0
0
0
0
-0.0131267
-0.0129512
-0.0127317
-0.0126304
-0.0125625
0
0
0
0
0
0
0
0
0
0
0
-0.013112
-0.01295
-0.0127375
-0.0126449
-0.0124975
0
0
0
0
0
0
0
0
0
0
0
-0.0130504
-0.0128182
-0.0127033
-0.0126233
-0.0124863
0
0
0
0
0
0
0
0
0
0
0
-0.0129415
-0.0128092
-0.0126269
-0.0125598
0
0
0
0
0
0
0
0
0
0
0
0
-0.0128636
-0.0127558
-0.0125931
-0.0125467
0
0
0
0
0
0
0
0
0
0
0
0
-0.0127303
-0.0126484
-0.0125124
0
0
0
0
0
0
0
0
0
0
0
0
0
-0.012634
-0.0125862
0
0
0
0
0
0
0
0
0
0
0
0
0
0
-0.0125819
0
0
0
0
0
0
0
0
0
0
0
0
0
0
0
0
0
0
0
0
0
0
0
0
0
0
0
0
0
0
0
0
0
0
0
0
0
0
0
0
0
0
0
0
0
0
0
0
0
0
0
0
0
0
0
0
0
0
0
0
0
0
0
0
0
0
0
0
0
0
0
0
0
0
0
0
0
0
0
0
0
0
0
0
0
0
0
0
0
0
0
0
0
0
0
0
0
0
0
0
0
0
0
0
0
0
0
0
0
0
0
-0.0369228
-0.0330721
-0.0291987
-0.0251251
-0.0210236
-0.0172337
-0.0144734
-0.0134088
-0.0130479
-0.0128151
-0.0126341
-0.0124988
0
0
0
0
-0.0366101
-0.0326711
-0.0287867
-0.0248101
-0.0207217
-0.016884
-0.0142897
-0.0133387
-0.0129984
-0.0127716
-0.0125974
-0.0124682
0
0
0
0
-0.0358788
-0.032024
-0.0281489
-0.024019
-0.0200552
-0.0164363
-0.014099
-0.0133162
-0.0130079
-0.0127896
-0.0126203
-0.0124956
0
0
0
0
-0.0347957
-0.0309442
-0.027079
-0.0229729
-0.01908
-0.0156975
-0.0138264
-0.0131541
-0.0128801
-0.0126749
-0.0125172
-0.0124907
0
0
0
0
-0.0333267
-0.0293871
-0.0255096
-0.0215056
-0.0176634
-0.0147687
-0.0135148
-0.0131046
-0.0128666
-0.0126818
-0.012542
0
0
0
0
0
-0.0313895
-0.0274537
-0.0235939
-0.0195961
-0.0161395
-0.0140246
-0.0133073
-0.0130185
-0.012725
-0.0125632
-0.0124446
0
0
0
0
0
-0.0287339
-0.024807
-0.0210223
-0.0174217
-0.0145945
-0.0134731
-0.013097
-0.0128736
-0.0126999
-0.0125687
0
0
0
0
0
0
-0.0255669
-0.0217011
-0.0181006
-0.0150461
-0.0136374
-0.0131792
-0.0129467
-0.0126831
-0.0125452
-0.0124467
0
0
0
0
0
0
-0.0216495
-0.0181529
-0.0151502
-0.0137076
-0.0132335
-0.0129155
-0.0127407
-0.0126085
-0.0125153
0
0
0
0
0
0
0
-0.0174403
-0.0148102
-0.0135543
-0.0131621
-0.012957
-0.0127132
-0.0125918
-0.0125082
0
0
0
0
0
0
0
0
-0.0141365
-0.0134139
-0.0130585
-0.0128888
-0.0126717
-0.0125741
-0.0124234
0
0
0
0
0
0
0
0
0
-0.0131949
-0.0129331
-0.0128045
-0.0126194
-0.012468
0
0
0
0
0
0
0
0
0
0
0
-0.0128133
-0.0126405
-0.0124977
-0.0124659
0
0
0
0
0
0
0
0
0
0
0
0
-0.0125604
-0.0124528
0
0
0
0
0
0
0
0
0
0
0
0
0
0
-0.0123981
0
0
0
0
0
0
0
0
0
0
0
0
0
0
0
-0.0668919
-0.0633232
-0.0596436
-0.0557248
-0.0517875
-0.0476898
-0.0435669
-0.0393246
-0.0350276
-0.0305195
-0.0259062
-0.0212656
-0.0169658
-0.0140545
-0.0130931
-0.0128233
-0.0666974
-0.0629563
-0.0592625
-0.0554506
-0.051401
-0.047341
-0.0432028
-0.0389542
-0.0345779
-0.0300868
-0.025594
-0.0210091
-0.0167748
-0.013922
-0.0130433
-0.0127844
-0.065976
-0.0623935
-0.0585854
-0.0547696
-0.0507916
-0.0467888
-0.0426733
-0.0384305
-0.0340468
-0.0296121
-0.0250007
-0.0203951
-0.0161814
-0.0137693
-0.0130332
-0.0127093
-0.0649726
-0.0614224
-0.0576286
-0.0537421
-0.0498457
-0.0458467
-0.0417316
-0.0374839
-0.0330943
-0.0285768
-0.024055
-0.0194966
-0.0155021
-0.0135524
-0.0129782
-0.0126797
-0.0636199
-0.0599709
-0.0563026
-0.0525002
-0.0484736
-0.0444318
-0.04022
-0.0360388
-0.0316415
-0.0271266
-0.022552
-0.0181115
-0.0146369
-0.0133069
-0.0128781
-0.0126956
-0.0617535
-0.0581659
-0.0544744
-0.0505579
-0.0465472
-0.0425354
-0.0384066
-0.0341401
-0.0297386
-0.0252335
-0.0207991
-0.0166002
-0.0138929
-0.013061
-0.012815
-0.0125733
-0.0595199
-0.0557379
-0.052023
-0.0482028
-0.0441719
-0.0401252
-0.0358969
-0.0316181
-0.0272178
-0.022829
-0.0184629
-0.0148927
-0.013342
-0.0129717
-0.0126999
-0.0124918
-0.0565386
-0.052755
-0.0490221
-0.045093
-0.0410801
-0.0370524
-0.032902
-0.0286247
-0.0242496
-0.0198857
-0.0159406
-0.013735
-0.0130657
-0.0127642
-0.0125396
-0.0124562
-0.0527357
-0.0491196
-0.0452265
-0.0413914
-0.0374488
-0.0332747
-0.029073
-0.0248087
-0.0205472
-0.0165923
-0.0139954
-0.013154
-0.0128309
-0.0126003
-0.0125123
0
-0.0483165
-0.044627
-0.0408153
-0.0369081
-0.0329695
-0.0288939
-0.0246357
-0.020456
-0.0165966
-0.0140393
-0.0131921
-0.0128765
-0.0126538
-0.0124824
-0.012356
0
-0.0431416
-0.0394587
-0.0356515
-0.0317323
-0.0277844
-0.0236718
-0.0195734
-0.0159585
-0.0137778
-0.0130971
-0.0128144
-0.0126088
-0.0124515
0
0
0
-0.0371694
-0.0334472
-0.0296228
-0.0257062
-0.0217531
-0.0179945
-0.0148867
-0.0134719
-0.0130398
-0.0127218
-0.0125457
-0.0124154
0
0
0
0
-0.0304816
-0.0266832
-0.0229115
-0.0191787
-0.0158951
-0.0138027
-0.0131476
-0.0128873
-0.0126183
-0.0124794
-0.0123806
0
0
0
0
0
-0.023556
-0.0198688
-0.0165983
-0.0141813
-0.0132843
-0.012978
-0.0127078
-0.0125725
-0.0124764
0
0
0
0
0
0
0
-0.0184995
-0.0154186
-0.0137417
-0.0131091
-0.0128825
-0.0126376
-0.0125208
-0.0124442
0
0
0
0
0
0
0
0
-0.0932852
-0.0900766
-0.0867532
-0.0832983
-0.0797008
-0.0759535
-0.0720554
-0.068083
-0.0638886
-0.0595585
-0.0552887
-0.0507265
-0.0460254
-0.0413876
-0.0365484
-0.0315658
-0.0930738
-0.0898385
-0.0864299
-0.0829601
-0.0793474
-0.0756638
-0.0717607
-0.0677106
-0.0635253
-0.0593188
-0.0549686
-0.0503903
-0.0458653
-0.0410612
-0.036186
-0.0312087
-0.092542
-0.0893287
-0.0859856
-0.0825083
-0.0788932
-0.0751411
-0.0712381
-0.0671848
-0.063056
-0.058711
-0.0542358
-0.0498365
-0.0451598
-0.0405219
-0.0355878
-0.0305753
-0.0917458
-0.0885249
-0.0851725
-0.0816836
-0.078056
-0.0742908
-0.0703751
-0.0663117
-0.062177
-0.0578255
-0.0533491
-0.0489424
-0.0442476
-0.039499
-0.034639
-0.0296508
-0.0905875
-0.0872618
-0.0839008
-0.0804019
-0.0767575
-0.0729675
-0.0690292
-0.0650202
-0.0607916
-0.0564309
-0.0521333
-0.0475568
-0.0428455
-0.0381987
-0.0332712
-0.028359
-0.0888751
-0.0856205
-0.0822429
-0.0787279
-0.0750736
-0.0712804
-0.0673362
-0.0632459
-0.0590876
-0.0547176
-0.0502283
-0.045814
-0.0411189
-0.0363631
-0.0314842
-0.0265007
-0.0869579
-0.0835567
-0.0800534
-0.0765139
-0.0728353
-0.0690116
-0.0650437
-0.0610075
-0.0567564
-0.0523621
-0.0478514
-0.0434339
-0.0387331
-0.0339555
-0.0290688
-0.0241008
-0.0842796
-0.0807917
-0.0773448
-0.0737844
-0.0700892
-0.066249
-0.0622648
-0.058139
-0.0539534
-0.049559
-0.0450378
-0.0404111
-0.0358563
-0.0310024
-0.026101
-0.0211937
-0.0808185
-0.0774725
-0.0739907
-0.0702512
-0.0664826
-0.0626156
-0.0586282
-0.0545042
-0.0502418
-0.0458657
-0.0414864
-0.0369875
-0.0322487
-0.0274634
-0.0226247
-0.0179668
-0.0768397
-0.0733694
-0.0697976
-0.0661645
-0.0622725
-0.0583515
-0.0543306
-0.0501887
-0.0459233
-0.0415415
-0.0370565
-0.0326304
-0.0279184
-0.0231046
-0.0184695
-0.0146642
-0.0719668
-0.0684613
-0.0648632
-0.0612161
-0.0573184
-0.053394
-0.0493744
-0.0452381
-0.0409847
-0.0366018
-0.0320835
-0.0274492
-0.0228286
-0.0183327
-0.0146135
-0.0131607
-0.0662953
-0.0627634
-0.0591191
-0.0553382
-0.0515362
-0.0476422
-0.0435384
-0.0392796
-0.0349765
-0.0306471
-0.0261394
-0.0216871
-0.0173574
-0.0141207
-0.0130706
-0.0127047
-0.0597737
-0.0562255
-0.0525529
-0.0488342
-0.0448368
-0.0409133
-0.0368955
-0.0327261
-0.0283246
-0.0239163
-0.0195639
-0.0156766
-0.0134826
-0.0128538
-0.0126553
-0.01245
-0.0529546
-0.0493093
-0.0457093
-0.0419186
-0.0379952
-0.0339468
-0.029877
-0.025725
-0.0214312
-0.017365
-0.0142418
-0.0131413
-0.0127786
-0.0125526
-0.0123872
0
-0.0475197
-0.0439457
-0.0402649
-0.0364586
-0.0325973
-0.0284399
-0.0243483
-0.0202529
-0.0163986
-0.0138179
-0.0130213
-0.0127272
-0.0125252
-0.0123781
0
0
-0.11572
-0.112831
-0.109872
-0.10692
-0.103718
-0.100401
-0.0968525
-0.0931625
-0.0895145
-0.0855347
-0.0814574
-0.0772869
-0.0730408
-0.0685295
-0.0639377
-0.0590082
-0.115615
-0.112786
-0.109822
-0.106714
-0.103526
-0.100123
-0.0965752
-0.0930706
-0.0892518
-0.085265
-0.0813013
-0.0771002
-0.0727496
-0.0682125
-0.0636226
-0.0588847
-0.115081
-0.112221
-0.109233
-0.106114
-0.102868
-0.099609
-0.0961689
-0.0924671
-0.0886112
-0.084801
-0.0807513
-0.0765603
-0.0721936
-0.0677575
-0.06298
-0.0582327
-0.11443
-0.111559
-0.108555
-0.105417
-0.102155
-0.0988752
-0.095413
-0.0916942
-0.0878274
-0.0840113
-0.079881
-0.0757582
-0.0713868
-0.0668657
-0.0621578
-0.0573862
-0.113558
-0.110688
-0.107686
-0.104534
-0.101235
-0.0978603
-0.0942616
-0.0905219
-0.0868269
-0.0828109
-0.078691
-0.0744591
-0.0700559
-0.0656161
-0.0609418
-0.056084
-0.112039
-0.109096
-0.10605
-0.102877
-0.099574
-0.0962533
-0.0927517
-0.0889954
-0.085096
-0.0812433
-0.0770768
-0.0729167
-0.0685084
-0.0639449
-0.0592039
-0.0544045
-0.110347
-0.107436
-0.104382
-0.101179
-0.0978266
-0.094399
-0.0907517
-0.0869669
-0.0832293
-0.0791736
-0.0750176
-0.0707451
-0.0663081
-0.0617239
-0.0569591
-0.0521387
-0.108017
-0.105087
-0.102009
-0.0987815
-0.0954057
-0.0919527
-0.0882823
-0.0844573
-0.0804966
-0.0765783
-0.0723325
-0.0679847
-0.0635255
-0.0588941
-0.0542134
-0.0494023
-0.105132
-0.102138
-0.098881
-0.0955781
-0.0921615
-0.0886237
-0.0850694
-0.0813443
-0.0773618
-0.073218
-0.0689949
-0.0646649
-0.0601699
-0.0555352
-0.0507399
-0.0459006
-0.101427
-0.0983543
-0.0952148
-0.0919284
-0.0884928
-0.084984
-0.0812622
-0.0773824
-0.0733481
-0.0692488
-0.0650326
-0.0605846
-0.0560343
-0.0514521
-0.0465639
-0.0417067
-0.0971868
-0.0940081
-0.0908033
-0.0874828
-0.0840143
-0.0803958
-0.076622
-0.0726947
-0.0686135
-0.0644598
-0.0600906
-0.0556932
-0.0511382
-0.046355
-0.0416292
-0.0366965
-0.0919264
-0.0886889
-0.0854335
-0.0820679
-0.0785598
-0.0749026
-0.0710898
-0.0671213
-0.0630072
-0.0587504
-0.0544227
-0.0498776
-0.0451998
-0.0405968
-0.0357135
-0.0308472
-0.0859496
-0.0825858
-0.0792642
-0.0758124
-0.0721079
-0.0683634
-0.0645015
-0.0604982
-0.0563487
-0.0520595
-0.0476261
-0.0431514
-0.0385924
-0.0338297
-0.0289955
-0.0240787
-0.0793185
-0.0759713
-0.0726018
-0.0690167
-0.065251
-0.0614399
-0.0575219
-0.0534819
-0.0493051
-0.0449931
-0.0405548
-0.0360701
-0.0313756
-0.0265619
-0.0218786
-0.0172391
-0.0740815
-0.0706194
-0.0671767
-0.0634422
-0.0597388
-0.0559045
-0.0518295
-0.0477213
-0.0435183
-0.0392015
-0.0347557
-0.0301696
-0.0255536
-0.0209039
-0.0164365
-0.0135579
-0.134379
-0.131874
-0.129256
-0.126639
-0.123841
-0.120815
-0.117832
-0.114608
-0.111255
-0.107715
-0.10413
-0.10039
-0.0962829
-0.0921766
-0.0879258
-0.0835737
-0.134119
-0.131766
-0.12918
-0.126501
-0.123614
-0.120767
-0.117608
-0.11435
-0.111016
-0.107597
-0.103906
-0.100145
-0.0962147
-0.091995
-0.0877095
-0.08328
-0.133828
-0.131375
-0.128754
-0.126119
-0.123322
-0.120303
-0.117313
-0.114018
-0.110722
-0.107186
-0.103498
-0.099619
-0.0956858
-0.0916058
-0.0873513
-0.0829084
-0.133292
-0.130825
-0.128172
-0.1254
-0.122684
-0.119653
-0.116526
-0.113297
-0.1099
-0.106466
-0.102808
-0.0989347
-0.0949985
-0.0909074
-0.0866144
-0.0820097
-0.132435
-0.129918
-0.12739
-0.124693
-0.121756
-0.118677
-0.115647
-0.112319
-0.108991
-0.105418
-0.101773
-0.0977824
-0.0938156
-0.0897109
-0.0854294
-0.0809545
-0.131331
-0.128763
-0.126095
-0.123413
-0.120554
-0.117447
-0.114267
-0.110993
-0.107554
-0.104078
-0.100372
-0.0964457
-0.0924457
-0.0882816
-0.0838206
-0.0792798
-0.129928
-0.127348
-0.124631
-0.121845
-0.118844
-0.115711
-0.11263
-0.109246
-0.105867
-0.102238
-0.0985426
-0.0945056
-0.0904874
-0.0863186
-0.0819458
-0.0772684
-0.127955
-0.125344
-0.122598
-0.119778
-0.116742
-0.11358
-0.110469
-0.107054
-0.10364
-0.099984
-0.0961746
-0.0921792
-0.0881141
-0.0838752
-0.0793552
-0.0747599
-0.125292
-0.12262
-0.119973
-0.117092
-0.114109
-0.110903
-0.107639
-0.10427
-0.100734
-0.0970503
-0.0931834
-0.0892345
-0.0849531
-0.0806794
-0.076229
-0.0714809
-0.122197
-0.119523
-0.116715
-0.113756
-0.11065
-0.107472
-0.104203
-0.100682
-0.0970524
-0.0933942
-0.0894036
-0.0854088
-0.0811453
-0.0767554
-0.0722707
-0.0674828
-0.118417
-0.115703
-0.112922
-0.109921
-0.106768
-0.103458
-0.0999994
-0.0964465
-0.0926742
-0.0889579
-0.0849165
-0.0808767
-0.076568
-0.0721232
-0.0675877
-0.0627734
-0.113663
-0.110877
-0.107966
-0.104918
-0.10172
-0.0984372
-0.0949198
-0.0912412
-0.0874151
-0.0836399
-0.0795397
-0.0754325
-0.0710737
-0.0665531
-0.0618623
-0.0570757
-0.108237
-0.10524
-0.102218
-0.0990809
-0.095801
-0.0923696
-0.0887903
-0.0850504
-0.081235
-0.0773084
-0.0732056
-0.0688487
-0.0645059
-0.0598483
-0.0551848
-0.0502851
-0.101985
-0.0989604
-0.095897
-0.0926888
-0.0893035
-0.0856481
-0.0819546
-0.078258
-0.0743966
-0.0702895
-0.066007
-0.0616419
-0.0571622
-0.0525257
-0.047816
-0.042795
-0.0968
-0.0937189
-0.0904675
-0.0871784
-0.0837698
-0.0802052
-0.0764832
-0.072617
-0.0685987
-0.0645095
-0.0601777
-0.0556958
-0.051253
-0.0464982
-0.0416581
-0.0367087
-0.149721
-0.147604
-0.145332
-0.142932
-0.140454
-0.137813
-0.135162
-0.132378
-0.129319
-0.126218
-0.122989
-0.119608
-0.116053
-0.112311
-0.108381
-0.104322
-0.149609
-0.147462
-0.145122
-0.142833
-0.140344
-0.137741
-0.134972
-0.132179
-0.12926
-0.126177
-0.122811
-0.11938
-0.115798
-0.112043
-0.108193
-0.104199
-0.149284
-0.147033
-0.144864
-0.142435
-0.140028
-0.137403
-0.134751
-0.131895
-0.128848
-0.125748
-0.122512
-0.11911
-0.115604
-0.111851
-0.107906
-0.103836
-0.148848
-0.1466
-0.14442
-0.141972
-0.139557
-0.136919
-0.134168
-0.131249
-0.128293
-0.125218
-0.121986
-0.118572
-0.114979
-0.111268
-0.107298
-0.103129
-0.14812
-0.145974
-0.14368
-0.14124
-0.138724
-0.136052
-0.133373
-0.130554
-0.127404
-0.124275
-0.121013
-0.117647
-0.114033
-0.110243
-0.106262
-0.102151
-0.147159
-0.144874
-0.142668
-0.140198
-0.137745
-0.135067
-0.132273
-0.129312
-0.126314
-0.123195
-0.11991
-0.116416
-0.112616
-0.108825
-0.104936
-0.100767
-0.14589
-0.143682
-0.14128
-0.138932
-0.136303
-0.133684
-0.130841
-0.127937
-0.124718
-0.121532
-0.118215
-0.114725
-0.111123
-0.107267
-0.103219
-0.0989724
-0.144333
-0.14199
-0.13954
-0.137153
-0.134489
-0.131837
-0.128961
-0.126026
-0.122776
-0.119554
-0.116193
-0.112654
-0.108911
-0.104928
-0.100805
-0.0966484
-0.142187
-0.139808
-0.137303
-0.134756
-0.132145
-0.129369
-0.126548
-0.123424
-0.12032
-0.117063
-0.113521
-0.109907
-0.106139
-0.102186
-0.0980469
-0.0937863
-0.13951
-0.137114
-0.134587
-0.132007
-0.129341
-0.126504
-0.123439
-0.120398
-0.117115
-0.113723
-0.110233
-0.106445
-0.102584
-0.0985801
-0.0944691
-0.0900823
-0.135949
-0.133518
-0.131097
-0.128442
-0.125677
-0.122698
-0.119757
-0.116516
-0.113274
-0.109784
-0.106232
-0.102503
-0.0984747
-0.0943702
-0.0901051
-0.0856457
-0.131774
-0.129269
-0.126651
-0.123914
-0.121226
-0.118218
-0.115113
-0.111889
-0.10849
-0.105005
-0.101192
-0.0973622
-0.093246
-0.0890643
-0.0847265
-0.0802001
-0.126707
-0.124135
-0.121433
-0.118659
-0.115674
-0.112546
-0.109464
-0.10606
-0.10254
-0.0989026
-0.0950691
-0.0911549
-0.0869481
-0.0826071
-0.0781989
-0.0736033
-0.120978
-0.11835
-0.115575
-0.112647
-0.109561
-0.10632
-0.103003
-0.0994513
-0.0958139
-0.0920714
-0.0881415
-0.0840528
-0.0797692
-0.0754194
-0.0708965
-0.0660848
-0.115777
-0.113045
-0.110199
-0.107217
-0.104085
-0.100796
-0.0973433
-0.0937948
-0.0900209
-0.086216
-0.0822373
-0.0781683
-0.0737713
-0.0693457
-0.0646627
-0.0598053
-0.162587
-0.160694
-0.158614
-0.156533
-0.154279
-0.151858
-0.149476
-0.146939
-0.14427
-0.141455
-0.138553
-0.135445
-0.13236
-0.128927
-0.125359
-0.121714
-0.117695
-0.162363
-0.160456
-0.158368
-0.156294
-0.154127
-0.151828
-0.149286
-0.146714
-0.14404
-0.141311
-0.138482
-0.135397
-0.132183
-0.128723
-0.125257
-0.121507
-0.117522
-0.162187
-0.160205
-0.15817
-0.156094
-0.153804
-0.151492
-0.149082
-0.146612
-0.143934
-0.141114
-0.138138
-0.135062
-0.131756
-0.128471
-0.124919
-0.121174
-0.117214
-0.161852
-0.159867
-0.157803
-0.1556
-0.153397
-0.151108
-0.148704
-0.146161
-0.143542
-0.140712
-0.137723
-0.134627
-0.131282
-0.127837
-0.124265
-0.120479
-0.116583
-0.161266
-0.159347
-0.157245
-0.155051
-0.152712
-0.150372
-0.147943
-0.145455
-0.142759
-0.139907
-0.136891
-0.133773
-0.130426
-0.127103
-0.123511
-0.119726
-0.115725
-0.160398
-0.158394
-0.156331
-0.154228
-0.151904
-0.149553
-0.147108
-0.14453
-0.141878
-0.139011
-0.135973
-0.132828
-0.129441
-0.125961
-0.122348
-0.118522
-0.114574
-0.159282
-0.157269
-0.155136
-0.153006
-0.150757
-0.148275
-0.145769
-0.143168
-0.14043
-0.137537
-0.134479
-0.13132
-0.127927
-0.124542
-0.120805
-0.116903
-0.112917
-0.15792
-0.155827
-0.153758
-0.151492
-0.149188
-0.14666
-0.14412
-0.141488
-0.138721
-0.135799
-0.13271
-0.129514
-0.126061
-0.122501
-0.118812
-0.114916
-0.110891
-0.156006
-0.153868
-0.151657
-0.149468
-0.147175
-0.144641
-0.142087
-0.139417
-0.136613
-0.133651
-0.130517
-0.127204
-0.123776
-0.120089
-0.116293
-0.112331
-0.108132
-0.153594
-0.151493
-0.149191
-0.146951
-0.144501
-0.141972
-0.139373
-0.136511
-0.133611
-0.130656
-0.127476
-0.124109
-0.120554
-0.116891
-0.113079
-0.109046
-0.104711
-0.150648
-0.148423
-0.146088
-0.143812
-0.141312
-0.138778
-0.135943
-0.133143
-0.130224
-0.127141
-0.123893
-0.120532
-0.116905
-0.113082
-0.109137
-0.104905
-0.100544
-0.146736
-0.144545
-0.142287
-0.139873
-0.137246
-0.134653
-0.13182
-0.128881
-0.125849
-0.122537
-0.119169
-0.115728
-0.112024
-0.108122
-0.104023
-0.0997767
-0.0952484
-0.142144
-0.139818
-0.137366
-0.134857
-0.132252
-0.129473
-0.126456
-0.123493
-0.120379
-0.116984
-0.113521
-0.109894
-0.106057
-0.101923
-0.0978219
-0.0935198
-0.0889126
-0.136597
-0.134198
-0.131659
-0.128976
-0.126224
-0.123262
-0.120335
-0.117101
-0.113854
-0.110347
-0.106676
-0.102794
-0.0988399
-0.0947183
-0.0904091
-0.0859758
-0.0812608
-0.131339
-0.128873
-0.126272
-0.123533
-0.120731
-0.117821
-0.114739
-0.11141
-0.108094
-0.104451
-0.100788
-0.09686
-0.0927697
-0.0885645
-0.084047
-0.0794281
-0.0746352
-0.173429
-0.171608
-0.169723
-0.167814
-0.165752
-0.163573
-0.161344
-0.158945
-0.156598
-0.153954
-0.151211
-0.148467
-0.145579
-0.142408
-0.139169
-0.135766
-0.132128
-0.173411
-0.171489
-0.169571
-0.167595
-0.165527
-0.163429
-0.161269
-0.1589
-0.15644
-0.153854
-0.151172
-0.148312
-0.145377
-0.142177
-0.138932
-0.135523
-0.131916
-0.173135
-0.171346
-0.169475
-0.167508
-0.165488
-0.163302
-0.161001
-0.158635
-0.156153
-0.153602
-0.150893
-0.14812
-0.1451
-0.142017
-0.13875
-0.135177
-0.131508
-0.172862
-0.171074
-0.169202
-0.167223
-0.165198
-0.163005
-0.160692
-0.158316
-0.155765
-0.153262
-0.150543
-0.147756
-0.144652
-0.141526
-0.138114
-0.13462
-0.13103
-0.172305
-0.170477
-0.168582
-0.166659
-0.164568
-0.162363
-0.160102
-0.157676
-0.155291
-0.152619
-0.149842
-0.147025
-0.143966
-0.14085
-0.137541
-0.133923
-0.13021
-0.171637
-0.169802
-0.167905
-0.16591
-0.163865
-0.161651
-0.159318
-0.156921
-0.154348
-0.151806
-0.149026
-0.146075
-0.143029
-0.139893
-0.136461
-0.132926
-0.129217
-0.170661
-0.168712
-0.166761
-0.164743
-0.162634
-0.160409
-0.158131
-0.155681
-0.153279
-0.150576
-0.147766
-0.144912
-0.141815
-0.13865
-0.135217
-0.131616
-0.127844
-0.169332
-0.167505
-0.165567
-0.163404
-0.161225
-0.158964
-0.156656
-0.154183
-0.151763
-0.149039
-0.146206
-0.143323
-0.140188
-0.136889
-0.133373
-0.129767
-0.125975
-0.167629
-0.165771
-0.163805
-0.161622
-0.159426
-0.157144
-0.154813
-0.152294
-0.149718
-0.147053
-0.1442
-0.141094
-0.137986
-0.1346
-0.131137
-0.127484
-0.123496
-0.165566
-0.163588
-0.161513
-0.159297
-0.15714
-0.154848
-0.152432
-0.149875
-0.147239
-0.144406
-0.141605
-0.138466
-0.135183
-0.131828
-0.12819
-0.124465
-0.120538
-0.162746
-0.160769
-0.158665
-0.15652
-0.154159
-0.151795
-0.149331
-0.146801
-0.144057
-0.141151
-0.138171
-0.135076
-0.13175
-0.128208
-0.124514
-0.120582
-0.116556
-0.159117
-0.157073
-0.155021
-0.152701
-0.150427
-0.148054
-0.145521
-0.142726
-0.139942
-0.136955
-0.133831
-0.130734
-0.127278
-0.123666
-0.119893
-0.115888
-0.111747
-0.154543
-0.152511
-0.150344
-0.148062
-0.145626
-0.143133
-0.140397
-0.137628
-0.134736
-0.131686
-0.128459
-0.125123
-0.121512
-0.117704
-0.113905
-0.109729
-0.105477
-0.149035
-0.146851
-0.144568
-0.142093
-0.139662
-0.136943
-0.134249
-0.131404
-0.128293
-0.125109
-0.121772
-0.118253
-0.114537
-0.11061
-0.106542
-0.102196
-0.0978413
-0.143839
-0.141568
-0.139228
-0.136698
-0.134139
-0.131411
-0.128454
-0.125545
-0.122477
-0.11914
-0.115725
-0.112144
-0.10837
-0.104384
-0.100183
-0.0957681
-0.091149
-0.183091
-0.181278
-0.179432
-0.177459
-0.175559
-0.173494
-0.171342
-0.169054
-0.166725
-0.164168
-0.161648
-0.158959
-0.156136
-0.153161
-0.150103
-0.146918
-0.143503
-0.139778
-0.182887
-0.181071
-0.179244
-0.177434
-0.17539
-0.173291
-0.171191
-0.168903
-0.1666
-0.164191
-0.161632
-0.15882
-0.155954
-0.153041
-0.150036
-0.14676
-0.143315
-0.139663
-0.18286
-0.181046
-0.17914
-0.1772
-0.175171
-0.173107
-0.170923
-0.168728
-0.166422
-0.163894
-0.161328
-0.158705
-0.155882
-0.152898
-0.149809
-0.146474
-0.143064
-0.139433
-0.182509
-0.180775
-0.178878
-0.176939
-0.174913
-0.172825
-0.170618
-0.168387
-0.165956
-0.163516
-0.160975
-0.158302
-0.155541
-0.152548
-0.149375
-0.146081
-0.142541
-0.138968
-0.182085
-0.18026
-0.178402
-0.176412
-0.174481
-0.172376
-0.170085
-0.167863
-0.165533
-0.162972
-0.160379
-0.157733
-0.154883
-0.151866
-0.148737
-0.145362
-0.14191
-0.138237
-0.181423
-0.179652
-0.177735
-0.175781
-0.173744
-0.171643
-0.169424
-0.167173
-0.164722
-0.162258
-0.159684
-0.156971
-0.154165
-0.151127
-0.147903
-0.144559
-0.140942
-0.137179
-0.180409
-0.178574
-0.176707
-0.174703
-0.172779
-0.170686
-0.168499
-0.166174
-0.163799
-0.1612
-0.158572
-0.155891
-0.153
-0.149935
-0.146686
-0.1433
-0.139662
-0.135986
-0.179153
-0.177388
-0.175586
-0.173657
-0.171546
-0.169394
-0.16724
-0.164837
-0.162447
-0.159825
-0.157175
-0.15447
-0.151548
-0.148445
-0.145158
-0.14174
-0.138039
-0.134191
-0.177724
-0.175894
-0.174026
-0.171996
-0.169918
-0.167684
-0.165515
-0.16315
-0.160677
-0.158044
-0.155369
-0.152556
-0.149623
-0.146319
-0.142946
-0.13954
-0.135896
-0.131939
-0.175599
-0.173722
-0.171777
-0.169797
-0.167669
-0.1656
-0.163265
-0.16085
-0.158407
-0.155742
-0.152969
-0.150098
-0.147006
-0.143765
-0.140355
-0.136758
-0.132938
-0.128967
-0.172849
-0.170981
-0.169103
-0.167067
-0.164912
-0.162647
-0.160327
-0.157993
-0.155367
-0.152632
-0.149883
-0.14697
-0.143766
-0.140473
-0.137012
-0.133349
-0.129455
-0.125322
-0.169419
-0.167552
-0.165472
-0.163376
-0.161194
-0.158908
-0.156567
-0.154141
-0.151542
-0.148712
-0.145887
-0.14275
-0.139563
-0.136089
-0.132527
-0.128771
-0.124793
-0.120576
-0.164911
-0.162943
-0.160949
-0.158833
-0.156485
-0.154106
-0.151613
-0.148993
-0.146307
-0.143511
-0.140527
-0.137274
-0.134008
-0.130372
-0.126709
-0.122833
-0.118622
-0.114272
-0.159049
-0.157045
-0.154905
-0.152728
-0.150329
-0.147844
-0.145315
-0.142644
-0.139872
-0.136868
-0.133685
-0.130325
-0.126955
-0.123207
-0.119298
-0.11532
-0.11105
-0.10651
-0.153459
-0.151431
-0.14926
-0.146875
-0.144534
-0.141971
-0.139313
-0.136604
-0.13374
-0.1307
-0.127485
-0.124076
-0.120547
-0.116732
-0.11269
-0.108512
-0.104166
-0.0995756
-0.191435
-0.189622
-0.187795
-0.185816
-0.183848
-0.181806
-0.179671
-0.177484
-0.175128
-0.172704
-0.170091
-0.167411
-0.164665
-0.161757
-0.158811
-0.155711
-0.152261
-0.148788
-0.191264
-0.18945
-0.187643
-0.185763
-0.183702
-0.181631
-0.179537
-0.177289
-0.174932
-0.172506
-0.169914
-0.167372
-0.164632
-0.161761
-0.158717
-0.155576
-0.15215
-0.148584
-0.191102
-0.189353
-0.187456
-0.185566
-0.183615
-0.181571
-0.179423
-0.17723
-0.17487
-0.17239
-0.169838
-0.167111
-0.164421
-0.161514
-0.158468
-0.155227
-0.151917
-0.14844
-0.19086
-0.18907
-0.187171
-0.185273
-0.183333
-0.181147
-0.178947
-0.176668
-0.174365
-0.172009
-0.169506
-0.166799
-0.164112
-0.161207
-0.158149
-0.154904
-0.151576
-0.148053
-0.190389
-0.188631
-0.186719
-0.184821
-0.182866
-0.180809
-0.178651
-0.17645
-0.174072
-0.171574
-0.168998
-0.16624
-0.163519
-0.160579
-0.157499
-0.154222
-0.150878
-0.14736
-0.189844
-0.188036
-0.186126
-0.184216
-0.182267
-0.180071
-0.177863
-0.175574
-0.173252
-0.17086
-0.168324
-0.165562
-0.162721
-0.159779
-0.156651
-0.153457
-0.15009
-0.146405
-0.188994
-0.18717
-0.185329
-0.183329
-0.18134
-0.17927
-0.177104
-0.174882
-0.172485
-0.169958
-0.167353
-0.164564
-0.161807
-0.158828
-0.155696
-0.152371
-0.148957
-0.145336
-0.187934
-0.186118
-0.184209
-0.182272
-0.180166
-0.178055
-0.175924
-0.173631
-0.171219
-0.168742
-0.166065
-0.163255
-0.160475
-0.157466
-0.154297
-0.150932
-0.147448
-0.143663
-0.186388
-0.184529
-0.182576
-0.180658
-0.178645
-0.176441
-0.174226
-0.171926
-0.16951
-0.167018
-0.164331
-0.161502
-0.158688
-0.155625