/*--------------------------------*- C++ -*----------------------------------*\
| =========                 |                                                 |
| \\      /  F ield         | OpenFOAM: The Open Source CFD Toolbox           |
|  \\    /   O peration     | Version:  2412                                  |
|   \\  /    A nd           | Website:  www.openfoam.com                      |
|    \\/     M anipulation  |                                                 |
\*---------------------------------------------------------------------------*/
FoamFile
{
    version     2.0;
    format      ascii;
    arch        "LSB;label=32;scalar=64";
    class       volScalarField;
    location    "0.0250162";
    object      Vm;
}
// * * * * * * * * * * * * * * * * * * * * * * * * * * * * * * * * * * * * * //

dimensions      [0 0 0 0 0 0 0];

internalField   nonuniform List<scalar> 
8730
(
1.34735e-10
1.03266e-10
7.84831e-11
5.9135e-11
4.41656e-11
3.26885e-11
2.39705e-11
1.74107e-11
1.25214e-11
8.9146e-12
6.28235e-12
4.37897e-12
3.01986e-12
2.0591e-12
1.38707e-12
1.31935e-10
1.01112e-10
7.68395e-11
5.78925e-11
4.32331e-11
3.19942e-11
2.34579e-11
1.70363e-11
1.22509e-11
8.72157e-12
6.14519e-12
4.28295e-12
2.95281e-12
2.01279e-12
1.35598e-12
1.26341e-10
9.6812e-11
7.35593e-11
5.54104e-11
4.13715e-11
3.06098e-11
2.24371e-11
1.62901e-11
1.17115e-11
8.33568e-12
5.87168e-12
4.0917e-12
2.82019e-12
1.92275e-12
1.29461e-12
1.18012e-10
9.04075e-11
6.86756e-11
5.17178e-11
3.86033e-11
2.8554e-11
2.09263e-11
1.51891e-11
1.09163e-11
7.76551e-12
5.4675e-12
3.80751e-12
2.62263e-12
1.78608e-12
1.20133e-12
1.07137e-10
8.20526e-11
6.23088e-11
4.69049e-11
3.49963e-11
2.58732e-11
1.89498e-11
1.37459e-11
9.87325e-12
7.02029e-12
4.94024e-12
3.43829e-12
2.3658e-12
1.60924e-12
1.08215e-12
9.41226e-11
7.20555e-11
5.46935e-11
4.11515e-11
3.06867e-11
2.26729e-11
1.65942e-11
1.20284e-11
8.63202e-12
6.13143e-12
4.31015e-12
2.99783e-12
2.06201e-12
1.40164e-12
9.40779e-13
7.96413e-11
6.09354e-11
4.62235e-11
3.47556e-11
2.58989e-11
1.91204e-11
1.39833e-11
1.0127e-11
7.2606e-12
5.1514e-12
3.61804e-12
2.51349e-12
1.72648e-12
1.17332e-12
7.86941e-13
6.45793e-11
4.93739e-11
3.74228e-11
2.81134e-11
2.09274e-11
1.54342e-11
1.12746e-11
8.15367e-12
5.83752e-12
4.13575e-12
2.89921e-12
2.01149e-12
1.37978e-12
9.34787e-13
6.2614e-13
4.99253e-11
3.81295e-11
2.88662e-11
2.16584e-11
1.61017e-11
1.18576e-11
8.6474e-12
6.24413e-12
4.46269e-12
3.15604e-12
2.20808e-12
1.52795e-12
1.0449e-12
7.06459e-13
4.71816e-13
3.66043e-11
2.79153e-11
2.11021e-11
1.58073e-11
1.17314e-11
8.62376e-12
6.27879e-12
4.52488e-12
3.22584e-12
2.27625e-12
1.58884e-12
1.09559e-12
7.46619e-13
5.02584e-13
3.3401e-13
2.53284e-11
1.92795e-11
1.45444e-11
1.08714e-11
8.05003e-12
5.9031e-12
4.28554e-12
3.08026e-12
2.19124e-12
1.54042e-12
1.07065e-12
7.3496e-13
4.99183e-13
3.34334e-13
2.19846e-13
1.64845e-11
1.25149e-11
9.41465e-12
7.01559e-12
5.17877e-12
3.78581e-12
2.73987e-12
1.96145e-12
1.39047e-12
9.74947e-13
6.74072e-13
4.61129e-13
3.10044e-13
2.06082e-13
1.35964e-13
1.01461e-11
7.67564e-12
5.75412e-12
4.27226e-12
3.14131e-12
2.28726e-12
1.64811e-12
1.1738e-12
8.27101e-13
5.7594e-13
3.96355e-13
2.70208e-13
1.8082e-13
1.19447e-13
7.75057e-14
6.14778e-12
4.63078e-12
3.45562e-12
2.55316e-12
1.86672e-12
1.3508e-12
9.67336e-13
6.85732e-13
4.80723e-13
3.33038e-13
2.27781e-13
1.54749e-13
1.03253e-13
6.73039e-14
4.34995e-14
4.23679e-12
3.17628e-12
2.35965e-12
1.73523e-12
1.26351e-12
9.09687e-13
6.47677e-13
4.55137e-13
3.16845e-13
2.16769e-13
1.45842e-13
9.6614e-14
6.37413e-14
4.12324e-14
2.66583e-14
8.45426e-10
6.50084e-10
4.95773e-10
3.74916e-10
2.81081e-10
2.08869e-10
1.53799e-10
1.12191e-10
8.10499e-11
5.79693e-11
4.10346e-11
2.87399e-11
1.99077e-11
1.36345e-11
9.22843e-12
8.27913e-10
6.3658e-10
4.85442e-10
3.67075e-10
2.75179e-10
2.04463e-10
1.5054e-10
1.098e-10
7.93121e-11
5.67198e-11
4.01467e-11
2.81136e-11
1.94709e-11
1.33322e-11
9.02115e-12
7.9296e-10
6.09632e-10
4.64826e-10
3.51431e-10
2.63404e-10
1.95678e-10
1.44041e-10
1.05034e-10
7.58499e-11
5.42299e-11
3.83728e-11
2.68637e-11
1.86001e-11
1.27324e-11
8.61178e-12
7.40933e-10
5.69526e-10
4.34154e-10
3.28163e-10
2.45899e-10
1.82619e-10
1.34386e-10
9.79591e-11
7.07143e-11
5.05358e-11
3.57428e-11
2.50101e-11
1.73075e-11
1.18395e-11
8.00307e-12
6.73023e-10
5.17187e-10
3.94139e-10
2.97815e-10
2.23074e-10
1.65597e-10
1.21801e-10
8.87402e-11
6.40233e-11
4.5727e-11
3.232e-11
2.25987e-11
1.56268e-11
1.06816e-11
7.21493e-12
5.91769e-10
4.54579e-10
3.46282e-10
2.61533e-10
1.95796e-10
1.45263e-10
1.06776e-10
7.77394e-11
5.60443e-11
3.9996e-11
2.82437e-11
1.97289e-11
1.36283e-11
9.30502e-12
6.27701e-12
5.01344e-10
3.84921e-10
2.93052e-10
2.21191e-10
1.65479e-10
1.22677e-10
9.00995e-11
6.55374e-11
4.72003e-11
3.3647e-11
2.37337e-11
1.65587e-11
1.14231e-11
7.78834e-12
5.24613e-12
4.07253e-10
3.12457e-10
2.37696e-10
1.79255e-10
1.33979e-10
9.92221e-11
7.27906e-11
5.28819e-11
3.80351e-11
2.70738e-11
1.90668e-11
1.32802e-11
9.14632e-12
6.22357e-12
4.184e-12
3.156e-10
2.41896e-10
1.83819e-10
1.3846e-10
1.03353e-10
7.64353e-11
5.59896e-11
4.06107e-11
2.91595e-11
2.07185e-11
1.45616e-11
1.01204e-11
6.95454e-12
4.72163e-12
3.16511e-12
2.32118e-10
1.77663e-10
1.34805e-10
1.01378e-10
7.5543e-11
5.5765e-11
4.07691e-11
2.95085e-11
2.11392e-11
1.49831e-11
1.05045e-11
7.28116e-12
4.98849e-12
3.37676e-12
2.25714e-12
1.61216e-10
1.23159e-10
9.32583e-11
6.99804e-11
5.20266e-11
3.83132e-11
2.79372e-11
2.01658e-11
1.44047e-11
1.01778e-11
7.11243e-12
4.91433e-12
3.35538e-12
2.26184e-12
1.50544e-12
1.05385e-10
8.02973e-11
6.06345e-11
4.53675e-11
3.36247e-11
2.46802e-11
1.79345e-11
1.28982e-11
9.1792e-12
6.46194e-12
4.49702e-12
3.0937e-12
2.10201e-12
1.4099e-12
9.34625e-13
6.51624e-11
4.94714e-11
3.72183e-11
2.77372e-11
2.04728e-11
1.49633e-11
1.08249e-11
7.7498e-12
5.48822e-12
3.84378e-12
2.66101e-12
1.8217e-12
1.23048e-12
8.20947e-13
5.40962e-13
3.96481e-11
2.99577e-11
2.24253e-11
1.66269e-11
1.22062e-11
8.87379e-12
6.38388e-12
4.54398e-12
3.19896e-12
2.22573e-12
1.53087e-12
1.0415e-12
6.9982e-13
4.62748e-13
3.02109e-13
2.74014e-11
2.06068e-11
1.53505e-11
1.1323e-11
8.27026e-12
5.97743e-12
4.27404e-12
3.02309e-12
2.11432e-12
1.46156e-12
9.98589e-13
6.74396e-13
4.49307e-13
2.95308e-13
1.92155e-13
6.00803e-09
4.63324e-09
3.54435e-09
2.6891e-09
2.02303e-09
1.50876e-09
1.11518e-09
8.16689e-10
5.92405e-10
4.25492e-10
3.02501e-10
2.12794e-10
1.48057e-10
1.01848e-10
6.9238e-11
5.88381e-09
4.53727e-09
3.47076e-09
2.63311e-09
1.98077e-09
1.47712e-09
1.09169e-09
7.99402e-10
5.79799e-10
4.16386e-10
2.95987e-10
2.08183e-10
1.44824e-10
9.96068e-11
6.77017e-11
5.63617e-09
4.34589e-09
3.32399e-09
2.52143e-09
1.89646e-09
1.414e-09
1.04483e-09
7.64923e-10
5.54662e-10
3.98233e-10
2.83003e-10
1.98991e-10
1.38386e-10
9.51452e-11
6.46463e-11
5.26791e-09
4.06131e-09
3.10577e-09
2.35539e-09
1.77115e-09
1.32021e-09
9.75229e-10
7.13721e-10
5.17338e-10
3.71283e-10
2.63735e-10
1.85353e-10
1.28836e-10
8.853e-11
6.01149e-11
4.78743e-09
3.69003e-09
2.8211e-09
2.13886e-09
1.60777e-09
1.19796e-09
8.84535e-10
6.4703e-10
4.68745e-10
3.3621e-10
2.38666e-10
1.67617e-10
1.16418e-10
7.99324e-11
5.42294e-11
4.21267e-09
3.24595e-09
2.48066e-09
1.87995e-09
1.41248e-09
1.05187e-09
7.76203e-10
5.67407e-10
4.10759e-10
2.94382e-10
2.0879e-10
1.46494e-10
1.01643e-10
6.97108e-11
4.72396e-11
3.57308e-09
2.75186e-09
2.10198e-09
1.59204e-09
1.19537e-09
8.89539e-10
6.5588e-10
4.79021e-10
3.46433e-10
2.48013e-10
1.75698e-10
1.2312e-10
8.53085e-11
5.84217e-11
3.95283e-11
2.90725e-09
2.2376e-09
1.70791e-09
1.29251e-09
9.69595e-10
7.20808e-10
5.30888e-10
3.87267e-10
2.79708e-10
1.9996e-10
1.41437e-10
9.89476e-11
6.84391e-11
4.67815e-11
3.1589e-11
2.25797e-09
1.73624e-09
1.32385e-09
1.00072e-09
7.49764e-10
5.56624e-10
4.09356e-10
2.98135e-10
2.1496e-10
1.53385e-10
1.08276e-10
7.55863e-11
5.21613e-11
3.55689e-11
2.39569e-11
1.66553e-09
1.27896e-09
9.7375e-10
7.34905e-10
5.49666e-10
4.07319e-10
2.9896e-10
2.1727e-10
1.56298e-10
1.11256e-10
7.83333e-11
5.45346e-11
3.75244e-11
2.55096e-11
1.71265e-11
1.16099e-09
8.89821e-10
6.76095e-10
5.09147e-10
3.79926e-10
2.80839e-10
2.05583e-10
1.48989e-10
1.0686e-10
7.5825e-11
5.32106e-11
3.69152e-11
2.5308e-11
1.71396e-11
1.14607e-11
7.6215e-10
5.82592e-10
4.41415e-10
3.31427e-10
2.46533e-10
1.8163e-10
1.32495e-10
9.56679e-11
6.83515e-11
4.83058e-11
3.37555e-11
2.33162e-11
1.59116e-11
1.07245e-11
7.13639e-12
4.73447e-10
3.60573e-10
2.72139e-10
2.03498e-10
1.50727e-10
1.10551e-10
8.02702e-11
5.76794e-11
4.10039e-11
2.8829e-11
2.00379e-11
1.37644e-11
9.34032e-12
6.25952e-12
4.13996e-12
2.89399e-10
2.19307e-10
1.64657e-10
1.22456e-10
9.01876e-11
6.57588e-11
4.74566e-11
3.38859e-11
2.39327e-11
1.67143e-11
1.15379e-11
7.87012e-12
5.30297e-12
3.52801e-12
2.3169e-12
2.00712e-10
1.51344e-10
1.13038e-10
8.36111e-11
6.12295e-11
4.43826e-11
3.18343e-11
2.25885e-11
1.58496e-11
1.09951e-11
7.53864e-12
5.10671e-12
3.41627e-12
2.25666e-12
1.47111e-12
4.27596e-08
3.30683e-08
2.53727e-08
1.93118e-08
1.45778e-08
1.09111e-08
8.0953e-09
5.95189e-09
4.33504e-09
3.1268e-09
2.23265e-09
1.57756e-09
1.1026e-09
7.61953e-10
5.20376e-10
4.18759e-08
3.23843e-08
2.48472e-08
1.89111e-08
1.42746e-08
1.06835e-08
7.92579e-09
5.82672e-09
4.24344e-09
3.06039e-09
2.18497e-09
1.54367e-09
1.07876e-09
7.45356e-10
5.08954e-10
4.01177e-08
3.10226e-08
2.38005e-08
1.81125e-08
1.367e-08
1.02294e-08
7.5876e-09
5.57699e-09
4.06068e-09
2.92789e-09
2.08983e-09
1.47604e-09
1.03119e-09
7.12255e-10
4.86176e-10
3.75066e-08
2.89999e-08
2.22454e-08
1.69261e-08
1.2772e-08
9.55502e-09
7.08535e-09
5.20614e-09
3.7893e-09
2.73114e-09
1.94856e-09
1.37562e-09
9.60548e-10
6.631e-10
4.52356e-10
3.41022e-08
2.63624e-08
2.02177e-08
1.53792e-08
1.16012e-08
8.67604e-09
6.43092e-09
4.72308e-09
3.43592e-09
2.47502e-09
1.76472e-09
1.24498e-09
8.68675e-10
5.99192e-10
4.08403e-10
3.00309e-08
2.32084e-08
1.77929e-08
1.35297e-08
1.02015e-08
7.62541e-09
5.64893e-09
4.14611e-09
3.01404e-09
2.16943e-09
1.5455e-09
1.0893e-09
7.59268e-10
5.23147e-10
3.56149e-10
2.55009e-08
1.96996e-08
1.50959e-08
1.14728e-08
8.64531e-09
6.45773e-09
4.78016e-09
3.50541e-09
2.54583e-09
1.83048e-09
1.30252e-09
9.16876e-10
6.38209e-10
4.39084e-10
2.98448e-10
2.07828e-08
1.60454e-08
1.22875e-08
9.33136e-09
7.02563e-09
5.24285e-09
3.87674e-09
2.83957e-09
2.05961e-09
1.47879e-09
1.05065e-09
7.38348e-10
5.13019e-10
3.52277e-10
2.38955e-10
1.61772e-08
1.24788e-08
9.54683e-09
7.24211e-09
5.44601e-09
4.05866e-09
2.99676e-09
2.19155e-09
1.58686e-09
1.13724e-09
8.0636e-10
5.65448e-10
3.91975e-10
2.68495e-10
1.81649e-10
1.1968e-08
9.21984e-09
7.04354e-09
5.33482e-09
4.00497e-09
2.97927e-09
2.19545e-09
1.60215e-09
1.15743e-09
8.27452e-10
5.85162e-10
4.09186e-10
2.82809e-10
1.93109e-10
1.30214e-10
8.3739e-09
6.43897e-09
4.90912e-09
3.71011e-09
2.77877e-09
2.06197e-09
1.51545e-09
1.10277e-09
7.94258e-10
5.65991e-10
3.98898e-10
2.77935e-10
1.9137e-10
1.30154e-10
8.73986e-11
5.52217e-09
4.23482e-09
3.21946e-09
2.42579e-09
1.81104e-09
1.33932e-09
9.80808e-10
7.11021e-10
5.10064e-10
3.61954e-10
2.5398e-10
1.76154e-10
1.20711e-10
8.16914e-11
5.45749e-11
3.44797e-09
2.63418e-09
1.99463e-09
1.4966e-09
1.11241e-09
8.18851e-10
5.96753e-10
4.30418e-10
3.07143e-10
2.16764e-10
1.51239e-10
1.0428e-10
7.1026e-11
4.7768e-11
3.17087e-11
2.11892e-09
1.61046e-09
1.21285e-09
9.04852e-10
6.68567e-10
4.89086e-10
3.54133e-10
2.53717e-10
1.798e-10
1.25986e-10
8.72562e-11
5.97101e-11
4.03556e-11
2.69271e-11
1.77314e-11
1.47578e-09
1.11586e-09
8.35791e-10
6.19985e-10
4.55352e-10
3.31034e-10
2.38138e-10
1.69465e-10
1.19256e-10
8.29609e-11
5.7032e-11
3.87308e-11
2.59737e-11
1.71943e-11
1.12327e-11
3.03977e-07
2.35742e-07
1.81417e-07
1.38512e-07
1.04904e-07
7.87958e-08
5.86811e-08
4.33152e-08
3.1679e-08
2.29474e-08
1.64575e-08
1.16813e-08
8.2023e-09
5.69501e-09
3.908e-09
2.97687e-07
2.30866e-07
1.77663e-07
1.35645e-07
1.0273e-07
7.71593e-08
5.74591e-08
4.241e-08
3.10143e-08
2.24638e-08
1.61089e-08
1.14326e-08
8.02664e-09
5.57226e-09
3.82315e-09
2.85212e-07
2.21183e-07
1.70202e-07
1.29938e-07
9.83987e-08
7.38971e-08
5.50215e-08
4.06036e-08
2.96874e-08
2.14979e-08
1.54127e-08
1.09357e-08
7.67568e-09
5.327e-09
3.65365e-09
2.66718e-07
2.06821e-07
1.59132e-07
1.2147e-07
9.19701e-08
6.90549e-08
5.14031e-08
3.7922e-08
2.77172e-08
2.00636e-08
1.43785e-08
1.01974e-08
7.154e-09
4.96233e-09
3.40158e-09
2.42627e-07
1.88107e-07
1.44704e-07
1.10432e-07
8.35916e-08
6.27446e-08
4.66884e-08
3.44286e-08
2.51513e-08
1.81961e-08
1.30321e-08
9.23635e-09
6.47503e-09
4.48778e-09
3.07361e-09
2.13829e-07
1.65735e-07
1.27455e-07
9.72356e-08
7.35738e-08
5.51999e-08
4.10524e-08
3.0254e-08
2.20863e-08
1.59665e-08
1.14257e-08
8.09042e-09
5.66598e-09
3.92271e-09
2.6834e-09
1.81789e-07
1.40849e-07
1.08273e-07
8.25629e-08
6.24379e-08
4.68151e-08
3.47908e-08
2.56177e-08
1.86841e-08
1.3493e-08
9.64464e-09
6.82069e-09
4.77019e-09
3.2976e-09
2.25217e-09
1.48395e-07
1.14915e-07
8.82856e-08
6.72765e-08
5.08377e-08
3.80828e-08
2.82721e-08
2.07939e-08
1.51467e-08
1.09233e-08
7.79606e-09
5.50423e-09
3.84254e-09
2.65114e-09
1.80687e-09
1.15762e-07
8.95736e-08
6.87551e-08
5.23405e-08
3.95056e-08
2.95556e-08
2.19103e-08
1.60898e-08
1.17004e-08
8.42252e-09
5.99923e-09
4.22641e-09
2.94357e-09
2.0258e-09
1.37698e-09
8.58935e-08
6.63816e-08
5.08847e-08
3.86783e-08
2.91452e-08
2.17652e-08
1.61037e-08
1.18009e-08
8.56215e-09
6.14833e-09
4.36775e-09
3.06828e-09
2.13046e-09
1.46148e-09
9.9001e-10
6.0332e-08
4.65426e-08
3.56063e-08
2.70064e-08
2.03028e-08
1.51241e-08
1.11604e-08
8.1552e-09
5.89894e-09
4.22207e-09
2.98887e-09
2.09186e-09
1.44681e-09
9.88417e-10
6.66662e-10
3.99782e-08
3.0758e-08
2.34629e-08
1.77416e-08
1.32945e-08
9.8696e-09
7.25651e-09
5.28207e-09
3.80506e-09
2.71163e-09
1.91088e-09
1.33102e-09
9.16e-10
6.22528e-10
4.17602e-10
2.51018e-08
1.9238e-08
1.46155e-08
1.10042e-08
8.20869e-09
6.06496e-09
4.43684e-09
3.2126e-09
2.30152e-09
1.63074e-09
1.14232e-09
7.90758e-10
5.40702e-10
3.6503e-10
2.43193e-10
1.55185e-08
1.18306e-08
8.93784e-09
6.68994e-09
4.95964e-09
3.64068e-09
2.64532e-09
1.90191e-09
1.35258e-09
9.51108e-10
6.61027e-10
4.53893e-10
3.07785e-10
2.0602e-10
1.36069e-10
1.08603e-08
8.23545e-09
6.18687e-09
4.6034e-09
3.39147e-09
2.47326e-09
1.78479e-09
1.27406e-09
8.99352e-10
6.27537e-10
4.32665e-10
2.94643e-10
1.98108e-10
1.31459e-10
8.60591e-11
2.15804e-06
1.6784e-06
1.29554e-06
9.92251e-07
7.53925e-07
5.68209e-07
4.24701e-07
3.14723e-07
2.31138e-07
1.68158e-07
1.21138e-07
8.63752e-08
6.0935e-08
4.25128e-08
2.9317e-08
2.11325e-06
1.64362e-06
1.26872e-06
9.71719e-07
7.3832e-07
5.5644e-07
4.15892e-07
3.0818e-07
2.26318e-07
1.64639e-07
1.18592e-07
8.45519e-08
5.96426e-08
4.16063e-08
2.86879e-08
2.0248e-06
1.57484e-06
1.21559e-06
9.30969e-07
7.07307e-07
5.3302e-07
3.98343e-07
2.95134e-07
2.16699e-07
1.5761e-07
1.13505e-07
8.09061e-08
5.7057e-08
3.97919e-08
2.74286e-08
1.89399e-06
1.47302e-06
1.13689e-06
8.70585e-07
6.61337e-07
4.98296e-07
3.72318e-07
2.7578e-07
2.02423e-07
1.47172e-07
1.05945e-07
7.54855e-08
5.32101e-08
3.70906e-08
2.55525e-08
1.72382e-06
1.34047e-06
1.03438e-06
7.91915e-07
6.0144e-07
4.53053e-07
3.38409e-07
2.50565e-07
1.83827e-07
1.33577e-07
9.60999e-08
6.84259e-08
4.81996e-08
3.35718e-08
2.31085e-08
1.52053e-06
1.18206e-06
9.11836e-07
6.97856e-07
5.29816e-07
3.98945e-07
2.97854e-07
2.20412e-07
1.61597e-07
1.17336e-07
8.43466e-08
6.00041e-08
4.22261e-08
2.93795e-08
2.01987e-08
1.29436e-06
1.00584e-06
7.75573e-07
5.93311e-07
4.50238e-07
3.38841e-07
2.52812e-07
1.8693e-07
1.36921e-07
9.93155e-08
7.13126e-08
5.06698e-08
3.56093e-08
2.47389e-08
1.69806e-08
1.05837e-06
8.22005e-07
6.33469e-07
4.84318e-07
3.67283e-07
2.76189e-07
2.05866e-07
1.52047e-07
1.11231e-07
8.05712e-08
5.77682e-08
4.09796e-08
2.87478e-08
1.99326e-08
1.36525e-08
8.274e-07
6.42116e-07
4.9444e-07
3.7769e-07
2.86126e-07
2.14898e-07
1.59958e-07
1.17957e-07
8.61483e-08
6.2291e-08
4.45748e-08
3.15529e-08
2.20827e-08
1.52723e-08
1.04319e-08
6.15664e-07
4.77261e-07
3.67057e-07
2.80002e-07
2.11787e-07
1.58782e-07
1.17957e-07
8.68025e-08
6.32535e-08
4.56264e-08
3.25641e-08
2.29848e-08
1.60364e-08
1.10539e-08
7.52404e-09
4.34103e-07
3.35962e-07
2.57907e-07
1.96328e-07
1.48154e-07
1.10796e-07
8.209e-08
6.02379e-08
4.37628e-08
3.14639e-08
2.23765e-08
1.5734e-08
1.09332e-08
7.50427e-09
5.08505e-09
2.89101e-07
2.23158e-07
1.7082e-07
1.2963e-07
9.74999e-08
7.26626e-08
5.36402e-08
3.92089e-08
2.83671e-08
2.03044e-08
1.43721e-08
1.00556e-08
6.9512e-09
4.74521e-09
3.19717e-09
1.82624e-07
1.40414e-07
1.07033e-07
8.08675e-08
6.05441e-08
4.4903e-08
3.29785e-08
2.39754e-08
1.72466e-08
1.22706e-08
8.63117e-09
5.99965e-09
4.11937e-09
2.79231e-09
1.86766e-09
1.13636e-07
8.68996e-08
6.58646e-08
4.94663e-08
3.6801e-08
2.71118e-08
1.97718e-08
1.42681e-08
1.01847e-08
7.18833e-09
5.01441e-09
3.45567e-09
2.3516e-09
1.57944e-09
1.0465e-09
7.99342e-08
6.07999e-08
4.58208e-08
3.42048e-08
2.52836e-08
1.85001e-08
1.33952e-08
9.59416e-09
6.79498e-09
4.7568e-09
3.29006e-09
2.24732e-09
1.51534e-09
1.0082e-09
6.6158e-10
1.52972e-05
1.19287e-05
9.23706e-06
7.09904e-06
5.41241e-06
4.09267e-06
3.06929e-06
2.28281e-06
1.6834e-06
1.23015e-06
8.90274e-07
6.37747e-07
4.52024e-07
3.1689e-07
2.19629e-07
1.49774e-05
1.16806e-05
9.0456e-06
6.9521e-06
5.30035e-06
4.00786e-06
3.00565e-06
2.23546e-06
1.64843e-06
1.20455e-06
8.71687e-07
6.24387e-07
4.42521e-07
3.10201e-07
2.1497e-07
1.43498e-05
1.11925e-05
8.66793e-06
6.66155e-06
5.07845e-06
3.83978e-06
2.87939e-06
2.14137e-06
1.57885e-06
1.15351e-06
8.34576e-07
5.97671e-07
4.23493e-07
2.96797e-07
2.05629e-07
1.34249e-05
1.04723e-05
8.10999e-06
6.23198e-06
4.75014e-06
3.59094e-06
2.69238e-06
2.00193e-06
1.47565e-06
1.07773e-06
7.79431e-07
5.57938e-07
3.95166e-07
2.76818e-07
1.9169e-07
1.22246e-05
9.5359e-06
7.38371e-06
5.67237e-06
4.32232e-06
3.2667e-06
2.44874e-06
1.82027e-06
1.34121e-06
9.79001e-07
7.07571e-07
5.06153e-07
3.58239e-07
2.50766e-07
1.73506e-07
1.07934e-05
8.41796e-06
6.51551e-06
5.00294e-06
3.81048e-06
2.8788e-06
2.15722e-06
1.60286e-06
1.18032e-06
8.60922e-07
6.21712e-07
4.44345e-07
3.14205e-07
2.19718e-07
1.51848e-07
9.20178e-06
7.17406e-06
5.54964e-06
4.25878e-06
3.24206e-06
2.44833e-06
1.83377e-06
1.36162e-06
1.00177e-06
7.29903e-07
5.26481e-07
3.75828e-07
2.65413e-07
1.85333e-07
1.27878e-07
7.53873e-06
5.87367e-06
4.54035e-06
3.48191e-06
2.64913e-06
1.99937e-06
1.49634e-06
1.10992e-06
8.15565e-07
5.93403e-07
4.27396e-07
3.04623e-07
2.14759e-07
1.49672e-07
1.03049e-07
5.90766e-06
4.59818e-06
3.55102e-06
2.72099e-06
2.06855e-06
1.55966e-06
1.16578e-06
8.63399e-07
6.33329e-07
4.59976e-07
3.30675e-07
2.35208e-07
1.65444e-07
1.15008e-07
7.89615e-08
4.40844e-06
3.42691e-06
2.64353e-06
2.0234e-06
1.53623e-06
1.15642e-06
8.62692e-07
6.37536e-07
4.66585e-07
3.38074e-07
2.42427e-07
1.71955e-07
1.20575e-07
8.35324e-08
5.71433e-08
3.11943e-06
2.42136e-06
1.86501e-06
1.42496e-06
1.07952e-06
8.10573e-07
6.03015e-07
4.44344e-07
3.24222e-07
2.34171e-07
1.67331e-07
1.18231e-07
8.25581e-08
5.69421e-08
3.8773e-08
2.08767e-06
1.61679e-06
1.24201e-06
9.46052e-07
7.14281e-07
5.34395e-07
3.96081e-07
2.90739e-07
2.11274e-07
1.51916e-07
1.08029e-07
7.59361e-08
5.27368e-08
3.61683e-08
2.44823e-08
1.32727e-06
1.02394e-06
7.83219e-07
5.93851e-07
4.46228e-07
3.32213e-07
2.44971e-07
1.78841e-07
1.29202e-07
9.23224e-08
6.5221e-08
4.55323e-08
3.1398e-08
2.13748e-08
1.43572e-08
8.31664e-07
6.38023e-07
4.85176e-07
3.65636e-07
2.73003e-07
2.01886e-07
1.47802e-07
1.0708e-07
7.67355e-08
5.43717e-08
3.80763e-08
2.63418e-08
1.79939e-08
1.213e-08
8.06516e-09
5.88065e-07
4.487e-07
3.39277e-07
2.5415e-07
1.8854e-07
1.38458e-07
1.00617e-07
7.23263e-08
5.14081e-08
3.61159e-08
2.50666e-08
1.71795e-08
1.16206e-08
7.75419e-09
5.10181e-09
0.000108394
8.46164e-05
6.56832e-05
5.06696e-05
3.87992e-05
2.94576e-05
2.21655e-05
1.65356e-05
1.22359e-05
8.97937e-06
6.53012e-06
4.70143e-06
3.34849e-06
2.35857e-06
1.64271e-06
0.000106092
8.28371e-05
6.43163e-05
4.96216e-05
3.79966e-05
2.88457e-05
2.17034e-05
1.61909e-05
1.19812e-05
8.79278e-06
6.39442e-06
4.60356e-06
3.27859e-06
2.30919e-06
1.60821e-06
0.000101601
7.93597e-05
6.16343e-05
4.75589e-05
3.64164e-05
2.76425e-05
2.07953e-05
1.55125e-05
1.14789e-05
8.42342e-06
6.12471e-06
4.40826e-06
3.13869e-06
2.2102e-06
1.53899e-06
9.50194e-05
7.42562e-05
5.76929e-05
4.45215e-05
3.40833e-05
2.58625e-05
1.94509e-05
1.45078e-05
1.07342e-05
7.87518e-06
5.72388e-06
4.11774e-06
2.9304e-06
2.06262e-06
1.4356e-06
8.65174e-05
6.7648e-05
5.25735e-05
4.05645e-05
3.10383e-05
2.3539e-05
1.76979e-05
1.31987e-05
9.76397e-06
7.16055e-06
5.20104e-06
3.7386e-06
2.65852e-06
1.86993e-06
1.30053e-06
7.6426e-05
5.97845e-05
4.64592e-05
3.58253e-05
2.73887e-05
2.0756e-05
1.55997e-05
1.16317e-05
8.60208e-06
6.30473e-06
4.57545e-06
3.28569e-06
2.33425e-06
1.64034e-06
1.13966e-06
6.52388e-05
5.10494e-05
3.96548e-05
3.05486e-05
2.33302e-05
1.76687e-05
1.32758e-05
9.89619e-06
7.31424e-06
5.35523e-06
3.88117e-06
2.78332e-06
1.97485e-06
1.38598e-06
9.61498e-07
5.35652e-05
4.19025e-05
3.25167e-05
2.50174e-05
1.90866e-05
1.44475e-05
1.08518e-05
8.08444e-06
5.96882e-06
4.36369e-06
3.15737e-06
2.26066e-06
1.60148e-06
1.12196e-06
7.76712e-07
4.2113e-05
3.29004e-05
2.54879e-05
1.95821e-05
1.49279e-05
1.12939e-05
8.47693e-06
6.3074e-06
4.64855e-06
3.39153e-06
2.44907e-06
1.7502e-06
1.23733e-06
8.6476e-07
5.96967e-07
3.15463e-05
2.45925e-05
1.90176e-05
1.45954e-05
1.11182e-05
8.40334e-06
6.29727e-06
4.67512e-06
3.43668e-06
2.50098e-06
1.8016e-06
1.28421e-06
9.05221e-07
6.30483e-07
4.33586e-07
2.2403e-05
1.74302e-05
1.34617e-05
1.03202e-05
7.85e-06
5.92017e-06
4.4236e-06
3.27342e-06
2.39854e-06
1.74004e-06
1.24934e-06
8.87241e-07
6.22754e-07
4.31729e-07
2.95459e-07
1.50547e-05
1.16921e-05
9.01329e-06
6.89298e-06
5.22613e-06
3.9261e-06
2.92157e-06
2.15325e-06
1.57151e-06
1.13525e-06
8.11239e-07
5.73047e-07
3.99909e-07
2.75588e-07
1.87447e-07
9.6301e-06
7.45576e-06
5.72484e-06
4.35734e-06
3.28637e-06
2.45578e-06
1.81797e-06
1.33283e-06
9.67222e-07
6.9433e-07
4.92758e-07
3.45558e-07
2.39357e-07
1.63683e-07
1.1044e-07
6.08011e-06
4.68087e-06
3.57175e-06
2.70094e-06
2.02387e-06
1.50239e-06
1.10442e-06
8.03524e-07
5.78269e-07
4.11446e-07
2.89316e-07
2.00971e-07
1.3784e-07
9.32924e-08
6.22674e-08
4.32234e-06
3.30843e-06
2.50983e-06
1.88678e-06
1.40507e-06
1.03599e-06
7.55893e-07
5.45507e-07
3.89233e-07
2.74493e-07
1.91239e-07
1.31556e-07
8.93056e-08
5.97893e-08
3.94561e-08
0.000772001
0.000601272
0.000465931
0.000359855
0.000276867
0.000211602
0.000160128
0.000119827
8.88396e-05
6.53706e-05
4.77496e-05
3.45769e-05
2.47715e-05
1.75355e-05
1.22683e-05
0.000755186
0.00058825
0.000456038
0.000352371
0.000271164
0.000207212
0.00015676
0.000117287
8.69602e-05
6.39997e-05
4.67577e-05
3.3862e-05
2.42579e-05
1.71702e-05
1.20121e-05
0.000722498
0.000562969
0.00043675
0.00033776
0.000260072
0.000198745
0.000150285
0.0001124
8.33338e-05
6.13356e-05
4.48104e-05
3.24433e-05
2.32323e-05
1.64389e-05
1.14987e-05
0.000674794
0.000526147
0.000408679
0.00031641
0.000243729
0.000186167
0.000140641
0.000105134
7.79439e-05
5.73748e-05
4.19134e-05
3.03319e-05
2.1705e-05
1.5349e-05
1.0732e-05
0.000613477
0.000478828
0.000372481
0.000288683
0.000222337
0.000169634
0.000127994
9.56405e-05
7.09161e-05
5.22103e-05
3.81296e-05
2.75697e-05
1.97066e-05
1.39236e-05
9.72916e-06
0.000541059
0.00042297
0.000329557
0.000255561
0.000196653
0.000149762
0.000112836
8.42897e-05
6.25153e-05
4.60306e-05
3.35986e-05
2.42645e-05
1.73211e-05
1.22259e-05
8.53578e-06
0.000461221
0.000361422
0.000282059
0.000218656
0.000167923
0.00012759
9.60429e-05
7.17562e-05
5.32364e-05
3.91851e-05
2.85635e-05
2.0589e-05
1.46731e-05
1.03444e-05
7.2138e-06
0.000378745
0.000297469
0.000232244
0.000179712
0.000137616
0.000104365
7.85402e-05
5.87008e-05
4.35499e-05
3.20211e-05
2.32948e-05
1.67551e-05
1.19207e-05
8.39184e-06
5.84226e-06
0.000298723
0.000234725
0.000182876
0.000141028
0.000107705
8.16256e-05
6.14466e-05
4.59304e-05
3.4041e-05
2.49719e-05
1.81162e-05
1.30013e-05
9.23394e-06
6.48829e-06
4.50559e-06
0.000225226
0.000176476
0.000136913
0.000105246
8.03051e-05
6.08717e-05
4.58205e-05
3.42039e-05
2.52778e-05
1.8479e-05
1.33665e-05
9.57048e-06
6.7813e-06
4.75049e-06
3.28597e-06
0.000161002
0.000125557
9.71006e-05
7.45758e-05
5.69054e-05
4.31144e-05
3.23874e-05
2.40874e-05
1.77251e-05
1.29097e-05
9.3094e-06
6.64482e-06
4.6902e-06
3.26988e-06
2.24973e-06
0.000108583
8.44408e-05
6.52401e-05
5.00756e-05
3.81494e-05
2.88064e-05
2.15341e-05
1.59332e-05
1.16732e-05
8.46925e-06
6.08233e-06
4.31961e-06
3.03051e-06
2.09891e-06
1.43462e-06
6.97204e-05
5.41426e-05
4.1748e-05
3.19268e-05
2.41876e-05
1.81442e-05
1.34797e-05
9.92035e-06
7.23099e-06
5.21655e-06
3.72095e-06
2.6221e-06
1.82466e-06
1.25352e-06
8.49771e-07
4.43433e-05
3.42879e-05
2.62742e-05
1.99419e-05
1.49928e-05
1.11685e-05
8.24277e-06
6.02414e-06
4.35602e-06
3.11377e-06
2.19908e-06
1.53402e-06
1.05663e-06
7.18234e-07
4.81424e-07
3.17227e-05
2.43704e-05
1.85464e-05
1.39867e-05
1.04537e-05
7.74046e-06
5.67372e-06
4.11336e-06
2.9476e-06
2.08712e-06
1.45994e-06
1.00844e-06
6.87363e-07
4.61959e-07
3.05913e-07
0.0055638
0.00433431
0.00333275
0.00254948
0.00195481
0.00150426
0.00115312
0.000871153
0.000647121
0.000475706
0.000347646
0.000252963
0.000182726
0.000130317
9.15972e-05
0.00544267
0.00423679
0.00325795
0.00249374
0.00191374
0.0014733
0.00112892
0.000852318
0.000632946
0.000465396
0.000340321
0.000247776
0.000178993
0.000127618
8.96826e-05
0.00520904
0.00404824
0.00311292
0.00238677
0.00183643
0.0014162
0.00108516
0.000817688
0.000606732
0.000446089
0.000326294
0.00023759
0.00017157
0.000122232
8.58622e-05
0.00486279
0.00377339
0.0029034
0.00223212
0.00172298
0.00133049
0.00101812
0.000765179
0.00056726
0.000417171
0.000305379
0.000222427
0.000160497
0.000114196
8.01572e-05
0.00441451
0.00342036
0.00263541
0.00203371
0.00157509
0.00121657
0.000928191
0.000695704
0.000515449
0.000379373
0.000278032
0.000202527
0.000145928
0.000103655
7.26923e-05
0.00388033
0.00300568
0.00232336
0.00180208
0.0013998
0.00107993
0.000819553
0.000612657
0.000453884
0.000334537
0.000245492
0.000178737
0.000128485
9.1083e-05
6.38144e-05
0.00328519
0.00255139
0.00198476
0.00154807
0.00120318
0.000923955
0.000697479
0.000520681
0.000386164
0.000285171
0.000209366
0.000152113
0.000108996
7.71144e-05
5.39833e-05
0.0026757
0.00209159
0.0016398
0.00128281
0.000993726
0.000756998
0.000569505
0.000425254
0.000316069
0.00023379
0.000171472
0.000124134
8.8668e-05
6.26328e-05
4.38097e-05
0.00209868
0.00165525
0.00130331
0.00101684
0.000780268
0.00059121
0.00044457
0.000332759
0.000247965
0.000183355
0.000133941
9.65383e-05
6.87904e-05
4.85399e-05
3.39096e-05
0.00159006
0.001259
0.0009873
0.00076205
0.000581204
0.000440055
0.000331684
0.000248911
0.000185392
0.000136457
9.9128e-05
7.1205e-05
5.06548e-05
3.56881e-05
2.48547e-05
0.00115414
0.00090753
0.000703184
0.000539521
0.000411363
0.000312314
0.000235962
0.00017683
0.000130952
9.57492e-05
6.92566e-05
4.96273e-05
3.52257e-05
2.47218e-05
1.71157e-05
0.000786657
0.000611626
0.000471912
0.000362295
0.000277004
0.000210564
0.000158554
0.000117922
8.66764e-05
6.30748e-05
4.54854e-05
3.2487e-05
2.2937e-05
1.59781e-05
1.09757e-05
0.000504942
0.000391962
0.000302942
0.000232947
0.000177695
0.000134072
9.99755e-05
7.37805e-05
5.39544e-05
3.91049e-05
2.80561e-05
1.98869e-05
1.39097e-05
9.5995e-06
6.53759e-06
0.000321807
0.000250029
0.000192812
0.000147197
0.000111094
8.29815e-05
6.14193e-05
4.50668e-05
3.27583e-05
2.35495e-05
1.67172e-05
1.17132e-05
8.10188e-06
5.53166e-06
3.72533e-06
0.00023183
0.000179222
0.000137018
0.000103612
7.76229e-05
5.76653e-05
4.24689e-05
3.09641e-05
2.231e-05
1.58696e-05
1.11457e-05
7.7307e-06
5.2932e-06
3.57387e-06
2.37662e-06
0.0486517
0.039929
0.0319064
0.0246985
0.0185838
0.0138092
0.0104285
0.00808309
0.00632335
0.00476046
0.00349726
0.00253421
0.00183418
0.0013342
0.000965998
0.000685363
0.0477964
0.0391638
0.031227
0.0241289
0.0181268
0.0134741
0.0102022
0.00791896
0.00618907
0.0046538
0.00341753
0.00247815
0.00179605
0.00130764
0.000946426
0.000671033
0.04612
0.0376726
0.0299069
0.0230115
0.0172626
0.0128769
0.00981563
0.00765694
0.005962
0.00446792
0.00327497
0.00237391
0.0017226
0.00125571
0.000907892
0.000642596
0.0436207
0.0354239
0.0279337
0.0213716
0.0160046
0.0120075
0.00923752
0.00724394
0.00560089
0.00417872
0.00305732
0.00221799
0.00161372
0.00117802
0.000849662
0.00060004
0.0402859
0.0324168
0.0253132
0.0192215
0.0143901
0.0109067
0.00848009
0.00667266
0.00510521
0.00378981
0.00276869
0.00201362
0.00147109
0.00107499
0.000772684
0.000544264
0.0360883
0.0286913
0.0221539
0.0167156
0.0125823
0.00968595
0.00761281
0.00596834
0.00450531
0.00332826
0.00243138
0.00177659
0.00130371
0.0009511
0.000680093
0.000477613
0.030995
0.0242609
0.0185231
0.0139819
0.0106945
0.00837997
0.00663491
0.00511054
0.00382222
0.00281444
0.00206228
0.00151718
0.00111653
0.000810228
0.000576069
0.000403645
0.0253176
0.0195087
0.0148165
0.0113406
0.00888977
0.00706027
0.00552575
0.00417982
0.00310523
0.00228764
0.00168847
0.00125064
0.000918589
0.000660966
0.00046774
0.000327477
0.0194362
0.014863
0.0114464
0.00901925
0.00720702
0.0056823
0.00433228
0.00324404
0.00240743
0.00178775
0.00133241
0.000987683
0.000718315
0.000513241
0.000362388
0.000253988
0.0140722
0.0109647
0.00872204
0.00700871
0.00555293
0.0042577
0.00320836
0.00239721
0.0017927
0.00134545
0.00100465
0.000736535
0.000530647
0.000377726
0.000266835
0.000187171
0.00998984
0.008058
0.00651671
0.00514
0.00395098
0.00299363
0.00225395
0.00170003
0.00128526
0.000965334
0.000711747
0.000516066
0.000369965
0.000263319
0.000186111
0.000130005
0.00710795
0.00572956
0.00448334
0.00344932
0.00262714
0.00199643
0.00152177
0.00115947
0.000872907
0.00064525
0.000470166
0.000339261
0.000243181
0.000172996
0.00012152
8.39895e-05
0.00474184
0.00369873
0.00285194
0.00218852
0.00168178
0.00129353
0.000988693
0.000743258
0.000550041
0.000402378
0.000292084
0.000210666
0.000150528
0.000106042
7.35529e-05
5.02905e-05
0.00300045
0.00232707
0.00180488
0.00140083
0.00108233
0.000824407
0.000618105
0.000457856
0.00033624
0.000245313
0.000177585
0.000127014