/*--------------------------------*- C++ -*----------------------------------*\
| =========                 |                                                 |
| \\      /  F ield         | OpenFOAM: The Open Source CFD Toolbox           |
|  \\    /   O peration     | Version:  2312                                  |
|   \\  /    A nd           | Website:  www.openfoam.com                      |
|    \\/     M anipulation  |                                                 |
\*---------------------------------------------------------------------------*/
FoamFile
{
    version     2.0;
    format      ascii;
    arch        "LSB;label=32;scalar=64";
    class       volVectorField;
    location    "0.3";
    object      D;
}
// * * * * * * * * * * * * * * * * * * * * * * * * * * * * * * * * * * * * * //

dimensions      [0 1 0 0 0 0 0];

internalField   nonuniform List<vector> 
1620
(
(8.27724e-05 0.000238712 3.88618e-05)
(4.0063e-05 0.000249458 3.88618e-05)
(-3.86347e-06 0.000252626 3.88619e-05)
(-4.76727e-05 0.000248117 3.88621e-05)
(-9.00335e-05 0.000236069 3.88622e-05)
(-0.000129659 0.000216849 3.88621e-05)
(-0.000165344 0.000191039 3.88621e-05)
(-0.000196006 0.000159425 3.8862e-05)
(-0.000220712 0.000122967 3.88619e-05)
(-0.000238712 8.27724e-05 3.88618e-05)
(-0.000249458 4.0063e-05 3.88618e-05)
(-0.000252626 -3.86349e-06 3.88619e-05)
(-0.000248117 -4.76727e-05 3.88621e-05)
(-0.000236069 -9.00335e-05 3.88621e-05)
(-0.000216849 -0.000129659 3.8862e-05)
(-0.000191039 -0.000165344 3.88621e-05)
(-0.000159425 -0.000196006 3.8862e-05)
(-0.000122967 -0.000220712 3.88619e-05)
(-8.27724e-05 -0.000238712 3.88618e-05)
(-4.0063e-05 -0.000249458 3.88618e-05)
(3.8635e-06 -0.000252626 3.88619e-05)
(4.76727e-05 -0.000248117 3.88621e-05)
(9.00335e-05 -0.000236069 3.88622e-05)
(0.000129659 -0.000216849 3.88621e-05)
(0.000165344 -0.000191039 3.88621e-05)
(0.000196006 -0.000159425 3.8862e-05)
(0.000220712 -0.000122967 3.88619e-05)
(0.000238712 -8.27724e-05 3.88618e-05)
(0.000249458 -4.0063e-05 3.88618e-05)
(0.000252626 3.86348e-06 3.88619e-05)
(0.000248117 4.76727e-05 3.88621e-05)
(0.00023607 9.00335e-05 3.88622e-05)
(0.000216849 0.000129659 3.88621e-05)
(0.000191039 0.000165344 3.88621e-05)
(0.000159425 0.000196006 3.8862e-05)
(0.000122967 0.000220712 3.88619e-05)
(4.16841e-05 0.000241101 4.58599e-05)
(-8.15851e-07 0.000244676 4.58599e-05)
(-4.32908e-05 0.000240817 4.58599e-05)
(-8.44504e-05 0.000229641 4.586e-05)
(-0.000123044 0.000211488 4.58601e-05)
(-0.0001579 0.000186908 4.586e-05)
(-0.000187957 0.00015665 4.58599e-05)
(-0.000212304 0.000121631 4.58599e-05)
(-0.000230199 8.29174e-05 4.58598e-05)
(-0.000241101 4.16841e-05 4.58599e-05)
(-0.000244676 -8.1587e-07 4.58599e-05)
(-0.000240817 -4.32908e-05 4.58599e-05)
(-0.000229641 -8.44504e-05 4.586e-05)
(-0.000211488 -0.000123045 4.58601e-05)
(-0.000186908 -0.0001579 4.586e-05)
(-0.00015665 -0.000187957 4.58599e-05)
(-0.000121631 -0.000212304 4.58599e-05)
(-8.29174e-05 -0.000230199 4.58598e-05)
(-4.16841e-05 -0.000241101 4.58599e-05)
(8.15881e-07 -0.000244676 4.58599e-05)
(4.32908e-05 -0.000240817 4.58599e-05)
(8.44505e-05 -0.000229641 4.586e-05)
(0.000123045 -0.000211488 4.58601e-05)
(0.0001579 -0.000186908 4.586e-05)
(0.000187957 -0.00015665 4.58599e-05)
(0.000212304 -0.000121631 4.58599e-05)
(0.000230199 -8.29174e-05 4.58598e-05)
(0.000241101 -4.16841e-05 4.58599e-05)
(0.000244676 8.15866e-07 4.58599e-05)
(0.000240817 4.32908e-05 4.58599e-05)
(0.000229641 8.44504e-05 4.586e-05)
(0.000211488 0.000123045 4.58601e-05)
(0.000186908 0.0001579 4.586e-05)
(0.00015665 0.000187957 4.58599e-05)
(0.000121631 0.000212304 4.58599e-05)
(8.29175e-05 0.000230199 4.58598e-05)
(-1.25011e-05 0.000239123 4.84308e-05)
(-5.38346e-05 0.00023332 4.84309e-05)
(-9.35323e-05 0.000220427 4.84309e-05)
(-0.000130388 0.000200836 4.84308e-05)
(-0.000163282 0.000175144 4.84309e-05)
(-0.000191215 0.000144129 4.84309e-05)
(-0.000213338 0.000108735 4.84309e-05)
(-0.000228978 7.00377e-05 4.84307e-05)
(-0.000237661 2.9212e-05 4.84307e-05)
(-0.000239123 -1.25012e-05 4.84308e-05)
(-0.00023332 -5.38346e-05 4.84309e-05)
(-0.000220427 -9.35323e-05 4.84309e-05)
(-0.000200836 -0.000130388 4.84308e-05)
(-0.000175144 -0.000163282 4.84309e-05)
(-0.000144129 -0.000191215 4.84309e-05)
(-0.000108735 -0.000213338 4.84309e-05)
(-7.00377e-05 -0.000228978 4.84307e-05)
(-2.9212e-05 -0.000237661 4.84307e-05)
(1.25012e-05 -0.000239123 4.84308e-05)
(5.38346e-05 -0.00023332 4.84309e-05)
(9.35323e-05 -0.000220427 4.84309e-05)
(0.000130388 -0.000200836 4.84308e-05)
(0.000163282 -0.000175144 4.84309e-05)
(0.000191215 -0.000144129 4.84309e-05)
(0.000213338 -0.000108735 4.84309e-05)
(0.000228978 -7.00377e-05 4.84307e-05)
(0.000237661 -2.9212e-05 4.84307e-05)
(0.000239123 1.25012e-05 4.84308e-05)
(0.00023332 5.38346e-05 4.84309e-05)
(0.000220427 9.35323e-05 4.84309e-05)
(0.000200836 0.000130388 4.84308e-05)
(0.000175144 0.000163282 4.84309e-05)
(0.000144129 0.000191215 4.84309e-05)
(0.000108735 0.000213338 4.84309e-05)
(7.00377e-05 0.000228978 4.84307e-05)
(2.92121e-05 0.000237661 4.84307e-05)
(0.000162443 0.000705471 0.000146134)
(3.7472e-05 0.000722962 0.000146134)
(-8.86381e-05 0.000718485 0.000146134)
(-0.000212055 0.000692178 0.000146134)
(-0.000329029 0.000644839 0.000146135)
(-0.000436005 0.000577908 0.000146134)
(-0.000529734 0.000493416 0.000146134)
(-0.000607367 0.000393933 0.000146134)
(-0.000666545 0.000282479 0.000146134)
(-0.000705471 0.000162443 0.000146134)
(-0.000722962 3.74719e-05 0.000146134)
(-0.000718485 -8.86382e-05 0.000146134)
(-0.000692178 -0.000212055 0.000146134)
(-0.000644839 -0.000329029 0.000146135)
(-0.000577907 -0.000436005 0.000146134)
(-0.000493416 -0.000529734 0.000146134)
(-0.000393933 -0.000607367 0.000146134)
(-0.000282479 -0.000666545 0.000146134)
(-0.000162443 -0.000705471 0.000146134)
(-3.74719e-05 -0.000722962 0.000146134)
(8.86382e-05 -0.000718485 0.000146134)
(0.000212055 -0.000692178 0.000146134)
(0.000329029 -0.000644839 0.000146135)
(0.000436005 -0.000577908 0.000146134)
(0.000529734 -0.000493416 0.000146134)
(0.000607367 -0.000393933 0.000146134)
(0.000666545 -0.000282479 0.000146134)
(0.000705471 -0.000162443 0.000146134)
(0.000722962 -3.74719e-05 0.000146134)
(0.000718485 8.86381e-05 0.000146134)
(0.000692178 0.000212055 0.000146134)
(0.000644839 0.000329029 0.000146135)
(0.000577908 0.000436005 0.000146134)
(0.000493416 0.000529734 0.000146134)
(0.000393933 0.000607367 0.000146134)
(0.000282479 0.000666545 0.000146134)
(0.000101359 0.000711608 0.000170943)
(-2.37501e-05 0.000718398 0.000170943)
(-0.000148138 0.00070336 0.000170944)
(-0.000268024 0.000666951 0.000170944)
(-0.000379767 0.000610276 0.000170944)
(-0.000479971 0.000535059 0.000170944)
(-0.000565591 0.000443584 0.000170944)
(-0.000634026 0.00033863 0.000170943)
(-0.000683196 0.000223388 0.000170943)
(-0.000711608 0.000101359 0.000170943)
(-0.000718398 -2.37501e-05 0.000170943)
(-0.00070336 -0.000148138 0.000170944)
(-0.000666951 -0.000268024 0.000170944)
(-0.000610276 -0.000379767 0.000170944)
(-0.000535059 -0.000479971 0.000170944)
(-0.000443584 -0.000565591 0.000170944)
(-0.00033863 -0.000634026 0.000170943)
(-0.000223388 -0.000683196 0.000170943)
(-0.000101359 -0.000711608 0.000170943)
(2.37502e-05 -0.000718398 0.000170943)
(0.000148138 -0.00070336 0.000170944)
(0.000268024 -0.000666951 0.000170944)
(0.000379767 -0.000610276 0.000170944)
(0.000479971 -0.000535059 0.000170944)
(0.000565591 -0.000443584 0.000170944)
(0.000634026 -0.00033863 0.000170943)
(0.000683196 -0.000223388 0.000170943)
(0.000711608 -0.000101359 0.000170943)
(0.000718398 2.37501e-05 0.000170943)
(0.00070336 0.000148138 0.000170944)
(0.000666951 0.000268024 0.000170944)
(0.000610276 0.000379767 0.000170944)
(0.000535059 0.000479971 0.000170944)
(0.000443584 0.000565591 0.000170944)
(0.000338631 0.000634026 0.000170943)
(0.000223389 0.000683196 0.000170943)
(2.54006e-05 0.00071285 0.000189506)
(-9.87704e-05 0.000706431 0.000189506)
(-0.00021994 0.000678548 0.000189506)
(-0.000334427 0.000630047 0.000189506)
(-0.000438753 0.000562402 0.000189506)
(-0.000529747 0.000477669 0.000189506)
(-0.000604646 0.000378423 0.000189506)
(-0.000661172 0.000267678 0.000189506)
(-0.00069761 0.0001488 0.000189506)
(-0.00071285 2.54005e-05 0.000189506)
(-0.000706431 -9.87704e-05 0.000189506)
(-0.000678548 -0.00021994 0.000189506)
(-0.000630047 -0.000334427 0.000189506)
(-0.000562402 -0.000438753 0.000189506)
(-0.000477669 -0.000529747 0.000189506)
(-0.000378423 -0.000604646 0.000189506)
(-0.000267678 -0.000661172 0.000189506)
(-0.0001488 -0.00069761 0.000189506)
(-2.54005e-05 -0.00071285 0.000189506)
(9.87704e-05 -0.000706431 0.000189506)
(0.00021994 -0.000678548 0.000189506)
(0.000334427 -0.000630047 0.000189506)
(0.000438753 -0.000562402 0.000189506)
(0.000529747 -0.000477669 0.000189506)
(0.000604646 -0.000378423 0.000189506)
(0.000661172 -0.000267678 0.000189506)
(0.00069761 -0.0001488 0.000189506)
(0.000712851 -2.54006e-05 0.000189506)
(0.000706431 9.87704e-05 0.000189506)
(0.000678548 0.00021994 0.000189506)
(0.000630047 0.000334427 0.000189506)
(0.000562402 0.000438753 0.000189506)
(0.000477669 0.000529747 0.000189506)
(0.000378423 0.000604646 0.000189506)
(0.000267678 0.000661172 0.000189506)
(0.0001488 0.00069761 0.000189506)
(0.000215988 0.00116646 0.000318085)
(1.01532e-05 0.00118624 0.000318085)
(-0.00019599 0.00116999 0.000318085)
(-0.000396179 0.00111818 0.000318086)
(-0.000584329 0.00103239 0.000318086)
(-0.000754725 0.000915243 0.000318086)
(-0.00090219 0.000770282 0.000318086)
(-0.00102224 0.000601915 0.000318085)
(-0.00111123 0.00041526 0.000318085)
(-0.00116646 0.000215988 0.000318085)
(-0.00118624 1.01531e-05 0.000318085)
(-0.00116999 -0.00019599 0.000318085)
(-0.00111818 -0.000396179 0.000318086)
(-0.00103239 -0.000584329 0.000318086)
(-0.000915243 -0.000754725 0.000318086)
(-0.000770281 -0.00090219 0.000318086)
(-0.000601915 -0.00102224 0.000318085)
(-0.00041526 -0.00111123 0.000318085)
(-0.000215988 -0.00116646 0.000318085)
(-1.0153e-05 -0.00118624 0.000318085)
(0.00019599 -0.00116999 0.000318085)
(0.000396179 -0.00111818 0.000318086)
(0.000584329 -0.00103239 0.000318086)
(0.000754725 -0.000915243 0.000318086)
(0.00090219 -0.000770282 0.000318086)
(0.00102224 -0.000601915 0.000318085)
(0.00111123 -0.00041526 0.000318085)
(0.00116646 -0.000215988 0.000318085)
(0.00118625 -1.01531e-05 0.000318085)
(0.00116999 0.00019599 0.000318085)
(0.00111818 0.000396179 0.000318086)
(0.00103239 0.000584329 0.000318086)
(0.000915243 0.000754725 0.000318086)
(0.000770282 0.00090219 0.000318086)
(0.000601915 0.00102224 0.000318085)
(0.00041526 0.00111123 0.000318085)
(0.000134181 0.00116489 0.000352535)
(-7.01385e-05 0.00117049 0.000352535)
(-0.000272327 0.00114053 0.000352535)
(-0.00046624 0.00107592 0.000352535)
(-0.000645988 0.000978608 0.000352535)
(-0.000806107 0.000851566 0.000352535)
(-0.000941733 0.000698649 0.000352535)
(-0.00104875 0.000524505 0.000352535)
(-0.00112389 0.000334423 0.000352535)
(-0.00116489 0.000134181 0.000352535)
(-0.00117049 -7.01386e-05 0.000352535)
(-0.00114053 -0.000272327 0.000352535)
(-0.00107592 -0.00046624 0.000352535)
(-0.000978608 -0.000645988 0.000352535)
(-0.000851566 -0.000806107 0.000352535)
(-0.000698649 -0.000941733 0.000352535)
(-0.000524505 -0.00104875 0.000352535)
(-0.000334423 -0.00112389 0.000352535)
(-0.000134181 -0.00116489 0.000352535)
(7.01386e-05 -0.00117049 0.000352535)
(0.000272327 -0.00114053 0.000352535)
(0.00046624 -0.00107592 0.000352535)
(0.000645988 -0.000978608 0.000352535)
(0.000806107 -0.000851566 0.000352535)
(0.000941733 -0.000698649 0.000352535)
(0.00104875 -0.000524505 0.000352535)
(0.00112389 -0.000334423 0.000352535)
(0.00116489 -0.000134181 0.000352535)
(0.00117049 7.01386e-05 0.000352535)
(0.00114053 0.000272327 0.000352535)
(0.00107592 0.00046624 0.000352535)
(0.000978608 0.000645988 0.000352535)
(0.000851566 0.000806107 0.000352535)
(0.000698649 0.000941733 0.000352535)
(0.000524505 0.00104875 0.000352535)
(0.000334423 0.00112389 0.000352535)
(3.91027e-05 0.00115726 0.000380923)
(-0.000162448 0.00114647 0.000380923)
(-0.000359063 0.00110085 0.000380924)
(-0.000544767 0.00102177 0.000380924)
(-0.00071392 0.000911651 0.000380924)
(-0.000861381 0.00077383 0.000380924)
(-0.000982668 0.000612496 0.000380923)
(-0.0010741 0.000432552 0.000380923)
(-0.00113289 0.000239466 0.000380923)
(-0.00115726 3.91026e-05 0.000380923)
(-0.00114647 -0.000162448 0.000380923)
(-0.00110085 -0.000359063 0.000380923)
(-0.00102177 -0.000544768 0.000380924)
(-0.000911651 -0.00071392 0.000380924)
(-0.00077383 -0.000861381 0.000380924)
(-0.000612496 -0.000982668 0.000380923)
(-0.000432552 -0.0010741 0.000380923)
(-0.000239466 -0.00113289 0.000380923)
(-3.91026e-05 -0.00115726 0.000380923)
(0.000162448 -0.00114647 0.000380923)
(0.000359063 -0.00110085 0.000380923)
(0.000544768 -0.00102177 0.000380924)
(0.00071392 -0.000911651 0.000380924)
(0.000861381 -0.00077383 0.000380924)
(0.000982668 -0.000612496 0.000380923)
(0.0010741 -0.000432552 0.000380923)
(0.00113289 -0.000239466 0.000380923)
(0.00115726 -3.91026e-05 0.000380923)
(0.00114647 0.000162448 0.000380923)
(0.00110085 0.000359063 0.000380924)
(0.00102177 0.000544768 0.000380924)
(0.000911651 0.00071392 0.000380924)
(0.00077383 0.000861381 0.000380924)
(0.000612496 0.000982668 0.000380923)
(0.000432553 0.0010741 0.000380923)
(0.000239466 0.00113289 0.000380923)
(0.000226781 0.00161095 0.000532418)
(-5.64022e-05 0.00162585 0.000532418)
(-0.000337872 0.00159136 0.000532418)
(-0.000609075 0.00150851 0.000532419)
(-0.000861772 0.00137983 0.000532419)
(-0.00108828 0.00120922 0.000532419)
(-0.00128173 0.00100187 0.000532419)
(-0.00143623 0.000764081 0.000532419)
(-0.00154709 0.000503074 0.000532418)
(-0.00161095 0.000226781 0.000532418)
(-0.00162585 -5.64024e-05 0.000532418)
(-0.00159136 -0.000337872 0.000532418)
(-0.00150851 -0.000609075 0.000532419)
(-0.00137983 -0.000861772 0.000532419)
(-0.00120922 -0.00108828 0.000532419)
(-0.00100187 -0.00128173 0.000532419)
(-0.000764081 -0.00143623 0.000532419)
(-0.000503074 -0.00154709 0.000532418)
(-0.000226781 -0.00161095 0.000532418)
(5.64025e-05 -0.00162585 0.000532418)
(0.000337872 -0.00159136 0.000532418)
(0.000609076 -0.00150851 0.000532419)
(0.000861772 -0.00137983 0.000532419)
(0.00108828 -0.00120922 0.000532419)
(0.00128173 -0.00100187 0.000532419)
(0.00143623 -0.000764081 0.000532419)
(0.00154709 -0.000503074 0.000532418)
(0.00161095 -0.000226781 0.000532418)
(0.00162585 5.64024e-05 0.000532418)
(0.00159136 0.000337872 0.000532418)
(0.00150851 0.000609075 0.000532419)
(0.00137983 0.000861772 0.000532419)
(0.00120922 0.00108828 0.000532419)
(0.00100187 0.00128173 0.000532419)
(0.000764081 0.00143623 0.000532419)
(0.000503074 0.00154709 0.000532418)
(0.000132897 0.00158882 0.00057007)
(-0.000145017 0.00158776 0.00057007)
(-0.000418525 0.00153846 0.00057007)
(-0.000679316 0.00144241 0.00057007)
(-0.000919467 0.00130253 0.00057007)
(-0.00113168 0.00112308 0.00057007)
(-0.00130951 0.000909502 0.00057007)
(-0.00144755 0.000668291 0.00057007)
(-0.0015416 0.000406774 0.00057007)
(-0.00158882 0.000132897 0.00057007)
(-0.00158776 -0.000145017 0.00057007)
(-0.00153845 -0.000418526 0.00057007)
(-0.00144241 -0.000679317 0.00057007)
(-0.00130253 -0.000919467 0.00057007)
(-0.00112308 -0.00113168 0.00057007)
(-0.000909502 -0.00130951 0.00057007)
(-0.000668291 -0.00144755 0.00057007)
(-0.000406774 -0.0015416 0.00057007)
(-0.000132897 -0.00158882 0.00057007)
(0.000145018 -0.00158776 0.00057007)
(0.000418526 -0.00153846 0.00057007)
(0.000679317 -0.00144241 0.00057007)
(0.000919467 -0.00130253 0.00057007)
(0.00113168 -0.00112308 0.00057007)
(0.00130951 -0.000909502 0.00057007)
(0.00144755 -0.000668291 0.00057007)
(0.0015416 -0.000406774 0.00057007)
(0.00158882 -0.000132897 0.00057007)
(0.00158776 0.000145017 0.00057007)
(0.00153846 0.000418525 0.00057007)
(0.00144241 0.000679317 0.00057007)
(0.00130253 0.000919467 0.00057007)
(0.00112308 0.00113168 0.00057007)
(0.000909502 0.00130951 0.00057007)
(0.000668291 0.00144755 0.00057007)
(0.000406774 0.0015416 0.00057007)
(2.75496e-05 0.00156045 0.00060158)
(-0.000243838 0.00154152 0.00060158)
(-0.000507815 0.00147576 0.000601581)
(-0.000756364 0.00136516 0.00060158)
(-0.00098193 0.00121308 0.00060158)
(-0.00117766 0.00102414 0.00060158)
(-0.00133761 0.000804082 0.00060158)
(-0.00145692 0.000559593 0.00060158)
(-0.00153195 0.0002981 0.00060158)
(-0.00156045 2.75495e-05 0.00060158)
(-0.00154152 -0.000243838 0.00060158)
(-0.00147576 -0.000507816 0.00060158)
(-0.00136516 -0.000756364 0.00060158)
(-0.00121308 -0.00098193 0.00060158)
(-0.00102414 -0.00117766 0.00060158)
(-0.000804082 -0.00133761 0.00060158)
(-0.000559592 -0.00145692 0.00060158)
(-0.0002981 -0.00153196 0.00060158)
(-2.75494e-05 -0.00156045 0.00060158)
(0.000243838 -0.00154152 0.00060158)
(0.000507816 -0.00147576 0.00060158)
(0.000756364 -0.00136516 0.00060158)
(0.00098193 -0.00121308 0.00060158)
(0.00117766 -0.00102414 0.00060158)
(0.00133761 -0.000804082 0.00060158)
(0.00145692 -0.000559593 0.00060158)
(0.00153196 -0.0002981 0.00060158)
(0.00156045 -2.75495e-05 0.00060158)
(0.00154152 0.000243838 0.00060158)
(0.00147576 0.000507816 0.000601581)
(0.00136516 0.000756364 0.00060158)
(0.00121308 0.00098193 0.00060158)
(0.00102414 0.00117766 0.00060158)
(0.000804082 0.00133761 0.00060158)
(0.000559593 0.00145692 0.000601581)
(0.0002981 0.00153195 0.00060158)
(0.000195887 0.0020259 0.000777215)
(-0.000158883 0.00202914 0.000777215)
(-0.000508826 0.00197073 0.000777215)
(-0.000843308 0.00185243 0.000777215)
(-0.00115217 0.00167785 0.000777215)
(-0.00142602 0.00145229 0.000777216)
(-0.00165654 0.0011826 0.000777216)
(-0.00183673 0.000876974 0.000777215)
(-0.00196111 0.000544706 0.000777215)
(-0.0020259 0.000195887 0.000777215)
(-0.00202914 -0.000158883 0.000777215)
(-0.00197073 -0.000508826 0.000777215)
(-0.00185243 -0.000843308 0.000777215)
(-0.00167785 -0.00115217 0.000777215)
(-0.00145228 -0.00142602 0.000777216)
(-0.0011826 -0.00165654 0.000777215)
(-0.000876974 -0.00183673 0.000777215)
(-0.000544706 -0.00196111 0.000777215)
(-0.000195887 -0.0020259 0.000777215)
(0.000158883 -0.00202914 0.000777215)
(0.000508826 -0.00197073 0.000777215)
(0.000843308 -0.00185243 0.000777215)
(0.00115217 -0.00167785 0.000777215)
(0.00142602 -0.00145229 0.000777216)
(0.00165654 -0.0011826 0.000777215)
(0.00183673 -0.000876974 0.000777215)
(0.00196111 -0.000544706 0.000777215)
(0.0020259 -0.000195887 0.000777215)
(0.00202914 0.000158883 0.000777215)
(0.00197073 0.000508826 0.000777215)
(0.00185243 0.000843308 0.000777215)
(0.00167785 0.00115217 0.000777215)
(0.00145229 0.00142602 0.000777216)
(0.0011826 0.00165654 0.000777216)
(0.000876974 0.00183673 0.000777215)
(0.000544706 0.00196111 0.000777215)
(9.76638e-05 0.00197209 0.000812545)
(-0.000246269 0.00195909 0.000812545)
(-0.00058272 0.00188656 0.000812545)
(-0.000901464 0.00175671 0.000812545)
(-0.00119282 0.00157348 0.000812545)
(-0.00144793 0.00134245 0.000812545)
(-0.00165905 0.00107062 0.000812545)
(-0.00181975 0.000766268 0.000812545)
(-0.00192517 0.00043863 0.000812545)
(-0.00197209 9.76637e-05 0.000812545)
(-0.00195909 -0.00024627 0.000812545)
(-0.00188656 -0.00058272 0.000812545)
(-0.00175671 -0.000901464 0.000812545)
(-0.00157348 -0.00119282 0.000812545)
(-0.00134245 -0.00144793 0.000812545)
(-0.00107062 -0.00165905 0.000812545)
(-0.000766268 -0.00181975 0.000812545)
(-0.00043863 -0.00192517 0.000812545)
(-9.76636e-05 -0.00197209 0.000812545)
(0.00024627 -0.00195909 0.000812545)
(0.00058272 -0.00188656 0.000812545)
(0.000901464 -0.00175671 0.000812545)
(0.00119282 -0.00157348 0.000812545)
(0.00144793 -0.00134245 0.000812545)
(0.00165905 -0.00107062 0.000812545)
(0.00181975 -0.000766268 0.000812545)
(0.00192517 -0.00043863 0.000812545)
(0.00197209 -9.76637e-05 0.000812545)
(0.00195909 0.00024627 0.000812545)
(0.00188656 0.00058272 0.000812545)
(0.00175671 0.000901464 0.000812545)
(0.00157348 0.00119282 0.000812545)
(0.00134245 0.00144793 0.000812545)
(0.00107062 0.00165905 0.000812545)
(0.000766268 0.00181975 0.000812545)
(0.00043863 0.00192517 0.000812545)
(-1.03114e-05 0.00191266 0.000841646)
(-0.000342284 0.00188181 0.000841645)
(-0.000663857 0.00179378 0.000841646)
(-0.000965259 0.00165125 0.000841645)
(-0.00123733 0.00145855 0.000841646)
(-0.00147181 0.00122153 0.000841645)
(-0.00166157 0.0009474 0.000841646)
(-0.00180084 0.000644479 0.000841645)
(-0.00188539 0.000321975 0.000841646)
(-0.00191266 -1.03115e-05 0.000841646)
(-0.00188181 -0.000342284 0.000841645)
(-0.00179378 -0.000663857 0.000841646)
(-0.00165125 -0.000965259 0.000841645)
(-0.00145855 -0.00123733 0.000841646)
(-0.00122153 -0.00147181 0.000841645)
(-0.0009474 -0.00166157 0.000841645)
(-0.000644478 -0.00180084 0.000841645)
(-0.000321975 -0.00188539 0.000841645)
(1.03116e-05 -0.00191266 0.000841645)
(0.000342285 -0.00188181 0.000841645)
(0.000663857 -0.00179378 0.000841646)
(0.000965259 -0.00165125 0.000841645)
(0.00123733 -0.00145855 0.000841646)
(0.00147181 -0.00122153 0.000841645)
(0.00166157 -0.0009474 0.000841646)
(0.00180084 -0.000644479 0.000841645)
(0.00188539 -0.000321975 0.000841646)
(0.00191266 1.03115e-05 0.000841646)
(0.00188181 0.000342284 0.000841645)
(0.00179378 0.000663857 0.000841646)
(0.00165126 0.000965259 0.000841645)
(0.00145855 0.00123733 0.000841646)
(0.00122153 0.00147181 0.000841645)
(0.0009474 0.00166157 0.000841646)
(0.000644479 0.00180084 0.000841646)
(0.000321975 0.00188539 0.000841646)
(0.000129982 0.00239741 0.00104486)
(-0.000288298 0.00238356 0.00104486)
(-0.000697818 0.00229728 0.00104486)
(-0.00108613 0.00214121 0.00104486)
(-0.00144145 0.00192007 0.00104486)
(-0.00175297 0.00164059 0.00104486)
(-0.00201122 0.00131127 0.00104486)
(-0.00220837 0.000942104 0.00104486)
(-0.00233841 0.000544312 0.00104486)
(-0.00239741 0.000129981 0.00104486)
(-0.00238356 -0.000288298 0.00104486)
(-0.00229728 -0.000697818 0.00104486)
(-0.00214121 -0.00108613 0.00104486)
(-0.00192007 -0.00144145 0.00104486)
(-0.00164059 -0.00175297 0.00104486)
(-0.00131127 -0.00201122 0.00104486)
(-0.000942104 -0.00220837 0.00104486)
(-0.000544312 -0.00233841 0.00104486)
(-0.000129981 -0.00239741 0.00104486)
(0.000288299 -0.00238356 0.00104486)
(0.000697819 -0.00229728 0.00104486)
(0.00108614 -0.00214121 0.00104486)
(0.00144145 -0.00192007 0.00104486)
(0.00175297 -0.00164059 0.00104486)
(0.00201122 -0.00131127 0.00104486)
(0.00220837 -0.000942104 0.00104486)
(0.00233841 -0.000544312 0.00104486)
(0.00239741 -0.000129981 0.00104486)
(0.00238356 0.000288298 0.00104486)
(0.00229728 0.000697818 0.00104486)
(0.00214121 0.00108613 0.00104486)
(0.00192007 0.00144145 0.00104486)
(0.00164059 0.00175297 0.00104486)
(0.00131127 0.00201122 0.00104486)
(0.000942104 0.00220837 0.00104486)
(0.000544312 0.00233841 0.00104486)
(3.34872e-05 0.00230347 0.00107309)
(-0.000367016 0.00227429 0.00107309)
(-0.000756366 0.00217601 0.00107309)
(-0.00112273 0.00201161 0.00107309)
(-0.00145499 0.00178609 0.00107309)
(-0.00174303 0.0015063 0.00107309)
(-0.00197812 0.00118074 0.00107309)
(-0.0021531 0.000819302 0.00107309)
(-0.00226266 0.000432972 0.00107309)
(-0.00230347 3.3487e-05 0.00107309)
(-0.00227429 -0.000367016 0.00107309)
(-0.00217601 -0.000756366 0.00107309)
(-0.00201161 -0.00112273 0.00107309)
(-0.00178609 -0.00145499 0.00107309)
(-0.0015063 -0.00174303 0.00107309)
(-0.00118074 -0.00197812 0.00107309)
(-0.000819302 -0.0021531 0.00107309)
(-0.000432972 -0.00226266 0.00107309)
(-3.34869e-05 -0.00230347 0.00107309)
(0.000367016 -0.00227429 0.00107309)
(0.000756366 -0.00217601 0.00107309)
(0.00112273 -0.00201161 0.00107309)
(0.00145499 -0.00178609 0.00107309)
(0.00174303 -0.0015063 0.00107309)
(0.00197812 -0.00118074 0.00107309)
(0.0021531 -0.000819302 0.00107309)
(0.00226266 -0.000432972 0.00107309)
(0.00230347 -3.34871e-05 0.00107309)
(0.00227429 0.000367016 0.00107309)
(0.00217601 0.000756366 0.00107309)
(0.00201161 0.00112273 0.00107309)
(0.00178609 0.00145499 0.00107309)
(0.0015063 0.00174303 0.00107309)
(0.00118074 0.00197812 0.00107309)
(0.000819302 0.0021531 0.00107309)
(0.000432972 0.00226266 0.00107309)
(-7.10157e-05 0.00220522 0.00109493)
(-0.00045287 0.00215939 0.00109493)
(-0.000820963 0.00204794 0.00109493)
(-0.00116411 0.00187427 0.00109493)
(-0.00147189 0.00164365 0.00109493)
(-0.00173494 0.00136309 0.00109493)
(-0.00194528 0.00104111 0.00109493)
(-0.00209652 0.000687497 0.00109493)
(-0.00218405 0.000312996 0.00109493)
(-0.00220522 -7.10158e-05 0.00109493)
(-0.00215939 -0.00045287 0.00109493)
(-0.00204794 -0.000820963 0.00109493)
(-0.00187427 -0.00116411 0.00109493)
(-0.00164365 -0.00147189 0.00109493)
(-0.00136309 -0.00173494 0.00109493)
(-0.00104111 -0.00194528 0.00109493)
(-0.000687497 -0.00209652 0.00109493)
(-0.000312996 -0.00218405 0.00109493)
(7.1016e-05 -0.00220522 0.00109493)
(0.00045287 -0.00215939 0.00109493)
(0.000820964 -0.00204794 0.00109493)
(0.00116411 -0.00187427 0.00109493)
(0.00147189 -0.00164365 0.00109493)
(0.00173495 -0.00136309 0.00109493)
(0.00194528 -0.00104111 0.00109493)
(0.00209652 -0.000687497 0.00109493)
(0.00218405 -0.000312996 0.00109493)
(0.00220522 7.10158e-05 0.00109493)
(0.00215939 0.00045287 0.00109493)
(0.00204794 0.000820963 0.00109493)
(0.00187427 0.00116411 0.00109493)
(0.00164365 0.00147189 0.00109493)
(0.00136309 0.00173494 0.00109493)
(0.00104111 0.00194528 0.00109493)
(0.000687498 0.00209652 0.00109493)
(0.000312996 0.00218405 0.00109493)
(3.94313e-05 0.00271196 0.00133252)
(-0.000432094 0.0026776 0.00133252)
(-0.00089049 0.00256189 0.00133252)
(-0.00132183 0.00236834 0.00133252)
(-0.001713 0.00210282 0.00133252)
(-0.00205213 0.00177342 0.00133252)
(-0.00232891 0.00139013 0.00133252)
(-0.00253492 0.000964596 0.00133252)
(-0.00266391 0.000509757 0.00133252)
(-0.00271196 3.94311e-05 0.00133252)
(-0.0026776 -0.000432094 0.00133252)
(-0.00256189 -0.000890491 0.00133252)
(-0.00236834 -0.00132183 0.00133252)
(-0.00210282 -0.001713 0.00133252)
(-0.00177342 -0.00205213 0.00133252)
(-0.00139013 -0.00232891 0.00133252)
(-0.000964596 -0.00253492 0.00133252)
(-0.000509757 -0.00266391 0.00133252)
(-3.94309e-05 -0.00271196 0.00133252)
(0.000432094 -0.0026776 0.00133252)
(0.000890491 -0.00256189 0.00133252)
(0.00132183 -0.00236834 0.00133252)
(0.001713 -0.00210282 0.00133252)
(0.00205213 -0.00177342 0.00133252)
(0.00232891 -0.00139013 0.00133252)
(0.00253492 -0.000964596 0.00133252)
(0.00266391 -0.000509757 0.00133252)
(0.00271196 -3.94311e-05 0.00133252)
(0.0026776 0.000432094 0.00133252)
(0.00256189 0.000890491 0.00133252)
(0.00236834 0.00132183 0.00133252)
(0.00210282 0.001713 0.00133252)
(0.00177342 0.00205213 0.00133252)
(0.00139013 0.00232891 0.00133252)
(0.000964596 0.00253492 0.00133252)
(0.000509758 0.00266391 0.00133252)
(-5.08426e-05 0.00257183 0.00134915)
(-0.000496664 0.00252393 0.00134915)
(-0.000927394 0.00239934 0.00134915)
(-0.00132995 0.00220185 0.00134914)
(-0.00169209 0.00193746 0.00134914)
(-0.00200282 0.00161419 0.00134914)
(-0.00225269 0.00124188 0.00134915)
(-0.00243412 0.000831841 0.00134915)
(-0.00254159 0.000396523 0.00134915)
(-0.00257183 -5.08428e-05 0.00134915)
(-0.00252393 -0.000496664 0.00134915)
(-0.00239934 -0.000927395 0.00134914)
(-0.00220185 -0.00132995 0.00134914)
(-0.00193746 -0.00169209 0.00134914)
(-0.00161419 -0.00200282 0.00134914)
(-0.00124188 -0.00225269 0.00134914)
(-0.000831841 -0.00243412 0.00134915)
(-0.000396522 -0.00254159 0.00134915)
(5.0843e-05 -0.00257183 0.00134915)
(0.000496665 -0.00252393 0.00134914)
(0.000927395 -0.00239934 0.00134914)
(0.00132995 -0.00220185 0.00134914)
(0.00169209 -0.00193746 0.00134914)
(0.00200282 -0.00161419 0.00134914)
(0.00225269 -0.00124188 0.00134915)
(0.00243412 -0.000831842 0.00134915)
(0.00254159 -0.000396523 0.00134915)
(0.00257183 5.08428e-05 0.00134915)
(0.00252393 0.000496664 0.00134915)
(0.00239934 0.000927395 0.00134915)
(0.00220185 0.00132995 0.00134914)
(0.00193746 0.00169209 0.00134914)
(0.00161419 0.00200282 0.00134914)
(0.00124188 0.00225269 0.00134915)
(0.000831842 0.00243412 0.00134915)
(0.000396523 0.00254159 0.00134915)
(-0.000147197 0.00242935 0.00135913)
(-0.000566812 0.00236688 0.00135913)
(-0.000969205 0.0022325 0.00135913)
(-0.00134215 0.00203028 0.00135913)
(-0.00167431 0.00176637 0.00135913)
(-0.0019556 0.0014488 0.00135913)
(-0.00217747 0.0010872 0.00135913)
(-0.00233318 0.000692567 0.00135913)
(-0.002418 0.000276892 0.00135913)
(-0.00242935 -0.000147197 0.00135913)
(-0.00236688 -0.000566812 0.00135913)
(-0.0022325 -0.000969205 0.00135913)
(-0.00203028 -0.00134215 0.00135913)
(-0.00176637 -0.00167431 0.00135913)
(-0.0014488 -0.0019556 0.00135913)
(-0.0010872 -0.00217747 0.00135913)
(-0.000692567 -0.00233318 0.00135913)
(-0.000276892 -0.002418 0.00135913)
(0.000147197 -0.00242935 0.00135913)
(0.000566812 -0.00236688 0.00135913)
(0.000969206 -0.0022325 0.00135913)
(0.00134215 -0.00203028 0.00135913)
(0.00167431 -0.00176637 0.00135913)
(0.0019556 -0.0014488 0.00135913)
(0.00217748 -0.0010872 0.00135913)
(0.00233318 -0.000692567 0.00135913)
(0.002418 -0.000276892 0.00135913)
(0.00242935 0.000147197 0.00135913)
(0.00236688 0.000566812 0.00135913)
(0.0022325 0.000969205 0.00135913)
(0.00203028 0.00134215 0.00135913)
(0.00176637 0.00167431 0.00135913)
(0.0014488 0.0019556 0.00135913)
(0.0010872 0.00217747 0.00135913)
(0.000692567 0.00233318 0.00135913)
(0.000276892 0.002418 0.00135913)
(-6.29717e-05 0.00295629 0.00164053)
(-0.000575369 0.00290044 0.00164053)
(-0.00107028 0.00275646 0.00164053)
(-0.00153268 0.00252873 0.00164053)
(-0.0019485 0.00222417 0.00164053)
(-0.00230512 0.00185203 0.00164053)
(-0.00259171 0.00142361 0.00164053)
(-0.00279954 0.000951935 0.00164053)
(-0.00292231 0.000451337 0.00164053)
(-0.00295629 -6.29719e-05 0.00164053)
(-0.00290044 -0.000575369 0.00164053)
(-0.00275646 -0.00107028 0.00164053)
(-0.00252873 -0.00153268 0.00164053)
(-0.00222417 -0.0019485 0.00164053)
(-0.00185203 -0.00230512 0.00164053)
(-0.00142361 -0.00259171 0.00164053)
(-0.000951934 -0.00279954 0.00164053)
(-0.000451337 -0.00292231 0.00164053)
(6.29722e-05 -0.00295629 0.00164053)
(0.000575369 -0.00290044 0.00164053)