/*--------------------------------*- C++ -*----------------------------------*\
| =========                 |                                                 |
| \\      /  F ield         | OpenFOAM: The Open Source CFD Toolbox           |
|  \\    /   O peration     | Version:  2312                                  |
|   \\  /    A nd           | Website:  www.openfoam.com                      |
|    \\/     M anipulation  |                                                 |
\*---------------------------------------------------------------------------*/
FoamFile
{
    version     2.0;
    format      ascii;
    arch        "LSB;label=32;scalar=64";
    class       volVectorField;
    location    "0.3";
    object      traction;
}
// * * * * * * * * * * * * * * * * * * * * * * * * * * * * * * * * * * * * * //

dimensions      [1 -1 -2 0 0 0 0];

internalField   uniform (0 0 0);

boundaryField
{
    fixed
    {
        type            calculated;
        value           nonuniform List<vector> 
108
(
(-804.346 6336.61 6317.41)
(-1892.47 6100.67 6317.44)
(-2923.09 5679.38 6317.41)
(-3864.88 5085.46 6317.41)
(-4689.23 4337.07 6317.42)
(-5371.11 3456.93 6317.43)
(-5889.85 2471.74 6317.36)
(-6229.56 1411.42 6317.39)
(-6380.01 308.225 6317.4)
(-6336.61 -804.346 6317.41)
(-6100.67 -1892.47 6317.44)
(-5679.38 -2923.09 6317.41)
(-5085.46 -3864.88 6317.41)
(-4337.07 -4689.23 6317.42)
(-3456.93 -5371.11 6317.43)
(-2471.74 -5889.85 6317.36)
(-1411.42 -6229.56 6317.39)
(-308.225 -6380.01 6317.4)
(804.346 -6336.61 6317.41)
(1892.47 -6100.67 6317.44)
(2923.09 -5679.38 6317.41)
(3864.88 -5085.46 6317.41)
(4689.23 -4337.07 6317.42)
(5371.11 -3456.93 6317.43)
(5889.85 -2471.74 6317.36)
(6229.56 -1411.42 6317.39)
(6380.01 -308.225 6317.4)
(6336.61 804.346 6317.41)
(6100.67 1892.47 6317.44)
(5679.38 2923.09 6317.41)
(5085.46 3864.88 6317.41)
(4337.07 4689.23 6317.42)
(3456.93 5371.11 6317.43)
(2471.74 5889.85 6317.36)
(1411.42 6229.56 6317.39)
(308.225 6380.01 6317.4)
(-282.147 1475.03 -13860.6)
(-533.996 1403.62 -13860.5)
(-769.613 1289.55 -13860.5)
(-981.891 1136.38 -13860.5)
(-1164.35 948.661 -13860.5)
(-1311.34 732.023 -13860.5)
(-1418.47 493.161 -13860.5)
(-1482.57 239.357 -13860.5)
(-1501.61 -21.7253 -13860.6)
(-1475.03 -282.147 -13860.6)
(-1403.62 -533.996 -13860.5)
(-1289.55 -769.613 -13860.5)
(-1136.38 -981.891 -13860.5)
(-948.661 -1164.35 -13860.5)
(-732.023 -1311.34 -13860.5)
(-493.161 -1418.47 -13860.5)
(-239.357 -1482.57 -13860.5)
(21.7253 -1501.61 -13860.6)
(282.147 -1475.03 -13860.5)
(533.995 -1403.62 -13860.5)
(769.613 -1289.55 -13860.5)
(981.891 -1136.38 -13860.5)
(1164.35 -948.661 -13860.5)
(1311.34 -732.023 -13860.5)
(1418.47 -493.161 -13860.5)
(1482.57 -239.357 -13860.5)
(1501.61 21.7253 -13860.6)
(1475.03 282.147 -13860.6)
(1403.62 533.995 -13860.5)
(1289.55 769.613 -13860.5)
(1136.38 981.891 -13860.5)
(948.661 1164.35 -13860.5)
(732.023 1311.34 -13860.5)
(493.161 1418.47 -13860.5)
(239.357 1482.57 -13860.5)
(-21.7253 1501.61 -13860.6)
(712.897 -9754.27 -11323.4)
(2395.87 -9482.29 -11323.4)
(4006.07 -8922.18 -11323.4)
(5494.54 -8090.98 -11323.4)
(6816.05 -7013.97 -11323.5)
(7930.44 -5723.82 -11323.4)
(8803.89 -4259.75 -11323.4)
(9409.84 -2666.24 -11323.4)
(9729.87 -991.735 -11323.4)
(9754.27 712.897 -11323.4)
(9482.29 2395.87 -11323.4)
(8922.18 4006.07 -11323.4)
(8090.98 5494.54 -11323.4)
(7013.97 6816.05 -11323.5)
(5723.82 7930.44 -11323.4)
(4259.75 8803.89 -11323.4)
(2666.24 9409.85 -11323.4)
(991.735 9729.87 -11323.4)
(-712.897 9754.27 -11323.4)
(-2395.87 9482.29 -11323.4)
(-4006.07 8922.18 -11323.4)
(-5494.54 8090.98 -11323.4)
(-6816.05 7013.97 -11323.5)
(-7930.44 5723.82 -11323.4)
(-8803.89 4259.75 -11323.4)
(-9409.85 2666.24 -11323.4)
(-9729.87 991.735 -11323.4)
(-9754.27 -712.897 -11323.4)
(-9482.29 -2395.87 -11323.4)
(-8922.18 -4006.07 -11323.4)
(-8090.98 -5494.54 -11323.4)
(-7013.97 -6816.05 -11323.5)
(-5723.82 -7930.44 -11323.4)
(-4259.75 -8803.89 -11323.4)
(-2666.24 -9409.85 -11323.4)
(-991.735 -9729.87 -11323.4)
)
;
    }
    inside
    {
        type            calculated;
        value           nonuniform List<vector> 
540
(
(22090.1 2791.78 1609.61)
(21269.8 6585.1 1609.57)
(19803.1 10178.8 1609.62)
(17734.8 13462.8 1609.59)
(15127.5 16337.9 1609.6)
(12060.6 18716.5 1609.59)
(8627.44 20526.4 1609.58)
(4931.76 21712.8 1609.61)
(1086.62 22239.3 1609.61)
(-2791.78 22090.1 1609.61)
(-6585.1 21269.8 1609.57)
(-10178.8 19803.1 1609.61)
(-13462.8 17734.8 1609.59)
(-16337.9 15127.5 1609.6)
(-18716.5 12060.6 1609.59)
(-20526.4 8627.44 1609.58)
(-21712.8 4931.76 1609.61)
(-22239.3 1086.62 1609.61)
(-22090.1 -2791.78 1609.61)
(-21269.8 -6585.1 1609.57)
(-19803.1 -10178.8 1609.61)
(-17734.8 -13462.8 1609.59)
(-15127.5 -16337.9 1609.6)
(-12060.6 -18716.5 1609.59)
(-8627.44 -20526.4 1609.58)
(-4931.76 -21712.8 1609.61)
(-1086.62 -22239.3 1609.61)
(2791.78 -22090.1 1609.61)
(6585.1 -21269.8 1609.57)
(10178.8 -19803.1 1609.62)
(13462.8 -17734.8 1609.59)
(16337.9 -15127.5 1609.6)
(18716.5 -12060.6 1609.59)
(20526.4 -8627.45 1609.58)
(21712.8 -4931.76 1609.61)
(22239.3 -1086.62 1609.61)
(9442.71 2015.19 274.924)
(8949.35 3624.2 274.932)
(8184.03 5123.18 274.922)
(7170.03 6466.49 274.906)
(5938.18 7613.28 274.905)
(4525.89 8528.69 274.89)
(2976.17 9185.16 274.915)
(1335.96 9562.44 274.921)
(-344.753 9649.17 274.935)
(-2015.19 9442.71 274.924)
(-3624.2 8949.35 274.932)
(-5123.18 8184.03 274.922)
(-6466.49 7170.03 274.906)
(-7613.28 5938.18 274.905)
(-8528.69 4525.89 274.89)
(-9185.16 2976.17 274.915)
(-9562.44 1335.96 274.921)
(-9649.17 -344.753 274.935)
(-9442.71 -2015.19 274.924)
(-8949.35 -3624.2 274.932)
(-8184.03 -5123.18 274.922)
(-7170.03 -6466.49 274.906)
(-5938.18 -7613.28 274.905)
(-4525.89 -8528.69 274.89)
(-2976.17 -9185.16 274.915)
(-1335.96 -9562.44 274.921)
(344.753 -9649.17 274.935)
(2015.19 -9442.71 274.924)
(3624.2 -8949.35 274.932)
(5123.18 -8184.03 274.922)
(6466.49 -7170.03 274.906)
(7613.28 -5938.18 274.905)
(8528.69 -4525.89 274.89)
(9185.16 -2976.17 274.915)
(9562.44 -1335.96 274.921)
(9649.17 344.753 274.935)
(9393.11 2789.81 -150.21)
(8765.97 4378.5 -150.216)
(7872.43 5834.16 -150.217)
(6739.79 7112.59 -150.203)
(5402.32 8174.92 -150.205)
(3900.67 8988.82 -150.205)
(2280.53 9529.62 -150.213)
(591.059 9780.74 -150.225)
(-1116.3 9734.83 -150.21)
(-2789.81 9393.11 -150.21)
(-4378.5 8765.97 -150.216)
(-5834.16 7872.43 -150.217)
(-7112.59 6739.79 -150.203)
(-8174.92 5402.32 -150.205)
(-8988.82 3900.67 -150.205)
(-9529.62 2280.53 -150.213)
(-9780.74 591.059 -150.225)
(-9734.83 -1116.3 -150.21)
(-9393.11 -2789.81 -150.21)
(-8765.97 -4378.5 -150.216)
(-7872.43 -5834.16 -150.217)
(-6739.79 -7112.59 -150.203)
(-5402.32 -8174.92 -150.205)
(-3900.67 -8988.82 -150.205)
(-2280.53 -9529.62 -150.213)
(-591.06 -9780.74 -150.225)
(1116.3 -9734.83 -150.21)
(2789.81 -9393.11 -150.21)
(4378.5 -8765.97 -150.216)
(5834.16 -7872.43 -150.217)
(7112.59 -6739.79 -150.203)
(8174.92 -5402.32 -150.205)
(8988.82 -3900.67 -150.205)
(9529.62 -2280.53 -150.213)
(9780.74 -591.06 -150.225)
(9734.83 1116.3 -150.21)
(8408.91 3252.33 -583.146)
(7716.43 4663.17 -583.126)
(6789.41 5932.22 -583.145)
(5656.17 7021.11 -583.155)
(4351.03 7896.6 -583.149)
(2913.7 8532.17 -583.154)
(1387.84 8908.55 -583.147)
(-180.184 9014.18 -583.126)
(-1742.78 8845.91 -583.153)
(-3252.33 8408.91 -583.146)
(-4663.17 7716.43 -583.126)
(-5932.22 6789.41 -583.145)
(-7021.11 5656.17 -583.154)
(-7896.6 4351.03 -583.149)
(-8532.17 2913.7 -583.154)
(-8908.55 1387.84 -583.147)
(-9014.18 -180.184 -583.126)
(-8845.91 -1742.78 -583.153)
(-8408.91 -3252.32 -583.146)
(-7716.43 -4663.17 -583.126)
(-6789.41 -5932.22 -583.145)
(-5656.17 -7021.11 -583.154)
(-4351.03 -7896.6 -583.149)
(-2913.7 -8532.17 -583.154)
(-1387.84 -8908.55 -583.147)
(180.184 -9014.18 -583.126)
(1742.78 -8845.91 -583.153)
(3252.33 -8408.91 -583.146)
(4663.17 -7716.43 -583.126)
(5932.22 -6789.41 -583.145)
(7021.11 -5656.17 -583.155)
(7896.6 -4351.03 -583.149)
(8532.17 -2913.7 -583.154)
(8908.56 -1387.84 -583.147)
(9014.18 180.184 -583.126)
(8845.91 1742.78 -583.153)
(7725.2 3660.09 -902.376)
(6972.18 4945.97 -902.385)
(6007.45 6081.54 -902.384)
(4860.1 7032.31 -902.383)
(3565.13 7769.43 -902.383)
(2161.82 8270.46 -902.384)
(692.821 8520.25 -902.387)
(-797.205 8511.14 -902.388)
(-2263.08 8243.36 -902.381)
(-3660.09 7725.2 -902.376)
(-4945.97 6972.18 -902.385)
(-6081.54 6007.45 -902.384)
(-7032.31 4860.1 -902.383)
(-7769.43 3565.13 -902.383)
(-8270.46 2161.82 -902.384)
(-8520.25 692.821 -902.386)
(-8511.14 -797.205 -902.388)
(-8243.36 -2263.08 -902.38)
(-7725.2 -3660.09 -902.375)
(-6972.18 -4945.97 -902.385)
(-6007.45 -6081.54 -902.384)
(-4860.1 -7032.31 -902.383)
(-3565.13 -7769.43 -902.383)
(-2161.82 -8270.47 -902.384)
(-692.821 -8520.25 -902.387)
(797.205 -8511.14 -902.388)
(2263.08 -8243.36 -902.381)
(3660.09 -7725.2 -902.376)
(4945.97 -6972.18 -902.385)
(6081.54 -6007.45 -902.384)
(7032.31 -4860.1 -902.383)
(7769.43 -3565.13 -902.383)
(8270.47 -2161.82 -902.384)
(8520.25 -692.821 -902.387)
(8511.14 797.205 -902.388)
(8243.36 2263.08 -902.381)
(7009 3911.13 -1122.56)
(6223.32 5068.82 -1122.56)
(5248.63 6072.54 -1122.57)
(4114.41 6891.65 -1122.55)
(2855.18 7501.44 -1122.55)
(1509.21 7883.34 -1122.56)
(117.376 8025.55 -1122.56)
(-1278.05 7924.08 -1122.58)
(-2634.65 7581.71 -1122.57)
(-3911.13 7009 -1122.56)
(-5068.82 6223.32 -1122.56)
(-6072.54 5248.62 -1122.57)
(-6891.65 4114.41 -1122.55)
(-7501.43 2855.18 -1122.55)
(-7883.34 1509.21 -1122.56)
(-8025.55 117.376 -1122.56)
(-7924.08 -1278.05 -1122.58)
(-7581.71 -2634.65 -1122.57)
(-7009 -3911.13 -1122.56)
(-6223.32 -5068.82 -1122.56)
(-5248.63 -6072.54 -1122.57)
(-4114.41 -6891.65 -1122.55)
(-2855.18 -7501.44 -1122.55)
(-1509.21 -7883.34 -1122.56)
(-117.377 -8025.55 -1122.57)
(1278.05 -7924.08 -1122.58)
(2634.65 -7581.71 -1122.57)
(3911.13 -7009 -1122.56)
(5068.82 -6223.32 -1122.56)
(6072.54 -5248.63 -1122.57)
(6891.65 -4114.41 -1122.55)
(7501.44 -2855.18 -1122.55)
(7883.34 -1509.21 -1122.56)
(8025.55 -117.377 -1122.57)
(7924.08 1278.05 -1122.58)
(7581.71 2634.65 -1122.57)
(6221.52 3967.27 -1230.45)
(5438 4987.29 -1230.44)
(4489.41 5855.87 -1230.45)
(3404.3 6546.45 -1230.45)
(2215.82 7038.16 -1230.46)
(960.008 7316.03 -1230.46)
(-325.005 7371.57 -1230.44)
(-1600.12 7203.19 -1230.46)
(-2826.59 6815.8 -1230.43)
(-3967.27 6221.52 -1230.45)
(-4987.29 5438 -1230.44)
(-5855.87 4489.41 -1230.45)
(-6546.45 3404.3 -1230.45)
(-7038.16 2215.82 -1230.46)
(-7316.03 960.008 -1230.46)
(-7371.57 -325.005 -1230.44)
(-7203.19 -1600.12 -1230.46)
(-6815.8 -2826.59 -1230.43)
(-6221.52 -3967.27 -1230.45)
(-5438 -4987.29 -1230.44)
(-4489.41 -5855.87 -1230.45)
(-3404.3 -6546.45 -1230.45)
(-2215.82 -7038.16 -1230.46)
(-960.008 -7316.03 -1230.46)
(325.005 -7371.57 -1230.44)
(1600.12 -7203.19 -1230.46)
(2826.59 -6815.8 -1230.43)
(3967.27 -6221.52 -1230.45)
(4987.29 -5438 -1230.44)
(5855.87 -4489.41 -1230.45)
(6546.45 -3404.3 -1230.45)
(7038.16 -2215.82 -1230.46)
(7316.03 -960.008 -1230.46)
(7371.57 325.005 -1230.44)
(7203.19 1600.12 -1230.46)
(6815.8 2826.59 -1230.43)
(5301.12 3765.14 -1187.35)
(4566.73 4628.46 -1187.33)
(3693.67 5351.12 -1187.3)
(2708.3 5911.23 -1187.31)
(1640.71 6291.75 -1187.33)
(523.249 6481.1 -1187.33)
(-610.165 6473.5 -1187.32)
(-1724.97 6269.18 -1187.34)
(-2787.41 5874.38 -1187.34)
(-3765.14 5301.12 -1187.35)
(-4628.46 4566.73 -1187.33)
(-5351.12 3693.67 -1187.3)
(-5911.23 2708.3 -1187.31)
(-6291.75 1640.71 -1187.33)
(-6481.1 523.249 -1187.33)
(-6473.5 -610.165 -1187.32)
(-6269.18 -1724.97 -1187.34)
(-5874.38 -2787.41 -1187.34)
(-5301.12 -3765.14 -1187.35)
(-4566.73 -4628.46 -1187.33)
(-3693.67 -5351.12 -1187.3)
(-2708.3 -5911.23 -1187.31)
(-1640.71 -6291.75 -1187.33)
(-523.249 -6481.1 -1187.33)
(610.165 -6473.5 -1187.32)
(1724.97 -6269.18 -1187.34)
(2787.41 -5874.38 -1187.34)
(3765.14 -5301.12 -1187.35)
(4628.46 -4566.73 -1187.33)
(5351.12 -3693.67 -1187.3)
(5911.23 -2708.3 -1187.31)
(6291.75 -1640.71 -1187.33)
(6481.1 -523.249 -1187.33)
(6473.5 610.165 -1187.32)
(6269.18 1724.97 -1187.34)
(5874.38 2787.41 -1187.34)
(4225.31 3245.56 -930.211)
(3597.54 3930.05 -930.235)
(2860.44 4495.03 -930.238)
(2036.44 4923.48 -930.245)
(1150.57 5202.31 -930.223)
(229.718 5323.03 -930.24)
(-698.119 5282.04 -930.237)
(-1604.71 5080.55 -930.228)
(-2462.63 4724.78 -930.241)
(-3245.56 4225.31 -930.211)
(-3930.05 3597.54 -930.235)
(-4495.03 2860.44 -930.238)
(-4923.48 2036.44 -930.245)
(-5202.31 1150.57 -930.223)
(-5323.03 229.718 -930.24)
(-5282.04 -698.119 -930.237)
(-5080.55 -1604.71 -930.227)
(-4724.78 -2462.63 -930.24)
(-4225.31 -3245.56 -930.211)
(-3597.54 -3930.05 -930.235)
(-2860.44 -4495.03 -930.238)
(-2036.44 -4923.48 -930.245)
(-1150.57 -5202.31 -930.223)
(-229.718 -5323.03 -930.24)
(698.119 -5282.04 -930.238)
(1604.71 -5080.56 -930.228)
(2462.64 -4724.78 -930.241)
(3245.56 -4225.31 -930.211)
(3930.05 -3597.54 -930.236)
(4495.03 -2860.44 -930.239)
(4923.48 -2036.44 -930.245)
(5202.31 -1150.57 -930.224)
(5323.03 -229.718 -930.241)
(5282.04 698.119 -930.238)
(5080.56 1604.71 -930.228)
(4724.78 2462.64 -930.241)
(3050.35 2396.35 -397.406)
(2587.93 2889.69 -397.394)
(2046.78 3295.16 -397.401)
(1443.51 3600.55 -397.439)
(796.322 3796.46 -397.44)
(124.984 3877.06 -397.402)
(-550.137 3839.84 -397.381)
(-1208.58 3686.03 -397.382)
(-1830.32 3420.17 -397.422)
(-2396.35 3050.35 -397.406)
(-2889.69 2587.93 -397.394)
(-3295.16 2046.78 -397.401)
(-3600.55 1443.51 -397.438)
(-3796.46 796.322 -397.44)
(-3877.06 124.984 -397.401)
(-3839.84 -550.137 -397.381)
(-3686.03 -1208.58 -397.382)
(-3420.17 -1830.32 -397.422)
(-3050.35 -2396.35 -397.405)
(-2587.93 -2889.69 -397.394)
(-2046.78 -3295.16 -397.401)
(-1443.51 -3600.55 -397.438)
(-796.322 -3796.46 -397.44)
(-124.984 -3877.06 -397.402)
(550.137 -3839.84 -397.381)
(1208.58 -3686.03 -397.382)
(1830.32 -3420.17 -397.423)
(2396.35 -3050.35 -397.406)
(2889.69 -2587.93 -397.395)
(3295.16 -2046.78 -397.401)
(3600.55 -1443.51 -397.439)
(3796.46 -796.322 -397.441)
(3877.06 -124.984 -397.402)
(3839.84 550.137 -397.382)
(3686.03 1208.58 -397.382)
(3420.17 1830.32 -397.423)
(1981.51 1327.5 396.297)
(1720.94 1651.46 396.282)
(1408.01 1925.2 396.3)
(1052.35 2140.49 396.277)
(664.662 2290.7 396.296)
(256.778 2371.3 396.304)
(-158.895 2379.86 396.271)
(-569.731 2316.06 396.295)
(-963.267 2181.94 396.289)
(-1327.5 1981.51 396.298)
(-1651.46 1720.94 396.282)
(-1925.2 1408.01 396.3)
(-2140.49 1052.35 396.278)
(-2290.7 664.662 396.296)
(-2371.3 256.778 396.304)
(-2379.86 -158.895 396.271)
(-2316.06 -569.731 396.295)
(-2181.94 -963.267 396.29)
(-1981.51 -1327.5 396.298)
(-1720.94 -1651.46 396.282)
(-1408.01 -1925.2 396.3)
(-1052.35 -2140.49 396.277)
(-664.662 -2290.7 396.296)
(-256.778 -2371.3 396.304)
(158.896 -2379.86 396.27)
(569.732 -2316.06 396.295)
(963.267 -2181.94 396.289)
(1327.5 -1981.51 396.297)
(1651.46 -1720.94 396.281)
(1925.2 -1408.01 396.3)
(2140.49 -1052.35 396.277)
(2290.7 -664.662 396.295)
(2371.3 -256.778 396.303)
(2379.86 158.895 396.27)
(2316.06 569.732 396.294)
(2181.95 963.267 396.288)
(1374.45 316.959 1208.97)
(1298.58 550.858 1208.89)
(1183.2 768.007 1208.88)
(1031.89 961.836 1208.86)
(849.185 1126.38 1208.88)
(640.693 1256.74 1208.87)
(412.729 1348.81 1208.9)
(172.244 1399.96 1208.96)
(-73.4555 1408.57 1208.97)
(-316.957 1374.45 1208.97)
(-550.858 1298.58 1208.89)
(-768.007 1183.2 1208.88)
(-961.837 1031.89 1208.86)
(-1126.38 849.185 1208.88)
(-1256.74 640.693 1208.87)
(-1348.81 412.729 1208.9)
(-1399.96 172.244 1208.96)
(-1408.57 -73.4556 1208.97)
(-1374.45 -316.957 1208.97)
(-1298.58 -550.857 1208.89)
(-1183.2 -768.007 1208.88)
(-1031.89 -961.837 1208.86)
(-849.185 -1126.38 1208.88)
(-640.692 -1256.74 1208.87)
(-412.729 -1348.81 1208.9)
(-172.244 -1399.96 1208.96)
(73.4558 -1408.57 1208.97)
(316.957 -1374.45 1208.97)
(550.857 -1298.58 1208.89)
(768.007 -1183.2 1208.88)
(961.837 -1031.89 1208.86)
(1126.38 -849.185 1208.88)
(1256.74 -640.692 1208.87)
(1348.81 -412.729 1208.9)
(1399.96 -172.243 1208.96)
(1408.58 73.4565 1208.97)
(1872.89 -30.6016 849.387)
(1849.84 295.178 849.233)
(1770.5 611.943 849.214)
(1637.35 910.133 849.18)
(1454.44 1180.61 849.209)
(1227.33 1415.21 849.232)
(962.939 1606.74 849.274)
(669.324 1749.46 849.395)
(355.381 1839.07 849.431)
(30.6034 1872.89 849.39)
(-295.176 1849.84 849.235)
(-611.943 1770.49 849.214)
(-910.134 1637.35 849.179)
(-1180.61 1454.44 849.207)
(-1415.21 1227.33 849.231)
(-1606.74 962.939 849.274)
(-1749.46 669.324 849.395)
(-1839.07 355.381 849.432)
(-1872.89 30.6036 849.391)
(-1849.84 -295.176 849.236)
(-1770.49 -611.943 849.215)
(-1637.35 -910.134 849.18)
(-1454.44 -1180.61 849.207)
(-1227.33 -1415.21 849.23)
(-962.939 -1606.74 849.273)
(-669.324 -1749.46 849.395)
(-355.382 -1839.07 849.433)
(-30.6043 -1872.89 849.391)
(295.175 -1849.83 849.236)
(611.941 -1770.49 849.216)
(910.132 -1637.35 849.181)
(1180.61 -1454.44 849.208)
(1415.21 -1227.33 849.23)
(1606.74 -962.939 849.271)
(1749.46 -669.323 849.391)
(1839.07 -355.38 849.428)
(3269.01 520.822 -3098.51)
(3128.99 1080.69 -3098.62)
(2893.82 1607.62 -3098.75)
(2570.69 2085.74 -3098.72)
(2169.46 2500.39 -3098.58)
(1702.32 2839.15 -3098.7)
(1183.42 3091.58 -3098.61)
(628.656 3249.96 -3098.45)
(54.7138 3309.81 -3098.38)
(-520.82 3269.01 -3098.5)
(-1080.69 3128.99 -3098.62)
(-1607.62 2893.82 -3098.76)
(-2085.74 2570.69 -3098.72)
(-2500.4 2169.46 -3098.59)
(-2839.16 1702.32 -3098.71)
(-3091.59 1183.42 -3098.61)
(-3249.96 628.655 -3098.45)
(-3309.81 54.7132 -3098.38)
(-3269.01 -520.821 -3098.5)
(-3128.99 -1080.69 -3098.62)
(-2893.82 -1607.62 -3098.75)
(-2570.69 -2085.74 -3098.72)
(-2169.46 -2500.4 -3098.59)
(-1702.32 -2839.16 -3098.7)
(-1183.43 -3091.59 -3098.6)
(-628.656 -3249.96 -3098.45)
(-54.7143 -3309.81 -3098.38)
(520.819 -3269.01 -3098.5)
(1080.69 -3128.99 -3098.61)
(1607.62 -2893.81 -3098.75)
(2085.74 -2570.69 -3098.72)
(2500.39 -2169.46 -3098.58)
(2839.16 -1702.32 -3098.7)
(3091.59 -1183.42 -3098.61)
(3249.97 -628.654 -3098.45)
(3309.81 -54.712 -3098.39)
(7589.9 3338.31 -30693.7)
(6894.8 4605.67 -30693.1)
(5990.6 5733.11 -30694.5)
(4903.52 6685.9 -30693.5)
(3668.61 7436.51 -30694.1)
(2321.21 7959.78 -30693.5)
(903.71 8242.51 -30694.4)
(-541.058 8273.96 -30693.3)
(-1969.81 8054.28 -30693.8)
(-3338.3 7589.9 -30693.7)
(-4605.67 6894.8 -30693.1)
(-5733.11 5990.6 -30694.5)
(-6685.9 4903.52 -30693.5)
(-7436.51 3668.61 -30694.1)
(-7959.78 2321.21 -30693.5)
(-8242.51 903.709 -30694.4)
(-8273.96 -541.061 -30693.3)
(-8054.28 -1969.81 -30693.8)
(-7589.9 -3338.3 -30693.7)
(-6894.8 -4605.67 -30693.1)
(-5990.6 -5733.12 -30694.5)
(-4903.52 -6685.9 -30693.5)
(-3668.61 -7436.52 -30694.1)
(-2321.2 -7959.78 -30693.5)
(-903.706 -8242.51 -30694.4)
(541.063 -8273.96 -30693.3)
(1969.82 -8054.28 -30693.8)
(3338.31 -7589.9 -30693.7)
(4605.67 -6894.8 -30693.1)
(5733.11 -5990.6 -30694.5)
(6685.9 -4903.52 -30693.5)
(7436.51 -3668.6 -30694.1)
(7959.78 -2321.2 -30693.5)
(8242.51 -903.706 -30694.4)
(8273.96 541.063 -30693.3)
(8054.28 1969.82 -30693.8)
)
;
    }
    outside
    {
        type            calculated;
        value           nonuniform List<vector> 
540
(
(-6798.36 -864.135 1324.6)
(-6544.99 -2031.54 1324.63)
(-6092.79 -3137.19 1324.59)
(-5455.52 -4147.56 1324.62)
(-4652.41 -5031.9 1324.65)
(-3707.93 -5763.32 1324.63)
(-2650.83 -6319.64 1324.58)
(-1513.18 -6683.93 1324.61)
(-329.515 -6845.15 1324.6)
(864.135 -6798.36 1324.6)
(2031.54 -6544.99 1324.63)
(3137.19 -6092.79 1324.59)
(4147.56 -5455.52 1324.62)
(5031.9 -4652.41 1324.65)
(5763.32 -3707.93 1324.63)
(6319.64 -2650.83 1324.58)
(6683.93 -1513.18 1324.61)
(6845.14 -329.515 1324.6)
(6798.36 864.135 1324.6)
(6544.99 2031.54 1324.63)
(6092.79 3137.19 1324.59)
(5455.52 4147.56 1324.62)
(4652.41 5031.9 1324.65)
(3707.93 5763.32 1324.63)
(2650.83 6319.64 1324.58)
(1513.18 6683.93 1324.61)
(329.515 6845.15 1324.6)
(-864.135 6798.36 1324.6)
(-2031.54 6544.99 1324.63)
(-3137.19 6092.79 1324.59)
(-4147.56 5455.52 1324.62)
(-5031.9 4652.41 1324.65)
(-5763.32 3707.93 1324.63)
(-6319.64 2650.83 1324.58)
(-6683.93 1513.18 1324.61)
(-6845.15 329.515 1324.6)
(3095.4 291.828 1991.45)
(2997.65 824.9 1991.54)
(2808.91 1332.93 1991.55)
(2534.79 1800.44 1991.5)
(2183.65 2213.28 1991.43)
(1766.15 2558.85 1991.52)
(1294.94 2826.54 1991.53)
(784.457 3008.51 1991.53)
(250.1 3099.06 1991.48)
(-291.828 3095.4 1991.45)
(-824.9 2997.65 1991.54)
(-1332.93 2808.91 1991.55)
(-1800.44 2534.79 1991.5)
(-2213.28 2183.65 1991.43)
(-2558.85 1766.15 1991.52)
(-2826.54 1294.94 1991.53)
(-3008.51 784.457 1991.52)
(-3099.06 250.1 1991.47)
(-3095.4 -291.828 1991.45)
(-2997.65 -824.9 1991.54)
(-2808.91 -1332.93 1991.55)
(-2534.79 -1800.44 1991.5)
(-2183.65 -2213.28 1991.43)
(-1766.15 -2558.85 1991.52)
(-1294.94 -2826.54 1991.53)
(-784.457 -3008.51 1991.53)
(-250.1 -3099.06 1991.48)
(291.828 -3095.4 1991.45)
(824.9 -2997.65 1991.54)
(1332.93 -2808.91 1991.55)
(1800.44 -2534.79 1991.5)
(2213.28 -2183.65 1991.43)
(2558.85 -1766.15 1991.52)
(2826.54 -1294.94 1991.53)
(3008.51 -784.457 1991.53)
(3099.06 -250.1 1991.48)
(1971.11 41.1206 1053.19)
(1933.99 382.77 1053.1)
(1838.16 712.806 1053.12)
(1686.43 1021.15 1053.08)
(1483.53 1298.52 1053.05)
(1235.51 1536.41 1053.08)
(949.922 1727.53 1053.1)
(635.515 1866.32 1053.1)
(301.779 1948.24 1053.2)
(-41.1206 1971.11 1053.19)
(-382.77 1933.99 1053.1)
(-712.806 1838.16 1053.12)
(-1021.15 1686.43 1053.08)
(-1298.52 1483.53 1053.05)
(-1536.41 1235.51 1053.08)
(-1727.53 949.922 1053.1)
(-1866.32 635.515 1053.1)
(-1948.24 301.779 1053.2)
(-1971.11 -41.1206 1053.19)
(-1933.99 -382.77 1053.1)
(-1838.16 -712.806 1053.12)
(-1686.43 -1021.15 1053.08)
(-1483.53 -1298.52 1053.05)
(-1235.51 -1536.41 1053.08)
(-949.922 -1727.53 1053.1)
(-635.515 -1866.32 1053.1)
(-301.779 -1948.24 1053.2)
(41.1206 -1971.11 1053.19)
(382.77 -1933.99 1053.1)
(712.806 -1838.16 1053.12)
(1021.15 -1686.43 1053.08)
(1298.52 -1483.53 1053.05)
(1536.41 -1235.51 1053.08)
(1727.53 -949.922 1053.1)
(1866.32 -635.515 1053.1)
(1948.24 -301.779 1053.2)
(1915.89 -68.1047 605.301)
(1898.59 265.622 605.297)
(1823.61 591.261 605.318)
(1693.25 898.961 605.336)
(1511.44 1179.35 605.421)
(1283.68 1423.87 605.334)
(1016.94 1625.2 605.309)
(719.265 1777 605.284)
(399.752 1874.97 605.317)
(68.1047 1915.89 605.301)
(-265.622 1898.59 605.297)
(-591.261 1823.61 605.318)
(-898.961 1693.25 605.336)
(-1179.35 1511.44 605.421)
(-1423.87 1283.68 605.334)
(-1625.2 1016.94 605.308)
(-1777 719.265 605.284)
(-1874.97 399.752 605.317)
(-1915.89 68.1047 605.3)
(-1898.59 -265.622 605.296)
(-1823.61 -591.261 605.318)
(-1693.25 -898.961 605.336)
(-1511.44 -1179.35 605.421)
(-1283.68 -1423.87 605.334)
(-1016.94 -1625.2 605.308)
(-719.265 -1777 605.284)
(-399.752 -1874.97 605.317)
(-68.1047 -1915.89 605.301)
(265.622 -1898.59 605.297)
(591.261 -1823.61 605.318)
(898.961 -1693.25 605.336)
(1179.35 -1511.44 605.421)
(1423.87 -1283.68 605.334)
(1625.2 -1016.94 605.309)
(1777 -719.265 605.284)
(1874.97 -399.752 605.318)
(1605.79 -235.709 223.236)
(1622.38 46.755 223.254)
(1589.54 327.704 223.285)
(1508.52 598.782 223.236)
(1381.61 851.613 223.271)
(1212.74 1078.59 223.245)
(1007.04 1272.88 223.283)
(770.705 1428.3 223.245)
(510.963 1540.47 223.252)
(235.709 1605.79 223.235)
(-46.7549 1622.38 223.254)
(-327.704 1589.54 223.285)
(-598.782 1508.52 223.236)
(-851.613 1381.61 223.271)
(-1078.59 1212.74 223.245)
(-1272.88 1007.04 223.283)
(-1428.3 770.705 223.245)
(-1540.47 510.963 223.252)
(-1605.79 235.709 223.235)
(-1622.38 -46.755 223.254)
(-1589.54 -327.704 223.285)
(-1508.52 -598.782 223.236)
(-1381.61 -851.613 223.271)
(-1212.74 -1078.59 223.245)
(-1007.04 -1272.88 223.283)
(-770.705 -1428.3 223.245)
(-510.963 -1540.47 223.252)
(-235.709 -1605.79 223.235)
(46.755 -1622.38 223.254)
(327.705 -1589.54 223.285)
(598.782 -1508.52 223.236)
(851.613 -1381.61 223.271)
(1078.59 -1212.74 223.245)
(1272.88 -1007.04 223.283)
(1428.3 -770.705 223.245)
(1540.47 -510.963 223.252)
(1240.52 -407.456 -94.7627)
(1292.47 -185.828 -94.7051)
(1305.06 41.394 -94.7081)
(1278.07 267.418 -94.7736)
(1212.19 485.257 -94.7989)
(1109.51 688.381 -94.7582)
(973.135 870.614 -94.7135)
(807.169 1026.31 -94.6934)
(616.673 1150.94 -94.7557)
(407.456 1240.52 -94.7629)
(185.829 1292.47 -94.7054)
(-41.394 1305.06 -94.7084)
(-267.418 1278.07 -94.7739)
(-485.257 1212.19 -94.7992)
(-688.381 1109.51 -94.7585)
(-870.614 973.135 -94.7138)
(-1026.31 807.169 -94.6937)
(-1150.94 616.673 -94.756)
(-1240.52 407.456 -94.7631)
(-1292.47 185.828 -94.7055)
(-1305.06 -41.394 -94.7085)
(-1278.07 -267.418 -94.7739)
(-1212.19 -485.257 -94.7992)
(-1109.51 -688.382 -94.7584)
(-973.135 -870.614 -94.7136)
(-807.169 -1026.31 -94.6934)
(-616.673 -1150.94 -94.7556)
(-407.456 -1240.52 -94.7628)
(-185.828 -1292.47 -94.7051)
(41.3941 -1305.06 -94.7081)
(267.418 -1278.07 -94.7735)
(485.257 -1212.19 -94.7988)
(688.382 -1109.51 -94.7581)
(870.614 -973.135 -94.7134)
(1026.31 -807.169 -94.6932)
(1150.94 -616.673 -94.7555)
(757.517 -602.521 -326.97)
(850.662 -461.805 -327.001)
(917.851 -307.143 -326.97)
(957.322 -142.991 -327.009)
(967.57 25.3537 -327.038)
(948.453 192.919 -326.975)
(900.562 354.794 -326.995)
(825.271 505.688 -326.974)
(724.911 641.375 -326.966)
(602.521 757.517 -326.97)
(461.805 850.662 -327.002)
(307.143 917.851 -326.97)
(142.991 957.322 -327.009)
(-25.3536 967.57 -327.038)
(-192.919 948.453 -326.976)
(-354.794 900.562 -326.995)
(-505.688 825.271 -326.975)
(-641.375 724.911 -326.966)
(-757.517 602.521 -326.97)
(-850.662 461.805 -327.002)
(-917.851 307.143 -326.97)
(-957.322 142.991 -327.009)
(-967.57 -25.3537 -327.038)
(-948.453 -192.919 -326.975)
(-900.562 -354.794 -326.995)
(-825.271 -505.688 -326.974)
(-724.911 -641.376 -326.966)
(-602.521 -757.517 -326.97)
(-461.805 -850.663 -327.001)
(-307.143 -917.851 -326.97)
(-142.991 -957.322 -327.009)
(25.3539 -967.571 -327.038)
(192.92 -948.454 -326.975)
(354.794 -900.562 -326.995)
(505.688 -825.271 -326.974)
(641.376 -724.911 -326.966)
(135.837 -831.438 -444.358)
(278.144 -795.235 -444.273)
(411.987 -734.87 -444.303)
(533.391 -652.104 -444.263)
(638.498 -549.635 -444.234)
(724.241 -430.408 -444.245)
(787.97 -298.116 -444.304)
(827.771 -156.77 -444.258)
(842.413 -10.6773 -444.337)
(831.438 135.837 -444.358)
(795.235 278.144 -444.273)
(734.87 411.987 -444.304)
(652.104 533.391 -444.264)
(549.635 638.498 -444.234)
(430.409 724.241 -444.245)
(298.116 787.97 -444.305)
(156.77 827.771 -444.259)
(10.6774 842.413 -444.337)
(-135.837 831.438 -444.359)
(-278.144 795.235 -444.273)
(-411.987 734.87 -444.304)
(-533.391 652.104 -444.264)
(-638.498 549.635 -444.234)
(-724.241 430.408 -444.245)
(-787.97 298.116 -444.305)
(-827.771 156.77 -444.258)
(-842.413 10.677 -444.336)
(-831.438 -135.837 -444.358)
(-795.235 -278.144 -444.273)
(-734.87 -411.987 -444.303)
(-652.104 -533.391 -444.263)
(-549.635 -638.498 -444.234)
(-430.408 -724.241 -444.245)
(-298.115 -787.97 -444.304)
(-156.769 -827.771 -444.258)
(-10.6769 -842.413 -444.337)
(-629.436 -1093.01 -401.219)
(-430.059 -1185.69 -401.225)
(-217.629 -1242.35 -401.279)
(1.40229 -1261.27 -401.274)
(220.388 -1241.89 -401.262)
(432.689 -1184.76 -401.259)
(631.848 -1091.63 -401.259)
(811.816 -965.288 -401.22)
(967.092 -809.629 -401.247)
(1093.01 -629.437 -401.218)
(1185.69 -430.059 -401.225)
(1242.35 -217.629 -401.279)
(1261.27 1.40205 -401.275)
(1241.89 220.388 -401.262)
(1184.76 432.689 -401.26)
(1091.63 631.848 -401.26)
(965.288 811.816 -401.221)
(809.629 967.092 -401.247)
(629.437 1093.01 -401.219)
(430.059 1185.69 -401.225)
(217.629 1242.35 -401.279)
(-1.40214 1261.27 -401.275)
(-220.388 1241.89 -401.262)
(-432.689 1184.76 -401.26)
(-631.848 1091.63 -401.259)
(-811.816 965.288 -401.22)
(-967.092 809.628 -401.247)
(-1093.01 629.437 -401.218)
(-1185.69 430.059 -401.225)
(-1242.35 217.629 -401.278)
(-1261.27 -1.4024 -401.274)
(-1241.89 -220.388 -401.262)
(-1184.76 -432.689 -401.259)
(-1091.63 -631.848 -401.259)
(-965.287 -811.816 -401.221)
(-809.628 -967.092 -401.247)
(-1491.71 -1349.04 -124.949)
(-1234.83 -1587.6 -124.983)
(-940.352 -1777.88 -124.978)
(-617.297 -1914.11 -124.989)
(-275.558 -1992.26 -124.977)
(74.5777 -2009.86 -124.958)
(422.449 -1966.4 -124.969)
(757.483 -1863.12 -125.019)
(1069.51 -1703.28 -124.958)
(1349.04 -1491.71 -124.948)
(1587.6 -1234.83 -124.983)
(1777.88 -940.352 -124.979)
(1914.11 -617.297 -124.989)
(1992.26 -275.558 -124.978)
(2009.86 74.5775 -124.959)
(1966.4 422.449 -124.97)
(1863.12 757.483 -125.02)
(1703.28 1069.51 -124.959)
(1491.71 1349.04 -124.949)
(1234.83 1587.6 -124.983)
(940.352 1777.88 -124.979)
(617.297 1914.11 -124.989)
(275.558 1992.26 -124.978)
(-74.5777 2009.86 -124.958)
(-422.449 1966.4 -124.97)
(-757.483 1863.12 -125.019)
(-1069.51 1703.28 -124.958)
(-1349.04 1491.71 -124.948)
(-1587.6 1234.83 -124.982)
(-1777.88 940.352 -124.978)
(-1914.11 617.297 -124.989)
(-1992.26 275.558 -124.977)
(-2009.86 -74.5778 -124.958)
(-1966.4 -422.449 -124.97)
(-1863.12 -757.483 -125.02)
(-1703.28 -1069.51 -124.959)
(-2281.4 -1482.47 486.61)
(-1989.36 -1856.12 486.544)
(-1636.77 -2173.33 486.563)
(-1234.51 -2424.54 486.561)
(-794.746 -2602.08 486.551)
(-330.828 -2700.55 486.57)
(143.146 -2716.96 486.543)
(612.786 -2650.88 486.57)
(1063.8 -2504.16 486.635)
(1482.47 -2281.4 486.611)
(1856.13 -1989.36 486.545)
(2173.33 -1636.77 486.563)
(2424.54 -1234.51 486.561)
(2602.08 -794.746 486.551)
(2700.55 -330.828 486.569)
(2716.96 143.146 486.542)
(2650.88 612.785 486.57)
(2504.16 1063.8 486.635)
(2281.4 1482.47 486.611)
(1989.36 1856.13 486.544)
(1636.77 2173.33 486.563)
(1234.51 2424.54 486.561)
(794.746 2602.08 486.551)
(330.828 2700.55 486.569)
(-143.146 2716.96 486.542)
(-612.786 2650.88 486.57)
(-1063.8 2504.16 486.636)
(-1482.47 2281.4 486.611)
(-1856.13 1989.36 486.545)
(-2173.33 1636.76 486.563)
(-2424.54 1234.51 486.562)
(-2602.08 794.746 486.551)
(-2700.55 330.828 486.57)
(-2716.96 -143.146 486.542)
(-2650.88 -612.785 486.569)
(-2504.16 -1063.8 486.635)
(-2550.12 -1251.11 1480.84)
(-2294.07 -1674.88 1480.79)
(-1968.32 -2047.75 1480.81)
(-1582.9 -2358.5 1480.79)
(-1149.29 -2597.49 1480.77)
(-680.78 -2757.61 1480.79)
(-191.57 -2833.88 1480.83)
(303.448 -2824.19 1480.81)
(789.295 -2728.65 1480.93)
(1251.11 -2550.12 1480.85)