/*--------------------------------*- C++ -*----------------------------------*\
| =========                 |                                                 |
| \\      /  F ield         | OpenFOAM: The Open Source CFD Toolbox           |
|  \\    /   O peration     | Version:  2412                                  |
|   \\  /    A nd           | Website:  www.openfoam.com                      |
|    \\/     M anipulation  |                                                 |
\*---------------------------------------------------------------------------*/
FoamFile
{
    version     2.0;
    format      ascii;
    arch        "LSB;label=32;scalar=64";
    class       volScalarField;
    location    "0.0350058";
    object      Jsi;
}
// * * * * * * * * * * * * * * * * * * * * * * * * * * * * * * * * * * * * * //

dimensions      [0 0 0 0 0 0 0];

internalField   nonuniform List<scalar> 
8790
(
0
0
0
0
0
0
0
0
0
0
0
0
0
0
0
0
0
0
0
0
0
0
0
0
0
0
0
0
0
0
0
0
0
0
0
0
0
0
0
0
0
0
0
0
0
0
0
0
0
0
0
0
0
0
0
0
0
0
0
0
0
0
0
0
0
0
0
0
0
0
0
0
0
0
0
0
0
0
0
0
0
0
0
0
0
0
0
0
0
0
0
0
0
0
0
0
0
0
0
0
0
0
0
0
0
0
0
0
0
0
0
0
0
0
0
0
0
0
0
0
0
0
0
0
0
0
0
0
0
0
0
0
0
0
0
0
0
0
0
0
0
0
0
0
0
0
0
0
0
0
0
0
0
0
0
0
0
0
0
0
0
0
0
0
0
0
0
0
0
0
0
0
0
0
0
0
0
0
0
0
0
0
0
0
0
0
0
0
0
0
0
0
0
0
0
0
0
0
0
0
0
0
0
0
0
0
0
0
0
0
0
0
0
0
0
0
0
0
0
0
0
0
0
0
0
0
0
0
0
0
0
0
0
0
0
0
0
0
0
0
0
0
0
0
0
0
0
0
0
0
0
0
0
0
0
0
0
0
0
0
0
0
0
0
0
0
0
0
0
0
0
0
0
0
0
0
0
0
0
0
0
0
0
0
0
0
0
0
0
0
0
0
0
0
0
0
0
0
0
0
0
0
0
0
0
0
0
0
0
0
0
0
0
0
0
0
0
0
0
0
0
0
0
0
0
0
0
0
0
0
0
0
0
0
0
0
0
0
0
0
0
0
0
0
0
0
0
0
0
0
0
0
0
0
0
0
0
0
0
0
0
0
0
0
0
0
0
0
0
0
0
0
0
0
0
0
0
0
0
0
0
0
0
0
0
0
0
0
0
0
0
0
0
0
0
0
0
0
0
0
0
0
0
0
0
0
0
0
0
0
0
0
0
0
0
0
0
0
0
0
0
0
0
0
0
0
0
0
0
0
0
0
0
0
0
0
0
0
0
0
0
0
0
0
0
0
0
0
0
0
0
0
0
0
0
0
0
0
0
0
0
0
0
0
0
0
0
0
0
0
0
0
0
0
0
0
0
0
0
0
0
0
0
0
0
0
0
0
0
0
0
0
0
0
0
0
0
0
0
0
0
0
0
0
0
0
0
0
0
0
0
0
0
0
0
0
0
0
0
0
0
0
0
0
0
0
0
0
0
0
0
0
0
0
0
0
0
0
0
0
0
0
0
0
0
0
0
0
0
0
0
0
0
0
0
0
0
0
0
0
0
0
0
0
0
0
0
0
0
0
0
0
0
0
0
0
0
0
0
0
0
0
0
0
0
0
0
0
0
0
0
0
0
0
0
0
0
0
0
0
0
0
0
0
0
0
0
0
0
0
0
0
0
0
0
0
0
0
0
0
0
0
0
0
0
0
0
0
0
0
0
0
0
0
0
0
0
0
0
0
0
0
0
0
0
0
0
0
0
0
0
0
0
0
0
0
0
0
0
0
0
0
0
0
0
0
0
0
0
0
0
0
0
0
0
0
0
0
0
0
0
0
0
0
0
0
0
0
0
0
0
0
0
0
0
0
0
0
0
0
0
0
0
0
0
0
0
0
0
0
0
0
0
0
0
0
0
0
0
0
0
0
0
0
0
0
0
0
0
0
0
0
0
0
0
0
0
0
0
0
0
0
0
0
0
0
0
0
0
0
0
0
0
0
0
0
0
0
0
0
0
0
0
0
0
0
0
0
0
0
0
0
0
0
0
0
0
0
0
0
0
0
0
0
0
0
0
0
0
0
0
0
0
0
0
0
0
0
0
0
0
0
0
0
0
0
0
0
0
0
0
0
0
0
0
0
0
0
0
0
0
0
0
0
0
0
0
0
0
0
0
0
0
0
0
0
0
0
0
0
0
0
0
0
0
0
0
0
0
0
0
0
0
0
0
0
0
0
0
0
0
0
0
0
0
0
0
0
0
0
0
0
0
0
0
0
0
0
0
0
0
0
0
0
0
0
0
0
0
0
0
0
0
0
0
0
0
0
0
0
0
0
0
0
0
0
0
0
0
0
0
0
0
0
0
0
0
0
0
0
0
0
0
0
0
0
0
0
0
0
0
0
0
0
0
0
0
0
0
0
0
0
0
0
0
0
0
0
0
0
0
0
0
0
0
0
0
0
0
0
0
0
0
0
0
0
0
0
0
0
0
0
0
0
0
0
0
0
0
0
0
0
0
0
0
0
0
0
0
0
0
0
0
0
0
0
0
0
0
0
0
0
0
0
0
0
0
0
0
0
0
0
0
0
0
0
0
0
0
0
0
0
0
0
0
0
0
0
0
0
0
0
0
0
0
0
0
0
0
0
0
0
0
0
0
0
0
0
0
0
0
0
0
0
0
0
0
0
0
0
0
0
0
0
0
0
0
0
0
0
0
0
0
0
0
0
0
0
0
0
0
0
0
0
0
0
0
0
0
0
0
0
0
0
0
0
0
0
0
0
0
0
0
0
0
0
0
0
0
0
0
0
0
0
0
0
0
0
0
0
0
0
0
0
0
0
0
0
0
0
0
0
0
0
0
0
0
0
0
0
0
0
0
0
0
0
0
0
0
0
0
0
0
0
0
0
0
0
0
0
0
0
0
0
0
0
0
0
0
0
0
0
0
0
0
0
0
0
0
0
0
0
0
0
0
0
0
0
0
0
0
0
0
0
0
0
0
0
0
0
0
0
0
0
0
0
0
0
0
0
0
0
0
0
0
0
0
0
0
0
0
0
0
0
0
0
0
0
0
0
0
0
0
0
0
0
0
0
0
0
0
0
0
0
0
0
0
0
0
0
0
0
0
0
0
0
0
0
0
0
0
0
0
0
0
0
0
0
0
0
0
0
0
0
0
0
0
0
0
0
0
0
0
0
0
0
0
0
0
0
0
0
0
0
0
0
0
0
0
0
0
0
0
0
0
0
0
0
0
0
0
0
0
0
0
0
0
0
0
0
0
0
0
0
0
0
0
0
0
0
0
0
0
0
0
0
0
0
0
0
0
0
0
0
0
0
0
0
0
0
0
0
0
0
0
0
0
0
0
0
0
0
0
0
0
0
0
0
0
0
0
0
0
0
0
0
0
0
0
0
0
0
0
0
0
0
0
0
0
0
0
0
0
0
0
0
0
0
0
0
0
0
0
0
0
0
0
0
0
0
0
0
0
0
0
0
0
0
0
0
0
0
0
0
0
0
0
0
0
0
0
0
0
0
0
0
0
0
0
0
0
0
0
0
0
0
0
0
0
0
0
0
0
0
0
0
0
0
0
0
0
0
0
0
0
0
0
0
0
0
0
0
0
0
0
0
0
0
0
0
0
0
0
0
0
0
0
0
0
0
0
0
0
0
0
0
0
0
0
0
0
0
0
0
0
0
0
0
0
0
0
0
0
0
0
0
0
0
0
0
0
0
0
0
0
0
0
0
0
0
0
0
0
0
0
0
0
0
0
0
0
0
0
0
0
0
0
0
0
0
0
0
0
0
0
0
0
0
0
0
0
0
0
0
0
0
0
0
0
0
0
0
0
0
0
0
0
0
0
0
0
0
0
0
0
0
0
0
0
0
0
0
0
0
0
0
0
0
0
0
0
0
0
0
0
0
0
0
0
0
0
0
0
0
0
0
0
0
0
0
0
0
0
0
0
0
0
0
0
0
0
0
0
0
0
0
0
0
0
0
0
0
0
0
0
0
0
0
0
0
0
0
0
0
0
0
0
0
0
0
0
0
0
0
0
0
0
0
0
0
0
0
0
0
0
0
0
0
0
0
0
0
0
0
0
0
0
0
0
0
0
0
0
0
0
0
0
0
0
0
0
0
0
0
0
0
0
0
0
0
0
0
0
0
0
0
0
0
0
0
0
0
0
0
0
0
0
0
0
0
0
0
0
0
0
0
0
0
0
0
0
0
0
0
0
0
0
0
0
0
0
0
0
0
0
0
0
0
0
0
0
0
0
0
0
0
0
0
0
0
0
0
0
0
0
0
0
0
0
0
0
0
0
0
0
0
0
0
0
0
0
0
0
0
0
0
0
0
0
0
0
0
0
0
0
0
0
0
0
0
0
0
0
0
0
0
0
0
0
0
0
0
0
0
0
0
0
0
0
0
0
0
0
0
0
0
0
0
0
0
0
0
0
0
0
0
0
0
0
0
0
0
0
0
0
0
0
0
0
0
0
0
0
0
0
0
0
0
0
0
0
0
0
0
0
0
0
0
0
0
0
0
0
0
0
0
0
0
0
0
0
0
0
0
0
0
0
0
0
0
0
0
0
0
0
0
0
0
0
0
0
0
0
0
0
0
0
0
0
0
0
0
0
0
0
0
0
0
0
0
0
0
0
0
0
0
0
0
0
0
0
0
0
0
0
0
0
0
0
0
0
0
0
0
0
0
0
0
0
0
0
0
0
0
0
0
0
0
0
0
0
0
0
0
0
0
0
0
0
0
0
0
0
0
0
0
0
0
0
0
0
0
0
0
0
0
0
0
0
0
0
0
0
0
0
0
0
0
0
0
0
0
0
0
0
0
0
0
0
0
0
0
0
0
0
0
0
0
0
0
0
0
0
0
0
0
0
0
0
0
0
0
0
0
0
0
0
0
0
0
0
0
0
0
0
0
0
0
0
0
0
0
0
0
0
0
0
0
0
0
0
0
0
0
0
0
0
0
0
0
0
0
0
0
0
0
0
0
0
0
0
0
0
0
0
0
0
0
0
0
0
0
0
0
0
0
0
0
0
0
0
0
0
0
0
0
0
0
0
0
0
0
0
0
0
0
0
0
0
0
0
0
0
0
0
0
0
0
0
0
0
0
0
0
0
0
0
0
0
0
0
0
0
0
0
0
0
0
0
0
0
0
0
0
0
0
0
0
0
0
0
0
0
0
0
0
0
0
0
0
0
0
0
0
0
0
0
0
0
0
0
0
0
0
0
0
0
0
0
0
0
0
0
0
0
0
0
0
0
0
0
0
0
0
0
0
0
0
0
0
0
0
0
0
0
0
0
0
0
0
0
0
0
0
0
0
0
0
0
0
0
0
0
0
0
0
0
0
0
0
0
0
0
0
0
0
0
0
0
0
0
0
0
0
0
0
0
0
0
0
0
0
0
0
0
0
0
0
0
0
0
0
0
0
0
0
0
0
0
0
0
0
0
0
0
0
0
0
0
0
0
0
0
0
0
0
0
0
0
0
0
0
0
0
0
0
0
0
0
0
0
0
0
0
0
0
0
0
0
0
0
0
0
0
0
0
0
0
0
0
0
0
0
0
0
0
0
0
0
0
0
0
0
0
0
0
0
0
0
0
0
0
0
0
0
0
0
0
0
0
0
0
0
0
0
0
0
0
0
0
0
0
0
0
0
0
0
0
0
0
0
0
0
0
0
0
0
0
0
0
0
0
0
0
0
0
0
0
0
0
0
0
0
0
0
0
0
0
0
0
0
0
0
0
0
0
0
0
0
0
0
0
0
0
0
0
0
0
0
0
0
0
0
0
0
0
0
0
0
0
0
0
0
0
0
0
0
0
0
0
0
0
0
0
0
0
0
0
0
0
0
0
0
0
0
0
0
0
0
0
0
0
0
0
0
0
0
0
0
0
0
0
0
0
0
0
0
0
0
0
0
0
0
0
0
0
0
0
0
0
0
0
0
0
0
0
0
0
0
0
0
0
0
0
0
0
0
0
0
0
0
0
0
0
0
0
0
0
0
0
0
0
0
0
0
0
0
0
0
0
0
0
0
0
0
0
0
0
0
0
0
0
0
0
0
0
0
0
0
0
0
0
0
0
0
0
0
0
0
0
0
0
0
0
0
0
0
0
0
0
0
0
0
0
0
0
0
0
0
0
0
0
0
0
0
0
0
0
0
0
0
0
0
0
0
0
0
0
0
0
0
0
0
0
0
0
0
0
0
0
0
0
0
0
0
0
0
0
0
0
0
0
0
0
0
0
0
0
0
0
0
0
0
0
0
0
0
0
0
0
0
0
0
0
0
0
0
0
0
0
0
0
0
0
0
0
0
0
0
0
0
0
0
0
0
0
0
0
0
0
0
0
0
0
0
0
0
0
0
0
0
0
0
0
0
0
0
0
0
0
0
0
0
0
0
0
0
0
0
0
0
0
0
0
0
0
0
0
0
0
0
0
0
0
0
0
0
0
0
0
0
0
0
0
0
0
0
0
0
0
0
0
0
0
0
0
0
0
0
0
0
0
0
0
0
0
0
0
0
0
0
0
0
0
0
0
0
0
0
0
0
0
0
0
0
0
0
0
0
0
0
0
0
0
0
0
0
0
0
0
0
0
0
0
0
0
0
0
0
0
0
0
0
0
0
0
0
0
0
0
0
0
0
0
0
0
0
0
0
0
0
0
0
0
0
0
0
0
0
0
0
0
0
0
0
0
0
0
0
0
0
0
0
0
0
0
0
0
0
0
0
0
0
0
0
0
0
0
0
0
0
0
0
0
0
0
0
0
0
0
0
0
0
0
0
0
0
0
0
0
0
0
0
0
0
0
0
0
0
0
0
0
0
0
0
0
0
0
0
0
0
0
0
0
0
0
0
0
0
0
0
0
0
0
0
0
0
0
0
0
0
0
0
0
0
0
0
0
0
0
0
0
0
0
0
0
0
0
0
0
0
0
0
0
0
0
0
0
0
0
0
0
0
0
0
0
0
0
0
0
0
0
0
0
0
0
0
0
0
0
0
0
0
0
0
0
0
0
0
0
0
0
0
0
0
0
0
0
0
0
0
0
0
0
0
0
0
0
0
0
0
0
0
0
0
0
0
0
0
0
0
0
0
0
0
0
0
0
0
0
0
0
0
0
0
0
0
0
0
0
0
0
0
0
0
0
0
0
0
0
0
0
0
0
0
0
0
0
0
0
0
0
0
0
0
0
0
0
0
0
0
0
0
0
0
0
0
0
0
0
0
0
0
0
0
0
0
0
0
0
0
0
0
0
0
0
0
0
0
0
0
0
0
0
0
0
0
0
0
0
0
0
0
0
0
0
0
0
0
0
0
0
0
0
0
0
0
0
0
0
0
0
0
0
0
0
0
0
0
0
0
0
0
0
0
0
0
0
0
0
0
0
0
0
0
0
0
0
0
0
0
0
0
0
0
0
0
0
0
0
0
0
0
0
0
0
0
0
0
0
0
0
0
0
0
0
0
0
0
0
0
0
0
0
0
0
0
0
0
0
0
0
0
0
0
0
0
0
0
0
0
0
0
0
0
0
0
0
0
0
0
0
0
0
0
0
0
0
0
0
0
0
0
0
0
0
0
0
0
0
0
0
0
0
0
0
0
0
0
0
0
0
0
0
0
0
0
0
0
0
0
0
0
0
0
0
0
0
0
0
0
0
0
0
0
0
0
0
0
0
0
0
0
0
0
0
0
0
0
0
0
0
0
0
0
0
0
0
0
0
0
0
0
0
0
0
0
0
0
0
0
0
0
0
0
0
0
0
0
0
0
0
0
0
0
0
0
0
0
0
0
0
0
0
0
0
0
0
0
0
0
0
0
0
0
0
0
0
0
0
0
0
0
0
0
0
0
0
0
0
0
0
0
0
0
0
0
0
0
0
0
0
0
0
0
0
0
0
0
0
0
0
0
0
0
0
0
0
0
0
0
0
0
0
0
0
0
0
0
0
0
0
0
0
0
0
0
0
0
0
0
0
0
0
0
0
0
0
0
0
0
0
0
0
0
0
0
0
0
0
0
0
0
0
0
0
0
0
0
0
0
0
0
0
0
0
0
0
0
0
0
0
0
0
0
0
0
0
0
0
0
0
0
0
0
-0.0127879
-0.0125637
-0.0123962
0
0
0
0
0
0
0
0
0
0
0
0
0
0
0
0
0
0
0
0
0
0
0
0
0
0
0
0
0
0
-0.0127516
-0.0125317
-0.0124567
0
0
0
0
0
0
0
0
0
0
0
0
0
0
0
0
0
0
0
0
0
0
0
0
0
0
0
0
0
0
-0.0126849
-0.0125593
-0.0124015
0
0
0
0
0
0
0
0
0
0
0
0
0
0
0
0
0
0
0
0
0
0
0
0
0
0
0
0
0
0
-0.012667
-0.012556
-0.0124082
0
0
0
0
0
0
0
0
0
0
0
0
0
0
0
0
0
0
0
0
0
0
0
0
0
0
0
0
0
0
-0.0126106
-0.0125154
0
0
0
0
0
0
0
0
0
0
0
0
0
0
0
0
0
0
0
0
0
0
0
0
0
0
0
0
0
0
0
-0.0126081
-0.0124436
0
0
0
0
0
0
0
0
0
0
0
0
0
0
0
0
0
0
0
0
0
0
0
0
0
0
0
0
0
0
0
-0.0124799
-0.0124261
0
0
0
0
0
0
0
0
0
0
0
0
0
0
0
0
0
0
0
0
0
0
0
0
0
0
0
0
0
0
0
-0.0125026
0
0
0
0
0
0
0
0
0
0
0
0
0
0
0
0
0
0
0
0
0
0
0
0
0
0
0
0
0
0
0
0
-0.012409
0
0
0
0
0
0
0
0
0
0
0
0
0
0
0
0
0
0
0
0
0
0
0
0
0
0
0
0
0
0
0
0
0
0
0
0
0
0
0
0
0
0
0
0
0
0
0
0
0
0
0
0
0
0
0
0
0
0
0
0
0
0
0
0
0
0
0
0
0
0
0
0
0
0
0
0
0
0
0
0
0
0
0
0
0
0
0
0
0
0
0
0
0
0
0
0
0
0
0
0
0
0
0
0
0
0
0
0
0
0
0
0
0
0
0
0
0
0
0
0
0
0
0
0
0
0
0
0
0
0
0
0
0
0
0
0
0
0
0
0
0
0
0
0
0
0
0
0
0
0
0
0
0
0
0
0
0
0
0
0
0
0
0
0
0
0
0
0
0
0
0
0
0
0
0
0
0
0
0
0
0
0
0
0
0
0
0
0
0
0
0
0
0
0
0
0
0
0
0
0
0
0
0
0
0
0
0
0
0
0
0
0
0
0
0
0
0
0
0
0
0
0
0
0
0
0
0
0
0
0
-0.0305542
-0.0255294
-0.0205706
-0.0161318
-0.0135043
-0.0129037
-0.0125828
-0.0124324
0
0
0
0
0
0
0
0
0
0
0
0
0
0
0
0
0
0
0
0
0
0
0
0
0
-0.0302058
-0.0252631
-0.02033
-0.0158959
-0.013426
-0.0128642
-0.0126354
-0.0124035
0
0
0
0
0
0
0
0
0
0
0
0
0
0
0
0
0
0
0
0
0
0
0
0
0
-0.029659
-0.0246999
-0.019807
-0.01546
-0.0133537
-0.0128751
-0.0125713
-0.0124324
0
0
0
0
0
0
0
0
0
0
0
0
0
0
0
0
0
0
0
0
0
0
0
0
0
-0.0287402
-0.0238804
-0.0189626
-0.0148998
-0.0132407
-0.0127638
-0.0125622
-0.0124364
0
0
0
0
0
0
0
0
0
0
0
0
0
0
0
0
0
0
0
0
0
0
0
0
0
-0.027547
-0.0226309
-0.0179075
-0.0142663
-0.0130938
-0.0126988
-0.0125184
-0.0124081
0
0
0
0
0
0
0
0
0
0
0
0
0
0
0
0
0
0
0
0
0
0
0
0
0
-0.0259642
-0.0210216
-0.016487
-0.0137275
-0.0129304
-0.0126842
-0.0124431
-0.0123488
0
0
0
0
0
0
0
0
0
0
0
0
0
0
0
0
0
0
0
0
0
0
0
0
0
-0.0238935
-0.0191144
-0.015081
-0.0132395
-0.0128304
-0.0125453
-0.0124165
0
0
0
0
0
0
0
0
0
0
0
0
0
0
0
0
0
0
0
0
0
0
0
0
0
0
-0.0215585
-0.0170022
-0.0139295
-0.0129777
-0.0127119
-0.012553
-0.0123668
0
0
0
0
0
0
0
0
0
0
0
0
0
0
0
0
0
0
0
0
0
0
0
0
0
0
-0.0189352
-0.0150029
-0.0132384
-0.0128427
-0.0125632
-0.0124402
0
0
0
0
0
0
0
0
0
0
0
0
0
0
0
0
0
0
0
0
0
0
0
0
0
0
0
-0.0161481
-0.0136339
-0.0129238
-0.0126994
-0.0124725
-0.0123922
0
0
0
0
0
0
0
0
0
0
0
0
0
0
0
0
0
0
0
0
0
0
0
0
0
0
0
-0.0140391
-0.0130448
-0.0127
-0.0125457
-0.0123667
0
0
0
0
0
0
0
0
0
0
0
0
0
0
0
0
0
0
0
0
0
0
0
0
0
0
0
0
-0.0131002
-0.012812
-0.012565
-0.0123821
0
0
0
0
0
0
0
0
0
0
0
0
0
0
0
0
0
0
0
0
0
0
0
0
0
0
0
0
0
-0.0127933
-0.0125475
-0.0124491
0
0
0
0
0
0
0
0
0
0
0
0
0
0
0
0
0
0
0
0
0
0
0
0
0
0
0
0
0
0
-0.0126317
-0.0124443
0
0
0
0
0
0
0
0
0
0
0
0
0
0
0
0
0
0
0
0
0
0
0
0
0
0
0
0
0
0
0
-0.0124846
-0.0124198
0
0
0
0
0
0
0
0
0
0
0
0
0
0
0
0
0
0
0
0
0
0
0
0
0
0
0
0
0
0
0
-0.0583888
-0.0536439
-0.0487485
-0.0438252
-0.0386334
-0.0335098
-0.0282955
-0.0230053
-0.0178054
-0.0139979
-0.0128876
-0.0125759
-0.0123904
0
0
0
0
0
0
0
0
0
0
0
0
0
0
0
0
0
0
0
0
-0.0580948
-0.0534011
-0.0484129
-0.0434923
-0.0384857
-0.0332729
-0.0279525
-0.0226793
-0.0176
-0.0138819
-0.0128542
-0.012551
-0.012368
0
0
0
0
0
0
0
0
0
0
0
0
0
0
0
0
0
0
0
0
-0.0575726
-0.0527781
-0.0479536
-0.0428484
-0.0378267
-0.0327098
-0.027474
-0.0221139
-0.017097
-0.0137211
-0.0128571
-0.0125742
-0.0123998
0
0
0
0
0
0
0
0
0
0
0
0
0
0
0
0
0
0
0
0
-0.0568176
-0.0520261
-0.0472003
-0.0420963
-0.0370625
-0.0319238
-0.0265903
-0.0212429
-0.0163614
-0.0134196
-0.0127409
-0.0124815
-0.0123191
0
0
0
0
0
0
0
0
0
0
0
0
0
0
0
0
0
0
0
0
-0.0556398
-0.0508395
-0.0460067
-0.0408997
-0.0358605
-0.030718
-0.0253873
-0.020172
-0.015453
-0.0131706
-0.0126729
-0.0124414
-0.0122951
0
0
0
0
0
0
0
0
0
0
0
0
0
0
0
0
0
0
0
0
-0.0541611
-0.0493487
-0.0444243
-0.0394799
-0.0342663
-0.0291098
-0.0238811
-0.0186722
-0.01451
-0.0130134
-0.0126514
-0.01245
0
0
0
0
0
0
0
0
0
0
0
0
0
0
0
0
0
0
0
0
0
-0.0521748
-0.0473407
-0.042497
-0.0373844
-0.0323323
-0.0271837
-0.0219062
-0.0169903
-0.0136385
-0.0127984
-0.0125209
-0.01235
0
0
0
0
0
0
0
0
0
0
0
0
0
0
0
0
0
0
0
0
0
-0.0500155
-0.0450625
-0.0402147
-0.0352742
-0.0300436
-0.0248802
-0.019773
-0.015252
-0.0131987
-0.0126598
-0.0124404
-0.0123024
0
0
0
0
0
0
0
0
0
0
0
0
0
0
0
0
0
0
0
0
0
-0.0473188
-0.0424776
-0.0375278
-0.0324701
-0.0273768
-0.0221793
-0.0172194
-0.0138045
-0.0128706
-0.0125862
-0.0124145
0
0
0
0
0
0
0
0
0
0
0
0
0
0
0
0
0
0
0
0
0
0
-0.0440471
-0.03927
-0.0342236
-0.0292349
-0.0241859
-0.0190629
-0.0148484
-0.0130937
-0.012699
-0.0124962
-0.0123705
0
0
0
0
0
0
0
0
0
0
0
0
0
0
0
0
0
0
0
0
0
0
-0.0404813
-0.0356168
-0.0307166
-0.0255684
-0.0205849
-0.0159854
-0.0133534
-0.0127684
-0.0125364
-0.0123912
0
0
0
0
0
0
0
0
0
0
0
0
0
0
0
0
0
0
0
0
0
0
0
-0.0363691
-0.0315591
-0.0264917
-0.0215614
-0.0168597
-0.0136848
-0.0128666
-0.0126068
-0.0124511
0
0
0
0
0
0
0
0
0
0
0
0
0
0
0
0
0
0
0
0
0
0
0
0
-0.0319945
-0.0271724
-0.0221553
-0.0174939
-0.0140455
-0.0129196
-0.0126363
-0.0124727
-0.0122851
0
0
0
0
0
0
0
0
0
0
0
0
0
0
0
0
0
0
0
0
0
0
0
0
-0.0278603
-0.0230543
-0.0182311
-0.0144406
-0.0130036
-0.0126778
-0.0125038
-0.0123092
0
0
0
0
0
0
0
0
0
0
0
0
0
0
0
0
0
0
0
0
0
0
0
0
0
-0.0250153
-0.0201257
-0.0158039
-0.0133391
-0.0128014
-0.0125004
-0.0123687
0
0
0
0
0
0
0
0
0
0
0
0
0
0
0
0
0
0
0
0
0
0
0
0
0
0
-0.0790409
-0.074455
-0.0697455
-0.0649885
-0.0600855
-0.055024
-0.0497929
-0.0443896
-0.0388766
-0.0332904
-0.027703
-0.0220069
-0.0167009
-0.0133365
-0.0125973
-0.012409
0
0
0
0
0
0
0
0
0
0
0
0
0
0
0
0
-0.0787513
-0.0742726
-0.0695347
-0.0647456
-0.0598268
-0.0547647
-0.0495573
-0.044216
-0.0387622
-0.0331913
-0.0275023
-0.021863
-0.0164916
-0.013258
-0.0126506
-0.0123785
0
0
0
0
0
0
0
0
0
0
0
0
0
0
0
0
-0.0781785
-0.073694
-0.0690777
-0.0642935
-0.0592397
-0.0541318
-0.0489069
-0.0435577
-0.0380956
-0.0326
-0.0269068
-0.021192
-0.0159271
-0.013174
-0.0125796
-0.0123221
0
0
0
0
0
0
0
0
0
0
0
0
0
0
0
0
-0.0774664
-0.0729916
-0.0683441
-0.0634202
-0.0584471
-0.0533658
-0.0481555
-0.0428159
-0.0373564
-0.0317731
-0.0260815
-0.0204904
-0.0153952
-0.0129785
-0.0125678
-0.0123274
0
0
0
0
0
0
0
0
0
0
0
0
0
0
0
0
-0.0764298
-0.0719151
-0.0672538
-0.0623235
-0.0573444
-0.052248
-0.0470208
-0.0416695
-0.0362006
-0.030607
-0.0250015
-0.0193857
-0.0146305
-0.0128332
-0.0125189
-0.0123008
0
0
0
0
0
0
0
0
0
0
0
0
0
0
0
0
-0.0751534
-0.0705105
-0.0657475
-0.0609313
-0.0559674
-0.0508413
-0.045467
-0.0400554
-0.0346351
-0.0290179
-0.0233359
-0.0178429
-0.0137982
-0.0127566
-0.0124334
-0.0122416
0
0
0
0
0
0
0
0
0
0
0
0
0
0
0
0
-0.0733459
-0.0687013
-0.0640166
-0.0591732
-0.0540667
-0.0489126
-0.0436528
-0.0382837
-0.0327948
-0.0271874
-0.0216392
-0.0163829
-0.0132645
-0.0125907
-0.012414
0
0
0
0
0
0
0
0
0
0
0
0
0
0
0
0
0
-0.0713574
-0.0666688
-0.0618478
-0.0569613
-0.0518153
-0.0466342
-0.0413619
-0.035985
-0.0304844
-0.0248884
-0.0194494
-0.0147463
-0.0128964
-0.012488
-0.0123615
0
0
0
0
0
0
0
0
0
0
0
0
0
0
0
0
0
-0.0687187
-0.0640915
-0.0591915
-0.0542566
-0.0492141
-0.0440537
-0.0387759
-0.0333636
-0.0277298
-0.0221393
-0.0168742
-0.0134521
-0.0126402
-0.0124477
-0.0122761
0
0
0
0
0
0
0
0
0
0
0
0
0
0
0
0
0
-0.0657542
-0.0610953
-0.0561707
-0.0512097
-0.0461492
-0.0409729
-0.0355866
-0.030141
-0.0245974
-0.0191709
-0.0146286
-0.0128966
-0.0125063
-0.0122969
0
0
0
0
0
0
0
0
0
0
0
0
0
0
0
0
0
0
-0.0623542
-0.0575729
-0.0527329
-0.0476557
-0.0425507
-0.0373563
-0.0320489
-0.0266226
-0.0210922
-0.0160665
-0.0132328
-0.0126217
-0.0123725
0
0
0
0
0
0
0
0
0
0
0
0
0
0
0
0
0
0
0
-0.0585273
-0.0536882
-0.0487001
-0.0436888
-0.0385952
-0.0333759
-0.0278577
-0.0224531
-0.0172995
-0.0137348
-0.0127702
-0.0124821
-0.012312
0
0
0
0
0
0
0
0
0
0
0
0
0
0
0
0
0
0
0
-0.0542279
-0.0493576
-0.0443473
-0.0393341
-0.0342269
-0.0289854
-0.023496
-0.0182994
-0.0141752
-0.0127993
-0.0125524
-0.0123684
0
0
0
0
0
0
0
0
0
0
0
0
0
0
0
0
0
0
0
0
-0.0500809
-0.0451835
-0.0401689
-0.0351459
-0.0300033
-0.0245891
-0.0193859
-0.014893
-0.0129576
-0.0125456
-0.0123425
0
0
0
0
0
0
0
0
0
0
0
0
0
0
0
0
0
0
0
0
0
-0.0471961
-0.042288
-0.0372821
-0.0322278
-0.0268908
-0.0216763
-0.0167402
-0.0134766
-0.0127147
-0.0124597
-0.012308
0
0
0
0
0
0
0
0
0
0
0
0
0
0
0
0
0
0
0
0
0
-0.100882
-0.0968114
-0.0925896
-0.0881976
-0.08363
-0.0788824
-0.074035
-0.0689355
-0.0636781
-0.0584457
-0.0528771
-0.0471933
-0.0412715
-0.0354245
-0.0292937
-0.0232542
-0.017309
-0.0133402
-0.0125149
-0.0122998
0
0
0
0
0
0
0
0
0
0
0
0
-0.100681
-0.0965661
-0.0923149
-0.0879031
-0.0833226
-0.0786432
-0.0737161
-0.0686214
-0.06348
-0.0581654
-0.0525707
-0.0468829
-0.0410698
-0.0351324
-0.0289613
-0.0229213
-0.0170966
-0.0132389
-0.0124838
-0.0122754
0
0
0
0
0
0
0
0
0
0
0
0
-0.100348
-0.096269
-0.0920302
-0.0876224
-0.0830391
-0.0782858
-0.0733537
-0.0683232
-0.0630435
-0.0575939
-0.052161
-0.0464119
-0.040567
-0.0344946
-0.0285101
-0.0223157
-0.01662
-0.0131398
-0.0125026
-0.0122211
0
0
0
0
0
0
0
0
0
0
0
0
-0.0996932
-0.0955949
-0.0913019
-0.0867897
-0.082152
-0.0775049
-0.0726029
-0.0675081
-0.062308
-0.056845
-0.051295
-0.0456157
-0.0397207
-0.0337557
-0.0277707
-0.0216009
-0.0160149
-0.0130069
-0.0124027
-0.01223
0
0
0
0
0
0
0
0
0
0
0
0
-0.0987304
-0.0946227
-0.0904163
-0.0859636
-0.0813466
-0.0765616
-0.0716
-0.066468
-0.0612395
-0.0557553
-0.050191
-0.0444945
-0.0385868
-0.0326137
-0.0266235
-0.0204938
-0.0151523
-0.0128359
-0.012357
-0.0122088
0
0
0
0
0
0
0
0
0
0
0
0
-0.0975084
-0.0933647
-0.0890651
-0.0845964
-0.0799554
-0.0751367
-0.07022
-0.0650514
-0.059702
-0.0542653
-0.048711
-0.0429307
-0.0370748
-0.0311073
-0.0250583
-0.0190757
-0.0141616
-0.0126536
-0.0123657
0
0
0
0
0
0
0
0
0
0
0
0
0
-0.0959835
-0.0918181
-0.0874979
-0.0830144
-0.0783529
-0.0735164
-0.0685036
-0.0633976
-0.0580399
-0.0525079
-0.0469053
-0.0411833
-0.0353475
-0.0292834
-0.0233188
-0.0174393
-0.0134347
-0.0125753
-0.0122684
0
0
0
0
0
0
0
0
0
0
0
0
0
-0.0941169
-0.0899082
-0.0855433
-0.0810124
-0.0763107
-0.071437
-0.0663894
-0.061248
-0.0558609
-0.0503057
-0.0446812
-0.0389496
-0.0331109
-0.0270488
-0.0211453
-0.0156195
-0.0129269
-0.0124761
-0.012227
0
0
0
0
0
0
0
0
0
0
0
0
0
-0.0919069
-0.0876262
-0.0830543
-0.0784229
-0.0737379
-0.0688262
-0.0637406
-0.0584793
-0.0530605
-0.0476932
-0.0420169
-0.0362716
-0.0303162
-0.0243656
-0.018569
-0.0139894
-0.012615
-0.0123523
0
0
0
0
0
0
0
0
0
0
0
0
0
0
-0.0892949
-0.0848972
-0.0802817
-0.0756069
-0.0708801
-0.0659259
-0.0608024
-0.0555079
-0.0500478
-0.0445331
-0.0389172
-0.0331053
-0.0272339
-0.0212492
-0.0159064
-0.0129634
-0.012466
-0.0123044
0
0
0
0
0
0
0
0
0
0
0
0
0
0
-0.0861182
-0.0817491
-0.0772345
-0.0725534
-0.0676899
-0.0625389
-0.0573283
-0.0521043
-0.0467388
-0.0411305
-0.0353978
-0.0296253
-0.0236815
-0.017989
-0.0137376
-0.012566
-0.0123282
0
0
0
0
0
0
0
0
0
0
0
0
0
0
0
-0.082527
-0.0781251
-0.073547
-0.0686866
-0.0637565
-0.0586832
-0.0534536
-0.048074
-0.0425516
-0.0369851
-0.0312194
-0.0254688
-0.0197904
-0.0147743
-0.0128263
-0.0124004
-0.0122751
0
0
0
0
0
0
0
0
0
0
0
0
0
0
0
-0.078504
-0.0740179
-0.0693984
-0.0645989
-0.0595161
-0.0543642
-0.0490842
-0.0436723
-0.0381402
-0.032565
-0.0267932
-0.0211141
-0.0159159
-0.0130194
-0.0124379
-0.012282
0
0
0
0
0
0
0
0
0
0
0
0
0
0
0
0
-0.0747269
-0.0700035
-0.0652977
-0.0604545
-0.0554302
-0.0501432
-0.0448045
-0.0393713
-0.0339205
-0.0282653
-0.0225399
-0.0170711
-0.0134569
-0.0125782
-0.0122977
0
0
0
0
0
0
0
0
0
0
0
0
0
0
0
0
0
-0.0718693
-0.067123
-0.0623793
-0.0574836
-0.0523199
-0.0471038
-0.0417942
-0.036388
-0.0308672
-0.0252368
-0.019716
-0.0148037
-0.0127862
-0.0124625
-0.0122536
0
0
0
0
0
0
0
0
0
0
0
0
0
0
0
0
0
-0.119378
-0.115841
-0.112035
-0.108095
-0.103894
-0.0994952
-0.0949907
-0.0903609
-0.0855357
-0.0805258
-0.0752908
-0.0698286
-0.0642305
-0.0585233
-0.0525086
-0.0463962
-0.0401138
-0.033578
-0.0270308
-0.0205482
-0.0148329
-0.0125979
-0.0122278
0
0
0
0
0
0
0
0
0
-0.119405
-0.115714
-0.111854
-0.10789
-0.10367
-0.0993512
-0.0948959
-0.0902371
-0.085287
-0.0803316
-0.0750126
-0.0696635
-0.0640371
-0.0582994
-0.0521826
-0.0460748
-0.0398211
-0.0334136
-0.0267937
-0.0202944
-0.0146475
-0.0125596
-0.0122047
0
0
0
0
0
0
0
0
0
-0.118872
-0.115243
-0.111387
-0.10748
-0.103374
-0.0989854
-0.0944685
-0.0896812
-0.0849104
-0.0797798
-0.0746215
-0.0691013
-0.0635358
-0.0576853
-0.0517485
-0.0456355
-0.0392543
-0.0328312
-0.0263264
-0.0198807
-0.0143799
-0.0125565
-0.0122358
0
0
0
0
0
0
0
0
0
-0.118386
-0.114735
-0.11084
-0.106764
-0.102523
-0.0983091
-0.0937399
-0.0890302
-0.0841654
-0.0790877
-0.0737926
-0.0683543
-0.0628028
-0.0569638
-0.0510088
-0.0446915
-0.0383929
-0.0319914
-0.0254942
-0.0190882
-0.0138606
-0.0124341
-0.0122426
0
0
0
0
0
0
0
0
0
-0.11756
-0.113886
-0.109972
-0.105893
-0.101828
-0.0974212
-0.0927985
-0.0880605
-0.0831784
-0.0780921
-0.0728958
-0.0673494
-0.0617509
-0.0558793
-0.0498984
-0.0435588
-0.0372458
-0.0308384
-0.0243489
-0.018035
-0.0133736
-0.0123663
-0.0122197
0
0
0
0
0
0
0
0
0
-0.116693
-0.112929
-0.10899
-0.104948
-0.100657
-0.0961698
-0.0915745
-0.086841
-0.0819037
-0.0766636
-0.0714391
-0.0659283
-0.060234
-0.0543135
-0.048322
-0.0421643
-0.0357451
-0.0293111
-0.02285
-0.016735
-0.0130093
-0.0123608
0
0
0
0
0
0
0
0
0
0
-0.115138
-0.111346
-0.107395
-0.103399
-0.099199
-0.0947046
-0.0900798
-0.0852
-0.0803362
-0.0751131
-0.0698648
-0.0642616
-0.0586112
-0.0526913
-0.0466681
-0.0403018
-0.033976
-0.0275664
-0.0211455
-0.0152692
-0.0126674
-0.0122472
0
0
0
0
0
0
0
0
0
0
-0.113565
-0.109831
-0.105854
-0.101758
-0.0974048
-0.0928597
-0.0881911
-0.0832591
-0.0783533
-0.0730932
-0.0678074
-0.0621671
-0.0564846
-0.0505388
-0.0444913
-0.0381105
-0.0317826
-0.0253825
-0.0190794
-0.0139229
-0.0124772
-0.0121954
0
0
0
0
0
0
0
0
0
0
-0.111546
-0.107736
-0.10368
-0.0994456
-0.0950456
-0.0906639
-0.0859324
-0.0810572
-0.0759115
-0.070767
-0.065257
-0.0596052
-0.0539057
-0.0479424
-0.0417972
-0.0355697
-0.0291373
-0.0227498
-0.016727
-0.0130403
-0.012392
0
0
0
0
0
0
0
0
0
0
0
-0.109218
-0.105288
-0.101177
-0.0968883
-0.0924341
-0.0879996
-0.0832201
-0.0783029
-0.0731144
-0.0679208
-0.0623727
-0.056687
-0.0508426
-0.0448121
-0.038723
-0.032511
-0.0261162
-0.0197649
-0.0144076
-0.0125478
-0.0122265
0
0
0
0
0
0
0
0
0
0
0
-0.10653
-0.102541
-0.0983781
-0.0941145
-0.0895902
-0.0848851
-0.080072
-0.0750034
-0.0698611
-0.0645298
-0.0589084
-0.0532723
-0.0473952
-0.0413384
-0.03515
-0.0289083
-0.0225408
-0.0166186
-0.0130392
-0.0123191
-0.0121357
0
0
0
0
0
0
0
0
0
0
0
-0.103297
-0.0992424
-0.0950861
-0.0906818
-0.0860945
-0.0813276
-0.0764512
-0.0713009
-0.065975
-0.0606616
-0.0550026
-0.0492178
-0.0433766
-0.037219
-0.0310952
-0.0248041
-0.0186408
-0.0138128
-0.0124881
-0.0122287
0
0
0
0
0
0
0
0
0
0
0
0
-0.099626
-0.0955011
-0.0912026
-0.0867263
-0.0820692
-0.0773088
-0.0722829
-0.0670813
-0.061888
-0.0563595
-0.0507044
-0.0447786
-0.0389089
-0.0327461
-0.0266381
-0.0204758
-0.0149776
-0.0126634
-0.0122912
0
0
0
0
0
0
0
0
0
0
0
0
0
-0.0959814
-0.0916441
-0.0872423
-0.0827692
-0.0780467
-0.0731378
-0.0680497
-0.0627978
-0.0575768
-0.0520179
-0.0463326
-0.0403909
-0.0345209
-0.0283789
-0.022337
-0.0165689
-0.0129912
-0.0123702
-0.0121995
0
0
0
0
0
0
0
0
0
0
0
0
0
-0.0933299
-0.0890689
-0.0845162
-0.0798856
-0.0751041
-0.0701618
-0.0650647
-0.0599894
-0.0545845
-0.048988
-0.043294
-0.0373621
-0.031496
-0.0253679
-0.0193512
-0.0142437
-0.0125715
-0.0122863
0
0
0
0
0
0
0
0
0
0
0
0
0
0
-0.134856
-0.131647
-0.128238
-0.124564
-0.120911
-0.116911
-0.112882
-0.108566
-0.104163
-0.0994866
-0.0945582
-0.089518
-0.084279
-0.0787977
-0.072961
-0.0669858
-0.0608936
-0.0545075
-0.0479134
-0.0412532
-0.0344427
-0.0274142
-0.0204256
-0.0144533
-0.0124103
-0.0121618
0
0
0
0
0
0
-0.134836
-0.131493
-0.128049
-0.124488
-0.120747
-0.116907
-0.112724
-0.108481
-0.103956
-0.0993071
-0.0943384
-0.0891993
-0.0839483
-0.0784831
-0.0728655
-0.0669467
-0.0608099
-0.054448
-0.0478696
-0.0410963
-0.0342334
-0.0271784
-0.0201811
-0.0143296
-0.0123775
-0.0121378
0
0
0
0
0
0
-0.134427
-0.131253
-0.127763
-0.124164
-0.120421
-0.116482
-0.112433
-0.108109
-0.103585
-0.0988288
-0.093957
-0.0888775
-0.0834621
-0.0779321
-0.0722158
-0.0662846
-0.060133
-0.0537672
-0.0472608
-0.0404633
-0.0335026
-0.0266521
-0.0197484
-0.0139764
-0.0123894
-0.0120859
0
0
0
0
0
0
-0.133974
-0.130671
-0.127257
-0.123641
-0.119756
-0.115885
-0.111732
-0.107399
-0.102828
-0.0981624
-0.0933091
-0.0882231
-0.0828034
-0.0772645
-0.0715407
-0.065601
-0.0594392
-0.0530582
-0.0464667
-0.03975
-0.0327778
-0.0257216
-0.0189964
-0.013588
-0.0123622
0
0
0
0
0
0
0
-0.133265
-0.12993
-0.126492
-0.122849
-0.118936
-0.115038
-0.110861
-0.106526
-0.102053
-0.0972714
-0.0923726
-0.0872556
-0.0818074
-0.0762399
-0.0704912
-0.0645288
-0.0583448
-0.0519447
-0.0453355
-0.0386057
-0.031633
-0.0245877
-0.0179595
-0.013155
-0.0123068
0
0
0
0
0
0
0
-0.132461
-0.129072
-0.125551
-0.12178
-0.118035
-0.113946
-0.109823
-0.105417
-0.100899
-0.0959855
-0.0910616
-0.0859479
-0.0805924
-0.0748909
-0.0690709
-0.0630578
-0.0568338
-0.0504851
-0.0438409
-0.0370148
-0.0301615
-0.0232901
-0.0166927
-0.0127716
-0.0122292
0
0
0
0
0
0
0
-0.131158
-0.1279
-0.124312
-0.120606
-0.116833
-0.11269
-0.108404
-0.104066
-0.0994604
-0.0945995
-0.0896288
-0.0844436
-0.0789344
-0.0733131
-0.0675033
-0.0614798
-0.0552366
-0.048781
-0.0421257
-0.0353709
-0.0284112
-0.0214538
-0.0152511
-0.012543
-0.0121247
0
0
0
0
0
0
0
-0.129885
-0.12644
-0.12286
-0.119026
-0.115207
-0.111041
-0.10684
-0.102363
-0.0976917
-0.0927847
-0.0877613
-0.0825259
-0.0769655
-0.0712995
-0.0654469
-0.059383
-0.0531026
-0.046614
-0.0399344
-0.0331727
-0.0262283
-0.0193951
-0.0139041
-0.0123733
-0.0120863
0
0
0
0
0
0
0
-0.128044
-0.124579
-0.121
-0.117218
-0.113163
-0.109114
-0.10471
-0.100255
-0.0955113
-0.090647
-0.0854719
-0.0801184
-0.0746491
-0.0689449
-0.0629055
-0.0567406
-0.0503922
-0.0439385
-0.0372178
-0.0303578
-0.02345
-0.0170525
-0.012923
-0.0122179
0
0
0
0
0
0
0
0
-0.125985
-0.122527
-0.118804
-0.114939
-0.110815
-0.106706
-0.102315
-0.0977296
-0.0929285
-0.0880088
-0.0827828
-0.0773712
-0.0718329
-0.0659592
-0.0599663
-0.0537851
-0.0474024
-0.0408317
-0.0341858
-0.0273442
-0.0205407
-0.0145996
-0.0125061
-0.0121534
0
0
0
0
0
0
0
0
-0.123552
-0.119969
-0.11615
-0.112279
-0.10819
-0.103821
-0.0994346
-0.0947732
-0.089916
-0.0848426
-0.0796282
-0.0741119
-0.068494
-0.0626827
-0.056647
-0.0502999
-0.0438406
-0.0372268
-0.0304836
-0.0236829
-0.0171934
-0.012951
-0.0122799
0
0
0
0
0
0
0
0
0
-0.120691
-0.116955
-0.113052
-0.109178
-0.104946
-0.100575
-0.0960388
-0.0912827
-0.0862253
-0.0811738
-0.0759204
-0.0703551
-0.0646768
-0.0587073
-0.0525024
-0.0461842
-0.0397125
-0.0331032
-0.0264854
-0.0198506
-0.0142256
-0.0124124
-0.0121059
0
0
0
0
0
0
0
0
0
-0.117481
-0.113749
-0.109759
-0.105581
-0.101296
-0.0968688
-0.092235
-0.0873009
-0.0823551
-0.0771246
-0.0717043
-0.0660585
-0.0603231
-0.0543908
-0.0481371
-0.0417897
-0.0352225
-0.0287175
-0.0220984
-0.0159488
-0.0127034
-0.0122021
0
0
0
0
0
0
0
0
0
0
-0.113894
-0.110035
-0.1062
-0.102011
-0.0976052
-0.0930652
-0.0882554
-0.083447
-0.0782895
-0.0730867
-0.0676
-0.0619051
-0.0560158
-0.0500233
-0.0438385
-0.0373966
-0.0309056
-0.0243564
-0.0179956
-0.0133189
-0.0123281
0
0
0
0
0
0
0
0
0
0
0
-0.111519
-0.107611
-0.103527
-0.0992503
-0.0948542
-0.0902007
-0.0855582
-0.0805602
-0.0754129
-0.0701028
-0.0645897
-0.0588726
-0.0529567
-0.0469305
-0.0406261
-0.0342719
-0.0277483
-0.0212885
-0.015339
-0.0125576
-0.0121455
0
0
0
0
0
0
0
0
0
0
0
-0.147794
-0.144756
-0.141701
-0.138402
-0.135046
-0.131511
-0.127682
-0.123758
-0.11967
-0.115382
-0.110869
-0.106121
-0.101138
-0.095914
-0.0905123
-0.0847815
-0.0788048
-0.0727905
-0.0663585
-0.0597329
-0.0529147
-0.0458473
-0.0386705
-0.0311468
-0.0237826
-0.0168427
-0.0126491
-0.0120966
0
0
0
0
-0.147602
-0.144611
-0.141486
-0.138169
-0.134806
-0.131289
-0.127566
-0.123536
-0.119411
-0.115103
-0.110572
-0.105817
-0.100833
-0.0956702
-0.0901785
-0.084446
-0.0786779
-0.0725069
-0.0661394
-0.0595536
-0.0527424
-0.0456882
-0.0384314
-0.0310855
-0.0235482
-0.0166164
-0.0126746
-0.0120692
0
0
0
0
-0.14722
-0.144312
-0.141163
-0.137967
-0.134542
-0.130899
-0.127173
-0.123266
-0.11915
-0.11479
-0.110158
-0.105346
-0.100455
-0.0952478
-0.0898556
-0.0841252
-0.0781537
-0.0721124
-0.0656818
-0.059069
-0.0522244
-0.045176
-0.0379057
-0.0305017
-0.0231413
-0.0161262
-0.0125516
-0.0121034
0
0
0
0
-0.146864
-0.143942
-0.140784
-0.137485
-0.13399
-0.130433
-0.126713
-0.12277
-0.118491
-0.114094
-0.109494
-0.104751
-0.0997049
-0.0944365
-0.0890636
-0.0834389
-0.0774615
-0.071228
-0.0649351
-0.0582355
-0.0513497
-0.044274
-0.0369914
-0.0296488
-0.0221341
-0.0154525
-0.0124701
-0.0121127
0
0
0
0
-0.146226
-0.143284
-0.140107
-0.136787
-0.133264
-0.129687
-0.125945
-0.12198
-0.117671
-0.113244
-0.108628
-0.103868
-0.0987929
-0.0934948
-0.088099
-0.0824496
-0.0764462
-0.070187
-0.0638713
-0.0571473
-0.0502366
-0.0431408
-0.0358424
-0.0285017
-0.0210349
-0.0146349
-0.0123659
0
0
0
0
0
-0.145555
-0.142446
-0.139316
-0.135947
-0.132514
-0.128898
-0.124993
-0.120988
-0.116795
-0.112388
-0.107769
-0.102916
-0.0978264
-0.092499
-0.0870081
-0.0811908
-0.0751301
-0.0690167
-0.0625072
-0.055811
-0.0488934
-0.0417768
-0.0344628
-0.027064
-0.0198573
-0.013786
-0.0122459
0
0
0
0
0
-0.144404
-0.141401
-0.138156
-0.134866
-0.131415
-0.127597
-0.123756
-0.119743
-0.115495
-0.110893
-0.106239
-0.101323
-0.0961913
-0.0909571
-0.0854013
-0.0796534
-0.0735691
-0.0672364
-0.0608448
-0.054055
-0.0470912
-0.0399412
-0.0326247
-0.0253123
-0.0180958
-0.0130798
-0.0122011
0
0
0
0
0
-0.143349
-0.140177
-0.13698
-0.133538
-0.130006
-0.126187
-0.122232
-0.118171
-0.1139
-0.109451
-0.104583
-0.0995795
-0.0943787
-0.089089
-0.0834796
-0.0776798
-0.0715462
-0.0651654
-0.0587304
-0.0519016
-0.044904
-0.0377293
-0.0304136
-0.0231495
-0.0162197
-0.012598
-0.0121397
0
0
0
0
0
-0.14169
-0.138614
-0.135298
-0.131905
-0.128169
-0.124431
-0.120503
-0.116244
-0.111885
-0.107338
-0.102564
-0.0975646
-0.0923329
-0.0869325
-0.0812063
-0.0752349
-0.0691037
-0.0627788
-0.0561396
-0.0493265
-0.042313
-0.0351271
-0.0278049
-0.0205885
-0.0143902
-0.0123003
0
0
0
0
0
0
-0.139992
-0.136719
-0.13331
-0.129854
-0.126048