/*--------------------------------*- C++ -*----------------------------------*\
| =========                 |                                                 |
| \\      /  F ield         | OpenFOAM: The Open Source CFD Toolbox           |
|  \\    /   O peration     | Version:  2312                                  |
|   \\  /    A nd           | Website:  www.openfoam.com                      |
|    \\/     M anipulation  |                                                 |
\*---------------------------------------------------------------------------*/
FoamFile
{
    version     2.0;
    format      ascii;
    arch        "LSB;label=32;scalar=64";
    class       volVectorField;
    location    "0.7";
    object      D_0;
}
// * * * * * * * * * * * * * * * * * * * * * * * * * * * * * * * * * * * * * //

dimensions      [0 1 0 0 0 0 0];

internalField   nonuniform List<vector> 
12960
(
(0.000113342 -0.000141264 -3.57352e-07)
(0.000125223 -0.000130849 -3.57358e-07)
(0.000136151 -0.000119437 -3.57322e-07)
(0.000146042 -0.000107116 -3.57407e-07)
(0.000154822 -9.39798e-05 -3.57421e-07)
(0.000162424 -8.01284e-05 -3.57331e-07)
(0.000168789 -6.56674e-05 -3.57395e-07)
(0.00017387 -5.07066e-05 -3.57557e-07)
(0.000177628 -3.53598e-05 -3.5765e-07)
(0.000180034 -1.9744e-05 -3.5751e-07)
(0.00018107 -3.97783e-06 -3.57354e-07)
(0.000180727 1.18187e-05 -3.5722e-07)
(0.000179009 2.75251e-05 -3.57203e-07)
(0.00017593 4.30221e-05 -3.57233e-07)
(0.00017151 5.81916e-05 -3.57357e-07)
(0.000165786 7.29184e-05 -3.57337e-07)
(0.0001588 8.709e-05 -3.57363e-07)
(0.000150605 0.000100599 -3.5751e-07)
(0.000141264 0.000113342 -3.57352e-07)
(0.000130849 0.000125223 -3.57358e-07)
(0.000119437 0.000136151 -3.57322e-07)
(0.000107116 0.000146042 -3.57407e-07)
(9.39798e-05 0.000154822 -3.57421e-07)
(8.01284e-05 0.000162424 -3.57331e-07)
(6.56674e-05 0.000168789 -3.57395e-07)
(5.07066e-05 0.00017387 -3.57557e-07)
(3.53598e-05 0.000177628 -3.57651e-07)
(1.9744e-05 0.000180034 -3.5751e-07)
(3.97783e-06 0.00018107 -3.57354e-07)
(-1.18187e-05 0.000180727 -3.5722e-07)
(-2.75251e-05 0.000179009 -3.57203e-07)
(-4.30221e-05 0.00017593 -3.57233e-07)
(-5.81916e-05 0.00017151 -3.57357e-07)
(-7.29184e-05 0.000165786 -3.57337e-07)
(-8.709e-05 0.0001588 -3.57363e-07)
(-0.000100599 0.000150605 -3.5751e-07)
(-0.000113342 0.000141264 -3.57352e-07)
(-0.000125223 0.000130849 -3.57358e-07)
(-0.000136151 0.000119437 -3.57322e-07)
(-0.000146042 0.000107116 -3.57407e-07)
(-0.000154822 9.39798e-05 -3.57421e-07)
(-0.000162424 8.01284e-05 -3.57331e-07)
(-0.000168789 6.56674e-05 -3.57395e-07)
(-0.00017387 5.07066e-05 -3.57557e-07)
(-0.000177628 3.53598e-05 -3.5765e-07)
(-0.000180034 1.9744e-05 -3.5751e-07)
(-0.00018107 3.97782e-06 -3.57354e-07)
(-0.000180727 -1.18187e-05 -3.5722e-07)
(-0.000179009 -2.75251e-05 -3.57203e-07)
(-0.00017593 -4.30221e-05 -3.57233e-07)
(-0.00017151 -5.81916e-05 -3.57357e-07)
(-0.000165786 -7.29184e-05 -3.57337e-07)
(-0.0001588 -8.709e-05 -3.57363e-07)
(-0.000150605 -0.000100599 -3.5751e-07)
(-0.000141264 -0.000113342 -3.57352e-07)
(-0.000130849 -0.000125223 -3.57358e-07)
(-0.000119437 -0.000136151 -3.57322e-07)
(-0.000107116 -0.000146042 -3.57407e-07)
(-9.39798e-05 -0.000154822 -3.57421e-07)
(-8.01284e-05 -0.000162424 -3.57331e-07)
(-6.56674e-05 -0.000168789 -3.57395e-07)
(-5.07066e-05 -0.00017387 -3.57557e-07)
(-3.53598e-05 -0.000177628 -3.5765e-07)
(-1.9744e-05 -0.000180034 -3.5751e-07)
(-3.97782e-06 -0.00018107 -3.57354e-07)
(1.18187e-05 -0.000180727 -3.5722e-07)
(2.75251e-05 -0.000179009 -3.57203e-07)
(4.30221e-05 -0.00017593 -3.57233e-07)
(5.81916e-05 -0.00017151 -3.57357e-07)
(7.29184e-05 -0.000165786 -3.57337e-07)
(8.709e-05 -0.0001588 -3.57363e-07)
(0.000100599 -0.000150605 -3.5751e-07)
(0.000100972 -0.00016218 1.74027e-05)
(0.000114722 -0.000152762 1.74027e-05)
(0.0001276 -0.000142183 1.74028e-05)
(0.000139507 -0.000130521 1.74028e-05)
(0.000150351 -0.000117865 1.74028e-05)
(0.000160052 -0.000104313 1.74028e-05)
(0.000168534 -8.99665e-05 1.74028e-05)
(0.000175734 -7.49353e-05 1.74027e-05)
(0.000181596 -5.93338e-05 1.74027e-05)
(0.000186076 -4.3281e-05 1.74027e-05)
(0.000189141 -2.68987e-05 1.74028e-05)
(0.000190765 -1.03115e-05 1.74028e-05)
(0.000190938 6.35401e-06 1.74028e-05)
(0.000189657 2.29711e-05 1.74028e-05)
(0.000186934 3.94135e-05 1.74028e-05)
(0.000182787 5.55558e-05 1.74028e-05)
(0.000177249 7.12752e-05 1.74028e-05)
(0.000170363 8.64525e-05 1.74027e-05)
(0.00016218 0.000100972 1.74027e-05)
(0.000152762 0.000114722 1.74027e-05)
(0.000142183 0.0001276 1.74028e-05)
(0.000130521 0.000139507 1.74028e-05)
(0.000117865 0.000150351 1.74028e-05)
(0.000104313 0.000160052 1.74028e-05)
(8.99665e-05 0.000168534 1.74028e-05)
(7.49353e-05 0.000175734 1.74027e-05)
(5.93338e-05 0.000181596 1.74027e-05)
(4.3281e-05 0.000186076 1.74027e-05)
(2.68987e-05 0.000189141 1.74028e-05)
(1.03115e-05 0.000190765 1.74028e-05)
(-6.35401e-06 0.000190938 1.74028e-05)
(-2.29711e-05 0.000189657 1.74028e-05)
(-3.94135e-05 0.000186934 1.74028e-05)
(-5.55558e-05 0.000182787 1.74028e-05)
(-7.12752e-05 0.000177249 1.74028e-05)
(-8.64525e-05 0.000170363 1.74027e-05)
(-0.000100972 0.00016218 1.74027e-05)
(-0.000114722 0.000152762 1.74027e-05)
(-0.0001276 0.000142183 1.74028e-05)
(-0.000139507 0.000130521 1.74028e-05)
(-0.000150351 0.000117865 1.74028e-05)
(-0.000160052 0.000104313 1.74028e-05)
(-0.000168534 8.99665e-05 1.74028e-05)
(-0.000175734 7.49353e-05 1.74027e-05)
(-0.000181596 5.93338e-05 1.74027e-05)
(-0.000186076 4.3281e-05 1.74027e-05)
(-0.000189141 2.68987e-05 1.74028e-05)
(-0.000190765 1.03115e-05 1.74028e-05)
(-0.000190938 -6.35401e-06 1.74028e-05)
(-0.000189657 -2.29712e-05 1.74028e-05)
(-0.000186934 -3.94135e-05 1.74028e-05)
(-0.000182787 -5.55558e-05 1.74028e-05)
(-0.000177249 -7.12752e-05 1.74028e-05)
(-0.000170363 -8.64525e-05 1.74027e-05)
(-0.00016218 -0.000100972 1.74027e-05)
(-0.000152762 -0.000114722 1.74027e-05)
(-0.000142183 -0.0001276 1.74028e-05)
(-0.000130521 -0.000139507 1.74028e-05)
(-0.000117865 -0.000150351 1.74028e-05)
(-0.000104313 -0.000160052 1.74028e-05)
(-8.99665e-05 -0.000168534 1.74028e-05)
(-7.49353e-05 -0.000175734 1.74027e-05)
(-5.93338e-05 -0.000181596 1.74027e-05)
(-4.3281e-05 -0.000186076 1.74027e-05)
(-2.68987e-05 -0.000189141 1.74028e-05)
(-1.03115e-05 -0.000190765 1.74028e-05)
(6.35401e-06 -0.000190938 1.74028e-05)
(2.29711e-05 -0.000189657 1.74028e-05)
(3.94135e-05 -0.000186934 1.74028e-05)
(5.55558e-05 -0.000182787 1.74028e-05)
(7.12752e-05 -0.000177249 1.74028e-05)
(8.64525e-05 -0.000170363 1.74027e-05)
(7.92648e-05 -0.000181787 2.56124e-05)
(9.4807e-05 -0.000174187 2.56124e-05)
(0.000109628 -0.000165261 2.56124e-05)
(0.000123614 -0.000155077 2.56124e-05)
(0.00013666 -0.000143714 2.56125e-05)
(0.000148665 -0.000131256 2.56124e-05)
(0.000159538 -0.000117799 2.56123e-05)
(0.000169198 -0.000103447 2.56123e-05)
(0.00017757 -8.83063e-05 2.56123e-05)
(0.000184591 -7.2494e-05 2.56123e-05)
(0.000190207 -5.613e-05 2.56124e-05)
(0.000194375 -3.93387e-05 2.56123e-05)
(0.000197064 -2.22481e-05 2.56124e-05)
(0.000198254 -4.9881e-06 2.56125e-05)
(0.000197934 1.23097e-05 2.56124e-05)
(0.000196108 2.95141e-05 2.56124e-05)
(0.000192789 4.64937e-05 2.56125e-05)
(0.000188003 6.31194e-05 2.56124e-05)
(0.000181787 7.92648e-05 2.56124e-05)
(0.000174187 9.4807e-05 2.56124e-05)
(0.000165261 0.000109628 2.56124e-05)
(0.000155077 0.000123614 2.56124e-05)
(0.000143714 0.00013666 2.56125e-05)
(0.000131256 0.000148665 2.56124e-05)
(0.000117799 0.000159538 2.56123e-05)
(0.000103447 0.000169198 2.56123e-05)
(8.83063e-05 0.00017757 2.56123e-05)
(7.2494e-05 0.000184591 2.56123e-05)
(5.613e-05 0.000190207 2.56124e-05)
(3.93387e-05 0.000194375 2.56123e-05)
(2.22481e-05 0.000197064 2.56124e-05)
(4.9881e-06 0.000198254 2.56125e-05)
(-1.23097e-05 0.000197934 2.56124e-05)
(-2.95141e-05 0.000196108 2.56124e-05)
(-4.64937e-05 0.000192789 2.56125e-05)
(-6.31194e-05 0.000188003 2.56124e-05)
(-7.92648e-05 0.000181787 2.56124e-05)
(-9.4807e-05 0.000174187 2.56124e-05)
(-0.000109628 0.000165261 2.56124e-05)
(-0.000123614 0.000155077 2.56124e-05)
(-0.00013666 0.000143714 2.56125e-05)
(-0.000148665 0.000131256 2.56124e-05)
(-0.000159538 0.000117799 2.56123e-05)
(-0.000169198 0.000103447 2.56123e-05)
(-0.00017757 8.83063e-05 2.56123e-05)
(-0.000184591 7.2494e-05 2.56123e-05)
(-0.000190207 5.613e-05 2.56124e-05)
(-0.000194375 3.93387e-05 2.56123e-05)
(-0.000197064 2.22481e-05 2.56124e-05)
(-0.000198254 4.9881e-06 2.56125e-05)
(-0.000197934 -1.23097e-05 2.56124e-05)
(-0.000196108 -2.95141e-05 2.56124e-05)
(-0.000192789 -4.64937e-05 2.56125e-05)
(-0.000188003 -6.31194e-05 2.56124e-05)
(-0.000181787 -7.92648e-05 2.56124e-05)
(-0.000174187 -9.4807e-05 2.56124e-05)
(-0.000165261 -0.000109628 2.56124e-05)
(-0.000155077 -0.000123614 2.56124e-05)
(-0.000143714 -0.00013666 2.56125e-05)
(-0.000131256 -0.000148665 2.56124e-05)
(-0.000117799 -0.000159538 2.56123e-05)
(-0.000103447 -0.000169198 2.56123e-05)
(-8.83063e-05 -0.00017757 2.56123e-05)
(-7.2494e-05 -0.000184591 2.56123e-05)
(-5.613e-05 -0.000190207 2.56124e-05)
(-3.93387e-05 -0.000194375 2.56123e-05)
(-2.22481e-05 -0.000197064 2.56124e-05)
(-4.9881e-06 -0.000198254 2.56125e-05)
(1.23097e-05 -0.000197934 2.56124e-05)
(2.95141e-05 -0.000196108 2.56124e-05)
(4.64937e-05 -0.000192789 2.56125e-05)
(6.31194e-05 -0.000188003 2.56124e-05)
(5.08427e-05 -0.000197667 2.84008e-05)
(6.78771e-05 -0.000192484 2.84008e-05)
(8.43951e-05 -0.000185836 2.8401e-05)
(0.00010027 -0.000177773 2.84008e-05)
(0.000115382 -0.000168357 2.84009e-05)
(0.000129617 -0.00015766 2.84009e-05)
(0.000142864 -0.000145764 2.84009e-05)
(0.000155025 -0.000132758 2.84009e-05)
(0.000166006 -0.000118741 2.84008e-05)
(0.000175723 -0.000103821 2.84009e-05)
(0.000184103 -8.81106e-05 2.84009e-05)
(0.000191081 -7.17296e-05 2.84009e-05)
(0.000196606 -5.48028e-05 2.84009e-05)
(0.000200634 -3.74586e-05 2.84007e-05)
(0.000203135 -1.98297e-05 2.84008e-05)
(0.000204091 -2.04993e-06 2.84009e-05)
(0.000203493 1.57456e-05 2.84008e-05)
(0.000201346 3.34214e-05 2.84008e-05)
(0.000197667 5.08427e-05 2.84008e-05)
(0.000192484 6.78771e-05 2.84008e-05)
(0.000185836 8.43951e-05 2.8401e-05)
(0.000177773 0.00010027 2.84008e-05)
(0.000168357 0.000115382 2.84009e-05)
(0.00015766 0.000129617 2.84009e-05)
(0.000145764 0.000142864 2.84009e-05)
(0.000132758 0.000155025 2.84009e-05)
(0.000118741 0.000166006 2.84008e-05)
(0.000103821 0.000175723 2.84009e-05)
(8.81106e-05 0.000184103 2.84009e-05)
(7.17296e-05 0.000191081 2.84009e-05)
(5.48028e-05 0.000196606 2.84009e-05)
(3.74586e-05 0.000200634 2.84007e-05)
(1.98297e-05 0.000203135 2.84008e-05)
(2.04993e-06 0.000204091 2.84009e-05)
(-1.57456e-05 0.000203493 2.84008e-05)
(-3.34214e-05 0.000201346 2.84008e-05)
(-5.08427e-05 0.000197667 2.84008e-05)
(-6.78771e-05 0.000192484 2.84008e-05)
(-8.43951e-05 0.000185836 2.8401e-05)
(-0.00010027 0.000177773 2.84008e-05)
(-0.000115382 0.000168357 2.84009e-05)
(-0.000129617 0.00015766 2.84009e-05)
(-0.000142864 0.000145764 2.84009e-05)
(-0.000155025 0.000132758 2.84009e-05)
(-0.000166006 0.000118741 2.84008e-05)
(-0.000175723 0.000103821 2.84009e-05)
(-0.000184103 8.81106e-05 2.84009e-05)
(-0.000191081 7.17296e-05 2.84009e-05)
(-0.000196606 5.48028e-05 2.84009e-05)
(-0.000200634 3.74586e-05 2.84007e-05)
(-0.000203135 1.98297e-05 2.84008e-05)
(-0.000204091 2.04992e-06 2.84009e-05)
(-0.000203493 -1.57456e-05 2.84008e-05)
(-0.000201346 -3.34214e-05 2.84008e-05)
(-0.000197667 -5.08427e-05 2.84008e-05)
(-0.000192484 -6.78771e-05 2.84008e-05)
(-0.000185836 -8.43951e-05 2.8401e-05)
(-0.000177773 -0.00010027 2.84008e-05)
(-0.000168357 -0.000115382 2.84009e-05)
(-0.00015766 -0.000129617 2.84009e-05)
(-0.000145764 -0.000142864 2.84009e-05)
(-0.000132758 -0.000155025 2.84009e-05)
(-0.000118741 -0.000166006 2.84008e-05)
(-0.000103821 -0.000175723 2.84009e-05)
(-8.81106e-05 -0.000184103 2.84009e-05)
(-7.17296e-05 -0.000191081 2.84009e-05)
(-5.48028e-05 -0.000196606 2.84009e-05)
(-3.74586e-05 -0.000200634 2.84007e-05)
(-1.98297e-05 -0.000203135 2.84008e-05)
(-2.04993e-06 -0.000204091 2.84009e-05)
(1.57456e-05 -0.000203493 2.84008e-05)
(3.34214e-05 -0.000201346 2.84008e-05)
(1.47623e-05 -0.000208922 3.14354e-05)
(3.29149e-05 -0.000206841 3.14355e-05)
(5.08168e-05 -0.000203185 3.14354e-05)
(6.83322e-05 -0.000197983 3.14355e-05)
(8.53275e-05 -0.000191274 3.14355e-05)
(0.000101673 -0.000183109 3.14354e-05)
(0.000117245 -0.00017355 3.14354e-05)
(0.000131925 -0.000162671 3.14354e-05)
(0.000145601 -0.000150555 3.14354e-05)
(0.000158169 -0.000137293 3.14355e-05)
(0.000169532 -0.000122984 3.14353e-05)
(0.000179606 -0.00010774 3.14354e-05)
(0.000188313 -9.16766e-05 3.14353e-05)
(0.000195586 -7.49152e-05 3.14353e-05)
(0.000201372 -5.75838e-05 3.14354e-05)
(0.000205624 -3.9814e-05 3.14354e-05)
(0.000208312 -2.17411e-05 3.14355e-05)
(0.000209414 -3.50273e-06 3.14354e-05)
(0.000208922 1.47623e-05 3.14354e-05)
(0.000206841 3.29149e-05 3.14355e-05)
(0.000203185 5.08168e-05 3.14354e-05)
(0.000197983 6.83322e-05 3.14355e-05)
(0.000191274 8.53275e-05 3.14355e-05)
(0.000183109 0.000101673 3.14354e-05)
(0.00017355 0.000117245 3.14354e-05)
(0.000162671 0.000131925 3.14354e-05)
(0.000150555 0.000145601 3.14354e-05)
(0.000137293 0.000158169 3.14355e-05)
(0.000122984 0.000169532 3.14353e-05)
(0.00010774 0.000179606 3.14354e-05)
(9.16766e-05 0.000188313 3.14353e-05)
(7.49152e-05 0.000195586 3.14353e-05)
(5.75838e-05 0.000201372 3.14354e-05)
(3.9814e-05 0.000205624 3.14354e-05)
(2.17411e-05 0.000208312 3.14355e-05)
(3.50273e-06 0.000209414 3.14354e-05)
(-1.47623e-05 0.000208922 3.14354e-05)
(-3.29149e-05 0.000206841 3.14355e-05)
(-5.08168e-05 0.000203185 3.14354e-05)
(-6.83322e-05 0.000197983 3.14355e-05)
(-8.53275e-05 0.000191274 3.14355e-05)
(-0.000101673 0.000183109 3.14354e-05)
(-0.000117245 0.00017355 3.14354e-05)
(-0.000131925 0.000162671 3.14354e-05)
(-0.000145601 0.000150555 3.14354e-05)
(-0.000158169 0.000137293 3.14355e-05)
(-0.000169532 0.000122984 3.14353e-05)
(-0.000179606 0.00010774 3.14354e-05)
(-0.000188313 9.16766e-05 3.14353e-05)
(-0.000195586 7.49152e-05 3.14353e-05)
(-0.000201372 5.75838e-05 3.14354e-05)
(-0.000205624 3.9814e-05 3.14354e-05)
(-0.000208312 2.17411e-05 3.14355e-05)
(-0.000209414 3.50273e-06 3.14354e-05)
(-0.000208922 -1.47623e-05 3.14354e-05)
(-0.000206841 -3.29149e-05 3.14355e-05)
(-0.000203185 -5.08168e-05 3.14354e-05)
(-0.000197983 -6.83322e-05 3.14355e-05)
(-0.000191274 -8.53275e-05 3.14355e-05)
(-0.000183109 -0.000101673 3.14354e-05)
(-0.00017355 -0.000117245 3.14354e-05)
(-0.000162671 -0.000131925 3.14354e-05)
(-0.000150555 -0.000145601 3.14354e-05)
(-0.000137293 -0.000158169 3.14355e-05)
(-0.000122984 -0.000169532 3.14353e-05)
(-0.00010774 -0.000179606 3.14354e-05)
(-9.16766e-05 -0.000188313 3.14353e-05)
(-7.49152e-05 -0.000195586 3.14353e-05)
(-5.75838e-05 -0.000201372 3.14354e-05)
(-3.9814e-05 -0.000205624 3.14354e-05)
(-2.17411e-05 -0.000208312 3.14355e-05)
(-3.50273e-06 -0.000209414 3.14354e-05)
(-3.74594e-05 -0.000217465 3.49826e-05)
(-1.83634e-05 -0.000219902 3.49826e-05)
(8.72154e-07 -0.000220666 3.49826e-05)
(2.01015e-05 -0.000219752 3.49827e-05)
(3.91777e-05 -0.000217163 3.49826e-05)
(5.79556e-05 -0.000212922 3.49826e-05)
(7.62922e-05 -0.00020706 3.49825e-05)
(9.4048e-05 -0.000199623 3.49825e-05)
(0.000111089 -0.000190667 3.49826e-05)
(0.000127284 -0.000180259 3.49826e-05)
(0.00014251 -0.000168479 3.49826e-05)
(0.000156652 -0.000155418 3.49826e-05)
(0.000169601 -0.000141173 3.49824e-05)
(0.00018126 -0.000125855 3.49823e-05)
(0.00019154 -0.000109578 3.49825e-05)
(0.00020036 -9.24671e-05 3.49825e-05)
(0.000207656 -7.46525e-05 3.49826e-05)
(0.000213373 -5.62701e-05 3.49827e-05)
(0.000217465 -3.74594e-05 3.49826e-05)
(0.000219902 -1.83634e-05 3.49826e-05)
(0.000220666 8.72154e-07 3.49826e-05)
(0.000219752 2.01015e-05 3.49827e-05)
(0.000217163 3.91777e-05 3.49826e-05)
(0.000212922 5.79556e-05 3.49826e-05)
(0.00020706 7.62922e-05 3.49825e-05)
(0.000199623 9.4048e-05 3.49825e-05)
(0.000190667 0.000111089 3.49826e-05)
(0.000180259 0.000127284 3.49826e-05)
(0.000168479 0.00014251 3.49826e-05)
(0.000155418 0.000156652 3.49826e-05)
(0.000141173 0.000169601 3.49824e-05)
(0.000125855 0.00018126 3.49823e-05)
(0.000109578 0.00019154 3.49825e-05)
(9.24671e-05 0.00020036 3.49825e-05)
(7.46525e-05 0.000207656 3.49826e-05)
(5.62701e-05 0.000213373 3.49827e-05)
(3.74594e-05 0.000217465 3.49826e-05)
(1.83634e-05 0.000219902 3.49826e-05)
(-8.72154e-07 0.000220666 3.49826e-05)
(-2.01015e-05 0.000219752 3.49827e-05)
(-3.91777e-05 0.000217163 3.49826e-05)
(-5.79556e-05 0.000212922 3.49826e-05)
(-7.62922e-05 0.00020706 3.49825e-05)
(-9.4048e-05 0.000199623 3.49825e-05)
(-0.000111089 0.000190667 3.49826e-05)
(-0.000127284 0.000180259 3.49826e-05)
(-0.00014251 0.000168479 3.49826e-05)
(-0.000156652 0.000155418 3.49826e-05)
(-0.000169601 0.000141173 3.49824e-05)
(-0.00018126 0.000125855 3.49823e-05)
(-0.00019154 0.000109578 3.49825e-05)
(-0.00020036 9.24671e-05 3.49825e-05)
(-0.000207656 7.46525e-05 3.49826e-05)
(-0.000213373 5.62701e-05 3.49827e-05)
(-0.000217465 3.74594e-05 3.49826e-05)
(-0.000219902 1.83634e-05 3.49826e-05)
(-0.000220666 -8.72154e-07 3.49826e-05)
(-0.000219752 -2.01015e-05 3.49827e-05)
(-0.000217163 -3.91777e-05 3.49826e-05)
(-0.000212922 -5.79556e-05 3.49826e-05)
(-0.00020706 -7.62922e-05 3.49825e-05)
(-0.000199623 -9.4048e-05 3.49825e-05)
(-0.000190667 -0.000111089 3.49826e-05)
(-0.000180259 -0.000127284 3.49826e-05)
(-0.000168479 -0.00014251 3.49826e-05)
(-0.000155418 -0.000156652 3.49826e-05)
(-0.000141173 -0.000169601 3.49824e-05)
(-0.000125855 -0.00018126 3.49823e-05)
(-0.000109578 -0.00019154 3.49825e-05)
(-9.24671e-05 -0.00020036 3.49825e-05)
(-7.46525e-05 -0.000207656 3.49826e-05)
(-5.62701e-05 -0.000213373 3.49827e-05)
(0.000290396 -0.000435886 2.48434e-05)
(0.000327282 -0.000408918 2.48432e-05)
(0.000361676 -0.000378838 2.48435e-05)
(0.000393317 -0.000345873 2.48435e-05)
(0.000421965 -0.000310278 2.48434e-05)
(0.000447402 -0.000272321 2.48431e-05)
(0.000469434 -0.000232291 2.48432e-05)
(0.000487893 -0.000190493 2.48429e-05)
(0.00050264 -0.000147245 2.48426e-05)
(0.00051356 -0.000102877 2.48429e-05)
(0.000520571 -5.77256e-05 2.48435e-05)
(0.000523621 -1.21352e-05 2.48435e-05)
(0.000522687 3.35475e-05 2.48435e-05)
(0.000517774 7.8975e-05 2.48437e-05)
(0.00050892 0.000123801 2.48437e-05)
(0.000496193 0.000167686 2.48435e-05)
(0.000479691 0.000210294 2.48433e-05)
(0.000459537 0.000251302 2.48433e-05)
(0.000435886 0.000290396 2.48434e-05)
(0.000408918 0.000327282 2.48432e-05)
(0.000378838 0.000361676 2.48435e-05)
(0.000345873 0.000393317 2.48435e-05)
(0.000310278 0.000421965 2.48434e-05)
(0.000272321 0.000447402 2.48431e-05)
(0.000232291 0.000469434 2.48432e-05)
(0.000190493 0.000487893 2.48429e-05)
(0.000147245 0.00050264 2.48426e-05)
(0.000102877 0.00051356 2.48429e-05)
(5.77256e-05 0.000520571 2.48435e-05)
(1.21352e-05 0.000523621 2.48435e-05)
(-3.35475e-05 0.000522687 2.48435e-05)
(-7.8975e-05 0.000517774 2.48437e-05)
(-0.000123801 0.00050892 2.48437e-05)
(-0.000167686 0.000496193 2.48435e-05)
(-0.000210294 0.000479691 2.48433e-05)
(-0.000251302 0.000459537 2.48433e-05)
(-0.000290396 0.000435886 2.48434e-05)
(-0.000327282 0.000408918 2.48432e-05)
(-0.000361676 0.000378838 2.48435e-05)
(-0.000393317 0.000345873 2.48435e-05)
(-0.000421965 0.000310278 2.48434e-05)
(-0.000447402 0.000272321 2.48431e-05)
(-0.000469434 0.000232291 2.48432e-05)
(-0.000487893 0.000190493 2.48429e-05)
(-0.00050264 0.000147245 2.48426e-05)
(-0.00051356 0.000102877 2.48429e-05)
(-0.000520571 5.77256e-05 2.48435e-05)
(-0.000523621 1.21352e-05 2.48435e-05)
(-0.000522687 -3.35475e-05 2.48435e-05)
(-0.000517774 -7.8975e-05 2.48437e-05)
(-0.00050892 -0.000123801 2.48437e-05)
(-0.000496193 -0.000167686 2.48435e-05)
(-0.000479691 -0.000210294 2.48433e-05)
(-0.000459537 -0.000251302 2.48433e-05)
(-0.000435886 -0.000290396 2.48434e-05)
(-0.000408918 -0.000327282 2.48432e-05)
(-0.000378838 -0.000361676 2.48435e-05)
(-0.000345873 -0.000393317 2.48435e-05)
(-0.000310278 -0.000421965 2.48434e-05)
(-0.000272321 -0.000447402 2.48431e-05)
(-0.000232291 -0.000469434 2.48432e-05)
(-0.000190493 -0.000487893 2.48429e-05)
(-0.000147245 -0.00050264 2.48426e-05)
(-0.000102877 -0.00051356 2.48429e-05)
(-5.77256e-05 -0.000520571 2.48435e-05)
(-1.21352e-05 -0.000523621 2.48435e-05)
(3.35475e-05 -0.000522687 2.48435e-05)
(7.8975e-05 -0.000517774 2.48437e-05)
(0.000123801 -0.00050892 2.48437e-05)
(0.000167686 -0.000496193 2.48435e-05)
(0.000210294 -0.000479691 2.48433e-05)
(0.000251302 -0.000459537 2.48433e-05)
(0.000255484 -0.000490034 7.48916e-05)
(0.000297221 -0.000465902 7.48916e-05)
(0.000336696 -0.000438225 7.48918e-05)
(0.000373608 -0.000407212 7.48919e-05)
(0.000407677 -0.0003731 7.48916e-05)
(0.000438644 -0.000336149 7.48915e-05)
(0.000466272 -0.00029664 7.48918e-05)
(0.000490352 -0.000254873 7.48916e-05)
(0.000510699 -0.000211166 7.48916e-05)
(0.00052716 -0.000165852 7.48917e-05)
(0.000539609 -0.000119276 7.48919e-05)
(0.000547951 -7.17917e-05 7.4892e-05)
(0.000552122 -2.37616e-05 7.48919e-05)
(0.000552093 2.44497e-05 7.48918e-05)
(0.000547861 7.24746e-05 7.4892e-05)
(0.00053946 0.000119948 7.4892e-05)
(0.000526953 0.000166509 7.48917e-05)
(0.000510436 0.000211802 7.48916e-05)
(0.000490034 0.000255484 7.48916e-05)
(0.000465902 0.000297221 7.48916e-05)
(0.000438225 0.000336696 7.48918e-05)
(0.000407212 0.000373608 7.48919e-05)
(0.0003731 0.000407677 7.48916e-05)
(0.000336149 0.000438644 7.48915e-05)
(0.00029664 0.000466272 7.48918e-05)
(0.000254873 0.000490352 7.48916e-05)
(0.000211166 0.000510699 7.48916e-05)
(0.000165852 0.00052716 7.48917e-05)
(0.000119276 0.000539609 7.48919e-05)
(7.17917e-05 0.000547951 7.4892e-05)
(2.37616e-05 0.000552122 7.48919e-05)
(-2.44497e-05 0.000552093 7.48918e-05)
(-7.24746e-05 0.000547861 7.4892e-05)
(-0.000119948 0.00053946 7.4892e-05)
(-0.000166509 0.000526953 7.48917e-05)
(-0.000211802 0.000510436 7.48916e-05)
(-0.000255484 0.000490034 7.48916e-05)
(-0.000297221 0.000465902 7.48916e-05)
(-0.000336696 0.000438225 7.48918e-05)
(-0.000373608 0.000407212 7.48919e-05)
(-0.000407677 0.0003731 7.48916e-05)
(-0.000438644 0.000336149 7.48915e-05)
(-0.000466272 0.00029664 7.48918e-05)
(-0.000490352 0.000254873 7.48916e-05)
(-0.000510699 0.000211166 7.48916e-05)
(-0.00052716 0.000165852 7.48917e-05)
(-0.000539609 0.000119276 7.48919e-05)
(-0.000547951 7.17917e-05 7.4892e-05)
(-0.000552122 2.37616e-05 7.48919e-05)
(-0.000552093 -2.44497e-05 7.48918e-05)
(-0.000547861 -7.24746e-05 7.4892e-05)
(-0.00053946 -0.000119948 7.4892e-05)
(-0.000526953 -0.000166509 7.48917e-05)
(-0.000510436 -0.000211802 7.48916e-05)
(-0.000490034 -0.000255484 7.48916e-05)
(-0.000465902 -0.000297221 7.48916e-05)
(-0.000438225 -0.000336696 7.48918e-05)
(-0.000407212 -0.000373608 7.48919e-05)
(-0.0003731 -0.000407677 7.48916e-05)
(-0.000336149 -0.000438644 7.48915e-05)
(-0.00029664 -0.000466272 7.48918e-05)
(-0.000254873 -0.000490352 7.48916e-05)
(-0.000211166 -0.000510699 7.48916e-05)
(-0.000165852 -0.00052716 7.48917e-05)
(-0.000119276 -0.000539609 7.48919e-05)
(-7.17917e-05 -0.000547951 7.4892e-05)
(-2.37616e-05 -0.000552122 7.48919e-05)
(2.44497e-05 -0.000552093 7.48918e-05)
(7.24746e-05 -0.000547861 7.4892e-05)
(0.000119948 -0.00053946 7.4892e-05)
(0.000166509 -0.000526953 7.48917e-05)
(0.000211802 -0.000510436 7.48916e-05)
(0.000204101 -0.000541801 0.000109317)
(0.000250545 -0.000521951 0.000109317)
(0.000295082 -0.000498128 0.000109317)
(0.000337375 -0.000470515 0.000109317)
(0.000377099 -0.00043932 0.000109317)
(0.000413953 -0.000404783 0.000109318)
(0.000447657 -0.000367164 0.000109318)
(0.000477953 -0.000326751 0.000109317)
(0.000504613 -0.000283851 0.000109317)
(0.000527432 -0.000238791 0.000109317)
(0.000546237 -0.000191913 0.000109317)
(0.000560885 -0.000143576 0.000109318)
(0.000571264 -9.41448e-05 0.000109318)
(0.000577295 -4.39973e-05 0.000109317)
(0.000578933 6.48434e-06 0.000109318)
(0.000576164 5.69175e-05 0.000109317)
(0.000569011 0.000106917 0.000109317)
(0.000557528 0.000156103 0.000109317)
(0.000541801 0.000204101 0.000109317)
(0.000521951 0.000250545 0.000109317)
(0.000498128 0.000295082 0.000109317)
(0.000470515 0.000337375 0.000109317)
(0.00043932 0.000377099 0.000109317)
(0.000404783 0.000413953 0.000109318)
(0.000367164 0.000447657 0.000109318)
(0.000326751 0.000477953 0.000109317)
(0.000283851 0.000504613 0.000109317)
(0.000238791 0.000527432 0.000109317)
(0.000191913 0.000546237 0.000109317)
(0.000143576 0.000560885 0.000109318)
(9.41448e-05 0.000571264 0.000109318)
(4.39973e-05 0.000577295 0.000109317)
(-6.48434e-06 0.000578933 0.000109318)
(-5.69175e-05 0.000576164 0.000109317)
(-0.000106917 0.000569011 0.000109317)
(-0.000156103 0.000557528 0.000109317)
(-0.000204101 0.000541801 0.000109317)
(-0.000250545 0.000521951 0.000109317)
(-0.000295082 0.000498128 0.000109317)
(-0.000337375 0.000470515 0.000109317)
(-0.000377099 0.00043932 0.000109317)
(-0.000413953 0.000404783 0.000109318)
(-0.000447657 0.000367164 0.000109318)
(-0.000477953 0.000326751 0.000109317)
(-0.000504613 0.000283851 0.000109317)
(-0.000527432 0.000238791 0.000109317)
(-0.000546237 0.000191913 0.000109317)
(-0.000560885 0.000143576 0.000109318)
(-0.000571264 9.41448e-05 0.000109318)
(-0.000577295 4.39973e-05 0.000109317)
(-0.000578933 -6.48434e-06 0.000109318)
(-0.000576164 -5.69175e-05 0.000109317)
(-0.000569011 -0.000106917 0.000109317)
(-0.000557528 -0.000156103 0.000109317)
(-0.000541801 -0.000204101 0.000109317)
(-0.000521951 -0.000250545 0.000109317)
(-0.000498128 -0.000295082 0.000109317)
(-0.000470515 -0.000337375 0.000109317)
(-0.00043932 -0.000377099 0.000109317)
(-0.000404783 -0.000413953 0.000109318)
(-0.000367164 -0.000447657 0.000109318)
(-0.000326751 -0.000477953 0.000109317)
(-0.000283851 -0.000504613 0.000109317)
(-0.000238791 -0.000527432 0.000109317)
(-0.000191913 -0.000546237 0.000109317)
(-0.000143576 -0.000560885 0.000109318)
(-9.41448e-05 -0.000571264 0.000109318)
(-4.39973e-05 -0.000577295 0.000109317)
(6.48434e-06 -0.000578933 0.000109318)
(5.69175e-05 -0.000576164 0.000109317)
(0.000106917 -0.000569011 0.000109317)
(0.000156103 -0.000557528 0.000109317)
(0.00014041 -0.000585903 0.000130187)
(0.000190941 -0.000571436 0.000130187)
(0.000240018 -0.00055262 0.000130187)
(0.000287269 -0.000529598 0.000130187)
(0.000332333 -0.000502545 0.000130187)
(0.000374867 -0.000471668 0.000130187)
(0.000414549 -0.000437202 0.000130187)
(0.000451077 -0.000399408 0.000130187)
(0.000484171 -0.000358574 0.000130187)
(0.00051358 -0.000315011 0.000130187)
(0.000539081 -0.000269051 0.000130187)
(0.000560479 -0.000221043 0.000130187)
(0.000577611 -0.000171353 0.000130187)
(0.000590348 -0.000120358 0.000130187)
(0.000598591 -6.84481e-05 0.000130187)
(0.000602279 -1.60172e-05 0.000130187)
(0.000601383 3.6536e-05 0.000130187)
(0.00059591 8.88112e-05 0.000130187)
(0.000585903 0.00014041 0.000130187)
(0.000571436 0.000190941 0.000130187)
(0.00055262 0.000240018 0.000130187)
(0.000529598 0.000287269 0.000130187)
(0.000502545 0.000332333 0.000130187)
(0.000471668 0.000374867 0.000130187)
(0.000437202 0.000414549 0.000130187)
(0.000399408 0.000451077 0.000130187)
(0.000358574 0.000484171 0.000130187)
(0.000315011 0.00051358 0.000130187)
(0.000269051 0.000539081 0.000130187)
(0.000221043 0.000560479 0.000130187)
(0.000171353 0.000577611 0.000130187)
(0.000120358 0.000590348 0.000130187)
(6.8448e-05 0.000598591 0.000130187)
(1.60172e-05 0.000602279 0.000130187)
(-3.6536e-05 0.000601383 0.000130187)
(-8.88112e-05 0.00059591 0.000130187)
(-0.00014041 0.000585903 0.000130187)
(-0.000190941 0.000571436 0.000130187)
(-0.000240018 0.00055262 0.000130187)
(-0.000287269 0.000529598 0.000130187)
(-0.000332333 0.000502545 0.000130187)
(-0.000374867 0.000471668 0.000130187)
(-0.000414549 0.000437202 0.000130187)
(-0.000451077 0.000399408 0.000130187)
(-0.000484171 0.000358574 0.000130187)
(-0.00051358 0.000315011 0.000130187)
(-0.000539081 0.000269051 0.000130187)
(-0.000560479 0.000221043 0.000130187)
(-0.000577611 0.000171353 0.000130187)
(-0.000590348 0.000120358 0.000130187)
(-0.000598591 6.8448e-05 0.000130187)
(-0.000602279 1.60172e-05 0.000130187)
(-0.000601383 -3.6536e-05 0.000130187)
(-0.00059591 -8.88112e-05 0.000130187)
(-0.000585903 -0.00014041 0.000130187)
(-0.000571436 -0.000190941 0.000130187)
(-0.00055262 -0.000240018 0.000130187)
(-0.000529598 -0.000287269 0.000130187)
(-0.000502545 -0.000332333 0.000130187)
(-0.000471668 -0.000374867 0.000130187)
(-0.000437202 -0.000414549 0.000130187)
(-0.000399408 -0.000451077 0.000130187)
(-0.000358574 -0.000484171 0.000130187)
(-0.000315011 -0.00051358 0.000130187)
(-0.000269051 -0.000539081 0.000130187)
(-0.000221043 -0.000560479 0.000130187)
(-0.000171353 -0.000577611 0.000130187)
(-0.000120358 -0.000590348 0.000130187)
(-6.84481e-05 -0.000598591 0.000130187)
(-1.60172e-05 -0.000602279 0.000130187)
(3.6536e-05 -0.000601383 0.000130187)
(8.88112e-05 -0.00059591 0.000130187)
(6.50109e-05 -0.000618784 0.000145454)
(0.000118694 -0.000610764 0.000145454)
(0.000171474 -0.000598095 0.000145454)
(0.000222949 -0.000580874 0.000145454)
(0.000272727 -0.000559232 0.000145454)
(0.000320429 -0.000533334 0.000145454)
(0.000365693 -0.000503378 0.000145454)
(0.000408173 -0.000469589 0.000145454)
(0.000447547 -0.000432228 0.000145454)
(0.000483515 -0.000391577 0.000145454)
(0.000515804 -0.000347946 0.000145454)
(0.000544167 -0.000301667 0.000145454)
(0.000568388 -0.000253091 0.000145454)
(0.000588283 -0.000202589 0.000145454)
(0.000603702 -0.000150547 0.000145454)
(0.000614526 -9.73579e-05 0.000145454)
(0.000620673 -4.3428e-05 0.000145454)
(0.000622096 1.08327e-05 0.000145454)
(0.000618784 6.50109e-05 0.000145454)
(0.000610764 0.000118694 0.000145454)
(0.000598095 0.000171474 0.000145454)
(0.000580874 0.000222949 0.000145454)
(0.000559232 0.000272727 0.000145454)
(0.000533334 0.000320429 0.000145454)
(0.000503378 0.000365693 0.000145454)
(0.000469589 0.000408173 0.000145454)
(0.000432228 0.000447547 0.000145454)
(0.000391577 0.000483515 0.000145454)
(0.000347946 0.000515804 0.000145454)
(0.000301667 0.000544167 0.000145454)