/*--------------------------------*- C++ -*----------------------------------*\
| =========                 |                                                 |
| \\      /  F ield         | OpenFOAM: The Open Source CFD Toolbox           |
|  \\    /   O peration     | Version:  2312                                  |
|   \\  /    A nd           | Website:  www.openfoam.com                      |
|    \\/     M anipulation  |                                                 |
\*---------------------------------------------------------------------------*/
FoamFile
{
    version     2.0;
    format      ascii;
    arch        "LSB;label=32;scalar=64";
    class       volVectorField;
    location    "0.7";
    object      D_0_0_0;
}
// * * * * * * * * * * * * * * * * * * * * * * * * * * * * * * * * * * * * * //

dimensions      [0 1 0 0 0 0 0];

internalField   nonuniform List<vector> 
12960
(
(0.000112223 -0.000139717 3.56429e-08)
(0.000123973 -0.000129405 3.56379e-08)
(0.00013478 -0.000118107 3.56731e-08)
(0.00014456 -0.000105911 3.55892e-08)
(0.000153241 -9.29084e-05 3.55763e-08)
(0.000160755 -7.91989e-05 3.56633e-08)
(0.000167046 -6.48868e-05 3.56039e-08)
(0.000172066 -5.00809e-05 3.54444e-08)
(0.000175776 -3.48937e-05 3.53529e-08)
(0.000178148 -1.94411e-05 3.54903e-08)
(0.000179165 -3.84043e-06 3.56411e-08)
(0.000178818 1.17896e-05 3.57702e-08)
(0.00017711 2.73296e-05 3.57881e-08)
(0.000174054 4.26618e-05 3.57602e-08)
(0.000169673 5.76693e-05 3.56397e-08)
(0.000164002 7.22379e-05 3.56575e-08)
(0.000157081 8.62566e-05 3.56322e-08)
(0.000148966 9.96191e-05 3.54911e-08)
(0.000139717 0.000112223 3.56429e-08)
(0.000129405 0.000123973 3.56379e-08)
(0.000118107 0.00013478 3.56731e-08)
(0.000105911 0.00014456 3.55892e-08)
(9.29084e-05 0.000153241 3.55763e-08)
(7.91989e-05 0.000160755 3.56633e-08)
(6.48868e-05 0.000167046 3.56039e-08)
(5.00809e-05 0.000172066 3.54444e-08)
(3.48937e-05 0.000175776 3.53529e-08)
(1.94411e-05 0.000178148 3.54903e-08)
(3.84043e-06 0.000179165 3.56411e-08)
(-1.17896e-05 0.000178818 3.57702e-08)
(-2.73296e-05 0.000177109 3.57881e-08)
(-4.26618e-05 0.000174054 3.57602e-08)
(-5.76693e-05 0.000169673 3.56397e-08)
(-7.22379e-05 0.000164002 3.56575e-08)
(-8.62566e-05 0.000157081 3.56322e-08)
(-9.96191e-05 0.000148966 3.5491e-08)
(-0.000112223 0.000139717 3.56429e-08)
(-0.000123973 0.000129405 3.56379e-08)
(-0.00013478 0.000118107 3.56731e-08)
(-0.00014456 0.000105911 3.55892e-08)
(-0.000153241 9.29084e-05 3.55763e-08)
(-0.000160755 7.91989e-05 3.56633e-08)
(-0.000167046 6.48868e-05 3.56039e-08)
(-0.000172066 5.00809e-05 3.54444e-08)
(-0.000175776 3.48937e-05 3.53529e-08)
(-0.000178148 1.94411e-05 3.54902e-08)
(-0.000179165 3.84043e-06 3.56411e-08)
(-0.000178818 -1.17896e-05 3.57702e-08)
(-0.000177109 -2.73296e-05 3.5788e-08)
(-0.000174054 -4.26618e-05 3.57602e-08)
(-0.000169673 -5.76693e-05 3.56396e-08)
(-0.000164002 -7.22379e-05 3.56575e-08)
(-0.000157081 -8.62566e-05 3.56322e-08)
(-0.000148966 -9.96191e-05 3.5491e-08)
(-0.000139717 -0.000112223 3.56429e-08)
(-0.000129405 -0.000123973 3.56379e-08)
(-0.000118107 -0.00013478 3.56731e-08)
(-0.000105911 -0.00014456 3.55892e-08)
(-9.29084e-05 -0.000153241 3.55763e-08)
(-7.91989e-05 -0.000160755 3.56633e-08)
(-6.48868e-05 -0.000167046 3.56039e-08)
(-5.00809e-05 -0.000172066 3.54444e-08)
(-3.48937e-05 -0.000175776 3.53529e-08)
(-1.94411e-05 -0.000178148 3.54903e-08)
(-3.84043e-06 -0.000179165 3.56411e-08)
(1.17896e-05 -0.000178818 3.57702e-08)
(2.73296e-05 -0.000177109 3.57881e-08)
(4.26618e-05 -0.000174054 3.57602e-08)
(5.76693e-05 -0.000169673 3.56397e-08)
(7.22379e-05 -0.000164002 3.56575e-08)
(8.62566e-05 -0.000157081 3.56322e-08)
(9.96191e-05 -0.000148966 3.54911e-08)
(0.000100028 -0.000160092 1.71099e-05)
(0.0001136 -0.000150765 1.71099e-05)
(0.000126308 -0.00014029 1.711e-05)
(0.000138055 -0.000128748 1.711e-05)
(0.000148751 -0.000116226 1.711e-05)
(0.000158315 -0.000102819 1.711e-05)
(0.000166673 -8.863e-05 1.711e-05)
(0.000173764 -7.37661e-05 1.71099e-05)
(0.000179531 -5.83408e-05 1.71099e-05)
(0.000183933 -4.24717e-05 1.71099e-05)
(0.000186935 -2.62793e-05 1.711e-05)
(0.000188514 -9.88666e-06 1.711e-05)
(0.000188658 6.58097e-06 1.711e-05)
(0.000187366 2.29985e-05 1.71101e-05)
(0.000184649 3.92411e-05 1.71101e-05)
(0.000180526 5.5185e-05 1.711e-05)
(0.000175029 7.07088e-05 1.711e-05)
(0.000168201 8.56946e-05 1.71099e-05)
(0.000160092 0.000100028 1.71099e-05)
(0.000150765 0.0001136 1.71099e-05)
(0.00014029 0.000126308 1.711e-05)
(0.000128748 0.000138055 1.711e-05)
(0.000116226 0.000148751 1.711e-05)
(0.000102819 0.000158315 1.711e-05)
(8.863e-05 0.000166673 1.711e-05)
(7.37661e-05 0.000173764 1.71099e-05)
(5.83408e-05 0.000179531 1.71099e-05)
(4.24717e-05 0.000183933 1.71099e-05)
(2.62793e-05 0.000186935 1.711e-05)
(9.88666e-06 0.000188514 1.711e-05)
(-6.58097e-06 0.000188658 1.711e-05)
(-2.29985e-05 0.000187366 1.71101e-05)
(-3.92411e-05 0.000184649 1.71101e-05)
(-5.5185e-05 0.000180526 1.711e-05)
(-7.07088e-05 0.000175029 1.711e-05)
(-8.56946e-05 0.000168201 1.71099e-05)
(-0.000100028 0.000160092 1.71099e-05)
(-0.0001136 0.000150765 1.71099e-05)
(-0.000126308 0.00014029 1.711e-05)
(-0.000138055 0.000128748 1.711e-05)
(-0.000148751 0.000116226 1.711e-05)
(-0.000158315 0.000102819 1.711e-05)
(-0.000166673 8.863e-05 1.711e-05)
(-0.000173764 7.37661e-05 1.71099e-05)
(-0.000179531 5.83408e-05 1.71099e-05)
(-0.000183933 4.24717e-05 1.71099e-05)
(-0.000186935 2.62793e-05 1.711e-05)
(-0.000188514 9.88666e-06 1.711e-05)
(-0.000188658 -6.58097e-06 1.711e-05)
(-0.000187366 -2.29985e-05 1.71101e-05)
(-0.000184649 -3.92411e-05 1.71101e-05)
(-0.000180526 -5.5185e-05 1.711e-05)
(-0.000175029 -7.07088e-05 1.711e-05)
(-0.000168201 -8.56946e-05 1.71099e-05)
(-0.000160092 -0.000100028 1.71099e-05)
(-0.000150765 -0.0001136 1.71099e-05)
(-0.00014029 -0.000126308 1.711e-05)
(-0.000128748 -0.000138055 1.711e-05)
(-0.000116226 -0.000148751 1.711e-05)
(-0.000102819 -0.000158315 1.711e-05)
(-8.863e-05 -0.000166673 1.711e-05)
(-7.37661e-05 -0.000173764 1.71099e-05)
(-5.83408e-05 -0.000179531 1.71099e-05)
(-4.24717e-05 -0.000183933 1.71099e-05)
(-2.62793e-05 -0.000186935 1.711e-05)
(-9.88666e-06 -0.000188514 1.711e-05)
(6.58097e-06 -0.000188658 1.711e-05)
(2.29985e-05 -0.000187366 1.71101e-05)
(3.92411e-05 -0.000184649 1.71101e-05)
(5.5185e-05 -0.000180526 1.711e-05)
(7.07088e-05 -0.000175029 1.711e-05)
(8.56946e-05 -0.000168201 1.71099e-05)
(7.87982e-05 -0.000179216 2.50217e-05)
(9.41181e-05 -0.000171667 2.50218e-05)
(0.000108722 -0.000162811 2.50218e-05)
(0.000122498 -0.000152715 2.50218e-05)
(0.000135342 -0.000141458 2.50219e-05)
(0.000147155 -0.000129124 2.50217e-05)
(0.000157849 -0.000115807 2.50217e-05)
(0.000167342 -0.000101609 2.50217e-05)
(0.000175561 -8.66371e-05 2.50217e-05)
(0.000182443 -7.10064e-05 2.50217e-05)
(0.000187938 -5.48352e-05 2.50218e-05)
(0.000192002 -3.82466e-05 2.50217e-05)
(0.000194605 -2.1367e-05 2.50218e-05)
(0.000195727 -4.32467e-06 2.50218e-05)
(0.000195359 1.27504e-05 2.50218e-05)
(0.000193504 2.97286e-05 2.50218e-05)
(0.000190177 4.64805e-05 2.50218e-05)
(0.000185402 6.28786e-05 2.50217e-05)
(0.000179216 7.87982e-05 2.50217e-05)
(0.000171667 9.41181e-05 2.50218e-05)
(0.000162811 0.000108722 2.50218e-05)
(0.000152715 0.000122498 2.50218e-05)
(0.000141458 0.000135342 2.50219e-05)
(0.000129124 0.000147155 2.50217e-05)
(0.000115807 0.000157849 2.50217e-05)
(0.000101609 0.000167342 2.50217e-05)
(8.66371e-05 0.000175561 2.50217e-05)
(7.10064e-05 0.000182443 2.50217e-05)
(5.48352e-05 0.000187938 2.50218e-05)
(3.82466e-05 0.000192002 2.50217e-05)
(2.1367e-05 0.000194605 2.50218e-05)
(4.32467e-06 0.000195727 2.50218e-05)
(-1.27504e-05 0.000195359 2.50218e-05)
(-2.97286e-05 0.000193504 2.50218e-05)
(-4.64805e-05 0.000190177 2.50218e-05)
(-6.28786e-05 0.000185402 2.50217e-05)
(-7.87982e-05 0.000179216 2.50217e-05)
(-9.41181e-05 0.000171667 2.50218e-05)
(-0.000108722 0.000162811 2.50218e-05)
(-0.000122498 0.000152715 2.50218e-05)
(-0.000135342 0.000141458 2.50219e-05)
(-0.000147155 0.000129124 2.50217e-05)
(-0.000157849 0.000115807 2.50217e-05)
(-0.000167342 0.000101609 2.50217e-05)
(-0.000175561 8.66371e-05 2.50217e-05)
(-0.000182443 7.10064e-05 2.50217e-05)
(-0.000187938 5.48352e-05 2.50218e-05)
(-0.000192002 3.82466e-05 2.50217e-05)
(-0.000194605 2.1367e-05 2.50218e-05)
(-0.000195727 4.32467e-06 2.50218e-05)
(-0.000195359 -1.27504e-05 2.50218e-05)
(-0.000193504 -2.97286e-05 2.50218e-05)
(-0.000190177 -4.64805e-05 2.50218e-05)
(-0.000185402 -6.28786e-05 2.50217e-05)
(-0.000179216 -7.87982e-05 2.50217e-05)
(-0.000171667 -9.41181e-05 2.50218e-05)
(-0.000162811 -0.000108722 2.50218e-05)
(-0.000152715 -0.000122498 2.50218e-05)
(-0.000141458 -0.000135342 2.50219e-05)
(-0.000129124 -0.000147155 2.50217e-05)
(-0.000115807 -0.000157849 2.50217e-05)
(-0.000101609 -0.000167342 2.50217e-05)
(-8.66371e-05 -0.000175561 2.50217e-05)
(-7.10064e-05 -0.000182443 2.50217e-05)
(-5.48352e-05 -0.000187938 2.50218e-05)
(-3.82466e-05 -0.000192002 2.50217e-05)
(-2.1367e-05 -0.000194605 2.50218e-05)
(-4.32467e-06 -0.000195727 2.50218e-05)
(1.27504e-05 -0.000195359 2.50218e-05)
(2.97286e-05 -0.000193504 2.50218e-05)
(4.64805e-05 -0.000190177 2.50218e-05)
(6.28786e-05 -0.000185402 2.50217e-05)
(5.101e-05 -0.000194754 2.77692e-05)
(6.77898e-05 -0.000189567 2.77692e-05)
(8.40539e-05 -0.000182938 2.77693e-05)
(9.96777e-05 -0.000174915 2.77692e-05)
(0.000114543 -0.000165562 2.77692e-05)
(0.000128537 -0.000154949 2.77692e-05)
(0.000141553 -0.000143157 2.77693e-05)
(0.000153491 -0.000130275 2.77693e-05)
(0.000164261 -0.000116402 2.77692e-05)
(0.000173782 -0.000101643 2.77692e-05)
(0.000181979 -8.61098e-05 2.77693e-05)
(0.000188791 -6.99216e-05 2.77692e-05)
(0.000194167 -5.32013e-05 2.77692e-05)
(0.000198064 -3.60759e-05 2.77691e-05)
(0.000200455 -1.86762e-05 2.77692e-05)
(0.000201321 -1.13437e-06 2.77693e-05)
(0.000200653 1.64162e-05 2.77692e-05)
(0.000198459 3.38419e-05 2.77692e-05)
(0.000194754 5.101e-05 2.77692e-05)
(0.000189567 6.77898e-05 2.77692e-05)
(0.000182938 8.40539e-05 2.77693e-05)
(0.000174915 9.96777e-05 2.77692e-05)
(0.000165562 0.000114543 2.77692e-05)
(0.000154949 0.000128537 2.77692e-05)
(0.000143157 0.000141553 2.77693e-05)
(0.000130275 0.000153491 2.77693e-05)
(0.000116402 0.000164261 2.77692e-05)
(0.000101643 0.000173782 2.77692e-05)
(8.61098e-05 0.000181979 2.77693e-05)
(6.99216e-05 0.000188791 2.77692e-05)
(5.32013e-05 0.000194167 2.77692e-05)
(3.60759e-05 0.000198064 2.77691e-05)
(1.86762e-05 0.000200455 2.77692e-05)
(1.13437e-06 0.000201321 2.77693e-05)
(-1.64162e-05 0.000200653 2.77692e-05)
(-3.38419e-05 0.000198459 2.77692e-05)
(-5.101e-05 0.000194754 2.77692e-05)
(-6.77898e-05 0.000189567 2.77692e-05)
(-8.40539e-05 0.000182938 2.77693e-05)
(-9.96777e-05 0.000174915 2.77692e-05)
(-0.000114543 0.000165562 2.77692e-05)
(-0.000128537 0.000154949 2.77692e-05)
(-0.000141553 0.000143157 2.77693e-05)
(-0.000153491 0.000130275 2.77693e-05)
(-0.000164261 0.000116402 2.77692e-05)
(-0.000173782 0.000101643 2.77692e-05)
(-0.000181979 8.61098e-05 2.77693e-05)
(-0.000188791 6.99216e-05 2.77692e-05)
(-0.000194167 5.32013e-05 2.77692e-05)
(-0.000198064 3.60759e-05 2.77691e-05)
(-0.000200455 1.86762e-05 2.77692e-05)
(-0.000201321 1.13437e-06 2.77693e-05)
(-0.000200653 -1.64162e-05 2.77692e-05)
(-0.000198459 -3.38419e-05 2.77692e-05)
(-0.000194754 -5.101e-05 2.77692e-05)
(-0.000189567 -6.77898e-05 2.77692e-05)
(-0.000182938 -8.40539e-05 2.77693e-05)
(-0.000174915 -9.96777e-05 2.77692e-05)
(-0.000165562 -0.000114543 2.77692e-05)
(-0.000154949 -0.000128537 2.77692e-05)
(-0.000143157 -0.000141553 2.77693e-05)
(-0.000130275 -0.000153491 2.77693e-05)
(-0.000116402 -0.000164261 2.77692e-05)
(-0.000101643 -0.000173782 2.77692e-05)
(-8.61098e-05 -0.000181979 2.77693e-05)
(-6.99216e-05 -0.000188791 2.77692e-05)
(-5.32013e-05 -0.000194167 2.77692e-05)
(-3.60759e-05 -0.000198064 2.77691e-05)
(-1.86762e-05 -0.000200455 2.77692e-05)
(-1.13437e-06 -0.000201321 2.77693e-05)
(1.64162e-05 -0.000200653 2.77692e-05)
(3.38419e-05 -0.000198459 2.77692e-05)
(1.56944e-05 -0.000205825 3.08112e-05)
(3.35735e-05 -0.000203674 3.08113e-05)
(5.11968e-05 -0.000199972 3.08113e-05)
(6.84308e-05 -0.000194749 3.08113e-05)
(8.51438e-05 -0.000188044 3.08113e-05)
(0.000101209 -0.000179907 3.08113e-05)
(0.000116503 -0.000170402 3.08112e-05)
(0.000130912 -0.000159599 3.08112e-05)
(0.000144324 -0.000147583 3.08113e-05)
(0.000156638 -0.000134443 3.08113e-05)
(0.000167758 -0.000120279 3.08112e-05)
(0.000177603 -0.0001052 3.08112e-05)
(0.000186096 -8.93204e-05 3.08112e-05)
(0.000193173 -7.27612e-05 3.08111e-05)
(0.000198779 -5.56484e-05 3.08113e-05)
(0.000202873 -3.81119e-05 3.08113e-05)
(0.000205423 -2.02852e-05 3.08114e-05)
(0.000206409 -2.30418e-06 3.08112e-05)
(0.000205825 1.56944e-05 3.08112e-05)
(0.000203674 3.35735e-05 3.08113e-05)
(0.000199972 5.11968e-05 3.08113e-05)
(0.000194749 6.84308e-05 3.08113e-05)
(0.000188044 8.51438e-05 3.08113e-05)
(0.000179907 0.000101209 3.08113e-05)
(0.000170402 0.000116503 3.08112e-05)
(0.000159599 0.000130912 3.08112e-05)
(0.000147583 0.000144324 3.08113e-05)
(0.000134443 0.000156638 3.08113e-05)
(0.000120279 0.000167758 3.08112e-05)
(0.0001052 0.000177603 3.08112e-05)
(8.93204e-05 0.000186096 3.08112e-05)
(7.27612e-05 0.000193173 3.08111e-05)
(5.56484e-05 0.000198779 3.08113e-05)
(3.81119e-05 0.000202873 3.08113e-05)
(2.02852e-05 0.000205423 3.08114e-05)
(2.30418e-06 0.000206409 3.08112e-05)
(-1.56944e-05 0.000205825 3.08112e-05)
(-3.35735e-05 0.000203674 3.08113e-05)
(-5.11968e-05 0.000199972 3.08113e-05)
(-6.84308e-05 0.000194749 3.08113e-05)
(-8.51438e-05 0.000188044 3.08113e-05)
(-0.000101209 0.000179907 3.08113e-05)
(-0.000116503 0.000170402 3.08112e-05)
(-0.000130912 0.000159599 3.08112e-05)
(-0.000144324 0.000147583 3.08113e-05)
(-0.000156638 0.000134443 3.08113e-05)
(-0.000167758 0.000120279 3.08112e-05)
(-0.000177603 0.0001052 3.08112e-05)
(-0.000186096 8.93204e-05 3.08112e-05)
(-0.000193173 7.27612e-05 3.08111e-05)
(-0.000198779 5.56484e-05 3.08113e-05)
(-0.000202873 3.81119e-05 3.08113e-05)
(-0.000205423 2.02852e-05 3.08114e-05)
(-0.000206409 2.30418e-06 3.08112e-05)
(-0.000205825 -1.56944e-05 3.08112e-05)
(-0.000203674 -3.35735e-05 3.08113e-05)
(-0.000199972 -5.11968e-05 3.08113e-05)
(-0.000194749 -6.84308e-05 3.08113e-05)
(-0.000188044 -8.51438e-05 3.08113e-05)
(-0.000179907 -0.000101209 3.08113e-05)
(-0.000170402 -0.000116503 3.08112e-05)
(-0.000159599 -0.000130912 3.08112e-05)
(-0.000147583 -0.000144324 3.08113e-05)
(-0.000134443 -0.000156638 3.08113e-05)
(-0.000120279 -0.000167758 3.08112e-05)
(-0.0001052 -0.000177603 3.08112e-05)
(-8.93204e-05 -0.000186096 3.08112e-05)
(-7.27612e-05 -0.000193173 3.08111e-05)
(-5.56484e-05 -0.000198779 3.08113e-05)
(-3.81119e-05 -0.000202873 3.08113e-05)
(-2.02852e-05 -0.000205423 3.08114e-05)
(-2.30418e-06 -0.000206409 3.08112e-05)
(-3.55203e-05 -0.000214276 3.43452e-05)
(-1.67097e-05 -0.000216556 3.43452e-05)
(2.22787e-06 -0.000217188 3.43452e-05)
(2.11489e-05 -0.000216169 3.43454e-05)
(3.99089e-05 -0.000213502 3.43452e-05)
(5.83649e-05 -0.000209212 3.43452e-05)
(7.63766e-05 -0.000203328 3.43451e-05)
(9.38068e-05 -0.000195897 3.43451e-05)
(0.000110524 -0.000186977 3.43452e-05)
(0.000126399 -0.000176632 3.43453e-05)
(0.000141313 -0.000164944 3.43452e-05)
(0.000155151 -0.000152 3.43452e-05)
(0.000167808 -0.000137899 3.4345e-05)
(0.000179189 -0.000122749 3.4345e-05)
(0.000189205 -0.000106665 3.43451e-05)
(0.000197781 -8.97685e-05 3.43452e-05)
(0.000204852 -7.2189e-05 3.43452e-05)
(0.000210365 -5.40604e-05 3.43453e-05)
(0.000214276 -3.55203e-05 3.43452e-05)
(0.000216556 -1.67097e-05 3.43452e-05)
(0.000217188 2.22787e-06 3.43452e-05)
(0.000216169 2.11489e-05 3.43454e-05)
(0.000213502 3.99089e-05 3.43452e-05)
(0.000209212 5.83649e-05 3.43452e-05)
(0.000203328 7.63766e-05 3.43451e-05)
(0.000195897 9.38068e-05 3.43451e-05)
(0.000186977 0.000110524 3.43452e-05)
(0.000176632 0.000126399 3.43453e-05)
(0.000164944 0.000141313 3.43452e-05)
(0.000152 0.000155151 3.43452e-05)
(0.000137899 0.000167808 3.4345e-05)
(0.000122749 0.000179189 3.4345e-05)
(0.000106665 0.000189205 3.43451e-05)
(8.97685e-05 0.000197781 3.43452e-05)
(7.2189e-05 0.000204852 3.43452e-05)
(5.40604e-05 0.000210365 3.43453e-05)
(3.55203e-05 0.000214276 3.43452e-05)
(1.67097e-05 0.000216556 3.43452e-05)
(-2.22787e-06 0.000217188 3.43452e-05)
(-2.11489e-05 0.000216169 3.43454e-05)
(-3.99089e-05 0.000213502 3.43452e-05)
(-5.83649e-05 0.000209212 3.43452e-05)
(-7.63766e-05 0.000203328 3.43451e-05)
(-9.38068e-05 0.000195897 3.43451e-05)
(-0.000110524 0.000186977 3.43452e-05)
(-0.000126399 0.000176632 3.43453e-05)
(-0.000141313 0.000164944 3.43452e-05)
(-0.000155151 0.000152 3.43452e-05)
(-0.000167808 0.000137899 3.4345e-05)
(-0.000179189 0.000122749 3.4345e-05)
(-0.000189205 0.000106665 3.43451e-05)
(-0.000197781 8.97685e-05 3.43452e-05)
(-0.000204852 7.2189e-05 3.43452e-05)
(-0.000210365 5.40604e-05 3.43453e-05)
(-0.000214276 3.55203e-05 3.43452e-05)
(-0.000216556 1.67097e-05 3.43452e-05)
(-0.000217188 -2.22787e-06 3.43452e-05)
(-0.000216169 -2.11489e-05 3.43454e-05)
(-0.000213502 -3.99089e-05 3.43452e-05)
(-0.000209212 -5.83649e-05 3.43452e-05)
(-0.000203328 -7.63766e-05 3.43451e-05)
(-0.000195897 -9.38068e-05 3.43451e-05)
(-0.000186977 -0.000110524 3.43452e-05)
(-0.000176632 -0.000126399 3.43453e-05)
(-0.000164944 -0.000141313 3.43452e-05)
(-0.000152 -0.000155151 3.43452e-05)
(-0.000137899 -0.000167808 3.4345e-05)
(-0.000122749 -0.000179189 3.4345e-05)
(-0.000106665 -0.000189205 3.43451e-05)
(-8.97685e-05 -0.000197781 3.43452e-05)
(-7.2189e-05 -0.000204852 3.43452e-05)
(-5.40604e-05 -0.000210365 3.43453e-05)
(0.000287776 -0.0004308 2.53904e-05)
(0.000324227 -0.000404079 2.53902e-05)
(0.000358211 -0.000374283 2.53905e-05)
(0.000389469 -0.000341638 2.53905e-05)
(0.000417763 -0.000306395 2.53903e-05)
(0.000442877 -0.000268818 2.53901e-05)
(0.000464621 -0.000229196 2.53902e-05)
(0.000482828 -0.000187829 2.53899e-05)
(0.000497362 -0.000145033 2.53897e-05)
(0.00050811 -0.000101133 2.53899e-05)
(0.00051499 -5.64637e-05 2.53904e-05)
(0.000517951 -1.13645e-05 2.53905e-05)
(0.000516971 3.38211e-05 2.53905e-05)
(0.000512056 7.87494e-05 2.53907e-05)
(0.000503243 0.000123078 2.53907e-05)
(0.000490602 0.000166471 2.53904e-05)
(0.000474226 0.000208596 2.53903e-05)
(0.000454241 0.000249134 2.53903e-05)
(0.0004308 0.000287776 2.53904e-05)
(0.000404079 0.000324227 2.53902e-05)
(0.000374283 0.000358211 2.53905e-05)
(0.000341638 0.000389469 2.53905e-05)
(0.000306395 0.000417763 2.53903e-05)
(0.000268818 0.000442877 2.53901e-05)
(0.000229196 0.000464621 2.53902e-05)
(0.000187829 0.000482828 2.53899e-05)
(0.000145033 0.000497362 2.53897e-05)
(0.000101133 0.00050811 2.53899e-05)
(5.64637e-05 0.00051499 2.53904e-05)
(1.13645e-05 0.000517951 2.53905e-05)
(-3.38211e-05 0.000516971 2.53905e-05)
(-7.87494e-05 0.000512056 2.53907e-05)
(-0.000123078 0.000503243 2.53907e-05)
(-0.000166471 0.000490602 2.53904e-05)
(-0.000208596 0.000474226 2.53903e-05)
(-0.000249134 0.000454241 2.53903e-05)
(-0.000287776 0.0004308 2.53904e-05)
(-0.000324227 0.000404079 2.53902e-05)
(-0.000358211 0.000374283 2.53905e-05)
(-0.000389469 0.000341638 2.53905e-05)
(-0.000417763 0.000306395 2.53903e-05)
(-0.000442877 0.000268818 2.53901e-05)
(-0.000464621 0.000229196 2.53902e-05)
(-0.000482828 0.000187829 2.53899e-05)
(-0.000497362 0.000145033 2.53897e-05)
(-0.00050811 0.000101133 2.53899e-05)
(-0.00051499 5.64637e-05 2.53904e-05)
(-0.000517951 1.13645e-05 2.53905e-05)
(-0.000516971 -3.38211e-05 2.53905e-05)
(-0.000512056 -7.87494e-05 2.53907e-05)
(-0.000503243 -0.000123078 2.53907e-05)
(-0.000490602 -0.000166471 2.53904e-05)
(-0.000474226 -0.000208596 2.53903e-05)
(-0.000454241 -0.000249134 2.53903e-05)
(-0.0004308 -0.000287776 2.53904e-05)
(-0.000404079 -0.000324227 2.53902e-05)
(-0.000374283 -0.000358211 2.53905e-05)
(-0.000341638 -0.000389469 2.53905e-05)
(-0.000306395 -0.000417763 2.53903e-05)
(-0.000268818 -0.000442877 2.53901e-05)
(-0.000229196 -0.000464621 2.53902e-05)
(-0.000187829 -0.000482828 2.53899e-05)
(-0.000145033 -0.000497362 2.53897e-05)
(-0.000101133 -0.00050811 2.53899e-05)
(-5.64637e-05 -0.00051499 2.53904e-05)
(-1.13645e-05 -0.000517951 2.53905e-05)
(3.38211e-05 -0.000516971 2.53905e-05)
(7.87494e-05 -0.000512056 2.53907e-05)
(0.000123078 -0.000503243 2.53907e-05)
(0.000166471 -0.000490602 2.53904e-05)
(0.000208596 -0.000474226 2.53903e-05)
(0.000249134 -0.000454241 2.53903e-05)
(0.000253634 -0.000483644 7.37959e-05)
(0.000294821 -0.000459698 7.37959e-05)
(0.000333765 -0.000432253 7.37961e-05)
(0.000370168 -0.000401518 7.37962e-05)
(0.000403754 -0.000367728 7.37959e-05)
(0.000434267 -0.000331139 7.37958e-05)
(0.000461475 -0.000292031 7.37961e-05)
(0.000485171 -0.000250699 7.37959e-05)
(0.000505175 -0.00020746 7.37959e-05)
(0.000521334 -0.000162642 7.3796e-05)
(0.000533525 -0.000116585 7.37962e-05)
(0.000541656 -6.96416e-05 7.37963e-05)
(0.000545664 -2.21683e-05 7.37961e-05)
(0.00054552 2.5474e-05 7.37961e-05)
(0.000541224 7.29222e-05 7.37963e-05)
(0.000532809 0.000119815 7.37963e-05)
(0.000520339 0.000165797 7.3796e-05)
(0.000503909 0.000210517 7.37959e-05)
(0.000483644 0.000253634 7.37959e-05)
(0.000459698 0.000294821 7.37959e-05)
(0.000432253 0.000333765 7.37961e-05)
(0.000401518 0.000370168 7.37962e-05)
(0.000367728 0.000403754 7.37959e-05)
(0.000331139 0.000434267 7.37958e-05)
(0.000292031 0.000461475 7.37961e-05)
(0.000250699 0.000485171 7.37959e-05)
(0.00020746 0.000505175 7.37959e-05)
(0.000162642 0.000521334 7.3796e-05)
(0.000116585 0.000533525 7.37962e-05)
(6.96416e-05 0.000541656 7.37963e-05)
(2.21683e-05 0.000545664 7.37961e-05)
(-2.5474e-05 0.00054552 7.37961e-05)
(-7.29222e-05 0.000541224 7.37963e-05)
(-0.000119815 0.000532809 7.37963e-05)
(-0.000165797 0.000520339 7.3796e-05)
(-0.000210517 0.000503909 7.37959e-05)
(-0.000253634 0.000483644 7.37959e-05)
(-0.000294821 0.000459698 7.37959e-05)
(-0.000333765 0.000432253 7.37961e-05)
(-0.000370168 0.000401518 7.37962e-05)
(-0.000403754 0.000367728 7.37959e-05)
(-0.000434267 0.000331139 7.37958e-05)
(-0.000461475 0.000292031 7.37961e-05)
(-0.000485171 0.000250699 7.37959e-05)
(-0.000505175 0.00020746 7.37959e-05)
(-0.000521334 0.000162642 7.3796e-05)
(-0.000533525 0.000116585 7.37962e-05)
(-0.000541656 6.96416e-05 7.37963e-05)
(-0.000545664 2.21683e-05 7.37961e-05)
(-0.00054552 -2.5474e-05 7.37961e-05)
(-0.000541224 -7.29222e-05 7.37963e-05)
(-0.000532809 -0.000119815 7.37963e-05)
(-0.000520339 -0.000165797 7.3796e-05)
(-0.000503909 -0.000210517 7.37959e-05)
(-0.000483644 -0.000253634 7.37959e-05)
(-0.000459698 -0.000294821 7.37959e-05)
(-0.000432253 -0.000333765 7.37961e-05)
(-0.000401518 -0.000370168 7.37962e-05)
(-0.000367728 -0.000403754 7.37959e-05)
(-0.000331139 -0.000434267 7.37958e-05)
(-0.000292031 -0.000461475 7.37961e-05)
(-0.000250699 -0.000485171 7.37959e-05)
(-0.00020746 -0.000505175 7.37959e-05)
(-0.000162642 -0.000521334 7.3796e-05)
(-0.000116585 -0.000533525 7.37962e-05)
(-6.96416e-05 -0.000541656 7.37963e-05)
(-2.21683e-05 -0.000545664 7.37961e-05)
(2.5474e-05 -0.00054552 7.37961e-05)
(7.29222e-05 -0.000541224 7.37963e-05)
(0.000119815 -0.000532809 7.37963e-05)
(0.000165797 -0.000520339 7.3796e-05)
(0.000210517 -0.000503909 7.37959e-05)
(0.00020341 -0.000534199 0.000107172)
(0.000249195 -0.000514438 0.000107172)
(0.000293083 -0.000490762 0.000107172)
(0.00033474 -0.00046335 0.000107172)
(0.00037385 -0.000432412 0.000107172)
(0.000410115 -0.000398184 0.000107172)
(0.000443258 -0.000360926 0.000107173)
(0.000473028 -0.000320919 0.000107172)
(0.000499198 -0.000278471 0.000107172)
(0.000521568 -0.000233903 0.000107172)
(0.00053997 -0.000187555 0.000107172)
(0.000554262 -0.000139781 0.000107173)
(0.000564335 -9.09413e-05 0.000107173)
(0.000570113 -4.14099e-05 0.000107172)
(0.000571553 8.43594e-06 0.000107172)
(0.000568643 5.82185e-05 0.000107172)
(0.000561405 0.000107558 0.000107172)
(0.000549894 0.000156078 0.000107172)
(0.000534199 0.00020341 0.000107172)
(0.000514438 0.000249195 0.000107172)
(0.000490762 0.000293083 0.000107172)
(0.00046335 0.00033474 0.000107172)
(0.000432412 0.00037385 0.000107172)
(0.000398184 0.000410115 0.000107172)
(0.000360926 0.000443258 0.000107173)
(0.000320919 0.000473028 0.000107172)
(0.000278471 0.000499198 0.000107172)
(0.000233903 0.000521568 0.000107172)
(0.000187555 0.00053997 0.000107172)
(0.000139781 0.000554262 0.000107173)
(9.09413e-05 0.000564335 0.000107173)
(4.14099e-05 0.000570113 0.000107172)
(-8.43594e-06 0.000571553 0.000107172)
(-5.82185e-05 0.000568643 0.000107172)
(-0.000107558 0.000561405 0.000107172)
(-0.000156078 0.000549894 0.000107172)
(-0.00020341 0.000534199 0.000107172)
(-0.000249195 0.000514438 0.000107172)
(-0.000293083 0.000490762 0.000107172)
(-0.00033474 0.00046335 0.000107172)
(-0.00037385 0.000432412 0.000107172)
(-0.000410115 0.000398184 0.000107172)
(-0.000443258 0.000360926 0.000107173)
(-0.000473028 0.000320919 0.000107172)
(-0.000499198 0.000278471 0.000107172)
(-0.000521568 0.000233903 0.000107172)
(-0.00053997 0.000187555 0.000107172)
(-0.000554262 0.000139781 0.000107173)
(-0.000564335 9.09413e-05 0.000107173)
(-0.000570113 4.14099e-05 0.000107172)
(-0.000571553 -8.43594e-06 0.000107172)
(-0.000568643 -5.82185e-05 0.000107172)
(-0.000561405 -0.000107558 0.000107172)
(-0.000549894 -0.000156078 0.000107172)
(-0.000534199 -0.00020341 0.000107172)
(-0.000514438 -0.000249195 0.000107172)
(-0.000490762 -0.000293083 0.000107172)
(-0.00046335 -0.00033474 0.000107172)
(-0.000432412 -0.00037385 0.000107172)
(-0.000398184 -0.000410115 0.000107172)
(-0.000360926 -0.000443258 0.000107173)
(-0.000320919 -0.000473028 0.000107172)
(-0.000278471 -0.000499198 0.000107172)
(-0.000233903 -0.000521568 0.000107172)
(-0.000187555 -0.00053997 0.000107172)
(-0.000139781 -0.000554262 0.000107173)
(-9.09413e-05 -0.000564335 0.000107173)
(-4.14099e-05 -0.000570113 0.000107172)
(8.43594e-06 -0.000571553 0.000107172)
(5.82185e-05 -0.000568643 0.000107172)
(0.000107558 -0.000561405 0.000107172)
(0.000156078 -0.000549894 0.000107172)
(0.000141136 -0.000577363 0.000127595)
(0.000190919 -0.000562866 0.000127595)
(0.00023925 -0.000544084 0.000127595)
(0.000285759 -0.000521162 0.000127595)
(0.000330094 -0.000494273 0.000127595)
(0.000371916 -0.000463623 0.000127595)
(0.000410908 -0.000429444 0.000127595)
(0.000446773 -0.000391997 0.000127595)
(0.000479238 -0.000351566 0.000127595)
(0.000508055 -0.00030846 0.000127595)
(0.000533006 -0.000263006 0.000127595)
(0.0005539 -0.000215551 0.000127595)
(0.000570579 -0.000166455 0.000127595)
(0.000582915 -0.000116092 0.000127595)
(0.000590815 -6.48458e-05 0.000127595)
(0.000594219 -1.31064e-05 0.000127595)
(0.0005931 3.87332e-05 0.000127595)
(0.000587467 9.02781e-05 0.000127595)
(0.000577363 0.000141136 0.000127595)
(0.000562866 0.000190919 0.000127595)
(0.000544084 0.00023925 0.000127595)
(0.000521162 0.000285759 0.000127595)
(0.000494273 0.000330094 0.000127595)
(0.000463623 0.000371916 0.000127595)
(0.000429444 0.000410908 0.000127595)
(0.000391997 0.000446773 0.000127595)
(0.000351566 0.000479238 0.000127595)
(0.00030846 0.000508055 0.000127595)
(0.000263006 0.000533006 0.000127595)
(0.000215551 0.0005539 0.000127595)
(0.000166455 0.000570579 0.000127595)
(0.000116092 0.000582915 0.000127595)
(6.48458e-05 0.000590815 0.000127595)
(1.31064e-05 0.000594219 0.000127595)
(-3.87332e-05 0.0005931 0.000127595)
(-9.02781e-05 0.000587467 0.000127595)
(-0.000141136 0.000577363 0.000127595)
(-0.000190919 0.000562866 0.000127595)
(-0.00023925 0.000544084 0.000127595)
(-0.000285759 0.000521162 0.000127595)
(-0.000330094 0.000494273 0.000127595)
(-0.000371916 0.000463623 0.000127595)
(-0.000410908 0.000429444 0.000127595)
(-0.000446773 0.000391997 0.000127595)
(-0.000479238 0.000351566 0.000127595)
(-0.000508055 0.00030846 0.000127595)
(-0.000533006 0.000263006 0.000127595)
(-0.0005539 0.000215551 0.000127595)
(-0.000570579 0.000166455 0.000127595)
(-0.000582915 0.000116092 0.000127595)
(-0.000590815 6.48458e-05 0.000127595)
(-0.000594219 1.31064e-05 0.000127595)
(-0.0005931 -3.87332e-05 0.000127595)
(-0.000587467 -9.02781e-05 0.000127595)
(-0.000577363 -0.000141136 0.000127595)
(-0.000562866 -0.000190919 0.000127595)
(-0.000544084 -0.00023925 0.000127595)
(-0.000521162 -0.000285759 0.000127595)
(-0.000494273 -0.000330094 0.000127595)
(-0.000463623 -0.000371916 0.000127595)
(-0.000429444 -0.000410908 0.000127595)
(-0.000391997 -0.000446773 0.000127595)
(-0.000351566 -0.000479238 0.000127595)
(-0.00030846 -0.000508055 0.000127595)
(-0.000263006 -0.000533006 0.000127595)
(-0.000215551 -0.0005539 0.000127595)
(-0.000166455 -0.000570579 0.000127595)
(-0.000116092 -0.000582915 0.000127595)
(-6.48458e-05 -0.000590815 0.000127595)
(-1.31064e-05 -0.000594219 0.000127595)
(3.87332e-05 -0.0005931 0.000127595)
(9.02781e-05 -0.000587467 0.000127595)
(6.73664e-05 -0.000609712 0.000142748)
(0.00012025 -0.000601521 0.000142748)
(0.000172218 -0.000588752 0.000142749)
(0.000222876 -0.000571501 0.000142748)
(0.000271837 -0.000549901 0.000142748)
(0.00031873 -0.000524116 0.000142748)
(0.000363197 -0.000494343 0.000142749)
(0.000404899 -0.000460807 0.000142748)
(0.00044352 -0.000423764 0.000142748)
(0.000478766 -0.000383496 0.000142748)
(0.000510368 -0.00034031 0.000142748)
(0.000538087 -0.000294534 0.000142748)
(0.000561709 -0.000246515 0.000142748)
(0.000581056 -0.00019662 0.000142748)
(0.000595982 -0.00014523 0.000142748)
(0.000606372 -9.27346e-05 0.000142748)
(0.000612147 -3.95329e-05 0.000142748)
(0.000613263 1.39699e-05 0.000142748)
(0.000609712 6.73664e-05 0.000142748)
(0.000601521 0.00012025 0.000142748)
(0.000588752 0.000172218 0.000142749)
(0.000571501 0.000222876 0.000142748)
(0.000549901 0.000271837 0.000142748)
(0.000524116 0.00031873 0.000142748)
(0.000494343 0.000363197 0.000142749)
(0.000460807 0.000404899 0.000142748)
(0.000423764 0.00044352 0.000142748)
(0.000383496 0.000478766 0.000142748)
(0.00034031 0.000510368 0.000142748)
(0.000294534 0.000538087 0.000142748)
(0.000246515 0.000561709 0.000142748)
(0.00019662 0.000581056 0.000142748)