/*--------------------------------*- C++ -*----------------------------------*\
| =========                 |                                                 |
| \\      /  F ield         | OpenFOAM: The Open Source CFD Toolbox           |
|  \\    /   O peration     | Version:  2312                                  |
|   \\  /    A nd           | Website:  www.openfoam.com                      |
|    \\/     M anipulation  |                                                 |
\*---------------------------------------------------------------------------*/
FoamFile
{
    version     2.0;
    format      ascii;
    arch        "LSB;label=32;scalar=64";
    class       volVectorField;
    location    "0.7";
    object      D_0_0;
}
// * * * * * * * * * * * * * * * * * * * * * * * * * * * * * * * * * * * * * //

dimensions      [0 1 0 0 0 0 0];

internalField   nonuniform List<vector> 
12960
(
(0.000112787 -0.000140492 -1.61594e-07)
(0.000124603 -0.000130128 -1.616e-07)
(0.00013547 -0.000118773 -1.61564e-07)
(0.000145306 -0.000106514 -1.61648e-07)
(0.000154037 -9.34442e-05 -1.61662e-07)
(0.000161594 -7.96634e-05 -1.61574e-07)
(0.000167923 -6.52764e-05 -1.61635e-07)
(0.000172973 -5.03926e-05 -1.61796e-07)
(0.000176707 -3.51252e-05 -1.61888e-07)
(0.000179096 -1.95907e-05 -1.61749e-07)
(0.000180122 -3.90683e-06 -1.61596e-07)
(0.000179776 1.18068e-05 -1.61464e-07)
(0.000178063 2.74304e-05 -1.61447e-07)
(0.000174995 4.28453e-05 -1.61476e-07)
(0.000170595 5.79341e-05 -1.61598e-07)
(0.000164897 7.2582e-05 -1.61579e-07)
(0.000157943 8.66774e-05 -1.61605e-07)
(0.000149788 0.000100113 -1.61749e-07)
(0.000140492 0.000112787 -1.61594e-07)
(0.000130128 0.000124603 -1.616e-07)
(0.000118773 0.00013547 -1.61564e-07)
(0.000106514 0.000145306 -1.61648e-07)
(9.34442e-05 0.000154037 -1.61662e-07)
(7.96634e-05 0.000161594 -1.61574e-07)
(6.52764e-05 0.000167923 -1.61635e-07)
(5.03926e-05 0.000172973 -1.61796e-07)
(3.51252e-05 0.000176707 -1.61888e-07)
(1.95907e-05 0.000179096 -1.61749e-07)
(3.90683e-06 0.000180122 -1.61596e-07)
(-1.18068e-05 0.000179776 -1.61464e-07)
(-2.74304e-05 0.000178063 -1.61447e-07)
(-4.28453e-05 0.000174995 -1.61476e-07)
(-5.79341e-05 0.000170595 -1.61598e-07)
(-7.2582e-05 0.000164897 -1.61579e-07)
(-8.66774e-05 0.000157943 -1.61605e-07)
(-0.000100113 0.000149788 -1.61749e-07)
(-0.000112787 0.000140492 -1.61594e-07)
(-0.000124603 0.000130128 -1.616e-07)
(-0.00013547 0.000118773 -1.61564e-07)
(-0.000145306 0.000106514 -1.61648e-07)
(-0.000154037 9.34442e-05 -1.61662e-07)
(-0.000161594 7.96634e-05 -1.61574e-07)
(-0.000167923 6.52764e-05 -1.61635e-07)
(-0.000172973 5.03926e-05 -1.61796e-07)
(-0.000176707 3.51252e-05 -1.61888e-07)
(-0.000179096 1.95907e-05 -1.61749e-07)
(-0.000180122 3.90683e-06 -1.61596e-07)
(-0.000179776 -1.18068e-05 -1.61464e-07)
(-0.000178063 -2.74304e-05 -1.61447e-07)
(-0.000174995 -4.28453e-05 -1.61476e-07)
(-0.000170595 -5.79341e-05 -1.61598e-07)
(-0.000164897 -7.2582e-05 -1.61579e-07)
(-0.000157943 -8.66774e-05 -1.61605e-07)
(-0.000149788 -0.000100113 -1.61749e-07)
(-0.000140492 -0.000112787 -1.61594e-07)
(-0.000130128 -0.000124603 -1.616e-07)
(-0.000118773 -0.00013547 -1.61564e-07)
(-0.000106514 -0.000145306 -1.61648e-07)
(-9.34442e-05 -0.000154037 -1.61662e-07)
(-7.96634e-05 -0.000161594 -1.61574e-07)
(-6.52764e-05 -0.000167923 -1.61635e-07)
(-5.03926e-05 -0.000172973 -1.61796e-07)
(-3.51252e-05 -0.000176707 -1.61888e-07)
(-1.95907e-05 -0.000179096 -1.61749e-07)
(-3.90683e-06 -0.000180122 -1.61596e-07)
(1.18068e-05 -0.000179776 -1.61464e-07)
(2.74304e-05 -0.000178063 -1.61447e-07)
(4.28453e-05 -0.000174995 -1.61476e-07)
(5.79341e-05 -0.000170595 -1.61598e-07)
(7.2582e-05 -0.000164897 -1.61579e-07)
(8.66774e-05 -0.000157943 -1.61605e-07)
(0.000100113 -0.000149788 -1.61749e-07)
(0.000100505 -0.000161139 1.72562e-05)
(0.000114167 -0.000151766 1.72562e-05)
(0.00012696 -0.000141239 1.72563e-05)
(0.000138787 -0.000129636 1.72563e-05)
(0.000149557 -0.000117047 1.72563e-05)
(0.000159189 -0.000103567 1.72563e-05)
(0.00016761 -8.92985e-05 1.72563e-05)
(0.000174755 -7.43504e-05 1.72562e-05)
(0.00018057 -5.88365e-05 1.72562e-05)
(0.000185011 -4.28751e-05 1.72562e-05)
(0.000188044 -2.65872e-05 1.72563e-05)
(0.000189645 -1.00967e-05 1.72563e-05)
(0.000189804 6.47031e-06 1.72563e-05)
(0.000188517 2.29881e-05 1.72564e-05)
(0.000185796 3.9331e-05 1.72564e-05)
(0.000181661 5.53745e-05 1.72563e-05)
(0.000176143 7.09965e-05 1.72563e-05)
(0.000169286 8.60784e-05 1.72562e-05)
(0.000161139 0.000100505 1.72562e-05)
(0.000151766 0.000114167 1.72562e-05)
(0.000141239 0.00012696 1.72563e-05)
(0.000129636 0.000138787 1.72563e-05)
(0.000117047 0.000149557 1.72563e-05)
(0.000103567 0.000159189 1.72563e-05)
(8.92985e-05 0.00016761 1.72563e-05)
(7.43504e-05 0.000174755 1.72562e-05)
(5.88365e-05 0.00018057 1.72562e-05)
(4.28751e-05 0.000185011 1.72562e-05)
(2.65872e-05 0.000188044 1.72563e-05)
(1.00967e-05 0.000189645 1.72563e-05)
(-6.47031e-06 0.000189804 1.72563e-05)
(-2.29881e-05 0.000188517 1.72564e-05)
(-3.9331e-05 0.000185796 1.72564e-05)
(-5.53745e-05 0.000181661 1.72563e-05)
(-7.09965e-05 0.000176143 1.72563e-05)
(-8.60784e-05 0.000169286 1.72562e-05)
(-0.000100505 0.000161139 1.72562e-05)
(-0.000114167 0.000151766 1.72562e-05)
(-0.00012696 0.000141239 1.72563e-05)
(-0.000138787 0.000129636 1.72563e-05)
(-0.000149557 0.000117047 1.72563e-05)
(-0.000159189 0.000103567 1.72563e-05)
(-0.00016761 8.92985e-05 1.72563e-05)
(-0.000174755 7.43504e-05 1.72562e-05)
(-0.00018057 5.88365e-05 1.72562e-05)
(-0.000185011 4.28751e-05 1.72562e-05)
(-0.000188044 2.65872e-05 1.72563e-05)
(-0.000189645 1.00967e-05 1.72563e-05)
(-0.000189804 -6.47031e-06 1.72563e-05)
(-0.000188517 -2.29881e-05 1.72564e-05)
(-0.000185796 -3.9331e-05 1.72564e-05)
(-0.000181661 -5.53745e-05 1.72563e-05)
(-0.000176143 -7.09965e-05 1.72563e-05)
(-0.000169286 -8.60784e-05 1.72562e-05)
(-0.000161139 -0.000100505 1.72562e-05)
(-0.000151766 -0.000114167 1.72562e-05)
(-0.000141239 -0.00012696 1.72563e-05)
(-0.000129636 -0.000138787 1.72563e-05)
(-0.000117047 -0.000149557 1.72563e-05)
(-0.000103567 -0.000159189 1.72563e-05)
(-8.92985e-05 -0.00016761 1.72563e-05)
(-7.43504e-05 -0.000174755 1.72562e-05)
(-5.88365e-05 -0.00018057 1.72562e-05)
(-4.28751e-05 -0.000185011 1.72562e-05)
(-2.65872e-05 -0.000188044 1.72563e-05)
(-1.00967e-05 -0.000189645 1.72563e-05)
(6.47031e-06 -0.000189804 1.72563e-05)
(2.29881e-05 -0.000188517 1.72564e-05)
(3.9331e-05 -0.000185796 1.72564e-05)
(5.53745e-05 -0.000181661 1.72563e-05)
(7.09965e-05 -0.000176143 1.72563e-05)
(8.60784e-05 -0.000169286 1.72562e-05)
(7.90366e-05 -0.000180506 2.53175e-05)
(9.44681e-05 -0.000172931 2.53175e-05)
(0.000109181 -0.00016404 2.53176e-05)
(0.000123062 -0.000153899 2.53175e-05)
(0.000136007 -0.000142589 2.53177e-05)
(0.000147917 -0.000130192 2.53175e-05)
(0.0001587 -0.000116805 2.53175e-05)
(0.000168277 -0.000102529 2.53175e-05)
(0.000176572 -8.74722e-05 2.53175e-05)
(0.000183524 -7.17501e-05 2.53175e-05)
(0.000189079 -5.54818e-05 2.53176e-05)
(0.000193195 -3.87912e-05 2.53175e-05)
(0.000195841 -2.18056e-05 2.53176e-05)
(0.000196997 -4.65383e-06 2.53176e-05)
(0.000196652 1.25332e-05 2.53176e-05)
(0.000194812 2.9625e-05 2.53176e-05)
(0.000191489 4.64912e-05 2.53176e-05)
(0.000186708 6.30037e-05 2.53175e-05)
(0.000180506 7.90366e-05 2.53175e-05)
(0.000172931 9.44681e-05 2.53175e-05)
(0.00016404 0.000109181 2.53176e-05)
(0.000153899 0.000123062 2.53175e-05)
(0.000142589 0.000136007 2.53177e-05)
(0.000130192 0.000147917 2.53175e-05)
(0.000116805 0.0001587 2.53175e-05)
(0.000102529 0.000168277 2.53175e-05)
(8.74722e-05 0.000176572 2.53175e-05)
(7.17501e-05 0.000183524 2.53175e-05)
(5.54818e-05 0.000189079 2.53176e-05)
(3.87912e-05 0.000193195 2.53175e-05)
(2.18056e-05 0.000195841 2.53176e-05)
(4.65383e-06 0.000196997 2.53176e-05)
(-1.25332e-05 0.000196652 2.53176e-05)
(-2.9625e-05 0.000194812 2.53176e-05)
(-4.64912e-05 0.000191489 2.53176e-05)
(-6.30037e-05 0.000186708 2.53175e-05)
(-7.90366e-05 0.000180506 2.53175e-05)
(-9.44681e-05 0.000172931 2.53175e-05)
(-0.000109181 0.00016404 2.53176e-05)
(-0.000123062 0.000153899 2.53175e-05)
(-0.000136007 0.000142589 2.53177e-05)
(-0.000147917 0.000130192 2.53175e-05)
(-0.0001587 0.000116805 2.53175e-05)
(-0.000168277 0.000102529 2.53175e-05)
(-0.000176572 8.74722e-05 2.53175e-05)
(-0.000183524 7.17501e-05 2.53175e-05)
(-0.000189079 5.54818e-05 2.53176e-05)
(-0.000193195 3.87912e-05 2.53175e-05)
(-0.000195841 2.18056e-05 2.53176e-05)
(-0.000196997 4.65383e-06 2.53176e-05)
(-0.000196652 -1.25332e-05 2.53176e-05)
(-0.000194812 -2.9625e-05 2.53176e-05)
(-0.000191489 -4.64912e-05 2.53176e-05)
(-0.000186708 -6.30037e-05 2.53175e-05)
(-0.000180506 -7.90366e-05 2.53175e-05)
(-0.000172931 -9.44681e-05 2.53175e-05)
(-0.00016404 -0.000109181 2.53176e-05)
(-0.000153899 -0.000123062 2.53175e-05)
(-0.000142589 -0.000136007 2.53177e-05)
(-0.000130192 -0.000147917 2.53175e-05)
(-0.000116805 -0.0001587 2.53175e-05)
(-0.000102529 -0.000168277 2.53175e-05)
(-8.74722e-05 -0.000176572 2.53175e-05)
(-7.17501e-05 -0.000183524 2.53175e-05)
(-5.54818e-05 -0.000189079 2.53176e-05)
(-3.87912e-05 -0.000193195 2.53175e-05)
(-2.18056e-05 -0.000195841 2.53176e-05)
(-4.65383e-06 -0.000196997 2.53176e-05)
(1.25332e-05 -0.000196652 2.53176e-05)
(2.9625e-05 -0.000194812 2.53176e-05)
(4.64912e-05 -0.000191489 2.53176e-05)
(6.30037e-05 -0.000186708 2.53175e-05)
(5.09307e-05 -0.000196217 2.8086e-05)
(6.78384e-05 -0.000191032 2.8086e-05)
(8.42299e-05 -0.000184393 2.80861e-05)
(9.99798e-05 -0.000176349 2.8086e-05)
(0.000114969 -0.000166964 2.8086e-05)
(0.000129084 -0.000156309 2.8086e-05)
(0.000142216 -0.000144464 2.80861e-05)
(0.000154265 -0.000131519 2.80861e-05)
(0.000165141 -0.000117574 2.8086e-05)
(0.00017476 -0.000102733 2.8086e-05)
(0.000183049 -8.71109e-05 2.80861e-05)
(0.000189944 -7.08257e-05 2.80861e-05)
(0.000195394 -5.40014e-05 2.80861e-05)
(0.000199357 -3.6766e-05 2.80859e-05)
(0.000201803 -1.9251e-05 2.8086e-05)
(0.000202713 -1.58957e-06 2.80861e-05)
(0.00020208 1.60841e-05 2.8086e-05)
(0.000199909 3.36355e-05 2.8086e-05)
(0.000196217 5.09307e-05 2.8086e-05)
(0.000191032 6.78384e-05 2.8086e-05)
(0.000184393 8.42299e-05 2.80861e-05)
(0.000176349 9.99798e-05 2.8086e-05)
(0.000166964 0.000114969 2.8086e-05)
(0.000156309 0.000129084 2.8086e-05)
(0.000144464 0.000142216 2.80861e-05)
(0.000131519 0.000154265 2.80861e-05)
(0.000117574 0.000165141 2.8086e-05)
(0.000102733 0.00017476 2.8086e-05)
(8.71109e-05 0.000183049 2.80861e-05)
(7.08257e-05 0.000189944 2.80861e-05)
(5.40014e-05 0.000195394 2.80861e-05)
(3.6766e-05 0.000199357 2.80859e-05)
(1.9251e-05 0.000201803 2.8086e-05)
(1.58957e-06 0.000202713 2.80861e-05)
(-1.60841e-05 0.00020208 2.8086e-05)
(-3.36355e-05 0.000199909 2.8086e-05)
(-5.09307e-05 0.000196217 2.8086e-05)
(-6.78384e-05 0.000191032 2.8086e-05)
(-8.42299e-05 0.000184393 2.80861e-05)
(-9.99798e-05 0.000176349 2.8086e-05)
(-0.000114969 0.000166964 2.8086e-05)
(-0.000129084 0.000156309 2.8086e-05)
(-0.000142216 0.000144464 2.80861e-05)
(-0.000154265 0.000131519 2.80861e-05)
(-0.000165141 0.000117574 2.8086e-05)
(-0.00017476 0.000102733 2.8086e-05)
(-0.000183049 8.71109e-05 2.80861e-05)
(-0.000189944 7.08257e-05 2.80861e-05)
(-0.000195394 5.40014e-05 2.80861e-05)
(-0.000199357 3.6766e-05 2.80859e-05)
(-0.000201803 1.9251e-05 2.8086e-05)
(-0.000202713 1.58957e-06 2.80861e-05)
(-0.00020208 -1.60841e-05 2.8086e-05)
(-0.000199909 -3.36355e-05 2.8086e-05)
(-0.000196217 -5.09307e-05 2.8086e-05)
(-0.000191032 -6.78384e-05 2.8086e-05)
(-0.000184393 -8.42299e-05 2.80861e-05)
(-0.000176349 -9.99798e-05 2.8086e-05)
(-0.000166964 -0.000114969 2.8086e-05)
(-0.000156309 -0.000129084 2.8086e-05)
(-0.000144464 -0.000142216 2.80861e-05)
(-0.000131519 -0.000154265 2.80861e-05)
(-0.000117574 -0.000165141 2.8086e-05)
(-0.000102733 -0.00017476 2.8086e-05)
(-8.71109e-05 -0.000183049 2.80861e-05)
(-7.08257e-05 -0.000189944 2.80861e-05)
(-5.40014e-05 -0.000195394 2.80861e-05)
(-3.6766e-05 -0.000199357 2.80859e-05)
(-1.9251e-05 -0.000201803 2.8086e-05)
(-1.58957e-06 -0.000202713 2.80861e-05)
(1.60841e-05 -0.00020208 2.8086e-05)
(3.36355e-05 -0.000199909 2.8086e-05)
(1.52311e-05 -0.000207381 3.1125e-05)
(3.32477e-05 -0.000205265 3.11251e-05)
(5.10109e-05 -0.000201585 3.1125e-05)
(6.83862e-05 -0.000196373 3.11251e-05)
(8.52409e-05 -0.000189665 3.11251e-05)
(0.000101447 -0.000181514 3.1125e-05)
(0.000116881 -0.000171981 3.1125e-05)
(0.000131425 -0.00016114 3.1125e-05)
(0.00014497 -0.000149073 3.1125e-05)
(0.000157411 -0.000135871 3.11251e-05)
(0.000168653 -0.000121634 3.11249e-05)
(0.000178612 -0.000106472 3.1125e-05)
(0.000187212 -9.04999e-05 3.11249e-05)
(0.000194388 -7.38389e-05 3.11249e-05)
(0.000200084 -5.66161e-05 3.1125e-05)
(0.000204257 -3.89622e-05 3.1125e-05)
(0.000206876 -2.10117e-05 3.11251e-05)
(0.000207919 -2.90135e-06 3.1125e-05)
(0.000207381 1.52311e-05 3.1125e-05)
(0.000205265 3.32477e-05 3.11251e-05)
(0.000201585 5.10109e-05 3.1125e-05)
(0.000196373 6.83862e-05 3.11251e-05)
(0.000189665 8.52409e-05 3.11251e-05)
(0.000181514 0.000101447 3.1125e-05)
(0.000171981 0.000116881 3.1125e-05)
(0.00016114 0.000131425 3.1125e-05)
(0.000149073 0.00014497 3.1125e-05)
(0.000135871 0.000157411 3.11251e-05)
(0.000121634 0.000168653 3.11249e-05)
(0.000106472 0.000178612 3.1125e-05)
(9.04999e-05 0.000187212 3.11249e-05)
(7.38389e-05 0.000194388 3.11249e-05)
(5.66161e-05 0.000200084 3.1125e-05)
(3.89622e-05 0.000204257 3.1125e-05)
(2.10117e-05 0.000206876 3.11251e-05)
(2.90135e-06 0.000207919 3.1125e-05)
(-1.52311e-05 0.000207381 3.1125e-05)
(-3.32477e-05 0.000205265 3.11251e-05)
(-5.10109e-05 0.000201585 3.1125e-05)
(-6.83862e-05 0.000196373 3.11251e-05)
(-8.52409e-05 0.000189665 3.11251e-05)
(-0.000101447 0.000181514 3.1125e-05)
(-0.000116881 0.000171981 3.1125e-05)
(-0.000131425 0.00016114 3.1125e-05)
(-0.00014497 0.000149073 3.1125e-05)
(-0.000157411 0.000135871 3.11251e-05)
(-0.000168653 0.000121634 3.11249e-05)
(-0.000178612 0.000106472 3.1125e-05)
(-0.000187212 9.04999e-05 3.11249e-05)
(-0.000194388 7.38389e-05 3.11249e-05)
(-0.000200084 5.66161e-05 3.1125e-05)
(-0.000204257 3.89622e-05 3.1125e-05)
(-0.000206876 2.10117e-05 3.11251e-05)
(-0.000207919 2.90135e-06 3.1125e-05)
(-0.000207381 -1.52311e-05 3.1125e-05)
(-0.000205265 -3.32477e-05 3.11251e-05)
(-0.000201585 -5.10109e-05 3.1125e-05)
(-0.000196373 -6.83862e-05 3.11251e-05)
(-0.000189665 -8.52409e-05 3.11251e-05)
(-0.000181514 -0.000101447 3.1125e-05)
(-0.000171981 -0.000116881 3.1125e-05)
(-0.00016114 -0.000131425 3.1125e-05)
(-0.000149073 -0.00014497 3.1125e-05)
(-0.000135871 -0.000157411 3.11251e-05)
(-0.000121634 -0.000168653 3.11249e-05)
(-0.000106472 -0.000178612 3.1125e-05)
(-9.04999e-05 -0.000187212 3.11249e-05)
(-7.38389e-05 -0.000194388 3.11249e-05)
(-5.66161e-05 -0.000200084 3.1125e-05)
(-3.89622e-05 -0.000204257 3.1125e-05)
(-2.10117e-05 -0.000206876 3.11251e-05)
(-2.90135e-06 -0.000207919 3.1125e-05)
(-3.64904e-05 -0.000215879 3.46664e-05)
(-1.75363e-05 -0.000218238 3.46664e-05)
(1.55103e-06 -0.000218936 3.46664e-05)
(2.0627e-05 -0.000217969 3.46666e-05)
(3.95458e-05 -0.000215341 3.46664e-05)
(5.81635e-05 -0.000211075 3.46664e-05)
(7.63384e-05 -0.000205202 3.46663e-05)
(9.39321e-05 -0.000197768 3.46663e-05)
(0.000110811 -0.000188829 3.46664e-05)
(0.000126847 -0.000178453 3.46665e-05)
(0.000141918 -0.000166718 3.46664e-05)
(0.000155908 -0.000153714 3.46664e-05)
(0.000168712 -0.000139541 3.46662e-05)
(0.000180232 -0.000124306 3.46661e-05)
(0.000190381 -0.000108125 3.46663e-05)
(0.000199079 -9.11207e-05 3.46663e-05)
(0.000206263 -7.34229e-05 3.46664e-05)
(0.000211878 -5.51666e-05 3.46665e-05)
(0.000215879 -3.64904e-05 3.46664e-05)
(0.000218238 -1.75363e-05 3.46664e-05)
(0.000218936 1.55103e-06 3.46664e-05)
(0.000217969 2.0627e-05 3.46666e-05)
(0.000215341 3.95458e-05 3.46664e-05)
(0.000211075 5.81635e-05 3.46664e-05)
(0.000205202 7.63384e-05 3.46663e-05)
(0.000197768 9.39321e-05 3.46663e-05)
(0.000188829 0.000110811 3.46664e-05)
(0.000178453 0.000126847 3.46665e-05)
(0.000166718 0.000141918 3.46664e-05)
(0.000153714 0.000155908 3.46664e-05)
(0.000139541 0.000168712 3.46662e-05)
(0.000124306 0.000180232 3.46661e-05)
(0.000108125 0.000190381 3.46663e-05)
(9.11207e-05 0.000199079 3.46663e-05)
(7.34229e-05 0.000206263 3.46664e-05)
(5.51666e-05 0.000211878 3.46665e-05)
(3.64904e-05 0.000215879 3.46664e-05)
(1.75363e-05 0.000218238 3.46664e-05)
(-1.55103e-06 0.000218936 3.46664e-05)
(-2.0627e-05 0.000217969 3.46666e-05)
(-3.95458e-05 0.000215341 3.46664e-05)
(-5.81635e-05 0.000211075 3.46664e-05)
(-7.63384e-05 0.000205202 3.46663e-05)
(-9.39321e-05 0.000197768 3.46663e-05)
(-0.000110811 0.000188829 3.46664e-05)
(-0.000126847 0.000178453 3.46665e-05)
(-0.000141918 0.000166718 3.46664e-05)
(-0.000155908 0.000153714 3.46664e-05)
(-0.000168712 0.000139541 3.46662e-05)
(-0.000180232 0.000124306 3.46661e-05)
(-0.000190381 0.000108125 3.46663e-05)
(-0.000199079 9.11207e-05 3.46663e-05)
(-0.000206263 7.34229e-05 3.46664e-05)
(-0.000211878 5.51666e-05 3.46665e-05)
(-0.000215879 3.64904e-05 3.46664e-05)
(-0.000218238 1.75363e-05 3.46664e-05)
(-0.000218936 -1.55104e-06 3.46664e-05)
(-0.000217969 -2.0627e-05 3.46666e-05)
(-0.000215341 -3.95458e-05 3.46664e-05)
(-0.000211075 -5.81635e-05 3.46664e-05)
(-0.000205202 -7.63384e-05 3.46663e-05)
(-0.000197768 -9.39321e-05 3.46663e-05)
(-0.000188829 -0.000110811 3.46664e-05)
(-0.000178453 -0.000126847 3.46665e-05)
(-0.000166718 -0.000141918 3.46664e-05)
(-0.000153714 -0.000155908 3.46664e-05)
(-0.000139541 -0.000168712 3.46662e-05)
(-0.000124306 -0.000180232 3.46661e-05)
(-0.000108125 -0.000190381 3.46663e-05)
(-9.11207e-05 -0.000199079 3.46663e-05)
(-7.34229e-05 -0.000206263 3.46664e-05)
(-5.51666e-05 -0.000211878 3.46665e-05)
(0.000289099 -0.000433348 2.51147e-05)
(0.000325768 -0.000406503 2.51145e-05)
(0.000359958 -0.000376564 2.51148e-05)
(0.000391407 -0.000343758 2.51148e-05)
(0.000419879 -0.000308337 2.51146e-05)
(0.000445154 -0.000270569 2.51144e-05)
(0.000467042 -0.000230741 2.51145e-05)
(0.000485375 -0.000189157 2.51142e-05)
(0.000500015 -0.000146135 2.51139e-05)
(0.000510849 -0.000101999 2.51141e-05)
(0.000517793 -5.70878e-05 2.51147e-05)
(0.000520798 -1.17419e-05 2.51148e-05)
(0.00051984 3.36932e-05 2.51148e-05)
(0.000514925 7.88721e-05 2.5115e-05)
(0.000506091 0.000123451 2.5115e-05)
(0.000493406 0.00016709 2.51147e-05)
(0.000476966 0.000209457 2.51146e-05)
(0.000456895 0.000250231 2.51145e-05)
(0.000433348 0.000289099 2.51147e-05)
(0.000406503 0.000325768 2.51145e-05)
(0.000376564 0.000359958 2.51148e-05)
(0.000343758 0.000391407 2.51148e-05)
(0.000308337 0.000419879 2.51146e-05)
(0.000270569 0.000445154 2.51144e-05)
(0.000230741 0.000467042 2.51145e-05)
(0.000189157 0.000485375 2.51142e-05)
(0.000146135 0.000500015 2.51139e-05)
(0.000101999 0.000510849 2.51141e-05)
(5.70878e-05 0.000517793 2.51147e-05)
(1.17419e-05 0.000520798 2.51148e-05)
(-3.36932e-05 0.00051984 2.51148e-05)
(-7.88721e-05 0.000514925 2.5115e-05)
(-0.000123451 0.000506091 2.5115e-05)
(-0.00016709 0.000493406 2.51147e-05)
(-0.000209457 0.000476966 2.51146e-05)
(-0.000250231 0.000456895 2.51145e-05)
(-0.000289099 0.000433348 2.51147e-05)
(-0.000325768 0.000406503 2.51145e-05)
(-0.000359958 0.000376564 2.51148e-05)
(-0.000391407 0.000343758 2.51148e-05)
(-0.000419879 0.000308337 2.51146e-05)
(-0.000445154 0.000270569 2.51144e-05)
(-0.000467042 0.000230741 2.51145e-05)
(-0.000485375 0.000189157 2.51142e-05)
(-0.000500015 0.000146135 2.51139e-05)
(-0.000510849 0.000101999 2.51141e-05)
(-0.000517793 5.70878e-05 2.51147e-05)
(-0.000520798 1.17419e-05 2.51148e-05)
(-0.00051984 -3.36932e-05 2.51148e-05)
(-0.000514925 -7.88721e-05 2.5115e-05)
(-0.000506091 -0.000123451 2.5115e-05)
(-0.000493406 -0.00016709 2.51147e-05)
(-0.000476966 -0.000209457 2.51146e-05)
(-0.000456895 -0.000250231 2.51145e-05)
(-0.000433348 -0.000289099 2.51147e-05)
(-0.000406503 -0.000325768 2.51145e-05)
(-0.000376564 -0.000359958 2.51148e-05)
(-0.000343758 -0.000391407 2.51148e-05)
(-0.000308337 -0.000419879 2.51146e-05)
(-0.000270569 -0.000445154 2.51144e-05)
(-0.000230741 -0.000467042 2.51145e-05)
(-0.000189157 -0.000485375 2.51142e-05)
(-0.000146135 -0.000500015 2.51139e-05)
(-0.000101999 -0.000510849 2.51141e-05)
(-5.70878e-05 -0.000517793 2.51147e-05)
(-1.17419e-05 -0.000520798 2.51148e-05)
(3.36932e-05 -0.00051984 2.51148e-05)
(7.88721e-05 -0.000514925 2.5115e-05)
(0.000123451 -0.000506091 2.5115e-05)
(0.00016709 -0.000493406 2.51147e-05)
(0.000209457 -0.000476966 2.51146e-05)
(0.000250231 -0.000456895 2.51145e-05)
(0.000254573 -0.000486849 7.43439e-05)
(0.000296036 -0.000462809 7.43438e-05)
(0.000335246 -0.000435246 7.4344e-05)
(0.000371904 -0.000404371 7.43441e-05)
(0.000405732 -0.000370419 7.43438e-05)
(0.000436472 -0.000333647 7.43437e-05)
(0.000463891 -0.000294337 7.4344e-05)
(0.000487779 -0.000252786 7.43438e-05)
(0.000507954 -0.000209312 7.43439e-05)
(0.000524264 -0.000164244 7.43439e-05)
(0.000536584 -0.000117926 7.43441e-05)
(0.00054482 -7.0711e-05 7.43442e-05)
(0.000548909 -2.2958e-05 7.43441e-05)
(0.000548821 2.49701e-05 7.4344e-05)
(0.000544556 7.2708e-05 7.43442e-05)
(0.000536147 0.000119893 7.43442e-05)
(0.000523658 0.000166165 7.43439e-05)
(0.000507183 0.000211172 7.43439e-05)
(0.000486849 0.000254573 7.43439e-05)
(0.000462809 0.000296036 7.43438e-05)
(0.000435246 0.000335246 7.4344e-05)
(0.000404371 0.000371904 7.43441e-05)
(0.000370419 0.000405732 7.43438e-05)
(0.000333647 0.000436472 7.43437e-05)
(0.000294337 0.000463891 7.4344e-05)
(0.000252786 0.000487779 7.43438e-05)
(0.000209312 0.000507954 7.43439e-05)
(0.000164244 0.000524264 7.43439e-05)
(0.000117926 0.000536584 7.43441e-05)
(7.0711e-05 0.00054482 7.43442e-05)
(2.2958e-05 0.000548909 7.43441e-05)
(-2.49701e-05 0.000548821 7.4344e-05)
(-7.2708e-05 0.000544556 7.43442e-05)
(-0.000119893 0.000536147 7.43442e-05)
(-0.000166165 0.000523658 7.43439e-05)
(-0.000211172 0.000507183 7.43439e-05)
(-0.000254573 0.000486849 7.43439e-05)
(-0.000296036 0.000462809 7.43438e-05)
(-0.000335246 0.000435246 7.4344e-05)
(-0.000371904 0.000404371 7.43441e-05)
(-0.000405732 0.000370419 7.43438e-05)
(-0.000436472 0.000333647 7.43437e-05)
(-0.000463891 0.000294337 7.4344e-05)
(-0.000487779 0.000252786 7.43438e-05)
(-0.000507954 0.000209312 7.43439e-05)
(-0.000524264 0.000164244 7.43439e-05)
(-0.000536584 0.000117926 7.43441e-05)
(-0.00054482 7.0711e-05 7.43442e-05)
(-0.000548909 2.2958e-05 7.43441e-05)
(-0.000548821 -2.49701e-05 7.4344e-05)
(-0.000544556 -7.2708e-05 7.43442e-05)
(-0.000536147 -0.000119893 7.43442e-05)
(-0.000523658 -0.000166165 7.43439e-05)
(-0.000507183 -0.000211172 7.43439e-05)
(-0.000486849 -0.000254573 7.43439e-05)
(-0.000462809 -0.000296036 7.43438e-05)
(-0.000435246 -0.000335246 7.4344e-05)
(-0.000404371 -0.000371904 7.43441e-05)
(-0.000370419 -0.000405732 7.43438e-05)
(-0.000333647 -0.000436472 7.43437e-05)
(-0.000294337 -0.000463891 7.4344e-05)
(-0.000252786 -0.000487779 7.43438e-05)
(-0.000209312 -0.000507954 7.43439e-05)
(-0.000164244 -0.000524264 7.43439e-05)
(-0.000117926 -0.000536584 7.43441e-05)
(-7.0711e-05 -0.00054482 7.43442e-05)
(-2.2958e-05 -0.000548909 7.43441e-05)
(2.49701e-05 -0.000548821 7.4344e-05)
(7.2708e-05 -0.000544556 7.43442e-05)
(0.000119893 -0.000536147 7.43442e-05)
(0.000166165 -0.000523658 7.43439e-05)
(0.000211172 -0.000507183 7.43439e-05)
(0.000203769 -0.000538015 0.000108247)
(0.000249884 -0.000518208 0.000108247)
(0.000294098 -0.000494457 0.000108247)
(0.000336074 -0.000466943 0.000108247)
(0.000375491 -0.000435875 0.000108247)
(0.000412052 -0.000401491 0.000108247)
(0.000445476 -0.000364051 0.000108247)
(0.00047551 -0.000323839 0.000108247)
(0.000501924 -0.000281164 0.000108247)
(0.00052452 -0.000236348 0.000108247)
(0.000543123 -0.000189734 0.000108247)
(0.000557593 -0.000141676 0.000108247)
(0.000567818 -9.2539e-05 0.000108247)
(0.000573723 -4.2698e-05 0.000108247)
(0.000575261 7.46739e-06 0.000108247)
(0.000572421 5.75768e-05 0.000108247)
(0.000565225 0.000107248 0.000108247)
(0.000553727 0.000156102 0.000108247)
(0.000538015 0.000203769 0.000108247)
(0.000518208 0.000249884 0.000108247)
(0.000494457 0.000294098 0.000108247)
(0.000466943 0.000336074 0.000108247)
(0.000435875 0.000375491 0.000108247)
(0.000401491 0.000412052 0.000108247)
(0.000364051 0.000445476 0.000108247)
(0.000323839 0.00047551 0.000108247)
(0.000281164 0.000501924 0.000108247)
(0.000236348 0.00052452 0.000108247)
(0.000189734 0.000543123 0.000108247)
(0.000141676 0.000557593 0.000108247)
(9.2539e-05 0.000567818 0.000108247)
(4.2698e-05 0.000573723 0.000108247)
(-7.46739e-06 0.000575261 0.000108247)
(-5.75768e-05 0.000572421 0.000108247)
(-0.000107248 0.000565225 0.000108247)
(-0.000156102 0.000553727 0.000108247)
(-0.000203769 0.000538015 0.000108247)
(-0.000249884 0.000518208 0.000108247)
(-0.000294098 0.000494457 0.000108247)
(-0.000336074 0.000466943 0.000108247)
(-0.000375491 0.000435875 0.000108247)
(-0.000412052 0.000401491 0.000108247)
(-0.000445476 0.000364051 0.000108247)
(-0.00047551 0.000323839 0.000108247)
(-0.000501924 0.000281164 0.000108247)
(-0.00052452 0.000236348 0.000108247)
(-0.000543123 0.000189734 0.000108247)
(-0.000557593 0.000141676 0.000108247)
(-0.000567818 9.2539e-05 0.000108247)
(-0.000573723 4.2698e-05 0.000108247)
(-0.000575261 -7.46739e-06 0.000108247)
(-0.000572421 -5.75768e-05 0.000108247)
(-0.000565225 -0.000107248 0.000108247)
(-0.000553727 -0.000156102 0.000108247)
(-0.000538015 -0.000203769 0.000108247)
(-0.000518208 -0.000249884 0.000108247)
(-0.000494457 -0.000294098 0.000108247)
(-0.000466943 -0.000336074 0.000108247)
(-0.000435875 -0.000375491 0.000108247)
(-0.000401491 -0.000412052 0.000108247)
(-0.000364051 -0.000445476 0.000108247)
(-0.000323839 -0.00047551 0.000108247)
(-0.000281164 -0.000501924 0.000108247)
(-0.000236348 -0.00052452 0.000108247)
(-0.000189734 -0.000543123 0.000108247)
(-0.000141676 -0.000557593 0.000108247)
(-9.2539e-05 -0.000567818 0.000108247)
(-4.2698e-05 -0.000573723 0.000108247)
(7.46739e-06 -0.000575261 0.000108247)
(5.75768e-05 -0.000572421 0.000108247)
(0.000107248 -0.000565225 0.000108247)
(0.000156102 -0.000553727 0.000108247)
(0.000140784 -0.000581652 0.000128896)
(0.000190943 -0.000567169 0.000128896)
(0.000239648 -0.000548369 0.000128896)
(0.00028653 -0.000525395 0.000128896)
(0.00033123 -0.000498423 0.000128896)
(0.00037341 -0.000467658 0.000128896)
(0.000412748 -0.000433334 0.000128896)
(0.000448945 -0.000395712 0.000128896)
(0.000481725 -0.000355077 0.000128896)
(0.000510839 -0.000311741 0.000128896)
(0.000536065 -0.000266032 0.000128896)
(0.000557211 -0.000218299 0.000128896)
(0.000574117 -0.000168904 0.000128896)
(0.000586653 -0.000118223 0.000128896)
(0.000594725 -6.6643e-05 0.000128896)
(0.00059827 -1.4556e-05 0.000128896)
(0.000597262 3.76422e-05 0.000128896)
(0.000591709 8.9554e-05 0.000128896)
(0.000581652 0.000140784 0.000128896)
(0.000567169 0.000190943 0.000128896)
(0.000548369 0.000239648 0.000128896)
(0.000525395 0.00028653 0.000128896)
(0.000498423 0.00033123 0.000128896)
(0.000467658 0.00037341 0.000128896)
(0.000433334 0.000412748 0.000128896)
(0.000395712 0.000448945 0.000128896)
(0.000355077 0.000481725 0.000128896)
(0.000311741 0.000510839 0.000128896)
(0.000266032 0.000536065 0.000128896)
(0.000218299 0.000557211 0.000128896)
(0.000168904 0.000574117 0.000128896)
(0.000118223 0.000586653 0.000128896)
(6.6643e-05 0.000594725 0.000128896)
(1.4556e-05 0.00059827 0.000128896)
(-3.76422e-05 0.000597262 0.000128896)
(-8.9554e-05 0.000591709 0.000128896)
(-0.000140784 0.000581652 0.000128896)
(-0.000190943 0.000567169 0.000128896)
(-0.000239648 0.000548369 0.000128896)
(-0.00028653 0.000525395 0.000128896)
(-0.00033123 0.000498423 0.000128896)
(-0.00037341 0.000467658 0.000128896)
(-0.000412748 0.000433334 0.000128896)
(-0.000448945 0.000395712 0.000128896)
(-0.000481725 0.000355077 0.000128896)
(-0.000510839 0.000311741 0.000128896)
(-0.000536065 0.000266032 0.000128896)
(-0.000557211 0.000218299 0.000128896)
(-0.000574117 0.000168904 0.000128896)
(-0.000586653 0.000118223 0.000128896)
(-0.000594725 6.6643e-05 0.000128896)
(-0.00059827 1.4556e-05 0.000128896)
(-0.000597262 -3.76422e-05 0.000128896)
(-0.000591709 -8.9554e-05 0.000128896)
(-0.000581652 -0.000140784 0.000128896)
(-0.000567169 -0.000190943 0.000128896)
(-0.000548369 -0.000239648 0.000128896)
(-0.000525395 -0.00028653 0.000128896)
(-0.000498423 -0.00033123 0.000128896)
(-0.000467658 -0.00037341 0.000128896)
(-0.000433334 -0.000412748 0.000128896)
(-0.000395712 -0.000448945 0.000128896)
(-0.000355077 -0.000481725 0.000128896)
(-0.000311741 -0.000510839 0.000128896)
(-0.000266032 -0.000536065 0.000128896)
(-0.000218299 -0.000557211 0.000128896)
(-0.000168904 -0.000574117 0.000128896)
(-0.000118223 -0.000586653 0.000128896)
(-6.6643e-05 -0.000594725 0.000128896)
(-1.4556e-05 -0.00059827 0.000128896)
(3.76422e-05 -0.000597262 0.000128896)
(8.9554e-05 -0.000591709 0.000128896)
(6.61963e-05 -0.000614271 0.000144109)
(0.000119481 -0.000606165 0.000144109)
(0.000171857 -0.000593445 0.000144109)
(0.000222926 -0.000576208 0.000144109)
(0.000272297 -0.000554585 0.000144109)
(0.000319596 -0.000528743 0.000144109)
(0.000364463 -0.000498877 0.000144109)
(0.000406556 -0.000465213 0.000144109)
(0.000445554 -0.000428009 0.000144108)
(0.000481162 -0.000387547 0.000144108)
(0.000513109 -0.000344137 0.000144109)
(0.00054115 -0.000298107 0.000144109)
(0.000565072 -0.000249808 0.000144109)
(0.000584694 -0.000199608 0.000144108)
(0.000599866 -0.000147889 0.000144109)
(0.000610473 -9.50448e-05 0.000144109)
(0.000616434 -4.14769e-05 0.000144109)
(0.000617703 1.2407e-05 0.000144109)
(0.000614271 6.61963e-05 0.000144109)
(0.000606165 0.000119481 0.000144109)
(0.000593445 0.000171857 0.000144109)
(0.000576208 0.000222926 0.000144109)
(0.000554585 0.000272297 0.000144109)
(0.000528743 0.000319596 0.000144109)
(0.000498877 0.000364463 0.000144109)
(0.000465213 0.000406556 0.000144109)
(0.000428009 0.000445554 0.000144108)
(0.000387547 0.000481162 0.000144108)
(0.000344137 0.000513109 0.000144109)
(0.000298107 0.00054115 0.000144109)