# Probe 0 (0 0 0.007)
# Probe 1 (0 0 0)
# Probe 2 (0.019999 0 0.007)
# Probe 3 (0.019999 0 0)
# Probe 4 (0 0.003 0.007)
# Probe 5 (0 0.003 0)
# Probe 6 (0.019999 0.003 0.007)
# Probe 7 (0.019999 0.003 0)
# Probe 8 (0.01 0.0015 0.0035)
# Time        0             1             2             3             4             5             6             7             8            
0.2           0.00119219    0.132206      0.0465428     0.142016      0.0359032     0.133521      0.0559147     0.142926      0.0706417    
