# time  numeric_E1  refQ6_E1  refQ12_E1  refQ24_E1  refQ48_E1  refQ96_E1  errQ6_E1  errQ12_E1  errQ24_E1  errQ48_E1  errQ96_E1  deltaQuadratureQ6_Q96_E1  deltaQuadratureQ12_Q96_E1  deltaQuadratureQ24_Q96_E1  deltaQuadratureQ48_Q96_E1  numeric_E2  refQ6_E2  refQ12_E2  refQ24_E2  refQ48_E2  refQ96_E2  errQ6_E2  errQ12_E2  errQ24_E2  errQ48_E2  errQ96_E2  deltaQuadratureQ6_Q96_E2  deltaQuadratureQ12_Q96_E2  deltaQuadratureQ24_Q96_E2  deltaQuadratureQ48_Q96_E2  numeric_E3  refQ6_E3  refQ12_E3  refQ24_E3  refQ48_E3  refQ96_E3  errQ6_E3  errQ12_E3  errQ24_E3  errQ48_E3  errQ96_E3  deltaQuadratureQ6_Q96_E3  deltaQuadratureQ12_Q96_E3  deltaQuadratureQ24_Q96_E3  deltaQuadratureQ48_Q96_E3  numeric_E4  refQ6_E4  refQ12_E4  refQ24_E4  refQ48_E4  refQ96_E4  errQ6_E4  errQ12_E4  errQ24_E4  errQ48_E4  errQ96_E4  deltaQuadratureQ6_Q96_E4  deltaQuadratureQ12_Q96_E4  deltaQuadratureQ24_Q96_E4  deltaQuadratureQ48_Q96_E4  numeric_E5  refQ6_E5  refQ12_E5  refQ24_E5  refQ48_E5  refQ96_E5  errQ6_E5  errQ12_E5  errQ24_E5  errQ48_E5  errQ96_E5  deltaQuadratureQ6_Q96_E5  deltaQuadratureQ12_Q96_E5  deltaQuadratureQ24_Q96_E5  deltaQuadratureQ48_Q96_E5
1.40174000e-04  -1.47575823e-11  1.50138083e-17  -6.03196890e-18  1.47629504e-18  3.35574240e-18  3.50037588e-18  1.47575973e-11  1.47575763e-11  1.47575838e-11  1.47575857e-11  1.47575858e-11  1.15134324e-17  9.53234479e-18  2.02408084e-18  1.44633486e-19  -4.06260789e-12  -1.69068597e-17  6.64266007e-18  -1.27850970e-18  -3.09422934e-18  -3.44254212e-18  4.06259098e-12  4.06261453e-12  4.06260661e-12  4.06260479e-12  4.06260445e-12  1.34643175e-17  1.00852022e-17  2.16403242e-18  3.48312786e-19  -2.29342718e-03  -2.87208345e-03  -2.29420990e-03  -2.29490692e-03  -2.29490692e-03  -2.29490692e-03  5.78656266e-04  7.82720019e-07  1.47973744e-06  1.47973485e-06  1.47973485e-06  5.77176531e-04  6.97014832e-07  2.59014902e-12  1.17961196e-16  3.54101860e-03  3.57705807e-03  3.54699625e-03  3.54700251e-03  3.54700251e-03  3.54700251e-03  3.60394758e-05  5.97764736e-06  5.98391375e-06  5.98391375e-06  5.98391375e-06  3.00555620e-05  6.26638841e-09  1.68701858e-16  4.85722573e-17  -1.04756642e-03  -1.07946976e-03  -1.04948185e-03  -1.04948188e-03  -1.04948188e-03  -1.04948188e-03  3.19033422e-05  1.91543386e-06  1.91546371e-06  1.91546371e-06  1.91546371e-06  2.99878785e-05  2.98472156e-11  1.86482774e-17  4.33680869e-19
2.80348000e-04  -2.95140145e-11  1.50148604e-17  -6.03239159e-18  1.47639849e-18  3.35597755e-18  3.50062117e-18  2.95140295e-11  2.95140085e-11  2.95140160e-11  2.95140179e-11  2.95140180e-11  1.15142392e-17  9.53301276e-18  2.02422268e-18  1.44643621e-19  -8.13898948e-12  -1.69080444e-17  6.64312555e-18  -1.27859929e-18  -3.09444616e-18  -3.44278336e-18  8.13897257e-12  8.13899613e-12  8.13898820e-12  8.13898639e-12  8.13898604e-12  1.34652610e-17  1.00859089e-17  2.16418406e-18  3.48337194e-19  -2.29358808e-03  -2.87228471e-03  -2.29437067e-03  -2.29506773e-03  -2.29506773e-03  -2.29506773e-03  5.78696627e-04  7.82587089e-07  1.47965335e-06  1.47965076e-06  1.47965076e-06  5.77216976e-04  6.97063675e-07  2.59033073e-12  1.17961196e-16  3.54126715e-03  3.57730874e-03  3.54724480e-03  3.54725107e-03  3.54725107e-03  3.54725107e-03  3.60415838e-05  5.97764886e-06  5.98391568e-06  5.98391568e-06  5.98391568e-06  3.00576681e-05  6.26682752e-09  1.68701858e-16  4.85722573e-17  -1.04763995e-03  -1.07954541e-03  -1.04955540e-03  -1.04955543e-03  -1.04955543e-03  -1.04955543e-03  3.19054595e-05  1.91544977e-06  1.91547962e-06  1.91547962e-06  1.91547962e-06  2.99899799e-05  2.98493073e-11  1.86482774e-17  4.33680869e-19
4.20522000e-04  -4.42670171e-11  1.50159124e-17  -6.03281425e-18  1.47650194e-18  3.35621269e-18  3.50086644e-18  4.42670322e-11  4.42670111e-11  4.42670186e-11  4.42670205e-11  4.42670206e-11  1.15150459e-17  9.53368069e-18  2.02436450e-18  1.44653755e-19  -1.22335926e-11  -1.69092291e-17  6.64359100e-18  -1.27868888e-18  -3.09466298e-18  -3.44302458e-18  1.22335757e-11  1.22335993e-11  1.22335913e-11  1.22335895e-11  1.22335892e-11  1.34662045e-17  1.00866156e-17  2.16433570e-18  3.48361600e-19  -2.29374897e-03  -2.87248595e-03  -2.29453142e-03  -2.29522854e-03  -2.29522854e-03  -2.29522854e-03  5.78736984e-04  7.82452675e-07  1.47956778e-06  1.47956519e-06  1.47956519e-06  5.77257419e-04  6.97112514e-07  2.59051244e-12  1.17961196e-16  3.54151569e-03  3.57755938e-03  3.54749334e-03  3.54749961e-03  3.54749961e-03  3.54749961e-03  3.60436898e-05  5.97764839e-06  5.98391565e-06  5.98391565e-06  5.98391565e-06  3.00597741e-05  6.26726661e-09  1.68701858e-16  4.85722573e-17  -1.04771347e-03  -1.07962104e-03  -1.04962893e-03  -1.04962896e-03  -1.04962896e-03  -1.04962896e-03  3.19075760e-05  1.91546506e-06  1.91549492e-06  1.91549492e-06  1.91549492e-06  2.99920811e-05  2.98513985e-11  1.86482774e-17  4.33680869e-19
5.60696000e-04  -5.90190084e-11  1.50169643e-17  -6.03323688e-18  1.47660537e-18  3.35644780e-18  3.50111169e-18  5.90190234e-11  5.90190024e-11  5.90190099e-11  5.90190118e-11  5.90190119e-11  1.15158526e-17  9.53434857e-18  2.02450632e-18  1.44663889e-19  -1.63479508e-11  -1.69104136e-17  6.64405642e-18  -1.27877846e-18  -3.09487977e-18  -3.44326578e-18  1.63479339e-11  1.63479574e-11  1.63479495e-11  1.63479477e-11  1.63479473e-11  1.34671479e-17  1.00873222e-17  2.16448732e-18  3.48386005e-19  -2.29390985e-03  -2.87268719e-03  -2.29469217e-03  -2.29538933e-03  -2.29538933e-03  -2.29538933e-03  5.78777338e-04  7.82317585e-07  1.47948153e-06  1.47947894e-06  1.47947894e-06  5.77297859e-04  6.97161351e-07  2.59069372e-12  1.17961196e-16  3.54176421e-03  3.57781001e-03  3.54774186e-03  3.54774813e-03  3.54774813e-03  3.54774813e-03  3.60457949e-05  5.97764724e-06  5.98391494e-06  5.98391494e-06  5.98391494e-06  3.00618800e-05  6.26770566e-09  1.68701858e-16  4.85722573e-17  -1.04778699e-03  -1.07969668e-03  -1.04970247e-03  -1.04970250e-03  -1.04970250e-03  -1.04970250e-03  3.19096922e-05  1.91548011e-06  1.91550997e-06  1.91550997e-06  1.91550997e-06  2.99941822e-05  2.98534899e-11  1.86482774e-17  4.33680869e-19
7.00870000e-04  -7.37676552e-11  1.50180162e-17  -6.03365948e-18  1.47670880e-18  3.35668291e-18  3.50135693e-18  7.37676702e-11  7.37676491e-11  7.37676567e-11  7.37676585e-11  7.37676587e-11  1.15166593e-17  9.53501641e-18  2.02464813e-18  1.44674022e-19  -2.04817552e-11  -1.69115981e-17  6.64452180e-18  -1.27886803e-18  -3.09509655e-18  -3.44350696e-18  2.04817383e-11  2.04817618e-11  2.04817539e-11  2.04817521e-11  2.04817517e-11  1.34680912e-17  1.00880288e-17  2.16463893e-18  3.48410407e-19  -2.29407072e-03  -2.87288841e-03  -2.29485290e-03  -2.29555011e-03  -2.29555011e-03  -2.29555011e-03  5.78817688e-04  7.82182095e-07  1.47939487e-06  1.47939228e-06  1.47939228e-06  5.77338296e-04  6.97210184e-07  2.59087500e-12  1.18394877e-16  3.54201272e-03  3.57806061e-03  3.54799036e-03  3.54799663e-03  3.54799663e-03  3.54799663e-03  3.60478996e-05  5.97764584e-06  5.98391398e-06  5.98391398e-06  5.98391398e-06  3.00639857e-05  6.26814469e-09  1.68701858e-16  4.85722573e-17  -1.04786050e-03  -1.07977231e-03  -1.04977599e-03  -1.04977602e-03  -1.04977602e-03  -1.04977602e-03  3.19118081e-05  1.91549505e-06  1.91552490e-06  1.91552490e-06  1.91552490e-06  2.99962832e-05  2.98555809e-11  1.86482774e-17  4.33680869e-19
8.41044000e-04  -8.85137970e-11  1.50190680e-17  -6.03408205e-18  1.47681223e-18  3.35691800e-18  3.50160215e-18  8.85138120e-11  8.85137910e-11  8.85137985e-11  8.85138003e-11  8.85138005e-11  1.15174658e-17  9.53568420e-18  2.02478992e-18  1.44684155e-19  -2.46362514e-11  -1.69127825e-17  6.64498716e-18  -1.27895760e-18  -3.09531332e-18  -3.44374813e-18  2.46362345e-11  2.46362580e-11  2.46362501e-11  2.46362483e-11  2.46362479e-11  1.34690344e-17  1.00887353e-17  2.16479053e-18  3.48434809e-19  -2.29423157e-03  -2.87308961e-03  -2.29501362e-03  -2.29571088e-03  -2.29571088e-03  -2.29571088e-03  5.78858035e-04  7.82046295e-07  1.47930790e-06  1.47930531e-06  1.47930531e-06  5.77378730e-04  6.97259013e-07  2.59105671e-12  1.17961196e-16  3.54226120e-03  3.57831121e-03  3.54823885e-03  3.54824511e-03  3.54824511e-03  3.54824511e-03  3.60500041e-05  5.97764434e-06  5.98391292e-06  5.98391292e-06  5.98391292e-06  3.00660912e-05  6.26858368e-09  1.68701858e-16  4.85722573e-17  -1.04793400e-03  -1.07984793e-03  -1.04984951e-03  -1.04984954e-03  -1.04984954e-03  -1.04984954e-03  3.19139237e-05  1.91550991e-06  1.91553977e-06  1.91553977e-06  1.91553977e-06  2.99983840e-05  2.98576719e-11  1.86482774e-17  4.33680869e-19
9.81218000e-04  -1.03257658e-10  1.50201197e-17  -6.03450459e-18  1.47691564e-18  3.35715307e-18  3.50184735e-18  1.03257673e-10  1.03257652e-10  1.03257659e-10  1.03257661e-10  1.03257661e-10  1.15182724e-17  9.53635194e-18  2.02493171e-18  1.44694286e-19  -2.88105269e-11  -1.69139669e-17  6.64545248e-18  -1.27904716e-18  -3.09553007e-18  -3.44398928e-18  2.88105100e-11  2.88105335e-11  2.88105256e-11  2.88105238e-11  2.88105234e-11  1.34699776e-17  1.00894418e-17  2.16494212e-18  3.48459208e-19  -2.29439242e-03  -2.87329080e-03  -2.29517433e-03  -2.29587164e-03  -2.29587164e-03  -2.29587164e-03  5.78898379e-04  7.81910213e-07  1.47922064e-06  1.47921805e-06  1.47921805e-06  5.77419161e-04  6.97307839e-07  2.59123799e-12  1.17961196e-16  3.54250967e-03  3.57856178e-03  3.54848731e-03  3.54849358e-03  3.54849358e-03  3.54849358e-03  3.60521084e-05  5.97764278e-06  5.98391180e-06  5.98391180e-06  5.98391180e-06  3.00681966e-05  6.26902264e-09  1.68701858e-16  4.85722573e-17  -1.04800751e-03  -1.07992354e-03  -1.04992303e-03  -1.04992306e-03  -1.04992306e-03  -1.04992306e-03  3.19160392e-05  1.91552471e-06  1.91555457e-06  1.91555457e-06  1.91555457e-06  3.00004846e-05  2.98597627e-11  1.86482774e-17  4.33680869e-19
1.12139200e-03  -1.17999078e-10  1.50211713e-17  -6.03492710e-18  1.47701905e-18  3.35738812e-18  3.50209254e-18  1.17999093e-10  1.17999071e-10  1.17999079e-10  1.17999081e-10  1.17999081e-10  1.15190788e-17  9.53701964e-18  2.02507349e-18  1.44704417e-19  -3.30046823e-11  -1.69151511e-17  6.64591776e-18  -1.27913671e-18  -3.09574681e-18  -3.44423041e-18  3.30046654e-11  3.30046890e-11  3.30046810e-11  3.30046792e-11  3.30046789e-11  1.34709207e-17  1.00901482e-17  2.16509370e-18  3.48483606e-19  -2.29455325e-03  -2.87349198e-03  -2.29533503e-03  -2.29603239e-03  -2.29603239e-03  -2.29603239e-03  5.78938720e-04  7.81773861e-07  1.47913311e-06  1.47913052e-06  1.47913052e-06  5.77459590e-04  6.97356662e-07  2.59141970e-12  1.17961196e-16  3.54275812e-03  3.57881234e-03  3.54873576e-03  3.54874203e-03  3.54874203e-03  3.54874203e-03  3.60542125e-05  5.97764117e-06  5.98391063e-06  5.98391063e-06  5.98391063e-06  3.00703019e-05  6.26946157e-09  1.68701858e-16  4.85722573e-17  -1.04808100e-03  -1.07999916e-03  -1.04999654e-03  -1.04999657e-03  -1.04999657e-03  -1.04999657e-03  3.19181545e-05  1.91553946e-06  1.91556932e-06  1.91556932e-06  1.91556932e-06  3.00025851e-05  2.98618532e-11  1.88651178e-17  4.33680869e-19
1.26156600e-03  -1.32737465e-10  1.50222229e-17  -6.03534958e-18  1.47712245e-18  3.35762316e-18  3.50233770e-18  1.32737480e-10  1.32737459e-10  1.32737467e-10  1.32737468e-10  1.32737469e-10  1.15198852e-17  9.53768729e-18  2.02521526e-18  1.44714547e-19  -3.72193318e-11  -1.69163353e-17  6.64638302e-18  -1.27922626e-18  -3.09596353e-18  -3.44447153e-18  3.72193149e-11  3.72193384e-11  3.72193305e-11  3.72193287e-11  3.72193283e-11  1.34718638e-17  1.00908545e-17  2.16524527e-18  3.48508002e-19  -2.29471408e-03  -2.87369314e-03  -2.29549572e-03  -2.29619312e-03  -2.29619312e-03  -2.29619312e-03  5.78979058e-04  7.81637243e-07  1.47904532e-06  1.47904272e-06  1.47904272e-06  5.77500015e-04  6.97405481e-07  2.59160098e-12  1.17961196e-16  3.54300656e-03  3.57906287e-03  3.54898420e-03  3.54899047e-03  3.54899047e-03  3.54899047e-03  3.60563164e-05  5.97763953e-06  5.98390943e-06  5.98390943e-06  5.98390943e-06  3.00724070e-05  6.26990047e-09  1.69135539e-16  4.90059382e-17  -1.04815449e-03  -1.08007476e-03  -1.05007005e-03  -1.05007008e-03  -1.05007008e-03  -1.05007008e-03  3.19202695e-05  1.91555415e-06  1.91558401e-06  1.91558401e-06  1.91558401e-06  3.00046855e-05  2.98639438e-11  1.86482774e-17  4.33680869e-19
1.40174000e-03  -1.47473651e-10  1.50232744e-17  -6.03577203e-18  1.47722584e-18  3.35785818e-18  3.50258285e-18  1.47473666e-10  1.47473645e-10  1.47473653e-10  1.47473655e-10  1.47473655e-10  1.15206916e-17  9.53835489e-18  2.02535701e-18  1.44724677e-19  -4.14533928e-11  -1.69175194e-17  6.64684824e-18  -1.27931580e-18  -3.09618023e-18  -3.44471263e-18  4.14533759e-11  4.14533994e-11  4.14533915e-11  4.14533897e-11  4.14533894e-11  1.34728067e-17  1.00915609e-17  2.16539683e-18  3.48532396e-19  -2.29487489e-03  -2.87389428e-03  -2.29565639e-03  -2.29635385e-03  -2.29635385e-03  -2.29635385e-03  5.79019393e-04  7.81500359e-07  1.47895725e-06  1.47895466e-06  1.47895466e-06  5.77540438e-04  6.97454297e-07  2.59178269e-12  1.17961196e-16  3.54325497e-03  3.57931339e-03  3.54923261e-03  3.54923888e-03  3.54923888e-03  3.54923888e-03  3.60584201e-05  5.97763786e-06  5.98390820e-06  5.98390820e-06  5.98390820e-06  3.00745119e-05  6.27033934e-09  1.68701858e-16  4.85722573e-17  -1.04822798e-03  -1.08015036e-03  -1.05014355e-03  -1.05014358e-03  -1.05014358e-03  -1.05014358e-03  3.19223844e-05  1.91556879e-06  1.91559865e-06  1.91559865e-06  1.91559865e-06  3.00067857e-05  2.98660341e-11  1.88651178e-17  4.33680869e-19
1.54191400e-03  -1.62207371e-10  1.50243258e-17  -6.03619446e-18  1.47732923e-18  3.35809318e-18  3.50282799e-18  1.62207386e-10  1.62207365e-10  1.62207372e-10  1.62207374e-10  1.62207374e-10  1.15214979e-17  9.53902245e-18  2.02549876e-18  1.44734805e-19  -4.57080380e-11  -1.69187034e-17  6.64731343e-18  -1.27940533e-18  -3.09639693e-18  -3.44495371e-18  4.57080211e-11  4.57080447e-11  4.57080368e-11  4.57080350e-11  4.57080346e-11  1.34737496e-17  1.00922671e-17  2.16554838e-18  3.48556788e-19  -2.29503569e-03  -2.87409542e-03  -2.29581706e-03  -2.29651456e-03  -2.29651456e-03  -2.29651456e-03  5.79059725e-04  7.81363209e-07  1.47886891e-06  1.47886632e-06  1.47886632e-06  5.77580858e-04  6.97503109e-07  2.59196354e-12  1.18394877e-16  3.54350337e-03  3.57956390e-03  3.54948101e-03  3.54948728e-03  3.54948728e-03  3.54948728e-03  3.60605236e-05  5.97763615e-06  5.98390693e-06  5.98390693e-06  5.98390693e-06  3.00766167e-05  6.27077818e-09  1.68701858e-16  4.85722573e-17  -1.04830146e-03  -1.08022596e-03  -1.05021704e-03  -1.05021707e-03  -1.05021707e-03  -1.05021707e-03  3.19244990e-05  1.91558337e-06  1.91561324e-06  1.91561324e-06  1.91561324e-06  3.00088858e-05  2.98681242e-11  1.88651178e-17  4.33680869e-19
1.68208800e-03  -1.76938729e-10  1.50253772e-17  -6.03661685e-18  1.47743261e-18  3.35832817e-18  3.50307310e-18  1.76938744e-10  1.76938723e-10  1.76938731e-10  1.76938733e-10  1.76938733e-10  1.15223041e-17  9.53968995e-18  2.02564050e-18  1.44744934e-19  -4.99819804e-11  -1.69198873e-17  6.64777859e-18  -1.27949486e-18  -3.09661360e-18  -3.44519478e-18  4.99819634e-11  4.99819870e-11  4.99819791e-11  4.99819773e-11  4.99819769e-11  1.34746925e-17  1.00929734e-17  2.16569992e-18  3.48581179e-19  -2.29519648e-03  -2.87429654e-03  -2.29597771e-03  -2.29667526e-03  -2.29667526e-03  -2.29667526e-03  5.79100053e-04  7.81225797e-07  1.47878031e-06  1.47877771e-06  1.47877771e-06  5.77621275e-04  6.97551918e-07  2.59214525e-12  1.17961196e-16  3.54375176e-03  3.57981438e-03  3.54972939e-03  3.54973566e-03  3.54973566e-03  3.54973566e-03  3.60626270e-05  5.97763440e-06  5.98390562e-06  5.98390562e-06  5.98390562e-06  3.00787214e-05  6.27121699e-09  1.69135539e-16  4.85722573e-17  -1.04837494e-03  -1.08030155e-03  -1.05029053e-03  -1.05029056e-03  -1.05029056e-03  -1.05029056e-03  3.19266135e-05  1.91559791e-06  1.91562778e-06  1.91562778e-06  1.91562778e-06  3.00109857e-05  2.98702146e-11  1.86482774e-17  4.33680869e-19
1.82226200e-03  -1.91667543e-10  1.50264285e-17  -6.03703921e-18  1.47753598e-18  3.35856314e-18  3.50331820e-18  1.91667558e-10  1.91667537e-10  1.91667544e-10  1.91667546e-10  1.91667546e-10  1.15231103e-17  9.54035742e-18  2.02578223e-18  1.44755061e-19  -5.42764132e-11  -1.69210711e-17  6.64824371e-18  -1.27958438e-18  -3.09683026e-18  -3.44543583e-18  5.42763963e-11  5.42764199e-11  5.42764119e-11  5.42764101e-11  5.42764098e-11  1.34756353e-17  1.00936795e-17  2.16585145e-18  3.48605568e-19  -2.29535726e-03  -2.87449764e-03  -2.29613835e-03  -2.29683596e-03  -2.29683595e-03  -2.29683595e-03  5.79140379e-04  7.81088118e-07  1.47869143e-06  1.47868884e-06  1.47868884e-06  5.77661690e-04  6.97600723e-07  2.59232653e-12  1.17961196e-16  3.54400012e-03  3.58006485e-03  3.54997775e-03  3.54998403e-03  3.54998403e-03  3.54998403e-03  3.60647302e-05  5.97763262e-06  5.98390428e-06  5.98390428e-06  5.98390428e-06  3.00808259e-05  6.27165577e-09  1.68701858e-16  4.85722573e-17  -1.04844841e-03  -1.08037714e-03  -1.05036402e-03  -1.05036405e-03  -1.05036405e-03  -1.05036405e-03  3.19287277e-05  1.91561239e-06  1.91564226e-06  1.91564226e-06  1.91564226e-06  3.00130855e-05  2.98723045e-11  1.86482774e-17  4.33680869e-19
1.96243600e-03  -2.06394579e-10  1.50274797e-17  -6.03746155e-18  1.47763934e-18  3.35879810e-18  3.50356328e-18  2.06394594e-10  2.06394572e-10  2.06394580e-10  2.06394582e-10  2.06394582e-10  1.15239164e-17  9.54102483e-18  2.02592394e-18  1.44765188e-19  -5.85900044e-11  -1.69222549e-17  6.64870880e-18  -1.27967390e-18  -3.09704691e-18  -3.44567686e-18  5.85899875e-11  5.85900110e-11  5.85900031e-11  5.85900013e-11  5.85900009e-11  1.34765780e-17  1.00943857e-17  2.16600296e-18  3.48629956e-19  -2.29551803e-03  -2.87469873e-03  -2.29629898e-03  -2.29699664e-03  -2.29699663e-03  -2.29699663e-03  5.79180701e-04  7.80950175e-07  1.47860229e-06  1.47859970e-06  1.47859970e-06  5.77702101e-04  6.97649525e-07  2.59250781e-12  1.17961196e-16  3.54424847e-03  3.58031530e-03  3.55022610e-03  3.55023237e-03  3.55023237e-03  3.55023237e-03  3.60668332e-05  5.97763081e-06  5.98390290e-06  5.98390290e-06  5.98390290e-06  3.00829303e-05  6.27209451e-09  1.69135539e-16  4.85722573e-17  -1.04852187e-03  -1.08045272e-03  -1.05043750e-03  -1.05043753e-03  -1.05043753e-03  -1.05043753e-03  3.19308418e-05  1.91562682e-06  1.91565669e-06  1.91565669e-06  1.91565669e-06  3.00151851e-05  2.98743942e-11  1.86482774e-17  4.33680869e-19
2.10261000e-03  -2.21119172e-10  1.50285308e-17  -6.03788385e-18  1.47774270e-18  3.35903304e-18  3.50380835e-18  2.21119187e-10  2.21119166e-10  2.21119173e-10  2.21119175e-10  2.21119175e-10  1.15247225e-17  9.54169220e-18  2.02606565e-18  1.44775313e-19  -6.29235830e-11  -1.69234385e-17  6.64917386e-18  -1.27976341e-18  -3.09726354e-18  -3.44591788e-18  6.29235661e-11  6.29235897e-11  6.29235817e-11  6.29235799e-11  6.29235796e-11  1.34775206e-17  1.00950917e-17  2.16615447e-18  3.48654341e-19  -2.29567879e-03  -2.87489981e-03  -2.29645960e-03  -2.29715730e-03  -2.29715730e-03  -2.29715730e-03  5.79221020e-04  7.80811968e-07  1.47851289e-06  1.47851029e-06  1.47851029e-06  5.77742510e-04  6.97698324e-07  2.59268908e-12  1.17961196e-16  3.54449680e-03  3.58056574e-03  3.55047443e-03  3.55048070e-03  3.55048070e-03  3.55048070e-03  3.60689360e-05  5.97762896e-06  5.98390149e-06  5.98390149e-06  5.98390149e-06  3.00850345e-05  6.27253323e-09  1.69135539e-16  4.85722573e-17  -1.04859533e-03  -1.08052829e-03  -1.05051098e-03  -1.05051101e-03  -1.05051101e-03  -1.05051101e-03  3.19329557e-05  1.91564120e-06  1.91567107e-06  1.91567107e-06  1.91567107e-06  3.00172846e-05  2.98764839e-11  1.86482774e-17  4.33680869e-19
2.24278400e-03  -2.35841140e-10  1.50295819e-17  -6.03830613e-18  1.47784605e-18  3.35926796e-18  3.50405340e-18  2.35841155e-10  2.35841134e-10  2.35841141e-10  2.35841143e-10  2.35841144e-10  1.15255285e-17  9.54235952e-18  2.02620735e-18  1.44785439e-19  -6.72765836e-11  -1.69246221e-17  6.64963889e-18  -1.27985291e-18  -3.09748015e-18  -3.44615888e-18  6.72765667e-11  6.72765903e-11  6.72765823e-11  6.72765805e-11  6.72765802e-11  1.34784632e-17  1.00957978e-17  2.16630596e-18  3.48678725e-19  -2.29583954e-03  -2.87510088e-03  -2.29662021e-03  -2.29731796e-03  -2.29731796e-03  -2.29731796e-03  5.79261337e-04  7.80673498e-07  1.47842321e-06  1.47842062e-06  1.47842062e-06  5.77782916e-04  6.97747119e-07  2.59287080e-12  1.17961196e-16  3.54474511e-03  3.58081615e-03  3.55072274e-03  3.55072901e-03  3.55072901e-03  3.55072901e-03  3.60710386e-05  5.97762708e-06  5.98390005e-06  5.98390005e-06  5.98390005e-06  3.00871385e-05  6.27297191e-09  1.69135539e-16  4.90059382e-17  -1.04866879e-03  -1.08060386e-03  -1.05058445e-03  -1.05058448e-03  -1.05058448e-03  -1.05058448e-03  3.19350693e-05  1.91565552e-06  1.91568540e-06  1.91568540e-06  1.91568540e-06  3.00193839e-05  2.98785734e-11  1.86482774e-17  4.33680869e-19
2.38295800e-03  -2.50561015e-10  1.50306329e-17  -6.03872837e-18  1.47794939e-18  3.35950286e-18  3.50429843e-18  2.50561030e-10  2.50561009e-10  2.50561016e-10  2.50561018e-10  2.50561018e-10  1.15263344e-17  9.54302680e-18  2.02634904e-18  1.44795563e-19  -7.16494572e-11  -1.69258056e-17  6.65010388e-18  -1.27994241e-18  -3.09769675e-18  -3.44639986e-18  7.16494403e-11  7.16494639e-11  7.16494559e-11  7.16494541e-11  7.16494538e-11  1.34794057e-17  1.00965037e-17  2.16645745e-18  3.48703108e-19  -2.29600027e-03  -2.87530192e-03  -2.29678081e-03  -2.29747861e-03  -2.29747861e-03  -2.29747861e-03  5.79301650e-04  7.80534765e-07  1.47833327e-06  1.47833068e-06  1.47833068e-06  5.77823319e-04  6.97795911e-07  2.59305208e-12  1.17961196e-16  3.54499341e-03  3.58106655e-03  3.55097103e-03  3.55097731e-03  3.55097731e-03  3.55097731e-03  3.60731410e-05  5.97762516e-06  5.98389857e-06  5.98389857e-06  5.98389857e-06  3.00892425e-05  6.27341057e-09  1.68701858e-16  4.85722573e-17  -1.04874224e-03  -1.08067942e-03  -1.05065791e-03  -1.05065794e-03  -1.05065794e-03  -1.05065794e-03  3.19371828e-05  1.91566979e-06  1.91569967e-06  1.91569967e-06  1.91569967e-06  3.00214831e-05  2.98806628e-11  1.86482774e-17  4.33680869e-19
2.52313200e-03  -2.65278344e-10  1.50316838e-17  -6.03915059e-18  1.47805272e-18  3.35973775e-18  3.50454344e-18  2.65278359e-10  2.65278338e-10  2.65278346e-10  2.65278348e-10  2.65278348e-10  1.15271403e-17  9.54369403e-18  2.02649072e-18  1.44805687e-19  -7.60415654e-11  -1.69269890e-17  6.65056884e-18  -1.28003190e-18  -3.09791334e-18  -3.44664082e-18  7.60415485e-11  7.60415721e-11  7.60415641e-11  7.60415623e-11  7.60415620e-11  1.34803482e-17  1.00972097e-17  2.16660892e-18  3.48727488e-19  -2.29616100e-03  -2.87550296e-03  -2.29694140e-03  -2.29763924e-03  -2.29763924e-03  -2.29763924e-03  5.79341960e-04  7.80395766e-07  1.47824306e-06  1.47824047e-06  1.47824047e-06  5.77863719e-04  6.97844700e-07  2.59323292e-12  1.18394877e-16  3.54524169e-03  3.58131693e-03  3.55121931e-03  3.55122559e-03  3.55122559e-03  3.55122559e-03  3.60752433e-05  5.97762320e-06  5.98389705e-06  5.98389705e-06  5.98389705e-06  3.00913463e-05  6.27384919e-09  1.69135539e-16  4.85722573e-17  -1.04881569e-03  -1.08075498e-03  -1.05073137e-03  -1.05073140e-03  -1.05073140e-03  -1.05073140e-03  3.19392960e-05  1.91568401e-06  1.91571390e-06  1.91571390e-06  1.91571390e-06  3.00235821e-05  2.98827519e-11  1.86482774e-17  4.33680869e-19
2.66330600e-03  -2.79993830e-10  1.50327346e-17  -6.03957277e-18  1.47815605e-18  3.35997263e-18  3.50478844e-18  2.79993845e-10  2.79993824e-10  2.79993832e-10  2.79993834e-10  2.79993834e-10  1.15279462e-17  9.54436121e-18  2.02663238e-18  1.44815810e-19  -8.04532344e-11  -1.69281724e-17  6.65103377e-18  -1.28012138e-18  -3.09812990e-18  -3.44688177e-18  8.04532174e-11  8.04532410e-11  8.04532331e-11  8.04532313e-11  8.04532309e-11  1.34812906e-17  1.00979155e-17  2.16676039e-18  3.48751867e-19  -2.29632171e-03  -2.87570398e-03  -2.29710197e-03  -2.29779987e-03  -2.29779986e-03  -2.29779986e-03  5.79382267e-04  7.80256508e-07  1.47815259e-06  1.47814999e-06  1.47814999e-06  5.77904117e-04  6.97893485e-07  2.59341463e-12  1.17961196e-16  3.54548995e-03  3.58156729e-03  3.55146757e-03  3.55147384e-03  3.55147384e-03  3.55147384e-03  3.60773454e-05  5.97762121e-06  5.98389550e-06  5.98389550e-06  5.98389550e-06  3.00934499e-05  6.27428778e-09  1.69135539e-16  4.85722573e-17  -1.04888913e-03  -1.08083054e-03  -1.05080483e-03  -1.05080486e-03  -1.05080486e-03  -1.05080486e-03  3.19414091e-05  1.91569818e-06  1.91572807e-06  1.91572807e-06  1.91572807e-06  3.00256810e-05  2.98848409e-11  1.88651178e-17  4.33680869e-19
2.80348000e-03  -2.94706376e-10  1.50337854e-17  -6.03999493e-18  1.47825937e-18  3.36020748e-18  3.50503342e-18  2.94706391e-10  2.94706370e-10  2.94706377e-10  2.94706379e-10  2.94706379e-10  1.15287520e-17  9.54502834e-18  2.02677404e-18  1.44825932e-19  -8.48846063e-11  -1.69293556e-17  6.65149867e-18  -1.28021086e-18  -3.09834646e-18  -3.44712270e-18  8.48845894e-11  8.48846129e-11  8.48846050e-11  8.48846032e-11  8.48846028e-11  1.34822329e-17  1.00986214e-17  2.16691184e-18  3.48776244e-19  -2.29648242e-03  -2.87590499e-03  -2.29726253e-03  -2.29796048e-03  -2.29796048e-03  -2.29796048e-03  5.79422570e-04  7.80116983e-07  1.47806184e-06  1.47805925e-06  1.47805925e-06  5.77944511e-04  6.97942266e-07  2.59359591e-12  1.17961196e-16  3.54573819e-03  3.58181764e-03  3.55171581e-03  3.55172209e-03  3.55172209e-03  3.55172209e-03  3.60794473e-05  5.97761919e-06  5.98389392e-06  5.98389392e-06  5.98389392e-06  3.00955534e-05  6.27472635e-09  1.69135539e-16  4.85722573e-17  -1.04896256e-03  -1.08090608e-03  -1.05087828e-03  -1.05087831e-03  -1.05087831e-03  -1.05087831e-03  3.19435220e-05  1.91571230e-06  1.91574218e-06  1.91574218e-06  1.91574218e-06  3.00277798e-05  2.98869297e-11  1.86482774e-17  4.33680869e-19
2.94365400e-03  -3.09417658e-10  1.50348361e-17  -6.04041705e-18  1.47836269e-18  3.36044232e-18  3.50527838e-18  3.09417673e-10  3.09417652e-10  3.09417660e-10  3.09417662e-10  3.09417662e-10  1.15295577e-17  9.54569543e-18  2.02691569e-18  1.44836054e-19  -8.93350463e-11  -1.69305388e-17  6.65196353e-18  -1.28030034e-18  -3.09856300e-18  -3.44736362e-18  8.93350294e-11  8.93350530e-11  8.93350450e-11  8.93350432e-11  8.93350429e-11  1.34831752e-17  1.00993272e-17  2.16706328e-18  3.48800620e-19  -2.29664311e-03  -2.87610598e-03  -2.29742309e-03  -2.29812108e-03  -2.29812108e-03  -2.29812108e-03  5.79462871e-04  7.79977197e-07  1.47797084e-06  1.47796824e-06  1.47796824e-06  5.77984903e-04  6.97991045e-07  2.59377676e-12  1.18394877e-16  3.54598642e-03  3.58206797e-03  3.55196404e-03  3.55197031e-03  3.55197031e-03  3.55197031e-03  3.60815490e-05  5.97761713e-06  5.98389230e-06  5.98389230e-06  5.98389230e-06  3.00976567e-05  6.27516488e-09  1.68701858e-16  4.85722573e-17  -1.04903599e-03  -1.08098163e-03  -1.05095172e-03  -1.05095175e-03  -1.05095175e-03  -1.05095175e-03  3.19456346e-05  1.91572636e-06  1.91575625e-06  1.91575625e-06  1.91575625e-06  3.00298784e-05  2.98890186e-11  1.86482774e-17  4.33680869e-19
3.08382800e-03  -3.24126274e-10  1.50358867e-17  -6.04083915e-18  1.47846599e-18  3.36067715e-18  3.50552332e-18  3.24126289e-10  3.24126268e-10  3.24126276e-10  3.24126278e-10  3.24126278e-10  1.15303634e-17  9.54636248e-18  2.02705733e-18  1.44846175e-19  -9.38048007e-11  -1.69317219e-17  6.65242836e-18  -1.28038980e-18  -3.09877952e-18  -3.44760452e-18  9.38047838e-11  9.38048074e-11  9.38047995e-11  9.38047976e-11  9.38047973e-11  1.34841173e-17  1.01000329e-17  2.16721471e-18  3.48824994e-19  -2.29680379e-03  -2.87630696e-03  -2.29758363e-03  -2.29828167e-03  -2.29828167e-03  -2.29828167e-03  5.79503169e-04  7.79837147e-07  1.47787956e-06  1.47787697e-06  1.47787697e-06  5.78025292e-04  6.98039819e-07  2.59395847e-12  1.17961196e-16  3.54623463e-03  3.58231828e-03  3.55221224e-03  3.55221852e-03  3.55221852e-03  3.55221852e-03  3.60836505e-05  5.97761504e-06  5.98389064e-06  5.98389064e-06  5.98389064e-06  3.00997599e-05  6.27560338e-09  1.68701858e-16  4.85722573e-17  -1.04910942e-03  -1.08105717e-03  -1.05102516e-03  -1.05102519e-03  -1.05102519e-03  -1.05102519e-03  3.19477471e-05  1.91574037e-06  1.91577026e-06  1.91577026e-06  1.91577026e-06  3.00319768e-05  2.98911072e-11  1.86482774e-17  4.33680869e-19
3.22400200e-03  -3.38832596e-10  1.50369372e-17  -6.04126122e-18  1.47856929e-18  3.36091196e-18  3.50576825e-18  3.38832611e-10  3.38832590e-10  3.38832597e-10  3.38832599e-10  3.38832599e-10  1.15311690e-17  9.54702947e-18  2.02719896e-18  1.44856295e-19  -9.82942963e-11  -1.69329049e-17  6.65289316e-18  -1.28047926e-18  -3.09899603e-18  -3.44784540e-18  9.82942794e-11  9.82943030e-11  9.82942950e-11  9.82942932e-11  9.82942929e-11  1.34850595e-17  1.01007386e-17  2.16736614e-18  3.48849366e-19  -2.29696446e-03  -2.87650792e-03  -2.29774416e-03  -2.29844225e-03  -2.29844225e-03  -2.29844225e-03  5.79543463e-04  7.79696836e-07  1.47778802e-06  1.47778543e-06  1.47778543e-06  5.78065678e-04  6.98088591e-07  2.59413931e-12  1.17961196e-16  3.54648282e-03  3.58256857e-03  3.55246043e-03  3.55246671e-03  3.55246671e-03  3.55246671e-03  3.60857519e-05  5.97761291e-06  5.98388895e-06  5.98388895e-06  5.98388895e-06  3.01018629e-05  6.27604185e-09  1.69135539e-16  4.90059382e-17  -1.04918284e-03  -1.08113270e-03  -1.05109859e-03  -1.05109862e-03  -1.05109862e-03  -1.05109862e-03  3.19498594e-05  1.91575433e-06  1.91578422e-06  1.91578422e-06  1.91578422e-06  3.00340751e-05  2.98931956e-11  1.86482774e-17  4.33680869e-19