# time  numeric_E1  refQ6_E1  refQ12_E1  refQ24_E1  refQ48_E1  refQ96_E1  errQ6_E1  errQ12_E1  errQ24_E1  errQ48_E1  errQ96_E1  deltaQuadratureQ6_Q96_E1  deltaQuadratureQ12_Q96_E1  deltaQuadratureQ24_Q96_E1  deltaQuadratureQ48_Q96_E1  numeric_E2  refQ6_E2  refQ12_E2  refQ24_E2  refQ48_E2  refQ96_E2  errQ6_E2  errQ12_E2  errQ24_E2  errQ48_E2  errQ96_E2  deltaQuadratureQ6_Q96_E2  deltaQuadratureQ12_Q96_E2  deltaQuadratureQ24_Q96_E2  deltaQuadratureQ48_Q96_E2  numeric_E3  refQ6_E3  refQ12_E3  refQ24_E3  refQ48_E3  refQ96_E3  errQ6_E3  errQ12_E3  errQ24_E3  errQ48_E3  errQ96_E3  deltaQuadratureQ6_Q96_E3  deltaQuadratureQ12_Q96_E3  deltaQuadratureQ24_Q96_E3  deltaQuadratureQ48_Q96_E3  numeric_E4  refQ6_E4  refQ12_E4  refQ24_E4  refQ48_E4  refQ96_E4  errQ6_E4  errQ12_E4  errQ24_E4  errQ48_E4  errQ96_E4  deltaQuadratureQ6_Q96_E4  deltaQuadratureQ12_Q96_E4  deltaQuadratureQ24_Q96_E4  deltaQuadratureQ48_Q96_E4  numeric_E5  refQ6_E5  refQ12_E5  refQ24_E5  refQ48_E5  refQ96_E5  errQ6_E5  errQ12_E5  errQ24_E5  errQ48_E5  errQ96_E5  deltaQuadratureQ6_Q96_E5  deltaQuadratureQ12_Q96_E5  deltaQuadratureQ24_Q96_E5  deltaQuadratureQ48_Q96_E5
8.92857000e-03  -1.23302550e-07  1.50796284e-17  -6.05841289e-18  1.48276708e-18  3.37045388e-18  3.51572143e-18  1.23302550e-07  1.23302550e-07  1.23302550e-07  1.23302550e-07  1.23302550e-07  1.15639070e-17  9.57413432e-18  2.03295435e-18  1.45267555e-19  -8.33834813e-08  -1.69809789e-17  6.67178131e-18  -1.28411465e-18  -3.10779435e-18  -3.45763413e-18  8.33834813e-08  8.33834813e-08  8.33834813e-08  8.33834813e-08  8.33834813e-08  1.35233447e-17  1.01294154e-17  2.17351948e-18  3.49839780e-19  -2.19875469e-03  -2.88467458e-03  -2.30426766e-03  -2.30496773e-03  -2.30496773e-03  -2.30496773e-03  6.85919893e-04  1.05512965e-04  1.06213038e-04  1.06213036e-04  1.06213036e-04  5.79706857e-04  7.00070526e-07  2.60150408e-12  1.18828558e-16  3.19292406e-03  3.59273980e-03  3.56254618e-03  3.56255247e-03  3.56255247e-03  3.56255247e-03  3.99815740e-04  3.69622122e-04  3.69628416e-04  3.69628416e-04  3.69628416e-04  3.01873248e-05  6.29386008e-09  1.69569220e-16  4.90059382e-17  -9.36303538e-04  -1.08420213e-03  -1.05408275e-03  -1.05408278e-03  -1.05408278e-03  -1.05408278e-03  1.47898591e-04  1.17779216e-04  1.17779246e-04  1.17779246e-04  1.17779246e-04  3.01193445e-05  2.99780650e-11  1.88651178e-17  4.33680869e-19
1.78571400e-02  -2.41044923e-07  1.51462054e-17  -6.08516098e-18  1.48931354e-18  3.38533454e-18  3.53124346e-18  2.41044923e-07  2.41044923e-07  2.41044923e-07  2.41044923e-07  2.41044923e-07  1.16149620e-17  9.61640443e-18  2.04192991e-18  1.45908916e-19  -1.63920394e-07  -1.70559504e-17  6.70123744e-18  -1.28978406e-18  -3.12151536e-18  -3.47289970e-18  1.63920394e-07  1.63920394e-07  1.63920394e-07  1.63920394e-07  1.63920394e-07  1.35830507e-17  1.01741371e-17  2.18311564e-18  3.51384333e-19  -2.20939447e-03  -2.89741051e-03  -2.31444107e-03  -2.31514423e-03  -2.31514423e-03  -2.31514423e-03  6.88016039e-04  1.05046596e-04  1.05749760e-04  1.05749758e-04  1.05749758e-04  5.82266281e-04  7.03161359e-07  2.61299012e-12  1.18828558e-16  3.20841182e-03  3.60860186e-03  3.57827494e-03  3.57828126e-03  3.57828126e-03  3.57828126e-03  4.00190039e-04  3.69863115e-04  3.69869436e-04  3.69869436e-04  3.69869436e-04  3.03206028e-05  6.32164768e-09  1.70436582e-16  4.90059382e-17  -9.40903985e-04  -1.08898892e-03  -1.05873656e-03  -1.05873659e-03  -1.05873659e-03  -1.05873659e-03  1.48084931e-04  1.17832578e-04  1.17832608e-04  1.17832608e-04  1.17832608e-04  3.02523224e-05  3.01104191e-11  1.88651178e-17  4.33680869e-19
2.67857100e-02  -3.51089050e-07  1.52124911e-17  -6.11179200e-18  1.49583136e-18  3.40015008e-18  3.54669755e-18  3.51089050e-07  3.51089050e-07  3.51089050e-07  3.51089050e-07  3.51089050e-07  1.16657936e-17  9.65848955e-18  2.05086619e-18  1.46547470e-19  -2.40375422e-07  -1.71305939e-17  6.73056465e-18  -1.29542866e-18  -3.13517633e-18  -3.48809845e-18  2.40375422e-07  2.40375422e-07  2.40375422e-07  2.40375422e-07  2.40375422e-07  1.36424954e-17  1.02186631e-17  2.19266980e-18  3.52922128e-19  -2.22002507e-03  -2.91009070e-03  -2.32456996e-03  -2.32527620e-03  -2.32527620e-03  -2.32527620e-03  6.90065634e-04  1.04544891e-04  1.05251132e-04  1.05251130e-04  1.05251130e-04  5.84814504e-04  7.06238666e-07  2.62442542e-12  1.19695920e-16  3.22385777e-03  3.62439450e-03  3.59393485e-03  3.59394120e-03  3.59394120e-03  3.59394120e-03  4.00536736e-04  3.70077089e-04  3.70083438e-04  3.70083438e-04  3.70083438e-04  3.04532975e-05  6.34931366e-09  1.71303943e-16  4.94396191e-17  -9.45491011e-04  -1.09375475e-03  -1.06337000e-03  -1.06337003e-03  -1.06337003e-03  -1.06337003e-03  1.48263742e-04  1.17878994e-04  1.17879024e-04  1.17879024e-04  1.17879024e-04  3.03847183e-05  3.02421939e-11  1.88651178e-17  4.33680869e-19
3.57142800e-02  -4.52450723e-07  1.52784892e-17  -6.13830749e-18  1.50232089e-18  3.41490134e-18  3.56208459e-18  4.52450723e-07  4.52450723e-07  4.52450723e-07  4.52450723e-07  4.52450723e-07  1.17164046e-17  9.70039208e-18  2.05976370e-18  1.47183254e-19  -3.12054651e-07  -1.72049135e-17  6.75976463e-18  -1.30104876e-18  -3.14877802e-18  -3.50323127e-18  3.12054651e-07  3.12054651e-07  3.12054651e-07  3.12054651e-07  3.12054651e-07  1.37016822e-17  1.02629959e-17  2.20218251e-18  3.54453250e-19  -2.23064483e-03  -2.92271588e-03  -2.33465491e-03  -2.33536422e-03  -2.33536421e-03  -2.33536421e-03  6.92071058e-04  1.04010083e-04  1.04719388e-04  1.04719386e-04  1.04719386e-04  5.87351672e-04  7.09302622e-07  2.63581127e-12  1.20129601e-16  3.23925964e-03  3.64011863e-03  3.60952683e-03  3.60953321e-03  3.60953321e-03  3.60953321e-03  4.00858987e-04  3.70267194e-04  3.70273571e-04  3.70273571e-04  3.70273571e-04  3.05854165e-05  6.37685961e-09  1.71737624e-16  4.94396191e-17  -9.50063411e-04  -1.09849991e-03  -1.06798334e-03  -1.06798337e-03  -1.06798337e-03  -1.06798337e-03  1.48436503e-04  1.17919933e-04  1.17919964e-04  1.17919964e-04  1.17919964e-04  3.05165398e-05  3.03733974e-11  1.88651178e-17  4.33680869e-19
4.46428500e-02  -5.44535632e-07  1.53442034e-17  -6.16470893e-18  1.50878252e-18  3.42958915e-18  3.57740545e-18  5.44535632e-07  5.44535632e-07  5.44535632e-07  5.44535632e-07  5.44535632e-07  1.17667980e-17  9.74211438e-18  2.06862293e-18  1.47816303e-19  -3.78447879e-07  -1.72789135e-17  6.78883902e-18  -1.30664470e-18  -3.16232121e-18  -3.51829900e-18  3.78447879e-07  3.78447879e-07  3.78447879e-07  3.78447879e-07  3.78447879e-07  1.37606145e-17  1.03071380e-17  2.21165430e-18  3.55977787e-19  -2.24125242e-03  -2.93528676e-03  -2.34469648e-03  -2.34540884e-03  -2.34540883e-03  -2.34540883e-03  6.94034342e-04  1.03444062e-04  1.04156418e-04  1.04156415e-04  1.04156415e-04  5.89877927e-04  7.12353400e-07  2.64714856e-12  1.20563282e-16  3.25461761e-03  3.65577512e-03  3.62505175e-03  3.62505815e-03  3.62505815e-03  3.62505815e-03  4.01157505e-04  3.70434134e-04  3.70440538e-04  3.70440538e-04  3.70440538e-04  3.07169673e-05  6.40428709e-09  1.72171305e-16  4.94396191e-17  -9.54620700e-04  -1.10322467e-03  -1.07257684e-03  -1.07257687e-03  -1.07257687e-03  -1.07257687e-03  1.48603966e-04  1.17956141e-04  1.17956172e-04  1.17956172e-04  1.17956172e-04  3.06477943e-05  3.05040359e-11  1.90819582e-17  6.50521303e-19
5.35714200e-02  -6.26882545e-07  1.54096374e-17  -6.19099778e-18  1.51521659e-18  3.44421433e-18  3.59266098e-18  6.26882545e-07  6.26882545e-07  6.26882545e-07  6.26882545e-07  6.26882545e-07  1.18169764e-17  9.78365876e-18  2.07744439e-18  1.48446652e-19  -4.39109318e-07  -1.73525978e-17  6.81778942e-18  -1.31221677e-18  -3.17580665e-18  -3.53330247e-18  4.39109318e-07  4.39109318e-07  4.39109318e-07  4.39109318e-07  4.39109318e-07  1.38192954e-17  1.03510919e-17  2.22108571e-18  3.57495823e-19  -2.25184664e-03  -2.94780403e-03  -2.35469523e-03  -2.35541062e-03  -2.35541062e-03  -2.35541062e-03  6.95957395e-04  1.02848595e-04  1.03563989e-04  1.03563986e-04  1.03563986e-04  5.92393409e-04  7.15391167e-07  2.65843684e-12  1.20996962e-16  3.26993265e-03  3.67136485e-03  3.64051046e-03  3.64051689e-03  3.64051689e-03  3.64051689e-03  4.01432196e-04  3.70577808e-04  3.70584239e-04  3.70584239e-04  3.70584239e-04  3.08479570e-05  6.43159760e-09  1.73038667e-16  4.98732999e-17  -9.59162629e-04  -1.10792927e-03  -1.07715075e-03  -1.07715078e-03  -1.07715078e-03  -1.07715078e-03  1.48766641e-04  1.17988122e-04  1.17988152e-04  1.17988152e-04  1.17988152e-04  3.07784891e-05  3.06341179e-11  1.90819582e-17  4.33680869e-19
6.24999900e-02  -6.99077121e-07  1.54747947e-17  -6.21717547e-18  1.52162345e-18  3.45877766e-18  3.60785200e-18  6.99077121e-07  6.99077121e-07  6.99077121e-07  6.99077121e-07  6.99077121e-07  1.18669427e-17  9.82502747e-18  2.08622855e-18  1.49074336e-19  -4.93617888e-07  -1.74259707e-17  6.84661740e-18  -1.31776528e-18  -3.18923506e-18  -3.54824250e-18  4.93617888e-07  4.93617888e-07  4.93617888e-07  4.93617888e-07  4.93617888e-07  1.38777282e-17  1.03948599e-17  2.23047723e-18  3.59007439e-19  -2.26242631e-03  -2.96026837e-03  -2.36465170e-03  -2.36537012e-03  -2.36537012e-03  -2.36537012e-03  6.97842062e-04  1.02225392e-04  1.02943811e-04  1.02943808e-04  1.02943808e-04  5.94898254e-04  7.18416090e-07  2.66967741e-12  1.21864324e-16  3.28520595e-03  3.68688866e-03  3.65590380e-03  3.65591026e-03  3.65591026e-03  3.65591026e-03  4.01682706e-04  3.70697854e-04  3.70704313e-04  3.70704313e-04  3.70704313e-04  3.09783929e-05  6.45879263e-09  1.73906028e-16  4.98732999e-17  -9.63689025e-04  -1.11261398e-03  -1.08170532e-03  -1.08170535e-03  -1.08170535e-03  -1.08170535e-03  1.48924956e-04  1.18016294e-04  1.18016325e-04  1.18016325e-04  1.18016325e-04  3.09086313e-05  3.07636494e-11  1.92987987e-17  6.50521303e-19
7.14285600e-02  -7.60723017e-07  1.55396788e-17  -6.24324341e-18  1.52800345e-18  3.47327994e-18  3.62297933e-18  7.60723017e-07  7.60723017e-07  7.60723017e-07  7.60723017e-07  7.60723017e-07  1.19166995e-17  9.86622273e-18  2.09497588e-18  1.49699389e-19  -5.41563994e-07  -1.74990358e-17  6.87532451e-18  -1.32329052e-18  -3.20260718e-18  -3.56311989e-18  5.41563994e-07  5.41563994e-07  5.41563994e-07  5.41563994e-07  5.41563994e-07  1.39359160e-17  1.04384444e-17  2.23982937e-18  3.60512718e-19  -2.27299030e-03  -2.97268045e-03  -2.37456643e-03  -2.37528786e-03  -2.37528785e-03  -2.37528785e-03  6.99690151e-04  1.01576125e-04  1.02297556e-04  1.02297554e-04  1.02297554e-04  5.97392597e-04  7.21428330e-07  2.68087115e-12  1.22298005e-16  3.30043878e-03  3.70234737e-03  3.67123261e-03  3.67123909e-03  3.67123909e-03  3.67123909e-03  4.01908599e-04  3.70793831e-04  3.70800317e-04  3.70800317e-04  3.70800317e-04  3.11082819e-05  6.48587364e-09  1.74773390e-16  5.03069808e-17  -9.68199742e-04  -1.11727905e-03  -1.08624079e-03  -1.08624082e-03  -1.08624082e-03  -1.08624082e-03  1.49079306e-04  1.18041048e-04  1.18041079e-04  1.18041079e-04  1.18041079e-04  3.10382277e-05  3.08926381e-11  1.95156391e-17  6.50521303e-19
8.03571300e-02  -8.11432223e-07  1.56042932e-17  -6.26920295e-18  1.53435692e-18  3.48772191e-18  3.63804375e-18  8.11432223e-07  8.11432223e-07  8.11432223e-07  8.11432223e-07  8.11432223e-07  1.19662494e-17  9.90724670e-18  2.10368683e-18  1.50321842e-19  -5.82545117e-07  -1.75717972e-17  6.90391226e-18  -1.32879279e-18  -3.21592369e-18  -3.57793542e-18  5.82545117e-07  5.82545117e-07  5.82545117e-07  5.82545117e-07  5.82545117e-07  1.39938618e-17  1.04818477e-17  2.24914263e-18  3.62011738e-19  -2.28353749e-03  -2.98504092e-03  -2.38443992e-03  -2.38516435e-03  -2.38516435e-03  -2.38516435e-03  7.01503431e-04  1.00902434e-04  1.01626865e-04  1.01626862e-04  1.01626862e-04  5.99876569e-04  7.24428044e-07  2.69201848e-12  1.22298005e-16  3.31563240e-03  3.71774181e-03  3.68649767e-03  3.68650418e-03  3.68650418e-03  3.68650418e-03  4.02109417e-04  3.70865274e-04  3.70871787e-04  3.70871787e-04  3.70871787e-04  3.12376308e-05  6.51284204e-09  1.75207071e-16  5.03069808e-17  -9.72694644e-04  -1.12192472e-03  -1.09075740e-03  -1.09075743e-03  -1.09075743e-03  -1.09075743e-03  1.49230075e-04  1.18062759e-04  1.18062790e-04  1.18062790e-04  1.18062790e-04  3.11672854e-05  3.10210904e-11  1.92987987e-17  4.33680869e-19
8.92857000e-02  -8.50821809e-07  1.56686410e-17  -6.29505543e-18  1.54068419e-18  3.50210433e-18  3.65304606e-18  8.50821809e-07  8.50821809e-07  8.50821809e-07  8.50821809e-07  8.50821809e-07  1.20155950e-17  9.94810149e-18  2.11236187e-18  1.50941728e-19  -6.16164307e-07  -1.76442585e-17  6.93238212e-18  -1.33427237e-18  -3.22918528e-18  -3.59268986e-18  6.16164306e-07  6.16164307e-07  6.16164307e-07  6.16164307e-07  6.16164307e-07  1.40515687e-17  1.05250720e-17  2.25841749e-18  3.63504576e-19  -2.29406678e-03  -2.99735042e-03  -2.39427271e-03  -2.39500012e-03  -2.39500012e-03  -2.39500012e-03  7.03283639e-04  1.00205927e-04  1.00933345e-04  1.00933342e-04  1.00933342e-04  6.02350296e-04  7.27415389e-07  2.70311941e-12  1.23165367e-16  3.33078807e-03  3.73307277e-03  3.70169979e-03  3.70170632e-03  3.70170632e-03  3.70170632e-03  4.02284701e-04  3.70911715e-04  3.70918255e-04  3.70918255e-04  3.70918255e-04  3.13664463e-05  6.53969923e-09  1.76074433e-16  5.07406617e-17  -9.77173595e-04  -1.12655123e-03  -1.09525539e-03  -1.09525542e-03  -1.09525542e-03  -1.09525542e-03  1.49377636e-04  1.18081794e-04  1.18081825e-04  1.18081825e-04  1.18081825e-04  3.12958108e-05  3.11490128e-11  1.95156391e-17  4.33680869e-19
9.82142700e-02  -8.78512825e-07  1.57327257e-17  -6.32080219e-18  1.54698558e-18  3.51642792e-18  3.66798700e-18  8.78512825e-07  8.78512825e-07  8.78512825e-07  8.78512825e-07  8.78512825e-07  1.20647387e-17  9.98878919e-18  2.12100142e-18  1.51559079e-19  -6.42029645e-07  -1.77164235e-17  6.96073553e-18  -1.33972954e-18  -3.24239264e-18  -3.60738394e-18  6.42029645e-07  6.42029645e-07  6.42029645e-07  6.42029645e-07  6.42029645e-07  1.41090395e-17  1.05681195e-17  2.26765440e-18  3.64991308e-19  -2.30457709e-03  -3.00960957e-03  -2.40406527e-03  -2.40479567e-03  -2.40479566e-03  -2.40479566e-03  7.05032479e-04  9.94881816e-05  1.00218575e-04  1.00218572e-04  1.00218572e-04  6.04813907e-04  7.30390515e-07  2.71417567e-12  1.23599048e-16  3.34590703e-03  3.74834102e-03  3.71683972e-03  3.71684629e-03  3.71684629e-03  3.71684629e-03  4.02433994e-04  3.70932692e-04  3.70939259e-04  3.70939259e-04  3.70939259e-04  3.14947350e-05  6.56644658e-09  1.76941795e-16  5.11743425e-17  -9.81636464e-04  -1.13115882e-03  -1.09973498e-03  -1.09973501e-03  -1.09973501e-03  -1.09973501e-03  1.49522357e-04  1.18098515e-04  1.18098547e-04  1.18098547e-04  1.18098547e-04  3.14238105e-05  3.12764122e-11  1.95156391e-17  4.33680869e-19
1.07142840e-01  -8.94129918e-07  1.57965504e-17  -6.34644449e-18  1.55326141e-18  3.53069341e-18  3.68286733e-18  8.94129918e-07  8.94129918e-07  8.94129918e-07  8.94129918e-07  8.94129918e-07  1.21136831e-17  1.00293118e-17  2.12960592e-18  1.52173926e-19  -6.59754024e-07  -1.77882957e-17  6.98897392e-18  -1.34516457e-18  -3.25554641e-18  -3.62201842e-18  6.59754024e-07  6.59754024e-07  6.59754024e-07  6.59754024e-07  6.59754024e-07  1.41662772e-17  1.06109923e-17  2.27685385e-18  3.66472009e-19  -2.31506736e-03  -3.02181899e-03  -2.41381811e-03  -2.41455147e-03  -2.41455146e-03  -2.41455146e-03  7.06751623e-04  9.87507472e-05  9.94841035e-05  9.94841008e-05  9.94841008e-05  6.07267523e-04  7.33353571e-07  2.72518640e-12  1.24032729e-16  3.36099049e-03  3.76354734e-03  3.73191824e-03  3.73192483e-03  3.73192483e-03  3.73192483e-03  4.02556843e-04  3.70927747e-04  3.70934340e-04  3.70934340e-04  3.70934340e-04  3.16225032e-05  6.59308541e-09  1.77809156e-16  5.11743425e-17  -9.86083118e-04  -1.13574772e-03  -1.10419640e-03  -1.10419643e-03  -1.10419643e-03  -1.10419643e-03  1.49664601e-04  1.18113279e-04  1.18113310e-04  1.18113310e-04  1.18113310e-04  3.15512910e-05  3.14032947e-11  1.97324795e-17  4.33680869e-19
1.16071410e-01  -8.97301181e-07  1.58601183e-17  -6.37198360e-18  1.55951199e-18  3.54490148e-18  3.69768778e-18  8.97301181e-07  8.97301181e-07  8.97301181e-07  8.97301181e-07  8.97301181e-07  1.21624305e-17  1.00696714e-17  2.13817580e-18  1.52786298e-19  -6.68955021e-07  -1.78598786e-17  7.01709868e-18  -1.35057773e-18  -3.26864725e-18  -3.63659400e-18  6.68955021e-07  6.68955021e-07  6.68955021e-07  6.68955021e-07  6.68955021e-07  1.42232846e-17  1.06536927e-17  2.28601628e-18  3.67946751e-19  -2.32553656e-03  -3.03397927e-03  -2.42353170e-03  -2.42426801e-03  -2.42426801e-03  -2.42426801e-03  7.08442714e-04  9.79951443e-05  9.87314517e-05  9.87314490e-05  9.87314490e-05  6.09711265e-04  7.36304704e-07  2.73615288e-12  1.24466409e-16  3.37603965e-03  3.77869245e-03  3.74693608e-03  3.74694270e-03  3.74694270e-03  3.74694270e-03  4.02652804e-04  3.70896427e-04  3.70903047e-04  3.70903047e-04  3.70903047e-04  3.17497572e-05  6.61961704e-09  1.78242837e-16  5.11743425e-17  -9.90513425e-04  -1.14031815e-03  -1.10863986e-03  -1.10863989e-03  -1.10863989e-03  -1.10863989e-03  1.49804725e-04  1.18126435e-04  1.18126467e-04  1.18126467e-04  1.18126467e-04  3.16782584e-05  3.15296667e-11  1.97324795e-17  4.33680869e-19
1.24999980e-01  -8.87658078e-07  1.59234323e-17  -6.39742076e-18  1.56573761e-18  3.55905284e-18  3.71244907e-18  8.87658078e-07  8.87658078e-07  8.87658078e-07  8.87658078e-07  8.87658078e-07  1.22109833e-17  1.01098698e-17  2.14671146e-18  1.53396226e-19  -6.69254821e-07  -1.79311758e-17  7.04511115e-18  -1.35596928e-18  -3.28169579e-18  -3.65111140e-18  6.69254821e-07  6.69254821e-07  6.69254821e-07  6.69254821e-07  6.69254821e-07  1.42800644e-17  1.06962226e-17  2.29514212e-18  3.69415606e-19  -2.33598365e-03  -3.04609101e-03  -2.43320652e-03  -2.43394576e-03  -2.43394576e-03  -2.43394576e-03  7.10107360e-04  9.72228652e-05  9.79621120e-05  9.79621093e-05  9.79621093e-05  6.12145251e-04  7.39244055e-07  2.74707557e-12  1.25333771e-16  3.39105568e-03  3.79377711e-03  3.76189396e-03  3.76190061e-03  3.76190061e-03  3.76190061e-03  4.02721438e-04  3.70838289e-04  3.70844935e-04  3.70844935e-04  3.70844935e-04  3.18765032e-05  6.64604276e-09  1.79110199e-16  5.16080234e-17  -9.94927255e-04  -1.14487034e-03  -1.11306559e-03  -1.11306562e-03  -1.11306562e-03  -1.11306562e-03  1.49943081e-04  1.18138330e-04  1.18138362e-04  1.18138362e-04  1.18138362e-04  3.18047190e-05  3.16555339e-11  1.99493200e-17  4.33680869e-19
1.33928550e-01  -8.64835395e-07  1.59864957e-17  -6.42275717e-18  1.57193857e-18  3.57314815e-18  3.72715189e-18  8.64835395e-07  8.64835394e-07  8.64835395e-07  8.64835395e-07  8.64835395e-07  1.22593438e-17  1.01499091e-17  2.15521332e-18  1.54003738e-19  -6.60280135e-07  -1.80021906e-17  7.07301269e-18  -1.36133947e-18  -3.29469266e-18  -3.66557130e-18  6.60280135e-07  6.60280135e-07  6.60280135e-07  6.60280135e-07  6.60280135e-07  1.43366193e-17  1.07385840e-17  2.30423183e-18  3.70878643e-19  -2.34640764e-03  -3.05815478e-03  -2.44284301e-03  -2.44358519e-03  -2.44358519e-03  -2.44358519e-03  7.11747145e-04  9.64353752e-05  9.71775497e-05  9.71775470e-05  9.71775470e-05  6.14569598e-04  7.42171765e-07  2.75795489e-12  1.25767452e-16  3.40603972e-03  3.80880203e-03  3.77679261e-03  3.77679928e-03  3.77679928e-03  3.77679928e-03  4.02762312e-04  3.70752892e-04  3.70759565e-04  3.70759565e-04  3.70759565e-04  3.20027473e-05  6.67236382e-09  1.79543880e-16  5.16080234e-17  -9.99324477e-04  -1.14940449e-03  -1.11747378e-03  -1.11747381e-03  -1.11747381e-03  -1.11747381e-03  1.50080016e-04  1.18149306e-04  1.18149338e-04  1.18149338e-04  1.18149338e-04  3.19306788e-05  3.17809030e-11  1.99493200e-17  4.33680869e-19
1.42857120e-01  -8.28471197e-07  1.60493112e-17  -6.44799403e-18  1.57811517e-18  3.58718808e-18  3.74179694e-18  8.28471197e-07  8.28471197e-07  8.28471197e-07  8.28471197e-07  8.28471197e-07  1.23075143e-17  1.01897910e-17  2.16368177e-18  1.54608863e-19  -6.41662129e-07  -1.80729264e-17  7.10080459e-18  -1.36668857e-18  -3.30763845e-18  -3.67997439e-18  6.41662129e-07  6.41662129e-07  6.41662129e-07  6.41662129e-07  6.41662129e-07  1.43929520e-17  1.07807790e-17  2.31328582e-18  3.72335932e-19  -2.35680754e-03  -3.07017115e-03  -2.45244165e-03  -2.45318674e-03  -2.45318674e-03  -2.45318674e-03  7.13363619e-04  9.56341128e-05  9.63792035e-05  9.63792008e-05  9.63792008e-05  6.16984419e-04  7.45087972e-07  2.76879171e-12  1.26201133e-16  3.42099291e-03  3.82376791e-03  3.79163271e-03  3.79163941e-03  3.79163941e-03  3.79163941e-03  4.02775000e-04  3.70639806e-04  3.70646504e-04  3.70646504e-04  3.70646504e-04  3.21284953e-05  6.69858146e-09  1.80411242e-16  5.20417043e-17  -1.00370496e-03  -1.15392083e-03  -1.12186466e-03  -1.12186469e-03  -1.12186469e-03  -1.12186469e-03  1.50215874e-04  1.18159698e-04  1.18159730e-04  1.18159730e-04  1.18159730e-04  3.20561436e-05  3.19057792e-11  1.99493200e-17  6.50521303e-19
1.51785690e-01  -7.78206787e-07  1.61118819e-17  -6.47313250e-18  1.58426769e-18  3.60117327e-18  3.75638490e-18  7.78206787e-07  7.78206787e-07  7.78206787e-07  7.78206787e-07  7.78206787e-07  1.23554970e-17  1.02295174e-17  2.17211721e-18  1.55211629e-19  -6.13036354e-07  -1.81433864e-17  7.12848814e-18  -1.37201681e-18  -3.32053378e-18  -3.69432132e-18  6.13036354e-07  6.13036354e-07  6.13036354e-07  6.13036354e-07  6.13036354e-07  1.44490651e-17  1.08228095e-17  2.32230451e-18  3.73787540e-19  -2.36718237e-03  -3.08214068e-03  -2.46200286e-03  -2.46275085e-03  -2.46275085e-03  -2.46275085e-03  7.14958308e-04  9.48204904e-05  9.55684860e-05  9.55684832e-05  9.55684832e-05  6.19389825e-04  7.47992809e-07  2.77958646e-12  1.26634814e-16  3.43591636e-03  3.83867544e-03  3.80641496e-03  3.80642169e-03  3.80642169e-03  3.80642169e-03  4.02759081e-04  3.70498603e-04  3.70505328e-04  3.70505328e-04  3.70505328e-04  3.22537530e-05  6.72469688e-09  1.81278603e-16  5.24753851e-17  -1.00806858e-03  -1.15841957e-03  -1.12623842e-03  -1.12623845e-03  -1.12623845e-03  -1.12623845e-03  1.50350990e-04  1.18169839e-04  1.18169871e-04  1.18169871e-04  1.18169871e-04  3.21811193e-05  3.20301689e-11  1.99493200e-17  4.33680869e-19
1.60714260e-01  -7.13686659e-07  1.61742104e-17  -6.49817372e-18  1.59039640e-18  3.61510436e-18  3.77091642e-18  7.13686659e-07  7.13686659e-07  7.13686659e-07  7.13686659e-07  7.13686659e-07  1.24032940e-17  1.02690901e-17  2.18052001e-18  1.55812063e-19  -5.74042673e-07  -1.82135739e-17  7.15606460e-18  -1.37732443e-18  -3.33337921e-18  -3.70861275e-18  5.74042673e-07  5.74042673e-07  5.74042673e-07  5.74042673e-07  5.74042673e-07  1.45049611e-17  1.08646773e-17  2.33128831e-18  3.75233532e-19  -2.37753119e-03  -3.09406389e-03  -2.47152708e-03  -2.47227797e-03  -2.47227797e-03  -2.47227797e-03  7.16532707e-04  9.39958949e-05  9.47467841e-05  9.47467813e-05  9.47467813e-05  6.21785925e-04  7.50886408e-07  2.79033914e-12  1.27068495e-16  3.45081116e-03  3.85352530e-03  3.82114002e-03  3.82114678e-03  3.82114678e-03  3.82114678e-03  4.02714140e-04  3.70328863e-04  3.70335614e-04  3.70335614e-04  3.70335614e-04  3.23785262e-05  6.75071128e-09  1.81712284e-16  5.24753851e-17  -1.01241520e-03  -1.16290090e-03  -1.13059525e-03  -1.13059529e-03  -1.13059529e-03  -1.13059529e-03  1.50485698e-04  1.18180055e-04  1.18180087e-04  1.18180087e-04  1.18180087e-04  3.23056115e-05  3.21540769e-11  2.01661604e-17  4.33680869e-19
1.69642830e-01  -6.34558458e-07  1.62362998e-17  -6.52311882e-18  1.59650160e-18  3.62898197e-18  3.78539216e-18  6.34558458e-07  6.34558458e-07  6.34558458e-07  6.34558458e-07  6.34558458e-07  1.24509076e-17  1.03085110e-17  2.18889056e-18  1.56410192e-19  -5.24325187e-07  -1.82834919e-17  7.18353519e-18  -1.38261169e-18  -3.34617534e-18  -3.72284931e-18  5.24325187e-07  5.24325187e-07  5.24325187e-07  5.24325187e-07  5.24325187e-07  1.45606426e-17  1.09063845e-17  2.34023763e-18  3.76673972e-19  -2.38785306e-03  -3.10594134e-03  -2.48101474e-03  -2.48176852e-03  -2.48176851e-03  -2.48176851e-03  7.18088285e-04  9.31616884e-05  9.39154601e-05  9.39154573e-05  9.39154573e-05  6.24172828e-04  7.53768900e-07  2.80105106e-12  1.27502175e-16  3.46567839e-03  3.86831816e-03  3.83580856e-03  3.83581534e-03  3.83581534e-03  3.83581534e-03  4.02639769e-04  3.70130172e-04  3.70136949e-04  3.70136949e-04  3.70136949e-04  3.25028204e-05  6.77662581e-09  1.82579646e-16  5.24753851e-17  -1.01674470e-03  -1.16736502e-03  -1.13493537e-03  -1.13493540e-03  -1.13493540e-03  -1.13493540e-03  1.50620328e-04  1.18190669e-04  1.18190702e-04  1.18190702e-04  1.18190702e-04  3.24296258e-05  3.22775097e-11  2.01661604e-17  4.33680869e-19
1.78571400e-01  -5.40472926e-07  1.62981526e-17  -6.54796888e-18  1.60258353e-18  3.64280671e-18  3.79981275e-18  5.40472926e-07  5.40472926e-07  5.40472926e-07  5.40472926e-07  5.40472926e-07  1.24983398e-17  1.03477816e-17  2.19722922e-18  1.57006042e-19  -4.63532167e-07  -1.83531435e-17  7.21090114e-18  -1.38787880e-18  -3.35892272e-18  -3.73703165e-18  4.63532167e-07  4.63532167e-07  4.63532167e-07  4.63532167e-07  4.63532167e-07  1.46161119e-17  1.09479328e-17  2.34915285e-18  3.78108926e-19  -2.39814705e-03  -3.11777354e-03  -2.49046626e-03  -2.49122290e-03  -2.49122290e-03  -2.49122290e-03  7.19626487e-04  9.23192085e-05  9.30758517e-05  9.30758489e-05  9.30758489e-05  6.26550638e-04  7.56640410e-07  2.81172134e-12  1.28369537e-16  3.48051909e-03  3.88305466e-03  3.85042122e-03  3.85042802e-03  3.85042802e-03  3.85042802e-03  4.02535566e-04  3.69902122e-04  3.69908925e-04  3.69908925e-04  3.69908925e-04  3.26266411e-05  6.80244162e-09  1.83447008e-16  5.29090660e-17  -1.02105694e-03  -1.17181214e-03  -1.13925894e-03  -1.13925898e-03  -1.13925898e-03  -1.13925898e-03  1.50755201e-04  1.18202001e-04  1.18202033e-04  1.18202033e-04  1.18202033e-04  3.25531677e-05  3.24004721e-11  2.01661604e-17  4.33680869e-19
1.87499970e-01  -4.31083860e-07  1.63597715e-17  -6.57272499e-18  1.60864246e-18  3.65657918e-18  3.81417882e-18  4.31083860e-07  4.31083860e-07  4.31083860e-07  4.31083860e-07  4.31083860e-07  1.25455927e-17  1.03869038e-17  2.20553636e-18  1.57599640e-19  -3.91315977e-07  -1.84225318e-17  7.23816362e-18  -1.39312599e-18  -3.37162190e-18  -3.75116036e-18  3.91315977e-07  3.91315977e-07  3.91315977e-07  3.91315977e-07  3.91315977e-07  1.46713714e-17  1.09893240e-17  2.35803437e-18  3.79538454e-19  -2.40841228e-03  -3.12956100e-03  -2.49988205e-03  -2.50064155e-03  -2.50064155e-03  -2.50064155e-03  7.21148727e-04  9.14697691e-05  9.22292730e-05  9.22292702e-05  9.22292702e-05  6.28919457e-04  7.59501064e-07  2.82235216e-12  1.28369537e-16  3.49533431e-03  3.89773545e-03  3.86497862e-03  3.86498545e-03  3.86498545e-03  3.86498545e-03  4.02401132e-04  3.69644310e-04  3.69651138e-04  3.69651138e-04  3.69651138e-04  3.27499937e-05  6.82815982e-09  1.83880688e-16  5.29090660e-17  -1.02535181e-03  -1.17624245e-03  -1.14356618e-03  -1.14356621e-03  -1.14356621e-03  -1.14356621e-03  1.50890638e-04  1.18214363e-04  1.18214395e-04  1.18214395e-04  1.18214395e-04  3.26762424e-05  3.25229696e-11  2.01661604e-17  4.33680869e-19
1.96428540e-01  -3.06048059e-07  1.64211592e-17  -6.59738821e-18  1.61467867e-18  3.67029997e-18  3.82849098e-18  3.06048059e-07  3.06048059e-07  3.06048059e-07  3.06048059e-07  3.06048059e-07  1.25926682e-17  1.04258792e-17  2.21381232e-18  1.58191010e-19  -3.07333004e-07  -1.84916597e-17  7.26532380e-18  -1.39835350e-18  -3.38427344e-18  -3.76523606e-18  3.07333004e-07  3.07333004e-07  3.07333004e-07  3.07333004e-07  3.07333004e-07  1.47264237e-17  1.10305599e-17  2.36688255e-18  3.80962618e-19  -2.41864784e-03  -3.14130424e-03  -2.50926250e-03  -2.51002485e-03  -2.51002485e-03  -2.51002485e-03  7.22656400e-04  9.06146609e-05  9.13770147e-05  9.13770119e-05  9.13770119e-05  6.31279388e-04  7.62350984e-07  2.83294221e-12  1.29236899e-16  3.51012507e-03  3.91236114e-03  3.87948141e-03  3.87948826e-03  3.87948826e-03  3.87948826e-03  4.02236075e-04  3.69356338e-04  3.69363192e-04  3.69363192e-04  3.69363192e-04  3.28728834e-05  6.85378152e-09  1.84748050e-16  5.33427469e-17  -1.02962918e-03  -1.18065613e-03  -1.14785725e-03  -1.14785728e-03  -1.14785728e-03  -1.14785728e-03  1.51026954e-04  1.18228066e-04  1.18228098e-04  1.18228098e-04  1.18228098e-04  3.27988554e-05  3.26450074e-11  2.03830008e-17  4.33680869e-19
