# time  numeric_E1  refQ6_E1  refQ12_E1  refQ24_E1  refQ48_E1  refQ96_E1  errQ6_E1  errQ12_E1  errQ24_E1  errQ48_E1  errQ96_E1  deltaQuadratureQ6_Q96_E1  deltaQuadratureQ12_Q96_E1  deltaQuadratureQ24_Q96_E1  deltaQuadratureQ48_Q96_E1  numeric_E2  refQ6_E2  refQ12_E2  refQ24_E2  refQ48_E2  refQ96_E2  errQ6_E2  errQ12_E2  errQ24_E2  errQ48_E2  errQ96_E2  deltaQuadratureQ6_Q96_E2  deltaQuadratureQ12_Q96_E2  deltaQuadratureQ24_Q96_E2  deltaQuadratureQ48_Q96_E2  numeric_E3  refQ6_E3  refQ12_E3  refQ24_E3  refQ48_E3  refQ96_E3  errQ6_E3  errQ12_E3  errQ24_E3  errQ48_E3  errQ96_E3  deltaQuadratureQ6_Q96_E3  deltaQuadratureQ12_Q96_E3  deltaQuadratureQ24_Q96_E3  deltaQuadratureQ48_Q96_E3  numeric_E4  refQ6_E4  refQ12_E4  refQ24_E4  refQ48_E4  refQ96_E4  errQ6_E4  errQ12_E4  errQ24_E4  errQ48_E4  errQ96_E4  deltaQuadratureQ6_Q96_E4  deltaQuadratureQ12_Q96_E4  deltaQuadratureQ24_Q96_E4  deltaQuadratureQ48_Q96_E4  numeric_E5  refQ6_E5  refQ12_E5  refQ24_E5  refQ48_E5  refQ96_E5  errQ6_E5  errQ12_E5  errQ24_E5  errQ48_E5  errQ96_E5  deltaQuadratureQ6_Q96_E5  deltaQuadratureQ12_Q96_E5  deltaQuadratureQ24_Q96_E5  deltaQuadratureQ48_Q96_E5
5.60538000e-04  -2.47263111e-10  1.50169631e-17  -6.03323640e-18  1.47660526e-18  3.35644754e-18  3.50111142e-18  2.47263126e-10  2.47263105e-10  2.47263113e-10  2.47263114e-10  2.47263115e-10  1.15158517e-17  9.53434782e-18  2.02450616e-18  1.44663878e-19  -7.87970314e-11  -1.69104123e-17  6.64405590e-18  -1.27877836e-18  -3.09487953e-18  -3.44326551e-18  7.87970145e-11  7.87970380e-11  7.87970301e-11  7.87970283e-11  7.87970280e-11  1.34671468e-17  1.00873214e-17  2.16448715e-18  3.48385977e-19  -2.28943454e-03  -2.87268696e-03  -2.29469199e-03  -2.29538915e-03  -2.29538915e-03  -2.29538915e-03  5.83252423e-04  5.25744873e-06  5.95461261e-06  5.95461002e-06  5.95461002e-06  5.77297813e-04  6.97161296e-07  2.59069372e-12  1.17961196e-16  3.52385389e-03  3.57780972e-03  3.54774158e-03  3.54774785e-03  3.54774785e-03  3.54774785e-03  5.39558324e-05  2.38876871e-05  2.38939548e-05  2.38939548e-05  2.38939548e-05  3.00618776e-05  6.26770517e-09  1.68701858e-16  4.85722573e-17  -1.04205537e-03  -1.07969659e-03  -1.04970238e-03  -1.04970241e-03  -1.04970241e-03  -1.04970241e-03  3.76412240e-05  7.64701431e-06  7.64704417e-06  7.64704417e-06  7.64704417e-06  2.99941798e-05  2.98534875e-11  1.86482774e-17  4.33680869e-19
1.12107600e-03  -4.94483008e-10  1.50211690e-17  -6.03492615e-18  1.47701881e-18  3.35738759e-18  3.50209198e-18  4.94483023e-10  4.94483002e-10  4.94483010e-10  4.94483012e-10  4.94483012e-10  1.15190770e-17  9.53701813e-18  2.02507317e-18  1.44704394e-19  -1.58377970e-10  -1.69151485e-17  6.64591671e-18  -1.27913651e-18  -3.09574632e-18  -3.44422987e-18  1.58377954e-10  1.58377977e-10  1.58377969e-10  1.58377967e-10  1.58377967e-10  1.34709186e-17  1.00901466e-17  2.16509336e-18  3.48483551e-19  -2.29007879e-03  -2.87349152e-03  -2.29533467e-03  -2.29603203e-03  -2.29603202e-03  -2.29603202e-03  5.83412732e-04  5.25587669e-06  5.95323583e-06  5.95323324e-06  5.95323324e-06  5.77459499e-04  6.97356552e-07  2.59141883e-12  1.17961196e-16  3.52484744e-03  3.57881177e-03  3.54873520e-03  3.54874147e-03  3.54874147e-03  3.54874147e-03  5.39643318e-05  2.38877653e-05  2.38940347e-05  2.38940347e-05  2.38940347e-05  3.00702971e-05  6.26946058e-09  1.68701858e-16  4.85722573e-17  -1.04234911e-03  -1.07999899e-03  -1.04999638e-03  -1.04999641e-03  -1.04999641e-03  -1.04999641e-03  3.76498754e-05  7.64726510e-06  7.64729496e-06  7.64729496e-06  7.64729496e-06  3.00025804e-05  2.98618487e-11  1.86482774e-17  4.33680869e-19
1.68161400e-03  -7.41625343e-10  1.50253736e-17  -6.03661542e-18  1.47743226e-18  3.35832738e-18  3.50307228e-18  7.41625358e-10  7.41625337e-10  7.41625344e-10  7.41625346e-10  7.41625346e-10  1.15223014e-17  9.53968770e-18  2.02564002e-18  1.44744899e-19  -2.38991531e-10  -1.69198833e-17  6.64777701e-18  -1.27949456e-18  -3.09661287e-18  -3.44519396e-18  2.38991515e-10  2.38991538e-10  2.38991530e-10  2.38991528e-10  2.38991528e-10  1.34746893e-17  1.00929710e-17  2.16569941e-18  3.48581097e-19  -2.29072290e-03  -2.87429586e-03  -2.29597717e-03  -2.29667472e-03  -2.29667472e-03  -2.29667472e-03  5.83572960e-04  5.25426986e-06  5.95182420e-06  5.95182161e-06  5.95182161e-06  5.77621139e-04  6.97551753e-07  2.59214438e-12  1.17961196e-16  3.52584074e-03  3.57981354e-03  3.54972855e-03  3.54973482e-03  3.54973482e-03  3.54973482e-03  5.39727959e-05  2.38878104e-05  2.38940816e-05  2.38940816e-05  2.38940816e-05  3.00787143e-05  6.27121550e-09  1.68701858e-16  4.85722573e-17  -1.04264278e-03  -1.08030129e-03  -1.05029029e-03  -1.05029032e-03  -1.05029032e-03  -1.05029032e-03  3.76585123e-05  7.64750385e-06  7.64753373e-06  7.64753373e-06  7.64753373e-06  3.00109786e-05  2.98702074e-11  1.86482774e-17  4.33680869e-19
2.24215200e-03  -9.88668043e-10  1.50295771e-17  -6.03830422e-18  1.47784558e-18  3.35926690e-18  3.50405229e-18  9.88668058e-10  9.88668037e-10  9.88668045e-10  9.88668047e-10  9.88668047e-10  1.15255248e-17  9.54235651e-18  2.02620671e-18  1.44785393e-19  -3.20710821e-10  -1.69246168e-17  6.64963679e-18  -1.27985251e-18  -3.09747917e-18  -3.44615779e-18  3.20710804e-10  3.20710827e-10  3.20710819e-10  3.20710818e-10  3.20710817e-10  1.34784590e-17  1.00957946e-17  2.16630528e-18  3.48678616e-19  -2.29136685e-03  -2.87509997e-03  -2.29661949e-03  -2.29731724e-03  -2.29731724e-03  -2.29731724e-03  5.83733121e-04  5.25264033e-06  5.95038983e-06  5.95038723e-06  5.95038723e-06  5.77782734e-04  6.97746899e-07  2.59286950e-12  1.18394877e-16  3.52683378e-03  3.58081502e-03  3.55072162e-03  3.55072789e-03  3.55072789e-03  3.55072789e-03  5.39812450e-05  2.38878430e-05  2.38941159e-05  2.38941159e-05  2.38941159e-05  3.00871291e-05  6.27296994e-09  1.68701858e-16  4.85722573e-17  -1.04293638e-03  -1.08060352e-03  -1.05058411e-03  -1.05058414e-03  -1.05058414e-03  -1.05058414e-03  3.76671408e-05  7.64773644e-06  7.64776632e-06  7.64776632e-06  7.64776632e-06  3.00193745e-05  2.98785638e-11  1.86482774e-17  4.33680869e-19
2.80269000e-03  -1.23559602e-09  1.50337794e-17  -6.03999255e-18  1.47825879e-18  3.36020616e-18  3.50503204e-18  1.23559603e-09  1.23559601e-09  1.23559602e-09  1.23559602e-09  1.23559602e-09  1.15287474e-17  9.54502458e-18  2.02677324e-18  1.44825875e-19  -4.03551248e-10  -1.69293489e-17  6.65149605e-18  -1.28021036e-18  -3.09834524e-18  -3.44712135e-18  4.03551231e-10  4.03551255e-10  4.03551247e-10  4.03551245e-10  4.03551245e-10  1.34822276e-17  1.00986174e-17  2.16691099e-18  3.48776107e-19  -2.29201064e-03  -2.87590386e-03  -2.29726163e-03  -2.29795957e-03  -2.29795957e-03  -2.29795957e-03  5.83893218e-04  5.25099218e-06  5.94893676e-06  5.94893417e-06  5.94893417e-06  5.77944283e-04  6.97941992e-07  2.59359461e-12  1.18394877e-16  3.52782654e-03  3.58181623e-03  3.55171441e-03  3.55172069e-03  3.55172069e-03  3.55172069e-03  5.39896860e-05  2.38878698e-05  2.38941445e-05  2.38941445e-05  2.38941445e-05  3.00955415e-05  6.27472388e-09  1.69135539e-16  4.85722573e-17  -1.04322990e-03  -1.08090566e-03  -1.05087786e-03  -1.05087789e-03  -1.05087789e-03  -1.05087789e-03  3.76757627e-05  7.64796482e-06  7.64799470e-06  7.64799470e-06  7.64799470e-06  3.00277680e-05  2.98869180e-11  1.86482774e-17  4.33680869e-19
3.36322800e-03  -1.48239818e-09  1.50379806e-17  -6.04168040e-18  1.47867189e-18  3.36114516e-18  3.50601151e-18  1.48239819e-09  1.48239817e-09  1.48239818e-09  1.48239818e-09  1.48239818e-09  1.15319691e-17  9.54769191e-18  2.02733962e-18  1.44866347e-19  -4.87509240e-10  -1.69340798e-17  6.65335479e-18  -1.28056811e-18  -3.09921106e-18  -3.44808463e-18  4.87509223e-10  4.87509246e-10  4.87509238e-10  4.87509236e-10  4.87509236e-10  1.34859952e-17  1.01014394e-17  2.16751652e-18  3.48873571e-19  -2.29265426e-03  -2.87670752e-03  -2.29790359e-03  -2.29860173e-03  -2.29860173e-03  -2.29860173e-03  5.84053252e-04  5.24932677e-06  5.94746639e-06  5.94746379e-06  5.94746379e-06  5.78105788e-04  6.98137029e-07  2.59431929e-12  1.18394877e-16  3.52881904e-03  3.58281716e-03  3.55270693e-03  3.55271320e-03  3.55271320e-03  3.55271320e-03  5.39981211e-05  2.38878930e-05  2.38941695e-05  2.38941695e-05  2.38941695e-05  3.01039516e-05  6.27647733e-09  1.69135539e-16  4.85722573e-17  -1.04352334e-03  -1.08120771e-03  -1.05117153e-03  -1.05117156e-03  -1.05117156e-03  -1.05117156e-03  3.76843787e-05  7.64818965e-06  7.64821954e-06  7.64821954e-06  7.64821954e-06  3.00361591e-05  2.98952699e-11  1.86482774e-17  4.33680869e-19
3.92376600e-03  -1.72906432e-09  1.50421806e-17  -6.04336779e-18  1.47908486e-18  3.36208389e-18  3.50699070e-18  1.72906433e-09  1.72906431e-09  1.72906432e-09  1.72906432e-09  1.72906432e-09  1.15351899e-17  9.55035849e-18  2.02790584e-18  1.44906806e-19  -5.72574561e-10  -1.69388093e-17  6.65521301e-18  -1.28092576e-18  -3.10007664e-18  -3.44904765e-18  5.72574544e-10  5.72574567e-10  5.72574559e-10  5.72574558e-10  5.72574557e-10  1.34897617e-17  1.01042607e-17  2.16812189e-18  3.48971008e-19  -2.29329773e-03  -2.87751095e-03  -2.29854537e-03  -2.29924371e-03  -2.29924371e-03  -2.29924371e-03  5.84213224e-04  5.24764459e-06  5.94597920e-06  5.94597660e-06  5.94597660e-06  5.78267248e-04  6.98332012e-07  2.59504397e-12  1.18394877e-16  3.52981125e-03  3.58381780e-03  3.55369917e-03  3.55370544e-03  3.55370544e-03  3.55370544e-03  5.40065510e-05  2.38879134e-05  2.38941916e-05  2.38941916e-05  2.38941916e-05  3.01123594e-05  6.27823029e-09  1.68701858e-16  4.85722573e-17  -1.04381670e-03  -1.08150969e-03  -1.05146511e-03  -1.05146514e-03  -1.05146514e-03  -1.05146514e-03  3.76929890e-05  7.64841116e-06  7.64844107e-06  7.64844107e-06  7.64844107e-06  3.00445479e-05  2.99036193e-11  1.86482774e-17  4.33680869e-19
4.48430400e-03  -1.97558450e-09  1.50463793e-17  -6.04505470e-18  1.47949773e-18  3.36302237e-18  3.50796962e-18  1.97558452e-09  1.97558450e-09  1.97558450e-09  1.97558450e-09  1.97558451e-09  1.15384097e-17  9.55302433e-18  2.02847189e-18  1.44947255e-19  -6.58735760e-10  -1.69435375e-17  6.65707071e-18  -1.28128331e-18  -3.10094198e-18  -3.45001040e-18  6.58735743e-10  6.58735767e-10  6.58735759e-10  6.58735757e-10  6.58735757e-10  1.34935271e-17  1.01070811e-17  2.16872709e-18  3.49068418e-19  -2.29394103e-03  -2.87831417e-03  -2.29918698e-03  -2.29988551e-03  -2.29988551e-03  -2.29988551e-03  5.84373135e-04  5.24594585e-06  5.94447539e-06  5.94447279e-06  5.94447279e-06  5.78428662e-04  6.98526941e-07  2.59576822e-12  1.18394877e-16  3.53080319e-03  3.58481817e-03  3.55469113e-03  3.55469741e-03  3.55469741e-03  3.55469741e-03  5.40149760e-05  2.38879313e-05  2.38942113e-05  2.38942113e-05  2.38942113e-05  3.01207648e-05  6.27998276e-09  1.69135539e-16  4.90059382e-17  -1.04410998e-03  -1.08181157e-03  -1.05175861e-03  -1.05175864e-03  -1.05175864e-03  -1.05175864e-03  3.77015938e-05  7.64862944e-06  7.64865935e-06  7.64865935e-06  7.64865935e-06  3.00529344e-05  2.99119664e-11  1.86482774e-17  4.33680869e-19
5.04484200e-03  -2.22194965e-09  1.50505770e-17  -6.04674114e-18  1.47991048e-18  3.36396058e-18  3.50894827e-18  2.22194966e-09  2.22194964e-09  2.22194965e-09  2.22194965e-09  2.22194965e-09  1.15416287e-17  9.55568942e-18  2.02903780e-18  1.44987692e-19  -7.45980028e-10  -1.69482644e-17  6.65892789e-18  -1.28164076e-18  -3.10180708e-18  -3.45097288e-18  7.45980011e-10  7.45980034e-10  7.45980026e-10  7.45980025e-10  7.45980024e-10  1.34972915e-17  1.01099008e-17  2.16933212e-18  3.49165801e-19  -2.29458417e-03  -2.87911716e-03  -2.29982840e-03  -2.30052713e-03  -2.30052712e-03  -2.30052712e-03  5.84532984e-04  5.24423064e-06  5.94295505e-06  5.94295246e-06  5.94295246e-06  5.78590031e-04  6.98721815e-07  2.59649247e-12  1.18394877e-16  3.53179486e-03  3.58581826e-03  3.55568281e-03  3.55568909e-03  3.55568909e-03  3.55568909e-03  5.40233962e-05  2.38879467e-05  2.38942284e-05  2.38942284e-05  2.38942284e-05  3.01291678e-05  6.28173474e-09  1.69135539e-16  4.85722573e-17  -1.04440318e-03  -1.08211337e-03  -1.05205203e-03  -1.05205206e-03  -1.05205206e-03  -1.05205206e-03  3.77101930e-05  7.64884452e-06  7.64887444e-06  7.64887444e-06  7.64887444e-06  3.00613185e-05  2.99203115e-11  1.86482774e-17  4.33680869e-19
5.60538000e-03  -2.46815059e-09  1.50547734e-17  -6.04842712e-18  1.48032311e-18  3.36489853e-18  3.50992665e-18  2.46815060e-09  2.46815058e-09  2.46815059e-09  2.46815059e-09  2.46815059e-09  1.15448468e-17  9.55835377e-18  2.02960354e-18  1.45028118e-19  -8.34294647e-10  -1.69529900e-17  6.66078455e-18  -1.28199811e-18  -3.10267193e-18  -3.45193509e-18  8.34294630e-10  8.34294654e-10  8.34294646e-10  8.34294644e-10  8.34294644e-10  1.35010549e-17  1.01127196e-17  2.16993698e-18  3.49263157e-19  -2.29522715e-03  -2.87991992e-03  -2.30046965e-03  -2.30116857e-03  -2.30116857e-03  -2.30116857e-03  5.84692771e-04  5.24249903e-06  5.94141826e-06  5.94141567e-06  5.94141567e-06  5.78751356e-04  6.98916635e-07  2.59721628e-12  1.18394877e-16  3.53278626e-03  3.58681807e-03  3.55667422e-03  3.55668050e-03  3.55668050e-03  3.55668050e-03  5.40318116e-05  2.38879595e-05  2.38942430e-05  2.38942430e-05  2.38942430e-05  3.01375685e-05  6.28348624e-09  1.69135539e-16  4.85722573e-17  -1.04469631e-03  -1.08241509e-03  -1.05234536e-03  -1.05234539e-03  -1.05234539e-03  -1.05234539e-03  3.77187867e-05  7.64905642e-06  7.64908635e-06  7.64908635e-06  7.64908635e-06  3.00697003e-05  2.99286537e-11  1.86482774e-17  4.33680869e-19
6.16591800e-03  -2.71417746e-09  1.50589687e-17  -6.05011262e-18  1.48073563e-18  3.36583622e-18  3.51090475e-18  2.71417748e-09  2.71417745e-09  2.71417746e-09  2.71417746e-09  2.71417746e-09  1.15480639e-17  9.56101737e-18  2.03016912e-18  1.45068533e-19  -9.23666801e-10  -1.69577142e-17  6.66264070e-18  -1.28235536e-18  -3.10353655e-18  -3.45289703e-18  9.23666784e-10  9.23666808e-10  9.23666800e-10  9.23666798e-10  9.23666798e-10  1.35048172e-17  1.01155377e-17  2.17054167e-18  3.49360485e-19  -2.29586996e-03  -2.88072246e-03  -2.30111072e-03  -2.30180983e-03  -2.30180983e-03  -2.30180983e-03  5.84852498e-04  5.24075107e-06  5.93986507e-06  5.93986247e-06  5.93986247e-06  5.78912635e-04  6.99111401e-07  2.59794009e-12  1.18394877e-16  3.53377738e-03  3.58781760e-03  3.55766535e-03  3.55767163e-03  3.55767163e-03  3.55767163e-03  5.40402221e-05  2.38879699e-05  2.38942552e-05  2.38942552e-05  2.38942552e-05  3.01459669e-05  6.28523724e-09  1.69135539e-16  4.85722573e-17  -1.04498935e-03  -1.08271673e-03  -1.05263862e-03  -1.05263865e-03  -1.05263865e-03  -1.05263865e-03  3.77273749e-05  7.64926515e-06  7.64929509e-06  7.64929509e-06  7.64929509e-06  3.00780798e-05  2.99369939e-11  1.86482774e-17  4.33680869e-19
6.72645600e-03  -2.96002131e-09  1.50631628e-17  -6.05179765e-18  1.48114803e-18  3.36677365e-18  3.51188258e-18  2.96002133e-09  2.96002131e-09  2.96002131e-09  2.96002132e-09  2.96002132e-09  1.15512802e-17  9.56368024e-18  2.03073455e-18  1.45108936e-19  -1.01408371e-09  -1.69624372e-17  6.66449633e-18  -1.28271252e-18  -3.10440092e-18  -3.45385871e-18  1.01408370e-09  1.01408372e-09  1.01408371e-09  1.01408371e-09  1.01408371e-09  1.35085785e-17  1.01183550e-17  2.17114619e-18  3.49457786e-19  -2.29651262e-03  -2.88152478e-03  -2.30175160e-03  -2.30245091e-03  -2.30245091e-03  -2.30245091e-03  5.85012163e-04  5.23898682e-06  5.93829553e-06  5.93829293e-06  5.93829293e-06  5.79073870e-04  6.99306112e-07  2.59866391e-12  1.18394877e-16  3.53476823e-03  3.58881685e-03  3.55865620e-03  3.55866249e-03  3.55866249e-03  3.55866249e-03  5.40486277e-05  2.38879778e-05  2.38942648e-05  2.38942648e-05  2.38942648e-05  3.01543629e-05  6.28698776e-09  1.69569220e-16  4.90059382e-17  -1.04528232e-03  -1.08301828e-03  -1.05293179e-03  -1.05293182e-03  -1.05293182e-03  -1.05293182e-03  3.77359576e-05  7.64947073e-06  7.64950068e-06  7.64950068e-06  7.64950068e-06  3.00864569e-05  2.99453316e-11  1.88651178e-17  4.33680869e-19
7.28699400e-03  -3.20567215e-09  1.50673558e-17  -6.05348222e-18  1.48156032e-18  3.36771082e-18  3.51286014e-18  3.20567217e-09  3.20567215e-09  3.20567215e-09  3.20567216e-09  3.20567216e-09  1.15544956e-17  9.56634236e-18  2.03129982e-18  1.45149328e-19  -1.10553250e-09  -1.69671588e-17  6.66635144e-18  -1.28306957e-18  -3.10526506e-18  -3.45482012e-18  1.10553248e-09  1.10553251e-09  1.10553250e-09  1.10553250e-09  1.10553250e-09  1.35123387e-17  1.01211716e-17  2.17175055e-18  3.49555061e-19  -2.29715511e-03  -2.88232687e-03  -2.30239231e-03  -2.30309182e-03  -2.30309182e-03  -2.30309182e-03  5.85171766e-04  5.23720632e-06  5.93670969e-06  5.93670709e-06  5.93670709e-06  5.79235059e-04  6.99500769e-07  2.59938729e-12  1.18394877e-16  3.53575880e-03  3.58981583e-03  3.55964678e-03  3.55965307e-03  3.55965307e-03  3.55965307e-03  5.40570285e-05  2.38879832e-05  2.38942719e-05  2.38942719e-05  2.38942719e-05  3.01627566e-05  6.28873779e-09  1.69135539e-16  4.85722573e-17  -1.04557521e-03  -1.08331974e-03  -1.05322488e-03  -1.05322491e-03  -1.05322491e-03  -1.05322491e-03  3.77445348e-05  7.64967317e-06  7.64970312e-06  7.64970312e-06  7.64970312e-06  3.00948317e-05  2.99536672e-11  1.86482774e-17  4.33680869e-19
7.84753200e-03  -3.45112047e-09  1.50715475e-17  -6.05516631e-18  1.48197250e-18  3.36864772e-18  3.51383743e-18  3.45112048e-09  3.45112046e-09  3.45112047e-09  3.45112047e-09  3.45112047e-09  1.15577101e-17  9.56900374e-18  2.03186494e-18  1.45189709e-19  -1.19800054e-09  -1.69718791e-17  6.66820604e-18  -1.28342652e-18  -3.10612895e-18  -3.45578126e-18  1.19800053e-09  1.19800055e-09  1.19800054e-09  1.19800054e-09  1.19800054e-09  1.35160979e-17  1.01239873e-17  2.17235473e-18  3.49652308e-19  -2.29779744e-03  -2.88312875e-03  -2.30303285e-03  -2.30373254e-03  -2.30373254e-03  -2.30373254e-03  5.85331309e-04  5.23540963e-06  5.93510760e-06  5.93510500e-06  5.93510500e-06  5.79396204e-04  6.99695372e-07  2.60011023e-12  1.18394877e-16  3.53674910e-03  3.59081452e-03  3.56063709e-03  3.56064338e-03  3.56064338e-03  3.56064338e-03  5.40654245e-05  2.38879860e-05  2.38942765e-05  2.38942765e-05  2.38942765e-05  3.01711480e-05  6.29048734e-09  1.69135539e-16  4.85722573e-17  -1.04586802e-03  -1.08362113e-03  -1.05351789e-03  -1.05351792e-03  -1.05351792e-03  -1.05351792e-03  3.77531066e-05  7.64987248e-06  7.64990244e-06  7.64990244e-06  7.64990244e-06  3.01032042e-05  2.99620003e-11  1.86482774e-17  4.33680869e-19
8.40807000e-03  -3.69635667e-09  1.50757382e-17  -6.05684994e-18  1.48238456e-18  3.36958437e-18  3.51481445e-18  3.69635668e-09  3.69635666e-09  3.69635667e-09  3.69635667e-09  3.69635667e-09  1.15609237e-17  9.57166439e-18  2.03242989e-18  1.45230079e-19  -1.29147469e-09  -1.69765981e-17  6.67006012e-18  -1.28378338e-18  -3.10699260e-18  -3.45674213e-18  1.29147468e-09  1.29147470e-09  1.29147469e-09  1.29147469e-09  1.29147469e-09  1.35198560e-17  1.01268023e-17  2.17295875e-18  3.49749528e-19  -2.29843960e-03  -2.88393039e-03  -2.30367320e-03  -2.30437309e-03  -2.30437309e-03  -2.30437309e-03  5.85490791e-04  5.23359679e-06  5.93348931e-06  5.93348671e-06  5.93348671e-06  5.79557304e-04  6.99889921e-07  2.60083318e-12  1.18394877e-16  3.53773913e-03  3.59181294e-03  3.56162711e-03  3.56163341e-03  3.56163341e-03  3.56163341e-03  5.40738155e-05  2.38879862e-05  2.38942785e-05  2.38942785e-05  2.38942785e-05  3.01795370e-05  6.29223639e-09  1.69569220e-16  4.90059382e-17  -1.04616075e-03  -1.08392243e-03  -1.05381082e-03  -1.05381085e-03  -1.05381085e-03  -1.05381085e-03  3.77616730e-05  7.65006866e-06  7.65009863e-06  7.65009863e-06  7.65009863e-06  3.01115743e-05  2.99703313e-11  1.88651178e-17  4.33680869e-19
8.96860800e-03  -3.94137109e-09  1.50799276e-17  -6.05853310e-18  1.48279650e-18  3.37052075e-18  3.51579119e-18  3.94137111e-09  3.94137109e-09  3.94137109e-09  3.94137110e-09  3.94137110e-09  1.15641364e-17  9.57432429e-18  2.03299469e-18  1.45270437e-19  -1.38594233e-09  -1.69813158e-17  6.67191369e-18  -1.28414013e-18  -3.10785602e-18  -3.45770274e-18  1.38594231e-09  1.38594234e-09  1.38594233e-09  1.38594233e-09  1.38594233e-09  1.35236131e-17  1.01296164e-17  2.17356260e-18  3.49846721e-19  -2.29908161e-03  -2.88473182e-03  -2.30431338e-03  -2.30501346e-03  -2.30501346e-03  -2.30501346e-03  5.85650212e-04  5.23176785e-06  5.93185487e-06  5.93185226e-06  5.93185226e-06  5.79718359e-04  7.00084416e-07  2.60155612e-12  1.18394877e-16  3.53872888e-03  3.59281108e-03  3.56261687e-03  3.56262316e-03  3.56262316e-03  3.56262316e-03  5.40822016e-05  2.38879839e-05  2.38942779e-05  2.38942779e-05  2.38942779e-05  3.01879237e-05  6.29398496e-09  1.69569220e-16  4.90059382e-17  -1.04645341e-03  -1.08422364e-03  -1.05410367e-03  -1.05410370e-03  -1.05410370e-03  -1.05410370e-03  3.77702339e-05  7.65026174e-06  7.65029172e-06  7.65029172e-06  7.65029172e-06  3.01199421e-05  2.99786597e-11  1.88651178e-17  4.33680869e-19
9.52914600e-03  -4.18615407e-09  1.50841159e-17  -6.06021579e-18  1.48320833e-18  3.37145688e-18  3.51676766e-18  4.18615409e-09  4.18615407e-09  4.18615407e-09  4.18615408e-09  4.18615408e-09  1.15673482e-17  9.57698345e-18  2.03355933e-18  1.45310785e-19  -1.48139099e-09  -1.69860322e-17  6.67376674e-18  -1.28449679e-18  -3.10871919e-18  -3.45866308e-18  1.48139097e-09  1.48139099e-09  1.48139098e-09  1.48139098e-09  1.48139098e-09  1.35273691e-17  1.01324298e-17  2.17416629e-18  3.49943887e-19  -2.29972345e-03  -2.88553302e-03  -2.30495337e-03  -2.30565366e-03  -2.30565365e-03  -2.30565365e-03  5.85809572e-04  5.22992286e-06  5.93020432e-06  5.93020172e-06  5.93020172e-06  5.79879370e-04  7.00278857e-07  2.60227864e-12  1.18394877e-16  3.53971837e-03  3.59380895e-03  3.56360635e-03  3.56361264e-03  3.56361264e-03  3.56361264e-03  5.40905828e-05  2.38879790e-05  2.38942747e-05  2.38942747e-05  2.38942747e-05  3.01963081e-05  6.29573305e-09  1.69569220e-16  4.85722573e-17  -1.04674598e-03  -1.08452477e-03  -1.05439643e-03  -1.05439646e-03  -1.05439646e-03  -1.05439646e-03  3.77787893e-05  7.65045172e-06  7.65048171e-06  7.65048171e-06  7.65048171e-06  3.01283076e-05  2.99869862e-11  1.86482774e-17  4.33680869e-19
1.00896840e-02  -4.43069542e-09  1.50883030e-17  -6.06189802e-18  1.48362005e-18  3.37239275e-18  3.51774387e-18  4.43069544e-09  4.43069541e-09  4.43069542e-09  4.43069542e-09  4.43069542e-09  1.15705591e-17  9.57964188e-18  2.03412382e-18  1.45351121e-19  -1.57780766e-09  -1.69907472e-17  6.67561928e-18  -1.28485335e-18  -3.10958212e-18  -3.45962315e-18  1.57780764e-09  1.57780767e-09  1.57780766e-09  1.57780766e-09  1.57780766e-09  1.35311241e-17  1.01352424e-17  2.17476980e-18  3.50041026e-19  -2.30036513e-03  -2.88633400e-03  -2.30559319e-03  -2.30629367e-03  -2.30629367e-03  -2.30629367e-03  5.85968871e-04  5.22806188e-06  5.92853772e-06  5.92853512e-06  5.92853512e-06  5.80040336e-04  7.00473244e-07  2.60300115e-12  1.18394877e-16  3.54070758e-03  3.59480654e-03  3.56459555e-03  3.56460185e-03  3.56460185e-03  3.56460185e-03  5.40989591e-05  2.38879715e-05  2.38942690e-05  2.38942690e-05  2.38942690e-05  3.02046901e-05  6.29748065e-09  1.69569220e-16  4.90059382e-17  -1.04703848e-03  -1.08482582e-03  -1.05468912e-03  -1.05468915e-03  -1.05468915e-03  -1.05468915e-03  3.77873394e-05  7.65063861e-06  7.65066861e-06  7.65066861e-06  7.65066861e-06  3.01366708e-05  2.99953101e-11  1.88651178e-17  4.33680869e-19
1.06502220e-02  -4.67498572e-09  1.50924890e-17  -6.06357977e-18  1.48403165e-18  3.37332835e-18  3.51871980e-18  4.67498573e-09  4.67498571e-09  4.67498572e-09  4.67498572e-09  4.67498572e-09  1.15737692e-17  9.58229957e-18  2.03468815e-18  1.45391446e-19  -1.67517962e-09  -1.69954610e-17  6.67747130e-18  -1.28520980e-18  -3.11044482e-18  -3.46058296e-18  1.67517960e-09  1.67517962e-09  1.67517962e-09  1.67517961e-09  1.67517961e-09  1.35348780e-17  1.01380543e-17  2.17537315e-18  3.50138139e-19  -2.30100665e-03  -2.88713476e-03  -2.30623284e-03  -2.30693351e-03  -2.30693350e-03  -2.30693350e-03  5.86128109e-04  5.22618494e-06  5.92685512e-06  5.92685252e-06  5.92685252e-06  5.80201257e-04  7.00667577e-07  2.60372323e-12  1.18394877e-16  3.54169652e-03  3.59580385e-03  3.56558448e-03  3.56559078e-03  3.56559078e-03  3.56559078e-03  5.41073304e-05  2.38879614e-05  2.38942606e-05  2.38942606e-05  2.38942606e-05  3.02130699e-05  6.29922777e-09  1.69569220e-16  4.85722573e-17  -1.04733090e-03  -1.08512678e-03  -1.05498172e-03  -1.05498175e-03  -1.05498175e-03  -1.05498175e-03  3.77958841e-05  7.65082243e-06  7.65085243e-06  7.65085243e-06  7.65085243e-06  3.01450316e-05  3.00036317e-11  1.88651178e-17  4.33680869e-19
1.12107600e-02  -4.91901469e-09  1.50966738e-17  -6.06526106e-18  1.48444314e-18  3.37426370e-18  3.51969546e-18  4.91901471e-09  4.91901469e-09  4.91901469e-09  4.91901470e-09  4.91901470e-09  1.15769783e-17  9.58495652e-18  2.03525232e-18  1.45431759e-19  -1.77349450e-09  -1.70001735e-17  6.67932281e-18  -1.28556616e-18  -3.11130727e-18  -3.46154250e-18  1.77349448e-09  1.77349450e-09  1.77349449e-09  1.77349449e-09  1.77349449e-09  1.35386310e-17  1.01408653e-17  2.17597633e-18  3.50235224e-19  -2.30164801e-03  -2.88793530e-03  -2.30687230e-03  -2.30757317e-03  -2.30757316e-03  -2.30757316e-03  5.86287287e-04  5.22429210e-06  5.92515656e-06  5.92515396e-06  5.92515396e-06  5.80362133e-04  7.00861856e-07  2.60444487e-12  1.18828558e-16  3.54268518e-03  3.59680088e-03  3.56657313e-03  3.56657943e-03  3.56657943e-03  3.56657943e-03  5.41156968e-05  2.38879486e-05  2.38942496e-05  2.38942496e-05  2.38942496e-05  3.02214472e-05  6.30097440e-09  1.69569220e-16  4.90059382e-17  -1.04762324e-03  -1.08542766e-03  -1.05527424e-03  -1.05527427e-03  -1.05527427e-03  -1.05527427e-03  3.78044234e-05  7.65100319e-06  7.65103320e-06  7.65103320e-06  7.65103320e-06  3.01533902e-05  3.00119510e-11  1.86482774e-17  4.33680869e-19
1.17712980e-02  -5.16277267e-09  1.51008574e-17  -6.06694189e-18  1.48485451e-18  3.37519879e-18  3.52067085e-18  5.16277269e-09  5.16277267e-09  5.16277268e-09  5.16277268e-09  5.16277268e-09  1.15801866e-17  9.58761274e-18  2.03581634e-18  1.45472062e-19  -1.87273875e-09  -1.70048846e-17  6.68117381e-18  -1.28592242e-18  -3.11216949e-18  -3.46250177e-18  1.87273874e-09  1.87273876e-09  1.87273875e-09  1.87273875e-09  1.87273875e-09  1.35423828e-17  1.01436756e-17  2.17657935e-18  3.50332282e-19  -2.30228921e-03  -2.88873561e-03  -2.30751159e-03  -2.30821265e-03  -2.30821265e-03  -2.30821265e-03  5.86446405e-04  5.22238341e-06  5.92344210e-06  5.92343950e-06  5.92343950e-06  5.80522965e-04  7.01056081e-07  2.60516695e-12  1.18394877e-16  3.54367358e-03  3.59779764e-03  3.56756151e-03  3.56756782e-03  3.56756782e-03  3.56756782e-03  5.41240582e-05  2.38879331e-05  2.38942359e-05  2.38942359e-05  2.38942359e-05  3.02298223e-05  6.30272055e-09  1.69569220e-16  4.90059382e-17  -1.04791551e-03  -1.08572846e-03  -1.05556669e-03  -1.05556672e-03  -1.05556672e-03  -1.05556672e-03  3.78129573e-05  7.65118089e-06  7.65121091e-06  7.65121091e-06  7.65121091e-06  3.01617464e-05  3.00202680e-11  1.86482774e-17  4.33680869e-19
1.23318360e-02  -5.40624921e-09  1.51050399e-17  -6.06862225e-18  1.48526577e-18  3.37613361e-18  3.52164597e-18  5.40624923e-09  5.40624921e-09  5.40624922e-09  5.40624922e-09  5.40624922e-09  1.15833939e-17  9.59026822e-18  2.03638020e-18  1.45512353e-19  -1.97290060e-09  -1.70095944e-17  6.68302429e-18  -1.28627859e-18  -3.11303147e-18  -3.46346078e-18  1.97290058e-09  1.97290061e-09  1.97290060e-09  1.97290060e-09  1.97290060e-09  1.35461337e-17  1.01464851e-17  2.17718219e-18  3.50429314e-19  -2.30293024e-03  -2.88953570e-03  -2.30815070e-03  -2.30885196e-03  -2.30885195e-03  -2.30885195e-03  5.86605462e-04  5.22045892e-06  5.92171178e-06  5.92170917e-06  5.92170918e-06  5.80683753e-04  7.01250252e-07  2.60588860e-12  1.18394877e-16  3.54466171e-03  3.59879412e-03  3.56854962e-03  3.56855593e-03  3.56855593e-03  3.56855593e-03  5.41324146e-05  2.38879150e-05  2.38942195e-05  2.38942195e-05  2.38942195e-05  3.02381951e-05  6.30446621e-09  1.69569220e-16  4.90059382e-17  -1.04820769e-03  -1.08602918e-03  -1.05585905e-03  -1.05585908e-03  -1.05585908e-03  -1.05585908e-03  3.78214858e-05  7.65135555e-06  7.65138558e-06  7.65138558e-06  7.65138558e-06  3.01701003e-05  3.00285827e-11  1.88651178e-17  4.33680869e-19
1.28923740e-02  -5.64943443e-09  1.51092212e-17  -6.07030215e-18  1.48567692e-18  3.37706818e-18  3.52262082e-18  5.64943445e-09  5.64943443e-09  5.64943444e-09  5.64943444e-09  5.64943444e-09  1.15866004e-17  9.59292296e-18  2.03694390e-18  1.45552634e-19  -2.07396712e-09  -1.70143030e-17  6.68487426e-18  -1.28663465e-18  -3.11389320e-18  -3.46441952e-18  2.07396711e-09  2.07396713e-09  2.07396712e-09  2.07396712e-09  2.07396712e-09  1.35498835e-17  1.01492938e-17  2.17778487e-18  3.50526318e-19  -2.30357112e-03  -2.89033558e-03  -2.30878964e-03  -2.30949108e-03  -2.30949108e-03  -2.30949108e-03  5.86764458e-04  5.21851868e-06  5.91996565e-06  5.91996305e-06  5.91996305e-06  5.80844495e-04  7.01444370e-07  2.60660981e-12  1.18828558e-16  3.54564956e-03  3.59979033e-03  3.56953745e-03  3.56954376e-03  3.56954376e-03  3.56954376e-03  5.41407659e-05  2.38878942e-05  2.38942004e-05  2.38942004e-05  2.38942004e-05  3.02465655e-05  6.30621139e-09  1.69569220e-16  4.90059382e-17  -1.04849980e-03  -1.08632981e-03  -1.05615133e-03  -1.05615136e-03  -1.05615136e-03  -1.05615136e-03  3.78300091e-05  7.65152718e-06  7.65155721e-06  7.65155721e-06  7.65155721e-06  3.01784518e-05  3.00368951e-11  1.86482774e-17  4.33680869e-19