<?xml version="1.0"?>
<VTKFile type="PolyData" version="0.1" byte_order="LittleEndian">
  <PolyData>
    <Piece NumberOfPoints="5714" NumberOfVerts="0" NumberOfLines="15" NumberOfStrips="0" NumberOfPolys="8556">
      <PointData Scalars="quadrature_difference_q_6_q_96">
        <DataArray type="Float32" Name="quadrature_difference_q_6_q_96" format="ascii">
          3.018732480e-05 3.018732480e-05 3.018732480e-05 3.018732480e-05 3.018732480e-05 3.018732480e-05 3.018732480e-05 3.018732480e-05 3.018732480e-05 3.018732480e-05 3.018732480e-05 3.018732480e-05 3.018732480e-05 3.018732480e-05 3.018732480e-05 3.018732480e-05 3.018732480e-05 3.018732480e-05 3.018732480e-05 3.018732480e-05 3.018732480e-05 3.018732480e-05 3.018732480e-05 3.018732480e-05 3.018732480e-05 3.018732480e-05 3.018732480e-05 3.018732480e-05 3.018732480e-05 3.018732480e-05 3.018732480e-05 3.018732480e-05 3.018732480e-05 3.018732480e-05 3.018732480e-05 3.018732480e-05 3.018732480e-05 3.018732480e-05 3.018732480e-05 3.018732480e-05 3.018732480e-05 3.018732480e-05 3.018732480e-05 3.018732480e-05 3.018732480e-05 3.018732480e-05 3.018732480e-05 3.018732480e-05 3.018732480e-05 3.018732480e-05 3.018732480e-05 3.018732480e-05 3.018732480e-05 3.018732480e-05 3.018732480e-05 3.018732480e-05 3.018732480e-05 3.018732480e-05 3.018732480e-05 3.018732480e-05 3.018732480e-05 3.018732480e-05 3.018732480e-05 3.018796019e-05 3.019005259e-05 3.019214498e-05 3.019423738e-05 3.019632978e-05 3.019842217e-05 3.020051457e-05 3.020260697e-05 3.020469936e-05 3.020679176e-05 3.020888416e-05 3.021097655e-05 3.021306895e-05 3.021516135e-05 3.021725374e-05 3.021934614e-05 3.022143854e-05 3.022353093e-05 3.022562333e-05 3.022771573e-05 3.022980812e-05 3.023190052e-05 3.023399292e-05 3.023608531e-05 3.023817771e-05 3.024027011e-05 3.024236250e-05 3.024445490e-05 3.024654730e-05 3.024863969e-05 3.025073209e-05 3.025282449e-05 3.025491688e-05 3.025700928e-05 3.025910168e-05 3.026119407e-05 3.026328647e-05 3.026537887e-05 3.026747126e-05 3.026956366e-05 3.027165606e-05 3.027374845e-05 3.027584085e-05 3.027793325e-05 3.028002564e-05 3.028211804e-05 3.028421044e-05 3.028630283e-05 3.028839523e-05 3.029048763e-05 3.029258002e-05 3.029467242e-05 3.029676482e-05 3.029885721e-05 3.030094961e-05 3.030304201e-05 3.030513440e-05 3.030722680e-05 3.030931920e-05 3.031141159e-05 3.031350399e-05 3.031559639e-05 3.031768878e-05 3.031978118e-05 3.032186802e-05 3.032395125e-05 3.032603449e-05 3.032811773e-05 3.033020097e-05 3.033228421e-05 3.033436745e-05 3.033645069e-05 3.033853393e-05 3.034061717e-05 3.034270041e-05 3.034478365e-05 3.034686689e-05 3.034895012e-05 3.035103336e-05 3.035311660e-05 3.035519984e-05 3.035728308e-05 3.035936632e-05 3.036144956e-05 3.036353280e-05 3.036561604e-05 3.036769928e-05 3.036978252e-05 3.037186576e-05 3.037394900e-05 3.037603223e-05 3.037811547e-05 3.038019871e-05 3.038228195e-05 3.038436519e-05 3.038644843e-05 3.038853167e-05 3.039061491e-05 3.039269815e-05 3.039478139e-05 3.039686463e-05 3.039894787e-05 3.040103110e-05 3.040311434e-05 3.040519758e-05 3.040728082e-05 3.040936406e-05 3.041144730e-05 3.041353054e-05 3.041561378e-05 3.041769702e-05 3.041978026e-05 3.042186350e-05 3.042394674e-05 3.042602997e-05 3.042811321e-05 3.043019645e-05 3.043227969e-05 3.043436293e-05 3.043644617e-05 3.043852941e-05 3.044061265e-05 3.044269589e-05 3.044477913e-05 3.044686237e-05 3.044894561e-05 3.045102884e-05 3.045311208e-05 3.045518709e-05 3.045726129e-05 3.045933549e-05 3.046140969e-05 3.046348389e-05 3.046555809e-05 3.046763230e-05 3.046970650e-05 3.047178070e-05 3.047385490e-05 3.047592910e-05 3.047800330e-05 3.048007750e-05 3.048215170e-05 3.048422590e-05 3.048630010e-05 3.048837431e-05 3.049044851e-05 3.049252271e-05 3.049459691e-05 3.049667111e-05 3.049874531e-05 3.050081951e-05 3.050289371e-05 3.050496791e-05 3.050704211e-05 3.050911632e-05 3.051119052e-05 3.051326472e-05 3.051533892e-05 3.051741312e-05 3.051948732e-05 3.052156152e-05 3.052363572e-05 3.052570992e-05 3.052778412e-05 3.052985833e-05 3.053193253e-05 3.053400673e-05 3.053608093e-05 3.053815513e-05 3.054022933e-05 3.054230353e-05 3.054437773e-05 3.054645193e-05 3.054852613e-05 3.055060033e-05 3.055267454e-05 3.055474874e-05 3.055682294e-05 3.055889714e-05 3.056097134e-05 3.056304554e-05 3.056511974e-05 3.056719394e-05 3.056926814e-05 3.057134234e-05 3.057341655e-05 3.057549075e-05 3.057756495e-05 3.057963915e-05 3.058171335e-05 3.058378755e-05 3.058585984e-05 3.058792512e-05 3.058999040e-05 3.059205568e-05 3.059412096e-05 3.059618624e-05 3.059825152e-05 3.060031680e-05 3.060238208e-05 3.060444736e-05 3.060651264e-05 3.060857792e-05 3.061064320e-05 3.061270848e-05 3.061477376e-05 3.061683904e-05 3.061890433e-05 3.062096961e-05 3.062303489e-05 3.062510017e-05 3.062716545e-05 3.062923073e-05 3.063129601e-05 3.063336129e-05 3.063542657e-05 3.063749185e-05 3.063955713e-05 3.064162241e-05 3.064368769e-05 3.064575297e-05 3.064781825e-05 3.064988353e-05 3.065194881e-05 3.065401409e-05 3.065607938e-05 3.065814466e-05 3.066020994e-05 3.066227522e-05 3.066434050e-05 3.066640578e-05 3.066847106e-05 3.067053634e-05 3.067260162e-05 3.067466690e-05 3.067673218e-05 3.067879746e-05 3.068086274e-05 3.068292802e-05 3.068499330e-05 3.068705858e-05 3.068912386e-05 3.069118914e-05 3.069325442e-05 3.069531971e-05 3.069738499e-05 3.069945027e-05 3.070151555e-05 3.070358083e-05 3.070564611e-05 3.070771139e-05 3.070977667e-05 3.071184195e-05 3.071390723e-05 3.071597251e-05 3.071803323e-05 3.072008970e-05 3.072214617e-05 3.072420264e-05 3.072625911e-05 3.072831558e-05 3.073037205e-05 3.073242853e-05 3.073448500e-05 3.073654147e-05 3.073859794e-05 3.074065441e-05 3.074271088e-05 3.074476736e-05 3.074682383e-05 3.074888030e-05 3.075093677e-05 3.075299324e-05 3.075504971e-05 3.075710618e-05 3.075916266e-05 3.076121913e-05 3.076327560e-05 3.076533207e-05 3.076738854e-05 3.076944501e-05 3.077150149e-05 3.077355796e-05 3.077561443e-05 3.077767090e-05 3.077972737e-05 3.078178384e-05 3.078384031e-05 3.078589679e-05 3.078795326e-05 3.079000973e-05 3.079206620e-05 3.079412267e-05 3.079617914e-05 3.079823562e-05 3.080029209e-05 3.080234856e-05 3.080440503e-05 3.080646150e-05 3.080851797e-05 3.081057445e-05 3.081263092e-05 3.081468739e-05 3.081674386e-05 3.081880033e-05 3.082085680e-05 3.082291327e-05 3.082496975e-05 3.082702622e-05 3.082908269e-05 3.083113916e-05 3.083319563e-05 3.083525210e-05 3.083730858e-05 3.083936505e-05 3.084142152e-05 3.084347799e-05 3.084553446e-05 3.084759093e-05 3.084964026e-05 3.085168803e-05 3.085373581e-05 3.085578359e-05 3.085783137e-05 3.085987914e-05 3.086192692e-05 3.086397470e-05 3.086602248e-05 3.086807025e-05 3.087011803e-05 3.087216581e-05 3.087421358e-05 3.087626136e-05 3.087830914e-05 3.088035692e-05 3.088240469e-05 3.088445247e-05 3.088650025e-05 3.088854802e-05 3.089059580e-05 3.089264358e-05 3.089469136e-05 3.089673913e-05 3.089878691e-05 3.090083469e-05 3.090288246e-05 3.090493024e-05 3.090697802e-05 3.090902580e-05 3.091107357e-05 3.091312135e-05 3.091516913e-05 3.091721690e-05 3.091926468e-05 3.092131246e-05 3.092336024e-05 3.092540801e-05 3.092745579e-05 3.092950357e-05 3.093155134e-05 3.093359912e-05 3.093564690e-05 3.093769468e-05 3.093974245e-05 3.094179023e-05 3.094383801e-05 3.094588579e-05 3.094793356e-05 3.094998134e-05 3.095202912e-05 3.095407689e-05 3.095612467e-05 3.095817245e-05 3.096022023e-05 3.096226800e-05 3.096431578e-05 3.096636356e-05 3.096841133e-05 3.097045911e-05 3.097250689e-05 3.097455467e-05 3.097660244e-05 3.097864914e-05 3.098068833e-05 3.098272752e-05 3.098476671e-05 3.098680591e-05 3.098884510e-05 3.099088429e-05 3.099292348e-05 3.099496267e-05 3.099700186e-05 3.099904105e-05 3.100108024e-05 3.100311943e-05 3.100515863e-05 3.100719782e-05 3.100923701e-05 3.101127620e-05 3.101331539e-05 3.101535458e-05 3.101739377e-05 3.101943296e-05 3.102147215e-05 3.102351135e-05 3.102555054e-05 3.102758973e-05 3.102962892e-05 3.103166811e-05 3.103370730e-05 3.103574649e-05 3.103778568e-05 3.103982487e-05 3.104186407e-05 3.104390326e-05 3.104594245e-05 3.104798164e-05 3.105002083e-05 3.105206002e-05 3.105409921e-05 3.105613840e-05 3.105817759e-05 3.106021679e-05 3.106225598e-05 3.106429517e-05 3.106633436e-05 3.106837355e-05 3.107041274e-05 3.107245193e-05 3.107449112e-05 3.107653031e-05 3.107856951e-05 3.108060870e-05 3.108264789e-05 3.108468708e-05 3.108672627e-05 3.108876546e-05 3.109080465e-05 3.109284384e-05 3.109488303e-05 3.109692223e-05 3.109896142e-05 3.110100061e-05 3.110303980e-05 3.110507899e-05 3.110711818e-05 3.110915373e-05 3.111118444e-05 3.111321516e-05 3.111524587e-05 3.111727658e-05 3.111930729e-05 3.112133800e-05 3.112336872e-05 3.112539943e-05 3.112743014e-05 3.112946085e-05 3.113149156e-05 3.113352227e-05 3.113555299e-05 3.113758370e-05 3.113961441e-05 3.114164512e-05 3.114367583e-05 3.114570655e-05 3.114773726e-05 3.114976797e-05 3.115179868e-05 3.115382939e-05 3.115586010e-05 3.115789082e-05 3.115992153e-05 3.116195224e-05 3.116398295e-05 3.116601366e-05 3.116804438e-05 3.117007509e-05 3.117210580e-05 3.117413651e-05 3.117616722e-05 3.117819793e-05 3.118022865e-05 3.118225936e-05 3.118429007e-05 3.118632078e-05 3.118835149e-05 3.119038221e-05 3.119241292e-05 3.119444363e-05 3.119647434e-05 3.119850505e-05 3.120053576e-05 3.120256648e-05 3.120459719e-05 3.120662790e-05 3.120865861e-05 3.121068932e-05 3.121272004e-05 3.121475075e-05 3.121678146e-05 3.121881217e-05 3.122084288e-05 3.122287359e-05 3.122490431e-05 3.122693502e-05 3.122896573e-05 3.123099644e-05 3.123302715e-05 3.123505787e-05 3.123708858e-05 3.123911315e-05 3.124113549e-05 3.124315783e-05 3.124518016e-05 3.124720250e-05 3.124922484e-05 3.125124718e-05 3.125326952e-05 3.125529185e-05 3.125731419e-05 3.125933653e-05 3.126135887e-05 3.126338120e-05 3.126540354e-05 3.126742588e-05 3.126944822e-05 3.127147055e-05 3.127349289e-05 3.127551523e-05 3.127753757e-05 3.127955991e-05 3.128158224e-05 3.128360458e-05 3.128562692e-05 3.128764926e-05 3.128967159e-05 3.129169393e-05 3.129371627e-05 3.129573861e-05 3.129776095e-05 3.129978328e-05 3.130180562e-05 3.130382796e-05 3.130585030e-05 3.130787263e-05 3.130989497e-05 3.131191731e-05 3.131393965e-05 3.131596198e-05 3.131798432e-05 3.132000666e-05 3.132202900e-05 3.132405134e-05 3.132607367e-05 3.132809601e-05 3.133011835e-05 3.133214069e-05 3.133416302e-05 3.133618536e-05 3.133820770e-05 3.134023004e-05 3.134225238e-05 3.134427471e-05 3.134629705e-05 3.134831939e-05 3.135034173e-05 3.135236406e-05 3.135438640e-05 3.135640874e-05 3.135843108e-05 3.136045341e-05 3.136247575e-05 3.136449809e-05 3.136652012e-05 3.136853419e-05 3.137054826e-05 3.137256233e-05 3.137457639e-05 3.137659046e-05 3.137860453e-05 3.138061860e-05 3.138263266e-05 3.138464673e-05 3.138666080e-05 3.138867486e-05 3.139068893e-05 3.139270300e-05 3.139471707e-05 3.139673113e-05 3.139874520e-05 3.140075927e-05 3.140277333e-05 3.140478740e-05 3.140680147e-05 3.140881554e-05 3.141082960e-05 3.141284367e-05 3.141485774e-05 3.141687181e-05 3.141888587e-05 3.142089994e-05 3.142291401e-05 3.142492807e-05 3.142694214e-05 3.142895621e-05 3.143097028e-05 3.143298434e-05 3.143499841e-05 3.143701248e-05 3.143902654e-05 3.144104061e-05 3.144305468e-05 3.144506875e-05 3.144708281e-05 3.144909688e-05 3.145111095e-05 3.145312502e-05 3.145513908e-05 3.145715315e-05 3.145916722e-05 3.146118128e-05 3.146319535e-05 3.146520942e-05 3.146722349e-05 3.146923755e-05 3.147125162e-05 3.147326569e-05 3.147527975e-05 3.147729382e-05 3.147930789e-05 3.148132196e-05 3.148333602e-05 3.148535009e-05 3.148736416e-05 3.148937823e-05 3.149139229e-05 3.149340636e-05 3.149541765e-05 3.149742354e-05 3.149942944e-05 3.150143533e-05 3.150344123e-05 3.150544712e-05 3.150745302e-05 3.150945892e-05 3.151146481e-05 3.151347071e-05 3.151547660e-05 3.151748250e-05 3.151948839e-05 3.152149429e-05 3.152350019e-05 3.152550608e-05 3.152751198e-05 3.152951787e-05 3.153152377e-05 3.153352966e-05 3.153553556e-05 3.153754145e-05 3.153954735e-05 3.154155325e-05 3.154355914e-05 3.154556504e-05 3.154757093e-05 3.154957683e-05 3.155158272e-05 3.155358862e-05 3.155559452e-05 3.155760041e-05 3.155960631e-05 3.156161220e-05 3.156361810e-05 3.156562399e-05 3.156762989e-05 3.156963578e-05 3.157164168e-05 3.157364758e-05 3.157565347e-05 3.157765937e-05 3.157966526e-05 3.158167116e-05 3.158367705e-05 3.158568295e-05 3.158768885e-05 3.158969474e-05 3.159170064e-05 3.159370653e-05 3.159571243e-05 3.159771832e-05 3.159972422e-05 3.160173012e-05 3.160373601e-05 3.160574191e-05 3.160774780e-05 3.160975370e-05 3.161175959e-05 3.161376549e-05 3.161577138e-05 3.161777728e-05 3.161978318e-05 3.162178907e-05 3.162378977e-05 3.162578759e-05 3.162778541e-05 3.162978324e-05 3.163178106e-05 3.163377888e-05 3.163577671e-05 3.163777453e-05 3.163977235e-05 3.164177018e-05 3.164376800e-05 3.164576582e-05 3.164776364e-05 3.164976147e-05 3.165175929e-05 3.165375711e-05 3.165575494e-05 3.165775276e-05 3.165975058e-05 3.166174841e-05 3.166374623e-05 3.166574405e-05 3.166774187e-05 3.166973970e-05 3.167173752e-05 3.167373534e-05 3.167573317e-05 3.167773099e-05 3.167972881e-05 3.168172663e-05 3.168372446e-05 3.168572228e-05 3.168772010e-05 3.168971793e-05 3.169171575e-05 3.169371357e-05 3.169571140e-05 3.169770922e-05 3.169970704e-05 3.170170486e-05 3.170370269e-05 3.170570051e-05 3.170769833e-05 3.170969616e-05 3.171169398e-05 3.171369180e-05 3.171568963e-05 3.171768745e-05 3.171968527e-05 3.172168309e-05 3.172368092e-05 3.172567874e-05 3.172767656e-05 3.172967439e-05 3.173167221e-05 3.173367003e-05 3.173566785e-05 3.173766568e-05 3.173966350e-05 3.174166132e-05 3.174365915e-05 3.174565697e-05 3.174765479e-05 3.174965262e-05 3.175164288e-05 3.175363273e-05 3.175562258e-05 3.175761242e-05 3.175960227e-05 3.176159212e-05 3.176358197e-05 3.176557181e-05 3.176756166e-05 3.176955151e-05 3.177154136e-05 3.177353120e-05 3.177552105e-05 3.177751090e-05 3.177950075e-05 3.178149060e-05 3.178348044e-05 3.178547029e-05 3.178746014e-05 3.178944999e-05 3.179143983e-05 3.179342968e-05 3.179541953e-05 3.179740938e-05 3.179939922e-05 3.180138907e-05 3.180337892e-05 3.180536877e-05 3.180735861e-05 3.180934846e-05 3.181133831e-05 3.181332816e-05 3.181531800e-05 3.181730785e-05 3.181929770e-05 3.182128755e-05 3.182327740e-05 3.182526724e-05 3.182725709e-05 3.182924694e-05 3.183123679e-05 3.183322663e-05 3.183521648e-05 3.183720633e-05 3.183919618e-05 3.184118602e-05 3.184317587e-05 3.184516572e-05 3.184715557e-05 3.184914541e-05 3.185113526e-05 3.185312511e-05 3.185511496e-05 3.185710480e-05 3.185909465e-05 3.186108450e-05 3.186307435e-05 3.186506420e-05 3.186705404e-05 3.186904389e-05 3.187103374e-05 3.187302359e-05 3.187501343e-05 3.187700130e-05 3.187898327e-05 3.188096524e-05 3.188294720e-05 3.188492917e-05 3.188691114e-05 3.188889311e-05 3.189087508e-05 3.189285705e-05 3.189483901e-05 3.189682098e-05 3.189880295e-05 3.190078492e-05 3.190276689e-05 3.190474885e-05 3.190673082e-05 3.190871279e-05 3.191069476e-05 3.191267673e-05 3.191465869e-05 3.191664066e-05 3.191862263e-05 3.192060460e-05 3.192258657e-05 3.192456853e-05 3.192655050e-05 3.192853247e-05 3.193051444e-05 3.193249641e-05 3.193447837e-05 3.193646034e-05 3.193844231e-05 3.194042428e-05 3.194240625e-05 3.194438821e-05 3.194637018e-05 3.194835215e-05 3.195033412e-05 3.195231609e-05 3.195429805e-05 3.195628002e-05 3.195826199e-05 3.196024396e-05 3.196222593e-05 3.196420789e-05 3.196618986e-05 3.196817183e-05 3.197015380e-05 3.197213577e-05 3.197411774e-05 3.197609970e-05 3.197808167e-05 3.198006364e-05 3.198204561e-05 3.198402758e-05 3.198600954e-05 3.198799151e-05 3.198997348e-05 3.199195545e-05 3.199393742e-05 3.199591938e-05 3.199790135e-05 3.199988332e-05 3.200186529e-05 3.200384293e-05 3.200581711e-05 3.200779129e-05 3.200976547e-05 3.201173965e-05 3.201371383e-05 3.201568801e-05 3.201766219e-05 3.201963637e-05 3.202161055e-05 3.202358473e-05 3.202555891e-05 3.202753309e-05 3.202950727e-05 3.203148145e-05 3.203345563e-05 3.203542981e-05 3.203740399e-05 3.203937817e-05 3.204135234e-05 3.204332652e-05 3.204530070e-05 3.204727488e-05 3.204924906e-05 3.205122324e-05 3.205319742e-05 3.205517160e-05 3.205714578e-05 3.205911996e-05 3.206109414e-05 3.206306832e-05 3.206504250e-05 3.206701668e-05 3.206899086e-05 3.207096504e-05 3.207293922e-05 3.207491340e-05 3.207688758e-05 3.207886176e-05 3.208083594e-05 3.208281011e-05 3.208478429e-05 3.208675847e-05 3.208873265e-05 3.209070683e-05 3.209268101e-05 3.209465519e-05 3.209662937e-05 3.209860355e-05 3.210057773e-05 3.210255191e-05 3.210452609e-05 3.210650027e-05 3.210847445e-05 3.211044863e-05 3.211242281e-05 3.211439699e-05 3.211637117e-05 3.211834535e-05 3.212031953e-05 3.212229371e-05 3.212426788e-05 3.212624206e-05 3.212821624e-05 3.213018381e-05 3.213215030e-05 3.213411678e-05 3.213608326e-05 3.213804974e-05 3.214001622e-05 3.214198271e-05 3.214394919e-05 3.214591567e-05 3.214788215e-05 3.214984863e-05 3.215181512e-05 3.215378160e-05 3.215574808e-05 3.215771456e-05 3.215968105e-05 3.216164753e-05 3.216361401e-05 3.216558049e-05 3.216754697e-05 3.216951346e-05 3.217147994e-05 3.217344642e-05 3.217541290e-05 3.217737938e-05 3.217934587e-05 3.218131235e-05 3.218327883e-05 3.218524531e-05 3.218721179e-05 3.218917828e-05 3.219114476e-05 3.219311124e-05 3.219507772e-05 3.219704420e-05 3.219901069e-05 3.220097717e-05 3.220294365e-05 3.220491013e-05 3.220687661e-05 3.220884310e-05 3.221080958e-05 3.221277606e-05 3.221474254e-05 3.221670903e-05 3.221867551e-05 3.222064199e-05 3.222260847e-05 3.222457495e-05 3.222654144e-05 3.222850792e-05 3.223047440e-05 3.223244088e-05 3.223440736e-05 3.223637385e-05 3.223834033e-05 3.224030681e-05 3.224227329e-05 3.224423977e-05 3.224620626e-05 3.224817274e-05 3.225013922e-05 3.225210570e-05 3.225407095e-05 3.225602983e-05 3.225798870e-05 3.225994758e-05 3.226190645e-05 3.226386533e-05 3.226582420e-05 3.226778308e-05 3.226974196e-05 3.227170083e-05 3.227365971e-05 3.227561858e-05 3.227757746e-05 3.227953633e-05 3.228149521e-05 3.228345409e-05 3.228541296e-05 3.228737184e-05 3.228933071e-05 3.229128959e-05 3.229324846e-05 3.229520734e-05 3.229716621e-05 3.229912509e-05 3.230108397e-05 3.230304284e-05 3.230500172e-05 3.230696059e-05 3.230891947e-05 3.231087834e-05 3.231283722e-05 3.231479610e-05 3.231675497e-05 3.231871385e-05 3.232067272e-05 3.232263160e-05 3.232459047e-05 3.232654935e-05 3.232850823e-05 3.233046710e-05 3.233242598e-05 3.233438485e-05 3.233634373e-05 3.233830260e-05 3.234026148e-05 3.234222036e-05 3.234417923e-05 3.234613811e-05 3.234809698e-05 3.235005586e-05 3.235201473e-05 3.235397361e-05 3.235593248e-05 3.235789136e-05 3.235985024e-05 3.236180911e-05 3.236376799e-05 3.236572686e-05 3.236768574e-05 3.236964461e-05 3.237160349e-05 3.237356237e-05 3.237552124e-05 3.237748012e-05 3.237943549e-05 3.238138684e-05 3.238333820e-05 3.238528956e-05 3.238724091e-05 3.238919227e-05 3.239114362e-05 3.239309498e-05 3.239504633e-05 3.239699769e-05 3.239894904e-05 3.240090040e-05 3.240285176e-05 3.240480311e-05 3.240675447e-05 3.240870582e-05 3.241065718e-05 3.241260853e-05 3.241455989e-05 3.241651125e-05 3.241846260e-05 3.242041396e-05 3.242236531e-05 3.242431667e-05 3.242626802e-05 3.242821938e-05 3.243017073e-05 3.243212209e-05 3.243407345e-05 3.243602480e-05 3.243797616e-05 3.243992751e-05 3.244187887e-05 3.244383022e-05 3.244578158e-05 3.244773294e-05 3.244968429e-05 3.245163565e-05 3.245358700e-05 3.245553836e-05 3.245748971e-05 3.245944107e-05 3.246139242e-05 3.246334378e-05 3.246529514e-05 3.246724649e-05 3.246919785e-05 3.247114920e-05 3.247310056e-05 3.247505191e-05 3.247700327e-05 3.247895463e-05 3.248090598e-05 3.248285734e-05 3.248480869e-05 3.248676005e-05 3.248871140e-05 3.249066276e-05 3.249261411e-05 3.249456547e-05 3.249651683e-05 3.249846818e-05 3.250041954e-05 3.250237089e-05 3.250431653e-05 3.250626045e-05 3.250820437e-05 3.251014829e-05 3.251209221e-05 3.251403614e-05 3.251598006e-05 3.251792398e-05 3.251986790e-05 3.252181182e-05 3.252375575e-05 3.252569967e-05 3.252764359e-05 3.252958751e-05 3.253153143e-05 3.253347536e-05 3.253541928e-05 3.253736320e-05 3.253930712e-05 3.254125104e-05 3.254319496e-05 3.254513889e-05 3.254708281e-05 3.254902673e-05 3.255097065e-05 3.255291457e-05 3.255485850e-05 3.255680242e-05 3.255874634e-05 3.256069026e-05 3.256263418e-05 3.256457811e-05 3.256652203e-05 3.256846595e-05 3.257040987e-05 3.257235379e-05 3.257429772e-05 3.257624164e-05 3.257818556e-05 3.258012948e-05 3.258207340e-05 3.258401732e-05 3.258596125e-05 3.258790517e-05 3.258984909e-05 3.259179301e-05 3.259373693e-05 3.259568086e-05 3.259762478e-05 3.259956870e-05 3.260151262e-05 3.260345654e-05 3.260540047e-05 3.260734439e-05 3.260928831e-05 3.261123223e-05 3.261317615e-05 3.261512008e-05 3.261706400e-05 3.261900792e-05 3.262095184e-05 3.262289576e-05 3.262483968e-05 3.262678307e-05 3.262871964e-05 3.263065621e-05 3.263259279e-05 3.263452936e-05 3.263646593e-05 3.263840251e-05 3.264033908e-05 3.264227565e-05 3.264421222e-05 3.264614880e-05 3.264808537e-05 3.265002194e-05 3.265195852e-05 3.265389509e-05 3.265583166e-05 3.265776824e-05 3.265970481e-05 3.266164138e-05 3.266357795e-05 3.266551453e-05 3.266745110e-05 3.266938767e-05 3.267132425e-05 3.267326082e-05 3.267519739e-05 3.267713397e-05 3.267907054e-05 3.268100711e-05 3.268294368e-05 3.268488026e-05 3.268681683e-05 3.268875340e-05 3.269068998e-05 3.269262655e-05 3.269456312e-05 3.269649970e-05 3.269843627e-05 3.270037284e-05 3.270230941e-05 3.270424599e-05 3.270618256e-05 3.270811913e-05 3.271005571e-05 3.271199228e-05 3.271392885e-05 3.271586542e-05 3.271780200e-05 3.271973857e-05 3.272167514e-05 3.272361172e-05 3.272554829e-05 3.272748486e-05 3.272942144e-05 3.273135801e-05 3.273329458e-05 3.273523115e-05 3.273716773e-05 3.273910430e-05 3.274104087e-05 3.274297745e-05 3.274491402e-05 3.274685059e-05 3.274878717e-05 3.275072100e-05 3.275265030e-05 3.275457961e-05 3.275650892e-05 3.275843822e-05 3.276036753e-05 3.276229683e-05 3.276422614e-05 3.276615544e-05 3.276808475e-05 3.277001406e-05 3.277194336e-05 3.277387267e-05 3.277580197e-05 3.277773128e-05 3.277966058e-05 3.278158989e-05 3.278351920e-05 3.278544850e-05 3.278737781e-05 3.278930711e-05 3.279123642e-05 3.279316572e-05 3.279509503e-05 3.279702434e-05 3.279895364e-05 3.280088295e-05 3.280281225e-05 3.280474156e-05 3.280667086e-05 3.280860017e-05 3.281052947e-05 3.281245878e-05 3.281438809e-05 3.281631739e-05 3.281824670e-05 3.282017600e-05 3.282210531e-05 3.282403461e-05 3.282596392e-05 3.282789323e-05 3.282982253e-05 3.283175184e-05 3.283368114e-05 3.283561045e-05 3.283753975e-05 3.283946906e-05 3.284139837e-05 3.284332767e-05 3.284525698e-05 3.284718628e-05 3.284911559e-05 3.285104489e-05 3.285297420e-05 3.285490351e-05 3.285683281e-05 3.285876212e-05 3.286069142e-05 3.286262073e-05 3.286455003e-05 3.286647934e-05 3.286840865e-05 3.287033795e-05 3.287226726e-05 3.287288340e-05 3.287288340e-05 3.287288340e-05 3.287288340e-05 3.287288340e-05 3.287288340e-05 3.287288340e-05 3.287288340e-05 3.287288340e-05 3.287288340e-05 3.287288340e-05 3.287288340e-05 3.287288340e-05 3.287288340e-05 3.287288340e-05 3.287288340e-05 3.287288340e-05 3.287288340e-05 3.287288340e-05 3.287288340e-05 3.287288340e-05 3.287288340e-05 3.287288340e-05 3.287288340e-05 3.287288340e-05 3.287288340e-05 3.008712900e-05 3.008712900e-05 3.008712900e-05 3.008712900e-05 3.008712900e-05 3.008712900e-05 3.008712900e-05 3.008712900e-05 3.008712900e-05 3.008712900e-05 3.008712900e-05 3.008712900e-05 3.008712900e-05 3.008712900e-05 3.008712900e-05 3.008713851e-05 3.008924134e-05 3.009134416e-05 3.009344699e-05 3.009554981e-05 3.009765264e-05 3.009975547e-05 3.010185829e-05 3.010396112e-05 3.010606394e-05 3.010816677e-05 3.011026959e-05 3.011237242e-05 3.011447524e-05 3.011657807e-05 3.011868090e-05 3.012078370e-05 3.012288418e-05 3.012498466e-05 3.012708514e-05 3.012918563e-05 3.013128611e-05 3.013338659e-05 3.013548707e-05 3.013758755e-05 3.013968803e-05 3.014178851e-05 3.014388899e-05 3.014598948e-05 3.014808996e-05 3.015019044e-05 3.015229092e-05 3.015439137e-05 3.015648951e-05 3.015858764e-05 3.016068578e-05 3.016278392e-05 3.016488205e-05 3.016698019e-05 3.016907833e-05 3.017117646e-05 3.017327460e-05 3.017537274e-05 3.017747087e-05 3.017956901e-05 3.018166715e-05 3.018376529e-05 3.018586342e-05 3.018796152e-05 3.019005733e-05 3.019215314e-05 3.019424895e-05 3.019634476e-05 3.019844057e-05 3.020053638e-05 3.020263220e-05 3.020472801e-05 3.020682382e-05 3.020891963e-05 3.021101544e-05 3.021311125e-05 3.021520706e-05 3.021730287e-05 3.021939869e-05 3.022149444e-05 3.022358793e-05 3.022568141e-05 3.022777490e-05 3.022986839e-05 3.023196187e-05 3.023405536e-05 3.023614884e-05 3.023824233e-05 3.024033581e-05 3.024242930e-05 3.024452278e-05 3.024661627e-05 3.024870976e-05 3.025080324e-05 3.025289673e-05 3.025499015e-05 3.025708133e-05 3.025917251e-05 3.026126369e-05 3.026335486e-05 3.026544604e-05 3.026753722e-05 3.026962840e-05 3.027171958e-05 3.027381076e-05 3.027590194e-05 3.027799311e-05 3.028008429e-05 3.028217547e-05 3.028426665e-05 3.028635783e-05 3.028844893e-05 3.029053780e-05 3.029262667e-05 3.029471553e-05 3.029680440e-05 3.029889326e-05 3.030098213e-05 3.030307099e-05 3.030515986e-05 3.030724872e-05 3.030933759e-05 3.031142646e-05 3.031351532e-05 3.031560419e-05 3.031769305e-05 3.031978192e-05 3.032187070e-05 3.032395726e-05 3.032604383e-05 3.032813039e-05 3.033021696e-05 3.033230352e-05 3.033439009e-05 3.033647665e-05 3.033856322e-05 3.034064978e-05 3.034273635e-05 3.034482291e-05 3.034690948e-05 3.034899604e-05 3.035108261e-05 3.035316917e-05 3.035525564e-05 3.035733992e-05 3.035942420e-05 3.036150847e-05 3.036359275e-05 3.036567703e-05 3.036776130e-05 3.036984558e-05 3.037192986e-05 3.037401413e-05 3.037609841e-05 3.037818269e-05 3.038026696e-05 3.038235124e-05 3.038443552e-05 3.038651979e-05 3.038860397e-05 3.039068596e-05 3.039276796e-05 3.039484995e-05 3.039693195e-05 3.039901394e-05 3.040109594e-05 3.040317793e-05 3.040525993e-05 3.040734192e-05 3.040942392e-05 3.041150591e-05 3.041358791e-05 3.041566990e-05 3.041775189e-05 3.041983389e-05 3.042191577e-05 3.042399548e-05 3.042607520e-05 3.042815491e-05 3.043023462e-05 3.043231434e-05 3.043439405e-05 3.043647376e-05 3.043855347e-05 3.044063319e-05 3.044271290e-05 3.044479261e-05 3.044687233e-05 3.044895204e-05 3.045103175e-05 3.045311146e-05 3.045519105e-05 3.045726850e-05 3.045934594e-05 3.046142338e-05 3.046350083e-05 3.046557827e-05 3.046765572e-05 3.046973316e-05 3.047181060e-05 3.047388805e-05 3.047596549e-05 3.047804293e-05 3.048012038e-05 3.048219782e-05 3.048427526e-05 3.048635271e-05 3.048843002e-05 3.049050520e-05 3.049258039e-05 3.049465558e-05 3.049673076e-05 3.049880595e-05 3.050088114e-05 3.050295632e-05 3.050503151e-05 3.050710670e-05 3.050918188e-05 3.051125707e-05 3.051333226e-05 3.051540744e-05 3.051748263e-05 3.051955782e-05 3.052163286e-05 3.052370579e-05 3.052577872e-05 3.052785165e-05 3.052992458e-05 3.053199751e-05 3.053407044e-05 3.053614337e-05 3.053821630e-05 3.054028923e-05 3.054236216e-05 3.054443509e-05 3.054650802e-05 3.054858095e-05 3.055065388e-05 3.055272681e-05 3.055479958e-05 3.055687026e-05 3.055894094e-05 3.056101162e-05 3.056308230e-05 3.056515298e-05 3.056722366e-05 3.056929434e-05 3.057136502e-05 3.057343570e-05 3.057550637e-05 3.057757705e-05 3.057964773e-05 3.058171841e-05 3.058378909e-05 3.058585977e-05 3.058793029e-05 3.058999873e-05 3.059206718e-05 3.059413563e-05 3.059620408e-05 3.059827252e-05 3.060034097e-05 3.060240942e-05 3.060447787e-05 3.060654631e-05 3.060861476e-05 3.061068321e-05 3.061275165e-05 3.061482010e-05 3.061688855e-05 3.061895700e-05 3.062102527e-05 3.062309148e-05 3.062515769e-05 3.062722390e-05 3.062929011e-05 3.063135632e-05 3.063342253e-05 3.063548873e-05 3.063755494e-05 3.063962115e-05 3.064168736e-05 3.064375357e-05 3.064581978e-05 3.064788599e-05 3.064995220e-05 3.065201841e-05 3.065408444e-05 3.065614842e-05 3.065821240e-05 3.066027639e-05 3.066234037e-05 3.066440435e-05 3.066646834e-05 3.066853232e-05 3.067059630e-05 3.067266029e-05 3.067472427e-05 3.067678825e-05 3.067885224e-05 3.068091622e-05 3.068298020e-05 3.068504419e-05 3.068710798e-05 3.068916975e-05 3.069123152e-05 3.069329329e-05 3.069535506e-05 3.069741683e-05 3.069947860e-05 3.070154037e-05 3.070360214e-05 3.070566391e-05 3.070772568e-05 3.070978745e-05 3.071184922e-05 3.071391099e-05 3.071597277e-05 3.071803454e-05 3.072009610e-05 3.072215566e-05 3.072421521e-05 3.072627476e-05 3.072833431e-05 3.073039386e-05 3.073245341e-05 3.073451296e-05 3.073657251e-05 3.073863206e-05 3.074069161e-05 3.074275117e-05 3.074481072e-05 3.074687027e-05 3.074892982e-05 3.075098937e-05 3.075304871e-05 3.075510607e-05 3.075716342e-05 3.075922078e-05 3.076127814e-05 3.076333549e-05 3.076539285e-05 3.076745021e-05 3.076950756e-05 3.077156492e-05 3.077362228e-05 3.077567963e-05 3.077773699e-05 3.077979435e-05 3.078185170e-05 3.078390906e-05 3.078596620e-05 3.078802135e-05 3.079007650e-05 3.079213165e-05 3.079418680e-05 3.079624195e-05 3.079829710e-05 3.080035225e-05 3.080240740e-05 3.080446254e-05 3.080651769e-05 3.080857284e-05 3.081062799e-05 3.081268314e-05 3.081473829e-05 3.081679344e-05 3.081884837e-05 3.082090133e-05 3.082295430e-05 3.082500727e-05 3.082706024e-05 3.082911321e-05 3.083116617e-05 3.083321914e-05 3.083527211e-05 3.083732508e-05 3.083937804e-05 3.084143101e-05 3.084348398e-05 3.084553695e-05 3.084758992e-05 3.084964288e-05 3.085169561e-05 3.085374639e-05 3.085579717e-05 3.085784795e-05 3.085989873e-05 3.086194951e-05 3.086400029e-05 3.086605107e-05 3.086810185e-05 3.087015263e-05 3.087220341e-05 3.087425419e-05 3.087630497e-05 3.087835575e-05 3.088040653e-05 3.088245731e-05 3.088450784e-05 3.088655645e-05 3.088860506e-05 3.089065368e-05 3.089270229e-05 3.089475090e-05 3.089679951e-05 3.089884812e-05 3.090089673e-05 3.090294534e-05 3.090499395e-05 3.090704256e-05 3.090909117e-05 3.091113978e-05 3.091318839e-05 3.091523700e-05 3.091728535e-05 3.091933179e-05 3.092137822e-05 3.092342466e-05 3.092547109e-05 3.092751753e-05 3.092956396e-05 3.093161040e-05 3.093365683e-05 3.093570327e-05