<?xml version="1.0"?>
<VTKFile type="PolyData" version="0.1" byte_order="LittleEndian">
  <PolyData>
    <Piece NumberOfPoints="5714" NumberOfVerts="0" NumberOfLines="15" NumberOfStrips="0" NumberOfPolys="8556">
      <PointData Scalars="quadrature_difference_q_6_q_96">
        <DataArray type="Float32" Name="quadrature_difference_q_6_q_96" format="ascii">
          1.156390700e-17 1.156390700e-17 1.156390700e-17 1.156390700e-17 1.156390700e-17 1.156390700e-17 1.156390700e-17 1.156390700e-17 1.156390700e-17 1.156390700e-17 1.156390700e-17 1.156390700e-17 1.156390700e-17 1.156390700e-17 1.156390700e-17 1.156390700e-17 1.156390700e-17 1.156390700e-17 1.156390700e-17 1.156390700e-17 1.156390700e-17 1.156390700e-17 1.156390700e-17 1.156390700e-17 1.156390700e-17 1.156390700e-17 1.156390700e-17 1.156390700e-17 1.156390700e-17 1.156390700e-17 1.156390700e-17 1.156390700e-17 1.156390700e-17 1.156390700e-17 1.156390700e-17 1.156390700e-17 1.156390700e-17 1.156390700e-17 1.156390700e-17 1.156390700e-17 1.156390700e-17 1.156390700e-17 1.156390700e-17 1.156390700e-17 1.156390700e-17 1.156390700e-17 1.156390700e-17 1.156390700e-17 1.156390700e-17 1.156390700e-17 1.156390700e-17 1.156390700e-17 1.156390700e-17 1.156390700e-17 1.156390700e-17 1.156390700e-17 1.156390700e-17 1.156390700e-17 1.156390700e-17 1.156390700e-17 1.156390700e-17 1.156390700e-17 1.156390700e-17 1.156415040e-17 1.156495194e-17 1.156575347e-17 1.156655501e-17 1.156735655e-17 1.156815809e-17 1.156895962e-17 1.156976116e-17 1.157056270e-17 1.157136424e-17 1.157216577e-17 1.157296731e-17 1.157376885e-17 1.157457039e-17 1.157537192e-17 1.157617346e-17 1.157697500e-17 1.157777654e-17 1.157857807e-17 1.157937961e-17 1.158018115e-17 1.158098269e-17 1.158178422e-17 1.158258576e-17 1.158338730e-17 1.158418884e-17 1.158499037e-17 1.158579191e-17 1.158659345e-17 1.158739499e-17 1.158819652e-17 1.158899806e-17 1.158979960e-17 1.159060114e-17 1.159140267e-17 1.159220421e-17 1.159300575e-17 1.159380729e-17 1.159460882e-17 1.159541036e-17 1.159621190e-17 1.159701344e-17 1.159781497e-17 1.159861651e-17 1.159941805e-17 1.160021959e-17 1.160102112e-17 1.160182266e-17 1.160262420e-17 1.160342574e-17 1.160422727e-17 1.160502881e-17 1.160583035e-17 1.160663189e-17 1.160743342e-17 1.160823496e-17 1.160903650e-17 1.160983804e-17 1.161063957e-17 1.161144111e-17 1.161224265e-17 1.161304419e-17 1.161384572e-17 1.161464726e-17 1.161544667e-17 1.161624470e-17 1.161704273e-17 1.161784076e-17 1.161863879e-17 1.161943682e-17 1.162023485e-17 1.162103288e-17 1.162183091e-17 1.162262894e-17 1.162342697e-17 1.162422500e-17 1.162502303e-17 1.162582106e-17 1.162661909e-17 1.162741712e-17 1.162821515e-17 1.162901318e-17 1.162981121e-17 1.163060924e-17 1.163140727e-17 1.163220530e-17 1.163300333e-17 1.163380136e-17 1.163459939e-17 1.163539742e-17 1.163619545e-17 1.163699348e-17 1.163779151e-17 1.163858954e-17 1.163938758e-17 1.164018561e-17 1.164098364e-17 1.164178167e-17 1.164257970e-17 1.164337773e-17 1.164417576e-17 1.164497379e-17 1.164577182e-17 1.164656985e-17 1.164736788e-17 1.164816591e-17 1.164896394e-17 1.164976197e-17 1.165056000e-17 1.165135803e-17 1.165215606e-17 1.165295409e-17 1.165375212e-17 1.165455015e-17 1.165534818e-17 1.165614621e-17 1.165694424e-17 1.165774227e-17 1.165854030e-17 1.165933833e-17 1.166013636e-17 1.166093439e-17 1.166173242e-17 1.166253045e-17 1.166332848e-17 1.166412651e-17 1.166492454e-17 1.166572257e-17 1.166651745e-17 1.166731201e-17 1.166810658e-17 1.166890115e-17 1.166969572e-17 1.167049028e-17 1.167128485e-17 1.167207942e-17 1.167287398e-17 1.167366855e-17 1.167446312e-17 1.167525768e-17 1.167605225e-17 1.167684682e-17 1.167764138e-17 1.167843595e-17 1.167923052e-17 1.168002509e-17 1.168081965e-17 1.168161422e-17 1.168240879e-17 1.168320335e-17 1.168399792e-17 1.168479249e-17 1.168558705e-17 1.168638162e-17 1.168717619e-17 1.168797075e-17 1.168876532e-17 1.168955989e-17 1.169035445e-17 1.169114902e-17 1.169194359e-17 1.169273816e-17 1.169353272e-17 1.169432729e-17 1.169512186e-17 1.169591642e-17 1.169671099e-17 1.169750556e-17 1.169830012e-17 1.169909469e-17 1.169988926e-17 1.170068382e-17 1.170147839e-17 1.170227296e-17 1.170306753e-17 1.170386209e-17 1.170465666e-17 1.170545123e-17 1.170624579e-17 1.170704036e-17 1.170783493e-17 1.170862949e-17 1.170942406e-17 1.171021863e-17 1.171101319e-17 1.171180776e-17 1.171260233e-17 1.171339690e-17 1.171419146e-17 1.171498603e-17 1.171578060e-17 1.171657443e-17 1.171736558e-17 1.171815673e-17 1.171894788e-17 1.171973903e-17 1.172053018e-17 1.172132133e-17 1.172211248e-17 1.172290364e-17 1.172369479e-17 1.172448594e-17 1.172527709e-17 1.172606824e-17 1.172685939e-17 1.172765054e-17 1.172844169e-17 1.172923284e-17 1.173002399e-17 1.173081514e-17 1.173160629e-17 1.173239744e-17 1.173318859e-17 1.173397975e-17 1.173477090e-17 1.173556205e-17 1.173635320e-17 1.173714435e-17 1.173793550e-17 1.173872665e-17 1.173951780e-17 1.174030895e-17 1.174110010e-17 1.174189125e-17 1.174268240e-17 1.174347355e-17 1.174426470e-17 1.174505586e-17 1.174584701e-17 1.174663816e-17 1.174742931e-17 1.174822046e-17 1.174901161e-17 1.174980276e-17 1.175059391e-17 1.175138506e-17 1.175217621e-17 1.175296736e-17 1.175375851e-17 1.175454966e-17 1.175534081e-17 1.175613197e-17 1.175692312e-17 1.175771427e-17 1.175850542e-17 1.175929657e-17 1.176008772e-17 1.176087887e-17 1.176167002e-17 1.176246117e-17 1.176325232e-17 1.176404347e-17 1.176483462e-17 1.176562577e-17 1.176641692e-17 1.176720633e-17 1.176799410e-17 1.176878188e-17 1.176956965e-17 1.177035743e-17 1.177114520e-17 1.177193298e-17 1.177272075e-17 1.177350853e-17 1.177429630e-17 1.177508408e-17 1.177587185e-17 1.177665963e-17 1.177744740e-17 1.177823518e-17 1.177902296e-17 1.177981073e-17 1.178059851e-17 1.178138628e-17 1.178217406e-17 1.178296183e-17 1.178374961e-17 1.178453738e-17 1.178532516e-17 1.178611293e-17 1.178690071e-17 1.178768848e-17 1.178847626e-17 1.178926403e-17 1.179005181e-17 1.179083958e-17 1.179162736e-17 1.179241514e-17 1.179320291e-17 1.179399069e-17 1.179477846e-17 1.179556624e-17 1.179635401e-17 1.179714179e-17 1.179792956e-17 1.179871734e-17 1.179950511e-17 1.180029289e-17 1.180108066e-17 1.180186844e-17 1.180265621e-17 1.180344399e-17 1.180423177e-17 1.180501954e-17 1.180580732e-17 1.180659509e-17 1.180738287e-17 1.180817064e-17 1.180895842e-17 1.180974619e-17 1.181053397e-17 1.181132174e-17 1.181210952e-17 1.181289729e-17 1.181368507e-17 1.181447284e-17 1.181526062e-17 1.181604839e-17 1.181683617e-17 1.181762121e-17 1.181840565e-17 1.181919010e-17 1.181997454e-17 1.182075899e-17 1.182154344e-17 1.182232788e-17 1.182311233e-17 1.182389677e-17 1.182468122e-17 1.182546566e-17 1.182625011e-17 1.182703455e-17 1.182781900e-17 1.182860344e-17 1.182938789e-17 1.183017234e-17 1.183095678e-17 1.183174123e-17 1.183252567e-17 1.183331012e-17 1.183409456e-17 1.183487901e-17 1.183566345e-17 1.183644790e-17 1.183723234e-17 1.183801679e-17 1.183880124e-17 1.183958568e-17 1.184037013e-17 1.184115457e-17 1.184193902e-17 1.184272346e-17 1.184350791e-17 1.184429235e-17 1.184507680e-17 1.184586124e-17 1.184664569e-17 1.184743014e-17 1.184821458e-17 1.184899903e-17 1.184978347e-17 1.185056792e-17 1.185135236e-17 1.185213681e-17 1.185292125e-17 1.185370570e-17 1.185449014e-17 1.185527459e-17 1.185605904e-17 1.185684348e-17 1.185762793e-17 1.185841237e-17 1.185919682e-17 1.185998126e-17 1.186076571e-17 1.186155015e-17 1.186233460e-17 1.186311904e-17 1.186390349e-17 1.186468794e-17 1.186547238e-17 1.186625683e-17 1.186704086e-17 1.186782202e-17 1.186860317e-17 1.186938433e-17 1.187016548e-17 1.187094664e-17 1.187172780e-17 1.187250895e-17 1.187329011e-17 1.187407127e-17 1.187485242e-17 1.187563358e-17 1.187641474e-17 1.187719589e-17 1.187797705e-17 1.187875820e-17 1.187953936e-17 1.188032052e-17 1.188110167e-17 1.188188283e-17 1.188266399e-17 1.188344514e-17 1.188422630e-17 1.188500746e-17 1.188578861e-17 1.188656977e-17 1.188735093e-17 1.188813208e-17 1.188891324e-17 1.188969439e-17 1.189047555e-17 1.189125671e-17 1.189203786e-17 1.189281902e-17 1.189360018e-17 1.189438133e-17 1.189516249e-17 1.189594365e-17 1.189672480e-17 1.189750596e-17 1.189828712e-17 1.189906827e-17 1.189984943e-17 1.190063058e-17 1.190141174e-17 1.190219290e-17 1.190297405e-17 1.190375521e-17 1.190453637e-17 1.190531752e-17 1.190609868e-17 1.190687984e-17 1.190766099e-17 1.190844215e-17 1.190922330e-17 1.191000446e-17 1.191078562e-17 1.191156677e-17 1.191234793e-17 1.191312909e-17 1.191391024e-17 1.191469140e-17 1.191547256e-17 1.191625371e-17 1.191703347e-17 1.191781138e-17 1.191858929e-17 1.191936720e-17 1.192014511e-17 1.192092302e-17 1.192170092e-17 1.192247883e-17 1.192325674e-17 1.192403465e-17 1.192481256e-17 1.192559046e-17 1.192636837e-17 1.192714628e-17 1.192792419e-17 1.192870210e-17 1.192948001e-17 1.193025791e-17 1.193103582e-17 1.193181373e-17 1.193259164e-17 1.193336955e-17 1.193414745e-17 1.193492536e-17 1.193570327e-17 1.193648118e-17 1.193725909e-17 1.193803700e-17 1.193881490e-17 1.193959281e-17 1.194037072e-17 1.194114863e-17 1.194192654e-17 1.194270444e-17 1.194348235e-17 1.194426026e-17 1.194503817e-17 1.194581608e-17 1.194659399e-17 1.194737189e-17 1.194814980e-17 1.194892771e-17 1.194970562e-17 1.195048353e-17 1.195126143e-17 1.195203934e-17 1.195281725e-17 1.195359516e-17 1.195437307e-17 1.195515098e-17 1.195592888e-17 1.195670679e-17 1.195748470e-17 1.195826261e-17 1.195904052e-17 1.195981842e-17 1.196059633e-17 1.196137424e-17 1.196215215e-17 1.196293006e-17 1.196370797e-17 1.196448587e-17 1.196526378e-17 1.196604169e-17 1.196681725e-17 1.196759195e-17 1.196836665e-17 1.196914135e-17 1.196991605e-17 1.197069075e-17 1.197146545e-17 1.197224015e-17 1.197301485e-17 1.197378955e-17 1.197456425e-17 1.197533896e-17 1.197611366e-17 1.197688836e-17 1.197766306e-17 1.197843776e-17 1.197921246e-17 1.197998716e-17 1.198076186e-17 1.198153656e-17 1.198231126e-17 1.198308596e-17 1.198386066e-17 1.198463537e-17 1.198541007e-17 1.198618477e-17 1.198695947e-17 1.198773417e-17 1.198850887e-17 1.198928357e-17 1.199005827e-17 1.199083297e-17 1.199160767e-17 1.199238237e-17 1.199315707e-17 1.199393177e-17 1.199470648e-17 1.199548118e-17 1.199625588e-17 1.199703058e-17 1.199780528e-17 1.199857998e-17 1.199935468e-17 1.200012938e-17 1.200090408e-17 1.200167878e-17 1.200245348e-17 1.200322818e-17 1.200400288e-17 1.200477759e-17 1.200555229e-17 1.200632699e-17 1.200710169e-17 1.200787639e-17 1.200865109e-17 1.200942579e-17 1.201020049e-17 1.201097519e-17 1.201174989e-17 1.201252459e-17 1.201329929e-17 1.201407399e-17 1.201484870e-17 1.201562328e-17 1.201639481e-17 1.201716634e-17 1.201793787e-17 1.201870940e-17 1.201948094e-17 1.202025247e-17 1.202102400e-17 1.202179553e-17 1.202256706e-17 1.202333859e-17 1.202411012e-17 1.202488165e-17 1.202565318e-17 1.202642471e-17 1.202719625e-17 1.202796778e-17 1.202873931e-17 1.202951084e-17 1.203028237e-17 1.203105390e-17 1.203182543e-17 1.203259696e-17 1.203336849e-17 1.203414003e-17 1.203491156e-17 1.203568309e-17 1.203645462e-17 1.203722615e-17 1.203799768e-17 1.203876921e-17 1.203954074e-17 1.204031227e-17 1.204108380e-17 1.204185534e-17 1.204262687e-17 1.204339840e-17 1.204416993e-17 1.204494146e-17 1.204571299e-17 1.204648452e-17 1.204725605e-17 1.204802758e-17 1.204879912e-17 1.204957065e-17 1.205034218e-17 1.205111371e-17 1.205188524e-17 1.205265677e-17 1.205342830e-17 1.205419983e-17 1.205497136e-17 1.205574289e-17 1.205651443e-17 1.205728596e-17 1.205805749e-17 1.205882902e-17 1.205960055e-17 1.206037208e-17 1.206114361e-17 1.206191514e-17 1.206268667e-17 1.206345821e-17 1.206422974e-17 1.206500020e-17 1.206576860e-17 1.206653701e-17 1.206730541e-17 1.206807381e-17 1.206884221e-17 1.206961062e-17 1.207037902e-17 1.207114742e-17 1.207191582e-17 1.207268422e-17 1.207345263e-17 1.207422103e-17 1.207498943e-17 1.207575783e-17 1.207652623e-17 1.207729464e-17 1.207806304e-17 1.207883144e-17 1.207959984e-17 1.208036825e-17 1.208113665e-17 1.208190505e-17 1.208267345e-17 1.208344185e-17 1.208421026e-17 1.208497866e-17 1.208574706e-17 1.208651546e-17 1.208728386e-17 1.208805227e-17 1.208882067e-17 1.208958907e-17 1.209035747e-17 1.209112588e-17 1.209189428e-17 1.209266268e-17 1.209343108e-17 1.209419948e-17 1.209496789e-17 1.209573629e-17 1.209650469e-17 1.209727309e-17 1.209804149e-17 1.209880990e-17 1.209957830e-17 1.210034670e-17 1.210111510e-17 1.210188351e-17 1.210265191e-17 1.210342031e-17 1.210418871e-17 1.210495711e-17 1.210572552e-17 1.210649392e-17 1.210726232e-17 1.210803072e-17 1.210879912e-17 1.210956753e-17 1.211033593e-17 1.211110433e-17 1.211187273e-17 1.211264114e-17 1.211340954e-17 1.211417595e-17 1.211494126e-17 1.211570657e-17 1.211647188e-17 1.211723719e-17 1.211800249e-17 1.211876780e-17 1.211953311e-17 1.212029842e-17 1.212106373e-17 1.212182904e-17 1.212259435e-17 1.212335966e-17 1.212412497e-17 1.212489028e-17 1.212565559e-17 1.212642090e-17 1.212718621e-17 1.212795152e-17 1.212871683e-17 1.212948213e-17 1.213024744e-17 1.213101275e-17 1.213177806e-17 1.213254337e-17 1.213330868e-17 1.213407399e-17 1.213483930e-17 1.213560461e-17 1.213636992e-17 1.213713523e-17 1.213790054e-17 1.213866585e-17 1.213943116e-17 1.214019647e-17 1.214096178e-17 1.214172708e-17 1.214249239e-17 1.214325770e-17 1.214402301e-17 1.214478832e-17 1.214555363e-17 1.214631894e-17 1.214708425e-17 1.214784956e-17 1.214861487e-17 1.214938018e-17 1.215014549e-17 1.215091080e-17 1.215167611e-17 1.215244142e-17 1.215320672e-17 1.215397203e-17 1.215473734e-17 1.215550265e-17 1.215626796e-17 1.215703327e-17 1.215779858e-17 1.215856389e-17 1.215932920e-17 1.216009451e-17 1.216085982e-17 1.216162513e-17 1.216239044e-17 1.216315285e-17 1.216391511e-17 1.216467736e-17 1.216543961e-17 1.216620187e-17 1.216696412e-17 1.216772638e-17 1.216848863e-17 1.216925088e-17 1.217001314e-17 1.217077539e-17 1.217153765e-17 1.217229990e-17 1.217306216e-17 1.217382441e-17 1.217458666e-17 1.217534892e-17 1.217611117e-17 1.217687343e-17 1.217763568e-17 1.217839794e-17 1.217916019e-17 1.217992244e-17 1.218068470e-17 1.218144695e-17 1.218220921e-17 1.218297146e-17 1.218373371e-17 1.218449597e-17 1.218525822e-17 1.218602048e-17 1.218678273e-17 1.218754499e-17 1.218830724e-17 1.218906949e-17 1.218983175e-17 1.219059400e-17 1.219135626e-17 1.219211851e-17 1.219288077e-17 1.219364302e-17 1.219440527e-17 1.219516753e-17 1.219592978e-17 1.219669204e-17 1.219745429e-17 1.219821655e-17 1.219897880e-17 1.219974105e-17 1.220050331e-17 1.220126556e-17 1.220202782e-17 1.220279007e-17 1.220355232e-17 1.220431458e-17 1.220507683e-17 1.220583909e-17 1.220660134e-17 1.220736360e-17 1.220812585e-17 1.220888810e-17 1.220965036e-17 1.221041261e-17 1.221117411e-17 1.221193334e-17 1.221269258e-17 1.221345181e-17 1.221421105e-17 1.221497028e-17 1.221572952e-17 1.221648875e-17 1.221724799e-17 1.221800723e-17 1.221876646e-17 1.221952570e-17 1.222028493e-17 1.222104417e-17 1.222180340e-17 1.222256264e-17 1.222332187e-17 1.222408111e-17 1.222484034e-17 1.222559958e-17 1.222635881e-17 1.222711805e-17 1.222787728e-17 1.222863652e-17 1.222939575e-17 1.223015499e-17 1.223091422e-17 1.223167346e-17 1.223243269e-17 1.223319193e-17 1.223395116e-17 1.223471040e-17 1.223546963e-17 1.223622887e-17 1.223698811e-17 1.223774734e-17 1.223850658e-17 1.223926581e-17 1.224002505e-17 1.224078428e-17 1.224154352e-17 1.224230275e-17 1.224306199e-17 1.224382122e-17 1.224458046e-17 1.224533969e-17 1.224609893e-17 1.224685816e-17 1.224761740e-17 1.224837663e-17 1.224913587e-17 1.224989510e-17 1.225065434e-17 1.225141357e-17 1.225217281e-17 1.225293204e-17 1.225369128e-17 1.225445052e-17 1.225520975e-17 1.225596899e-17 1.225672822e-17 1.225748746e-17 1.225824669e-17 1.225900593e-17 1.225976351e-17 1.226051976e-17 1.226127601e-17 1.226203226e-17 1.226278852e-17 1.226354477e-17 1.226430102e-17 1.226505727e-17 1.226581352e-17 1.226656978e-17 1.226732603e-17 1.226808228e-17 1.226883853e-17 1.226959479e-17 1.227035104e-17 1.227110729e-17 1.227186354e-17 1.227261980e-17 1.227337605e-17 1.227413230e-17 1.227488855e-17 1.227564480e-17 1.227640106e-17 1.227715731e-17 1.227791356e-17 1.227866981e-17 1.227942607e-17 1.228018232e-17 1.228093857e-17 1.228169482e-17 1.228245108e-17 1.228320733e-17 1.228396358e-17 1.228471983e-17 1.228547608e-17 1.228623234e-17 1.228698859e-17 1.228774484e-17 1.228850109e-17 1.228925735e-17 1.229001360e-17 1.229076985e-17 1.229152610e-17 1.229228236e-17 1.229303861e-17 1.229379486e-17 1.229455111e-17 1.229530736e-17 1.229606362e-17 1.229681987e-17 1.229757612e-17 1.229833237e-17 1.229908863e-17 1.229984488e-17 1.230060113e-17 1.230135738e-17 1.230211364e-17 1.230286989e-17 1.230362614e-17 1.230438239e-17 1.230513864e-17 1.230589490e-17 1.230665115e-17 1.230740740e-17 1.230816112e-17 1.230891443e-17 1.230966773e-17 1.231042103e-17 1.231117434e-17 1.231192764e-17 1.231268095e-17 1.231343425e-17 1.231418755e-17 1.231494086e-17 1.231569416e-17 1.231644747e-17 1.231720077e-17 1.231795407e-17 1.231870738e-17 1.231946068e-17 1.232021399e-17 1.232096729e-17 1.232172059e-17 1.232247390e-17 1.232322720e-17 1.232398051e-17 1.232473381e-17 1.232548711e-17 1.232624042e-17 1.232699372e-17 1.232774702e-17 1.232850033e-17 1.232925363e-17 1.233000694e-17 1.233076024e-17 1.233151354e-17 1.233226685e-17 1.233302015e-17 1.233377346e-17 1.233452676e-17 1.233528006e-17 1.233603337e-17 1.233678667e-17 1.233753998e-17 1.233829328e-17 1.233904658e-17 1.233979989e-17 1.234055319e-17 1.234130650e-17 1.234205980e-17 1.234281310e-17 1.234356641e-17 1.234431971e-17 1.234507302e-17 1.234582632e-17 1.234657962e-17 1.234733293e-17 1.234808623e-17 1.234883954e-17 1.234959284e-17 1.235034614e-17 1.235109945e-17 1.235185275e-17 1.235260605e-17 1.235335936e-17 1.235411266e-17 1.235486597e-17 1.235561880e-17 1.235636919e-17 1.235711957e-17 1.235786996e-17 1.235862035e-17 1.235937074e-17 1.236012113e-17 1.236087152e-17 1.236162191e-17 1.236237229e-17 1.236312268e-17 1.236387307e-17 1.236462346e-17 1.236537385e-17 1.236612424e-17 1.236687463e-17 1.236762501e-17 1.236837540e-17 1.236912579e-17 1.236987618e-17 1.237062657e-17 1.237137696e-17 1.237212735e-17 1.237287773e-17 1.237362812e-17 1.237437851e-17 1.237512890e-17 1.237587929e-17 1.237662968e-17 1.237738007e-17 1.237813045e-17 1.237888084e-17 1.237963123e-17 1.238038162e-17 1.238113201e-17 1.238188240e-17 1.238263279e-17 1.238338317e-17 1.238413356e-17 1.238488395e-17 1.238563434e-17 1.238638473e-17 1.238713512e-17 1.238788551e-17 1.238863589e-17 1.238938628e-17 1.239013667e-17 1.239088706e-17 1.239163745e-17 1.239238784e-17 1.239313822e-17 1.239388861e-17 1.239463900e-17 1.239538939e-17 1.239613978e-17 1.239689017e-17 1.239764056e-17 1.239839094e-17 1.239914133e-17 1.239989172e-17 1.240064211e-17 1.240139250e-17 1.240214289e-17 1.240289328e-17 1.240364232e-17 1.240438983e-17 1.240513734e-17 1.240588485e-17 1.240663236e-17 1.240737987e-17 1.240812738e-17 1.240887489e-17 1.240962240e-17 1.241036991e-17 1.241111742e-17 1.241186492e-17 1.241261243e-17 1.241335994e-17 1.241410745e-17 1.241485496e-17 1.241560247e-17 1.241634998e-17 1.241709749e-17 1.241784500e-17 1.241859251e-17 1.241934002e-17 1.242008753e-17 1.242083504e-17 1.242158255e-17 1.242233005e-17 1.242307756e-17 1.242382507e-17 1.242457258e-17 1.242532009e-17 1.242606760e-17 1.242681511e-17 1.242756262e-17 1.242831013e-17 1.242905764e-17 1.242980515e-17 1.243055266e-17 1.243130017e-17 1.243204767e-17 1.243279518e-17 1.243354269e-17 1.243429020e-17 1.243503771e-17 1.243578522e-17 1.243653273e-17 1.243728024e-17 1.243802775e-17 1.243877526e-17 1.243952277e-17 1.244027028e-17 1.244101779e-17 1.244176530e-17 1.244251280e-17 1.244326031e-17 1.244400782e-17 1.244475533e-17 1.244550284e-17 1.244625035e-17 1.244699786e-17 1.244774537e-17 1.244849288e-17 1.244924039e-17 1.244998790e-17 1.245073541e-17 1.245148072e-17 1.245222539e-17 1.245297005e-17 1.245371471e-17 1.245445937e-17 1.245520403e-17 1.245594869e-17 1.245669335e-17 1.245743801e-17 1.245818268e-17 1.245892734e-17 1.245967200e-17 1.246041666e-17 1.246116132e-17 1.246190598e-17 1.246265064e-17 1.246339531e-17 1.246413997e-17 1.246488463e-17 1.246562929e-17 1.246637395e-17 1.246711861e-17 1.246786327e-17 1.246860794e-17 1.246935260e-17 1.247009726e-17 1.247084192e-17 1.247158658e-17 1.247233124e-17 1.247307590e-17 1.247382056e-17 1.247456523e-17 1.247530989e-17 1.247605455e-17 1.247679921e-17 1.247754387e-17 1.247828853e-17 1.247903319e-17 1.247977786e-17 1.248052252e-17 1.248126718e-17 1.248201184e-17 1.248275650e-17 1.248350116e-17 1.248424582e-17 1.248499049e-17 1.248573515e-17 1.248647981e-17 1.248722447e-17 1.248796913e-17 1.248871379e-17 1.248945845e-17 1.249020312e-17 1.249094778e-17 1.249169244e-17 1.249243710e-17 1.249318176e-17 1.249392642e-17 1.249467108e-17 1.249541574e-17 1.249616041e-17 1.249690507e-17 1.249764973e-17 1.249839418e-17 1.249913603e-17 1.249987788e-17 1.250061972e-17 1.250136157e-17 1.250210342e-17 1.250284526e-17 1.250358711e-17 1.250432896e-17 1.250507080e-17 1.250581265e-17 1.250655449e-17 1.250729634e-17 1.250803819e-17 1.250878003e-17 1.250952188e-17 1.251026373e-17 1.251100557e-17 1.251174742e-17 1.251248927e-17 1.251323111e-17 1.251397296e-17 1.251471481e-17 1.251545665e-17 1.251619850e-17 1.251694035e-17 1.251768219e-17 1.251842404e-17 1.251916588e-17 1.251990773e-17 1.252064958e-17 1.252139142e-17 1.252213327e-17 1.252287512e-17 1.252361696e-17 1.252435881e-17 1.252510066e-17 1.252584250e-17 1.252658435e-17 1.252732620e-17 1.252806804e-17 1.252880989e-17 1.252955174e-17 1.253029358e-17 1.253103543e-17 1.253177727e-17 1.253251912e-17 1.253326097e-17 1.253400281e-17 1.253474466e-17 1.253548651e-17 1.253622835e-17 1.253697020e-17 1.253771205e-17 1.253845389e-17 1.253919574e-17 1.253993759e-17 1.254067943e-17 1.254142128e-17 1.254216312e-17 1.254290497e-17 1.254364682e-17 1.254438866e-17 1.254513051e-17 1.254587131e-17 1.254661037e-17 1.254734943e-17 1.254808849e-17 1.254882755e-17 1.254956661e-17 1.255030568e-17 1.255104474e-17 1.255178380e-17 1.255252286e-17 1.255326192e-17 1.255400098e-17 1.255474004e-17 1.255547910e-17 1.255621817e-17 1.255695723e-17 1.255769629e-17 1.255843535e-17 1.255917441e-17 1.255991347e-17 1.256065253e-17 1.256139160e-17 1.256213066e-17 1.256286972e-17 1.256360878e-17 1.256434784e-17 1.256508690e-17 1.256582596e-17 1.256656503e-17 1.256730409e-17 1.256804315e-17 1.256878221e-17 1.256952127e-17 1.257026033e-17 1.257099939e-17 1.257173845e-17 1.257247752e-17 1.257321658e-17 1.257395564e-17 1.257469470e-17 1.257543376e-17 1.257617282e-17 1.257691188e-17 1.257765095e-17 1.257839001e-17 1.257912907e-17 1.257986813e-17 1.258060719e-17 1.258134625e-17 1.258208531e-17 1.258282438e-17 1.258356344e-17 1.258430250e-17 1.258504156e-17 1.258578062e-17 1.258651968e-17 1.258725874e-17 1.258799781e-17 1.258873687e-17 1.258947593e-17 1.259021499e-17 1.259095405e-17 1.259169311e-17 1.259243217e-17 1.259266820e-17 1.259266820e-17 1.259266820e-17 1.259266820e-17 1.259266820e-17 1.259266820e-17 1.259266820e-17 1.259266820e-17 1.259266820e-17 1.259266820e-17 1.259266820e-17 1.259266820e-17 1.259266820e-17 1.259266820e-17 1.259266820e-17 1.259266820e-17 1.259266820e-17 1.259266820e-17 1.259266820e-17 1.259266820e-17 1.259266820e-17 1.259266820e-17 1.259266820e-17 1.259266820e-17 1.259266820e-17 1.259266820e-17 1.152552480e-17 1.152552480e-17 1.152552480e-17 1.152552480e-17 1.152552480e-17 1.152552480e-17 1.152552480e-17 1.152552480e-17 1.152552480e-17 1.152552480e-17 1.152552480e-17 1.152552480e-17 1.152552480e-17 1.152552480e-17 1.152552480e-17 1.152552844e-17 1.152633398e-17 1.152713951e-17 1.152794505e-17 1.152875058e-17 1.152955611e-17 1.153036165e-17 1.153116718e-17 1.153197272e-17 1.153277825e-17 1.153358378e-17 1.153438932e-17 1.153519485e-17 1.153600038e-17 1.153680592e-17 1.153761145e-17 1.153841698e-17 1.153922161e-17 1.154002625e-17 1.154083088e-17 1.154163551e-17 1.154244015e-17 1.154324478e-17 1.154404941e-17 1.154485405e-17 1.154565868e-17 1.154646332e-17 1.154726795e-17 1.154807258e-17 1.154887722e-17 1.154968185e-17 1.155048648e-17 1.155129111e-17 1.155209485e-17 1.155289859e-17 1.155370232e-17 1.155450606e-17 1.155530980e-17 1.155611354e-17 1.155691728e-17 1.155772102e-17 1.155852476e-17 1.155932850e-17 1.156013224e-17 1.156093598e-17 1.156173972e-17 1.156254346e-17 1.156334720e-17 1.156415092e-17 1.156495377e-17 1.156575662e-17 1.156655946e-17 1.156736231e-17 1.156816515e-17 1.156896800e-17 1.156977084e-17 1.157057369e-17 1.157137654e-17 1.157217938e-17 1.157298223e-17 1.157378507e-17 1.157458792e-17 1.157539076e-17 1.157619361e-17 1.157699644e-17 1.157779839e-17 1.157860034e-17 1.157940229e-17 1.158020424e-17 1.158100619e-17 1.158180815e-17 1.158261010e-17 1.158341205e-17 1.158421400e-17 1.158501595e-17 1.158581790e-17 1.158661986e-17 1.158742181e-17 1.158822376e-17 1.158902571e-17 1.158982764e-17 1.159062871e-17 1.159142978e-17 1.159223085e-17 1.159303192e-17 1.159383299e-17 1.159463406e-17 1.159543513e-17 1.159623620e-17 1.159703727e-17 1.159783834e-17 1.159863941e-17 1.159944048e-17 1.160024155e-17 1.160104262e-17 1.160184369e-17 1.160264473e-17 1.160344492e-17 1.160424511e-17 1.160504530e-17 1.160584549e-17 1.160664568e-17 1.160744587e-17 1.160824606e-17 1.160904624e-17 1.160984643e-17 1.161064662e-17 1.161144681e-17 1.161224700e-17 1.161304719e-17 1.161384738e-17 1.161464757e-17 1.161544772e-17 1.161624702e-17 1.161704632e-17 1.161784562e-17 1.161864493e-17 1.161944423e-17 1.162024353e-17 1.162104283e-17 1.162184213e-17 1.162264143e-17 1.162344073e-17 1.162424003e-17 1.162503933e-17 1.162583863e-17 1.162663793e-17 1.162743724e-17 1.162823650e-17 1.162903493e-17 1.162983335e-17 1.163063178e-17 1.163143020e-17 1.163222863e-17 1.163302706e-17 1.163382548e-17 1.163462391e-17 1.163542233e-17 1.163622076e-17 1.163701918e-17 1.163781761e-17 1.163861604e-17 1.163941446e-17 1.164021289e-17 1.164101127e-17 1.164180883e-17 1.164260639e-17 1.164340394e-17 1.164420150e-17 1.164499906e-17 1.164579661e-17 1.164659417e-17 1.164739173e-17 1.164818928e-17 1.164898684e-17 1.164978440e-17 1.165058195e-17 1.165137951e-17 1.165217707e-17 1.165297462e-17 1.165377214e-17 1.165456881e-17 1.165536549e-17 1.165616216e-17 1.165695884e-17 1.165775551e-17 1.165855219e-17 1.165934886e-17 1.166014554e-17 1.166094221e-17 1.166173889e-17 1.166253556e-17 1.166333224e-17 1.166412891e-17 1.166492559e-17 1.166572226e-17 1.166651889e-17 1.166731471e-17 1.166811052e-17 1.166890633e-17 1.166970214e-17 1.167049796e-17 1.167129377e-17 1.167208958e-17 1.167288539e-17 1.167368121e-17 1.167447702e-17 1.167527283e-17 1.167606864e-17 1.167686446e-17 1.167766027e-17 1.167845608e-17 1.167925184e-17 1.168004678e-17 1.168084173e-17 1.168163667e-17 1.168243162e-17 1.168322656e-17 1.168402150e-17 1.168481645e-17 1.168561139e-17 1.168640633e-17 1.168720128e-17 1.168799622e-17 1.168879116e-17 1.168958611e-17 1.169038105e-17 1.169117599e-17 1.169197088e-17 1.169276496e-17 1.169355904e-17 1.169435312e-17 1.169514721e-17 1.169594129e-17 1.169673537e-17 1.169752945e-17 1.169832353e-17 1.169911761e-17 1.169991169e-17 1.170070577e-17 1.170149985e-17 1.170229393e-17 1.170308801e-17 1.170388209e-17 1.170467612e-17 1.170546933e-17 1.170626255e-17 1.170705577e-17 1.170784899e-17 1.170864221e-17 1.170943542e-17 1.171022864e-17 1.171102186e-17 1.171181508e-17 1.171260830e-17 1.171340151e-17 1.171419473e-17 1.171498795e-17 1.171578117e-17 1.171657438e-17 1.171736754e-17 1.171815990e-17 1.171895226e-17 1.171974463e-17 1.172053699e-17 1.172132935e-17 1.172212171e-17 1.172291407e-17 1.172370643e-17 1.172449879e-17 1.172529116e-17 1.172608352e-17 1.172687588e-17 1.172766824e-17 1.172846060e-17 1.172925296e-17 1.173004526e-17 1.173083677e-17 1.173162828e-17 1.173241979e-17 1.173321130e-17 1.173400282e-17 1.173479433e-17 1.173558584e-17 1.173637735e-17 1.173716886e-17 1.173796037e-17 1.173875188e-17 1.173954339e-17 1.174033491e-17 1.174112642e-17 1.174191793e-17 1.174270937e-17 1.174350002e-17 1.174429068e-17 1.174508133e-17 1.174587199e-17 1.174666264e-17 1.174745330e-17 1.174824395e-17 1.174903461e-17 1.174982526e-17 1.175061592e-17 1.175140657e-17 1.175219723e-17 1.175298788e-17 1.175377854e-17 1.175456919e-17 1.175535977e-17 1.175614958e-17 1.175693938e-17 1.175772919e-17 1.175851899e-17 1.175930880e-17 1.176009860e-17 1.176088840e-17 1.176167821e-17 1.176246801e-17 1.176325782e-17 1.176404762e-17 1.176483743e-17 1.176562723e-17 1.176641704e-17 1.176720684e-17 1.176799657e-17 1.176878552e-17 1.176957448e-17 1.177036343e-17 1.177115239e-17 1.177194134e-17 1.177273029e-17 1.177351925e-17 1.177430820e-17 1.177509716e-17 1.177588611e-17 1.177667507e-17 1.177746402e-17 1.177825297e-17 1.177904193e-17 1.177983088e-17 1.178061976e-17 1.178140787e-17 1.178219599e-17 1.178298411e-17 1.178377222e-17 1.178456034e-17 1.178534846e-17 1.178613657e-17 1.178692469e-17 1.178771281e-17 1.178850092e-17 1.178928904e-17 1.179007716e-17 1.179086527e-17 1.179165339e-17 1.179244150e-17 1.179322954e-17 1.179401680e-17 1.179480407e-17 1.179559134e-17 1.179637860e-17 1.179716587e-17 1.179795313e-17 1.179874040e-17 1.179952767e-17 1.180031493e-17 1.180110220e-17 1.180188947e-17 1.180267673e-17 1.180346400e-17 1.180425127e-17 1.180503853e-17 1.180582571e-17 1.180661215e-17 1.180739858e-17 1.180818502e-17 1.180897145e-17 1.180975789e-17 1.181054432e-17 1.181133075e-17 1.181211719e-17 1.181290362e-17 1.181369006e-17 1.181447649e-17 1.181526293e-17 1.181604936e-17 1.181683580e-17 1.181762223e-17 1.181840858e-17 1.181919417e-17 1.181997977e-17 1.182076537e-17 1.182155097e-17 1.182233656e-17 1.182312216e-17 1.182390776e-17 1.182469335e-17 1.182547895e-17 1.182626455e-17 1.182705015e-17 1.182783574e-17 1.182862134e-17 1.182940694e-17 1.183019253e-17 1.183097804e-17 1.183176280e-17 1.183254757e-17 1.183333233e-17 1.183411710e-17 1.183490186e-17 1.183568663e-17 1.183647140e-17 1.183725616e-17 1.183804093e-17 1.183882569e-17 1.183961046e-17 1.184039522e-17 1.184117999e-17 1.184196475e-17 1.184274952e-17 1.184353419e-17 1.184431812e-17 1.184510204e-17 1.184588597e-17 1.184666990e-17 1.184745383e-17 1.184823775e-17 1.184902168e-17 1.184980561e-17 1.185058954e-17