<?xml version="1.0"?>
<VTKFile type="PolyData" version="0.1" byte_order="LittleEndian">
  <PolyData>
    <Piece NumberOfPoints="5714" NumberOfVerts="0" NumberOfLines="15" NumberOfStrips="0" NumberOfPolys="8556">
      <PointData Scalars="numerical_reference_error">
        <DataArray type="Float32" Name="numerical_reference_error" format="ascii">
          1.062130360e-04 1.062130360e-04 1.062130360e-04 1.062130360e-04 1.062130360e-04 1.062130360e-04 1.062130360e-04 1.062130360e-04 1.062130360e-04 1.062130360e-04 1.062130360e-04 1.062130360e-04 1.062130360e-04 1.062130360e-04 1.062130360e-04 1.062130360e-04 1.062130360e-04 1.062130360e-04 1.062130360e-04 1.062130360e-04 1.062130360e-04 1.062130360e-04 1.062130360e-04 1.062130360e-04 1.062130360e-04 1.062130360e-04 1.062130360e-04 1.062130360e-04 1.062130360e-04 1.062130360e-04 1.062130360e-04 1.062130360e-04 1.062130360e-04 1.062130360e-04 1.062130360e-04 1.062130360e-04 1.062130360e-04 1.062130360e-04 1.062130360e-04 1.062130360e-04 1.062130360e-04 1.062130360e-04 1.062130360e-04 1.062130360e-04 1.062130360e-04 1.062130360e-04 1.062130360e-04 1.062130360e-04 1.062130360e-04 1.062130360e-04 1.062130360e-04 1.062130360e-04 1.062130360e-04 1.062130360e-04 1.062130360e-04 1.062130360e-04 1.062130360e-04 1.062130360e-04 1.062130360e-04 1.062130360e-04 1.062130360e-04 1.062130360e-04 1.062130360e-04 1.062108274e-04 1.062035541e-04 1.061962809e-04 1.061890077e-04 1.061817345e-04 1.061744612e-04 1.061671880e-04 1.061599148e-04 1.061526415e-04 1.061453683e-04 1.061380951e-04 1.061308219e-04 1.061235486e-04 1.061162754e-04 1.061090022e-04 1.061017289e-04 1.060944557e-04 1.060871825e-04 1.060799093e-04 1.060726360e-04 1.060653628e-04 1.060580896e-04 1.060508163e-04 1.060435431e-04 1.060362699e-04 1.060289967e-04 1.060217234e-04 1.060144502e-04 1.060071770e-04 1.059999037e-04 1.059926305e-04 1.059853573e-04 1.059780841e-04 1.059708108e-04 1.059635376e-04 1.059562644e-04 1.059489911e-04 1.059417179e-04 1.059344447e-04 1.059271715e-04 1.059198982e-04 1.059126250e-04 1.059053518e-04 1.058980785e-04 1.058908053e-04 1.058835321e-04 1.058762589e-04 1.058689856e-04 1.058617124e-04 1.058544392e-04 1.058471659e-04 1.058398927e-04 1.058326195e-04 1.058253463e-04 1.058180730e-04 1.058107998e-04 1.058035266e-04 1.057962533e-04 1.057889801e-04 1.057817069e-04 1.057744337e-04 1.057671604e-04 1.057598872e-04 1.057526140e-04 1.057450037e-04 1.057371755e-04 1.057293473e-04 1.057215191e-04 1.057136909e-04 1.057058627e-04 1.056980345e-04 1.056902063e-04 1.056823780e-04 1.056745498e-04 1.056667216e-04 1.056588934e-04 1.056510652e-04 1.056432370e-04 1.056354088e-04 1.056275806e-04 1.056197524e-04 1.056119242e-04 1.056040960e-04 1.055962678e-04 1.055884396e-04 1.055806114e-04 1.055727832e-04 1.055649550e-04 1.055571268e-04 1.055492986e-04 1.055414703e-04 1.055336421e-04 1.055258139e-04 1.055179857e-04 1.055101575e-04 1.055023293e-04 1.054945011e-04 1.054866729e-04 1.054788447e-04 1.054710165e-04 1.054631883e-04 1.054553601e-04 1.054475319e-04 1.054397037e-04 1.054318755e-04 1.054240473e-04 1.054162191e-04 1.054083909e-04 1.054005626e-04 1.053927344e-04 1.053849062e-04 1.053770780e-04 1.053692498e-04 1.053614216e-04 1.053535934e-04 1.053457652e-04 1.053379370e-04 1.053301088e-04 1.053222806e-04 1.053144524e-04 1.053066242e-04 1.052987960e-04 1.052909678e-04 1.052831396e-04 1.052753114e-04 1.052674832e-04 1.052596549e-04 1.052518267e-04 1.052435249e-04 1.052351768e-04 1.052268287e-04 1.052184806e-04 1.052101325e-04 1.052017844e-04 1.051934362e-04 1.051850881e-04 1.051767400e-04 1.051683919e-04 1.051600438e-04 1.051516957e-04 1.051433476e-04 1.051349995e-04 1.051266514e-04 1.051183033e-04 1.051099551e-04 1.051016070e-04 1.050932589e-04 1.050849108e-04 1.050765627e-04 1.050682146e-04 1.050598665e-04 1.050515184e-04 1.050431703e-04 1.050348222e-04 1.050264740e-04 1.050181259e-04 1.050097778e-04 1.050014297e-04 1.049930816e-04 1.049847335e-04 1.049763854e-04 1.049680373e-04 1.049596892e-04 1.049513411e-04 1.049429929e-04 1.049346448e-04 1.049262967e-04 1.049179486e-04 1.049096005e-04 1.049012524e-04 1.048929043e-04 1.048845562e-04 1.048762081e-04 1.048678600e-04 1.048595118e-04 1.048511637e-04 1.048428156e-04 1.048344675e-04 1.048261194e-04 1.048177713e-04 1.048094232e-04 1.048010751e-04 1.047927270e-04 1.047843789e-04 1.047760307e-04 1.047676826e-04 1.047593345e-04 1.047509864e-04 1.047426383e-04 1.047342902e-04 1.047259421e-04 1.047174887e-04 1.047086504e-04 1.046998120e-04 1.046909737e-04 1.046821353e-04 1.046732970e-04 1.046644586e-04 1.046556202e-04 1.046467819e-04 1.046379435e-04 1.046291052e-04 1.046202668e-04 1.046114284e-04 1.046025901e-04 1.045937517e-04 1.045849134e-04 1.045760750e-04 1.045672367e-04 1.045583983e-04 1.045495599e-04 1.045407216e-04 1.045318832e-04 1.045230449e-04 1.045142065e-04 1.045053682e-04 1.044965298e-04 1.044876914e-04 1.044788531e-04 1.044700147e-04 1.044611764e-04 1.044523380e-04 1.044434996e-04 1.044346613e-04 1.044258229e-04 1.044169846e-04 1.044081462e-04 1.043993079e-04 1.043904695e-04 1.043816311e-04 1.043727928e-04 1.043639544e-04 1.043551161e-04 1.043462777e-04 1.043374394e-04 1.043286010e-04 1.043197626e-04 1.043109243e-04 1.043020859e-04 1.042932476e-04 1.042844092e-04 1.042755708e-04 1.042667325e-04 1.042578941e-04 1.042490558e-04 1.042402174e-04 1.042313791e-04 1.042225407e-04 1.042137023e-04 1.042048640e-04 1.041960256e-04 1.041871873e-04 1.041783489e-04 1.041695106e-04 1.041606722e-04 1.041515941e-04 1.041422933e-04 1.041329925e-04 1.041236916e-04 1.041143908e-04 1.041050900e-04 1.040957891e-04 1.040864883e-04 1.040771875e-04 1.040678866e-04 1.040585858e-04 1.040492850e-04 1.040399841e-04 1.040306833e-04 1.040213825e-04 1.040120816e-04 1.040027808e-04 1.039934800e-04 1.039841791e-04 1.039748783e-04 1.039655775e-04 1.039562766e-04 1.039469758e-04 1.039376750e-04 1.039283741e-04 1.039190733e-04 1.039097725e-04 1.039004716e-04 1.038911708e-04 1.038818700e-04 1.038725691e-04 1.038632683e-04 1.038539675e-04 1.038446666e-04 1.038353658e-04 1.038260650e-04 1.038167641e-04 1.038074633e-04 1.037981625e-04 1.037888616e-04 1.037795608e-04 1.037702600e-04 1.037609591e-04 1.037516583e-04 1.037423575e-04 1.037330566e-04 1.037237558e-04 1.037144550e-04 1.037051541e-04 1.036958533e-04 1.036865525e-04 1.036772516e-04 1.036679508e-04 1.036586500e-04 1.036493491e-04 1.036400483e-04 1.036307475e-04 1.036214466e-04 1.036121458e-04 1.036028450e-04 1.035935441e-04 1.035842433e-04 1.035749425e-04 1.035656416e-04 1.035559827e-04 1.035462462e-04 1.035365097e-04 1.035267733e-04 1.035170368e-04 1.035073003e-04 1.034975638e-04 1.034878273e-04 1.034780909e-04 1.034683544e-04 1.034586179e-04 1.034488814e-04 1.034391449e-04 1.034294085e-04 1.034196720e-04 1.034099355e-04 1.034001990e-04 1.033904625e-04 1.033807261e-04 1.033709896e-04 1.033612531e-04 1.033515166e-04 1.033417802e-04 1.033320437e-04 1.033223072e-04 1.033125707e-04 1.033028342e-04 1.032930978e-04 1.032833613e-04 1.032736248e-04 1.032638883e-04 1.032541518e-04 1.032444154e-04 1.032346789e-04 1.032249424e-04 1.032152059e-04 1.032054695e-04 1.031957330e-04 1.031859965e-04 1.031762600e-04 1.031665235e-04 1.031567871e-04 1.031470506e-04 1.031373141e-04 1.031275776e-04 1.031178411e-04 1.031081047e-04 1.030983682e-04 1.030886317e-04 1.030788952e-04 1.030691588e-04 1.030594223e-04 1.030496858e-04 1.030399493e-04 1.030302128e-04 1.030204764e-04 1.030107399e-04 1.030010034e-04 1.029912669e-04 1.029815304e-04 1.029717940e-04 1.029620575e-04 1.029523210e-04 1.029425331e-04 1.029323872e-04 1.029222414e-04 1.029120955e-04 1.029019497e-04 1.028918038e-04 1.028816579e-04 1.028715121e-04 1.028613662e-04 1.028512204e-04 1.028410745e-04 1.028309286e-04 1.028207828e-04 1.028106369e-04 1.028004911e-04 1.027903452e-04 1.027801994e-04 1.027700535e-04 1.027599076e-04 1.027497618e-04 1.027396159e-04 1.027294701e-04 1.027193242e-04 1.027091783e-04 1.026990325e-04 1.026888866e-04 1.026787408e-04 1.026685949e-04 1.026584491e-04 1.026483032e-04 1.026381573e-04 1.026280115e-04 1.026178656e-04 1.026077198e-04 1.025975739e-04 1.025874280e-04 1.025772822e-04 1.025671363e-04 1.025569905e-04 1.025468446e-04 1.025366987e-04 1.025265529e-04 1.025164070e-04 1.025062612e-04 1.024961153e-04 1.024859695e-04 1.024758236e-04 1.024656777e-04 1.024555319e-04 1.024453860e-04 1.024352402e-04 1.024250943e-04 1.024149484e-04 1.024048026e-04 1.023946567e-04 1.023845109e-04 1.023743650e-04 1.023642192e-04 1.023540733e-04 1.023439274e-04 1.023337816e-04 1.023236357e-04 1.023134899e-04 1.023033440e-04 1.022930334e-04 1.022825039e-04 1.022719744e-04 1.022614449e-04 1.022509153e-04 1.022403858e-04 1.022298563e-04 1.022193268e-04 1.022087972e-04 1.021982677e-04 1.021877382e-04 1.021772087e-04 1.021666792e-04 1.021561496e-04 1.021456201e-04 1.021350906e-04 1.021245611e-04 1.021140315e-04 1.021035020e-04 1.020929725e-04 1.020824430e-04 1.020719135e-04 1.020613839e-04 1.020508544e-04 1.020403249e-04 1.020297954e-04 1.020192658e-04 1.020087363e-04 1.019982068e-04 1.019876773e-04 1.019771477e-04 1.019666182e-04 1.019560887e-04 1.019455592e-04 1.019350297e-04 1.019245001e-04 1.019139706e-04 1.019034411e-04 1.018929116e-04 1.018823820e-04 1.018718525e-04 1.018613230e-04 1.018507935e-04 1.018402640e-04 1.018297344e-04 1.018192049e-04 1.018086754e-04 1.017981459e-04 1.017876163e-04 1.017770868e-04 1.017665573e-04 1.017560278e-04 1.017454982e-04 1.017349687e-04 1.017244392e-04 1.017139097e-04 1.017033802e-04 1.016928506e-04 1.016823211e-04 1.016717916e-04 1.016612621e-04 1.016507325e-04 1.016402030e-04 1.016296735e-04 1.016188813e-04 1.016079934e-04 1.015971055e-04 1.015862175e-04 1.015753296e-04 1.015644417e-04 1.015535538e-04 1.015426659e-04 1.015317780e-04 1.015208901e-04 1.015100022e-04 1.014991143e-04 1.014882264e-04 1.014773384e-04 1.014664505e-04 1.014555626e-04 1.014446747e-04 1.014337868e-04 1.014228989e-04 1.014120110e-04 1.014011231e-04 1.013902352e-04 1.013793472e-04 1.013684593e-04 1.013575714e-04 1.013466835e-04 1.013357956e-04 1.013249077e-04 1.013140198e-04 1.013031319e-04 1.012922440e-04 1.012813561e-04 1.012704681e-04 1.012595802e-04 1.012486923e-04 1.012378044e-04 1.012269165e-04 1.012160286e-04 1.012051407e-04 1.011942528e-04 1.011833649e-04 1.011724769e-04 1.011615890e-04 1.011507011e-04 1.011398132e-04 1.011289253e-04 1.011180374e-04 1.011071495e-04 1.010962616e-04 1.010853737e-04 1.010744857e-04 1.010635978e-04 1.010527099e-04 1.010418220e-04 1.010309341e-04 1.010200462e-04 1.010091583e-04 1.009982704e-04 1.009873825e-04 1.009764946e-04 1.009656066e-04 1.009547187e-04 1.009438308e-04 1.009329307e-04 1.009217092e-04 1.009104876e-04 1.008992661e-04 1.008880446e-04 1.008768231e-04 1.008656015e-04 1.008543800e-04 1.008431585e-04 1.008319370e-04 1.008207154e-04 1.008094939e-04 1.007982724e-04 1.007870509e-04 1.007758293e-04 1.007646078e-04 1.007533863e-04 1.007421648e-04 1.007309432e-04 1.007197217e-04 1.007085002e-04 1.006972787e-04 1.006860571e-04 1.006748356e-04 1.006636141e-04 1.006523926e-04 1.006411710e-04 1.006299495e-04 1.006187280e-04 1.006075065e-04 1.005962849e-04 1.005850634e-04 1.005738419e-04 1.005626204e-04 1.005513988e-04 1.005401773e-04 1.005289558e-04 1.005177343e-04 1.005065127e-04 1.004952912e-04 1.004840697e-04 1.004728482e-04 1.004616266e-04 1.004504051e-04 1.004391836e-04 1.004279621e-04 1.004167405e-04 1.004055190e-04 1.003942975e-04 1.003830760e-04 1.003718544e-04 1.003606329e-04 1.003494114e-04 1.003381899e-04 1.003269683e-04 1.003157468e-04 1.003045253e-04 1.002933038e-04 1.002820822e-04 1.002708607e-04 1.002596392e-04 1.002484177e-04 1.002371961e-04 1.002259746e-04 1.002146478e-04 1.002031170e-04 1.001915862e-04 1.001800554e-04 1.001685245e-04 1.001569937e-04 1.001454629e-04 1.001339321e-04 1.001224012e-04 1.001108704e-04 1.000993396e-04 1.000878088e-04 1.000762779e-04 1.000647471e-04 1.000532163e-04 1.000416855e-04 1.000301547e-04 1.000186238e-04 1.000070930e-04 9.999556218e-05 9.998403136e-05 9.997250054e-05 9.996096971e-05 9.994943889e-05 9.993790806e-05 9.992637724e-05 9.991484642e-05 9.990331559e-05 9.989178477e-05 9.988025395e-05 9.986872312e-05 9.985719230e-05 9.984566148e-05 9.983413065e-05 9.982259983e-05 9.981106900e-05 9.979953818e-05 9.978800736e-05 9.977647653e-05 9.976494571e-05 9.975341489e-05 9.974188406e-05 9.973035324e-05 9.971882242e-05 9.970729159e-05 9.969576077e-05 9.968422994e-05 9.967269912e-05 9.966116830e-05 9.964963747e-05 9.963810665e-05 9.962657583e-05 9.961504500e-05 9.960351418e-05 9.959198336e-05 9.958045253e-05 9.956892171e-05 9.955739088e-05 9.954586006e-05 9.953432924e-05 9.952279841e-05 9.951126759e-05 9.949973677e-05 9.948820594e-05 9.947649131e-05 9.946467506e-05 9.945285881e-05 9.944104256e-05 9.942922631e-05 9.941741006e-05 9.940559381e-05 9.939377756e-05 9.938196131e-05 9.937014506e-05 9.935832881e-05 9.934651256e-05 9.933469631e-05 9.932288006e-05 9.931106381e-05 9.929924756e-05 9.928743131e-05 9.927561506e-05 9.926379881e-05 9.925198256e-05 9.924016631e-05 9.922835006e-05 9.921653381e-05 9.920471756e-05 9.919290131e-05 9.918108506e-05 9.916926881e-05 9.915745256e-05 9.914563631e-05 9.913382006e-05 9.912200381e-05 9.911018756e-05 9.909837132e-05 9.908655507e-05 9.907473882e-05 9.906292257e-05 9.905110632e-05 9.903929007e-05 9.902747382e-05 9.901565757e-05 9.900384132e-05 9.899202507e-05 9.898020882e-05 9.896839257e-05 9.895657632e-05 9.894476007e-05 9.893294382e-05 9.892112757e-05 9.890931132e-05 9.889749507e-05 9.888567882e-05 9.887386257e-05 9.886204632e-05 9.885023007e-05 9.883841382e-05 9.882659757e-05 9.881478132e-05 9.880296507e-05 9.879114882e-05 9.877933257e-05 9.876751632e-05 9.875570007e-05 9.874388382e-05 9.873206757e-05 9.872000305e-05 9.870792480e-05 9.869584656e-05 9.868376832e-05 9.867169008e-05 9.865961184e-05 9.864753360e-05 9.863545536e-05 9.862337711e-05 9.861129887e-05 9.859922063e-05 9.858714239e-05 9.857506415e-05 9.856298591e-05 9.855090767e-05 9.853882943e-05 9.852675118e-05 9.851467294e-05 9.850259470e-05 9.849051646e-05 9.847843822e-05 9.846635998e-05 9.845428174e-05 9.844220349e-05 9.843012525e-05 9.841804701e-05 9.840596877e-05 9.839389053e-05 9.838181229e-05 9.836973405e-05 9.835765581e-05 9.834557756e-05 9.833349932e-05 9.832142108e-05 9.830934284e-05 9.829726460e-05 9.828518636e-05 9.827310812e-05 9.826102988e-05 9.824895163e-05 9.823687339e-05 9.822479515e-05 9.821271691e-05 9.820063867e-05 9.818856043e-05 9.817648219e-05 9.816440394e-05 9.815232570e-05 9.814024746e-05 9.812816922e-05 9.811609098e-05 9.810401274e-05 9.809193450e-05 9.807985626e-05 9.806777801e-05 9.805569977e-05 9.804362153e-05 9.803154329e-05 9.801946505e-05 9.800738681e-05 9.799530857e-05 9.798323032e-05 9.797115208e-05 9.795901378e-05 9.794669655e-05 9.793437932e-05 9.792206210e-05 9.790974487e-05 9.789742764e-05 9.788511041e-05 9.787279318e-05 9.786047595e-05 9.784815873e-05 9.783584150e-05 9.782352427e-05 9.781120704e-05 9.779888981e-05 9.778657258e-05 9.777425535e-05 9.776193813e-05 9.774962090e-05 9.773730367e-05 9.772498644e-05 9.771266921e-05 9.770035198e-05 9.768803476e-05 9.767571753e-05 9.766340030e-05 9.765108307e-05 9.763876584e-05 9.762644861e-05 9.761413139e-05 9.760181416e-05 9.758949693e-05 9.757717970e-05 9.756486247e-05 9.755254524e-05 9.754022802e-05 9.752791079e-05 9.751559356e-05 9.750327633e-05 9.749095910e-05 9.747864187e-05 9.746632465e-05 9.745400742e-05 9.744169019e-05 9.742937296e-05 9.741705573e-05 9.740473850e-05 9.739242128e-05 9.738010405e-05 9.736778682e-05 9.735546959e-05 9.734315236e-05 9.733083513e-05 9.731851790e-05 9.730620068e-05 9.729388345e-05 9.728156622e-05 9.726924899e-05 9.725693176e-05 9.724461453e-05 9.723229731e-05 9.721998008e-05 9.720766285e-05 9.719534562e-05 9.718302839e-05 9.717059107e-05 9.715805744e-05 9.714552381e-05 9.713299018e-05 9.712045655e-05 9.710792292e-05 9.709538929e-05 9.708285567e-05 9.707032204e-05 9.705778841e-05 9.704525478e-05 9.703272115e-05 9.702018752e-05 9.700765389e-05 9.699512027e-05 9.698258664e-05 9.697005301e-05 9.695751938e-05 9.694498575e-05 9.693245212e-05 9.691991849e-05 9.690738487e-05 9.689485124e-05 9.688231761e-05 9.686978398e-05 9.685725035e-05 9.684471672e-05 9.683218309e-05 9.681964947e-05 9.680711584e-05 9.679458221e-05 9.678204858e-05 9.676951495e-05 9.675698132e-05 9.674444769e-05 9.673191407e-05 9.671938044e-05 9.670684681e-05 9.669431318e-05 9.668177955e-05 9.666924592e-05 9.665671229e-05 9.664417867e-05 9.663164504e-05 9.661911141e-05 9.660657778e-05 9.659404415e-05 9.658151052e-05 9.656897689e-05 9.655644326e-05 9.654390964e-05 9.653137601e-05 9.651884238e-05 9.650630875e-05 9.649377512e-05 9.648124149e-05 9.646870786e-05 9.645617424e-05 9.644364061e-05 9.643110698e-05 9.641857335e-05 9.640603972e-05 9.639350609e-05 9.638097246e-05 9.636827207e-05 9.635554421e-05 9.634281636e-05 9.633008851e-05 9.631736065e-05 9.630463280e-05 9.629190495e-05 9.627917709e-05 9.626644924e-05 9.625372139e-05 9.624099353e-05 9.622826568e-05 9.621553783e-05 9.620280997e-05 9.619008212e-05 9.617735427e-05 9.616462641e-05 9.615189856e-05 9.613917071e-05 9.612644285e-05 9.611371500e-05 9.610098715e-05 9.608825929e-05 9.607553144e-05 9.606280359e-05 9.605007573e-05 9.603734788e-05 9.602462003e-05 9.601189217e-05 9.599916432e-05 9.598643647e-05 9.597370861e-05 9.596098076e-05 9.594825291e-05 9.593552505e-05 9.592279720e-05 9.591006935e-05 9.589734149e-05 9.588461364e-05 9.587188579e-05 9.585915793e-05 9.584643008e-05 9.583370223e-05 9.582097438e-05 9.580824652e-05 9.579551867e-05 9.578279082e-05 9.577006296e-05 9.575733511e-05 9.574460726e-05 9.573187940e-05 9.571915155e-05 9.570642370e-05 9.569369584e-05 9.568096799e-05 9.566824014e-05 9.565551228e-05 9.564278443e-05 9.563005658e-05 9.561732872e-05 9.560460087e-05 9.559187302e-05 9.557914516e-05 9.556638932e-05 9.555348902e-05 9.554058872e-05 9.552768842e-05 9.551478811e-05 9.550188781e-05 9.548898751e-05 9.547608721e-05 9.546318691e-05 9.545028661e-05 9.543738631e-05 9.542448601e-05 9.541158570e-05 9.539868540e-05 9.538578510e-05 9.537288480e-05 9.535998450e-05 9.534708420e-05 9.533418390e-05 9.532128360e-05 9.530838330e-05 9.529548299e-05 9.528258269e-05 9.526968239e-05 9.525678209e-05 9.524388179e-05 9.523098149e-05 9.521808119e-05 9.520518089e-05 9.519228058e-05 9.517938028e-05 9.516647998e-05 9.515357968e-05 9.514067938e-05 9.512777908e-05 9.511487878e-05 9.510197848e-05 9.508907818e-05 9.507617787e-05 9.506327757e-05 9.505037727e-05 9.503747697e-05 9.502457667e-05 9.501167637e-05 9.499877607e-05 9.498587577e-05 9.497297546e-05 9.496007516e-05 9.494717486e-05 9.493427456e-05 9.492137426e-05 9.490847396e-05 9.489557366e-05 9.488267336e-05 9.486977306e-05 9.485687275e-05 9.484397245e-05 9.483107215e-05 9.481817185e-05 9.480527155e-05 9.479237125e-05 9.477947095e-05 9.476657065e-05 9.475367034e-05 9.474069965e-05 9.472764829e-05 9.471459693e-05 9.470154556e-05 9.468849420e-05 9.467544284e-05 9.466239147e-05 9.464934011e-05 9.463628875e-05 9.462323738e-05 9.461018602e-05 9.459713466e-05 9.458408329e-05 9.457103193e-05 9.455798057e-05 9.454492920e-05 9.453187784e-05 9.451882648e-05 9.450577511e-05 9.449272375e-05 9.447967239e-05 9.446662102e-05 9.445356966e-05 9.444051830e-05 9.442746693e-05 9.441441557e-05 9.440136421e-05 9.438831284e-05 9.437526148e-05 9.436221012e-05 9.434915875e-05 9.433610739e-05 9.432305603e-05 9.431000466e-05 9.429695330e-05 9.428390194e-05 9.427085057e-05 9.425779921e-05 9.424474785e-05 9.423169649e-05 9.421864512e-05 9.420559376e-05 9.419254240e-05 9.417949103e-05 9.416643967e-05 9.415338831e-05 9.414033694e-05 9.412728558e-05 9.411423422e-05 9.410118285e-05 9.408813149e-05 9.407508013e-05 9.406202876e-05 9.404897740e-05 9.403592604e-05 9.402287467e-05 9.400982331e-05 9.399677195e-05 9.398372058e-05 9.397066922e-05 9.395761786e-05 9.394456649e-05 9.393151513e-05 9.391846377e-05 9.390531230e-05 9.389213088e-05 9.387894946e-05 9.386576803e-05 9.385258661e-05 9.383940518e-05 9.382622376e-05 9.381304233e-05 9.379986091e-05 9.378667949e-05 9.377349806e-05 9.376031664e-05 9.374713521e-05 9.373395379e-05 9.372077237e-05 9.370759094e-05 9.369440952e-05 9.368122809e-05 9.366804667e-05 9.365486525e-05 9.364168382e-05 9.362850240e-05 9.361532097e-05 9.360213955e-05 9.358895812e-05 9.357577670e-05 9.356259528e-05 9.354941385e-05 9.353623243e-05 9.352305100e-05 9.350986958e-05 9.349668816e-05 9.348350673e-05 9.347032531e-05 9.345714388e-05 9.344396246e-05 9.343078104e-05 9.341759961e-05 9.340441819e-05 9.339123676e-05 9.337805534e-05 9.336487391e-05 9.335169249e-05 9.333851107e-05 9.332532964e-05 9.331214822e-05 9.329896679e-05 9.328578537e-05 9.327260395e-05 9.325942252e-05 9.324624110e-05 9.323305967e-05 9.321987825e-05 9.320669683e-05 9.319351540e-05 9.318033398e-05 9.316715255e-05 9.315397113e-05 9.314078971e-05 9.312760828e-05 9.311442686e-05 9.310124543e-05 9.308806401e-05 9.307487456e-05 9.306158371e-05 9.304829285e-05 9.303500200e-05 9.302171115e-05 9.300842029e-05 9.299512944e-05 9.298183858e-05 9.296854773e-05 9.295525687e-05 9.294196602e-05 9.292867517e-05 9.291538431e-05 9.290209346e-05 9.288880260e-05 9.287551175e-05 9.286222089e-05 9.284893004e-05 9.283563919e-05 9.282234833e-05 9.280905748e-05 9.279576662e-05 9.278247577e-05 9.276918491e-05 9.275589406e-05 9.274260321e-05 9.272931235e-05 9.271602150e-05 9.270273064e-05 9.268943979e-05 9.267614893e-05 9.266285808e-05 9.264956723e-05 9.263627637e-05 9.262298552e-05 9.260969466e-05 9.259640381e-05 9.258311295e-05 9.256982210e-05 9.255653125e-05 9.254324039e-05 9.252994954e-05 9.251665868e-05 9.250336783e-05 9.249007697e-05 9.247678612e-05 9.246349527e-05 9.245020441e-05 9.243691356e-05 9.242362270e-05 9.241033185e-05 9.239704099e-05 9.238375014e-05 9.237045929e-05 9.235716843e-05 9.234387758e-05 9.233058672e-05 9.231729587e-05 9.230400501e-05 9.229071416e-05 9.227742331e-05 9.226413245e-05 9.225084160e-05 9.223755074e-05 9.222422628e-05 9.221084625e-05 9.219746623e-05 9.218408621e-05 9.217070619e-05 9.215732617e-05 9.214394615e-05 9.213056613e-05 9.211718611e-05 9.210380609e-05 9.209042606e-05 9.207704604e-05 9.206366602e-05 9.205028600e-05 9.203690598e-05 9.202352596e-05 9.201014594e-05 9.199676592e-05 9.198338590e-05 9.197000587e-05 9.195662585e-05 9.194324583e-05 9.192986581e-05 9.191648579e-05 9.190310577e-05 9.188972575e-05 9.187634573e-05 9.186296571e-05 9.184958568e-05 9.183620566e-05 9.182282564e-05 9.180944562e-05 9.179606560e-05 9.178268558e-05 9.176930556e-05 9.175592554e-05 9.174254552e-05 9.172916549e-05 9.171578547e-05 9.170240545e-05 9.168902543e-05 9.167564541e-05 9.166226539e-05 9.164888537e-05 9.163550535e-05 9.162212533e-05 9.160874531e-05 9.159536528e-05 9.158198526e-05 9.156860524e-05 9.155522522e-05 9.154184520e-05 9.152846518e-05 9.151508516e-05 9.150170514e-05 9.148832512e-05 9.147494509e-05 9.146156507e-05 9.144818505e-05 9.143480503e-05 9.142142501e-05 9.140804499e-05 9.139466497e-05 9.138128495e-05 9.137701190e-05 9.137701190e-05 9.137701190e-05 9.137701190e-05 9.137701190e-05 9.137701190e-05 9.137701190e-05 9.137701190e-05 9.137701190e-05 9.137701190e-05 9.137701190e-05 9.137701190e-05 9.137701190e-05 9.137701190e-05 9.137701190e-05 9.137701190e-05 9.137701190e-05 9.137701190e-05 9.137701190e-05 9.137701190e-05 9.137701190e-05 9.137701190e-05 9.137701190e-05 9.137701190e-05 9.137701190e-05 9.137701190e-05 2.438078030e-05 2.438078030e-05 2.438078030e-05 2.438078030e-05 2.438078030e-05 2.438078030e-05 2.438078030e-05 2.438078030e-05 2.438078030e-05 2.438078030e-05 2.438078030e-05 2.438078030e-05 2.438078030e-05 2.438078030e-05 2.438078030e-05 2.438077354e-05 2.437927943e-05 2.437778531e-05 2.437629119e-05 2.437479708e-05 2.437330296e-05 2.437180885e-05 2.437031473e-05 2.436882061e-05 2.436732650e-05 2.436583238e-05 2.436433826e-05 2.436284415e-05 2.436135003e-05 2.435985592e-05 2.435836180e-05 2.435686703e-05 2.435530032e-05 2.435373362e-05 2.435216691e-05 2.435060021e-05 2.434903350e-05 2.434746680e-05 2.434590009e-05 2.434433338e-05 2.434276668e-05 2.434119997e-05 2.433963327e-05 2.433806656e-05 2.433649986e-05 2.433493315e-05 2.433336645e-05 2.433179888e-05 2.433016896e-05 2.432853904e-05 2.432690911e-05 2.432527919e-05 2.432364927e-05 2.432201934e-05 2.432038942e-05 2.431875950e-05 2.431712957e-05 2.431549965e-05 2.431386973e-05 2.431223980e-05 2.431060988e-05 2.430897996e-05 2.430735004e-05 2.430571903e-05 2.430402945e-05 2.430233988e-05 2.430065030e-05 2.429896072e-05 2.429727114e-05 2.429558157e-05 2.429389199e-05 2.429220241e-05 2.429051283e-05 2.428882326e-05 2.428713368e-05 2.428544410e-05 2.428375452e-05 2.428206495e-05 2.428037537e-05 2.427868448e-05 2.427693688e-05 2.427518929e-05 2.427344170e-05 2.427169410e-05 2.426994651e-05 2.426819891e-05 2.426645132e-05 2.426470373e-05 2.426295613e-05 2.426120854e-05 2.425946094e-05 2.425771335e-05 2.425596576e-05 2.425421816e-05 2.425247057e-05 2.425072143e-05 2.424891685e-05 2.424711227e-05 2.424530769e-05 2.424350311e-05 2.424169853e-05 2.423989395e-05 2.423808938e-05 2.423628480e-05 2.423448022e-05 2.423267564e-05 2.423087106e-05 2.422906648e-05 2.422726190e-05 2.422545732e-05 2.422365274e-05 2.422184639e-05 2.421998562e-05 2.421812485e-05 2.421626408e-05 2.421440331e-05 2.421254254e-05 2.421068177e-05 2.420882100e-05 2.420696023e-05 2.420509946e-05 2.420323869e-05 2.420137792e-05 2.419951715e-05 2.419765638e-05 2.419579561e-05 2.419393484e-05 2.419207206e-05 2.419015584e-05 2.418823962e-05 2.418632340e-05 2.418440717e-05 2.418249095e-05 2.418057473e-05 2.417865850e-05 2.417674228e-05 2.417482606e-05 2.417290983e-05 2.417099361e-05 2.416907739e-05 2.416716117e-05 2.416524494e-05 2.416332872e-05 2.416141027e-05 2.415943930e-05 2.415746833e-05 2.415549736e-05 2.415352639e-05 2.415155542e-05 2.414958445e-05 2.414761348e-05 2.414564251e-05 2.414367154e-05 2.414170057e-05 2.413972960e-05 2.413775863e-05 2.413578766e-05 2.413381669e-05 2.413184572e-05 2.412987231e-05 2.412784729e-05 2.412582228e-05 2.412379726e-05 2.412177224e-05 2.411974723e-05 2.411772221e-05 2.411569720e-05 2.411367218e-05 2.411164716e-05 2.410962215e-05 2.410759713e-05 2.410557212e-05 2.410354710e-05 2.410152208e-05 2.409949707e-05 2.409746940e-05 2.409539101e-05 2.409331263e-05 2.409123425e-05 2.408915587e-05 2.408707749e-05 2.408499911e-05 2.408292073e-05 2.408084235e-05 2.407876396e-05 2.407668558e-05 2.407460720e-05 2.407252882e-05 2.407045044e-05 2.406837206e-05 2.406629368e-05 2.406421244e-05 2.406208139e-05 2.405995034e-05 2.405781930e-05 2.405568825e-05 2.405355721e-05 2.405142616e-05 2.404929511e-05 2.404716407e-05 2.404503302e-05 2.404290197e-05 2.404077093e-05 2.403863988e-05 2.403650884e-05 2.403437779e-05 2.403224674e-05 2.403011264e-05 2.402792960e-05 2.402574656e-05 2.402356351e-05 2.402138047e-05 2.401919743e-05 2.401701439e-05 2.401483135e-05 2.401264830e-05 2.401046526e-05 2.400828222e-05 2.400609918e-05 2.400391614e-05 2.400173309e-05 2.399955005e-05 2.399736701e-05 2.399518072e-05 2.399294636e-05 2.399071200e-05 2.398847765e-05 2.398624329e-05 2.398400893e-05 2.398177458e-05 2.397954022e-05 2.397730586e-05 2.397507151e-05 2.397283715e-05 2.397060279e-05 2.396836844e-05 2.396613408e-05 2.396389972e-05 2.396166537e-05 2.395942758e-05 2.395714257e-05 2.395485757e-05 2.395257257e-05 2.395028757e-05 2.394800256e-05 2.394571756e-05 2.394343256e-05 2.394114756e-05 2.393886256e-05 2.393657755e-05 2.393429255e-05 2.393200755e-05 2.392972255e-05 2.392743755e-05 2.392515254e-05 2.392286393e-05 2.392052896e-05 2.391819399e-05 2.391585903e-05 2.391352406e-05 2.391118909e-05 2.390885413e-05 2.390651916e-05 2.390418419e-05 2.390184923e-05 2.389951426e-05 2.389717930e-05 2.389484433e-05 2.389250936e-05 2.389017440e-05 2.388783943e-05 2.388550067e-05 2.388311639e-05 2.388073211e-05 2.387834783e-05 2.387596355e-05 2.387357927e-05 2.387119499e-05 2.386881071e-05 2.386642643e-05 2.386404215e-05 2.386165787e-05 2.385927359e-05 2.385688931e-05 2.385450503e-05 2.385212075e-05 2.384973647e-05 2.384734823e-05 2.384491531e-05 2.384248239e-05 2.384004947e-05 2.383761655e-05 2.383518363e-05 2.383275071e-05 2.383031780e-05 2.382788488e-05 2.382545196e-05 2.382301904e-05 2.382058612e-05 2.381815320e-05 2.381572028e-05 2.381328736e-05 2.381085444e-05 2.380841740e-05 2.380593650e-05 2.380345560e-05 2.380097470e-05 2.379849380e-05 2.379601289e-05 2.379353199e-05 2.379105109e-05 2.378857019e-05 2.378608929e-05 2.378360839e-05 2.378112749e-05 2.377864659e-05 2.377616568e-05 2.377368478e-05 2.377120388e-05 2.376871870e-05 2.376619046e-05 2.376366222e-05 2.376113398e-05 2.375860574e-05 2.375607750e-05 2.375354926e-05 2.375102102e-05 2.374849278e-05 2.374596454e-05 2.374343630e-05 2.374090806e-05 2.373837982e-05 2.373585158e-05 2.373332334e-05 2.373079510e-05 2.372826243e-05 2.372568751e-05 2.372311259e-05 2.372053766e-05 2.371796274e-05 2.371538782e-05 2.371281290e-05 2.371023798e-05 2.370766306e-05 2.370508813e-05 2.370251321e-05 2.369993829e-05 2.369736337e-05 2.369478845e-05 2.369221353e-05 2.368963860e-05 2.368705910e-05 2.368443815e-05 2.368181720e-05 2.367919624e-05 2.367657529e-05 2.367395434e-05 2.367133338e-05 2.366871243e-05 2.366609148e-05 2.366347052e-05 2.366084957e-05 2.365822861e-05 2.365560766e-05 2.365298671e-05 2.365036575e-05 2.364774480e-05 2.364511913e-05 2.364245279e-05 2.363978644e-05 2.363712010e-05 2.363445376e-05 2.363178742e-05 2.362912108e-05 2.362645474e-05 2.362378840e-05 2.362112206e-05 2.361845571e-05 2.361578937e-05 2.361312303e-05 2.361045669e-05 2.360779035e-05 2.360512401e-05 2.360245281e-05 2.359974172e-05 2.359703063e-05 2.359431953e-05 2.359160844e-05 2.358889735e-05 2.358618626e-05 2.358347517e-05 2.358076408e-05 2.357805299e-05 2.357534190e-05 2.357263080e-05 2.356991971e-05 2.356720862e-05 2.356449753e-05 2.356178644e-05 2.355907036e-05 2.355631514e-05 2.355355992e-05 2.355080471e-05 2.354804949e-05 2.354529428e-05 2.354253906e-05 2.353978384e-05 2.353702863e-05 2.353427341e-05 2.353151819e-05 2.352876298e-05 2.352600776e-05 2.352325254e-05 2.352049733e-05 2.351774211e-05 2.351498178e-05 2.351218309e-05 2.350938440e-05 2.350658571e-05 2.350378702e-05 2.350098833e-05 2.349818964e-05 2.349539095e-05 2.349259225e-05 2.348979356e-05 2.3486994