<?xml version="1.0"?>
<VTKFile type="PolyData" version="0.1" byte_order="LittleEndian">
  <PolyData>
    <Piece NumberOfPoints="5714" NumberOfVerts="0" NumberOfLines="15" NumberOfStrips="0" NumberOfPolys="8556">
      <PointData Scalars="numerical_reference_error">
        <DataArray type="Float32" Name="numerical_reference_error" format="ascii">
          1.177792460e-04 1.177792460e-04 1.177792460e-04 1.177792460e-04 1.177792460e-04 1.177792460e-04 1.177792460e-04 1.177792460e-04 1.177792460e-04 1.177792460e-04 1.177792460e-04 1.177792460e-04 1.177792460e-04 1.177792460e-04 1.177792460e-04 1.177792460e-04 1.177792460e-04 1.177792460e-04 1.177792460e-04 1.177792460e-04 1.177792460e-04 1.177792460e-04 1.177792460e-04 1.177792460e-04 1.177792460e-04 1.177792460e-04 1.177792460e-04 1.177792460e-04 1.177792460e-04 1.177792460e-04 1.177792460e-04 1.177792460e-04 1.177792460e-04 1.177792460e-04 1.177792460e-04 1.177792460e-04 1.177792460e-04 1.177792460e-04 1.177792460e-04 1.177792460e-04 1.177792460e-04 1.177792460e-04 1.177792460e-04 1.177792460e-04 1.177792460e-04 1.177792460e-04 1.177792460e-04 1.177792460e-04 1.177792460e-04 1.177792460e-04 1.177792460e-04 1.177792460e-04 1.177792460e-04 1.177792460e-04 1.177792460e-04 1.177792460e-04 1.177792460e-04 1.177792460e-04 1.177792460e-04 1.177792460e-04 1.177792460e-04 1.177792460e-04 1.177792460e-04 1.177795004e-04 1.177803382e-04 1.177811759e-04 1.177820137e-04 1.177828514e-04 1.177836892e-04 1.177845269e-04 1.177853647e-04 1.177862024e-04 1.177870402e-04 1.177878780e-04 1.177887157e-04 1.177895535e-04 1.177903912e-04 1.177912290e-04 1.177920667e-04 1.177929045e-04 1.177937423e-04 1.177945800e-04 1.177954178e-04 1.177962555e-04 1.177970933e-04 1.177979310e-04 1.177987688e-04 1.177996065e-04 1.178004443e-04 1.178012821e-04 1.178021198e-04 1.178029576e-04 1.178037953e-04 1.178046331e-04 1.178054708e-04 1.178063086e-04 1.178071464e-04 1.178079841e-04 1.178088219e-04 1.178096596e-04 1.178104974e-04 1.178113351e-04 1.178121729e-04 1.178130106e-04 1.178138484e-04 1.178146862e-04 1.178155239e-04 1.178163617e-04 1.178171994e-04 1.178180372e-04 1.178188749e-04 1.178197127e-04 1.178205505e-04 1.178213882e-04 1.178222260e-04 1.178230637e-04 1.178239015e-04 1.178247392e-04 1.178255770e-04 1.178264147e-04 1.178272525e-04 1.178280903e-04 1.178289280e-04 1.178297658e-04 1.178306035e-04 1.178314413e-04 1.178322790e-04 1.178330506e-04 1.178337793e-04 1.178345080e-04 1.178352367e-04 1.178359654e-04 1.178366941e-04 1.178374228e-04 1.178381515e-04 1.178388802e-04 1.178396089e-04 1.178403376e-04 1.178410663e-04 1.178417951e-04 1.178425238e-04 1.178432525e-04 1.178439812e-04 1.178447099e-04 1.178454386e-04 1.178461673e-04 1.178468960e-04 1.178476247e-04 1.178483534e-04 1.178490821e-04 1.178498108e-04 1.178505395e-04 1.178512683e-04 1.178519970e-04 1.178527257e-04 1.178534544e-04 1.178541831e-04 1.178549118e-04 1.178556405e-04 1.178563692e-04 1.178570979e-04 1.178578266e-04 1.178585553e-04 1.178592840e-04 1.178600127e-04 1.178607415e-04 1.178614702e-04 1.178621989e-04 1.178629276e-04 1.178636563e-04 1.178643850e-04 1.178651137e-04 1.178658424e-04 1.178665711e-04 1.178672998e-04 1.178680285e-04 1.178687572e-04 1.178694859e-04 1.178702147e-04 1.178709434e-04 1.178716721e-04 1.178724008e-04 1.178731295e-04 1.178738582e-04 1.178745869e-04 1.178753156e-04 1.178760443e-04 1.178767730e-04 1.178775017e-04 1.178782304e-04 1.178789591e-04 1.178796095e-04 1.178802523e-04 1.178808950e-04 1.178815377e-04 1.178821805e-04 1.178828232e-04 1.178834660e-04 1.178841087e-04 1.178847514e-04 1.178853942e-04 1.178860369e-04 1.178866796e-04 1.178873224e-04 1.178879651e-04 1.178886079e-04 1.178892506e-04 1.178898933e-04 1.178905361e-04 1.178911788e-04 1.178918215e-04 1.178924643e-04 1.178931070e-04 1.178937497e-04 1.178943925e-04 1.178950352e-04 1.178956780e-04 1.178963207e-04 1.178969634e-04 1.178976062e-04 1.178982489e-04 1.178988916e-04 1.178995344e-04 1.179001771e-04 1.179008199e-04 1.179014626e-04 1.179021053e-04 1.179027481e-04 1.179033908e-04 1.179040335e-04 1.179046763e-04 1.179053190e-04 1.179059618e-04 1.179066045e-04 1.179072472e-04 1.179078900e-04 1.179085327e-04 1.179091754e-04 1.179098182e-04 1.179104609e-04 1.179111037e-04 1.179117464e-04 1.179123891e-04 1.179130319e-04 1.179136746e-04 1.179143173e-04 1.179149601e-04 1.179156028e-04 1.179162455e-04 1.179168883e-04 1.179175310e-04 1.179181738e-04 1.179188165e-04 1.179194592e-04 1.179200860e-04 1.179206545e-04 1.179212229e-04 1.179217914e-04 1.179223598e-04 1.179229283e-04 1.179234967e-04 1.179240652e-04 1.179246336e-04 1.179252020e-04 1.179257705e-04 1.179263389e-04 1.179269074e-04 1.179274758e-04 1.179280443e-04 1.179286127e-04 1.179291812e-04 1.179297496e-04 1.179303181e-04 1.179308865e-04 1.179314550e-04 1.179320234e-04 1.179325919e-04 1.179331603e-04 1.179337288e-04 1.179342972e-04 1.179348656e-04 1.179354341e-04 1.179360025e-04 1.179365710e-04 1.179371394e-04 1.179377079e-04 1.179382763e-04 1.179388448e-04 1.179394132e-04 1.179399817e-04 1.179405501e-04 1.179411186e-04 1.179416870e-04 1.179422555e-04 1.179428239e-04 1.179433924e-04 1.179439608e-04 1.179445293e-04 1.179450977e-04 1.179456661e-04 1.179462346e-04 1.179468030e-04 1.179473715e-04 1.179479399e-04 1.179485084e-04 1.179490768e-04 1.179496453e-04 1.179502137e-04 1.179507822e-04 1.179513506e-04 1.179519191e-04 1.179524875e-04 1.179530560e-04 1.179536244e-04 1.179541929e-04 1.179547613e-04 1.179553297e-04 1.179558982e-04 1.179564322e-04 1.179569343e-04 1.179574364e-04 1.179579384e-04 1.179584405e-04 1.179589426e-04 1.179594447e-04 1.179599467e-04 1.179604488e-04 1.179609509e-04 1.179614529e-04 1.179619550e-04 1.179624571e-04 1.179629591e-04 1.179634612e-04 1.179639633e-04 1.179644654e-04 1.179649674e-04 1.179654695e-04 1.179659716e-04 1.179664736e-04 1.179669757e-04 1.179674778e-04 1.179679798e-04 1.179684819e-04 1.179689840e-04 1.179694860e-04 1.179699881e-04 1.179704902e-04 1.179709923e-04 1.179714943e-04 1.179719964e-04 1.179724985e-04 1.179730005e-04 1.179735026e-04 1.179740047e-04 1.179745067e-04 1.179750088e-04 1.179755109e-04 1.179760130e-04 1.179765150e-04 1.179770171e-04 1.179775192e-04 1.179780212e-04 1.179785233e-04 1.179790254e-04 1.179795274e-04 1.179800295e-04 1.179805316e-04 1.179810337e-04 1.179815357e-04 1.179820378e-04 1.179825399e-04 1.179830419e-04 1.179835440e-04 1.179840461e-04 1.179845481e-04 1.179850502e-04 1.179855523e-04 1.179860543e-04 1.179865564e-04 1.179870585e-04 1.179875606e-04 1.179880626e-04 1.179885156e-04 1.179889579e-04 1.179894002e-04 1.179898425e-04 1.179902848e-04 1.179907271e-04 1.179911694e-04 1.179916117e-04 1.179920540e-04 1.179924963e-04 1.179929386e-04 1.179933809e-04 1.179938232e-04 1.179942655e-04 1.179947078e-04 1.179951501e-04 1.179955924e-04 1.179960347e-04 1.179964770e-04 1.179969193e-04 1.179973616e-04 1.179978039e-04 1.179982462e-04 1.179986885e-04 1.179991308e-04 1.179995731e-04 1.180000154e-04 1.180004577e-04 1.180009000e-04 1.180013423e-04 1.180017846e-04 1.180022269e-04 1.180026692e-04 1.180031115e-04 1.180035538e-04 1.180039961e-04 1.180044384e-04 1.180048807e-04 1.180053230e-04 1.180057653e-04 1.180062076e-04 1.180066499e-04 1.180070922e-04 1.180075345e-04 1.180079768e-04 1.180084191e-04 1.180088614e-04 1.180093038e-04 1.180097461e-04 1.180101884e-04 1.180106307e-04 1.180110730e-04 1.180115153e-04 1.180119576e-04 1.180123999e-04 1.180128422e-04 1.180132845e-04 1.180137268e-04 1.180141691e-04 1.180146114e-04 1.180150537e-04 1.180154960e-04 1.180159383e-04 1.180163738e-04 1.180167625e-04 1.180171511e-04 1.180175397e-04 1.180179283e-04 1.180183170e-04 1.180187056e-04 1.180190942e-04 1.180194828e-04 1.180198715e-04 1.180202601e-04 1.180206487e-04 1.180210373e-04 1.180214260e-04 1.180218146e-04 1.180222032e-04 1.180225918e-04 1.180229805e-04 1.180233691e-04 1.180237577e-04 1.180241463e-04 1.180245350e-04 1.180249236e-04 1.180253122e-04 1.180257008e-04 1.180260895e-04 1.180264781e-04 1.180268667e-04 1.180272553e-04 1.180276440e-04 1.180280326e-04 1.180284212e-04 1.180288098e-04 1.180291985e-04 1.180295871e-04 1.180299757e-04 1.180303643e-04 1.180307530e-04 1.180311416e-04 1.180315302e-04 1.180319188e-04 1.180323075e-04 1.180326961e-04 1.180330847e-04 1.180334733e-04 1.180338620e-04 1.180342506e-04 1.180346392e-04 1.180350278e-04 1.180354165e-04 1.180358051e-04 1.180361937e-04 1.180365823e-04 1.180369710e-04 1.180373596e-04 1.180377482e-04 1.180381368e-04 1.180385255e-04 1.180389141e-04 1.180393027e-04 1.180396913e-04 1.180400800e-04 1.180404686e-04 1.180408572e-04 1.180412253e-04 1.180415662e-04 1.180419070e-04 1.180422479e-04 1.180425887e-04 1.180429296e-04 1.180432704e-04 1.180436113e-04 1.180439521e-04 1.180442930e-04 1.180446339e-04 1.180449747e-04 1.180453156e-04 1.180456564e-04 1.180459973e-04 1.180463381e-04 1.180466790e-04 1.180470198e-04 1.180473607e-04 1.180477015e-04 1.180480424e-04 1.180483832e-04 1.180487241e-04 1.180490649e-04 1.180494058e-04 1.180497466e-04 1.180500875e-04 1.180504283e-04 1.180507692e-04 1.180511100e-04 1.180514509e-04 1.180517917e-04 1.180521326e-04 1.180524734e-04 1.180528143e-04 1.180531551e-04 1.180534960e-04 1.180538368e-04 1.180541777e-04 1.180545185e-04 1.180548594e-04 1.180552003e-04 1.180555411e-04 1.180558820e-04 1.180562228e-04 1.180565637e-04 1.180569045e-04 1.180572454e-04 1.180575862e-04 1.180579271e-04 1.180582679e-04 1.180586088e-04 1.180589496e-04 1.180592905e-04 1.180596313e-04 1.180599722e-04 1.180603130e-04 1.180606539e-04 1.180609947e-04 1.180613356e-04 1.180616764e-04 1.180620173e-04 1.180623581e-04 1.180626990e-04 1.180630090e-04 1.180633079e-04 1.180636067e-04 1.180639056e-04 1.180642044e-04 1.180645032e-04 1.180648021e-04 1.180651009e-04 1.180653998e-04 1.180656986e-04 1.180659974e-04 1.180662963e-04 1.180665951e-04 1.180668940e-04 1.180671928e-04 1.180674916e-04 1.180677905e-04 1.180680893e-04 1.180683882e-04 1.180686870e-04 1.180689858e-04 1.180692847e-04 1.180695835e-04 1.180698824e-04 1.180701812e-04 1.180704800e-04 1.180707789e-04 1.180710777e-04 1.180713766e-04 1.180716754e-04 1.180719742e-04 1.180722731e-04 1.180725719e-04 1.180728708e-04 1.180731696e-04 1.180734684e-04 1.180737673e-04 1.180740661e-04 1.180743650e-04 1.180746638e-04 1.180749626e-04 1.180752615e-04 1.180755603e-04 1.180758592e-04 1.180761580e-04 1.180764568e-04 1.180767557e-04 1.180770545e-04 1.180773534e-04 1.180776522e-04 1.180779510e-04 1.180782499e-04 1.180785487e-04 1.180788476e-04 1.180791464e-04 1.180794452e-04 1.180797441e-04 1.180800429e-04 1.180803418e-04 1.180806406e-04 1.180809394e-04 1.180812383e-04 1.180815371e-04 1.180818346e-04 1.180820971e-04 1.180823597e-04 1.180826222e-04 1.180828847e-04 1.180831473e-04 1.180834098e-04 1.180836723e-04 1.180839348e-04 1.180841974e-04 1.180844599e-04 1.180847224e-04 1.180849849e-04 1.180852475e-04 1.180855100e-04 1.180857725e-04 1.180860351e-04 1.180862976e-04 1.180865601e-04 1.180868226e-04 1.180870852e-04 1.180873477e-04 1.180876102e-04 1.180878727e-04 1.180881353e-04 1.180883978e-04 1.180886603e-04 1.180889228e-04 1.180891854e-04 1.180894479e-04 1.180897104e-04 1.180899730e-04 1.180902355e-04 1.180904980e-04 1.180907605e-04 1.180910231e-04 1.180912856e-04 1.180915481e-04 1.180918106e-04 1.180920732e-04 1.180923357e-04 1.180925982e-04 1.180928608e-04 1.180931233e-04 1.180933858e-04 1.180936483e-04 1.180939109e-04 1.180941734e-04 1.180944359e-04 1.180946984e-04 1.180949610e-04 1.180952235e-04 1.180954860e-04 1.180957485e-04 1.180960111e-04 1.180962736e-04 1.180965361e-04 1.180967987e-04 1.180970612e-04 1.180973237e-04 1.180975862e-04 1.180978488e-04 1.180981113e-04 1.180983738e-04 1.180986259e-04 1.180988576e-04 1.180990894e-04 1.180993212e-04 1.180995530e-04 1.180997847e-04 1.181000165e-04 1.181002483e-04 1.181004800e-04 1.181007118e-04 1.181009436e-04 1.181011754e-04 1.181014071e-04 1.181016389e-04 1.181018707e-04 1.181021025e-04 1.181023342e-04 1.181025660e-04 1.181027978e-04 1.181030295e-04 1.181032613e-04 1.181034931e-04 1.181037249e-04 1.181039566e-04 1.181041884e-04 1.181044202e-04 1.181046519e-04 1.181048837e-04 1.181051155e-04 1.181053473e-04 1.181055790e-04 1.181058108e-04 1.181060426e-04 1.181062743e-04 1.181065061e-04 1.181067379e-04 1.181069697e-04 1.181072014e-04 1.181074332e-04 1.181076650e-04 1.181078967e-04 1.181081285e-04 1.181083603e-04 1.181085921e-04 1.181088238e-04 1.181090556e-04 1.181092874e-04 1.181095191e-04 1.181097509e-04 1.181099827e-04 1.181102145e-04 1.181104462e-04 1.181106780e-04 1.181109098e-04 1.181111415e-04 1.181113733e-04 1.181116051e-04 1.181118369e-04 1.181120686e-04 1.181123004e-04 1.181125322e-04 1.181127639e-04 1.181129957e-04 1.181132275e-04 1.181134430e-04 1.181136496e-04 1.181138561e-04 1.181140627e-04 1.181142693e-04 1.181144758e-04 1.181146824e-04 1.181148889e-04 1.181150955e-04 1.181153020e-04 1.181155086e-04 1.181157152e-04 1.181159217e-04 1.181161283e-04 1.181163348e-04 1.181165414e-04 1.181167480e-04 1.181169545e-04 1.181171611e-04 1.181173676e-04 1.181175742e-04 1.181177807e-04 1.181179873e-04 1.181181939e-04 1.181184004e-04 1.181186070e-04 1.181188135e-04 1.181190201e-04 1.181192266e-04 1.181194332e-04 1.181196398e-04 1.181198463e-04 1.181200529e-04 1.181202594e-04 1.181204660e-04 1.181206726e-04 1.181208791e-04 1.181210857e-04 1.181212922e-04 1.181214988e-04 1.181217053e-04 1.181219119e-04 1.181221185e-04 1.181223250e-04 1.181225316e-04 1.181227381e-04 1.181229447e-04 1.181231513e-04 1.181233578e-04 1.181235644e-04 1.181237709e-04 1.181239775e-04 1.181241840e-04 1.181243906e-04 1.181245972e-04 1.181248037e-04 1.181250103e-04 1.181252168e-04 1.181254234e-04 1.181256300e-04 1.181258365e-04 1.181260431e-04 1.181262496e-04 1.181264562e-04 1.181266440e-04 1.181268307e-04 1.181270175e-04 1.181272042e-04 1.181273910e-04 1.181275777e-04 1.181277644e-04 1.181279512e-04 1.181281379e-04 1.181283247e-04 1.181285114e-04 1.181286982e-04 1.181288849e-04 1.181290717e-04 1.181292584e-04 1.181294452e-04 1.181296319e-04 1.181298186e-04 1.181300054e-04 1.181301921e-04 1.181303789e-04 1.181305656e-04 1.181307524e-04 1.181309391e-04 1.181311259e-04 1.181313126e-04 1.181314994e-04 1.181316861e-04 1.181318728e-04 1.181320596e-04 1.181322463e-04 1.181324331e-04 1.181326198e-04 1.181328066e-04 1.181329933e-04 1.181331801e-04 1.181333668e-04 1.181335536e-04 1.181337403e-04 1.181339270e-04 1.181341138e-04 1.181343005e-04 1.181344873e-04 1.181346740e-04 1.181348608e-04 1.181350475e-04 1.181352343e-04 1.181354210e-04 1.181356078e-04 1.181357945e-04 1.181359812e-04 1.181361680e-04 1.181363547e-04 1.181365415e-04 1.181367282e-04 1.181369150e-04 1.181371017e-04 1.181372885e-04 1.181374752e-04 1.181376620e-04 1.181378487e-04 1.181380354e-04 1.181382222e-04 1.181384053e-04 1.181385776e-04 1.181387499e-04 1.181389223e-04 1.181390946e-04 1.181392669e-04 1.181394392e-04 1.181396115e-04 1.181397838e-04 1.181399562e-04 1.181401285e-04 1.181403008e-04 1.181404731e-04 1.181406454e-04 1.181408178e-04 1.181409901e-04 1.181411624e-04 1.181413347e-04 1.181415070e-04 1.181416793e-04 1.181418517e-04 1.181420240e-04 1.181421963e-04 1.181423686e-04 1.181425409e-04 1.181427132e-04 1.181428856e-04 1.181430579e-04 1.181432302e-04 1.181434025e-04 1.181435748e-04 1.181437472e-04 1.181439195e-04 1.181440918e-04 1.181442641e-04 1.181444364e-04 1.181446087e-04 1.181447811e-04 1.181449534e-04 1.181451257e-04 1.181452980e-04 1.181454703e-04 1.181456426e-04 1.181458150e-04 1.181459873e-04 1.181461596e-04 1.181463319e-04 1.181465042e-04 1.181466766e-04 1.181468489e-04 1.181470212e-04 1.181471935e-04 1.181473658e-04 1.181475381e-04 1.181477105e-04 1.181478828e-04 1.181480551e-04 1.181482274e-04 1.181483997e-04 1.181485720e-04 1.181487444e-04 1.181489167e-04 1.181490890e-04 1.181492613e-04 1.181494285e-04 1.181495917e-04 1.181497548e-04 1.181499180e-04 1.181500811e-04 1.181502443e-04 1.181504074e-04 1.181505706e-04 1.181507337e-04 1.181508969e-04 1.181510600e-04 1.181512232e-04 1.181513863e-04 1.181515495e-04 1.181517126e-04 1.181518758e-04 1.181520389e-04 1.181522021e-04 1.181523652e-04 1.181525284e-04 1.181526915e-04 1.181528547e-04 1.181530178e-04 1.181531810e-04 1.181533441e-04 1.181535073e-04 1.181536704e-04 1.181538336e-04 1.181539967e-04 1.181541599e-04 1.181543230e-04 1.181544862e-04 1.181546493e-04 1.181548125e-04 1.181549756e-04 1.181551388e-04 1.181553019e-04 1.181554651e-04 1.181556282e-04 1.181557914e-04 1.181559545e-04 1.181561177e-04 1.181562808e-04 1.181564440e-04 1.181566071e-04 1.181567703e-04 1.181569334e-04 1.181570966e-04 1.181572597e-04 1.181574229e-04 1.181575860e-04 1.181577491e-04 1.181579123e-04 1.181580754e-04 1.181582386e-04 1.181584017e-04 1.181585649e-04 1.181587280e-04 1.181588912e-04 1.181590543e-04 1.181592175e-04 1.181593806e-04 1.181595438e-04 1.181597069e-04 1.181598667e-04 1.181600259e-04 1.181601851e-04 1.181603443e-04 1.181605035e-04 1.181606627e-04 1.181608220e-04 1.181609812e-04 1.181611404e-04 1.181612996e-04 1.181614588e-04 1.181616180e-04 1.181617772e-04 1.181619364e-04 1.181620956e-04 1.181622548e-04 1.181624140e-04 1.181625732e-04 1.181627325e-04 1.181628917e-04 1.181630509e-04 1.181632101e-04 1.181633693e-04 1.181635285e-04 1.181636877e-04 1.181638469e-04 1.181640061e-04 1.181641653e-04 1.181643245e-04 1.181644838e-04 1.181646430e-04 1.181648022e-04 1.181649614e-04 1.181651206e-04 1.181652798e-04 1.181654390e-04 1.181655982e-04 1.181657574e-04 1.181659166e-04 1.181660758e-04 1.181662350e-04 1.181663943e-04 1.181665535e-04 1.181667127e-04 1.181668719e-04 1.181670311e-04 1.181671903e-04 1.181673495e-04 1.181675087e-04 1.181676679e-04 1.181678271e-04 1.181679863e-04 1.181681455e-04 1.181683048e-04 1.181684640e-04 1.181686232e-04 1.181687824e-04 1.181689416e-04 1.181691008e-04 1.181692600e-04 1.181694192e-04 1.181695784e-04 1.181697376e-04 1.181698970e-04 1.181700574e-04 1.181702178e-04 1.181703782e-04 1.181705386e-04 1.181706990e-04 1.181708593e-04 1.181710197e-04 1.181711801e-04 1.181713405e-04 1.181715009e-04 1.181716613e-04 1.181718217e-04 1.181719821e-04 1.181721424e-04 1.181723028e-04 1.181724632e-04 1.181726236e-04 1.181727840e-04 1.181729444e-04 1.181731048e-04 1.181732651e-04 1.181734255e-04 1.181735859e-04 1.181737463e-04 1.181739067e-04 1.181740671e-04 1.181742275e-04 1.181743878e-04 1.181745482e-04 1.181747086e-04 1.181748690e-04 1.181750294e-04 1.181751898e-04 1.181753502e-04 1.181755105e-04 1.181756709e-04 1.181758313e-04 1.181759917e-04 1.181761521e-04 1.181763125e-04 1.181764729e-04 1.181766332e-04 1.181767936e-04 1.181769540e-04 1.181771144e-04 1.181772748e-04 1.181774352e-04 1.181775956e-04 1.181777559e-04 1.181779163e-04 1.181780767e-04 1.181782371e-04 1.181783975e-04 1.181785579e-04 1.181787183e-04 1.181788786e-04 1.181790390e-04 1.181791994e-04 1.181793598e-04 1.181795202e-04 1.181796806e-04 1.181798410e-04 1.181800014e-04 1.181801647e-04 1.181803313e-04 1.181804980e-04 1.181806646e-04 1.181808313e-04 1.181809979e-04 1.181811646e-04 1.181813312e-04 1.181814979e-04 1.181816645e-04 1.181818312e-04 1.181819978e-04 1.181821645e-04 1.181823311e-04 1.181824978e-04 1.181826644e-04 1.181828311e-04 1.181829977e-04 1.181831644e-04 1.181833310e-04 1.181834977e-04 1.181836643e-04 1.181838310e-04 1.181839976e-04 1.181841643e-04 1.181843309e-04 1.181844976e-04 1.181846642e-04 1.181848309e-04 1.181849975e-04 1.181851642e-04 1.181853308e-04 1.181854975e-04 1.181856641e-04 1.181858308e-04 1.181859974e-04 1.181861641e-04 1.181863307e-04 1.181864974e-04 1.181866640e-04 1.181868307e-04 1.181869973e-04 1.181871640e-04 1.181873306e-04 1.181874973e-04 1.181876639e-04 1.181878306e-04 1.181879972e-04 1.181881639e-04 1.181883305e-04 1.181884972e-04 1.181886638e-04 1.181888305e-04 1.181889971e-04 1.181891638e-04 1.181893304e-04 1.181894971e-04 1.181896637e-04 1.181898304e-04 1.181899970e-04 1.181901637e-04 1.181903303e-04 1.181904970e-04 1.181906636e-04 1.181908389e-04 1.181910168e-04 1.181911947e-04 1.181913726e-04 1.181915505e-04 1.181917284e-04 1.181919063e-04 1.181920841e-04 1.181922620e-04 1.181924399e-04 1.181926178e-04 1.181927957e-04 1.181929736e-04 1.181931515e-04 1.181933294e-04 1.181935073e-04 1.181936852e-04 1.181938631e-04 1.181940409e-04 1.181942188e-04 1.181943967e-04 1.181945746e-04 1.181947525e-04 1.181949304e-04 1.181951083e-04 1.181952862e-04 1.181954641e-04 1.181956420e-04 1.181958199e-04 1.181959977e-04 1.181961756e-04 1.181963535e-04 1.181965314e-04 1.181967093e-04 1.181968872e-04 1.181970651e-04 1.181972430e-04 1.181974209e-04 1.181975988e-04 1.181977767e-04 1.181979545e-04 1.181981324e-04 1.181983103e-04 1.181984882e-04 1.181986661e-04 1.181988440e-04 1.181990219e-04 1.181991998e-04 1.181993777e-04 1.181995556e-04 1.181997335e-04 1.181999113e-04 1.182000892e-04 1.182002671e-04 1.182004450e-04 1.182006229e-04 1.182008008e-04 1.182009787e-04 1.182011566e-04 1.182013345e-04 1.182015124e-04 1.182016903e-04 1.182018682e-04 1.182020472e-04 1.182022413e-04 1.182024354e-04 1.182026295e-04 1.182028235e-04 1.182030176e-04 1.182032117e-04 1.182034058e-04 1.182035998e-04 1.182037939e-04 1.182039880e-04 1.182041821e-04 1.182043762e-04 1.182045702e-04 1.182047643e-04 1.182049584e-04 1.182051525e-04 1.182053465e-04 1.182055406e-04 1.182057347e-04 1.182059288e-04 1.182061228e-04 1.182063169e-04 1.182065110e-04 1.182067051e-04 1.182068992e-04 1.182070932e-04 1.182072873e-04 1.182074814e-04 1.182076755e-04 1.182078695e-04 1.182080636e-04 1.182082577e-04 1.182084518e-04 1.182086458e-04 1.182088399e-04 1.182090340e-04 1.182092281e-04 1.182094222e-04 1.182096162e-04 1.182098103e-04 1.182100044e-04 1.182101985e-04 1.182103925e-04 1.182105866e-04 1.182107807e-04 1.182109748e-04 1.182111689e-04 1.182113629e-04 1.182115570e-04 1.182117511e-04 1.182119452e-04 1.182121392e-04 1.182123333e-04 1.182125274e-04 1.182127215e-04 1.182129155e-04 1.182131096e-04 1.182133037e-04 1.182134978e-04 1.182136919e-04 1.182138859e-04 1.182140800e-04 1.182142741e-04 1.182144761e-04 1.182146912e-04 1.182149064e-04 1.182151215e-04 1.182153366e-04 1.182155517e-04 1.182157669e-04 1.182159820e-04 1.182161971e-04 1.182164123e-04 1.182166274e-04 1.182168425e-04 1.182170577e-04 1.182172728e-04 1.182174879e-04 1.182177031e-04 1.182179182e-04 1.182181333e-04 1.182183484e-04 1.182185636e-04 1.182187787e-04 1.182189938e-04 1.182192090e-04 1.182194241e-04 1.182196392e-04 1.182198544e-04 1.182200695e-04 1.182202846e-04 1.182204997e-04 1.182207149e-04 1.182209300e-04 1.182211451e-04 1.182213603e-04 1.182215754e-04 1.182217905e-04 1.182220057e-04 1.182222208e-04 1.182224359e-04 1.182226510e-04 1.182228662e-04 1.182230813e-04 1.182232964e-04 1.182235116e-04 1.182237267e-04 1.182239418e-04 1.182241570e-04 1.182243721e-04 1.182245872e-04 1.182248023e-04 1.182250175e-04 1.182252326e-04 1.182254477e-04 1.182256629e-04 1.182258780e-04 1.182260931e-04 1.182263083e-04 1.182265234e-04 1.182267385e-04 1.182269536e-04 1.182271688e-04 1.182273839e-04 1.182275990e-04 1.182278142e-04 1.182280293e-04 1.182280980e-04 1.182280980e-04 1.182280980e-04 1.182280980e-04 1.182280980e-04 1.182280980e-04 1.182280980e-04 1.182280980e-04 1.182280980e-04 1.182280980e-04 1.182280980e-04 1.182280980e-04 1.182280980e-04 1.182280980e-04 1.182280980e-04 1.182280980e-04 1.182280980e-04 1.182280980e-04 1.182280980e-04 1.182280980e-04 1.182280980e-04 1.182280980e-04 1.182280980e-04 1.182280980e-04 1.182280980e-04 1.182280980e-04 3.035315200e-05 3.035315200e-05 3.035315200e-05 3.035315200e-05 3.035315200e-05 3.035315200e-05 3.035315200e-05 3.035315200e-05 3.035315200e-05 3.035315200e-05 3.035315200e-05 3.035315200e-05 3.035315200e-05 3.035315200e-05 3.035315200e-05 3.035315308e-05 3.035339128e-05 3.035362949e-05 3.035386769e-05 3.035410590e-05 3.035434410e-05 3.035458231e-05 3.035482051e-05 3.035505872e-05 3.035529692e-05 3.035553513e-05 3.035577333e-05 3.035601154e-05 3.035624974e-05 3.035648795e-05 3.035672615e-05 3.035696418e-05 3.035718333e-05 3.035740247e-05 3.035762161e-05 3.035784076e-05 3.035805990e-05 3.035827904e-05 3.035849818e-05 3.035871733e-05 3.035893647e-05 3.035915561e-05 3.035937476e-05 3.035959390e-05 3.035981304e-05 3.036003219e-05 3.036025133e-05 3.036047029e-05 3.036067574e-05 3.036088119e-05 3.036108664e-05 3.036129210e-05 3.036149755e-05 3.036170300e-05 3.036190845e-05 3.036211390e-05 3.036231935e-05 3.036252481e-05 3.036273026e-05 3.036293571e-05 3.036314116e-05 3.036334661e-05 3.036355207e-05 3.036375730e-05 3.036395097e-05 3.036414464e-05 3.036433831e-05 3.036453197e-05 3.036472564e-05 3.036491931e-05 3.036511297e-05 3.036530664e-05 3.036550031e-05 3.036569398e-05 3.036588764e-05 3.036608131e-05 3.036627498e-05 3.036646865e-05 3.036666231e-05 3.036685573e-05 3.036703834e-05 3.036722096e-05 3.036740357e-05 3.036758619e-05 3.036776880e-05 3.036795141e-05 3.036813403e-05 3.036831664e-05 3.036849926e-05 3.036868187e-05 3.036886449e-05 3.036904710e-05 3.036922971e-05 3.036941233e-05 3.036959494e-05 3.036977727e-05 3.036994917e-05 3.037012107e-05 3.037029298e-05 3.037046488e-05 3.037063679e-05 3.037080869e-05 3.037098060e-05 3.037115250e-05 3.037132441e-05 3.037149631e-05 3.037166822e-05 3.037184012e-05 3.037201203e-05 3.037218393e-05 3.037235584e-05 3.037252741e-05 3.037268884e-05 3.037285026e-05 3.037301169e-05 3.037317312e-05 3.037333455e-05 3.037349597e-05 3.037365740e-05 3.037381883e-05 3.037398025e-05 3.037414168e-05 3.037430311e-05 3.037446453e-05 3.037462596e-05 3.037478739e-05 3.037494881e-05 3.037510987e-05 3.037526099e-05 3.037541210e-05 3.037556322e-05 3.037571434e-05 3.037586546e-05 3.037601657e-05 3.037616769e-05 3.037631881e-05 3.037646993e-05 3.037662105e-05 3.037677216e-05 3.037692328e-05 3.037707440e-05 3.037722552e-05 3.037737663e-05 3.037752734e-05 3.037766831e-05 3.037780928e-05 3.037795025e-05 3.037809122e-05 3.037823219e-05 3.037837317e-05 3.037851414e-05 3.037865511e-05 3.037879608e-05 3.037893705e-05 3.037907802e-05 3.037921899e-05 3.037935996e-05 3.037950093e-05 3.037964190e-05 3.037978242e-05 3.037991342e-05 3.038004441e-05 3.038017540e-05 3.038030640e-05 3.038043739e-05 3.038056838e-05 3.038069938e-05 3.038083037e-05 3.038096136e-05 3.038109236e-05 3.038122335e-05 3.038135434e-05 3.038148534e-05 3.038161633e-05 3.038174732e-05 3.038187783e-05 3.038199898e-05 3.038212013e-05 3.038224129e-05 3.038236244e-05 3.038248359e-05 3.038260475e-05 3.038272590e-05 3.038284705e-05 3.038296820e-05 3.038308936e-05 3.038321051e-05 3.038333166e-05 3.038345282e-05 3.038357397e-05 3.038369512e-05 3.038381575e-05 3.038392723e-05 3.038403871e-05 3.038415020e-05 3.038426168e-05 3.038437316e-05 3.038448464e-05 3.038459612e-05 3.038470760e-05 3.038481908e-05 3.038493057e-05 3.038504205e-05 3.038515353e-05 3.038526501e-05 3.038537649e-05 3.038548797e-05 3.038559889e-05 3.038570085e-05 3.038580280e-05 3.038590476e-05 3.038600671e-05 3.038610866e-05 3.038621062e-05 3.038631257e-05 3.038641453e-05 3.038651648e-05 3.038661843e-05 3.038672039e-05 3.038682234e-05 3.038692429e-05 3.038702625e-05 3.038712820e-05 3.038722956e-05 3.038732215e-05 3.038741474e-05 3.038750733e-05 3.038759992e-05 3.038769251e-05 3.038778509e-05 3.038787768e-05 3.038797027e-05 3.038806286e-05 3.038815545e-05 3.038824804e-05 3.038834063e-05 3.038843322e-05 3.038852580e-05 3.038861839e-05 3.038871036e-05 3.038879372e-05 3.038887708e-05 3.038896044e-05 3.038904380e-05 3.038912716e-05 3.038921052e-05 3.038929388e-05 3.038937724e-05 3.038946061e-05 3.038954397e-05 3.038962733e-05 3.038971069e-05 3.038979405e-05 3.038987741e-05 3.038996077e-05 3.039004348e-05 3.039011777e-05 3.039019207e-05 3.039026636e-05 3.039034066e-05 3.039041496e-05 3.039048925e-05 3.039056355e-05 3.039063784e-05 3.039071214e-05 3.039078644e-05 3.039086073e-05 3.039093503e-05 3.039100932e-05 3.039108362e-05 3.039115792e-05 3.039123153e-05 3.039129690e-05 3.039136228e-05 3.039142765e-05 3.039149303e-05 3.039155840e-05 3.039162378e-05 3.039168915e-05 3.039175452e-05 3.039181990e-05 3.039188527e-05 3.039195065e-05 3.039201602e-05 3.039208140e-05 3.039214677e-05 3.039221215e-05 3.039227681e-05 3.039233341e-05 3.039239002e-05 3.039244662e-05 3.039250322e-05 3.039255983e-05 3.039261643e-05 3.039267303e-05 3.039272964e-05 3.039278624e-05 3.039284284e-05 3.039289945e-05 3.039295605e-05 3.039301265e-05 3.039306926e-05 3.039312586e-05 3.039318172e-05 3.039322971e-05 3.039327769e-05 3.039332567e-05 3.039337365e-05 3.039342163e-05 3.039346962e-05 3.039351760e-05 3.039356558e-05 3.039361356e-05 3.039366155e-05 3.039370953e-05 3.039375751e-05 3.039380549e-05 3.039385348e-05 3.039390146e-05 3.039394867e-05 3.039398819e-05 3.039402770e-05 3.039406721e-05 3.039410672e-05 3.039414623e-05 3.039418574e-05 3.039422525e-05 3.039426476e-05 3.039430427e-05 3.039434379e-05 3.039438330e-05 3.039442281e-05 3.039446232e-05 3.039450183e-05 3.039454134e-05 3.039458006e-05 3.039461124e-05 3.039464242e-05 3.039467359e-05 3.039470477e-05 3.039473595e-05 3.039476713e-05 3.039479830e-05 3.039482948e-05 3.039486066e-05 3.039489184e-05 3.039492301e-05 3.039495419e-05 3.039498537e-05 3.039501655e-05 3.039504772e-05 3.039507809e-05 3.039510109e-05 3.039512409e-05 3.039514709e-05 3.039517009e-05 3.039519309e-05 3.039521609e-05 3.039523909e-05 3.039526209e-05 3.039528509e-05 3.039530809e-05 3.039533109e-05 3.039535409e-05 3.039537709e-05 3.039540009e-05 3.039542309e-05 3.039544526e-05 3.039546022e-05 3.039547519e-05 3.039549016e-05 3.039550512e-05 3.039552009e-05 3.039553506e-05 3.039555002e-05 3.039556499e-05 3.039557996e-05 3.039559492e-05 3.039560989e-05 3.039562486e-05 3.039563982e-05 3.039565479e-05 3.039566976e-05 3.039568387e-05 3.039569095e-05 3.039569802e-05 3.039570510e-05 3.039571218e-05 3.039571925e-05 3.039572633e-05 3.039573341e-05 3.039574048e-05 3.039574756e-05 3.039575464e-05 3.039576172e-05 3.039576879e-05 3.039577587e-05 3.039578295e-05 3.039579002e-05 3.039579622e-05 3.039579555e-05 3.039579487e-05 3.039579420e-05 3.039579352e-05 3.039579285e-05 3.039579217e-05 3.039579150e-05 3.039579082e-05 3.039579015e-05 3.039578947e-05 3.039578880e-05 3.039578812e-05 3.039578745e-05 3.039578677e-05 3.039578610e-05 3.039578453e-05 3.039577626e-05 3.039576799e-05 3.039575971e-05 3.039575144e-05 3.039574317e-05 3.039573490e-05 3.039572663e-05 3.039571836e-05 3.039571009e-05 3.0395701