<?xml version="1.0"?>
<VTKFile type="PolyData" version="0.1" byte_order="LittleEndian">
  <PolyData>
    <Piece NumberOfPoints="7142" NumberOfVerts="0" NumberOfLines="15" NumberOfStrips="0" NumberOfPolys="11408">
      <PointData Scalars="quadrature_difference_q_6_q_96">
        <DataArray type="Float32" Name="quadrature_difference_q_6_q_96" format="ascii">
          1.151343240e-17 1.151423920e-17 1.151504590e-17 1.151585260e-17 1.151665930e-17 1.151746580e-17 1.151827240e-17 1.151907880e-17 1.151988520e-17 1.152069160e-17 1.152149790e-17 1.152230410e-17 1.152311030e-17 1.152391640e-17 1.152472250e-17 1.152552850e-17 1.152633440e-17 1.152714030e-17 1.152794620e-17 1.152875200e-17 1.152955770e-17 1.153036340e-17 1.153116900e-17 1.153197450e-17 1.153278000e-17 1.153358550e-17 1.153439090e-17 1.153519620e-17 1.153600150e-17 1.153680670e-17 1.153761190e-17 1.153841700e-17 1.153922200e-17 1.154002700e-17 1.154083200e-17 1.154163690e-17 1.154244170e-17 1.154324650e-17 1.154405120e-17 1.154485580e-17 1.154566040e-17 1.154646500e-17 1.154726950e-17 1.154807390e-17 1.154887830e-17 1.154968260e-17 1.155048690e-17 1.155129110e-17 1.155209530e-17 1.155289940e-17 1.155370340e-17 1.155450740e-17 1.155531130e-17 1.155611520e-17 1.155691900e-17 1.155772280e-17 1.155852650e-17 1.155933020e-17 1.156013380e-17 1.156093730e-17 1.156174080e-17 1.156254420e-17 1.156334760e-17 1.156415090e-17 1.156495420e-17 1.156575740e-17 1.156656050e-17 1.156736360e-17 1.156816670e-17 1.156896960e-17 1.156977260e-17 1.157057540e-17 1.157137830e-17 1.157218100e-17 1.157298370e-17 1.157378640e-17 1.157458900e-17 1.157539150e-17 1.157619400e-17 1.157699640e-17 1.157779880e-17 1.157860110e-17 1.157940340e-17 1.158020560e-17 1.158100770e-17 1.158180980e-17 1.158261180e-17 1.158341380e-17 1.158421570e-17 1.158501760e-17 1.158581940e-17 1.158662120e-17 1.158742290e-17 1.158822460e-17 1.158902610e-17 1.158982770e-17 1.159062920e-17 1.159143060e-17 1.159223200e-17 1.159303330e-17 1.159383450e-17 1.159463570e-17 1.159543690e-17 1.159623800e-17 1.159703900e-17 1.159784000e-17 1.159864090e-17 1.159944180e-17 1.160024260e-17 1.160104340e-17 1.160184410e-17 1.160264480e-17 1.160344540e-17 1.160424590e-17 1.160504640e-17 1.160584680e-17 1.160664720e-17 1.160744750e-17 1.160824780e-17 1.160904800e-17 1.160984820e-17 1.161064830e-17 1.161144830e-17 1.161224830e-17 1.161304820e-17 1.161384810e-17 1.161464790e-17 1.161544770e-17 1.161624740e-17 1.161704710e-17 1.161784670e-17 1.161864620e-17 1.161944570e-17 1.162024520e-17 1.162104460e-17 1.162184390e-17 1.162264320e-17 1.162344240e-17 1.162424150e-17 1.162504070e-17 1.162583970e-17 1.162663870e-17 1.162743770e-17 1.162823650e-17 1.162903540e-17 1.162983420e-17 1.163063290e-17 1.163143160e-17 1.163223020e-17 1.163302870e-17 1.163382720e-17 1.163462570e-17 1.163542410e-17 1.163622240e-17 1.163702070e-17 1.163781900e-17 1.163861710e-17 1.163941530e-17 1.164021330e-17 1.164101130e-17 1.164180930e-17 1.164260720e-17 1.164340510e-17 1.164420280e-17 1.164500060e-17 1.164579830e-17 1.164659590e-17 1.164739350e-17 1.164819100e-17 1.164898850e-17 1.164978590e-17 1.165058320e-17 1.165138050e-17 1.165217780e-17 1.165297500e-17 1.165377210e-17 1.165456920e-17 1.165536620e-17 1.165616320e-17 1.165696010e-17 1.165775700e-17 1.165855380e-17 1.165935060e-17 1.166014730e-17 1.166094390e-17 1.166174050e-17 1.166253710e-17 1.166333360e-17 1.166413000e-17 1.166492640e-17 1.166572270e-17 1.166651900e-17 1.166731520e-17 1.166811130e-17 1.166890740e-17 1.166970350e-17 1.167049950e-17 1.167129540e-17 1.167209130e-17 1.167288720e-17 1.167368290e-17 1.167447870e-17 1.167527430e-17 1.167606990e-17 1.167686550e-17 1.167766100e-17 1.167845650e-17 1.167925190e-17 1.168004720e-17 1.168084250e-17 1.168163780e-17 1.168243290e-17 1.168322810e-17 1.168402310e-17 1.168481820e-17 1.168561310e-17 1.168640800e-17 1.168720290e-17 1.168799770e-17 1.168879250e-17 1.168958720e-17 1.169038180e-17 1.169117640e-17 1.169197090e-17 1.169276540e-17 1.169355980e-17 1.169435420e-17 1.169514850e-17 1.169594280e-17 1.169673700e-17 1.169753120e-17 1.169832530e-17 1.169911930e-17 1.169991330e-17 1.170070730e-17 1.170150110e-17 1.170229500e-17 1.170308880e-17 1.170388250e-17 1.170467620e-17 1.170546980e-17 1.170626330e-17 1.170705690e-17 1.170785030e-17 1.170864370e-17 1.170943710e-17 1.171023040e-17 1.171102360e-17 1.171181680e-17 1.171260990e-17 1.171340300e-17 1.171419600e-17 1.171498900e-17 1.171578190e-17 1.171657480e-17 1.171736760e-17 1.171816040e-17 1.171895310e-17 1.171974570e-17 1.172053830e-17 1.172133090e-17 1.172212340e-17 1.172291580e-17 1.172370820e-17 1.172450050e-17 1.172529280e-17 1.172608500e-17 1.172687720e-17 1.172766930e-17 1.172846140e-17 1.172925340e-17 1.173004530e-17 1.173083720e-17 1.173162910e-17 1.173242090e-17 1.173321260e-17 1.173400430e-17 1.173479600e-17 1.173558750e-17 1.173637910e-17 1.173717050e-17 1.173796200e-17 1.173875330e-17 1.173954460e-17 1.174033590e-17 1.174112710e-17 1.174191830e-17 1.174270940e-17 1.174350040e-17 1.174429140e-17 1.174508240e-17 1.174587330e-17 1.174666410e-17 1.174745490e-17 1.174824560e-17 1.174903630e-17 1.174982690e-17 1.175061750e-17 1.175140800e-17 1.175219840e-17 1.175298890e-17 1.175377920e-17 1.175456950e-17 1.175535980e-17 1.175615000e-17 1.175694010e-17 1.175773020e-17 1.175852020e-17 1.175931020e-17 1.176010020e-17 1.176089000e-17 1.176167990e-17 1.176246960e-17 1.176325940e-17 1.176404900e-17 1.176483860e-17 1.176562820e-17 1.176641770e-17 1.176720720e-17 1.176799660e-17 1.176878590e-17 1.176957520e-17 1.177036450e-17 1.177115360e-17 1.177194280e-17 1.177273190e-17 1.177352090e-17 1.177430990e-17 1.177509880e-17 1.177588770e-17 1.177667650e-17 1.177746530e-17 1.177825400e-17 1.177904260e-17 1.177983120e-17 1.178061980e-17 1.178140830e-17 1.178219680e-17 1.178298520e-17 1.178377350e-17 1.178456180e-17 1.178535000e-17 1.178613820e-17 1.178692640e-17 1.178771440e-17 1.178850250e-17 1.178929040e-17 1.179007840e-17 1.179086620e-17 1.179165410e-17 1.179244180e-17 1.179322950e-17 1.179401720e-17 1.179480480e-17 1.179559240e-17 1.179637990e-17 1.179716730e-17 1.179795470e-17 1.179874200e-17 1.179952930e-17 1.180031660e-17 1.180110380e-17 1.180189090e-17 1.180267800e-17 1.180346500e-17 1.180425200e-17 1.180503890e-17 1.180582580e-17 1.180661260e-17 1.180739940e-17 1.180818610e-17 1.180897280e-17 1.180975940e-17 1.181054590e-17 1.181133240e-17 1.181211890e-17 1.181290530e-17 1.181369160e-17 1.181447790e-17 1.181526420e-17 1.181605040e-17 1.181683650e-17 1.181762260e-17 1.181840860e-17 1.181919460e-17 1.181998050e-17 1.182076640e-17 1.182155220e-17 1.182233800e-17 1.182312370e-17 1.182390940e-17 1.182469500e-17 1.182548060e-17 1.182626610e-17 1.182705160e-17 1.182783700e-17 1.182862230e-17 1.182940760e-17 1.183019290e-17 1.183097810e-17 1.183176320e-17 1.183254830e-17 1.183333340e-17 1.183411840e-17 1.183490330e-17 1.183568820e-17 1.183647300e-17 1.183725780e-17 1.183804250e-17 1.183882720e-17 1.183961180e-17 1.184039640e-17 1.184118090e-17 1.184196540e-17 1.184274980e-17 1.184353420e-17 1.184431850e-17 1.184510280e-17 1.184588700e-17 1.184667110e-17 1.184745520e-17 1.184823930e-17 1.184902330e-17 1.184980730e-17 1.185059120e-17 1.185137500e-17 1.185215880e-17 1.185294250e-17 1.185372620e-17 1.185450990e-17 1.185529350e-17 1.185607700e-17 1.185686050e-17 1.185764390e-17 1.185842730e-17 1.185921060e-17 1.185999390e-17 1.186077710e-17 1.186156030e-17 1.186234340e-17 1.186312650e-17 1.186390950e-17 1.186469250e-17 1.186547540e-17 1.186625830e-17 1.186704110e-17 1.186782390e-17 1.186860660e-17 1.186938920e-17 1.187017180e-17 1.187095440e-17 1.187173690e-17 1.187251930e-17 1.187330170e-17 1.187408410e-17 1.187486640e-17 1.187564860e-17 1.187643080e-17 1.187721300e-17 1.187799510e-17 1.187877710e-17 1.187955910e-17 1.188034100e-17 1.188112290e-17 1.188190470e-17 1.188268650e-17 1.188346830e-17 1.188424990e-17 1.188503160e-17 1.188581310e-17 1.188659470e-17 1.188737610e-17 1.188815760e-17 1.188893890e-17 1.188972030e-17 1.189050150e-17 1.189128270e-17 1.189206390e-17 1.189284500e-17 1.189362610e-17 1.189440710e-17 1.189518810e-17 1.189596900e-17 1.189674980e-17 1.189753060e-17 1.189831140e-17 1.189909210e-17 1.189987270e-17 1.190065330e-17 1.190143390e-17 1.190221440e-17 1.190299480e-17 1.190377520e-17 1.190455560e-17 1.190533590e-17 1.190611610e-17 1.190689630e-17 1.190767650e-17 1.190845650e-17 1.190923660e-17 1.191001660e-17 1.191079650e-17 1.191157640e-17 1.191235620e-17 1.191313600e-17 1.191391580e-17 1.191469540e-17 1.191547510e-17 1.191625460e-17 1.191703420e-17 1.191781370e-17 1.191859310e-17 1.191937250e-17 1.192015180e-17 1.192093110e-17 1.192171030e-17 1.192248940e-17 1.192326860e-17 1.192404760e-17 1.192482670e-17 1.192560560e-17 1.192638450e-17 1.192716340e-17 1.192794220e-17 1.192872100e-17 1.192949970e-17 1.193027840e-17 1.193105700e-17 1.193183550e-17 1.193261410e-17 1.193339250e-17 1.193417090e-17 1.193494930e-17 1.193572760e-17 1.193650590e-17 1.193728410e-17 1.193806220e-17 1.193884030e-17 1.193961840e-17 1.194039640e-17 1.194117430e-17 1.194195220e-17 1.194273010e-17 1.194350790e-17 1.194428560e-17 1.194506330e-17 1.194584100e-17 1.194661860e-17 1.194739610e-17 1.194817360e-17 1.194895110e-17 1.194972850e-17 1.195050580e-17 1.195128310e-17 1.195206040e-17 1.195283750e-17 1.195361470e-17 1.195439180e-17 1.195516880e-17 1.195594580e-17 1.195672280e-17 1.195749970e-17 1.195827650e-17 1.195905330e-17 1.195983000e-17 1.196060670e-17 1.196138330e-17 1.196215990e-17 1.196293650e-17 1.196371300e-17 1.196448940e-17 1.196526580e-17 1.196604210e-17 1.196681840e-17 1.196759460e-17 1.196837080e-17 1.196914700e-17 1.196992300e-17 1.197069910e-17 1.197147510e-17 1.197225100e-17 1.197302690e-17 1.197380270e-17 1.197457850e-17 1.197535420e-17 1.197612990e-17 1.197690550e-17 1.197768110e-17 1.197845670e-17 1.197923210e-17 1.198000760e-17 1.198078290e-17 1.198155830e-17 1.198233360e-17 1.198310880e-17 1.198388400e-17 1.198465910e-17 1.198543420e-17 1.198620920e-17 1.198698420e-17 1.198775910e-17 1.198853400e-17 1.198930880e-17 1.199008360e-17 1.199085830e-17 1.199163300e-17 1.199240760e-17 1.199318220e-17 1.199395680e-17 1.199473120e-17 1.199550570e-17 1.199628000e-17 1.199705440e-17 1.199782860e-17 1.199860290e-17 1.199937710e-17 1.200015120e-17 1.200092530e-17 1.200169930e-17 1.200247330e-17 1.200324720e-17 1.200402110e-17 1.200479490e-17 1.200556870e-17 1.200634240e-17 1.200711610e-17 1.200788970e-17 1.200866330e-17 1.200943680e-17 1.201021030e-17 1.201098380e-17 1.201175710e-17 1.201253050e-17 1.201330380e-17 1.201407700e-17 1.201485020e-17 1.201562330e-17 1.201639640e-17 1.201716940e-17 1.201794240e-17 1.201871530e-17 1.201948820e-17 1.202026110e-17 1.202103380e-17 1.202180660e-17 1.202257930e-17 1.202335190e-17 1.202412450e-17 1.202489700e-17 1.202566950e-17 1.202644190e-17 1.202721430e-17 1.202798670e-17 1.202875890e-17 1.202953120e-17 1.203030340e-17 1.203107550e-17 1.203184760e-17 1.203261960e-17 1.203339160e-17 1.203416360e-17 1.203493550e-17 1.203570730e-17 1.203647910e-17 1.203725080e-17 1.203802250e-17 1.203879420e-17 1.203956580e-17 1.204033730e-17 1.204110880e-17 1.204188030e-17 1.204265170e-17 1.204342300e-17 1.204419430e-17 1.204496560e-17 1.204573680e-17 1.204650790e-17 1.204727900e-17 1.204805010e-17 1.204882110e-17 1.204959200e-17 1.205036290e-17 1.205113380e-17 1.205190460e-17 1.205267530e-17 1.205344600e-17 1.205421670e-17 1.205498730e-17 1.205575790e-17 1.205652840e-17 1.205729880e-17 1.205806920e-17 1.205883960e-17 1.205960990e-17 1.206038020e-17 1.206115040e-17 1.206192060e-17 1.206269070e-17 1.206346070e-17 1.206423080e-17 1.206500070e-17 1.206577060e-17 1.206654050e-17 1.206731030e-17 1.206808010e-17 1.206884980e-17 1.206961950e-17 1.207038910e-17 1.207115870e-17 1.207192820e-17 1.207269770e-17 1.207346710e-17 1.207423650e-17 1.207500580e-17 1.207577510e-17 1.207654440e-17 1.207731350e-17 1.207808270e-17 1.207885180e-17 1.207962080e-17 1.208038980e-17 1.208115870e-17 1.208192760e-17 1.208269650e-17 1.208346520e-17 1.208423400e-17 1.208500270e-17 1.208577130e-17 1.208653990e-17 1.208730850e-17 1.208807700e-17 1.208884540e-17 1.208961380e-17 1.209038220e-17 1.209115050e-17 1.209191870e-17 1.209268690e-17 1.209345510e-17 1.209422320e-17 1.209499130e-17 1.209575930e-17 1.209652720e-17 1.209729510e-17 1.209806300e-17 1.209883080e-17 1.209959860e-17 1.210036630e-17 1.210113400e-17 1.210190160e-17 1.210266920e-17 1.210343670e-17 1.210420420e-17 1.210497160e-17 1.210573900e-17 1.210650630e-17 1.210727360e-17 1.210804080e-17 1.210880800e-17 1.210957510e-17 1.211034220e-17 1.211110920e-17 1.211187620e-17 1.211264320e-17 1.211341010e-17 1.211417690e-17 1.211494370e-17 1.211571040e-17 1.211647710e-17 1.211724380e-17 1.211801040e-17 1.211877690e-17 1.211954340e-17 1.212030990e-17 1.212107630e-17 1.212184260e-17 1.212260900e-17 1.212337520e-17 1.212414140e-17 1.212490760e-17 1.212567370e-17 1.212643980e-17 1.212720580e-17 1.212797180e-17 1.212873770e-17 1.212950360e-17 1.213026940e-17 1.213103520e-17 1.213180090e-17 1.213256660e-17 1.213333220e-17 1.213409780e-17 1.213486330e-17 1.213562880e-17 1.213639420e-17 1.213715960e-17 1.213792500e-17 1.213869030e-17 1.213945550e-17 1.214022070e-17 1.214098590e-17 1.214175100e-17 1.214251600e-17 1.214328100e-17 1.214404600e-17 1.214481090e-17 1.214557570e-17 1.214634060e-17 1.214710530e-17 1.214787000e-17 1.214863470e-17 1.214939930e-17 1.215016390e-17 1.215092840e-17 1.215169290e-17 1.215245730e-17 1.215322170e-17 1.215398600e-17 1.215475030e-17 1.215551450e-17 1.215627870e-17 1.215704290e-17 1.215780700e-17 1.215857100e-17 1.215933500e-17 1.216009890e-17 1.216086280e-17 1.216162670e-17 1.216239050e-17 1.216315420e-17 1.216391790e-17 1.216468160e-17 1.216544520e-17 1.216620880e-17 1.216697230e-17 1.216773580e-17 1.216849920e-17 1.216926260e-17 1.217002590e-17 1.217078910e-17 1.217155240e-17 1.217231560e-17 1.217307870e-17 1.217384180e-17 1.217460480e-17 1.217536780e-17 1.217613070e-17 1.217689360e-17 1.217765650e-17 1.217841930e-17 1.217918200e-17 1.217994470e-17 1.218070740e-17 1.218147000e-17 1.218223250e-17 1.218299500e-17 1.218375750e-17 1.218451990e-17 1.218528230e-17 1.218604460e-17 1.218680690e-17 1.218756910e-17 1.218833130e-17 1.218909340e-17 1.218985550e-17 1.219061750e-17 1.219137950e-17 1.219214150e-17 1.219290330e-17 1.219366520e-17 1.219442700e-17 1.219518870e-17 1.219595040e-17 1.219671210e-17 1.219747370e-17 1.219823520e-17 1.219899680e-17 1.219975820e-17 1.220051960e-17 1.220128100e-17 1.220204230e-17 1.220280360e-17 1.220356480e-17 1.220432600e-17 1.220508710e-17 1.220584820e-17 1.220660920e-17 1.220737020e-17 1.220813120e-17 1.220889210e-17 1.220965290e-17 1.221041370e-17 1.221117450e-17 1.221193520e-17 1.221269580e-17 1.221345640e-17 1.221421700e-17 1.221497750e-17 1.221573800e-17 1.221649840e-17 1.221725880e-17 1.221801910e-17 1.221877940e-17 1.221953960e-17 1.222029980e-17 1.222105990e-17 1.222182000e-17 1.222258000e-17 1.222334000e-17 1.222410000e-17 1.222485990e-17 1.222561970e-17 1.222637950e-17 1.222713930e-17 1.222789900e-17 1.222865870e-17 1.222941830e-17 1.223017780e-17 1.223093740e-17 1.223169680e-17 1.223245630e-17 1.223321560e-17 1.223397500e-17 1.223473430e-17 1.223549350e-17 1.223625270e-17 1.223701180e-17 1.223777090e-17 1.223853000e-17 1.223928900e-17 1.224004790e-17 1.224080690e-17 1.224156570e-17 1.224232450e-17 1.224308330e-17 1.224384200e-17 1.224460070e-17 1.224535930e-17 1.224611790e-17 1.224687640e-17 1.224763490e-17 1.224839340e-17 1.224915170e-17 1.224991010e-17 1.225066840e-17 1.225142660e-17 1.225218480e-17 1.225294300e-17 1.225370110e-17 1.225445920e-17 1.225521720e-17 1.225597520e-17 1.225673310e-17 1.225749100e-17 1.225824880e-17 1.225900660e-17 1.225976430e-17 1.226052200e-17 1.226127960e-17 1.226203720e-17 1.226279480e-17 1.226355230e-17 1.226430970e-17 1.226506710e-17 1.226582450e-17 1.226658180e-17 1.226733910e-17 1.226809630e-17 1.226885350e-17 1.226961060e-17 1.227036770e-17 1.227112470e-17 1.227188170e-17 1.227263870e-17 1.227339550e-17 1.227415240e-17 1.227490920e-17 1.227566590e-17 1.227642270e-17 1.227717930e-17 1.227793590e-17 1.227869250e-17 1.227944900e-17 1.228020550e-17 1.228096190e-17 1.228171830e-17 1.228247460e-17 1.228323090e-17 1.228398720e-17 1.228474340e-17 1.228549950e-17 1.228625560e-17 1.228701170e-17 1.228776770e-17 1.228852360e-17 1.228927950e-17 1.229003540e-17 1.229079120e-17 1.229154700e-17 1.229230270e-17 1.229305840e-17 1.229381410e-17 1.229456970e-17 1.229532520e-17 1.229608070e-17 1.229683610e-17 1.229759150e-17 1.229834690e-17 1.229910220e-17 1.229985750e-17 1.230061270e-17 1.230136790e-17 1.230212300e-17 1.230287810e-17 1.230363310e-17 1.230438810e-17 1.230514300e-17 1.230589790e-17 1.230665280e-17 1.230740760e-17 1.230816230e-17 1.230891700e-17 1.230967170e-17 1.231042630e-17 1.231118090e-17 1.231193540e-17 1.231268990e-17 1.231344430e-17 1.231419870e-17 1.231495310e-17 1.231570740e-17 1.231646160e-17 1.231721580e-17 1.231797000e-17 1.231872410e-17 1.231947810e-17 1.232023210e-17 1.232098610e-17 1.232174000e-17 1.232249390e-17 1.232324770e-17 1.232400150e-17 1.232475530e-17 1.232550900e-17 1.232626260e-17 1.232701620e-17 1.232776980e-17 1.232852330e-17 1.232927670e-17 1.233003020e-17 1.233078350e-17 1.233153680e-17 1.233229010e-17 1.233304340e-17 1.233379650e-17 1.233454970e-17 1.233530280e-17 1.233605580e-17 1.233680880e-17 1.233756180e-17 1.233831470e-17 1.233906760e-17 1.233982040e-17 1.234057320e-17 1.234132590e-17 1.234207860e-17 1.234283120e-17 1.234358380e-17 1.234433630e-17 1.234508880e-17 1.234584130e-17 1.234659370e-17 1.234734610e-17 1.234809840e-17 1.234885060e-17 1.234960290e-17 1.235035500e-17 1.235110720e-17 1.235185930e-17 1.235261130e-17 1.235336330e-17 1.235411520e-17 1.235486710e-17 1.235561900e-17 1.235637080e-17 1.235712260e-17 1.235787430e-17 1.235862600e-17 1.235937760e-17 1.236012920e-17 1.236088070e-17 1.236163220e-17 1.236238360e-17 1.236313500e-17 1.236388640e-17 1.236463770e-17 1.236538900e-17 1.236614020e-17 1.236689140e-17 1.236764250e-17 1.236839360e-17 1.236914460e-17 1.236989560e-17 1.237064650e-17 1.237139740e-17 1.237214830e-17 1.237289910e-17 1.237364980e-17 1.237440060e-17 1.237515120e-17 1.237590190e-17 1.237665240e-17 1.237740300e-17 1.237815350e-17 1.237890390e-17 1.237965430e-17 1.238040460e-17 1.238115490e-17 1.238190520e-17 1.238265540e-17 1.238340560e-17 1.238415570e-17 1.238490580e-17 1.238565580e-17 1.238640580e-17 1.238715580e-17 1.238790570e-17 1.238865550e-17 1.238940530e-17 1.239015510e-17 1.239090480e-17 1.239165450e-17 1.239240410e-17 1.239315370e-17 1.239390320e-17 1.239465270e-17 1.239540210e-17 1.239615150e-17 1.239690090e-17 1.239765020e-17 1.239839940e-17 1.239914870e-17 1.239989780e-17 1.240064700e-17 1.240139600e-17 1.240214510e-17 1.240289410e-17 1.240364300e-17 1.240439190e-17 1.240514080e-17 1.240588960e-17 1.240663830e-17 1.240738710e-17 1.240813570e-17 1.240888440e-17 1.240963290e-17 1.241038150e-17 1.241113000e-17 1.241187840e-17 1.241262680e-17 1.241337520e-17 1.241412350e-17 1.241487180e-17 1.241562000e-17 1.241636820e-17 1.241711630e-17 1.241786440e-17 1.241861240e-17 1.241936040e-17 1.242010840e-17 1.242085630e-17 1.242160420e-17 1.242235200e-17 1.242309970e-17 1.242384750e-17 1.242459520e-17 1.242534280e-17 1.242609040e-17 1.242683790e-17 1.242758540e-17 1.242833290e-17 1.242908030e-17 1.242982770e-17 1.243057500e-17 1.243132230e-17 1.243206950e-17 1.243281670e-17 1.243356380e-17 1.243431090e-17 1.243505800e-17 1.243580500e-17 1.243655200e-17 1.243729890e-17 1.243804570e-17 1.243879260e-17 1.243953940e-17 1.244028610e-17 1.244103280e-17 1.244177940e-17 1.244252600e-17 1.244327260e-17 1.244401910e-17 1.244476560e-17 1.244551200e-17 1.244625840e-17 1.244700470e-17 1.244775100e-17 1.244849730e-17 1.244924350e-17 1.244998960e-17 1.245073570e-17 1.245148180e-17 1.245222780e-17 1.245297380e-17 1.245371970e-17 1.245446560e-17 1.245521150e-17 1.245595730e-17 1.245670300e-17 1.245744870e-17 1.245819440e-17 1.245894000e-17 1.245968560e-17 1.246043110e-17 1.246117660e-17 1.246192210e-17 1.246266750e-17 1.246341280e-17 1.246415810e-17 1.246490340e-17 1.246564860e-17 1.246639380e-17 1.246713890e-17 1.246788400e-17 1.246862900e-17 1.246937400e-17 1.247011900e-17 1.247086390e-17 1.247160880e-17 1.247235360e-17 1.247309840e-17 1.247384310e-17 1.247458780e-17 1.247533240e-17 1.247607700e-17 1.247682160e-17 1.247756610e-17 1.247831050e-17 1.247905500e-17 1.247979930e-17 1.248054370e-17 1.248128790e-17 1.248203220e-17 1.248277640e-17 1.248352050e-17 1.248426460e-17 1.248500870e-17 1.248575270e-17 1.248649670e-17 1.248724060e-17 1.248798450e-17 1.248872840e-17 1.248947220e-17 1.249021590e-17 1.249095960e-17 1.249170330e-17 1.249244690e-17 1.249319050e-17 1.249393400e-17 1.249467750e-17 1.249542100e-17 1.249616440e-17 1.249690770e-17 1.249765100e-17 1.249839430e-17 1.249913750e-17 1.249988070e-17 1.250062380e-17 1.250136690e-17 1.250211000e-17 1.250285300e-17 1.250359590e-17 1.250433880e-17 1.250508170e-17 1.250582450e-17 1.250656730e-17 1.250731000e-17 1.250805270e-17 1.250879540e-17 1.250953800e-17 1.251028060e-17 1.251102310e-17 1.251176550e-17 1.251250800e-17 1.251325040e-17 1.251399270e-17 1.251473500e-17 1.251547720e-17 1.251621950e-17 1.251696160e-17 1.251770370e-17 1.251844580e-17 1.251918790e-17 1.251992980e-17 1.252067180e-17 1.252141370e-17 1.252215550e-17 1.252289740e-17 1.252363910e-17 1.252438080e-17 1.252512250e-17 1.252586420e-17 1.252660580e-17 1.252734730e-17 1.252808880e-17 1.252883030e-17 1.252957170e-17 1.253031310e-17 1.253105440e-17 1.253179570e-17 1.253253690e-17 1.253327810e-17 1.253401930e-17 1.253476040e-17 1.253550150e-17 1.253624250e-17 1.253698350e-17 1.253772440e-17 1.253846530e-17 1.253920610e-17 1.253994690e-17 1.254068770e-17 1.254142840e-17 1.254216910e-17 1.254290970e-17 1.254365030e-17 1.254439080e-17 1.254513130e-17 1.254587180e-17 1.254661220e-17 1.254735260e-17 1.254809290e-17 1.254883320e-17 1.254957340e-17 1.255031360e-17 1.255105370e-17 1.255179390e-17 1.255253390e-17 1.255327390e-17 1.255401390e-17 1.255475380e-17 1.255549370e-17 1.255623360e-17 1.255697340e-17 1.255771310e-17 1.255845280e-17 1.255919250e-17 1.255993210e-17 1.256067170e-17 1.256141120e-17 1.256215070e-17 1.256289020e-17 1.256362960e-17 1.256436900e-17 1.256510830e-17 1.256584760e-17 1.256658680e-17 1.256732600e-17 1.256806510e-17 1.256880420e-17 1.256954330e-17 1.257028230e-17 1.257102130e-17 1.257176020e-17 1.257249910e-17 1.257323790e-17 1.257397670e-17 1.257471550e-17 1.257545420e-17 1.257619290e-17 1.257693150e-17 1.257767010e-17 1.257840860e-17 1.257914710e-17 1.257988560e-17 1.258062400e-17 1.258136230e-17 1.258210070e-17 1.258283890e-17 1.258357720e-17 1.258431540e-17 1.258505350e-17 1.258579160e-17 1.258652970e-17 1.258726770e-17 1.258800570e-17 1.258874360e-17 1.258948150e-17 1.259021940e-17 1.259095720e-17 1.259169490e-17 1.259243260e-17 1.259317030e-17 1.259390790e-17 1.259464550e-17 1.259538310e-17 1.259612060e-17 1.259685800e-17 1.259759540e-17 1.259833280e-17 1.259907010e-17 1.259980740e-17 1.260054470e-17 1.260128190e-17 1.260201900e-17 1.260275610e-17 1.260349320e-17 1.260423020e-17 1.260496720e-17 1.260570410e-17 1.260644100e-17 1.260717790e-17 1.260791470e-17 1.260865150e-17 1.260938820e-17 1.261012490e-17 1.261086150e-17 1.261159810e-17 1.346431750e-17 1.346526100e-17 1.346620450e-17 1.346714790e-17 1.346809120e-17 1.346903440e-17 1.346997760e-17 1.347092070e-17 1.347186380e-17 1.347280670e-17 1.347374960e-17 1.347469250e-17 1.347563530e-17 1.347657800e-17 1.347752060e-17 1.347846320e-17 1.347940570e-17 1.348034820e-17 1.348129060e-17 1.348223290e-17 1.348317520e-17 1.348411730e-17 1.348505950e-17 1.348600150e-17 1.348694350e-17 1.348788540e-17 1.348882730e-17 1.348976910e-17 1.349071080e-17 1.349165250e-17 1.349259410e-17 1.349353560e-17 1.349447710e-17 1.349541850e-17 1.349635980e-17 1.349730110e-17 1.349824230e-17 1.349918340e-17 1.350012450e-17 1.350106550e-17 1.350200640e-17 1.350294730e-17 1.350388810e-17 1.350482890e-17 1.350576950e-17 1.350671020e-17 1.350765070e-17 1.350859120e-17 1.350953160e-17 1.351047200e-17 1.351141220e-17 1.351235250e-17 1.351329260e-17 1.351423270e-17 1.351517270e-17 1.351611270e-17 1.351705260e-17 1.351799240e-17 1.351893220e-17 1.351987190e-17 1.352081150e-17 1.352175110e-17 1.352269060e-17 1.352363000e-17 1.352456940e-17 1.352550870e-17 1.352644790e-17 1.352738710e-17 1.352832620e-17 1.352926520e-17 1.353020420e-17 1.353114310e-17 1.353208200e-17 1.353302080e-17 1.353395950e-17 1.353489810e-17 1.353583670e-17 1.353677530e-17 1.353771370e-17 1.353865210e-17 1.353959040e-17 1.354052870e-17 1.354146690e-17 1.354240500e-17 1.354334310e-17 1.354428110e-17 1.354521900e-17 1.354615690e-17 1.354709470e-17 1.354803250e-17 1.354897010e-17 1.354990780e-17 1.355084530e-17 1.355178280e-17 1.355272020e-17 1.355365760e-17 1.355459490e-17 1.355553210e-17 1.355646920e-17 1.355740630e-17 1.355834340e-17 1.355928030e-17 1.356021720e-17 1.356115410e-17 1.356209080e-17 1.356302750e-17 1.356396420e-17 1.356490080e-17 1.356583730e-17 1.356677370e-17 1.356771010e-17 1.356864640e-17 1.356958270e-17 1.357051890e-17 1.357145500e-17 1.357239110e-17 1.357332710e-17 1.357426300e-17 1.357519890e-17 1.357613470e-17 1.357707040e-17 1.357800610e-17 1.357894170e-17 1.357987720e-17 1.358081270e-17 1.358174810e-17 1.358268350e-17 1.358361880e-17 1.358455400e-17 1.358548910e-17 1.358642420e-17 1.358735930e-17 1.358829420e-17 1.358922910e-17 1.359016400e-17 1.359109870e-17 1.359203340e-17 1.359296810e-17 1.359390270e-17 1.359483720e-17 1.359577160e-17 1.359670600e-17 1.359764030e-17 1.359857460e-17 1.359950880e-17 1.360044290e-17 1.360137700e-17 1.360231100e-17 1.360324490e-17 1.360417880e-17 1.360511260e-17 1.360604630e-17 1.360698000e-17 1.360791360e-17 1.360884720e-17 1.360978070e-17 1.361071410e-17 1.361164750e-17 1.361258080e-17 1.361351400e-17 1.361444720e-17 1.361538030e-17 1.361631330e-17 1.361724630e-17 1.361817920e-17 1.361911210e-17 1.362004480e-17 1.362097760e-17 1.362191020e-17 1.362284280e-17 1.362377530e-17 1.362470780e-17 1.362564020e-17 1.362657250e-17 1.362750480e-17 1.362843700e-17 1.362936920e-17 1.363030130e-17 1.363123330e-17 1.363216520e-17 1.363309710e-17 1.363402900e-17 1.363496070e-17 1.363589240e-17 1.363682410e-17 1.363775560e-17 1.363868710e-17 1.363961860e-17 1.364055000e-17 1.364148130e-17 1.364241250e-17 1.364334370e-17 1.364427490e-17 1.364520590e-17 1.364613690e-17 1.364706790e-17 1.364799870e-17 1.364892960e-17 1.364986030e-17 1.365079100e-17 1.365172160e-17 1.365265220e-17 1.365358270e-17 1.365451310e-17 1.365544350e-17 1.365637380e-17 1.365730400e-17 1.365823420e-17 1.365916430e-17 1.366009430e-17 1.366102430e-17 1.366195430e-17 1.366288410e-17 1.366381390e-17 1.366474360e-17 1.366567330e-17 1.366660290e-17 1.366753250e-17 1.366846190e-17 1.366939140e-17 1.367032070e-17 1.367125000e-17 1.367217920e-17 1.367310840e-17 1.367403750e-17 1.367496650e-17 1.367589550e-17 1.367682440e-17 1.367775330e-17 1.367868210e-17 1.367961080e-17 1.368053950e-17 1.368146800e-17 1.368239660e-17 1.368332510e-17 1.368425350e-17 1.368518180e-17 1.368611010e-17 1.368703830e-17 1.368796650e-17 1.368889460e-17 1.368982260e-17 1.369075060e-17 1.369167850e-17 1.369260630e-17 1.369353410e-17 1.369446180e-17 1.369538940e-17 1.369631700e-17 1.369724460e-17 1.369817200e-17 1.369909940e-17 1.370002680e-17 1.370095400e-17 1.370188130e-17 1.370280840e-17 1.370373550e-17 1.370466250e-17 1.370558950e-17 1.370651640e-17 1.370744320e-17 1.370837000e-17 1.370929670e-17 1.371022340e-17 1.371114990e-17 1.371207650e-17 1.371300290e-17 1.371392930e-17 1.371485570e-17 1.371578190e-17 1.371670820e-17 1.371763430e-17 1.371856040e-17 1.371948640e-17 1.372041240e-17 1.372133830e-17 1.372226410e-17 1.372318990e-17 1.372411560e-17 1.372504120e-17 1.372596680e-17 1.372689240e-17 1.372781780e-17 1.372874320e-17 1.372966860e-17 1.373059380e-17 1.373151900e-17 1.373244420e-17 1.373336930e-17 1.373429430e-17 1.373521930e-17 1.373614420e-17 1.373706900e-17 1.373799380e-17 1.373891850e-17 1.373984310e-17 1.374076770e-17 1.374169230e-17 1.374261670e-17 1.374354110e-17 1.374446550e-17 1.374538970e-17 1.374631400e-17 1.374723810e-17 1.374816220e-17 1.374908620e-17 1.375001020e-17 1.375093410e-17 1.375185800e-17 1.375278170e-17 1.375370550e-17 1.375462910e-17 1.375555270e-17 1.375647620e-17 1.375739970e-17 1.375832310e-17 1.375924650e-17 1.376016980e-17 1.376109300e-17 1.376201610e-17 1.376293920e-17 1.376386230e-17 1.376478530e-17 1.376570820e-17 1.376663100e-17 1.376755380e-17 1.376847650e-17 1.376939920e-17 1.377032180e-17 1.377124440e-17 1.377216680e-17 1.377308930e-17 1.377401160e-17 1.377493390e-17 1.377585610e-17 1.377677830e-17 1.377770040e-17 1.377862250e-17 1.377954450e-17 1.378046640e-17 1.378138830e-17 1.378231010e-17 1.378323180e-17 1.378415350e-17 1.378507510e-17 1.378599670e-17 1.378691810e-17 1.378783960e-17 1.378876090e-17 1.378968230e-17 1.379060350e-17 1.379152470e-17 1.379244580e-17 1.379336690e-17 1.379428790e-17 1.379520880e-17 1.379612970e-17 1.379705050e-17 1.379797130e-17 1.379889200e-17 1.379981260e-17 1.380073320e-17 1.380165370e-17 1.380257410e-17 1.380349450e-17 1.380441480e-17 1.380533510e-17 1.380625530e-17 1.380717550e-17 1.380809550e-17 1.380901560e-17 1.380993550e-17 1.381085540e-17 1.381177520e-17 1.381269500e-17 1.381361470e-17 1.381453440e-17 1.381545400e-17 1.381637350e-17 1.381729300e-17 1.381821240e-17 1.381913170e-17 1.382005100e-17 1.382097020e-17 1.382188940e-17 1.382280850e-17 1.382372750e-17 1.382464650e-17 1.382556540e-17 1.382648430e-17 1.382740310e-17 1.382832180e-17 1.382924050e-17 1.383015910e-17 1.383107770e-17 1.383199620e-17 1.383291460e-17 1.383383300e-17 1.383475130e-17 1.383566950e-17 1.383658770e-17 1.383750580e-17 1.383842390e-17 1.383934190e-17 1.384025980e-17 1.384117770e-17 1.384209550e-17 1.384301330e-17 1.384393100e-17 1.384484860e-17 1.384576620e-17 1.384668370e-17 1.384760120e-17 1.384851860e-17 1.384943590e-17 1.385035320e-17 1.385127040e-17 1.385218760e-17 1.385310460e-17 1.385402170e-17 1.385493860e-17 1.385585560e-17 1.385677240e-17 1.385768920e-17 1.385860590e-1