<?xml version="1.0"?>
<VTKFile type="PolyData" version="0.1" byte_order="LittleEndian">
  <PolyData>
    <Piece NumberOfPoints="5715" NumberOfVerts="0" NumberOfLines="15" NumberOfStrips="0" NumberOfPolys="8556">
      <PointData Scalars="numerical_reference_error">
        <DataArray type="Float32" Name="numerical_reference_error" format="ascii">
          1.233025500e-07 1.233025500e-07 1.233025500e-07 1.233025500e-07 1.233025500e-07 1.233025500e-07 1.233025500e-07 1.233025500e-07 1.233025500e-07 1.233025500e-07 1.233025500e-07 1.233025500e-07 1.233025500e-07 1.233025500e-07 1.233025500e-07 1.233025500e-07 1.233025500e-07 1.233025500e-07 1.233025500e-07 1.233025500e-07 1.233025500e-07 1.233025500e-07 1.233025500e-07 1.233025500e-07 1.233025500e-07 1.233025500e-07 1.233025500e-07 1.233025500e-07 1.233025500e-07 1.233025500e-07 1.233025500e-07 1.233025500e-07 1.233025500e-07 1.233025500e-07 1.233025500e-07 1.233025500e-07 1.233025500e-07 1.233025500e-07 1.233025500e-07 1.233025500e-07 1.233025500e-07 1.233025500e-07 1.233025500e-07 1.233025500e-07 1.233025500e-07 1.233025500e-07 1.233025500e-07 1.233025500e-07 1.233025500e-07 1.233025500e-07 1.233025500e-07 1.233025500e-07 1.233025500e-07 1.233025500e-07 1.233025500e-07 1.233025500e-07 1.233025500e-07 1.233025500e-07 1.233025500e-07 1.233025500e-07 1.233025500e-07 1.233025500e-07 1.233025500e-07 1.238638741e-07 1.257123694e-07 1.275608647e-07 1.294093599e-07 1.312578552e-07 1.331063505e-07 1.349548457e-07 1.368033410e-07 1.386518363e-07 1.405003315e-07 1.423488268e-07 1.441973221e-07 1.460458174e-07 1.478943126e-07 1.497428079e-07 1.515913032e-07 1.534397984e-07 1.552882937e-07 1.571367890e-07 1.589852842e-07 1.608337795e-07 1.626822748e-07 1.645307700e-07 1.663792653e-07 1.682277606e-07 1.700762558e-07 1.719247511e-07 1.737732464e-07 1.756217416e-07 1.774702369e-07 1.793187322e-07 1.811672274e-07 1.830157227e-07 1.848642180e-07 1.867127132e-07 1.885612085e-07 1.904097038e-07 1.922581990e-07 1.941066943e-07 1.959551896e-07 1.978036848e-07 1.996521801e-07 2.015006754e-07 2.033491707e-07 2.051976659e-07 2.070461612e-07 2.088946565e-07 2.107431517e-07 2.125916470e-07 2.144401423e-07 2.162886375e-07 2.181371328e-07 2.199856281e-07 2.218341233e-07 2.236826186e-07 2.255311139e-07 2.273796091e-07 2.292281044e-07 2.310765997e-07 2.329250949e-07 2.347735902e-07 2.366220855e-07 2.384705807e-07 2.403190760e-07 2.420941701e-07 2.438218069e-07 2.455494436e-07 2.472770803e-07 2.490047171e-07 2.507323538e-07 2.524599905e-07 2.541876272e-07 2.559152640e-07 2.576429007e-07 2.593705374e-07 2.610981742e-07 2.628258109e-07 2.645534476e-07 2.662810843e-07 2.680087211e-07 2.697363578e-07 2.714639945e-07 2.731916312e-07 2.749192680e-07 2.766469047e-07 2.783745414e-07 2.801021782e-07 2.818298149e-07 2.835574516e-07 2.852850883e-07 2.870127251e-07 2.887403618e-07 2.904679985e-07 2.921956353e-07 2.939232720e-07 2.956509087e-07 2.973785454e-07 2.991061822e-07 3.008338189e-07 3.025614556e-07 3.042890923e-07 3.060167291e-07 3.077443658e-07 3.094720025e-07 3.111996393e-07 3.129272760e-07 3.146549127e-07 3.163825494e-07 3.181101862e-07 3.198378229e-07 3.215654596e-07 3.232930964e-07 3.250207331e-07 3.267483698e-07 3.284760065e-07 3.302036433e-07 3.319312800e-07 3.336589167e-07 3.353865534e-07 3.371141902e-07 3.388418269e-07 3.405694636e-07 3.422971004e-07 3.440247371e-07 3.457523738e-07 3.474800105e-07 3.492076473e-07 3.509352840e-07 3.525387427e-07 3.541300693e-07 3.557213960e-07 3.573127226e-07 3.589040492e-07 3.604953758e-07 3.620867025e-07 3.636780291e-07 3.652693557e-07 3.668606823e-07 3.684520090e-07 3.700433356e-07 3.716346622e-07 3.732259888e-07 3.748173154e-07 3.764086421e-07 3.779999687e-07 3.795912953e-07 3.811826219e-07 3.827739486e-07 3.843652752e-07 3.859566018e-07 3.875479284e-07 3.891392551e-07 3.907305817e-07 3.923219083e-07 3.939132349e-07 3.955045616e-07 3.970958882e-07 3.986872148e-07 4.002785414e-07 4.018698680e-07 4.034611947e-07 4.050525213e-07 4.066438479e-07 4.082351745e-07 4.098265012e-07 4.114178278e-07 4.130091544e-07 4.146004810e-07 4.161918077e-07 4.177831343e-07 4.193744609e-07 4.209657875e-07 4.225571142e-07 4.241484408e-07 4.257397674e-07 4.273310940e-07 4.289224206e-07 4.305137473e-07 4.321050739e-07 4.336964005e-07 4.352877271e-07 4.368790538e-07 4.384703804e-07 4.400617070e-07 4.416530336e-07 4.432443603e-07 4.448356869e-07 4.464270135e-07 4.480183401e-07 4.496096668e-07 4.512009934e-07 4.527610566e-07 4.542067427e-07 4.556524289e-07 4.570981150e-07 4.585438012e-07 4.599894873e-07 4.614351735e-07 4.628808596e-07 4.643265458e-07 4.657722320e-07 4.672179181e-07 4.686636043e-07 4.701092904e-07 4.715549766e-07 4.730006627e-07 4.744463489e-07 4.758920350e-07 4.773377212e-07 4.787834074e-07 4.802290935e-07 4.816747797e-07 4.831204658e-07 4.845661520e-07 4.860118381e-07 4.874575243e-07 4.889032104e-07 4.903488966e-07 4.917945827e-07 4.932402689e-07 4.946859551e-07 4.961316412e-07 4.975773274e-07 4.990230135e-07 5.004686997e-07 5.019143858e-07 5.033600720e-07 5.048057581e-07 5.062514443e-07 5.076971305e-07 5.091428166e-07 5.105885028e-07 5.120341889e-07 5.134798751e-07 5.149255612e-07 5.163712474e-07 5.178169335e-07 5.192626197e-07 5.207083059e-07 5.221539920e-07 5.235996782e-07 5.250453643e-07 5.264910505e-07 5.279367366e-07 5.293824228e-07 5.308281089e-07 5.322737951e-07 5.337194812e-07 5.351651674e-07 5.366108536e-07 5.380565397e-07 5.395022259e-07 5.409479120e-07 5.423935982e-07 5.438392843e-07 5.452057278e-07 5.464985324e-07 5.477913370e-07 5.490841415e-07 5.503769461e-07 5.516697507e-07 5.529625553e-07 5.542553599e-07 5.555481644e-07 5.568409690e-07 5.581337736e-07 5.594265782e-07 5.607193828e-07 5.620121873e-07 5.633049919e-07 5.645977965e-07 5.658906011e-07 5.671834057e-07 5.684762102e-07 5.697690148e-07 5.710618194e-07 5.723546240e-07 5.736474286e-07 5.749402331e-07 5.762330377e-07 5.775258423e-07 5.788186469e-07 5.801114514e-07 5.814042560e-07 5.826970606e-07 5.839898652e-07 5.852826698e-07 5.865754743e-07 5.878682789e-07 5.891610835e-07 5.904538881e-07 5.917466927e-07 5.930394972e-07 5.943323018e-07 5.956251064e-07 5.969179110e-07 5.982107156e-07 5.995035201e-07 6.007963247e-07 6.020891293e-07 6.033819339e-07 6.046747385e-07 6.059675430e-07 6.072603476e-07 6.085531522e-07 6.098459568e-07 6.111387614e-07 6.124315659e-07 6.137243705e-07 6.150171751e-07 6.163099797e-07 6.176027842e-07 6.188955888e-07 6.201883934e-07 6.214811980e-07 6.227740026e-07 6.240668071e-07 6.253596117e-07 6.266524163e-07 6.278142063e-07 6.289476244e-07 6.300810425e-07 6.312144605e-07 6.323478786e-07 6.334812966e-07 6.346147147e-07 6.357481328e-07 6.368815508e-07 6.380149689e-07 6.391483869e-07 6.402818050e-07 6.414152231e-07 6.425486411e-07 6.436820592e-07 6.448154772e-07 6.459488953e-07 6.470823134e-07 6.482157314e-07 6.493491495e-07 6.504825676e-07 6.516159856e-07 6.527494037e-07 6.538828217e-07 6.550162398e-07 6.561496579e-07 6.572830759e-07 6.584164940e-07 6.595499120e-07 6.606833301e-07 6.618167482e-07 6.629501662e-07 6.640835843e-07 6.652170023e-07 6.663504204e-07 6.674838385e-07 6.686172565e-07 6.697506746e-07 6.708840926e-07 6.720175107e-07 6.731509288e-07 6.742843468e-07 6.754177649e-07 6.765511830e-07 6.776846010e-07 6.788180191e-07 6.799514371e-07 6.810848552e-07 6.822182733e-07 6.833516913e-07 6.844851094e-07 6.856185274e-07 6.867519455e-07 6.878853636e-07 6.890187816e-07 6.901521997e-07 6.912856177e-07 6.924190358e-07 6.935524539e-07 6.946858719e-07 6.958192900e-07 6.969527081e-07 6.980861261e-07 6.991987341e-07 7.001665432e-07 7.011343524e-07 7.021021615e-07 7.030699707e-07 7.040377799e-07 7.050055890e-07 7.059733982e-07 7.069412073e-07 7.079090165e-07 7.088768257e-07 7.098446348e-07 7.108124440e-07 7.117802531e-07 7.127480623e-07 7.137158715e-07 7.146836806e-07 7.156514898e-07 7.166192989e-07 7.175871081e-07 7.185549173e-07 7.195227264e-07 7.204905356e-07 7.214583447e-07 7.224261539e-07 7.233939631e-07 7.243617722e-07 7.253295814e-07 7.262973905e-07 7.272651997e-07 7.282330089e-07 7.292008180e-07 7.301686272e-07 7.311364363e-07 7.321042455e-07 7.330720546e-07 7.340398638e-07 7.350076730e-07 7.359754821e-07 7.369432913e-07 7.379111004e-07 7.388789096e-07 7.398467188e-07 7.408145279e-07 7.417823371e-07 7.427501462e-07 7.437179554e-07 7.446857646e-07 7.456535737e-07 7.466213829e-07 7.475891920e-07 7.485570012e-07 7.495248104e-07 7.504926195e-07 7.514604287e-07 7.524282378e-07 7.533960470e-07 7.543638562e-07 7.553316653e-07 7.562994745e-07 7.572672836e-07 7.582350928e-07 7.592029020e-07 7.601707111e-07 7.610648052e-07 7.618609139e-07 7.626570226e-07 7.634531313e-07 7.642492400e-07 7.650453487e-07 7.658414574e-07 7.666375661e-07 7.674336748e-07 7.682297835e-07 7.690258922e-07 7.698220009e-07 7.706181096e-07 7.714142183e-07 7.722103270e-07 7.730064357e-07 7.738025444e-07 7.745986531e-07 7.753947618e-07 7.761908705e-07 7.769869792e-07 7.777830879e-07 7.785791966e-07 7.793753053e-07 7.801714140e-07 7.809675227e-07 7.817636314e-07 7.825597401e-07 7.833558488e-07 7.841519575e-07 7.849480662e-07 7.857441749e-07 7.865402836e-07 7.873363923e-07 7.881325010e-07 7.889286097e-07 7.897247184e-07 7.905208271e-07 7.913169358e-07 7.921130445e-07 7.929091532e-07 7.937052619e-07 7.945013706e-07 7.952974793e-07 7.960935879e-07 7.968896966e-07 7.976858053e-07 7.984819140e-07 7.992780227e-07 8.000741314e-07 8.008702401e-07 8.016663488e-07 8.024624575e-07 8.032585662e-07 8.040546749e-07 8.048507836e-07 8.056468923e-07 8.064430010e-07 8.072391097e-07 8.080352184e-07 8.088313271e-07 8.096274358e-07 8.104235445e-07 8.112196532e-07 8.118855008e-07 8.125038972e-07 8.131222936e-07 8.137406901e-07 8.143590865e-07 8.149774829e-07 8.155958794e-07 8.162142758e-07 8.168326722e-07 8.174510687e-07 8.180694651e-07 8.186878615e-07 8.193062580e-07 8.199246544e-07 8.205430508e-07 8.211614473e-07 8.217798437e-07 8.223982401e-07 8.230166366e-07 8.236350330e-07 8.242534294e-07 8.248718258e-07 8.254902223e-07 8.261086187e-07 8.267270151e-07 8.273454116e-07 8.279638080e-07 8.285822044e-07 8.292006009e-07 8.298189973e-07 8.304373937e-07 8.310557902e-07 8.316741866e-07 8.322925830e-07 8.329109795e-07 8.335293759e-07 8.341477723e-07 8.347661688e-07 8.353845652e-07 8.360029616e-07 8.366213580e-07 8.372397545e-07 8.378581509e-07 8.384765473e-07 8.390949438e-07 8.397133402e-07 8.403317366e-07 8.409501331e-07 8.415685295e-07 8.421869259e-07 8.428053224e-07 8.434237188e-07 8.440421152e-07 8.446605117e-07 8.452789081e-07 8.458973045e-07 8.465157010e-07 8.471340974e-07 8.477524938e-07 8.483708903e-07 8.489892867e-07 8.496076831e-07 8.502260795e-07 8.508377440e-07 8.512724788e-07 8.517072136e-07 8.521419485e-07 8.525766833e-07 8.530114182e-07 8.534461530e-07 8.538808879e-07 8.543156227e-07 8.547503576e-07 8.551850924e-07 8.556198272e-07 8.560545621e-07 8.564892969e-07 8.569240318e-07 8.573587666e-07 8.577935015e-07 8.582282363e-07 8.586629711e-07 8.590977060e-07 8.595324408e-07 8.599671757e-07 8.604019105e-07 8.608366454e-07 8.612713802e-07 8.617061150e-07 8.621408499e-07 8.625755847e-07 8.630103196e-07 8.634450544e-07 8.638797893e-07 8.643145241e-07 8.647492589e-07 8.651839938e-07 8.656187286e-07 8.660534635e-07 8.664881983e-07 8.669229332e-07 8.673576680e-07 8.677924028e-07 8.682271377e-07 8.686618725e-07 8.690966074e-07 8.695313422e-07 8.699660771e-07 8.704008119e-07 8.708355467e-07 8.712702816e-07 8.717050164e-07 8.721397513e-07 8.725744861e-07 8.730092210e-07 8.734439558e-07 8.738786906e-07 8.743134255e-07 8.747481603e-07 8.751828952e-07 8.756176300e-07 8.760523649e-07 8.764870997e-07 8.769218345e-07 8.773565694e-07 8.777913042e-07 8.782260391e-07 8.785962648e-07 8.788414452e-07 8.790866256e-07 8.793318060e-07 8.795769864e-07 8.798221668e-07 8.800673472e-07 8.803125276e-07 8.805577080e-07 8.808028884e-07 8.810480688e-07 8.812932492e-07 8.815384296e-07 8.817836100e-07 8.820287904e-07 8.822739708e-07 8.825191512e-07 8.827643316e-07 8.830095120e-07 8.832546924e-07 8.834998728e-07 8.837450532e-07 8.839902336e-07 8.842354140e-07 8.844805944e-07 8.847257749e-07 8.849709553e-07 8.852161357e-07 8.854613161e-07 8.857064965e-07 8.859516769e-07 8.861968573e-07 8.864420377e-07 8.866872181e-07 8.869323985e-07 8.871775789e-07 8.874227593e-07 8.876679397e-07 8.879131201e-07 8.881583005e-07 8.884034809e-07 8.886486613e-07 8.888938417e-07 8.891390221e-07 8.893842025e-07 8.896293829e-07 8.898745633e-07 8.901197437e-07 8.903649241e-07 8.906101045e-07 8.908552849e-07 8.911004653e-07 8.913456457e-07 8.915908261e-07 8.918360065e-07 8.920811870e-07 8.923263674e-07 8.925715478e-07 8.928167282e-07 8.930619086e-07 8.933070890e-07 8.935522694e-07 8.937974498e-07 8.940426302e-07 8.941619802e-07 8.942117674e-07 8.942615547e-07 8.943113419e-07 8.943611291e-07 8.944109163e-07 8.944607035e-07 8.945104907e-07 8.945602779e-07 8.946100652e-07 8.946598524e-07 8.947096396e-07 8.947594268e-07 8.948092140e-07 8.948590012e-07 8.949087884e-07 8.949585756e-07 8.950083629e-07 8.950581501e-07 8.951079373e-07 8.951577245e-07 8.952075117e-07 8.952572989e-07 8.953070861e-07 8.953568734e-07 8.954066606e-07 8.954564478e-07 8.955062350e-07 8.955560222e-07 8.956058094e-07 8.956555966e-07 8.957053838e-07 8.957551711e-07 8.958049583e-07 8.958547455e-07 8.959045327e-07 8.959543199e-07 8.960041071e-07 8.960538943e-07 8.961036816e-07 8.961534688e-07 8.962032560e-07 8.962530432e-07 8.963028304e-07 8.963526176e-07 8.964024048e-07 8.964521921e-07 8.965019793e-07 8.965517665e-07 8.966015537e-07 8.966513409e-07 8.967011281e-07 8.967509153e-07 8.968007025e-07 8.968504898e-07 8.969002770e-07 8.969500642e-07 8.969998514e-07 8.970496386e-07 8.970994258e-07 8.971492130e-07 8.971990003e-07 8.972487875e-07 8.972985747e-07 8.971577144e-07 8.970063226e-07 8.968549308e-07 8.967035390e-07 8.965521472e-07 8.964007554e-07 8.962493636e-07 8.960979718e-07 8.959465800e-07 8.957951882e-07 8.956437964e-07 8.954924046e-07 8.953410128e-07 8.951896210e-07 8.950382292e-07 8.948868374e-07 8.947354456e-07 8.945840538e-07 8.944326620e-07 8.942812702e-07 8.941298784e-07 8.939784866e-07 8.938270948e-07 8.936757029e-07 8.935243111e-07 8.933729193e-07 8.932215275e-07 8.930701357e-07 8.929187439e-07 8.927673521e-07 8.926159603e-07 8.924645685e-07 8.923131767e-07 8.921617849e-07 8.920103931e-07 8.918590013e-07 8.917076095e-07 8.915562177e-07 8.914048259e-07 8.912534341e-07 8.911020423e-07 8.909506505e-07 8.907992587e-07 8.906478669e-07 8.904964751e-07 8.903450833e-07 8.901936915e-07 8.900422996e-07 8.898909078e-07 8.897395160e-07 8.895881242e-07 8.894367324e-07 8.892853406e-07 8.891339488e-07 8.889825570e-07 8.888311652e-07 8.886797734e-07 8.885283816e-07 8.883769898e-07 8.882255980e-07 8.880742062e-07 8.879228144e-07 8.877714226e-07 8.875680303e-07 8.872097258e-07 8.868514213e-07 8.864931168e-07 8.861348123e-07 8.857765078e-07 8.854182033e-07 8.850598988e-07 8.847015943e-07 8.843432898e-07 8.839849853e-07 8.836266808e-07 8.832683763e-07 8.829100718e-07 8.825517673e-07 8.821934628e-07 8.818351583e-07 8.814768538e-07 8.811185494e-07 8.807602449e-07 8.804019404e-07 8.800436359e-07 8.796853314e-07 8.793270269e-07 8.789687224e-07 8.786104179e-07 8.782521134e-07 8.778938089e-07 8.775355044e-07 8.771771999e-07 8.768188954e-07 8.764605909e-07 8.761022864e-07 8.757439819e-07 8.753856774e-07 8.750273729e-07 8.746690684e-07 8.743107639e-07 8.739524595e-07 8.735941550e-07 8.732358505e-07 8.728775460e-07 8.725192415e-07 8.721609370e-07 8.718026325e-07 8.714443280e-07 8.710860235e-07 8.707277190e-07 8.703694145e-07 8.700111100e-07 8.696528055e-07 8.692945010e-07 8.689361965e-07 8.685778920e-07 8.682195875e-07 8.678612830e-07 8.675029785e-07 8.671446740e-07 8.667863695e-07 8.664280651e-07 8.660697606e-07 8.657114561e-07 8.653531516e-07 8.649948471e-07 8.645185563e-07 8.639476569e-07 8.633767575e-07 8.628058582e-07 8.622349588e-07 8.616640594e-07 8.610931600e-07 8.605222606e-07 8.599513613e-07 8.593804619e-07 8.588095625e-07 8.582386631e-07 8.576677637e-07 8.570968644e-07 8.565259650e-07 8.559550656e-07 8.553841662e-07 8.548132668e-07 8.542423674e-07 8.536714681e-07 8.531005687e-07 8.525296693e-07 8.519587699e-07 8.513878705e-07 8.508169712e-07 8.502460718e-07 8.496751724e-07 8.491042730e-07 8.485333736e-07 8.479624742e-07 8.473915749e-07 8.468206755e-07 8.462497761e-07 8.456788767e-07 8.451079773e-07 8.445370780e-07 8.439661786e-07 8.433952792e-07 8.428243798e-07 8.422534804e-07 8.416825811e-07 8.411116817e-07 8.405407823e-07 8.399698829e-07 8.393989835e-07 8.388280841e-07 8.382571848e-07 8.376862854e-07 8.371153860e-07 8.365444866e-07 8.359735872e-07 8.354026879e-07 8.348317885e-07 8.342608891e-07 8.336899897e-07 8.331190903e-07 8.325481909e-07 8.319772916e-07 8.314063922e-07 8.308354928e-07 8.302645934e-07 8.296936940e-07 8.291227947e-07 8.285518953e-07 8.277936166e-07 8.270044909e-07 8.262153653e-07 8.254262397e-07 8.246371140e-07 8.238479884e-07 8.230588628e-07 8.222697372e-07 8.214806115e-07 8.206914859e-07 8.199023603e-07 8.191132347e-07 8.183241090e-07 8.175349834e-07 8.167458578e-07 8.159567321e-07 8.151676065e-07 8.143784809e-07 8.135893553e-07 8.128002296e-07 8.120111040e-07 8.112219784e-07 8.104328527e-07 8.096437271e-07 8.088546015e-07 8.080654759e-07 8.072763502e-07 8.064872246e-07 8.056980990e-07 8.049089734e-07 8.041198477e-07 8.033307221e-07 8.025415965e-07 8.017524708e-07 8.009633452e-07 8.001742196e-07 7.993850940e-07 7.985959683e-07 7.978068427e-07 7.970177171e-07 7.962285914e-07 7.954394658e-07 7.946503402e-07 7.938612146e-07 7.930720889e-07 7.922829633e-07 7.914938377e-07 7.907047120e-07 7.899155864e-07 7.891264608e-07 7.883373352e-07 7.875482095e-07 7.867590839e-07 7.859699583e-07 7.851808327e-07 7.843917070e-07 7.836025814e-07 7.828134558e-07 7.820243301e-07 7.812352045e-07 7.804460789e-07 7.796569533e-07 7.788678276e-07 7.780423752e-07 7.770294421e-07 7.760165090e-07 7.750035758e-07 7.739906427e-07 7.729777095e-07 7.719647764e-07 7.709518433e-07 7.699389101e-07 7.689259770e-07 7.679130439e-07 7.669001107e-07 7.658871776e-07 7.648742444e-07 7.638613113e-07 7.628483782e-07 7.618354450e-07 7.608225119e-07 7.598095788e-07 7.587966456e-07 7.577837125e-07 7.567707794e-07 7.557578462e-07 7.547449131e-07 7.537319799e-07 7.527190468e-07 7.517061137e-07 7.506931805e-07 7.496802474e-07 7.486673143e-07 7.476543811e-07 7.466414480e-07 7.456285148e-07 7.446155817e-07 7.436026486e-07 7.425897154e-07 7.415767823e-07 7.405638492e-07 7.395509160e-07 7.385379829e-07 7.375250497e-07 7.365121166e-07 7.354991835e-07 7.344862503e-07 7.334733172e-07 7.324603841e-07 7.314474509e-07 7.304345178e-07 7.294215846e-07 7.284086515e-07 7.273957184e-07 7.263827852e-07 7.253698521e-07 7.243569190e-07 7.233439858e-07 7.223310527e-07 7.213181195e-07 7.203051864e-07 7.192922533e-07 7.182793201e-07 7.172663870e-07 7.162534539e-07 7.152405207e-07 7.142275876e-07 7.131077874e-07 7.118655149e-07 7.106232425e-07 7.093809701e-07 7.081386976e-07 7.068964252e-07 7.056541527e-07 7.044118803e-07 7.031696078e-07 7.019273354e-07 7.006850630e-07 6.994427905e-07 6.982005181e-07 6.969582456e-07 6.957159732e-07 6.944737008e-07 6.932314283e-07 6.919891559e-07 6.907468834e-07 6.895046110e-07 6.882623386e-07 6.870200661e-07 6.857777937e-07 6.845355212e-07 6.832932488e-07 6.820509764e-07 6.808087039e-07 6.795664315e-07 6.783241590e-07 6.770818866e-07 6.758396141e-07 6.745973417e-07 6.733550693e-07 6.721127968e-07 6.708705244e-07 6.696282519e-07 6.683859795e-07 6.671437071e-07 6.659014346e-07 6.646591622e-07 6.634168897e-07 6.621746173e-07 6.609323449e-07 6.596900724e-07 6.584478000e-07 6.572055275e-07 6.559632551e-07 6.547209827e-07 6.534787102e-07 6.522364378e-07 6.509941653e-07 6.497518929e-07 6.485096205e-07 6.472673480e-07 6.460250756e-07 6.447828031e-07 6.435405307e-07 6.422982582e-07 6.410559858e-07 6.398137134e-07 6.385714409e-07 6.373291685e-07 6.360868960e-07 6.348446236e-07 6.334216216e-07 6.319445267e-07 6.304674317e-07 6.289903368e-07 6.275132419e-07 6.260361470e-07 6.245590521e-07 6.230819572e-07 6.216048622e-07 6.201277673e-07 6.186506724e-07 6.171735775e-07 6.156964826e-07 6.142193877e-07 6.127422927e-07 6.112651978e-07 6.097881029e-07 6.083110080e-07 6.068339131e-07 6.053568182e-07 6.038797232e-07 6.024026283e-07 6.009255334e-07 5.994484385e-07 5.979713436e-07 5.964942487e-07 5.950171537e-07 5.935400588e-07 5.920629639e-07 5.905858690e-07 5.891087741e-07 5.876316792e-07 5.861545842e-07 5.846774893e-07 5.832003944e-07 5.817232995e-07 5.802462046e-07 5.787691097e-07 5.772920147e-07 5.758149198e-07 5.743378249e-07 5.728607300e-07 5.713836351e-07 5.699065402e-07 5.684294452e-07 5.669523503e-07 5.654752554e-07 5.639981605e-07 5.625210656e-07 5.610439707e-07 5.595668757e-07 5.580897808e-07 5.566126859e-07 5.551355910e-07 5.536584961e-07 5.521814012e-07 5.507043062e-07 5.492272113e-07 5.477501164e-07 5.462730215e-07 5.447959266e-07 5.433188316e-07 5.418417367e-07 5.403470288e-07 5.386296762e-07 5.369123236e-07 5.351949710e-07 5.334776184e-07 5.317602658e-07 5.300429132e-07 5.283255606e-07 5.266082080e-07 5.248908554e-07 5.231735028e-07 5.214561501e-07 5.197387975e-07 5.180214449e-07 5.163040923e-07 5.145867397e-07 5.128693871e-07 5.111520345e-07 5.094346819e-07 5.077173293e-07 5.059999767e-07 5.042826241e-07 5.025652715e-07 5.008479189e-07 4.991305663e-07 4.974132137e-07 4.956958611e-07 4.939785085e-07 4.922611559e-07 4.905438033e-07 4.888264507e-07 4.871090981e-07 4.853917455e-07 4.836743929e-07 4.819570403e-07 4.802396877e-07 4.785223351e-07 4.768049825e-07 4.750876298e-07 4.733702772e-07 4.716529246e-07 4.699355720e-07 4.682182194e-07 4.665008668e-07 4.647835142e-07 4.630661616e-07 4.613488090e-07 4.596314564e-07 4.579141038e-07 4.561967512e-07 4.544793986e-07 4.527620460e-07 4.510446934e-07 4.493273408e-07 4.476099882e-07 4.458926356e-07 4.441752830e-07 4.424579304e-07 4.407405778e-07 4.390232252e-07 4.373058726e-07 4.355885200e-07 4.338711674e-07 4.321538148e-07 4.303438600e-07 4.283808616e-07 4.264178633e-07 4.244548649e-07 4.224918665e-07 4.205288681e-07 4.185658698e-07 4.166028714e-07 4.146398730e-07 4.126768747e-07 4.107138763e-07 4.087508779e-07 4.067878795e-07 4.048248812e-07 4.028618828e-07 4.008988844e-07 3.989358861e-07 3.969728877e-07 3.950098893e-07 3.930468909e-07 3.910838926e-07 3.891208942e-07 3.871578958e-07 3.851948975e-07 3.832318991e-07 3.812689007e-07 3.793059023e-07 3.773429040e-07 3.753799056e-07 3.734169072e-07 3.714539089e-07 3.694909105e-07 3.675279121e-07 3.655649137e-07 3.636019154e-07 3.616389170e-07 3.596759186e-07 3.577129203e-07 3.557499219e-07 3.537869235e-07 3.518239251e-07 3.498609268e-07 3.478979284e-07 3.459349300e-07 3.439719317e-07 3.420089333e-07 3.400459349e-07 3.380829365e-07 3.361199382e-07 3.341569398e-07 3.321939414e-07 3.302309431e-07 3.282679447e-07 3.263049463e-07 3.243419479e-07 3.223789496e-07 3.204159512e-07 3.184529528e-07 3.164899545e-07 3.145269561e-07 3.125639577e-07 3.106009593e-07 3.086379610e-07 3.066749626e-07 3.060480590e-07 3.060480590e-07 3.060480590e-07 3.060480590e-07 3.060480590e-07 3.060480590e-07 3.060480590e-07 3.060480590e-07 3.060480590e-07 3.060480590e-07 3.060480590e-07 3.060480590e-07 3.060480590e-07 3.060480590e-07 3.060480590e-07 3.060480590e-07 3.060480590e-07 3.060480590e-07 3.060480590e-07 3.060480590e-07 3.060480590e-07 3.060480590e-07 3.060480590e-07 3.060480590e-07 3.060480590e-07 3.060480590e-07 4.754373120e-09 4.754373120e-09 4.754373120e-09 4.754373120e-09 4.754373120e-09 4.754373120e-09 4.754373120e-09 4.754373120e-09 4.754373120e-09 4.754373120e-09 4.754373120e-09 4.754373120e-09 4.754373120e-09 4.754373120e-09 4.754373120e-09 4.755712211e-09 5.051777987e-09 5.347843763e-09 5.643909540e-09 5.939975316e-09 6.236041092e-09 6.532106868e-09 6.828172645e-09 7.124238421e-09 7.420304197e-09 7.716369974e-09 8.012435750e-09 8.308501526e-09 8.604567303e-09 8.900633079e-09 9.196698855e-09 9.492749099e-09 9.787097772e-09 1.008144645e-08 1.037579512e-08 1.067014379e-08 1.096449247e-08 1.125884114e-08 1.155318981e-08 1.184753849e-08 1.214188716e-08 1.243623583e-08 1.273058451e-08 1.302493318e-08 1.331928185e-08 1.361363053e-08 1.390797920e-08 1.420230035e-08 1.449462063e-08 1.478694092e-08 1.507926120e-08 1.537158149e-08 1.566390177e-08 1.595622206e-08 1.624854234e-08 1.654086263e-08 1.683318291e-08 1.712550319e-08 1.741782348e-08 1.771014376e-08 1.800246405e-08 1.829478433e-08 1.858710462e-08 1.887938422e-08 1.916945587e-08 1.945952753e-08 1.974959918e-08 2.003967084e-08 2.032974249e-08 2.061981415e-08 2.090988580e-08 2.119995746e-08 2.149002911e-08 2.178010077e-08 2.207017242e-08 2.236024408e-08 2.265031573e-08 2.294038739e-08 2.323045904e-08 2.352047564e-08 2.380811266e-08 2.409574967e-08 2.438338669e-08 2.467102371e-08 2.495866072e-08 2.524629774e-08 2.553393476e-08 2.582157177e-08 2.610920879e-08 2.639684581e-08 2.668448282e-08 2.697211984e-08 2.725975686e-08 2.754739387e-08 2.783503089e-08 2.812259714e-08 2.840762643e-08 2.869265572e-08 2.897768502e-08 2.926271431e-08 2.954774360e-08 2.983277289e-08 3.011780218e-08 3.040283148e-08 3.068786077e-08 3.097289006e-08 3.125791935e-08 3.154294864e-08 3.182797794e-08 3.211300723e-08 3.239803652e-08 3.268297793e-08 3.296523144e-08 3.324748494e-08 3.352973845e-08 3.381199196e-08 3.409424547e-08 3.437649897e-08 3.465875248e-08 3.494100599e-08 3.522325950e-08 3.550551300e-08 3.578776651e-08 3.607002002e-08 3.635227353e-08 3.663452703e-08 3.691678054e-08 3.719892761e-08 3.747823939e-08 3.775755117e-08 3.803686295e-08 3.831617473e-08 3.859548652e-08 3.887479830e-08 3.915411008e-08 3.943342186e-08 3.971273364e-08 3.999204543e-08 4.027135721e-08 4.055066899e-08 4.082998077e-08 4.110929255e-08 4.138860434e-08 4.166778966e-08 4.194399490e-08 4.222020013e-08 4.249640537e-08 4.277261060e-08 4.304881584e-08 4.332502107e-08 4.360122631e-08 4.387743154e-08 4.415363678e-08 4.442984201e-08 4.470604725e-08 4.498225248e-08 4.525845772e-08 4.553466295e-08 4.581086819e-08 4.608692549e-08 4.635986008e-08 4.663279467e-08 4.690572925e-08 4.717866384e-08 4.745159842e-08 4.772453301e-08 4.799746759e-08 4.827040218e-08 4.854333677e-08 4.881627135e-08 4.908920594e-08 4.936214052e-08 4.963507511e-08 4.990800969e-08 5.018094428e-08 5.045370801e-08 5.072320842e-08 5.099270884e-08 5.126220925e-08 5.153170967e-08 5.180121008e-08 5.207071049e-08 5.234021091e-08 5.260971132e-08 5.287921174e-08 5.314871215e-08 5.341821257e-08 5.368771298e-08 5.395721340e-08 5.422671381e-08 5.449621423e-08 5.476551941e-08 5.503142271e-08 5.529732600e-08 5.556322930e-08 5.582913260e-08 5.609503590e-08 5.636093920e-08 5.662684249e-08 5.689274579e-08 5.715864909e-08 5.742455239e-08 5.769045569e-08 5.795635898e-08 5.822226228e-08 5.848816558e-08 5.875406888e-08 5.901975112e-08 5.928189489e-08 5.954403865e-08 5.980618242e-08 6.006832619e-08 6.033046995e-08 6.059261372e-08 6.085475749e-08 6.111690125e-08 6.137904502e-08 6.164118879e-08 6.190333255e-08 6.216547632e-08 6.242762008e-08 6.268976385e-08 6.295190762e-08 6.321380308e-08 6.347202543e-08 6.373024779e-08 6.398847015e-08 6.424669251e-08 6.450491487e-08 6.476313722e-08 6.502135958e-08 6.527958194e-08 6.553780430e-08 6.579602665e-08 6.605424901e-08 6.631247137e-08 6.657069373e-08 6.682891609e-08 6.708713844e-08 6.734508381e-08 6.759922343e-08 6.785336304e-08 6.810750266e-08 6.836164228e-08 6.861578189e-08 6.886992151e-08 6.912406113e-08 6.937820074e-08 6.963234036e-08 6.988647997e-08 7.014061959e-08 7.039475921e-08 7.064889882e-08 7.090303844e-08 7.115717806e-08 7.141101058e-08 7.166090665e-08 7.191080273e-08 7.216069880e-08 7.241059487e-08 7.266049094e-08 7.291038702e-08 7.316028309e-08 7.341017916e-08 7.366007524e-08 7.390997131e-08 7.415986738e-08 7.440976345e-08 7.465965953e-08 7.490955560e-08 7.515945167e-08 7.540900914e-08 7.565450144e-08 7.589999373e-08 7.614548603e-08 7.639097833e-08 7.663647062e-08 7.688196292e-08 7.712745522e-08 7.737294751e-08 7.761843981e-08 7.786393211e-08 7.810942440e-08 7.835491670e-08 7.860040900e-08 7.884590130e-08 7.909139359e-08 7.933651436e-08 7.957744317e-08 7.981837197e-08 8.005930078e-08 8.030022959e-08 8.054115840e-08 8.078208720e-08 8.102301601e-08 8.126394482e-08 8.150487362e-08 8.174580243e-08 8.198673124e-08 8.222766004e-08 8.246858885e-08 8.270951766e-08 8.295044646e-08 8.319096943e-08 8.342717560e-08 8.366338177e-08 8.389958794e-08 8.413579411e-08 8.437200028e-08 8.460820646e-08 8.484441263e-08 8.508061880e-08 8.531682497e-08 8.555303114e-08 8.578923732e-08 8.602544349e-08 8.626164966e-08 8.649785583e-08 8.673406200e-08 8.696982662e-08 8.720115156e-08 8.743247649e-08 8.766380143e-08 8.789512637e-08 8.812645130e-08 8.835777624e-08 8.858910117e-08 8.882042611e-08 8.905175104e-08 8.928307598e-08 8.951440092e-08 8.974572585e-08 8.997705079e-08 9.020837572e-08 9.043970066e-08 9.067054695e-08 9.089683261e-08 9.112311826e-08 9.134940392e-08 9.157568957e-08 9.180197523e-08 9.202826088e-08 9.225454654e-08 9.248083219e-08 9.270711785e-08 9.293340350e-08 9.315968916e-08 9.338597481e-08 9.361226047e-08 9.383854612e-08 9.406483178e-08 9.429060033e-08 9.451168922e-08 9.473277811e-08 9.495386700e-08 9.517495590e-08 9.539604479e-08 9.561713368e-08 9.583822257e-08 9.605931147e-08 9.628040036e-08 9.650148925e-08 9.672257814e-08 9.694366703e-08 9.716475593e-08 9.738584482e-08 9.760693371e-08 9.782746567e-08 9.804320089e-08 9.825893612e-08 9.847467134e-08 9.869040656e-08 9.890614178e-08 9.912187701e-08 9.933761223e-08 9.955334745e-08 9.976908267e-08 9.998481790e-08 1.002005531e-07 1.004162883e-07 1.006320236e-07 1.008477588e-07 1.010634940e-07 1.012786311e-07 1.014888562e-07 1.016990813e-07 1.019093064e-07 1.021195316e-07 1.023297567e-07 1.025399818e-07 1.027502069e-07 1.029604320e-07 1.031706571e-07 1.033808823e-07 1.035911074e-07 1.038013325e-07 1.040115576e-07 1.042217827e-07 1.044320078e-07 1.046415923e-07 1.048461515e-07 1.050507108e-07 1.052552701e-07 1.054598293e-07 1.056643886e-07 1.058689479e-07 1.060735071e-07 1.062780664e-07 1.064826257e-07 1.066871849e-07 1.068917442e-07 1.070963034e-07 1.073008627e-07 1.075054220e-07 1.077099812e-07 1.079138559e-07 1.081125941e-07 1.083113322e-07 1.085100703e-07 1.087088084e-07 1.089075465e-07 1.091062847e-07 1.093050228e-07 1.095037609e-07 1.097024990e-07 1.0990123