/*--------------------------------*- C++ -*----------------------------------*\
| =========                 |                                                 |
| \\      /  F ield         | OpenFOAM: The Open Source CFD Toolbox           |
|  \\    /   O peration     | Version:  2312                                  |
|   \\  /    A nd           | Website:  www.openfoam.com                      |
|    \\/     M anipulation  |                                                 |
\*---------------------------------------------------------------------------*/
FoamFile
{
    version     2.0;
    format      ascii;
    arch        "LSB;label=32;scalar=64";
    class       volVectorField;
    location    "0.7";
    object      D_0;
}
// * * * * * * * * * * * * * * * * * * * * * * * * * * * * * * * * * * * * * //

dimensions      [0 1 0 0 0 0 0];

internalField   nonuniform List<vector> 
1620
(
(0.000814695 6.55387e-05 -0.00214169)
(0.00108384 0.000304507 -0.00198664)
(0.00109826 0.000560081 -0.00158585)
(0.000920104 0.000709361 -0.00104891)
(0.000656468 0.000729131 -0.000509518)
(0.000381562 0.000655163 -5.60328e-05)
(0.000128562 0.000529069 0.000278286)
(-9.32002e-05 0.000380901 0.000497811)
(-0.00028449 0.000231135 0.000627617)
(-0.000448436 9.2844e-05 0.000702978)
(-0.000585757 -2.88911e-05 0.000761786)
(-0.000691678 -0.000135405 0.000837748)
(-0.000754636 -0.000226712 0.000954577)
(-0.000756484 -0.000289151 0.00112262)
(-0.000671743 -0.000290491 0.00133938)
(-0.000465646 -0.000203885 0.00159135)
(-0.000108884 -6.11198e-05 0.00184981)
(0.000364903 2.25143e-05 0.00206223)
(0.000814695 -6.55387e-05 0.00214169)
(0.00108384 -0.000304507 0.00198664)
(0.00109826 -0.000560081 0.00158585)
(0.000920104 -0.000709361 0.00104891)
(0.000656468 -0.000729131 0.000509518)
(0.000381562 -0.000655163 5.60328e-05)
(0.000128562 -0.000529069 -0.000278286)
(-9.32002e-05 -0.000380901 -0.000497811)
(-0.00028449 -0.000231135 -0.000627617)
(-0.000448436 -9.2844e-05 -0.000702978)
(-0.000585757 2.88911e-05 -0.000761786)
(-0.000691678 0.000135405 -0.000837748)
(-0.000754636 0.000226712 -0.000954577)
(-0.000756484 0.000289151 -0.00112262)
(-0.000671743 0.000290491 -0.00133938)
(-0.000465646 0.000203885 -0.00159135)
(-0.000108884 6.11198e-05 -0.00184981)
(0.000364903 -2.25143e-05 -0.00206223)
(0.000388653 0.000450885 -0.00185368)
(0.000491534 0.000484916 -0.00166903)
(0.000486872 0.000560246 -0.00139529)
(0.000379104 0.00065225 -0.00105931)
(0.000198977 0.000734424 -0.000700746)
(-1.40682e-05 0.000791428 -0.000354012)
(-0.000226139 0.000815692 -3.94861e-05)
(-0.000413444 0.000804791 0.000237012)
(-0.000561924 0.000759882 0.000481228)
(-0.000664373 0.000682514 0.000705957)
(-0.000716787 0.000571352 0.000925284)
(-0.000716113 0.000422257 0.00114832)
(-0.00066099 0.000233906 0.00137376)
(-0.00055486 1.8116e-05 0.00158765)
(-0.000407103 -0.000192139 0.00176779)
(-0.000226913 -0.000350697 0.00189401)
(-1.76582e-05 -0.000428394 0.00195489)
(0.000204252 -0.000444318 0.00194401)
(0.000388653 -0.000450885 0.00185368)
(0.000491534 -0.000484916 0.00166903)
(0.000486872 -0.000560246 0.00139529)
(0.000379104 -0.00065225 0.00105931)
(0.000198977 -0.000734424 0.000700746)
(-1.40682e-05 -0.000791428 0.000354012)
(-0.000226139 -0.000815692 3.94861e-05)
(-0.000413444 -0.000804791 -0.000237012)
(-0.000561924 -0.000759882 -0.000481228)
(-0.000664373 -0.000682514 -0.000705957)
(-0.000716787 -0.000571352 -0.000925284)
(-0.000716113 -0.000422257 -0.00114832)
(-0.00066099 -0.000233906 -0.00137376)
(-0.00055486 -1.8116e-05 -0.00158765)
(-0.000407103 0.000192139 -0.00176779)
(-0.000226913 0.000350697 -0.00189401)
(-1.76582e-05 0.000428394 -0.00195489)
(0.000204252 0.000444318 -0.00194401)
(6.45644e-05 0.000649554 -0.00160406)
(6.40591e-05 0.000553213 -0.00141688)
(4.76299e-05 0.000515922 -0.00124599)
(-9.47793e-06 0.000587061 -0.00106556)
(-0.000128904 0.00074825 -0.000847938)
(-0.000303158 0.000947205 -0.000581682)
(-0.000500878 0.00113132 -0.000271194)
(-0.000684819 0.0012631 7.12075e-05)
(-0.000824953 0.00132084 0.000431966)
(-0.00090196 0.00129341 0.000798205)
(-0.000905314 0.00117584 0.00115611)
(-0.00083184 0.000967907 0.00148823)
(-0.00068805 0.000676346 0.00177142)
(-0.000495457 0.000320798 0.00197781)
(-0.000292316 -5.85994e-05 0.00208198)
(-0.000121904 -0.00039837 0.00207431)
(-9.37572e-06 -0.000626345 0.00196964)
(4.7107e-05 -0.000701424 0.00180001)
(6.45644e-05 -0.000649554 0.00160406)
(6.40591e-05 -0.000553213 0.00141688)
(4.76299e-05 -0.000515922 0.00124599)
(-9.47793e-06 -0.000587061 0.00106556)
(-0.000128904 -0.00074825 0.000847938)
(-0.000303158 -0.000947205 0.000581682)
(-0.000500878 -0.00113132 0.000271194)
(-0.000684819 -0.0012631 -7.12075e-05)
(-0.000824953 -0.00132084 -0.000431966)
(-0.00090196 -0.00129341 -0.000798205)
(-0.000905314 -0.00117584 -0.00115611)
(-0.00083184 -0.000967907 -0.00148823)
(-0.00068805 -0.000676346 -0.00177142)
(-0.000495457 -0.000320798 -0.00197781)
(-0.000292316 5.85994e-05 -0.00208198)
(-0.000121904 0.00039837 -0.00207431)
(-9.37572e-06 0.000626345 -0.00196964)
(4.7107e-05 0.000701424 -0.00180001)
(0.00249679 0.000850538 -0.00558857)
(0.003119 0.00117204 -0.00497347)
(0.00295802 0.00152757 -0.00393235)
(0.00224354 0.00177125 -0.00270277)
(0.00130053 0.00188278 -0.001498)
(0.000354492 0.00188122 -0.000449752)
(-0.000486398 0.00178294 0.000389195)
(-0.00118993 0.00160708 0.00102325)
(-0.00175945 0.00137903 0.0014971)
(-0.00220645 0.00111946 0.00188032)
(-0.00253371 0.000831835 0.00224892)
(-0.00272607 0.00050178 0.00266533)
(-0.00274784 0.000114282 0.00316083)
(-0.0025468 -0.00031223 0.00372677)
(-0.0020643 -0.00069213 0.00432327)
(-0.00124986 -0.000891071 0.00490138)
(-9.28527e-05 -0.000853362 0.00539572)
(0.00128195 -0.000744494 0.00567317)
(0.00249679 -0.000850538 0.00558857)
(0.003119 -0.00117204 0.00497347)
(0.00295802 -0.00152757 0.00393235)
(0.00224354 -0.00177125 0.00270277)
(0.00130053 -0.00188278 0.001498)
(0.000354492 -0.00188122 0.000449752)
(-0.000486398 -0.00178294 -0.000389195)
(-0.00118993 -0.00160708 -0.00102325)
(-0.00175945 -0.00137903 -0.0014971)
(-0.00220645 -0.00111946 -0.00188032)
(-0.00253371 -0.000831835 -0.00224892)
(-0.00272607 -0.00050178 -0.00266533)
(-0.00274784 -0.000114282 -0.00316083)
(-0.0025468 0.00031223 -0.00372677)
(-0.0020643 0.00069213 -0.00432327)
(-0.00124986 0.000891071 -0.00490138)
(-9.28527e-05 0.000853362 -0.00539572)
(0.00128195 0.000744494 -0.00567317)
(0.00170261 0.00142392 -0.00524802)
(0.00205597 0.00142716 -0.0047266)
(0.00198425 0.00155587 -0.00396939)
(0.00153052 0.00176222 -0.00305087)
(0.000848197 0.00198739 -0.00205875)
(9.17693e-05 0.00216988 -0.00107557)
(-0.000626235 0.00226175 -0.000160837)
(-0.00123974 0.00224173 0.000659245)
(-0.00171741 0.00211062 0.00139035)
(-0.00204623 0.00187627 0.00205899)
(-0.00221759 0.00154132 0.00269717)
(-0.00221987 0.00110165 0.00332691)
(-0.00203902 0.000557281 0.00394774)
(-0.00166796 -6.53282e-05 0.00453013)
(-0.00112161 -0.00068825 0.00502105)
(-0.000444244 -0.0011828 0.00536667)
(0.000306472 -0.00143826 0.00553664)
(0.00106544 -0.00146637 0.00550754)
(0.00170261 -0.00142392 0.00524802)
(0.00205597 -0.00142716 0.0047266)
(0.00198425 -0.00155587 0.00396939)
(0.00153052 -0.00176222 0.00305087)
(0.000848197 -0.00198739 0.00205875)
(9.17693e-05 -0.00216988 0.00107557)
(-0.000626235 -0.00226175 0.000160837)
(-0.00123974 -0.00224173 -0.000659245)
(-0.00171741 -0.00211062 -0.00139035)
(-0.00204623 -0.00187627 -0.00205899)
(-0.00221759 -0.00154132 -0.00269717)
(-0.00221987 -0.00110165 -0.00332691)
(-0.00203902 -0.000557281 -0.00394774)
(-0.00166796 6.53282e-05 -0.00453013)
(-0.00112161 0.00068825 -0.00502105)
(-0.000444244 0.0011828 -0.00536667)
(0.000306472 0.00143826 -0.00553664)
(0.00106544 0.00146637 -0.00550754)
(0.00101236 0.0017738 -0.00481216)
(0.00116588 0.0015531 -0.00440593)
(0.00118015 0.00151281 -0.00392498)
(0.000966451 0.00170231 -0.00330231)
(0.000525305 0.00204961 -0.00251768)
(-6.15493e-05 0.00242761 -0.00160518)
(-0.000681342 0.0027244 -0.000624915)
(-0.00123552 0.00287292 0.000370221)
(-0.0016573 0.00284354 0.00134656)
(-0.00190741 0.00262785 0.00228331)
(-0.00196402 0.00222929 0.00316245)
(-0.00181747 0.00166091 0.00396175)
(-0.00147402 0.000948129 0.00465049)
(-0.000969728 0.000136664 0.00518695)
(-0.000387575 -0.000692723 0.00552102)
(0.000148661 -0.00141017 0.00561378)
(0.000540599 -0.00185858 0.0054779)
(0.000801923 -0.00194602 0.00518849)
(0.00101236 -0.0017738 0.00481216)
(0.00116588 -0.0015531 0.00440593)
(0.00118015 -0.00151281 0.00392498)
(0.000966451 -0.00170231 0.00330231)
(0.000525305 -0.00204961 0.00251768)
(-6.15493e-05 -0.00242761 0.00160518)
(-0.000681342 -0.0027244 0.000624915)
(-0.00123552 -0.00287292 -0.000370221)
(-0.0016573 -0.00284354 -0.00134656)
(-0.00190741 -0.00262785 -0.00228331)
(-0.00196402 -0.00222929 -0.00316245)
(-0.00181747 -0.00166091 -0.00396175)
(-0.00147402 -0.000948129 -0.00465049)
(-0.000969728 -0.000136664 -0.00518695)
(-0.000387575 0.000692723 -0.00552102)
(0.000148661 0.00141017 -0.00561378)
(0.000540599 0.00185858 -0.0054779)
(0.000801923 0.00194602 -0.00518849)
(0.00495927 0.00237553 -0.00835461)
(0.00553011 0.00252743 -0.00738302)
(0.00475026 0.00267014 -0.00588697)
(0.003178 0.00277246 -0.00418655)
(0.001356 0.00283384 -0.00252831)
(-0.000367608 0.00282355 -0.0010476)
(-0.00183674 0.0027078 0.000199632)
(-0.00301634 0.00248102 0.00121536)
(-0.00392251 0.00216188 0.00204783)
(-0.00457814 0.00176874 0.0027759)
(-0.00499013 0.00130048 0.00348524)
(-0.00513946 0.000736417 0.00424188)
(-0.00497701 5.77702e-05 0.00507103)
(-0.00442046 -0.000713662 0.00595063)
(-0.00335653 -0.0014747 0.00682773)
(-0.00168306 -0.00204346 0.00764513)
(0.000555669 -0.00228377 0.0083215)
(0.00299465 -0.00229233 0.00863881)
(0.00495927 -0.00237553 0.00835461)
(0.00553011 -0.00252743 0.00738302)
(0.00475026 -0.00267014 0.00588697)
(0.003178 -0.00277246 0.00418655)
(0.001356 -0.00283384 0.00252831)
(-0.000367608 -0.00282355 0.0010476)
(-0.00183674 -0.0027078 -0.000199632)
(-0.00301634 -0.00248102 -0.00121536)
(-0.00392251 -0.00216188 -0.00204783)
(-0.00457814 -0.00176874 -0.0027759)
(-0.00499013 -0.00130048 -0.00348524)
(-0.00513946 -0.000736417 -0.00424188)
(-0.00497701 -5.77702e-05 -0.00507103)
(-0.00442046 0.000713662 -0.00595063)
(-0.00335653 0.0014747 -0.00682773)
(-0.00168306 0.00204346 -0.00764513)
(0.000555669 0.00228377 -0.0083215)
(0.00299465 0.00229233 -0.00863881)
(0.00380951 0.00254712 -0.0079093)
(0.0042115 0.00248773 -0.00711611)
(0.00381242 0.00256823 -0.00600005)
(0.00281563 0.00278451 -0.00464977)
(0.00151051 0.00305962 -0.00317983)
(0.000152833 0.00328382 -0.00170665)
(-0.00108388 0.0033731 -0.000316326)
(-0.00210882 0.00329284 0.000951944)
(-0.00288628 0.00304394 0.00210039)
(-0.00340446 0.00263833 0.00315649)
(-0.00365404 0.00208329 0.00415388)
(-0.00361805 0.00138055 0.00511467)
(-0.00327082 0.000539122 0.00603618)
(-0.00258478 -0.000401002 0.00688551)
(-0.00154708 -0.00134021 0.00760403)
(-0.000191572 -0.00211063 0.00812275)
(0.00135041 -0.00254993 0.00838334)
(0.0027914 -0.00264002 0.00833372)
(0.00380951 -0.00254712 0.0079093)
(0.0042115 -0.00248773 0.00711611)
(0.00381242 -0.00256823 0.00600005)
(0.00281563 -0.00278451 0.00464977)
(0.00151051 -0.00305962 0.00317983)
(0.000152833 -0.00328382 0.00170665)
(-0.00108388 -0.0033731 0.000316326)
(-0.00210882 -0.00329284 -0.000951944)
(-0.00288628 -0.00304394 -0.00210039)
(-0.00340446 -0.00263833 -0.00315649)
(-0.00365404 -0.00208329 -0.00415388)
(-0.00361805 -0.00138055 -0.00511467)
(-0.00327082 -0.000539122 -0.00603618)
(-0.00258478 0.000401002 -0.00688551)
(-0.00154708 0.00134021 -0.00760403)
(-0.000191572 0.00211063 -0.00812275)
(0.00135041 0.00254993 -0.00838334)
(0.0027914 0.00264002 -0.00833372)
(0.00280626 0.00261955 -0.00732311)
(0.00309127 0.00239757 -0.00675947)
(0.0030355 0.00240622 -0.00598941)
(0.00257705 0.00268812 -0.00495811)
(0.00176804 0.00313906 -0.00368023)
(0.000761167 0.00358471 -0.00224301)
(-0.000261417 0.00388396 -0.000748019)
(-0.00115666 0.00396303 0.000733299)
(-0.00183723 0.00379563 0.00216057)
(-0.00225472 0.00338082 0.00350768)
(-0.00238123 0.00273404 0.00475138)
(-0.00220031 0.00188458 0.00586641)
(-0.00170983 0.000876193 0.00682239)
(-0.000938789 -0.000226883 0.00757899)
(2.42964e-05 -0.001322 0.00808071)
(0.00101518 -0.00224466 0.00826716)
(0.00184061 -0.00279748 0.00812758)
(0.00239161 -0.00287633 0.00777066)
(0.00280626 -0.00261955 0.00732311)
(0.00309127 -0.00239757 0.00675947)
(0.0030355 -0.00240622 0.00598941)
(0.00257705 -0.00268812 0.00495811)
(0.00176804 -0.00313906 0.00368023)
(0.000761167 -0.00358471 0.00224301)
(-0.000261417 -0.00388396 0.000748019)
(-0.00115666 -0.00396303 -0.000733299)
(-0.00183723 -0.00379563 -0.00216057)
(-0.00225472 -0.00338082 -0.00350768)
(-0.00238123 -0.00273404 -0.00475138)
(-0.00220031 -0.00188458 -0.00586641)
(-0.00170983 -0.000876193 -0.00682239)
(-0.000938789 0.000226883 -0.00757899)
(2.42964e-05 0.001322 -0.00808071)
(0.00101518 0.00224466 -0.00826716)
(0.00184061 0.00279748 -0.00812758)
(0.00239161 0.00287633 -0.00777066)
(0.00719457 0.00403569 -0.0100491)
(0.00743049 0.00367874 -0.00888618)
(0.00599765 0.00345363 -0.00722005)
(0.00363936 0.00334918 -0.00533866)
(0.00106062 0.00328442 -0.00346179)
(-0.00129179 0.0031755 -0.00172333)
(-0.00324078 0.00296589 -0.000182946)
(-0.00476529 0.0026339 0.00115434)
(-0.00589413 0.00218412 0.00232288)
(-0.00665375 0.00162556 0.00338324)
(-0.00704994 0.000954603 0.00440211)
(-0.00706146 0.00015557 0.00542884)
(-0.00663366 -0.000780062 0.006478)
(-0.00566518 -0.00182175 0.00752877)
(-0.00399786 -0.00286881 0.00854317)
(-0.00148379 -0.00374895 0.00947159)
(0.00175323 -0.00427728 0.0102011)
(0.00502404 -0.00434604 0.0104931)
(0.00719457 -0.00403569 0.0100491)
(0.00743049 -0.00367874 0.00888618)
(0.00599765 -0.00345363 0.00722005)
(0.00363936 -0.00334918 0.00533866)
(0.00106062 -0.00328442 0.00346179)
(-0.00129179 -0.0031755 0.00172333)
(-0.00324078 -0.00296589 0.000182946)
(-0.00476529 -0.0026339 -0.00115434)
(-0.00589413 -0.00218412 -0.00232288)
(-0.00665375 -0.00162556 -0.00338324)
(-0.00704994 -0.000954603 -0.00440211)
(-0.00706146 -0.00015557 -0.00542884)
(-0.00663366 0.000780062 -0.006478)
(-0.00566518 0.00182175 -0.00752877)
(-0.00399786 0.00286881 -0.00854317)
(-0.00148379 0.00374895 -0.00947159)
(0.00175323 0.00427728 -0.0102011)
(0.00502404 0.00434604 -0.0104931)
(0.00588734 0.0036079 -0.00962799)
(0.00609228 0.00339722 -0.00867668)
(0.00529636 0.00337721 -0.00734383)
(0.00379967 0.00353103 -0.00572439)
(0.00196907 0.00373963 -0.00395921)
(0.000129206 0.00387811 -0.00218657)
(-0.00150813 0.00386325 -0.000496672)
(-0.00284062 0.00366011 0.00107212)
(-0.00383095 0.00326637 0.0025163)
(-0.00446612 0.00269257 0.00385169)
(-0.00473415 0.00194982 0.00509977)
(-0.00461405 0.00104894 0.00627411)
(-0.00407341 1.04457e-05 0.00736993)
(-0.0030723 -0.00111692 0.00836094)
(-0.00157964 -0.00223271 0.00920355)
(0.00037369 -0.00317203 0.00983828)
(0.0025873 -0.00374565 0.0101819)
(0.00460915 -0.0038469 0.0101364)
(0.00588734 -0.0036079 0.00962799)
(0.00609228 -0.00339722 0.00867668)
(0.00529636 -0.00337721 0.00734383)
(0.00379967 -0.00353103 0.00572439)
(0.00196907 -0.00373963 0.00395921)
(0.000129206 -0.00387811 0.00218657)
(-0.00150813 -0.00386325 0.000496672)
(-0.00284062 -0.00366011 -0.00107212)
(-0.00383095 -0.00326637 -0.0025163)
(-0.00446612 -0.00269257 -0.00385169)
(-0.00473415 -0.00194982 -0.00509977)
(-0.00461405 -0.00104894 -0.00627411)
(-0.00407341 -1.04457e-05 -0.00736993)
(-0.0030723 0.00111692 -0.00836094)
(-0.00157964 0.00223271 -0.00920355)
(0.00037369 0.00317203 -0.00983828)
(0.0025873 0.00374565 -0.0101819)
(0.00460915 0.0038469 -0.0101364)
(0.00463758 0.00340261 -0.00923639)
(0.00489721 0.00329384 -0.00850424)
(0.00473063 0.00337408 -0.00743075)
(0.00406748 0.00367119 -0.00602066)
(0.00296667 0.00407531 -0.00436128)
(0.00162646 0.00442505 -0.0025792)
(0.000285482 0.00459663 -0.000778743)
(-0.000876612 0.00452811 0.000979556)
(-0.00175673 0.00419878 0.00266024)
(-0.00230006 0.00361329 0.00423438)
(-0.00247414 0.00279598 0.0056752)
(-0.00225672 0.00178696 0.00695811)
(-0.0016384 0.000639488 0.0080587)
(-0.000643771 -0.000577156 0.00894751)
(0.000628362 -0.00176074 0.00958342)
(0.00197911 -0.002752 0.00991991)
(0.00317439 -0.00336751 0.00994091)
(0.00406402 -0.00353349 0.00969242)
(0.00463758 -0.00340261 0.00923639)
(0.00489721 -0.00329384 0.00850424)
(0.00473063 -0.00337408 0.00743075)
(0.00406748 -0.00367119 0.00602066)
(0.00296667 -0.00407531 0.00436128)
(0.00162646 -0.00442505 0.0025792)
(0.000285482 -0.00459663 0.000778743)
(-0.000876612 -0.00452811 -0.000979556)
(-0.00175673 -0.00419878 -0.00266024)
(-0.00230006 -0.00361329 -0.00423438)
(-0.00247414 -0.00279598 -0.0056752)
(-0.00225672 -0.00178696 -0.00695811)
(-0.0016384 -0.000639488 -0.0080587)
(-0.000643771 0.000577156 -0.00894751)
(0.000628362 0.00176074 -0.00958342)
(0.00197911 0.002752 -0.00991991)
(0.00317439 0.00336751 -0.00994091)
(0.00406402 0.00353349 -0.00969242)
(0.00805794 0.00512116 -0.0106232)
(0.00810669 0.0044623 -0.0094795)
(0.00642241 0.00392049 -0.00787912)
(0.0037019 0.0035381 -0.00602864)
(0.000737979 0.00323241 -0.00412268)
(-0.00194672 0.00291922 -0.00229379)
(-0.00415775 0.00254024 -0.000601527)
(-0.00587755 0.00205816 0.000942695)
(-0.00713032 0.00145608 0.00235254)
(-0.00793017 0.000729045 0.00365708)
(-0.00827102 -0.000126342 0.00489067)
(-0.00812387 -0.00111187 0.00607902)
(-0.00742828 -0.00221313 0.00723008)
(-0.00607465 -0.00337389 0.00833881)
(-0.00390244 -0.00447211 0.00939554)
(-0.000826349 -0.00532465 0.0103468)
(0.00281638 -0.00574633 0.011016)
(0.0061153 -0.00564494 0.0111539)
(0.00805794 -0.00512116 0.0106232)
(0.00810669 -0.0044623 0.0094795)
(0.00642241 -0.00392049 0.00787912)
(0.0037019 -0.0035381 0.00602864)
(0.000737979 -0.00323241 0.00412268)
(-0.00194672 -0.00291922 0.00229379)
(-0.00415775 -0.00254024 0.000601527)
(-0.00587755 -0.00205816 -0.000942695)
(-0.00713032 -0.00145608 -0.00235254)
(-0.00793017 -0.000729045 -0.00365708)
(-0.00827102 0.000126342 -0.00489067)
(-0.00812387 0.00111187 -0.00607902)
(-0.00742828 0.00221313 -0.00723008)
(-0.00607465 0.00337389 -0.00833881)
(-0.00390244 0.00447211 -0.00939554)
(-0.000826349 0.00532465 -0.0103468)
(0.00281638 0.00574633 -0.011016)
(0.0061153 0.00564494 -0.0111539)
(0.00680455 0.00442479 -0.0104281)
(0.00694515 0.00415849 -0.00943596)
(0.00600053 0.00400705 -0.00801435)
(0.00426896 0.00398236 -0.00628387)
(0.00216939 0.00398839 -0.00440554)
(7.23064e-05 0.00392616 -0.00251858)
(-0.00178821 0.00373077 -0.000701094)
(-0.00329916 0.00336768 0.00101592)
(-0.00441281 0.0028252 0.00262192)
(-0.00510533 0.00210745 0.00411528)
(-0.00535609 0.00122824 0.00549904)
(-0.00513861 0.000209678 0.00677489)
(-0.0044175 -0.000911957 0.00793741)
(-0.003152 -0.00207312 0.00897295)
(-0.00132152 -0.00316678 0.00985991)
(0.000988068 -0.00404019 0.0105504)
(0.00345665 -0.00454333 0.0109451)
(0.00555692 -0.00462896 0.0109285)
(0.00680455 -0.00442479 0.0104281)
(0.00694515 -0.00415849 0.00943596)
(0.00600053 -0.00400705 0.00801435)
(0.00426896 -0.00398236 0.00628387)
(0.00216939 -0.00398839 0.00440554)
(7.23064e-05 -0.00392616 0.00251858)
(-0.00178821 -0.00373077 0.000701094)
(-0.00329916 -0.00336768 -0.00101592)
(-0.00441281 -0.0028252 -0.00262192)
(-0.00510533 -0.00210745 -0.00411528)
(-0.00535609 -0.00122824 -0.00549904)
(-0.00513861 -0.000209678 -0.00677489)
(-0.0044175 0.000911957 -0.00793741)
(-0.003152 0.00207312 -0.00897295)
(-0.00132152 0.00316678 -0.00985991)
(0.000988068 0.00404019 -0.0105504)
(0.00345665 0.00454333 -0.0109451)
(0.00555692 0.00462896 -0.0109285)
(0.00561069 0.00401816 -0.0104326)
(0.00588344 0.00412503 -0.0095639)
(0.00567582 0.00427724 -0.00823741)
(0.00491849 0.00449736 -0.00656214)
(0.00367286 0.0047238 -0.00468856)
(0.0021529 0.00485742 -0.00275125)
(0.00062764 0.00481966 -0.000833944)
(-0.000695423 0.00456739 0.00102383)
(-0.0016962 0.00408331 0.00279536)
(-0.00231054 0.00337282 0.00445103)
(-0.00250059 0.00246363 0.00596148)
(-0.00224115 0.00140177 0.00730271)
(-0.00152275 0.00024727 0.00845612)
(-0.000376395 -0.000926122 0.00940572)
(0.00107772 -0.00202405 0.010135)
(0.00260411 -0.00292797 0.0106272)
(0.00394527 -0.00353997 0.0108712)
(0.00495615 -0.00386556 0.0108361)
(0.00561069 -0.00401816 0.0104326)
(0.00588344 -0.00412503 0.0095639)
(0.00567582 -0.00427724 0.00823741)
(0.00491849 -0.00449736 0.00656214)
(0.00367286 -0.0047238 0.00468856)
(0.0021529 -0.00485742 0.00275125)
(0.00062764 -0.00481966 0.000833944)
(-0.000695423 -0.00456739 -0.00102383)
(-0.0016962 -0.00408331 -0.00279536)
(-0.00231054 -0.00337282 -0.00445103)
(-0.00250059 -0.00246363 -0.00596148)
(-0.00224115 -0.00140177 -0.00730271)
(-0.00152275 -0.00024727 -0.00845612)
(-0.000376395 0.000926122 -0.00940572)
(0.00107772 0.00202405 -0.010135)
(0.00260411 0.00292797 -0.0106272)
(0.00394527 0.00353997 -0.0108712)
(0.00495615 0.00386556 -0.0108361)
(0.00778099 0.00556852 -0.01042)
(0.00769808 0.00473347 -0.00940713)
(0.00602093 0.00396281 -0.00798362)
(0.00334136 0.00331213 -0.00629103)
(0.000381819 0.00273407 -0.00449029)
(-0.00234024 0.00217444 -0.00270763)
(-0.00461219 0.00159114 -0.0010032)
(-0.00639702 0.000942682 0.000607571)
(-0.00769616 0.00019537 0.00212323)
(-0.00849984 -0.000668535 0.00354566)
(-0.0087827 -0.00165056 0.00487881)
(-0.00850473 -0.00273423 0.00612665)
(-0.00760432 -0.00387481 0.00729346)
(-0.00598764 -0.00498299 0.00838859)
(-0.00355412 -0.00591713 0.00941249)
(-0.000355495 -0.00650811 0.0102933)
(0.00314859 -0.00663041 0.010854)
(0.00612845 -0.00627424 0.0109177)
(0.00778099 -0.00556852 0.01042)
(0.00769808 -0.00473347 0.00940713)
(0.00602093 -0.00396281 0.00798362)
(0.00334136 -0.00331213 0.00629103)
(0.000381819 -0.00273407 0.00449029)
(-0.00234024 -0.00217444 0.00270763)
(-0.00461219 -0.00159114 0.0010032)
(-0.00639702 -0.000942682 -0.000607571)
(-0.00769616 -0.00019537 -0.00212323)
(-0.00849984 0.000668535 -0.00354566)
(-0.0087827 0.00165056 -0.00487881)
(-0.00850473 0.00273423 -0.00612665)
(-0.00760432 0.00387481 -0.00729346)
(-0.00598764 0.00498299 -0.00838859)
(-0.00355412 0.00591713 -0.00941249)
(-0.000355495 0.00650811 -0.0102933)
(0.00314859 0.00663041 -0.010854)
(0.00612845 0.00627424 -0.0109177)
(0.00675096 0.00481183 -0.0104249)
(0.00681079 0.00451816 -0.00949487)
(0.00585632 0.00425508 -0.0081288)
(0.00414623 0.00403033 -0.00644633)
(0.00205402 0.00379159 -0.00460762)
(-6.69014e-05 0.0034881 -0.00274686)
(-0.0019762 0.00308509 -0.000935386)
(-0.00354406 0.00255484 0.000800072)
(-0.00470226 0.00187885 0.00244454)
(-0.00540836 0.00105457 0.00398295)
(-0.00562888 9.74175e-05 0.00540218)
(-0.00533186 -0.000959269 0.00669307)
(-0.00448494 -0.00206155 0.00785019)
(-0.0030637 -0.00312897 0.00887161)
(-0.00109046 -0.00405292 0.00975022)
(0.00127614 -0.00471525 0.010443)
(0.00367608 -0.005038 0.0108535)
(0.00563668 -0.00503389 0.0108718)
(0.00675096 -0.00481183 0.0104249)
(0.00681079 -0.00451816 0.00949487)
(0.00585632 -0.00425508 0.0081288)
(0.00414623 -0.00403033 0.00644633)
(0.00205402 -0.00379159 0.00460762)
(-6.69014e-05 -0.0034881 0.00274686)
(-0.0019762 -0.00308509 0.000935386)
(-0.00354406 -0.00255484 -0.000800072)
(-0.00470226 -0.00187885 -0.00244454)
(-0.00540836 -0.00105457 -0.00398295)
(-0.00562888 -9.74175e-05 -0.00540218)
(-0.00533186 0.000959269 -0.00669307)
(-0.00448494 0.00206155 -0.00785019)
(-0.0030637 0.00312897 -0.00887161)
(-0.00109046 0.00405292 -0.00975022)
(0.00127614 0.00471525 -0.010443)
(0.00367608 0.005038 -0.0108535)
(0.00563668 0.00503389 -0.0108718)
(0.00574189 0.00437354 -0.0107515)
(0.00598321 0.00462591 -0.00986132)
(0.00575756 0.00480904 -0.00846453)
(0.0050081 0.00491472 -0.00671979)
(0.00377634 0.00492566 -0.00480782)
(0.00224805 0.0048125 -0.00286311)
(0.000686889 0.00454894 -0.0009572)
(-0.000683663 0.0041152 0.000882013)
(-0.00172485 0.00349921 0.0026348)
(-0.00235963 0.00270578 0.00427354)
(-0.00254373 0.00176242 0.00576856)
(-0.00225175 0.000717594 0.0070967)
(-0.00148126 -0.000364138 0.00824464)
(-0.000279517 -0.00140748 0.00920968)
(0.00121052 -0.00233544 0.00999632)
(0.00274528 -0.00308756 0.0106032)
(0.00408561 -0.00364755 0.0110005)
(0.00509883 -0.00405609 0.0110978)
(0.00574189 -0.00437354 0.0107515)
(0.00598321 -0.00462591 0.00986132)
(0.00575756 -0.00480904 0.00846453)
(0.0050081 -0.00491472 0.00671979)
(0.00377634 -0.00492566 0.00480782)
(0.00224805 -0.0048125 0.00286311)
(0.000686889 -0.00454894 0.0009572)
(-0.000683663 -0.0041152 -0.000882013)
(-0.00172485 -0.00349921 -0.0026348)
(-0.00235963 -0.00270578 -0.00427354)
(-0.00254373 -0.00176242 -0.00576856)
(-0.00225175 -0.000717594 -0.0070967)
(-0.00148126 0.000364138 -0.00824464)
(-0.000279517 0.00140748 -0.00920968)
(0.00121052 0.00233544 -0.00999632)
(0.00274528 0.00308756 -0.0106032)
(0.00408561 0.00364755 -0.0110005)
(0.00509883 0.00405609 -0.0110978)
(0.00662455 0.00561596 -0.00971087)
(0.00652703 0.00460353 -0.00891106)
(0.00504477 0.00362129 -0.00774073)
(0.00264058 0.00272174 -0.00628811)
(-8.60733e-05 0.00188843 -0.00467795)
(-0.002662 0.00109327 -0.00303101)
(-0.00485809 0.00031039 -0.00141653)
(-0.00660865 -0.000495623 0.000143685)
(-0.00788935 -0.00136299 0.00164136)
(-0.00866738 -0.00231545 0.00306401)
(-0.00890006 -0.00335118 0.00439605)
(-0.00854048 -0.00443703 0.00562585)
(-0.00753648 -0.00550252 0.00675352)
(-0.00583167 -0.00643632 0.00779174)
(-0.00340799 -0.00709644 0.0087376)
(-0.000418565 -0.00735064 0.00952071)
(0.00268429 -0.00714159 0.0100078)
(0.00523696 -0.00651878 0.0100843)
(0.00662455 -0.00561596 0.00971087)
(0.00652703 -0.00460353 0.00891106)
(0.00504477 -0.00362129 0.00774073)
(0.00264058 -0.00272174 0.00628811)
(-8.60733e-05 -0.00188843 0.00467795)
(-0.002662 -0.00109327 0.00303101)
(-0.00485809 -0.00031039 0.00141653)
(-0.00660865 0.000495623 -0.000143685)
(-0.00788935 0.00136299 -0.00164136)
(-0.00866738 0.00231545 -0.00306401)
(-0.00890006 0.00335118 -0.00439605)
(-0.00854048 0.00443703 -0.00562585)
(-0.00753648 0.00550252 -0.00675352)
(-0.00583167 0.00643632 -0.00779174)
(-0.00340799 0.00709644 -0.0087376)
(-0.000418565 0.00735064 -0.00952071)
(0.00268429 0.00714159 -0.0100078)
(0.00523696 0.00651878 -0.0100843)
(0.00587952 0.00489932 -0.00983284)
(0.00591246 0.0044985 -0.00904535)
(0.00505967 0.00408277 -0.00785053)
(0.0035263 0.00365262 -0.00634386)
(0.00161538 0.00318283 -0.00466128)
(-0.000368079 0.00265493 -0.00292714)
(-0.0021941 0.00205838 -0.0012161)
(-0.00371946 0.00137766 0.000440777)
(-0.00485548 0.000595526 0.0020256)
(-0.00554105 -0.00029309 0.00351708)
(-0.00573054 -0.00127131 0.00489287)
(-0.00538942 -0.00229719 0.00613659)
(-0.00449551 -0.00330366 0.00724253)
(-0.00305266 -0.00420133 0.00821453)
(-0.00113152 -0.0048914 0.00905026)
(0.00106987 -0.00529595 0.00971198)
(0.00321771 -0.00539353 0.0101197)
(0.00492726 -0.00523015 0.0101825)
(0.00587952 -0.00489932 0.00983284)
(0.00591246 -0.0044985 0.00904535)
(0.00505967 -0.00408277 0.00785053)
(0.0035263 -0.00365262 0.00634386)
(0.00161538 -0.00318283 0.00466128)
(-0.000368079 -0.00265493 0.00292714)
(-0.0021941 -0.00205838 0.0012161)
(-0.00371946 -0.00137766 -0.000440777)
(-0.00485548 -0.000595526 -0.0020256)
(-0.00554105 0.00029309 -0.00351708)
(-0.00573054 0.00127131 -0.00489287)
(-0.00538942 0.00229719 -0.00613659)
(-0.00449551 0.00330366 -0.00724253)
(-0.00305266 0.00420133 -0.00821453)
(-0.00113152 0.0048914 -0.00905026)
(0.00106987 0.00529595 -0.00971198)
(0.00321771 0.00539353 -0.0101197)
(0.00492726 0.00523015 -0.0101825)
(0.00510436 0.00451795 -0.0103756)
(0.00530907 0.00475759 -0.00955681)
(0.00510301 0.00487031 -0.00824573)
(0.00443934 0.00483014 -0.00660178)
(0.00333949 0.00463898 -0.00479698)
(0.00194233 0.00430766 -0.00295675)
(0.000475202 0.00384704 -0.00115029)
(-0.000841093 0.00325979 0.000593126)
(-0.00185286 0.00254298 0.00225497)
(-0.002469 0.00170306 0.00381051)
(-0.00263828 0.000766767 0.00523236)
(-0.0023368 -0.000217646 0.00649977)
(-0.00157294 -0.00118559 0.00760446)
(-0.0004129 -0.00206712 0.00855207)
(0.000987414 -0.00280664 0.00935496)
(0.00240094 -0.00338638 0.0100122)
(0.00362163 -0.00383406 0.0104813)
(0.00453502 -0.0042016 0.0106528)
(0.00510436 -0.00451795 0.0103756)
(0.00530907 -0.00475759 0.00955681)
(0.00510301 -0.00487031 0.00824573)
(0.00443934 -0.00483014 0.00660178)
(0.00333949 -0.00463898 0.00479698)
(0.00194233 -0.00430766 0.00295675)
(0.000475202 -0.00384704 0.00115029)
(-0.000841093 -0.00325979 -0.000593126)
(-0.00185286 -0.00254298 -0.00225497)
(-0.002469 -0.00170306 -0.00381051)
(-0.00263828 -0.000766767 -0.00523236)
(-0.0023368 0.000217646 -0.00649977)
(-0.00157294 0.00118559 -0.00760446)
(-0.0004129 0.00206712 -0.00855207)
(0.000987414 0.00280664 -0.00935496)
(0.00240094 0.00338638 -0.0100122)
(0.00362163 0.00383406 -0.0104813)
(0.00453502 0.0042016 -0.0106528)
(0.00482824 0.00549299 -0.00870896)
(0.00481533 0.00427905 -0.00817117)
(0.00364875 0.00307517 -0.00730589)
(0.00164859 0.00193843 -0.00615506)
(-0.00072453 0.000874473 -0.00480215)
(-0.00305624 -0.000129444 -0.00335425)
(-0.00509917 -0.00108971 -0.00189372)
(-0.00675171 -0.00203237 -0.000457909)
(-0.00796642 -0.0029899 0.000937982)
(-0.00869686 -0.00398374 0.00227662)
(-0.00889278 -0.00500762 0.00353508)
(-0.00850924 -0.0060184 0.00469433)
(-0.00751247 -0.00693405 0.00575002)
(-0.00588902 -0.00764048 0.00671054)
(-0.0036853 -0.00801304 0.00757015)
(-0.00108931 -0.00795936 0.00827758)
(0.00152002 -0.00746542 0.00874631)
(0.00364488 -0.00660185 0.00890114)
(0.00482824 -0.00549299 0.00870896)
(0.00481533 -0.00427905 0.00817117)
(0.00364875 -0.00307517 0.00730589)
(0.00164859 -0.00193843 0.00615506)
(-0.00072453 -0.000874473 0.00480215)
(-0.00305624 0.000129444 0.00335425)
(-0.00509917 0.00108971 0.00189372)
(-0.00675171 0.00203237 0.000457909)
(-0.00796642 0.0029899 -0.000937982)
(-0.00869686 0.00398374 -0.00227662)
(-0.00889278 0.00500762 -0.00353508)
(-0.00850924 0.0060184 -0.00469433)
(-0.00751247 0.00693405 -0.00575002)
(-0.00588902 0.00764048 -0.00671054)
(-0.0036853 0.00801304 -0.00757015)
(-0.00108931 0.00795936 -0.00827758)
(0.00152002 0.00746542 -0.00874631)