/*--------------------------------*- C++ -*----------------------------------*\
| =========                 |                                                 |
| \\      /  F ield         | OpenFOAM: The Open Source CFD Toolbox           |
|  \\    /   O peration     | Version:  2312                                  |
|   \\  /    A nd           | Website:  www.openfoam.com                      |
|    \\/     M anipulation  |                                                 |
\*---------------------------------------------------------------------------*/
FoamFile
{
    version     2.0;
    format      ascii;
    arch        "LSB;label=32;scalar=64";
    class       volVectorField;
    location    "0.7";
    object      D_0_0;
}
// * * * * * * * * * * * * * * * * * * * * * * * * * * * * * * * * * * * * * //

dimensions      [0 1 0 0 0 0 0];

internalField   nonuniform List<vector> 
1620
(
(0.000790509 2.90132e-05 -0.00212693)
(0.00105989 0.000263199 -0.00198059)
(0.00107857 0.000517706 -0.00158984)
(0.000905679 0.000670064 -0.00106212)
(0.000645994 0.000694961 -0.00052991)
(0.000373221 0.000626354 -8.16777e-05)
(0.000121044 0.00050536 0.000248709)
(-0.000100485 0.000362248 0.000465194)
(-0.00029159 0.000217739 0.000592664)
(-0.000455155 8.49912e-05 0.000666287)
(-0.000591897 -3.09013e-05 0.000723864)
(-0.00069718 -0.000131261 0.000799081)
(-0.000759651 -0.000216198 0.000915803)
(-0.000761444 -0.000272479 0.00108472)
(-0.000677589 -0.000268668 0.0013037)
(-0.000474159 -0.000178527 0.00155938)
(-0.000122453 -3.3261e-05 0.00182274)
(0.000344999 5.37689e-05 0.00204078)
(0.000790509 -2.90132e-05 0.00212693)
(0.00105989 -0.000263199 0.00198059)
(0.00107857 -0.000517706 0.00158984)
(0.000905679 -0.000670064 0.00106212)
(0.000645994 -0.000694961 0.00052991)
(0.000373221 -0.000626354 8.16777e-05)
(0.000121044 -0.00050536 -0.000248709)
(-0.000100485 -0.000362248 -0.000465194)
(-0.00029159 -0.000217739 -0.000592664)
(-0.000455155 -8.49912e-05 -0.000666287)
(-0.000591897 3.09013e-05 -0.000723864)
(-0.00069718 0.000131261 -0.000799081)
(-0.000759651 0.000216198 -0.000915803)
(-0.000761444 0.000272479 -0.00108472)
(-0.000677589 0.000268668 -0.0013037)
(-0.000474159 0.000178527 -0.00155938)
(-0.000122453 3.3261e-05 -0.00182274)
(0.000344999 -5.37689e-05 -0.00204078)
(0.000372452 0.000415297 -0.00184741)
(0.000475559 0.00044857 -0.00167049)
(0.000472677 0.000524181 -0.00140439)
(0.000367446 0.000617884 -0.00107551)
(0.00018972 0.000702962 -0.000723149)
(-2.16031e-05 0.000763724 -0.000381604)
(-0.00023276 0.00079244 -7.13086e-05)
(-0.000419818 0.000786616 0.00020184)
(-0.000568468 0.000747321 0.000443513)
(-0.000671292 0.000676006 0.000666439)
(-0.000724167 0.000571289 0.000884698)
(-0.00072399 0.000429003 0.00110752)
(-0.000669361 0.000247676 0.00133388)
(-0.000563687 3.86852e-05 0.00155016)
(-0.000416449 -0.000165741 0.00173436)
(-0.000237249 -0.000320156 0.00186617)
(-2.99137e-05 -0.000395472 0.00193374)
(0.000189561 -0.000409965 0.00193018)
(0.000372452 -0.000415297 0.00184741)
(0.000475559 -0.00044857 0.00167049)
(0.000472677 -0.000524181 0.00140439)
(0.000367446 -0.000617884 0.00107551)
(0.00018972 -0.000702962 0.000723149)
(-2.16031e-05 -0.000763724 0.000381604)
(-0.00023276 -0.00079244 7.13086e-05)
(-0.000419818 -0.000786616 -0.00020184)
(-0.000568468 -0.000747321 -0.000443513)
(-0.000671292 -0.000676006 -0.000666439)
(-0.000724167 -0.000571289 -0.000884698)
(-0.00072399 -0.000429003 -0.00110752)
(-0.000669361 -0.000247676 -0.00133388)
(-0.000563687 -3.86852e-05 -0.00155016)
(-0.000416449 0.000165741 -0.00173436)
(-0.000237249 0.000320156 -0.00186617)
(-2.99137e-05 0.000395472 -0.00193374)
(0.000189561 0.000409965 -0.00193018)
(5.56286e-05 0.00061711 -0.00160831)
(5.47744e-05 0.00052357 -0.00142799)
(3.79605e-05 0.000488121 -0.00126311)
(-1.89992e-05 0.000560278 -0.00108821)
(-0.000137482 0.000722639 -0.000875772)
(-0.000310345 0.000923822 -0.000614218)
(-0.00050684 0.00111155 -0.000307708)
(-0.000690156 0.0012482 3.16092e-05)
(-0.000830361 0.00131171 0.000390225)
(-0.000908 0.0012907 0.000755284)
(-0.000912346 0.00118002 0.00111308)
(-0.000840023 0.000979297 0.00144641)
(-0.000697309 0.000695002 0.00173245)
(-0.000505433 0.000346297 0.00194356)
(-0.000302419 -2.73829e-05 0.00205421)
(-0.000131613 -0.000363368 0.00205427)
(-1.8574e-05 -0.000590081 0.00195788)
(3.82001e-05 -0.000666327 0.00179652)
(5.56286e-05 -0.00061711 0.00160831)
(5.47744e-05 -0.00052357 0.00142799)
(3.79605e-05 -0.000488121 0.00126311)
(-1.89992e-05 -0.000560278 0.00108821)
(-0.000137482 -0.000722639 0.000875772)
(-0.000310345 -0.000923822 0.000614218)
(-0.00050684 -0.00111155 0.000307708)
(-0.000690156 -0.0012482 -3.16092e-05)
(-0.000830361 -0.00131171 -0.000390225)
(-0.000908 -0.0012907 -0.000755284)
(-0.000912346 -0.00118002 -0.00111308)
(-0.000840023 -0.000979297 -0.00144641)
(-0.000697309 -0.000695002 -0.00173245)
(-0.000505433 -0.000346297 -0.00194356)
(-0.000302419 2.73829e-05 -0.00205421)
(-0.000131613 0.000363368 -0.00205427)
(-1.8574e-05 0.000590081 -0.00195788)
(3.82001e-05 0.000666327 -0.00179652)
(0.00242685 0.00073925 -0.00556613)
(0.00305396 0.00105645 -0.00497499)
(0.0029085 0.00141476 -0.00395734)
(0.00221076 0.0016678 -0.00274856)
(0.00127956 0.00179168 -0.00156079)
(0.000339448 0.00180323 -0.000526082)
(-0.000499628 0.00171857 0.000302064)
(-0.00120319 0.00155716 0.000927621)
(-0.00177302 0.00134451 0.00139498)
(-0.00222003 0.00110122 0.0017734)
(-0.00254712 0.00083087 0.00213867)
(-0.00273963 0.000519334 0.0025534)
(-0.00276246 0.000151576 0.00304959)
(-0.00256406 -0.000254841 0.00361974)
(-0.00208669 -0.000616438 0.00422506)
(-0.00128134 -0.000801568 0.00481686)
(-0.000138375 -0.000755319 0.00532928)
(0.00122053 -0.000640277 0.00562817)
(0.00242685 -0.00073925 0.00556613)
(0.00305396 -0.00105645 0.00497499)
(0.0029085 -0.00141476 0.00395734)
(0.00221076 -0.0016678 0.00274856)
(0.00127956 -0.00179168 0.00156079)
(0.000339448 -0.00180323 0.000526082)
(-0.000499628 -0.00171857 -0.000302064)
(-0.00120319 -0.00155716 -0.000927621)
(-0.00177302 -0.00134451 -0.00139498)
(-0.00222003 -0.00110122 -0.0017734)
(-0.00254712 -0.00083087 -0.00213867)
(-0.00273963 -0.000519334 -0.0025534)
(-0.00276246 -0.000151576 -0.00304959)
(-0.00256406 0.000254841 -0.00361974)
(-0.00208669 0.000616438 -0.00422506)
(-0.00128134 0.000801568 -0.00481686)
(-0.000138375 0.000755319 -0.00532928)
(0.00122053 0.000640277 -0.00562817)
(0.00164473 0.00131845 -0.00523372)
(0.00199921 0.00132276 -0.00473512)
(0.0019349 0.00145498 -0.00399966)
(0.00149125 0.0016675 -0.00310081)
(0.000817947 0.00190103 -0.00212586)
(6.76608e-05 0.00209397 -0.00115718)
(-0.000647219 0.00219847 -0.000254277)
(-0.00125982 0.0021931 0.000556514)
(-0.00173786 0.00207828 0.00128068)
(-0.00206768 0.00186145 0.00194462)
(-0.00224043 0.00154507 0.00258033)
(-0.0022445 0.00112486 0.00321019)
(-0.00206596 0.000600494 0.00383437)
(-0.00169784 -2.51521e-06 0.00442412)
(-0.00115516 -0.000608003 0.0049269)
(-0.000482626 -0.00108945 0.00528865)
(0.000261408 -0.00133727 0.00547797)
(0.00101251 -0.0013621 0.00547048)
(0.00164473 -0.00131845 0.00523372)
(0.00199921 -0.00132276 0.00473512)
(0.0019349 -0.00145498 0.00399966)
(0.00149125 -0.0016675 0.00310081)
(0.000817947 -0.00190103 0.00212586)
(6.76608e-05 -0.00209397 0.00115718)
(-0.000647219 -0.00219847 0.000254277)
(-0.00125982 -0.0021931 -0.000556514)
(-0.00173786 -0.00207828 -0.00128068)
(-0.00206768 -0.00186145 -0.00194462)
(-0.00224043 -0.00154507 -0.00258033)
(-0.0022445 -0.00112486 -0.00321019)
(-0.00206596 -0.000600494 -0.00383437)
(-0.00169784 2.51521e-06 -0.00442412)
(-0.00115516 0.000608003 -0.0049269)
(-0.000482626 0.00108945 -0.00528865)
(0.000261408 0.00133727 -0.00547797)
(0.00101251 0.0013621 -0.00547048)
(0.00096663 0.00167692 -0.00481083)
(0.00111693 0.00146187 -0.0044253)
(0.00113062 0.00142608 -0.00396397)
(0.000920336 0.00161935 -0.00335974)
(0.000485351 0.00197155 -0.00259215)
(-9.5065e-05 0.0023575 -0.00169461)
(-0.000710157 0.00266589 -0.000726581)
(-0.00126208 0.00282908 0.000259216)
(-0.00168375 0.00281663 0.00122901)
(-0.00193525 0.00261946 0.00216204)
(-0.0019942 0.00224045 0.00304055)
(-0.0018505 0.00169207 0.00384278)
(-0.00151007 0.000999003 0.00453853)
(-0.00100857 0.000205965 0.00508641)
(-0.000428362 -0.00060765 0.00543624)
(0.000107248 -0.0013137 0.00554827)
(0.000499204 -0.00175663 0.0054335)
(0.000759329 -0.00184467 0.00516558)
(0.00096663 -0.00167692 0.00481083)
(0.00111693 -0.00146187 0.0044253)
(0.00113062 -0.00142608 0.00396397)
(0.000920336 -0.00161935 0.00335974)
(0.000485351 -0.00197155 0.00259215)
(-9.5065e-05 -0.0023575 0.00169461)
(-0.000710157 -0.00266589 0.000726581)
(-0.00126208 -0.00282908 -0.000259216)
(-0.00168375 -0.00281663 -0.00122901)
(-0.00193525 -0.00261946 -0.00216204)
(-0.0019942 -0.00224045 -0.00304055)
(-0.0018505 -0.00169207 -0.00384278)
(-0.00151007 -0.000999003 -0.00453853)
(-0.00100857 -0.000205965 -0.00508641)
(-0.000428362 0.00060765 -0.00543624)
(0.000107248 0.0013137 -0.00554827)
(0.000499204 0.00175663 -0.0054335)
(0.000759329 0.00184467 -0.00516558)
(0.00483428 0.00219172 -0.00832842)
(0.00542168 0.00234505 -0.00739386)
(0.00467173 0.00249707 -0.00593247)
(0.00312769 0.00261504 -0.004262)
(0.00132413 0.00269502 -0.00262858)
(-0.000391033 0.00270482 -0.00116853)
(-0.00185805 0.00261082 6.14675e-05)
(-0.0030382 0.00240766 0.00106319)
(-0.00394557 0.00211384 0.00188476)
(-0.00460256 0.00174754 0.00260486)
(-0.00501647 0.00130771 0.00330913)
(-0.00516894 0.000773784 0.00406412)
(-0.00501151 0.000126708 0.00489611)
(-0.00446261 -0.000612904 0.00578441)
(-0.00341028 -0.00134433 0.00667696)
(-0.0017542 -0.00188913 0.00751657)
(0.000461531 -0.00211351 0.00822163)
(0.00287809 -0.00211335 0.0085744)
(0.00483428 -0.00219172 0.00832842)
(0.00542168 -0.00234505 0.00739386)
(0.00467173 -0.00249707 0.00593247)
(0.00312769 -0.00261504 0.004262)
(0.00132413 -0.00269502 0.00262858)
(-0.000391033 -0.00270482 0.00116853)
(-0.00185805 -0.00261082 -6.14675e-05)
(-0.0030382 -0.00240766 -0.00106319)
(-0.00394557 -0.00211384 -0.00188476)
(-0.00460256 -0.00174754 -0.00260486)
(-0.00501647 -0.00130771 -0.00330913)
(-0.00516894 -0.000773784 -0.00406412)
(-0.00501151 -0.000126708 -0.00489611)
(-0.00446261 0.000612904 -0.00578441)
(-0.00341028 0.00134433 -0.00667696)
(-0.0017542 0.00188913 -0.00751657)
(0.000461531 0.00211351 -0.00822163)
(0.00287809 0.00211335 -0.0085744)
(0.00370042 0.00237854 -0.00789108)
(0.00410703 0.00232316 -0.00713414)
(0.00372272 0.00241112 -0.00605182)
(0.00274428 0.00263813 -0.0047317)
(0.00145514 0.00292729 -0.00328765)
(0.00010815 0.00316899 -0.00183594)
(-0.00112309 0.00327919 -0.000463017)
(-0.00214623 0.00322277 0.000791519)
(-0.00292404 0.00299997 0.00192973)
(-0.00344388 0.00262215 0.00297913)
(-0.00369618 0.00209623 0.0039736)
(-0.00366406 0.00142355 0.00493578)
(-0.00332202 0.000612473 0.00586374)
(-0.00264275 -0.000298191 0.00672531)
(-0.00161373 -0.00121088 0.00746227)
(-0.000269205 -0.00196048 0.00800532)
(0.00125978 -0.00238676 0.00829517)
(0.00268845 -0.00247144 0.00827892)
(0.00370042 -0.00237854 0.00789108)
(0.00410703 -0.00232316 0.00713414)
(0.00372272 -0.00241112 0.00605182)
(0.00274428 -0.00263813 0.0047317)
(0.00145514 -0.00292729 0.00328765)
(0.00010815 -0.00316899 0.00183594)
(-0.00112309 -0.00327919 0.000463017)
(-0.00214623 -0.00322277 -0.000791519)
(-0.00292404 -0.00299997 -0.00192973)
(-0.00344388 -0.00262215 -0.00297913)
(-0.00369618 -0.00209623 -0.0039736)
(-0.00366406 -0.00142355 -0.00493578)
(-0.00332202 -0.000612473 -0.00586374)
(-0.00264275 0.000298191 -0.00672531)
(-0.00161373 0.00121088 -0.00746227)
(-0.000269205 0.00196048 -0.00800532)
(0.00125978 0.00238676 -0.00829517)
(0.00268845 0.00247144 -0.00827892)
(0.00271312 0.00246854 -0.00731709)
(0.00299078 0.00225282 -0.00678721)
(0.00293505 0.00226806 -0.00604994)
(0.00248502 0.00255701 -0.00504881)
(0.0016893 0.00301791 -0.00379739)
(0.000695306 0.00347854 -0.00238186)
(-0.000318291 0.00379777 -0.000903734)
(-0.00120901 0.00390066 0.000564954)
(-0.00188854 0.0037598 0.00198351)
(-0.00230741 0.00337337 0.00332607)
(-0.00243687 0.00275591 0.00456985)
(-0.00225999 0.00193581 0.0056901)
(-0.00177437 0.000955845 0.00665678)
(-0.00100866 -0.000120885 0.0074298)
(-5.07193e-05 -0.00119329 0.00795357)
(0.000936042 -0.00209907 0.00816703)
(0.00175833 -0.00264279 0.00805774)
(0.00230553 -0.00272059 0.00773221)
(0.00271312 -0.00246854 0.00731709)
(0.00299078 -0.00225282 0.00678721)
(0.00293505 -0.00226806 0.00604994)
(0.00248502 -0.00255701 0.00504881)
(0.0016893 -0.00301791 0.00379739)
(0.000695306 -0.00347854 0.00238186)
(-0.000318291 -0.00379777 0.000903734)
(-0.00120901 -0.00390066 -0.000564954)
(-0.00188854 -0.0037598 -0.00198351)
(-0.00230741 -0.00337337 -0.00332607)
(-0.00243687 -0.00275591 -0.00456985)
(-0.00225999 -0.00193581 -0.0056901)
(-0.00177437 -0.000955845 -0.00665678)
(-0.00100866 0.000120885 -0.0074298)
(-5.07193e-05 0.00119329 -0.00795357)
(0.000936042 0.00209907 -0.00816703)
(0.00175833 0.00264279 -0.00805774)
(0.00230553 0.00272059 -0.00773221)
(0.00702171 0.0038039 -0.010021)
(0.00728814 0.00345469 -0.00890624)
(0.00589568 0.00324185 -0.00728407)
(0.00357076 0.00315527 -0.00544024)
(0.00101103 0.00311316 -0.00359438)
(-0.00133427 0.00303039 -0.00188176)
(-0.00328203 0.00285003 -0.000363302)
(-0.00480728 0.0025501 0.000955791)
(-0.00593766 0.00213474 0.00211019)
(-0.00669989 0.00161252 0.00316075)
(-0.00710044 0.000979521 0.00417462)
(-0.0071187 0.000219651 0.00520182)
(-0.00670063 -0.000676445 0.0062578)
(-0.00574583 -0.00167976 0.00732244)
(-0.00409802 -0.00269188 0.00835777)
(-0.00161072 -0.00354325 0.00931406)
(0.00159645 -0.00405162 0.0100794)
(0.00484719 -0.0041119 0.0104155)
(0.00702171 -0.0038039 0.010021)
(0.00728814 -0.00345469 0.00890624)
(0.00589568 -0.00324185 0.00728407)
(0.00357076 -0.00315527 0.00544024)
(0.00101103 -0.00311316 0.00359438)
(-0.00133427 -0.00303039 0.00188176)
(-0.00328203 -0.00285003 0.000363302)
(-0.00480728 -0.0025501 -0.000955791)
(-0.00593766 -0.00213474 -0.00211019)
(-0.00669989 -0.00161252 -0.00316075)
(-0.00710044 -0.000979521 -0.00417462)
(-0.0071187 -0.000219651 -0.00520182)
(-0.00670063 0.000676445 -0.0062578)
(-0.00574583 0.00167976 -0.00732244)
(-0.00409802 0.00269188 -0.00835777)
(-0.00161072 0.00354325 -0.00931406)
(0.00159645 0.00405162 -0.0100794)
(0.00484719 0.0041119 -0.0104155)
(0.00572951 0.00339414 -0.00960676)
(0.0059455 0.00318941 -0.00870165)
(0.00517037 0.00317896 -0.00741267)
(0.00369709 0.00334714 -0.00583216)
(0.0018861 0.00357542 -0.00409922)
(5.91316e-05 0.00373834 -0.00235236)
(-0.00157136 0.00375187 -0.000683164)
(-0.00290114 0.0035803 0.000869173)
(-0.00389153 0.0032206 0.00230118)
(-0.00452891 0.00268265 0.00362912)
(-0.00480121 0.00197686 0.00487499)
(-0.00468751 0.00111331 0.00605289)
(-0.00415561 0.000111563 0.00715854)
(-0.00316585 -0.000980945 0.00816599)
(-0.00168759 -0.00206562 0.00903161)
(0.000248491 -0.00297994 0.00969559)
(0.00244446 -0.00353701 0.0100746)
(0.00445365 -0.00363147 0.0100699)
(0.00572951 -0.00339414 0.00960676)
(0.0059455 -0.00318941 0.00870165)
(0.00517037 -0.00317896 0.00741267)
(0.00369709 -0.00334714 0.00583216)
(0.0018861 -0.00357542 0.00409922)
(5.91316e-05 -0.00373834 0.00235236)
(-0.00157136 -0.00375187 0.000683164)
(-0.00290114 -0.0035803 -0.000869173)
(-0.00389153 -0.0032206 -0.00230118)
(-0.00452891 -0.00268265 -0.00362912)
(-0.00480121 -0.00197686 -0.00487499)
(-0.00468751 -0.00111331 -0.00605289)
(-0.00415561 -0.000111563 -0.00715854)
(-0.00316585 0.000980945 -0.00816599)
(-0.00168759 0.00206562 -0.00903161)
(0.000248491 0.00297994 -0.00969559)
(0.00244446 0.00353701 -0.0100746)
(0.00445365 0.00363147 -0.0100699)
(0.00449478 0.00320475 -0.00922346)
(0.00474652 0.00310197 -0.00853594)
(0.00458157 0.00319188 -0.00750655)
(0.00393156 0.00350162 -0.0061361)
(0.00285047 0.00392284 -0.00450933)
(0.00152878 0.00429521 -0.00275225)
(0.00020043 0.00449416 -0.00097054)
(-0.000955125 0.00445649 0.000773763)
(-0.00183329 0.00416056 0.00244492)
(-0.0023779 0.00361008 0.00401457)
(-0.00255565 0.00282829 0.00545649)
(-0.00234383 0.00185424 0.0067464)
(-0.00173278 0.000740161 0.00786005)
(-0.000746632 -0.000445645 0.00876792)
(0.000516843 -0.0016023 0.00942866)
(0.00186015 -0.0025725 0.00979498)
(0.00304906 -0.00317449 0.00984973)
(0.00393118 -0.0033346 0.00963844)
(0.00449478 -0.00320475 0.00922346)
(0.00474652 -0.00310197 0.00853594)
(0.00458157 -0.00319188 0.00750655)
(0.00393156 -0.00350162 0.0061361)
(0.00285047 -0.00392284 0.00450933)
(0.00152878 -0.00429521 0.00275225)
(0.00020043 -0.00449416 0.00097054)
(-0.000955125 -0.00445649 -0.000773763)
(-0.00183329 -0.00416056 -0.00244492)
(-0.0023779 -0.00361008 -0.00401457)
(-0.00255565 -0.00282829 -0.00545649)
(-0.00234383 -0.00185424 -0.0067464)
(-0.00173278 -0.000740161 -0.00786005)
(-0.000746632 0.000445645 -0.00876792)
(0.000516843 0.0016023 -0.00942866)
(0.00186015 0.0025725 -0.00979498)
(0.00304906 0.00317449 -0.00984973)
(0.00393118 0.0033346 -0.00963844)
(0.00785022 0.00487331 -0.010595)
(0.00793958 0.00422206 -0.00950687)
(0.00630034 0.00369143 -0.00795784)
(0.0036126 0.00332672 -0.00615115)
(0.000663638 0.00304592 -0.00428041)
(-0.00201776 0.00276305 -0.00248008)
(-0.00422903 0.00241864 -0.000811942)
(-0.00594937 0.00197478 0.000712139)
(-0.0072034 0.00141383 0.00210654)
(-0.00800656 0.000729986 0.00340127)
(-0.00835373 -8.11243e-05 0.00463147)
(-0.00821653 -0.00102245 0.00582348)
(-0.00753516 -0.00208113 0.00698548)
(-0.00620127 -0.003203 0.00811207)
(-0.00405613 -0.0042683 0.00919268)
(-0.00101349 -0.00509574 0.0101743)
(0.00259956 -0.00550132 0.0108828)
(0.0058888 -0.00539405 0.0110702)
(0.00785022 -0.00487331 0.010595)
(0.00793958 -0.00422206 0.00950687)
(0.00630034 -0.00369143 0.00795784)
(0.0036126 -0.00332672 0.00615115)
(0.000663638 -0.00304592 0.00428041)
(-0.00201776 -0.00276305 0.00248008)
(-0.00422903 -0.00241864 0.000811942)
(-0.00594937 -0.00197478 -0.000712139)
(-0.0072034 -0.00141383 -0.00210654)
(-0.00800656 -0.000729986 -0.00340127)
(-0.00835373 8.11243e-05 -0.00463147)
(-0.00821653 0.00102245 -0.00582348)
(-0.00753516 0.00208113 -0.00698548)
(-0.00620127 0.003203 -0.00811207)
(-0.00405613 0.0042683 -0.00919268)
(-0.00101349 0.00509574 -0.0101743)
(0.00259956 0.00550132 -0.0108828)
(0.0058888 0.00539405 -0.0110702)
(0.00660744 0.0041898 -0.010404)
(0.00676509 0.00392758 -0.00946444)
(0.00584457 0.00378561 -0.00809401)
(0.00413758 0.00377759 -0.0064086)
(0.00205743 0.00380761 -0.00456644)
(-2.71557e-05 0.00377495 -0.00270755)
(-0.00188064 0.00361316 -0.000912388)
(-0.0033883 0.00328688 0.000786864)
(-0.00450171 0.00278378 0.00237994)
(-0.00519694 0.00210708 0.00386605)
(-0.00545346 0.00126951 0.00524888)
(-0.00524493 0.000291966 0.00653054)
(-0.00453612 -0.000790636 0.00770569)
(-0.00328662 -0.00191625 0.00876044)
(-0.00147595 -0.00297954 0.00967262)
(0.000811824 -0.00382936 0.0103942)
(0.00326211 -0.00431686 0.0108268)
(0.00535442 -0.00439493 0.0108546)
(0.00660744 -0.0041898 0.010404)
(0.00676509 -0.00392758 0.00946444)
(0.00584457 -0.00378561 0.00809401)
(0.00413758 -0.00377759 0.0064086)
(0.00205743 -0.00380761 0.00456644)
(-2.71557e-05 -0.00377495 0.00270755)
(-0.00188064 -0.00361316 0.000912388)
(-0.0033883 -0.00328688 -0.000786864)
(-0.00450171 -0.00278378 -0.00237994)
(-0.00519694 -0.00210708 -0.00386605)
(-0.00545346 -0.00126951 -0.00524888)
(-0.00524493 -0.000291966 -0.00653054)
(-0.00453612 0.000790636 -0.00770569)
(-0.00328662 0.00191625 -0.00876044)
(-0.00147595 0.00297954 -0.00967262)
(0.000811824 0.00382936 -0.0103942)
(0.00326211 0.00431686 -0.0108268)
(0.00535442 0.00439493 -0.0108546)
(0.00542353 0.00379187 -0.0104123)
(0.00569084 0.00390221 -0.00959584)
(0.00548711 0.00406563 -0.00832121)
(0.00474571 0.00430342 -0.00669126)
(0.00352322 0.00455338 -0.00485337)
(0.0020248 0.00471562 -0.00294247)
(0.000514117 0.00471024 -0.00104472)
(-0.000801391 0.00449317 0.000798432)
(-0.00179987 0.00404648 0.00256014)
(-0.0024158 0.00337464 0.00421149)
(-0.0026106 0.00250414 0.00572372)
(-0.00235866 0.00147975 0.00707297)
(-0.00165023 0.000360416 0.00824052)
(-0.000515689 -0.000781076 0.00921006)
(0.00092625 -0.00185132 0.00996448)
(0.0024421 -0.00273285 0.0104865)
(0.00377469 -0.00332844 0.0107646)
(0.0047774 -0.00364351 0.0107692)
(0.00542353 -0.00379187 0.0104123)
(0.00569084 -0.00390221 0.00959584)
(0.00548711 -0.00406563 0.00832121)
(0.00474571 -0.00430342 0.00669126)
(0.00352322 -0.00455338 0.00485337)
(0.0020248 -0.00471562 0.00294247)
(0.000514117 -0.00471024 0.00104472)
(-0.000801391 -0.00449317 -0.000798432)
(-0.00179987 -0.00404648 -0.00256014)
(-0.0024158 -0.00337464 -0.00421149)
(-0.0026106 -0.00250414 -0.00572372)
(-0.00235866 -0.00147975 -0.00707297)
(-0.00165023 -0.000360416 -0.00824052)
(-0.000515689 0.000781076 -0.00921006)
(0.00092625 0.00185132 -0.00996448)
(0.0024421 0.00273285 -0.0104865)
(0.00377469 0.00332844 -0.0107646)
(0.0047774 0.00364351 -0.0107692)
(0.0075428 0.00533001 -0.0103916)
(0.00750559 0.00449959 -0.00943708)
(0.00587526 0.00373749 -0.00806932)
(0.00322713 0.00310299 -0.00642502)
(0.00027939 0.00254978 -0.00466241)
(-0.00244236 0.00202161 -0.00290938)
(-0.00471601 0.00147486 -0.00122918)
(-0.00650159 0.000867256 0.000361611)
(-0.00780208 0.000164188 0.00186227)
(-0.0086098 -0.000653452 0.00327597)
(-0.00890069 -0.00158887 0.00460771)
(-0.00863538 -0.00262756 0.00586185)
(-0.00775286 -0.00372708 0.00704226)
(-0.00616043 -0.00480054 0.00815703)
(-0.00375823 -0.00570819 0.00920561)
(-0.000593932 -0.00628137 0.0101175)
(0.00288537 -0.00639364 0.0107187)
(0.00586377 -0.00603411 0.0108326)
(0.0075428 -0.00533001 0.0103916)
(0.00750559 -0.00449959 0.00943708)
(0.00587526 -0.00373749 0.00806932)
(0.00322713 -0.00310299 0.00642502)
(0.00027939 -0.00254978 0.00466241)
(-0.00244236 -0.00202161 0.00290938)
(-0.00471601 -0.00147486 0.00122918)
(-0.00650159 -0.000867256 -0.000361611)
(-0.00780208 -0.000164188 -0.00186227)
(-0.0086098 0.000653452 -0.00327597)
(-0.00890069 0.00158887 -0.00460771)
(-0.00863538 0.00262756 -0.00586185)
(-0.00775286 0.00372708 -0.00704226)
(-0.00616043 0.00480054 -0.00815703)
(-0.00375823 0.00570819 -0.00920561)
(-0.000593932 0.00628137 -0.0101175)
(0.00288537 0.00639364 -0.0107187)
(0.00586377 0.00603411 -0.0108326)
(0.00651935 0.00457842 -0.0103981)
(0.00660065 0.00428567 -0.00952344)
(0.00567245 0.0040304 -0.0082121)
(0.00398677 0.00382256 -0.00657791)
(0.00191272 0.00360935 -0.00477758)
(-0.000196857 0.00333746 -0.00294609)
(-0.00209958 0.00297022 -0.00115743)
(-0.00366416 0.00247904 0.00056013)
(-0.00482224 0.00184473 0.00219191)
(-0.00553174 0.00106358 0.00372377)
(-0.00575947 0.000149521 0.00514334)
(-0.00547362 -0.000865823 0.00644166)
(-0.00464197 -0.0019303 0.00761298)
(-0.00324021 -0.00296516 0.00865455)
(-0.00128989 -0.00386303 0.00955847)
(0.00105394 -0.00450611 0.010282)
(0.00343778 -0.00481589 0.0107302)
(0.00539467 -0.00480404 0.0107936)
(0.00651935 -0.00457842 0.0103981)
(0.00660065 -0.00428567 0.00952344)
(0.00567245 -0.0040304 0.0082121)
(0.00398677 -0.00382256 0.00657791)
(0.00191272 -0.00360935 0.00477758)
(-0.000196857 -0.00333746 0.00294609)
(-0.00209958 -0.00297022 0.00115743)
(-0.00366416 -0.00247904 -0.00056013)
(-0.00482224 -0.00184473 -0.00219191)
(-0.00553174 -0.00106358 -0.00372377)
(-0.00575947 -0.000149521 -0.00514334)
(-0.00547362 0.000865823 -0.00644166)
(-0.00464197 0.0019303 -0.00761298)
(-0.00324021 0.00296516 -0.00865455)
(-0.00128989 0.00386303 -0.00955847)
(0.00105394 0.00450611 -0.010282)
(0.00343778 0.00481589 -0.0107302)
(0.00539467 0.00480404 -0.0107936)
(0.00551642 0.00413976 -0.0107252)
(0.00575547 0.00439286 -0.00989135)
(0.00553619 0.00458699 -0.00854978)
(0.00480382 0.00471265 -0.00685229)
(0.00359586 0.00475038 -0.00497712)
(0.00208987 0.00466877 -0.00305964)
(0.000543887 0.00443982 -0.00117384)
(-0.000818893 0.00404301 0.000650458)
(-0.00185797 0.00346583 0.00239338)
(-0.00249498 0.00271215 0.00402798)
(-0.002685 0.00180814 0.0055251)
(-0.00240231 0.000800811 0.00686159)
(-0.0016441 -0.00024655 0.00802381)
(-0.000456739 -0.00125963 0.00900833)
(0.00101893 -0.00216188 0.00981881)
(0.00254186 -0.00289267 0.0104535)
(0.0038734 -0.00343527 0.0108838)
(0.00487945 -0.00383029 0.0110215)
(0.00551642 -0.00413976 0.0107252)
(0.00575547 -0.00439286 0.00989135)
(0.00553619 -0.00458699 0.00854978)
(0.00480382 -0.00471265 0.00685229)
(0.00359586 -0.00475038 0.00497712)
(0.00208987 -0.00466877 0.00305964)
(0.000543887 -0.00443982 0.00117384)
(-0.000818893 -0.00404301 -0.000650458)
(-0.00185797 -0.00346583 -0.00239338)
(-0.00249498 -0.00271215 -0.00402798)
(-0.002685 -0.00180814 -0.0055251)
(-0.00240231 -0.000800811 -0.00686159)
(-0.0016441 0.00024655 -0.00802381)
(-0.000456739 0.00125963 -0.00900833)
(0.00101893 0.00216188 -0.00981881)
(0.00254186 0.00289267 -0.0104535)
(0.0038734 0.00343527 -0.0108838)
(0.00487945 0.00383029 -0.0110215)
(0.00635771 0.00540261 -0.00968077)
(0.00630424 0.00439271 -0.00893778)
(0.00486745 0.00341686 -0.00782364)
(0.00249498 0.00253124 -0.00642146)
(-0.000218851 0.00172065 -0.00485166)
(-0.00279427 0.000955364 -0.00323505)
(-0.00499275 0.000207867 -0.00164397)
(-0.00674493 -0.0005581 -0.000102334)
(-0.00802785 -0.00138182 0.00138182)
(-0.00881103 -0.00228872 0.00279723)
(-0.00905324 -0.00327927 0.00412939)
(-0.00870817 -0.00432289 0.00536689)
(-0.00772407 -0.00535185 0.00650895)
(-0.00604513 -0.00625716 0.00756674)
(-0.00365266 -0.00689812 0.00853673)
(-0.000694322 -0.00714178 0.00935023)
(0.00238869 -0.00692828 0.00987632)
(0.00494332 -0.00630451 0.0100004)
(0.00635771 -0.00540261 0.00968077)
(0.00630424 -0.00439271 0.00893778)
(0.00486745 -0.00341686 0.00782364)
(0.00249498 -0.00253124 0.00642146)
(-0.000218851 -0.00172065 0.00485166)
(-0.00279427 -0.000955364 0.00323505)
(-0.00499275 -0.000207867 0.00164397)
(-0.00674493 0.0005581 0.000102334)
(-0.00802785 0.00138182 -0.00138182)
(-0.00881103 0.00228872 -0.00279723)
(-0.00905324 0.00327927 -0.00412939)
(-0.00870817 0.00432289 -0.00536689)
(-0.00772407 0.00535185 -0.00650895)
(-0.00604513 0.00625716 -0.00756674)
(-0.00365266 0.00689812 -0.00853673)
(-0.000694322 0.00714178 -0.00935023)
(0.00238869 0.00692828 -0.00987632)
(0.00494332 0.00630451 -0.0100004)
(0.00561835 0.00468372 -0.00980309)
(0.00567314 0.00428195 -0.00907013)
(0.00484635 0.00387226 -0.00792993)
(0.00333692 0.0034575 -0.00647226)
(0.00144381 0.00301199 -0.00482924)
(-0.000528505 0.00251483 -0.00312508)
(-0.0023482 0.0019534 -0.00143674)
(-0.00387064 0.00131119 0.000202946)
(-0.00500707 0.000570096 0.00177598)
(-0.00569687 -0.000276287 0.00326187)
(-0.00589478 -0.0012129 0.00463893)
(-0.00556634 -0.0021999 0.00589082)
(-0.00468935 -0.00317227 0.00701117)
(-0.00326728 -0.00404228 0.00800272)
(-0.00136911 -0.00471174 0.00886244)
(0.000811335 -0.00510196 0.00955328)
(0.00294592 -0.00518969 0.00999681)
(0.00465427 -0.00501929 0.0101027)
(0.00561835 -0.00468372 0.00980309)
(0.00567314 -0.00428195 0.00907013)
(0.00484635 -0.00387226 0.00792993)
(0.00333692 -0.0034575 0.00647226)
(0.00144381 -0.00301199 0.00482924)
(-0.000528505 -0.00251483 0.00312508)
(-0.0023482 -0.0019534 0.00143674)
(-0.00387064 -0.00131119 -0.000202946)
(-0.00500707 -0.000570096 -0.00177598)
(-0.00569687 0.000276287 -0.00326187)
(-0.00589478 0.0012129 -0.00463893)
(-0.00556634 0.0021999 -0.00589082)
(-0.00468935 0.00317227 -0.00701117)
(-0.00326728 0.00404228 -0.00800272)
(-0.00136911 0.00471174 -0.00886244)
(0.000811335 0.00510196 -0.00955328)
(0.00294592 0.00518969 -0.00999681)
(0.00465427 0.00501929 -0.0101027)
(0.00484863 0.00429355 -0.0103443)
(0.00505287 0.00453224 -0.00958234)
(0.00485377 0.0046549 -0.00832632)
(0.00420623 0.00463434 -0.00672926)
(0.0031287 0.00447002 -0.00496131)
(0.00175322 0.00417026 -0.00314877)
(0.000301456 0.003744 -0.00136276)
(-0.0010069 0.00319318 0.0003658)
(-0.00201674 0.00251439 0.00201805)
(-0.00263567 0.0017131 0.00356973)
(-0.00281179 0.000814631 0.00499378)
(-0.0025208 -0.000134353 0.00626939)
(-0.00177055 -0.00107069 0.0073877)
(-0.000625892 -0.00192533 0.00835338)
(0.000759835 -0.00264252 0.0091779)
(0.00216212 -0.00320332 0.00986041)
(0.00337528 -0.00363419 0.0103602)
(0.00428329 -0.00398708 0.0105713)
(0.00484863 -0.00429355 0.0103443)
(0.00505287 -0.00453224 0.00958234)
(0.00485377 -0.0046549 0.00832632)
(0.00420623 -0.00463434 0.00672926)
(0.0031287 -0.00447002 0.00496131)
(0.00175322 -0.00417026 0.00314877)
(0.000301456 -0.003744 0.00136276)
(-0.0010069 -0.00319318 -0.0003658)
(-0.00201674 -0.00251439 -0.00201805)
(-0.00263567 -0.0017131 -0.00356973)
(-0.00281179 -0.000814631 -0.00499378)
(-0.0025208 0.000134353 -0.00626939)
(-0.00177055 0.00107069 -0.0073877)
(-0.000625892 0.00192533 -0.00835338)
(0.000759835 0.00264252 -0.0091779)
(0.00216212 0.00320332 -0.00986041)
(0.00337528 0.00363419 -0.0103602)
(0.00428329 0.00398708 -0.0105713)
(0.00453546 0.00531226 -0.00867668)
(0.00455949 0.0041009 -0.00819067)
(0.00343365 0.00290253 -0.00737805)
(0.00146552 0.00177754 -0.00627655)
(-0.000890831 0.000733124 -0.00496485)
(-0.00321849 -0.000244295 -0.00354803)
(-0.00526284 -0.00117255 -0.00211025)
(-0.00691777 -0.00207864 -0.000691354)
(-0.00813593 -0.00299612 0.000692803)
(-0.00887266 -0.00394826 0.00202566)
(-0.00907904 -0.0049313 0.00328515)
(-0.00871061 -0.00590494 0.0044523)
(-0.00773367 -0.0067899 0.00552178)
(-0.00613469 -0.00747414 0.00650064)
(-0.0039587 -0.00783373 0.00738287)
(-0.00138884 -0.00777498 0.00811862)
(0.00120424 -0.00728088 0.00862294)
(0.00333046 -0.00641907 0.00882056)
(0.00453546 -0.00531226 0.00867668)
(0.00455949 -0.0041009 0.00819067)
(0.00343365 -0.00290253 0.00737805)
(0.00146552 -0.00177754 0.00627655)
(-0.000890831 -0.000733124 0.00496485)
(-0.00321849 0.000244295 0.00354803)
(-0.00526284 0.00117255 0.00211025)
(-0.00691777 0.00207864 0.000691354)
(-0.00813593 0.00299612 -0.000692803)
(-0.00887266 0.00394826 -0.00202566)
(-0.00907904 0.0049313 -0.00328515)
(-0.00871061 0.00590494 -0.0044523)
(-0.00773367 0.0067899 -0.00552178)
(-0.00613469 0.00747414 -0.00650064)
(-0.0039587 0.00783373 -0.00738287)
(-0.00138884 0.00777498 -0.00811862)