/*--------------------------------*- C++ -*----------------------------------*\
| =========                 |                                                 |
| \\      /  F ield         | OpenFOAM: The Open Source CFD Toolbox           |
|  \\    /   O peration     | Version:  2312                                  |
|   \\  /    A nd           | Website:  www.openfoam.com                      |
|    \\/     M anipulation  |                                                 |
\*---------------------------------------------------------------------------*/
FoamFile
{
    version     2.0;
    format      ascii;
    arch        "LSB;label=32;scalar=64";
    class       pointVectorField;
    location    "0.7";
    object      pointD;
}
// * * * * * * * * * * * * * * * * * * * * * * * * * * * * * * * * * * * * * //

dimensions      [0 1 0 0 0 0 0];

internalField   nonuniform List<vector> 
2164
(
(0 0 0)
(0 0 0)
(0 0 0)
(0 0 0)
(0 0 0)
(0 0 0)
(0 0 0)
(0 0 0)
(0 0 0)
(0 0 0)
(0 0 0)
(0 0 0)
(0 0 0)
(0 0 0)
(0 0 0)
(0 0 0)
(0 0 0)
(0 0 0)
(0 0 0)
(0 0 0)
(0 0 0)
(0 0 0)
(0 0 0)
(0 0 0)
(0 0 0)
(0 0 0)
(0 0 0)
(0 0 0)
(0 0 0)
(0 0 0)
(0 0 0)
(0 0 0)
(0 0 0)
(0 0 0)
(0 0 0)
(0 0 0)
(0.0023309 0.000388599 -0.0040064)
(0.00260744 0.000878972 -0.0033294)
(0.00228399 0.00124602 -0.00232272)
(0.00164799 0.00138149 -0.0012528)
(0.000951605 0.00133058 -0.000316967)
(0.000317696 0.001165 0.000394227)
(-0.00022179 0.000937542 0.000870886)
(-0.000675741 0.000687918 0.00115079)
(-0.00106332 0.000447275 0.00129954)
(-0.00139753 0.000231702 0.0013958)
(-0.00167584 3.71413e-05 0.00151568)
(-0.00187526 -0.000153147 0.00171689)
(-0.00195175 -0.000343835 0.00202632)
(-0.00184383 -0.000493591 0.00243827)
(-0.00147666 -0.000509737 0.00292719)
(-0.00077324 -0.0003323 0.0034509)
(0.000274123 -8.17168e-05 0.00391456)
(0.00144373 -5.50002e-05 0.00417097)
(0.0023309 -0.000388599 0.0040064)
(0.00260744 -0.000878972 0.0033294)
(0.00228399 -0.00124602 0.00232272)
(0.00164799 -0.00138149 0.0012528)
(0.000951605 -0.00133058 0.000316967)
(0.000317696 -0.001165 -0.000394227)
(-0.00022179 -0.000937542 -0.000870886)
(-0.000675741 -0.000687918 -0.00115079)
(-0.00106332 -0.000447275 -0.00129954)
(-0.00139753 -0.000231702 -0.0013958)
(-0.00167584 -3.71413e-05 -0.00151568)
(-0.00187526 0.000153147 -0.00171689)
(-0.00195175 0.000343835 -0.00202632)
(-0.00184383 0.000493591 -0.00243827)
(-0.00147666 0.000509737 -0.00292719)
(-0.00077324 0.0003323 -0.0034509)
(0.000274123 8.17168e-05 -0.00391456)
(0.00144373 5.50002e-05 -0.00417097)
(0.00154067 0.000794091 -0.00367703)
(0.001718 0.00100077 -0.00313584)
(0.00151212 0.0012189 -0.00238859)
(0.00105979 0.00137526 -0.00156707)
(0.000516241 0.00145575 -0.000781346)
(-1.63947e-05 0.00146158 -9.71174e-05)
(-0.00048694 0.00139734 0.000462534)
(-0.000876461 0.00127426 0.000907705)
(-0.00118175 0.00110681 0.00127156)
(-0.00140284 0.000903119 0.00159841)
(-0.00153466 0.000659279 0.00193002)
(-0.00156392 0.00036456 0.00229237)
(-0.00147203 1.96898e-05 0.00268561)
(-0.00124318 -0.000336799 0.00308304)
(-0.000869695 -0.000618252 0.00344493)
(-0.000346513 -0.000738266 0.00373578)
(0.000316262 -0.000711885 0.0039145)
(0.00101173 -0.000691081 0.00392442)
(0.00154067 -0.000794091 0.00367703)
(0.001718 -0.00100077 0.00313584)
(0.00151212 -0.0012189 0.00238859)
(0.00105979 -0.00137526 0.00156707)
(0.000516241 -0.00145575 0.000781346)
(-1.63947e-05 -0.00146158 9.71174e-05)
(-0.00048694 -0.00139734 -0.000462534)
(-0.000876461 -0.00127426 -0.000907705)
(-0.00118175 -0.00110681 -0.00127156)
(-0.00140284 -0.000903119 -0.00159841)
(-0.00153466 -0.000659279 -0.00193002)
(-0.00156392 -0.00036456 -0.00229237)
(-0.00147203 -1.96898e-05 -0.00268561)
(-0.00124318 0.000336799 -0.00308304)
(-0.000869695 0.000618252 -0.00344493)
(-0.000346513 0.000738266 -0.00373578)
(0.000316262 0.000711885 -0.0039145)
(0.00101173 0.000691081 -0.00392442)
(0 0 0)
(0 0 0)
(0 0 0)
(0 0 0)
(0 0 0)
(0 0 0)
(0 0 0)
(0 0 0)
(0 0 0)
(0 0 0)
(0 0 0)
(0 0 0)
(0 0 0)
(0 0 0)
(0 0 0)
(0 0 0)
(0 0 0)
(0 0 0)
(0 0 0)
(0 0 0)
(0 0 0)
(0 0 0)
(0 0 0)
(0 0 0)
(0 0 0)
(0 0 0)
(0 0 0)
(0 0 0)
(0 0 0)
(0 0 0)
(0 0 0)
(0 0 0)
(0 0 0)
(0 0 0)
(0 0 0)
(0 0 0)
(0.000813117 0.00111909 -0.00332684)
(0.000903733 0.00106994 -0.00293242)
(0.000807462 0.00115723 -0.00244365)
(0.000525431 0.00134799 -0.00186504)
(0.00011905 0.00157471 -0.00122423)
(-0.000330908 0.00176801 -0.000561782)
(-0.00075369 0.0018808 8.71367e-05)
(-0.00110119 0.00189222 0.000704371)
(-0.00134635 0.00179747 0.00128807)
(-0.00147489 0.00159646 0.00184406)
(-0.00147811 0.00128846 0.00237591)
(-0.0013514 0.000874535 0.00287639)
(-0.00110073 0.000367615 0.0033217)
(-0.000754705 -0.000191095 0.00367173)
(-0.000370081 -0.000718396 0.00388312)
(-7.70989e-06 -0.00110243 0.00393574)
(0.000312444 -0.00126231 0.00384439)
(0.000594762 -0.00122971 0.00363396)
(0.000813117 -0.00111909 0.00332684)
(0.000903733 -0.00106994 0.00293242)
(0.000807462 -0.00115723 0.00244365)
(0.000525431 -0.00134799 0.00186504)
(0.00011905 -0.00157471 0.00122423)
(-0.000330908 -0.00176801 0.000561782)
(-0.00075369 -0.0018808 -8.71367e-05)
(-0.00110119 -0.00189222 -0.000704371)
(-0.00134635 -0.00179747 -0.00128807)
(-0.00147489 -0.00159646 -0.00184406)
(-0.00147811 -0.00128846 -0.00237591)
(-0.0013514 -0.000874535 -0.00287639)
(-0.00110073 -0.000367615 -0.0033217)
(-0.000754705 0.000191095 -0.00367173)
(-0.000370081 0.000718396 -0.00388312)
(-7.70989e-06 0.00110243 -0.00393574)
(0.000312444 0.00126231 -0.00384439)
(0.000594762 0.00122971 -0.00363396)
(0 0 0)
(0 0 0)
(0 0 0)
(0 0 0)
(0 0 0)
(0 0 0)
(0 0 0)
(0 0 0)
(0 0 0)
(0 0 0)
(0 0 0)
(0 0 0)
(0 0 0)
(0 0 0)
(0 0 0)
(0 0 0)
(0 0 0)
(0 0 0)
(0 0 0)
(0 0 0)
(0 0 0)
(0 0 0)
(0 0 0)
(0 0 0)
(0 0 0)
(0 0 0)
(0 0 0)
(0 0 0)
(0 0 0)
(0 0 0)
(0 0 0)
(0 0 0)
(0 0 0)
(0 0 0)
(0 0 0)
(0 0 0)
(0.00021487 0.00130265 -0.0029838)
(0.000245412 0.00108664 -0.00272281)
(0.00024342 0.00108883 -0.00245431)
(0.000112937 0.00132177 -0.00208506)
(-0.000166551 0.00168825 -0.0015735)
(-0.00054087 0.00206291 -0.000932759)
(-0.000926216 0.00234948 -0.000203602)
(-0.00124806 0.00249238 0.000571272)
(-0.00145553 0.00246523 0.00135512)
(-0.0015191 0.00225977 0.00211369)
(-0.00142548 0.00188108 0.00281108)
(-0.001178 0.00134665 0.00340801)
(-0.000805692 0.000687698 0.0038617)
(-0.000377376 -4.40867e-05 0.00412818)
(-2.61526e-06 -0.000761281 0.00417414)
(0.000213183 -0.0013298 0.00400542)
(0.000256648 -0.00160583 0.0036887)
(0.000224729 -0.00155437 0.00331608)
(0.00021487 -0.00130265 0.0029838)
(0.000245412 -0.00108664 0.00272281)
(0.00024342 -0.00108883 0.00245431)
(0.000112937 -0.00132177 0.00208506)
(-0.000166551 -0.00168825 0.0015735)
(-0.00054087 -0.00206291 0.000932759)
(-0.000926216 -0.00234948 0.000203602)
(-0.00124806 -0.00249238 -0.000571272)
(-0.00145553 -0.00246523 -0.00135512)
(-0.0015191 -0.00225977 -0.00211369)
(-0.00142548 -0.00188108 -0.00281108)
(-0.001178 -0.00134665 -0.00340801)
(-0.000805692 -0.000687698 -0.0038617)
(-0.000377376 4.40867e-05 -0.00412818)
(-2.61526e-06 0.000761281 -0.00417414)
(0.000213183 0.0013298 -0.00400542)
(0.000256648 0.00160583 -0.0036887)
(0.000224729 0.00155437 -0.00331608)
(0 0 0)
(0 0 0)
(0 0 0)
(0 0 0)
(0 0 0)
(0 0 0)
(0 0 0)
(0 0 0)
(0 0 0)
(0 0 0)
(0 0 0)
(0 0 0)
(0 0 0)
(0 0 0)
(0 0 0)
(0 0 0)
(0 0 0)
(0 0 0)
(0 0 0)
(0 0 0)
(0 0 0)
(0 0 0)
(0 0 0)
(0 0 0)
(0 0 0)
(0 0 0)
(0 0 0)
(0 0 0)
(0 0 0)
(0 0 0)
(0 0 0)
(0 0 0)
(0 0 0)
(0 0 0)
(0 0 0)
(0 0 0)
(0.00490829 0.0016687 -0.00709552)
(0.00497284 0.00210824 -0.00581624)
(0.00390647 0.00239694 -0.00412788)
(0.00234389 0.00249654 -0.00241726)
(0.00075515 0.00245584 -0.000919071)
(-0.000636045 0.00230241 0.000271933)
(-0.00177493 0.00205458 0.00114864)
(-0.0026841 0.0017441 0.00176199)
(-0.00340362 0.00140627 0.00220522)
(-0.00395968 0.00105612 0.0025927)
(-0.00434967 0.000676333 0.00303145)
(-0.00453562 0.000229421 0.00359238)
(-0.00444128 -0.000303471 0.00429073)
(-0.00395043 -0.00086574 0.00509025)
(-0.00291713 -0.00129378 0.00593698)
(-0.00122887 -0.00141383 0.00677335)
(0.00102997 -0.00128562 0.00742992)
(0.00339128 -0.00130918 0.00762755)
(0.00490829 -0.0016687 0.00709552)
(0.00497284 -0.00210824 0.00581624)
(0.00390647 -0.00239694 0.00412788)
(0.00234389 -0.00249654 0.00241726)
(0.00075515 -0.00245584 0.000919071)
(-0.000636045 -0.00230241 -0.000271933)
(-0.00177493 -0.00205458 -0.00114864)
(-0.0026841 -0.0017441 -0.00176199)
(-0.00340362 -0.00140627 -0.00220522)
(-0.00395968 -0.00105612 -0.0025927)
(-0.00434967 -0.000676333 -0.00303145)
(-0.00453562 -0.000229421 -0.00359238)
(-0.00444128 0.000303471 -0.00429073)
(-0.00395043 0.00086574 -0.00509025)
(-0.00291713 0.00129378 -0.00593698)
(-0.00122887 0.00141383 -0.00677335)
(0.00102997 0.00128562 -0.00742992)
(0.00339128 0.00130918 -0.00762755)
(0.00368137 0.00195025 -0.00672661)
(0.00377902 0.00212887 -0.005717)
(0.00308928 0.00235023 -0.00440579)
(0.0019628 0.00256148 -0.00298758)
(0.000716727 0.00272114 -0.0016125)
(-0.000450165 0.0027806 -0.000375211)
(-0.00144465 0.00271233 0.000683489)
(-0.00223947 0.00252085 0.00157186)
(-0.00283604 0.00222586 0.00233555)
(-0.00323845 0.00183939 0.00303843)
(-0.00343881 0.00135537 0.00373963)
(-0.00341208 0.000757845 0.00447205)
(-0.00311835 4.81357e-05 0.00522814)
(-0.00251178 -0.000714483 0.0059602)
(-0.0015568 -0.00138419 0.00660238)
(-0.000258005 -0.00178495 0.00709695)
(0.00126904 -0.00187824 0.00736302)
(0.00272989 -0.00186967 0.00727721)
(0.00368137 -0.00195025 0.00672661)
(0.00377902 -0.00212887 0.005717)
(0.00308928 -0.00235023 0.00440579)
(0.0019628 -0.00256148 0.00298758)
(0.000716727 -0.00272114 0.0016125)
(-0.000450165 -0.0027806 0.000375211)
(-0.00144465 -0.00271233 -0.000683489)
(-0.00223947 -0.00252085 -0.00157186)
(-0.00283604 -0.00222586 -0.00233555)
(-0.00323845 -0.00183939 -0.00303843)
(-0.00343881 -0.00135537 -0.00373963)
(-0.00341208 -0.000757845 -0.00447205)
(-0.00311835 -4.81357e-05 -0.00522814)
(-0.00251178 0.000714483 -0.0059602)
(-0.0015568 0.00138419 -0.00660238)
(-0.000258005 0.00178495 -0.00709695)
(0.00126904 0.00187824 -0.00736302)
(0.00272989 0.00186967 -0.00727721)
(0.00252302 0.00215967 -0.00626893)
(0.00265708 0.00208187 -0.00555495)
(0.00233082 0.00222871 -0.00462994)
(0.00162781 0.00254824 -0.00351247)
(0.000710767 0.00291659 -0.00227043)
(-0.000248425 0.00320452 -0.000995519)
(-0.00111772 0.00333211 0.000239847)
(-0.00181896 0.0032712 0.00140143)
(-0.0023137 0.00302144 0.00248492)
(-0.00258236 0.00259038 0.00349862)
(-0.00261053 0.00198603 0.00444847)
(-0.00238537 0.00122024 0.00532685)
(-0.00190328 0.00032116 0.00610493)
(-0.0011892 -0.000644459 0.00672923)
(-0.000318783 -0.00154469 0.00713054)
(0.000586587 -0.00219446 0.00725959)
(0.00139829 -0.00245348 0.00713084)
(0.00205173 -0.00236515 0.00679143)
(0.00252302 -0.00215967 0.00626893)
(0.00265708 -0.00208187 0.00555495)
(0.00233082 -0.00222871 0.00462994)
(0.00162781 -0.00254824 0.00351247)
(0.000710767 -0.00291659 0.00227043)
(-0.000248425 -0.00320452 0.000995519)
(-0.00111772 -0.00333211 -0.000239847)
(-0.00181896 -0.0032712 -0.00140143)
(-0.0023137 -0.00302144 -0.00248492)
(-0.00258236 -0.00259038 -0.00349862)
(-0.00261053 -0.00198603 -0.00444847)
(-0.00238537 -0.00122024 -0.00532685)
(-0.00190328 -0.00032116 -0.00610493)
(-0.0011892 0.000644459 -0.00672923)
(-0.000318783 0.00154469 -0.00713054)
(0.000586587 0.00219446 -0.00725959)
(0.00139829 0.00245348 -0.00713084)
(0.00205173 0.00236515 -0.00679143)
(0.00154836 0.00226009 -0.00577559)
(0.00171355 0.00200911 -0.00532761)
(0.00170642 0.00209761 -0.00473602)
(0.00139738 0.00250222 -0.00389084)
(0.000800425 0.00305281 -0.00278623)
(4.7334e-05 0.00355416 -0.00149875)
(-0.000702206 0.00387297 -0.00012095)
(-0.00132367 0.00394343 0.00127589)
(-0.001739 0.00374136 0.00263892)
(-0.00190393 0.00326853 0.00392081)
(-0.00179656 0.0025482 0.00507432)
(-0.00141625 0.00162236 0.00605246)
(-0.00079644 0.000549394 0.00680758)
(-3.13705e-05 -0.000589817 0.00728572)
(0.000704563 -0.0016661 0.00742831)
(0.00120485 -0.0024803 0.00721516)
(0.00137838 -0.00282143 0.00675112)
(0.00141604 -0.00265562 0.00623177)
(0.00154836 -0.00226009 0.00577559)
(0.00171355 -0.00200911 0.00532761)
(0.00170642 -0.00209761 0.00473602)
(0.00139738 -0.00250222 0.00389084)
(0.000800425 -0.00305281 0.00278623)
(4.7334e-05 -0.00355416 0.00149875)
(-0.000702206 -0.00387297 0.00012095)
(-0.00132367 -0.00394343 -0.00127589)
(-0.001739 -0.00374136 -0.00263892)
(-0.00190393 -0.00326853 -0.00392081)
(-0.00179656 -0.0025482 -0.00507432)
(-0.00141625 -0.00162236 -0.00605246)
(-0.00079644 -0.000549394 -0.00680758)
(-3.13705e-05 0.000589817 -0.00728572)
(0.000704563 0.0016661 -0.00742831)
(0.00120485 0.0024803 -0.00721516)
(0.00137838 0.00282143 -0.00675112)
(0.00141604 0.00265562 -0.00623177)
(0.00769699 0.00348818 -0.00926074)
(0.00707494 0.00340765 -0.00763531)
(0.00496138 0.00333233 -0.00561274)
(0.00231336 0.00324145 -0.0035838)
(-0.000218081 0.00311033 -0.001763)
(-0.00234508 0.00289902 -0.000233891)
(-0.00402344 0.00258669 0.000995587)
(-0.00530483 0.00218502 0.00197006)
(-0.00624918 0.00171808 0.00277612)
(-0.00689109 0.0011923 0.00352217)
(-0.00722986 0.000583901 0.00430694)
(-0.00722464 -0.000146772 0.00518859)
(-0.00678308 -0.00101729 0.00616884)
(-0.00573603 -0.00197245 0.00720733)
(-0.00383708 -0.00285162 0.00825833)
(-0.000926296 -0.00344383 0.00926282)
(0.00269869 -0.00364398 0.0100113)
(0.00605604 -0.00358971 0.0100965)
(0.00769699 -0.00348818 0.00926074)
(0.00707494 -0.00340765 0.00763531)
(0.00496138 -0.00333233 0.00561274)
(0.00231336 -0.00324145 0.0035838)
(-0.000218081 -0.00311033 0.001763)
(-0.00234508 -0.00289902 0.000233891)
(-0.00402344 -0.00258669 -0.000995587)
(-0.00530483 -0.00218502 -0.00197006)
(-0.00624918 -0.00171808 -0.00277612)
(-0.00689109 -0.0011923 -0.00352217)
(-0.00722986 -0.000583901 -0.00430694)
(-0.00722464 0.000146772 -0.00518859)
(-0.00678308 0.00101729 -0.00616884)
(-0.00573603 0.00197245 -0.00720733)
(-0.00383708 0.00285162 -0.00825833)
(-0.000926296 0.00344383 -0.00926282)
(0.00269869 0.00364398 -0.0100113)
(0.00605604 0.00358971 -0.0100965)
(0.00621897 0.00330156 -0.00885778)
(0.00587704 0.00323342 -0.00755505)
(0.00447458 0.003301 -0.00591314)
(0.00256359 0.00344629 -0.00413435)
(0.000588555 0.00357244 -0.00238147)
(-0.00118502 0.00358871 -0.000760921)
(-0.00264805 0.00344723 0.000679681)
(-0.00378016 0.00314445 0.00194304)
(-0.00459123 0.00269707 0.00306828)
(-0.00508909 0.00211648 0.00411226)
(-0.00526521 0.00139893 0.00512676)
(-0.00508962 0.000534652 0.00613725)
(-0.0045079 -0.000466896 0.0071315)
(-0.00343799 -0.00154128 0.00806492)
(-0.00178638 -0.00253885 0.0088791)
(0.000451136 -0.00325347 0.00950629)
(0.00298305 -0.00354265 0.00982521)
(0.00515646 -0.00347267 0.00964204)
(0.00621897 -0.00330156 0.00885778)
(0.00587704 -0.00323342 0.00755505)
(0.00447458 -0.003301 0.00591314)
(0.00256359 -0.00344629 0.00413435)
(0.000588555 -0.00357244 0.00238147)
(-0.00118502 -0.00358871 0.000760921)
(-0.00264805 -0.00344723 -0.000679681)
(-0.00378016 -0.00314445 -0.00194304)
(-0.00459123 -0.00269707 -0.00306828)
(-0.00508909 -0.00211648 -0.00411226)
(-0.00526521 -0.00139893 -0.00512676)
(-0.00508962 -0.000534652 -0.00613725)
(-0.0045079 0.000466896 -0.0071315)
(-0.00343799 0.00154128 -0.00806492)
(-0.00178638 0.00253885 -0.0088791)
(0.000451136 0.00325347 -0.00950629)
(0.00298305 0.00354265 -0.00982521)
(0.00515646 0.00347267 -0.00964204)
(0.00479256 0.00313482 -0.00840869)
(0.00476074 0.003046 -0.00744024)
(0.00407619 0.00320895 -0.00616287)
(0.00290255 0.00355515 -0.00462815)
(0.00147838 0.00392632 -0.0029507)
(4.6939e-05 0.00417316 -0.0012537)
(-0.00121605 0.00421176 0.000381279)
(-0.00221717 0.00401656 0.0019189)
(-0.00291547 0.00359128 0.00335075)
(-0.00329029 0.00295024 0.00467855)
(-0.00332373 0.00211199 0.00590308)
(-0.00299533 0.00110148 0.00701548)
(-0.00228827 -4.07223e-05 0.00799071)
(-0.00120946 -0.00123861 0.00878325)
(0.000175055 -0.00234955 0.00932821)
(0.00170902 -0.00316468 0.00956182)
(0.00313577 -0.00350579 0.00946712)
(0.00420748 -0.00339218 0.00907726)
(0.00479256 -0.00313482 0.00840869)
(0.00476074 -0.003046 0.00744024)
(0.00407619 -0.00320895 0.00616287)
(0.00290255 -0.00355515 0.00462815)
(0.00147838 -0.00392632 0.0029507)
(4.6939e-05 -0.00417316 0.0012537)
(-0.00121605 -0.00421176 -0.000381279)
(-0.00221717 -0.00401656 -0.0019189)
(-0.00291547 -0.00359128 -0.00335075)
(-0.00329029 -0.00295024 -0.00467855)
(-0.00332373 -0.00211199 -0.00590308)
(-0.00299533 -0.00110148 -0.00701548)
(-0.00228827 4.07223e-05 -0.00799071)
(-0.00120946 0.00123861 -0.00878325)
(0.000175055 0.00234955 -0.00932821)
(0.00170902 0.00316468 -0.00956182)
(0.00313577 0.00350579 -0.00946712)
(0.00420748 0.00339218 -0.00907726)
(0.00356295 0.00303526 -0.00796373)
(0.00380069 0.00292607 -0.0072816)
(0.00375174 0.00313305 -0.00630324)
(0.00326252 0.00361384 -0.00498775)
(0.00237307 0.00418176 -0.00340102)
(0.00128372 0.00463563 -0.00166335)
(0.000219117 0.0048487 0.000122627)
(-0.000660875 0.00476526 0.00188911)
(-0.00126425 0.00437064 0.00358286)
(-0.00154013 0.00367923 0.00515176)
(-0.00146014 0.00273112 0.0065463)
(-0.001015 0.00158578 0.00772353)
(-0.000229874 0.000315259 0.00864503)
(0.000797217 -0.000990221 0.00926593)
(0.00185691 -0.0021902 0.00952873)
(0.00267788 -0.00307438 0.00940368)
(0.00310386 -0.0034501 0.00898537)
(0.00330736 -0.00332736 0.0084845)
(0.00356295 -0.00303526 0.00796373)
(0.00380069 -0.00292607 0.0072816)
(0.00375174 -0.00313305 0.00630324)
(0.00326252 -0.00361384 0.00498775)
(0.00237307 -0.00418176 0.00340102)
(0.00128372 -0.00463563 0.00166335)
(0.000219117 -0.0048487 -0.000122627)
(-0.000660875 -0.00476526 -0.00188911)
(-0.00126425 -0.00437064 -0.00358286)
(-0.00154013 -0.00367923 -0.00515176)
(-0.00146014 -0.00273112 -0.0065463)
(-0.001015 -0.00158578 -0.00772353)
(-0.000229874 -0.000315259 -0.00864503)
(0.000797217 0.000990221 -0.00926593)
(0.00185691 0.0021902 -0.00952873)
(0.00267788 0.00307438 -0.00940368)
(0.00310386 0.0034501 -0.00898537)
(0.00330736 0.00332736 -0.0084845)
(0.00929285 0.0048985 -0.0102464)
(0.00816928 0.00423976 -0.00859427)
(0.00537682 0.00376794 -0.00658689)
(0.00199716 0.00342357 -0.004521)
(-0.00116588 0.00310707 -0.00258286)
(-0.00377065 0.00274754 -0.000856523)
(-0.00579122 0.00230428 0.00064277)
(-0.00730025 0.00176338 0.00194044)
(-0.00835951 0.00112678 0.00309107)
(-0.00899657 0.000390869 0.00416607)
(-0.00920483 -0.00046352 0.00523083)
(-0.0089399 -0.00145935 0.00632152)
(-0.00809824 -0.00259204 0.007439)
(-0.00647472 -0.00378978 0.0085693)
(-0.00377715 -0.0048914 0.00969185)
(7.34275e-05 -0.0056758 0.0107035)
(0.00444227 -0.00593443 0.011335)
(0.00795728 -0.00559254 0.0112253)
(0.00929285 -0.0048985 0.0102464)
(0.00816928 -0.00423976 0.00859427)
(0.00537682 -0.00376794 0.00658689)
(0.00199716 -0.00342357 0.004521)
(-0.00116588 -0.00310707 0.00258286)
(-0.00377065 -0.00274754 0.000856523)
(-0.00579122 -0.00230428 -0.00064277)
(-0.00730025 -0.00176338 -0.00194044)
(-0.00835951 -0.00112678 -0.00309107)
(-0.00899657 -0.000390869 -0.00416607)
(-0.00920483 0.00046352 -0.00523083)
(-0.0089399 0.00145935 -0.00632152)
(-0.00809824 0.00259204 -0.007439)
(-0.00647472 0.00378978 -0.0085693)
(-0.00377715 0.0048914 -0.00969185)
(7.34275e-05 0.0056758 -0.0107035)
(0.00444227 0.00593443 -0.011335)
(0.00795728 0.00559254 -0.0112253)
(0.00782859 0.00439549 -0.00996769)
(0.00715136 0.00405036 -0.00857167)
(0.00527937 0.00390444 -0.00681859)
(0.00284176 0.00387715 -0.00489499)
(0.000381384 0.00384116 -0.00296813)
(-0.00178825 0.00370422 -0.00114463)
(-0.00355433 0.00341747 0.000532033)
(-0.00490052 0.00296583 0.00205792)
(-0.00583401 0.00235367 0.00345192)
(-0.00635617 0.00158864 0.00474542)
(-0.00645326 0.000674028 0.0059682)
(-0.00609116 -0.000384788 0.0071336)
(-0.00520741 -0.00156125 0.00823249)
(-0.00370029 -0.00278012 0.00924209)
(-0.0014617 -0.00389508 0.0101278)
(0.00144014 -0.00470393 0.0108035)
(0.0045116 -0.00502364 0.0111045)
(0.0068934 -0.00483174 0.0108448)
(0.00782859 -0.00439549 0.00996769)
(0.00715136 -0.00405036 0.00857167)
(0.00527937 -0.00390444 0.00681859)
(0.00284176 -0.00387715 0.00489499)
(0.000381384 -0.00384116 0.00296813)
(-0.00178825 -0.00370422 0.00114463)
(-0.00355433 -0.00341747 -0.000532033)
(-0.00490052 -0.00296583 -0.00205792)
(-0.00583401 -0.00235367 -0.00345192)
(-0.00635617 -0.00158864 -0.00474542)
(-0.00645326 -0.000674028 -0.0059682)
(-0.00609116 0.000384788 -0.0071336)
(-0.00520741 0.00156125 -0.00823249)
(-0.00370029 0.00278012 -0.00924209)
(-0.0014617 0.00389508 -0.0101278)
(0.00144014 0.00470393 -0.0108035)
(0.0045116 0.00502364 -0.0111045)
(0.0068934 0.00483174 -0.0108448)
(0.00638917 0.00403092 -0.00977229)
(0.00620414 0.00395929 -0.00860595)
(0.00527954 0.00407306 -0.00706029)
(0.00379648 0.00430549 -0.00525163)
(0.00203669 0.00451753 -0.00333205)
(0.000289341 0.00459043 -0.0014226)
(-0.00123957 0.0044585 0.000413351)
(-0.00244245 0.00409817 0.00214921)
(-0.00327112 0.00351047 0.00377063)
(-0.0036997 0.00271153 0.00526745)
(-0.00370547 0.00172809 0.00663162)
(-0.00326315 0.000596509 0.00785274)
(-0.00235046 -0.000632037 0.00891333)
(-0.000972329 -0.00187705 0.0097866)
(0.00078759 -0.00300492 0.0104339)
(0.00271786 -0.00383415 0.0108035)
(0.0044948 -0.00422251 0.0108429)
(0.00579094 -0.00420428 0.0105123)
(0.00638917 -0.00403092 0.00977229)
(0.00620414 -0.00395929 0.00860595)
(0.00527954 -0.00407306 0.00706029)
(0.00379648 -0.00430549 0.00525163)
(0.00203669 -0.00451753 0.00333205)
(0.000289341 -0.00459043 0.0014226)
(-0.00123957 -0.0044585 -0.000413351)
(-0.00244245 -0.00409817 -0.00214921)
(-0.00327112 -0.00351047 -0.00377063)
(-0.0036997 -0.00271153 -0.00526745)
(-0.00370547 -0.00172809 -0.00663162)
(-0.00326315 -0.000596509 -0.00785274)
(-0.00235046 0.000632037 -0.00891333)
(-0.000972329 0.00187705 -0.0097866)
(0.00078759 0.00300492 -0.0104339)
(0.00271786 0.00383415 -0.0108035)
(0.0044948 0.00422251 -0.0108429)
(0.00579094 0.00420428 -0.0105123)
(0.00511062 0.0038546 -0.00964058)
(0.00537316 0.00400067 -0.00865398)
(0.00530699 0.00429316 -0.00726332)
(0.00471681 0.00470688 -0.00555167)
(0.00363981 0.00511238 -0.00365091)
(0.00231891 0.00536708 -0.00168163)
(0.00103055 0.00538073 0.000281299)
(-3.44142e-05 0.00511285 0.00219299)
(-0.000771381 0.00455534 0.00400898)
(-0.00112425 0.00372942 0.0056796)
(-0.00106043 0.00268299 0.00715956)
(-0.000566118 0.00148196 0.00841423)
(0.00033488 0.00020144 0.00941769)
(0.00153048 -0.0010718 0.0101444)
(0.00277392 -0.0022175 0.0105685)
(0.00376917 -0.00308403 0.0106922)
(0.00439009 -0.00357992 0.0105664)
(0.00477123 -0.0037723 0.0102389)
(0.00511062 -0.0038546 0.00964058)
(0.00537316 -0.00400067 0.00865398)
(0.00530699 -0.00429316 0.00726332)
(0.00471681 -0.00470688 0.00555167)
(0.00363981 -0.00511238 0.00365091)
(0.00231891 -0.00536708 0.00168163)
(0.00103055 -0.00538073 -0.000281299)
(-3.44142e-05 -0.00511285 -0.00219299)
(-0.000771381 -0.00455534 -0.00400898)
(-0.00112425 -0.00372942 -0.0056796)
(-0.00106043 -0.00268299 -0.00715956)
(-0.000566118 -0.00148196 -0.00841423)
(0.00033488 -0.00020144 -0.00941769)
(0.00153048 0.0010718 -0.0101444)
(0.00277392 0.0022175 -0.0105685)
(0.00376917 0.00308403 -0.0106922)
(0.00439009 0.00357992 -0.0105664)
(0.00477123 0.0037723 -0.0102389)
(0.00935627 0.00557661 -0.0102873)
(0.00808926 0.00459063 -0.0088134)
(0.00516858 0.00378093 -0.007005)
(0.00160734 0.00312526 -0.00506923)
(-0.00175273 0.00253804 -0.00317232)
(-0.00453493 0.0019578 -0.00139955)
(-0.00670455 0.00133649 0.000229351)
(-0.00832438 0.000634699 0.00172288)
(-0.00943494 -0.000171329 0.00310084)
(-0.0100407 -0.00109456 0.00439069)
(-0.0101183 -0.00214246 0.00561913)
(-0.00961365 -0.00330843 0.00680278)
(-0.00841698 -0.0045475 0.00795215)
(-0.00633034 -0.00574692 0.00908309)
(-0.0031427 -0.00671895 0.0101771)
(0.00100344 -0.00724865 0.0110769)
(0.00525717 -0.00718717 0.0114973)
(0.00835568 -0.00655223 0.0112314)
(0.00935627 -0.00557661 0.0102873)
(0.00808926 -0.00459063 0.0088134)
(0.00516858 -0.00378093 0.007005)
(0.00160734 -0.00312526 0.00506923)
(-0.00175273 -0.00253804 0.00317232)
(-0.00453493 -0.0019578 0.00139955)
(-0.00670455 -0.00133649 -0.000229351)
(-0.00832438 -0.000634699 -0.00172288)
(-0.00943494 0.000171329 -0.00310084)
(-0.0100407 0.00109456 -0.00439069)
(-0.0101183 0.00214246 -0.00561913)
(-0.00961365 0.00330843 -0.00680278)
(-0.00841698 0.0045475 -0.00795215)
(-0.00633034 0.00574692 -0.00908309)
(-0.0031427 0.00671895 -0.0101771)
(0.00100344 0.00724865 -0.0110769)
(0.00525717 0.00718717 -0.0114973)
(0.00835568 0.00655223 -0.0112314)
(0.0081025 0.00502356 -0.0102064)
(0.00733942 0.00452535 -0.00887142)
(0.0053771 0.00415519 -0.00716931)
(0.00281005 0.00386941 -0.00527011)
(0.000200783 0.00357796 -0.00333783)
(-0.00211555 0.0032174 -0.00147241)
(-0.00401408 0.00274596 0.000289745)
(-0.00546449 0.00213564 0.00193986)
(-0.00645489 0.00137477 0.00347621)
(-0.00696904 0.000465709 0.00490171)
(-0.0069814 -0.000578779 0.00622158)
(-0.00645218 -0.00173212 0.00743806)
(-0.00531806 -0.0029406 0.00855048)
(-0.00349012 -0.00410502 0.0095593)
(-0.000924457 -0.00507412 0.0104416)
(0.00216854 -0.00567958 0.011093)
(0.00518303 -0.00581767 0.0113393)
(0.0073439 -0.0055335 0.0110504)
(0.0081025 -0.00502356 0.0102064)
(0.00733942 -0.00452535 0.00887142)
(0.0053771 -0.00415519 0.00716931)
(0.00281005 -0.00386941 0.00527011)
(0.000200783 -0.00357796 0.00333783)
(-0.00211555 -0.0032174 0.00147241)
(-0.00401408 -0.00274596 -0.000289745)
(-0.00546449 -0.00213564 -0.00193986)
(-0.00645489 -0.00137477 -0.00347621)
(-0.00696904 -0.000465709 -0.00490171)
(-0.0069814 0.000578779 -0.00622158)
(-0.00645218 0.00173212 -0.00743806)
(-0.00531806 0.0029406 -0.00855048)
(-0.00349012 0.00410502 -0.0095593)
(-0.000924457 0.00507412 -0.0104416)
(0.00216854 0.00567958 -0.011093)
(0.00518303 0.00581767 -0.0113393)
(0.0073439 0.0055335 -0.0110504)
(0.00687613 0.00465419 -0.010317)
(0.00665135 0.00462891 -0.00907115)
(0.0056732 0.00464655 -0.00741187)
(0.00411373 0.00467257 -0.00550779)
(0.00225205 0.00463326 -0.00352523)
(0.000385353 0.00446594 -0.00157103)
(-0.00126244 0.0041311 0.000310472)
(-0.00256395 0.00360642 0.00210116)
(-0.00345462 0.00288667 0.00378216)
(-0.00389699 0.00198605 0.00533233)
(-0.00386194 0.00093669 0.00673434)
(-0.00332285 -0.000213717 0.00797563)
(-0.00226234 -0.00140019 0.00904717)
(-0.000703763 -0.00253474 0.00994256)
(0.00122604 -0.00350378 0.0106477)
(0.00325921 -0.00419456 0.0111217)
(0.00505273 -0.00456128 0.0112898)
(0.00631673 -0.00467095 0.0110519)
(0.00687613 -0.00465419 0.010317)
(0.00665135 -0.00462891 0.00907115)
(0.0056732 -0.00464655 0.00741187)
(0.00411373 -0.00467257 0.00550779)
(0.00225205 -0.00463326 0.00352523)
(0.000385353 -0.00446594 0.00157103)
(-0.00126244 -0.0041311 -0.000310472)
(-0.00256395 -0.00360642 -0.00210116)
(-0.00345462 -0.00288667 -0.00378216)
(-0.00389699 -0.00198605 -0.00533233)
(-0.00386194 -0.00093669 -0.00673434)
(-0.00332285 0.000213717 -0.00797563)
(-0.00226234 0.00140019 -0.00904717)
(-0.000703763 0.00253474 -0.00994256)
(0.00122604 0.00350378 -0.0106477)
(0.00325921 0.00419456 -0.0111217)
(0.00505273 0.00456128 -0.0112898)
(0.00631673 0.00467095 -0.0110519)
(0.00576844 0.00448909 -0.0105373)
(0.00603948 0.00488576 -0.00934152)
(0.00596829 0.00521969 -0.00768864)
(0.00536039 0.00548716 -0.00576432)
(0.00423226 0.00564679 -0.00373486)
(0.00282385 0.00564079 -0.00170556)
(0.00143408 0.00542727 0.00027625)
(0.000278821 0.00498305 0.00218653)
(-0.000522856 0.00430402 0.0039925)
(-0.000908555 0.0034122 0.00565123)
(-0.000844099 0.00235604 0.00712326)
(-0.000318327 0.00120238 0.00838105)
(0.00063527 2.70066e-05 0.00941007)
(0.001885 -0.00109199 0.0102075)
(0.00316682 -0.00207847 0.0107826)
(0.0042001 -0.00287912 0.011157)
(0.00489413 -0.00350571 0.0113238)
(0.00537159 -0.00402798 0.0111744)
(0.00576844 -0.00448909 0.0105373)
(0.00603948 -0.00488576 0.00934152)
(0.00596829 -0.00521969 0.00768864)
(0.00536039 -0.00548716 0.00576432)
(0.00423226 -0.00564679 0.00373486)
(0.00282385 -0.00564079 0.00170556)
(0.00143408 -0.00542727 -0.00027625)
(0.000278821 -0.00498305 -0.00218653)
(-0.000522856 -0.00430402 -0.0039925)
(-0.000908555 -0.0034122 -0.00565123)
(-0.000844099 -0.00235604 -0.00712326)
(-0.000318327 -0.00120238 -0.00838105)
(0.00063527 -2.70066e-05 -0.00941007)
(0.001885 0.00109199 -0.0102075)
(0.00316682 0.00207847 -0.0107826)
(0.0042001 0.00287912 -0.011157)
(0.00489413 0.00350571 -0.0113238)
(0.00537159 0.00402798 -0.0111744)
(0.00837507 0.00564502 -0.00978054)
(0.00715892 0.00443969 -0.00856407)
(0.004455 0.0033596 -0.00702624)
(0.00110735 0.0024127 -0.00530752)
(-0.00212739 0.00155165 -0.00355281)
(-0.00486485 0.000737265 -0.00185333)
(-0.00703633 -7.23596e-05 -0.000235252)
(-0.00867364 -0.000927472 0.00130225)
(-0.00978716 -0.00186884 0.00275857)
(-0.0103536 -0.00291548 0.00412902)
(-0.0103303 -0.00406085 0.00540929)
(-0.00965564 -0.0052654 0.00660081)
(-0.00823252 -0.00644189 0.00771994)
(-0.00592321 -0.00744414 0.00878985)
(-0.00266664 -0.00808434 0.00977532)
(0.00123665 -0.0082027 0.0105195)
(0.00499219 -0.00775211 0.0108173)
(0.00761001 -0.00682932 0.0105622)
(0.00837507 -0.00564502 0.00978054)
(0.00715892 -0.00443969 0.00856407)
(0.004455 -0.0033596 0.00702624)
(0.00110735 -0.0024127 0.00530752)
(-0.00212739 -0.00155165 0.00355281)
(-0.00486485 -0.000737265 0.00185333)
(-0.00703633 7.23596e-05 0.000235252)
(-0.00867364 0.000927472 -0.00130225)
(-0.00978716 0.00186884 -0.00275857)
(-0.0103536 0.00291548 -0.00412902)
(-0.0103303 0.00406085 -0.00540929)
(-0.00965564 0.0052654 -0.00660081)
(-0.00823252 0.00644189 -0.00771994)
(-0.00592321 0.00744414 -0.00878985)
(-0.00266664 0.00808434 -0.00977532)
(0.00123665 0.0082027 -0.0105195)
(0.00499219 0.00775211 -0.0108173)
(0.00761001 0.00682932 -0.0105622)
(0.00741586 0.00515431 -0.0098238)
(0.00667165 0.00452997 -0.00865414)
(0.00485138 0.00395793 -0.00712508)
(0.00244596 0.00341891 -0.0053758)
(-5.18948e-05 0.00286874 -0.00355607)
(-0.00231844 0.00227816 -0.00176533)
(-0.00421058 0.00162058 -4.15469e-05)
(-0.00567266 0.000865383 0.00160375)
(-0.00666718 -9.0774e-06 0.00315765)