/*--------------------------------*- C++ -*----------------------------------*\
| =========                 |                                                 |
| \\      /  F ield         | OpenFOAM: The Open Source CFD Toolbox           |
|  \\    /   O peration     | Version:  2312                                  |
|   \\  /    A nd           | Website:  www.openfoam.com                      |
|    \\/     M anipulation  |                                                 |
\*---------------------------------------------------------------------------*/
FoamFile
{
    version     2.0;
    format      ascii;
    arch        "LSB;label=32;scalar=64";
    class       volScalarField;
    location    "0.7";
    object      sigmaHyd;
}
// * * * * * * * * * * * * * * * * * * * * * * * * * * * * * * * * * * * * * //

dimensions      [1 -1 -2 0 0 0 0];

internalField   nonuniform List<scalar> 
1620
(
-28953.1
-38960.5
-37554.2
-29174.7
-19443.7
-11174.9
-4797.69
206.393
4429.31
8254.62
11806.5
14938.4
17212.3
17866.3
15829.7
9997.36
-49.0007
-14119.2
-28953.1
-38960.5
-37554.2
-29174.7
-19443.7
-11174.9
-4797.69
206.393
4429.31
8254.62
11806.5
14938.4
17212.3
17866.3
15829.7
9997.36
-49.0007
-14119.2
-24875.8
-28632.5
-28071.6
-23378.8
-17047.2
-10988.9
-5955.56
-2048.99
796.817
2647.56
3534.52
3443.84
2309.09
-21.6588
-3844.92
-9293.24
-15416
-20779.9
-24875.8
-28632.5
-28071.6
-23378.8
-17047.2
-10988.9
-5955.56
-2048.99
796.817
2647.56
3534.52
3443.84
2309.09
-21.6588
-3844.92
-9293.24
-15416
-20779.9
-18931
-18792.9
-17970.6
-14767.2
-9654.12
-4269.98
74.4164
2765.89
3559.04
2385.79
-640.064
-5175.02
-10598.5
-16029.2
-20488.7
-22913.7
-22375.1
-20031.1
-18931
-18792.9
-17970.6
-14767.2
-9654.12
-4269.98
74.4164
2765.89
3559.04
2385.79
-640.064
-5175.02
-10598.5
-16029.2
-20488.7
-22913.7
-22375.1
-20031.1
-4821.47
-6164.47
-4480.59
-2662.78
-1422.82
-786.555
-343.981
296.336
1419.83
3182.8
5538.87
8188.68
10605.3
12157.3
12350.4
10737.8
6408.55
536.093
-4821.47
-6164.47
-4480.59
-2662.78
-1422.82
-786.555
-343.981
296.336
1419.83
3182.8
5538.87
8188.68
10605.3
12157.3
12350.4
10737.8
6408.55
536.093
-14633.2
-12387
-8851.26
-7827.67
-7392.9
-6695.97
-5698.92
-4692.22
-3934.89
-3569.62
-3679.12
-4331.28
-5570.2
-7377.25
-9570.15
-12095.8
-16397.5
-19687.7
-14633.2
-12387
-8851.26
-7827.67
-7392.9
-6695.97
-5698.92
-4692.22
-3934.89
-3569.62
-3679.12
-4331.28
-5570.2
-7377.25
-9570.15
-12095.8
-16397.5
-19687.7
-21972.6
-19679.9
-15332.2
-12336.7
-9490.56
-6430.55
-3623.16
-1778.02
-1481.04
-3084.33
-6624.83
-11808.1
-17999.5
-24110.8
-28449.9
-29447.9
-28251.1
-25577.3
-21972.6
-19679.9
-15332.2
-12336.7
-9490.56
-6430.55
-3623.16
-1778.02
-1481.04
-3084.33
-6624.83
-11808.1
-17999.5
-24110.8
-28449.9
-29447.9
-28251.1
-25577.3
-5218.09
-3531.07
4313.17
9746.03
11919.6
12181.8
11716.7
11297
11379.2
12172.8
13594.9
15273.1
16625.7
16986.6
15922.9
13455.2
7375.31
-3726.59
-5218.09
-3531.07
4313.17
9746.03
11919.6
12181.8
11716.7
11297
11379.2
12172.8
13594.9
15273.1
16625.7
16986.6
15922.9
13455.2
7375.31
-3726.59
-32214.4
-20347.6
-12252.7
-9185.2
-7429.73
-5471.75
-3601.85
-2251.53
-1526.98
-1341.57
-1606.99
-2307.72
-3564.25
-5798.92
-9545.72
-14435.1
-21496.8
-33717.4
-32214.4
-20347.6
-12252.7
-9185.2
-7429.73
-5471.75
-3601.85
-2251.53
-1526.98
-1341.57
-1606.99
-2307.72
-3564.25
-5798.92
-9545.72
-14435.1
-21496.8
-33717.4
-40576.8
-33164.5
-30288.8
-29457.6
-26887
-22218.7
-17094.9
-13061.1
-11016.3
-11340.8
-13950.5
-18433.9
-24264.8
-30829.8
-36651.5
-38596.6
-36614.9
-38254.1
-40576.8
-33164.5
-30288.8
-29457.6
-26887
-22218.7
-17094.9
-13061.1
-11016.3
-11340.8
-13950.5
-18433.9
-24264.8
-30829.8
-36651.5
-38596.6
-36614.9
-38254.1
-14730.3
-7883.6
2586.27
9816.61
13358.5
14327.5
14054.2
13524.5
13306.9
13651.5
14502.9
15538.9
16232.8
15848
13463.4
8755.1
1358.53
-9726.85
-14730.3
-7883.6
2586.27
9816.61
13358.5
14327.5
14054.2
13524.5
13306.9
13651.5
14502.9
15538.9
16232.8
15848
13463.4
8755.1
1358.53
-9726.85
-28653.6
-16312.6
-11327.2
-8833.55
-5720.35
-2451.05
-19.5337
1384.57
1986.75
2042.38
1691.34
934.226
-443.495
-3066.09
-7914.1
-14948.3
-22776
-29179.5
-28653.6
-16312.6
-11327.2
-8833.55
-5720.35
-2451.05
-19.5337
1384.57
1986.75
2042.38
1691.34
934.226
-443.495
-3066.09
-7914.1
-14948.3
-22776
-29179.5
-17448.1
-19697.8
-26615.8
-30780.7
-29466.9
-24073.6
-17671.8
-12298
-8930.99
-7989.37
-9427.58
-12853.8
-17712.6
-23281.7
-27712.1
-27182
-20881
-16117.3
-17448.1
-19697.8
-26615.8
-30780.7
-29466.9
-24073.6
-17671.8
-12298
-8930.99
-7989.37
-9427.58
-12853.8
-17712.6
-23281.7
-27712.1
-27182
-20881
-16117.3
-16002.8
-13297.4
-5564.81
3059.96
9024.84
11846.6
12591.6
12474.3
12276.9
12351.6
12726.1
13176.1
13212.2
11828.9
7293.35
-934.176
-9984.8
-15524.7
-16002.8
-13297.4
-5564.81
3059.96
9024.84
11846.6
12591.6
12474.3
12276.9
12351.6
12726.1
13176.1
13212.2
11828.9
7293.35
-934.176
-9984.8
-15524.7
-14211.6
-12771.6
-11343.9
-7655.32
-2594.16
1703.96
4188.56
5222.04
5444.6
5226.7
4684.29
3751.59
2139.56
-819.937
-6076.43
-12829.4
-17539.2
-17115.9
-14211.6
-12771.6
-11343.9
-7655.32
-2594.16
1703.96
4188.56
5222.04
5444.6
5226.7
4684.29
3751.59
2139.56
-819.937
-6076.43
-12829.4
-17539.2
-17115.9
8605.73
-1568.07
-14394.2
-21969.2
-21895.1
-16550.5
-9986.51
-4376.48
-438.967
1459.3
1209.2
-977.699
-4542.01
-8474.8
-10606.2
-7405.02
1148.1
9155.27
8605.73
-1568.07
-14394.2
-21969.2
-21895.1
-16550.5
-9986.51
-4376.48
-438.967
1459.3
1209.2
-977.699
-4542.01
-8474.8
-10606.2
-7405.02
1148.1
9155.27
-22913.4
-19980.9
-13277.9
-4584.68
3027.68
7779.82
9865.66
10435.5
10420.6
10268.6
10085.2
9726.24
8696.58
5809.96
-469.793
-9242.91
-17137.9
-21959.9
-22913.4
-19980.9
-13277.9
-4584.68
3027.68
7779.82
9865.66
10435.5
10420.6
10268.6
10085.2
9726.24
8696.58
5809.96
-469.793
-9242.91
-17137.9
-21959.9
-12123.3
-10578.4
-8806.57
-5138.24
45.1343
4545
6900.25
7528.57
7338.6
6802.52
6040.12
4980.32
3354.36
537.353
-4023.53
-8954.12
-12171
-13051.5
-12123.3
-10578.4
-8806.57
-5138.24
45.1343
4545
6900.25
7528.57
7338.6
6802.52
6040.12
4980.32
3354.36
537.353
-4023.53
-8954.12
-12171
-13051.5
21143.4
10719
-2913.51
-12053.4
-13452.8
-9038.16
-3063.36
2111.93
6003.68
8359.27
8983.73
7952.88
5773
3511.35
3277.27
7702.13
15969.8
22567.1
21143.4
10719
-2913.51
-12053.4
-13452.8
-9038.16
-3063.36
2111.93
6003.68
8359.27
8983.73
7952.88
5773
3511.35
3277.27
7702.13
15969.8
22567.1
-30288.9
-27989.7
-22177.3
-13922.2
-5450.8
1024.05
4720.09
6367.49
6888.74
6789.27
6231.93
5125.28
2992.58
-1221.71
-8298.55
-16774.7
-24170
-28944.5
-30288.9
-27989.7
-22177.3
-13922.2
-5450.8
1024.05
4720.09
6367.49
6888.74
6789.27
6231.93
5125.28
2992.58
-1221.71
-8298.55
-16774.7
-24170
-28944.5
-10327.6
-8736.61
-6310.38
-2970.49
1351.71
5460.81
7745.3
8196.23
7755.5
7023.76
6188.44
5211.39
3820.28
1423.82
-2128.48
-5689.85
-8517.99
-10297.7
-10327.6
-8736.61
-6310.38
-2970.49
1351.71
5460.81
7745.3
8196.23
7755.5
7023.76
6188.44
5211.39
3820.28
1423.82
-2128.48
-5689.85
-8517.99
-10297.7
30627.7
20598.5
7052.85
-3078.79
-6417.58
-3886.06
930.094
5417.92
9007.16
11543.5
12824.7
12844.8
12005.5
11298.2
12673.2
17885.4
25814.1
31937.1
30627.7
20598.5
7052.85
-3078.79
-6417.58
-3886.06
930.094
5417.92
9007.16
11543.5
12824.7
12844.8
12005.5
11298.2
12673.2
17885.4
25814.1
31937.1
-37572.8
-36244.7
-31700
-24511
-16180.1
-8661.36
-3405.54
-433.374
948.21
1239.55
625.36
-957.469
-3903.46
-8911.1
-16089.2
-24044.2
-31012.1
-35752.9
-37572.8
-36244.7
-31700
-24511
-16180.1
-8661.36
-3405.54
-433.374
948.21
1239.55
625.36
-957.469
-3903.46
-8911.1
-16089.2
-24044.2
-31012.1
-35752.9
-9475.87
-7489.18
-4472.71
-1318.83
2104.63
5531.21
7741.9
8249.3
7745.95
6931.28
6104.2
5257.87
4091.37
2112.54
-661.849
-3672.93
-6724.48
-9128.32
-9475.87
-7489.18
-4472.71
-1318.83
2104.63
5531.21
7741.9
8249.3
7745.95
6931.28
6104.2
5257.87
4091.37
2112.54
-661.849
-3672.93
-6724.48
-9128.32
38951.5
29964.9
16825.6
5875.4
552.301
773.741
4088.88
7889.43
11182.8
13780.8
15525.5
16372.9
16622
17184
19727.9
25410.1
33243
39475.6
38951.5
29964.9
16825.6
5875.4
552.301
773.741
4088.88
7889.43
11182.8
13780.8
15525.5
16372.9
16622
17184
19727.9
25410.1
33243
39475.6
-43546
-43266.2
-40412.5
-34976.4
-27830.4
-20413
-14236.7
-10042.9
-7659.29
-6737.2
-7120.13
-8844.54
-12142.3
-17282.8
-23962.2
-31032.7
-37207.1
-41516.2
-43546
-43266.2
-40412.5
-34976.4
-27830.4
-20413
-14236.7
-10042.9
-7659.29
-6737.2
-7120.13
-8844.54
-12142.3
-17282.8
-23962.2
-31032.7
-37207.1
-41516.2
-9844.71
-7619.25
-4086.51
-706.555
2313.17
5122.01
7191.44
7934.67
7604.31
6830.49
6020.55
5225.85
4167.59
2465.63
65.4953
-2945.74
-6427.47
-9301.49
-9844.71
-7619.25
-4086.51
-706.555
2313.17
5122.01
7191.44
7934.67
7604.31
6830.49
6020.55
5225.85
4167.59
2465.63
65.4953
-2945.74
-6427.47
-9301.49
47591.7
40127.7
27846.3
16333.1
9166.7
6941.06
8302.99
11157.1
14115.9
16722.8
18807.9
20318
21502
23178.1
26663.2
32754.5
40624.3
47086.8
47591.7
40127.7
27846.3
16333.1
9166.7
6941.06
8302.99
11157.1
14115.9
16722.8
18807.9
20318
21502
23178.1
26663.2
32754.5
40624.3
47086.8
-47310.8
-47814.7
-46764.1
-43644.5
-38635.2
-32605.8
-26731.8
-22018.3
-18863.2
-17264.1
-17187.8
-18653.4
-21692.4
-26211.4
-31723.4
-37342.4
-42152.3
-45505.8
-47310.8
-47814.7
-46764.1
-43644.5
-38635.2
-32605.8
-26731.8
-22018.3
-18863.2
-17264.1
-17187.8
-18653.4
-21692.4
-26211.4
-31723.4
-37342.4
-42152.3
-45505.8
-12132.8
-10050
-6220.2
-2310.73
978.241
3673.02
5694.44
6741.1
6795.71
6235.03
5461.89
4606.9
3485.75
1800.58
-639.999
-3960.04
-7905.33
-11219
-12132.8
-10050
-6220.2
-2310.73
978.241
3673.02
5694.44
6741.1
6795.71
6235.03
5461.89
4606.9
3485.75
1800.58
-639.999
-3960.04
-7905.33
-11219
56420.9
50911.8
40359.9
29101.7
20606.6
16085.1
15095.7
16358.1
18570.1
20977.6
23262.7
25338.1
27414.5
30152.8
34483.6
40904.9
48628
55012.3
56420.9
50911.8
40359.9
29101.7
20606.6
16085.1
15095.7
16358.1
18570.1
20977.6
23262.7
25338.1
27414.5
30152.8
34483.6
40904.9
48628
55012.3
-48250.6
-49096.3
-49485.9
-48731.4
-46415.2
-42778.6
-38519.8
-34492.6
-31348.6
-29416.4
-28842.3
-29666.3
-31786.6
-34915.2
-38563.4
-42120.4
-45042
-47036
-48250.6
-49096.3
-49485.9
-48731.4
-46415.2
-42778.6
-38519.8
-34492.6
-31348.6
-29416.4
-28842.3
-29666.3
-31786.6
-34915.2
-38563.4
-42120.4
-45042
-47036
-16906.2
-15389.7
-11732.3
-7401.99
-3416.48
-129.907
2354.49
3920.53
4523.92
4325.65
3614.6
2572.55
1141.03
-897.647
-3764.56
-7546.69
-11853.9
-15492.9
-16906.2
-15389.7
-11732.3
-7401.99
-3416.48
-129.907
2354.49
3920.53
4523.92
4325.65
3614.6
2572.55
1141.03
-897.647
-3764.56
-7546.69
-11853.9
-15492.9
63946.4
60486.9
52612.5
43089
34654.9
28769.6
25679.8
24907.7
25682.3
27326.1
29427.5
31824.4
34616.7
38187.5
43044.2
49365.5
56383
62090.2
63946.4
60486.9
52612.5
43089
34654.9
28769.6
25679.8
24907.7
25682.3
27326.1
29427.5
31824.4
34616.7
38187.5
43044.2
49365.5
56383
62090.2
-46147.5
-46909.1
-48059.1
-49048.7
-49200.2
-48232.8
-46340.8
-44038.1
-41897.2
-40335.6
-39566.9
-39642.1
-40447.6
-41714.6
-43104.3
-44318.2
-45182.1
-45705.9
-46147.5
-46909.1
-48059.1
-49048.7
-49200.2
-48232.8
-46340.8
-44038.1
-41897.2
-40335.6
-39566.9
-39642.1
-40447.6
-41714.6
-43104.3
-44318.2
-45182.1
-45705.9
-23886.5
-23166.6
-20271.2
-16151.3
-11732.9
-7617.93
-4169.49
-1640.9
-188.993
173.422
-406.876
-1739.15
-3736.47
-6445
-9934.02
-14103.9
-18479
-22114.4
-23886.5
-23166.6
-20271.2
-16151.3
-11732.9
-7617.93
-4169.49
-1640.9
-188.993
173.422
-406.876
-1739.15
-3736.47
-6445
-9934.02
-14103.9
-18479
-22114.4
68558.4
66849.4
62054.7
55601.8
49132.7
43760.7
39951.5
37734.1
36915.7
37242.6
38517.3
40623
43514.1
47215.4
51775.2
57078.2
62506.9
66821.1
68558.4
66849.4
62054.7
55601.8
49132.7
43760.7
39951.5
37734.1
36915.7
37242.6
38517.3
40623
43514.1
47215.4
51775.2
57078.2
62506.9
66821.1
-41523.4
-41993.7
-43244.9
-44959.9
-46552
-47539.2
-47761
-47367.4
-46683.4
-46037.1
-45576.6
-45243.5
-44937.6
-44543.5
-43960.9
-43200
-42394
-41748.3
-41523.4
-41993.7
-43244.9
-44959.9
-46552
-47539.2
-47761
-47367.4
-46683.4
-46037.1
-45576.6
-45243.5
-44937.6
-44543.5
-43960.9
-43200
-42394
-41748.3
-31906.6
-32004.8
-30394.9
-27470.1
-23737.7
-19685.5
-15751.4
-12356.8
-9881.11
-8631.27
-8722.98
-10043.1
-12363.9
-15449.8
-19098.5
-23057.7
-26915.2
-30075.5
-31906.6
-32004.8
-30394.9
-27470.1
-23737.7
-19685.5
-15751.4
-12356.8
-9881.11
-8631.27
-8722.98
-10043.1
-12363.9
-15449.8
-19098.5
-23057.7
-26915.2
-30075.5
70892.6
70122.6
67860.6
64699.2
61350.5
58322.1
55851.9
54009.1
52811.2
52290.9
52548.4
53688.2
55699.9
58417.3
61561.7
64820.9
67808.9
70015.2
70892.6
70122.6
67860.6
64699.2
61350.5
58322.1
55851.9
54009.1
52811.2
52290.9
52548.4
53688.2
55699.9
58417.3
61561.7
64820.9
67808.9
70015.2
-34183.8
-34004.3
-34696.2
-36017.6
-37570.4
-39022.8
-40221.6
-41111.8
-41699.2
-42121.2
-42526.7
-42779.1
-42643.5
-41996.8
-40742.3
-38950.2
-36960.1
-35239.9
-34183.8
-34004.3
-34696.2
-36017.6
-37570.4
-39022.8
-40221.6
-41111.8
-41699.2
-42121.2
-42526.7
-42779.1
-42643.5
-41996.8
-40742.3
-38950.2
-36960.1
-35239.9
-40936.1
-41314.5
-40874.7
-39635.3
-37725.7
-35374.6
-32833.5
-30335.8
-28142.2
-26647.2
-26246.3
-27043.5
-28847.1
-31246.5
-33780.7
-36138.8
-38190.5
-39839.1
-40936.1
-41314.5
-40874.7
-39635.3
-37725.7
-35374.6
-32833.5
-30335.8
-28142.2
-26647.2
-26246.3
-27043.5
-28847.1
-31246.5
-33780.7
-36138.8
-38190.5
-39839.1
74592.5
74419.4
73732.7
72735
71624.4
70527.5
69528.2
68691.6
68049.8
67574
67262.3
67227.6
67629.5
68570.3
69983.7
71605
73087.4
74139.5
74592.5
74419.4
73732.7
72735
71624.4
70527.5
69528.2
68691.6
68049.8
67574
67262.3
67227.6
67629.5
68570.3
69983.7
71605
73087.4
74139.5
-30769.7
-31906.9
-33312.9
-34981.9
-36822.7
-38535.3
-39624.4
-39741
-38893.7
-37374.1
-35513.6
-33488.3
-31435.8
-29754
-28819.5
-28684.4
-29117.2
-29849.3
-30769.7
-31906.9
-33312.9
-34981.9
-36822.7
-38535.3
-39624.4
-39741
-38893.7
-37374.1
-35513.6
-33488.3
-31435.8
-29754
-28819.5
-28684.4
-29117.2
-29849.3
-42984
-44171.4
-45183.3
-45991.8
-46521.6
-46591.7
-45971.9
-44606.9
-42709.2
-40669.3
-38838.6
-37416.3
-36559.4
-36510.6
-37272.7
-38603.1
-40142.1
-41635.9
-42984
-44171.4
-45183.3
-45991.8
-46521.6
-46591.7
-45971.9
-44606.9
-42709.2
-40669.3
-38838.6
-37416.3
-36559.4
-36510.6
-37272.7
-38603.1
-40142.1
-41635.9
70242.6
69783.8
69345.5
69003.6
68918.7
69299.2
70245.3
71641
73163
74424.8
75197
75454.4
75152.8
74358.7
73276.3
72215.7
71363
70736.4
70242.6
69783.8
69345.5
69003.6
68918.7
69299.2
70245.3
71641
73163
74424.8
75197
75454.4
75152.8
74358.7
73276.3
72215.7
71363
70736.4
)
;

boundaryField
{
    fixed
    {
        type            zeroGradient;
    }
    inside
    {
        type            zeroGradient;
    }
    outside
    {
        type            zeroGradient;
    }
}


// ************************************************************************* //
