/*--------------------------------*- C++ -*----------------------------------*\
| =========                 |                                                 |
| \\      /  F ield         | OpenFOAM: The Open Source CFD Toolbox           |
|  \\    /   O peration     | Version:  2312                                  |
|   \\  /    A nd           | Website:  www.openfoam.com                      |
|    \\/     M anipulation  |                                                 |
\*---------------------------------------------------------------------------*/
FoamFile
{
    version     2.0;
    format      ascii;
    arch        "LSB;label=32;scalar=64";
    class       volSymmTensorField;
    location    "0.7";
    object      sigma;
}
// * * * * * * * * * * * * * * * * * * * * * * * * * * * * * * * * * * * * * //

dimensions      [1 -1 -2 0 0 0 0];

internalField   nonuniform List<symmTensor> 
1620
(
(-28448.4 -5776.97 5971 -8125.57 -20323.7 -8285.29)
(-34693 -9750.52 10543.3 -22055.6 -18624.9 -18132.9)
(-28934.9 -11201.1 13707.4 -24597.5 -16199 -17130.2)
(-17091 -11222.4 15639 -19207.7 -13885.6 -9225.5)
(-5026.46 -10781.4 16732.7 -11524.7 -12153.7 220.209)
(4745.25 -10350 17316.1 -4609.68 -11045.6 8339.6)
(12094.2 -10090.6 17590.8 897.561 -10465.9 14615.2)
(17705.2 -10035.7 17666.7 5398.97 -10318 19515)
(22228.4 -10175.9 17584.5 9450.61 -10525.8 23609)
(26032.4 -10480.8 17324.6 13455.6 -11029.3 27275.8)
(29168.1 -10886 16821.5 17597.1 -11778 30654.3)
(31366.3 -11278.2 15993.4 21809.8 -12727.4 33639.1)
(32049.2 -11500.8 14778.3 25734 -13848.7 35853.7)
(30349.7 -11379.9 13142.2 28665.1 -15145 36584.2)
(25168.4 -10704.6 11019 29564.1 -16635.1 34756.5)
(15530.9 -9060.29 8211.84 27231 -18268.9 29230.2)
(1655.61 -5695.25 4395.32 20619.6 -19803.4 19577.7)
(-14647.3 -230.671 -556.63 8283.06 -20695.8 6006.59)
(-28448.4 5776.97 -5971 -8125.57 -20323.7 -8285.29)
(-34693 9750.52 -10543.3 -22055.6 -18624.9 -18132.9)
(-28934.9 11201.1 -13707.4 -24597.5 -16199 -17130.2)
(-17091 11222.4 -15639 -19207.7 -13885.6 -9225.5)
(-5026.46 10781.4 -16732.7 -11524.7 -12153.7 220.209)
(4745.25 10350 -17316.1 -4609.68 -11045.6 8339.6)
(12094.2 10090.6 -17590.8 897.561 -10465.9 14615.2)
(17705.2 10035.7 -17666.7 5398.97 -10318 19515)
(22228.4 10175.9 -17584.5 9450.61 -10525.8 23609)
(26032.4 10480.8 -17324.6 13455.6 -11029.3 27275.8)
(29168.1 10886 -16821.5 17597.1 -11778 30654.3)
(31366.3 11278.2 -15993.4 21809.8 -12727.4 33639.1)
(32049.2 11500.8 -14778.3 25734 -13848.7 35853.7)
(30349.7 11379.9 -13142.2 28665.1 -15145 36584.2)
(25168.4 10704.6 -11019 29564.1 -16635.1 34756.5)
(15530.9 9060.29 -8211.84 27231 -18268.9 29230.2)
(1655.61 5695.25 -4395.32 20619.6 -19803.4 19577.7)
(-14647.3 230.671 556.63 8283.06 -20695.8 6006.59)
(-24642.4 -5865.12 1001.12 15810.1 -3794.39 -23795)
(-23806 -14133.8 1741.75 7473.91 -3848.99 -27565.3)
(-16952.4 -18784.6 2346.98 1964.22 -3605.85 -27226.5)
(-6472.12 -20644 2742.74 1127.6 -3120.96 -22792)
(4390.97 -21035.5 2936.08 3099.35 -2618.82 -16632)
(13785.8 -20848.4 2970.9 5925.54 -2235.85 -10678.1)
(21230.4 -20532.5 2889.46 8638.81 -2002.73 -5735.85)
(26834.6 -20284.7 2730.85 10959.1 -1915.33 -1940.61)
(30751.9 -20187.3 2529.75 12873 -1958.54 765.575)
(33018.1 -20270.8 2308.59 14459.4 -2106.63 2465.22)
(33544.3 -20526.6 2075.7 15831.1 -2324.52 3228.17)
(32142.3 -20894.9 1832.8 17099.4 -2571.82 3089.87)
(28560.5 -21239.8 1585.5 18342.8 -2810.63 2023.96)
(22496.7 -21308.1 1343.06 19555.3 -3018.05 -116.953)
(13584.1 -20631.1 1093.23 20557.2 -3190.06 -3676.04)
(1846.26 -18335.4 779.513 21126.2 -3326.06 -8852.16)
(-10844.9 -13140.3 335.856 21320.5 -3441.23 -14723.6)
(-20705.3 -4428.04 -264.648 20226.3 -3599.86 -19860.7)
(-24642.4 5865.12 -1001.12 15810.1 -3794.39 -23795)
(-23806 14133.8 -1741.75 7473.91 -3848.99 -27565.3)
(-16952.4 18784.6 -2346.98 1964.22 -3605.85 -27226.5)
(-6472.12 20644 -2742.74 1127.6 -3120.96 -22792)
(4390.97 21035.5 -2936.08 3099.35 -2618.82 -16632)
(13785.8 20848.4 -2970.9 5925.54 -2235.85 -10678.1)
(21230.4 20532.5 -2889.46 8638.81 -2002.73 -5735.85)
(26834.6 20284.7 -2730.85 10959.1 -1915.33 -1940.61)
(30751.9 20187.3 -2529.75 12873 -1958.54 765.575)
(33018.1 20270.8 -2308.59 14459.4 -2106.63 2465.22)
(33544.3 20526.6 -2075.7 15831.1 -2324.52 3228.17)
(32142.3 20894.9 -1832.8 17099.4 -2571.82 3089.87)
(28560.5 21239.8 -1585.5 18342.8 -2810.63 2023.96)
(22496.7 21308.1 -1343.06 19555.3 -3018.05 -116.953)
(13584.1 20631.1 -1093.23 20557.2 -3190.06 -3676.04)
(1846.26 18335.4 -779.513 21126.2 -3326.06 -8852.16)
(-10844.9 13140.3 -335.856 21320.5 -3441.23 -14723.6)
(-20705.3 4428.04 264.648 20226.3 -3599.86 -19860.7)
(-19633.1 -1460.05 -473.317 8286.17 20573.9 -3446.01)
(-17573.1 -6868.01 -4780.58 6689.3 19499 -3494.91)
(-13517.5 -10587.8 -8177.91 4621.8 18078.7 -3016.13)
(-6959.63 -12743.2 -10732.2 4776.31 16813.6 -118.387)
(1090.45 -13874.1 -12693.6 7088.65 15835.9 4858.53)
(8893.69 -14411.2 -14281 9998.63 15078.5 10297.8)
(15187.3 -14592.4 -15613.2 12199.3 14427.8 14836.6)
(19403.7 -14535.4 -16706.3 13120.5 13790.5 17773.5)
(21290.6 -14323.8 -17507.7 12626.1 13142.6 18760.5)
(20726.4 -14054.9 -17951.6 10778.8 12555.9 17652.1)
(17750.1 -13838.3 -18002.5 7784.37 12172.2 14545.4)
(12628.5 -13759.3 -17667.3 4016.31 12149.6 9830.13)
(5903.64 -13826.9 -16970.2 92.0686 12612.6 4208.7)
(-1640.32 -13915.6 -15897.6 -3090.27 13630 -1357.16)
(-9132.62 -13695.7 -14336.5 -4502.06 15207.4 -5831.36)
(-15488.6 -12550 -12043.1 -3136.19 17232.4 -8116.43)
(-19227.7 -9650.88 -8711.95 1392.8 19293.3 -7290.48)
(-20083.8 -4643.94 -4323.89 6633.44 20599.1 -4642.95)
(-19633.1 1460.05 473.317 8286.17 20573.9 -3446.01)
(-17573.1 6868.01 4780.58 6689.3 19499 -3494.91)
(-13517.5 10587.8 8177.91 4621.8 18078.7 -3016.13)
(-6959.63 12743.2 10732.2 4776.31 16813.6 -118.387)
(1090.45 13874.1 12693.6 7088.65 15835.9 4858.53)
(8893.69 14411.2 14281 9998.63 15078.5 10297.8)
(15187.3 14592.4 15613.2 12199.3 14427.8 14836.6)
(19403.7 14535.4 16706.3 13120.5 13790.5 17773.5)
(21290.6 14323.8 17507.7 12626.1 13142.6 18760.5)
(20726.4 14054.9 17951.6 10778.8 12555.9 17652.1)
(17750.1 13838.3 18002.5 7784.37 12172.2 14545.4)
(12628.5 13759.3 17667.3 4016.31 12149.6 9830.13)
(5903.64 13826.9 16970.2 92.0687 12612.6 4208.7)
(-1640.32 13915.6 15897.6 -3090.27 13630 -1357.16)
(-9132.62 13695.7 14336.5 -4502.06 15207.4 -5831.36)
(-15488.6 12550 12043.1 -3136.19 17232.4 -8116.43)
(-19227.7 9650.88 8711.95 1392.8 19293.3 -7290.48)
(-20083.8 4643.94 4323.89 6633.44 20599.1 -4642.95)
(-2519.93 -7777.38 8074.76 13782.8 -18759.7 16272.7)
(4393.55 -10939.8 14738.7 4088.32 -13868.7 15024.7)
(11238.1 -9578.51 17541.7 1108.27 -9783.08 16211.8)
(15549.9 -8015.18 18686.3 810.033 -7248.74 17651.7)
(18081.9 -6991.97 19196.8 900.88 -5860.56 18748.8)
(19550 -6445.13 19476.6 756.476 -5256.41 19333.8)
(20640.5 -6257.24 19659.2 622.66 -5183.69 19704.9)
(21815.2 -6362.95 19769.6 864.139 -5477.36 20209.7)
(23356.5 -6732.43 19790.1 1777.05 -6045.36 21125.9)
(25379.1 -7345.53 19675 3559.83 -6844.39 22609.5)
(27753.3 -8169.73 19353.6 6250 -7845.26 24613.3)
(30049.3 -9136.15 18743.5 9664.38 -8995.48 26852.4)
(31559.8 -10116.2 17787.3 13382.1 -10193.4 28873.9)
(31427 -10938.3 16521.9 16807 -11334.8 30237.7)
(28897.3 -11509 15069.8 19479.4 -12536.9 30674.6)
(23153 -11735.5 13235.9 21370.1 -14312.9 29690.4)
(12695.9 -10375.7 9778.46 22451.5 -17144.9 26078.2)
(402.977 -3316.31 2331.61 22321 -20039.2 20884.3)
(-2519.93 7777.38 -8074.76 13782.8 -18759.7 16272.7)
(4393.55 10939.8 -14738.7 4088.32 -13868.7 15024.7)
(11238.1 9578.51 -17541.7 1108.27 -9783.08 16211.8)
(15549.9 8015.18 -18686.3 810.033 -7248.74 17651.7)
(18081.9 6991.97 -19196.8 900.88 -5860.56 18748.8)
(19550 6445.13 -19476.6 756.476 -5256.41 19333.8)
(20640.5 6257.24 -19659.2 622.66 -5183.69 19704.9)
(21815.2 6362.95 -19769.6 864.139 -5477.36 20209.7)
(23356.5 6732.43 -19790.1 1777.05 -6045.36 21125.9)
(25379.1 7345.53 -19675 3559.83 -6844.39 22609.5)
(27753.3 8169.73 -19353.6 6250 -7845.26 24613.3)
(30049.3 9136.15 -18743.5 9664.38 -8995.48 26852.4)
(31559.8 10116.2 -17787.3 13382.1 -10193.4 28873.9)
(31427 10938.3 -16521.9 16807 -11334.8 30237.7)
(28897.3 11509 -15069.8 19479.4 -12536.9 30674.6)
(23153 11735.5 -13235.9 21370.1 -14312.9 29690.4)
(12695.9 10375.7 -9778.46 22451.5 -17144.9 26078.2)
(402.977 3316.31 -2331.61 22321 -20039.2 20884.3)
(-12590.3 -10154 1287.71 23837.5 -3843.91 -13146.8)
(2016.98 -19698.2 2659.02 13748.4 -3290.45 -10926.3)
(15347.7 -20110.5 3406.22 7812.19 -2477.72 -7713.66)
(21960.3 -18417.9 3720.22 3519.16 -1716.15 -6962.5)
(25686.8 -16832.8 3751.07 793.257 -1143.43 -6658.76)
(28595.5 -15643.5 3640.47 -662.076 -843.002 -6021.33)
(31242.3 -14793.1 3496.68 -1236.23 -814.357 -5102.88)
(33523.4 -14259.6 3364.91 -1352.46 -988.036 -4247.61)
(35237.9 -14068.1 3246.23 -1316.07 -1294.37 -3726.55)
(36228.1 -14261 3127.13 -1261.36 -1691.2 -3675.59)
(36332.7 -14890.2 2983.6 -1199.35 -2142.45 -4170.69)
(35336.6 -15998.6 2771.64 -1065.1 -2581.93 -5265.39)
(32927.9 -17556.4 2438.94 -714.331 -2888.29 -6924.2)
(28650.9 -19358 2003.59 113.061 -2923.48 -8895.7)
(22032.8 -21025.2 1652.67 1959.06 -2718.61 -10702.3)
(12353 -22043.1 1537.48 5728.69 -2615.27 -12369)
(-2872.64 -20291.1 1340.32 11489.9 -2941.72 -15809.7)
(-18296.9 -9226.76 414.396 19770 -3612.15 -18536.2)
(-12590.3 10154 -1287.71 23837.5 -3843.91 -13146.8)
(2016.98 19698.2 -2659.02 13748.4 -3290.45 -10926.3)
(15347.7 20110.5 -3406.22 7812.19 -2477.72 -7713.66)
(21960.3 18417.9 -3720.22 3519.16 -1716.15 -6962.5)
(25686.8 16832.8 -3751.07 793.257 -1143.43 -6658.76)
(28595.5 15643.5 -3640.47 -662.076 -843.002 -6021.33)
(31242.3 14793.1 -3496.68 -1236.23 -814.357 -5102.88)
(33523.4 14259.6 -3364.91 -1352.46 -988.036 -4247.61)
(35237.9 14068.1 -3246.23 -1316.07 -1294.37 -3726.55)
(36228.1 14261 -3127.13 -1261.36 -1691.2 -3675.59)
(36332.7 14890.2 -2983.6 -1199.35 -2142.45 -4170.69)
(35336.6 15998.6 -2771.64 -1065.1 -2581.93 -5265.39)
(32927.9 17556.4 -2438.94 -714.331 -2888.29 -6924.2)
(28650.9 19358 -2003.59 113.061 -2923.48 -8895.7)
(22032.8 21025.2 -1652.67 1959.06 -2718.61 -10702.3)
(12353 22043.1 -1537.48 5728.69 -2615.27 -12369)
(-2872.64 20291.1 -1340.32 11489.9 -2941.72 -15809.7)
(-18296.9 9226.76 -414.396 19770 -3612.15 -18536.2)
(-22664.3 -4401.01 -3120.85 4935.83 21103.1 -6189.29)
(-13718.8 -12036.1 -10024.3 1142.62 17891.9 -4463.34)
(-2918.77 -14014.1 -13734.9 -395.678 14934.9 -682.045)
(4147.52 -14009.1 -15897.5 -1209.04 13227.5 2051.52)
(9436.43 -13819 -17698.9 -991.881 12605.8 5083.77)
(14224.2 -13689 -19611 -383.859 12425.7 8867.98)
(18530.1 -13232.7 -21401.5 -101.4 11842.5 12701.8)
(21658.4 -12298.5 -22586.7 -356.992 10535.2 15364.5)
(22892.8 -11180.1 -22993.7 -1257.49 8846.85 15921.6)
(21835.6 -10270.1 -22764 -3074.6 7295.29 13986)
(18481.6 -9844.34 -22152 -6035.12 6266.29 9679.09)
(13160.5 -10039.8 -21418.3 -10107.1 5972.72 3522.21)
(6463.58 -10879.7 -20769.8 -14839.6 6512.34 -3622.46)
(-769.845 -12289 -20262 -19118 7958.99 -10444.4)
(-7479.13 -14033.7 -19610.4 -20872.4 10416.1 -14998.2)
(-13140.2 -15440.2 -17971.4 -17678.4 13928 -15525.1)
(-19665.7 -14571.4 -13954 -9745.69 18169.5 -13341.9)
(-25343.6 -7632.32 -6321.51 456.262 21495.3 -9844.37)
(-22664.3 4401.01 3120.85 4935.83 21103.1 -6189.29)
(-13718.8 12036.1 10024.3 1142.62 17891.9 -4463.34)
(-2918.77 14014.1 13734.9 -395.678 14934.9 -682.045)
(4147.52 14009.1 15897.5 -1209.04 13227.5 2051.52)
(9436.43 13819 17698.9 -991.881 12605.8 5083.77)
(14224.2 13689 19611 -383.859 12425.7 8867.98)
(18530.1 13232.7 21401.5 -101.4 11842.5 12701.8)
(21658.4 12298.5 22586.7 -356.992 10535.2 15364.5)
(22892.8 11180.1 22993.7 -1257.49 8846.85 15921.6)
(21835.6 10270.1 22764 -3074.6 7295.29 13986)
(18481.6 9844.34 22152 -6035.12 6266.29 9679.09)
(13160.5 10039.8 21418.3 -10107.1 5972.72 3522.21)
(6463.58 10879.7 20769.8 -14839.6 6512.34 -3622.46)
(-769.845 12289 20262 -19118 7958.99 -10444.4)
(-7479.13 14033.7 19610.4 -20872.4 10416.1 -14998.2)
(-13140.2 15440.2 17971.4 -17678.4 13928 -15525.1)
(-19665.7 14571.4 13954 -9745.69 18169.5 -13341.9)
(-25343.6 7632.32 6321.51 456.262 21495.3 -9844.37)
(15077.8 -2481.03 19954.2 -5393.07 -2106.19 16661)
(17013.6 696.619 19543.6 -3979.32 1642.18 18372.5)
(25105.1 883.424 19563.1 4275 2513.27 25559.4)
(30829.5 584.043 19695.3 9763.92 2790.43 30644.7)
(33494.8 156.672 19958.3 11505.1 2634.14 32758.9)
(34542.7 -272.337 20394.4 11015.7 2082.93 32987.1)
(35049.1 -748.315 20875.3 9744.52 1236.91 32356.6)
(35662.6 -1363.71 21257.5 8624.11 212.871 31604.2)
(36768.6 -2168.95 21453.1 8168.08 -930.496 31201)
(38517.3 -3174.19 21400 8638.56 -2188.51 31362.6)
(40744.1 -4360.51 21033.7 10058 -3551.16 31982.5)
(42963.1 -5661.61 20294.3 12198.8 -4912.35 32657.5)
(44415.8 -6896.36 19192.3 14562.3 -5961.53 32899)
(44110.7 -7665.1 17990.2 16306.3 -6204.05 32542.7)
(41261.9 -7462.01 17351.6 16480.4 -5481.88 32026.5)
(36340.6 -6471 17766.2 14699.1 -4616.64 31326.1)
(28267.1 -5933.76 18679.1 8944.79 -4582.57 26914)
(14336 -8201.28 18861.9 -384.314 -7530.07 16868.6)
(15077.8 2481.03 -19954.2 -5393.07 -2106.19 16661)
(17013.6 -696.619 -19543.6 -3979.32 1642.18 18372.5)
(25105.1 -883.424 -19563.1 4275 2513.27 25559.4)
(30829.5 -584.043 -19695.3 9763.92 2790.43 30644.7)
(33494.8 -156.672 -19958.3 11505.1 2634.14 32758.9)
(34542.7 272.337 -20394.4 11015.7 2082.93 32987.1)
(35049.1 748.315 -20875.3 9744.52 1236.91 32356.6)
(35662.6 1363.71 -21257.5 8624.11 212.871 31604.2)
(36768.6 2168.95 -21453.1 8168.08 -930.496 31201)
(38517.3 3174.19 -21400 8638.56 -2188.51 31362.6)
(40744.1 4360.51 -21033.7 10058 -3551.16 31982.5)
(42963.1 5661.61 -20294.3 12198.8 -4912.35 32657.5)
(44415.8 6896.36 -19192.3 14562.3 -5961.53 32899)
(44110.7 7665.1 -17990.2 16306.3 -6204.05 32542.7)
(41261.9 7462.01 -17351.6 16480.4 -5481.88 32026.5)
(36340.6 6471 -17766.2 14699.1 -4616.64 31326.1)
(28267.1 5933.76 -18679.1 8944.79 -4582.57 26914)
(14336 8201.28 -18861.9 -384.314 -7530.07 16868.6)
(3838.23 -11357.3 3832.75 -28476.3 -873.344 -30005)
(18988.8 -3807.41 3720.24 -19697.8 85.7345 -18333.9)
(27463.5 -2577.6 3906.94 -11553.1 492.256 -10668.5)
(30769.9 -2571.32 3908.76 -8501.13 956.308 -7824.4)
(33046.8 -3002.84 3668.57 -7189.95 1345.31 -6146.04)
(35952.8 -3376.89 3394.05 -6115.88 1398.13 -4252.16)
(38977.2 -3495.44 3242.48 -5251.09 1060.9 -2531.61)
(41464.3 -3500.38 3187.67 -4773.88 494.802 -1445)
(43248.5 -3582.09 3141.76 -4735.96 -179.444 -1093.52)
(44416.3 -3865.61 3046.15 -5036.32 -935.627 -1404.7)
(45030.6 -4441.39 2859.99 -5511.68 -1752.99 -2339.83)
(45019.6 -5360.86 2522.09 -6020.25 -2509.42 -3922.5)
(44029 -6508.13 1962.23 -6584.66 -2907.19 -6137.11)
(41114.2 -7355.67 1290.81 -7683.59 -2555.5 -8827.38)
(35248.4 -7126.41 1106.28 -10178 -1468.66 -11707.5)
(27572.7 -6179.21 1939.51 -14116.6 -488.924 -14761.4)
(18359 -6449.34 3204.74 -20461.3 -226.042 -20388.2)
(1583.1 -13209.5 4133.77 -28833.5 -1064.41 -31901.9)
(3838.23 11357.3 -3832.75 -28476.3 -873.344 -30005)
(18988.8 3807.41 -3720.24 -19697.8 85.7345 -18333.9)
(27463.5 2577.6 -3906.94 -11553.1 492.256 -10668.5)
(30769.9 2571.32 -3908.76 -8501.13 956.308 -7824.4)
(33046.8 3002.84 -3668.57 -7189.95 1345.31 -6146.04)
(35952.8 3376.89 -3394.05 -6115.88 1398.13 -4252.16)
(38977.2 3495.44 -3242.48 -5251.09 1060.9 -2531.61)
(41464.3 3500.38 -3187.67 -4773.88 494.802 -1445)
(43248.5 3582.09 -3141.76 -4735.96 -179.444 -1093.52)
(44416.3 3865.61 -3046.15 -5036.32 -935.627 -1404.7)
(45030.6 4441.39 -2859.99 -5511.68 -1752.99 -2339.83)
(45019.6 5360.86 -2522.09 -6020.25 -2509.42 -3922.5)
(44029 6508.13 -1962.23 -6584.66 -2907.19 -6137.11)
(41114.2 7355.67 -1290.81 -7683.59 -2555.5 -8827.38)
(35248.4 7126.41 -1106.28 -10178 -1468.66 -11707.5)
(27572.7 6179.21 -1939.51 -14116.6 -488.924 -14761.4)
(18359 6449.34 -3204.74 -20461.3 -226.042 -20388.2)
(1583.1 13209.5 -4133.77 -28833.5 -1064.41 -31901.9)
(-19912.9 -11350 -18305.5 -35281.2 9819.43 -24536.4)
(-7593.92 -5544.22 -20064.8 -32273.3 4442.15 -17626.2)
(-4251.85 -4286.35 -19811.6 -29358.8 3611.98 -15255.7)
(-3661.27 -4360.89 -20027.4 -28318.7 4161.87 -14392.8)
(-1574.33 -5441.78 -21444.2 -26174.5 5834.24 -10912.2)
(2993.2 -6744.16 -24197.2 -23457.8 7548.95 -4191.55)
(8670.77 -6829.27 -26956.7 -21331.4 7434.46 3375.92)
(13470.7 -5490.48 -28343.1 -19650.8 5220.86 8996.7)
(16111 -3650.89 -28243.9 -18395.3 2093.56 11235.5)
(16193.2 -2135.14 -27190.5 -18056.7 -806.771 9841.06)
(13955 -1335.2 -25776.3 -19114.5 -2829.27 5307.92)
(9966.5 -1307.8 -24529.9 -21807.9 -3739.35 -1460.36)
(4813.08 -1871.87 -23864.1 -26144.7 -3556.41 -9462.79)
(-1096.37 -2613.95 -23913.4 -31832.6 -2382.28 -17560.3)
(-6932.77 -2927.38 -24140.1 -37416.7 -538.947 -23604.9)
(-9988.41 -2754.68 -23499.2 -39341.4 1192.91 -24459.8)
(-9556.55 -3378.04 -21999.5 -37130.7 2783.78 -21157.4)
(-15396.1 -9485.51 -19350.8 -35691.8 8197.9 -21674.3)
(-19912.9 11350 18305.5 -35281.2 9819.43 -24536.4)
(-7593.92 5544.22 20064.8 -32273.3 4442.15 -17626.2)
(-4251.85 4286.35 19811.6 -29358.8 3611.98 -15255.7)
(-3661.27 4360.89 20027.4 -28318.7 4161.87 -14392.8)
(-1574.33 5441.78 21444.2 -26174.5 5834.24 -10912.2)
(2993.2 6744.16 24197.2 -23457.8 7548.95 -4191.55)
(8670.77 6829.27 26956.7 -21331.4 7434.46 3375.92)
(13470.7 5490.48 28343.1 -19650.8 5220.86 8996.7)
(16111 3650.89 28243.9 -18395.3 2093.56 11235.5)
(16193.2 2135.14 27190.5 -18056.7 -806.771 9841.06)
(13955 1335.2 25776.3 -19114.5 -2829.27 5307.92)
(9966.5 1307.8 24529.9 -21807.9 -3739.35 -1460.36)
(4813.08 1871.87 23864.1 -26144.7 -3556.41 -9462.79)
(-1096.37 2613.95 23913.4 -31832.6 -2382.28 -17560.3)
(-6932.77 2927.38 24140.1 -37416.7 -538.947 -23604.9)
(-9988.41 2754.68 23499.2 -39341.4 1192.91 -24459.8)
(-9556.55 3378.04 21999.5 -37130.7 2783.78 -21157.4)
(-15396.1 9485.51 19350.8 -35691.8 8197.9 -21674.3)
(-14772 4304.63 2939.87 5699.77 20818.8 6881.29)
(-1102.8 9956.78 10553.6 4985.96 17964.5 14466)
(14445.3 9246.49 13751.4 10302.1 15505.1 25011.4)
(24543.7 7455.76 15377.6 14450.5 13850.4 32455.6)
(30409.1 5980.01 16898.8 15316.3 12236.2 36350)
(33757.6 4991.23 18592 13776.5 10311.3 37448.5)
(35784.7 4203.27 20055.5 11505.1 8146.31 36872.9)
(37313 3355.49 20987.1 9619.47 5972.32 35641)
(38915.7 2366.1 21358.4 8567.12 3916.72 34437.8)
(40897.1 1245.8 21222.9 8485.4 1968.64 33572.1)
(43206.9 39.6548 20602.6 9347.25 103.348 32954.5)
(45442 -1162.99 19505.2 10977.6 -1552.44 32196.9)
(46807.6 -2161.45 18038.8 12997.1 -2549.65 30893.7)
(45814.7 -2453.97 16624.9 14662.3 -2056.29 29067.2)
(40314.6 -927.163 16009.9 14822.1 695.293 27253.6)
(29992.8 3303.42 16213.3 12984.1 5392.77 25288.4)
(15490.3 8217.79 15126.4 10142.8 11337.3 20442.6)
(-5952.87 7505.75 8854.47 8016.01 18301.2 10756.3)
(-14772 -4304.63 -2939.87 5699.77 20818.8 6881.29)
(-1102.8 -9956.78 -10553.6 4985.96 17964.5 14466)
(14445.3 -9246.49 -13751.4 10302.1 15505.1 25011.4)
(24543.7 -7455.76 -15377.6 14450.5 13850.4 32455.6)
(30409.1 -5980.01 -16898.8 15316.3 12236.2 36350)
(33757.6 -4991.23 -18592 13776.5 10311.3 37448.5)
(35784.7 -4203.27 -20055.5 11505.1 8146.31 36872.9)
(37313 -3355.49 -20987.1 9619.47 5972.32 35641)
(38915.7 -2366.1 -21358.4 8567.12 3916.72 34437.8)
(40897.1 -1245.8 -21222.9 8485.4 1968.64 33572.1)
(43206.9 -39.6548 -20602.6 9347.25 103.348 32954.5)
(45442 1162.99 -19505.2 10977.6 -1552.44 32196.9)
(46807.6 2161.45 -18038.8 12997.1 -2549.65 30893.7)
(45814.7 2453.97 -16624.9 14662.3 -2056.29 29067.2)
(40314.6 927.163 -16009.9 14822.1 695.293 27253.6)
(29992.8 -3303.42 -16213.3 12984.1 5392.77 25288.4)
(15490.3 -8217.79 -15126.4 10142.8 11337.3 20442.6)
(-5952.87 -7505.75 -8854.47 8016.01 18301.2 10756.3)
(-25887.9 11174.1 719.799 9224.18 4708.16 -27297)
(848.025 19973.4 2246.07 6913.11 4129.09 -14699)
(15113.9 18135.9 2909.79 2294.47 3969.99 -9389.91)
(22191.8 14464.8 2911.65 -307.927 4296.18 -6384.54)
(28398.7 10949.4 2540.97 -809.529 4626.86 -2750.22)
(34656.1 8436.07 2262.55 -757.496 4300.53 748.201)
(39792.6 7151.48 2293.49 -880.486 3251.29 3029.27)
(43311.8 6607.09 2473.99 -1178.22 1884.38 4020.17)
(45476.4 6331.58 2613.85 -1569.74 451.133 4053.6)
(46637.9 6100.82 2625.46 -1911.99 -1004.94 3401.19)
(46945.3 5832.68 2471.45 -2014.62 -2457.04 2143.33)
(46294.5 5546.82 2113.16 -1719.76 -3735.87 227.953)
(44141.1 5496.9 1537.65 -1066.43 -4435.7 -2405.16)
(39057.7 6489.52 971.289 -539.253 -3938.58 -5716.69)
(29115.5 9793.74 1104.11 -1101.62 -1935.01 -9756.13)
(14627.6 15085.2 2109.38 -2393.33 617.244 -15079.2)
(-3915.22 18667.6 2614.53 -472.97 2688.75 -21939.7)
(-25665.4 11079.1 1525.37 8169.78 4333.94 -28043)
(-25887.9 -11174.1 -719.799 9224.18 4708.16 -27297)
(848.025 -19973.4 -2246.07 6913.11 4129.09 -14699)
(15113.9 -18135.9 -2909.79 2294.47 3969.99 -9389.91)
(22191.8 -14464.8 -2911.65 -307.927 4296.18 -6384.54)
(28398.7 -10949.4 -2540.97 -809.529 4626.86 -2750.22)
(34656.1 -8436.07 -2262.55 -757.496 4300.53 748.201)
(39792.6 -7151.48 -2293.49 -880.486 3251.29 3029.27)
(43311.8 -6607.09 -2473.99 -1178.22 1884.38 4020.17)
(45476.4 -6331.58 -2613.85 -1569.74 451.133 4053.6)
(46637.9 -6100.82 -2625.46 -1911.99 -1004.94 3401.19)
(46945.3 -5832.68 -2471.45 -2014.62 -2457.04 2143.33)
(46294.5 -5546.82 -2113.16 -1719.76 -3735.87 227.953)
(44141.1 -5496.9 -1537.65 -1066.43 -4435.7 -2405.16)
(39057.7 -6489.52 -971.289 -539.253 -3938.58 -5716.69)
(29115.5 -9793.74 -1104.11 -1101.62 -1935.01 -9756.13)
(14627.6 -15085.2 -2109.38 -2393.33 617.244 -15079.2)
(-3915.22 -18667.6 -2614.53 -472.97 2688.75 -21939.7)
(-25665.4 -11079.1 -1525.37 8169.78 4333.94 -28043)
(-14926.9 9010.81 -7394.22 7207.93 -18985.3 -2625.35)
(-7235.97 13877 -14164.1 -4947.27 -14156.4 -4910.17)
(-8242.87 11963.8 -16611 -18083 -9561 -11521.6)
(-10118.4 8641.01 -18046.1 -25497 -5344.25 -14726.8)
(-7996.01 4608.61 -20550.7 -27179 -813.047 -11225.7)
(-1643.35 1080.95 -24650.8 -26344.7 2446.15 -2232.69)
(5998.18 64.337 -28417.5 -24986.9 2141.96 7973.37)
(12179.6 1359.17 -30242.8 -22947.8 -1389.54 15874.3)
(15755.3 3461.42 -30181.1 -20391.4 -6385.93 19843.1)
(16577.3 5267.01 -28832.3 -17929.5 -11345.8 19384.1)
(15006.4 6274.64 -26833.1 -16157.8 -15215.1 14868.7)
(11601.2 6486.82 -24857.1 -15587.3 -17422.9 7424.76)
(6752.25 6439.56 -23471.6 -16493 -17897.2 -1397.05)
(411.031 7270.47 -22642.5 -18575.2 -16837.6 -9680.74)
(-6768.14 9907.35 -21083.8 -19832.2 -15121.1 -14535.8)
(-11106.7 12822.8 -17600.1 -15289.4 -14826 -13150)
(-11951.6 12979 -12432.1 -2281.61 -16913.3 -6409.85)
(-15623 5367.6 -3914.75 10681.8 -19826.3 -1410.71)
(-14926.9 -9010.81 7394.22 7207.93 -18985.3 -2625.35)
(-7235.97 -13877 14164.1 -4947.27 -14156.4 -4910.17)
(-8242.87 -11963.8 16611 -18083 -9561 -11521.6)
(-10118.4 -8641.01 18046.1 -25497 -5344.25 -14726.8)
(-7996.01 -4608.61 20550.7 -27179 -813.047 -11225.7)
(-1643.35 -1080.95 24650.8 -26344.7 2446.15 -2232.69)
(5998.18 -64.3371 28417.5 -24986.9 2141.96 7973.37)
(12179.6 -1359.17 30242.8 -22947.8 -1389.54 15874.3)
(15755.3 -3461.42 30181.1 -20391.4 -6385.93 19843.1)
(16577.3 -5267.01 28832.3 -17929.5 -11345.8 19384.1)
(15006.4 -6274.64 26833.1 -16157.8 -15215.1 14868.7)
(11601.2 -6486.82 24857.1 -15587.3 -17422.9 7424.76)
(6752.25 -6439.56 23471.6 -16493 -17897.2 -1397.05)
(411.031 -7270.47 22642.5 -18575.2 -16837.6 -9680.74)
(-6768.14 -9907.35 21083.8 -19832.2 -15121.1 -14535.8)
(-11106.7 -12822.8 17600.1 -15289.4 -14826 -13150)
(-11951.6 -12979 12432.1 -2281.61 -16913.3 -6409.85)
(-15623 -5367.6 3914.75 10681.8 -19826.3 -1410.71)
(-15866.6 990.506 -739.257 5101.42 20500.2 4756.84)
(-11579.6 5583.61 3942.72 5272.66 21050.3 8414.74)
(-1098.1 7057.26 6464.57 8797.38 21554.6 17606.3)
(10235.6 6568.11 7991.39 12798.3 21886.7 28146)
(19467.9 6147.05 10539.6 13896.2 20692.4 35710.4)
(26054 6256.37 13886.7 12360.3 17903.2 39125.4)
(30344.8 6354.55 16661.3 10084.6 14374.6 39345.5)
(33224.1 6122.41 18295.4 8308.28 10896.5 37890.5)
(35562.2 5587.33 18952.8 7368.53 7826.53 35900)
(37864.2 4872.17 18890.9 7278.45 5182.63 33912.1)
(40183.8 4096.58 18256.4 8007.96 2921.52 31986.4)
(42132.4 3364.37 17157.9 9473.95 1161.99 29922)
(42736.4 2754.55 15809.7 11405 327.934 27495.2)
(39881.7 2433.35 14649.7 13046.7 1206.6 24558.4)
(30317.8 3165.24 14076.6 12848.8 4589.95 20713.4)
(14105.7 5624.7 13446.6 9774.56 9858.88 15317.2)
(-2441.87 7112.93 11073.4 5751.82 14909.2 8735.65)
(-13409.6 4559.14 6432.58 4391.84 18603 4443.55)
(-15866.6 -990.506 739.257 5101.42 20500.2 4756.84)
(-11579.6 -5583.61 -3942.72 5272.66 21050.3 8414.74)
(-1098.1 -7057.26 -6464.57 8797.38 21554.6 17606.3)
(10235.6 -6568.11 -7991.39 12798.3 21886.7 28146)
(19467.9 -6147.05 -10539.6 13896.2 20692.4 35710.4)
(26054 -6256.37 -13886.7 12360.3 17903.2 39125.4)
(30344.8 -6354.55 -16661.3 10084.6 14374.6 39345.5)
(33224.1 -6122.41 -18295.4 8308.28 10896.5 37890.5)
(35562.2 -5587.33 -18952.8 7368.53 7826.53 35900)
(37864.2 -4872.17 -18890.9 7278.45 5182.63 33912.1)
(40183.8 -4096.58 -18256.4 8007.96 2921.52 31986.4)
(42132.4 -3364.37 -17157.9 9473.95 1161.99 29922)
(42736.4 -2754.55 -15809.7 11405 327.934 27495.2)
(39881.7 -2433.35 -14649.7 13046.7 1206.6 24558.4)
(30317.8 -3165.24 -14076.6 12848.8 4589.95 20713.4)
(14105.7 -5624.7 -13446.6 9774.56 9858.88 15317.2)
(-2441.87 -7112.93 -11073.4 5751.82 14909.2 8735.65)
(-13409.6 -4559.14 -6432.58 4391.84 18603 4443.55)
(-13425.8 5729.26 -65.7043 26246.1 4647.92 -13455)
(-7091.24 14030.3 994.106 22309.6 5287.86 -11533.3)
(739.434 17494.1 1433.19 16388.9 6105.56 -9159.98)
(10137.1 17069 1069.82 12834.2 7342.11 -3937.22)
(20805.7 14647.1 369.072 10617 8217.64 2794.74)
(31002.2 12430.9 153.668 8022.8 7562.31 8086.89)
(38477.1 11478.5 586.325 5432.38 5456.07 10656.2)
(42958 11327 1237.47 3577.89 2809.15 11130.3)
(45316 11383 1790.31 2626.82 186.516 10391)
(46196.9 11395.9 2139.07 2564.39 -2236.27 8918.86)
(45817.4 11293.2 2266.17 3385.93 -4382.44 6849.5)
(44052.4 11065.3 2177.11 5077.27 -6089.29 4125.09)
(40231.1 10832 1909.26 7545.92 -6980.56 641.703)
(32646.5 11138 1650.23 10463.4 -6358.06 -3569.67)
(19324.8 12899.9 1802.65 12831.8 -3675.22 -8385.87)
(2825.55 14856.3 2266.49 14238.9 -166.606 -13552.6)
(-10515.6 12831.8 2134.45 17216.3 2313.69 -17318.3)
(-15975.6 5023.79 1260.5 23215.9 3756.88 -16588.1)
(-13425.8 -5729.26 65.7043 26246.1 4647.92 -13455)
(-7091.24 -14030.3 -994.106 22309.6 5287.86 -11533.3)
(739.434 -17494.1 -1433.19 16388.9 6105.56 -9159.98)
(10137.1 -17069 -1069.82 12834.2 7342.11 -3937.22)
(20805.7 -14647.1 -369.072 10617 8217.64 2794.74)
(31002.2 -12430.9 -153.668 8022.8 7562.31 8086.89)
(38477.1 -11478.5 -586.325 5432.38 5456.07 10656.2)
(42958 -11327 -1237.47 3577.89 2809.15 11130.3)
(45316 -11383 -1790.31 2626.82 186.516 10391)
(46196.9 -11395.9 -2139.07 2564.39 -2236.27 8918.86)
(45817.4 -11293.2 -2266.17 3385.93 -4382.44 6849.5)
(44052.4 -11065.3 -2177.11 5077.27 -6089.29 4125.09)
(40231.1 -10832 -1909.26 7545.92 -6980.56 641.703)
(32646.5 -11138 -1650.23 10463.4 -6358.06 -3569.67)
(19324.8 -12899.9 -1802.65 12831.8 -3675.22 -8385.87)
(2825.55 -14856.3 -2266.49 14238.9 -166.606 -13552.6)
(-10515.6 -12831.8 -2134.45 17216.3 2313.69 -17318.3)
(-15975.6 -5023.79 -1260.5 23215.9 3756.88 -16588.1)
(9460.36 6161.59 -4610.54 36169.5 -19742.9 22187.4)
(3140 10555.3 -8666.95 21628.5 -17078.4 12527.3)
(-5681.77 12019.1 -11643.4 3728.78 -13616.1 770.462)
(-10138.2 10951.9 -14244.8 -9103.61 -8936.19 -4665.93)
(-7173.24 7752.57 -17654.8 -15515.6 -3776.07 -996.364)
(1663.66 4290.28 -22068.3 -18325.5 -817.524 9010.36)
(10963.4 3316.09 -25756.3 -19057.1 -2279.9 20134.2)
(17481.6 4673.64 -27402.1 -17552.8 -7394.46 28941.7)
(20971.8 6682.66 -27166.6 -14251.4 -14245.4 33962.7)
(21813.7 8197.52 -25611.5 -9926.59 -21247 34490.8)
(20386.5 8720.52 -23305.6 -5325.05 -27114.3 30566.2)
(17070 8278.12 -20896.3 -1177.82 -30942.6 23174.7)
(12082.6 7560.48 -19007.9 2114.65 -32289.6 14176.7)
(5369.01 8019.51 -17651.5 4888.15 -30834.6 6318.44)
(-1541.41 10070.7 -15362.7 8619.14 -27111.8 3103.67)
(-3280.5 10478.4 -11084.3 16481.3 -23860.1 6584.13)
(1705.5 7030.5 -5961.73 28728.2 -22400.5 15010.6)
(8275.33 622.135 -554.066 38456 -21462.4 22734.5)
(9460.36 -6161.59 4610.54 36169.5 -19742.9 22187.4)
(3140 -10555.3 8666.95 21628.5 -17078.4 12527.3)
(-5681.77 -12019.1 11643.4 3728.78 -13616.1 770.462)
(-10138.2 -10951.9 14244.8 -9103.61 -8936.19 -4665.93)
(-7173.24 -7752.57 17654.8 -15515.6 -3776.07 -996.364)
(1663.66 -4290.28 22068.3 -18325.5 -817.524 9010.36)
(10963.4 -3316.09 25756.3 -19057.1 -2279.9 20134.2)
(17481.6 -4673.64 27402.1 -17552.8 -7394.46 28941.7)
(20971.8 -6682.66 27166.6 -14251.4 -14245.4 33962.7)
(21813.7 -8197.52 25611.5 -9926.59 -21247 34490.8)
(20386.5 -8720.52 23305.6 -5325.05 -27114.3 30566.2)
(17070 -8278.12 20896.3 -1177.82 -30942.6 23174.7)
(12082.6 -7560.48 19007.9 2114.65 -32289.6 14176.7)
(5369.01 -8019.51 17651.5 4888.15 -30834.6 6318.44)
(-1541.41 -10070.7 15362.7 8619.14 -27111.8 3103.67)
(-3280.5 -10478.4 11084.3 16481.3 -23860.1 6584.13)
(1705.5 -7030.5 5961.73 28728.2 -22400.5 15010.6)
(8275.33 -622.135 554.066 38456 -21462.4 22734.5)
(-22047.8 -49.9884 -2096.07 -2057.14 20173.6 -2635.13)
(-18879 2854.72 937.157 -300.86 21436.4 1237.08)
(-11101.3 4193.1 2269.36 3448.03 23141.2 9819.42)
(-871.796 4227.16 2818.38 7513.18 25092.1 21604.6)
(9527.11 4567.95 4984.71 9347.64 25188.9 32208.3)
(18171.9 5665.11 8749.86 8824.94 22648.2 38342.6)
(24127.5 6757.83 12157.1 7492.9 18627.2 39976.6)
(28008.1 7383.75 14283.5 6470.69 14444 38827.6)
(30807.8 7578.68 15301.6 6047.99 10762.5 36405.9)
(33097.2 7508.91 15533.5 6199.96 7745.26 33508.7)
(34932.2 7314.37 15175.5 6887.16 5400.82 30436.3)
(35887.8 7055.85 14387.1 8038.32 3815.87 27252.6)
(34865.5 6666.48 13422.9 9348.3 3270.18 23875.9)
(29599 6064.2 12687.1 9946.44 4308.28 19884.4)
(17622.7 5654.27 12407.8 8480.84 7427.42 14487.1)
(1662.11 5819.17 11776.8 4806.48 11769.3 7802.69)
(-11626.3 5333.16 9563.98 735.155 15580 1477.51)
(-19688.1 3235.6 5979.36 -1784.66 18360.3 -2406.99)
(-22047.8 49.9884 2096.07 -2057.14 20173.6 -2635.13)
(-18879 -2854.72 -937.157 -300.86 21436.4 1237.08)
(-11101.3 -4193.1 -2269.36 3448.03 23141.2 9819.42)
(-871.796 -4227.16 -2818.38 7513.18 25092.1 21604.6)
(9527.11 -4567.95 -4984.71 9347.64 25188.9 32208.3)