/*--------------------------------*- C++ -*----------------------------------*\
| =========                 |                                                 |
| \\      /  F ield         | OpenFOAM: The Open Source CFD Toolbox           |
|  \\    /   O peration     | Version:  2312                                  |
|   \\  /    A nd           | Website:  www.openfoam.com                      |
|    \\/     M anipulation  |                                                 |
\*---------------------------------------------------------------------------*/
FoamFile
{
    version     2.0;
    format      ascii;
    arch        "LSB;label=32;scalar=64";
    class       volVectorField;
    location    "0.7";
    object      U;
}
// * * * * * * * * * * * * * * * * * * * * * * * * * * * * * * * * * * * * * //

dimensions      [0 1 -1 0 0 0 0];

internalField   nonuniform List<vector> 
1620
(
(0.00205897 0.00330049 -0.00123265)
(0.00207518 0.00373829 -0.000421174)
(0.00170796 0.00384209 0.000511595)
(0.00123252 0.00356886 0.00136342)
(0.000866655 0.00311191 0.00201716)
(0.000661778 0.00263438 0.00248579)
(0.000575247 0.00217685 0.00282772)
(0.000543213 0.00171759 0.0030842)
(0.00051688 0.00123659 0.00327498)
(0.00047312 0.000729333 0.00341287)
(0.000410506 0.000195112 0.00350853)
(0.000340355 -0.000369242 0.00356414)
(0.000280439 -0.000957839 0.00356391)
(0.000257335 -0.00153207 0.00347216)
(0.000320647 -0.00201336 0.00324939)
(0.000553621 -0.00233579 0.00288252)
(0.00102093 -0.00254667 0.00240304)
(0.00162693 -0.00283251 0.0018627)
(0.00205897 -0.00330049 0.00123265)
(0.00207518 -0.00373829 0.000421174)
(0.00170796 -0.00384209 -0.000511595)
(0.00123252 -0.00356886 -0.00136342)
(0.000866655 -0.00311191 -0.00201716)
(0.000661778 -0.00263438 -0.00248579)
(0.000575247 -0.00217685 -0.00282772)
(0.000543213 -0.00171759 -0.0030842)
(0.00051688 -0.00123659 -0.00327498)
(0.00047312 -0.000729333 -0.00341287)
(0.000410506 -0.000195112 -0.00350853)
(0.000340355 0.000369242 -0.00356414)
(0.000280439 0.000957839 -0.00356391)
(0.000257335 0.00153207 -0.00347216)
(0.000320647 0.00201336 -0.00324939)
(0.000553621 0.00233579 -0.00288252)
(0.00102093 0.00254667 -0.00240304)
(0.00162693 0.00283251 -0.0018627)
(0.00133331 0.00326936 -0.000562049)
(0.00133148 0.00334292 0.000166903)
(0.00117945 0.00333043 0.000882701)
(0.000945769 0.00319479 0.00154471)
(0.00071487 0.00295157 0.00211933)
(0.000542446 0.00262721 0.00259815)
(0.000446057 0.00223238 0.00298727)
(0.000415331 0.00177205 0.00329509)
(0.000427291 0.00125594 0.00352969)
(0.000460564 0.000694607 0.00369782)
(0.000502112 9.31024e-05 0.00379977)
(0.000545703 -0.000545952 0.00382312)
(0.000587037 -0.00120899 0.00374094)
(0.000623524 -0.0018547 0.00351965)
(0.00066623 -0.00241105 0.00313877)
(0.000755534 -0.00280672 0.00260988)
(0.000937239 -0.00303007 0.00197401)
(0.00117511 -0.00315845 0.00127831)
(0.00133331 -0.00326936 0.000562049)
(0.00133148 -0.00334292 -0.000166903)
(0.00117945 -0.00333043 -0.000882701)
(0.000945769 -0.00319479 -0.00154471)
(0.00071487 -0.00295157 -0.00211933)
(0.000542446 -0.00262721 -0.00259815)
(0.000446057 -0.00223238 -0.00298727)
(0.000415331 -0.00177205 -0.00329509)
(0.000427291 -0.00125594 -0.00352969)
(0.000460564 -0.000694607 -0.00369782)
(0.000502112 -9.31024e-05 -0.00379977)
(0.000545703 0.000545952 -0.00382312)
(0.000587037 0.00120899 -0.00374094)
(0.000623524 0.0018547 -0.00351965)
(0.00066623 0.00241105 -0.00313877)
(0.000755534 0.00280672 -0.00260988)
(0.000937239 0.00303007 -0.00197401)
(0.00117511 0.00315845 -0.00127831)
(0.000682174 0.00301799 0.000284817)
(0.00071965 0.00277761 0.000936965)
(0.000756723 0.00263528 0.00150835)
(0.0007359 0.00257891 0.00203333)
(0.000631865 0.00251058 0.0025279)
(0.000482211 0.00233849 0.00298117)
(0.000351392 0.00202691 0.00337082)
(0.000283682 0.00158947 0.00368083)
(0.000287157 0.00105722 0.00390616)
(0.000346748 0.000455905 0.00404328)
(0.000441523 -0.000197549 0.00407955)
(0.00055161 -0.000887014 0.00398992)
(0.000655747 -0.00158579 0.00374317)
(0.000728645 -0.00224807 0.00331791)
(0.000749983 -0.00280789 0.00272312)
(0.000725431 -0.00318868 0.00200663)
(0.00068997 -0.00333276 0.00123232)
(0.000672512 -0.00324637 0.000451314)
(0.000682174 -0.00301799 -0.000284817)
(0.00071965 -0.00277761 -0.000936965)
(0.000756723 -0.00263528 -0.00150835)
(0.0007359 -0.00257891 -0.00203333)
(0.000631865 -0.00251058 -0.0025279)
(0.000482211 -0.00233849 -0.00298117)
(0.000351392 -0.00202691 -0.00337082)
(0.000283682 -0.00158947 -0.00368083)
(0.000287157 -0.00105722 -0.00390616)
(0.000346748 -0.000455905 -0.00404328)
(0.000441523 0.000197549 -0.00407955)
(0.00055161 0.000887014 -0.00398992)
(0.000655747 0.00158579 -0.00374317)
(0.000728645 0.00224807 -0.00331791)
(0.000749983 0.00280789 -0.00272312)
(0.000725431 0.00318868 -0.00200663)
(0.00068997 0.00333276 -0.00123232)
(0.000672512 0.00324637 -0.000451314)
(0.005977 0.0101478 -0.00185407)
(0.00559144 0.0105534 0.000390881)
(0.00417861 0.0103292 0.00257351)
(0.00262211 0.0095237 0.00448827)
(0.00150639 0.00845737 0.00603623)
(0.000932202 0.0073155 0.00725774)
(0.000738996 0.00610407 0.00822247)
(0.000720405 0.00479281 0.00897222)
(0.000734357 0.00338279 0.00953885)
(0.000725473 0.00188537 0.00995675)
(0.000702613 0.000292665 0.0102472)
(0.000706151 -0.00141981 0.0103933)
(0.000785345 -0.00325592 0.0103239)
(0.000997706 -0.00513933 0.00992336)
(0.00143609 -0.00686796 0.00908301)
(0.00225487 -0.00817466 0.00777094)
(0.00356878 -0.00896508 0.00603604)
(0.0051032 -0.00951053 0.0039878)
(0.005977 -0.0101478 0.00185407)
(0.00559144 -0.0105534 -0.000390881)
(0.00417861 -0.0103292 -0.00257351)
(0.00262211 -0.0095237 -0.00448827)
(0.00150639 -0.00845737 -0.00603623)
(0.000932202 -0.0073155 -0.00725774)
(0.000738996 -0.00610407 -0.00822247)
(0.000720405 -0.00479281 -0.00897222)
(0.000734357 -0.00338279 -0.00953885)
(0.000725473 -0.00188537 -0.00995675)
(0.000702613 -0.000292665 -0.0102472)
(0.000706151 0.00141981 -0.0103933)
(0.000785345 0.00325592 -0.0103239)
(0.000997706 0.00513933 -0.00992336)
(0.00143609 0.00686796 -0.00908301)
(0.00225487 0.00817466 -0.00777094)
(0.00356878 0.00896508 -0.00603604)
(0.0051032 0.00951053 -0.0039878)
(0.0048596 0.00969173 -0.00127008)
(0.00480028 0.0096038 0.000875579)
(0.00413007 0.00932026 0.00290927)
(0.00318311 0.00881958 0.0047424)
(0.00231708 0.00812434 0.00633624)
(0.00171658 0.00722425 0.00767718)
(0.00140424 0.00609891 0.00876813)
(0.00130865 0.00476339 0.00962344)
(0.00133918 0.00326163 0.0102629)
(0.00143228 0.0016343 0.010701)
(0.00156108 -9.68673e-05 0.0109339)
(0.00172395 -0.0019189 0.0109278)
(0.00192938 -0.00379922 0.0106197)
(0.00218743 -0.00565021 0.00993395)
(0.00251484 -0.00730615 0.00882048)
(0.00295696 -0.0085571 0.00730066)
(0.00358825 -0.00928449 0.00546977)
(0.00435213 -0.00958663 0.00342185)
(0.0048596 -0.00969173 0.00127008)
(0.00480028 -0.0096038 -0.000875579)
(0.00413007 -0.00932026 -0.00290927)
(0.00318311 -0.00881958 -0.0047424)
(0.00231708 -0.00812434 -0.00633624)
(0.00171658 -0.00722425 -0.00767718)
(0.00140424 -0.00609891 -0.00876813)
(0.00130865 -0.00476339 -0.00962344)
(0.00133918 -0.00326163 -0.0102629)
(0.00143228 -0.0016343 -0.010701)
(0.00156108 9.68674e-05 -0.0109339)
(0.00172395 0.0019189 -0.0109278)
(0.00192938 0.00379922 -0.0106197)
(0.00218743 0.00565021 -0.00993395)
(0.00251484 0.00730615 -0.00882048)
(0.00295696 0.0085571 -0.00730066)
(0.00358825 0.00928449 -0.00546977)
(0.00435213 0.00958663 -0.00342185)
(0.00374211 0.0089601 -0.000243325)
(0.00406751 0.00846003 0.00170607)
(0.00413133 0.0080994 0.00355452)
(0.0037955 0.00783537 0.00529538)
(0.00318365 0.00746796 0.00690821)
(0.0025466 0.00679882 0.00832553)
(0.00208632 0.0057672 0.00948596)
(0.00186972 0.00442742 0.0103786)
(0.00186261 0.00285954 0.0110156)
(0.00199842 0.00112846 0.0113929)
(0.00221877 -0.000712028 0.0114805)
(0.0024835 -0.00260489 0.0112304)
(0.00276345 -0.00447757 0.0105928)
(0.00302409 -0.00623347 0.00953556)
(0.00321246 -0.00774458 0.00806814)
(0.00328405 -0.00884877 0.00626971)
(0.00329682 -0.00939545 0.00429369)
(0.00342568 -0.00936202 0.00227519)
(0.00374211 -0.0089601 0.000243325)
(0.00406751 -0.00846003 -0.00170607)
(0.00413133 -0.0080994 -0.00355452)
(0.0037955 -0.00783537 -0.00529538)
(0.00318365 -0.00746796 -0.00690821)
(0.0025466 -0.00679882 -0.00832553)
(0.00208632 -0.0057672 -0.00948596)
(0.00186972 -0.00442742 -0.0103786)
(0.00186261 -0.00285954 -0.0110156)
(0.00199842 -0.00112846 -0.0113929)
(0.00221877 0.000712028 -0.0114805)
(0.0024835 0.00260489 -0.0112304)
(0.00276345 0.00447757 -0.0105928)
(0.00302409 0.00623347 -0.00953556)
(0.00321246 0.00774458 -0.00806814)
(0.00328405 0.00884877 -0.00626971)
(0.00329682 0.00939545 -0.00429369)
(0.00342568 0.00936202 -0.00227519)
(0.0107321 0.0168936 -0.00211777)
(0.00921226 0.0167476 0.0013407)
(0.0064037 0.0159136 0.00454462)
(0.00374988 0.014548 0.00728087)
(0.00201855 0.012942 0.0095327)
(0.00122505 0.0111872 0.0114016)
(0.00101992 0.0092443 0.0129595)
(0.00106462 0.00709551 0.0142238)
(0.00117732 0.00476977 0.0152067)
(0.00131482 0.00229234 0.0159285)
(0.00150781 -0.000339782 0.016388)
(0.00180695 -0.00313873 0.016534)
(0.00225999 -0.00608268 0.0162603)
(0.00292973 -0.0090675 0.0154364)
(0.00394921 -0.0118672 0.0139694)
(0.00552402 -0.0141522 0.0118513)
(0.00768318 -0.0156682 0.00910838)
(0.00985391 -0.01647 0.00572787)
(0.0107321 -0.0168936 0.00211777)
(0.00921226 -0.0167476 -0.0013407)
(0.0064037 -0.0159136 -0.00454462)
(0.00374988 -0.014548 -0.00728087)
(0.00201855 -0.012942 -0.0095327)
(0.00122505 -0.0111872 -0.0114016)
(0.00101992 -0.0092443 -0.0129595)
(0.00106462 -0.00709551 -0.0142238)
(0.00117732 -0.00476977 -0.0152067)
(0.00131482 -0.00229234 -0.0159285)
(0.00150781 0.000339782 -0.016388)
(0.00180695 0.00313873 -0.016534)
(0.00225999 0.00608268 -0.0162603)
(0.00292973 0.0090675 -0.0154364)
(0.00394921 0.0118672 -0.0139694)
(0.00552402 0.0141522 -0.0118513)
(0.00768318 0.0156682 -0.00910838)
(0.00985391 0.01647 -0.00572787)
(0.00928264 0.0155217 -0.00158091)
(0.00887976 0.0151594 0.00181471)
(0.00749005 0.0145259 0.00495713)
(0.00574157 0.0136328 0.00775495)
(0.00421305 0.0124454 0.0101479)
(0.00319117 0.0109169 0.0121259)
(0.00267145 0.00903858 0.0137267)
(0.00250492 0.00685995 0.0149915)
(0.00254676 0.00445204 0.0159382)
(0.00271465 0.00187281 0.016562)
(0.00298046 -0.000838623 0.0168365)
(0.00334522 -0.00364653 0.0167099)
(0.00382192 -0.00649245 0.0161092)
(0.00443308 -0.00926638 0.014962)
(0.00521945 -0.0117798 0.0132303)
(0.00623395 -0.0137688 0.0109401)
(0.00746622 -0.0150195 0.00817937)
(0.00866239 -0.015531 0.00502809)
(0.00928264 -0.0155217 0.00158091)
(0.00887976 -0.0151594 -0.00181471)
(0.00749005 -0.0145259 -0.00495713)
(0.00574157 -0.0136328 -0.00775495)
(0.00421305 -0.0124454 -0.0101479)
(0.00319117 -0.0109169 -0.0121259)
(0.00267145 -0.00903858 -0.0137267)
(0.00250492 -0.00685995 -0.0149915)
(0.00254676 -0.00445204 -0.0159382)
(0.00271465 -0.00187281 -0.016562)
(0.00298046 0.000838623 -0.0168365)
(0.00334522 0.00364653 -0.0167099)
(0.00382192 0.00649245 -0.0161092)
(0.00443308 0.00926638 -0.014962)
(0.00521945 0.0117798 -0.0132303)
(0.00623395 0.0137688 -0.0109401)
(0.00746622 0.0150195 -0.00817937)
(0.00866239 0.015531 -0.00502809)
(0.0078429 0.0139206 -0.000660355)
(0.00856254 0.0133764 0.00250787)
(0.0085519 0.0128514 0.00559085)
(0.00771525 0.0123196 0.00843414)
(0.00640904 0.011513 0.0109223)
(0.00516055 0.0102097 0.0129544)
(0.00430669 0.00840953 0.0145298)
(0.00388955 0.00622913 0.0157173)
(0.00380742 0.00377406 0.0165487)
(0.0039478 0.00113096 0.0169967)
(0.00422997 -0.00161415 0.0170112)
(0.00460774 -0.00437274 0.016544)
(0.00505763 -0.00705197 0.0155575)
(0.00555591 -0.00954501 0.0140316)
(0.00604914 -0.0117068 0.0119763)
(0.00645767 -0.0133314 0.0094582)
(0.00677526 -0.0142245 0.00663105)
(0.00715159 -0.0143491 0.00369688)
(0.0078429 -0.0139206 0.000660355)
(0.00856254 -0.0133764 -0.00250787)
(0.0085519 -0.0128514 -0.00559085)
(0.00771525 -0.0123196 -0.00843414)
(0.00640904 -0.011513 -0.0109223)
(0.00516055 -0.0102097 -0.0129544)
(0.00430669 -0.00840953 -0.0145298)
(0.00388955 -0.00622913 -0.0157173)
(0.00380742 -0.00377406 -0.0165487)
(0.0039478 -0.00113096 -0.0169967)
(0.00422997 0.00161415 -0.0170112)
(0.00460774 0.00437274 -0.016544)
(0.00505763 0.00705197 -0.0155575)
(0.00555591 0.00954501 -0.0140316)
(0.00604914 0.0117068 -0.0119763)
(0.00645767 0.0133314 -0.0094582)
(0.00677526 0.0142245 -0.00663105)
(0.00715159 0.0143491 -0.00369688)
(0.014785 0.0213485 -0.00223225)
(0.01188 0.020592 0.00225784)
(0.00804139 0.0194847 0.00629957)
(0.00490321 0.0179266 0.0097105)
(0.00315535 0.0159585 0.0125096)
(0.00252673 0.0136514 0.0148472)
(0.00243438 0.0110222 0.0168409)
(0.0025179 0.00809703 0.0185018)
(0.00268138 0.00493094 0.0197971)
(0.00295411 0.00157294 0.0206937)
(0.00339179 -0.0019442 0.0211485)
(0.00404012 -0.00558237 0.0210939)
(0.00494111 -0.00926701 0.0204439)
(0.0061767 -0.0128629 0.0191311)
(0.00792856 -0.0161646 0.0171477)
(0.0103787 -0.0189153 0.0144979)
(0.0131877 -0.0208344 0.0110882)
(0.0151311 -0.0216241 0.00689177)
(0.014785 -0.0213485 0.00223225)
(0.01188 -0.020592 -0.00225784)
(0.00804139 -0.0194847 -0.00629957)
(0.00490321 -0.0179266 -0.0097105)
(0.00315535 -0.0159585 -0.0125096)
(0.00252673 -0.0136514 -0.0148472)
(0.00243438 -0.0110222 -0.0168409)
(0.0025179 -0.00809703 -0.0185018)
(0.00268138 -0.00493094 -0.0197971)
(0.00295411 -0.00157294 -0.0206937)
(0.00339179 0.0019442 -0.0211485)
(0.00404012 0.00558237 -0.0210939)
(0.00494111 0.00926701 -0.0204439)
(0.0061767 0.0128629 -0.0191311)
(0.00792856 0.0161646 -0.0171477)
(0.0103787 0.0189153 -0.0144979)
(0.0131877 0.0208344 -0.0110882)
(0.0151311 0.0216241 -0.00689177)
(0.0134738 0.0196817 -0.00179546)
(0.0124211 0.0191464 0.00251758)
(0.0104246 0.0183335 0.00658918)
(0.0081835 0.0171153 0.0101819)
(0.00632212 0.0154104 0.01314)
(0.00511454 0.0132436 0.0154976)
(0.00448722 0.0106804 0.0173936)
(0.00425406 0.00779453 0.0189087)
(0.00428342 0.00465783 0.0200352)
(0.00451764 0.00133958 0.0207268)
(0.00494066 -0.00209269 0.020932)
(0.0055536 -0.00556787 0.0205992)
(0.00636796 -0.00899926 0.0196783)
(0.00741148 -0.0122689 0.0181346)
(0.00873206 -0.0152087 0.0159715)
(0.0103359 -0.0175936 0.0132198)
(0.0120079 -0.0191886 0.00989386)
(0.0132337 -0.0198418 0.00603994)
(0.0134738 -0.0196817 0.00179546)
(0.0124211 -0.0191464 -0.00251758)
(0.0104246 -0.0183335 -0.00658918)
(0.0081835 -0.0171153 -0.0101819)
(0.00632212 -0.0154104 -0.01314)
(0.00511454 -0.0132436 -0.0154976)
(0.00448722 -0.0106804 -0.0173936)
(0.00425406 -0.00779453 -0.0189087)
(0.00428342 -0.00465783 -0.0200352)
(0.00451764 -0.00133958 -0.0207268)
(0.00494066 0.00209269 -0.020932)
(0.0055536 0.00556787 -0.0205992)
(0.00636796 0.00899926 -0.0196783)
(0.00741148 0.0122689 -0.0181346)
(0.00873206 0.0152087 -0.0159715)
(0.0103359 0.0175936 -0.0132198)
(0.0120079 0.0191886 -0.00989386)
(0.0132337 0.0198418 -0.00603994)
(0.0121719 0.0182277 -0.00126161)
(0.0129226 0.0177369 0.00292272)
(0.0127314 0.016943 0.00706492)
(0.0114184 0.0158994 0.0107817)
(0.00948737 0.0144299 0.013818)
(0.00771311 0.0124185 0.0161261)
(0.00653221 0.00994022 0.0178548)
(0.00594098 0.00711674 0.0191565)
(0.00578315 0.00403586 0.0200528)
(0.00592496 0.000789667 0.0204856)
(0.0062837 -0.00251561 0.0203977)
(0.00681598 -0.00577726 0.0197575)
(0.00749864 -0.00890312 0.0185514)
(0.00829821 -0.0118008 0.0167793)
(0.00912715 -0.0143472 0.0144674)
(0.00985493 -0.016361 0.0116907)
(0.0104813 -0.0176776 0.00855406)
(0.0112119 -0.0182759 0.00509391)
(0.0121719 -0.0182277 0.00126161)
(0.0129226 -0.0177369 -0.00292272)
(0.0127314 -0.016943 -0.00706492)
(0.0114184 -0.0158994 -0.0107817)
(0.00948737 -0.0144299 -0.013818)
(0.00771311 -0.0124185 -0.0161261)
(0.00653221 -0.00994022 -0.0178548)
(0.00594098 -0.00711674 -0.0191565)
(0.00578315 -0.00403586 -0.0200528)
(0.00592496 -0.000789667 -0.0204856)
(0.0062837 0.00251561 -0.0203977)
(0.00681598 0.00577726 -0.0197575)
(0.00749864 0.00890312 -0.0185514)
(0.00829821 0.0118008 -0.0167793)
(0.00912715 0.0143472 -0.0144674)
(0.00985493 0.016361 -0.0116907)
(0.0104813 0.0176776 -0.00855406)
(0.0112119 0.0182759 -0.00509391)
(0.0175321 0.0227751 -0.00217785)
(0.0136445 0.0220636 0.0029857)
(0.00938218 0.0210777 0.00769271)
(0.00635001 0.0195305 0.0116528)
(0.00503589 0.017338 0.0148128)
(0.00479685 0.0146371 0.0173845)
(0.00485531 0.0115151 0.0195756)
(0.00492859 0.00802557 0.0214182)
(0.00507505 0.00424417 0.0228349)
(0.0054198 0.000259393 0.0237321)
(0.00604699 -0.00383516 0.0240321)
(0.00700168 -0.00793003 0.0236767)
(0.00833242 -0.011883 0.0226397)
(0.0101477 -0.0155104 0.0209546)
(0.0126232 -0.0186062 0.0187001)
(0.0157044 -0.020997 0.0158329)
(0.0184643 -0.0225413 0.0120917)
(0.0193513 -0.0230896 0.00740132)
(0.0175321 -0.0227751 0.00217785)
(0.0136445 -0.0220636 -0.0029857)
(0.00938218 -0.0210777 -0.00769271)
(0.00635001 -0.0195305 -0.0116528)
(0.00503589 -0.017338 -0.0148128)
(0.00479685 -0.0146371 -0.0173845)
(0.00485531 -0.0115151 -0.0195756)
(0.00492859 -0.00802557 -0.0214182)
(0.00507505 -0.00424417 -0.0228349)
(0.0054198 -0.000259393 -0.0237321)
(0.00604699 0.00383516 -0.0240321)
(0.00700168 0.00793003 -0.0236767)
(0.00833242 0.011883 -0.0226397)
(0.0101477 0.0155104 -0.0209546)
(0.0126232 0.0186062 -0.0187001)
(0.0157044 0.020997 -0.0158329)
(0.0184643 0.0225413 -0.0120917)
(0.0193513 0.0230896 -0.00740132)
(0.0167055 0.0216011 -0.00200676)
(0.0150594 0.0212828 0.00289051)
(0.0127476 0.0204908 0.0076328)
(0.0104131 0.0190456 0.0117722)
(0.00859667 0.0169229 0.0150634)
(0.00745172 0.0142745 0.0176097)
(0.0068235 0.0112322 0.019645)
(0.00654684 0.00786811 0.0212771)
(0.00655676 0.00424751 0.0224692)
(0.00684501 0.000457432 0.0231389)
(0.00741554 -0.00339619 0.0232195)
(0.00827264 -0.00719797 0.0226731)
(0.00942872 -0.0108241 0.0214886)
(0.0109142 -0.0141375 0.0196871)
(0.0127492 -0.0169884 0.0173191)
(0.0147814 -0.0192255 0.0143943)
(0.0164946 -0.020728 0.0108417)
(0.0172359 -0.0214707 0.00666518)
(0.0167055 -0.0216011 0.00200676)
(0.0150594 -0.0212828 -0.00289051)
(0.0127476 -0.0204908 -0.0076328)
(0.0104131 -0.0190456 -0.0117722)
(0.00859667 -0.0169229 -0.0150634)
(0.00745172 -0.0142745 -0.0176097)
(0.0068235 -0.0112322 -0.019645)
(0.00654684 -0.00786811 -0.0212771)
(0.00655676 -0.00424751 -0.0224692)
(0.00684501 -0.000457432 -0.0231389)
(0.00741554 0.00339619 -0.0232195)
(0.00827264 0.00719797 -0.0226731)
(0.00942872 0.0108241 -0.0214886)
(0.0109142 0.0141375 -0.0196871)
(0.0127492 0.0169884 -0.0173191)
(0.0147814 0.0192255 -0.0143943)
(0.0164946 0.020728 -0.0108417)
(0.0172359 0.0214707 -0.00666518)
(0.0159446 0.0208336 -0.00190194)
(0.0164404 0.0206228 0.00299551)
(0.0160148 0.0196955 0.00785751)
(0.0144254 0.0181664 0.0120793)
(0.0121754 0.0160812 0.0153687)
(0.010133 0.0135068 0.0177805)
(0.00878993 0.0105678 0.0195684)
(0.00811808 0.00734999 0.0209185)
(0.00793786 0.00391079 0.0218348)
(0.00811706 0.000341037 0.0222426)
(0.00858391 -0.0032403 0.022086)
(0.00930154 -0.00671685 0.0213482)
(0.0102431 -0.00998723 0.0200377)
(0.0113581 -0.0129626 0.0181845)
(0.0125176 -0.0155574 0.0158461)
(0.0135335 -0.0176783 0.0130867)
(0.014363 -0.0192669 0.00992358)
(0.0151463 -0.0203331 0.00624962)
(0.0159446 -0.0208336 0.00190194)
(0.0164404 -0.0206228 -0.00299551)
(0.0160148 -0.0196955 -0.00785751)
(0.0144254 -0.0181664 -0.0120793)
(0.0121754 -0.0160812 -0.0153687)
(0.010133 -0.0135068 -0.0177805)
(0.00878993 -0.0105678 -0.0195684)
(0.00811808 -0.00734999 -0.0209185)
(0.00793786 -0.00391079 -0.0218348)
(0.00811706 -0.000341037 -0.0222426)
(0.00858391 0.0032403 -0.022086)
(0.00930154 0.00671685 -0.0213482)
(0.0102431 0.00998723 -0.0200377)
(0.0113581 0.0129626 -0.0181845)
(0.0125176 0.0155574 -0.0158461)
(0.0135335 0.0176783 -0.0130867)
(0.014363 0.0192669 -0.00992358)
(0.0151463 0.0203331 -0.00624962)
(0.0198854 0.0218224 -0.00217407)
(0.0155094 0.0214396 0.00324128)
(0.0111139 0.0207208 0.00834955)
(0.00826247 0.0193038 0.0127108)
(0.00728973 0.0170923 0.0161164)
(0.00735117 0.0142686 0.0187655)
(0.00755001 0.0109599 0.0209534)
(0.00764491 0.00722998 0.0227737)
(0.00779932 0.00317063 0.0241431)
(0.00821299 -0.00108603 0.0249331)
(0.00899896 -0.0053799 0.0250455)
(0.0102067 -0.00952588 0.0244422)
(0.0118855 -0.0133137 0.0231613)
(0.0141341 -0.0165248 0.0213163)
(0.0170233 -0.0189907 0.0189951)
(0.0201811 -0.0206683 0.0160594)
(0.0224359 -0.0216291 0.0122242)
(0.0224801 -0.0219576 0.00747797)
(0.0198854 -0.0218224 0.00217407)
(0.0155094 -0.0214396 -0.00324128)
(0.0111139 -0.0207208 -0.00834955)
(0.00826247 -0.0193038 -0.0127108)
(0.00728973 -0.0170923 -0.0161164)
(0.00735117 -0.0142686 -0.0187655)
(0.00755001 -0.0109599 -0.0209534)
(0.00764491 -0.00722998 -0.0227737)
(0.00779932 -0.00317063 -0.0241431)
(0.00821299 0.00108603 -0.0249331)
(0.00899896 0.0053799 -0.0250455)
(0.0102067 0.00952588 -0.0244422)
(0.0118855 0.0133137 -0.0231613)
(0.0141341 0.0165248 -0.0213163)
(0.0170233 0.0189907 -0.0189951)
(0.0201811 0.0206683 -0.0160594)
(0.0224359 0.0216291 -0.0122242)
(0.0224801 0.0219576 -0.00747797)
(0.0194774 0.0214024 -0.00223462)
(0.0174041 0.0214186 0.00292274)
(0.0149036 0.0207933 0.00798617)
(0.0126156 0.0193105 0.0124042)
(0.0109494 0.0170251 0.0158796)
(0.00993247 0.014175 0.0185184)
(0.009357 0.0109295 0.0205888)
(0.00908605 0.00736087 0.022225)
(0.00911138 0.0035372 0.0233891)
(0.00946586 -0.000432643 0.0239861)
(0.0101722 -0.00440471 0.0239452)
(0.0112391 -0.00821818 0.023245)
(0.0126759 -0.011708 0.0219149)
(0.0144929 -0.0147199 0.0200292)
(0.0166233 -0.0171444 0.0176603)
(0.018734 -0.0189544 0.0147737)
(0.0202119 -0.0202024 0.0112463)
(0.0205125 -0.0209843 0.00703524)
(0.0194774 -0.0214024 0.00223462)
(0.0174041 -0.0214186 -0.00292274)
(0.0149036 -0.0207933 -0.00798617)
(0.0126156 -0.0193105 -0.0124042)
(0.0109494 -0.0170251 -0.0158796)
(0.00993247 -0.014175 -0.0185184)
(0.00935699 -0.0109295 -0.0205888)
(0.00908605 -0.00736087 -0.022225)
(0.00911138 -0.0035372 -0.0233891)
(0.00946586 0.000432643 -0.0239861)
(0.0101722 0.00440471 -0.0239452)
(0.0112391 0.00821818 -0.023245)
(0.0126759 0.011708 -0.0219149)
(0.0144929 0.0147199 -0.0200292)
(0.0166233 0.0171444 -0.0176603)
(0.018734 0.0189544 -0.0147737)
(0.0202119 0.0202024 -0.0112463)
(0.0205125 0.0209843 -0.00703524)
(0.0191129 0.0215077 -0.00242727)
(0.0192962 0.0215802 0.00285636)
(0.0186332 0.0206738 0.00801316)
(0.0169432 0.0189117 0.0123917)
(0.0146492 0.0165008 0.0157658)
(0.0125546 0.0136444 0.0182397)
(0.0111717 0.0105003 0.0200695)
(0.0104905 0.0071275 0.0214381)
(0.0103336 0.00356602 0.0223504)
(0.0105759 -9.32396e-05 0.0227355)
(0.011156 -0.00372129 0.0225442)
(0.012043 -0.00718445 0.021771)
(0.0132039 -0.0103627 0.0204463)
(0.0145582 -0.0131655 0.018637)
(0.015916 -0.015558 0.0164283)
(0.0170393 -0.0175673 0.0138541)
(0.0178719 -0.0192504 0.0108232)
(0.0185472 -0.0206205 0.00708227)
(0.0191129 -0.0215077 0.00242727)
(0.0192962 -0.0215802 -0.00285636)
(0.0186332 -0.0206738 -0.00801316)
(0.0169432 -0.0189117 -0.0123917)
(0.0146492 -0.0165008 -0.0157658)
(0.0125546 -0.0136444 -0.0182397)
(0.0111717 -0.0105003 -0.0200695)
(0.0104905 -0.0071275 -0.0214381)
(0.0103336 -0.00356602 -0.0223504)
(0.0105759 9.32397e-05 -0.0227355)
(0.011156 0.00372129 -0.0225442)
(0.012043 0.00718445 -0.021771)
(0.0132039 0.0103627 -0.0204463)
(0.0145582 0.0131655 -0.018637)
(0.015916 0.015558 -0.0164283)
(0.0170393 0.0175673 -0.0138541)
(0.0178719 0.0192504 -0.0108232)
(0.0185472 0.0206206 -0.00708227)
(0.0221537 0.0194253 -0.0023428)
(0.01794 0.0192754 0.00291463)
(0.0136894 0.0187715 0.00806364)
(0.0108316 0.0175559 0.0126268)
(0.00978236 0.015522 0.0162315)
(0.00984251 0.0128288 0.0189268)
(0.010113 0.00961944 0.0210218)
(0.0102886 0.00596698 0.0226988)
(0.0105217 0.00197141 0.0239223)
(0.0110337 -0.00220419 0.0245676)
(0.0119533 -0.00634779 0.0245341)
(0.0133293 -0.0102168 0.0238022)
(0.0151934 -0.013561 0.0224524)
(0.0175947 -0.0161657 0.0206229)
(0.0204753 -0.0179202 0.0183625)
(0.0233231 -0.0188949 0.0155029)
(0.0250923 -0.0193258 0.0118281)
(0.0247923 -0.0194508 0.00735822)
(0.0221537 -0.0194253 0.0023428)
(0.01794 -0.0192754 -0.00291463)
(0.0136894 -0.0187715 -0.00806364)
(0.0108316 -0.0175559 -0.0126268)
(0.00978236 -0.015522 -0.0162315)
(0.00984251 -0.0128288 -0.0189268)
(0.010113 -0.00961944 -0.0210218)
(0.0102886 -0.00596698 -0.0226988)
(0.0105217 -0.00197141 -0.0239223)
(0.0110337 0.00220419 -0.0245676)
(0.0119533 0.00634779 -0.0245341)
(0.0133293 0.0102168 -0.0238022)
(0.0151934 0.013561 -0.0224524)
(0.0175947 0.0161657 -0.0206229)
(0.0204753 0.0179202 -0.0183625)
(0.0233231 0.0188949 -0.0155029)
(0.0250923 0.0193258 -0.0118281)
(0.0247923 0.0194508 -0.00735822)
(0.0218326 0.019718 -0.00250437)
(0.019729 0.019932 0.00256311)
(0.0172713 0.0194738 0.00760747)
(0.0150495 0.0181206 0.0120883)
(0.0134331 0.0159317 0.0156657)
(0.0124484 0.0131474 0.018361)
(0.0119039 0.009955 0.0204069)
(0.0116682 0.00644124 0.0219676)
(0.0117424 0.00268406 0.0230395)
(0.0121718 -0.00118987 0.0235416)
(0.0129861 -0.00500804 0.0234102)
(0.0141913 -0.00857534 0.0226405)
(0.0157803 -0.011701 0.0212934)
(0.0177176 -0.0142363 0.0194711)
(0.0198466 -0.0161303 0.0172356)
(0.0217732 -0.0174684 0.01452)
(0.0229633 -0.0184259 0.0111839)
(0.0230107 -0.0191603 0.00715847)
(0.0218326 -0.019718 0.00250437)
(0.019729 -0.019932 -0.00256311)
(0.0172713 -0.0194738 -0.00760747)
(0.0150495 -0.0181206 -0.0120883)
(0.0134331 -0.0159317 -0.0156657)
(0.0124484 -0.0131474 -0.018361)
(0.0119039 -0.009955 -0.0204069)
(0.0116682 -0.00644124 -0.0219676)
(0.0117424 -0.00268406 -0.0230395)
(0.0121718 0.00118987 -0.0235416)
(0.0129861 0.00500804 -0.0234102)
(0.0141913 0.00857534 -0.0226405)
(0.0157803 0.011701 -0.0212934)
(0.0177176 0.0142363 -0.0194711)
(0.0198466 0.0161303 -0.0172356)
(0.0217732 0.0174684 -0.01452)
(0.0229633 0.0184259 -0.0111839)
(0.0230107 0.0191603 -0.00715847)
(0.0215349 0.0206356 -0.00285685)
(0.021555 0.0208698 0.00245579)
(0.020852 0.0200547 0.00757705)
(0.0192744 0.0183101 0.0119057)
(0.0171376 0.0158795 0.015278)
(0.0151103 0.0130105 0.0177926)
(0.013716 0.0098839 0.0196477)
(0.0130235 0.00656044 0.0210023)
(0.0128861 0.00307951 0.0218808)
(0.0131804 -0.000466533 0.0222344)
(0.0138439 -0.0039418 0.0220273)
(0.0148417 -0.00719851 0.0212665)
(0.016124 -0.0101042 0.0200037)
(0.0175674 -0.0125797 0.0183314)
(0.0189328 -0.014647 0.0163378)
(0.0199801 -0.0164311 0.0140187)
(0.020676 -0.0180671 0.0111995)
(0.0211698 -0.0195585 0.0075421)
(0.0215349 -0.0206356 0.00285685)
(0.021555 -0.0208698 -0.00245579)
(0.020852 -0.0200547 -0.00757705)
(0.0192744 -0.0183101 -0.0119057)
(0.0171376 -0.0158795 -0.015278)
(0.0151103 -0.0130105 -0.0177926)
(0.013716 -0.0098839 -0.0196477)
(0.0130235 -0.00656044 -0.0210023)
(0.0128861 -0.00307951 -0.0218808)
(0.0131804 0.000466533 -0.0222344)
(0.0138439 0.0039418 -0.0220273)
(0.0148417 0.00719851 -0.0212665)
(0.016124 0.0101042 -0.0200037)
(0.0175674 0.0125797 -0.0183314)
(0.0189328 0.014647 -0.0163378)
(0.0199801 0.0164311 -0.0140187)
(0.020676 0.0180671 -0.0111995)
(0.0211698 0.0195585 -0.0075421)
(0.0242791 0.0163713 -0.00258642)
(0.0207473 0.0162315 0.00218557)
(0.0169368 0.0158109 0.0070068)
(0.0140309 0.0147902 0.0114798)
(0.0126003 0.0130352 0.0151704)
(0.0123379 0.010638 0.017927)
(0.0125319 0.00773201 0.0199447)
(0.012784 0.00440111 0.0214544)
(0.0131276 0.00074594 0.0225032)
(0.0137378 -0.00306193 0.0230099)
(0.0147345 -0.00678834 0.0228917)
(0.0161552 -0.0101692 0.0221432)
(0.0180017 -0.0129539 0.020854)
(0.0202637 -0.0149571 0.0191448)
(0.0228151 -0.0161191 0.0170335)
(0.0251994 -0.0165689 0.0143833)
(0.0266391 -0.0165952 0.0110524)
(0.0264107 -0.0164798 0.00706435)
(0.0242791 -0.0163713 0.00258642)
(0.0207473 -0.0162315 -0.00218557)
(0.0169368 -0.0158109 -0.0070068)
(0.0140309 -0.0147902 -0.0114798)
(0.0126003 -0.0130352 -0.0151704)
(0.0123379 -0.010638 -0.017927)
(0.0125319 -0.00773201 -0.0199447)
(0.012784 -0.00440111 -0.0214544)
(0.0131276 -0.00074594 -0.0225032)
(0.0137378 0.00306193 -0.0230099)
(0.0147345 0.00678834 -0.0228917)
(0.0161552 0.0101692 -0.0221432)
(0.0180017 0.0129539 -0.020854)
(0.0202637 0.0149571 -0.0191448)
(0.0228151 0.0161191 -0.0170335)
(0.0251994 0.0165689 -0.0143833)
(0.0266391 0.0165952 -0.0110524)
(0.0264107 0.0164798 -0.00706435)
(0.0237853 0.0171285 -0.00273185)
(0.021979 0.0173584 0.00193521)
(0.0197994 0.0170134 0.00665739)
(0.0177187 0.0158729 0.0109781)
(0.0160932 0.0139471 0.0145432)
(0.0150378 0.0114193 0.0172598)
(0.0144575 0.00847528 0.0192625)
(0.014237 0.00522415 0.0207159)
(0.0143522 0.001756 0.021668)
(0.0148305 -0.00179545 0.0220759)
(0.0156911 -0.00524689 0.0218952)
(0.0169259 -0.00839204 0.0211355)
(0.0184996 -0.0110412 0.0198708)
(0.0203313 -0.0130714 0.0182018)
(0.0222288 -0.0144811 0.0161708)
(0.0238508 -0.0154115 0.0137035)
(0.0248032 -0.0160752 0.0106672)
(0.0247994 -0.0166391 0.00699285)
(0.0237853 -0.0171285 0.00273185)
(0.021979 -0.0173584 -0.00193521)
(0.0197994 -0.0170134 -0.00665739)
(0.0177187 -0.0158729 -0.0109781)
(0.0160932 -0.0139471 -0.0145432)
(0.0150378 -0.0114193 -0.0172598)
(0.0144575 -0.00847528 -0.0192625)
(0.014237 -0.00522415 -0.0207159)
(0.0143522 -0.001756 -0.021668)
(0.0148305 0.00179545 -0.0220759)
(0.0156911 0.00524689 -0.0218952)
(0.0169259 0.00839204 -0.0211355)
(0.0184996 0.0110412 -0.0198708)
(0.0203313 0.0130714 -0.0182018)
(0.0222288 0.0144811 -0.0161708)
(0.0238508 0.0154115 -0.0137035)
(0.0248032 0.0160752 -0.0106672)
(0.0247994 0.0166391 -0.00699285)
(0.0232829 0.0186006 -0.00315958)
(0.0232702 0.0188931 0.00185533)
(0.0227081 0.0182245 0.00669858)
(0.0214343 0.0166787 0.0108349)
(0.0196324 0.0144558 0.0141169)
(0.0177913 0.01178 0.0166131)
(0.0164068 0.00883978 0.0184556)
(0.0156659 0.00572492 0.0197642)
(0.0155 0.00248922 0.0205843)
(0.0157955 -0.000775629 0.0208997)
(0.0164767 -0.00393552 0.0206942)
(0.0174904 -0.0068411 0.0199879)
(0.0187596 -0.00936412 0.0188463)
(0.0201269 -0.0114484 0.0173664)
(0.0213474 -0.01316 0.0156214)
(0.022219 -0.0146699 0.0135749)
(0.0227369 -0.0161356 0.0110113)
(0.0230569 -0.0175432 0.00758724)
(0.0232829 -0.0186006 0.00315958)