/*--------------------------------*- C++ -*----------------------------------*\
| =========                 |                                                 |
| \\      /  F ield         | OpenFOAM: The Open Source CFD Toolbox           |
|  \\    /   O peration     | Version:  2312                                  |
|   \\  /    A nd           | Website:  www.openfoam.com                      |
|    \\/     M anipulation  |                                                 |
\*---------------------------------------------------------------------------*/
FoamFile
{
    version     2.0;
    format      ascii;
    arch        "LSB;label=32;scalar=64";
    class       volVectorField;
    location    "1";
    object      D_0_0_0;
}
// * * * * * * * * * * * * * * * * * * * * * * * * * * * * * * * * * * * * * //

dimensions      [0 1 0 0 0 0 0];

internalField   nonuniform List<vector> 
1620
(
(0.000429355 3.75636e-05 -0.00026054)
(0.000416309 0.000111549 -0.00026054)
(0.000390613 0.000182146 -0.00026054)
(0.00035305 0.000247208 -0.00026054)
(0.000304759 0.000304759 -0.000260541)
(0.000247208 0.00035305 -0.00026054)
(0.000182146 0.000390613 -0.00026054)
(0.000111549 0.000416309 -0.00026054)
(3.75636e-05 0.000429355 -0.00026054)
(-3.75636e-05 0.000429355 -0.00026054)
(-0.000111549 0.000416309 -0.00026054)
(-0.000182146 0.000390613 -0.00026054)
(-0.000247208 0.00035305 -0.00026054)
(-0.000304759 0.000304759 -0.000260541)
(-0.00035305 0.000247208 -0.00026054)
(-0.000390613 0.000182146 -0.00026054)
(-0.000416309 0.000111549 -0.00026054)
(-0.000429355 3.75636e-05 -0.00026054)
(-0.000429355 -3.75636e-05 -0.00026054)
(-0.000416309 -0.000111549 -0.00026054)
(-0.000390613 -0.000182146 -0.00026054)
(-0.00035305 -0.000247208 -0.00026054)
(-0.000304759 -0.000304759 -0.000260541)
(-0.000247208 -0.00035305 -0.00026054)
(-0.000182146 -0.000390613 -0.00026054)
(-0.000111549 -0.000416309 -0.00026054)
(-3.75636e-05 -0.000429355 -0.00026054)
(3.75636e-05 -0.000429355 -0.00026054)
(0.000111549 -0.000416309 -0.00026054)
(0.000182146 -0.000390613 -0.00026054)
(0.000247208 -0.00035305 -0.00026054)
(0.000304759 -0.000304759 -0.000260541)
(0.00035305 -0.000247208 -0.00026054)
(0.000390613 -0.000182146 -0.00026054)
(0.000416309 -0.000111549 -0.00026054)
(0.000429355 -3.75636e-05 -0.00026054)
(0.000634747 5.5533e-05 -0.000222123)
(0.000615461 0.000164912 -0.000222123)
(0.000577473 0.00026928 -0.000222123)
(0.00052194 0.000365466 -0.000222123)
(0.000450548 0.000450548 -0.000222123)
(0.000365466 0.00052194 -0.000222123)
(0.00026928 0.000577473 -0.000222123)
(0.000164912 0.000615461 -0.000222123)
(5.5533e-05 0.000634747 -0.000222123)
(-5.5533e-05 0.000634747 -0.000222123)
(-0.000164912 0.000615461 -0.000222123)
(-0.00026928 0.000577473 -0.000222123)
(-0.000365466 0.00052194 -0.000222123)
(-0.000450548 0.000450548 -0.000222123)
(-0.00052194 0.000365466 -0.000222123)
(-0.000577473 0.00026928 -0.000222123)
(-0.000615461 0.000164912 -0.000222123)
(-0.000634747 5.5533e-05 -0.000222123)
(-0.000634747 -5.5533e-05 -0.000222123)
(-0.000615461 -0.000164912 -0.000222123)
(-0.000577473 -0.00026928 -0.000222123)
(-0.00052194 -0.000365466 -0.000222123)
(-0.000450548 -0.000450548 -0.000222123)
(-0.000365466 -0.00052194 -0.000222123)
(-0.00026928 -0.000577473 -0.000222123)
(-0.000164912 -0.000615461 -0.000222123)
(-5.5533e-05 -0.000634747 -0.000222123)
(5.5533e-05 -0.000634747 -0.000222123)
(0.000164912 -0.000615461 -0.000222123)
(0.00026928 -0.000577473 -0.000222123)
(0.000365466 -0.00052194 -0.000222123)
(0.000450548 -0.000450548 -0.000222123)
(0.00052194 -0.000365466 -0.000222123)
(0.000577473 -0.00026928 -0.000222123)
(0.000615461 -0.000164912 -0.000222123)
(0.000634747 -5.5533e-05 -0.000222123)
(0.00087704 7.67308e-05 -0.000161929)
(0.000850392 0.000227861 -0.00016193)
(0.000797905 0.000372069 -0.00016193)
(0.000721173 0.000504971 -0.000161929)
(0.00062253 0.00062253 -0.00016193)
(0.000504971 0.000721173 -0.000161929)
(0.000372069 0.000797905 -0.00016193)
(0.000227861 0.000850392 -0.00016193)
(7.67308e-05 0.00087704 -0.000161929)
(-7.67308e-05 0.00087704 -0.000161929)
(-0.000227861 0.000850392 -0.00016193)
(-0.000372069 0.000797905 -0.00016193)
(-0.000504971 0.000721173 -0.000161929)
(-0.00062253 0.00062253 -0.00016193)
(-0.000721173 0.000504971 -0.000161929)
(-0.000797905 0.000372069 -0.00016193)
(-0.000850392 0.000227861 -0.00016193)
(-0.00087704 7.67308e-05 -0.000161929)
(-0.00087704 -7.67308e-05 -0.000161929)
(-0.000850392 -0.000227861 -0.00016193)
(-0.000797905 -0.000372069 -0.00016193)
(-0.000721173 -0.000504971 -0.000161929)
(-0.00062253 -0.00062253 -0.00016193)
(-0.000504971 -0.000721173 -0.000161929)
(-0.000372069 -0.000797905 -0.00016193)
(-0.000227861 -0.000850392 -0.00016193)
(-7.67308e-05 -0.00087704 -0.000161929)
(7.67308e-05 -0.00087704 -0.000161929)
(0.000227861 -0.000850392 -0.00016193)
(0.000372069 -0.000797905 -0.00016193)
(0.000504971 -0.000721173 -0.000161929)
(0.00062253 -0.00062253 -0.00016193)
(0.000721173 -0.000504971 -0.000161929)
(0.000797905 -0.000372069 -0.00016193)
(0.000850392 -0.000227861 -0.00016193)
(0.00087704 -7.67308e-05 -0.000161929)
(0.0015006 0.000131285 -0.00075185)
(0.001455 0.000389867 -0.00075185)
(0.0013652 0.000636603 -0.000751851)
(0.00123391 0.000863995 -0.000751851)
(0.00106514 0.00106514 -0.000751851)
(0.000863995 0.00123391 -0.000751851)
(0.000636603 0.0013652 -0.000751851)
(0.000389867 0.001455 -0.00075185)
(0.000131285 0.0015006 -0.00075185)
(-0.000131285 0.0015006 -0.00075185)
(-0.000389867 0.001455 -0.00075185)
(-0.000636603 0.0013652 -0.000751851)
(-0.000863995 0.00123391 -0.000751851)
(-0.00106514 0.00106514 -0.000751851)
(-0.00123391 0.000863995 -0.000751851)
(-0.0013652 0.000636603 -0.000751851)
(-0.001455 0.000389867 -0.00075185)
(-0.0015006 0.000131285 -0.00075185)
(-0.0015006 -0.000131285 -0.00075185)
(-0.001455 -0.000389867 -0.00075185)
(-0.0013652 -0.000636603 -0.000751851)
(-0.00123391 -0.000863995 -0.000751851)
(-0.00106514 -0.00106514 -0.000751851)
(-0.000863995 -0.00123391 -0.000751851)
(-0.000636603 -0.0013652 -0.000751851)
(-0.000389867 -0.001455 -0.00075185)
(-0.000131285 -0.0015006 -0.00075185)
(0.000131285 -0.0015006 -0.00075185)
(0.000389867 -0.001455 -0.00075185)
(0.000636603 -0.0013652 -0.000751851)
(0.000863995 -0.00123391 -0.000751851)
(0.00106514 -0.00106514 -0.000751851)
(0.00123391 -0.000863995 -0.000751851)
(0.0013652 -0.000636603 -0.000751851)
(0.001455 -0.000389867 -0.00075185)
(0.0015006 -0.000131285 -0.00075185)
(0.00183677 0.000160697 -0.000748463)
(0.00178096 0.000477207 -0.000748463)
(0.00167104 0.000779218 -0.000748463)
(0.00151034 0.00105755 -0.000748464)
(0.00130376 0.00130376 -0.000748464)
(0.00105755 0.00151034 -0.000748464)
(0.000779218 0.00167104 -0.000748463)
(0.000477207 0.00178096 -0.000748463)
(0.000160697 0.00183677 -0.000748463)
(-0.000160697 0.00183677 -0.000748463)
(-0.000477207 0.00178096 -0.000748463)
(-0.000779218 0.00167104 -0.000748463)
(-0.00105755 0.00151034 -0.000748464)
(-0.00130376 0.00130376 -0.000748464)
(-0.00151034 0.00105755 -0.000748464)
(-0.00167104 0.000779218 -0.000748463)
(-0.00178096 0.000477207 -0.000748463)
(-0.00183677 0.000160697 -0.000748463)
(-0.00183677 -0.000160697 -0.000748463)
(-0.00178096 -0.000477207 -0.000748463)
(-0.00167104 -0.000779218 -0.000748463)
(-0.00151034 -0.00105755 -0.000748464)
(-0.00130376 -0.00130376 -0.000748464)
(-0.00105755 -0.00151034 -0.000748464)
(-0.000779218 -0.00167104 -0.000748463)
(-0.000477207 -0.00178096 -0.000748463)
(-0.000160697 -0.00183677 -0.000748463)
(0.000160697 -0.00183677 -0.000748463)
(0.000477207 -0.00178096 -0.000748463)
(0.000779218 -0.00167104 -0.000748463)
(0.00105755 -0.00151034 -0.000748464)
(0.00130376 -0.00130376 -0.000748464)
(0.00151034 -0.00105755 -0.000748464)
(0.00167104 -0.000779218 -0.000748463)
(0.00178096 -0.000477207 -0.000748463)
(0.00183677 -0.000160697 -0.000748463)
(0.00222437 0.000194607 -0.000718918)
(0.00215679 0.000577908 -0.000718918)
(0.00202367 0.000943649 -0.000718918)
(0.00182906 0.00128072 -0.000718918)
(0.00157887 0.00157887 -0.000718918)
(0.00128072 0.00182906 -0.000718918)
(0.000943649 0.00202367 -0.000718918)
(0.000577908 0.00215679 -0.000718918)
(0.000194607 0.00222437 -0.000718918)
(-0.000194607 0.00222437 -0.000718918)
(-0.000577908 0.00215679 -0.000718918)
(-0.000943649 0.00202367 -0.000718918)
(-0.00128072 0.00182906 -0.000718918)
(-0.00157887 0.00157887 -0.000718918)
(-0.00182906 0.00128072 -0.000718918)
(-0.00202367 0.000943649 -0.000718918)
(-0.00215679 0.000577908 -0.000718918)
(-0.00222437 0.000194607 -0.000718918)
(-0.00222437 -0.000194607 -0.000718918)
(-0.00215679 -0.000577908 -0.000718918)
(-0.00202367 -0.000943649 -0.000718918)
(-0.00182906 -0.00128072 -0.000718918)
(-0.00157887 -0.00157887 -0.000718918)
(-0.00128072 -0.00182906 -0.000718918)
(-0.000943649 -0.00202367 -0.000718918)
(-0.000577908 -0.00215679 -0.000718918)
(-0.000194607 -0.00222437 -0.000718918)
(0.000194607 -0.00222437 -0.000718918)
(0.000577908 -0.00215679 -0.000718918)
(0.000943649 -0.00202367 -0.000718918)
(0.00128072 -0.00182906 -0.000718918)
(0.00157887 -0.00157887 -0.000718918)
(0.00182906 -0.00128072 -0.000718918)
(0.00202367 -0.000943649 -0.000718918)
(0.00215679 -0.000577908 -0.000718918)
(0.00222437 -0.000194607 -0.000718918)
(0.00243147 0.000212725 -0.00139633)
(0.00235759 0.000631713 -0.00139633)
(0.00221207 0.00103151 -0.00139633)
(0.00199935 0.00139996 -0.00139633)
(0.00172587 0.00172587 -0.00139633)
(0.00139996 0.00199935 -0.00139633)
(0.00103151 0.00221207 -0.00139633)
(0.000631713 0.00235759 -0.00139633)
(0.000212725 0.00243147 -0.00139633)
(-0.000212725 0.00243147 -0.00139633)
(-0.000631713 0.00235759 -0.00139633)
(-0.00103151 0.00221207 -0.00139633)
(-0.00139996 0.00199935 -0.00139633)
(-0.00172587 0.00172587 -0.00139633)
(-0.00199935 0.00139996 -0.00139633)
(-0.00221207 0.00103151 -0.00139633)
(-0.00235759 0.000631713 -0.00139633)
(-0.00243147 0.000212725 -0.00139633)
(-0.00243147 -0.000212725 -0.00139633)
(-0.00235759 -0.000631713 -0.00139633)
(-0.00221207 -0.00103151 -0.00139633)
(-0.00199935 -0.00139996 -0.00139633)
(-0.00172587 -0.00172587 -0.00139633)
(-0.00139996 -0.00199935 -0.00139633)
(-0.00103151 -0.00221207 -0.00139633)
(-0.000631713 -0.00235759 -0.00139633)
(-0.000212725 -0.00243147 -0.00139633)
(0.000212725 -0.00243147 -0.00139633)
(0.000631713 -0.00235759 -0.00139633)
(0.00103151 -0.00221207 -0.00139633)
(0.00139996 -0.00199935 -0.00139633)
(0.00172587 -0.00172587 -0.00139633)
(0.00199935 -0.00139996 -0.00139633)
(0.00221207 -0.00103151 -0.00139633)
(0.00235759 -0.000631713 -0.00139633)
(0.00243147 -0.000212725 -0.00139633)
(0.00284946 0.000249295 -0.00141218)
(0.00276288 0.00074031 -0.00141218)
(0.00259235 0.00120883 -0.00141218)
(0.00234305 0.00164062 -0.00141218)
(0.00202256 0.00202256 -0.00141218)
(0.00164062 0.00234305 -0.00141218)
(0.00120883 0.00259235 -0.00141218)
(0.00074031 0.00276288 -0.00141218)
(0.000249295 0.00284946 -0.00141218)
(-0.000249295 0.00284946 -0.00141218)
(-0.00074031 0.00276288 -0.00141218)
(-0.00120883 0.00259235 -0.00141218)
(-0.00164062 0.00234305 -0.00141218)
(-0.00202256 0.00202256 -0.00141218)
(-0.00234305 0.00164062 -0.00141218)
(-0.00259235 0.00120883 -0.00141218)
(-0.00276288 0.00074031 -0.00141218)
(-0.00284946 0.000249295 -0.00141218)
(-0.00284946 -0.000249295 -0.00141218)
(-0.00276288 -0.00074031 -0.00141218)
(-0.00259235 -0.00120883 -0.00141218)
(-0.00234305 -0.00164062 -0.00141218)
(-0.00202256 -0.00202256 -0.00141218)
(-0.00164062 -0.00234305 -0.00141218)
(-0.00120883 -0.00259235 -0.00141218)
(-0.00074031 -0.00276288 -0.00141218)
(-0.000249295 -0.00284946 -0.00141218)
(0.000249295 -0.00284946 -0.00141218)
(0.00074031 -0.00276288 -0.00141218)
(0.00120883 -0.00259235 -0.00141218)
(0.00164062 -0.00234305 -0.00141218)
(0.00202256 -0.00202256 -0.00141218)
(0.00234305 -0.00164062 -0.00141218)
(0.00259235 -0.00120883 -0.00141218)
(0.00276288 -0.00074031 -0.00141218)
(0.00284946 -0.000249295 -0.00141218)
(0.00332469 0.000290873 -0.00140482)
(0.00322367 0.000863779 -0.00140482)
(0.0030247 0.00141044 -0.00140482)
(0.00273383 0.00191424 -0.00140482)
(0.00235989 0.00235989 -0.00140482)
(0.00191424 0.00273383 -0.00140482)
(0.00141044 0.0030247 -0.00140482)
(0.000863779 0.00322367 -0.00140482)
(0.000290873 0.00332469 -0.00140482)
(-0.000290873 0.00332469 -0.00140482)
(-0.000863779 0.00322367 -0.00140482)
(-0.00141044 0.0030247 -0.00140482)
(-0.00191424 0.00273383 -0.00140482)
(-0.00235989 0.00235989 -0.00140482)
(-0.00273383 0.00191424 -0.00140482)
(-0.0030247 0.00141044 -0.00140482)
(-0.00322367 0.000863779 -0.00140482)
(-0.00332469 0.000290873 -0.00140482)
(-0.00332469 -0.000290873 -0.00140482)
(-0.00322367 -0.000863779 -0.00140482)
(-0.0030247 -0.00141044 -0.00140482)
(-0.00273383 -0.00191424 -0.00140482)
(-0.00235989 -0.00235989 -0.00140482)
(-0.00191424 -0.00273383 -0.00140482)
(-0.00141044 -0.0030247 -0.00140482)
(-0.000863779 -0.00322367 -0.00140482)
(-0.000290873 -0.00332469 -0.00140482)
(0.000290873 -0.00332469 -0.00140482)
(0.000863779 -0.00322367 -0.00140482)
(0.00141044 -0.0030247 -0.00140482)
(0.00191424 -0.00273383 -0.00140482)
(0.00235989 -0.00235989 -0.00140482)
(0.00273383 -0.00191424 -0.00140482)
(0.0030247 -0.00141044 -0.00140482)
(0.00322367 -0.000863779 -0.00140482)
(0.00332469 -0.000290873 -0.00140482)
(0.00311147 0.000272218 -0.00213664)
(0.00301693 0.000808383 -0.00213664)
(0.00283072 0.00131999 -0.00213664)
(0.0025585 0.00179148 -0.00213664)
(0.00220854 0.00220854 -0.00213664)
(0.00179148 0.0025585 -0.00213664)
(0.00131999 0.00283072 -0.00213664)
(0.000808383 0.00301693 -0.00213664)
(0.000272218 0.00311147 -0.00213664)
(-0.000272218 0.00311147 -0.00213664)
(-0.000808383 0.00301693 -0.00213664)
(-0.00131999 0.00283072 -0.00213664)
(-0.00179148 0.0025585 -0.00213664)
(-0.00220854 0.00220854 -0.00213664)
(-0.0025585 0.00179148 -0.00213664)
(-0.00283072 0.00131999 -0.00213664)
(-0.00301693 0.000808383 -0.00213664)
(-0.00311147 0.000272218 -0.00213664)
(-0.00311147 -0.000272218 -0.00213664)
(-0.00301693 -0.000808383 -0.00213664)
(-0.00283072 -0.00131999 -0.00213664)
(-0.0025585 -0.00179148 -0.00213664)
(-0.00220854 -0.00220854 -0.00213664)
(-0.00179148 -0.0025585 -0.00213664)
(-0.00131999 -0.00283072 -0.00213664)
(-0.000808383 -0.00301693 -0.00213664)
(-0.000272218 -0.00311147 -0.00213664)
(0.000272218 -0.00311147 -0.00213664)
(0.000808383 -0.00301693 -0.00213664)
(0.00131999 -0.00283072 -0.00213664)
(0.00179148 -0.0025585 -0.00213664)
(0.00220854 -0.00220854 -0.00213664)
(0.0025585 -0.00179148 -0.00213664)
(0.00283072 -0.00131999 -0.00213664)
(0.00301693 -0.000808383 -0.00213664)
(0.00311147 -0.000272218 -0.00213664)
(0.00357162 0.000312477 -0.00216985)
(0.0034631 0.000927935 -0.00216985)
(0.00324935 0.0015152 -0.00216985)
(0.00293688 0.00205642 -0.00216985)
(0.00253516 0.00253516 -0.00216985)
(0.00205642 0.00293688 -0.00216985)
(0.0015152 0.00324935 -0.00216985)
(0.000927935 0.0034631 -0.00216985)
(0.000312477 0.00357162 -0.00216985)
(-0.000312477 0.00357162 -0.00216985)
(-0.000927935 0.0034631 -0.00216985)
(-0.0015152 0.00324935 -0.00216985)
(-0.00205642 0.00293688 -0.00216985)
(-0.00253516 0.00253516 -0.00216985)
(-0.00293688 0.00205642 -0.00216985)
(-0.00324935 0.0015152 -0.00216985)
(-0.0034631 0.000927935 -0.00216985)
(-0.00357162 0.000312477 -0.00216985)
(-0.00357162 -0.000312477 -0.00216985)
(-0.0034631 -0.000927935 -0.00216985)
(-0.00324935 -0.0015152 -0.00216985)
(-0.00293688 -0.00205642 -0.00216985)
(-0.00253516 -0.00253516 -0.00216985)
(-0.00205642 -0.00293688 -0.00216985)
(-0.0015152 -0.00324935 -0.00216985)
(-0.000927935 -0.0034631 -0.00216985)
(-0.000312477 -0.00357162 -0.00216985)
(0.000312477 -0.00357162 -0.00216985)
(0.000927935 -0.0034631 -0.00216985)
(0.0015152 -0.00324935 -0.00216985)
(0.00205642 -0.00293688 -0.00216985)
(0.00253516 -0.00253516 -0.00216985)
(0.00293688 -0.00205642 -0.00216985)
(0.00324935 -0.0015152 -0.00216985)
(0.0034631 -0.000927935 -0.00216985)
(0.00357162 -0.000312477 -0.00216985)
(0.00409341 0.000358127 -0.00218667)
(0.00396903 0.0010635 -0.00218667)
(0.00372406 0.00173656 -0.00218667)
(0.00336593 0.00235685 -0.00218667)
(0.00290553 0.00290553 -0.00218667)
(0.00235685 0.00336593 -0.00218667)
(0.00173656 0.00372406 -0.00218667)
(0.0010635 0.00396903 -0.00218667)
(0.000358127 0.00409341 -0.00218667)
(-0.000358127 0.00409341 -0.00218667)
(-0.0010635 0.00396903 -0.00218667)
(-0.00173656 0.00372406 -0.00218667)
(-0.00235685 0.00336593 -0.00218667)
(-0.00290553 0.00290553 -0.00218667)
(-0.00336593 0.00235685 -0.00218667)
(-0.00372406 0.00173656 -0.00218667)
(-0.00396903 0.0010635 -0.00218667)
(-0.00409341 0.000358127 -0.00218667)
(-0.00409341 -0.000358127 -0.00218667)
(-0.00396903 -0.0010635 -0.00218667)
(-0.00372406 -0.00173656 -0.00218667)
(-0.00336593 -0.00235685 -0.00218667)
(-0.00290553 -0.00290553 -0.00218667)
(-0.00235685 -0.00336593 -0.00218667)
(-0.00173656 -0.00372406 -0.00218667)
(-0.0010635 -0.00396903 -0.00218667)
(-0.000358127 -0.00409341 -0.00218667)
(0.000358127 -0.00409341 -0.00218667)
(0.0010635 -0.00396903 -0.00218667)
(0.00173656 -0.00372406 -0.00218667)
(0.00235685 -0.00336593 -0.00218667)
(0.00290553 -0.00290553 -0.00218667)
(0.00336593 -0.00235685 -0.00218667)
(0.00372406 -0.00173656 -0.00218667)
(0.00396903 -0.0010635 -0.00218667)
(0.00409341 -0.000358127 -0.00218667)
(0.00351034 0.000307115 -0.00291705)
(0.00340368 0.000912012 -0.00291705)
(0.0031936 0.0014892 -0.00291705)
(0.00288648 0.00202114 -0.00291705)
(0.00249167 0.00249167 -0.00291705)
(0.00202114 0.00288648 -0.00291705)
(0.0014892 0.0031936 -0.00291705)
(0.000912012 0.00340368 -0.00291705)
(0.000307115 0.00351034 -0.00291705)
(-0.000307115 0.00351034 -0.00291705)
(-0.000912012 0.00340368 -0.00291705)
(-0.0014892 0.0031936 -0.00291705)
(-0.00202114 0.00288648 -0.00291705)
(-0.00249167 0.00249167 -0.00291705)
(-0.00288648 0.00202114 -0.00291705)
(-0.0031936 0.0014892 -0.00291705)
(-0.00340368 0.000912012 -0.00291705)
(-0.00351034 0.000307115 -0.00291705)
(-0.00351034 -0.000307115 -0.00291705)
(-0.00340368 -0.000912012 -0.00291705)
(-0.0031936 -0.0014892 -0.00291705)
(-0.00288648 -0.00202114 -0.00291705)
(-0.00249167 -0.00249167 -0.00291705)
(-0.00202114 -0.00288648 -0.00291705)
(-0.0014892 -0.0031936 -0.00291705)
(-0.000912012 -0.00340368 -0.00291705)
(-0.000307115 -0.00351034 -0.00291705)
(0.000307115 -0.00351034 -0.00291705)
(0.000912012 -0.00340368 -0.00291705)
(0.0014892 -0.0031936 -0.00291705)
(0.00202114 -0.00288648 -0.00291705)
(0.00249167 -0.00249167 -0.00291705)
(0.00288648 -0.00202114 -0.00291705)
(0.0031936 -0.0014892 -0.00291705)
(0.00340368 -0.000912012 -0.00291705)
(0.00351034 -0.000307115 -0.00291705)
(0.00398834 0.000348935 -0.00297029)
(0.00386716 0.0010362 -0.00297029)
(0.00362847 0.00169198 -0.00297029)
(0.00327954 0.00229636 -0.00297029)
(0.00283096 0.00283096 -0.00297029)
(0.00229636 0.00327954 -0.00297029)
(0.00169198 0.00362847 -0.00297029)
(0.0010362 0.00386716 -0.00297029)
(0.000348935 0.00398834 -0.00297029)
(-0.000348935 0.00398834 -0.00297029)
(-0.0010362 0.00386716 -0.00297029)
(-0.00169198 0.00362847 -0.00297029)
(-0.00229636 0.00327954 -0.00297029)
(-0.00283096 0.00283096 -0.00297029)
(-0.00327954 0.00229636 -0.00297029)
(-0.00362847 0.00169198 -0.00297029)
(-0.00386716 0.0010362 -0.00297029)
(-0.00398834 0.000348935 -0.00297029)
(-0.00398834 -0.000348935 -0.00297029)
(-0.00386716 -0.0010362 -0.00297029)
(-0.00362847 -0.00169198 -0.00297029)
(-0.00327954 -0.00229636 -0.00297029)
(-0.00283096 -0.00283096 -0.00297029)
(-0.00229636 -0.00327954 -0.00297029)
(-0.00169198 -0.00362847 -0.00297029)
(-0.0010362 -0.00386716 -0.00297029)
(-0.000348935 -0.00398834 -0.00297029)
(0.000348935 -0.00398834 -0.00297029)
(0.0010362 -0.00386716 -0.00297029)
(0.00169198 -0.00362847 -0.00297029)
(0.00229636 -0.00327954 -0.00297029)
(0.00283096 -0.00283096 -0.00297029)
(0.00327954 -0.00229636 -0.00297029)
(0.00362847 -0.00169198 -0.00297029)
(0.00386716 -0.0010362 -0.00297029)
(0.00398834 -0.000348935 -0.00297029)
(0.00453052 0.000396369 -0.00301531)
(0.00439286 0.00117706 -0.00301531)
(0.00412173 0.00192199 -0.00301531)
(0.00372536 0.00260852 -0.00301531)
(0.0032158 0.0032158 -0.00301531)
(0.00260852 0.00372536 -0.00301531)
(0.00192199 0.00412173 -0.00301531)
(0.00117706 0.00439286 -0.00301531)
(0.000396369 0.00453052 -0.00301531)
(-0.000396369 0.00453052 -0.00301531)
(-0.00117706 0.00439286 -0.00301531)
(-0.00192199 0.00412173 -0.00301531)
(-0.00260852 0.00372536 -0.00301531)
(-0.0032158 0.0032158 -0.00301531)
(-0.00372536 0.00260852 -0.00301531)
(-0.00412173 0.00192199 -0.00301531)
(-0.00439286 0.00117706 -0.00301531)
(-0.00453052 0.000396369 -0.00301531)
(-0.00453052 -0.000396369 -0.00301531)
(-0.00439286 -0.00117706 -0.00301531)
(-0.00412173 -0.00192199 -0.00301531)
(-0.00372536 -0.00260852 -0.00301531)
(-0.0032158 -0.0032158 -0.00301531)
(-0.00260852 -0.00372536 -0.00301531)
(-0.00192199 -0.00412173 -0.00301531)
(-0.00117706 -0.00439286 -0.00301531)
(-0.000396369 -0.00453052 -0.00301531)
(0.000396369 -0.00453052 -0.00301531)
(0.00117706 -0.00439286 -0.00301531)
(0.00192199 -0.00412173 -0.00301531)
(0.00260852 -0.00372536 -0.00301531)
(0.0032158 -0.0032158 -0.00301531)
(0.00372536 -0.00260852 -0.00301531)
(0.00412173 -0.00192199 -0.00301531)
(0.00439286 -0.00117706 -0.00301531)
(0.00453052 -0.000396369 -0.00301531)
(0.00365422 0.000319704 -0.00369397)
(0.00354319 0.000949396 -0.00369397)
(0.0033245 0.00155024 -0.00369397)
(0.0030048 0.00210398 -0.00369397)
(0.0025938 0.0025938 -0.00369397)
(0.00210398 0.0030048 -0.00369397)
(0.00155024 0.0033245 -0.00369397)
(0.000949396 0.00354319 -0.00369397)
(0.000319704 0.00365422 -0.00369397)
(-0.000319704 0.00365422 -0.00369397)
(-0.000949396 0.00354319 -0.00369397)
(-0.00155024 0.0033245 -0.00369397)
(-0.00210398 0.0030048 -0.00369397)
(-0.0025938 0.0025938 -0.00369397)
(-0.0030048 0.00210398 -0.00369397)
(-0.0033245 0.00155024 -0.00369397)
(-0.00354319 0.000949396 -0.00369397)
(-0.00365422 0.000319704 -0.00369397)
(-0.00365422 -0.000319704 -0.00369397)
(-0.00354319 -0.000949396 -0.00369397)
(-0.0033245 -0.00155024 -0.00369397)
(-0.0030048 -0.00210398 -0.00369397)
(-0.0025938 -0.0025938 -0.00369397)
(-0.00210398 -0.0030048 -0.00369397)
(-0.00155024 -0.0033245 -0.00369397)
(-0.000949396 -0.00354319 -0.00369397)
(-0.000319704 -0.00365422 -0.00369397)
(0.000319704 -0.00365422 -0.00369397)
(0.000949396 -0.00354319 -0.00369397)
(0.00155024 -0.0033245 -0.00369397)
(0.00210398 -0.0030048 -0.00369397)
(0.0025938 -0.0025938 -0.00369397)
(0.0030048 -0.00210398 -0.00369397)
(0.0033245 -0.00155024 -0.00369397)
(0.00354319 -0.000949396 -0.00369397)
(0.00365422 -0.000319704 -0.00369397)
(0.00413526 0.000361789 -0.00376811)
(0.00400961 0.00107437 -0.00376811)
(0.00376213 0.00175431 -0.00376811)
(0.00340035 0.00238095 -0.00376811)
(0.00293524 0.00293524 -0.00376811)
(0.00238095 0.00340035 -0.00376811)
(0.00175431 0.00376213 -0.00376811)
(0.00107437 0.00400961 -0.00376811)
(0.000361789 0.00413526 -0.00376811)
(-0.000361789 0.00413526 -0.00376811)
(-0.00107437 0.00400961 -0.00376811)
(-0.00175431 0.00376213 -0.00376811)
(-0.00238095 0.00340035 -0.00376811)
(-0.00293524 0.00293524 -0.00376811)
(-0.00340035 0.00238095 -0.00376811)
(-0.00376213 0.00175431 -0.00376811)
(-0.00400961 0.00107437 -0.00376811)
(-0.00413526 0.000361789 -0.00376811)
(-0.00413526 -0.000361789 -0.00376811)
(-0.00400961 -0.00107437 -0.00376811)
(-0.00376213 -0.00175431 -0.00376811)
(-0.00340035 -0.00238095 -0.00376811)
(-0.00293524 -0.00293524 -0.00376811)
(-0.00238095 -0.00340035 -0.00376811)
(-0.00175431 -0.00376213 -0.00376811)
(-0.00107437 -0.00400961 -0.00376811)
(-0.000361789 -0.00413526 -0.00376811)
(0.000361789 -0.00413526 -0.00376811)
(0.00107437 -0.00400961 -0.00376811)
(0.00175431 -0.00376213 -0.00376811)
(0.00238095 -0.00340035 -0.00376811)
(0.00293524 -0.00293524 -0.00376811)
(0.00340035 -0.00238095 -0.00376811)
(0.00376213 -0.00175431 -0.00376811)
(0.00400961 -0.00107437 -0.00376811)
(0.00413526 -0.000361789 -0.00376811)
(0.00468185 0.000409609 -0.00384205)
(0.00453959 0.00121638 -0.00384205)
(0.0042594 0.00198619 -0.00384205)
(0.0038498 0.00269566 -0.00384205)
(0.00332321 0.00332321 -0.00384205)
(0.00269566 0.0038498 -0.00384205)
(0.00198619 0.0042594 -0.00384205)
(0.00121638 0.00453959 -0.00384205)
(0.000409609 0.00468185 -0.00384205)
(-0.000409609 0.00468185 -0.00384205)
(-0.00121638 0.00453959 -0.00384205)
(-0.00198619 0.0042594 -0.00384205)
(-0.00269566 0.0038498 -0.00384205)
(-0.00332321 0.00332321 -0.00384205)
(-0.0038498 0.00269566 -0.00384205)
(-0.0042594 0.00198619 -0.00384205)
(-0.00453959 0.00121638 -0.00384205)
(-0.00468185 0.000409609 -0.00384205)
(-0.00468185 -0.000409609 -0.00384205)
(-0.00453959 -0.00121638 -0.00384205)
(-0.0042594 -0.00198619 -0.00384205)
(-0.0038498 -0.00269566 -0.00384205)
(-0.00332321 -0.00332321 -0.00384205)
(-0.00269566 -0.0038498 -0.00384205)
(-0.00198619 -0.0042594 -0.00384205)
(-0.00121638 -0.00453959 -0.00384205)
(-0.000409609 -0.00468185 -0.00384205)
(0.000409609 -0.00468185 -0.00384205)
(0.00121638 -0.00453959 -0.00384205)
(0.00198619 -0.0042594 -0.00384205)
(0.00269566 -0.0038498 -0.00384205)
(0.00332321 -0.00332321 -0.00384205)
(0.0038498 -0.00269566 -0.00384205)
(0.0042594 -0.00198619 -0.00384205)
(0.00453959 -0.00121638 -0.00384205)
(0.00468185 -0.000409609 -0.00384205)
(0.00359075 0.00031415 -0.00443699)
(0.00348165 0.000932904 -0.00443699)
(0.00326676 0.00152331 -0.00443699)
(0.00295261 0.00206744 -0.00443699)
(0.00254874 0.00254874 -0.00443699)
(0.00206744 0.00295261 -0.00443699)
(0.00152331 0.00326676 -0.00443699)
(0.000932904 0.00348165 -0.00443699)
(0.00031415 0.00359075 -0.00443699)
(-0.00031415 0.00359075 -0.00443699)
(-0.000932904 0.00348165 -0.00443699)
(-0.00152331 0.00326676 -0.00443699)
(-0.00206744 0.00295261 -0.00443699)
(-0.00254874 0.00254874 -0.00443699)
(-0.00295261 0.00206744 -0.00443699)
(-0.00326676 0.00152331 -0.00443699)
(-0.00348165 0.000932904 -0.00443699)
(-0.00359075 0.00031415 -0.00443699)
(-0.00359075 -0.00031415 -0.00443699)
(-0.00348165 -0.000932904 -0.00443699)
(-0.00326676 -0.00152331 -0.00443699)
(-0.00295261 -0.00206744 -0.00443699)
(-0.00254874 -0.00254874 -0.00443699)
(-0.00206744 -0.00295261 -0.00443699)
(-0.00152331 -0.00326676 -0.00443699)
(-0.000932904 -0.00348165 -0.00443699)
(-0.00031415 -0.00359075 -0.00443699)
(0.00031415 -0.00359075 -0.00443699)
(0.000932904 -0.00348165 -0.00443699)
(0.00152331 -0.00326676 -0.00443699)
(0.00206744 -0.00295261 -0.00443699)
(0.00254874 -0.00254874 -0.00443699)
(0.00295261 -0.00206744 -0.00443699)
(0.00326676 -0.00152331 -0.00443699)
(0.00348165 -0.000932904 -0.00443699)
(0.00359075 -0.00031415 -0.00443699)
(0.00406632 0.000355757 -0.00453098)
(0.00394277 0.00105646 -0.00453098)
(0.00369941 0.00172507 -0.00453098)
(0.00334366 0.00234126 -0.00453098)
(0.00288631 0.00288631 -0.00453098)
(0.00234126 0.00334366 -0.00453098)
(0.00172507 0.00369941 -0.00453098)
(0.00105646 0.00394277 -0.00453098)
(0.000355757 0.00406632 -0.00453098)
(-0.000355757 0.00406632 -0.00453098)
(-0.00105646 0.00394277 -0.00453098)
(-0.00172507 0.00369941 -0.00453098)
(-0.00234126 0.00334366 -0.00453098)
(-0.00288631 0.00288631 -0.00453098)
(-0.00334366 0.00234126 -0.00453098)
(-0.00369941 0.00172507 -0.00453098)
(-0.00394277 0.00105646 -0.00453098)
(-0.00406632 0.000355757 -0.00453098)
(-0.00406632 -0.000355757 -0.00453098)
(-0.00394277 -0.00105646 -0.00453098)
(-0.00369941 -0.00172507 -0.00453098)
(-0.00334366 -0.00234126 -0.00453098)
(-0.00288631 -0.00288631 -0.00453098)
(-0.00234126 -0.00334366 -0.00453098)
(-0.00172507 -0.00369941 -0.00453098)
(-0.00105646 -0.00394277 -0.00453098)
(-0.000355757 -0.00406632 -0.00453098)
(0.000355757 -0.00406632 -0.00453098)
(0.00105646 -0.00394277 -0.00453098)
(0.00172507 -0.00369941 -0.00453098)
(0.00234126 -0.00334366 -0.00453098)
(0.00288631 -0.00288631 -0.00453098)
(0.00334366 -0.00234126 -0.00453098)
(0.00369941 -0.00172507 -0.00453098)
(0.00394277 -0.00105646 -0.00453098)
(0.00406632 -0.000355757 -0.00453098)
(0.0046092 0.000403254 -0.00463249)
(0.00446915 0.00119751 -0.00463249)
(0.00419331 0.00195538 -0.00463249)
(0.00379006 0.00265383 -0.00463249)
(0.00327165 0.00327165 -0.00463249)
(0.00265383 0.00379006 -0.00463249)
(0.00195538 0.00419331 -0.00463249)
(0.00119751 0.00446915 -0.00463249)
(0.000403254 0.0046092 -0.00463249)
(-0.000403254 0.0046092 -0.00463249)
(-0.00119751 0.00446915 -0.00463249)
(-0.00195538 0.00419331 -0.00463249)
(-0.00265383 0.00379006 -0.00463249)
(-0.00327165 0.00327165 -0.00463249)
(-0.00379006 0.00265383 -0.00463249)
(-0.00419331 0.00195538 -0.00463249)
(-0.00446915 0.00119751 -0.00463249)
(-0.0046092 0.000403254 -0.00463249)
(-0.0046092 -0.000403254 -0.00463249)
(-0.00446915 -0.00119751 -0.00463249)
(-0.00419331 -0.00195538 -0.00463249)
(-0.00379006 -0.00265383 -0.00463249)
(-0.00327165 -0.00327165 -0.00463249)
(-0.00265383 -0.00379006 -0.00463249)
(-0.00195538 -0.00419331 -0.00463249)
(-0.00119751 -0.00446915 -0.00463249)
(-0.000403254 -0.0046092 -0.00463249)
(0.000403254 -0.0046092 -0.00463249)
(0.00119751 -0.00446915 -0.00463249)
(0.00195538 -0.00419331 -0.00463249)
(0.00265383 -0.00379006 -0.00463249)
(0.00327165 -0.00327165 -0.00463249)
(0.00379006 -0.00265383 -0.00463249)
(0.00419331 -0.00195538 -0.00463249)
(0.00446915 -0.00119751 -0.00463249)
(0.0046092 -0.000403254 -0.00463249)
(0.00336684 0.000294559 -0.0051245)
(0.00326454 0.00087473 -0.0051245)
(0.00306304 0.00142832 -0.0051245)
(0.00276849 0.00193852 -0.0051245)
(0.00238981 0.00238981 -0.0051245)
(0.00193852 0.00276849 -0.0051245)
(0.00142832 0.00306304 -0.0051245)
(0.00087473 0.00326454 -0.0051245)
(0.000294559 0.00336684 -0.0051245)
(-0.000294559 0.00336684 -0.0051245)
(-0.00087473 0.00326454 -0.0051245)
(-0.00142832 0.00306304 -0.0051245)
(-0.00193852 0.00276849 -0.0051245)
(-0.00238981 0.00238981 -0.0051245)
(-0.00276849 0.00193852 -0.0051245)
(-0.00306304 0.00142832 -0.0051245)
(-0.00326454 0.00087473 -0.0051245)
(-0.00336684 0.000294559 -0.0051245)
(-0.00336684 -0.000294559 -0.0051245)