/*--------------------------------*- C++ -*----------------------------------*\
| =========                 |                                                 |
| \\      /  F ield         | OpenFOAM: The Open Source CFD Toolbox           |
|  \\    /   O peration     | Version:  2312                                  |
|   \\  /    A nd           | Website:  www.openfoam.com                      |
|    \\/     M anipulation  |                                                 |
\*---------------------------------------------------------------------------*/
FoamFile
{
    version     2.0;
    format      ascii;
    arch        "LSB;label=32;scalar=64";
    class       volTensorField;
    location    "1";
    object      F;
}
// * * * * * * * * * * * * * * * * * * * * * * * * * * * * * * * * * * * * * //

dimensions      [0 0 0 0 0 0 0];

internalField   nonuniform List<tensor> 
1620
(
(0.794972 -0.022101 -0.578841 -0.0221008 1.04565 -0.050642 -0.0393265 -0.00344067 1.25528)
(0.81009 -0.0636373 -0.561253 -0.063637 1.03054 -0.150387 -0.0381315 -0.0102174 1.25528)
(0.838502 -0.0974981 -0.526612 -0.0974978 1.00212 -0.245563 -0.035778 -0.0166837 1.25528)
(0.876782 -0.119599 -0.47597 -0.119599 0.963843 -0.333278 -0.0323375 -0.022643 1.25528)
(0.920313 -0.127275 -0.410866 -0.127275 0.920313 -0.410866 -0.0279144 -0.0279144 1.25528)
(0.963843 -0.119599 -0.333278 -0.119599 0.876782 -0.47597 -0.022643 -0.0323375 1.25528)
(1.00212 -0.0974978 -0.245563 -0.0974981 0.838502 -0.526612 -0.0166837 -0.035778 1.25528)
(1.03054 -0.063637 -0.150387 -0.0636373 0.81009 -0.561253 -0.0102174 -0.0381315 1.25528)
(1.04565 -0.0221008 -0.050642 -0.022101 0.794972 -0.578841 -0.00344067 -0.0393265 1.25528)
(1.04565 0.0221008 0.050642 0.022101 0.794972 -0.578841 0.00344067 -0.0393265 1.25528)
(1.03054 0.063637 0.150387 0.0636373 0.81009 -0.561253 0.0102174 -0.0381315 1.25528)
(1.00212 0.0974978 0.245563 0.0974981 0.838502 -0.526612 0.0166837 -0.035778 1.25528)
(0.963843 0.119599 0.333278 0.119599 0.876782 -0.47597 0.022643 -0.0323375 1.25528)
(0.920313 0.127275 0.410866 0.127275 0.920313 -0.410866 0.0279144 -0.0279144 1.25528)
(0.876782 0.119599 0.47597 0.119599 0.963843 -0.333278 0.0323375 -0.022643 1.25528)
(0.838502 0.0974981 0.526612 0.0974978 1.00212 -0.245563 0.035778 -0.0166837 1.25528)
(0.81009 0.0636373 0.561253 0.063637 1.03054 -0.150387 0.0381315 -0.0102174 1.25528)
(0.794972 0.022101 0.578841 0.0221008 1.04565 -0.050642 0.0393265 -0.00344067 1.25528)
(0.794972 -0.022101 0.578841 -0.0221008 1.04565 0.050642 0.0393265 0.00344067 1.25528)
(0.81009 -0.0636373 0.561253 -0.063637 1.03054 0.150387 0.0381315 0.0102174 1.25528)
(0.838502 -0.0974981 0.526612 -0.0974978 1.00212 0.245563 0.035778 0.0166837 1.25528)
(0.876782 -0.119599 0.47597 -0.119599 0.963843 0.333278 0.0323375 0.022643 1.25528)
(0.920313 -0.127275 0.410866 -0.127275 0.920313 0.410866 0.0279144 0.0279144 1.25528)
(0.963843 -0.119599 0.333278 -0.119599 0.876782 0.47597 0.022643 0.0323375 1.25528)
(1.00212 -0.0974978 0.245563 -0.0974981 0.838502 0.526612 0.0166837 0.035778 1.25528)
(1.03054 -0.063637 0.150387 -0.0636373 0.81009 0.561253 0.0102174 0.0381315 1.25528)
(1.04565 -0.0221008 0.050642 -0.022101 0.794972 0.578841 0.00344067 0.0393265 1.25528)
(1.04565 0.0221008 -0.050642 0.022101 0.794972 0.578841 -0.00344067 0.0393265 1.25528)
(1.03054 0.063637 -0.150387 0.0636373 0.81009 0.561253 -0.0102174 0.0381315 1.25528)
(1.00212 0.0974978 -0.245563 0.0974981 0.838502 0.526612 -0.0166837 0.035778 1.25528)
(0.963843 0.119599 -0.333278 0.119599 0.876782 0.47597 -0.022643 0.0323375 1.25528)
(0.920313 0.127275 -0.410866 0.127275 0.920313 0.410866 -0.0279144 0.0279144 1.25528)
(0.876782 0.119599 -0.47597 0.119599 0.963843 0.333278 -0.0323375 0.022643 1.25528)
(0.838502 0.0974981 -0.526612 0.0974978 1.00212 0.245563 -0.035778 0.0166837 1.25528)
(0.81009 0.0636373 -0.561253 0.063637 1.03054 0.150387 -0.0381315 0.0102174 1.25528)
(0.794972 0.022101 -0.578841 0.0221008 1.04565 0.050642 -0.0393265 0.00344067 1.25528)
(0.776011 -0.0264748 -0.649832 -0.0264748 1.0763 -0.0568529 -0.0499736 -0.00437216 1.27376)
(0.794121 -0.0762316 -0.630087 -0.0762312 1.05819 -0.168831 -0.0484552 -0.0129837 1.27376)
(0.828156 -0.116794 -0.591197 -0.116793 1.02416 -0.275679 -0.0454646 -0.0212006 1.27376)
(0.874012 -0.143268 -0.534344 -0.143269 0.978303 -0.374151 -0.0410925 -0.0287732 1.27376)
(0.926157 -0.152463 -0.461255 -0.152463 0.926157 -0.461255 -0.0354718 -0.0354718 1.27376)
(0.978303 -0.143269 -0.374151 -0.143268 0.874012 -0.534344 -0.0287732 -0.0410925 1.27376)
(1.02416 -0.116793 -0.275679 -0.116794 0.828156 -0.591197 -0.0212006 -0.0454646 1.27376)
(1.05819 -0.0762312 -0.168831 -0.0762316 0.794121 -0.630087 -0.0129837 -0.0484552 1.27376)
(1.0763 -0.0264748 -0.0568529 -0.0264748 0.776011 -0.649832 -0.00437216 -0.0499736 1.27376)
(1.0763 0.0264748 0.0568529 0.0264748 0.776011 -0.649832 0.00437216 -0.0499736 1.27376)
(1.05819 0.0762312 0.168831 0.0762316 0.794121 -0.630087 0.0129837 -0.0484552 1.27376)
(1.02416 0.116793 0.275679 0.116794 0.828156 -0.591197 0.0212006 -0.0454646 1.27376)
(0.978303 0.143269 0.374151 0.143268 0.874012 -0.534344 0.0287732 -0.0410925 1.27376)
(0.926157 0.152463 0.461255 0.152463 0.926157 -0.461255 0.0354718 -0.0354718 1.27376)
(0.874012 0.143268 0.534344 0.143269 0.978303 -0.374151 0.0410925 -0.0287732 1.27376)
(0.828156 0.116794 0.591197 0.116793 1.02416 -0.275679 0.0454646 -0.0212006 1.27376)
(0.794121 0.0762316 0.630087 0.0762312 1.05819 -0.168831 0.0484552 -0.0129837 1.27376)
(0.776011 0.0264748 0.649832 0.0264748 1.0763 -0.0568529 0.0499736 -0.00437216 1.27376)
(0.776011 -0.0264748 0.649832 -0.0264748 1.0763 0.0568529 0.0499736 0.00437216 1.27376)
(0.794121 -0.0762316 0.630087 -0.0762312 1.05819 0.168831 0.0484552 0.0129837 1.27376)
(0.828156 -0.116794 0.591197 -0.116793 1.02416 0.275679 0.0454646 0.0212006 1.27376)
(0.874012 -0.143268 0.534344 -0.143269 0.978303 0.374151 0.0410925 0.0287732 1.27376)
(0.926157 -0.152463 0.461255 -0.152463 0.926157 0.461255 0.0354718 0.0354718 1.27376)
(0.978303 -0.143269 0.374151 -0.143268 0.874012 0.534344 0.0287732 0.0410925 1.27376)
(1.02416 -0.116793 0.275679 -0.116794 0.828156 0.591197 0.0212006 0.0454646 1.27376)
(1.05819 -0.0762312 0.168831 -0.0762316 0.794121 0.630087 0.0129837 0.0484552 1.27376)
(1.0763 -0.0264748 0.0568529 -0.0264748 0.776011 0.649832 0.00437216 0.0499736 1.27376)
(1.0763 0.0264748 -0.0568529 0.0264748 0.776011 0.649832 -0.00437216 0.0499736 1.27376)
(1.05819 0.0762312 -0.168831 0.0762316 0.794121 0.630087 -0.0129837 0.0484552 1.27376)
(1.02416 0.116793 -0.275679 0.116794 0.828156 0.591197 -0.0212006 0.0454646 1.27376)
(0.978303 0.143269 -0.374151 0.143268 0.874012 0.534344 -0.0287732 0.0410925 1.27376)
(0.926157 0.152463 -0.461255 0.152463 0.926157 0.461255 -0.0354718 0.0354718 1.27376)
(0.874012 0.143268 -0.534344 0.143269 0.978303 0.374151 -0.0410925 0.0287732 1.27376)
(0.828156 0.116794 -0.591197 0.116793 1.02416 0.275679 -0.0454646 0.0212006 1.27376)
(0.794121 0.0762316 -0.630087 0.0762312 1.05819 0.168831 -0.0484552 0.0129837 1.27376)
(0.776011 0.0264748 -0.649832 0.0264748 1.0763 0.0568529 -0.0499736 0.00437216 1.27376)
(0.758988 -0.0318673 -0.729841 -0.0318673 1.12045 -0.0638528 -0.060899 -0.00532801 1.2903)
(0.780786 -0.0917584 -0.707665 -0.0917585 1.09865 -0.189618 -0.0590487 -0.0158221 1.2903)
(0.821754 -0.140583 -0.663987 -0.140582 1.05768 -0.309622 -0.0554043 -0.0258355 1.2903)
(0.87695 -0.17245 -0.600134 -0.17245 1.00248 -0.420218 -0.0500764 -0.0350638 1.2903)
(0.939717 -0.183517 -0.518046 -0.183517 0.939717 -0.518046 -0.0432268 -0.0432268 1.2903)
(1.00248 -0.17245 -0.420218 -0.17245 0.87695 -0.600134 -0.0350638 -0.0500764 1.2903)
(1.05768 -0.140582 -0.309622 -0.140583 0.821754 -0.663987 -0.0258355 -0.0554043 1.2903)
(1.09865 -0.0917585 -0.189618 -0.0917584 0.780786 -0.707665 -0.0158221 -0.0590487 1.2903)
(1.12045 -0.0318673 -0.0638528 -0.0318673 0.758988 -0.729841 -0.00532801 -0.060899 1.2903)
(1.12045 0.0318673 0.0638528 0.0318673 0.758988 -0.729841 0.00532801 -0.060899 1.2903)
(1.09865 0.0917585 0.189618 0.0917584 0.780786 -0.707665 0.0158221 -0.0590487 1.2903)
(1.05768 0.140582 0.309622 0.140583 0.821754 -0.663987 0.0258355 -0.0554043 1.2903)
(1.00248 0.17245 0.420218 0.17245 0.87695 -0.600134 0.0350638 -0.0500764 1.2903)
(0.939717 0.183517 0.518046 0.183517 0.939717 -0.518046 0.0432268 -0.0432268 1.2903)
(0.87695 0.17245 0.600134 0.17245 1.00248 -0.420218 0.0500764 -0.0350638 1.2903)
(0.821754 0.140583 0.663987 0.140582 1.05768 -0.309622 0.0554043 -0.0258355 1.2903)
(0.780786 0.0917584 0.707665 0.0917585 1.09865 -0.189618 0.0590487 -0.0158221 1.2903)
(0.758988 0.0318673 0.729841 0.0318673 1.12045 -0.0638528 0.060899 -0.00532801 1.2903)
(0.758988 -0.0318673 0.729841 -0.0318673 1.12045 0.0638528 0.060899 0.00532801 1.2903)
(0.780786 -0.0917584 0.707665 -0.0917585 1.09865 0.189618 0.0590487 0.0158221 1.2903)
(0.821754 -0.140583 0.663987 -0.140582 1.05768 0.309622 0.0554043 0.0258355 1.2903)
(0.87695 -0.17245 0.600134 -0.17245 1.00248 0.420218 0.0500764 0.0350638 1.2903)
(0.939717 -0.183517 0.518046 -0.183517 0.939717 0.518046 0.0432268 0.0432268 1.2903)
(1.00248 -0.17245 0.420218 -0.17245 0.87695 0.600134 0.0350638 0.0500764 1.2903)
(1.05768 -0.140582 0.309622 -0.140583 0.821754 0.663987 0.0258355 0.0554043 1.2903)
(1.09865 -0.0917585 0.189618 -0.0917584 0.780786 0.707665 0.0158221 0.0590487 1.2903)
(1.12045 -0.0318673 0.0638528 -0.0318673 0.758988 0.729841 0.00532801 0.060899 1.2903)
(1.12045 0.0318673 -0.0638528 0.0318673 0.758988 0.729841 -0.00532801 0.060899 1.2903)
(1.09865 0.0917585 -0.189618 0.0917584 0.780786 0.707665 -0.0158221 0.0590487 1.2903)
(1.05768 0.140582 -0.309622 0.140583 0.821754 0.663987 -0.0258355 0.0554043 1.2903)
(1.00248 0.17245 -0.420218 0.17245 0.87695 0.600134 -0.0350638 0.0500764 1.2903)
(0.939717 0.183517 -0.518046 0.183517 0.939717 0.518046 -0.0432268 0.0432268 1.2903)
(0.87695 0.17245 -0.600134 0.17245 1.00248 0.420218 -0.0500764 0.0350638 1.2903)
(0.821754 0.140583 -0.663987 0.140582 1.05768 0.309622 -0.0554043 0.0258355 1.2903)
(0.780786 0.0917584 -0.707665 0.0917585 1.09865 0.189618 -0.0590487 0.0158221 1.2903)
(0.758988 0.0318673 -0.729841 0.0318673 1.12045 0.0638528 -0.060899 0.00532801 1.2903)
(0.664964 -0.0436014 -0.543122 -0.0436012 1.15951 -0.047517 -0.00128219 -0.000112307 1.29895)
(0.694789 -0.125545 -0.526619 -0.125544 1.12969 -0.141107 -0.00124339 -0.000333482 1.29895)
(0.750842 -0.192346 -0.494116 -0.192345 1.07364 -0.23041 -0.00116672 -0.000544379 1.29895)
(0.826362 -0.235947 -0.446599 -0.235947 0.998117 -0.312712 -0.00105469 -0.000738745 1.29895)
(0.912239 -0.25109 -0.385512 -0.25109 0.912239 -0.385512 -0.000910601 -0.000910601 1.29895)
(0.998117 -0.235947 -0.312712 -0.235947 0.826362 -0.446599 -0.000738745 -0.00105469 1.29895)
(1.07364 -0.192345 -0.23041 -0.192346 0.750842 -0.494116 -0.000544379 -0.00116672 1.29895)
(1.12969 -0.125544 -0.141107 -0.125545 0.694789 -0.526619 -0.000333482 -0.00124339 1.29895)
(1.15951 -0.0436012 -0.047517 -0.0436014 0.664964 -0.543122 -0.000112307 -0.00128219 1.29895)
(1.15951 0.0436012 0.047517 0.0436014 0.664964 -0.543122 0.000112307 -0.00128219 1.29895)
(1.12969 0.125544 0.141107 0.125545 0.694789 -0.526619 0.000333482 -0.00124339 1.29895)
(1.07364 0.192345 0.23041 0.192346 0.750842 -0.494116 0.000544379 -0.00116672 1.29895)
(0.998117 0.235947 0.312712 0.235947 0.826362 -0.446599 0.000738745 -0.00105469 1.29895)
(0.912239 0.25109 0.385512 0.25109 0.912239 -0.385512 0.000910601 -0.000910601 1.29895)
(0.826362 0.235947 0.446599 0.235947 0.998117 -0.312712 0.00105469 -0.000738745 1.29895)
(0.750842 0.192346 0.494116 0.192345 1.07364 -0.23041 0.00116672 -0.000544379 1.29895)
(0.694789 0.125545 0.526619 0.125544 1.12969 -0.141107 0.00124339 -0.000333482 1.29895)
(0.664964 0.0436014 0.543122 0.0436012 1.15951 -0.047517 0.00128219 -0.000112307 1.29895)
(0.664964 -0.0436014 0.543122 -0.0436012 1.15951 0.047517 0.00128219 0.000112307 1.29895)
(0.694789 -0.125545 0.526619 -0.125544 1.12969 0.141107 0.00124339 0.000333482 1.29895)
(0.750842 -0.192346 0.494116 -0.192345 1.07364 0.23041 0.00116672 0.000544379 1.29895)
(0.826362 -0.235947 0.446599 -0.235947 0.998117 0.312712 0.00105469 0.000738745 1.29895)
(0.912239 -0.25109 0.385512 -0.25109 0.912239 0.385512 0.000910601 0.000910601 1.29895)
(0.998117 -0.235947 0.312712 -0.235947 0.826362 0.446599 0.000738745 0.00105469 1.29895)
(1.07364 -0.192345 0.23041 -0.192346 0.750842 0.494116 0.000544379 0.00116672 1.29895)
(1.12969 -0.125544 0.141107 -0.125545 0.694789 0.526619 0.000333482 0.00124339 1.29895)
(1.15951 -0.0436012 0.047517 -0.0436014 0.664964 0.543122 0.000112307 0.00128219 1.29895)
(1.15951 0.0436012 -0.047517 0.0436014 0.664964 0.543122 -0.000112307 0.00128219 1.29895)
(1.12969 0.125544 -0.141107 0.125545 0.694789 0.526619 -0.000333482 0.00124339 1.29895)
(1.07364 0.192345 -0.23041 0.192346 0.750842 0.494116 -0.000544379 0.00116672 1.29895)
(0.998117 0.235947 -0.312712 0.235947 0.826362 0.446599 -0.000738745 0.00105469 1.29895)
(0.912239 0.25109 -0.385512 0.25109 0.912239 0.385512 -0.000910601 0.000910601 1.29895)
(0.826362 0.235947 -0.446599 0.235947 0.998117 0.312712 -0.00105469 0.000738745 1.29895)
(0.750842 0.192346 -0.494116 0.192345 1.07364 0.23041 -0.00116672 0.000544379 1.29895)
(0.694789 0.125545 -0.526619 0.125544 1.12969 0.141107 -0.00124339 0.000333482 1.29895)
(0.664964 0.0436014 -0.543122 0.0436012 1.15951 0.047517 -0.00128219 0.000112307 1.29895)
(0.636372 -0.0513549 -0.603035 -0.0513548 1.21887 -0.0527587 -0.0139243 -0.00121829 1.31512)
(0.671501 -0.14787 -0.584712 -0.14787 1.18374 -0.156673 -0.0135013 -0.00361785 1.31512)
(0.737521 -0.226551 -0.548622 -0.22655 1.11772 -0.255827 -0.0126681 -0.00590748 1.31512)
(0.82647 -0.277905 -0.495863 -0.277905 1.02877 -0.347207 -0.0114501 -0.00801754 1.31512)
(0.92762 -0.295741 -0.428038 -0.295741 0.92762 -0.428038 -0.00988409 -0.00988409 1.31512)
(1.02877 -0.277905 -0.347207 -0.277905 0.82647 -0.495863 -0.00801754 -0.0114501 1.31512)
(1.11772 -0.22655 -0.255827 -0.226551 0.737521 -0.548622 -0.00590748 -0.0126681 1.31512)
(1.18374 -0.14787 -0.156673 -0.14787 0.671501 -0.584712 -0.00361785 -0.0135013 1.31512)
(1.21887 -0.0513548 -0.0527587 -0.0513549 0.636372 -0.603035 -0.00121829 -0.0139243 1.31512)
(1.21887 0.0513548 0.0527587 0.0513549 0.636372 -0.603035 0.00121829 -0.0139243 1.31512)
(1.18374 0.14787 0.156673 0.14787 0.671501 -0.584712 0.00361785 -0.0135013 1.31512)
(1.11772 0.22655 0.255827 0.226551 0.737521 -0.548622 0.00590748 -0.0126681 1.31512)
(1.02877 0.277905 0.347207 0.277905 0.82647 -0.495863 0.00801754 -0.0114501 1.31512)
(0.92762 0.295741 0.428038 0.295741 0.92762 -0.428038 0.00988409 -0.00988409 1.31512)
(0.82647 0.277905 0.495863 0.277905 1.02877 -0.347207 0.0114501 -0.00801754 1.31512)
(0.737521 0.226551 0.548622 0.22655 1.11772 -0.255827 0.0126681 -0.00590748 1.31512)
(0.671501 0.14787 0.584712 0.14787 1.18374 -0.156673 0.0135013 -0.00361785 1.31512)
(0.636372 0.0513549 0.603035 0.0513548 1.21887 -0.0527587 0.0139243 -0.00121829 1.31512)
(0.636372 -0.0513549 0.603035 -0.0513548 1.21887 0.0527587 0.0139243 0.00121829 1.31512)
(0.671501 -0.14787 0.584712 -0.14787 1.18374 0.156673 0.0135013 0.00361785 1.31512)
(0.737521 -0.226551 0.548622 -0.22655 1.11772 0.255827 0.0126681 0.00590748 1.31512)
(0.82647 -0.277905 0.495863 -0.277905 1.02877 0.347207 0.0114501 0.00801754 1.31512)
(0.92762 -0.295741 0.428038 -0.295741 0.92762 0.428038 0.00988409 0.00988409 1.31512)
(1.02877 -0.277905 0.347207 -0.277905 0.82647 0.495863 0.00801754 0.0114501 1.31512)
(1.11772 -0.22655 0.255827 -0.226551 0.737521 0.548622 0.00590748 0.0126681 1.31512)
(1.18374 -0.14787 0.156673 -0.14787 0.671501 0.584712 0.00361785 0.0135013 1.31512)
(1.21887 -0.0513548 0.0527587 -0.0513549 0.636372 0.603035 0.00121829 0.0139243 1.31512)
(1.21887 0.0513548 -0.0527587 0.0513549 0.636372 0.603035 -0.00121829 0.0139243 1.31512)
(1.18374 0.14787 -0.156673 0.14787 0.671501 0.584712 -0.00361785 0.0135013 1.31512)
(1.11772 0.22655 -0.255827 0.226551 0.737521 0.548622 -0.00590748 0.0126681 1.31512)
(1.02877 0.277905 -0.347207 0.277905 0.82647 0.495863 -0.00801754 0.0114501 1.31512)
(0.92762 0.295741 -0.428038 0.295741 0.92762 0.428038 -0.00988409 0.00988409 1.31512)
(0.82647 0.277905 -0.495863 0.277905 1.02877 0.347207 -0.0114501 0.00801754 1.31512)
(0.737521 0.226551 -0.548622 0.22655 1.11772 0.255827 -0.0126681 0.00590748 1.31512)
(0.671501 0.14787 -0.584712 0.14787 1.18374 0.156673 -0.0135013 0.00361785 1.31512)
(0.636372 0.0513549 -0.603035 0.0513548 1.21887 0.0527587 -0.0139243 0.00121829 1.31512)
(0.613329 -0.0606303 -0.669946 -0.06063 1.30103 -0.0586126 -0.0263558 -0.0023059 1.33149)
(0.654802 -0.174578 -0.64959 -0.174577 1.25956 -0.174057 -0.0255551 -0.00684754 1.33149)
(0.732747 -0.267468 -0.609496 -0.267468 1.18161 -0.284213 -0.023978 -0.0111811 1.33149)
(0.837761 -0.328099 -0.550884 -0.328098 1.0766 -0.385733 -0.0216723 -0.0151751 1.33149)
(0.957179 -0.349155 -0.475532 -0.349155 0.957179 -0.475532 -0.018708 -0.018708 1.33149)
(1.0766 -0.328098 -0.385733 -0.328099 0.837761 -0.550884 -0.0151751 -0.0216723 1.33149)
(1.18161 -0.267468 -0.284213 -0.267468 0.732747 -0.609496 -0.0111811 -0.023978 1.33149)
(1.25956 -0.174577 -0.174057 -0.174578 0.654802 -0.64959 -0.00684754 -0.0255551 1.33149)
(1.30103 -0.06063 -0.0586126 -0.0606303 0.613329 -0.669946 -0.0023059 -0.0263558 1.33149)
(1.30103 0.06063 0.0586126 0.0606303 0.613329 -0.669946 0.0023059 -0.0263558 1.33149)
(1.25956 0.174577 0.174057 0.174578 0.654802 -0.64959 0.00684754 -0.0255551 1.33149)
(1.18161 0.267468 0.284213 0.267468 0.732747 -0.609496 0.0111811 -0.023978 1.33149)
(1.0766 0.328098 0.385733 0.328099 0.837761 -0.550884 0.0151751 -0.0216723 1.33149)
(0.957179 0.349155 0.475532 0.349155 0.957179 -0.475532 0.018708 -0.018708 1.33149)
(0.837761 0.328099 0.550884 0.328098 1.0766 -0.385733 0.0216723 -0.0151751 1.33149)
(0.732747 0.267468 0.609496 0.267468 1.18161 -0.284213 0.023978 -0.0111811 1.33149)
(0.654802 0.174578 0.64959 0.174577 1.25956 -0.174057 0.0255551 -0.00684754 1.33149)
(0.613329 0.0606303 0.669946 0.06063 1.30103 -0.0586126 0.0263558 -0.0023059 1.33149)
(0.613329 -0.0606303 0.669946 -0.06063 1.30103 0.0586126 0.0263558 0.0023059 1.33149)
(0.654802 -0.174578 0.64959 -0.174577 1.25956 0.174057 0.0255551 0.00684754 1.33149)
(0.732747 -0.267468 0.609496 -0.267468 1.18161 0.284213 0.023978 0.0111811 1.33149)
(0.837761 -0.328099 0.550884 -0.328098 1.0766 0.385733 0.0216723 0.0151751 1.33149)
(0.957179 -0.349155 0.475532 -0.349155 0.957179 0.475532 0.018708 0.018708 1.33149)
(1.0766 -0.328098 0.385733 -0.328099 0.837761 0.550884 0.0151751 0.0216723 1.33149)
(1.18161 -0.267468 0.284213 -0.267468 0.732747 0.609496 0.0111811 0.023978 1.33149)
(1.25956 -0.174577 0.174057 -0.174578 0.654802 0.64959 0.00684754 0.0255551 1.33149)
(1.30103 -0.06063 0.0586126 -0.0606303 0.613329 0.669946 0.0023059 0.0263558 1.33149)
(1.30103 0.06063 -0.0586126 0.0606303 0.613329 0.669946 -0.0023059 0.0263558 1.33149)
(1.25956 0.174577 -0.174057 0.174578 0.654802 0.64959 -0.00684754 0.0255551 1.33149)
(1.18161 0.267468 -0.284213 0.267468 0.732747 0.609496 -0.0111811 0.023978 1.33149)
(1.0766 0.328098 -0.385733 0.328099 0.837761 0.550884 -0.0151751 0.0216723 1.33149)
(0.957179 0.349155 -0.475532 0.349155 0.957179 0.475532 -0.018708 0.018708 1.33149)
(0.837761 0.328099 -0.550884 0.328098 1.0766 0.385733 -0.0216723 0.0151751 1.33149)
(0.732747 0.267468 -0.609496 0.267468 1.18161 0.284213 -0.023978 0.0111811 1.33149)
(0.654802 0.174578 -0.64959 0.174577 1.25956 0.174057 -0.0255551 0.00684754 1.33149)
(0.613329 0.0606303 -0.669946 0.06063 1.30103 0.0586126 -0.0263558 0.0023059 1.33149)
(0.578 -0.0599116 -0.423889 -0.0599116 1.25755 -0.0370855 0.0257309 0.00225098 1.3651)
(0.618982 -0.172509 -0.411009 -0.172508 1.21657 -0.11013 0.0249489 0.00668472 1.3651)
(0.696003 -0.264298 -0.385641 -0.264298 1.13955 -0.179827 0.0234091 0.0109155 1.3651)
(0.799772 -0.32421 -0.348556 -0.324209 1.03578 -0.244062 0.021158 0.0148148 1.3651)
(0.917775 -0.345017 -0.30088 -0.345017 0.917775 -0.30088 0.0182639 0.0182639 1.3651)
(1.03578 -0.324209 -0.244062 -0.32421 0.799772 -0.348556 0.0148148 0.021158 1.3651)
(1.13955 -0.264298 -0.179827 -0.264298 0.696003 -0.385641 0.0109155 0.0234091 1.3651)
(1.21657 -0.172508 -0.11013 -0.172509 0.618982 -0.411009 0.00668472 0.0249489 1.3651)
(1.25755 -0.0599116 -0.0370855 -0.0599116 0.578 -0.423889 0.00225098 0.0257309 1.3651)
(1.25755 0.0599116 0.0370855 0.0599116 0.578 -0.423889 -0.00225098 0.0257309 1.3651)
(1.21657 0.172508 0.11013 0.172509 0.618982 -0.411009 -0.00668472 0.0249489 1.3651)
(1.13955 0.264298 0.179827 0.264298 0.696003 -0.385641 -0.0109155 0.0234091 1.3651)
(1.03578 0.324209 0.244062 0.32421 0.799772 -0.348556 -0.0148148 0.021158 1.3651)
(0.917775 0.345017 0.30088 0.345017 0.917775 -0.30088 -0.0182639 0.0182639 1.3651)
(0.799772 0.32421 0.348556 0.324209 1.03578 -0.244062 -0.021158 0.0148148 1.3651)
(0.696003 0.264298 0.385641 0.264298 1.13955 -0.179827 -0.0234091 0.0109155 1.3651)
(0.618982 0.172509 0.411009 0.172508 1.21657 -0.11013 -0.0249489 0.00668472 1.3651)
(0.578 0.0599116 0.423889 0.0599116 1.25755 -0.0370855 -0.0257309 0.00225098 1.3651)
(0.578 -0.0599116 0.423889 -0.0599116 1.25755 0.0370855 -0.0257309 -0.00225098 1.3651)
(0.618982 -0.172509 0.411009 -0.172508 1.21657 0.11013 -0.0249489 -0.00668472 1.3651)
(0.696003 -0.264298 0.385641 -0.264298 1.13955 0.179827 -0.0234091 -0.0109155 1.3651)
(0.799772 -0.32421 0.348556 -0.324209 1.03578 0.244062 -0.021158 -0.0148148 1.3651)
(0.917775 -0.345017 0.30088 -0.345017 0.917775 0.30088 -0.0182639 -0.0182639 1.3651)
(1.03578 -0.324209 0.244062 -0.32421 0.799772 0.348556 -0.0148148 -0.021158 1.3651)
(1.13955 -0.264298 0.179827 -0.264298 0.696003 0.385641 -0.0109155 -0.0234091 1.3651)
(1.21657 -0.172508 0.11013 -0.172509 0.618982 0.411009 -0.00668472 -0.0249489 1.3651)
(1.25755 -0.0599116 0.0370855 -0.0599116 0.578 0.423889 -0.00225098 -0.0257309 1.3651)
(1.25755 0.0599116 -0.0370855 0.0599116 0.578 0.423889 0.00225098 -0.0257309 1.3651)
(1.21657 0.172508 -0.11013 0.172509 0.618982 0.411009 0.00668472 -0.0249489 1.3651)
(1.13955 0.264298 -0.179827 0.264298 0.696003 0.385641 0.0109155 -0.0234091 1.3651)
(1.03578 0.324209 -0.244062 0.32421 0.799772 0.348556 0.0148148 -0.021158 1.3651)
(0.917775 0.345017 -0.30088 0.345017 0.917775 0.30088 0.0182639 -0.0182639 1.3651)
(0.799772 0.32421 -0.348556 0.324209 1.03578 0.244062 0.021158 -0.0148148 1.3651)
(0.696003 0.264298 -0.385641 0.264298 1.13955 0.179827 0.0234091 -0.0109155 1.3651)
(0.618982 0.172509 -0.411009 0.172508 1.21657 0.11013 0.0249489 -0.00668472 1.3651)
(0.578 0.0599116 -0.423889 0.0599116 1.25755 0.0370855 0.0257309 -0.00225098 1.3651)
(0.54414 -0.0699765 -0.462339 -0.069976 1.33785 -0.0404494 0.0158736 0.00138867 1.38081)
(0.592006 -0.201488 -0.44829 -0.201488 1.28998 -0.120119 0.0153911 0.00412379 1.38081)
(0.681966 -0.308698 -0.420622 -0.308697 1.20002 -0.196139 0.0144413 0.0067337 1.38081)
(0.803168 -0.378674 -0.380173 -0.378674 1.07882 -0.2662 0.0130527 0.00913924 1.38081)
(0.940994 -0.402977 -0.328172 -0.402977 0.940994 -0.328172 0.0112672 0.0112672 1.38081)
(1.07882 -0.378674 -0.2662 -0.378674 0.803168 -0.380173 0.00913924 0.0130527 1.38081)
(1.20002 -0.308697 -0.196139 -0.308698 0.681966 -0.420622 0.0067337 0.0144413 1.38081)
(1.28998 -0.201488 -0.120119 -0.201488 0.592006 -0.44829 0.00412379 0.0153911 1.38081)
(1.33785 -0.069976 -0.0404494 -0.0699765 0.54414 -0.462339 0.00138867 0.0158736 1.38081)
(1.33785 0.069976 0.0404494 0.0699765 0.54414 -0.462339 -0.00138867 0.0158736 1.38081)
(1.28998 0.201488 0.120119 0.201488 0.592006 -0.44829 -0.00412379 0.0153911 1.38081)
(1.20002 0.308697 0.196139 0.308698 0.681966 -0.420622 -0.0067337 0.0144413 1.38081)
(1.07882 0.378674 0.2662 0.378674 0.803168 -0.380173 -0.00913924 0.0130527 1.38081)
(0.940994 0.402977 0.328172 0.402977 0.940994 -0.328172 -0.0112672 0.0112672 1.38081)
(0.803168 0.378674 0.380173 0.378674 1.07882 -0.2662 -0.0130527 0.00913924 1.38081)
(0.681966 0.308698 0.420622 0.308697 1.20002 -0.196139 -0.0144413 0.0067337 1.38081)
(0.592006 0.201488 0.44829 0.201488 1.28998 -0.120119 -0.0153911 0.00412379 1.38081)
(0.54414 0.0699765 0.462339 0.069976 1.33785 -0.0404494 -0.0158736 0.00138867 1.38081)
(0.54414 -0.0699765 0.462339 -0.069976 1.33785 0.0404494 -0.0158736 -0.00138867 1.38081)
(0.592006 -0.201488 0.44829 -0.201488 1.28998 0.120119 -0.0153911 -0.00412379 1.38081)
(0.681966 -0.308698 0.420622 -0.308697 1.20002 0.196139 -0.0144413 -0.0067337 1.38081)
(0.803168 -0.378674 0.380173 -0.378674 1.07882 0.2662 -0.0130527 -0.00913924 1.38081)
(0.940994 -0.402977 0.328172 -0.402977 0.940994 0.328172 -0.0112672 -0.0112672 1.38081)
(1.07882 -0.378674 0.2662 -0.378674 0.803168 0.380173 -0.00913924 -0.0130527 1.38081)
(1.20002 -0.308697 0.196139 -0.308698 0.681966 0.420622 -0.0067337 -0.0144413 1.38081)
(1.28998 -0.201488 0.120119 -0.201488 0.592006 0.44829 -0.00412379 -0.0153911 1.38081)
(1.33785 -0.069976 0.0404494 -0.0699765 0.54414 0.462339 -0.00138867 -0.0158736 1.38081)
(1.33785 0.069976 -0.0404494 0.0699765 0.54414 0.462339 0.00138867 -0.0158736 1.38081)
(1.28998 0.201488 -0.120119 0.201488 0.592006 0.44829 0.00412379 -0.0153911 1.38081)
(1.20002 0.308697 -0.196139 0.308698 0.681966 0.420622 0.0067337 -0.0144413 1.38081)
(1.07882 0.378674 -0.2662 0.378674 0.803168 0.380173 0.00913924 -0.0130527 1.38081)
(0.940994 0.402977 -0.328172 0.402977 0.940994 0.328172 0.0112672 -0.0112672 1.38081)
(0.803168 0.378674 -0.380173 0.378674 1.07882 0.2662 0.0130527 -0.00913924 1.38081)
(0.681966 0.308698 -0.420622 0.308697 1.20002 0.196139 0.0144413 -0.0067337 1.38081)
(0.592006 0.201488 -0.44829 0.201488 1.28998 0.120119 0.0153911 -0.00412379 1.38081)
(0.54414 0.0699765 -0.462339 0.069976 1.33785 0.0404494 0.0158736 -0.00138867 1.38081)
(0.518282 -0.0818791 -0.505781 -0.0818787 1.447 -0.0442501 0.00587616 0.000514062 1.40001)
(0.57429 -0.235761 -0.490413 -0.23576 1.39099 -0.131406 0.00569753 0.00152644 1.40001)
(0.679551 -0.361207 -0.460144 -0.361206 1.28573 -0.214569 0.00534597 0.00249239 1.40001)
(0.82137 -0.443085 -0.415894 -0.443085 1.14391 -0.291212 0.00483205 0.0033829 1.40001)
(0.982639 -0.471521 -0.359007 -0.471521 0.982639 -0.359007 0.00417089 0.00417089 1.40001)
(1.14391 -0.443085 -0.291212 -0.443085 0.82137 -0.415894 0.0033829 0.00483205 1.40001)
(1.28573 -0.361206 -0.214569 -0.361207 0.679551 -0.460144 0.00249239 0.00534597 1.40001)
(1.39099 -0.23576 -0.131406 -0.235761 0.57429 -0.490413 0.00152644 0.00569753 1.40001)
(1.447 -0.0818787 -0.0442501 -0.0818791 0.518282 -0.505781 0.000514062 0.00587616 1.40001)
(1.447 0.0818787 0.0442501 0.0818791 0.518282 -0.505781 -0.000514062 0.00587616 1.40001)
(1.39099 0.23576 0.131406 0.235761 0.57429 -0.490413 -0.00152644 0.00569753 1.40001)
(1.28573 0.361206 0.214569 0.361207 0.679551 -0.460144 -0.00249239 0.00534597 1.40001)
(1.14391 0.443085 0.291212 0.443085 0.82137 -0.415894 -0.0033829 0.00483205 1.40001)
(0.982639 0.471521 0.359007 0.471521 0.982639 -0.359007 -0.00417089 0.00417089 1.40001)
(0.82137 0.443085 0.415894 0.443085 1.14391 -0.291212 -0.00483205 0.0033829 1.40001)
(0.679551 0.361207 0.460144 0.361206 1.28573 -0.214569 -0.00534597 0.00249239 1.40001)
(0.57429 0.235761 0.490413 0.23576 1.39099 -0.131406 -0.00569753 0.00152644 1.40001)
(0.518282 0.0818791 0.505781 0.0818787 1.447 -0.0442501 -0.00587616 0.000514062 1.40001)
(0.518282 -0.0818791 0.505781 -0.0818787 1.447 0.0442501 -0.00587616 -0.000514062 1.40001)
(0.57429 -0.235761 0.490413 -0.23576 1.39099 0.131406 -0.00569753 -0.00152644 1.40001)
(0.679551 -0.361207 0.460144 -0.361206 1.28573 0.214569 -0.00534597 -0.00249239 1.40001)
(0.82137 -0.443085 0.415894 -0.443085 1.14391 0.291212 -0.00483205 -0.0033829 1.40001)
(0.982639 -0.471521 0.359007 -0.471521 0.982639 0.359007 -0.00417089 -0.00417089 1.40001)
(1.14391 -0.443085 0.291212 -0.443085 0.82137 0.415894 -0.0033829 -0.00483205 1.40001)
(1.28573 -0.361206 0.214569 -0.361207 0.679551 0.460144 -0.00249239 -0.00534597 1.40001)
(1.39099 -0.23576 0.131406 -0.235761 0.57429 0.490413 -0.00152644 -0.00569753 1.40001)
(1.447 -0.0818787 0.0442501 -0.0818791 0.518282 0.505781 -0.000514062 -0.00587616 1.40001)
(1.447 0.0818787 -0.0442501 0.0818791 0.518282 0.505781 0.000514062 -0.00587616 1.40001)
(1.39099 0.23576 -0.131406 0.235761 0.57429 0.490413 0.00152644 -0.00569753 1.40001)
(1.28573 0.361206 -0.214569 0.361207 0.679551 0.460144 0.00249239 -0.00534597 1.40001)
(1.14391 0.443085 -0.291212 0.443085 0.82137 0.415894 0.0033829 -0.00483205 1.40001)
(0.982639 0.471521 -0.359007 0.471521 0.982639 0.359007 0.00417089 -0.00417089 1.40001)
(0.82137 0.443085 -0.415894 0.443085 1.14391 0.291212 0.00483205 -0.0033829 1.40001)
(0.679551 0.361207 -0.460144 0.361206 1.28573 0.214569 0.00534597 -0.00249239 1.40001)
(0.57429 0.235761 -0.490413 0.23576 1.39099 0.131406 0.00569753 -0.00152644 1.40001)
(0.518282 0.0818791 -0.505781 0.0818787 1.447 0.0442501 0.00587616 -0.000514062 1.40001)
(0.531134 -0.0705167 -0.261388 -0.0705165 1.33097 -0.0228685 0.0585507 0.0051224 1.39986)
(0.57937 -0.203045 -0.253446 -0.203045 1.28274 -0.0679105 0.0567716 0.0152117 1.39986)
(0.670025 -0.311082 -0.237803 -0.311082 1.19208 -0.110889 0.0532676 0.0248389 1.39986)
(0.792163 -0.381599 -0.214934 -0.381599 1.06994 -0.150499 0.0481449 0.0337112 1.39986)
(0.931053 -0.406089 -0.185535 -0.406089 0.931053 -0.185535 0.0415595 0.0415595 1.39986)
(1.06994 -0.381599 -0.150499 -0.381599 0.792163 -0.214934 0.0337112 0.0481449 1.39986)
(1.19208 -0.311082 -0.110889 -0.311082 0.670025 -0.237803 0.0248389 0.0532676 1.39986)
(1.28274 -0.203045 -0.0679105 -0.203045 0.57937 -0.253446 0.0152117 0.0567716 1.39986)
(1.33097 -0.0705165 -0.0228685 -0.0705167 0.531134 -0.261388 0.0051224 0.0585507 1.39986)
(1.33097 0.0705165 0.0228685 0.0705167 0.531134 -0.261388 -0.0051224 0.0585507 1.39986)
(1.28274 0.203045 0.0679105 0.203045 0.57937 -0.253446 -0.0152117 0.0567716 1.39986)