/*--------------------------------*- C++ -*----------------------------------*\
| =========                 |                                                 |
| \\      /  F ield         | OpenFOAM: The Open Source CFD Toolbox           |
|  \\    /   O peration     | Version:  2312                                  |
|   \\  /    A nd           | Website:  www.openfoam.com                      |
|    \\/     M anipulation  |                                                 |
\*---------------------------------------------------------------------------*/
FoamFile
{
    version     2.0;
    format      ascii;
    arch        "LSB;label=32;scalar=64";
    class       volSymmTensorField;
    location    "1";
    object      sigma;
}
// * * * * * * * * * * * * * * * * * * * * * * * * * * * * * * * * * * * * * //

dimensions      [1 -1 -2 0 0 0 0];

internalField   nonuniform List<symmTensor> 
1620
(
(17383.7 282.83 -8673.69 14175.7 -758.851 24399.1)
(17190.2 814.376 -8410.15 14369.1 -2253.49 24399.1)
(16826.7 1247.69 -7891.07 14732.8 -3679.66 24399.2)
(16336.7 1530.52 -7132.21 15222.6 -4994.03 24399.1)
(15779.5 1628.74 -6156.65 15779.5 -6156.65 24398.9)
(15222.6 1530.52 -4994.03 16336.7 -7132.21 24399.1)
(14732.8 1247.69 -3679.66 16826.7 -7891.07 24399.2)
(14369.1 814.376 -2253.49 17190.2 -8410.15 24399.1)
(14175.7 282.83 -758.851 17383.7 -8673.69 24399.1)
(14175.7 -282.83 758.851 17383.7 -8673.69 24399.1)
(14369.1 -814.376 2253.49 17190.2 -8410.15 24399.1)
(14732.8 -1247.69 3679.66 16826.7 -7891.07 24399.2)
(15222.6 -1530.52 4994.03 16336.7 -7132.21 24399.1)
(15779.5 -1628.74 6156.65 15779.5 -6156.65 24398.9)
(16336.7 -1530.52 7132.21 15222.6 -4994.03 24399.1)
(16826.7 -1247.69 7891.07 14732.8 -3679.66 24399.2)
(17190.2 -814.376 8410.15 14369.1 -2253.49 24399.1)
(17383.7 -282.83 8673.69 14175.7 -758.851 24399.1)
(17383.7 282.83 8673.69 14175.7 758.851 24399.1)
(17190.2 814.376 8410.15 14369.1 2253.49 24399.1)
(16826.7 1247.69 7891.07 14732.8 3679.66 24399.2)
(16336.7 1530.52 7132.21 15222.6 4994.03 24399.1)
(15779.5 1628.74 6156.65 15779.5 6156.65 24398.9)
(15222.6 1530.52 4994.03 16336.7 7132.21 24399.1)
(14732.8 1247.69 3679.66 16826.7 7891.07 24399.2)
(14369.1 814.376 2253.49 17190.2 8410.15 24399.1)
(14175.7 282.83 758.851 17383.7 8673.69 24399.1)
(14175.7 -282.83 -758.851 17383.7 8673.69 24399.1)
(14369.1 -814.376 -2253.49 17190.2 8410.15 24399.1)
(14732.8 -1247.69 -3679.66 16826.7 7891.07 24399.2)
(15222.6 -1530.52 -4994.03 16336.7 7132.21 24399.1)
(15779.5 -1628.74 -6156.65 15779.5 6156.65 24398.9)
(16336.7 -1530.52 -7132.21 15222.6 4994.03 24399.1)
(16826.7 -1247.69 -7891.07 14732.8 3679.66 24399.2)
(17190.2 -814.376 -8410.15 14369.1 2253.49 24399.1)
(17383.7 -282.83 -8673.69 14175.7 758.851 24399.1)
(26162.8 427.207 -11896.1 21317.2 -1040.77 34450.3)
(25870.4 1230.09 -11534.6 21609.2 -3090.69 34450.1)
(25321.1 1884.59 -10822.7 22158.3 -5046.69 34450)
(24581.2 2311.79 -9781.9 22898.4 -6849.35 34450.1)
(23739.8 2460.16 -8443.91 23739.8 -8443.91 34450)
(22898.4 2311.79 -6849.35 24581.2 -9781.9 34450.1)
(22158.3 1884.59 -5046.69 25321.1 -10822.7 34450)
(21609.2 1230.09 -3090.69 25870.4 -11534.6 34450.1)
(21317.2 427.207 -1040.77 26162.8 -11896.1 34450.3)
(21317.2 -427.207 1040.77 26162.8 -11896.1 34450.3)
(21609.2 -1230.09 3090.69 25870.4 -11534.6 34450.1)
(22158.3 -1884.59 5046.69 25321.1 -10822.7 34450)
(22898.4 -2311.79 6849.35 24581.2 -9781.9 34450.1)
(23739.8 -2460.16 8443.91 23739.8 -8443.91 34450)
(24581.2 -2311.79 9781.9 22898.4 -6849.35 34450.1)
(25321.1 -1884.59 10822.7 22158.3 -5046.69 34450)
(25870.4 -1230.09 11534.6 21609.2 -3090.69 34450.1)
(26162.8 -427.207 11896.1 21317.2 -1040.77 34450.3)
(26162.8 427.207 11896.1 21317.2 1040.77 34450.3)
(25870.4 1230.09 11534.6 21609.2 3090.69 34450.1)
(25321.1 1884.59 10822.7 22158.3 5046.69 34450)
(24581.2 2311.79 9781.9 22898.4 6849.35 34450.1)
(23739.8 2460.16 8443.91 23739.8 8443.91 34450)
(22898.4 2311.79 6849.35 24581.2 9781.9 34450.1)
(22158.3 1884.59 5046.69 25321.1 10822.7 34450)
(21609.2 1230.09 3090.69 25870.4 11534.6 34450.1)
(21317.2 427.207 1040.77 26162.8 11896.1 34450.3)
(21317.2 -427.207 -1040.77 26162.8 11896.1 34450.3)
(21609.2 -1230.09 -3090.69 25870.4 11534.6 34450.1)
(22158.3 -1884.59 -5046.69 25321.1 10822.7 34450)
(22898.4 -2311.79 -6849.35 24581.2 9781.9 34450.1)
(23739.8 -2460.16 -8443.91 23739.8 8443.91 34450)
(24581.2 -2311.79 -9781.9 22898.4 6849.35 34450.1)
(25321.1 -1884.59 -10822.7 22158.3 5046.69 34450)
(25870.4 -1230.09 -11534.6 21609.2 3090.69 34450.1)
(26162.8 -427.207 -11896.1 21317.2 1040.77 34450.3)
(43881.5 654.847 -17119 36453.9 -1497.72 53644.5)
(43433.5 1885.54 -16598.8 36901.8 -4447.64 53644.4)
(42591.6 2888.8 -15574.3 37743.6 -7262.41 53644.4)
(41457.4 3543.64 -14076.6 38877.8 -9856.53 53644.4)
(40167.7 3771.07 -12151.2 40167.7 -12151.2 53644.5)
(38877.8 3543.64 -9856.53 41457.4 -14076.6 53644.4)
(37743.6 2888.8 -7262.41 42591.6 -15574.3 53644.4)
(36901.8 1885.54 -4447.64 43433.5 -16598.8 53644.4)
(36453.9 654.847 -1497.72 43881.5 -17119 53644.5)
(36453.9 -654.847 1497.72 43881.5 -17119 53644.5)
(36901.8 -1885.54 4447.64 43433.5 -16598.8 53644.4)
(37743.6 -2888.8 7262.41 42591.6 -15574.3 53644.4)
(38877.8 -3543.64 9856.53 41457.4 -14076.6 53644.4)
(40167.7 -3771.07 12151.2 40167.7 -12151.2 53644.5)
(41457.4 -3543.64 14076.6 38877.8 -9856.53 53644.4)
(42591.6 -2888.8 15574.3 37743.6 -7262.41 53644.4)
(43433.5 -1885.54 16598.8 36901.8 -4447.64 53644.4)
(43881.5 -654.847 17119 36453.9 -1497.72 53644.5)
(43881.5 654.847 17119 36453.9 1497.72 53644.5)
(43433.5 1885.54 16598.8 36901.8 4447.64 53644.4)
(42591.6 2888.8 15574.3 37743.6 7262.41 53644.4)
(41457.4 3543.64 14076.6 38877.8 9856.53 53644.4)
(40167.7 3771.07 12151.2 40167.7 12151.2 53644.5)
(38877.8 3543.64 9856.53 41457.4 14076.6 53644.4)
(37743.6 2888.8 7262.41 42591.6 15574.3 53644.4)
(36901.8 1885.54 4447.64 43433.5 16598.8 53644.4)
(36453.9 654.847 1497.72 43881.5 17119 53644.5)
(36453.9 -654.847 -1497.72 43881.5 17119 53644.5)
(36901.8 -1885.54 -4447.64 43433.5 16598.8 53644.4)
(37743.6 -2888.8 -7262.41 42591.6 15574.3 53644.4)
(38877.8 -3543.64 -9856.53 41457.4 14076.6 53644.4)
(40167.7 -3771.07 -12151.2 40167.7 12151.2 53644.5)
(41457.4 -3543.64 -14076.6 38877.8 9856.53 53644.4)
(42591.6 -2888.8 -15574.3 37743.6 7262.41 53644.4)
(43433.5 -1885.54 -16598.8 36901.8 4447.64 53644.4)
(43881.5 -654.847 -17119 36453.9 1497.72 53644.5)
(-5596.83 -112.282 -7615.06 -4323.27 -666.232 4666.77)
(-5520.08 -323.299 -7383.68 -4400.13 -1978.46 4666.73)
(-5375.67 -495.324 -6927.95 -4544.41 -3230.56 4666.8)
(-5181.55 -607.609 -6261.72 -4739.25 -4384.5 4666.43)
(-4960.44 -646.604 -5405.23 -4960.44 -5405.23 4666.39)
(-4739.25 -607.609 -4384.5 -5181.55 -6261.72 4666.43)
(-4544.41 -495.324 -3230.56 -5375.67 -6927.95 4666.8)
(-4400.13 -323.299 -1978.46 -5520.08 -7383.68 4666.73)
(-4323.27 -112.282 -666.232 -5596.83 -7615.06 4666.77)
(-4323.27 112.282 666.232 -5596.83 -7615.06 4666.77)
(-4400.13 323.299 1978.46 -5520.08 -7383.68 4666.73)
(-4544.41 495.324 3230.56 -5375.67 -6927.95 4666.8)
(-4739.25 607.609 4384.5 -5181.55 -6261.72 4666.43)
(-4960.44 646.604 5405.23 -4960.44 -5405.23 4666.39)
(-5181.55 607.609 6261.72 -4739.25 -4384.5 4666.43)
(-5375.67 495.324 6927.95 -4544.41 -3230.56 4666.8)
(-5520.08 323.299 7383.68 -4400.13 -1978.46 4666.73)
(-5596.83 112.282 7615.06 -4323.27 -666.232 4666.77)
(-5596.83 -112.282 7615.06 -4323.27 666.232 4666.77)
(-5520.08 -323.299 7383.68 -4400.13 1978.46 4666.73)
(-5375.67 -495.324 6927.95 -4544.41 3230.56 4666.8)
(-5181.55 -607.609 6261.72 -4739.25 4384.5 4666.43)
(-4960.44 -646.604 5405.23 -4960.44 5405.23 4666.39)
(-4739.25 -607.609 4384.5 -5181.55 6261.72 4666.43)
(-4544.41 -495.324 3230.56 -5375.67 6927.95 4666.8)
(-4400.13 -323.299 1978.46 -5520.08 7383.68 4666.73)
(-4323.27 -112.282 666.232 -5596.83 7615.06 4666.77)
(-4323.27 112.282 -666.232 -5596.83 7615.06 4666.77)
(-4400.13 323.299 -1978.46 -5520.08 7383.68 4666.73)
(-4544.41 495.324 -3230.56 -5375.67 6927.95 4666.8)
(-4739.25 607.609 -4384.5 -5181.55 6261.72 4666.43)
(-4960.44 646.604 -5405.23 -4960.44 5405.23 4666.39)
(-5181.55 607.609 -6261.72 -4739.25 4384.5 4666.43)
(-5375.67 495.324 -6927.95 -4544.41 3230.56 4666.8)
(-5520.08 323.299 -7383.68 -4400.13 1978.46 4666.73)
(-5596.83 112.282 -7615.06 -4323.27 666.232 4666.77)
(1349.39 -204.395 -10275 3667.75 -898.947 13684.4)
(1489.27 -588.529 -9962.8 3528 -2669.53 13684.5)
(1752.1 -901.689 -9347.88 3265.3 -4358.99 13684.6)
(2106.42 -1106.09 -8448.94 2911.59 -5916.01 13684.9)
(2508.91 -1177.08 -7293.28 2508.91 -7293.28 13684.8)
(2911.59 -1106.09 -5916.01 2106.42 -8448.94 13684.9)
(3265.3 -901.689 -4358.99 1752.1 -9347.88 13684.6)
(3528 -588.529 -2669.53 1489.27 -9962.8 13684.5)
(3667.75 -204.395 -898.947 1349.39 -10275 13684.4)
(3667.75 204.395 898.947 1349.39 -10275 13684.4)
(3528 588.529 2669.53 1489.27 -9962.8 13684.5)
(3265.3 901.689 4358.99 1752.1 -9347.88 13684.6)
(2911.59 1106.09 5916.01 2106.42 -8448.94 13684.9)
(2508.91 1177.08 7293.28 2508.91 -7293.28 13684.8)
(2106.42 1106.09 8448.94 2911.59 -5916.01 13684.9)
(1752.1 901.689 9347.88 3265.3 -4358.99 13684.6)
(1489.27 588.529 9962.8 3528 -2669.53 13684.5)
(1349.39 204.395 10275 3667.75 -898.947 13684.4)
(1349.39 -204.395 10275 3667.75 898.947 13684.4)
(1489.27 -588.529 9962.8 3528 2669.53 13684.5)
(1752.1 -901.689 9347.88 3265.3 4358.99 13684.6)
(2106.42 -1106.09 8448.94 2911.59 5916.01 13684.9)
(2508.91 -1177.08 7293.28 2508.91 7293.28 13684.8)
(2911.59 -1106.09 5916.01 2106.42 8448.94 13684.9)
(3265.3 -901.689 4358.99 1752.1 9347.88 13684.6)
(3528 -588.529 2669.53 1489.27 9962.8 13684.5)
(3667.75 -204.395 898.947 1349.39 10275 13684.4)
(3667.75 204.395 -898.947 1349.39 10275 13684.4)
(3528 588.529 -2669.53 1489.27 9962.8 13684.5)
(3265.3 901.689 -4358.99 1752.1 9347.88 13684.6)
(2911.59 1106.09 -5916.01 2106.42 8448.94 13684.9)
(2508.91 1177.08 -7293.28 2508.91 7293.28 13684.8)
(2106.42 1106.09 -8448.94 2911.59 5916.01 13684.9)
(1752.1 901.689 -9347.88 3265.3 4358.99 13684.6)
(1489.27 588.529 -9962.8 3528 2669.53 13684.5)
(1349.39 204.395 -10275 3667.75 898.947 13684.4)
(26740.9 -470.171 -15054.4 32073.8 -1317.09 42476.1)
(27062.3 -1353.79 -14597 31752 -3911.24 42475.9)
(27666.8 -2074.14 -13696 31147.6 -6386.56 42476)
(28480.7 -2544.31 -12378.9 30332.8 -8667.83 42475.5)
(29407 -2707.61 -10685.7 29407 -10685.7 42475.8)
(30332.8 -2544.31 -8667.83 28480.7 -12378.9 42475.5)
(31147.6 -2074.14 -6386.56 27666.8 -13696 42476)
(31752 -1353.79 -3911.24 27062.3 -14597 42475.9)
(32073.8 -470.171 -1317.09 26740.9 -15054.4 42476.1)
(32073.8 470.171 1317.09 26740.9 -15054.4 42476.1)
(31752 1353.79 3911.24 27062.3 -14597 42475.9)
(31147.6 2074.14 6386.56 27666.8 -13696 42476)
(30332.8 2544.31 8667.83 28480.7 -12378.9 42475.5)
(29407 2707.61 10685.7 29407 -10685.7 42475.8)
(28480.7 2544.31 12378.9 30332.8 -8667.83 42475.5)
(27666.8 2074.14 13696 31147.6 -6386.56 42476)
(27062.3 1353.79 14597 31752 -3911.24 42475.9)
(26740.9 470.171 15054.4 32073.8 -1317.09 42476.1)
(26740.9 -470.171 15054.4 32073.8 1317.09 42476.1)
(27062.3 -1353.79 14597 31752 3911.24 42475.9)
(27666.8 -2074.14 13696 31147.6 6386.56 42476)
(28480.7 -2544.31 12378.9 30332.8 8667.83 42475.5)
(29407 -2707.61 10685.7 29407 10685.7 42475.8)
(30332.8 -2544.31 8667.83 28480.7 12378.9 42475.5)
(31147.6 -2074.14 6386.56 27666.8 13696 42476)
(31752 -1353.79 3911.24 27062.3 14597 42475.9)
(32073.8 -470.171 1317.09 26740.9 15054.4 42476.1)
(32073.8 470.171 -1317.09 26740.9 15054.4 42476.1)
(31752 1353.79 -3911.24 27062.3 14597 42475.9)
(31147.6 2074.14 -6386.56 27666.8 13696 42476)
(30332.8 2544.31 -8667.83 28480.7 12378.9 42475.5)
(29407 2707.61 -10685.7 29407 10685.7 42475.8)
(28480.7 2544.31 -12378.9 30332.8 8667.83 42475.5)
(27666.8 2074.14 -13696 31147.6 6386.56 42476)
(27062.3 1353.79 -14597 31752 3911.24 42475.9)
(26740.9 470.171 -15054.4 32073.8 1317.09 42476.1)
(-6226.08 -626.206 -6363.38 876.697 -556.728 9010.05)
(-5797.79 -1803.09 -6170.03 448.287 -1653.26 9009.99)
(-4992.55 -2762.49 -5789.21 -356.546 -2699.56 9010.19)
(-3907.98 -3388.7 -5232.49 -1441.21 -3663.83 9010.14)
(-2674.41 -3606.18 -4516.78 -2674.41 -4516.78 9010.32)
(-1441.21 -3388.7 -3663.83 -3907.98 -5232.49 9010.14)
(-356.546 -2762.49 -2699.56 -4992.55 -5789.21 9010.19)
(448.287 -1803.09 -1653.26 -5797.79 -6170.03 9009.99)
(876.697 -626.206 -556.728 -6226.08 -6363.38 9010.05)
(876.697 626.206 556.728 -6226.08 -6363.38 9010.05)
(448.287 1803.09 1653.26 -5797.79 -6170.03 9009.99)
(-356.546 2762.49 2699.56 -4992.55 -5789.21 9010.19)
(-1441.21 3388.7 3663.83 -3907.98 -5232.49 9010.14)
(-2674.41 3606.18 4516.78 -2674.41 -4516.78 9010.32)
(-3907.98 3388.7 5232.49 -1441.21 -3663.83 9010.14)
(-4992.55 2762.49 5789.21 -356.546 -2699.56 9010.19)
(-5797.79 1803.09 6170.03 448.287 -1653.26 9009.99)
(-6226.08 626.206 6363.38 876.697 -556.728 9010.05)
(-6226.08 -626.206 6363.38 876.697 556.728 9010.05)
(-5797.79 -1803.09 6170.03 448.287 1653.26 9009.99)
(-4992.55 -2762.49 5789.21 -356.546 2699.56 9010.19)
(-3907.98 -3388.7 5232.49 -1441.21 3663.83 9010.14)
(-2674.41 -3606.18 4516.78 -2674.41 4516.78 9010.32)
(-1441.21 -3388.7 3663.83 -3907.98 5232.49 9010.14)
(-356.546 -2762.49 2699.56 -4992.55 5789.21 9010.19)
(448.287 -1803.09 1653.26 -5797.79 6170.03 9009.99)
(876.697 -626.206 556.728 -6226.08 6363.38 9010.05)
(876.697 626.206 -556.728 -6226.08 6363.38 9010.05)
(448.287 1803.09 -1653.26 -5797.79 6170.03 9009.99)
(-356.546 2762.49 -2699.56 -4992.55 5789.21 9010.19)
(-1441.21 3388.7 -3663.83 -3907.98 5232.49 9010.14)
(-2674.41 3606.18 -4516.78 -2674.41 4516.78 9010.32)
(-3907.98 3388.7 -5232.49 -1441.21 3663.83 9010.14)
(-4992.55 2762.49 -5789.21 -356.546 2699.56 9010.19)
(-5797.79 1803.09 -6170.03 448.287 1653.26 9009.99)
(-6226.08 626.206 -6363.38 876.697 556.728 9010.05)
(-1930.45 -1073.12 -8411.72 10241.4 -735.93 16699.5)
(-1196.27 -3089.9 -8156.13 9507.47 -2185.44 16699.7)
(183.215 -4734.01 -7652.72 8127.81 -3568.53 16699.6)
(2041.92 -5807.13 -6916.8 6269.17 -4843.2 16699.6)
(4155.2 -6179.81 -5970.71 4155.2 -5970.71 16699.3)
(6269.17 -5807.13 -4843.2 2041.92 -6916.8 16699.6)
(8127.81 -4734.01 -3568.53 183.215 -7652.72 16699.6)
(9507.47 -3089.9 -2185.44 -1196.27 -8156.13 16699.7)
(10241.4 -1073.12 -735.93 -1930.45 -8411.72 16699.5)
(10241.4 1073.12 735.93 -1930.45 -8411.72 16699.5)
(9507.47 3089.9 2185.44 -1196.27 -8156.13 16699.7)
(8127.81 4734.01 3568.53 183.215 -7652.72 16699.6)
(6269.17 5807.13 4843.2 2041.92 -6916.8 16699.6)
(4155.2 6179.81 5970.71 4155.2 -5970.71 16699.3)
(2041.92 5807.13 6916.8 6269.17 -4843.2 16699.6)
(183.215 4734.01 7652.72 8127.81 -3568.53 16699.6)
(-1196.27 3089.9 8156.13 9507.47 -2185.44 16699.7)
(-1930.45 1073.12 8411.72 10241.4 -735.93 16699.5)
(-1930.45 -1073.12 8411.72 10241.4 735.93 16699.5)
(-1196.27 -3089.9 8156.13 9507.47 2185.44 16699.7)
(183.215 -4734.01 7652.72 8127.81 3568.53 16699.6)
(2041.92 -5807.13 6916.8 6269.17 4843.2 16699.6)
(4155.2 -6179.81 5970.71 4155.2 5970.71 16699.3)
(6269.17 -5807.13 4843.2 2041.92 6916.8 16699.6)
(8127.81 -4734.01 3568.53 183.215 7652.72 16699.6)
(9507.47 -3089.9 2185.44 -1196.27 8156.13 16699.7)
(10241.4 -1073.12 735.93 -1930.45 8411.72 16699.5)
(10241.4 1073.12 -735.93 -1930.45 8411.72 16699.5)
(9507.47 3089.9 -2185.44 -1196.27 8156.13 16699.7)
(8127.81 4734.01 -3568.53 183.215 7652.72 16699.6)
(6269.17 5807.13 -4843.2 2041.92 6916.8 16699.6)
(4155.2 6179.81 -5970.71 4155.2 5970.71 16699.3)
(2041.92 5807.13 -6916.8 6269.17 4843.2 16699.6)
(183.215 4734.01 -7652.72 8127.81 3568.53 16699.6)
(-1196.27 3089.9 -8156.13 9507.47 2185.44 16699.7)
(-1930.45 1073.12 -8411.72 10241.4 735.93 16699.5)
(26885.2 -2233.1 -12739 52214.2 -1114.52 52725.3)
(28412.7 -6429.95 -12351.9 50686.6 -3309.71 52725.2)
(31283.6 -9851.27 -11589.5 47816 -5404.32 52725.4)
(35151.4 -12084.4 -10475 43948.1 -7334.72 52725.3)
(39550 -12859.9 -9042.24 39550 -9042.24 52725.5)
(43948.1 -12084.4 -7334.72 35151.4 -10475 52725.3)
(47816 -9851.27 -5404.32 31283.6 -11589.5 52725.4)
(50686.6 -6429.95 -3309.71 28412.7 -12351.9 52725.2)
(52214.2 -2233.1 -1114.52 26885.2 -12739 52725.3)
(52214.2 2233.1 1114.52 26885.2 -12739 52725.3)
(50686.6 6429.95 3309.71 28412.7 -12351.9 52725.2)
(47816 9851.27 5404.32 31283.6 -11589.5 52725.4)
(43948.1 12084.4 7334.72 35151.4 -10475 52725.3)
(39550 12859.9 9042.24 39550 -9042.24 52725.5)
(35151.4 12084.4 10475 43948.1 -7334.72 52725.3)
(31283.6 9851.27 11589.5 47816 -5404.32 52725.4)
(28412.7 6429.95 12351.9 50686.6 -3309.71 52725.2)
(26885.2 2233.1 12739 52214.2 -1114.52 52725.3)
(26885.2 -2233.1 12739 52214.2 1114.52 52725.3)
(28412.7 -6429.95 12351.9 50686.6 3309.71 52725.2)
(31283.6 -9851.27 11589.5 47816 5404.32 52725.4)
(35151.4 -12084.4 10475 43948.1 7334.72 52725.3)
(39550 -12859.9 9042.24 39550 9042.24 52725.5)
(43948.1 -12084.4 7334.72 35151.4 10475 52725.3)
(47816 -9851.27 5404.32 31283.6 11589.5 52725.4)
(50686.6 -6429.95 3309.71 28412.7 12351.9 52725.2)
(52214.2 -2233.1 1114.52 26885.2 12739 52725.3)
(52214.2 2233.1 -1114.52 26885.2 12739 52725.3)
(50686.6 6429.95 -3309.71 28412.7 12351.9 52725.2)
(47816 9851.27 -5404.32 31283.6 11589.5 52725.4)
(43948.1 12084.4 -7334.72 35151.4 10475 52725.3)
(39550 12859.9 -9042.24 39550 9042.24 52725.5)
(35151.4 12084.4 -10475 43948.1 7334.72 52725.3)
(31283.6 9851.27 -11589.5 47816 5404.32 52725.4)
(28412.7 6429.95 -12351.9 50686.6 3309.71 52725.2)
(26885.2 2233.1 -12739 52214.2 1114.52 52725.3)
(-7204.51 -1149.8 -3814.5 5837.12 -333.73 11116.2)
(-6417.74 -3310.71 -3698.6 5050.88 -991.042 11116.5)
(-4939.73 -5072.3 -3470.32 3572.59 -1618.24 11116.3)
(-2948.33 -6222.11 -3136.59 1580.98 -2196.27 11116.2)
(-683.567 -6621.43 -2707.57 -683.567 -2707.57 11116.3)
(1580.98 -6222.11 -2196.27 -2948.33 -3136.59 11116.2)
(3572.59 -5072.3 -1618.24 -4939.73 -3470.32 11116.3)
(5050.88 -3310.71 -991.042 -6417.74 -3698.6 11116.5)
(5837.12 -1149.8 -333.73 -7204.51 -3814.5 11116.2)
(5837.12 1149.8 333.73 -7204.51 -3814.5 11116.2)
(5050.88 3310.71 991.042 -6417.74 -3698.6 11116.5)
(3572.59 5072.3 1618.24 -4939.73 -3470.32 11116.3)
(1580.98 6222.11 2196.27 -2948.33 -3136.59 11116.2)
(-683.567 6621.43 2707.57 -683.567 -2707.57 11116.3)
(-2948.33 6222.11 3136.59 1580.98 -2196.27 11116.2)
(-4939.73 5072.3 3470.32 3572.59 -1618.24 11116.3)
(-6417.74 3310.71 3698.6 5050.88 -991.042 11116.5)
(-7204.51 1149.8 3814.5 5837.12 -333.73 11116.2)
(-7204.51 -1149.8 3814.5 5837.12 333.73 11116.2)
(-6417.74 -3310.71 3698.6 5050.88 991.042 11116.5)
(-4939.73 -5072.3 3470.32 3572.59 1618.24 11116.3)
(-2948.33 -6222.11 3136.59 1580.98 2196.27 11116.2)
(-683.567 -6621.43 2707.57 -683.567 2707.57 11116.3)
(1580.98 -6222.11 2196.27 -2948.33 3136.59 11116.2)
(3572.59 -5072.3 1618.24 -4939.73 3470.32 11116.3)
(5050.88 -3310.71 991.042 -6417.74 3698.6 11116.5)
(5837.12 -1149.8 333.73 -7204.51 3814.5 11116.2)
(5837.12 1149.8 -333.73 -7204.51 3814.5 11116.2)
(5050.88 3310.71 -991.042 -6417.74 3698.6 11116.5)
(3572.59 5072.3 -1618.24 -4939.73 3470.32 11116.3)
(1580.98 6222.11 -2196.27 -2948.33 3136.59 11116.2)
(-683.567 6621.43 -2707.57 -683.567 2707.57 11116.3)
(-2948.33 6222.11 -3136.59 1580.98 2196.27 11116.2)
(-4939.73 5072.3 -3470.32 3572.59 1618.24 11116.3)
(-6417.74 3310.71 -3698.6 5050.88 991.042 11116.5)
(-7204.51 1149.8 -3814.5 5837.12 333.73 11116.2)
(-3318.7 -2023.04 -5219.3 19627.8 -456.636 20237.6)
(-1934.94 -5825.12 -5060.72 18243.8 -1356.02 20237.5)
(665.883 -8924.61 -4748.36 15643.1 -2214.21 20237.5)
(4169.85 -10947.7 -4291.74 12139.1 -3005.12 20237.5)
(8154.71 -11650.3 -3704.71 8154.71 -3704.71 20237.7)
(12139.1 -10947.7 -3005.12 4169.85 -4291.74 20237.5)
(15643.1 -8924.61 -2214.21 665.883 -4748.36 20237.5)
(18243.8 -5825.12 -1356.02 -1934.94 -5060.72 20237.5)
(19627.8 -2023.04 -456.636 -3318.7 -5219.3 20237.6)
(19627.8 2023.04 456.636 -3318.7 -5219.3 20237.6)
(18243.8 5825.12 1356.02 -1934.94 -5060.72 20237.5)
(15643.1 8924.61 2214.21 665.883 -4748.36 20237.5)
(12139.1 10947.7 3005.12 4169.85 -4291.74 20237.5)
(8154.71 11650.3 3704.71 8154.71 -3704.71 20237.7)
(4169.85 10947.7 4291.74 12139.1 -3005.12 20237.5)
(665.883 8924.61 4748.36 15643.1 -2214.21 20237.5)
(-1934.94 5825.12 5060.72 18243.8 -1356.02 20237.5)
(-3318.7 2023.04 5219.3 19627.8 -456.636 20237.6)
(-3318.7 -2023.04 5219.3 19627.8 456.636 20237.6)
(-1934.94 -5825.12 5060.72 18243.8 1356.02 20237.5)
(665.883 -8924.61 4748.36 15643.1 2214.21 20237.5)
(4169.85 -10947.7 4291.74 12139.1 3005.12 20237.5)
(8154.71 -11650.3 3704.71 8154.71 3704.71 20237.7)
(12139.1 -10947.7 3005.12 4169.85 4291.74 20237.5)
(15643.1 -8924.61 2214.21 665.883 4748.36 20237.5)
(18243.8 -5825.12 1356.02 -1934.94 5060.72 20237.5)
(19627.8 -2023.04 456.636 -3318.7 5219.3 20237.6)
(19627.8 2023.04 -456.636 -3318.7 5219.3 20237.6)
(18243.8 5825.12 -1356.02 -1934.94 5060.72 20237.5)
(15643.1 8924.61 -2214.21 665.883 4748.36 20237.5)
(12139.1 10947.7 -3005.12 4169.85 4291.74 20237.5)
(8154.71 11650.3 -3704.71 8154.71 3704.71 20237.7)
(4169.85 10947.7 -4291.74 12139.1 3005.12 20237.5)
(665.883 8924.61 -4748.36 15643.1 2214.21 20237.5)
(-1934.94 5825.12 -5060.72 18243.8 1356.02 20237.5)
(-3318.7 2023.04 -5219.3 19627.8 456.636 20237.6)
(26149.7 -4512.03 -8664.15 77327.6 -758.026 62488.7)
(29236.5 -12991.9 -8400.9 74241.6 -2251.04 62489.1)
(35036.8 -19904.7 -7882.38 68440.8 -3675.63 62488.8)
(42851.6 -24416.7 -7124.38 60625.5 -4988.54 62488.6)
(51738.9 -25983.8 -6149.9 51738.9 -6149.9 62488.8)
(60625.5 -24416.7 -4988.54 42851.6 -7124.38 62488.6)
(68440.8 -19904.7 -3675.63 35036.8 -7882.38 62488.8)
(74241.6 -12991.9 -2251.04 29236.5 -8400.9 62489.1)
(77327.6 -4512.03 -758.026 26149.7 -8664.15 62488.7)
(77327.6 4512.03 758.026 26149.7 -8664.15 62488.7)
(74241.6 12991.9 2251.04 29236.5 -8400.9 62489.1)
(68440.8 19904.7 3675.63 35036.8 -7882.38 62488.8)
(60625.5 24416.7 4988.54 42851.6 -7124.38 62488.6)
(51738.9 25983.8 6149.9 51738.9 -6149.9 62488.8)
(42851.6 24416.7 7124.38 60625.5 -4988.54 62488.6)
(35036.8 19904.7 7882.38 68440.8 -3675.63 62488.8)
(29236.5 12991.9 8400.9 74241.6 -2251.04 62489.1)
(26149.7 4512.03 8664.15 77327.6 -758.026 62488.7)
(26149.7 -4512.03 8664.15 77327.6 758.026 62488.7)
(29236.5 -12991.9 8400.9 74241.6 2251.04 62489.1)
(35036.8 -19904.7 7882.38 68440.8 3675.63 62488.8)
(42851.6 -24416.7 7124.38 60625.5 4988.54 62488.6)
(51738.9 -25983.8 6149.9 51738.9 6149.9 62488.8)
(60625.5 -24416.7 4988.54 42851.6 7124.38 62488.6)
(68440.8 -19904.7 3675.63 35036.8 7882.38 62488.8)
(74241.6 -12991.9 2251.04 29236.5 8400.9 62489.1)
(77327.6 -4512.03 758.026 26149.7 8664.15 62488.7)
(77327.6 4512.03 -758.026 26149.7 8664.15 62488.7)
(74241.6 12991.9 -2251.04 29236.5 8400.9 62489.1)
(68440.8 19904.7 -3675.63 35036.8 7882.38 62488.8)
(60625.5 24416.7 -4988.54 42851.6 7124.38 62488.6)
(51738.9 25983.8 -6149.9 51738.9 6149.9 62488.8)
(42851.6 24416.7 -7124.38 60625.5 4988.54 62488.6)
(35036.8 19904.7 -7882.38 68440.8 3675.63 62488.8)
(29236.5 12991.9 -8400.9 74241.6 2251.04 62489.1)
(26149.7 4512.03 -8664.15 77327.6 758.026 62488.7)
(-8051.22 -1536.59 -943.3 9377.58 -82.5324 11334.1)
(-7000.1 -4424.42 -914.643 8326.52 -245.089 11334.2)
(-5024.75 -6778.61 -858.188 6351.08 -400.19 11334.1)
(-2363.2 -8315.2 -775.659 3689.76 -543.134 11334.2)
(663.091 -8848.85 -669.57 663.091 -669.57 11334)
(3689.76 -8315.2 -543.134 -2363.2 -775.659 11334.2)
(6351.08 -6778.61 -400.19 -5024.75 -858.188 11334.1)
(8326.52 -4424.42 -245.089 -7000.1 -914.643 11334.2)
(9377.58 -1536.59 -82.5324 -8051.22 -943.3 11334.1)
(9377.58 1536.59 82.5324 -8051.22 -943.3 11334.1)
(8326.52 4424.42 245.089 -7000.1 -914.643 11334.2)
(6351.08 6778.61 400.19 -5024.75 -858.188 11334.1)
(3689.76 8315.2 543.134 -2363.2 -775.659 11334.2)
(663.091 8848.85 669.57 663.091 -669.57 11334)
(-2363.2 8315.2 775.659 3689.76 -543.134 11334.2)
(-5024.75 6778.61 858.188 6351.08 -400.19 11334.1)
(-7000.1 4424.42 914.643 8326.52 -245.089 11334.2)
(-8051.22 1536.59 943.3 9377.58 -82.5324 11334.1)
(-8051.22 -1536.59 943.3 9377.58 82.5324 11334.1)
(-7000.1 -4424.42 914.643 8326.52 245.089 11334.2)
(-5024.75 -6778.61 858.188 6351.08 400.19 11334.1)
(-2363.2 -8315.2 775.659 3689.76 543.134 11334.2)
(663.091 -8848.85 669.57 663.091 669.57 11334)
(3689.76 -8315.2 543.134 -2363.2 775.659 11334.2)
(6351.08 -6778.61 400.19 -5024.75 858.188 11334.1)
(8326.52 -4424.42 245.089 -7000.1 914.643 11334.2)
(9377.58 -1536.59 82.5324 -8051.22 943.3 11334.1)
(9377.58 1536.59 -82.5324 -8051.22 943.3 11334.1)
(8326.52 4424.42 -245.089 -7000.1 914.643 11334.2)
(6351.08 6778.61 -400.19 -5024.75 858.188 11334.1)
(3689.76 8315.2 -543.134 -2363.2 775.659 11334.2)
(663.091 8848.85 -669.57 663.091 669.57 11334)
(-2363.2 8315.2 -775.659 3689.76 543.134 11334.2)
(-5024.75 6778.61 -858.188 6351.08 400.19 11334.1)
(-7000.1 4424.42 -914.643 8326.52 245.089 11334.2)
(-8051.22 1536.59 -943.3 9377.58 82.5324 11334.1)
(-2849.29 -2823.6 -1436.57 29177.6 -125.69 23503.6)
(-917.61 -8130.26 -1392.92 27246.4 -373.244 23503.8)
(2712.17 -12456.3 -1306.94 23616.2 -609.457 23503.6)
(7602.76 -15279.9 -1181.26 18725.6 -827.136 23503.6)
(13164.3 -16260.5 -1019.69 13164.3 -1019.69 23503.7)
(18725.6 -15279.9 -827.136 7602.76 -1181.26 23503.6)
(23616.2 -12456.3 -609.457 2712.17 -1306.94 23503.6)
(27246.4 -8130.26 -373.244 -917.61 -1392.92 23503.8)
(29177.6 -2823.6 -125.69 -2849.29 -1436.57 23503.6)
(29177.6 2823.6 125.69 -2849.29 -1436.57 23503.6)
(27246.4 8130.26 373.244 -917.61 -1392.92 23503.8)
(23616.2 12456.3 609.457 2712.17 -1306.94 23503.6)
(18725.6 15279.9 827.136 7602.76 -1181.26 23503.6)
(13164.3 16260.5 1019.69 13164.3 -1019.69 23503.7)
(7602.76 15279.9 1181.26 18725.6 -827.136 23503.6)
(2712.17 12456.3 1306.94 23616.2 -609.457 23503.6)
(-917.61 8130.26 1392.92 27246.4 -373.244 23503.8)
(-2849.29 2823.6 1436.57 29177.6 -125.69 23503.6)
(-2849.29 -2823.6 1436.57 29177.6 125.69 23503.6)
(-917.61 -8130.26 1392.92 27246.4 373.244 23503.8)
(2712.17 -12456.3 1306.94 23616.2 609.457 23503.6)
(7602.76 -15279.9 1181.26 18725.6 827.136 23503.6)
(13164.3 -16260.5 1019.69 13164.3 1019.69 23503.7)
(18725.6 -15279.9 827.136 7602.76 1181.26 23503.6)
(23616.2 -12456.3 609.457 2712.17 1306.94 23503.6)
(27246.4 -8130.26 373.244 -917.61 1392.92 23503.8)
(29177.6 -2823.6 125.69 -2849.29 1436.57 23503.6)
(29177.6 2823.6 -125.69 -2849.29 1436.57 23503.6)
(27246.4 8130.26 -373.244 -917.61 1392.92 23503.8)
(23616.2 12456.3 -609.457 2712.17 1306.94 23503.6)
(18725.6 15279.9 -827.136 7602.76 1181.26 23503.6)
(13164.3 16260.5 -1019.69 13164.3 1019.69 23503.7)
(7602.76 15279.9 -1181.26 18725.6 827.136 23503.6)
(2712.17 12456.3 -1306.94 23616.2 609.457 23503.6)
(-917.61 8130.26 -1392.92 27246.4 373.244 23503.8)
(-2849.29 2823.6 -1436.57 29177.6 125.69 23503.6)
(25386.3 -6837.85 -2804.31 102945 -245.351 70224.7)
(30063.7 -19688.8 -2719.11 98267.7 -728.605 70224.6)
(38854.2 -30165 -2551.27 89477.1 -1189.72 70224.6)
(50697.7 -37002.9 -2305.94 77633.6 -1614.65 70224.6)
(64165.5 -39377.7 -1990.54 64165.5 -1990.54 70224.5)
(77633.6 -37002.9 -1614.65 50697.7 -2305.94 70224.6)
(89477.1 -30165 -1189.72 38854.2 -2551.27 70224.6)
(98267.7 -19688.8 -728.605 30063.7 -2719.11 70224.6)
(102945 -6837.85 -245.351 25386.3 -2804.31 70224.7)
(102945 6837.85 245.351 25386.3 -2804.31 70224.7)
(98267.7 19688.8 728.605 30063.7 -2719.11 70224.6)
(89477.1 30165 1189.72 38854.2 -2551.27 70224.6)
(77633.6 37002.9 1614.65 50697.7 -2305.94 70224.6)
(64165.5 39377.7 1990.54 64165.5 -1990.54 70224.5)
(50697.7 37002.9 2305.94 77633.6 -1614.65 70224.6)
(38854.2 30165 2551.27 89477.1 -1189.72 70224.6)
(30063.7 19688.8 2719.11 98267.7 -728.605 70224.6)
(25386.3 6837.85 2804.31 102945 -245.351 70224.7)
(25386.3 -6837.85 2804.31 102945 245.351 70224.7)
(30063.7 -19688.8 2719.11 98267.7 728.605 70224.6)
(38854.2 -30165 2551.27 89477.1 1189.72 70224.6)
(50697.7 -37002.9 2305.94 77633.6 1614.65 70224.6)
(64165.5 -39377.7 1990.54 64165.5 1990.54 70224.5)
(77633.6 -37002.9 1614.65 50697.7 2305.94 70224.6)
(89477.1 -30165 1189.72 38854.2 2551.27 70224.6)
(98267.7 -19688.8 728.605 30063.7 2719.11 70224.6)
(102945 -6837.85 245.351 25386.3 2804.31 70224.7)
(102945 6837.85 -245.351 25386.3 2804.31 70224.7)
(98267.7 19688.8 -728.605 30063.7 2719.11 70224.6)
(89477.1 30165 -1189.72 38854.2 2551.27 70224.6)
(77633.6 37002.9 -1614.65 50697.7 2305.94 70224.6)
(64165.5 39377.7 -1990.54 64165.5 1990.54 70224.5)
(50697.7 37002.9 -2305.94 77633.6 1614.65 70224.6)
(38854.2 30165 -2551.27 89477.1 1189.72 70224.6)
(30063.7 19688.8 -2719.11 98267.7 728.605 70224.6)
(25386.3 6837.85 -2804.31 102945 245.351 70224.7)
(-8590.21 -1723.36 1661 10957.1 145.315 10151.9)
(-7411.13 -4962.21 1610.54 9778.45 431.532 10152.1)
(-5195.72 -7602.55 1511.13 7562.84 704.642 10152)
(-2210.7 -9325.9 1365.81 4578 956.337 10152.1)
(1183.75 -9924.42 1178.98 1183.75 1178.98 10152.2)
(4578 -9325.9 956.337 -2210.7 1365.81 10152.1)
(7562.84 -7602.55 704.642 -5195.72 1511.13 10152)
(9778.45 -4962.21 431.532 -7411.13 1610.54 10152.1)
(10957.1 -1723.36 145.315 -8590.21 1661 10151.9)
(10957.1 1723.36 -145.315 -8590.21 1661 10151.9)
(9778.45 4962.21 -431.532 -7411.13 1610.54 10152.1)
(7562.84 7602.55 -704.642 -5195.72 1511.13 10152)
(4578 9325.9 -956.337 -2210.7 1365.81 10152.1)
(1183.75 9924.42 -1178.98 1183.75 1178.98 10152.2)
(-2210.7 9325.9 -1365.81 4578 956.337 10152.1)
(-5195.72 7602.55 -1511.13 7562.84 704.642 10152)
(-7411.13 4962.21 -1610.54 9778.45 431.532 10152.1)
(-8590.21 1723.36 -1661 10957.1 145.315 10151.9)
(-8590.21 -1723.36 -1661 10957.1 -145.315 10151.9)
(-7411.13 -4962.21 -1610.54 9778.45 -431.532 10152.1)
(-5195.72 -7602.55 -1511.13 7562.84 -704.642 10152)
(-2210.7 -9325.9 -1365.81 4578 -956.337 10152.1)
(1183.75 -9924.42 -1178.98 1183.75 -1178.98 10152.2)
(4578 -9325.9 -956.337 -2210.7 -1365.81 10152.1)
(7562.84 -7602.55 -704.642 -5195.72 -1511.13 10152)
(9778.45 -4962.21 -431.532 -7411.13 -1610.54 10152.1)
(10957.1 -1723.36 -145.315 -8590.21 -1661 10151.9)
(10957.1 1723.36 145.315 -8590.21 -1661 10151.9)
(9778.45 4962.21 431.532 -7411.13 -1610.54 10152.1)
(7562.84 7602.55 704.642 -5195.72 -1511.13 10152)
(4578 9325.9 956.337 -2210.7 -1365.81 10152.1)