# Probe 0 (0 0 0.007)
# Probe 1 (0 0 0)
# Probe 2 (0.019999 0 0.007)
# Probe 3 (0.019999 0 0)
# Probe 4 (0 0.003 0.007)
# Probe 5 (0 0.003 0)
# Probe 6 (0.019999 0.003 0.007)
# Probe 7 (0.019999 0.003 0)
# Probe 8 (0.01 0.0015 0.0035)
# Time        0             1             2             3             4             5             6             7             8            
0.055         0.00118848    0.0310356     0.0329454     0.044434      0.00931727    0.0325245     0.0342025     0.045386      0.0207634    
