/*--------------------------------*- C++ -*----------------------------------*\
| =========                 |                                                 |
| \\      /  F ield         | OpenFOAM: The Open Source CFD Toolbox           |
|  \\    /   O peration     | Version:  2312                                  |
|   \\  /    A nd           | Website:  www.openfoam.com                      |
|    \\/     M anipulation  |                                                 |
\*---------------------------------------------------------------------------*/
FoamFile
{
    version     2.0;
    format      ascii;
    arch        "LSB;label=32;scalar=64";
    class       volVectorField;
    location    "0.6";
    object      D;
}
// * * * * * * * * * * * * * * * * * * * * * * * * * * * * * * * * * * * * * //

dimensions      [0 1 0 0 0 0 0];

internalField   nonuniform List<vector> 
1620
(
(0.000465504 -9.90928e-05 0.000105735)
(0.000401036 -0.000140794 -1.23694e-05)
(0.000329816 -0.000197922 -9.50944e-05)
(0.000265832 -0.000233568 -0.000136775)
(0.000216617 -0.000241463 -0.000150524)
(0.000184532 -0.000229446 -0.000147424)
(0.00016798 -0.000205116 -0.000133633)
(0.000161728 -0.000171764 -0.000113155)
(0.000157836 -0.000130008 -8.89953e-05)
(0.000147277 -7.99313e-05 -6.28513e-05)
(0.000121467 -2.19519e-05 -3.45813e-05)
(7.32388e-05 4.29102e-05 -1.88767e-06)
(-2.46704e-06 0.000111729 3.95723e-05)
(-0.000107004 0.000176261 9.46537e-05)
(-0.000233925 0.000219592 0.000163364)
(-0.000363392 0.000220539 0.000230343)
(-0.000462167 0.000173559 0.000258382)
(-0.000496742 0.000114331 0.000212266)
(-0.000465504 9.90928e-05 0.000105735)
(-0.000401036 0.000140794 -1.23694e-05)
(-0.000329816 0.000197922 -9.50944e-05)
(-0.000265832 0.000233568 -0.000136775)
(-0.000216617 0.000241463 -0.000150524)
(-0.000184532 0.000229446 -0.000147424)
(-0.00016798 0.000205116 -0.000133633)
(-0.000161728 0.000171764 -0.000113155)
(-0.000157836 0.000130008 -8.89953e-05)
(-0.000147277 7.99313e-05 -6.28513e-05)
(-0.000121467 2.19519e-05 -3.45813e-05)
(-7.32388e-05 -4.29102e-05 -1.88767e-06)
(2.46704e-06 -0.000111729 3.95723e-05)
(0.000107004 -0.000176261 9.46537e-05)
(0.000233925 -0.000219592 0.000163364)
(0.000363392 -0.000220539 0.000230343)
(0.000462167 -0.000173559 0.000258382)
(0.000496742 -0.000114331 0.000212266)
(0.000380449 -0.000186754 7.05077e-05)
(0.000387764 -0.00021007 2.16912e-05)
(0.000379193 -0.00021401 -2.02528e-05)
(0.000355749 -0.000192672 -5.34148e-05)
(0.000320826 -0.000155437 -7.97761e-05)
(0.000280481 -0.000113876 -9.83663e-05)
(0.000240448 -7.44679e-05 -0.000107371)
(0.000203143 -3.83976e-05 -0.000106338)
(0.000167088 -4.38036e-06 -9.61058e-05)
(0.000128312 2.88354e-05 -7.78963e-05)
(8.24421e-05 6.13587e-05 -5.27702e-05)
(2.65721e-05 9.21877e-05 -2.15839e-05)
(-3.95775e-05 0.000119656 1.47159e-05)
(-0.000113406 0.000141572 5.43255e-05)
(-0.000189725 0.000155278 9.29066e-05)
(-0.000261148 0.000159414 0.000121703)
(-0.000319184 0.000158642 0.000129441)
(-0.000358433 0.00016614 0.00011093)
(-0.000380449 0.000186754 7.05077e-05)
(-0.000387764 0.00021007 2.16912e-05)
(-0.000379193 0.00021401 -2.02528e-05)
(-0.000355749 0.000192672 -5.34148e-05)
(-0.000320826 0.000155437 -7.97761e-05)
(-0.000280481 0.000113876 -9.83663e-05)
(-0.000240448 7.44679e-05 -0.000107371)
(-0.000203143 3.83976e-05 -0.000106338)
(-0.000167088 4.38036e-06 -9.61058e-05)
(-0.000128312 -2.88354e-05 -7.78963e-05)
(-8.24421e-05 -6.13587e-05 -5.27702e-05)
(-2.65721e-05 -9.21877e-05 -2.15839e-05)
(3.95775e-05 -0.000119656 1.47159e-05)
(0.000113406 -0.000141572 5.43255e-05)
(0.000189725 -0.000155278 9.29066e-05)
(0.000261148 -0.000159414 0.000121703)
(0.000319184 -0.000158642 0.000129441)
(0.000358433 -0.00016614 0.00011093)
(0.000271761 -0.000233717 3.23617e-05)
(0.000325664 -0.000253797 2.62378e-05)
(0.000368307 -0.000228129 1.29917e-05)
(0.000389014 -0.00016935 -1.21341e-05)
(0.000383003 -9.74201e-05 -4.55865e-05)
(0.000353353 -2.77911e-05 -7.83336e-05)
(0.000307336 3.12475e-05 -0.00010217)
(0.000251876 7.67085e-05 -0.000112567)
(0.000191561 0.000108213 -0.000108315)
(0.000128996 0.00012611 -9.04618e-05)
(6.61816e-05 0.000130828 -6.18488e-05)
(5.78009e-06 0.000123396 -2.71529e-05)
(-4.85541e-05 0.000106831 7.29619e-06)
(-9.32668e-05 8.76491e-05 3.45996e-05)
(-0.000127069 7.62478e-05 4.94004e-05)
(-0.000153071 8.48579e-05 5.06826e-05)
(-0.000179856 0.00012168 4.40425e-05)
(-0.000218938 0.000180271 3.75929e-05)
(-0.000271761 0.000233717 3.23617e-05)
(-0.000325664 0.000253797 2.62378e-05)
(-0.000368307 0.000228129 1.29917e-05)
(-0.000389014 0.00016935 -1.21341e-05)
(-0.000383003 9.74201e-05 -4.55865e-05)
(-0.000353353 2.77911e-05 -7.83336e-05)
(-0.000307336 -3.12475e-05 -0.00010217)
(-0.000251876 -7.67085e-05 -0.000112567)
(-0.000191561 -0.000108213 -0.000108315)
(-0.000128996 -0.00012611 -9.04618e-05)
(-6.61816e-05 -0.000130828 -6.18488e-05)
(-5.78009e-06 -0.000123396 -2.71529e-05)
(4.85541e-05 -0.000106831 7.29619e-06)
(9.32668e-05 -8.76491e-05 3.45996e-05)
(0.000127069 -7.62477e-05 4.94004e-05)
(0.000153071 -8.48579e-05 5.06826e-05)
(0.000179856 -0.00012168 4.40425e-05)
(0.000218938 -0.000180271 3.75929e-05)
(0.00123225 -0.000475511 0.00036622)
(0.00114709 -0.000581201 3.00881e-05)
(0.00101741 -0.000658737 -0.000234796)
(0.000878267 -0.000659486 -0.000405391)
(0.000748612 -0.000598847 -0.000496692)
(0.000639555 -0.000509633 -0.000526876)
(0.000556633 -0.000412863 -0.000511716)
(0.000496003 -0.000314043 -0.000465258)
(0.000444233 -0.00021078 -0.000398557)
(0.000382177 -9.96721e-05 -0.000317636)
(0.000290003 2.08046e-05 -0.000222217)
(0.000151446 0.000150081 -0.000105803)
(-4.3158e-05 0.000284736 4.2153e-05)
(-0.000293852 0.000414022 0.000229993)
(-0.00058523 0.000513257 0.000450172)
(-0.000878421 0.000548009 0.000657918)
(-0.0011132 0.000506895 0.00075902)
(-0.00123465 0.000448245 0.000653699)
(-0.00123225 0.000475511 0.00036622)
(-0.00114709 0.000581201 3.00881e-05)
(-0.00101741 0.000658737 -0.000234796)
(-0.000878267 0.000659486 -0.000405391)
(-0.000748612 0.000598847 -0.000496692)
(-0.000639555 0.000509633 -0.000526876)
(-0.000556634 0.000412863 -0.000511716)
(-0.000496003 0.000314043 -0.000465258)
(-0.000444233 0.00021078 -0.000398557)
(-0.000382177 9.96721e-05 -0.000317636)
(-0.000290003 -2.08046e-05 -0.000222217)
(-0.000151446 -0.000150081 -0.000105803)
(4.3158e-05 -0.000284736 4.2153e-05)
(0.000293852 -0.000414022 0.000229993)
(0.00058523 -0.000513257 0.000450172)
(0.000878421 -0.000548009 0.000657918)
(0.0011132 -0.000506895 0.00075902)
(0.00123465 -0.000448245 0.000653699)
(0.0010853 -0.000607881 0.000324083)
(0.0011034 -0.000676243 0.000145844)
(0.00107953 -0.000675278 -1.92781e-05)
(0.00101654 -0.000603113 -0.000159141)
(0.000922421 -0.000488517 -0.000267142)
(0.00081271 -0.000362499 -0.000337477)
(0.000701437 -0.000242152 -0.000368596)
(0.000593926 -0.00013163 -0.000363424)
(0.00048608 -2.92717e-05 -0.000326645)
(0.000368045 6.67167e-05 -0.000262178)
(0.000229369 0.000155985 -0.000172276)
(6.37099e-05 0.000236607 -5.8214e-05)
(-0.000128234 0.000306838 7.77983e-05)
(-0.000338245 0.000365815 0.000229431)
(-0.000551728 0.000412456 0.000381133)
(-0.000749421 0.000446439 0.000501829)
(-0.000911401 0.000476157 0.000545239)
(-0.00102304 0.00052763 0.000476448)
(-0.0010853 0.000607881 0.000324083)
(-0.0011034 0.000676243 0.000145844)
(-0.00107953 0.000675278 -1.92781e-05)
(-0.00101654 0.000603113 -0.000159141)
(-0.000922421 0.000488517 -0.000267142)
(-0.00081271 0.000362499 -0.000337477)
(-0.000701437 0.000242152 -0.000368596)
(-0.000593926 0.00013163 -0.000363424)
(-0.00048608 2.92717e-05 -0.000326645)
(-0.000368045 -6.67167e-05 -0.000262178)
(-0.000229369 -0.000155985 -0.000172276)
(-6.37099e-05 -0.000236607 -5.8214e-05)
(0.000128234 -0.000306838 7.77983e-05)
(0.000338245 -0.000365815 0.000229431)
(0.000551728 -0.000412456 0.000381133)
(0.000749421 -0.000446439 0.000501829)
(0.000911401 -0.000476157 0.000545239)
(0.00102304 -0.00052763 0.000476448)
(0.000871397 -0.000693515 0.000265523)
(0.000979129 -0.000746416 0.000214402)
(0.00105703 -0.000696544 0.000138838)
(0.0010778 -0.000572177 3.31063e-05)
(0.0010372 -0.00041322 -8.26997e-05)
(0.000948669 -0.000250641 -0.000183143)
(0.000828991 -0.000101246 -0.000250565)
(0.000689723 2.8021e-05 -0.000276854)
(0.000535908 0.000134487 -0.000260339)
(0.000368709 0.000216208 -0.000203166)
(0.000189387 0.000270932 -0.000110792)
(2.99246e-06 0.000297533 6.92735e-06)
(-0.000179944 0.000299565 0.000134654)
(-0.000345482 0.000289407 0.000252376)
(-0.000482298 0.000289442 0.000339154)
(-0.000588509 0.000326445 0.000378867)
(-0.000675011 0.000418684 0.000367259)
(-0.000763293 0.000561079 0.000320296)
(-0.000871397 0.000693515 0.000265523)
(-0.000979129 0.000746416 0.000214402)
(-0.00105703 0.000696544 0.000138838)
(-0.0010778 0.000572177 3.31063e-05)
(-0.0010372 0.00041322 -8.26997e-05)
(-0.000948669 0.000250641 -0.000183143)
(-0.000828991 0.000101246 -0.000250565)
(-0.000689723 -2.8021e-05 -0.000276854)
(-0.000535908 -0.000134487 -0.000260339)
(-0.000368709 -0.000216208 -0.000203166)
(-0.000189387 -0.000270932 -0.000110792)
(-2.99246e-06 -0.000297533 6.92735e-06)
(0.000179944 -0.000299565 0.000134654)
(0.000345482 -0.000289407 0.000252376)
(0.000482298 -0.000289442 0.000339154)
(0.000588509 -0.000326445 0.000378867)
(0.000675011 -0.000418684 0.000367259)
(0.000763293 -0.000561079 0.000320296)
(0.00188618 -0.00103375 0.000792932)
(0.00179528 -0.00114071 0.000215828)
(0.00162145 -0.00117021 -0.000288035)
(0.00141978 -0.00110373 -0.000651229)
(0.00122142 -0.000968728 -0.000873275)
(0.00104516 -0.000806138 -0.000976988)
(0.000900708 -0.000641268 -0.0009899)
(0.000785134 -0.000480159 -0.00093705)
(0.000682094 -0.000318423 -0.000836967)
(0.000566119 -0.000149921 -0.000698771)
(0.000409643 2.88619e-05 -0.000520835)
(0.000190145 0.00021808 -0.000292052)
(-0.000104295 0.000414378 2.53934e-06)
(-0.000470929 0.000607347 0.000369324)
(-0.000887215 0.000773419 0.000784955)
(-0.0013043 0.000880604 0.00117005)
(-0.00164934 0.000920711 0.00137837)
(-0.0018492 0.000950222 0.00125426)
(-0.00188618 0.00103375 0.000792932)
(-0.00179528 0.00114071 0.000215828)
(-0.00162145 0.00117021 -0.000288035)
(-0.00141978 0.00110373 -0.000651229)
(-0.00122142 0.000968728 -0.000873275)
(-0.00104516 0.000806138 -0.000976988)
(-0.000900708 0.000641268 -0.0009899)
(-0.000785134 0.000480159 -0.00093705)
(-0.000682094 0.000318423 -0.000836967)
(-0.000566119 0.000149921 -0.000698771)
(-0.000409643 -2.88618e-05 -0.000520835)
(-0.000190145 -0.00021808 -0.000292052)
(0.000104295 -0.000414378 2.53933e-06)
(0.000470929 -0.000607347 0.000369324)
(0.000887215 -0.000773419 0.000784955)
(0.0013043 -0.000880604 0.00117005)
(0.00164934 -0.000920711 0.00137837)
(0.0018492 -0.000950222 0.00125426)
(0.00168962 -0.00106897 0.00074848)
(0.00172157 -0.00114612 0.000404075)
(0.00168187 -0.00112129 6.02108e-05)
(0.00158118 -0.00100207 -0.000231338)
(0.00143702 -0.000824856 -0.000450384)
(0.00127168 -0.000628891 -0.000590724)
(0.00110239 -0.000437104 -0.000655538)
(0.000934743 -0.000257042 -0.00065312)
(0.000762749 -8.86895e-05 -0.000592053)
(0.000573232 6.90059e-05 -0.000477983)
(0.000352316 0.000215155 -0.000313002)
(9.18242e-05 0.000347376 -9.78066e-05)
(-0.00020633 0.000464084 0.000163512)
(-0.000529129 0.000565938 0.000456598)
(-0.000854287 0.000655298 0.000749094)
(-0.00115393 0.000737306 0.000985329)
(-0.00140172 0.000825384 0.00109194)
(-0.00158125 0.000938701 0.00100722)
(-0.00168962 0.00106897 0.00074848)
(-0.00172157 0.00114612 0.000404075)
(-0.00168187 0.00112129 6.02108e-05)
(-0.00158118 0.00100207 -0.000231338)
(-0.00143702 0.000824856 -0.000450384)
(-0.00127168 0.000628891 -0.000590724)
(-0.00110239 0.000437104 -0.000655538)
(-0.000934743 0.000257042 -0.00065312)
(-0.000762749 8.86895e-05 -0.000592053)
(-0.000573232 -6.90059e-05 -0.000477983)
(-0.000352316 -0.000215154 -0.000313002)
(-9.18243e-05 -0.000347376 -9.78066e-05)
(0.00020633 -0.000464084 0.000163512)
(0.000529129 -0.000565938 0.000456598)
(0.000854287 -0.000655298 0.000749094)
(0.00115393 -0.000737306 0.000985329)
(0.00140172 -0.000825384 0.00109194)
(0.00158125 -0.000938701 0.00100722)
(0.00139177 -0.00108059 0.000658414)
(0.00153839 -0.00115438 0.000522189)
(0.00163335 -0.00110086 0.00034101)
(0.00164468 -0.00094488 0.000131737)
(0.00157416 -0.000732459 -7.23122e-05)
(0.00144175 -0.000503132 -0.000238156)
(0.00126776 -0.000280582 -0.000344685)
(0.00106448 -7.70009e-05 -0.000382939)
(0.000836355 0.000100638 -0.000351401)
(0.000583954 0.000246903 -0.00025266)
(0.000308786 0.000356999 -9.33666e-05)
(1.77694e-05 0.000428444 0.000113108)
(-0.00027439 0.000465204 0.000343383)
(-0.000547208 0.000482889 0.000563667)
(-0.000781852 0.000510249 0.000736032)
(-0.000970185 0.000580503 0.000830904)
(-0.00111923 0.000711785 0.000837553)
(-0.00124859 0.000899049 0.000766327)
(-0.00139177 0.00108059 0.000658414)
(-0.00153839 0.00115438 0.000522189)
(-0.00163335 0.00110086 0.00034101)
(-0.00164468 0.000944881 0.000131737)
(-0.00157416 0.000732459 -7.23122e-05)
(-0.00144175 0.000503132 -0.000238156)
(-0.00126776 0.000280582 -0.000344685)
(-0.00106448 7.70009e-05 -0.000382939)
(-0.000836355 -0.000100638 -0.000351401)
(-0.000583954 -0.000246903 -0.00025266)
(-0.000308786 -0.000356999 -9.33666e-05)
(-1.77694e-05 -0.000428444 0.000113108)
(0.00027439 -0.000465204 0.000343383)
(0.000547208 -0.000482889 0.000563667)
(0.000781852 -0.000510249 0.000736032)
(0.000970185 -0.000580503 0.000830904)
(0.00111923 -0.000711785 0.000837553)
(0.00124859 -0.000899049 0.000766327)
(0.00237 -0.00168418 0.00127513)
(0.00228309 -0.00174528 0.000518969)
(0.0020851 -0.00170722 -0.000205454)
(0.00184079 -0.00157619 -0.000772912)
(0.00159533 -0.00138092 -0.00114803)
(0.00137254 -0.0011588 -0.00135085)
(0.00118131 -0.000934265 -0.00141821)
(0.00101756 -0.000714259 -0.00138341)
(0.000864075 -0.000494929 -0.00126934)
(0.000693853 -0.000269662 -0.00108604)
(0.000477104 -3.41134e-05 -0.000830342)
(0.000189655 0.000212349 -0.000488891)
(-0.000179991 0.000466677 -4.7382e-05)
(-0.000625842 0.000720377 0.000491404)
(-0.0011202 0.000957227 0.00108211)
(-0.00161049 0.00116127 0.00161538)
(-0.00202437 0.00134072 0.00192119)
(-0.00228809 0.0015292 0.00182164)
(-0.00237 0.00168418 0.00127513)
(-0.00228309 0.00174528 0.000518969)
(-0.0020851 0.00170722 -0.000205454)
(-0.00184079 0.00157619 -0.000772912)
(-0.00159533 0.00138092 -0.00114803)
(-0.00137254 0.0011588 -0.00135085)
(-0.00118131 0.000934265 -0.00141821)
(-0.00101756 0.000714259 -0.00138341)
(-0.000864075 0.000494929 -0.00126934)
(-0.000693853 0.000269662 -0.00108604)
(-0.000477104 3.41134e-05 -0.000830342)
(-0.000189655 -0.000212349 -0.000488891)
(0.000179991 -0.000466677 -4.7382e-05)
(0.000625842 -0.000720377 0.000491404)
(0.0011202 -0.000957227 0.00108211)
(0.00161049 -0.00116127 0.00161538)
(0.00202437 -0.00134072 0.00192119)
(0.00228809 -0.0015292 0.00182164)
(0.00216081 -0.00152995 0.00120439)
(0.00219344 -0.00160043 0.000722616)
(0.00213082 -0.00154796 0.000217836)
(0.00199592 -0.00139373 -0.000222225)
(0.00181474 -0.00117529 -0.000556583)
(0.00161172 -0.00093087 -0.00077494)
(0.00140248 -0.000684631 -0.00088386)
(0.00119058 -0.00044671 -0.000895593)
(0.00096867 -0.000219537 -0.000821121)
(0.0007226 -3.56523e-06 -0.000666866)
(0.000437683 0.000199713 -0.000434737)
(0.000105276 0.000387808 -0.000125841)
(-0.000272254 0.000559247 0.000251986)
(-0.000679653 0.00071535 0.000674066)
(-0.00109005 0.000860861 0.00109025)
(-0.00146948 0.00100574 0.00142493)
(-0.00178646 0.00116713 0.00159272)
(-0.0020219 0.00135624 0.00152481)
(-0.00216081 0.00152995 0.00120439)
(-0.00219344 0.00160043 0.000722616)
(-0.00213082 0.00154796 0.000217836)
(-0.00199592 0.00139373 -0.000222225)
(-0.00181474 0.00117529 -0.000556583)
(-0.00161172 0.00093087 -0.00077494)
(-0.00140248 0.000684631 -0.00088386)
(-0.00119058 0.00044671 -0.000895593)
(-0.00096867 0.000219537 -0.000821121)
(-0.0007226 3.56524e-06 -0.000666866)
(-0.000437683 -0.000199712 -0.000434737)
(-0.000105276 -0.000387808 -0.000125841)
(0.000272254 -0.000559247 0.000251986)
(0.000679653 -0.00071535 0.000674066)
(0.00109005 -0.000860861 0.00109025)
(0.00146948 -0.00100574 0.00142493)
(0.00178646 -0.00116713 0.00159272)
(0.0020219 -0.00135624 0.00152481)
(0.00187277 -0.00140141 0.00107889)
(0.00200233 -0.00148559 0.000856589)
(0.00207076 -0.00143224 0.000576841)
(0.00205347 -0.00126416 0.000275522)
(0.00195329 -0.00102563 -5.95524e-06)
(0.00178906 -0.000757271 -0.000229236)
(0.00157911 -0.000485585 -0.000370396)
(0.00133354 -0.000226186 -0.000419804)
(0.00105522 1.04541e-05 -0.000376235)
(0.000744046 0.000216005 -0.000242918)
(0.000401598 0.00038393 -2.77389e-05)
(3.49616e-05 0.000511099 0.000252947)
(-0.0003409 0.000601343 0.000569112)
(-0.000704152 0.000670114 0.000875456)
(-0.00103217 0.000745399 0.00111994)
(-0.0013101 0.000857687 0.00126249)
(-0.00153582 0.00102066 0.00129133)
(-0.00171897 0.00121843 0.00122289)
(-0.00187277 0.00140141 0.00107889)
(-0.00200233 0.00148559 0.000856589)
(-0.00207076 0.00143224 0.000576841)
(-0.00205347 0.00126416 0.000275522)
(-0.00195329 0.00102563 -5.95523e-06)
(-0.00178906 0.000757271 -0.000229236)
(-0.00157911 0.000485585 -0.000370396)
(-0.00133354 0.000226186 -0.000419804)
(-0.00105522 -1.04541e-05 -0.000376235)
(-0.000744046 -0.000216005 -0.000242918)
(-0.000401598 -0.00038393 -2.77389e-05)
(-3.49616e-05 -0.000511099 0.000252947)
(0.0003409 -0.000601343 0.000569112)
(0.000704152 -0.000670114 0.000875456)
(0.00103217 -0.000745399 0.00111994)
(0.0013101 -0.000857687 0.00126249)
(0.00153582 -0.00102066 0.00129133)
(0.00171897 -0.00121843 0.00122289)
(0.00266856 -0.00216589 0.00168401)
(0.00260232 -0.00224647 0.000872144)
(0.00239587 -0.00219642 1.47952e-06)
(0.00212647 -0.00204291 -0.000732639)
(0.00185356 -0.00181983 -0.00124947)
(0.00160422 -0.00156162 -0.00155598)
(0.00138326 -0.00129245 -0.00169096)
(0.00118324 -0.00102199 -0.00169124)
(0.000986701 -0.00074939 -0.00158119)
(0.000768333 -0.000469801 -0.00137101)
(0.000500659 -0.000179275 -0.00105763)
(0.000161749 0.000123328 -0.000629326)
(-0.000257786 0.000436061 -7.70053e-05)
(-0.000749508 0.00075311 0.000584545)
(-0.00128302 0.00106559 0.00128915)
(-0.00180523 0.00136898 0.00190426)
(-0.00224754 0.00166862 0.00225409)
(-0.00254727 0.00195412 0.00219084)
(-0.00266856 0.00216589 0.00168401)
(-0.00260232 0.00224647 0.000872144)
(-0.00239587 0.00219642 1.47953e-06)
(-0.00212647 0.00204291 -0.000732639)
(-0.00185356 0.00181983 -0.00124947)
(-0.00160422 0.00156162 -0.00155598)
(-0.00138326 0.00129245 -0.00169096)
(-0.00118324 0.00102199 -0.00169124)
(-0.000986701 0.00074939 -0.00158119)
(-0.000768333 0.000469801 -0.00137101)
(-0.000500659 0.000179275 -0.00105763)
(-0.000161749 -0.000123328 -0.000629326)
(0.000257786 -0.00043606 -7.70053e-05)
(0.000749508 -0.00075311 0.000584545)
(0.00128302 -0.00106559 0.00128915)
(0.00180523 -0.00136898 0.00190426)
(0.00224754 -0.00166862 0.00225409)
(0.00254727 -0.00195412 0.00219084)
(0.00246696 -0.0018829 0.00154589)
(0.0024933 -0.00196033 0.00102445)
(0.00241133 -0.00191002 0.00042756)
(0.00225127 -0.00175156 -0.000122481)
(0.00204691 -0.00152057 -0.000554204)
(0.00182264 -0.00125258 -0.000845809)
(0.00159022 -0.000972147 -0.00100227)
(0.00135016 -0.000691911 -0.00103663)
(0.00109412 -0.00041706 -0.00096059)
(0.000808615 -0.00014993 -0.000781166)
(0.000480099 0.000107354 -0.000501302)
(0.000100635 0.000352525 -0.000124538)
(-0.000327479 0.000584382 0.000336094)
(-0.000788917 0.000804221 0.000846549)
(-0.00125517 0.00101735 0.00134341)
(-0.00168908 0.00123456 0.00173767)
(-0.00205367 0.00146665 0.0019354)
(-0.00231945 0.00170042 0.00187145)
(-0.00246696 0.0018829 0.00154589)
(-0.0024933 0.00196033 0.00102445)
(-0.00241133 0.00191002 0.00042756)
(-0.00225127 0.00175156 -0.000122481)
(-0.00204691 0.00152057 -0.000554204)
(-0.00182264 0.00125258 -0.000845809)
(-0.00159022 0.000972147 -0.00100227)
(-0.00135016 0.000691911 -0.00103663)
(-0.00109412 0.00041706 -0.00096059)
(-0.000808615 0.00014993 -0.000781166)
(-0.000480099 -0.000107354 -0.000501302)
(-0.000100635 -0.000352525 -0.000124538)
(0.000327479 -0.000584382 0.000336094)
(0.000788917 -0.000804221 0.000846549)
(0.00125517 -0.00101735 0.00134341)
(0.00168908 -0.00123456 0.00173767)
(0.00205367 -0.00146665 0.0019354)
(0.00231945 -0.00170042 0.00187145)
(0.0022389 -0.00165521 0.00138224)
(0.00232623 -0.00172257 0.00112415)
(0.00234919 -0.00167303 0.000797255)
(0.00229679 -0.00151207 0.0004396)
(0.00217068 -0.0012726 0.000103635)
(0.00198494 -0.000991283 -0.000163732)
(0.00175376 -0.000694955 -0.000333617)
(0.00148432 -0.000400997 -0.000394381)
(0.00117779 -0.000121948 -0.000344645)
(0.000833464 0.000132213 -0.000188592)
(0.000452559 0.000354187 6.40308e-05)
(4.10463e-05 0.000540686 0.000393762)
(-0.000388326 0.000694727 0.000765433)
(-0.0008156 0.000828751 0.00112644)
(-0.00121704 0.000964587 0.0014174)
(-0.00157168 0.00112392 0.001593)
(-0.00186523 0.00131152 0.0016367)
(-0.0020885 0.00150364 0.00155832)
(-0.0022389 0.00165521 0.00138224)
(-0.00232623 0.00172257 0.00112415)
(-0.00234919 0.00167303 0.000797255)
(-0.00229679 0.00151207 0.0004396)
(-0.00217068 0.0012726 0.000103635)
(-0.00198494 0.000991283 -0.000163732)
(-0.00175376 0.000694955 -0.000333617)
(-0.00148432 0.000400997 -0.000394381)
(-0.00117779 0.000121948 -0.000344645)
(-0.000833464 -0.000132213 -0.000188592)
(-0.000452559 -0.000354187 6.40308e-05)
(-4.10463e-05 -0.000540686 0.000393762)
(0.000388326 -0.000694727 0.000765433)
(0.0008156 -0.000828751 0.00112644)
(0.00121704 -0.000964587 0.0014174)
(0.00157168 -0.00112392 0.001593)
(0.00186523 -0.00131152 0.0016367)
(0.0020885 -0.00150363 0.00155832)
(0.00277707 -0.00246549 0.0019122)
(0.00273361 -0.00259476 0.00114325)
(0.00254201 -0.00258267 0.000247451)
(0.00227225 -0.00245322 -0.000568579)
(0.00199112 -0.00223914 -0.00118379)
(0.00173094 -0.00197264 -0.00157726)
(0.00149452 -0.00167905 -0.00177739)
(0.00127115 -0.00137241 -0.00181822)
(0.00104328 -0.00105667 -0.00172346)
(0.000788759 -0.000730367 -0.00150387)
(0.000484854 -0.000390872 -0.00115898)
(0.000114047 -3.65901e-05 -0.000682367)
(-0.000330109 0.000331943 -7.33327e-05)
(-0.000837455 0.000710893 0.000641725)
(-0.0013766 0.00109435 0.00138425)
(-0.00189601 0.00147858 0.00201794)
(-0.00233492 0.00185754 0.00238314)
(-0.00264053 0.0022038 0.00235745)
(-0.00277707 0.00246549 0.0019122)
(-0.00273361 0.00259476 0.00114325)
(-0.00254201 0.00258267 0.000247451)
(-0.00227225 0.00245322 -0.000568579)
(-0.00199112 0.00223914 -0.00118379)
(-0.00173094 0.00197264 -0.00157726)
(-0.00149452 0.00167905 -0.00177739)
(-0.00127115 0.00137241 -0.00181822)
(-0.00104328 0.00105667 -0.00172346)
(-0.000788759 0.000730367 -0.00150387)
(-0.000484854 0.000390872 -0.00115898)
(-0.000114047 3.65901e-05 -0.000682367)
(0.000330109 -0.000331943 -7.33328e-05)
(0.000837455 -0.000710893 0.000641725)
(0.0013766 -0.00109435 0.00138425)
(0.00189601 -0.00147858 0.00201794)
(0.00233492 -0.00185754 0.00238314)
(0.00264053 -0.0022038 0.00235745)
(0.00260099 -0.00211514 0.00175623)
(0.00262103 -0.00220971 0.00124646)
(0.00252924 -0.00218435 0.000633012)
(0.00235824 -0.00204964 3.58483e-05)
(0.00214439 -0.00183321 -0.000455579)
(0.00191193 -0.00156582 -0.000802248)
(0.00166957 -0.00127181 -0.00100039)
(0.00141516 -0.000966316 -0.0010597)
(0.00113988 -0.000657545 -0.000991008)
(0.000831721 -0.000349996 -0.00080208)
(0.000479396 -4.65947e-05 -0.000498347)
(7.65485e-05 0.000250628 -8.76457e-05)
(-0.000374414 0.00054067 0.000411058)
(-0.000858798 0.000823844 0.000956796)
(-0.00134774 0.00110275 0.00148018)
(-0.00180177 0.00138236 0.00189118)
(-0.00218066 0.00166193 0.00210283)
(-0.0024532 0.00191971 0.00205933)
(-0.00260099 0.00211514 0.00175623)
(-0.00262103 0.00220971 0.00124646)
(-0.00252924 0.00218435 0.000633012)
(-0.00235824 0.00204964 3.58483e-05)
(-0.00214439 0.00183321 -0.000455579)
(-0.00191193 0.00156582 -0.000802248)
(-0.00166957 0.00127181 -0.00100039)
(-0.00141516 0.000966316 -0.0010597)
(-0.00113988 0.000657545 -0.000991008)
(-0.000831721 0.000349996 -0.00080208)
(-0.000479396 4.65947e-05 -0.000498347)
(-7.65485e-05 -0.000250628 -8.76457e-05)
(0.000374414 -0.00054067 0.000411058)
(0.000858798 -0.000823844 0.000956796)
(0.00134774 -0.00110275 0.00148018)
(0.00180177 -0.00138236 0.00189118)
(0.00218066 -0.00166193 0.00210283)
(0.0024532 -0.00191971 0.00205933)
(0.00242947 -0.00182745 0.00158499)
(0.00248836 -0.00187895 0.00131407)
(0.00247408 -0.00183458 0.000972927)
(0.00239151 -0.00169199 0.000596625)
(0.00224593 -0.00147007 0.000236494)
(0.00204773 -0.00119687 -5.57334e-05)
(0.00180691 -0.000896763 -0.000245124)
(0.00152792 -0.000587492 -0.000316338)
(0.00121065 -0.000282638 -0.000266904)
(0.000853942 7.04816e-06 -0.000101841)
(0.000458558 0.000274052 0.000166904)
(2.90858e-05 0.00051491 0.000516697)
(-0.000424241 0.000731055 0.000908714)
(-0.000883831 0.000929976 0.00128751)
(-0.00132551 0.00112411 0.00159332)
(-0.00172228 0.0013231 0.00178209)
(-0.00204869 0.00152247 0.00183712)
(-0.00228597 0.00170018 0.00176534)
(-0.00242947 0.00182745 0.00158499)
(-0.00248836 0.00187895 0.00131407)
(-0.00247408 0.00183458 0.000972927)
(-0.00239151 0.00169199 0.000596625)
(-0.00224593 0.00147007 0.000236494)
(-0.00204773 0.00119687 -5.57334e-05)
(-0.00180691 0.000896763 -0.000245124)
(-0.00152792 0.000587492 -0.000316338)
(-0.00121065 0.000282638 -0.000266904)
(-0.000853942 -7.04814e-06 -0.000101841)
(-0.000458558 -0.000274052 0.000166904)
(-2.90858e-05 -0.00051491 0.000516697)
(0.000424241 -0.000731055 0.000908714)
(0.000883831 -0.000929976 0.00128751)
(0.00132551 -0.00112411 0.00159332)
(0.00172228 -0.0013231 0.00178209)
(0.00204869 -0.00152247 0.00183712)
(0.00228597 -0.00170018 0.00176534)
(0.00271753 -0.00261233 0.00196737)
(0.00269055 -0.00279816 0.00128856)
(0.00252636 -0.00284771 0.000456174)
(0.00227897 -0.00277168 -0.000352014)
(0.00200879 -0.00259456 -0.00100408)
(0.00175098 -0.00234487 -0.00145093)
(0.00151026 -0.00204851 -0.00170075)
(0.00127535 -0.00172363 -0.00177823)
(0.00102943 -0.00137939 -0.001704)
(0.000754006 -0.0010184 -0.00148962)
(0.000431626 -0.000640014 -0.00113882)
(4.9711e-05 -0.000242805 -0.00065234)
(-0.00039489 0.000173167 -3.87156e-05)
(-0.000890358 0.000604324 0.000666992)
(-0.00140548 0.0010442 0.001384)
(-0.00189266 0.00148558 0.00198725)
(-0.00230013 0.00191556 0.00234008)
(-0.00258467 0.00230534 0.00234157)
(-0.00271753 0.00261233 0.00196737)
(-0.00269055 0.00279816 0.00128856)
(-0.00252636 0.00284771 0.000456174)
(-0.00227897 0.00277168 -0.000352014)
(-0.00200879 0.00259456 -0.00100408)
(-0.00175098 0.00234487 -0.00145093)
(-0.00151026 0.00204851 -0.00170075)
(-0.00127535 0.00172363 -0.00177823)
(-0.00102943 0.00137939 -0.001704)
(-0.000754006 0.0010184 -0.00148962)
(-0.000431626 0.000640014 -0.00113882)
(-4.9711e-05 0.000242805 -0.00065234)
(0.00039489 -0.000173167 -3.87156e-05)
(0.000890358 -0.000604324 0.000666992)
(0.00140548 -0.0010442 0.001384)
(0.00189266 -0.00148558 0.00198725)
(0.00230013 -0.00191556 0.00234008)
(0.00258467 -0.00230534 0.00234157)
(0.00257132 -0.00223476 0.0018324)
(0.00258868 -0.00235683 0.00137123)
(0.00249947 -0.00236929 0.000795631)
(0.00233311 -0.00227506 0.000209482)
(0.00212329 -0.00209214 -0.000296856)
(0.00189349 -0.00184479 -0.000671193)
(0.00165151 -0.00155568 -0.000897447)
(0.00139412 -0.00124174 -0.00097842)
(0.00111281 -0.000913943 -0.000922387)
(0.000797496 -0.000579002 -0.00073771)
(0.000439551 -0.000240881 -0.000432947)
(3.46851e-05 9.81516e-05 -2.08904e-05)
(-0.000413874 0.000436501 0.000474131)
(-0.000891462 0.000772314 0.00100782)
(-0.00136957 0.00110379 0.00151279)
(-0.00180969 0.00142905 0.00190796)
(-0.00217351 0.00174091 0.00211828)
(-0.00243251 0.00201959 0.00209528)
(-0.00257132 0.00223476 0.0018324)
(-0.00258868 0.00235683 0.00137123)
(-0.00249947 0.00236929 0.000795631)
(-0.00233311 0.00227506 0.000209482)
(-0.00212329 0.00209214 -0.000296856)
(-0.00189349 0.00184479 -0.000671193)
(-0.00165151 0.00155568 -0.000897447)
(-0.00139412 0.00124174 -0.00097842)
(-0.00111281 0.000913943 -0.000922387)
(-0.000797496 0.000579002 -0.00073771)
(-0.000439551 0.000240881 -0.000432947)
(-3.46851e-05 -9.81516e-05 -2.08904e-05)
(0.000413874 -0.000436501 0.000474131)
(0.000891462 -0.000772314 0.00100782)
(0.00136957 -0.00110379 0.00151279)
(0.00180969 -0.00142905 0.00190796)
(0.00217351 -0.00174091 0.00211828)
(0.00243251 -0.00201959 0.00209528)
(0.00245385 -0.00191993 0.00168101)
(0.00249619 -0.00196849 0.00142345)
(0.00246118 -0.00193526 0.00109544)
(0.00236105 -0.00181689 0.000730007)
(0.00220532 -0.001623 0.000373833)
(0.00200334 -0.00137211 7.78568e-05)
(0.00176235 -0.00108381 -0.00011924)
(0.00148493 -0.000774837 -0.000198072)
(0.00117023 -0.00045901 -0.000154236)
(0.000816969 -0.000147337 6.9584e-06)
(0.000425679 0.000152527 0.000271624)
(9.82043e-08 0.000436471 0.000614458)
(-0.000450952 0.000703496 0.000994928)
(-0.000911191 0.000955344 0.0013593)
(-0.00135649 0.0011952 0.00165367)
(-0.00175765 0.00142303 0.00184015)
(-0.00208574 0.00163051 0.00190348)
(-0.00231979 0.00180195 0.00184638)
(-0.00245385 0.00191993 0.00168101)
(-0.00249619 0.00196849 0.00142345)
(-0.00246118 0.00193526 0.00109544)
(-0.00236105 0.00181689 0.000730007)
(-0.00220532 0.001623 0.000373833)
(-0.00200334 0.00137211 7.78568e-05)
(-0.00176235 0.00108381 -0.00011924)
(-0.00148493 0.000774837 -0.000198072)
(-0.00117023 0.00045901 -0.000154236)
(-0.000816969 0.000147337 6.9584e-06)
(-0.000425679 -0.000152527 0.000271624)
(-9.82389e-08 -0.000436471 0.000614458)
(0.000450952 -0.000703496 0.000994928)
(0.000911191 -0.000955344 0.0013593)
(0.00135649 -0.0011952 0.00165367)
(0.00175765 -0.00142303 0.00184015)
(0.00208574 -0.00163051 0.00190348)
(0.00231979 -0.00180195 0.00184638)
(0.00252257 -0.00264287 0.00187804)
(0.00250474 -0.00288171 0.00130912)
(0.0023707 -0.00299474 0.000588322)
(0.00215877 -0.00298126 -0.000145712)
(0.00191503 -0.00285537 -0.000774227)
(0.00167148 -0.00263997 -0.00123297)
(0.00143594 -0.00235969 -0.00150886)
(0.00119977 -0.00203486 -0.00161295)
(0.000948631 -0.00167865 -0.00156023)