/*--------------------------------*- C++ -*----------------------------------*\
| =========                 |                                                 |
| \\      /  F ield         | OpenFOAM: The Open Source CFD Toolbox           |
|  \\    /   O peration     | Version:  2312                                  |
|   \\  /    A nd           | Website:  www.openfoam.com                      |
|    \\/     M anipulation  |                                                 |
\*---------------------------------------------------------------------------*/
FoamFile
{
    version     2.0;
    format      ascii;
    arch        "LSB;label=32;scalar=64";
    class       volVectorField;
    location    "0.6";
    object      D;
}
// * * * * * * * * * * * * * * * * * * * * * * * * * * * * * * * * * * * * * //

dimensions      [0 1 0 0 0 0 0];

internalField   nonuniform List<vector> 
1620
(
(-0.000234854 0.000249218 -0.00010859)
(-0.000274562 0.000204649 -0.000108591)
(-0.000305929 0.000153863 -0.00010859)
(-0.000327999 9.84025e-05 -0.00010859)
(-0.000340103 3.99515e-05 -0.00010859)
(-0.000341874 -1.9714e-05 -0.000108591)
(-0.000333257 -7.87805e-05 -0.00010859)
(-0.000314514 -0.000135453 -0.00010859)
(-0.000286214 -0.00018801 -0.00010859)
(-0.000249218 -0.000234854 -0.00010859)
(-0.000204649 -0.000274562 -0.000108591)
(-0.000153863 -0.000305929 -0.00010859)
(-9.84024e-05 -0.000327999 -0.00010859)
(-3.99515e-05 -0.000340103 -0.00010859)
(1.97141e-05 -0.000341874 -0.000108591)
(7.87805e-05 -0.000333257 -0.00010859)
(0.000135453 -0.000314514 -0.00010859)
(0.00018801 -0.000286214 -0.00010859)
(0.000234854 -0.000249218 -0.00010859)
(0.000274562 -0.000204649 -0.000108591)
(0.000305929 -0.000153863 -0.00010859)
(0.000327999 -9.84024e-05 -0.00010859)
(0.000340104 -3.99515e-05 -0.00010859)
(0.000341874 1.97141e-05 -0.000108591)
(0.000333257 7.87805e-05 -0.00010859)
(0.000314514 0.000135453 -0.00010859)
(0.000286214 0.00018801 -0.00010859)
(0.000249218 0.000234854 -0.00010859)
(0.000204649 0.000274562 -0.000108591)
(0.000153863 0.000305929 -0.00010859)
(9.84025e-05 0.000327999 -0.00010859)
(3.99515e-05 0.000340104 -0.00010859)
(-1.9714e-05 0.000341874 -0.000108591)
(-7.87805e-05 0.000333257 -0.00010859)
(-0.000135453 0.000314514 -0.00010859)
(-0.00018801 0.000286214 -0.00010859)
(-0.000162782 0.000308304 -7.30288e-05)
(-0.000213845 0.000275353 -7.30289e-05)
(-0.000258411 0.000234036 -7.30289e-05)
(-0.000295125 0.000185608 -7.30287e-05)
(-0.000322872 0.000131541 -7.30288e-05)
(-0.000340808 7.34758e-05 -7.30288e-05)
(-0.00034839 1.31789e-05 -7.30287e-05)
(-0.000345386 -4.75185e-05 -7.30287e-05)
(-0.000331887 -0.000106772 -7.30288e-05)
(-0.000308304 -0.000162782 -7.30288e-05)
(-0.000275353 -0.000213845 -7.30289e-05)
(-0.000234036 -0.000258411 -7.30289e-05)
(-0.000185608 -0.000295125 -7.30287e-05)
(-0.000131541 -0.000322872 -7.30288e-05)
(-7.34758e-05 -0.000340808 -7.30288e-05)
(-1.31788e-05 -0.00034839 -7.30287e-05)
(4.75185e-05 -0.000345386 -7.30287e-05)
(0.000106772 -0.000331887 -7.30288e-05)
(0.000162782 -0.000308304 -7.30288e-05)
(0.000213845 -0.000275353 -7.30289e-05)
(0.000258411 -0.000234036 -7.30289e-05)
(0.000295125 -0.000185608 -7.30287e-05)
(0.000322872 -0.000131541 -7.30288e-05)
(0.000340808 -7.34758e-05 -7.30288e-05)
(0.00034839 -1.31788e-05 -7.30287e-05)
(0.000345386 4.75185e-05 -7.30287e-05)
(0.000331887 0.000106772 -7.30288e-05)
(0.000308304 0.000162782 -7.30288e-05)
(0.000275353 0.000213845 -7.30289e-05)
(0.000234036 0.000258411 -7.30289e-05)
(0.000185608 0.000295125 -7.30287e-05)
(0.000131541 0.000322872 -7.30288e-05)
(7.34758e-05 0.000340808 -7.30288e-05)
(1.31789e-05 0.00034839 -7.30287e-05)
(-4.75185e-05 0.000345386 -7.30287e-05)
(-0.000106772 0.000331887 -7.30288e-05)
(-0.000116879 0.000365961 -3.75403e-05)
(-0.000178651 0.000340105 -3.75403e-05)
(-0.000234996 0.000303916 -3.75405e-05)
(-0.0002842 0.000258492 -3.75403e-05)
(-0.00032477 0.000205215 -3.75404e-05)
(-0.00035547 0.000145701 -3.75403e-05)
(-0.000375371 8.17605e-05 -3.75404e-05)
(-0.000383866 1.53359e-05 -3.75405e-05)
(-0.000380697 -5.15546e-05 -3.75403e-05)
(-0.000365961 -0.000116879 -3.75403e-05)
(-0.000340105 -0.000178651 -3.75403e-05)
(-0.000303916 -0.000234996 -3.75405e-05)
(-0.000258492 -0.0002842 -3.75403e-05)
(-0.000205215 -0.00032477 -3.75405e-05)
(-0.000145701 -0.00035547 -3.75403e-05)
(-8.17605e-05 -0.000375371 -3.75404e-05)
(-1.53359e-05 -0.000383866 -3.75405e-05)
(5.15547e-05 -0.000380697 -3.75403e-05)
(0.000116879 -0.000365961 -3.75403e-05)
(0.000178651 -0.000340105 -3.75403e-05)
(0.000234996 -0.000303916 -3.75405e-05)
(0.0002842 -0.000258492 -3.75403e-05)
(0.00032477 -0.000205215 -3.75405e-05)
(0.00035547 -0.000145701 -3.75403e-05)
(0.000375371 -8.17605e-05 -3.75404e-05)
(0.000383866 -1.53359e-05 -3.75405e-05)
(0.000380697 5.15547e-05 -3.75403e-05)
(0.000365961 0.000116879 -3.75403e-05)
(0.000340105 0.000178651 -3.75403e-05)
(0.000303916 0.000234996 -3.75405e-05)
(0.000258492 0.0002842 -3.75403e-05)
(0.000205215 0.00032477 -3.75404e-05)
(0.000145701 0.00035547 -3.75403e-05)
(8.17605e-05 0.000375371 -3.75404e-05)
(1.53359e-05 0.000383866 -3.75405e-05)
(-5.15547e-05 0.000380697 -3.75403e-05)
(-0.000547999 0.00076691 -0.000366459)
(-0.000672847 0.000660099 -0.00036646)
(-0.00077725 0.000533232 -0.00036646)
(-0.000858037 0.000390164 -0.000366458)
(-0.000912752 0.000235241 -0.000366458)
(-0.000939734 7.31693e-05 -0.000366458)
(-0.000938164 -9.11258e-05 -0.000366458)
(-0.000908087 -0.000252652 -0.000366459)
(-0.000850418 -0.000406501 -0.000366459)
(-0.00076691 -0.000547999 -0.000366459)
(-0.000660099 -0.000672847 -0.00036646)
(-0.000533232 -0.00077725 -0.00036646)
(-0.000390164 -0.000858037 -0.000366458)
(-0.000235241 -0.000912752 -0.000366458)
(-7.31692e-05 -0.000939734 -0.000366458)
(9.11259e-05 -0.000938164 -0.000366458)
(0.000252652 -0.000908087 -0.000366459)
(0.000406501 -0.000850418 -0.000366459)
(0.000548 -0.00076691 -0.000366459)
(0.000672847 -0.000660099 -0.00036646)
(0.00077725 -0.000533232 -0.00036646)
(0.000858037 -0.000390164 -0.000366458)
(0.000912752 -0.000235241 -0.000366458)
(0.000939735 -7.31692e-05 -0.000366458)
(0.000938164 9.11259e-05 -0.000366458)
(0.000908087 0.000252652 -0.000366458)
(0.000850418 0.000406501 -0.000366459)
(0.00076691 0.000548 -0.000366459)
(0.000660099 0.000672847 -0.00036646)
(0.000533232 0.00077725 -0.00036646)
(0.000390164 0.000858037 -0.000366458)
(0.000235241 0.000912752 -0.000366458)
(7.31693e-05 0.000939735 -0.000366458)
(-9.11258e-05 0.000938164 -0.000366458)
(-0.000252652 0.000908087 -0.000366458)
(-0.000406501 0.000850418 -0.000366459)
(-0.000490968 0.000917982 -0.000266778)
(-0.000642914 0.000818779 -0.000266778)
(-0.000775327 0.0006947 -0.000266778)
(-0.000884181 0.000549513 -0.000266778)
(-0.000966171 0.000387628 -0.000266777)
(-0.0010188 0.000213965 -0.000266777)
(-0.00104048 3.38007e-05 -0.000266778)
(-0.00103054 -0.00014739 -0.000266777)
(-0.000989291 -0.000324103 -0.000266778)
(-0.000917982 -0.000490968 -0.000266778)
(-0.000818779 -0.000642914 -0.000266778)
(-0.0006947 -0.000775327 -0.000266778)
(-0.000549513 -0.000884181 -0.000266778)
(-0.000387628 -0.000966171 -0.000266777)
(-0.000213965 -0.0010188 -0.000266778)
(-3.38007e-05 -0.00104048 -0.000266778)
(0.00014739 -0.00103054 -0.000266777)
(0.000324103 -0.000989291 -0.000266778)
(0.000490968 -0.000917982 -0.000266778)
(0.000642914 -0.000818779 -0.000266778)
(0.000775327 -0.0006947 -0.000266778)
(0.000884181 -0.000549513 -0.000266778)
(0.000966171 -0.000387628 -0.000266777)
(0.0010188 -0.000213965 -0.000266777)
(0.00104048 -3.38007e-05 -0.000266778)
(0.00103054 0.00014739 -0.000266777)
(0.000989291 0.000324103 -0.000266778)
(0.000917982 0.000490968 -0.000266778)
(0.000818779 0.000642914 -0.000266778)
(0.0006947 0.000775327 -0.000266778)
(0.000549513 0.000884181 -0.000266778)
(0.000387628 0.000966171 -0.000266777)
(0.000213965 0.0010188 -0.000266777)
(3.38007e-05 0.00104048 -0.000266777)
(-0.00014739 0.00103054 -0.000266777)
(-0.000324103 0.000989291 -0.000266778)
(-0.000467787 0.0010646 -0.000169102)
(-0.000645545 0.000967194 -0.000169101)
(-0.000803689 0.000840403 -0.000169101)
(-0.000937413 0.000688076 -0.000169101)
(-0.00104265 0.000514842 -0.000169101)
(-0.00111622 0.000325965 -0.000169101)
(-0.00115586 0.000127184 -0.000169102)
(-0.00116039 -7.54615e-05 -0.000169102)
(-0.00112966 -0.000275814 -0.000169102)
(-0.0010646 -0.000467787 -0.000169102)
(-0.000967194 -0.000645545 -0.000169101)
(-0.000840403 -0.000803689 -0.000169101)
(-0.000688076 -0.000937413 -0.000169101)
(-0.000514842 -0.00104265 -0.000169101)
(-0.000325965 -0.00111622 -0.000169101)
(-0.000127184 -0.00115586 -0.000169102)
(7.54615e-05 -0.00116039 -0.000169102)
(0.000275814 -0.00112966 -0.000169102)
(0.000467787 -0.0010646 -0.000169102)
(0.000645545 -0.000967194 -0.000169101)
(0.000803689 -0.000840403 -0.000169101)
(0.000937413 -0.000688076 -0.000169101)
(0.00104265 -0.000514842 -0.000169101)
(0.00111622 -0.000325965 -0.000169101)
(0.00115586 -0.000127184 -0.000169102)
(0.00116039 7.54615e-05 -0.000169102)
(0.00112966 0.000275814 -0.000169102)
(0.0010646 0.000467787 -0.000169102)
(0.000967194 0.000645545 -0.000169101)
(0.000840403 0.000803689 -0.000169101)
(0.000688076 0.000937413 -0.000169101)
(0.000514842 0.00104265 -0.000169101)
(0.000325965 0.00111622 -0.000169101)
(0.000127184 0.00115586 -0.000169102)
(-7.54615e-05 0.00116039 -0.000169101)
(-0.000275814 0.00112966 -0.000169102)
(-0.000847476 0.00130647 -0.000693765)
(-0.00106147 0.00113946 -0.000693765)
(-0.00124321 0.00093783 -0.000693765)
(-0.00138717 0.000707702 -0.000693764)
(-0.00148899 0.000456071 -0.000693763)
(-0.00154556 0.000190582 -0.000693763)
(-0.00155518 -8.06982e-05 -0.000693763)
(-0.00151754 -0.000349526 -0.000693763)
(-0.00143379 -0.000607734 -0.000693764)
(-0.00130647 -0.000847476 -0.000693765)
(-0.00113946 -0.00106147 -0.000693765)
(-0.000937829 -0.00124321 -0.000693765)
(-0.000707701 -0.00138717 -0.000693764)
(-0.000456071 -0.00148899 -0.000693763)
(-0.000190582 -0.00154556 -0.000693763)
(8.06982e-05 -0.00155518 -0.000693763)
(0.000349526 -0.00151754 -0.000693763)
(0.000607734 -0.00143379 -0.000693764)
(0.000847476 -0.00130647 -0.000693765)
(0.00106147 -0.00113946 -0.000693765)
(0.00124321 -0.000937829 -0.000693765)
(0.00138717 -0.000707701 -0.000693764)
(0.00148899 -0.000456071 -0.000693763)
(0.00154556 -0.000190582 -0.000693763)
(0.00155518 8.06983e-05 -0.000693763)
(0.00151754 0.000349526 -0.000693763)
(0.00143379 0.000607734 -0.000693764)
(0.00130647 0.000847476 -0.000693765)
(0.00113946 0.00106147 -0.000693765)
(0.00093783 0.00124321 -0.000693765)
(0.000707701 0.00138717 -0.000693764)
(0.000456071 0.00148899 -0.000693763)
(0.000190582 0.00154556 -0.000693763)
(-8.06982e-05 0.00155518 -0.000693763)
(-0.000349526 0.00151754 -0.000693763)
(-0.000607734 0.00143379 -0.000693764)
(-0.000812676 0.00152183 -0.000542966)
(-0.00106459 0.00135759 -0.000542967)
(-0.00128416 0.0011521 -0.000542967)
(-0.00146471 0.000911609 -0.000542966)
(-0.00160076 0.000643415 -0.000542965)
(-0.00168817 0.00035567 -0.000542966)
(-0.00172428 5.71192e-05 -0.000542966)
(-0.00170801 -0.000243168 -0.000542966)
(-0.00163983 -0.000536066 -0.000542966)
(-0.00152183 -0.000812676 -0.000542966)
(-0.00135759 -0.00106459 -0.000542967)
(-0.0011521 -0.00128416 -0.000542967)
(-0.000911609 -0.00146471 -0.000542966)
(-0.000643415 -0.00160076 -0.000542966)
(-0.00035567 -0.00168817 -0.000542966)
(-5.71192e-05 -0.00172428 -0.000542966)
(0.000243168 -0.00170801 -0.000542966)
(0.000536066 -0.00163983 -0.000542966)
(0.000812676 -0.00152183 -0.000542966)
(0.00106459 -0.00135759 -0.000542967)
(0.00128416 -0.0011521 -0.000542967)
(0.00146471 -0.000911609 -0.000542966)
(0.00160076 -0.000643415 -0.000542965)
(0.00168817 -0.00035567 -0.000542966)
(0.00172428 -5.71191e-05 -0.000542966)
(0.00170801 0.000243168 -0.000542966)
(0.00163983 0.000536066 -0.000542966)
(0.00152183 0.000812676 -0.000542966)
(0.00135759 0.00106459 -0.000542967)
(0.0011521 0.00128416 -0.000542967)
(0.000911609 0.00146471 -0.000542966)
(0.000643415 0.00160076 -0.000542965)
(0.00035567 0.00168817 -0.000542966)
(5.71192e-05 0.00172428 -0.000542966)
(-0.000243168 0.00170801 -0.000542966)
(-0.000536066 0.00163983 -0.000542966)
(-0.000817012 0.00172395 -0.000396668)
(-0.00110396 0.00155589 -0.000396668)
(-0.00135736 0.00134055 -0.000396668)
(-0.00156953 0.00108448 -0.000396668)
(-0.001734 0.000795458 -0.000396668)
(-0.00184579 0.000482266 -0.000396668)
(-0.00190149 0.000154422 -0.000396668)
(-0.00189942 -0.000178114 -0.000396668)
(-0.00183963 -0.000505239 -0.000396668)
(-0.00172395 -0.000817012 -0.000396668)
(-0.00155589 -0.00110396 -0.000396668)
(-0.00134055 -0.00135736 -0.000396668)
(-0.00108448 -0.00156953 -0.000396668)
(-0.000795458 -0.001734 -0.000396668)
(-0.000482266 -0.00184579 -0.000396668)
(-0.000154422 -0.00190149 -0.000396668)
(0.000178114 -0.00189942 -0.000396668)
(0.000505239 -0.00183963 -0.000396668)
(0.000817012 -0.00172395 -0.000396668)
(0.00110396 -0.00155589 -0.000396668)
(0.00135736 -0.00134055 -0.000396668)
(0.00156953 -0.00108448 -0.000396668)
(0.001734 -0.000795458 -0.000396668)
(0.00184579 -0.000482266 -0.000396668)
(0.00190149 -0.000154422 -0.000396668)
(0.00189942 0.000178114 -0.000396668)
(0.00183963 0.000505239 -0.000396668)
(0.00172395 0.000817012 -0.000396668)
(0.00155589 0.00110396 -0.000396668)
(0.00134055 0.00135736 -0.000396668)
(0.00108448 0.00156953 -0.000396668)
(0.000795458 0.001734 -0.000396668)
(0.000482266 0.00184579 -0.000396668)
(0.000154422 0.00190149 -0.000396668)
(-0.000178114 0.00189942 -0.000396668)
(-0.000505239 0.00183963 -0.000396668)
(-0.00113174 0.00187259 -0.0010679)
(-0.00143972 0.00164762 -0.0010679)
(-0.00170395 0.00137258 -0.0010679)
(-0.00191641 0.00105585 -0.0010679)
(-0.00207064 0.000707024 -0.0010679)
(-0.00216196 0.000336719 -0.0010679)
(-0.00218758 -4.38165e-05 -0.0010679)
(-0.00214674 -0.000423021 -0.0010679)
(-0.00204067 -0.000789372 -0.0010679)
(-0.00187259 -0.00113174 -0.0010679)
(-0.00164762 -0.00143972 -0.0010679)
(-0.00137258 -0.00170395 -0.0010679)
(-0.00105585 -0.00191641 -0.0010679)
(-0.000707024 -0.00207064 -0.0010679)
(-0.000336719 -0.00216196 -0.0010679)
(4.38166e-05 -0.00218758 -0.0010679)
(0.000423021 -0.00214674 -0.0010679)
(0.000789372 -0.00204067 -0.0010679)
(0.00113174 -0.00187259 -0.0010679)
(0.00143972 -0.00164762 -0.0010679)
(0.00170395 -0.00137258 -0.0010679)
(0.00191641 -0.00105585 -0.0010679)
(0.00207064 -0.000707024 -0.0010679)
(0.00216196 -0.000336719 -0.0010679)
(0.00218758 4.38166e-05 -0.0010679)
(0.00214674 0.000423021 -0.0010679)
(0.00204067 0.000789372 -0.0010679)
(0.00187259 0.00113174 -0.0010679)
(0.00164762 0.00143972 -0.0010679)
(0.00137258 0.00170395 -0.0010679)
(0.00105585 0.00191641 -0.0010679)
(0.000707024 0.00207064 -0.0010679)
(0.000336719 0.00216196 -0.0010679)
(-4.38165e-05 0.00218758 -0.0010679)
(-0.000423021 0.00214674 -0.0010679)
(-0.000789372 0.00204067 -0.0010679)
(-0.00112396 0.002109 -0.000879839)
(-0.00147311 0.00188179 -0.00087984)
(-0.0017775 0.0015974 -0.000879839)
(-0.00202788 0.00126447 -0.000879839)
(-0.00221665 0.000893119 -0.000879839)
(-0.00233806 0.000494634 -0.000879839)
(-0.00238843 8.11199e-05 -0.000879839)
(-0.00236623 -0.00033486 -0.000879839)
(-0.00227214 -0.000740665 -0.000879839)
(-0.002109 -0.00112396 -0.00087984)
(-0.00188179 -0.00147311 -0.00087984)
(-0.00159739 -0.0017775 -0.00087984)
(-0.00126447 -0.00202788 -0.000879839)
(-0.000893119 -0.00221665 -0.000879839)
(-0.000494634 -0.00233806 -0.000879839)
(-8.11198e-05 -0.00238843 -0.000879839)
(0.00033486 -0.00236623 -0.000879839)
(0.000740665 -0.00227214 -0.000879839)
(0.00112396 -0.002109 -0.00087984)
(0.00147311 -0.00188179 -0.00087984)
(0.0017775 -0.00159739 -0.00087984)
(0.00202788 -0.00126447 -0.000879839)
(0.00221665 -0.000893119 -0.000879839)
(0.00233806 -0.000494634 -0.000879839)
(0.00238843 -8.11197e-05 -0.000879839)
(0.00236623 0.00033486 -0.000879839)
(0.00227214 0.000740665 -0.000879839)
(0.002109 0.00112396 -0.00087984)
(0.00188179 0.00147311 -0.00087984)
(0.0015974 0.0017775 -0.000879839)
(0.00126447 0.00202788 -0.000879839)
(0.000893119 0.00221665 -0.000879839)
(0.000494634 0.00233806 -0.000879839)
(8.11199e-05 0.00238843 -0.000879839)
(-0.00033486 0.00236623 -0.000879839)
(-0.000740665 0.00227214 -0.000879839)
(-0.00115897 0.00232125 -0.000699606)
(-0.00154444 0.00208474 -0.000699607)
(-0.00188299 0.00178488 -0.000699607)
(-0.00216432 0.00143078 -0.000699606)
(-0.00237989 0.00103322 -0.000699606)
(-0.00252315 0.000604256 -0.000699607)
(-0.00258975 0.000156934 -0.000699607)
(-0.00257766 -0.000295155 -0.000699607)
(-0.00248724 -0.000738277 -0.000699607)
(-0.00232125 -0.00115897 -0.000699606)
(-0.00208474 -0.00154444 -0.000699607)
(-0.00178488 -0.00188299 -0.000699607)
(-0.00143078 -0.00216432 -0.000699607)
(-0.00103322 -0.00237989 -0.000699606)
(-0.000604256 -0.00252315 -0.000699607)
(-0.000156934 -0.00258975 -0.000699607)
(0.000295155 -0.00257766 -0.000699607)
(0.000738277 -0.00248724 -0.000699607)
(0.00115897 -0.00232125 -0.000699607)
(0.00154444 -0.00208474 -0.000699607)
(0.00188299 -0.00178488 -0.000699607)
(0.00216432 -0.00143078 -0.000699607)
(0.00237989 -0.00103322 -0.000699606)
(0.00252315 -0.000604256 -0.000699607)
(0.00258975 -0.000156934 -0.000699607)
(0.00257766 0.000295155 -0.000699607)
(0.00248724 0.000738277 -0.000699607)
(0.00232125 0.00115897 -0.000699606)
(0.00208474 0.00154444 -0.000699607)
(0.00178488 0.00188299 -0.000699607)
(0.00143078 0.00216432 -0.000699606)
(0.00103322 0.00237989 -0.000699606)
(0.000604256 0.00252315 -0.000699607)
(0.000156934 0.00258975 -0.000699607)
(-0.000295155 0.00257766 -0.000699607)
(-0.000738277 0.00248724 -0.000699607)
(-0.00141276 0.0024537 -0.001474)
(-0.00181737 0.0021711 -0.001474)
(-0.00216677 0.00182254 -0.001474)
(-0.00245033 0.00141859 -0.001474)
(-0.00265944 0.000971545 -0.001474)
(-0.00278775 0.000494978 -0.001474)
(-0.00283135 3.37063e-06 -0.001474)
(-0.00278892 -0.00048834 -0.001474)
(-0.00266175 -0.000965211 -0.001474)
(-0.0024537 -0.00141276 -0.001474)
(-0.0021711 -0.00181737 -0.001474)
(-0.00182254 -0.00216677 -0.001474)
(-0.00141859 -0.00245033 -0.001474)
(-0.000971545 -0.00265944 -0.001474)
(-0.000494977 -0.00278775 -0.001474)
(-3.37046e-06 -0.00283135 -0.001474)
(0.00048834 -0.00278892 -0.001474)
(0.000965211 -0.00266175 -0.001474)
(0.00141276 -0.0024537 -0.001474)
(0.00181737 -0.0021711 -0.001474)
(0.00216677 -0.00182254 -0.001474)
(0.00245033 -0.00141859 -0.001474)
(0.00265944 -0.000971545 -0.001474)
(0.00278775 -0.000494977 -0.001474)
(0.00283135 -3.37045e-06 -0.001474)
(0.00278892 0.00048834 -0.001474)
(0.00266175 0.000965211 -0.001474)
(0.0024537 0.00141276 -0.001474)
(0.0021711 0.00181737 -0.001474)
(0.00182254 0.00216677 -0.001474)
(0.00141859 0.00245033 -0.001474)
(0.000971545 0.00265944 -0.001474)
(0.000494978 0.00278775 -0.001474)
(3.37062e-06 0.00283135 -0.001474)
(-0.00048834 0.00278892 -0.001474)
(-0.000965211 0.00266175 -0.001474)
(-0.00142795 0.0026686 -0.00126097)
(-0.00186965 0.0023801 -0.00126097)
(-0.00225455 0.00201928 -0.00126097)
(-0.00257094 0.0015971 -0.00126097)
(-0.00280921 0.0011264 -0.00126097)
(-0.00296213 0.000621474 -0.00126097)
(-0.00302505 9.76628e-05 -0.00126097)
(-0.00299605 -0.000429115 -0.00126097)
(-0.00287602 -0.000942855 -0.00126097)
(-0.0026686 -0.00142795 -0.00126097)
(-0.0023801 -0.00186965 -0.00126097)
(-0.00201928 -0.00225455 -0.00126097)
(-0.0015971 -0.00257094 -0.00126097)
(-0.0011264 -0.00280921 -0.00126097)
(-0.000621474 -0.00296213 -0.00126097)
(-9.76626e-05 -0.00302505 -0.00126097)
(0.000429115 -0.00299605 -0.00126097)
(0.000942856 -0.00287602 -0.00126097)
(0.00142795 -0.0026686 -0.00126097)
(0.00186965 -0.0023801 -0.00126097)
(0.00225455 -0.00201928 -0.00126097)
(0.00257094 -0.0015971 -0.00126097)
(0.00280921 -0.0011264 -0.00126097)
(0.00296213 -0.000621474 -0.00126097)
(0.00302505 -9.76626e-05 -0.00126097)
(0.00299605 0.000429115 -0.00126097)
(0.00287602 0.000942856 -0.00126097)
(0.0026686 0.00142795 -0.00126097)
(0.0023801 0.00186965 -0.00126097)
(0.00201928 0.00225455 -0.00126097)
(0.0015971 0.00257094 -0.00126097)
(0.0011264 0.00280921 -0.00126097)
(0.000621474 0.00296213 -0.00126097)
(9.76628e-05 0.00302505 -0.00126097)
(-0.000429115 0.00299605 -0.00126097)
(-0.000942855 0.00287602 -0.00126097)
(-0.00148669 0.00284934 -0.00105899)
(-0.00195889 0.00254789 -0.00105899)
(-0.00237157 0.00216903 -0.00105899)
(-0.00271219 0.00172426 -0.00105899)
(-0.0029704 0.0012271 -0.00105899)
(-0.00313835 0.00069265 -0.00105899)
(-0.00321095 0.000137158 -0.00105899)
(-0.00318599 -0.000422502 -0.00105899)
(-0.00306422 -0.000969324 -0.00105899)
(-0.00284934 -0.00148669 -0.00105899)
(-0.00254789 -0.00195889 -0.00105899)
(-0.00216903 -0.00237157 -0.00105899)
(-0.00172426 -0.00271219 -0.00105899)
(-0.0012271 -0.0029704 -0.00105899)
(-0.00069265 -0.00313835 -0.00105899)
(-0.000137158 -0.00321095 -0.00105899)
(0.000422502 -0.00318599 -0.00105899)
(0.000969324 -0.00306422 -0.00105899)
(0.00148669 -0.00284934 -0.00105899)
(0.00195889 -0.00254789 -0.00105899)
(0.00237157 -0.00216903 -0.00105899)
(0.00271219 -0.00172426 -0.00105899)
(0.0029704 -0.0012271 -0.00105899)
(0.00313835 -0.00069265 -0.00105899)
(0.00321095 -0.000137158 -0.00105899)
(0.00318599 0.000422502 -0.00105899)
(0.00306422 0.000969324 -0.00105899)
(0.00284934 0.00148669 -0.00105899)
(0.00254789 0.00195889 -0.00105899)
(0.00216903 0.00237157 -0.00105899)
(0.00172426 0.00271219 -0.00105899)
(0.0012271 0.0029704 -0.00105899)
(0.00069265 0.00313835 -0.00105899)
(0.000137158 0.00321095 -0.00105899)
(-0.000422502 0.00318599 -0.00105899)
(-0.000969324 0.00306422 -0.00105899)
(-0.00170203 0.00302593 -0.00190446)
(-0.00220162 0.00268441 -0.00190446)
(-0.00263431 0.00226132 -0.00190446)
(-0.00298696 0.00176952 -0.00190446)
(-0.00324886 0.00122396 -0.00190446)
(-0.00341204 0.000641204 -0.00190446)
(-0.00347155 3.89681e-05 -0.00190446)
(-0.00342557 -0.000564452 -0.00190446)
(-0.00327552 -0.00115072 -0.00190446)
(-0.00302593 -0.00170203 -0.00190446)
(-0.00268441 -0.00220162 -0.00190446)
(-0.00226132 -0.00263431 -0.00190446)
(-0.00176952 -0.00298696 -0.00190446)
(-0.00122396 -0.00324886 -0.00190446)
(-0.000641204 -0.00341204 -0.00190446)
(-3.89679e-05 -0.00347155 -0.00190446)
(0.000564453 -0.00342557 -0.00190446)
(0.00115072 -0.00327552 -0.00190446)
(0.00170203 -0.00302593 -0.00190446)
(0.00220162 -0.00268441 -0.00190446)
(0.00263431 -0.00226132 -0.00190446)
(0.00298696 -0.00176952 -0.00190446)
(0.00324886 -0.00122396 -0.00190446)
(0.00341204 -0.000641204 -0.00190446)
(0.00347155 -3.89679e-05 -0.00190446)
(0.00342557 0.000564453 -0.00190446)
(0.00327552 0.00115072 -0.00190446)
(0.00302593 0.00170203 -0.00190446)
(0.00268441 0.00220162 -0.00190446)
(0.00226132 0.00263431 -0.00190446)
(0.00176952 0.00298696 -0.00190446)
(0.00122396 0.00324886 -0.00190446)
(0.000641204 0.00341204 -0.00190446)
(3.89681e-05 0.00347155 -0.00190446)
(-0.000564452 0.00342557 -0.00190446)
(-0.00115072 0.00327552 -0.00190446)
(-0.00172951 0.00318659 -0.00167317)
(-0.00225658 0.00283786 -0.00167317)
(-0.00271509 0.00240289 -0.00167317)
(-0.0030911 0.00189492 -0.00167317)
(-0.00337318 0.00132936 -0.00167317)
(-0.00355278 0.000723421 -0.00167317)
(-0.00362443 9.54969e-05 -0.00167317)
(-0.00358595 -0.000535329 -0.00167317)
(-0.00343851 -0.00114989 -0.00167317)
(-0.00318659 -0.00172951 -0.00167317)
(-0.00283785 -0.00225658 -0.00167317)
(-0.00240289 -0.00271509 -0.00167317)
(-0.00189492 -0.0030911 -0.00167317)
(-0.00132936 -0.00337318 -0.00167317)
(-0.000723421 -0.00355278 -0.00167317)
(-9.54967e-05 -0.00362443 -0.00167317)
(0.000535329 -0.00358595 -0.00167317)
(0.00114989 -0.00343851 -0.00167317)
(0.00172951 -0.00318659 -0.00167317)
(0.00225658 -0.00283785 -0.00167317)
(0.00271509 -0.00240289 -0.00167317)
(0.0030911 -0.00189492 -0.00167317)
(0.00337318 -0.00132936 -0.00167317)
(0.00355278 -0.000723421 -0.00167317)
(0.00362443 -9.54967e-05 -0.00167317)
(0.00358595 0.000535329 -0.00167317)
(0.00343851 0.00114989 -0.00167317)
(0.00318659 0.00172951 -0.00167317)
(0.00283786 0.00225658 -0.00167317)
(0.00240289 0.00271509 -0.00167317)
(0.00189492 0.0030911 -0.00167317)
(0.00132936 0.00337318 -0.00167317)
(0.000723421 0.00355278 -0.00167317)
(9.54969e-05 0.00362443 -0.00167317)
(-0.000535329 0.00358595 -0.00167317)
(-0.00114989 0.00343851 -0.00167317)
(-0.00179857 0.00330559 -0.00145574)
(-0.00234526 0.00294305 -0.00145574)
(-0.00282069 0.00249109 -0.00145574)
(-0.00321041 0.00196344 -0.00145574)
(-0.00350258 0.00137613 -0.00145574)
(-0.00368833 0.000747007 -0.00145574)
(-0.00376201 9.51871e-05 -0.00145574)
(-0.00372139 -0.000559527 -0.00145574)
(-0.00356769 -0.00119724 -0.00145574)
(-0.00330559 -0.00179857 -0.00145574)
(-0.00294305 -0.00234526 -0.00145574)
(-0.00249109 -0.00282069 -0.00145574)
(-0.00196344 -0.00321041 -0.00145574)
(-0.00137613 -0.00350258 -0.00145574)
(-0.000747007 -0.00368833 -0.00145574)
(-9.51869e-05 -0.00376201 -0.00145574)
(0.000559527 -0.00372139 -0.00145574)
(0.00119724 -0.00356769 -0.00145574)
(0.00179857 -0.00330559 -0.00145574)
(0.00234526 -0.00294305 -0.00145574)
(0.00282069 -0.00249109 -0.00145574)
(0.00321041 -0.00196344 -0.00145574)
(0.00350258 -0.00137613 -0.00145574)
(0.00368833 -0.000747007 -0.00145574)
(0.00376201 -9.51869e-05 -0.00145574)
(0.00372139 0.000559527 -0.00145574)
(0.00356769 0.00119724 -0.00145574)
(0.00330559 0.00179857 -0.00145574)
(0.00294305 0.00234526 -0.00145574)
(0.00249109 0.00282069 -0.00145574)
(0.00196344 0.00321041 -0.00145574)
(0.00137613 0.00350258 -0.00145574)
(0.000747007 0.00368833 -0.00145574)
(9.51871e-05 0.00376201 -0.00145574)
(-0.000559527 0.00372139 -0.00145574)
(-0.00119724 0.00356769 -0.00145574)
(-0.00200512 0.00355723 -0.00235526)
(-0.00259236 0.003155 -0.00235526)
(-0.00310084 0.00265691 -0.00235526)
(-0.0035151 0.00207809 -0.00235526)
(-0.00382255 0.00143613 -0.00235526)
(-0.00401386 0.000750533 -0.00235526)
(-0.00408321 4.21314e-05 -0.00235526)
(-0.00402849 -0.000667551 -0.00235526)
(-0.00385137 -0.00135695 -0.00235526)
(-0.00355723 -0.00200512 -0.00235526)
(-0.003155 -0.00259236 -0.00235526)
(-0.00265691 -0.00310084 -0.00235526)
(-0.00207809 -0.0035151 -0.00235526)
(-0.00143613 -0.00382255 -0.00235526)
(-0.000750532 -0.00401386 -0.00235526)
(-4.21312e-05 -0.00408321 -0.00235526)
(0.000667551 -0.00402849 -0.00235526)
(0.00135695 -0.00385137 -0.00235526)
(0.00200512 -0.00355723 -0.00235526)
(0.00259236 -0.003155 -0.00235526)
(0.00310084 -0.00265691 -0.00235526)
(0.0035151 -0.00207809 -0.00235526)
(0.00382255 -0.00143613 -0.00235526)
(0.00401386 -0.000750532 -0.00235526)
(0.00408321 -4.21312e-05 -0.00235526)
(0.00402849 0.000667551 -0.00235526)
(0.00385137 0.00135695 -0.00235526)
(0.00355723 0.00200512 -0.00235526)
(0.003155 0.00259236 -0.00235526)
(0.00265691 0.00310084 -0.00235526)
(0.00207809 0.0035151 -0.00235526)
(0.00143613 0.00382255 -0.00235526)
(0.000750533 0.00401386 -0.00235526)
(4.21315e-05 0.00408321 -0.00235526)
(-0.000667551 0.00402849 -0.00235526)
(-0.00135695 0.00385137 -0.00235526)
(-0.00203102 0.00364273 -0.002107)
(-0.00263272 0.00323471 -0.002107)
(-0.00315442 0.0027284 -0.002107)
(-0.00358028 0.00213919 -0.00210701)
(-0.00389735 0.00148498 -0.002107)
(-0.004096 0.000785654 -0.002107)
(-0.0041702 6.2453e-05 -0.002107)
(-0.00411769 -0.000662644 -0.002107)
(-0.00394007 -0.00136761 -0.002107)
(-0.00364273 -0.00203102 -0.002107)
(-0.00323471 -0.00263272 -0.002107)
(-0.0027284 -0.00315442 -0.00210701)
(-0.00213919 -0.00358028 -0.00210701)
(-0.00148498 -0.00389735 -0.00210701)
(-0.000785653 -0.004096 -0.002107)
(-6.24528e-05 -0.0041702 -0.002107)
(0.000662644 -0.00411769 -0.002107)
(0.00136761 -0.00394007 -0.002107)
(0.00203102 -0.00364273 -0.002107)
(0.00263272 -0.00323471 -0.002107)
(0.00315442 -0.0027284 -0.00210701)
(0.00358028 -0.00213919 -0.00210701)
(0.00389735 -0.00148498 -0.002107)
(0.00409601 -0.000785654 -0.002107)
(0.0041702 -6.24528e-05 -0.002107)
(0.00411769 0.000662644 -0.002107)
(0.00394007 0.00136761 -0.002107)
(0.00364273 0.00203102 -0.002107)
(0.00323471 0.00263272 -0.002107)
(0.0027284 0.00315442 -0.002107)
(0.00213919 0.00358028 -0.002107)
(0.00148498 0.00389735 -0.002107)
(0.000785654 0.00409601 -0.002107)
(6.2453e-05 0.00417021 -0.002107)
(-0.000662644 0.0041177 -0.002107)
(-0.00136761 0.00394007 -0.002107)
(-0.00209411 0.0036829 -0.00187495)
(-0.00270183 0.00326331 -0.00187495)
(-0.00322745 0.00274457 -0.00187495)
(-0.00365501 0.00214243 -0.00187495)
(-0.00397151 0.0014752 -0.00187495)
(-0.00416734 0.000763142 -0.00187495)
(-0.00423654 2.78977e-05 -0.00187495)
(-0.00417703 -0.000708194 -0.00187495)
(-0.00399059 -0.00142277 -0.00187495)
(-0.0036829 -0.00209411 -0.00187495)
(-0.00326331 -0.00270183 -0.00187495)
(-0.00274457 -0.00322745 -0.00187495)
(-0.00214243 -0.00365501 -0.00187495)
(-0.0014752 -0.00397151 -0.00187495)
(-0.000763142 -0.00416734 -0.00187495)
(-2.78975e-05 -0.00423654 -0.00187495)
(0.000708195 -0.00417703 -0.00187495)
(0.00142277 -0.00399059 -0.00187495)
(0.00209411 -0.0036829 -0.00187495)
(0.00270183 -0.00326331 -0.00187495)
(0.00322745 -0.00274457 -0.00187495)
(0.00365501 -0.00214243 -0.00187495)
(0.00397151 -0.0014752 -0.00187495)
(0.00416734 -0.000763142 -0.00187495)
(0.00423655 -2.78975e-05 -0.00187495)
(0.00417703 0.000708195 -0.00187495)
(0.00399059 0.00142277 -0.00187495)
(0.0036829 0.00209411 -0.00187495)
(0.00326331 0.00270183 -0.00187495)
(0.00274457 0.00322745 -0.00187495)
(0.00214243 0.00365501 -0.00187495)
(0.0014752 0.00397151 -0.00187495)
(0.000763142 0.00416734 -0.00187495)
(2.78978e-05 0.00423655 -0.00187495)
(-0.000708194 0.00417703 -0.00187495)
(-0.00142277 0.00399059 -0.00187495)
(-0.00231618 0.00400922 -0.00282057)
(-0.00297718 0.00354611 -0.00282057)
(-0.00354773 0.00297525 -0.00282057)
(-0.00401048 0.00231399 -0.00282057)
(-0.00435137 0.00158243 -0.00282057)
(-0.00456005 0.000802778 -0.00282057)
(-0.00463017 -1.26172e-06 -0.00282057)
(-0.00455961 -0.000805264 -0.00282057)
(-0.00435051 -0.0015848 -0.00282057)
(-0.00400922 -0.00231618 -0.00282057)
(-0.00354611 -0.00297718 -0.00282057)
(-0.00297525 -0.00354773 -0.00282057)