/*--------------------------------*- C++ -*----------------------------------*\
| =========                 |                                                 |
| \\      /  F ield         | OpenFOAM: The Open Source CFD Toolbox           |
|  \\    /   O peration     | Version:  2312                                  |
|   \\  /    A nd           | Website:  www.openfoam.com                      |
|    \\/     M anipulation  |                                                 |
\*---------------------------------------------------------------------------*/
FoamFile
{
    version     2.0;
    format      ascii;
    arch        "LSB;label=32;scalar=64";
    class       volVectorField;
    location    "0.6";
    object      D_0;
}
// * * * * * * * * * * * * * * * * * * * * * * * * * * * * * * * * * * * * * //

dimensions      [0 1 0 0 0 0 0];

internalField   nonuniform List<vector> 
1620
(
(-0.000136786 3.85808e-05 -0.000139605)
(-0.000108268 0.000123416 -0.000124641)
(-7.14495e-05 0.000185133 -9.69907e-05)
(-3.07429e-05 0.000227184 -5.95185e-05)
(1.32453e-05 0.000258538 -1.13261e-05)
(5.70786e-05 0.000288707 4.93553e-05)
(9.24189e-05 0.000324489 0.000124739)
(0.000107763 0.000365872 0.000213653)
(0.000105442 0.000399189 0.000292304)
(8.66236e-05 0.000415158 0.000286555)
(5.35037e-05 0.000408223 0.000210249)
(3.28381e-05 0.000385644 0.000133891)
(3.01288e-05 0.000360697 7.08832e-05)
(3.68664e-05 0.000336073 1.97816e-05)
(4.59946e-05 0.000307381 -2.20821e-05)
(5.45437e-05 0.000267475 -5.71936e-05)
(6.14282e-05 0.000209323 -8.74267e-05)
(6.05063e-05 0.000129658 -0.000109443)
(4.40375e-05 3.62385e-05 -0.00010734)
(1.52939e-05 -4.8455e-05 -8.21404e-05)
(-1.41661e-05 -0.000114732 -5.21544e-05)
(-3.89783e-05 -0.000163057 -2.10616e-05)
(-6.04628e-05 -0.000198296 1.30332e-05)
(-8.0055e-05 -0.000227978 5.39632e-05)
(-9.54958e-05 -0.000260014 0.000108134)
(-9.98693e-05 -0.000297814 0.000181648)
(-9.79599e-05 -0.000330023 0.000258636)
(-8.6203e-05 -0.00034724 0.000262648)
(-6.35729e-05 -0.000342728 0.000201581)
(-5.48344e-05 -0.000323715 0.000135571)
(-6.48423e-05 -0.000301569 7.6891e-05)
(-8.52577e-05 -0.000278322 2.58333e-05)
(-0.000107813 -0.000249227 -1.87449e-05)
(-0.000127857 -0.000206674 -5.86881e-05)
(-0.000143446 -0.000143559 -9.61348e-05)
(-0.000148856 -5.78591e-05 -0.000128615)
(5.50809e-07 1.18326e-05 -7.67214e-05)
(1.28566e-05 9.58861e-05 -5.11076e-05)
(2.09452e-05 0.000152706 -2.67688e-05)
(2.79434e-05 0.000187062 1.25257e-06)
(3.65854e-05 0.000203356 3.3689e-05)
(4.71628e-05 0.00020838 6.84966e-05)
(5.85161e-05 0.00020821 0.000102683)
(7.00587e-05 0.000207543 0.000132457)
(8.46739e-05 0.000211608 0.000151937)
(9.24711e-05 0.000224689 0.000151081)
(9.25785e-05 0.000244265 0.000133042)
(8.44632e-05 0.000264096 0.000107084)
(7.31801e-05 0.000280923 7.85099e-05)
(5.85367e-05 0.000291195 5.01942e-05)
(3.92246e-05 0.000289428 2.43054e-05)
(1.50308e-05 0.000268961 1.99832e-06)
(-1.17113e-05 0.000224849 -1.81345e-05)
(-3.78624e-05 0.000149465 -4.01979e-05)
(-5.56406e-05 5.47082e-05 -3.57609e-05)
(-6.27391e-05 -2.66601e-05 -7.72433e-06)
(-6.40775e-05 -8.35689e-05 1.32981e-05)
(-6.21999e-05 -0.000120072 3.3291e-05)
(-6.01092e-05 -0.000139359 5.45047e-05)
(-5.95105e-05 -0.000146975 7.68883e-05)
(-6.14726e-05 -0.00014806 0.000100105)
(-6.75844e-05 -0.000146795 0.000123067)
(-8.18656e-05 -0.000148646 0.000140592)
(-9.44459e-05 -0.000158514 0.000140195)
(-0.000102354 -0.000176266 0.00012372)
(-0.000105003 -0.000196923 9.87987e-05)
(-0.000105307 -0.000216483 6.96574e-05)
(-0.000101434 -0.000230155 3.91093e-05)
(-9.0631e-05 -0.000231029 9.49352e-06)
(-7.17785e-05 -0.00021122 -1.79121e-05)
(-4.7091e-05 -0.000165237 -4.44535e-05)
(-2.04204e-05 -8.65456e-05 -7.43385e-05)
(9.84988e-05 -2.06838e-05 1.53918e-07)
(9.3117e-05 5.89624e-05 1.51474e-05)
(7.13106e-05 0.000110648 3.10622e-05)
(4.57785e-05 0.000133883 4.72334e-05)
(2.3604e-05 0.000133682 6.28072e-05)
(9.20329e-06 0.000117963 7.39692e-05)
(6.78405e-06 9.54885e-05 7.49287e-05)
(2.13849e-05 7.55528e-05 6.14875e-05)
(5.88868e-05 6.78666e-05 4.02142e-05)
(0.000109321 7.72372e-05 4.03078e-05)
(0.000141916 0.000105655 6.36574e-05)
(0.000150722 0.000148184 7.55715e-05)
(0.000139091 0.00019442 7.38107e-05)
(0.0001108 0.000234614 6.46881e-05)
(6.88217e-05 0.000259509 5.42621e-05)
(1.64531e-05 0.000259953 4.63946e-05)
(-3.96863e-05 0.00022856 4.19681e-05)
(-8.49396e-05 0.000162646 4.00256e-05)
(-0.000102757 7.99464e-05 4.53724e-05)
(-9.25814e-05 6.47058e-06 5.53243e-05)
(-6.90951e-05 -4.04952e-05 6.31793e-05)
(-4.43805e-05 -6.19014e-05 7.08465e-05)
(-2.39987e-05 -6.32963e-05 7.90908e-05)
(-1.08421e-05 -5.15768e-05 8.49911e-05)
(-8.55564e-06 -3.31656e-05 8.28785e-05)
(-2.28853e-05 -1.50403e-05 6.75481e-05)
(-6.0187e-05 -6.53988e-06 4.3747e-05)
(-0.000110718 -1.44112e-05 3.9312e-05)
(-0.000145498 -4.2612e-05 5.74288e-05)
(-0.000160743 -8.65347e-05 6.46452e-05)
(-0.000156578 -0.000136246 5.87378e-05)
(-0.000133731 -0.000181067 4.53862e-05)
(-9.3487e-05 -0.000209952 2.99829e-05)
(-3.90121e-05 -0.000212146 1.59068e-05)
(2.20861e-05 -0.000179566 4.14772e-06)
(7.3993e-05 -0.000109889 -4.17728e-06)
(-0.000268387 9.97933e-05 -0.000382659)
(-0.000213996 0.000363114 -0.000344847)
(-0.000153425 0.000551285 -0.000262517)
(-8.54729e-05 0.000667933 -0.00014859)
(-6.91926e-06 0.000736121 -4.24666e-06)
(7.8033e-05 0.000782137 0.000173111)
(0.000156843 0.000827311 0.000384002)
(0.000214249 0.000881037 0.000613595)
(0.000253232 0.000931774 0.000799398)
(0.000271413 0.000967524 0.000814293)
(0.000246418 0.000981034 0.000660697)
(0.000218291 0.00097809 0.000465776)
(0.000202959 0.000967579 0.000283999)
(0.00019447 0.000944872 0.00012822)
(0.000184128 0.000895008 -2.64909e-06)
(0.00016728 0.000797798 -0.000113612)
(0.000142831 0.000633115 -0.000206648)
(0.000106592 0.00039403 -0.00026839)
(5.95351e-05 0.000115164 -0.000265477)
(8.77165e-06 -0.000139014 -0.000199701)
(-3.76804e-05 -0.000327277 -0.000111404)
(-7.6727e-05 -0.00045075 -1.69941e-05)
(-0.000112261 -0.000527138 8.54925e-05)
(-0.00014712 -0.000578696 0.00020632)
(-0.000179877 -0.000626183 0.000358499)
(-0.000206166 -0.000681666 0.000544068)
(-0.000237048 -0.000735634 0.000716775)
(-0.000267242 -0.000775367 0.000752814)
(-0.000269848 -0.000793809 0.000634138)
(-0.000277221 -0.00079832 0.000464785)
(-0.000300551 -0.000795922 0.0002936)
(-0.00033014 -0.000779551 0.000135566)
(-0.00035227 -0.000731307 -6.71855e-06)
(-0.000358022 -0.000628454 -0.000135839)
(-0.00034559 -0.000450374 -0.000253762)
(-0.000314186 -0.000193296 -0.000348349)
(-4.46302e-05 2.32003e-05 -0.000235467)
(-1.06759e-05 0.000268125 -0.000176129)
(1.01322e-05 0.000438392 -9.37728e-05)
(2.90222e-05 0.000540985 6.01585e-06)
(5.44131e-05 0.00059102 0.000120669)
(8.85869e-05 0.000609313 0.000245148)
(0.000129822 0.000615225 0.000370803)
(0.00017653 0.000623148 0.000483308)
(0.00023047 0.000642202 0.000559027)
(0.000275246 0.000678239 0.000568998)
(0.00029453 0.000728688 0.000513211)
(0.000287263 0.00078233 0.000419998)
(0.000262332 0.000829663 0.000313439)
(0.000221737 0.00085843 0.000207534)
(0.000165125 0.00085143 0.000109992)
(9.43084e-05 0.000788881 2.42735e-05)
(1.66115e-05 0.000654557 -4.88906e-05)
(-5.6993e-05 0.000435984 -0.000104316)
(-0.000107905 0.000172078 -9.49197e-05)
(-0.000130643 -6.34258e-05 -2.69991e-05)
(-0.00013638 -0.000230038 4.64302e-05)
(-0.000134482 -0.00033465 0.000121109)
(-0.000133282 -0.000390452 0.000198722)
(-0.000137954 -0.000415375 0.000280506)
(-0.000152267 -0.000426102 0.00036597)
(-0.000180733 -0.000435332 0.000449484)
(-0.000229094 -0.000451879 0.000512758)
(-0.000282201 -0.000483323 0.000524701)
(-0.000321534 -0.000532001 0.00047693)
(-0.000343576 -0.000589697 0.00038991)
(-0.000351293 -0.000645739 0.000283382)
(-0.000341174 -0.000684727 0.000170494)
(-0.000308138 -0.00068535 5.95083e-05)
(-0.000251325 -0.000624152 -4.52231e-05)
(-0.000178316 -0.000483389 -0.000141801)
(-0.000102777 -0.000253186 -0.000223098)
(0.000143457 -6.07195e-05 -6.77485e-05)
(0.000157549 0.000158865 -1.19862e-05)
(0.000139772 0.000313927 6.37109e-05)
(0.000111168 0.000401794 0.000146743)
(8.60149e-05 0.00043387 0.000229492)
(7.44708e-05 0.000428373 0.000300519)
(8.53685e-05 0.000405771 0.000344259)
(0.000126628 0.000386738 0.000349301)
(0.000205999 0.000390093 0.000329768)
(0.000296101 0.000425713 0.000337101)
(0.000356617 0.000494863 0.000363222)
(0.000372235 0.000586854 0.000361612)
(0.000343312 0.000681754 0.000326573)
(0.000275902 0.000757965 0.000270304)
(0.000177116 0.000793097 0.00020782)
(5.65818e-05 0.000765167 0.000150409)
(-6.93028e-05 0.000657502 0.000104918)
(-0.000172557 0.00046778 7.97665e-05)
(-0.000225859 0.000236524 9.34683e-05)
(-0.000226539 2.79038e-05 0.00013836)
(-0.000196411 -0.000118852 0.000190692)
(-0.00015746 -0.000202904 0.000243769)
(-0.000123216 -0.000236514 0.000295037)
(-0.000102837 -0.000236116 0.000337059)
(-0.000105473 -0.000218103 0.000356914)
(-0.000140919 -0.000199361 0.000344055)
(-0.000218176 -0.000198585 0.000312475)
(-0.000309456 -0.000229753 0.000309398)
(-0.0003795 -0.000297974 0.000323907)
(-0.000414855 -0.000394303 0.000311667)
(-0.000409384 -0.000499213 0.000266312)
(-0.000362305 -0.000588379 0.00019771)
(-0.000276512 -0.000634733 0.000118765)
(-0.000160775 -0.000612141 4.0072e-05)
(-3.27805e-05 -0.000502365 -2.95172e-05)
(7.83253e-05 -0.00030447 -7.50694e-05)
(-0.000380683 0.00011442 -0.000555559)
(-0.000301983 0.000519887 -0.000507694)
(-0.000218453 0.000817278 -0.000378215)
(-0.000123505 0.0010079 -0.000185932)
(-1.29544e-05 0.00112173 6.42546e-05)
(0.000106755 0.00119412 0.000370731)
(0.000220828 0.00125441 0.000724133)
(0.000313834 0.00131886 0.00109005)
(0.000386072 0.00138526 0.00138307)
(0.000433298 0.0014464 0.00145343)
(0.000428069 0.00149138 0.00126242)
(0.000395571 0.00151738 0.000962498)
(0.000364498 0.00152506 0.000652666)
(0.000336639 0.00150265 0.00037212)
(0.000304848 0.00142911 0.000132264)
(0.000261867 0.00127735 -6.71861e-05)
(0.000204904 0.00102101 -0.000224921)
(0.000133617 0.000653839 -0.000321443)
(5.71919e-05 0.000229756 -0.00032092)
(-1.37328e-05 -0.000159857 -0.000227282)
(-7.51375e-05 -0.000452232 -8.79757e-05)
(-0.000128157 -0.000646483 7.10852e-05)
(-0.000177789 -0.000767945 0.000248823)
(-0.00022632 -0.000847846 0.000456503)
(-0.000273044 -0.000913942 0.000705466)
(-0.000317386 -0.000983666 0.000987188)
(-0.000370575 -0.0010564 0.00124205)
(-0.000430095 -0.00112418 0.00133274)
(-0.000467463 -0.00117664 0.00119226)
(-0.000490452 -0.00121293 0.000933546)
(-0.000520529 -0.00123335 0.000642283)
(-0.000552222 -0.00122238 0.000358186)
(-0.000570235 -0.00115398 9.75185e-05)
(-0.000561 -0.00099691 -0.000135848)
(-0.000521345 -0.000723706 -0.000339451)
(-0.000456626 -0.000331959 -0.000493787)
(-0.000128011 9.13648e-06 -0.000352569)
(-6.61732e-05 0.00037859 -0.000270514)
(-2.11122e-05 0.000643083 -0.000130724)
(2.25523e-05 0.000810132 4.82862e-05)
(7.53822e-05 0.000900479 0.000257865)
(0.000139609 0.000943127 0.000487318)
(0.00021214 0.000965838 0.000719449)
(0.000289229 0.000989625 0.000927047)
(0.00036974 0.00102731 0.00107075)
(0.00043783 0.00108579 0.00110569)
(0.000474522 0.00116408 0.00102247)
(0.000470265 0.0012484 0.000862361)
(0.000435282 0.00132114 0.000668773)
(0.000374683 0.00136195 0.000470781)
(0.000290176 0.00134531 0.000285859)
(0.000185115 0.00124334 0.000123751)
(6.9619e-05 0.00103404 -8.55443e-06)
(-4.06592e-05 0.000704623 -9.30813e-05)
(-0.000122909 0.000313692 -8.13002e-05)
(-0.000168985 -4.05471e-05 1.64131e-05)
(-0.000190569 -0.00029809 0.000141503)
(-0.000201303 -0.000465628 0.000276275)
(-0.0002126 -0.000562026 0.000418335)
(-0.000231368 -0.000612995 0.00056786)
(-0.000262263 -0.000642931 0.000721955)
(-0.000309957 -0.000670464 0.000868762)
(-0.000379187 -0.000707342 0.000980545)
(-0.000457563 -0.00076146 0.00101293)
(-0.000524148 -0.000837782 0.000942546)
(-0.000564011 -0.000928175 0.000794457)
(-0.000579015 -0.00101406 0.000602161)
(-0.000565873 -0.00107073 0.000391726)
(-0.00051883 -0.00106646 0.000181227)
(-0.000436822 -0.000967514 -1.73895e-05)
(-0.000330332 -0.000749187 -0.000193798)
(-0.000218996 -0.00040201 -0.000325429)
(0.000105672 -0.000103933 -0.000127295)
(0.000149074 0.000221754 -3.35304e-05)
(0.000155395 0.000458671 0.000108235)
(0.000147692 0.000602966 0.00027139)
(0.000142894 0.00066973 0.000438269)
(0.000153271 0.000683782 0.000589157)
(0.000187979 0.000673411 0.000700579)
(0.000253177 0.000666266 0.000753943)
(0.000350765 0.000686365 0.000757485)
(0.000457874 0.000748341 0.000767841)
(0.000534502 0.000851572 0.000780169)
(0.000556455 0.000981268 0.00075046)
(0.000519465 0.00111141 0.00067086)
(0.000428559 0.00121203 0.000556339)
(0.000293314 0.00125091 0.000428732)
(0.000128491 0.00119694 0.000307793)
(-4.27211e-05 0.00102835 0.000210689)
(-0.000186491 0.000745447 0.000159129)
(-0.000272444 0.000405026 0.000179199)
(-0.000296398 9.49775e-05 0.000258663)
(-0.000280628 -0.000131796 0.000361927)
(-0.000250735 -0.000271945 0.000470514)
(-0.000224863 -0.000340992 0.000575439)
(-0.000215968 -0.000361534 0.000665317)
(-0.000234544 -0.000357132 0.000723654)
(-0.000288827 -0.000350814 0.000736162)
(-0.00038239 -0.000365665 0.00071185)
(-0.000493556 -0.000420962 0.000703025)
(-0.000586643 -0.000521634 0.000698337)
(-0.000638304 -0.000656932 0.000653318)
(-0.000637147 -0.000801611 0.000556968)
(-0.000579185 -0.000921813 0.000419707)
(-0.000467633 -0.000978166 0.000260164)
(-0.000315164 -0.000932622 9.83107e-05)
(-0.000145881 -0.000760389 -4.35781e-05)
(5.21573e-06 -0.000463688 -0.000132674)
(-0.000487434 7.07981e-05 -0.00057945)
(-0.000384651 0.000567098 -0.000542781)
(-0.000276131 0.000946935 -0.000391847)
(-0.000154336 0.00120571 -0.000144238)
(-1.61292e-05 0.00137197 0.000190462)
(0.000131217 0.00148248 0.000602131)
(0.000273619 0.00156965 0.00106861)
(0.000396958 0.00165518 0.00154069)
(0.000497182 0.00174707 0.00192501)
(0.000574049 0.00184263 0.00206599)
(0.000603688 0.00192457 0.00188622)
(0.000570749 0.00198094 0.00152946)
(0.000521401 0.00200659 0.00112467)
(0.000468099 0.00198207 0.000738012)
(0.000409757 0.00188322 0.00040049)
(0.000339678 0.00168261 0.000123646)
(0.000254102 0.00135671 -8.48908e-05)
(0.000154937 0.000906682 -0.000205742)
(5.37458e-05 0.000395396 -0.000213996)
(-3.72469e-05 -7.91785e-05 -0.000116413)
(-0.000114938 -0.00044741 4.67983e-05)
(-0.000183281 -0.000703045 0.000247712)
(-0.000247887 -0.000871411 0.000480925)
(-0.000310761 -0.000986231 0.000753329)
(-0.000371938 -0.00107831 0.00106982)
(-0.000432818 -0.00116961 0.00141407)
(-0.000501074 -0.00126957 0.00172564)
(-0.000583277 -0.00137553 0.00187083)
(-0.00066242 -0.00147003 0.00175044)
(-0.000700132 -0.00154068 0.00144813)
(-0.000729464 -0.00158365 0.00107046)
(-0.000752315 -0.00157567 0.000681389)
(-0.000758134 -0.00148665 0.000315854)
(-0.000733364 -0.00128429 -9.59272e-06)
(-0.000673692 -0.000943242 -0.000284351)
(-0.000586651 -0.000467639 -0.000486498)
(-0.000247941 -3.87303e-05 -0.000349025)
(-0.00015509 0.000409578 -0.000264413)
(-7.69157e-05 0.000744414 -8.9743e-05)
(1.48682e-06 0.000969449 0.000149019)
(8.94612e-05 0.00110683 0.000436614)
(0.000187706 0.00118789 0.000755286)
(0.000291448 0.00124339 0.00107893)
(0.000394975 0.00129726 0.00136995)
(0.000495326 0.00136442 0.00157886)
(0.000581535 0.00145001 0.00164943)
(0.000634348 0.00155311 0.00156305)
(0.000633013 0.00166059 0.00136281)
(0.000589613 0.00174789 0.0011035)
(0.000513638 0.00178982 0.000828265)
(0.000409815 0.00175712 0.000566811)
(0.000282761 0.00161955 0.000338537)
(0.000143065 0.00135456 0.000159072)
(7.29606e-06 0.000955613 5.47012e-05)
(-0.000102451 0.000489758 6.27622e-05)
(-0.000176372 6.1473e-05 0.00016951)
(-0.000223516 -0.00026286 0.000323598)
(-0.000258423 -0.000485257 0.000499509)
(-0.000293035 -0.000626025 0.000689826)
(-0.00033408 -0.000713684 0.000891481)
(-0.00038524 -0.000776001 0.00109782)
(-0.000449754 -0.000834574 0.00129211)
(-0.000531695 -0.000903148 0.00144215)
(-0.000626335 -0.000986314 0.00149733)
(-0.000714092 -0.00108864 0.00142427)
(-0.000767302 -0.00120437 0.00124102)
(-0.000786866 -0.00130833 0.000985492)
(-0.000771607 -0.00137041 0.000694232)
(-0.000717194 -0.00135426 0.000396442)
(-0.000622737 -0.00122257 0.000114655)
(-0.000498728 -0.000949051 -0.000129617)
(-0.000365618 -0.000529828 -0.000301985)
(-9.06862e-06 -0.000155553 -0.000100151)
(6.89739e-05 0.000237886 1.51246e-05)
(0.000113458 0.000533013 0.000204323)
(0.000145739 0.000725341 0.000431682)
(0.000180837 0.000832361 0.000670967)
(0.000228408 0.000881792 0.000895504)
(0.000293983 0.00090441 0.00107573)
(0.000380004 0.000928492 0.0011864)
(0.000484352 0.000976742 0.00122589)
(0.000598719 0.00106511 0.00124042)
(0.000680627 0.00119173 0.00123885)
(0.000705268 0.00134132 0.00118652)
(0.000665848 0.00148614 0.00107102)
(0.000565927 0.0015932 0.000908068)
(0.000415318 0.00162587 0.000724722)
(0.000230284 0.00154866 0.00054914)
(3.58875e-05 0.00133775 0.000409295)
(-0.000133915 0.00099695 0.000336792)
(-0.000248996 0.000590835 0.000357861)
(-0.000303915 0.00021636 0.000456898)
(-0.000318898 -6.79445e-05 0.000594004)
(-0.000318792 -0.000256479 0.00074318)
(-0.000321889 -0.000366065 0.000889898)
(-0.000340491 -0.000422097 0.00101982)
(-0.000382424 -0.00045106 0.00111478)
(-0.000452304 -0.000476661 0.00115756)
(-0.000549308 -0.000519768 0.0011486)
(-0.000670451 -0.00060045 0.00113001)
(-0.000773433 -0.000723556 0.0011051)
(-0.000834286 -0.000879255 0.00103457)
(-0.000839643 -0.00104091 0.000897702)
(-0.000782953 -0.0011713 0.000702843)
(-0.000665943 -0.00122545 0.00047263)
(-0.000501293 -0.00115914 0.00023644)
(-0.000314073 -0.000944097 3.0656e-05)
(-0.000139251 -0.000585746 -9.71406e-05)
(-0.000594711 -2.38151e-05 -0.000428015)
(-0.000472485 0.000515255 -0.00042107)
(-0.00033919 0.00094781 -0.000278658)
(-0.000189857 0.00126284 -1.06004e-05)
(-2.40302e-05 0.00148329 0.000371199)
(0.000150583 0.00164281 0.000848625)
(0.000320885 0.00177314 0.00138897)
(0.000473146 0.00189793 0.00193382)
(0.000599439 0.00203062 0.00238728)
(0.000703164 0.00217032 0.0026027)
(0.00076392 0.00229206 0.00248048)
(0.00073165 0.00237396 0.00211666)
(0.000665478 0.00241172 0.00166054)
(0.000585696 0.00238102 0.00120357)
(0.000499134 0.00225724 0.000797128)
(0.000403533 0.0020174 0.000466416)
(0.000295986 0.001647 0.000224888)
(0.000178297 0.00115784 8.65323e-05)
(5.97906e-05 0.000612993 6.1351e-05)
(-4.92601e-05 0.000101506 0.000140564)
(-0.00014607 -0.000311572 0.000296961)
(-0.000234643 -0.000614733 0.000507587)
(-0.000319786 -0.000828587 0.000764513)
(-0.000402907 -0.000984789 0.00106879)
(-0.000483637 -0.00111429 0.00141828)
(-0.000562872 -0.00124144 0.00179181)
(-0.000645254 -0.00138162 0.00213146)
(-0.000742608 -0.00153515 0.00232322)
(-0.000846402 -0.00167688 0.00225988)
(-0.000895829 -0.00178043 0.00196046)
(-0.000920021 -0.0018408 0.00154102)
(-0.000927502 -0.00183213 0.00108656)
(-0.000915926 -0.00172426 0.000649612)
(-0.000876615 -0.00148918 0.00026027)
(-0.000805333 -0.00110951 -6.32072e-05)
(-0.000707641 -0.00059797 -0.000301197)
(-0.000394203 -0.000117265 -0.00019407)
(-0.000272538 0.00036897 -0.000126448)
(-0.000158544 0.000749531 5.30172e-05)
(-4.0653e-05 0.0010224 0.000319075)
(8.71036e-05 0.00120866 0.000652787)
(0.000222766 0.00133822 0.00103083)
(0.00035938 0.00144058 0.00142)
(0.000489275 0.00153873 0.00177501)
(0.000608093 0.0016466 0.00203971)
(0.000709477 0.00176598 0.00215348)
(0.000773327 0.0018942 0.00208957)
(0.000774075 0.00201863 0.00188077)
(0.00072432 0.00211121 0.00158663)
(0.000637363 0.0021458 0.00126232)
(0.000521108 0.00209383 0.000949588)
(0.000381609 0.00192749 0.000677655)
(0.000228538 0.00162769 0.000469335)
(7.66599e-05 0.00119678 0.000351977)
(-5.50587e-05 0.000701281 0.000348561)
(-0.000156816 0.000238828 0.00044367)
(-0.000234835 -0.000126965 0.000597803)
(-0.000301965 -0.000392588 0.000785714)
(-0.000368476 -0.000577133 0.000997211)
(-0.000439214 -0.000708455 0.00122586)
(-0.000515476 -0.000814108 0.00146123)
(-0.000598169 -0.00091555 0.00168295)
(-0.000690472 -0.00102577 0.00185699)
(-0.000793696 -0.00114574 0.00193526)
(-0.000891434 -0.00127649 0.00187945)
(-0.000952752 -0.00141176 0.00169049)
(-0.000974627 -0.00152423 0.00140405)
(-0.000957776 -0.00158263 0.00106382)
(-0.000900498 -0.00155124 0.000708601)
(-0.000802978 -0.00139489 0.000370673)
(-0.000673954 -0.00108998 8.06309e-05)
(-0.000530856 -0.000639887 -0.000122258)
(-0.000178487 -0.00021756 5.33179e-05)
(-6.51483e-05 0.000209972 0.000169262)
(2.28068e-05 0.000542012 0.000377068)
(0.000103668 0.000773158 0.000638695)
(0.000188321 0.000922348 0.000924057)
(0.00028114 0.00101728 0.00120249)
(0.00038225 0.00108667 0.00144002)
(0.000490224 0.00115478 0.00160492)
(0.000601553 0.00123946 0.00168374)
(0.00071884 0.00135471 0.00170641)
(0.000800981 0.00150026 0.0017001)
(0.000826585 0.00166054 0.00163955)
(0.000788703 0.00180715 0.00150529)
(0.000690026 0.00190832 0.00131362)
(0.000539251 0.0019286 0.00109582)
(0.000351101 0.00183302 0.000886677)
(0.000148642 0.00159814 0.000721519)
(-3.69356e-05 0.00123071 0.000635503)
(-0.000177276 0.000795709 0.000650697)
(-0.000265646 0.000388522 0.000749851)
(-0.000319202 6.7959e-05 0.000894694)
(-0.000360292 -0.000158918 0.00105843)
(-0.000404554 -0.000309509 0.00122467)
(-0.000460533 -0.00040945 0.00137775)
(-0.000531455 -0.000484216 0.0014986)
(-0.000618141 -0.000554214 0.00156739)
(-0.000718472 -0.000634618 0.00157478)
(-0.00084028 -0.000741238 0.00154555)
(-0.000944298 -0.000882285 0.00150735)
(-0.00100988 -0.00104866 0.001426)
(-0.00102317 -0.00121312 0.00126774)
(-0.000975907 -0.00133944 0.00103864)
(-0.000867434 -0.00138354 0.000763616)
(-0.000707752 -0.00130114 0.000478511)
(-0.000518923 -0.00106337 0.000229299)
(-0.000332574 -0.000677881 7.17085e-05)
(-0.000704412 -0.000155643 -0.000111048)
(-0.000569781 0.000387972 -0.000145634)
(-0.000414799 0.000845614 -3.72213e-05)
(-0.000237776 0.00120203 0.000215895)
(-4.2259e-05 0.00147365 0.000603545)
(0.000162434 0.001689 0.00110315)
(0.000363171 0.00187653 0.0016758)
(0.000546007 0.0020582 0.00225926)
(0.000700008 0.00224694 0.00276017)
(0.000824122 0.00243907 0.00305089)
(0.000897428 0.00260202 0.00301729)
(0.00086989 0.00270505 0.0026879)
(0.000791888 0.00274834 0.00222436)
(0.000689174 0.00270871 0.00173873)
(0.000576977 0.00256372 0.00129866)
(0.000459969 0.00229768 0.000940791)
(0.000337726 0.00190745 0.0006821)
(0.000210526 0.00141462 0.000529311)
(8.2342e-05 0.000876719 0.000479975)
(-4.18612e-05 0.000366012 0.00052464)
(-0.000160521 -6.35324e-05 0.000648699)
(-0.000275709 -0.000397878 0.00083798)
(-0.000389395 -0.000651844 0.0010852)
(-0.000500899 -0.000852741 0.00138712)
(-0.000607968 -0.00102936 0.00173621)
(-0.000709398 -0.00120566 0.00210932)
(-0.000807002 -0.00139748 0.00245535)
(-0.000908556 -0.00160461 0.00268659)
(-0.00101038 -0.00179666 0.00269503)
(-0.00107058 -0.00193463 0.0024377)
(-0.00108791 -0.00200804 0.00202287)
(-0.00107872 -0.00199709 0.00154867)
(-0.00104915 -0.00187572 0.00108095)
(-0.000997547 -0.00162328 0.000660986)
(-0.00092108 -0.00123235 0.000312085)
(-0.000821766 -0.000722838 4.94055e-05)
(-0.000554931 -0.000217954 0.000110445)
(-0.000410395 0.00027407 0.00014554)
(-0.00026329 0.000677548 0.000301992)
(-0.000106057 0.000985868 0.000561481)
(6.29843e-05 0.0012178 0.000905474)
(0.000238324 0.00140017 0.00130806)
(0.000410162 0.00155859 0.00173195)
(0.000568492 0.00171201 0.00212756)
(0.000706725 0.0018702 0.00243613)
(0.000819646 0.00203124 0.00259792)
(0.000888388 0.00218757 0.00257619)
(0.000892109 0.00232477 0.0023864)
(0.000839398 0.002417 0.00208927)
(0.000745819 0.00244043 0.00174861)
(0.000622406 0.00237035 0.00141519)
(0.000477107 0.00218444 0.0011256)
(0.000318461 0.00186959 0.000906448)
(0.000158149 0.00143611 0.000780802)
(1.06668e-05 0.000944707 0.000758828)
(-0.000116058 0.000479067 0.000825503)
(-0.000226308 9.52252e-05 0.000953934)
(-0.000330031 -0.000199742 0.00112497)
(-0.000434331 -0.000422801 0.00132888)
(-0.000540799 -0.000599496 0.00155726)
(-0.00064728 -0.000754828 0.00179695)
(-0.000751456 -0.000907406 0.00202582)
(-0.000854147 -0.00106673 0.00221119)
(-0.000958212 -0.00123124 0.00231177)
(-0.00105474 -0.00139491 0.0022858)
(-0.00112017 -0.00154677 0.00211625)
(-0.00114296 -0.00166316 0.00183237)
(-0.0011249 -0.00171473 0.00148014)
(-0.00106738 -0.00166995 0.00110411)
(-0.000972324 -0.00149933 0.000742994)
(-0.000846377 -0.00118469 0.000432125)
(-0.000702291 -0.000735685 0.000209678)
(-0.00037939 -0.000286858 0.000340536)
(-0.000234566 0.000148223 0.000437142)
(-0.000104652 0.000498628 0.000634526)
(2.50263e-05 0.0007583 0.00089827)
(0.000160929 0.000946696 0.00119901)
(0.000301648 0.00108994 0.00150519)
(0.000441574 0.00121225 0.00178033)
(0.00057523 0.00133155 0.00198774)
(0.000698226 0.00145891 0.00210378)
(0.000814846 0.00160315 0.00214125)
(0.000896575 0.00176724 0.00214012)
(0.000924835 0.00193527 0.00208481)
(0.000892157 0.00207865 0.00195103)
(0.000800964 0.00216901 0.00175439)
(0.00065862 0.00217577 0.0015281)
(0.000477157 0.00206811 0.00131039)
(0.000275832 0.00182502 0.00113898)
(8.17416e-05 0.00145491 0.00104673)
(-7.93553e-05 0.00101839 0.00104947)
(-0.000199609 0.000603206 0.00113048)
(-0.000292796 0.000265297 0.0012578)
(-0.000378374 1.19006e-05 0.00140945)
(-0.000468443 -0.000174936 0.00157091)
(-0.000566665 -0.000319853 0.00172681)
(-0.000671125 -0.000445111 0.0018578)
(-0.000778608 -0.000565806 0.00194224)
(-0.000886689 -0.000689885 0.00196388)
(-0.00100036 -0.000825053 0.00193198)
(-0.0011013 -0.000983659 0.00188766)
(-0.00117074 -0.00115719 0.00180577)
(-0.00119251 -0.00131907 0.00164663)
(-0.0011579 -0.001436 0.0014117)
(-0.00106448 -0.00146842 0.00112461)
(-0.000919004 -0.00137621 0.000822986)
(-0.000738839 -0.00113262 0.00055584)
(-0.00055043 -0.000746703 0.000379853)
(-0.00081718 -0.000309383 0.000342788)
(-0.000675163 0.000211172 0.000262358)
(-0.00050143 0.000670834 0.000319974)
(-0.000297207 0.00105358 0.000529742)
(-7.0624e-05 0.00137021 0.000887124)
(0.000165871 0.00164323 0.00136959)
(0.000397427 0.00189581 0.00193691)
(0.000608603 0.00214525 0.00252878)
(0.000785457 0.00239965 0.00306072)
(0.000920614 0.00264991 0.00342249)
(0.000996474 0.00285684 0.00348451)
(0.00098191 0.00298172 0.00321954)
(0.000897743 0.00302726 0.00278852)
(0.000778033 0.00297897 0.00231427)
(0.000646194 0.00281958 0.00187434)
(0.000514156 0.00254191 0.0015133)
(0.000384623 0.00215351 0.00124973)
(0.000255483 0.00168267 0.00108412)
(0.000123195 0.00117848 0.00100609)
(-1.44504e-05 0.000694713 0.00100653)
(-0.000157533 0.000271567 0.00108083)
(-0.000305074 -7.78405e-05 0.00122463)
(-0.000454583 -0.000363728 0.00143424)
(-0.000601432 -0.000608429 0.00170495)
(-0.000739653 -0.000836704 0.00202652)
(-0.000864007 -0.0010692 0.00237699)
(-0.000972138 -0.0013182 0.00271514)
(-0.00106675 -0.00158104 0.00297336)
(-0.00115342 -0.0018259 0.00304633)
(-0.00121988 -0.00200455 0.00286244)
(-0.00122966 -0.00209202 0.00249439)
(-0.00120671 -0.0020816 0.00204258)
(-0.00116313 -0.00195521 0.00158237)
(-0.0011037 -0.00170128 0.00116264)
(-0.00102747 -0.0013219 0.000809209)
(-0.000932748 -0.000841174 0.000532891)
(-0.000718296 -0.00033003 0.000541322)
(-0.000557895 0.000144383 0.000534956)
(-0.000383152 0.000551158 0.000648383)
(-0.000190042 0.000881888 0.000873676)
(1.87318e-05 0.00115284 0.00119627)
(0.000233545 0.0013871 0.00159087)
(0.000440983 0.00160511 0.00201955)
(0.000627861 0.00181982 0.00243258)
(0.000784591 0.00203478 0.00277247)
(0.000905561 0.00224345 0.00298092)
(0.000977315 0.00243112 0.00301037)
(0.000986539 0.00258055 0.00285998)
(0.000933969 0.00267161 0.00258826)
(0.00083725 0.00268481 0.00226229)
(0.000710668 0.00260153 0.00193713)
(0.000564266 0.0024066 0.00165331)
(0.000405702 0.00209384 0.00143796)
(0.000243137 0.00167901 0.00130746)
(8.56168e-05 0.00121441 0.00126243)
(-6.21882e-05 0.000767864 0.00128979)
(-0.000203463 0.000385742 0.00137441)
(-0.000344966 7.56755e-05 0.00150618)
(-0.000489879 -0.000177524 0.00167859)
(-0.000635573 -0.000396618 0.00188313)
(-0.000775487 -0.000602776 0.00210567)
(-0.00090296 -0.000810021 0.00232455)
(-0.00101525 -0.00102282 0.00251052)
(-0.00111526 -0.00123618 0.00262811)
(-0.00120427 -0.00143582 0.00263517)
(-0.00126917 -0.00160601 0.00250421)
(-0.00129055 -0.00172798 0.00225223)
(-0.00127115 -0.0017757 0.0019219)
(-0.00121502 -0.00172394 0.00155928)
(-0.00112562 -0.00155066 0.00120579)
(-0.00100766 -0.00124427 0.000897244)
(-0.000869035 -0.000818656 0.000666785)
(-0.000587701 -0.000357185 0.000744818)
(-0.000419258 6.59979e-05 0.000807634)
(-0.000254144 0.000418807 0.000971746)
(-8.10471e-05 0.000695816 0.00121087)
(0.000102471 0.000916676 0.00149947)
(0.000289686 0.00110533 0.00180736)
(0.000469477 0.00128079 0.00209776)
(0.000631891 0.00145373 0.00233139)
(0.00077093 0.00162751 0.00247786)
(0.000888097 0.00180423 0.00253671)
(0.000971324 0.00198833 0.00254741)
(0.00100307 0.00216392 0.00250575)
(0.000976778 0.00230425 0.00238936)
(0.000894996 0.00238472 0.00221013)
(0.000764114 0.00238108 0.00199963)
(0.00059349 0.00226878 0.00179586)
(0.000398137 0.00203045 0.0016346)
(0.000200685 0.00167478 0.0015424)
(2.4046e-05 0.00125569 0.00152832)
(-0.000123304 0.000851006 0.00157809)
(-0.000252341 0.00051215 0.00166922)
(-0.000380044 0.000244787 0.00178825)
(-0.000515067 2.99832e-05 0.00192479)
(-0.000656227 -0.000155557 0.00206503)
(-0.000796412 -0.000330119 0.00219016)
(-0.000927819 -0.000502734 0.00227813)
(-0.00104641 -0.000673614 0.00230964)
(-0.00115303 -0.000841895 0.00228396)
(-0.00125163 -0.00101994 0.00223775)
(-0.00132129 -0.0012004 0.00216152)
(-0.00134782 -0.0013603 0.00201949)
(-0.00132375 -0.00146956 0.00180477)
(-0.00124571 -0.00149426 0.00153607)
(-0.00111733 -0.00140016 0.00124863)
(-0.000951035 -0.00116413 0.000988456)
(-0.00076763 -0.000796045 0.000806775)
(-0.00092981 -0.000469465 0.000896941)
(-0.000781328 1.02259e-05 0.000773151)
(-0.00058999 0.000454538 0.000773197)
(-0.000360139 0.000850024 0.000922239)
(-0.000104114 0.00120335 0.00122369)
(0.00016203 0.00153091 0.00165903)
(0.000420501 0.00184926 0.00219111)
(0.000653021 0.00216877 0.00276539)