/*--------------------------------*- C++ -*----------------------------------*\
| =========                 |                                                 |
| \\      /  F ield         | OpenFOAM: The Open Source CFD Toolbox           |
|  \\    /   O peration     | Version:  2312                                  |
|   \\  /    A nd           | Website:  www.openfoam.com                      |
|    \\/     M anipulation  |                                                 |
\*---------------------------------------------------------------------------*/
FoamFile
{
    version     2.0;
    format      ascii;
    arch        "LSB;label=32;scalar=64";
    class       volVectorField;
    location    "0.6";
    object      D_0_0_0;
}
// * * * * * * * * * * * * * * * * * * * * * * * * * * * * * * * * * * * * * //

dimensions      [0 1 0 0 0 0 0];

internalField   nonuniform List<vector> 
1620
(
(0.000454739 -0.000100478 0.000103078)
(0.000392059 -0.000140252 -9.31669e-06)
(0.000322278 -0.00019504 -8.84282e-05)
(0.000259583 -0.000229792 -0.000128741)
(0.000211556 -0.000238162 -0.000142603)
(0.000180431 -0.000227174 -0.000140488)
(0.000164521 -0.000203861 -0.000128118)
(0.000158681 -0.000171344 -0.000109131)
(0.000155192 -0.000130243 -8.62658e-05)
(0.000145261 -8.06568e-05 -6.10914e-05)
(0.000120451 -2.30536e-05 -3.34882e-05)
(7.36299e-05 4.13657e-05 -1.33349e-06)
(-2.7553e-07 0.000109357 3.93624e-05)
(-0.00010258 0.000172514 9.29309e-05)
(-0.000226784 0.000214481 0.000158941)
(-0.00035334 0.000215492 0.000222462)
(-0.000449979 0.000170962 0.000248453)
(-0.000484398 0.000114892 0.000204312)
(-0.000454739 0.000100478 0.000103078)
(-0.000392059 0.000140252 -9.31668e-06)
(-0.000322278 0.00019504 -8.84282e-05)
(-0.000259583 0.000229792 -0.000128741)
(-0.000211556 0.000238162 -0.000142603)
(-0.000180431 0.000227174 -0.000140488)
(-0.000164521 0.000203861 -0.000128118)
(-0.000158681 0.000171344 -0.000109131)
(-0.000155192 0.000130243 -8.62658e-05)
(-0.000145261 8.06568e-05 -6.10914e-05)
(-0.000120451 2.30536e-05 -3.34882e-05)
(-7.363e-05 -4.13657e-05 -1.33349e-06)
(2.75528e-07 -0.000109357 3.93624e-05)
(0.00010258 -0.000172514 9.29309e-05)
(0.000226784 -0.000214481 0.000158941)
(0.00035334 -0.000215492 0.000222462)
(0.000449979 -0.000170962 0.000248453)
(0.000484398 -0.000114892 0.000204312)
(0.00037092 -0.000185293 6.87897e-05)
(0.000377512 -0.000207589 2.2529e-05)
(0.00036854 -0.000211224 -1.75143e-05)
(0.000345286 -0.00019077 -4.94816e-05)
(0.000311196 -0.000155085 -7.51194e-05)
(0.000272097 -0.000115082 -9.34101e-05)
(0.000233422 -7.6918e-05 -0.000102523)
(0.000197432 -4.17566e-05 -0.000101907)
(0.000162665 -8.39913e-06 -9.22796e-05)
(0.000125267 2.43467e-05 -7.4798e-05)
(8.09604e-05 5.65836e-05 -5.05228e-05)
(2.68442e-05 8.7314e-05 -2.03525e-05)
(-3.74697e-05 0.000114841 1.47111e-05)
(-0.000109528 0.000136953 5.28321e-05)
(-0.000184229 0.000151108 8.97673e-05)
(-0.000254232 0.000156178 0.000117166)
(-0.000311152 0.000156718 0.000124468)
(-0.000349618 0.000165026 0.000106966)
(-0.00037092 0.000185293 6.87897e-05)
(-0.000377512 0.000207589 2.2529e-05)
(-0.00036854 0.000211224 -1.75143e-05)
(-0.000345286 0.00019077 -4.94816e-05)
(-0.000311196 0.000155085 -7.51194e-05)
(-0.000272097 0.000115082 -9.34101e-05)
(-0.000233422 7.6918e-05 -0.000102523)
(-0.000197432 4.17566e-05 -0.000101907)
(-0.000162665 8.39913e-06 -9.22796e-05)
(-0.000125267 -2.43467e-05 -7.4798e-05)
(-8.09604e-05 -5.65836e-05 -5.05228e-05)
(-2.68442e-05 -8.7314e-05 -2.03525e-05)
(3.74697e-05 -0.000114841 1.47111e-05)
(0.000109528 -0.000136953 5.28321e-05)
(0.000184229 -0.000151108 8.97673e-05)
(0.000254232 -0.000156178 0.000117166)
(0.000311152 -0.000156718 0.000124468)
(0.000349618 -0.000165026 0.000106966)
(0.000265012 -0.000230897 3.21243e-05)
(0.000316526 -0.00025029 2.65221e-05)
(0.000357073 -0.000225589 1.38824e-05)
(0.000376442 -0.000168947 -1.02493e-05)
(0.000370157 -9.94786e-05 -4.23893e-05)
(0.000341222 -3.20636e-05 -7.39004e-05)
(0.000296605 2.52239e-05 -9.6928e-05)
(0.000242931 6.94219e-05 -0.00010709)
(0.000184591 0.000100136 -0.000103189)
(0.000124084 0.000117735 -8.62377e-05)
(6.33085e-05 0.000122718 -5.90045e-05)
(4.78509e-06 0.000116189 -2.59972e-05)
(-4.80168e-05 0.000101165 6.7586e-06)
(-9.16771e-05 8.39788e-05 3.27463e-05)
(-0.00012487 7.45975e-05 4.69209e-05)
(-0.000150467 8.46225e-05 4.83555e-05)
(-0.000176638 0.000121624 4.23954e-05)
(-0.000214367 0.00017904 3.66975e-05)
(-0.000265012 0.000230897 3.21243e-05)
(-0.000316526 0.00025029 2.65221e-05)
(-0.000357073 0.000225589 1.38824e-05)
(-0.000376442 0.000168947 -1.02493e-05)
(-0.000370157 9.94786e-05 -4.23893e-05)
(-0.000341222 3.20636e-05 -7.39004e-05)
(-0.000296605 -2.52239e-05 -9.6928e-05)
(-0.000242931 -6.94219e-05 -0.00010709)
(-0.000184591 -0.000100136 -0.000103189)
(-0.000124084 -0.000117735 -8.62377e-05)
(-6.33085e-05 -0.000122718 -5.90045e-05)
(-4.78509e-06 -0.000116189 -2.59972e-05)
(4.80168e-05 -0.000101165 6.7586e-06)
(9.16771e-05 -8.39788e-05 3.27463e-05)
(0.00012487 -7.45975e-05 4.69209e-05)
(0.000150467 -8.46225e-05 4.83555e-05)
(0.000176638 -0.000121624 4.23954e-05)
(0.000214367 -0.00017904 3.66975e-05)
(0.00120389 -0.000472008 0.000357128)
(0.00111972 -0.000572937 3.63282e-05)
(0.000991522 -0.000648192 -0.000217594)
(0.000854883 -0.000651243 -0.000382511)
(0.000728761 -0.000595282 -0.000472308)
(0.000623597 -0.000510543 -0.000503898)
(0.000544163 -0.000416955 -0.000491813)
(0.000486375 -0.000320077 -0.000448967)
(0.000437116 -0.000217882 -0.000385596)
(0.000377796 -0.000107217 -0.000307341)
(0.000289032 1.32999e-05 -0.000214016)
(0.000154691 0.000142797 -9.96978e-05)
(-3.50611e-05 0.000277196 4.5133e-05)
(-0.000280481 0.000405122 0.000227566)
(-0.000566295 0.000502471 0.00043935)
(-0.000854134 0.000537253 0.000637199)
(-0.00108509 0.000499982 0.000732203)
(-0.00120544 0.000445727 0.000631186)
(-0.00120389 0.000472008 0.000357128)
(-0.00111972 0.000572937 3.63282e-05)
(-0.000991522 0.000648192 -0.000217594)
(-0.000854883 0.000651243 -0.000382511)
(-0.000728761 0.000595282 -0.000472308)
(-0.000623597 0.000510543 -0.000503898)
(-0.000544163 0.000416955 -0.000491813)
(-0.000486375 0.000320077 -0.000448967)
(-0.000437116 0.000217882 -0.000385596)
(-0.000377796 0.000107217 -0.000307341)
(-0.000289032 -1.32999e-05 -0.000214016)
(-0.000154691 -0.000142797 -9.96978e-05)
(3.50611e-05 -0.000277196 4.5133e-05)
(0.000280481 -0.000405122 0.000227566)
(0.000566295 -0.000502471 0.00043935)
(0.000854134 -0.000537253 0.000637199)
(0.00108509 -0.000499982 0.000732203)
(0.00120544 -0.000445727 0.000631186)
(0.0010589 -0.000600149 0.000315142)
(0.00107493 -0.000665819 0.000145786)
(0.00105 -0.000665234 -1.22076e-05)
(0.000987562 -0.000596632 -0.000146995)
(0.000895693 -0.000486935 -0.000251928)
(0.000789251 -0.000365497 -0.00032114)
(0.000681543 -0.000248784 -0.000352697)
(0.000577587 -0.000140978 -0.000348954)
(0.000473378 -4.0588e-05 -0.000314142)
(0.000359338 5.41245e-05 -0.000252008)
(0.000225218 0.00014288 -0.000164903)
(6.46101e-05 0.000223795 -5.43742e-05)
(-0.000122166 0.000294932 7.70832e-05)
(-0.000327353 0.000355046 0.000223037)
(-0.000536608 0.000402898 0.00036834)
(-0.000730697 0.000438489 0.000483339)
(-0.000889721 0.000470127 0.000524467)
(-0.000998972 0.000522075 0.000459339)
(-0.0010589 0.000600149 0.000315142)
(-0.00107493 0.000665819 0.000145786)
(-0.00105 0.000665234 -1.22076e-05)
(-0.000987562 0.000596632 -0.000146995)
(-0.000895693 0.000486935 -0.000251928)
(-0.000789251 0.000365497 -0.00032114)
(-0.000681543 0.000248784 -0.000352697)
(-0.000577587 0.000140978 -0.000348954)
(-0.000473378 4.0588e-05 -0.000314142)
(-0.000359338 -5.41245e-05 -0.000252008)
(-0.000225218 -0.00014288 -0.000164903)
(-6.46101e-05 -0.000223795 -5.43742e-05)
(0.000122166 -0.000294932 7.70832e-05)
(0.000327353 -0.000355046 0.000223037)
(0.000536608 -0.000402898 0.00036834)
(0.000730697 -0.000438489 0.000483339)
(0.000889721 -0.000470127 0.000524467)
(0.000998972 -0.000522075 0.000459339)
(0.000850594 -0.000682949 0.000258222)
(0.000953722 -0.000734454 0.000210571)
(0.0010277 -0.000686689 0.000138619)
(0.00104638 -0.000566695 3.71878e-05)
(0.00100579 -0.000412804 -7.43923e-05)
(0.000918964 -0.000255083 -0.000171655)
(0.000802171 -0.000110025 -0.000237371)
(0.000666649 1.5551e-05 -0.000263416)
(0.000517279 0.000119123 -0.000248024)
(0.000355119 0.000198967 -0.000193345)
(0.000181267 0.000253109 -0.000104892)
(4.40235e-07 0.000280683 7.58987e-06)
(-0.000177368 0.000285305 0.000129286)
(-0.000338784 0.000278939 0.000241206)
(-0.000472704 0.000282915 0.000323698)
(-0.000576878 0.000322523 0.000361751)
(-0.000661383 0.000414753 0.000351608)
(-0.000746789 0.000554191 0.000308568)
(-0.000850594 0.000682949 0.000258222)
(-0.000953722 0.000734454 0.000210571)
(-0.0010277 0.000686689 0.000138619)
(-0.00104638 0.000566695 3.71878e-05)
(-0.00100579 0.000412804 -7.43923e-05)
(-0.000918964 0.000255083 -0.000171655)
(-0.000802171 0.000110025 -0.000237371)
(-0.000666649 -1.5551e-05 -0.000263416)
(-0.000517279 -0.000119123 -0.000248024)
(-0.000355119 -0.000198967 -0.000193345)
(-0.000181267 -0.000253109 -0.000104892)
(-4.40241e-07 -0.000280683 7.58987e-06)
(0.000177368 -0.000285305 0.000129285)
(0.000338784 -0.000278939 0.000241206)
(0.000472704 -0.000282915 0.000323698)
(0.000576878 -0.000322523 0.000361751)
(0.000661383 -0.000414753 0.000351608)
(0.000746789 -0.000554191 0.000308568)
(0.00184356 -0.00101657 0.000772205)
(0.00175289 -0.00111837 0.000220103)
(0.00158095 -0.00114846 -0.000264349)
(0.00138298 -0.00108824 -0.000616456)
(0.00118982 -0.000961712 -0.000834497)
(0.0010194 -0.000806677 -0.000938931)
(0.000880551 -0.000647249 -0.000955169)
(0.000769949 -0.000489576 -0.000906668)
(0.000671482 -0.000329777 -0.000810916)
(0.000560303 -0.000162118 -0.000676581)
(0.000409436 1.66489e-05 -0.000502263)
(0.000196538 0.00020627 -0.000277839)
(-9.06208e-05 0.000402541 1.00324e-05)
(-0.000449772 0.000594119 0.000366034)
(-0.000858705 0.000757748 0.000766346)
(-0.00126906 0.000863855 0.00113445)
(-0.00160906 0.0009061 0.00133196)
(-0.0018068 0.000936943 0.00121273)
(-0.00184356 0.00101657 0.000772205)
(-0.00175289 0.00111837 0.000220103)
(-0.00158095 0.00114846 -0.000264349)
(-0.00138298 0.00108824 -0.000616456)
(-0.00118982 0.000961712 -0.000834497)
(-0.0010194 0.000806677 -0.000938931)
(-0.000880551 0.000647249 -0.000955169)
(-0.000769949 0.000489576 -0.000906668)
(-0.000671482 0.000329777 -0.000810916)
(-0.000560303 0.000162118 -0.000676581)
(-0.000409436 -1.66489e-05 -0.000502263)
(-0.000196538 -0.00020627 -0.000277839)
(9.06208e-05 -0.000402541 1.00324e-05)
(0.000449772 -0.000594119 0.000366034)
(0.000858705 -0.000757748 0.000766346)
(0.00126906 -0.000863855 0.00113445)
(0.00160906 -0.0009061 0.00133196)
(0.0018068 -0.000936943 0.00121273)
(0.00164906 -0.00105059 0.00072656)
(0.00167831 -0.00112521 0.000398268)
(0.00163779 -0.00110246 6.84286e-05)
(0.00153852 -0.000989173 -0.00021315)
(0.00139775 -0.000819396 -0.00042643)
(0.00123695 -0.000630446 -0.000564571)
(0.00107269 -0.00044449 -0.000629725)
(0.000910286 -0.000268985 -0.000629204)
(0.000743841 -0.000104005 -0.000570958)
(0.000560444 5.14785e-05 -0.000460475)
(0.000346398 0.000196641 -0.000300147)
(9.33967e-05 0.000329083 -9.12765e-05)
(-0.00019714 0.000446889 0.000161479)
(-0.000512798 0.000550109 0.000443741)
(-0.000831666 0.000640696 0.000724255)
(-0.00112593 0.000723838 0.000950046)
(-0.00136916 0.000812547 0.00105191)
(-0.00154459 0.000924295 0.000971924)
(-0.00164906 0.00105059 0.00072656)
(-0.00167831 0.00112521 0.000398268)
(-0.00163779 0.00110246 6.84286e-05)
(-0.00153852 0.000989173 -0.00021315)
(-0.00139775 0.000819396 -0.00042643)
(-0.00123695 0.000630446 -0.000564571)
(-0.00107269 0.00044449 -0.000629725)
(-0.000910286 0.000268985 -0.000629204)
(-0.000743841 0.000104005 -0.000570958)
(-0.000560444 -5.14785e-05 -0.000460475)
(-0.000346398 -0.000196641 -0.000300147)
(-9.33967e-05 -0.000329083 -9.12765e-05)
(0.00019714 -0.000446889 0.000161479)
(0.000512798 -0.000550109 0.000443741)
(0.000831666 -0.000640696 0.000724255)
(0.00112593 -0.000723838 0.000950046)
(0.00136916 -0.000812547 0.00105191)
(0.00154459 -0.000924295 0.000971924)
(0.00135899 -0.00106196 0.0006381)
(0.00149993 -0.00113453 0.000509768)
(0.00159051 -0.00108374 0.000336979)
(0.00159993 -0.000933221 0.000136039)
(0.00152992 -0.000727354 -6.10309e-05)
(0.00139987 -0.000504681 -0.000222231)
(0.00122967 -0.000288466 -0.000326562)
(0.00103141 -9.05823e-05 -0.000364734)
(0.000809437 8.23644e-05 -0.000335008)
(0.000564127 0.000225335 -0.000240068)
(0.000296715 0.000333897 -8.68692e-05)
(1.36803e-05 0.000405831 0.000111071)
(-0.000270875 0.000445139 0.000330913)
(-0.000537108 0.000466912 0.000540493)
(-0.000766514 0.000498515 0.000704356)
(-0.000950654 0.000571197 0.000795169)
(-0.00109581 0.000701747 0.000803183)
(-0.00122099 0.00088508 0.000738124)
(-0.00135899 0.00106196 0.0006381)
(-0.00149993 0.00113453 0.000509768)
(-0.00159051 0.00108374 0.000336979)
(-0.00159993 0.000933221 0.000136039)
(-0.00152992 0.000727354 -6.10309e-05)
(-0.00139987 0.000504681 -0.000222231)
(-0.00122967 0.000288466 -0.000326562)
(-0.00103141 9.05824e-05 -0.000364734)
(-0.000809437 -8.23644e-05 -0.000335008)
(-0.000564127 -0.000225335 -0.000240068)
(-0.000296715 -0.000333897 -8.68692e-05)
(-1.36803e-05 -0.000405831 0.000111071)
(0.000270875 -0.000445139 0.000330912)
(0.000537108 -0.000466912 0.000540493)
(0.000766514 -0.000498515 0.000704356)
(0.000950654 -0.000571197 0.000795169)
(0.00109581 -0.000701747 0.000803183)
(0.00122099 -0.00088508 0.000738124)
(0.00231562 -0.00164779 0.00123964)
(0.00222949 -0.00170681 0.00051443)
(0.00203488 -0.00167275 -0.000183729)
(0.00179582 -0.00155054 -0.000735087)
(0.00155652 -0.00136582 -0.00110349)
(0.00134031 -0.00115323 -0.00130552)
(0.00115568 -0.000936039 -0.00137517)
(0.000998253 -0.000721149 -0.00134405)
(0.000850959 -0.000505115 -0.00123415)
(0.000687233 -0.000281743 -0.00105519)
(0.000477767 -4.70165e-05 -0.000804363)
(0.000198503 0.000199241 -0.000469441)
(-0.000162413 0.000453126 -3.79086e-05)
(-0.000599503 0.000705141 0.000485756)
(-0.0010854 0.000938936 0.00105629)
(-0.00156786 0.00113975 0.00156821)
(-0.00197528 0.00131617 0.00185988)
(-0.00223513 0.00149913 0.00176317)
(-0.00231562 0.00164779 0.00123964)
(-0.00222949 0.00170681 0.00051443)
(-0.00203488 0.00167275 -0.000183729)
(-0.00179582 0.00155054 -0.000735087)
(-0.00155652 0.00136582 -0.00110349)
(-0.00134031 0.00115323 -0.00130552)
(-0.00115568 0.000936039 -0.00137517)
(-0.000998253 0.000721149 -0.00134405)
(-0.000850959 0.000505115 -0.00123415)
(-0.000687233 0.000281743 -0.00105519)
(-0.000477767 4.70166e-05 -0.000804363)
(-0.000198503 -0.000199241 -0.000469441)
(0.000162413 -0.000453126 -3.79087e-05)
(0.000599503 -0.000705141 0.000485756)
(0.0010854 -0.000938936 0.00105629)
(0.00156786 -0.00113975 0.00156821)
(0.00197528 -0.00131617 0.00185988)
(0.00223513 -0.00149913 0.00176317)
(0.00210932 -0.00149864 0.00116734)
(0.00213999 -0.0015679 0.000706632)
(0.00207789 -0.00151926 0.000221432)
(0.00194567 -0.00137248 -0.000204334)
(0.00176867 -0.00116291 -0.000530304)
(0.00157077 -0.00092706 -0.000745017)
(0.00136727 -0.000688245 -0.000853503)
(0.00116163 -0.000456361 -0.000866835)
(0.000946525 -0.000233799 -0.000795365)
(0.000707946 -2.10098e-05 -0.000645437)
(0.000431258 0.000180513 -0.000419398)
(0.000107651 0.000368145 -0.000119133)
(-0.000260901 0.000539981 0.000246857)
(-0.000659592 0.000696675 0.000654094)
(-0.00106188 0.00084242 0.00105426)
(-0.00143405 0.000986792 0.0013754)
(-0.00174471 0.00114608 0.00153659)
(-0.00197466 0.00133032 0.0014726)
(-0.00210932 0.00149864 0.00116734)
(-0.00213999 0.0015679 0.000706632)
(-0.00207789 0.00151926 0.000221432)
(-0.00194567 0.00137248 -0.000204334)
(-0.00176867 0.00116291 -0.000530304)
(-0.00157077 0.00092706 -0.000745017)
(-0.00136727 0.000688245 -0.000853503)
(-0.00116163 0.000456361 -0.000866835)
(-0.000946525 0.000233799 -0.000795365)
(-0.000707946 2.10098e-05 -0.000645437)
(-0.000431258 -0.000180513 -0.000419398)
(-0.000107651 -0.000368145 -0.000119133)
(0.000260901 -0.000539981 0.000246857)
(0.000659591 -0.000696675 0.000654094)
(0.00106188 -0.00084242 0.00105426)
(0.00143405 -0.000986792 0.0013754)
(0.00174471 -0.00114608 0.00153659)
(0.00197466 -0.00133032 0.0014726)
(0.00182892 -0.00137428 0.00104338)
(0.00195414 -0.00145762 0.000832656)
(0.0020196 -0.00140761 0.000565365)
(0.00200147 -0.00124571 0.000275861)
(0.00190255 -0.00101467 3.8477e-06)
(0.00174127 -0.000754106 -0.000213358)
(0.00153572 -0.000490001 -0.000351726)
(0.00129595 -0.000237541 -0.000401052)
(0.00102472 -6.71914e-06 -0.000359765)
(0.000721702 0.000194577 -0.000231212)
(0.000388069 0.000360105 -2.37224e-05)
(3.0501e-05 0.000486848 0.000246003)
(-0.000336414 0.000578553 0.000548436)
(-0.000691203 0.000650144 0.000840353)
(-0.00101154 0.000728229 0.00107316)
(-0.00128263 0.000841358 0.00120989)
(-0.00150219 0.00100212 0.00123977)
(-0.0016798 0.00119549 0.00117781)
(-0.00182892 0.00137428 0.00104338)
(-0.00195414 0.00145762 0.000832656)
(-0.0020196 0.00140761 0.000565365)
(-0.00200147 0.00124571 0.000275861)
(-0.00190255 0.00101467 3.84771e-06)
(-0.00174127 0.000754106 -0.000213358)
(-0.00153572 0.000490001 -0.000351726)
(-0.00129595 0.000237541 -0.000401052)
(-0.00102472 6.71915e-06 -0.000359765)
(-0.000721702 -0.000194577 -0.000231212)
(-0.000388069 -0.000360105 -2.37224e-05)
(-3.0501e-05 -0.000486848 0.000246003)
(0.000336414 -0.000578553 0.000548436)
(0.000691203 -0.000650144 0.000840353)
(0.00101154 -0.000728229 0.00107316)
(0.00128263 -0.000841358 0.00120989)
(0.00150219 -0.00100212 0.00123977)
(0.0016798 -0.00119549 0.00117781)
(0.00260547 -0.00211806 0.00163403)
(0.00254095 -0.00219709 0.000852868)
(0.00234002 -0.00215175 1.19392e-05)
(0.00207766 -0.0020072 -0.000702332)
(0.00181165 -0.00179472 -0.00120971)
(0.001569 -0.00154661 -0.00151338)
(0.00135481 -0.00128586 -0.00164897)
(0.0011617 -0.00102186 -0.00165168)
(0.000972276 -0.000753933 -0.00154521)
(0.000761445 -0.000477546 -0.00133954)
(0.000501958 -0.000189054 -0.00103191)
(0.000171861 0.000112222 -0.000611473)
(-0.000238501 0.000423501 -7.06818e-05)
(-0.000720915 0.000737981 0.000574159)
(-0.00124505 0.00104633 0.00125723)
(-0.00175807 0.00134419 0.00185025)
(-0.00219237 0.00163673 0.00218531)
(-0.00248657 0.00191353 0.00212231)
(-0.00260547 0.00211806 0.00163403)
(-0.00254095 0.00219709 0.000852868)
(-0.00234002 0.00215175 1.19392e-05)
(-0.00207766 0.0020072 -0.000702332)
(-0.00181165 0.00179472 -0.00120971)
(-0.001569 0.00154661 -0.00151338)
(-0.00135481 0.00128586 -0.00164897)
(-0.0011617 0.00102186 -0.00165168)
(-0.000972276 0.000753933 -0.00154521)
(-0.000761445 0.000477546 -0.00133954)
(-0.000501958 0.000189054 -0.00103191)
(-0.000171862 -0.000112222 -0.000611473)
(0.000238501 -0.000423501 -7.06819e-05)
(0.000720915 -0.000737981 0.000574159)
(0.00124505 -0.00104633 0.00125723)
(0.00175807 -0.00134419 0.00185025)
(0.00219237 -0.00163673 0.00218531)
(0.00248657 -0.00191353 0.00212231)
(0.00240858 -0.00184353 0.00149591)
(0.00243429 -0.00192004 0.000995348)
(0.00235449 -0.00187362 0.000420362)
(0.00219841 -0.00172251 -0.000112461)
(0.00199885 -0.00150045 -0.000533459)
(0.00177992 -0.00124147 -0.000819747)
(0.00155346 -0.000969213 -0.000974612)
(0.00132007 -0.0006959 -0.0010099)
(0.00107144 -0.000426554 -0.000936724)
(0.000794056 -0.000163465 -0.000762044)
(0.000474273 9.11747e-05 -0.000489196)
(0.000103973 0.000334835 -0.00012239)
(-0.000314721 0.000565794 0.000324808)
(-0.00076658 0.00078469 0.000818731)
(-0.00122328 0.000996269 0.0012981)
(-0.00164812 0.00121077 0.00167786)
(-0.0020048 0.00143826 0.00186852)
(-0.00226457 0.00166594 0.00180783)
(-0.00240858 0.00184353 0.00149591)
(-0.00243429 0.00192004 0.000995348)
(-0.00235449 0.00187362 0.000420362)
(-0.00219841 0.00172251 -0.000112461)
(-0.00199885 0.00150045 -0.000533459)
(-0.00177992 0.00124147 -0.000819747)
(-0.00155346 0.000969213 -0.000974612)
(-0.00132007 0.0006959 -0.0010099)
(-0.00107144 0.000426554 -0.000936724)
(-0.000794056 0.000163465 -0.000762044)
(-0.000474273 -9.11747e-05 -0.000489196)
(-0.000103973 -0.000334835 -0.00012239)
(0.000314721 -0.000565794 0.000324808)
(0.00076658 -0.00078469 0.000818731)
(0.00122328 -0.000996269 0.0012981)
(0.00164812 -0.00121077 0.00167786)
(0.0020048 -0.00143826 0.00186852)
(0.00226457 -0.00166594 0.00180783)
(0.0021872 -0.0016218 0.0013336)
(0.00227249 -0.00168912 0.00108796)
(0.0022945 -0.00164289 0.000775163)
(0.00224262 -0.00148801 0.000431454)
(0.00211865 -0.00125615 0.000106891)
(0.00193643 -0.000982966 -0.000153048)
(0.00171008 -0.000694665 -0.00031943)
(0.00144682 -0.000408131 -0.000379942)
(0.00114776 -0.000135395 -0.000332754)
(0.000811877 0.00011397 -0.000182091)
(0.000439973 0.00033283 6.18831e-05)
(3.77094e-05 0.000517801 0.000379332)
(-0.000382218 0.000671661 0.000735588)
(-0.000799857 0.000806363 0.00108036)
(-0.00119174 0.000942639 0.00135811)
(-0.00153736 0.00110075 0.00152695)
(-0.00182305 0.00128497 0.00157128)
(-0.00204038 0.00147294 0.0014995)
(-0.0021872 0.0016218 0.0013336)
(-0.00227249 0.00168912 0.00108796)
(-0.0022945 0.00164289 0.000775163)
(-0.00224262 0.00148801 0.000431454)
(-0.00211865 0.00125615 0.000106891)
(-0.00193643 0.000982966 -0.000153048)
(-0.00171008 0.000694665 -0.00031943)
(-0.00144682 0.000408131 -0.000379942)
(-0.00114776 0.000135395 -0.000332754)
(-0.000811877 -0.00011397 -0.000182091)
(-0.000439973 -0.00033283 6.18831e-05)
(-3.77094e-05 -0.000517801 0.000379332)
(0.000382218 -0.000671661 0.000735588)
(0.000799857 -0.000806363 0.00108036)
(0.00119174 -0.000942639 0.00135811)
(0.00153736 -0.00110075 0.00152695)
(0.00182305 -0.00128497 0.00157128)
(0.00204038 -0.00147294 0.0014995)
(0.00271048 -0.00241461 0.00185235)
(0.00266948 -0.00254166 0.00110911)
(0.00248456 -0.0025329 0.000241322)
(0.00222305 -0.0024106 -0.000553633)
(0.00194943 -0.00220558 -0.00115721)
(0.00169591 -0.00194845 -0.00154579)
(0.00146608 -0.00166338 -0.00174483)
(0.00124964 -0.00136387 -0.00178691)
(0.00102914 -0.00105378 -0.00169518)
(0.000782473 -0.000731762 -0.00148017)
(0.000486862 -0.000395407 -0.00114145)
(0.000124653 -4.35664e-05 -0.000673012)
(-0.000310668 0.000322397 -7.52085e-05)
(-0.00080871 0.000697703 0.00062423)
(-0.00133784 0.00107592 0.00134693)
(-0.001847 0.00145319 0.00196029)
(-0.00227687 0.00182344 0.00231123)
(-0.00257625 0.00216027 0.00228381)
(-0.00271048 0.00241461 0.00185235)
(-0.00266948 0.00254166 0.00110911)
(-0.00248456 0.0025329 0.000241322)
(-0.00222305 0.0024106 -0.000553633)
(-0.00194943 0.00220558 -0.00115721)
(-0.00169591 0.00194845 -0.00154579)
(-0.00146608 0.00166338 -0.00174483)
(-0.00124964 0.00136387 -0.00178691)
(-0.00102914 0.00105378 -0.00169518)
(-0.000782473 0.000731762 -0.00148017)
(-0.000486862 0.000395407 -0.00114145)
(-0.000124653 4.35664e-05 -0.000673012)
(0.000310668 -0.000322397 -7.52085e-05)
(0.00080871 -0.000697703 0.00062423)
(0.00133784 -0.00107592 0.00134693)
(0.001847 -0.00145319 0.00196029)
(0.00227687 -0.00182344 0.00231123)
(0.00257625 -0.00216027 0.00228381)
(0.00253973 -0.00207309 0.00169558)
(0.0025605 -0.0021666 0.0012042)
(0.00247225 -0.00214413 0.000611552)
(0.0023063 -0.00201543 3.23078e-05)
(0.0020978 -0.00180683 -0.000446883)
(0.00187078 -0.00154784 -0.000786751)
(0.00163434 -0.00126189 -0.000982154)
(0.00138659 -0.000963577 -0.0010417)
(0.00111876 -0.000660788 -0.000975651)
(0.000818737 -0.000357902 -0.00079165)
(0.00047502 -5.79307e-05 -0.000495305)
(8.10854e-05 0.000236751 -9.4819e-05)
(-0.000360608 0.000524556 0.000390589)
(-0.000835142 0.000805191 0.000920431)
(-0.00131372 0.00108084 0.0014273)
(-0.00175767 0.00135615 0.00182464)
(-0.00212799 0.00163019 0.00202914)
(-0.0023946 0.00188205 0.00198747)
(-0.00253973 0.00207309 0.00169558)
(-0.0025605 0.0021666 0.0012042)
(-0.00247225 0.00214413 0.000611552)
(-0.0023063 0.00201543 3.23079e-05)
(-0.0020978 0.00180683 -0.000446883)
(-0.00187078 0.00154784 -0.000786751)
(-0.00163434 0.00126189 -0.000982154)
(-0.00138659 0.000963577 -0.0010417)
(-0.00111876 0.000660788 -0.000975651)
(-0.000818737 0.000357902 -0.00079165)
(-0.00047502 5.79307e-05 -0.000495305)
(-8.10854e-05 -0.000236751 -9.4819e-05)
(0.000360608 -0.000524556 0.000390589)
(0.000835142 -0.000805191 0.000920431)
(0.00131372 -0.00108084 0.0014273)
(0.00175767 -0.00135615 0.00182464)
(0.00212799 -0.00163019 0.00202914)
(0.0023946 -0.00188205 0.00198747)
(0.00237394 -0.00179122 0.00152431)
(0.00243248 -0.00184319 0.00126554)
(0.00241915 -0.0018018 0.000938448)
(0.0023386 -0.00166452 0.000576559)
(0.00219611 -0.00144952 0.000228765)
(0.00200198 -0.00118398 -5.508e-05)
(0.00176624 -0.000891638 -0.000240328)
(0.0014935 -0.000589699 -0.000311037)
(0.00118361 -0.000291226 -0.000264219)
(0.000835147 -6.60616e-06 -0.000104809)
(0.000448481 0.000256698 0.000154972)
(2.80255e-05 0.000494972 0.000492239)
(-0.000415812 0.000709295 0.00086877)
(-0.000865259 0.000906755 0.00123148)
(-0.00129644 0.00109913 0.00152433)
(-0.00168323 0.00129539 0.00170627)
(-0.00200132 0.00149116 0.00176133)
(-0.00223302 0.00166562 0.00169519)
(-0.00237394 0.00179122 0.00152431)
(-0.00243248 0.00184319 0.00126554)
(-0.00241915 0.0018018 0.000938448)
(-0.0023386 0.00166452 0.000576559)
(-0.00219611 0.00144952 0.000228765)
(-0.00200198 0.00118398 -5.508e-05)
(-0.00176624 0.000891638 -0.000240328)
(-0.0014935 0.000589699 -0.000311037)
(-0.00118361 0.000291226 -0.000264219)
(-0.000835147 6.60617e-06 -0.000104809)
(-0.000448481 -0.000256698 0.000154972)
(-2.80256e-05 -0.000494972 0.000492239)
(0.000415812 -0.000709295 0.00086877)
(0.000865259 -0.000906755 0.00123148)
(0.00129644 -0.00109913 0.00152433)
(0.00168323 -0.00129539 0.00170627)
(0.00200132 -0.00149116 0.00176133)
(0.00223302 -0.00166562 0.00169519)
(0.00265255 -0.0025646 0.00190088)
(0.0026286 -0.00274726 0.00124177)
(0.00247133 -0.00279796 0.000432655)
(0.00223244 -0.00272648 -0.000355913)
(0.00197004 -0.0025561 -0.000995479)
(0.00171886 -0.00231416 -0.00143594)
(0.00148445 -0.00202555 -0.00168339)
(0.00125615 -0.00170771 -0.00176126)
(0.00101735 -0.00136948 -0.00168963)
(0.000749452 -0.00101336 -0.00147973)
(0.000434816 -0.000638816 -0.00113497)
(6.07147e-05 -0.000244852 -0.00065609)
(-0.000375812 0.000167695 -5.22576e-05)
(-0.00086236 0.000594424 0.000640263)
(-0.00136741 0.00102845 0.00134059)
(-0.00184417 0.00146248 0.00192652)
(-0.00224264 0.00188378 0.00226666)
(-0.00252132 0.00226464 0.00226542)
(-0.00265255 0.0025646 0.00190088)
(-0.0026286 0.00274726 0.00124177)
(-0.00247133 0.00279796 0.000432655)
(-0.00223244 0.00272648 -0.000355913)
(-0.00197004 0.0025561 -0.000995479)
(-0.00171886 0.00231416 -0.00143594)
(-0.00148445 0.00202555 -0.00168339)
(-0.00125615 0.00170771 -0.00176126)
(-0.00101735 0.00136948 -0.00168963)
(-0.000749452 0.00101336 -0.00147973)
(-0.000434816 0.000638816 -0.00113497)
(-6.07147e-05 0.000244852 -0.00065609)
(0.000375812 -0.000167695 -5.22577e-05)
(0.00086236 -0.000594424 0.000640263)
(0.00136741 -0.00102845 0.00134059)
(0.00184417 -0.00146248 0.00192652)
(0.00224264 -0.00188378 0.00226666)
(0.00252132 -0.00226464 0.00226542)
(0.00251115 -0.0021944 0.0017632)
(0.00253016 -0.00231502 0.00131693)
(0.00244527 -0.00232903 0.000759171)
(0.00228455 -0.002239 0.00018968)
(0.00208049 -0.00206214 -0.000304156)
(0.00185623 -0.00182185 -0.000670828)
(0.00161999 -0.00154003 -0.000893519)
(0.00136897 -0.00123295 -0.000974173)
(0.00109475 -0.00091116 -0.000920528)
(0.000787132 -0.000581175 -0.00074069)
(0.000437242 -0.000247019 -0.000443141)
(4.06884e-05 8.86815e-05 -4.06966e-05)
(-0.000399085 0.000423769 0.000442335)
(-0.00086705 0.000755916 0.000962157)
(-0.00133482 0.00108313 0.00145296)
(-0.00176488 0.00140349 0.00183627)
(-0.00212042 0.0017099 0.00203992)
(-0.00237412 0.00198322 0.00201755)
(-0.00251115 0.0021944 0.0017632)
(-0.00253016 0.00231502 0.00131693)
(-0.00244527 0.00232903 0.000759171)
(-0.00228455 0.002239 0.00018968)
(-0.00208049 0.00206214 -0.000304156)
(-0.00185623 0.00182185 -0.000670828)
(-0.00161999 0.00154003 -0.000893519)
(-0.00136897 0.00123295 -0.000974173)
(-0.00109475 0.00091116 -0.000920528)
(-0.000787132 0.000581175 -0.00074069)
(-0.000437242 0.000247019 -0.000443141)
(-4.06884e-05 -8.86815e-05 -4.06967e-05)
(0.000399085 -0.000423769 0.000442335)
(0.00086705 -0.000755916 0.000962157)
(0.00133482 -0.00108313 0.00145296)
(0.00176488 -0.00140349 0.00183627)
(0.00212042 -0.0017099 0.00203992)
(0.00237412 -0.00198322 0.00201755)
(0.0023978 -0.00188392 0.00161004)
(0.00244093 -0.00193313 0.00136326)
(0.00240826 -0.0019024 0.00104805)
(0.00231142 -0.00178832 0.000696151)
(0.00215969 -0.00160015 0.000352097)
(0.00196224 -0.00135587 6.47956e-05)
(0.00172644 -0.00107457 -0.000127762)
(0.00145509 -0.000772434 -0.000205823)
(0.0011474 -0.000462767 -0.000164482)
(0.000801898 -0.000156243 -8.84959e-06)
(0.000418828 0.000139475 0.000247097)
(1.8756e-06 0.000419968 0.000578022)
(-0.000439895 0.000683874 0.000944167)
(-0.000890057 0.000932699 0.00129406)
(-0.0013249 0.00116941 0.00157694)
(-0.00171622 0.00139384 0.0017572)
(-0.00203638 0.00159802 0.00182006)
(-0.00226548 0.00176699 0.00176737)
(-0.0023978 0.00188392 0.00161004)
(-0.00244093 0.00193313 0.00136326)
(-0.00240826 0.0019024 0.00104805)
(-0.00231142 0.00178832 0.000696151)
(-0.00215969 0.00160015 0.000352097)
(-0.00196224 0.00135587 6.47957e-05)
(-0.00172644 0.00107457 -0.000127762)
(-0.00145509 0.000772434 -0.000205823)
(-0.0011474 0.000462767 -0.000164482)
(-0.000801898 0.000156243 -8.8496e-06)
(-0.000418828 -0.000139475 0.000247097)
(-1.87563e-06 -0.000419968 0.000578022)
(0.000439895 -0.000683874 0.000944167)
(0.000890057 -0.000932699 0.00129406)
(0.0013249 -0.00116941 0.00157694)
(0.00171622 -0.00139384 0.0017572)
(0.00203638 -0.00159802 0.00182006)
(0.00226548 -0.00176699 0.00176737)
(0.00246336 -0.00260167 0.00180674)
(0.00244893 -0.0028366 0.00125218)
(0.0023215 -0.00294882 0.000549253)
(0.00211756 -0.00293741 -0.000168322)
(0.00188137 -0.00281584 -0.000784992)
(0.00164432 -0.00260623 -0.00123683)
(0.00141477 -0.00233236 -0.00150966)
(0.00118474 -0.00201386 -0.0016136)
(0.000940095 -0.00166337 -0.0015631)