/*--------------------------------*- C++ -*----------------------------------*\
| =========                 |                                                 |
| \\      /  F ield         | OpenFOAM: The Open Source CFD Toolbox           |
|  \\    /   O peration     | Version:  2312                                  |
|   \\  /    A nd           | Website:  www.openfoam.com                      |
|    \\/     M anipulation  |                                                 |
\*---------------------------------------------------------------------------*/
FoamFile
{
    version     2.0;
    format      ascii;
    arch        "LSB;label=32;scalar=64";
    class       volVectorField;
    location    "0.6";
    object      D_0_0_0;
}
// * * * * * * * * * * * * * * * * * * * * * * * * * * * * * * * * * * * * * //

dimensions      [0 1 0 0 0 0 0];

internalField   nonuniform List<vector> 
1620
(
(-0.000134943 3.49937e-05 -0.000134901)
(-0.000106703 0.000117529 -0.000120202)
(-7.01256e-05 0.000177959 -9.32233e-05)
(-2.969e-05 0.000219577 -5.6769e-05)
(1.38357e-05 0.00025102 -9.96686e-06)
(5.70207e-05 0.000281501 4.89076e-05)
(9.1749e-05 0.000317577 0.000122013)
(0.000106876 0.000359114 0.00020821)
(0.000104618 0.000392638 0.000284525)
(8.61097e-05 0.000408848 0.00027938)
(5.36874e-05 0.000402372 0.000205937)
(3.31643e-05 0.000380361 0.00013214)
(3.00327e-05 0.00035575 7.10062e-05)
(3.62228e-05 0.000331269 2.12286e-05)
(4.49726e-05 0.00030278 -1.9714e-05)
(5.33584e-05 0.000263446 -5.41533e-05)
(6.01752e-05 0.000206537 -8.38014e-05)
(5.92786e-05 0.000128959 -0.000105331)
(4.29994e-05 3.81729e-05 -0.000103375)
(1.45162e-05 -4.43324e-05 -7.8955e-05)
(-1.47993e-05 -0.000109235 -4.97812e-05)
(-3.96018e-05 -0.000156938 -1.94932e-05)
(-6.10609e-05 -0.000192114 1.37122e-05)
(-8.05048e-05 -0.000222043 5.35649e-05)
(-9.57039e-05 -0.000254368 0.000106272)
(-9.99422e-05 -0.000292297 0.000177667)
(-9.78326e-05 -0.000324643 0.000252321)
(-8.60064e-05 -0.000342026 0.000256414)
(-6.36968e-05 -0.000337865 0.000197488)
(-5.47941e-05 -0.000319233 0.000133543)
(-6.41194e-05 -0.00029725 7.64806e-05)
(-8.37527e-05 -0.000274049 2.66366e-05)
(-0.000105771 -0.000245182 -1.70477e-05)
(-0.00012562 -0.000203385 -5.62598e-05)
(-0.000141223 -0.000141834 -9.2904e-05)
(-0.000146769 -5.85839e-05 -0.000124429)
(-1.46825e-06 9.24629e-06 -7.36706e-05)
(1.08984e-05 9.11874e-05 -4.88244e-05)
(1.92999e-05 0.000146943 -2.52426e-05)
(2.66917e-05 0.000181042 1.88587e-06)
(3.56588e-05 0.000197718 3.32969e-05)
(4.64473e-05 0.000203537 6.70402e-05)
(5.79305e-05 0.000204349 0.000100247)
(6.95589e-05 0.000204631 0.000129253)
(8.41098e-05 0.000209355 0.000148326)
(9.20071e-05 0.000222614 0.000147676)
(9.22471e-05 0.000241945 0.000130313)
(8.43e-05 0.000261305 0.000105208)
(7.31128e-05 0.000277546 7.75052e-05)
(5.86077e-05 0.000287273 5.0006e-05)
(3.9593e-05 0.000285216 2.48161e-05)
(1.58846e-05 0.000264956 3.06602e-06)
(-1.02797e-05 0.000221738 -1.65856e-05)
(-3.59087e-05 0.000148246 -3.80756e-05)
(-5.35475e-05 5.5976e-05 -3.38546e-05)
(-6.09574e-05 -2.34373e-05 -6.73794e-06)
(-6.28125e-05 -7.9296e-05 1.36182e-05)
(-6.15174e-05 -0.000115463 3.30013e-05)
(-5.99336e-05 -0.000135001 5.35957e-05)
(-5.96907e-05 -0.000143267 7.53598e-05)
(-6.18296e-05 -0.000145217 9.79666e-05)
(-6.79243e-05 -0.000144854 0.000120343)
(-8.19019e-05 -0.000147397 0.000137436)
(-9.42487e-05 -0.000157521 0.000137142)
(-0.000101978 -0.000175054 0.000121223)
(-0.000104479 -0.000195158 9.70625e-05)
(-0.000104605 -0.000213982 6.87613e-05)
(-0.000100678 -0.00022695 3.90501e-05)
(-9.01046e-05 -0.000227445 1.01972e-05)
(-7.18156e-05 -0.000207883 -1.65357e-05)
(-4.79054e-05 -0.000162973 -4.23988e-05)
(-2.2016e-05 -8.64135e-05 -7.13959e-05)
(9.30031e-05 -2.21478e-05 1.00947e-06)
(8.81956e-05 5.55455e-05 1.54277e-05)
(6.75584e-05 0.000106299 3.07331e-05)
(4.33499e-05 0.000129563 4.6305e-05)
(2.2404e-05 0.000130156 6.13358e-05)
(8.99297e-06 0.000115704 7.2137e-05)
(7.21444e-06 9.46452e-05 7.3096e-05)
(2.19733e-05 7.59514e-05 6.01364e-05)
(5.89364e-05 6.90416e-05 3.95988e-05)
(0.000108371 7.86171e-05 3.97333e-05)
(0.000140404 0.000106572 6.23641e-05)
(0.000149188 0.00014807 7.39542e-05)
(0.000137935 0.000193012 7.23219e-05)
(0.000110353 0.000231951 6.35595e-05)
(6.9389e-05 0.000255933 5.35204e-05)
(1.82865e-05 0.000256102 4.5929e-05)
(-3.6509e-05 0.000225322 4.1626e-05)
(-8.07991e-05 0.000161036 3.96966e-05)
(-9.85494e-05 8.03848e-05 4.48108e-05)
(-8.92068e-05 8.60218e-06 5.43945e-05)
(-6.69789e-05 -3.75848e-05 6.19518e-05)
(-4.3522e-05 -5.90421e-05 6.9332e-05)
(-2.41989e-05 -6.11193e-05 7.7282e-05)
(-1.18154e-05 -5.04773e-05 8.29672e-05)
(-9.93697e-06 -3.33131e-05 8.08906e-05)
(-2.41803e-05 -1.63707e-05 6.60167e-05)
(-6.07261e-05 -8.6963e-06 4.29552e-05)
(-0.00011011 -1.68351e-05 3.86585e-05)
(-0.000144187 -4.45697e-05 5.61979e-05)
(-0.000159187 -8.73835e-05 6.32365e-05)
(-0.000155206 -0.000135632 5.76011e-05)
(-0.000133005 -0.000178982 4.47608e-05)
(-9.38903e-05 -0.000206778 2.99181e-05)
(-4.09631e-05 -0.000208646 1.6334e-05)
(1.84082e-05 -0.000176788 4.96363e-06)
(6.89371e-05 -0.000108976 -3.1121e-06)
(-0.000267821 8.98758e-05 -0.000370259)
(-0.00021335 0.000346362 -0.000333188)
(-0.000152144 0.000530635 -0.000252823)
(-8.36134e-05 0.000646037 -0.000141824)
(-5.04804e-06 0.000714864 -1.39533e-06)
(7.9273e-05 0.000762617 0.00017102)
(0.000157133 0.000809887 0.000375999)
(0.00021377 0.000865467 0.000599163)
(0.00025204 0.000917663 0.000779951)
(0.000269629 0.000954312 0.00079535)
(0.000245096 0.000968272 0.000647431)
(0.000217035 0.000965319 0.000458855)
(0.000201204 0.000954335 0.000282395)
(0.000192213 0.000931138 0.000130652)
(0.000181834 0.000881438 2.69344e-06)
(0.000165525 0.000785781 -0.000106137)
(0.000141935 0.000624778 -0.000197455)
(0.000106526 0.000391901 -0.000258036)
(5.97753e-05 0.000120611 -0.000255591)
(8.62617e-06 -0.000127144 -0.000191902)
(-3.8647e-05 -0.000311591 -0.000106004)
(-7.8597e-05 -0.00043366 -1.39747e-05)
(-0.000114754 -0.000510394 8.59811e-05)
(-0.000149778 -0.000563329 0.000203826)
(-0.00018226 -0.000612528 0.000352174)
(-0.000208005 -0.000669481 0.000532858)
(-0.00023777 -0.000724591 0.000700874)
(-0.000266586 -0.000765055 0.000736337)
(-0.000268653 -0.000783803 0.000621668)
(-0.000275115 -0.000788 0.00045736)
(-0.000297035 -0.000784744 0.000290759)
(-0.00032537 -0.000767584 0.000136485)
(-0.000347086 -0.000719478 -2.85501e-06)
(-0.000353531 -0.000618555 -0.000129539)
(-0.000342565 -0.000444913 -0.000245036)
(-0.000312735 -0.00019497 -0.000337173)
(-4.93976e-05 1.58894e-05 -0.0002259)
(-1.5146e-05 0.000254861 -0.000168385)
(6.75352e-06 0.000421925 -8.85601e-05)
(2.69413e-05 0.00052368 8.16753e-06)
(5.33716e-05 0.000574748 0.00011934)
(8.81333e-05 0.000595275 0.000240131)
(0.000129532 0.000603911 0.000362213)
(0.000176063 0.000614378 0.000471709)
(0.00022941 0.00063524 0.000545654)
(0.000273613 0.000671934 0.000555909)
(0.000292622 0.000721865 0.00050235)
(0.000285356 0.000774203 0.0004123)
(0.000260566 0.000819852 0.000309054)
(0.000220447 0.000847079 0.000206212)
(0.000164837 0.000839345 0.000111286)
(9.55318e-05 0.000777552 2.77003e-05)
(1.95381e-05 0.000646031 -4.37266e-05)
(-5.26748e-05 0.000432817 -9.78551e-05)
(-0.000103268 0.000175604 -8.90762e-05)
(-0.000126904 -5.43693e-05 -2.34852e-05)
(-0.00013418 -0.00021794 4.76041e-05)
(-0.000133952 -0.000321653 0.000120056)
(-0.000134143 -0.000378228 0.000195486)
(-0.000139701 -0.000404998 0.000275084)
(-0.000154292 -0.000418062 0.000358343)
(-0.000182383 -0.000429584 0.000439728)
(-0.000229644 -0.00044789 0.000501426)
(-0.000281454 -0.000480094 0.000513274)
(-0.000319716 -0.00052828 0.000467118)
(-0.000340902 -0.000584458 0.000382729)
(-0.000347976 -0.000638397 0.000279236)
(-0.000337776 -0.000675382 0.000169412)
(-0.000305577 -0.000674994 6.12967e-05)
(-0.000250562 -0.000614656 -4.08025e-05)
(-0.000179887 -0.000477222 -0.000134883)
(-0.000106493 -0.000253128 -0.000213883)
(0.000133495 -6.52174e-05 -6.1612e-05)
(0.000148215 0.000149369 -8.03282e-06)
(0.000132221 0.000301741 6.47736e-05)
(0.000105911 0.000389173 0.000144747)
(8.30415e-05 0.000422688 0.000224589)
(7.33806e-05 0.000419869 0.000293245)
(8.54645e-05 0.000400414 0.000335634)
(0.000126968 0.00038421 0.000340687)
(0.000205308 0.000389412 0.000322046)
(0.000293821 0.000425547 0.000329441)
(0.00035328 0.000493746 0.000355046)
(0.000368705 0.000583591 0.000353809)
(0.000340438 0.000675758 0.000320166)
(0.000274474 0.000749362 0.00026591)
(0.000177843 0.000782777 0.000205584)
(5.99516e-05 0.00075475 0.000150118)
(-6.32696e-05 0.000649145 0.000106127)
(-0.000164653 0.00046378 8.17124e-05)
(-0.000217646 0.000237921 9.47116e-05)
(-0.000219645 3.37958e-05 0.000137779)
(-0.000191805 -0.000110556 0.000188061)
(-0.000155381 -0.000194244 0.000239189)
(-0.000123389 -0.000229131 0.000288714)
(-0.000104646 -0.000231093 0.000329393)
(-0.000108042 -0.000215934 0.000348645)
(-0.000143168 -0.000199922 0.000336217)
(-0.000218806 -0.000201088 0.000305646)
(-0.000308036 -0.000232884 0.000302647)
(-0.000376529 -0.000300128 0.000316714)
(-0.000411061 -0.000394052 0.000304954)
(-0.000405683 -0.000495714 0.000261167)
(-0.000359778 -0.000581642 0.000194895)
(-0.000276269 -0.000625799 0.000118639)
(-0.000163662 -0.000603022 4.26603e-05)
(-3.90219e-05 -0.000495677 -2.45064e-05)
(6.94366e-05 -0.000302818 -6.85093e-05)
(-0.000380932 0.0001002 -0.000538303)
(-0.000302023 0.000495933 -0.000491256)
(-0.000217422 0.000787527 -0.000364622)
(-0.00012153 0.000976021 -0.000176973)
(-1.07857e-05 0.00109054 6.6808e-05)
(0.000108328 0.00116545 0.000365242)
(0.00022137 0.00122914 0.000709386)
(0.000313382 0.00129697 0.00106587)
(0.000384628 0.00136606 0.00135169)
(0.000430975 0.00142857 0.00142141)
(0.000425857 0.00147363 0.00123741)
(0.000393495 0.00149879 0.000946947)
(0.000362078 0.00150523 0.000645932)
(0.000333845 0.00148197 0.000372529)
(0.000302196 0.00140882 0.000137957)
(0.000260135 0.00125963 -5.7798e-05)
(0.000204615 0.00100886 -0.000212991)
(0.000134656 0.000650673 -0.000308221)
(5.86327e-05 0.000237256 -0.000308581)
(-1.30936e-05 -0.00014324 -0.000217862)
(-7.60384e-05 -0.000430082 -8.21438e-05)
(-0.00013062 -0.00062222 7.31447e-05)
(-0.00018132 -0.000744122 0.000246781)
(-0.000230244 -0.000826059 0.000449686)
(-0.000276722 -0.000894897 0.000692868)
(-0.000320297 -0.000967313 0.000967897)
(-0.000371977 -0.00104221 0.00121661)
(-0.000429538 -0.00111115 0.0013055)
(-0.000465464 -0.00116358 0.00116955)
(-0.000487128 -0.00119874 0.000918094)
(-0.000515503 -0.0012174 0.000634268)
(-0.000545712 -0.0012051 0.000356764)
(-0.000563306 -0.00113694 0.000101476)
(-0.000555231 -0.000982796 -0.000127551)
(-0.000517929 -0.000716077 -0.00032732)
(-0.000455616 -0.000334528 -0.000478265)
(-0.000133289 -1.85532e-06 -0.000337713)
(-7.12537e-05 0.0003592 -0.000258232)
(-2.49682e-05 0.000619044 -0.000122619)
(2.01699e-05 0.000784683 5.1133e-05)
(7.41419e-05 0.000876272 0.000254636)
(0.000138958 0.00092193 0.000477598)
(0.000211565 0.00094843 0.000703414)
(0.000288343 0.000975844 0.000905686)
(0.000368151 0.0010162 0.00104612)
(0.000435497 0.00107581 0.00108109)
(0.000471646 0.00115349 0.00100129)
(0.000467245 0.00123595 0.000846522)
(0.000432389 0.0013063 0.000658814)
(0.000372383 0.00134502 0.000466399)
(0.000289155 0.00132755 0.000286301)
(0.000186042 0.00122695 0.000128093)
(7.2729e-05 0.00102191 -1.24604e-06)
(-3.5809e-05 0.00070015 -8.40943e-05)
(-0.000117616 0.000318527 -7.3393e-05)
(-0.000164761 -2.79438e-05 2.08855e-05)
(-0.000188326 -0.000281082 0.00014208)
(-0.000201224 -0.000447188 0.000273013)
(-0.000214283 -0.000544524 0.000411311)
(-0.000234094 -0.000597984 0.000557099)
(-0.000265186 -0.000631125 0.000707491)
(-0.000312222 -0.000661817 0.000850835)
(-0.000379971 -0.000701161 0.000960038)
(-0.000456517 -0.00075648 0.000991937)
(-0.000521362 -0.000832271 0.000923827)
(-0.000559845 -0.000920569 0.000779955)
(-0.000573841 -0.00100352 0.000592858)
(-0.000560467 -0.00105743 0.000387914)
(-0.000514433 -0.00105189 0.000182741)
(-0.000434769 -0.000954394 -1.09525e-05)
(-0.000331366 -0.000741034 -0.000182941)
(-0.000222835 -0.000402633 -0.000311134)
(9.46855e-05 -0.000111441 -0.000115405)
(0.000138486 0.000207252 -2.53417e-05)
(0.000146478 0.000440372 0.000111127)
(0.0001411 0.000583905 0.00026846)
(0.0001387 0.000652463 0.000429666)
(0.000151071 0.00067003 0.000575678)
(0.000187031 0.000663838 0.000683732)
(0.000252511 0.000660474 0.000735786)
(0.000349244 0.000683089 0.000739772)
(0.000454819 0.000745808 0.000750447)
(0.000530207 0.000847937 0.000763072)
(0.000551764 0.000974987 0.000734907)
(0.000515386 0.00110165 0.000658273)
(0.000426138 0.00119893 0.000547664)
(0.000293508 0.0012357 0.000424276)
(0.000131907 0.00118192 0.000307282)
(-3.61349e-05 0.00101649 0.000213292)
(-0.00017769 0.000739805 0.000163197)
(-0.000263191 0.000406968 0.000182082)
(-0.000288541 0.000103203 0.000258235)
(-0.000275339 -0.00012006 0.000357515)
(-0.000248392 -0.000259447 0.000462256)
(-0.000225165 -0.000330011 0.000563802)
(-0.000218099 -0.000353609 0.000651025)
(-0.000237365 -0.000352949 0.00070779)
(-0.000291072 -0.000350197 0.000720121)
(-0.000382825 -0.000367615 0.000696671)
(-0.000491609 -0.000423798 0.000688083)
(-0.000582621 -0.000523391 0.000683496)
(-0.000632972 -0.000655757 0.000639866)
(-0.000631605 -0.000796289 0.000546534)
(-0.000574847 -0.000912254 0.000413646)
(-0.000465991 -0.000965779 0.000259323)
(-0.000317324 -0.000920286 0.000102916)
(-0.000152106 -0.000751806 -3.41189e-05)
(-4.27161e-06 -0.000462431 -0.000120245)
(-0.000487721 5.45006e-05 -0.000562308)
(-0.000384749 0.000540024 -0.0005259)
(-0.00027518 0.000913068 -0.000377854)
(-0.000152456 0.00116897 -0.000135748)
(-1.39929e-05 0.00133557 0.000190959)
(0.000132897 0.00144868 0.000592572)
(0.000274366 0.0015397 0.00104774)
(0.000396647 0.0016293 0.00150862)
(0.000495778 0.00172447 0.00188424)
(0.000571466 0.00182155 0.00202317)
(0.000600457 0.00190326 0.00185017)
(0.000567864 0.00195826 0.00150427)
(0.000518683 0.00198227 0.00111049)
(0.000465498 0.00195691 0.00073326)
(0.000407623 0.00185898 0.000402852)
(0.000338656 0.0016619 0.000130774)
(0.000254647 0.00134279 -7.50037e-05)
(0.00015682 0.000902866 -0.000194959)
(5.59176e-05 0.000403119 -0.000204398)
(-3.61574e-05 -6.15588e-05 -0.000109756)
(-0.000115808 -0.00042353 4.96456e-05)
(-0.000186105 -0.000676546 0.000246275)
(-0.000252055 -0.000845153 0.000474653)
(-0.000315467 -0.00096211 0.000741432)
(-0.000376405 -0.00105729 0.00105134)
(-0.000436372 -0.0011518 0.0013883)
(-0.000503011 -0.00125437 0.00169316)
(-0.00058292 -0.00136156 0.00183556)
(-0.00065961 -0.00145575 0.00171896)
(-0.000695882 -0.0015248 0.00142448)
(-0.00072376 -0.00156558 0.00105574)
(-0.00074544 -0.00155616 0.000675134)
(-0.000751034 -0.00146773 0.000316766)
(-0.000727527 -0.00126907 -2.97051e-06)
(-0.000670296 -0.00093553 -0.000273123)
(-0.000585686 -0.000471208 -0.000471557)
(-0.000251751 -5.20644e-05 -0.00033292)
(-0.000158985 0.000386899 -0.000250991)
(-7.99351e-05 0.000716355 -8.13574e-05)
(-4.28667e-07 0.000939507 0.000150724)
(8.83621e-05 0.0010779 0.000430434)
(0.000186947 0.00116197 0.000740616)
(0.00029058 0.00122143 0.00105599)
(0.000393665 0.00127918 0.00134)
(0.000493264 0.00134928 0.00154444)
(0.000578596 0.00143625 0.0016145)
(0.000630619 0.00153886 0.00153188)
(0.000629101 0.0016444 0.00133816)
(0.000585902 0.00172926 0.00108641)
(0.000510586 0.00176921 0.000818582)
(0.000408047 0.00173604 0.000563619)
(0.000282895 0.00160049 0.000340519)
(0.000145302 0.00134065 0.000164706)
(1.11861e-05 0.000950325 6.19313e-05)
(-9.81211e-05 0.000494638 6.85748e-05)
(-0.000173067 7.48716e-05 0.000171511)
(-0.000222191 -0.000244422 0.000321009)
(-0.000259252 -0.000464968 0.000492257)
(-0.000295553 -0.000606475 0.000677973)
(-0.000337478 -0.000696615 0.000875082)
(-0.000388596 -0.000762231 0.00107698)
(-0.000452194 -0.000824084 0.00126718)
(-0.000532439 -0.000895223 0.0014141)
(-0.000624901 -0.000979753 0.00146841)
(-0.000710429 -0.00108171 0.00139756)
(-0.000761974 -0.00119533 0.00121907)
(-0.000780393 -0.0012963 0.000969886)
(-0.000764808 -0.00135567 0.000685705)
(-0.000711299 -0.00133849 0.000395057)
(-0.000619099 -0.00120878 0.000119978)
(-0.000498138 -0.000941078 -0.000118469)
(-0.000367848 -0.000531694 -0.000286719)
(-1.78005e-05 -0.000165641 -8.54394e-05)
(6.02031e-05 0.000219927 2.51812e-05)
(0.000105762 0.000510781 0.000207419)
(0.00013969 0.00070214 0.000426924)
(0.000176538 0.000810899 0.000658411)
(0.000225572 0.000863868 0.000876043)
(0.000292054 0.000890709 0.00105111)
(0.000378261 0.000918609 0.00115906)
(0.000482021 0.00096945 0.00119825)
(0.000594966 0.00105869 0.00121335)
(0.000675631 0.00118447 0.00121279)
(0.000699736 0.00133166 0.00116285)
(0.000660722 0.00147318 0.00105144)
(0.000562249 0.00157701 0.000893802)
(0.000414064 0.00160773 0.000716241)
(0.000232083 0.00153106 0.000546129)
(4.07023e-05 0.00132395 0.00041054)
(-0.000126956 0.00099023 0.000339906)
(-0.000241528 0.000592617 0.000359431)
(-0.000297665 0.000225173 0.000454233)
(-0.000314948 -5.50811e-05 0.00058615)
(-0.000317475 -0.000242513 0.000730287)
(-0.00032286 -0.000353454 0.000872611)
(-0.000342887 -0.000412493 0.000999072)
(-0.000385106 -0.000445167 0.00109179)
(-0.00045411 -0.000474275 0.00113384)
(-0.000549315 -0.000519941 0.00112547)
(-0.000667825 -0.00060162 0.00110742)
(-0.000768455 -0.000723929 0.001083)
(-0.000827669 -0.000877003 0.00101426)
(-0.000832432 -0.00103472 0.00088121)
(-0.000776565 -0.00116096 0.0006921)
(-0.000661934 -0.00121237 0.000469051)
(-0.000500877 -0.00114642 0.000240568)
(-0.000317644 -0.000935837 4.16779e-05)
(-0.000146191 -0.000585894 -8.19589e-05)
(-0.000594732 -4.04758e-05 -0.000416251)
(-0.000472154 0.000488153 -0.000408565)
(-0.000337916 0.000913719 -0.000268255)
(-0.000187824 0.00122541 -5.51163e-06)
(-2.18126e-05 0.00144564 0.000367933)
(0.000152357 0.00160721 0.000834611)
(0.000321718 0.00174093 0.00136285)
(0.000472809 0.00186947 0.00189573)
(0.000597888 0.00200522 0.00233964)
(0.000700124 0.00214628 0.00255164)
(0.000759596 0.00226764 0.00243473)
(0.000727957 0.00234821 0.00208176)
(0.000662564 0.00238446 0.00163754)
(0.000583578 0.00235336 0.00119112)
(0.000497969 0.00223122 0.000792648)
(0.000403632 0.00199571 0.000467002)
(0.000297492 0.0016326 0.000227912)
(0.000180774 0.00115335 8.98883e-05)
(6.21318e-05 0.000619266 6.34835e-05)
(-4.83441e-05 0.000117 0.000140369)
(-0.000147314 -0.000289992 0.000293636)
(-0.000237924 -0.000590345 0.000500452)
(-0.000324405 -0.00080408 0.000752819)
(-0.000407978 -0.00096201 0.00105166)
(-0.000488324 -0.00109422 0.00139479)
(-0.000566481 -0.00122427 0.00176135)
(-0.000647182 -0.00136673 0.00209453)
(-0.000742089 -0.0015212 0.00228285)
(-0.000842984 -0.00166244 0.00222163)
(-0.000890994 -0.00176452 0.00192933)
(-0.000914223 -0.00182293 0.00151895)
(-0.000921188 -0.00181319 0.0010735)
(-0.000909828 -0.00170641 0.000644314)
(-0.000871783 -0.00147544 0.000261075)
(-0.000802581 -0.00110336 -5.7759e-05)
(-0.000706818 -0.000602611 -0.0002921)
(-0.000395297 -0.00013175 -0.000181734)
(-0.000273955 0.000345332 -0.000116282)
(-0.000159595 0.000720373 5.82751e-05)
(-4.12279e-05 0.000991064 0.00031734)
(8.67522e-05 0.00117787 0.000642507)
(0.000222264 0.00130988 0.00101116)
(0.000358384 0.00141563 0.00139104)
(0.000487555 0.00151718 0.00173805)
(0.000605452 0.00162768 0.00199742)
(0.000705763 0.00174838 0.00210999)
(0.000768689 0.00187627 0.00204944)
(0.000769279 0.00199904 0.00184736)
(0.000719838 0.00208964 0.00156148)
(0.000633587 0.00212286 0.00124543)
(0.000518496 0.00207108 0.000939938)
(0.00038059 0.00190734 0.000673625)
(0.000229221 0.00161308 0.000468965)
(7.86354e-05 0.00119071 0.000352847)
(-5.28096e-05 0.00070492 0.000347929)
(-0.000155526 0.000250628 0.00043955)
(-0.000235283 -0.000110133 0.000589381)
(-0.000304201 -0.000373704 0.000772808)
(-0.000371968 -0.000558621 0.000979804)
(-0.000443128 -0.000691949 0.00120396)
(-0.000518923 -0.000800373 0.00143492)
(-0.000600368 -0.000904571 0.00165258)
(-0.000690777 -0.00101692 0.00182346)
(-0.000791617 -0.00113808 0.0019005)
(-0.000886917 -0.00126861 0.00184627)
(-0.000946453 -0.00140216 0.00166169)
(-0.000967187 -0.0015122 0.00138163)
(-0.000949982 -0.00156854 0.00104887)
(-0.000893395 -0.00153671 0.000701434)
(-0.000797694 -0.00138275 0.000370934)
(-0.000671189 -0.00108381 8.72946e-05)
(-0.000530491 -0.000643322 -0.000111177)
(-0.000182484 -0.000229565 6.61041e-05)
(-6.97741e-05 0.000190163 0.000177233)
(1.8397e-05 0.000517927 0.000377508)
(9.98555e-05 0.000748001 0.000630437)
(0.000185176 0.000898613 0.000906976)
(0.00027851 0.000996568 0.00117735)
(0.000379838 0.00106956 0.00140848)
(0.000487637 0.00114094 0.00156952)
(0.000598378 0.00122789 0.0016473)
(0.000714282 0.001344 0.00167067)
(0.000795209 0.00148894 0.00166574)
(0.000820162 0.00164731 0.00160789)
(0.000782394 0.00179128 0.00147821)
(0.000684697 0.00188991 0.00129249)
(0.000535735 0.00190882 0.00108117)
(0.000349981 0.00181417 0.000878127)
(0.000149972 0.00158334 0.000717596)
(-3.3798e-05 0.00122302 0.000633474)
(-0.000173622 0.000796429 0.000646983)
(-0.000262872 0.000396217 0.000741734)
(-0.000318147 7.97721e-05 0.000881222)
(-0.000361108 -0.000145806 0.00103976)
(-0.000406817 -0.000297389 0.00120149)
(-0.000463406 -0.000399822 0.001351)
(-0.000533938 -0.000477679 0.00146944)
(-0.000619298 -0.000550572 0.0015372)
(-0.000717668 -0.00063312 0.00154499)
(-0.00083672 -0.000740709 0.00151666)
(-0.000938262 -0.000881256 0.00147905)
(-0.00100196 -0.0010456 0.00139927)
(-0.00101423 -0.00120694 0.00124479)
(-0.000967156 -0.00132994 0.00102177)
(-0.000860267 -0.00137195 0.000754668)
(-0.000703362 -0.00129028 0.000478379)
(-0.000517879 -0.00105714 0.000237215)
(-0.000334602 -0.000680051 8.46097e-05)
(-0.000704316 -0.000171602 -0.000109078)
(-0.000568926 0.000362802 -0.000141806)
(-0.000412969 0.000813877 -3.41542e-05)
(-0.000235357 0.00116675 0.000214773)
(-3.98413e-05 0.0014375 0.000594869)
(0.000164249 0.00165393 0.00108427)
(0.000363866 0.00184372 0.00164516)
(0.00054528 0.00202804 0.00221677)
(0.000697787 0.00221892 0.00270787)
(0.000820205 0.0024119 0.00299382)
(0.000892171 0.00257443 0.00296329)
(0.000865415 0.0026766 0.00264374)
(0.000788707 0.00271901 0.00219191)
(0.000687462 0.0026797 0.00171685)
(0.000576748 0.00253711 0.00128467)
(0.000461143 0.00227593 0.000931495)
(0.000340002 0.00189291 0.00067463)
(0.00021317 0.00140896 0.000521698)
(8.42199e-05 0.00088015 0.000471326)
(-4.17775e-05 0.000377152 0.000514584)
(-0.000162609 -4.71261e-05 0.000636749)
(-0.000279602 -0.000378811 0.00082345)
(-0.000394298 -0.000632295 0.00106724)
(-0.000505911 -0.000834217 0.00136478)
(-0.000612294 -0.00101264 0.00170856)
(-0.000712435 -0.00119088 0.00207575)
(-0.000808304 -0.00138408 0.00241604)
(-0.0009076 -0.00159155 0.00264339)
(-0.00100688 -0.00178296 0.00265204)
(-0.00106558 -0.00191985 0.00240023)
(-0.00108244 -0.00199203 0.00199345)
(-0.00107344 -0.00198072 0.00152753)
(-0.00104463 -0.00186093 0.00106701)
(-0.000994362 -0.00161267 0.000652567)
(-0.000919548 -0.0012287 0.000307725)
(-0.000821484 -0.000728526 4.83557e-05)
(-0.000552868 -0.000232722 0.000114271)
(-0.000408732 0.000251101 0.000148156)
(-0.000261711 0.00064939 0.000300669)
(-0.000104666 0.000955419 0.000553909)
(6.38843e-05 0.00118737 0.000889825)
(0.000238408 0.0013713 0.00128322)
(0.000409176 0.00153206 0.00169775)
(0.000566312 0.00168786 0.00208509)
(0.00070331 0.00184789 0.00238783)
(0.000814971 0.00200982 0.00254759)
(0.000882784 0.00216588 0.00252831)
(0.000886346 0.0023019 0.00234471)
(0.000834025 0.00239288 0.00205566)
(0.000741178 0.00241578 0.0017232)
(0.000618775 0.00234666 0.00139686)
(0.000474681 0.00216382 0.00111254)
(0.000317212 0.00185448 0.000896516)
(0.00015769 0.0014288 0.000771652)
(1.01931e-05 0.000945906 0.000748333)
(-0.00011744 0.000487398 0.000812321)
(-0.000229055 0.000108086 0.000937471)
(-0.000333974 -0.000184884 0.00110503)
(-0.000438843 -0.000407954 0.00130537)
(-0.000545055 -0.000585963 0.0015301)
(-0.000650489 -0.000743161 0.00176611)
(-0.000753007 -0.000897535 0.0019915)
(-0.000853624 -0.00105817 0.00217402)
(-0.000955317 -0.00122331 0.00227308)
(-0.00104948 -0.00138677 0.00224777)
(-0.00111308 -0.00153748 0.00208156)
(-0.00113477 -0.00165228 0.00180314)
(-0.00111636 -0.00170269 0.00145764)
(-0.00105932 -0.00165817 0.0010888)
(-0.000965562 -0.0014902 0.000734671)
(-0.000841433 -0.00118121 0.000429894)
(-0.000699106 -0.000740757 0.000211776)
(-0.000377247 -0.000300115 0.000346245)
(-0.000233641 0.0001279 0.000438694)
(-0.000104452 0.00047439 0.000629075)
(2.46568e-05 0.000732996 0.000884467)
(0.000159973 0.000922404 0.0011765)
(0.00030003 0.00106789 0.00147444)
(0.000439217 0.00119285 0.00174272)
(0.000572048 0.00131449 0.00194558)
(0.000694135 0.00144346 0.00205997)
(0.000809397 0.00158832 0.00209809)
(0.000889881 0.00175188 0.0020984)
(0.000917306 0.00191843 0.00204569)
(0.000884387 0.00205994 0.00191634)
(0.000793603 0.00214866 0.00172548)
(0.000652303 0.00215479 0.00150546)
(0.000472381 0.00204847 0.00129353)
(0.000272758 0.00180938 0.00112637)
(8.00208e-05 0.00144589 0.00103573)
(-8.05749e-05 0.00101706 0.00103688)
(-0.000201293 0.000608255 0.001114)
(-0.00029547 0.00027416 0.0012367)
(-0.000381957 2.20649e-05 0.00138396)
(-0.000472395 -0.0001654 0.00154163)
(-0.000570185 -0.000312113 0.00169453)
(-0.00067338 -0.00043955 0.00182348)
(-0.000778924 -0.0005622 0.00190698)
(-0.000884685 -0.000687699 0.00192893)
(-0.000995693 -0.000823589 0.00189811)
(-0.0010941 -0.00098183 0.0018543)
(-0.00116141 -0.0011539 0.00177341)
(-0.00118174 -0.00131361 0.00161726)
(-0.00114663 -0.0014283 0.00138765)
(-0.00105384 -0.00145951 0.00110792)
(-0.000910055 -0.00136845 0.000814836)
(-0.000732259 -0.00112933 0.000555769)
(-0.000546317 -0.000751103 0.00038508)
(-0.000817268 -0.000324151 0.000331891)
(-0.000674055 0.000188933 0.000254263)
(-0.000499256 0.000642901 0.000312661)
(-0.000294604 0.00102214 0.000519985)
(-6.82681e-05 0.00133723 0.000871496)
(0.000167378 0.00161016 0.00134527)
(0.000397584 0.00186354 0.00190208)
(0.000607109 0.00211409 0.00248296)
(0.000782282 0.00236932 0.00300518)
(0.000915807 0.00261961 0.00336087)
(0.000990602 0.00282601 0.0034236)
(0.000976661 0.00295055 0.00316681)
(0.000894184 0.00299602 0.00274645)
(0.000776533 0.00294887 0.00228194)
(0.000646634 0.00279254 0.00184912)
(0.000516064 0.00251998 0.00149199)
(0.000387233 0.00213832 0.00122957)
(0.000257763 0.00167496 0.0010635)
(0.000124077 0.0011779 0.00098475)
(-1.56059e-05 0.000699987 0.000984769)
(-0.000160651 0.00028091 0.00105863)
(-0.000309499 -6.62646e-05 0.00120151)
(-0.00045943 -0.000351419 0.00140937)
(-0.000605859 -0.000596376 0.00167734)
(-0.000743018 -0.000825356 0.00199521)
(-0.000865949 -0.00105852 0.00234122)
(-0.000972532 -0.00130778 0.00267463)
(-0.0010655 -0.00157015 0.0029288)
(-0.00115037 -0.00181406 0.00300052)
(-0.00121526 -0.00199188 0.00281994)
(-0.00122498 -0.00207898 0.00245799)
(-0.00120276 -0.00206898 0.00201281)
(-0.00116038 -0.00194457 0.00155833)
(-0.00110235 -0.00169457 0.00114284)
(-0.00102741 -0.00132109 0.000792454)
(-0.000933305 -0.000847842 0.000518868)
(-0.000713341 -0.000344517 0.000533045)
(-0.000553281 0.000123073 0.000526589)
(-0.000378952 0.000525338 0.000637554)
(-0.000186628 0.00085383 0.000858099)
(2.09409e-05 0.00112427 0.00117397)
(0.000234214 0.00135908 0.00156047)
(0.000439928 0.00157814 0.00198056)
(0.000625083 0.00179389 0.00238567)
(0.00078025 0.00200957 0.00271954)
(0.000899859 0.00221842 0.00292517)
(0.000970712 0.00240571 0.00295593)
(0.000979708 0.0025544 0.00281074)
(0.000927578 0.00264495 0.00254623)
(0.000831624 0.00265847 0.00222762)
(0.000705917 0.00257684 0.00190868)
(0.000560348 0.00238527 0.00162924)
(0.000402425 0.00207773 0.00141619)
(0.000240116 0.00166963 0.00128602)
(8.22802e-05 0.00121204 0.00123994)
(-6.6343e-05 0.000771273 0.00126562)
(-0.00020852 0.000392853 0.00134837)
(-0.000350501 8.44995e-05 0.0014782)
(-0.000495163 -0.000168457 0.00164854)
(-0.000639818 -0.000388143 0.00185081)
(-0.000778051 -0.000595125 0.0020709)
(-0.000903484 -0.000802991 0.00228729)
(-0.00101364 -0.00101601 0.00247099)
(-0.00111152 -0.00122922 0.00258694)
(-0.00119843 -0.00142842 0.00259377)
(-0.00126154 -0.00159793 0.00246471)
(-0.00128193 -0.0017191 0.00221657)
(-0.00126221 -0.00176651 0.00189135)
(-0.00120638 -0.00171561 0.00153439)
(-0.00111779 -0.00154504 0.00118653)
(-0.00100096 -0.00124366 0.000883037)
(-0.000863405 -0.000825201 0.000656423)
(-0.000579372 -0.000371073 0.000739174)
(-0.000412534 4.61316e-05 0.000799045)
(-0.000248954 0.000395627 0.000957516)
(-7.75086e-05 0.000671686 0.00118956)
(0.000104193 0.000893162 0.00147048)
(0.000289511 0.00108321 0.00177082)
(0.000467468 0.00126018 0.00205463)
(0.000628228 0.00143432 0.00228357)
(0.000765834 0.00160879 0.00242799)
(0.000881575 0.00178561 0.00248723)
(0.000963441 0.00196905 0.00249928)
(0.000994169 0.00214348 0.0024599)
(0.000967318 0.00228261 0.00234729)
(0.000885429 0.00236226 0.00217301)
(0.000754875 0.0023587 0.00196783)
(0.00058498 0.00224803 0.00176883)
(0.000390612 0.00201348 0.0016109)
(0.00019408 0.00166367 0.0015198)
(1.79398e-05 0.00125123 0.00150438)
(-0.000129451 0.000852051 0.0015512)
(-0.000258737 0.000516443 0.00163905)
(-0.000386371 0.000250194 0.00175509)
(-0.000520654 3.50257e-05 0.00188917)
(-0.000660293 -0.000151613 0.00202754)
(-0.000798283 -0.000327348 0.00215145)
(-0.000927095 -0.000500811 0.00223895)
(-0.00104301 -0.000672156 0.00227085)
(-0.00114706 -0.000840627 0.00224617)
(-0.00124306 -0.00101824 0.00220036)
(-0.00131047 -0.00119765 0.00212443)
(-0.00133531 -0.00135615 0.00198409)
(-0.00131021 -0.00146412 0.00177309)
(-0.00123197 -0.00148841 0.00151014)
(-0.00110423 -0.00139577 0.00122979)
(-0.000939259 -0.00116387 0.000976686)
(-0.000757548 -0.000802446 0.000800033)
(-0.000930458 -0.00048299 0.00087153)
(-0.00078057 -8.84723e-06 0.000751154)
(-0.000588209 0.000430918 0.000753415)
(-0.000358125 0.000823125 0.000901986)
(-0.000102588 0.00117434 0.00119974)
(0.000162491 0.00150065 0.00162852)
(0.000419469 0.00181828 0.00215197)
(0.000650306 0.00213728 0.00271662)