/*--------------------------------*- C++ -*----------------------------------*\
| =========                 |                                                 |
| \\      /  F ield         | OpenFOAM: The Open Source CFD Toolbox           |
|  \\    /   O peration     | Version:  2312                                  |
|   \\  /    A nd           | Website:  www.openfoam.com                      |
|    \\/     M anipulation  |                                                 |
\*---------------------------------------------------------------------------*/
FoamFile
{
    version     2.0;
    format      ascii;
    arch        "LSB;label=32;scalar=64";
    class       volVectorField;
    location    "0.6";
    object      D_0_0;
}
// * * * * * * * * * * * * * * * * * * * * * * * * * * * * * * * * * * * * * //

dimensions      [0 1 0 0 0 0 0];

internalField   nonuniform List<vector> 
1620
(
(0.000458409 -0.000100053 0.000103989)
(0.000395122 -0.000140467 -1.03176e-05)
(0.000324848 -0.000196038 -9.06432e-05)
(0.000261713 -0.000231091 -0.000131418)
(0.000213283 -0.000239301 -0.000145248)
(0.000181833 -0.000227962 -0.00014281)
(0.000165704 -0.000204301 -0.000129971)
(0.000159722 -0.000171497 -0.000110489)
(0.000156094 -0.000130169 -8.71904e-05)
(0.00014595 -8.04144e-05 -6.16895e-05)
(0.000120802 -2.268e-05 -3.38589e-05)
(7.35057e-05 4.18942e-05 -1.51808e-06)
(-1.00949e-06 0.00011017 3.94403e-05)
(-0.000104073 0.000173794 9.35216e-05)
(-0.000229203 0.00021622 0.000160439)
(-0.000356751 0.000217212 0.000225116)
(-0.000454118 0.000171869 0.00025179)
(-0.000488597 0.000114746 0.000206993)
(-0.000458409 0.000100053 0.000103989)
(-0.000395122 0.000140467 -1.03176e-05)
(-0.000324848 0.000196038 -9.06432e-05)
(-0.000261713 0.000231091 -0.000131418)
(-0.000213283 0.000239301 -0.000145248)
(-0.000181833 0.000227962 -0.00014281)
(-0.000165704 0.000204301 -0.000129971)
(-0.000159722 0.000171497 -0.000110489)
(-0.000156094 0.000130169 -8.71904e-05)
(-0.00014595 8.04144e-05 -6.16895e-05)
(-0.000120802 2.268e-05 -3.38589e-05)
(-7.35057e-05 -4.18942e-05 -1.51808e-06)
(1.00949e-06 -0.00011017 3.94403e-05)
(0.000104073 -0.000173794 9.35216e-05)
(0.000229203 -0.00021622 0.000160439)
(0.000356751 -0.000217212 0.000225116)
(0.000454118 -0.000171869 0.00025179)
(0.000488597 -0.000114746 0.000206993)
(0.000374159 -0.000185829 6.93788e-05)
(0.00038099 -0.000208461 2.22651e-05)
(0.000372148 -0.000212191 -1.84144e-05)
(0.000348827 -0.000191434 -5.07839e-05)
(0.000314455 -0.000155221 -7.6668e-05)
(0.000274935 -0.000114688 -9.50642e-05)
(0.000235801 -7.60998e-05 -0.000104145)
(0.000199366 -4.06289e-05 -0.000103392)
(0.000164163 -7.04753e-06 -9.35625e-05)
(0.0001263 2.58571e-05 -7.58352e-05)
(8.14645e-05 5.81905e-05 -5.12721e-05)
(2.67553e-05 8.8955e-05 -2.07587e-05)
(-3.81809e-05 0.000116464 1.4721e-05)
(-0.000110842 0.000138513 5.33413e-05)
(-0.000186096 0.000152523 9.08269e-05)
(-0.000256585 0.000157288 0.000118692)
(-0.000313887 0.0001574 0.00012614)
(-0.000352619 0.000165445 0.000108303)
(-0.000374159 0.000185829 6.93788e-05)
(-0.00038099 0.000208461 2.22651e-05)
(-0.000372148 0.000212191 -1.84144e-05)
(-0.000348827 0.000191434 -5.07839e-05)
(-0.000314455 0.000155221 -7.6668e-05)
(-0.000274935 0.000114688 -9.50642e-05)
(-0.000235801 7.60998e-05 -0.000104145)
(-0.000199366 4.06289e-05 -0.000103392)
(-0.000164163 7.04753e-06 -9.35625e-05)
(-0.0001263 -2.58571e-05 -7.58352e-05)
(-8.14645e-05 -5.81905e-05 -5.12721e-05)
(-2.67553e-05 -8.8955e-05 -2.07587e-05)
(3.81809e-05 -0.000116464 1.4721e-05)
(0.000110842 -0.000138513 5.33413e-05)
(0.000186096 -0.000152523 9.08269e-05)
(0.000256585 -0.000157288 0.000118692)
(0.000313887 -0.0001574 0.00012614)
(0.000352619 -0.000165445 0.000108303)
(0.000267304 -0.000231894 3.22129e-05)
(0.000319617 -0.000251513 2.644e-05)
(0.000360865 -0.00022648 1.35997e-05)
(0.000380682 -0.00016911 -1.08643e-05)
(0.000374486 -9.88038e-05 -4.34452e-05)
(0.00034531 -3.06361e-05 -7.5373e-05)
(0.000300221 2.72454e-05 -9.86743e-05)
(0.000245945 7.18699e-05 -0.000108917)
(0.000186941 0.000102849 -0.000104898)
(0.00012574 0.000120547 -8.76438e-05)
(6.42769e-05 0.000125438 -5.99477e-05)
(5.11778e-06 0.000118604 -2.63754e-05)
(-4.82057e-05 0.000103064 6.94547e-06)
(-9.22277e-05 8.5212e-05 3.33713e-05)
(-0.000125633 7.51623e-05 4.77538e-05)
(-0.00015137 8.47264e-05 4.91368e-05)
(-0.000177749 0.000121683 4.29499e-05)
(-0.00021593 0.000179502 3.70027e-05)
(-0.000267304 0.000231894 3.22129e-05)
(-0.000319617 0.000251513 2.644e-05)
(-0.000360865 0.00022648 1.35997e-05)
(-0.000380682 0.00016911 -1.08643e-05)
(-0.000374486 9.88038e-05 -4.34452e-05)
(-0.00034531 3.06361e-05 -7.5373e-05)
(-0.000300221 -2.72453e-05 -9.86743e-05)
(-0.000245945 -7.18699e-05 -0.000108917)
(-0.000186941 -0.000102849 -0.000104898)
(-0.00012574 -0.000120547 -8.76438e-05)
(-6.42769e-05 -0.000125438 -5.99477e-05)
(-5.11778e-06 -0.000118604 -2.63754e-05)
(4.82057e-05 -0.000103064 6.94547e-06)
(9.22277e-05 -8.5212e-05 3.33713e-05)
(0.000125633 -7.51623e-05 4.77538e-05)
(0.00015137 -8.47264e-05 4.91368e-05)
(0.000177749 -0.000121683 4.29499e-05)
(0.00021593 -0.000179502 3.70027e-05)
(0.00121356 -0.000473293 0.000360241)
(0.00112904 -0.000575808 3.43022e-05)
(0.00100031 -0.000651829 -0.000223306)
(0.000862819 -0.000654111 -0.000390145)
(0.000735504 -0.000596571 -0.000480467)
(0.000629027 -0.000510308 -0.000511607)
(0.000548414 -0.000415626 -0.000498506)
(0.000489662 -0.000318075 -0.000454457)
(0.000439549 -0.000215508 -0.00038997)
(0.000379301 -0.000104687 -0.000310815)
(0.000289385 1.58237e-05 -0.000216775)
(0.000153623 0.000145258 -0.000101738)
(-3.777e-05 0.000279759 4.41589e-05)
(-0.000284985 0.000408157 0.000228419)
(-0.000572703 0.00050615 0.000443023)
(-0.000862381 0.000540937 0.000644184)
(-0.00109465 0.000502402 0.000741228)
(-0.0012154 0.00044669 0.000638783)
(-0.00121356 0.000473293 0.000360241)
(-0.00112904 0.000575808 3.43022e-05)
(-0.00100031 0.000651829 -0.000223306)
(-0.000862819 0.000654111 -0.000390145)
(-0.000735504 0.000596571 -0.000480467)
(-0.000629027 0.000510308 -0.000511607)
(-0.000548414 0.000415626 -0.000498506)
(-0.000489662 0.000318075 -0.000454457)
(-0.000439549 0.000215508 -0.00038997)
(-0.000379301 0.000104687 -0.000310815)
(-0.000289385 -1.58237e-05 -0.000216775)
(-0.000153623 -0.000145258 -0.000101738)
(3.777e-05 -0.000279759 4.41589e-05)
(0.000284985 -0.000408157 0.000228419)
(0.000572703 -0.00050615 0.000443023)
(0.000862381 -0.000540937 0.000644184)
(0.00109465 -0.000502402 0.000741228)
(0.0012154 -0.00044669 0.000638783)
(0.00106788 -0.000602866 0.000318189)
(0.0010846 -0.000669426 0.000145865)
(0.00106001 -0.000668701 -1.45185e-05)
(0.00099738 -0.000598888 -0.000151016)
(0.000904748 -0.000487525 -0.000256994)
(0.0007972 -0.000364525 -0.000326601)
(0.000688284 -0.000246572 -0.000358026)
(0.000583123 -0.00013784 -0.00035381)
(0.000477682 -3.67825e-05 -0.000318338)
(0.00036229 5.83605e-05 -0.000255414)
(0.00022663 0.000147289 -0.000167361)
(6.43132e-05 0.000228109 -5.56372e-05)
(-0.000124216 0.00029895 7.73543e-05)
(-0.000331047 0.000358694 0.000225214)
(-0.000541751 0.000406156 0.000372657)
(-0.000737078 0.000441231 0.00048956)
(-0.000897114 0.000472253 0.000531452)
(-0.00100718 0.000524062 0.000465108)
(-0.00106788 0.000602866 0.000318189)
(-0.0010846 0.000669426 0.000145865)
(-0.00106001 0.000668701 -1.45185e-05)
(-0.00099738 0.000598888 -0.000151016)
(-0.000904748 0.000487525 -0.000256994)
(-0.0007972 0.000364525 -0.000326601)
(-0.000688284 0.000246572 -0.000358026)
(-0.000583123 0.00013784 -0.00035381)
(-0.000477682 3.67825e-05 -0.000318338)
(-0.00036229 -5.83605e-05 -0.000255414)
(-0.00022663 -0.000147289 -0.000167361)
(-6.43132e-05 -0.000228109 -5.56373e-05)
(0.000124216 -0.00029895 7.73543e-05)
(0.000331047 -0.000358694 0.000225214)
(0.000541751 -0.000406156 0.000372657)
(0.000737078 -0.000441231 0.00048956)
(0.000897114 -0.000472253 0.000531452)
(0.00100718 -0.000524062 0.000465108)
(0.000857672 -0.000686623 0.000260711)
(0.000962343 -0.000738587 0.000211912)
(0.00103764 -0.000690095 0.000138758)
(0.00105701 -0.000568604 3.58846e-05)
(0.00101641 -0.000412981 -7.71224e-05)
(0.000929003 -0.000253603 -0.000175467)
(0.00081123 -0.000107073 -0.000241769)
(0.00067444 1.97505e-05 -0.000267902)
(0.000523567 0.000124296 -0.000252132)
(0.000359704 0.000204768 -0.00019661)
(0.000184001 0.000259102 -0.000106834)
(1.2866e-06 0.000286348 7.40683e-06)
(-0.000178266 0.000290103 0.00013112)
(-0.000341091 0.000282475 0.000244975)
(-0.000476005 0.00028515 0.000328892)
(-0.000580877 0.000323915 0.000367495)
(-0.000666057 0.000416178 0.000356864)
(-0.000752427 0.000556627 0.000312522)
(-0.000857672 0.000686623 0.000260711)
(-0.000962343 0.000738587 0.000211912)
(-0.00103764 0.000690095 0.000138758)
(-0.00105701 0.000568604 3.58846e-05)
(-0.00101641 0.000412981 -7.71224e-05)
(-0.000929003 0.000253603 -0.000175467)
(-0.00081123 0.000107073 -0.000241769)
(-0.00067444 -1.97505e-05 -0.000267902)
(-0.000523567 -0.000124296 -0.000252132)
(-0.000359704 -0.000204768 -0.00019661)
(-0.000184001 -0.000259102 -0.000106834)
(-1.2866e-06 -0.000286348 7.40682e-06)
(0.000178266 -0.000290103 0.00013112)
(0.000341091 -0.000282475 0.000244975)
(0.000476005 -0.00028515 0.000328892)
(0.000580877 -0.000323915 0.000367495)
(0.000666057 -0.000416178 0.000356864)
(0.000752427 -0.000556627 0.000312522)
(0.00185811 -0.00102248 0.000779276)
(0.00176732 -0.001126 0.000218788)
(0.00159472 -0.00115589 -0.000272203)
(0.00139549 -0.00109358 -0.000628076)
(0.00120056 -0.000964184 -0.000847509)
(0.00102817 -0.000806577 -0.000951735)
(0.00088742 -0.000645287 -0.000966874)
(0.000775132 -0.000486432 -0.000916917)
(0.000675114 -0.000325966 -0.000819706)
(0.000562311 -0.000158015 -0.000684063)
(0.00040955 2.07641e-05 -0.00050851)
(0.000194424 0.000210262 -0.000282598)
(-9.51996e-05 0.000406562 7.55635e-06)
(-0.000456901 0.000598629 0.0003672)
(-0.000868359 0.000763099 0.000772665)
(-0.00128104 0.000869592 0.00114647)
(-0.00162279 0.000911155 0.0013476)
(-0.00182127 0.000941568 0.00122676)
(-0.00185811 0.00102248 0.000779276)
(-0.00176732 0.001126 0.000218788)
(-0.00159472 0.00115589 -0.000272203)
(-0.00139549 0.00109358 -0.000628076)
(-0.00120056 0.000964184 -0.000847509)
(-0.00102817 0.000806577 -0.000951735)
(-0.00088742 0.000645287 -0.000966874)
(-0.000775132 0.000486432 -0.000916917)
(-0.000675114 0.000325966 -0.000819706)
(-0.000562311 0.000158015 -0.000684063)
(-0.00040955 -2.07641e-05 -0.00050851)
(-0.000194424 -0.000210262 -0.000282598)
(9.51996e-05 -0.000406562 7.55635e-06)
(0.000456901 -0.000598629 0.0003672)
(0.000868359 -0.000763099 0.000772665)
(0.00128104 -0.000869592 0.00114647)
(0.00162279 -0.000911155 0.0013476)
(0.00182127 -0.000941568 0.00122676)
(0.00166286 -0.00105692 0.000734005)
(0.00169301 -0.00113238 0.000400324)
(0.00165275 -0.00110892 6.57745e-05)
(0.00155299 -0.000993612 -0.000219174)
(0.00141107 -0.000821306 -0.000434423)
(0.00124874 -0.000629965 -0.000573334)
(0.00108276 -0.000442023 -0.000638393)
(0.000918585 -0.000264968 -0.000637242)
(0.000750259 -9.88434e-05 -0.000578043)
(0.00056479 5.73882e-05 -0.000466342)
(0.000348419 0.000202885 -0.000304435)
(9.2879e-05 0.00033526 -9.3423e-05)
(-0.000200247 0.000452708 0.000162218)
(-0.000518343 0.000555486 0.000448115)
(-0.000839369 0.000645683 0.000732643)
(-0.00113548 0.000728473 0.000961928)
(-0.00138027 0.000817004 0.00106538)
(-0.00155709 0.000929295 0.000983829)
(-0.00166286 0.00105692 0.000734005)
(-0.00169301 0.00113238 0.000400324)
(-0.00165275 0.00110892 6.57745e-05)
(-0.00155299 0.000993612 -0.000219174)
(-0.00141107 0.000821306 -0.000434423)
(-0.00124874 0.000629965 -0.000573334)
(-0.00108276 0.000442023 -0.000638393)
(-0.000918585 0.000264968 -0.000637242)
(-0.000750259 9.88434e-05 -0.000578043)
(-0.00056479 -5.73882e-05 -0.000466342)
(-0.000348419 -0.000202885 -0.000304435)
(-9.2879e-05 -0.00033526 -9.3423e-05)
(0.000200247 -0.000452708 0.000162218)
(0.000518343 -0.000555486 0.000448115)
(0.000839369 -0.000645683 0.000732643)
(0.00113548 -0.000728473 0.000961928)
(0.00138027 -0.000817004 0.00106538)
(0.00155709 -0.000929295 0.000983829)
(0.00137015 -0.00106838 0.000644989)
(0.001513 -0.00114135 0.000514036)
(0.00160505 -0.00108962 0.000338446)
(0.00161511 -0.000937228 0.000134707)
(0.00154492 -0.000729118 -6.47261e-05)
(0.00141405 -0.000504175 -0.000227512)
(0.00124256 -0.000285809 -0.000332603)
(0.0010426 -8.59973e-05 -0.000370812)
(0.000818544 8.85327e-05 -0.000340474)
(0.000570834 0.000232612 -0.000244243)
(0.000300791 0.00034169 -8.8983e-05)
(1.50415e-05 0.00041346 0.000111831)
(-0.000272108 0.000451915 0.000335169)
(-0.000540595 0.000472329 0.000548322)
(-0.000771794 0.000502534 0.000715013)
(-0.000957362 0.000574436 0.000807174)
(-0.00110383 0.000705262 0.000814734)
(-0.00123041 0.000889931 0.000747628)
(-0.00137015 0.00106838 0.000644989)
(-0.001513 0.00114135 0.000514036)
(-0.00160505 0.00108962 0.000338446)
(-0.00161511 0.000937228 0.000134707)
(-0.00154492 0.000729118 -6.47261e-05)
(-0.00141405 0.000504175 -0.000227512)
(-0.00124256 0.000285809 -0.000332603)
(-0.0010426 8.59973e-05 -0.000370812)
(-0.000818544 -8.85327e-05 -0.000340474)
(-0.000570834 -0.000232612 -0.000244243)
(-0.000300791 -0.00034169 -8.8983e-05)
(-1.50415e-05 -0.00041346 0.000111831)
(0.000272108 -0.000451915 0.000335169)
(0.000540595 -0.000472329 0.000548322)
(0.000771794 -0.000502534 0.000715013)
(0.000957362 -0.000574436 0.000807174)
(0.00110383 -0.000705262 0.000814734)
(0.00123041 -0.000889931 0.000747628)
(0.00233417 -0.00166016 0.00125171)
(0.00224775 -0.00171987 0.000516107)
(0.00205197 -0.00168447 -0.000190911)
(0.00181112 -0.00155929 -0.00074775)
(0.00156973 -0.001371 -0.00111848)
(0.00135129 -0.00115517 -0.00132082)
(0.00116442 -0.00093547 -0.00138971)
(0.00100485 -0.000718832 -0.00135735)
(0.000855455 -0.000501672 -0.00124604)
(0.000689531 -0.000277655 -0.00106561)
(0.000477603 -4.26453e-05 -0.000813123)
(0.000195569 0.000203692 -0.000475981)
(-0.000168311 0.000457745 -4.10629e-05)
(-0.000608393 0.00071035 0.000487719)
(-0.0010972 0.000945194 0.00106506)
(-0.00158236 0.00114712 0.00158416)
(-0.00199202 0.00132458 0.00188058)
(-0.0022532 0.0015094 0.00178293)
(-0.00233417 0.00166016 0.00125171)
(-0.00224775 0.00171987 0.000516107)
(-0.00205197 0.00168447 -0.000190911)
(-0.00181112 0.00155929 -0.00074775)
(-0.00156973 0.001371 -0.00111848)
(-0.00135129 0.00115517 -0.00132082)
(-0.00116442 0.00093547 -0.00138971)
(-0.00100485 0.000718832 -0.00135735)
(-0.000855455 0.000501672 -0.00124604)
(-0.000689531 0.000277655 -0.00106561)
(-0.000477603 4.26453e-05 -0.000813123)
(-0.000195569 -0.000203692 -0.000475981)
(0.000168311 -0.000457745 -4.10629e-05)
(0.000608393 -0.00071035 0.000487719)
(0.0010972 -0.000945194 0.00106506)
(0.00158236 -0.00114712 0.00158416)
(0.00199202 -0.00132458 0.00188058)
(0.0022532 -0.0015094 0.00178293)
(0.00212685 -0.00150931 0.0011799)
(0.00215817 -0.00157897 0.000712134)
(0.00209589 -0.00152904 0.000220349)
(0.00196275 -0.00137973 -0.000210255)
(0.00178433 -0.00116714 -0.000539089)
(0.00158469 -0.000928376 -0.000755063)
(0.00137924 -0.000687034 -0.000863715)
(0.00117148 -0.000453097 -0.000876513)
(0.000954063 -0.00022897 -0.000804026)
(0.000712946 -1.51008e-05 -0.000652628)
(0.000433467 0.00018702 -0.000424523)
(0.00010687 0.000374816 -0.000121337)
(-0.000264744 0.000546531 0.000248645)
(-0.000666414 0.000703043 0.000660874)
(-0.00107148 0.000848729 0.00106641)
(-0.00144614 0.000993295 0.0013921)
(-0.00175896 0.00115331 0.00155551)
(-0.00199077 0.00133919 0.00149022)
(-0.00212685 0.00150931 0.0011799)
(-0.00215817 0.00157897 0.000712134)
(-0.00209589 0.00152904 0.000220349)
(-0.00196275 0.00137973 -0.000210255)
(-0.00178433 0.00116714 -0.000539089)
(-0.00158469 0.000928376 -0.000755063)
(-0.00137924 0.000687034 -0.000863715)
(-0.00117148 0.000453097 -0.000876513)
(-0.000954063 0.00022897 -0.000804026)
(-0.000712946 1.51008e-05 -0.000652628)
(-0.000433467 -0.00018702 -0.000424523)
(-0.00010687 -0.000374816 -0.000121337)
(0.000264744 -0.000546531 0.000248645)
(0.000666414 -0.000703043 0.000660874)
(0.00107148 -0.000848729 0.00106641)
(0.00144614 -0.000993295 0.0013921)
(0.00175896 -0.00115331 0.00155551)
(0.00199077 -0.00133919 0.00149022)
(0.00184386 -0.00138355 0.00105539)
(0.00197054 -0.00146717 0.000840815)
(0.002037 -0.00141601 0.000569358)
(0.00201914 -0.001252 0.000275883)
(0.00191979 -0.0010184 6.66856e-07)
(0.00175749 -0.000755184 -0.000218612)
(0.00155044 -0.000488504 -0.000357944)
(0.00130871 -0.000233691 -0.000407307)
(0.00103507 -8.99737e-07 -0.000365249)
(0.000729287 0.000201837 -0.000235079)
(0.000392658 0.000368178 -2.49849e-05)
(3.19946e-05 0.00049507 0.000248437)
(-0.000337984 0.000586289 0.000555478)
(-0.000695674 0.000656944 0.000852217)
(-0.00101864 0.000734112 0.00108891)
(-0.00129205 0.000846984 0.00122758)
(-0.00151369 0.0010085 0.00125711)
(-0.00169317 0.00120336 0.001193)
(-0.00184386 0.00138355 0.00105539)
(-0.00197054 0.00146717 0.000840815)
(-0.002037 0.00141601 0.000569358)
(-0.00201914 0.001252 0.000275883)
(-0.00191979 0.0010184 6.66864e-07)
(-0.00175749 0.000755184 -0.000218612)
(-0.00155044 0.000488504 -0.000357944)
(-0.00130871 0.000233691 -0.000407307)
(-0.00103507 8.99747e-07 -0.000365249)
(-0.000729287 -0.000201837 -0.000235079)
(-0.000392658 -0.000368178 -2.49849e-05)
(-3.19946e-05 -0.00049507 0.000248437)
(0.000337984 -0.000586289 0.000555478)
(0.000695674 -0.000656944 0.000852217)
(0.00101864 -0.000734112 0.00108891)
(0.00129205 -0.000846984 0.00122758)
(0.00151369 -0.0010085 0.00125711)
(0.00169317 -0.00120336 0.001193)
(0.00262696 -0.00213427 0.00165097)
(0.00256185 -0.00221382 0.000859494)
(0.00235904 -0.0021669 8.52559e-06)
(0.00209429 -0.00201933 -0.000712502)
(0.00182594 -0.00180325 -0.00122313)
(0.00158101 -0.00155171 -0.00152779)
(0.00136452 -0.00128809 -0.00166319)
(0.00116907 -0.00102189 -0.00166508)
(0.000977233 -0.000752367 -0.00155739)
(0.00076385 -0.000474892 -0.0013502)
(0.000501591 -0.000185709 -0.00104062)
(0.000168503 0.000116023 -0.000617524)
(-0.000244986 0.000427809 -7.28178e-05)
(-0.000730588 0.000743175 0.000577696)
(-0.00125795 0.00105293 0.00126806)
(-0.00177412 0.00135267 0.00186853)
(-0.00221116 0.0016476 0.00220857)
(-0.00250725 0.00192732 0.00214548)
(-0.00262696 0.00213427 0.00165097)
(-0.00256185 0.00221382 0.000859494)
(-0.00235904 0.0021669 8.5256e-06)
(-0.00209429 0.00201933 -0.000712502)
(-0.00182594 0.00180325 -0.00122313)
(-0.00158101 0.00155171 -0.00152779)
(-0.00136452 0.00128809 -0.00166319)
(-0.00116907 0.00102189 -0.00166508)
(-0.000977233 0.000752367 -0.00155739)
(-0.000763851 0.000474892 -0.0013502)
(-0.000501591 0.000185709 -0.00104062)
(-0.000168503 -0.000116023 -0.000617524)
(0.000244986 -0.000427809 -7.28178e-05)
(0.000730588 -0.000743175 0.000577696)
(0.00125795 -0.00105293 0.00126806)
(0.00177412 -0.00135267 0.00186853)
(0.00221116 -0.0016476 0.00220857)
(0.00250725 -0.00192732 0.00214548)
(0.00242846 -0.00185691 0.00151282)
(0.00245438 -0.00193372 0.00100526)
(0.00237385 -0.00188597 0.000422898)
(0.00221642 -0.00173237 -0.000115752)
(0.00201522 -0.00150728 -0.000540403)
(0.00179446 -0.00124523 -0.000828515)
(0.00156598 -0.000970192 -0.000983934)
(0.00133033 -0.000694524 -0.00101891)
(0.00107919 -0.000423307 -0.000944766)
(0.000799046 -0.000158845 -0.000768479)
(0.000476297 9.66959e-05 -0.000493257)
(0.000102873 0.000340877 -0.000123084)
(-0.000319043 0.000572151 0.000328649)
(-0.000774185 0.000791378 0.000828146)
(-0.00123416 0.00100349 0.0013134)
(-0.00166209 0.00121891 0.00169804)
(-0.00202147 0.00144795 0.00189108)
(-0.00228328 0.00167768 0.00182931)
(-0.00242846 0.00185691 0.00151282)
(-0.00245438 0.00193372 0.00100526)
(-0.00237385 0.00188597 0.000422898)
(-0.00221642 0.00173237 -0.000115752)
(-0.00201522 0.00150728 -0.000540403)
(-0.00179446 0.00124523 -0.000828515)
(-0.00156598 0.000970192 -0.000983934)
(-0.00133033 0.000694524 -0.00101891)
(-0.00107919 0.000423307 -0.000944766)
(-0.000799046 0.000158845 -0.000768479)
(-0.000476297 -9.66959e-05 -0.000493257)
(-0.000102873 -0.000340877 -0.000123084)
(0.000319043 -0.000572151 0.000328649)
(0.000774185 -0.000791378 0.000828146)
(0.00123416 -0.00100349 0.0013134)
(0.00166209 -0.00121891 0.00169804)
(0.00202147 -0.00144795 0.00189108)
(0.00228328 -0.00167768 0.00182931)
(0.00220484 -0.00163317 0.00135004)
(0.00229082 -0.0017005 0.00110024)
(0.00231314 -0.00165313 0.000782725)
(0.00226107 -0.00149618 0.000434329)
(0.00213636 -0.00126173 0.000105913)
(0.00195293 -0.000985771 -0.000156555)
(0.00172494 -0.000694741 -0.000324142)
(0.00145958 -0.000405687 -0.00038475)
(0.00115798 -0.000130807 -0.000336702)
(0.000819233 0.000120188 -0.000184212)
(0.000444263 0.000340111 6.26896e-05)
(3.88351e-05 0.000525607 0.000384283)
(-0.000384335 0.000679537 0.00074572)
(-0.00080528 0.000814021 0.00109592)
(-0.00120043 0.000950163 0.00137809)
(-0.00154912 0.0011087 0.00154918)
(-0.00183747 0.00129405 0.00159331)
(-0.00205681 0.00148341 0.00151933)
(-0.00220484 0.00163317 0.00135004)
(-0.00229082 0.0017005 0.00110024)
(-0.00231314 0.00165313 0.000782725)
(-0.00226107 0.00149618 0.000434329)
(-0.00213636 0.00126173 0.000105913)
(-0.00195293 0.000985771 -0.000156555)
(-0.00172494 0.000694741 -0.000324142)
(-0.00145958 0.000405687 -0.00038475)
(-0.00115798 0.000130807 -0.000336702)
(-0.000819233 -0.000120188 -0.000184212)
(-0.000444263 -0.000340111 6.26896e-05)
(-3.88352e-05 -0.000525607 0.000384283)
(0.000384335 -0.000679537 0.00074572)
(0.00080528 -0.000814021 0.00109592)
(0.00120043 -0.000950163 0.00137809)
(0.00154912 -0.0011087 0.00154918)
(0.00183747 -0.00129405 0.00159331)
(0.00205681 -0.00148341 0.00151933)
(0.00273314 -0.00243184 0.00187261)
(0.00269131 -0.00255964 0.00112071)
(0.00250413 -0.00254977 0.00024345)
(0.00223983 -0.00242504 -0.000558672)
(0.00196366 -0.00221695 -0.00116623)
(0.00170787 -0.00195663 -0.00155649)
(0.0014758 -0.00166866 -0.00175589)
(0.00125702 -0.00136672 -0.00179756)
(0.00103402 -0.00105471 -0.0017048)
(0.00078469 -0.000731237 -0.00148825)
(0.000486266 -0.000393816 -0.00114746)
(0.000121129 -4.11414e-05 -0.000676259)
(-0.000317215 0.000325706 -7.46377e-05)
(-0.000818452 0.000702259 0.000630124)
(-0.00135102 0.00108225 0.00135956)
(-0.00186368 0.00146187 0.00197981)
(-0.00229663 0.00183505 0.00233556)
(-0.00259813 0.00217504 0.00230872)
(-0.00273314 0.00243184 0.00187261)
(-0.00269131 0.00255964 0.00112071)
(-0.00250413 0.00254977 0.00024345)
(-0.00223983 0.00242504 -0.000558672)
(-0.00196366 0.00221695 -0.00116623)
(-0.00170787 0.00195663 -0.00155649)
(-0.0014758 0.00166866 -0.00175589)
(-0.00125702 0.00136672 -0.00179756)
(-0.00103402 0.00105471 -0.0017048)
(-0.00078469 0.000731237 -0.00148825)
(-0.000486266 0.000393816 -0.00114746)
(-0.000121129 4.11415e-05 -0.000676259)
(0.000317215 -0.000325706 -7.46377e-05)
(0.000818452 -0.000702259 0.000630124)
(0.00135102 -0.00108225 0.00135956)
(0.00186368 -0.00146187 0.00197981)
(0.00229663 -0.00183505 0.00233556)
(0.00259813 -0.00217504 0.00230872)
(0.00256061 -0.00208736 0.00171608)
(0.00258113 -0.00218122 0.00121851)
(0.00249168 -0.00215776 0.000618855)
(0.00232402 -0.00202702 3.35504e-05)
(0.00211369 -0.00181576 -0.000449797)
(0.00188482 -0.00155391 -0.000791984)
(0.00164636 -0.00126521 -0.000988324)
(0.00139635 -0.000964458 -0.00104779)
(0.001126 -0.000659634 -0.000980855)
(0.00082321 -0.000355161 -0.000795191)
(0.000476565 -5.40206e-05 -0.000496353)
(7.95858e-05 0.000241532 -9.24163e-05)
(-0.000365286 0.000530105 0.000397485)
(-0.000843199 0.000811607 0.000932698)
(-0.00132532 0.00108836 0.00144514)
(-0.00177271 0.00136511 0.00184709)
(-0.00214594 0.00164101 0.00205401)
(-0.00241457 0.00189486 0.00201173)
(-0.00256061 0.00208736 0.00171608)
(-0.00258113 0.00218122 0.00121851)
(-0.00249168 0.00215776 0.000618855)
(-0.00232402 0.00202702 3.35505e-05)
(-0.00211369 0.00181576 -0.000449797)
(-0.00188482 0.00155391 -0.000791984)
(-0.00164636 0.00126521 -0.000988324)
(-0.00139635 0.000964458 -0.00104779)
(-0.001126 0.000659634 -0.000980855)
(-0.00082321 0.000355161 -0.000795191)
(-0.000476565 5.40206e-05 -0.000496353)
(-7.95858e-05 -0.000241532 -9.24163e-05)
(0.000365286 -0.000530105 0.000397485)
(0.000843199 -0.000811607 0.000932698)
(0.00132532 -0.00108836 0.00144514)
(0.00177271 -0.00136511 0.00184709)
(0.00214594 -0.00164101 0.00205401)
(0.00241457 -0.00189486 0.00201173)
(0.00239291 -0.00180353 0.00154478)
(0.00245156 -0.00185533 0.00128195)
(0.0024379 -0.00181291 0.000950155)
(0.00235665 -0.00167382 0.000583426)
(0.0022131 -0.00145647 0.000231467)
(0.00201758 -0.00118832 -5.52255e-05)
(0.00178011 -0.000893331 -0.000241893)
(0.00150524 -0.0005889 -0.000312786)
(0.00119284 -0.000288257 -0.000265088)
(0.000841577 -1.91032e-06 -0.000103767)
(0.000451937 0.000262659 0.000159046)
(2.83915e-05 0.000501819 0.000500542)
(-0.000418707 0.000716768 0.000882282)
(-0.000871635 0.000914728 0.00125038)
(-0.00130641 0.0011077 0.00154756)
(-0.0016966 0.00130487 0.00173179)
(-0.00201751 0.00150185 0.00178684)
(-0.00225111 0.00167738 0.00171882)
(-0.00239291 0.00180353 0.00154478)
(-0.00245156 0.00185533 0.00128195)
(-0.0024379 0.00181291 0.000950155)
(-0.00235665 0.00167382 0.000583426)
(-0.0022131 0.00145647 0.000231467)
(-0.00201758 0.00118832 -5.52255e-05)
(-0.00178011 0.000893331 -0.000241893)
(-0.00150524 0.0005889 -0.000312786)
(-0.00119284 0.000288257 -0.000265088)
(-0.000841577 1.91034e-06 -0.000103767)
(-0.000451937 -0.000262659 0.000159046)
(-2.83916e-05 -0.000501819 0.000500542)
(0.000418707 -0.000716768 0.000882282)
(0.000871635 -0.000914728 0.00125038)
(0.00130641 -0.0011077 0.00154756)
(0.0016966 -0.00130487 0.00173179)
(0.00201751 -0.00150185 0.00178684)
(0.00225111 -0.00167738 0.00171882)
(0.00267466 -0.00258078 0.00192336)
(0.00264969 -0.00276451 0.00125759)
(0.00249009 -0.00281482 0.000440593)
(0.00224833 -0.0027418 -0.000354643)
(0.00198328 -0.00256912 -0.000998472)
(0.00172985 -0.00232454 -0.00144111)
(0.00149329 -0.00203329 -0.00168936)
(0.00126275 -0.00171306 -0.0017671)
(0.00102154 -0.00137279 -0.0016946)
(0.000751095 -0.00101501 -0.0014832)
(0.000433828 -0.000639162 -0.00113642)
(5.70576e-05 -0.000244089 -0.000654973)
(-0.000382242 0.000169633 -4.78061e-05)
(-0.000871857 0.000597874 0.000649225)
(-0.00138035 0.00103389 0.00135525)
(-0.00186066 0.00147039 0.00194706)
(-0.00226219 0.00189461 0.0022915)
(-0.00254286 0.00227846 0.00229117)
(-0.00267466 0.00258078 0.00192336)
(-0.00264969 0.00276451 0.00125759)
(-0.00249009 0.00281482 0.000440593)
(-0.00224833 0.0027418 -0.000354643)
(-0.00198328 0.00256912 -0.000998472)
(-0.00172985 0.00232454 -0.00144111)
(-0.00149329 0.00203329 -0.00168936)
(-0.00126275 0.00171306 -0.0017671)
(-0.00102154 0.00137279 -0.0016946)
(-0.000751095 0.00101501 -0.0014832)
(-0.000433828 0.000639162 -0.00113642)
(-5.70577e-05 0.000244089 -0.000654973)
(0.000382242 -0.000169633 -4.78061e-05)
(0.000871857 -0.000597874 0.000649225)
(0.00138035 -0.00103389 0.00135525)
(0.00186066 -0.00147039 0.00194706)
(0.00226219 -0.00189461 0.0022915)
(0.00254286 -0.00227846 0.00229117)
(0.00253166 -0.0022081 0.00178655)
(0.00255012 -0.00232919 0.00133526)
(0.00246377 -0.00234267 0.000771485)
(0.00230114 -0.00225121 0.000196362)
(0.00209512 -0.00207229 -0.000301713)
(0.00186897 -0.00182959 -0.000670989)
(0.00163077 -0.00154529 -0.000894895)
(0.00137759 -0.00123587 -0.000975663)
(0.00110096 -0.000912038 -0.000921218)
(0.000790728 -0.000580366 -0.000739753)
(0.000438093 -0.000244856 -0.000439774)
(3.86958e-05 9.19847e-05 -3.4085e-05)
(-0.000404093 0.000428188 0.000453002)
(-0.000875359 0.000761581 0.000977519)
(-0.00134666 0.00109023 0.00147311)
(-0.00178015 0.00141224 0.00186044)
(-0.0021385 0.00172047 0.00206634)
(-0.00239401 0.00199558 0.00204377)
(-0.00253166 0.0022081 0.00178655)
(-0.00255012 0.00232919 0.00133526)
(-0.00246377 0.00234267 0.000771485)
(-0.00230114 0.00225121 0.000196362)
(-0.00209512 0.00207229 -0.000301713)
(-0.00186897 0.00182959 -0.000670989)
(-0.00163077 0.00154529 -0.000894895)
(-0.00137759 0.00123587 -0.000975663)
(-0.00110096 0.000912039 -0.000921218)
(-0.000790728 0.000580366 -0.000739753)
(-0.000438093 0.000244856 -0.000439774)
(-3.86959e-05 -9.19847e-05 -3.4085e-05)
(0.000404093 -0.000428188 0.000453002)
(0.000875359 -0.000761581 0.000977519)
(0.00134666 -0.00109023 0.00147311)
(0.00178015 -0.00141224 0.00186044)
(0.0021385 -0.00172047 0.00206634)
(0.00239401 -0.00199558 0.00204377)
(0.00241694 -0.00189614 0.00163395)
(0.00245981 -0.00194512 0.00138356)
(0.00242634 -0.00191352 0.00106407)
(0.00232839 -0.00179798 0.000707624)
(0.00217528 -0.00160785 0.000359484)
(0.00197629 -0.00136133 6.92412e-05)
(0.00173872 -0.00107764 -0.000124868)
(0.0014653 -0.000773181 -0.000203204)
(0.00115522 -0.000461417 -0.000161029)
(0.000807076 -0.000153136 -3.51976e-06)
(0.000421198 0.000144001 0.000255373)
(1.28785e-06 0.000425677 0.000590318)
(-0.000443669 0.000690647 0.000961283)
(-0.000897287 0.000940496 0.00131603)
(-0.0013357 0.00117826 0.00160276)
(-0.00173038 0.00140383 0.0017851)
(-0.00205324 0.0016091 0.00184812)
(-0.00228403 0.00177888 0.00179396)
(-0.00241694 0.00189614 0.00163395)
(-0.00245981 0.00194512 0.00138356)
(-0.00242634 0.00191352 0.00106407)
(-0.00232839 0.00179798 0.000707624)
(-0.00217529 0.00160785 0.000359484)
(-0.00197629 0.00136133 6.92412e-05)
(-0.00173872 0.00107764 -0.000124868)
(-0.0014653 0.000773181 -0.000203204)
(-0.00115522 0.000461417 -0.000161029)
(-0.000807076 0.000153136 -3.51976e-06)
(-0.000421198 -0.000144001 0.000255373)
(-1.28788e-06 -0.000425677 0.000590317)
(0.000443669 -0.000690647 0.000961283)
(0.000897287 -0.000940496 0.00131603)
(0.0013357 -0.00117826 0.00160276)
(0.00173038 -0.00140383 0.0017851)
(0.00205324 -0.0016091 0.00184812)
(0.00228403 -0.00177888 0.00179396)
(0.0024835 -0.00261565 0.00183081)
(0.00246794 -0.00285191 0.00127138)
(0.00233828 -0.0029644 0.000562388)
(0.00213165 -0.00295228 -0.000160779)
(0.00189289 -0.00282924 -0.00078148)
(0.00165363 -0.00261765 -0.00123567)
(0.00142205 -0.0023416 -0.00150953)
(0.00118994 -0.00202094 -0.00161353)
(0.000943095 -0.00166851 -0.00156229)
(0.000666732 -0.00129049 -0.00136706)