/*--------------------------------*- C++ -*----------------------------------*\
| =========                 |                                                 |
| \\      /  F ield         | OpenFOAM: The Open Source CFD Toolbox           |
|  \\    /   O peration     | Version:  2312                                  |
|   \\  /    A nd           | Website:  www.openfoam.com                      |
|    \\/     M anipulation  |                                                 |
\*---------------------------------------------------------------------------*/
FoamFile
{
    version     2.0;
    format      ascii;
    arch        "LSB;label=32;scalar=64";
    class       volVectorField;
    location    "0.6";
    object      D_0_0;
}
// * * * * * * * * * * * * * * * * * * * * * * * * * * * * * * * * * * * * * //

dimensions      [0 1 0 0 0 0 0];

internalField   nonuniform List<vector> 
1620
(
(-0.000135872 3.67746e-05 -0.000137249)
(-0.000107491 0.000120465 -0.000122418)
(-7.0791e-05 0.000181541 -9.51036e-05)
(-3.02172e-05 0.000223378 -5.81407e-05)
(1.35425e-05 0.000254777 -1.06433e-05)
(5.70543e-05 0.000285103 4.9135e-05)
(9.20914e-05 0.000321034 0.00012338)
(0.00010733 0.000362498 0.000210936)
(0.000105043 0.000395922 0.000288419)
(8.63808e-05 0.000412012 0.000282972)
(5.36101e-05 0.000405306 0.000208099)
(3.30141e-05 0.000383009 0.000133023)
(3.00906e-05 0.000358229 7.0953e-05)
(3.6551e-05 0.000333674 2.05135e-05)
(4.54872e-05 0.000305082 -2.08905e-05)
(5.39528e-05 0.000265459 -5.56675e-05)
(6.08021e-05 0.000207925 -8.56099e-05)
(5.98909e-05 0.0001293 -0.000107385)
(4.35137e-05 3.71937e-05 -0.000105356)
(1.48963e-05 -4.64093e-05 -8.05473e-05)
(-1.4495e-05 -0.000112003 -5.09661e-05)
(-3.93047e-05 -0.00016002 -2.02733e-05)
(-6.07775e-05 -0.00019523 1.33796e-05)
(-8.02956e-05 -0.000225039 5.37742e-05)
(-9.5615e-05 -0.000257223 0.000107217)
(-9.99198e-05 -0.000295091 0.000179675)
(-9.79091e-05 -0.000327372 0.000255499)
(-8.61167e-05 -0.000344673 0.000259551)
(-6.36459e-05 -0.000340336 0.000199552)
(-5.48238e-05 -0.000321511 0.00013457)
(-6.44885e-05 -0.000299444 7.66951e-05)
(-8.45111e-05 -0.000276216 2.62411e-05)
(-0.000106797 -0.000247233 -1.7893e-05)
(-0.000126744 -0.000205054 -5.74729e-05)
(-0.00014234 -0.000142717 -9.45191e-05)
(-0.00014782 -5.82383e-05 -0.00012652)
(-4.59956e-07 1.0523e-05 -7.51913e-05)
(1.18777e-05 9.35246e-05 -4.99609e-05)
(2.01236e-05 0.000149816 -2.60012e-05)
(2.73192e-05 0.000184045 1.57314e-06)
(3.61245e-05 0.000200531 3.34965e-05)
(4.68086e-05 0.000205953 6.77718e-05)
(5.82288e-05 0.000206274 0.000101469)
(6.98174e-05 0.000206083 0.00013086)
(8.44043e-05 0.000210478 0.000150137)
(9.22556e-05 0.000223649 0.000149384)
(9.24314e-05 0.000243104 0.000131682)
(8.44001e-05 0.000262701 0.000106151)
(7.31626e-05 0.000279236 7.80127e-05)
(5.8585e-05 0.000289236 5.01055e-05)
(3.94176e-05 0.000287325 2.45663e-05)
(1.54623e-05 0.00026696 2.53768e-06)
(-1.09951e-05 0.000223293 -1.73548e-05)
(-3.68893e-05 0.000148852 -3.91318e-05)
(-5.46016e-05 5.53348e-05 -3.48028e-05)
(-6.18589e-05 -2.50596e-05 -7.22577e-06)
(-6.34575e-05 -8.14467e-05 1.34643e-05)
(-6.18719e-05 -0.000117785 3.31533e-05)
(-6.00342e-05 -0.000137199 5.40585e-05)
(-5.96124e-05 -0.000145142 7.61334e-05)
(-6.16618e-05 -0.000146661 9.9046e-05)
(-6.77647e-05 -0.000145848 0.000121716)
(-8.18949e-05 -0.000148047 0.000139025)
(-9.43602e-05 -0.000158045 0.000138679)
(-0.000102181 -0.000175689 0.00012248)
(-0.000104755 -0.00019607 9.79381e-05)
(-0.000104968 -0.000215261 6.92155e-05)
(-0.000101066 -0.000228581 3.90848e-05)
(-9.03754e-05 -0.000229264 9.84952e-06)
(-7.18026e-05 -0.000209577 -1.72205e-05)
(-4.75021e-05 -0.000164128 -4.3423e-05)
(-2.12209e-05 -8.64999e-05 -7.28635e-05)
(9.57489e-05 -2.14367e-05 5.87547e-07)
(9.06558e-05 5.72358e-05 1.52932e-05)
(6.94351e-05 0.000108458 3.09028e-05)
(4.45656e-05 0.000131709 4.67739e-05)
(2.3006e-05 0.000131907 6.20759e-05)
(9.10126e-06 0.000116821 7.30574e-05)
(7.00451e-06 9.50545e-05 7.40166e-05)
(2.16879e-05 7.57394e-05 6.08161e-05)
(5.8925e-05 6.84416e-05 3.99106e-05)
(0.000108864 7.79163e-05 4.00247e-05)
(0.000141181 0.000106105 6.3015e-05)
(0.000149977 0.000148122 7.47669e-05)
(0.000138534 0.000193714 7.30702e-05)
(0.000110595 0.000233282 6.41276e-05)
(6.91199e-05 0.000257723 5.38954e-05)
(1.73799e-05 0.000258031 4.61666e-05)
(-3.80923e-05 0.000226943 4.18028e-05)
(-8.28685e-05 0.000161841 3.98679e-05)
(-0.000100656 8.01637e-05 4.50993e-05)
(-9.08992e-05 7.53194e-06 5.48678e-05)
(-6.80435e-05 -3.90468e-05 6.25742e-05)
(-4.39583e-05 -6.04804e-05 7.00979e-05)
(-2.41055e-05 -6.22178e-05 7.81948e-05)
(-1.13349e-05 -5.1038e-05 8.39868e-05)
(-9.25222e-06 -3.32512e-05 8.18908e-05)
(-2.35398e-05 -1.57185e-05 6.67868e-05)
(-6.04665e-05 -7.63289e-06 4.33538e-05)
(-0.000110428 -1.56403e-05 3.89872e-05)
(-0.000144859 -4.36105e-05 5.68155e-05)
(-0.000159983 -8.69813e-05 6.39435e-05)
(-0.000155909 -0.000135963 5.81727e-05)
(-0.000133383 -0.00018005 4.50772e-05)
(-9.37008e-05 -0.00020839 2.99547e-05)
(-3.99972e-05 -0.000210421 1.6125e-05)
(2.02402e-05 -0.000178201 4.56084e-06)
(7.14607e-05 -0.000109455 -3.63897e-06)
(-0.000268124 9.47984e-05 -0.000376457)
(-0.000213689 0.000354718 -0.000339015)
(-0.000152794 0.000540951 -0.000257667)
(-8.45474e-05 0.000656981 -0.000145202)
(-5.98216e-06 0.000725488 -2.81397e-06)
(7.86609e-05 0.000772372 0.000172075)
(0.000157004 0.000818598 0.000380014)
(0.000214034 0.000873257 0.000606397)
(0.000252671 0.000924731 0.000789696)
(0.000270563 0.000960933 0.000804846)
(0.000245803 0.000974666 0.00065409)
(0.000217708 0.000971714 0.000462343)
(0.000202119 0.000960964 0.000283226)
(0.00019337 0.00093801 0.000129463)
(0.000183001 0.000888226 4.6248e-08)
(0.000166416 0.000791788 -0.000109857)
(0.00014239 0.000628935 -0.000202041)
(0.000106558 0.000392943 -0.000263208)
(5.9644e-05 0.000117852 -0.000260533)
(8.67691e-06 -0.000133126 -0.000195801)
(-3.81943e-05 -0.000319491 -0.000108699)
(-7.76972e-05 -0.000442269 -1.54725e-05)
(-0.000113544 -0.000518836 8.57569e-05)
(-0.000148484 -0.000571088 0.000205102)
(-0.000181103 -0.000619437 0.000355377)
(-0.000207118 -0.000675664 0.000538515)
(-0.000237443 -0.00073021 0.000708884)
(-0.000266951 -0.000770312 0.000744635)
(-0.00026929 -0.000788908 0.000627955)
(-0.000276206 -0.000793258 0.000461114)
(-0.000298827 -0.000790426 0.00029221)
(-0.000327782 -0.000773656 0.000136048)
(-0.000349701 -0.000725476 -4.77295e-06)
(-0.000355798 -0.00062358 -0.000132683)
(-0.000344099 -0.000447708 -0.000249398)
(-0.000313483 -0.000194185 -0.00034276)
(-4.70183e-05 1.9496e-05 -0.00023067)
(-1.29116e-05 0.000261458 -0.000172244)
(8.44484e-06 0.000430133 -9.11536e-05)
(2.7986e-05 0.000532313 7.10395e-06)
(5.38993e-05 0.000582865 0.000120017)
(8.83711e-05 0.000602277 0.000242652)
(0.000129694 0.000609552 0.000366522)
(0.000176323 0.00061875 0.000477525)
(0.000229977 0.000638711 0.00055236)
(0.000274477 0.000675081 0.000562474)
(0.000293629 0.000725275 0.000507802)
(0.000286362 0.000778268 0.000416171)
(0.000261496 0.000824762 0.000311269)
(0.000221129 0.000852761 0.000206896)
(0.000165008 0.000845395 0.00011066)
(9.4935e-05 0.000783222 2.60071e-05)
(1.8078e-05 0.000650294 -4.62904e-05)
(-5.48423e-05 0.00043439 -0.000101069)
(-0.000105605 0.000173819 -9.19819e-05)
(-0.000128801 -5.89304e-05 -2.52249e-05)
(-0.000135313 -0.000224031 4.70372e-05)
(-0.000134252 -0.000328201 0.000120607)
(-0.000133747 -0.000384395 0.000197133)
(-0.00013886 -0.000410246 0.000277828)
(-0.00015331 -0.000422147 0.000362195)
(-0.000181589 -0.000432527 0.000444648)
(-0.000229402 -0.00044996 0.000507136)
(-0.000281867 -0.000481789 0.00051903)
(-0.000320668 -0.000530225 0.000472062)
(-0.000342281 -0.000587164 0.000386351)
(-0.000349673 -0.000642155 0.000281335)
(-0.000339506 -0.00068014 0.000169974)
(-0.000306882 -0.000680255 6.04195e-05)
(-0.000250962 -0.000619482 -4.29989e-05)
(-0.000179115 -0.000480377 -0.00013833)
(-0.000104644 -0.000253219 -0.000218478)
(0.000138478 -6.30301e-05 -6.46551e-05)
(0.000152887 0.000154065 -9.98578e-06)
(0.000136004 0.000307791 6.42636e-05)
(0.000108548 0.000395446 0.000145764)
(8.45393e-05 0.000428244 0.000227057)
(7.39403e-05 0.000424088 0.000296898)
(8.54371e-05 0.000403061 0.000339961)
(0.000126828 0.000385443 0.000345009)
(0.000205694 0.000389724 0.000325922)
(0.000295012 0.000425607 0.000333287)
(0.000355006 0.000494289 0.000359151)
(0.000370529 0.000585215 0.000357729)
(0.00034193 0.000678756 0.000323388)
(0.000275234 0.000753669 0.000268126)
(0.000177514 0.000787947 0.000206722)
(5.82878e-05 0.000759969 0.000150286)
(-6.62796e-05 0.000653331 0.000105548)
(-0.000168611 0.000465781 8.07682e-05)
(-0.00022177 0.000237214 9.41213e-05)
(-0.000223116 3.08325e-05 0.000138102)
(-0.000194135 -0.000114729 0.00018941)
(-0.00015645 -0.000198606 0.000241513)
(-0.000123331 -0.00023286 0.00029191)
(-0.000103769 -0.000233646 0.000333262)
(-0.000106784 -0.000217065 0.000352814)
(-0.000142072 -0.000199692 0.000340168)
(-0.000218524 -0.000199892 0.000309089)
(-0.000308787 -0.000231381 0.000306048)
(-0.000378061 -0.000299121 0.000320334)
(-0.000413005 -0.000394253 0.000308332)
(-0.000407576 -0.000497544 0.00026376)
(-0.000361078 -0.000585092 0.000196322)
(-0.000276419 -0.000630347 0.000118721)
(-0.00016224 -0.00060766 4.13866e-05)
(-3.59138e-05 -0.000499097 -2.69891e-05)
(7.38763e-05 -0.000303714 -7.17646e-05)
(-0.000380829 0.000107251 -0.000546938)
(-0.000302018 0.000507879 -0.000499479)
(-0.000217946 0.000802389 -0.000371419)
(-0.00012252 0.000991952 -0.000181448)
(-1.1866e-05 0.00110613 6.55415e-05)
(0.000107555 0.00117978 0.000368003)
(0.000221125 0.00124177 0.000716786)
(0.000313648 0.00130792 0.001078)
(0.000385405 0.00137567 0.00136743)
(0.000432205 0.0014375 0.00143748)
(0.000427039 0.00148252 0.00124997)
(0.000394606 0.0015081 0.000954783)
(0.00036335 0.00151515 0.000649358)
(0.00033529 0.00149232 0.000372379)
(0.000303556 0.00141897 0.000135157)
(0.000261021 0.00126849 -6.24582e-05)
(0.000204767 0.00101492 -0.000218937)
(0.000134129 0.000652225 -0.000314826)
(5.7889e-05 0.000233452 -0.000314751)
(-1.3452e-05 -0.000151624 -0.000222571)
(-7.56385e-05 -0.00044125 -8.50487e-05)
(-0.000129445 -0.000634456 7.21392e-05)
(-0.000179611 -0.000756146 0.000247841)
(-0.000228337 -0.000837073 0.000453151)
(-0.000274935 -0.000904548 0.000699243)
(-0.000318894 -0.000975629 0.000977639)
(-0.00037133 -0.00104946 0.00122944)
(-0.000429877 -0.00111782 0.00131923)
(-0.000466529 -0.00117027 0.00118101)
(-0.000488855 -0.00120599 0.000925905)
(-0.000518075 -0.00122553 0.000638341)
(-0.000549017 -0.00121389 0.000357523)
(-0.000566811 -0.0011456 9.95284e-05)
(-0.00055815 -0.000989982 -0.000131683)
(-0.000519668 -0.000720002 -0.000333383)
(-0.000456148 -0.00033333 -0.000486031)
(-0.000130651 3.56018e-06 -0.000345122)
(-6.87089e-05 0.000368837 -0.000264354)
(-2.3032e-05 0.000631021 -0.000126652)
(2.13722e-05 0.000797373 4.97304e-05)
(7.4777e-05 0.000888343 0.000256273)
(0.000139305 0.000932497 0.000482483)
(0.000211884 0.000957105 0.000711462)
(0.00028883 0.00098271 0.000916403)
(0.000369005 0.00102173 0.00105848)
(0.000436738 0.00108079 0.00109344)
(0.000473167 0.00115878 0.00101193)
(0.000468838 0.00124218 0.000854492)
(0.000433909 0.00131372 0.000663843)
(0.000373592 0.0013535 0.000468638)
(0.000289707 0.00133644 0.000286124)
(0.0001856 0.00123516 0.000125961)
(7.11768e-05 0.00102798 -4.86636e-06)
(-3.82502e-05 0.000702371 -8.85581e-05)
(-0.000120295 0.000316075 -7.73182e-05)
(-0.000166918 -3.42987e-05 1.86803e-05)
(-0.000189502 -0.000289655 0.000141829)
(-0.000201322 -0.000456488 0.00027469)
(-0.000213499 -0.000553364 0.000414878)
(-0.000232786 -0.000605585 0.000562545)
(-0.000263777 -0.00063713 0.0007148)
(-0.000311141 -0.00066625 0.000859884)
(-0.000379635 -0.000704368 0.000970382)
(-0.000457103 -0.000759096 0.00100252)
(-0.000522823 -0.00083516 0.000933267)
(-0.000561996 -0.000924511 0.000787275)
(-0.00057649 -0.00100893 0.000597565)
(-0.000563221 -0.00106422 0.000389864)
(-0.00051667 -0.00105931 0.000182019)
(-0.000435824 -0.000961086 -1.41434e-05)
(-0.000330868 -0.00074523 -0.000188347)
(-0.000220925 -0.000402423 -0.000318262)
(0.000100187 -0.000107789 -0.000121304)
(0.000143794 0.000214417 -2.93932e-05)
(0.000150954 0.000449448 0.00010972)
(0.000144416 0.000593371 0.000269961)
(0.00014082 0.000661037 0.000434001)
(0.0001522 0.000676849 0.00058245)
(0.000187543 0.00066857 0.000692187)
(0.000252895 0.000663316 0.000744898)
(0.000350071 0.000684677 0.000748663)
(0.000456427 0.000747033 0.00075918)
(0.000532444 0.000849726 0.00077166)
(0.0005542 0.000978113 0.000742724)
(0.000517509 0.00110653 0.000664608)
(0.000427418 0.00120548 0.000552044)
(0.000293462 0.00124332 0.000426547)
(0.000130228 0.00118945 0.000307583)
(-3.94218e-05 0.00102243 0.00021204)
(-0.000182105 0.000742624 0.000161218)
(-0.000267849 0.000405982 0.000180699)
(-0.000292512 9.90608e-05 0.000258509)
(-0.000278033 -0.00012597 0.000359783)
(-0.000249617 -0.000265749 0.000466449)
(-0.000225067 -0.000335562 0.000569689)
(-0.000217085 -0.00035764 0.000658243)
(-0.000236005 -0.000355115 0.000715796)
(-0.000290001 -0.000350585 0.000728215)
(-0.000382664 -0.000366726 0.00070433)
(-0.000492648 -0.000422477 0.000695617)
(-0.000584704 -0.000522622 0.000690975)
(-0.00063571 -0.000656466 0.000646644)
(-0.000634441 -0.00079908 0.000551797)
(-0.00057707 -0.000917168 0.000416717)
(-0.000466853 -0.000972106 0.000259782)
(-0.000316272 -0.000926585 0.000100653)
(-0.000149008 -0.000756222 -3.88059e-05)
(4.70198e-07 -0.000463175 -0.000126414)
(-0.000487593 6.25666e-05 -0.000570894)
(-0.000384707 0.000553512 -0.000534351)
(-0.000275655 0.000929975 -0.000384854)
(-0.000153391 0.00118732 -0.000139989)
(-1.50487e-05 0.00135375 0.000190722)
(0.000132081 0.00146556 0.000597374)
(0.000274031 0.00155466 0.00105821)
(0.000396859 0.00164223 0.00152471)
(0.000496555 0.00173577 0.00190471)
(0.000572847 0.0018321 0.00204467)
(0.00060217 0.00191393 0.0018683)
(0.000569401 0.00196961 0.00151696)
(0.000520124 0.00199445 0.00111767)
(0.000466862 0.00196951 0.000735723)
(0.000408734 0.00187111 0.000401745)
(0.000339191 0.00167226 0.000127263)
(0.000254379 0.00134974 -7.99161e-05)
(0.000155862 0.00090474 -0.000200339)
(5.4794e-05 0.000399191 -0.000209195)
(-3.6759e-05 -7.0466e-05 -0.000113078)
(-0.000115443 -0.000435591 4.82431e-05)
(-0.00018477 -0.000689933 0.000247033)
(-0.000250048 -0.00085843 0.000477851)
(-0.000313189 -0.000974327 0.000747466)
(-0.000374244 -0.00106797 0.00106069)
(-0.000434667 -0.00116088 0.00140133)
(-0.000502117 -0.00126216 0.00170956)
(-0.00058318 -0.00136875 0.00185337)
(-0.000661101 -0.0014631 0.00173486)
(-0.000698094 -0.00153295 0.00143644)
(-0.000726693 -0.00157482 0.00106321)
(-0.000748947 -0.00156612 0.000678342)
(-0.00075464 -0.00147739 0.000316364)
(-0.00073049 -0.00127686 -6.25222e-06)
(-0.000672029 -0.000939542 -0.00027873)
(-0.000586194 -0.000469545 -0.000479037)
(-0.000249839 -4.55091e-05 -0.000340949)
(-0.000157023 0.000398154 -0.000257679)
(-7.84063e-05 0.000730321 -8.55253e-05)
(5.51478e-07 0.000954424 0.000149899)
(8.89389e-05 0.00109231 0.000433555)
(0.000187362 0.00117488 0.000747988)
(0.000291062 0.00123237 0.00106751)
(0.000394384 0.00128818 0.00135503)
(0.000494377 0.00135682 0.00156172)
(0.000580163 0.00144311 0.00163204)
(0.00063259 0.00154597 0.00154755)
(0.000631161 0.00165249 0.00135057)
(0.00058785 0.00173858 0.00109504)
(0.000512186 0.00177953 0.000823502)
(0.000408981 0.0017466 0.000565286)
(0.000282854 0.00161003 0.00033959)
(0.000144183 0.00134761 0.000161941)
(9.21595e-06 0.000952949 5.83608e-05)
(-0.000100333 0.000492153 6.57105e-05)
(-0.000174783 6.81026e-05 0.000170557)
(-0.000222929 -0.000253731 0.000322359)
(-0.000258919 -0.000475218 0.000495951)
(-0.000294375 -0.000616366 0.000683982)
(-0.000335858 -0.000705275 0.000883381)
(-0.000386994 -0.000769249 0.00108752)
(-0.000451049 -0.000829471 0.00127978)
(-0.000532145 -0.000899337 0.00142827)
(-0.000625702 -0.000983197 0.00148301)
(-0.000712349 -0.00108535 0.00141104)
(-0.000764726 -0.00120004 0.00123016)
(-0.00078371 -0.00130251 0.000977782)
(-0.000768274 -0.00136324 0.000690042)
(-0.000714297 -0.00134657 0.000395806)
(-0.000620953 -0.00121586 0.000117359)
(-0.000498452 -0.000945229 -0.000124011)
(-0.000366738 -0.000530901 -0.000294327)
(-1.34166e-05 -0.000160738 -9.27328e-05)
(6.46149e-05 0.000228786 2.02114e-05)
(0.000109641 0.000521794 0.000205925)
(0.000142748 0.000713649 0.000429353)
(0.000178726 0.000821546 0.000664738)
(0.000227036 0.00087275 0.000885822)
(0.000293076 0.000897482 0.00106347)
(0.000379205 0.000923475 0.00117279)
(0.000483276 0.000973025 0.00121213)
(0.000596947 0.00106184 0.00122695)
(0.000678242 0.00118806 0.00122588)
(0.000702615 0.00133646 0.00117475)
(0.000663388 0.00147965 0.0010613)
(0.000564173 0.00158511 0.000901005)
(0.000414752 0.00161681 0.000720551)
(0.000231216 0.00153987 0.000547706)
(3.82982e-05 0.00133085 0.000409993)
(-0.000130459 0.000993584 0.000338429)
(-0.000245308 0.000591703 0.000358729)
(-0.000300852 0.000220725 0.00045565)
(-0.000316995 -6.15708e-05 0.000590165)
(-0.000318211 -0.000249568 0.000736827)
(-0.000322454 -0.000359842 0.000881356)
(-0.000341768 -0.000417387 0.00100956)
(-0.000383842 -0.000448213 0.0011034)
(-0.000453284 -0.000475575 0.00114582)
(-0.000549392 -0.000519969 0.00113715)
(-0.000669226 -0.000601161 0.00111882)
(-0.000771036 -0.000723886 0.00109415)
(-0.000831068 -0.00087829 0.00102451)
(-0.000836118 -0.001038 0.000889533)
(-0.000779825 -0.00116632 0.000697537)
(-0.000663986 -0.00121909 0.000470899)
(-0.000501114 -0.00115296 0.000238561)
(-0.000315869 -0.000940138 3.6227e-05)
(-0.000142716 -0.000585978 -8.94866e-05)
(-0.000594729 -3.22562e-05 -0.000422149)
(-0.000472316 0.00050163 -0.000414831)
(-0.000338542 0.000930713 -0.000273463)
(-0.000188823 0.00124409 -8.05351e-06)
(-2.28964e-05 0.00146443 0.000369578)
(0.000151508 0.00162497 0.000841644)
(0.000321356 0.001757 0.00137596)
(0.000473051 0.00188367 0.00191485)
(0.000598755 0.00201791 0.00236356)
(0.00070175 0.0021583 0.00257729)
(0.00076187 0.00227986 0.00245774)
(0.000729911 0.0023611 0.00209935)
(0.000664114 0.00239811 0.00164918)
(0.000584708 0.00236721 0.00119747)
(0.000498599 0.00224425 0.000794994)
(0.000403605 0.00200657 0.00046679)
(0.000296737 0.0016398 0.000226452)
(0.000179509 0.00115556 8.82377e-05)
(6.09095e-05 0.000616055 6.24333e-05)
(-4.88758e-05 0.000109142 0.000140487)
(-0.000146781 -0.000300921 0.000295335)
(-0.000236379 -0.000602698 0.000504078)
(-0.000322192 -0.000816506 0.00075875)
(-0.000405537 -0.000973582 0.00106034)
(-0.000486073 -0.00110445 0.00140668)
(-0.000564768 -0.00123306 0.00177676)
(-0.000646312 -0.0013744 0.0021132)
(-0.000742447 -0.00152841 0.00230326)
(-0.000844797 -0.00166991 0.00224098)
(-0.000893515 -0.00177273 0.00194509)
(-0.000917218 -0.00183213 0.00153014)
(-0.000924429 -0.00182292 0.00108015)
(-0.000912944 -0.00171559 0.000647047)
(-0.000874249 -0.00148254 0.000260721)
(-0.000803992 -0.00110663 -6.04653e-05)
(-0.000707251 -0.000600446 -0.000296654)
(-0.000394734 -0.000124651 -0.000187875)
(-0.00027322 0.000357037 -0.000121338)
(-0.000159037 0.00073486 5.56739e-05)
(-4.0904e-05 0.00100665 0.000318238)
(8.69705e-05 0.00119319 0.000647683)
(0.000222568 0.00132398 0.00102104)
(0.000358949 0.00142804 0.00140558)
(0.000488498 0.0015279 0.0017566)
(0.000606872 0.00163709 0.00201865)
(0.000707734 0.00175714 0.00213184)
(0.000771129 0.00188521 0.00206962)
(0.000771795 0.00200882 0.00186419)
(0.000722183 0.00210043 0.00157417)
(0.000635557 0.00213434 0.00125399)
(0.000519856 0.00208247 0.000944865)
(0.000381124 0.00191743 0.000675729)
(0.000228874 0.00162038 0.000469225)
(7.76129e-05 0.00119372 0.000352476)
(-5.39948e-05 0.000703048 0.000348304)
(-0.000156252 0.000244647 0.000441674)
(-0.000235154 -0.000118654 0.000593666)
(-0.000303186 -0.00038327 0.00077935)
(-0.000370326 -0.000568015 0.000988616)
(-0.000441274 -0.000700351 0.00121504)
(-0.0005173 -0.0008074 0.00144823)
(-0.000599368 -0.00091023 0.00166794)
(-0.000690724 -0.00102153 0.00184041)
(-0.00079276 -0.00114211 0.00191807)
(-0.000889281 -0.00127276 0.00186304)
(-0.000949705 -0.00140719 0.00167625)
(-0.000971 -0.00151845 0.00139297)
(-0.000953956 -0.00157582 0.00105645)
(-0.000897003 -0.00154422 0.000705098)
(-0.000800372 -0.00138905 0.000370863)
(-0.000672588 -0.0010871 8.40058e-05)
(-0.000530672 -0.000641782 -0.000116685)
(-0.000180452 -0.00022374 5.9784e-05)
(-6.74191e-05 0.000199913 0.000173315)
(2.06489e-05 0.000529836 0.00037735)
(0.000101812 0.000760461 0.000634624)
(0.000186804 0.000910371 0.000915574)
(0.00027989 0.00100682 0.00118998)
(0.000381122 0.00107802 0.00142432)
(0.000489024 0.00114776 0.00158729)
(0.000600074 0.00123358 0.0016656)
(0.000716683 0.00134928 0.00168863)
(0.000798224 0.00149454 0.00168302)
(0.0008235 0.00165389 0.00162382)
(0.000785663 0.0017992 0.00149185)
(0.000687454 0.00189912 0.00130316)
(0.000537557 0.00191872 0.00108859)
(0.000350572 0.00182361 0.000882501)
(0.000149304 0.00159074 0.000719657)
(-3.54016e-05 0.00122686 0.000634591)
(-0.000175511 0.000796038 0.000648944)
(-0.000264341 0.000392318 0.000745899)
(-0.00031877 7.37939e-05 0.000888069)
(-0.000360803 -0.00015245 0.00104921)
(-0.000405792 -0.000303551 0.00121321)
(-0.000462076 -0.00040475 0.00136452)
(-0.000532802 -0.000481072 0.00148417)
(-0.000618823 -0.000552526 0.00155246)
(-0.000718174 -0.000634012 0.00156005)
(-0.000838607 -0.00074113 0.00153127)
(-0.000941387 -0.000881946 0.00149334)
(-0.00100602 -0.00104732 0.00141277)
(-0.00101879 -0.00121024 0.00125638)
(-0.000971604 -0.00133492 0.0010303)
(-0.0008639 -0.00137797 0.000759219)
(-0.000705582 -0.00129594 0.000478516)
(-0.000518402 -0.00106047 0.000233328)
(-0.000333569 -0.000679164 7.82328e-05)
(-0.000704366 -0.000163766 -0.000110069)
(-0.000569342 0.00037528 -0.000143729)
(-0.000413864 0.000829662 -3.56922e-05)
(-0.000236539 0.00118431 0.000215336)
(-4.10123e-05 0.0014555 0.000599218)
(0.000163393 0.0016714 0.00109374)
(0.000363589 0.00186006 0.00166053)
(0.000545732 0.00204307 0.0022381)
(0.000699003 0.00223289 0.00273413)
(0.000822281 0.00242546 0.0030225)
(0.00089492 0.00258822 0.00299045)
(0.000867767 0.00269083 0.002666)
(0.000790394 0.00273369 0.00220831)
(0.000688389 0.00269423 0.00172796)
(0.000576907 0.00255044 0.00129181)
(0.000460572 0.00228682 0.00093626)
(0.000338853 0.00190018 0.00067845)
(0.00021181 0.00141175 0.000525562)
(8.32162e-05 0.000878358 0.000475694)
(-4.19071e-05 0.000371466 0.000519657)
(-0.000161668 -5.54774e-05 0.000642782)
(-0.000277766 -0.000388515 0.000830794)
(-0.000391959 -0.000642257 0.00107633)
(-0.000503516 -0.000843678 0.00137609)
(-0.000610241 -0.00102121 0.00172256)
(-0.000711027 -0.00119849 0.00209274)
(-0.000807765 -0.00139102 0.00243594)
(-0.000908194 -0.00159834 0.00266525)
(-0.00100875 -0.00179009 0.0026738)
(-0.00106819 -0.00192753 0.00241921)
(-0.00108528 -0.00200033 0.00200837)
(-0.00107617 -0.00198921 0.00153826)
(-0.00104696 -0.00186863 0.0010741)
(-0.000996005 -0.00161825 0.000656855)
(-0.000920347 -0.00123077 0.000309945)
(-0.000821641 -0.000725874 4.88907e-05)
(-0.000553874 -0.000225516 0.000112392)
(-0.000409526 0.000262439 0.000146878)
(-0.000262456 0.000663345 0.00030136)
(-0.000105312 0.000970533 0.000557726)
(6.34918e-05 0.00120248 0.000897687)
(0.000238435 0.00138564 0.00129569)
(0.000409753 0.00154523 0.00171491)
(0.000567502 0.00169985 0.00210641)
(0.000705132 0.00185897 0.00241208)
(0.000817434 0.00202047 0.00257288)
(0.000885716 0.00217669 0.0025524)
(0.000889351 0.00231332 0.00236571)
(0.000836819 0.00240493 0.00207262)
(0.000743581 0.00242811 0.00173605)
(0.000620643 0.00235852 0.00140616)
(0.000475914 0.00217414 0.00111919)
(0.000317823 0.00186203 0.000901587)
(0.000157875 0.00143243 0.000776318)
(1.03566e-05 0.00094525 0.000753664)
(-0.000116845 0.000483145 0.000818998)
(-0.000227793 0.000101541 0.000945797)
(-0.000332123 -0.000192449 0.00111511)
(-0.000436711 -0.000415531 0.00131726)
(-0.000543051 -0.000592896 0.00154383)
(-0.000649008 -0.000749173 0.00178171)
(-0.000752353 -0.000902662 0.00200887)
(-0.000854006 -0.00106265 0.00219283)
(-0.000956885 -0.0012275 0.00229266)
(-0.00105223 -0.00139108 0.00226701)
(-0.00111674 -0.00154239 0.00209911)
(-0.00113896 -0.00165799 0.00181794)
(-0.00112071 -0.001709 0.00146903)
(-0.00106341 -0.00166435 0.00109656)
(-0.000968978 -0.00149503 0.000738913)
(-0.000843916 -0.0011832 0.000431068)
(-0.00070069 -0.000738434 0.00021077)
(-0.000378268 -0.000293698 0.000343466)
(-0.000234044 0.000137875 0.000437988)
(-0.000104488 0.000486345 0.000631864)
(2.49092e-05 0.000745501 0.000891429)
(0.000160525 0.000934414 0.00118782)
(0.000300923 0.00107878 0.00148988)
(0.000440492 0.00120243 0.00176161)
(0.00057375 0.00132291 0.00196675)
(0.000696305 0.00145108 0.00208198)
(0.000812256 0.00159564 0.00211978)
(0.000893366 0.00175949 0.00211938)
(0.000921203 0.00192681 0.00206538)
(0.00088839 0.00206927 0.00193382)
(0.000797377 0.00215883 0.00174007)
(0.000655524 0.00216528 0.00151691)
(0.000474795 0.0020583 0.00130209)
(0.000274283 0.0018172 0.0011328)
(8.08334e-05 0.00145039 0.00104136)
(-8.00432e-05 0.00101769 0.0010433)
(-0.000200552 0.00060567 0.00112236)
(-0.00029425 0.000269646 0.00124738)
(-0.000380292 1.68809e-05 0.00139685)
(-0.00047055 -0.000170286 0.00155642)
(-0.000568557 -0.000316116 0.00171084)
(-0.000672383 -0.000442477 0.00184083)
(-0.000778895 -0.000564162 0.00192481)
(-0.000885813 -0.000688962 0.00194661)
(-0.000998151 -0.000824506 0.00191525)
(-0.00109782 -0.000982949 0.00187117)
(-0.00116619 -0.00115577 0.00178977)
(-0.00118722 -0.00131659 0.00163209)
(-0.00115234 -0.00143241 0.0013998)
(-0.00105921 -0.00146423 0.00111636)
(-0.000914549 -0.0013726 0.000818994)
(-0.00073554 -0.00113123 0.000555881)
(-0.00054834 -0.000749139 0.000382543)
(-0.00081722 -0.000316949 0.000337356)
(-0.000674593 0.000199908 0.000258316)
(-0.000500317 0.000656745 0.00031632)
(-0.00029587 0.00103775 0.000524868)
(-6.93982e-05 0.00135361 0.000879322)
(0.000166688 0.00162659 0.00135746)
(0.000397588 0.00187958 0.00191955)
(0.000607956 0.00212958 0.00250595)
(0.000783984 0.00238442 0.00303307)
(0.000918334 0.00263471 0.00339184)
(0.000993662 0.0028414 0.00345425)
(0.0009794 0.00296612 0.00319339)
(0.000896059 0.00301164 0.0027677)
(0.000777351 0.00296394 0.00229831)
(0.000646451 0.00280608 0.00186192)
(0.000515117 0.00253096 0.00150281)
(0.000385905 0.00214591 0.00123978)
(0.000256573 0.00167878 0.00107392)
(0.00012356 0.00117811 0.000995505)
(-1.51259e-05 0.000697234 0.00099573)
(-0.000159205 0.000276088 0.00106982)
(-0.000307407 -7.22281e-05 0.00121317)
(-0.00045713 -0.000357767 0.00142193)
(-0.00060377 -0.00060261 0.0016913)
(-0.000741461 -0.00083125 0.00201106)
(-0.000865105 -0.00106409 0.00235934)
(-0.000972464 -0.00131324 0.00269515)
(-0.00106625 -0.00157586 0.00295137)
(-0.00115202 -0.00182028 0.00302373)
(-0.0012177 -0.00199854 0.00284148)
(-0.00122743 -0.00208584 0.00247644)
(-0.00120483 -0.00207563 0.00202791)
(-0.00116183 -0.00195023 0.00157052)
(-0.00110307 -0.00169824 0.00115286)
(-0.00102746 -0.00132177 0.000800908)
(-0.000933036 -0.000844737 0.000525921)
(-0.000715786 -0.000337486 0.00053723)
(-0.000555543 0.000133546 0.000530811)
(-0.000380999 0.000538089 0.000643002)
(-0.000188275 0.000867714 0.00086592)
(1.99055e-05 0.00113842 0.00118516)
(0.000233961 0.00137296 0.00157572)
(0.000440553 0.0015915 0.00200012)
(0.000626584 0.00180675 0.00240922)
(0.000782545 0.00202208 0.00274613)
(0.000902842 0.00223086 0.00295319)
(0.000974146 0.00241836 0.00298332)
(0.000983248 0.00256744 0.00283555)
(0.000930879 0.00265827 0.00256743)
(0.000834515 0.00267164 0.00224514)
(0.000708339 0.0025892 0.00192309)
(0.000562319 0.00239594 0.00164143)
(0.000404041 0.00208578 0.00142722)
(0.000241571 0.00167429 0.00129687)
(8.38645e-05 0.00121316 0.0012513)
(-6.43731e-05 0.000769478 0.00127782)
(-0.000206115 0.000389178 0.00136151)
(-0.000347867 7.99442e-05 0.00149232)
(-0.000492659 -0.000173153 0.00166371)
(-0.000637836 -0.00039256 0.00186714)
(-0.000776909 -0.000599145 0.00208849)
(-0.000903362 -0.000806715 0.00230616)
(-0.00101458 -0.00101964 0.00249101)
(-0.00111353 -0.00123294 0.00260779)
(-0.00120148 -0.00143239 0.00261474)
(-0.00126548 -0.00160226 0.00248471)
(-0.00128635 -0.00172384 0.00223462)
(-0.00126677 -0.00177142 0.00190681)
(-0.00121076 -0.0017201 0.00154698)
(-0.00112174 -0.00154816 0.00119627)
(-0.00100432 -0.00124425 0.000890222)
(-0.000866205 -0.000822176 0.000661665)
(-0.000583472 -0.000364373 0.000742072)
(-0.000415822 5.5847e-05 0.000803409)
(-0.000251471 0.000407022 0.000964694)
(-7.91959e-05 0.000683574 0.00120028)
(0.00010342 0.000904755 0.00148504)
(0.000289697 0.00109412 0.00178916)
(0.000468583 0.00127034 0.00207628)
(0.000630183 0.0014439 0.00230758)
(0.000768517 0.00161803 0.00245304)
(0.000884977 0.00179482 0.00251211)
(0.000967524 0.00197861 0.0025235)
(0.000998752 0.00215364 0.00248299)
(0.000972164 0.00229339 0.00236849)
(0.000890302 0.00237347 0.00219174)
(0.000759551 0.00236988 0.00198389)
(0.000589253 0.0022584 0.00178251)
(0.000394353 0.00202196 0.0016229)
(0.000197322 0.0016692 0.00153125)
(2.09008e-05 0.00125342 0.0015165)
(-0.000126494 0.000851461 0.00156479)
(-0.000255672 0.000514205 0.00165428)
(-0.000383351 0.000247378 0.00177183)
(-0.00051801 3.2373e-05 0.00190716)
(-0.000658412 -0.000153734 0.00204648)
(-0.000797499 -0.000328899 0.00217102)
(-0.000927606 -0.000501953 0.00225878)
(-0.00104485 -0.000673081 0.00229049)
(-0.00115018 -0.000841473 0.00226531)
(-0.00124748 -0.00101932 0.00221929)
(-0.00131601 -0.00119928 0.00214319)
(-0.00134167 -0.0013585 0.00200198)
(-0.00131706 -0.00146714 0.00178908)
(-0.00123889 -0.00149164 0.00152323)
(-0.0011108 -0.00139826 0.00123931)
(-0.00094513 -0.00116429 0.000982657)
(-0.000762544 -0.000799514 0.000803484)
(-0.000930123 -0.000476451 0.000884289)
(-0.000780928 5.01281e-07 0.000762184)
(-0.000589069 0.000442564 0.000763325)
(-0.000359092 0.000836423 0.000912127)
(-0.000103297 0.0011887 0.00121174)
(0.000162332 0.00151564 0.00164381)
(0.000420075 0.00183363 0.0021716)
(0.00065177 0.0021529 0.00274109)
(0.000840945 0.00247421 0.0032789)