/*--------------------------------*- C++ -*----------------------------------*\
| =========                 |                                                 |
| \\      /  F ield         | OpenFOAM: The Open Source CFD Toolbox           |
|  \\    /   O peration     | Version:  2312                                  |
|   \\  /    A nd           | Website:  www.openfoam.com                      |
|    \\/     M anipulation  |                                                 |
\*---------------------------------------------------------------------------*/
FoamFile
{
    version     2.0;
    format      ascii;
    arch        "LSB;label=32;scalar=64";
    class       pointVectorField;
    location    "0.6";
    object      pointD;
}
// * * * * * * * * * * * * * * * * * * * * * * * * * * * * * * * * * * * * * //

dimensions      [0 1 0 0 0 0 0];

internalField   nonuniform List<vector> 
2164
(
(0 0 0)
(0 0 0)
(0 0 0)
(0 0 0)
(0 0 0)
(0 0 0)
(0 0 0)
(0 0 0)
(0 0 0)
(0 0 0)
(0 0 0)
(0 0 0)
(0 0 0)
(0 0 0)
(0 0 0)
(0 0 0)
(0 0 0)
(0 0 0)
(0 0 0)
(0 0 0)
(0 0 0)
(0 0 0)
(0 0 0)
(0 0 0)
(0 0 0)
(0 0 0)
(0 0 0)
(0 0 0)
(0 0 0)
(0 0 0)
(0 0 0)
(0 0 0)
(0 0 0)
(0 0 0)
(0 0 0)
(0 0 0)
(0.00087066 -0.000246557 8.94179e-05)
(0.000730374 -0.000365426 -0.000164792)
(0.00058695 -0.000452823 -0.000318778)
(0.000466546 -0.000476421 -0.000387285)
(0.000379074 -0.000454015 -0.000399039)
(0.000326142 -0.000408578 -0.000374821)
(0.000302802 -0.000351103 -0.000329247)
(0.000296804 -0.000282673 -0.000273466)
(0.00029076 -0.000201117 -0.000214695)
(0.000265763 -0.000104799 -0.000154912)
(0.000204376 6.64866e-06 -8.99586e-05)
(9.25033e-05 0.000131689 -9.52134e-06)
(-7.85652e-05 0.000262683 0.000100683)
(-0.000306637 0.000377128 0.000250774)
(-0.000567465 0.000433375 0.000427364)
(-0.000806475 0.0003924 0.000567525)
(-0.000952639 0.000275641 0.00056563)
(-0.000964481 0.000197681 0.000377876)
(-0.00087066 0.000246557 8.94179e-05)
(-0.000730374 0.000365426 -0.000164792)
(-0.00058695 0.000452823 -0.000318778)
(-0.000466546 0.000476421 -0.000387285)
(-0.000379074 0.000454015 -0.000399039)
(-0.000326142 0.000408578 -0.000374821)
(-0.000302802 0.000351103 -0.000329247)
(-0.000296804 0.000282673 -0.000273466)
(-0.00029076 0.000201117 -0.000214695)
(-0.000265763 0.000104799 -0.000154912)
(-0.000204376 -6.64865e-06 -8.99586e-05)
(-9.25033e-05 -0.000131689 -9.52134e-06)
(7.85652e-05 -0.000262683 0.000100683)
(0.000306637 -0.000377128 0.000250774)
(0.000567465 -0.000433375 0.000427364)
(0.000806475 -0.0003924 0.000567525)
(0.000952639 -0.000275641 0.00056563)
(0.000964481 -0.000197681 0.000377876)
(0.000802977 -0.000364935 0.000113873)
(0.000755372 -0.000424745 -4.06457e-05)
(0.000686493 -0.0004369 -0.000151239)
(0.000607088 -0.00039903 -0.000222549)
(0.00052673 -0.000334318 -0.000262321)
(0.000454629 -0.000262948 -0.000274977)
(0.000394908 -0.000192836 -0.00026494)
(0.000343898 -0.000123518 -0.000237421)
(0.000291824 -5.23516e-05 -0.000196824)
(0.000226587 2.19829e-05 -0.000145293)
(0.000137518 9.88636e-05 -8.22393e-05)
(1.80684e-05 0.000176292 -4.76535e-06)
(-0.000132665 0.000250271 9.06617e-05)
(-0.000308429 0.00031175 0.000203663)
(-0.000492884 0.00034508 0.000320348)
(-0.000658029 0.000338208 0.000402108)
(-0.000771096 0.000309482 0.000394055)
(-0.000815243 0.000310561 0.000281254)
(-0.000802977 0.000364935 0.000113873)
(-0.000755372 0.000424745 -4.06457e-05)
(-0.000686493 0.0004369 -0.000151239)
(-0.000607088 0.00039903 -0.000222549)
(-0.00052673 0.000334318 -0.000262321)
(-0.000454629 0.000262948 -0.000274977)
(-0.000394908 0.000192836 -0.00026494)
(-0.000343898 0.000123518 -0.000237421)
(-0.000291824 5.23517e-05 -0.000196824)
(-0.000226587 -2.19829e-05 -0.000145293)
(-0.000137518 -9.88636e-05 -8.22393e-05)
(-1.80684e-05 -0.000176292 -4.76535e-06)
(0.000132665 -0.000250271 9.06617e-05)
(0.000308429 -0.00031175 0.000203663)
(0.000492884 -0.00034508 0.000320348)
(0.000658029 -0.000338208 0.000402108)
(0.000771096 -0.000309482 0.000394055)
(0.000815243 -0.000310561 0.000281254)
(0 0 0)
(0 0 0)
(0 0 0)
(0 0 0)
(0 0 0)
(0 0 0)
(0 0 0)
(0 0 0)
(0 0 0)
(0 0 0)
(0 0 0)
(0 0 0)
(0 0 0)
(0 0 0)
(0 0 0)
(0 0 0)
(0 0 0)
(0 0 0)
(0 0 0)
(0 0 0)
(0 0 0)
(0 0 0)
(0 0 0)
(0 0 0)
(0 0 0)
(0 0 0)
(0 0 0)
(0 0 0)
(0 0 0)
(0 0 0)
(0 0 0)
(0 0 0)
(0 0 0)
(0 0 0)
(0 0 0)
(0 0 0)
(0.000699371 -0.000471848 0.000123359)
(0.000739402 -0.00048413 5.88217e-05)
(0.000747166 -0.000431528 -1.11843e-05)
(0.000716819 -0.000338117 -8.43768e-05)
(0.000654952 -0.000232173 -0.000149552)
(0.00057495 -0.000132119 -0.000195649)
(0.000487631 -4.47923e-05 -0.000217108)
(0.00039713 2.9578e-05 -0.000213225)
(0.000301863 9.23232e-05 -0.000185688)
(0.000197893 0.000143664 -0.000137087)
(8.26478e-05 0.000182458 -7.08926e-05)
(-4.23238e-05 0.000207846 7.80354e-06)
(-0.000170754 0.000221602 9.15775e-05)
(-0.00029369 0.000229584 0.000170238)
(-0.000402986 0.000241368 0.000230364)
(-0.00049462 0.000268916 0.000256325)
(-0.000570854 0.000325488 0.000238551)
(-0.000639321 0.000405067 0.000186578)
(-0.000699371 0.000471848 0.000123359)
(-0.000739402 0.00048413 5.88217e-05)
(-0.000747166 0.000431528 -1.11843e-05)
(-0.000716819 0.000338117 -8.43768e-05)
(-0.000654952 0.000232173 -0.000149552)
(-0.00057495 0.000132119 -0.000195649)
(-0.000487631 4.47923e-05 -0.000217108)
(-0.00039713 -2.95779e-05 -0.000213225)
(-0.000301863 -9.23232e-05 -0.000185688)
(-0.000197893 -0.000143664 -0.000137087)
(-8.26478e-05 -0.000182458 -7.08926e-05)
(4.23238e-05 -0.000207846 7.80353e-06)
(0.000170754 -0.000221602 9.15775e-05)
(0.00029369 -0.000229584 0.000170238)
(0.000402986 -0.000241368 0.000230364)
(0.00049462 -0.000268916 0.000256325)
(0.000570854 -0.000325488 0.000238551)
(0.000639321 -0.000405067 0.000186578)
(0 0 0)
(0 0 0)
(0 0 0)
(0 0 0)
(0 0 0)
(0 0 0)
(0 0 0)
(0 0 0)
(0 0 0)
(0 0 0)
(0 0 0)
(0 0 0)
(0 0 0)
(0 0 0)
(0 0 0)
(0 0 0)
(0 0 0)
(0 0 0)
(0 0 0)
(0 0 0)
(0 0 0)
(0 0 0)
(0 0 0)
(0 0 0)
(0 0 0)
(0 0 0)
(0 0 0)
(0 0 0)
(0 0 0)
(0 0 0)
(0 0 0)
(0 0 0)
(0 0 0)
(0 0 0)
(0 0 0)
(0 0 0)
(0.00056274 -0.000536276 0.000116155)
(0.000675277 -0.000522825 0.000122688)
(0.000754678 -0.000428692 9.09602e-05)
(0.00077928 -0.000294523 2.29861e-05)
(0.000748818 -0.000153459 -5.79416e-05)
(0.000675578 -2.46748e-05 -0.000128341)
(0.000573529 8.30405e-05 -0.000173318)
(0.000453238 0.000166051 -0.000186245)
(0.000321681 0.000222444 -0.000166169)
(0.000184375 0.000250647 -0.000116459)
(4.80032e-05 0.000249912 -4.50649e-05)
(-7.7898e-05 0.000222843 3.49157e-05)
(-0.000181873 0.000179552 0.000106293)
(-0.000255156 0.000141017 0.000152008)
(-0.000298447 0.000136968 0.000162252)
(-0.000326763 0.000193924 0.000142143)
(-0.000368492 0.000315006 0.000114634)
(-0.000449661 0.000453759 0.000104105)
(-0.00056274 0.000536276 0.000116155)
(-0.000675277 0.000522825 0.000122688)
(-0.000754678 0.000428692 9.09602e-05)
(-0.00077928 0.000294523 2.29861e-05)
(-0.000748818 0.000153459 -5.79416e-05)
(-0.000675578 2.46748e-05 -0.000128341)
(-0.000573529 -8.30405e-05 -0.000173318)
(-0.000453238 -0.000166051 -0.000186245)
(-0.000321681 -0.000222444 -0.000166169)
(-0.000184375 -0.000250647 -0.000116459)
(-4.80032e-05 -0.000249912 -4.50649e-05)
(7.7898e-05 -0.000222843 3.49157e-05)
(0.000181873 -0.000179552 0.000106293)
(0.000255156 -0.000141017 0.000152008)
(0.000298447 -0.000136968 0.000162252)
(0.000326763 -0.000193924 0.000142143)
(0.000368492 -0.000315006 0.000114634)
(0.000449661 -0.000453759 0.000104105)
(0 0 0)
(0 0 0)
(0 0 0)
(0 0 0)
(0 0 0)
(0 0 0)
(0 0 0)
(0 0 0)
(0 0 0)
(0 0 0)
(0 0 0)
(0 0 0)
(0 0 0)
(0 0 0)
(0 0 0)
(0 0 0)
(0 0 0)
(0 0 0)
(0 0 0)
(0 0 0)
(0 0 0)
(0 0 0)
(0 0 0)
(0 0 0)
(0 0 0)
(0 0 0)
(0 0 0)
(0 0 0)
(0 0 0)
(0 0 0)
(0 0 0)
(0 0 0)
(0 0 0)
(0 0 0)
(0 0 0)
(0 0 0)
(0.00162834 -0.00074668 0.000294941)
(0.00143569 -0.000882831 -0.00023282)
(0.0012097 -0.000933796 -0.000600477)
(0.00100024 -0.000888662 -0.000809344)
(0.000827587 -0.000787057 -0.000895034)
(0.00070097 -0.000667523 -0.000892977)
(0.000619663 -0.000545609 -0.000833212)
(0.000569344 -0.000419455 -0.000739355)
(0.000524123 -0.000281507 -0.000626234)
(0.000452789 -0.000125696 -0.000497468)
(0.000325571 5.05788e-05 -0.00034435)
(0.000119574 0.000246151 -0.000147401)
(-0.000176847 0.000452193 0.000116664)
(-0.00055735 0.000641797 0.000457771)
(-0.000984958 0.000763541 0.000840653)
(-0.0013824 0.000768156 0.0011473)
(-0.00164867 0.000683927 0.00118727)
(-0.0017217 0.000647404 0.000854518)
(-0.00162834 0.00074668 0.000294941)
(-0.00143569 0.000882831 -0.00023282)
(-0.0012097 0.000933796 -0.000600477)
(-0.00100024 0.000888662 -0.000809344)
(-0.000827587 0.000787057 -0.000895034)
(-0.00070097 0.000667523 -0.000892977)
(-0.000619663 0.000545609 -0.000833212)
(-0.000569344 0.000419455 -0.000739355)
(-0.000524123 0.000281507 -0.000626234)
(-0.000452789 0.000125696 -0.000497468)
(-0.000325571 -5.05788e-05 -0.00034435)
(-0.000119574 -0.000246151 -0.000147401)
(0.000176847 -0.000452193 0.000116664)
(0.00055735 -0.000641797 0.000457771)
(0.000984958 -0.000763541 0.000840653)
(0.0013824 -0.000768156 0.0011473)
(0.00164867 -0.000683927 0.00118727)
(0.0017217 -0.000647404 0.000854518)
(0.00151614 -0.000838899 0.000360883)
(0.00144957 -0.000909758 8.57785e-06)
(0.00133391 -0.000886417 -0.000270594)
(0.0011917 -0.000782274 -0.000465032)
(0.0010414 -0.000638465 -0.000581452)
(0.000900062 -0.000488682 -0.000629886)
(0.000776082 -0.00034614 -0.000622744)
(0.000664814 -0.000210327 -0.000572543)
(0.000550983 -7.67737e-05 -0.000488446)
(0.000414756 5.71773e-05 -0.000374022)
(0.000238467 0.000191135 -0.000227019)
(1.19725e-05 0.000322871 -4.14627e-05)
(-0.000264351 0.000448497 0.000187253)
(-0.000577893 0.000558909 0.000452523)
(-0.00090127 0.000637196 0.000720635)
(-0.00119218 0.000670842 0.000914783)
(-0.00140324 0.000683801 0.000927358)
(-0.0015084 0.000736465 0.000712931)
(-0.00151614 0.000838899 0.000360883)
(-0.00144957 0.000909758 8.57785e-06)
(-0.00133391 0.000886417 -0.000270594)
(-0.0011917 0.000782274 -0.000465032)
(-0.0010414 0.000638465 -0.000581452)
(-0.000900062 0.000488682 -0.000629886)
(-0.000776082 0.00034614 -0.000622744)
(-0.000664814 0.000210327 -0.000572543)
(-0.000550983 7.67738e-05 -0.000488446)
(-0.000414756 -5.71773e-05 -0.000374022)
(-0.000238467 -0.000191135 -0.000227019)
(-1.19725e-05 -0.000322871 -4.14627e-05)
(0.000264351 -0.000448497 0.000187253)
(0.000577893 -0.000558909 0.000452523)
(0.00090127 -0.000637196 0.000720635)
(0.00119218 -0.000670842 0.000914783)
(0.00140324 -0.000683801 0.000927358)
(0.0015084 -0.000736465 0.000712931)
(0.00134072 -0.000931357 0.000400076)
(0.00140425 -0.000950164 0.00021901)
(0.00140649 -0.000862047 2.97175e-05)
(0.00134253 -0.000703001 -0.000148049)
(0.00122752 -0.000516702 -0.000292663)
(0.00108367 -0.000333191 -0.000388652)
(0.000926516 -0.000165219 -0.000430541)
(0.00076059 -1.56865e-05 -0.000419539)
(0.00058192 0.000115137 -0.000359151)
(0.000383446 0.000225835 -0.000253155)
(0.000160944 0.000313565 -0.000106327)
(-8.23352e-05 0.00037665 7.30261e-05)
(-0.000334302 0.000418507 0.000270097)
(-0.000577183 0.000450183 0.000461742)
(-0.000793718 0.000489297 0.000616594)
(-0.00097363 0.000555233 0.000698126)
(-0.00111708 0.000666443 0.000676039)
(-0.00123807 0.000813884 0.000561338)
(-0.00134072 0.000931357 0.000400076)
(-0.00140425 0.000950164 0.00021901)
(-0.00140649 0.000862047 2.97175e-05)
(-0.00134253 0.000703001 -0.000148049)
(-0.00122752 0.000516702 -0.000292663)
(-0.00108367 0.000333191 -0.000388652)
(-0.000926516 0.000165219 -0.000430541)
(-0.00076059 1.56865e-05 -0.000419539)
(-0.00058192 -0.000115137 -0.000359151)
(-0.000383446 -0.000225835 -0.000253155)
(-0.000160944 -0.000313565 -0.000106327)
(8.23352e-05 -0.00037665 7.30261e-05)
(0.000334302 -0.000418507 0.000270097)
(0.000577183 -0.000450183 0.000461742)
(0.000793718 -0.000489297 0.000616594)
(0.00097363 -0.000555233 0.000698126)
(0.00111708 -0.000666443 0.000676039)
(0.00123807 -0.000813884 0.000561338)
(0.0011147 -0.000981531 0.000404675)
(0.00129297 -0.000974474 0.000374256)
(0.00140765 -0.000845348 0.000277269)
(0.00142854 -0.000645821 0.000128562)
(0.00136275 -0.000423185 -3.02129e-05)
(0.00123208 -0.000206826 -0.00016131)
(0.00105623 -1.19475e-05 -0.00024182)
(0.000847878 0.000152931 -0.000261534)
(0.000614715 0.00028142 -0.000218477)
(0.000363421 0.000367812 -0.000117169)
(0.000103896 0.000408075 3.0097e-05)
(-0.000147805 0.000403701 0.000200985)
(-0.000370356 0.000368282 0.000363292)
(-0.000544311 0.000333229 0.000481595)
(-0.00066364 0.000343914 0.000531283)
(-0.000743768 0.000438133 0.000513275)
(-0.000819541 0.000623601 0.00045808)
(-0.00093906 0.000843216 0.000415528)
(-0.0011147 0.000981531 0.000404675)
(-0.00129297 0.000974474 0.000374256)
(-0.00140765 0.000845348 0.000277269)
(-0.00142854 0.000645821 0.000128562)
(-0.00136275 0.000423185 -3.02129e-05)
(-0.00123208 0.000206826 -0.00016131)
(-0.00105623 1.19476e-05 -0.00024182)
(-0.000847878 -0.000152931 -0.000261534)
(-0.000614715 -0.00028142 -0.000218477)
(-0.000363421 -0.000367812 -0.000117169)
(-0.000103896 -0.000408075 3.0097e-05)
(0.000147805 -0.000403701 0.000200985)
(0.000370356 -0.000368282 0.000363292)
(0.000544311 -0.000333229 0.000481594)
(0.00066364 -0.000343914 0.000531283)
(0.000743768 -0.000438133 0.000513275)
(0.000819541 -0.000623601 0.00045808)
(0.00093906 -0.000843216 0.000415528)
(0.00223059 -0.00145813 0.000672711)
(0.00201119 -0.00151358 -0.000137282)
(0.00172983 -0.00147138 -0.000771062)
(0.00145397 -0.00134134 -0.0011829)
(0.00121561 -0.001163 -0.00139748)
(0.00102803 -0.000973929 -0.00146325)
(0.000891393 -0.000789195 -0.00142598)
(0.000790777 -0.000605376 -0.00131984)
(0.000696946 -0.000411995 -0.00116458)
(0.00057263 -0.000199911 -0.000963497)
(0.000381505 3.52996e-05 -0.00070315)
(9.66967e-05 0.000292844 -0.000357671)
(-0.000292755 0.000564191 9.80734e-05)
(-0.000775394 0.000825561 0.000662326)
(-0.00130762 0.00103582 0.0012689)
(-0.00180723 0.00116452 0.00175448)
(-0.00216411 0.00124912 0.00187502)
(-0.0023028 0.00134938 0.0014601)
(-0.00223059 0.00145813 0.000672711)
(-0.00201119 0.00151358 -0.000137282)
(-0.00172983 0.00147138 -0.000771062)
(-0.00145397 0.00134134 -0.0011829)
(-0.00121561 0.001163 -0.00139748)
(-0.00102803 0.000973929 -0.00146325)
(-0.000891393 0.000789195 -0.00142598)
(-0.000790777 0.000605376 -0.00131984)
(-0.000696946 0.000411995 -0.00116458)
(-0.00057263 0.000199911 -0.000963497)
(-0.000381505 -3.52996e-05 -0.00070315)
(-9.66967e-05 -0.000292844 -0.000357671)
(0.000292755 -0.000564191 9.80734e-05)
(0.000775394 -0.000825561 0.000662326)
(0.00130762 -0.00103582 0.0012689)
(0.00180723 -0.00116452 0.00175448)
(0.00216411 -0.00124912 0.00187502)
(0.0023028 -0.00134938 0.0014601)
(0.00208911 -0.0013991 0.000755834)
(0.00200902 -0.00142762 0.000184035)
(0.0018547 -0.00134616 -0.000304066)
(0.00166247 -0.0011803 -0.000661373)
(0.00145959 -0.000972269 -0.000886235)
(0.00126582 -0.000757121 -0.000995721)
(0.00108937 -0.000550012 -0.00101166)
(0.0009244 -0.000351769 -0.000953174)
(0.000753292 -0.000158137 -0.000832561)
(0.000552776 3.39631e-05 -0.00065334)
(0.000301871 0.000224446 -0.000411029)
(-1.10165e-05 0.000411087 -9.77885e-05)
(-0.000383726 0.000590404 0.000287877)
(-0.00079844 0.00075572 0.000725954)
(-0.00122067 0.00089702 0.00115762)
(-0.00160216 0.00101358 0.00147629)
(-0.00189181 0.00113383 0.00154494)
(-0.00205643 0.00127833 0.00127583)
(-0.00208911 0.0013991 0.000755834)
(-0.00200902 0.00142762 0.000184035)
(-0.0018547 0.00134616 -0.000304066)
(-0.00166247 0.0011803 -0.000661373)
(-0.00145959 0.000972269 -0.000886235)
(-0.00126582 0.000757121 -0.000995721)
(-0.00108937 0.000550012 -0.00101166)
(-0.0009244 0.000351769 -0.000953174)
(-0.000753292 0.000158137 -0.000832561)
(-0.000552776 -3.39631e-05 -0.00065334)
(-0.000301871 -0.000224446 -0.000411029)
(1.10165e-05 -0.000411087 -9.77885e-05)
(0.000383726 -0.000590404 0.000287877)
(0.00079844 -0.00075572 0.000725954)
(0.00122067 -0.00089702 0.00115762)
(0.00160216 -0.00101358 0.00147629)
(0.00189181 -0.00113383 0.00154494)
(0.00205643 -0.00127833 0.00127583)
(0.00187757 -0.00135185 0.000803996)
(0.00193998 -0.00136635 0.000473531)
(0.0019209 -0.00125456 0.000137715)
(0.00182354 -0.00105609 -0.000160041)
(0.00166881 -0.000817559 -0.000391502)
(0.00148066 -0.000573045 -0.000541475)
(0.00127388 -0.00033943 -0.000607101)
(0.00105145 -0.000123395 -0.000592033)
(0.000807973 7.17854e-05 -0.000501088)
(0.000535314 0.000242703 -0.000338307)
(0.000228821 0.00038544 -0.00010877)
(-0.000107515 0.000498028 0.000176538)
(-0.000458958 0.000584556 0.000494622)
(-0.000802669 0.00065832 0.000806997)
(-0.00111442 0.000740846 0.00106318)
(-0.00137707 0.000855123 0.00121217)
(-0.00158707 0.00101693 0.00121605)
(-0.00175327 0.00121014 0.00106973)
(-0.00187757 0.00135185 0.000803996)
(-0.00193998 0.00136635 0.000473531)
(-0.0019209 0.00125456 0.000137715)
(-0.00182354 0.00105609 -0.000160041)
(-0.00166881 0.000817559 -0.000391502)
(-0.00148066 0.000573045 -0.000541475)
(-0.00127388 0.00033943 -0.000607101)
(-0.00105145 0.000123395 -0.000592033)
(-0.000807973 -7.17854e-05 -0.000501088)
(-0.000535314 -0.000242703 -0.000338307)
(-0.000228821 -0.00038544 -0.00010877)
(0.000107515 -0.000498028 0.000176538)
(0.000458958 -0.000584556 0.000494622)
(0.000802669 -0.00065832 0.000806997)
(0.00111442 -0.000740846 0.00106318)
(0.00137707 -0.000855123 0.00121217)
(0.00158707 -0.00101693 0.00121605)
(0.00175327 -0.00121014 0.00106973)
(0.00161107 -0.00129601 0.000803158)
(0.00179793 -0.00130878 0.000696808)
(0.00190807 -0.00118077 0.000517648)
(0.00191155 -0.000958999 0.000292409)
(0.00181764 -0.000694176 6.88903e-05)
(0.00164925 -0.000421422 -0.000108877)
(0.00142554 -0.00016148 -0.000213819)
(0.00115799 7.179e-05 -0.000233858)
(0.000853821 0.000267033 -0.000166516)
(0.000520544 0.000414692 -1.70035e-05)
(0.000169866 0.000508541 0.000199556)
(-0.000179699 0.00054948 0.000453948)
(-0.000503385 0.000552087 0.00070146)
(-0.000776897 0.000550283 0.000890377)
(-0.000988179 0.000591354 0.000983467)
(-0.00114575 0.000710118 0.000980603)
(-0.00127636 0.000907042 0.0009206)
(-0.00142231 0.00113626 0.000860039)
(-0.00161107 0.00129601 0.000803158)
(-0.00179793 0.00130878 0.000696808)
(-0.00190807 0.00118077 0.000517648)
(-0.00191155 0.000958999 0.000292409)
(-0.00181764 0.000694176 6.88903e-05)
(-0.00164925 0.000421422 -0.000108877)
(-0.00142554 0.00016148 -0.000213819)
(-0.00115799 -7.17899e-05 -0.000233858)
(-0.000853821 -0.000267033 -0.000166516)
(-0.000520544 -0.000414692 -1.70035e-05)
(-0.000169866 -0.000508541 0.000199556)
(0.000179699 -0.00054948 0.000453948)
(0.000503385 -0.000552087 0.00070146)
(0.000776897 -0.000550283 0.000890377)
(0.000988179 -0.000591354 0.000983467)
(0.00114575 -0.000710118 0.000980603)
(0.00127636 -0.000907042 0.0009206)
(0.00142231 -0.00113626 0.000860039)
(0.00264492 -0.00213716 0.00112659)
(0.00242696 -0.0021367 0.000123081)
(0.00211654 -0.00202947 -0.000750415)
(0.00179955 -0.0018413 -0.00136972)
(0.00152098 -0.00160807 -0.0017323)
(0.00129361 -0.00136231 -0.00189225)
(0.0011136 -0.00111909 -0.00190631)
(0.000964778 -0.000876853 -0.0018148)
(0.000818444 -0.000626079 -0.00163903)
(0.000637883 -0.000357328 -0.00138116)
(0.000387169 -6.5438e-05 -0.00102563)
(4.06049e-05 0.000249416 -0.000546111)
(-0.000409863 0.00058028 7.64343e-05)
(-0.000948238 0.000910258 0.000820847)
(-0.00152784 0.00121679 0.00158796)
(-0.00206952 0.00149385 0.00218627)
(-0.00247597 0.00176456 0.00237353)
(-0.00267525 0.00200551 0.00198466)
(-0.00264492 0.00213716 0.00112659)
(-0.00242696 0.0021367 0.000123081)
(-0.00211654 0.00202947 -0.000750414)
(-0.00179955 0.0018413 -0.00136972)
(-0.00152098 0.00160807 -0.0017323)
(-0.00129361 0.00136231 -0.00189225)
(-0.0011136 0.00111909 -0.00190631)
(-0.000964778 0.000876853 -0.0018148)
(-0.000818444 0.000626079 -0.00163903)
(-0.000637883 0.000357328 -0.00138116)
(-0.000387169 6.5438e-05 -0.00102563)
(-4.06049e-05 -0.000249416 -0.000546111)
(0.000409863 -0.00058028 7.64343e-05)
(0.000948238 -0.000910258 0.000820847)
(0.00152784 -0.00121679 0.00158796)
(0.00206952 -0.00149385 0.00218627)
(0.00247597 -0.00176456 0.00237353)
(0.00267525 -0.00200551 0.00198466)
(0.00248722 -0.00190671 0.00116378)
(0.00239902 -0.00190944 0.000448591)
(0.00221676 -0.00179393 -0.000214488)
(0.00199051 -0.00159288 -0.000726468)
(0.00175532 -0.00134553 -0.00106473)
(0.00152925 -0.00108422 -0.00124762)
(0.0013166 -0.000825279 -0.00130287)
(0.00110972 -0.000572169 -0.00125324)
(0.000890925 -0.000322615 -0.00111219)
(0.00063743 -7.42505e-05 -0.000882923)
(0.000328674 0.000172948 -0.000560552)
(-4.64484e-05 0.000417096 -0.000138735)
(-0.000484559 0.000655315 0.000377151)
(-0.000965063 0.000883823 0.00095132)
(-0.00144984 0.00110105 0.00150159)
(-0.00188827 0.00131682 0.00190181)
(-0.00222936 0.00154902 0.00201307)
(-0.00243525 0.0017719 0.00174804)
(-0.00248722 0.00190671 0.00116378)
(-0.00239902 0.00190944 0.000448591)
(-0.00221676 0.00179393 -0.000214488)
(-0.00199051 0.00159288 -0.000726468)
(-0.00175532 0.00134553 -0.00106473)
(-0.00152925 0.00108422 -0.00124762)
(-0.0013166 0.000825279 -0.00130287)
(-0.00110972 0.000572169 -0.00125324)
(-0.000890925 0.000322615 -0.00111219)
(-0.00063743 7.42505e-05 -0.000882923)
(-0.000328674 -0.000172948 -0.000560552)
(4.64484e-05 -0.000417096 -0.000138735)
(0.000484559 -0.000655315 0.000377151)
(0.000965063 -0.000883823 0.00095132)
(0.00144984 -0.00110105 0.00150159)
(0.00188827 -0.00131682 0.00190181)
(0.00222936 -0.00154902 0.00201307)
(0.00243525 -0.0017719 0.00174804)
(0.00228537 -0.00170042 0.00117028)
(0.00231823 -0.00171177 0.000745197)
(0.00226549 -0.00159331 0.000299845)
(0.0021375 -0.00138079 -9.86604e-05)
(0.00195554 -0.0011175 -0.000408531)
(0.00174023 -0.000837051 -0.000611176)
(0.00150272 -0.000558475 -0.000704188)
(0.00124369 -0.00029144 -0.000692303)
(0.00095693 -4.18445e-05 -0.000581128)
(0.000634423 0.000185346 -0.000375359)
(0.000271603 0.000385822 -8.12798e-05)
(-0.000128101 0.00055768 0.000286747)
(-0.000550645 0.000704659 0.000698073)
(-0.000972254 0.000839057 0.00110163)
(-0.00136475 0.000981042 0.00143262)
(-0.00170377 0.00115135 0.0016298)
(-0.00197498 0.00135538 0.0016533)
(-0.00216991 0.00156193 0.00149312)
(-0.00228537 0.00170042 0.00117028)
(-0.00231823 0.00171177 0.000745197)
(-0.00226549 0.00159331 0.000299845)
(-0.0021375 0.00138079 -9.86604e-05)
(-0.00195554 0.0011175 -0.000408531)
(-0.00174023 0.000837051 -0.000611176)
(-0.00150272 0.000558475 -0.000704188)
(-0.00124369 0.00029144 -0.000692303)
(-0.00095693 4.18445e-05 -0.000581128)
(-0.000634423 -0.000185346 -0.000375359)
(-0.000271603 -0.000385822 -8.12798e-05)
(0.000128101 -0.00055768 0.000286746)
(0.000550645 -0.000704659 0.000698073)
(0.000972254 -0.000839057 0.00110163)
(0.00136475 -0.000981042 0.00143262)
(0.00170377 -0.00115135 0.0016298)
(0.00197498 -0.00135538 0.0016533)
(0.00216991 -0.00156193 0.00149312)
(0.00204704 -0.00151939 0.001141)
(0.00217912 -0.00153556 0.000982964)
(0.00224529 -0.00141781 0.000752765)
(0.00221749 -0.00119772 0.00047722)
(0.00209813 -0.000920034 0.000208893)
(0.00190479 -0.000620444 -1.74553e-06)
(0.0016531 -0.000322185 -0.000123208)
(0.00135201 -4.20159e-05 -0.00014184)
(0.00100732 0.000205829 -5.53862e-05)
(0.000626067 0.000409679 0.000129529)
(0.000219448 0.000562385 0.000395061)
(-0.00019561 0.000664384 0.000706972)
(-0.000596481 0.0007287 0.00101236)
(-0.000959119 0.000784792 0.00124969)
(-0.00126708 0.000871197 0.00137481)
(-0.00151811 0.00101238 0.00138618)
(-0.00172158 0.0011977 0.00132516)
(-0.00189164 0.0013866 0.00124246)
(-0.00204704 0.00151939 0.001141)
(-0.00217912 0.00153556 0.000982965)
(-0.00224529 0.00141781 0.000752765)
(-0.00221749 0.00119772 0.00047722)
(-0.00209813 0.000920034 0.000208893)
(-0.00190479 0.000620444 -1.74553e-06)
(-0.0016531 0.000322185 -0.000123208)
(-0.00135201 4.20159e-05 -0.00014184)
(-0.00100732 -0.000205829 -5.53862e-05)
(-0.000626067 -0.000409679 0.000129529)
(-0.000219448 -0.000562385 0.000395061)
(0.00019561 -0.000664384 0.000706972)
(0.000596481 -0.0007287 0.00101236)
(0.000959119 -0.000784792 0.00124969)
(0.00126708 -0.000871197 0.00137481)
(0.00151811 -0.00101238 0.00138618)
(0.00172158 -0.0011977 0.00132516)
(0.00189164 -0.0013866 0.00124246)
(0.00286112 -0.00260568 0.001502)
(0.00267002 -0.0026388 0.000448207)
(0.00235848 -0.00253747 -0.000565188)
(0.0020247 -0.00234143 -0.00134364)
(0.0017268 -0.00208767 -0.00184094)
(0.00147802 -0.00180718 -0.00209957)
(0.0012691 -0.00151794 -0.00217757)
(0.00108138 -0.00122355 -0.00211695)
(0.000888196 -0.000918628 -0.0019392)
(0.000657457 -0.000595763 -0.00164677)
(0.00035839 -0.000249821 -0.00122626)
(-3.02939e-05 0.000120403 -0.000656768)
(-0.000513199 0.000510677 6.98282e-05)
(-0.00107143 0.000910471 0.000913429)
(-0.00165766 0.00130897 0.00175219)
(-0.00219901 0.00170404 0.00238785)
(-0.00261628 0.00208756 0.0026113)
(-0.00284863 0.00241212 0.00230036)
(-0.00286112 0.00260568 0.001502)
(-0.00267002 0.0026388 0.000448207)
(-0.00235848 0.00253747 -0.000565188)
(-0.0020247 0.00234143 -0.00134364)
(-0.0017268 0.00208767 -0.00184094)
(-0.00147802 0.00180718 -0.00209957)
(-0.0012691 0.00151794 -0.00217757)
(-0.00108138 0.00122355 -0.00211695)
(-0.000888196 0.000918628 -0.0019392)
(-0.000657457 0.000595763 -0.00164677)
(-0.00035839 0.000249821 -0.00122626)
(3.02938e-05 -0.000120402 -0.000656768)
(0.000513199 -0.000510677 6.98282e-05)
(0.00107143 -0.000910471 0.000913429)
(0.00165766 -0.00130897 0.00175219)
(0.00219901 -0.00170404 0.00238785)
(0.00261628 -0.00208756 0.0026113)
(0.00284863 -0.00241212 0.00230036)
(0.00269956 -0.00225967 0.00147662)
(0.00261308 -0.00228485 0.000726061)
(0.0024194 -0.0021822 -3.0719e-05)
(0.0021765 -0.00198438 -0.000652752)
(0.00192592 -0.00172794 -0.00108689)
(0.001684 -0.00144348 -0.00134096)
(0.00145037 -0.0011496 -0.00144157)
(0.00121516 -0.000853648 -0.00141183)
(0.000961659 -0.000556608 -0.00126544)
(0.000669922 -0.000257767 -0.0010065)
(0.000322366 4.28647e-05 -0.000632546)
(-9.02506e-05 0.000344241 -0.000142124)
(-0.000563823 0.000644461 0.00045092)
(-0.00107694 0.000941488 0.00109795)
(-0.00159012 0.00123687 0.00170273)
(-0.00205207 0.00153754 0.00213351)
(-0.00241291 0.00183855 0.00226532)
(-0.00263544 0.0020992 0.00203508)
(-0.00269956 0.00225967 0.00147662)
(-0.00261308 0.00228485 0.000726061)
(-0.0024194 0.0021822 -3.07189e-05)
(-0.0021765 0.00198438 -0.000652752)
(-0.00192592 0.00172794 -0.00108689)
(-0.001684 0.00144348 -0.00134096)
(-0.00145037 0.0011496 -0.00144157)
(-0.00121516 0.000853648 -0.00141183)
(-0.000961659 0.000556608 -0.00126544)
(-0.000669922 0.000257767 -0.0010065)
(-0.000322366 -4.28646e-05 -0.000632546)
(9.02505e-05 -0.000344241 -0.000142124)
(0.000563823 -0.000644461 0.00045092)
(0.00107694 -0.000941488 0.00109795)
(0.00159012 -0.00123687 0.00170273)
(0.00205207 -0.00153754 0.00213351)
(0.00241291 -0.00183855 0.00226532)
(0.00263544 -0.0020992 0.00203508)
(0.00252444 -0.00194575 0.00142996)
(0.00252706 -0.00196113 0.000979238)
(0.00244471 -0.00185766 0.000483565)
(0.00229432 -0.00165742 2.34754e-05)
(0.00209648 -0.00139556 -0.000343629)
(0.00186747 -0.0011032 -0.000590223)
(0.00161436 -0.000800658 -0.000710239)
(0.0013357 -0.000500017 -0.000707413)
(0.00102506 -0.000209298 -0.000587701)
(0.000675207 6.54487e-05 -0.000357215)
(0.000282083 0.000319918 -2.48982e-05)
(-0.000151807 0.000552423 0.000390631)
(-0.000614479 0.000765599 0.000852573)
(-0.00108326 0.000968206 0.00130271)
(-0.0015276 0.00117424 0.00167034)
(-0.00191579 0.00139498 0.0018908)
(-0.00222104 0.00162256 0.0019229)
(-0.00242513 0.00182114 0.00176088)
(-0.00252444 0.00194575 0.00142996)
(-0.00252706 0.00196113 0.000979238)
(-0.00244471 0.00185766 0.000483565)
(-0.00229432 0.00165742 2.34754e-05)
(-0.00209648 0.00139556 -0.000343629)
(-0.00186747 0.0011032 -0.000590223)
(-0.00161436 0.000800658 -0.000710239)
(-0.0013357 0.000500017 -0.000707413)
(-0.00102506 0.000209298 -0.000587701)
(-0.000675207 -6.54487e-05 -0.000357215)
(-0.000282083 -0.000319918 -2.48982e-05)
(0.000151807 -0.000552423 0.000390631)
(0.000614479 -0.000765599 0.000852573)
(0.00108326 -0.000968206 0.00130271)
(0.0015276 -0.00117424 0.00167034)
(0.00191579 -0.00139498 0.0018908)
(0.00222104 -0.00162256 0.0019229)
(0.00242513 -0.00182114 0.00176088)
(0.00233716 -0.00167206 0.00136904)
(0.00240834 -0.00167056 0.0011901)
(0.00242211 -0.00156326 0.000943835)
(0.00236021 -0.00136008 0.00064928)
(0.00221953 -0.00109195 0.000359556)
(0.00201089 -0.000790117 0.000130676)
(0.0017458 -0.000477628 -7.57181e-07)
(0.00143078 -0.000172066 -1.88482e-05)
(0.00107011 0.000111443 7.84096e-05)
(0.000669577 0.000360742 0.000282647)
(0.000238386 0.000568612 0.000573334)
(-0.000209983 0.000734747 0.000912694)
(-0.000657107 0.000868507 0.00124382)
(-0.00108108 0.000990421 0.00150275)
(-0.00146148 0.00112481 0.00164545)
(-0.00178337 0.00128229 0.00166926)
(-0.00203648 0.00144752 0.00160735)
(-0.00221742 0.0015878 0.00150149)
(-0.00233716 0.00167206 0.00136904)
(-0.00240834 0.00167056 0.0011901)
(-0.00242211 0.00156326 0.000943835)
(-0.00236021 0.00136008 0.00064928)
(-0.00221953 0.00109195 0.000359556)
(-0.00201089 0.000790117 0.000130676)
(-0.0017458 0.000477628 -7.57174e-07)
(-0.00143078 0.000172066 -1.88482e-05)
(-0.00107011 -0.000111443 7.84096e-05)
(-0.000669577 -0.000360742 0.000282647)
(-0.000238386 -0.000568612 0.000573334)
(0.000209983 -0.000734747 0.000912694)
(0.000657107 -0.000868507 0.00124382)
(0.00108108 -0.000990421 0.00150275)
(0.00146148 -0.00112481 0.00164545)
(0.00178337 -0.00128229 0.00166926)
(0.00203648 -0.00144752 0.00160735)
(0.00221742 -0.0015878 0.00150149)
(0.00287913 -0.00287888 0.00169237)
(0.00272572 -0.00298268 0.000710464)
(0.00244352 -0.00293921 -0.000310602)
(0.00212081 -0.00278041 -0.00116083)
(0.00182205 -0.00254098 -0.00175036)
(0.00156544 -0.00225209 -0.00209138)
(0.00134016 -0.00193614 -0.00223016)
(0.00112582 -0.00160347 -0.00220533)
(0.000898215 -0.00125469 -0.00203803)
(0.000631264 -0.000885871 -0.00173315)
(0.000301172 -0.000492564 -0.00128309)
(-0.000107737 -7.22877e-05 -0.000676397)
(-0.000596577 0.000372944 8.22851e-05)
(-0.00114468 0.000835778 0.000939786)