/*--------------------------------*- C++ -*----------------------------------*\
| =========                 |                                                 |
| \\      /  F ield         | OpenFOAM: The Open Source CFD Toolbox           |
|  \\    /   O peration     | Version:  2312                                  |
|   \\  /    A nd           | Website:  www.openfoam.com                      |
|    \\/     M anipulation  |                                                 |
\*---------------------------------------------------------------------------*/
FoamFile
{
    version     2.0;
    format      ascii;
    arch        "LSB;label=32;scalar=64";
    class       pointVectorField;
    location    "0.6";
    object      pointD;
}
// * * * * * * * * * * * * * * * * * * * * * * * * * * * * * * * * * * * * * //

dimensions      [0 1 0 0 0 0 0];

internalField   nonuniform List<vector> 
2164
(
(0 0 0)
(0 0 0)
(0 0 0)
(0 0 0)
(0 0 0)
(0 0 0)
(0 0 0)
(0 0 0)
(0 0 0)
(0 0 0)
(0 0 0)
(0 0 0)
(0 0 0)
(0 0 0)
(0 0 0)
(0 0 0)
(0 0 0)
(0 0 0)
(0 0 0)
(0 0 0)
(0 0 0)
(0 0 0)
(0 0 0)
(0 0 0)
(0 0 0)
(0 0 0)
(0 0 0)
(0 0 0)
(0 0 0)
(0 0 0)
(0 0 0)
(0 0 0)
(0 0 0)
(0 0 0)
(0 0 0)
(0 0 0)
(-0.000273621 0.00020759 -0.000327961)
(-0.000214391 0.000370871 -0.000285241)
(-0.000144033 0.00047753 -0.00021443)
(-6.42999e-05 0.000543516 -0.000119972)
(2.29649e-05 0.000591953 2.50406e-06)
(0.000106671 0.000642943 0.000160614)
(0.00016572 0.000707684 0.000358975)
(0.000191679 0.000774156 0.000571051)
(0.00019267 0.000817797 0.00067237)
(0.000157828 0.000823234 0.000575818)
(0.000109721 0.000793903 0.000386915)
(9.08718e-05 0.000751242 0.000217199)
(9.80293e-05 0.000708601 8.15168e-05)
(0.000115814 0.000661182 -2.6035e-05)
(0.000134692 0.000595431 -0.000114198)
(0.000150961 0.00049397 -0.000190361)
(0.000157189 0.000343231 -0.000251894)
(0.000140083 0.000149714 -0.00027699)
(9.64454e-05 -4.93192e-05 -0.000248903)
(4.06438e-05 -0.000212657 -0.000186665)
(-1.15482e-05 -0.000327332 -0.000116725)
(-5.6937e-05 -0.000402921 -4.38377e-05)
(-9.86734e-05 -0.000456599 4.00969e-05)
(-0.000136139 -0.000507063 0.000150193)
(-0.000159663 -0.000569361 0.000304338)
(-0.000170523 -0.000636513 0.000494407)
(-0.000176718 -0.000684797 0.000607051)
(-0.000160198 -0.000696416 0.000545426)
(-0.000137402 -0.000674148 0.000390478)
(-0.000146396 -0.00063842 0.000239462)
(-0.000182869 -0.000600232 0.000109145)
(-0.000229433 -0.000553542 -1.75339e-06)
(-0.000272542 -0.000483437 -9.86467e-05)
(-0.000305666 -0.000371709 -0.000188265)
(-0.000322175 -0.000205771 -0.000270199)
(-0.000312381 1.1358e-06 -0.000324616)
(-8.95525e-05 0.000149264 -0.000210746)
(-5.88728e-05 0.000301767 -0.000158775)
(-2.8191e-05 0.00039819 -9.49606e-05)
(6.75726e-06 0.000452151 -1.7084e-05)
(4.7978e-05 0.000479839 7.52797e-05)
(9.14663e-05 0.00049764 0.0001817)
(0.000129027 0.000517174 0.000299218)
(0.000159438 0.00054074 0.000411381)
(0.000181014 0.000565957 0.000462743)
(0.000181289 0.000589454 0.000416578)
(0.00016479 0.000606827 0.00031797)
(0.000148498 0.000618607 0.000217402)
(0.000134726 0.000624546 0.000126946)
(0.000117735 0.000616515 4.83877e-05)
(9.38171e-05 0.000581123 -1.92086e-05)
(6.36587e-05 0.000504203 -7.84879e-05)
(2.86667e-05 0.00037078 -0.000132526)
(-7.37741e-06 0.000185555 -0.000155439)
(-3.77422e-05 -5.50946e-06 -0.000121866)
(-6.02915e-05 -0.000155283 -6.33862e-05)
(-7.5935e-05 -0.000254829 -7.82965e-06)
(-8.76711e-05 -0.000314818 4.86381e-05)
(-9.98264e-05 -0.000348058 0.000110221)
(-0.000114075 -0.00036894 0.000182401)
(-0.000129052 -0.000389129 0.000270741)
(-0.00014928 -0.000411966 0.00036802)
(-0.000174388 -0.000435555 0.000422241)
(-0.000188661 -0.000457904 0.000390446)
(-0.00019319 -0.00047725 0.000306277)
(-0.000201696 -0.000494243 0.000213118)
(-0.000213227 -0.000506428 0.000122782)
(-0.000218975 -0.000503303 3.87471e-05)
(-0.000212072 -0.00046898 -3.84668e-05)
(-0.000191626 -0.000387555 -0.000110968)
(-0.000160205 -0.000244736 -0.000182506)
(-0.00012368 -4.93928e-05 -0.000226372)
(0 0 0)
(0 0 0)
(0 0 0)
(0 0 0)
(0 0 0)
(0 0 0)
(0 0 0)
(0 0 0)
(0 0 0)
(0 0 0)
(0 0 0)
(0 0 0)
(0 0 0)
(0 0 0)
(0 0 0)
(0 0 0)
(0 0 0)
(0 0 0)
(0 0 0)
(0 0 0)
(0 0 0)
(0 0 0)
(0 0 0)
(0 0 0)
(0 0 0)
(0 0 0)
(0 0 0)
(0 0 0)
(0 0 0)
(0 0 0)
(0 0 0)
(0 0 0)
(0 0 0)
(0 0 0)
(0 0 0)
(0 0 0)
(7.78587e-05 8.41555e-05 -8.74979e-05)
(7.81184e-05 0.000225786 -3.61468e-05)
(6.74719e-05 0.000311973 1.84861e-05)
(5.71983e-05 0.000352441 7.82834e-05)
(5.36495e-05 0.000359508 0.000139941)
(6.01623e-05 0.000347878 0.000195849)
(7.96931e-05 0.000331303 0.00023593)
(0.000119253 0.000323178 0.000253394)
(0.000172891 0.000334701 0.000258043)
(0.000215994 0.000370116 0.000260116)
(0.000231929 0.000423342 0.000247107)
(0.000221315 0.00048195 0.000211976)
(0.000189858 0.000533547 0.000164549)
(0.000140163 0.000565052 0.000114383)
(7.44869e-05 0.000561472 6.81575e-05)
(-1.73815e-06 0.000508787 2.83063e-05)
(-7.65905e-05 0.000392996 -7.78101e-06)
(-0.000129803 0.000222134 -2.03969e-05)
(-0.000147399 4.49412e-05 9.30829e-06)
(-0.00013775 -9.05362e-05 5.38116e-05)
(-0.000117309 -0.000174351 9.30374e-05)
(-9.63723e-05 -0.00021656 0.000132215)
(-8.08806e-05 -0.000228403 0.000171403)
(-7.52196e-05 -0.000222036 0.00020651)
(-8.49678e-05 -0.000208171 0.000230718)
(-0.000119653 -0.000198526 0.000239063)
(-0.000174255 -0.000205445 0.000239656)
(-0.00022457 -0.000236931 0.000239262)
(-0.000255202 -0.000290222 0.000223985)
(-0.000264549 -0.00035362 0.000185968)
(-0.000252773 -0.000413309 0.000133677)
(-0.000218392 -0.000453164 7.58275e-05)
(-0.000161475 -0.000454809 1.86571e-05)
(-8.74022e-05 -0.000401983 -3.53024e-05)
(-9.47986e-06 -0.000281084 -8.74012e-05)
(5.07492e-05 -0.00010182 -0.000113153)
(0 0 0)
(0 0 0)
(0 0 0)
(0 0 0)
(0 0 0)
(0 0 0)
(0 0 0)
(0 0 0)
(0 0 0)
(0 0 0)
(0 0 0)
(0 0 0)
(0 0 0)
(0 0 0)
(0 0 0)
(0 0 0)
(0 0 0)
(0 0 0)
(0 0 0)
(0 0 0)
(0 0 0)
(0 0 0)
(0 0 0)
(0 0 0)
(0 0 0)
(0 0 0)
(0 0 0)
(0 0 0)
(0 0 0)
(0 0 0)
(0 0 0)
(0 0 0)
(0 0 0)
(0 0 0)
(0 0 0)
(0 0 0)
(0.000210741 1.27861e-05 3.67626e-05)
(0.000183854 0.000141191 7.71118e-05)
(0.000135334 0.000216618 0.000120307)
(8.39858e-05 0.000242746 0.000160376)
(4.16744e-05 0.00023111 0.000190226)
(1.90634e-05 0.00019707 0.000197572)
(2.70883e-05 0.000158315 0.000169762)
(7.90204e-05 0.000134157 0.00011268)
(0.000169589 0.00013869 8.18534e-05)
(0.000255796 0.000178445 0.000117486)
(0.000301234 0.000251752 0.000171017)
(0.000300171 0.000343722 0.000193792)
(0.000257392 0.000433339 0.000187931)
(0.000180877 0.000501012 0.000167168)
(7.89761e-05 0.000528235 0.000144048)
(-3.67509e-05 0.000498553 0.000126156)
(-0.000143288 0.000402719 0.00011749)
(-0.000208784 0.000256679 0.000122067)
(-0.000216987 0.000103455 0.000138767)
(-0.000182128 -1.50321e-05 0.000160197)
(-0.000131176 -8.28502e-05 0.00018186)
(-8.22507e-05 -0.000106361 0.000202725)
(-4.44374e-05 -9.7579e-05 0.000218285)
(-2.55863e-05 -6.8986e-05 0.000216653)
(-3.57036e-05 -3.36348e-05 0.000183156)
(-8.82967e-05 -8.31342e-06 0.000120655)
(-0.000177285 -9.44205e-06 8.11682e-05)
(-0.000262725 -4.75272e-05 0.000103313)
(-0.00031461 -0.000122454 0.000142273)
(-0.000326113 -0.000220119 0.000153039)
(-0.000295262 -0.000319253 0.00013708)
(-0.000225317 -0.00039729 0.000105777)
(-0.000123303 -0.000431998 6.97015e-05)
(-2.0727e-06 -0.000404598 3.61121e-05)
(0.000113864 -0.000305717 1.24653e-05)
(0.000191098 -0.000151257 1.12685e-05)
(0 0 0)
(0 0 0)
(0 0 0)
(0 0 0)
(0 0 0)
(0 0 0)
(0 0 0)
(0 0 0)
(0 0 0)
(0 0 0)
(0 0 0)
(0 0 0)
(0 0 0)
(0 0 0)
(0 0 0)
(0 0 0)
(0 0 0)
(0 0 0)
(0 0 0)
(0 0 0)
(0 0 0)
(0 0 0)
(0 0 0)
(0 0 0)
(0 0 0)
(0 0 0)
(0 0 0)
(0 0 0)
(0 0 0)
(0 0 0)
(0 0 0)
(0 0 0)
(0 0 0)
(0 0 0)
(0 0 0)
(0 0 0)
(-0.000408209 0.000371633 -0.000595901)
(-0.000325756 0.000692511 -0.000518541)
(-0.000228914 0.000902188 -0.000379463)
(-0.000114681 0.0010256 -0.000187781)
(1.45013e-05 0.0011016 6.12625e-05)
(0.000143033 0.00116464 0.000374502)
(0.000246002 0.00123647 0.000745459)
(0.000314112 0.00131313 0.00111714)
(0.000355388 0.00137452 0.00131684)
(0.000345523 0.00140366 0.00120349)
(0.000296088 0.00139867 0.00089397)
(0.000262245 0.00137443 0.000569936)
(0.000254098 0.00133745 0.000289083)
(0.000258001 0.0012756 5.82599e-05)
(0.00026052 0.00116579 -0.000130914)
(0.000253239 0.000978175 -0.000288374)
(0.000227431 0.000689 -0.00040813)
(0.000177049 0.000315687 -0.000456246)
(0.000108034 -6.81739e-05 -0.000408065)
(3.37545e-05 -0.000381753 -0.000293386)
(-3.50416e-05 -0.000596117 -0.000156245)
(-9.70546e-05 -0.00073002 -7.92924e-06)
(-0.00015526 -0.000815603 0.000163857)
(-0.000208304 -0.000884393 0.000381863)
(-0.000248893 -0.000960302 0.000663837)
(-0.000283747 -0.00104356 0.000982633)
(-0.000325663 -0.00111431 0.00119002)
(-0.000346811 -0.00115311 0.00113295)
(-0.00034678 -0.00115841 0.000883228)
(-0.000368166 -0.00114547 0.000594541)
(-0.000417172 -0.00111827 0.000323887)
(-0.000473919 -0.00106087 8.48123e-05)
(-0.000517197 -0.000946393 -0.000124793)
(-0.000534335 -0.000742974 -0.000312953)
(-0.000519813 -0.00042847 -0.000476746)
(-0.000475065 -3.00126e-05 -0.000583723)
(-0.000164655 0.00026157 -0.000399029)
(-0.000113383 0.000554336 -0.000302638)
(-6.35243e-05 0.000742328 -0.00016785)
(-4.87997e-06 0.000848019 1.01449e-07)
(6.62182e-05 0.000900494 0.000199729)
(0.000144053 0.000929357 0.000427069)
(0.000218038 0.000956851 0.000669287)
(0.000285344 0.000991961 0.000889365)
(0.000342989 0.00103505 0.00100186)
(0.000369301 0.00108349 0.000942169)
(0.000359589 0.00113068 0.000764231)
(0.000334902 0.00117087 0.000556812)
(0.000304141 0.00119584 0.000358158)
(0.000263325 0.0011884 0.000181017)
(0.000208204 0.00112425 2.78423e-05)
(0.000139753 0.000977513 -0.000103176)
(6.27637e-05 0.000723316 -0.000208636)
(-1.08707e-05 0.000376874 -0.000249004)
(-6.68688e-05 1.94764e-05 -0.000192965)
(-0.000103907 -0.000264724 -8.35429e-05)
(-0.00012863 -0.000453424 3.43682e-05)
(-0.00014865 -0.000566079 0.000157374)
(-0.000170686 -0.000627614 0.000291471)
(-0.00019763 -0.000664191 0.00044509)
(-0.00023011 -0.000696696 0.000621986)
(-0.000275185 -0.000734185 0.000802652)
(-0.000334239 -0.000776954 0.000912318)
(-0.000384121 -0.000824528 0.000877176)
(-0.000413647 -0.000875245 0.0007273)
(-0.000435827 -0.000924879 0.000535604)
(-0.000453093 -0.00096216 0.000337349)
(-0.000454605 -0.00096512 0.000147506)
(-0.000429836 -0.000904261 -2.84407e-05)
(-0.000377185 -0.00075017 -0.00019042)
(-0.000304417 -0.000478886 -0.000334818)
(-0.000228198 -0.000112327 -0.000418986)
(7.17082e-05 0.000142057 -0.000192987)
(8.97342e-05 0.000406858 -8.76167e-05)
(9.03309e-05 0.000574932 4.06141e-05)
(9.11539e-05 0.000662246 0.00018357)
(0.000102677 0.000690737 0.00033253)
(0.000130161 0.000686649 0.000472867)
(0.000176812 0.000674566 0.000585028)
(0.000248408 0.000675509 0.000652244)
(0.000335201 0.000705214 0.000680444)
(0.00040624 0.000770082 0.000677217)
(0.000436743 0.00086194 0.000629721)
(0.000422557 0.000961711 0.000538287)
(0.000370158 0.0010477 0.000421786)
(0.000284314 0.00109575 0.000298704)
(0.000170457 0.00107857 0.000182658)
(3.94884e-05 0.000971062 8.12791e-05)
(-8.8392e-05 0.00075175 1.19777e-06)
(-0.000183685 0.000439218 -2.34136e-05)
(-0.000226576 0.000115428 3.09161e-05)
(-0.000226515 -0.000138718 0.000124251)
(-0.000206385 -0.00030243 0.000220469)
(-0.000183497 -0.000391789 0.000317216)
(-0.000168974 -0.000427188 0.000412904)
(-0.000170857 -0.000431075 0.00050104)
(-0.000197068 -0.000423592 0.000570213)
(-0.000257694 -0.000423044 0.000609932)
(-0.000345062 -0.000446364 0.00062633)
(-0.000429575 -0.000505313 0.000619894)
(-0.000487374 -0.000597668 0.000571037)
(-0.000509848 -0.000706469 0.000475948)
(-0.000494703 -0.0008076 0.00034979)
(-0.000439262 -0.000871432 0.000209087)
(-0.000344532 -0.000864238 6.70764e-05)
(-0.000220876 -0.000756425 -6.71209e-05)
(-9.07191e-05 -0.00052684 -0.000182824)
(1.40536e-05 -0.000197848 -0.000236484)
(0.000275693 1.65175e-05 1.55154e-05)
(0.000264371 0.000251478 0.00011745)
(0.000220097 0.000400917 0.000235372)
(0.000167671 0.000470068 0.000350883)
(0.000125231 0.000476703 0.000447061)
(0.00010906 0.000445487 0.000501343)
(0.000133647 0.000404871 0.000492502)
(0.000212485 0.000384656 0.00042796)
(0.00033397 0.000407973 0.000387574)
(0.000449158 0.000483923 0.000427719)
(0.000513753 0.000606285 0.000487689)
(0.000510958 0.000752617 0.00050254)
(0.000441942 0.000891373 0.000467348)
(0.000317022 0.00099015 0.000400897)
(0.00015102 0.00101733 0.000325288)
(-3.45572e-05 0.00094607 0.000257914)
(-0.000204354 0.000763868 0.000214115)
(-0.000316137 0.000497616 0.000211941)
(-0.000349122 0.000219275 0.000254373)
(-0.000319372 -2.39062e-06 0.000321265)
(-0.000260792 -0.00014229 0.000393566)
(-0.000200034 -0.000208073 0.000462344)
(-0.000153818 -0.000217985 0.000517245)
(-0.000136006 -0.000192854 0.000539065)
(-0.000159834 -0.000154939 0.000506163)
(-0.000238569 -0.000130594 0.00042309)
(-0.000359298 -0.000146342 0.00036432)
(-0.000477255 -0.000217438 0.000380794)
(-0.000556112 -0.000341299 0.00041504)
(-0.000577256 -0.000497531 0.000407567)
(-0.000532632 -0.00065367 0.000351644)
(-0.000425057 -0.000771822 0.00026136)
(-0.000266706 -0.000813262 0.000155646)
(-8.02347e-05 -0.000746473 5.3025e-05)
(9.78585e-05 -0.000558565 -2.32079e-05)
(0.000224295 -0.000278132 -3.99082e-05)
(-0.000507187 0.000434395 -0.000741558)
(-0.000403798 0.00087358 -0.000652284)
(-0.000284037 0.00117485 -0.000461102)
(-0.000142601 0.0013624 -0.00017921)
(1.61981e-05 0.0014794 0.000193122)
(0.000175213 0.00156558 0.000652536)
(0.000311413 0.00164834 0.00117366)
(0.000413958 0.00173557 0.00167998)
(0.00048849 0.0018209 0.00198884)
(0.000516669 0.00188759 0.00191538)
(0.000484022 0.00192126 0.00154269)
(0.00043342 0.00192518 0.00109085)
(0.000399933 0.00189729 0.000665788)
(0.00037858 0.00181916 0.000301351)
(0.000356054 0.00166466 2.79517e-06)
(0.000319538 0.0014015 -0.000234049)
(0.000260233 0.00100673 -0.000400973)
(0.000178863 0.000507905 -0.000467716)
(8.78438e-05 -3.5061e-06 -0.000414968)
(-2.62576e-07 -0.000428443 -0.000272025)
(-8.03886e-05 -0.000727314 -8.42228e-05)
(-0.000154202 -0.00091967 0.000132159)
(-0.000223762 -0.0010437 0.000387095)
(-0.000287237 -0.00113639 0.000700554)
(-0.00034133 -0.00122565 0.00108067)
(-0.000392988 -0.00132219 0.00149037)
(-0.000456664 -0.00142045 0.00178417)
(-0.000520857 -0.00150167 0.00177446)
(-0.00055663 -0.00154981 0.00148434)
(-0.000583921 -0.001569 0.00108524)
(-0.00063054 -0.00155621 0.000677576)
(-0.000682049 -0.00148756 0.000301933)
(-0.000715483 -0.00133163 -2.88181e-05)
(-0.000713241 -0.0010534 -0.000315463)
(-0.000671033 -0.000631251 -0.000551827)
(-0.000597954 -0.000101844 -0.000706803)
(-0.000257337 0.000299286 -0.000495324)
(-0.000178909 0.000694849 -0.000373235)
(-0.000101297 0.000961749 -0.000177899)
(-1.24863e-05 0.00112369 7.72037e-05)
(9.03328e-05 0.0012144 0.000384771)
(0.000200025 0.00126907 0.000732252)
(0.000305312 0.0013155 0.00109309)
(0.000400953 0.00136931 0.001415)
(0.000483619 0.00143571 0.00159956)
(0.000535812 0.00151246 0.00155791)
(0.000539401 0.00159046 0.00133172)
(0.000507086 0.001657 0.00103224)
(0.000458777 0.00169509 0.000725475)
(0.000395841 0.00168108 0.000442509)
(0.00031526 0.00158569 0.000196844)
(0.000217272 0.00137901 -6.35289e-06)
(0.000108194 0.00103566 -0.000154823)
(3.53118e-06 0.000580539 -0.000208615)
(-7.91029e-05 0.000111808 -0.000143935)
(-0.000136805 -0.000269979 -2.78084e-06)
(-0.000178505 -0.000533394 0.000166428)
(-0.000214754 -0.000699198 0.000351512)
(-0.000252866 -0.000797741 0.000555693)
(-0.000295769 -0.000860867 0.000784928)
(-0.000345058 -0.000914357 0.00103665)
(-0.000406859 -0.000973216 0.0012839)
(-0.00048499 -0.00104186 0.00144725)
(-0.000565371 -0.00111958 0.00143193)
(-0.000621838 -0.00120285 0.00124571)
(-0.000653701 -0.00128206 0.000971223)
(-0.000671652 -0.00133735 0.00066663)
(-0.000667448 -0.00133881 0.000364209)
(-0.000629829 -0.00125028 8.13143e-05)
(-0.000555727 -0.00103695 -0.000173115)
(-0.000455187 -0.000673842 -0.000384378)
(-0.000349456 -0.000192665 -0.000505932)
(-5.52768e-06 0.000155395 -0.000241464)
(4.45447e-05 0.00050778 -9.43555e-05)
(7.68974e-05 0.000742459 0.000103358)
(0.00010991 0.000877733 0.000331365)
(0.000153965 0.000940126 0.000573314)
(0.000213093 0.000961533 0.000807066)
(0.000288101 0.000971819 0.00100429)
(0.000379746 0.000995062 0.00113719)
(0.000481028 0.00104823 0.00119954)
(0.000566904 0.00113838 0.00119423)
(0.000607305 0.00125783 0.00111461)
(0.00059238 0.00138414 0.000968407)
(0.000528434 0.00148876 0.000781309)
(0.000421909 0.00154069 0.000580695)
(0.000280539 0.00150563 0.000388872)
(0.000118184 0.00135295 0.000222539)
(-4.18551e-05 0.00106016 0.000101666)
(-0.000168616 0.000654705 6.65863e-05)
(-0.000241191 0.000234952 0.000135817)
(-0.000266628 -0.000103322 0.000266619)
(-0.000267709 -0.000332347 0.0004151)
(-0.000264212 -0.000469217 0.000568531)
(-0.000269246 -0.000538766 0.000721415)
(-0.000291302 -0.000569101 0.000864925)
(-0.000336828 -0.000585555 0.000984456)
(-0.000411289 -0.000608936 0.0010632)
(-0.000512086 -0.000656245 0.00109844)
(-0.000616374 -0.000739587 0.00108557)
(-0.00069306 -0.000859443 0.00100595)
(-0.000726859 -0.000997277 0.000856778)
(-0.000713812 -0.0011217 0.000655715)
(-0.000650656 -0.00119491 0.000426348)
(-0.000538745 -0.00117399 0.00019087)
(-0.000390428 -0.00102178 -3.01986e-05)
(-0.000231308 -0.000715266 -0.000209131)
(-9.54056e-05 -0.000286799 -0.000291372)
(0.000225905 5.50986e-06 1.70667e-05)
(0.000249124 0.000313748 0.000175751)
(0.000238498 0.00051891 0.000369924)
(0.000218243 0.00062829 0.000567772)
(0.000206618 0.000663588 0.000742138)
(0.000218885 0.000654552 0.000863124)
(0.000266775 0.000634104 0.000904285)
(0.00035646 0.000634189 0.000866778)
(0.000481679 0.000681501 0.000826588)
(0.000603601 0.00078624 0.000851225)
(0.000675275 0.000938794 0.000895147)
(0.000674559 0.00111463 0.000889808)
(0.000596892 0.00127862 0.000819907)
(0.000450807 0.00139138 0.000703617)
(0.000253926 0.00141281 0.000569535)
(3.33402e-05 0.00130968 0.000446446)
(-0.000171129 0.00106879 0.000364265)
(-0.000315906 0.000724619 0.000352974)
(-0.000379621 0.000364805 0.000417104)
(-0.000376985 7.15648e-05 0.000527133)
(-0.000341316 -0.000125159 0.000651354)
(-0.000301031 -0.000232954 0.000771238)
(-0.000275561 -0.000273164 0.000870763)
(-0.000279315 -0.000271555 0.000927935)
(-0.000322762 -0.000254703 0.000919562)
(-0.000410666 -0.000250155 0.00084448)
(-0.00053749 -0.0002875 0.000771682)
(-0.000667873 -0.000384401 0.000762106)
(-0.000759625 -0.0005371 0.000772159)
(-0.000790211 -0.000724462 0.000736336)
(-0.000746308 -0.000910352 0.000634714)
(-0.000627289 -0.00104845 0.000478742)
(-0.000446363 -0.0010889 0.000293649)
(-0.000230569 -0.000991226 0.000112028)
(-2.02658e-05 -0.000740839 -2.31363e-05)
(0.000139951 -0.000375965 -6.07865e-05)
(-0.000591731 0.000394266 -0.000705616)
(-0.000468473 0.000905747 -0.000633684)
(-0.000326735 0.00127895 -0.000424435)
(-0.00016282 0.00153002 -8.70746e-05)
(1.79055e-05 0.00169788 0.000370558)
(0.000200108 0.00182173 0.000931985)
(0.000364379 0.00193184 0.00155625)
(0.000497146 0.002046 0.00215781)
(0.00060315 0.00216941 0.00256208)
(0.000677434 0.00228316 0.00256745)
(0.000671042 0.0023578 0.00220231)
(0.000604315 0.00238866 0.00168222)
(0.000539595 0.00236888 0.00115504)
(0.000482759 0.00227349 0.000685414)
(0.000426916 0.00207729 0.00029926)
(0.000359983 0.00175449 3.39899e-06)
(0.000273769 0.00129343 -0.000194105)
(0.000170412 0.000730584 -0.000277121)
(6.23182e-05 0.000156843 -0.000238744)
(-3.90245e-05 -0.000332127 -0.000100532)
(-0.000130941 -0.000693007 0.000103365)
(-0.000216677 -0.000938955 0.000356103)
(-0.000298212 -0.00110573 0.000661803)
(-0.000374264 -0.0012307 0.00103209)
(-0.000443827 -0.00134442 0.00146555)
(-0.000510849 -0.00146705 0.00192191)
(-0.000590983 -0.00160585 0.00227327)
(-0.000693401 -0.0017411 0.00233499)
(-0.000764092 -0.00183815 0.00206888)
(-0.000793471 -0.00189014 0.00161738)
(-0.000825199 -0.00189096 0.00111713)
(-0.000855638 -0.00181114 0.000637538)
(-0.000868876 -0.00161981 0.000211174)
(-0.000848232 -0.00128795 -0.000150533)
(-0.000789069 -0.000803882 -0.000439301)
(-0.000699898 -0.000209928 -0.00063486)
(-0.000368685 0.000261555 -0.000437144)
(-0.00026052 0.000720027 -0.000317675)
(-0.000150069 0.00104863 -9.36361e-05)
(-2.75698e-05 0.00126621 0.00021765)
(0.000107841 0.00140541 0.000602067)
(0.000248368 0.00150139 0.00103755)
(0.000382698 0.00158347 0.00148624)
(0.000503205 0.00167119 0.00188694)
(0.000607902 0.00177228 0.00213884)
(0.000686377 0.00188214 0.00214154)
(0.00070486 0.00198819 0.00191276)
(0.000665226 0.00207373 0.00156328)
(0.000599234 0.00211643 0.00118121)
(0.000514801 0.00208904 0.000817259)
(0.000412631 0.00196231 0.000499739)
(0.000293331 0.00170883 0.000244014)
(0.000162937 0.00131098 6.82959e-05)
(3.59618e-05 0.000801517 2.99376e-06)
(-7.08701e-05 0.000278166 5.89382e-05)
(-0.000152988 -0.000160908 0.000201966)
(-0.000218478 -0.000480115 0.000391262)
(-0.000278176 -0.000695524 0.000610339)
(-0.000338878 -0.000837203 0.000857691)
(-0.000402778 -0.000937921 0.00113392)
(-0.000470856 -0.0010254 0.00143033)
(-0.000546913 -0.00111875 0.00171647)
(-0.000637797 -0.00122489 0.00191833)
(-0.00074094 -0.00133987 0.00193935)
(-0.000818919 -0.0014551 0.00175798)
(-0.000856316 -0.00155689 0.00144223)
(-0.000869633 -0.00162093 0.0010666)
(-0.000856212 -0.00161369 0.000680169)
(-0.000808279 -0.00149855 0.000314338)
(-0.000722788 -0.0012425 -1.03277e-05)
(-0.000608656 -0.000827009 -0.000270253)
(-0.000485087 -0.000289809 -0.000424105)
(-0.000135857 0.000121927 -0.0001649)
(-4.7928e-05 0.000527812 -2.98508e-06)
(2.68658e-05 0.000813243 0.000234585)
(0.000104061 0.000995554 0.000520359)
(0.000190757 0.00110271 0.00083165)
(0.000287439 0.00116711 0.00114)
(0.00039147 0.0012184 0.00140995)
(0.000499823 0.00127913 0.00160471)
(0.000611049 0.00136363 0.00170443)
(0.000705774 0.00147786 0.00170854)
(0.000750953 0.00161597 0.00161756)
(0.000735363 0.00175443 0.00144021)
(0.000665805 0.00186148 0.00120476)
(0.000550331 0.00190484 0.000947059)
(0.000397586 0.00184904 0.000698603)
(0.000221427 0.00166259 0.000485844)
(4.4129e-05 0.00132665 0.000338521)
(-0.000105649 0.00087444 0.000294387)
(-0.000207807 0.000405799 0.000363067)
(-0.000266511 1.68616e-05 0.000505133)
(-0.000301803 -0.000261157 0.000678224)
(-0.000332404 -0.000443174 0.000863924)
(-0.000370065 -0.00055526 0.00105308)
(-0.000420799 -0.000626844 0.00123445)
(-0.000487732 -0.000683954 0.00139092)
(-0.000572413 -0.00074603 0.00150093)
(-0.000679404 -0.000826181 0.00155147)
(-0.000793095 -0.000934301 0.00153785)
(-0.00087931 -0.00107339 0.00144661)
(-0.000920647 -0.00122496 0.00126814)
(-0.000912099 -0.00135458 0.00101709)
(-0.000850529 -0.00142265 0.000722789)
(-0.000737014 -0.00138443 0.000415997)
(-0.000582907 -0.00120076 0.000128687)
(-0.000412073 -0.000850962 -9.78002e-05)
(-0.000255885 -0.000372953 -0.00020618)
(8.93824e-05 -2.38222e-05 0.000112783)
(0.000155813 0.00032863 0.000303685)
(0.000194373 0.000573898 0.000547453)
(0.000225854 0.000721791 0.0008045)
(0.00026375 0.00079671 0.00104131)
(0.000317226 0.000829137 0.0012236)
(0.00039217 0.000849944 0.00132074)
(0.000489106 0.000886002 0.00132478)
(0.000611471 0.000961372 0.00129248)
(0.000730473 0.00108725 0.00129824)
(0.000800586 0.00125425 0.00132551)
(0.000802379 0.00143828 0.00130614)
(0.000727731 0.0016052 0.001213)
(0.000581875 0.00171526 0.0010623)
(0.000380719 0.00172606 0.000886831)
(0.000150799 0.00160151 0.00072463)
(-6.9487e-05 0.00132812 0.000616073)
(-0.000238566 0.000943312 0.000596483)
(-0.000334864 0.000539153 0.000669395)
(-0.000370613 0.000201785 0.000800834)
(-0.00037618 -3.70202e-05 0.000953512)
(-0.000377753 -0.000185321 0.00110415)
(-0.000392282 -0.000266145 0.00123385)
(-0.0004299 -0.000306506 0.00132026)
(-0.000495825 -0.000331819 0.00134006)
(-0.000588475 -0.000364081 0.00128487)
(-0.000713311 -0.000428195 0.00120168)
(-0.000844211 -0.000543343 0.00115989)
(-0.000937811 -0.000708606 0.00114689)
(-0.000975804 -0.00090395 0.0010919)
(-0.000942412 -0.00109401 0.000958832)
(-0.000832509 -0.00123176 0.000755446)
(-0.000655727 -0.00126394 0.000510659)
(-0.000437009 -0.00114569 0.000268295)
(-0.000214621 -0.000860938 8.65338e-05)
(-3.10222e-05 -0.000452107 2.76264e-05)
(-0.000674038 0.000272462 -0.00048322)
(-0.00053596 0.000814693 -0.000451508)
(-0.000373279 0.00123612 -0.000259507)
(-0.000186399 0.00154347 9.0323e-05)
(1.74871e-05 0.00176799 0.000585147)
(0.000224697 0.0019451 0.00119833)
(0.000418313 0.00210471 0.00187917)
(0.000582814 0.00226837 0.00253812)
(0.000719158 0.00244551 0.00301948)
(0.000825376 0.00261249 0.00313103)
(0.000836845 0.00272509 0.00283191)
(0.000759716 0.00277486 0.00229939)
(0.0006659 0.00275719 0.0017199)
(0.00057174 0.00264388 0.00118677)
(0.000480804 0.00241321 0.00074569)
(0.000386739 0.00205083 0.000414126)
(0.000282649 0.00156065 0.000197446)
(0.000168036 0.000985049 9.59557e-05)
(4.96852e-05 0.00040253 0.000104978)
(-6.49296e-05 -0.000107845 0.000211924)
(-0.000173704 -0.000505478 0.000397863)
(-0.000278514 -0.000795569 0.000650037)
(-0.000380129 -0.00100708 0.000967705)
(-0.000476981 -0.00117458 0.00135399)
(-0.00056789 -0.00132925 0.00180015)
(-0.000654258 -0.00149582 0.00226543)
(-0.000748292 -0.00168745 0.00264837)
(-0.000863345 -0.00188291 0.00279243)
(-0.000950856 -0.00203147 0.00259741)
(-0.000983405 -0.00211307 0.00214966)
(-0.000995111 -0.00212231 0.00161028)
(-0.00099739 -0.00203195 0.00107355)
(-0.00098582 -0.0018153 0.000590115)
(-0.000949511 -0.00145388 0.000183152)
(-0.000883045 -0.000949148 -0.000139113)
(-0.000789746 -0.000345143 -0.000368927)
(-0.000495414 0.000164169 -0.00021438)
(-0.00036081 0.000650539 -0.000122536)
(-0.000216992 0.00102109 9.50495e-05)
(-5.86075e-05 0.00128808 0.000423386)
(0.000112098 0.00148038 0.000844254)
(0.000286069 0.00163 0.00132866)
(0.000451352 0.00176417 0.00183132)
(0.000598116 0.00190182 0.00228583)
(0.000723792 0.00204965 0.00259686)
(0.000819857 0.00219865 0.00266425)
(0.000847474 0.00233033 0.00247212)
(0.000803459 0.00242684 0.00211354)
(0.000722965 0.00246653 0.00169532)
(0.000619909 0.00242224 0.0012857)
(0.000500342 0.00226828 0.000926566)
(0.000366896 0.00198404 0.000642259)
(0.000224514 0.00156304 0.000452111)
(8.40677e-05 0.00104274 0.000373623)
(-4.17451e-05 0.000509675 0.000406216)
(-0.000148833 4.86649e-05 0.000525112)
(-0.00024331 -0.000305219 0.000701987)
(-0.000333756 -0.000561989 0.000921843)
(-0.000424844 -0.0007484 0.00117976)
(-0.000516814 -0.000895148 0.00147119)
(-0.000608542 -0.00102912 0.00178262)
(-0.000701143 -0.00116963 0.00208225)
(-0.000801171 -0.00132376 0.00230835)
(-0.000910785 -0.00148337 0.00237551)
(-0.000997784 -0.00163108 0.00223103)
(-0.00103909 -0.00174919 0.00191485)
(-0.00104552 -0.00181467 0.00151078)
(-0.00102167 -0.0017956 0.00108099)
(-0.000965565 -0.00165931 0.000668653)
(-0.000875915 -0.0013792 0.000303979)
(-0.000758896 -0.000946103 1.44114e-05)
(-0.000628202 -0.000399819 -0.0001674)
(-0.000301511 5.03995e-05 5.44863e-05)
(-0.000176773 0.000480943 0.000203753)
(-5.73773e-05 0.000800903 0.000446315)
(6.79792e-05 0.00102507 0.00075432)
(0.000201751 0.00118094 0.00110229)
(0.000339805 0.00129824 0.00145783)
(0.000475646 0.00140257 0.00178035)
(0.000603506 0.00151165 0.00202598)
(0.000724106 0.0016348 0.0021636)
(0.000822771 0.00177597 0.00218974)
(0.000870021 0.00193002 0.00210861)
(0.000855359 0.00207292 0.00192568)
(0.000785075 0.00217328 0.00166974)
(0.000668608 0.00220173 0.00138359)
(0.000514882 0.00212641 0.00110632)
(0.000336213 0.00191886 0.000871494)
(0.000151694 0.00156586 0.000712258)
(-1.39718e-05 0.00110289 0.000658595)
(-0.00014261 0.000621759 0.000712016)
(-0.000236151 0.000210536 0.000839403)
(-0.000311208 -9.90436e-05 0.00100614)
(-0.000383631 -0.000319175 0.00119438)
(-0.000461791 -0.000475441 0.00139344)
(-0.000547612 -0.000595723 0.00159029)
(-0.000640097 -0.000703423 0.00176583)
(-0.000738112 -0.000813771 0.00189534)
(-0.000847293 -0.00093402 0.0019582)
(-0.000959673 -0.00107085 0.00195149)
(-0.00104866 -0.00122699 0.00186599)
(-0.00109563 -0.00138424 0.0016835)
(-0.00109296 -0.00150939 0.00141373)
(-0.00103811 -0.00156526 0.00108885)
(-0.000932099 -0.00151076 0.000745216)
(-0.000784027 -0.0013096 0.000422174)
(-0.000613412 -0.000945544 0.000167471)
(-0.00044638 -0.000457862 3.5602e-05)
(-0.000104251 -6.98305e-05 0.000328643)
(6.75792e-06 0.000303429 0.000522843)
(9.85222e-05 0.000575278 0.000782702)
(0.000187844 0.000757335 0.00106727)
(0.000282052 0.000875444 0.00134149)
(0.000382646 0.000957814 0.00156928)
(0.000489031 0.00102946 0.00171627)
(0.000598479 0.0011093 0.00176441)
(0.000718515 0.00121481 0.00174597)
(0.000830984 0.00135877 0.0017378)
(0.000898928 0.00153531 0.00175461)
(0.000905497 0.00171946 0.00173178)
(0.000841324 0.00187865 0.0016318)
(0.000708675 0.00197739 0.00146852)
(0.000519378 0.00197647 0.00127663)
(0.000295482 0.00184053 0.00109891)
(7.08132e-05 0.00155597 0.000979467)
(-0.000116429 0.00115923 0.000952626)
(-0.000244363 0.000739058 0.00101978)
(-0.000321643 0.000379765 0.00114744)
(-0.000374904 0.000113243 0.00130002)
(-0.000426996 -6.97317e-05 0.00145538)
(-0.000490119 -0.000193275 0.00159517)
(-0.000568251 -0.000283019 0.00169787)
(-0.000660886 -0.000359854 0.00174019)
(-0.000763885 -0.000437819 0.00170683)
(-0.000883811 -0.000531704 0.00161924)
(-0.00100601 -0.00066151 0.00154993)
(-0.00109877 -0.000833237 0.0015186)
(-0.00114501 -0.00102709 0.00145508)
(-0.00112776 -0.00120898 0.00131045)
(-0.00103839 -0.0013357 0.0010875)
(-0.00088127 -0.00135697 0.00081492)
(-0.00067576 -0.00122825 0.00054134)
(-0.000454734 -0.000932921 0.000331868)
(-0.0002563 -0.000512967 0.000252996)
(-0.000760854 9.47017e-05 -9.70761e-05)
(-0.000613058 0.000634515 -0.000118806)
(-0.000430489 0.00108126 2.74906e-05)
(-0.000218294 0.00143432 0.00034964)
(1.27566e-05 0.00171664 0.000834795)
(0.000248519 0.00195786 0.00145139)
(0.000472864 0.00218452 0.00214531)
(0.000669159 0.00241621 0.00283037)
(0.000830543 0.00265935 0.00337589)
(0.000947865 0.00288371 0.00360377)
(0.000969313 0.00303327 0.00340431)