/*--------------------------------*- C++ -*----------------------------------*\
| =========                 |                                                 |
| \\      /  F ield         | OpenFOAM: The Open Source CFD Toolbox           |
|  \\    /   O peration     | Version:  2312                                  |
|   \\  /    A nd           | Website:  www.openfoam.com                      |
|    \\/     M anipulation  |                                                 |
\*---------------------------------------------------------------------------*/
FoamFile
{
    version     2.0;
    format      ascii;
    arch        "LSB;label=32;scalar=64";
    class       volScalarField;
    location    "0.6";
    object      sigmaHyd;
}
// * * * * * * * * * * * * * * * * * * * * * * * * * * * * * * * * * * * * * //

dimensions      [1 -1 -2 0 0 0 0];

internalField   nonuniform List<scalar> 
1620
(
21542.9
21543
21543
21542.8
21542.8
21542.9
21542.9
21542.9
21543
21542.9
21543
21543
21542.8
21542.8
21542.9
21542.9
21542.9
21543
21542.9
21543
21543
21542.8
21542.8
21542.9
21542.9
21542.9
21543
21542.9
21543
21543
21542.8
21542.8
21542.9
21542.8
21542.9
21543
11688.9
11688.9
11688.8
11688.9
11688.8
11688.8
11688.9
11688.9
11688.8
11688.9
11688.9
11688.8
11688.9
11688.8
11688.8
11688.9
11688.9
11688.8
11688.9
11688.9
11688.8
11688.9
11688.8
11688.8
11688.9
11688.9
11688.8
11688.9
11688.9
11688.8
11688.9
11688.8
11688.8
11688.9
11688.9
11688.8
1257.96
1257.96
1257.82
1257.8
1257.91
1257.91
1257.94
1257.85
1257.92
1257.97
1257.96
1257.82
1257.8
1257.91
1257.91
1257.95
1257.85
1257.93
1257.97
1257.96
1257.82
1257.8
1257.91
1257.91
1257.94
1257.85
1257.92
1257.96
1257.96
1257.82
1257.8
1257.91
1257.91
1257.94
1257.85
1257.92
7179.51
7179.52
7179.64
7179.43
7179.46
7179.54
7179.41
7179.56
7179.52
7179.51
7179.52
7179.64
7179.43
7179.46
7179.54
7179.41
7179.56
7179.52
7179.51
7179.52
7179.64
7179.43
7179.46
7179.54
7179.41
7179.56
7179.52
7179.51
7179.52
7179.64
7179.43
7179.46
7179.54
7179.41
7179.56
7179.52
-2870.09
-2870.09
-2870.16
-2869.94
-2869.98
-2870.14
-2869.96
-2870.17
-2870.08
-2870.09
-2870.09
-2870.17
-2869.94
-2869.98
-2870.14
-2869.96
-2870.17
-2870.08
-2870.09
-2870.09
-2870.17
-2869.94
-2869.98
-2870.14
-2869.96
-2870.17
-2870.08
-2870.09
-2870.09
-2870.17
-2869.94
-2869.99
-2870.14
-2869.97
-2870.17
-2870.08
-16702.7
-16702.8
-16702.8
-16702.9
-16702.8
-16702.6
-16702.7
-16702.7
-16702.7
-16702.7
-16702.8
-16702.8
-16702.9
-16702.8
-16702.6
-16702.7
-16702.7
-16702.7
-16702.7
-16702.8
-16702.8
-16702.9
-16702.8
-16702.6
-16702.7
-16702.7
-16702.7
-16702.7
-16702.8
-16702.8
-16702.9
-16702.8
-16702.6
-16702.7
-16702.7
-16702.7
7852.63
7852.38
7852.61
7852.42
7852.57
7852.64
7852.37
7852.51
7852.38
7852.63
7852.38
7852.61
7852.42
7852.57
7852.64
7852.37
7852.51
7852.38
7852.63
7852.38
7852.61
7852.42
7852.57
7852.64
7852.37
7852.51
7852.38
7852.63
7852.38
7852.61
7852.42
7852.57
7852.64
7852.37
7852.51
7852.38
-2264.05
-2263.83
-2264.05
-2263.84
-2263.9
-2264.09
-2263.9
-2264.07
-2263.85
-2264.05
-2263.83
-2264.05
-2263.84
-2263.9
-2264.09
-2263.9
-2264.07
-2263.85
-2264.05
-2263.83
-2264.05
-2263.84
-2263.9
-2264.09
-2263.9
-2264.07
-2263.85
-2264.05
-2263.83
-2264.05
-2263.84
-2263.9
-2264.09
-2263.9
-2264.08
-2263.85
-19099.3
-19099.5
-19099.2
-19099.3
-19099.3
-19099.3
-19099.4
-19099.2
-19099.2
-19099.3
-19099.5
-19099.2
-19099.3
-19099.3
-19099.3
-19099.4
-19099.2
-19099.2
-19099.3
-19099.5
-19099.2
-19099.3
-19099.3
-19099.3
-19099.4
-19099.2
-19099.2
-19099.3
-19099.5
-19099.2
-19099.3
-19099.3
-19099.3
-19099.4
-19099.2
-19099.2
8166.29
8166.31
8166.24
8166.35
8166.34
8166.37
8166.37
8166.22
8166.31
8166.29
8166.31
8166.24
8166.35
8166.34
8166.37
8166.37
8166.22
8166.31
8166.29
8166.31
8166.24
8166.35
8166.34
8166.37
8166.37
8166.22
8166.31
8166.29
8166.31
8166.24
8166.35
8166.34
8166.37
8166.37
8166.22
8166.31
-2412.81
-2412.88
-2412.85
-2412.75
-2412.87
-2412.81
-2412.85
-2412.85
-2412.81
-2412.81
-2412.88
-2412.84
-2412.75
-2412.87
-2412.81
-2412.85
-2412.85
-2412.81
-2412.81
-2412.88
-2412.84
-2412.75
-2412.87
-2412.81
-2412.85
-2412.85
-2412.81
-2412.81
-2412.88
-2412.84
-2412.75
-2412.87
-2412.81
-2412.85
-2412.85
-2412.81
-21904.9
-21905
-21904.9
-21905
-21905.1
-21904.9
-21905.1
-21904.9
-21904.9
-21904.9
-21905
-21904.9
-21905
-21905.1
-21904.9
-21905.1
-21904.9
-21904.9
-21904.9
-21905
-21904.9
-21905
-21905.1
-21904.9
-21905.1
-21904.9
-21904.9
-21904.9
-21905
-21904.9
-21905
-21905.1
-21904.9
-21905.1
-21904.9
-21904.9
8209.19
8209.32
8209.12
8209.35
8209.23
8209.16
8209.41
8209.08
8209.29
8209.19
8209.33
8209.12
8209.35
8209.23
8209.16
8209.41
8209.08
8209.29
8209.19
8209.33
8209.12
8209.35
8209.23
8209.16
8209.41
8209.08
8209.29
8209.19
8209.33
8209.12
8209.35
8209.23
8209.16
8209.41
8209.08
8209.29
-2697.27
-2697.57
-2697.25
-2697.47
-2697.41
-2697.26
-2697.49
-2697.3
-2697.4
-2697.27
-2697.57
-2697.25
-2697.48
-2697.41
-2697.26
-2697.49
-2697.3
-2697.4
-2697.27
-2697.57
-2697.25
-2697.48
-2697.41
-2697.26
-2697.49
-2697.3
-2697.4
-2697.27
-2697.57
-2697.25
-2697.48
-2697.41
-2697.26
-2697.49
-2697.3
-2697.4
-23704
-23703.8
-23703.9
-23703.9
-23703.8
-23703.9
-23703.8
-23704
-23703.8
-23704
-23703.8
-23703.9
-23703.9
-23703.8
-23703.9
-23703.8
-23704
-23703.8
-23704
-23703.8
-23703.9
-23703.9
-23703.8
-23703.9
-23703.8
-23704
-23703.8
-23704
-23703.8
-23703.9
-23703.9
-23703.8
-23703.9
-23703.8
-23704
-23703.8
7694.01
7694.18
7694.01
7694.15
7694.05
7694.01
7694.09
7693.96
7694.17
7694.01
7694.18
7694.01
7694.15
7694.05
7694.01
7694.09
7693.96
7694.17
7694.01
7694.18
7694.01
7694.15
7694.05
7694.01
7694.09
7693.96
7694.17
7694.01
7694.18
7694.01
7694.15
7694.05
7694.01
7694.09
7693.96
7694.17
-3459.92
-3460.1
-3459.98
-3460.03
-3459.99
-3460
-3460.11
-3459.79
-3460.12
-3459.92
-3460.1
-3459.98
-3460.03
-3459.99
-3459.99
-3460.11
-3459.79
-3460.12
-3459.91
-3460.1
-3459.98
-3460.03
-3459.99
-3460
-3460.11
-3459.79
-3460.12
-3459.92
-3460.1
-3459.98
-3460.03
-3459.99
-3460
-3460.11
-3459.79
-3460.12
-24823.3
-24823.1
-24823.4
-24823.2
-24823.3
-24823.4
-24823.3
-24823.4
-24823.3
-24823.3
-24823.1
-24823.4
-24823.2
-24823.3
-24823.4
-24823.3
-24823.4
-24823.3
-24823.3
-24823.1
-24823.4
-24823.2
-24823.3
-24823.4
-24823.3
-24823.4
-24823.3
-24823.3
-24823.1
-24823.4
-24823.2
-24823.3
-24823.4
-24823.3
-24823.4
-24823.3
6423.43
6423.59
6423.23
6423.66
6423.35
6423.3
6423.58
6423.26
6423.51
6423.43
6423.59
6423.23
6423.66
6423.35
6423.3
6423.58
6423.26
6423.51
6423.43
6423.59
6423.23
6423.66
6423.35
6423.3
6423.58
6423.26
6423.51
6423.43
6423.59
6423.23
6423.66
6423.35
6423.3
6423.58
6423.26
6423.51
-4668.06
-4668.63
-4668.13
-4668.45
-4668.43
-4668.07
-4668.41
-4668.22
-4668.46
-4668.06
-4668.63
-4668.13
-4668.45
-4668.43
-4668.07
-4668.4
-4668.22
-4668.46
-4668.06
-4668.63
-4668.13
-4668.45
-4668.43
-4668.07
-4668.4
-4668.22
-4668.46
-4668.06
-4668.63
-4668.13
-4668.45
-4668.43
-4668.07
-4668.4
-4668.22
-4668.46
-25399.3
-25399
-25399.2
-25399.1
-25399.1
-25399.2
-25399.1
-25399.3
-25398.8
-25399.3
-25399
-25399.2
-25399.1
-25399.1
-25399.2
-25399.1
-25399.3
-25398.8
-25399.3
-25399
-25399.2
-25399.1
-25399.1
-25399.2
-25399.1
-25399.3
-25398.8
-25399.3
-25399
-25399.2
-25399.1
-25399.1
-25399.2
-25399.1
-25399.3
-25398.8
4058.27
4058.18
4058.06
4058.2
4058.07
4058.09
4058.19
4058.07
4058.03
4058.27
4058.18
4058.06
4058.2
4058.07
4058.09
4058.19
4058.07
4058.03
4058.27
4058.18
4058.06
4058.2
4058.07
4058.09
4058.19
4058.07
4058.03
4058.27
4058.18
4058.06
4058.2
4058.07
4058.09
4058.19
4058.07
4058.03
-6210.66
-6210.7
-6210.45
-6210.76
-6210.52
-6210.41
-6210.58
-6210.61
-6210.41
-6210.66
-6210.7
-6210.45
-6210.76
-6210.52
-6210.41
-6210.58
-6210.61
-6210.41
-6210.66
-6210.7
-6210.45
-6210.76
-6210.52
-6210.41
-6210.58
-6210.61
-6210.41
-6210.66
-6210.7
-6210.45
-6210.76
-6210.52
-6210.41
-6210.58
-6210.61
-6210.41
-25347.3
-25347.1
-25347.2
-25347.2
-25347.2
-25347.3
-25347.3
-25347.3
-25347.3
-25347.3
-25347.1
-25347.2
-25347.2
-25347.2
-25347.3
-25347.3
-25347.3
-25347.3
-25347.3
-25347.1
-25347.2
-25347.2
-25347.2
-25347.3
-25347.3
-25347.3
-25347.3
-25347.3
-25347.1
-25347.2
-25347.2
-25347.2
-25347.3
-25347.3
-25347.3
-25347.3
121.1
121.165
121.125
121.113
121.108
121.111
121.057
121.124
121.187
121.1
121.164
121.124
121.113
121.108
121.111
121.058
121.124
121.188
121.1
121.164
121.125
121.114
121.108
121.111
121.058
121.124
121.187
121.099
121.164
121.124
121.113
121.108
121.111
121.058
121.125
121.188
-7909.67
-7909.52
-7909.63
-7909.46
-7909.47
-7909.68
-7909.37
-7909.59
-7909.57
-7909.67
-7909.52
-7909.63
-7909.46
-7909.47
-7909.68
-7909.36
-7909.59
-7909.57
-7909.67
-7909.52
-7909.63
-7909.46
-7909.47
-7909.68
-7909.36
-7909.59
-7909.57
-7909.67
-7909.52
-7909.63
-7909.46
-7909.47
-7909.68
-7909.36
-7909.59
-7909.57
-24218.9
-24219.2
-24219
-24219.3
-24219.3
-24219.2
-24219.1
-24219.2
-24219.4
-24218.9
-24219.2
-24219
-24219.3
-24219.3
-24219.2
-24219.1
-24219.2
-24219.4
-24218.9
-24219.2
-24219
-24219.3
-24219.3
-24219.2
-24219.1
-24219.2
-24219.4
-24218.9
-24219.2
-24219
-24219.3
-24219.3
-24219.2
-24219.1
-24219.2
-24219.4
-5686.88
-5686.96
-5686.9
-5686.78
-5686.84
-5686.95
-5686.91
-5686.75
-5686.88
-5686.88
-5686.96
-5686.9
-5686.78
-5686.84
-5686.95
-5686.91
-5686.75
-5686.88
-5686.88
-5686.96
-5686.9
-5686.78
-5686.84
-5686.95
-5686.91
-5686.75
-5686.88
-5686.88
-5686.96
-5686.9
-5686.78
-5686.84
-5686.95
-5686.91
-5686.75
-5686.88
-9386.97
-9386.87
-9387.04
-9387
-9387.04
-9387.08
-9386.9
-9387
-9387.11
-9386.97
-9386.87
-9387.04
-9387
-9387.04
-9387.08
-9386.9
-9387
-9387.11
-9386.97
-9386.87
-9387.04
-9387
-9387.04
-9387.08
-9386.9
-9387
-9387.11
-9386.97
-9386.87
-9387.04
-9387
-9387.04
-9387.08
-9386.9
-9387
-9387.11
-21001.5
-21001.6
-21001.5
-21001.6
-21001.6
-21001.5
-21001.5
-21001.5
-21001.7
-21001.5
-21001.6
-21001.5
-21001.6
-21001.6
-21001.5
-21001.5
-21001.5
-21001.7
-21001.5
-21001.6
-21001.5
-21001.6
-21001.6
-21001.5
-21001.5
-21001.5
-21001.7
-21001.5
-21001.6
-21001.5
-21001.6
-21001.6
-21001.5
-21001.5
-21001.5
-21001.7
-12636.9
-12637.1
-12637
-12636.8
-12636.8
-12636.9
-12636.8
-12636.9
-12637
-12636.9
-12637.1
-12637
-12636.8
-12636.8
-12636.9
-12636.8
-12636.9
-12637
-12636.9
-12637.1
-12637
-12636.8
-12636.8
-12636.9
-12636.8
-12636.9
-12637
-12636.9
-12637.1
-12637
-12636.8
-12636.8
-12636.9
-12636.8
-12636.9
-12637
-9996.14
-9995.74
-9996.06
-9995.99
-9996
-9996.04
-9996.01
-9996.25
-9995.92
-9996.14
-9995.74
-9996.06
-9995.99
-9996
-9996.04
-9996.01
-9996.25
-9995.92
-9996.14
-9995.74
-9996.06
-9995.99
-9996
-9996.04
-9996.01
-9996.25
-9995.92
-9996.14
-9995.75
-9996.06
-9995.99
-9996
-9996.04
-9996.01
-9996.25
-9995.92
-14231.3
-14231.6
-14231.4
-14231.5
-14231.5
-14231.5
-14231.7
-14231.3
-14231.6
-14231.3
-14231.6
-14231.4
-14231.5
-14231.5
-14231.5
-14231.7
-14231.3
-14231.6
-14231.3
-14231.6
-14231.4
-14231.5
-14231.5
-14231.5
-14231.7
-14231.3
-14231.6
-14231.3
-14231.6
-14231.4
-14231.5
-14231.5
-14231.5
-14231.7
-14231.3
-14231.6
-18490.8
-18490.8
-18490.6
-18490.7
-18490.5
-18490.6
-18490.5
-18490.6
-18491
-18490.8
-18490.8
-18490.6
-18490.7
-18490.5
-18490.6
-18490.5
-18490.6
-18491
-18490.8
-18490.8
-18490.6
-18490.7
-18490.5
-18490.6
-18490.5
-18490.6
-18491
-18490.8
-18490.8
-18490.6
-18490.7
-18490.5
-18490.6
-18490.5
-18490.6
-18491
-9386.13
-9385.97
-9386.09
-9386.21
-9386.14
-9386.21
-9386.23
-9386.41
-9386.18
-9386.13
-9385.97
-9386.09
-9386.2
-9386.13
-9386.21
-9386.23
-9386.41
-9386.18
-9386.13
-9385.97
-9386.09
-9386.2
-9386.13
-9386.21
-9386.23
-9386.41
-9386.18
-9386.13
-9385.97
-9386.09
-9386.21
-9386.13
-9386.21
-9386.23
-9386.41
-9386.18
-2555.97
-2556.18
-2556.04
-2556.14
-2556.13
-2556.26
-2556.05
-2555.88
-2555.86
-2555.97
-2556.18
-2556.04
-2556.14
-2556.13
-2556.27
-2556.05
-2555.89
-2555.86
-2555.97
-2556.18
-2556.04
-2556.14
-2556.13
-2556.27
-2556.05
-2555.89
-2555.86
-2555.97
-2556.18
-2556.04
-2556.14
-2556.13
-2556.27
-2556.05
-2555.89
-2555.86
-20183.8
-20183.8
-20183.7
-20183.6
-20183.6
-20183.3
-20183.7
-20183.7
-20184.2
-20183.8
-20183.8
-20183.6
-20183.6
-20183.6
-20183.3
-20183.7
-20183.7
-20184.2
-20183.8
-20183.8
-20183.6
-20183.6
-20183.6
-20183.3
-20183.7
-20183.7
-20184.2
-20183.8
-20183.8
-20183.7
-20183.6
-20183.6
-20183.3
-20183.7
-20183.7
-20184.2
-7700.13
-7700.04
-7700.16
-7700.37
-7699.84
-7700.34
-7700.14
-7700.37
-7699.95
-7700.12
-7700.04
-7700.16
-7700.37
-7699.84
-7700.34
-7700.14
-7700.37
-7699.95
-7700.12
-7700.04
-7700.16
-7700.37
-7699.84
-7700.34
-7700.14
-7700.37
-7699.95
-7700.12
-7700.04
-7700.16
-7700.37
-7699.84
-7700.34
-7700.14
-7700.37
-7699.96
15281
15280.7
15280.8
15280.8
15280.7
15281.1
15280.8
15281.5
15281.1
15281
15280.7
15280.8
15280.8
15280.7
15281.1
15280.8
15281.5
15281.1
15281
15280.7
15280.8
15280.8
15280.7
15281.1
15280.8
15281.5
15281.1
15281
15280.7
15280.8
15280.8
15280.7
15281.1
15280.8
15281.5
15281.1
-17600.4
-17599.7
-17597.8
-17598.5
-17601.2
-17599.1
-17597.7
-17599.7
-17601.1
-17600.5
-17599.7
-17597.8
-17598.5
-17601.2
-17599.1
-17597.7
-17599.7
-17601.1
-17600.5
-17599.7
-17597.8
-17598.5
-17601.2
-17599.1
-17597.7
-17599.7
-17601.1
-17600.5
-17599.7
-17597.8
-17598.5
-17601.2
-17599.1
-17597.7
-17599.7
-17601.1
-8924.5
-8924.82
-8924.67
-8925.1
-8924.37
-8925.42
-8924.85
-8924.81
-8924.66
-8924.49
-8924.81
-8924.66
-8925.09
-8924.37
-8925.42
-8924.85
-8924.81
-8924.67
-8924.49
-8924.81
-8924.67
-8925.09
-8924.37
-8925.42
-8924.86
-8924.81
-8924.67
-8924.49
-8924.81
-8924.67
-8925.09
-8924.36
-8925.41
-8924.85
-8924.81
-8924.67
37407.3
37407
37407
37407.4
37407.4
37407.3
37407.9
37407.6
37407.5
37407.3
37407
37407
37407.4
37407.4
37407.3
37407.9
37407.6
37407.5
37407.3
37407
37407
37407.4
37407.4
37407.3
37407.9
37407.6
37407.5
37407.3
37407
37407
37407.4
37407.4
37407.3
37407.9
37407.6
37407.5
7701.99
7705.4
7686.57
7692.06
7708.78
7695.53
7685.83
7699.31
7696.41
7702.06
7705.52
7686.66
7692.1
7708.83
7695.57
7685.86
7699.35
7696.45
7702.07
7705.55
7686.67
7692.1
7708.83
7695.56
7685.85
7699.33
7696.42
7702.05
7705.52
7686.66
7692.1
7708.82
7695.56
7685.86
7699.32
7696.4
5868.97
5867.35
5868.88
5865.23
5873.94
5863.57
5871.3
5868.65
5870.25
5868.97
5867.34
5868.86
5865.2
5873.93
5863.56
5871.3
5868.66
5870.27
5868.97
5867.35
5868.86
5865.21
5873.94
5863.57
5871.31
5868.66
5870.27
5868.99
5867.37
5868.88
5865.21
5873.93
5863.57
5871.3
5868.65
5870.24
49207.5
49207.5
49203.3
49215.6
49195.2
49219.2
49199.3
49211.2
49206.5
49207.5
49207.5
49203.3
49215.6
49195.2
49219.2
49199.3
49211.2
49206.5
49207.5
49207.5
49203.3
49215.6
49195.2
49219.2
49199.3
49211.2
49206.5
49207.5
49207.5
49203.3
49215.6
49195.2
49219.2
49199.3
49211.2
49206.5
)
;

boundaryField
{
    fixed
    {
        type            zeroGradient;
    }
    inside
    {
        type            zeroGradient;
    }
    outside
    {
        type            zeroGradient;
    }
}


// ************************************************************************* //
