/*--------------------------------*- C++ -*----------------------------------*\
| =========                 |                                                 |
| \\      /  F ield         | OpenFOAM: The Open Source CFD Toolbox           |
|  \\    /   O peration     | Version:  2312                                  |
|   \\  /    A nd           | Website:  www.openfoam.com                      |
|    \\/     M anipulation  |                                                 |
\*---------------------------------------------------------------------------*/
FoamFile
{
    version     2.0;
    format      ascii;
    arch        "LSB;label=32;scalar=64";
    class       volScalarField;
    location    "0.6";
    object      sigmaEq;
}
// * * * * * * * * * * * * * * * * * * * * * * * * * * * * * * * * * * * * * //

dimensions      [1 -1 -2 0 0 0 0];

internalField   nonuniform List<scalar> 
1620
(
37795.6
35130.4
33366.2
32849.7
33325.4
34182.1
34930.2
35390.1
35609.4
35713
35810.2
35973.5
36264.2
36790.7
37769.7
39400.4
40974.7
40405.7
37795.6
35130.4
33366.2
32849.7
33325.4
34182.1
34930.2
35390.1
35609.4
35713
35810.2
35973.5
36264.2
36790.7
37769.7
39400.4
40974.7
40405.7
35164.3
34090.1
33767.2
34306.5
35377.8
36498.9
37296.5
37641.4
37604.6
37337
36979.7
36633
36363.3
36217
36225.8
36375
36486.9
36168
35164.3
34090.1
33767.2
34306.5
35377.8
36498.9
37296.5
37641.4
37604.6
37337
36979.7
36633
36363.3
36217
36225.8
36375
36486.9
36168
37312.6
37334.4
37242.8
37462
38016.1
38719.4
39322.7
39599.4
39429.5
38847.1
38012.6
37117
36293
35615.2
35184
35177.2
35733.6
36672.4
37312.6
37334.4
37242.8
37462
38016.1
38719.4
39322.7
39599.4
39429.5
38847.1
38012.6
37117
36293
35615.2
35184
35177.2
35733.6
36672.4
37246.6
34485.6
33095.4
32814.1
33490.5
34536.4
35419.8
35965.1
36227.6
36322.6
36342.4
36345.4
36385.2
36558.2
37056.7
38199
39739.3
39782.3
37246.6
34485.6
33095.4
32814.1
33490.5
34536.4
35419.8
35965.1
36227.6
36322.6
36342.4
36345.4
36385.2
36558.2
37056.7
38199
39739.3
39782.3
34045.6
33767.1
34729.3
36235.6
37808.5
38963.3
39476
39393.9
38897.2
38188.8
37433.7
36730.8
36110.3
35544.7
34970.7
34427.4
34350.3
34827
34045.6
33767.1
34729.3
36235.6
37808.5
38963.3
39476
39393.9
38897.2
38188.8
37433.7
36730.8
36110.3
35544.7
34970.7
34427.4
34350.3
34827
40393.9
40840.9
40734
40618.3
40703.7
41071
41586.2
41954.8
41882.9
41223.3
40042.2
38576
37098.7
35824.9
34956.3
34803.8
35773.1
38145.7
40393.9
40840.9
40734
40618.3
40703.7
41071
41586.2
41954.8
41882.9
41223.3
40042.2
38576
37098.7
35824.9
34956.3
34803.8
35773.1
38145.7
34823.6
33938
32873.5
32703.9
33694.6
35157.3
36371
37124.5
37478.2
37537.3
37376.6
37048.4
36626
36224.6
35959
36035.1
36385.7
33367
34823.6
33938
32873.5
32703.9
33694.6
35157.3
36371
37124.5
37478.2
37537.3
37376.6
37048.4
36626
36224.6
35959
36035.1
36385.7
33367
32136.9
33509.2
35360
37749
40044.5
41419.5
41713.3
41208.1
40230.6
39033
37782.3
36562.4
35394.7
34257.1
33058.6
31702.6
30628.8
31076.6
32136.9
33509.2
35360
37749
40044.5
41419.5
41713.3
41208.1
40230.6
39033
37782.3
36562.4
35394.7
34257.1
33058.6
31702.6
30628.8
31076.6
36193.9
41101.4
42695.5
43346.1
43439.8
43566.1
43956.2
44360.2
44351.4
43592.2
41967.3
39669.2
37231.1
35342.6
34498.7
34967.2
36530.3
35300
36193.9
41101.4
42695.5
43346.1
43439.8
43566.1
43956.2
44360.2
44351.4
43592.2
41967.3
39669.2
37231.1
35342.6
34498.7
34967.2
36530.3
35300
34035
32668.5
31605.6
31523.7
32889.5
34748.4
36261.6
37267
37823.1
37985.8
37775.8
37226
36473.2
35782.1
35404.2
35581.8
36434.8
36168.3
34035
32668.5
31605.6
31523.7
32889.5
34748.4
36261.6
37267
37823.1
37985.8
37775.8
37226
36473.2
35782.1
35404.2
35581.8
36434.8
36168.3
33489.6
33138.2
33774.6
35745.1
38385.6
40271.9
40920.4
40631.9
39768.1
38556.7
37112.6
35506.8
33897.9
32600.8
31813.8
31400.6
31465.6
32775
33489.6
33138.2
33774.6
35745.1
38385.6
40271.9
40920.4
40631.9
39768.1
38556.7
37112.6
35506.8
33897.9
32600.8
31813.8
31400.6
31465.6
32775
37713.7
38797.2
40798.4
42844.4
44221.1
45054.8
45761.8
46302.4
46315.6
45418.2
43331.7
40111.2
36642.3
34463.3
34335.4
36135.9
39430.9
39643.2
37713.7
38797.2
40798.4
42844.4
44221.1
45054.8
45761.8
46302.4
46315.6
45418.2
43331.7
40111.2
36642.3
34463.3
34335.4
36135.9
39430.9
39643.2
34064
32051.3
30121.4
29573.5
31059.8
33188.7
34917.3
36132.2
36909.7
37276.9
37213.6
36733.7
36050.1
35612.6
35724.7
36156.7
36319.1
35635.7
34064
32051.3
30121.4
29573.5
31059.8
33188.7
34917.3
36132.2
36909.7
37276.9
37213.6
36733.7
36050.1
35612.6
35724.7
36156.7
36319.1
35635.7
33611.9
33169.7
32460.2
32865.4
35008
37276.3
38495.1
38706.5
38198.6
37133.4
35562.9
33597.5
31742.3
30882.7
31208.7
31977.8
32719.3
33365.2
33611.9
33169.7
32460.2
32865.4
35008
37276.3
38495.1
38706.5
38198.6
37133.4
35562.9
33597.5
31742.3
30882.7
31208.7
31977.8
32719.3
33365.2
38928.9
39058
40326.8
42313.3
44382.9
46010.1
47125.5
47728.2
47618.5
46475.3
43918.9
39878.7
35638.7
33564
34092.2
36038.1
38600
39693.1
38928.9
39058
40326.8
42313.3
44382.9
46010.1
47125.5
47728.2
47618.5
46475.3
43918.9
39878.7
35638.7
33564
34092.2
36038.1
38600
39693.1
33471.1
31714.6
29549.9
28239.2
29195.8
31252.4
33056
34375.8
35298.2
35864.8
36071
35968
35823.7
36010.1
36418.2
36469.4
35904.7
34855.7
33471.1
31714.6
29549.9
28239.2
29195.8
31252.4
33056
34375.8
35298.2
35864.8
36071
35968
35823.7
36010.1
36418.2
36469.4
35904.7
34855.7
33474.2
33027.2
31961.1
31144.2
32265.8
34518.4
36152.6
36776.1
36540
35535.9
33775.2
31481
29631.5
29517.2
30785.1
32115.9
32991.4
33427.2
33474.2
33027.2
31961.1
31144.2
32265.8
34518.4
36152.6
36776.1
36540
35535.9
33775.2
31481
29631.5
29517.2
30785.1
32115.9
32991.4
33427.2
39651.1
40289.1
41533.2
43425
45632.7
47511.3
48587.4
48873
48358.8
46794.3
43747.8
39146.1
34635.1
32851.2
33621.2
35307.1
37262.7
38920.4
39651.1
40289.1
41533.2
43425
45632.7
47511.3
48587.4
48873
48358.8
46794.3
43747.8
39146.1
34635.1
32851.2
33621.2
35307.1
37262.7
38920.4
32934.3
31445.3
29553.7
27880.1
27940.2
29486.5
31173.9
32513.9
33528.2
34286.8
34843.6
35306.9
35871.1
36522.9
36787.4
36341.7
35388.7
34214.7
32934.3
31445.3
29553.7
27880.1
27940.2
29486.5
31173.9
32513.9
33528.2
34286.8
34843.6
35306.9
35871.1
36522.9
36787.4
36341.7
35388.7
34214.7
33083.4
32671.6
31679.8
30474.6
30666.7
32487.6
34257.9
35134.1
35051.5
34030.9
32097.1
29673.1
28139.8
28708.4
30422.2
31895.1
32756.3
33103.6
33083.4
32671.6
31679.8
30474.6
30666.7
32487.6
34257.9
35134.1
35051.5
34030.9
32097.1
29673.1
28139.8
28708.4
30422.2
31895.1
32756.3
33103.6
39872.1
41470.4
43289.7
45399.4
47575.2
49262.2
49921.2
49612.3
48491.8
46383.8
42885.8
38084.1
33841.9
32422.6
33207
34704.9
36390
38191.9
39872.1
41470.4
43289.7
45399.4
47575.2
49262.2
49921.2
49612.3
48491.8
46383.8
42885.8
38084.1
33841.9
32422.6
33207
34704.9
36390
38191.9
32475.4
31217.7
29650.4
28001.9
27378.6
28201.6
29570.4
30841.2
31913
32852.6
33750.2
34701.8
35703.6
36432
36455.2
35786.6
34761.2
33628
32475.4
31217.7
29650.4
28001.9
27378.6
28201.6
29570.4
30841.2
31913
32852.6
33750.2
34701.8
35703.6
36432
36455.2
35786.6
34761.2
33628
32462.5
32097
31266.5
30121.6
29775.1
30936.1
32496.4
33400.6
33345.3
32290
30349.6
28197.9
27310.6
28350.5
30096.3
31458.1
32219.1
32504.3
32462.5
32097
31266.5
30121.6
29775.1
30936.1
32496.4
33400.6
33345.3
32290
30349.6
28197.9
27310.6
28350.5
30096.3
31458.1
32219.1
32504.3
39625
41925.4
44447.7
46914.3
48970.9
50237
50384.5
49509.6
47825.6
45237.6
41484.8
36925.2
33374.7
32346.5
33061.8
34384.5
35891.2
37615.4
39625
41925.4
44447.7
46914.3
48970.9
50237
50384.5
49509.6
47825.6
45237.6
41484.8
36925.2
33374.7
32346.5
33061.8
34384.5
35891.2
37615.4
32018.3
30942.3
29621.2
28145.1
27215.8
27415.1
28362.7
29480.3
30562.8
31629.6
32750.8
33944.6
35039.6
35657.5
35568.4
34924.4
34009.4
33016.1
32018.3
30942.3
29621.2
28145.1
27215.8
27415.1
28362.7
29480.3
30562.8
31629.6
32750.8
33944.6
35039.6
35657.5
35568.4
34924.4
34009.4
33016.1
31641.7
31299.8
30590.2
29607.7
29039.2
29559.2
30636.9
31330
31191.6
30158.2
28490.6
27029.9
26919.8
28177.6
29723
30857.8
31478.3
31701.2
31641.7
31299.8
30590.2
29607.7
29039.2
29559.2
30636.9
31330
31191.6
30158.2
28490.6
27029.9
26919.8
28177.6
29723
30857.8
31478.3
31701.2
39155.9
41624.7
44463.5
47118.5
49013.1
49862.5
49592.2
48341.7
46305.1
43475.9
39826.8
35963.4
33328.9
32659.8
33265.5
34375.2
35679.8
37215.4
39155.9
41624.7
44463.5
47118.5
49013.1
49862.5
49592.2
48341.7
46305.1
43475.9
39826.8
35963.4
33328.9
32659.8
33265.5
34375.2
35679.8
37215.4
31445.8
30514.6
29392.1
28143
27195.7
27021.6
27570.8
28471.4
29493.4
30596.1
31793.5
33016.1
34021.9
34513.2
34408.4
33871.5
33116.9
32292.2
31445.8
30514.6
29392.1
28143
27195.7
27021.6
27570.8
28471.4
29493.4
30596.1
31793.5
33016.1
34021.9
34513.2
34408.4
33871.5
33116.9
32292.2
30629.3
30274.9
29625.7
28774.4
28130.8
28145.6
28633.4
28960.5
28708.8
27852
26764.7
26196.2
26700.3
27943.6
29202.1
30091.7
30570.3
30725.7
30629.3
30274.9
29625.7
28774.4
28130.8
28145.6
28633.4
28960.5
28708.8
27852
26764.7
26196.2
26700.3
27943.6
29202.1
30091.7
30570.3
30725.7
38652
40890.4
43538.6
46009.8
47649.6
48183.2
47661.2
46258.9
44152.6
41442.4
38332.9
35473.7
33735.3
33331.1
33785.9
34636
35685.3
36967.1
38652
40890.4
43538.6
46009.8
47649.6
48183.2
47661.2
46258.9
44152.6
41442.4
38332.9
35473.7
33735.3
33331.1
33785.9
34636
35685.3
36967.1
30654.6
29877.3
28981
28026.9
27260.8
26975.7
27241.6
27896
28772.7
29802.9
30938.7
32040.8
32868
33226.7
33111.2
32661.1
32040.2
31361.4
30654.6
29877.3
28981
28026.9
27260.8
26975.7
27241.6
27896
28772.7
29802.9
30938.7
32040.8
32868
33226.7
33111.2
32661.1
32040.2
31361.4
29404.4
29020.2
28409.2
27662.6
27010.3
26689.1
26663.2
26629.9
26347.8
25856.9
25488.4
25652.1
26434
27499.9
28461
29126.4
29475.6
29556.3
29404.4
29020.2
28409.2
27662.6
27010.3
26689.1
26663.2
26629.9
26347.8
25856.9
25488.4
25652.1
26434
27499.9
28461
29126.4
29475.6
29556.3
38171
39973.7
42089.6
44049.3
45308.7
45613.3
45016
43692.6
41833.2
39633.3
37389.7
35555.5
34501.8
34231.8
34493.3
35054.3
35817.4
36816.6
38171
39973.7
42089.6
44049.3
45308.7
45613.3
45016
43692.6
41833.2
39633.3
37389.7
35555.5
34501.8
34231.8
34493.3
35054.3
35817.4
36816.6
29662.8
29110.2
28529.6
27955.8
27501.5
27305.4
27436.5
27864
28525.4
29369
30303.8
31155.2
31724.6
31905.6
31726.8
31302.8
30764.6
30207.6
29662.8
29110.2
28529.6
27955.8
27501.5
27305.4
27436.5
27864
28525.4
29369
30303.8
31155.2
31724.6
31905.6
31726.8
31302.8
30764.6
30207.6
27928.7
27555.9
27036.9
26440.1
25873.1
25436.7
25149.3
24940
24752.4
24649.9
24791.2
25274.6
26014.4
26805.4
27468.3
27914
28126.7
28124.6
27928.7
27555.9
27036.9
26440.1
25873.1
25436.7
25149.3
24940
24752.4
24649.9
24791.2
25274.6
26014.4
26805.4
27468.3
27914
28126.7
28124.6
37721.7
39015.4
40479.9
41807
42645.4
42802.6
42295.7
41270.4
39923.6
38465.6
37113.2
36064.5
35425.2
35176.3
35232.5
35519
36008.3
36724.9
37721.7
39015.4
40479.9
41807
42645.4
42802.6
42295.7
41270.4
39923.6
38465.6
37113.2
36064.5
35425.2
35176.3
35232.5
35519
36008.3
36724.9
28742.6
28504.7
28308.4
28141.2
28023.1
27993.1
28088.3
28337.4
28762.5
29344.3
29974.9
30483.5
30732
30680.3
30379
29933.2
29461.9
29054.9
28742.6
28504.7
28308.4
28141.2
28023.1
27993.1
28088.3
28337.4
28762.5
29344.3
29974.9
30483.5
30732
30680.3
30379
29933.2
29461.9
29054.9
26232
25974.1
25662.6
25322.4
24983.8
24679.5
24434.3
24263.1
24189.7
24263.4
24525.9
24953.5
25451.6
25910.1
26252.5
26446.4
26493.3
26413.3
26232
25974.1
25662.6
25322.4
24983.8
24679.5
24434.3
24263.1
24189.7
24263.4
24525.9
24953.5
25451.6
25910.1
26252.5
26446.4
26493.3
26413.3
37377.7
38194.1
39083.2
39873.6
40377.1
40474
40162.4
39546.5
38780.6
38002.8
37302.8
36728.5
36303.5
36039.8
35944.2
36022.3
36281
36730.8
37377.7
38194.1
39083.2
39873.6
40377.1
40474
40162.4
39546.5
38780.6
38002.8
37302.8
36728.5
36303.5
36039.8
35944.2
36022.3
36281
36730.8
28372.9
28445.3
28563.1
28682.4
28776.9
28841
28897.9
29006.1
29227.5
29553.4
29869.8
30033.6
29972.6
29705.3
29312.5
28902.5
28578.7
28402.2
28372.9
28445.3
28563.1
28682.4
28776.9
28841
28897.9
29006.1
29227.5
29553.4
29869.8
30033.6
29972.6
29705.3
29312.5
28902.4
28578.7
28402.2
24603.7
24529.4
24491.6
24474.8
24461.4
24437.5
24394.2
24339
24307
24349.4
24490.2
24696.5
24896
25023
25048.2
24980.7
24856
24718.2
24603.7
24529.4
24491.6
24474.8
24461.4
24437.5
24394.2
24339
24307
24349.4
24490.2
24696.5
24896
25023
25048.2
24980.7
24856
24718.2
37458.5
37904.9
38381.2
38798.3
39064.5
39123.4
38983.2
38711.2
38389.2
38067.6
37757.4
37457.1
37178.8
36951.9
36809.8
36778.6
36874.9
37104.4
37458.5
37904.9
38381.2
38798.3
39064.5
39123.4
38983.2
38711.2
38389.2
38067.6
37757.4
37457.1
37178.8
36951.9
36809.7
36778.6
36874.9
37104.4
29984.9
30265.6
30526
30698.2
30738.2
30655.4
30511.6
30388.2
30345.4
30394.1
30477.5
30492.7
30368.2
30124.1
29855.5
29670
29634.4
29753.4
29984.9
30265.6
30526
30698.2
30738.2
30655.4
30511.6
30388.2
30345.4
30394.1
30477.5
30492.7
30368.2
30124.1
29855.5
29670
29634.4
29753.4
23566.2
23579.5
23696.6
23895
24137.5
24380
24583.7
24723.7
24793.3
24801.9
24768.9
24709.1
24620.8
24488.1
24300.4
24071.5
23841.6
23659.9
23566.2
23579.5
23696.6
23895
24137.5
24380
24583.7
24723.7
24793.3
24801.9
24768.9
24709.1
24620.8
24488.1
24300.4
24071.5
23841.6
23659.9
38021.3
38220.7
38431.8
38601.8
38688
38683.9
38619.2
38533.6
38448
38356.8
38244.6
38107.1
37961.5
37837.8
37760.6
37739.4
37775.1
37868.8
38021.3
38220.7
38431.8
38601.8
38688
38683.9
38619.2
38533.6
38448
38356.8
38244.6
38107.1
37961.5
37837.8
37760.6
37739.4
37775.1
37868.8
)
;

boundaryField
{
    fixed
    {
        type            calculated;
        value           nonuniform List<scalar> 
108
(
37828.4
35549.4
33829.2
33125.2
33390.2
34102.2
34777
35214.2
35439.8
35565.8
35697.5
35909.8
36272.2
36909.5
38054.7
39827.4
41180.3
40206.1
37828.4
35549.4
33829.2
33125.2
33390.2
34102.2
34777
35214.2
35439.8
35565.8
35697.5
35909.8
36272.2
36909.5
38054.7
39827.4
41180.3
40206.1
35298.1
34420
33948.3
34165.9
34930.4
35858.6
36602.3
37006.1
37096.3
36984.4
36786.3
36592.5
36471.4
36472.1
36596.3
36717.7
36576.4
36083.7
35298.1
34420
33948.3
34165.9
34930.4
35858.6
36602.3
37006.1
37096.3
36984.4
36786.3
36592.5
36471.4
36472.1
36596.3
36717.7
36576.4
36083.7
37346.8
37297
36956
36877.1
37198.4
37781.6
38392.3
38797.7
38846.2
38517.5
37913.2
37188.5
36470.4
35839.5
35395.8
35320.5
35790.9
36688.3
37346.8
37297
36956
36877.1
37198.4
37781.6
38392.3
38797.7
38846.2
38517.5
37913.2
37188.5
36470.4
35839.5
35395.8
35320.5
35790.9
36688.3
)
;
    }
    inside
    {
        type            calculated;
        value           nonuniform List<scalar> 
540
(
39963.1
39489.7
38817.3
38520.9
38628.3
38953.6
39276.6
39405
39216.1
38696.9
37952
37150.4
36449.1
35983.3
35927.9
36509.3
37830.5
39363.5
39963.1
39489.7
38817.3
38520.9
38628.3
38953.6
39276.6
39405
39216.1
38696.9
37952
37150.4
36449.1
35983.3
35927.9
36509.3
37830.5
39363.5
49446.4
45345.8
42283
40871.9
40593
41073.9
41926.7
42732.6
43094.5
42715.9
41542.2
39862.9
38183.6
36984
36695.2
37951.9
41802.2
48137.9
49446.4
45345.8
42283
40871.9
40593
41073.9
41926.7
42732.6
43094.5
42715.9
41542.2
39862.9
38183.6
36984
36695.2
37951.9
41802.2
48137.9
42938.8
46200.9
44165.8
43065.7
42927.9
43884.8
45670.6
47642.3
48996.6
48942.7
47038.8
43701.6
40236.1
37986.6
37715.3
40376.9
46786.7
43587
42938.8
46200.9
44165.8
43065.7
42927.9
43884.8
45670.6
47642.3
48996.6
48942.7
47038.8
43701.6
40236.1
37986.6
37715.3
40376.9
46786.7
43587
45122.6
42432.7
42617.2
43624.7
45057.4
47371.8
50612.5
54054.5
56501.3
56640.7
53651.6
48131.4
42418.5
38998.7
38724.5
42205.8
50793.3
53195.7
45122.6
42432.7
42617.2
43624.7
45057.4
47371.8
50612.5
54054.5
56501.3
56640.7
53651.6
48131.4
42418.5
38998.7
38724.5
42205.8
50793.3
53195.7
45120.6
42551.2
42777.8
44761.7
47965.3
52252.2
57193.9
61813.6
64665.4
64238.5
59767.9
52209.5
44621.7
40153.1
39289.3
41351.9
46189.8
48803.5
45120.6
42551.2
42777.8
44761.7
47965.3
52252.2
57193.9
61813.6
64665.4
64238.5
59767.9
52209.5
44621.7
40153.1
39289.3
41351.9
46189.8
48803.5
44734.7
44125.5
45083.1
48003.6
52827.9
58977
65182.3
70089.4
72276.4
70488.3
64403.6
55382.4
46691.8
41392.2
39571
40041.3
42279
44731.4
44734.7
44125.5
45083.1
48003.6
52827.9
58977
65182.3
70089.4
72276.4
70488.3
64403.6
55382.4
46691.8
41392.2
39571
40041.3
42279
44731.4
44292.2
45895.1
48497.5
52856.2
59095.4
66353.4
72849.6
77036.8
77794.7
74404
67035.7
57282.1
48234
42465.4
39891.1
39427.7
40501.5
42511.2
44292.2
45895.1
48497.5
52856.3
59095.4
66353.4
72849.6
77036.8
77794.7
74404
67035.7
57282.1
48234
42465.4
39891.1
39427.7
40501.5
42511.2
43777
46937.3
51449.3
57528.4
64814.4
72223.6
78043.9
80901.5
80102.8
75454.5
67469
57778.7
49069.9
43320.6
40410.2
39467
39936.7
41474.4
43777
46937.3
51449.3
57528.4
64814.4
72223.6
78043.9
80901.5
80102.8
75454.5
67469
57778.7
49069.9
43320.6
40410.2
39467
39936.7
41474.4
43447.2
47211.5
52894.7
60183.3
67953.4
74843.5
79518
81038.4
79106
73889.1
66088.5
57242.8
49482.5
44182.9
41251.3
40046.5
40102.5
41210.2
43447.2
47211.5
52894.7
60183.3
67953.4
74843.5
79518
81038.4
79106
73889.1
66088.5
57242.8
49482.5
44182.9
41251.3
40046.5
40102.5
41210.2
43453.9
47155.5
52948.6
60312.8
67743.9
73725.3
77267.6
77863.8
75490.9
70512.9
63696
56333.1
49907.9
45287
42460.7
41050.3
40750.2
41480.1
43453.9
47155.5
52948.6
60312.8
67743.9
73725.3
77267.6
77863.8
75490.9
70512.9
63696
56333.1
49907.9
45287
42460.7
41050.3
40750.2
41480.1
43819.8
47101.7
52203.7
58579
64861.4
69697.8
72331.2
72510.8
70366
66331.3
61092.1
55542.6
50553.2
46646.4
43936.6
42328.1
41724.6
42151
43819.8
47101.7
52203.7
58579
64861.4
69697.8
72331.2
72510.8
70366
66331.3
61092.1
55542.6
50553.2
46646.4
43936.6
42328.1
41724.6
42151
44604.7
47272.4
51266.4
56110
60837.7
64468.3
66415.9
66531.8
65013.1
62269.9
58773.1
54979.4
51299.1
48066.1
45523.1
43819.8
43037.6
43253.1
44604.7
47272.4
51266.4
56110
60837.7
64468.3
66415.9
66531.8
65013.1
62269.9
58773.1
54979.4
51299.1
48066.1
45523.1
43819.8
43037.6
43253.1
46107.4
48075.2
50890.1
54197.6
57407.9
59894.8
61240.4
61368.5
60497.8
58939.8
56914
54544.8
51981.1
49469.3
47312.8
45770
45000.4
45091.8
46107.4
48075.2
50890.1
54197.6
57407.9
59894.8
61240.4
61368.5
60497.8
58939.8
56914
54544.8
51981
49469.3
47312.8
45770
45000.4
45091.8
49352.5
50636.6
52374.9
54316.1
56113.2
57423
58054.4
58054.4
57624
56927.7
55986.3
54748.8
53245
51646.4
50200.6
49131.7
48590.3
48656.5
49352.5
50636.6
52374.9
54316.1
56113.2
57423
58054.4
58054.4
57624
56927.7
55986.3
54748.8
53245
51646.4
50200.6
49131.7
48590.3
48656.5
54507.7
55183.7
56008.5
56811.1
57387.9
57613.2
57517.9
57244.9
56930.5
56613.9
56245.4
55762.4
55176.9
54590.3
54128.3
53872.9
53849
54059
54507.7
55183.7
56008.5
56811.1
57387.9
57613.2
57517.9
57244.9
56930.5
56613.9
56245.4
55762.4
55176.9
54590.3
54128.3
53872.9
53849
54059
)
;
    }
    outside
    {
        type            calculated;
        value           nonuniform List<scalar> 
540
(
40423.8
37341.1
35035.3
33772.7
33506.7
33831.7
34320.4
34744.4
35054.1
35291.7
35526.4
35827
36274.5
37016.9
38360.6
40673.4
43266.2
43312.5
40423.8
37341.1
35035.3
33772.7
33506.7
33831.7
34320.4
34744.4
35054.1
35291.7
35526.4
35827
36274.5
37016.9
38360.6
40673.4
43266.2
43312.5
39811.1
36353.1
34255.9
33181.7
33111.3
33664.6
34362.1
34958.9
35412.2
35758.9
36047.9
36326.3
36670.5
37257.8
38499.1
41091.4
44164.7
43333.4
39811.1
36353.1
34255.9
33181.7
33111.3
33664.6
34362.1
34958.9
35412.2
35758.9
36047.9
36326.3
36670.5
37257.8
38499.1
41091.4
44164.7
43333.4
36092.8
35432
33644.1
32471.8
32426.6
33226.8
34252.1
35165.3
35892.3
36452.9
36870.5
37162.2
37397.9
37797
38862.2
41648.3
44143.3
35533.1
36092.8
35432
33644.1
32471.8
32426.6
33226.8
34252.1
35165.3
35892.3
36452.9
36870.5
37162.2
37397.9
37797
38862.2
41648.3
44143.3
35533.1
35867.7
34531.4
32846.3
31619.4
31671.6
32727.2
34058.2
35284.7
36307
37126.4
37743.8
38149.6
38421
38862.4
40083.8
43087.5
45585.5
39751.3
35867.7
34531.4
32846.3
31619.4
31671.6
32727.2
34058.2
35284.7
36307
37126.4
37743.8
38149.6
38421
38862.4
40083.8
43087.5
45585.5
39751.3
37223.5
34480.2
32275.3
30796.2
30824.3
32010.5
33559.1
35068
36414
37587.7
38590.4
39407.7
40116.6
41006.1
42418.9
44236.8
44509.6
41075.1
37223.5
34480.2
32275.3
30796.2
30824.3
32010.5
33559.1
35068
36414
37587.7
38590.4
39407.7
40116.6
41006.1
42418.9
44236.8
44509.6
41075.1
37210.5
34695.3
32407.6
30585
30217.3
31233.1
32833.9
34550.2
36227.5
37859.7
39478.7
41084.8
42644
44017.7
44803.5
44560.2
43015.9
40219.7
37210.5
34695.3
32407.6
30585
30217.3
31233.1
32833.9
34550.2
36227.5
37859.7
39478.7
41084.8
42644
44017.7
44803.5
44560.2
43015.9
40219.7
37108.4
34979.7
32934.5
31033
30185.8
30788.9
32247.4
34047.3
36001.2
38105.1
40401.8
42827.6
45034.8
46298.5
45973.7
44284.1
41983
39505.2
37108.4
34979.7
32934.5
31033
30185.8
30788.9
32247.4
34047.3
36001.2
38105.1
40401.8
42827.6
45034.8
46298.5
45973.7
44284.1
41983
39505.2
37115.1
35296.2
33511.1
31748.2
30661.3
30854.3
32060.3
33822
35930.7
38351.9
41059.4
43814.5
45957.3
46610.7
45531.2
43453.1
41212.5
39094.4
37115.1
35296.2
33511.1
31748.2
30661.3
30854.3
32060.3
33822
35930.7
38351.9
41059.4
43814.5
45957.3
46610.7
45531.2
43453.1
41212.5
39094.4
37121.7
35539.5
33968
32427
31358.1
31308.6
32258.9
33882.5
35965.6
38411
41078.5
43574.6
45176.7
45276.7
44047.5
42252.4
40454.9
38761
37121.7
35539.5
33968
32427
31358.1
31308.6
32258.9
33882.5
35965.6
38411
41078.5
43574.6
45176.7
45276.7
44047.5
42252.4
40454.9
38761
36942.7
35581.2
34220.5
32941.6
32049.6
31931.4
32664.5
34054.5
35907.2
38076.1
40342
42277.1
43315.6
43181
42181.9
40871
39564
38274.9
36942.7
35581.2
34220.5
32941.6
32049.6
31931.4
32664.5
34054.5
35907.2
38076.1
40342
42277.1
43315.6
43181
42181.9
40871
39564
38274.9
36386.3
35283.5
34189.6
33219.5
32579
32494.5
33039.2
34114.6
35578
37281.3
38992.5
40348.3
40995.1
40855.4
40181.3
39301.3
38384.8
37427.5
36386.3
35283.5
34189.6
33219.5
32579
32494.5
33039.2
34114.6
35578
37281.3
38992.5
40348.3
40995.1
40855.4
40181.3
39301.3
38384.8
37427.5
35287.3
34511.8
33766.4
33147.1
32772.7
32751.5
33125.7
33861.4
34885.9
36083.8
37249.4
38115.5
38492.6
38383.4
37945.4
37355.7
36712.6
36027.9
35287.3
34511.8
33766.4
33147.1
32772.7
32751.5
33125.7
33861.4
34885.9
36083.8
37249.4
38115.5
38492.6
38383.4
37945.4
37355.7
36712.6
36027.9
33580.2
33194.7
32846.6
32577.4
32435.7
32464
32691.8
33134.8
33780.1
34540.4
35238.5
35689.6
35811.4
35641.8
35283.9
34845.5
34402
33981.7
33580.2
33194.7
32846.6
32577.4
32435.7
32464
32691.8
33134.8
33780.1
34540.4
35238.5
35689.6
35811.4
35641.8
35283.9
34845.5
34402
33981.7
31540.2
31537.4
31544
31550.3
31560.5
31591.5
31680
31879.2
32215.4
32622.4
32947.8
33062.6
32943.3
32654.2
32293.1
31956.3
31713
31583.6
31540.2
31537.4
31544
31550.3
31560.5
31591.5
31680
31879.2
32215.4
32622.4
32947.8
33062.6
32943.3
32654.2
32293.1
31956.3
31713
31583.6
30103.2
30383.4
30640.5
30807
30840.6
30752.2
30605
30480.7
30439.4
30491.3
30577.9
30595.1
30471.3
30227.6
29960.7
29778.4
29746.8
29869.7
30103.2
30383.4
30640.5
30807
30840.6
30752.2
30605
30480.7
30439.4
30491.3
30577.9
30595.1
30471.3
30227.6
29960.7
29778.4
29746.8
29869.7
)
;
    }
}


// ************************************************************************* //
