/*--------------------------------*- C++ -*----------------------------------*\
| =========                 |                                                 |
| \\      /  F ield         | OpenFOAM: The Open Source CFD Toolbox           |
|  \\    /   O peration     | Version:  2312                                  |
|   \\  /    A nd           | Website:  www.openfoam.com                      |
|    \\/     M anipulation  |                                                 |
\*---------------------------------------------------------------------------*/
FoamFile
{
    version     2.0;
    format      ascii;
    arch        "LSB;label=32;scalar=64";
    class       volSymmTensorField;
    location    "0.6";
    object      sigma;
}
// * * * * * * * * * * * * * * * * * * * * * * * * * * * * * * * * * * * * * //

dimensions      [1 -1 -2 0 0 0 0];

internalField   nonuniform List<symmTensor> 
1620
(
(-4219.09 -18339 -1965.75 284.723 1489.38 -21616.4)
(18005.7 -16948.3 3961.89 20633.2 -5413.09 4080.23)
(32765.7 -14786.5 7901.78 30928.4 -8376.85 24296.2)
(41382 -12733.6 10438.3 35768.4 -8966.36 37591.7)
(44664.4 -11024.1 12239.5 36365.2 -8785.19 44173)
(44291.8 -9671.65 13591.5 34131.8 -8411.51 45839.9)
(41795.8 -8623.05 14578.7 30355.5 -8002.12 44392.2)
(38246.9 -7824.37 15252.2 25958.4 -7630.12 41212.8)
(34297.5 -7244.89 15687.8 21498.6 -7353.13 37235.2)
(30227.4 -6876.38 15970.1 17187.4 -7209.72 32924.6)
(25881.1 -6731.59 16161.9 12820 -7221.42 28205.9)
(20559.2 -6848.33 16287.3 7665.12 -7406.97 22375.4)
(13016.1 -7300.57 16334 462.893 -7798.42 14099.5)
(1855.91 -8225.95 16257.5 -10177.5 -8446.55 1755.23)
(-13160.1 -9856.82 15948.3 -24471.6 -9387.27 -15393.2)
(-28685.6 -12394.5 15087.3 -38840.4 -10494.7 -34702)
(-36914.9 -15433.3 12940.8 -44066.3 -11024.9 -48170.3)
(-27422.6 -17760.3 8506.24 -27935.5 -8644.33 -43328.2)
(-4219.09 -18339 1965.75 284.722 -1489.37 -21616.4)
(18005.7 -16948.3 -3961.89 20633.2 5413.09 4080.23)
(32765.7 -14786.5 -7901.78 30928.4 8376.85 24296.2)
(41382 -12733.6 -10438.3 35768.4 8966.36 37591.7)
(44664.4 -11024.1 -12239.5 36365.2 8785.19 44173)
(44291.8 -9671.65 -13591.5 34131.8 8411.51 45839.9)
(41795.8 -8623.05 -14578.7 30355.5 8002.12 44392.2)
(38246.9 -7824.37 -15252.2 25958.4 7630.12 41212.8)
(34297.5 -7244.89 -15687.8 21498.6 7353.13 37235.2)
(30227.4 -6876.38 -15970.1 17187.4 7209.72 32924.6)
(25881.1 -6731.59 -16161.9 12820 7221.42 28205.9)
(20559.2 -6848.33 -16287.3 7665.12 7406.97 22375.4)
(13016.1 -7300.57 -16334 462.893 7798.42 14099.5)
(1855.91 -8225.95 -16257.5 -10177.5 8446.55 1755.23)
(-13160.1 -9856.82 -15948.3 -24471.6 9387.27 -15393.2)
(-28685.6 -12394.5 -15087.3 -38840.4 10494.7 -34702)
(-36914.9 -15433.3 -12940.8 -44066.3 11024.9 -48170.3)
(-27422.6 -17760.3 -8506.24 -27935.5 8644.33 -43328.2)
(-32277.9 -3152.61 -251.755 946.207 -4695.23 -33343.6)
(-20313.1 -2873.79 312.145 6528.05 -13362.2 -14708.2)
(-8204.1 -2717.43 543.884 11315.5 -16490.9 5501.65)
(1426.21 -2543.84 615.549 15477.3 -16674.7 21649.3)
(7675.97 -2321.15 702.809 18110.8 -15971.2 32566.8)
(11126.5 -2070.06 893.162 19256.9 -15210.3 39135.1)
(12553.3 -1817.99 1180.66 19274.6 -14633.1 42384.2)
(12417.1 -1590.77 1518.23 18374.9 -14287.8 43024.3)
(10893.8 -1413.01 1864.29 16593.1 -14173 41505)
(7967.65 -1308.14 2194.16 13835.6 -14278.4 38050)
(3481.62 -1297.7 2489.19 9913.62 -14598.9 32648.4)
(-2845.33 -1402.43 2729.63 4566.11 -15142.9 25039)
(-11368.6 -1649.54 2898.59 -2463.24 -15923.1 14735.9)
(-22239.4 -2080.35 2982.25 -11118 -16903.6 1266.97)
(-34629.1 -2715.99 2944.61 -20229.9 -17853.2 -15082.1)
(-45682.4 -3409.05 2683.68 -26424.2 -18004 -32042.9)
(-50364.2 -3757.99 2077.44 -24256.1 -15430.3 -44414.8)
(-43562.6 -3569.32 1163.31 -10746.9 -7348.53 -44365)
(-32277.9 -3152.61 251.755 946.206 4695.23 -33343.6)
(-20313.1 -2873.79 -312.145 6528.05 13362.2 -14708.2)
(-8204.1 -2717.43 -543.884 11315.5 16490.9 5501.65)
(1426.21 -2543.84 -615.549 15477.3 16674.7 21649.3)
(7675.97 -2321.15 -702.809 18110.8 15971.2 32566.8)
(11126.5 -2070.06 -893.162 19256.9 15210.3 39135.1)
(12553.3 -1817.99 -1180.66 19274.6 14633.1 42384.2)
(12417.1 -1590.77 -1518.23 18374.9 14287.8 43024.3)
(10893.8 -1413.01 -1864.29 16593.1 14173 41505)
(7967.65 -1308.14 -2194.16 13835.6 14278.4 38050)
(3481.62 -1297.7 -2489.19 9913.62 14598.9 32648.4)
(-2845.33 -1402.43 -2729.63 4566.11 15142.9 25039)
(-11368.6 -1649.54 -2898.59 -2463.24 15923.1 14735.9)
(-22239.4 -2080.35 -2982.25 -11118 16903.6 1266.97)
(-34629.1 -2715.99 -2944.61 -20229.9 17853.2 -15082.1)
(-45682.4 -3409.05 -2683.68 -26424.2 18004 -32042.9)
(-50364.2 -3757.99 -2077.44 -24256.1 15430.3 -44414.8)
(-43562.6 -3569.32 -1163.31 -10746.9 7348.53 -44365)
(-27849.3 17065.8 -5173.4 -19655.6 -5673.79 -40819.5)
(-27810 15082.5 -9919.96 -24034.2 -10107.5 -35872.9)
(-23694.9 12572.5 -13093.5 -24340.6 -11423.7 -26605.2)
(-15603.8 10477.7 -15036.1 -19559.6 -11190.4 -14685.4)
(-5965.44 9049.47 -16230.6 -12231.1 -10589.7 -2512.2)
(3259.94 8237.45 -16948.8 -4586.18 -10118.8 8309.13)
(10764.1 7926.04 -17289.2 1944.71 -9919.45 16724.3)
(15650 7985.75 -17274.2 6456.51 -9978.54 21984.9)
(17348.9 8279.24 -16929.6 8379.24 -10214.6 23627.5)
(15571.4 8686.89 -16323.9 7355.2 -10535.1 21448.2)
(10297.9 9144.76 -15553.3 3237.69 -10880.8 15474.2)
(1842.4 9659.53 -14686.4 -3762.9 -11235.8 5995.86)
(-8957.38 10285.4 -13716.3 -12821.3 -11587.9 -6266.68)
(-20424.5 11102.4 -12550.8 -22193.4 -11855 -19855)
(-29956.5 12238.4 -11009.1 -29165.9 -11777.9 -32450.3)
(-34866.1 13848.3 -8766.96 -30895.6 -10726.5 -41514.5)
(-34223.3 15814.2 -5333.15 -26666 -7530.69 -45555.2)
(-30479.9 17290.6 -435.252 -20708.8 -1390.06 -44829.6)
(-27849.3 17065.8 5173.4 -19655.6 5673.79 -40819.5)
(-27810 15082.5 9919.96 -24034.2 10107.5 -35872.9)
(-23694.9 12572.5 13093.5 -24340.6 11423.7 -26605.2)
(-15603.8 10477.7 15036.1 -19559.6 11190.4 -14685.4)
(-5965.44 9049.47 16230.6 -12231.1 10589.7 -2512.2)
(3259.94 8237.45 16948.8 -4586.18 10118.8 8309.13)
(10764.1 7926.04 17289.2 1944.71 9919.45 16724.3)
(15650 7985.75 17274.2 6456.51 9978.54 21984.9)
(17348.9 8279.24 16929.6 8379.24 10214.6 23627.5)
(15571.4 8686.89 16323.9 7355.2 10535.1 21448.2)
(10297.9 9144.76 15553.3 3237.69 10880.8 15474.2)
(1842.4 9659.53 14686.4 -3762.9 11235.8 5995.86)
(-8957.38 10285.4 13716.3 -12821.3 11587.9 -6266.67)
(-20424.5 11102.4 12550.8 -22193.4 11855 -19855)
(-29956.5 12238.4 11009.1 -29165.9 11777.9 -32450.3)
(-34866.1 13848.3 8766.96 -30895.6 10726.5 -41514.5)
(-34223.3 15814.2 5333.15 -26666 7530.69 -45555.2)
(-30479.9 17290.6 435.252 -20708.8 1390.06 -44829.6)
(21581.5 -17789.6 -1906.01 26526.2 1519.01 4010.31)
(26962.3 -15215 7343.11 24823.8 -8392.06 15016.8)
(30701 -12028.9 11058.7 22015.3 -8875.26 25157.6)
(31880.7 -9858 12714.9 19948.1 -7598.14 30412.5)
(31059.7 -8298.34 13913.4 17215.7 -6514.3 32089)
(29104.7 -7036.97 14984.9 13894.1 -5730.52 31425.6)
(26634.2 -5974.25 15862.4 10421.3 -5104.4 29359.6)
(24257.4 -5089.52 16499.1 7346.73 -4583.53 26829.9)
(22476.9 -4370.56 16930 5112.65 -4172.96 24605.9)
(21579.5 -3806.08 17222.5 3950.38 -3880.07 23146.4)
(21575.6 -3396.76 17433.2 3828.7 -3701.13 22555.7)
(22187.4 -3166.42 17594 4429.71 -3630.98 22593.5)
(22882 -3170.16 17718.7 5148.59 -3679.26 22699.1)
(22956 -3517.08 17815.6 5122.52 -3887.52 21998.2)
(21901.3 -4423.7 17859 3470.78 -4346.73 19483.8)
(20322.6 -6177.45 17684.5 289.527 -5270.42 15010.7)
(19745.9 -8894.47 16884.6 -847.023 -7426.77 11206.2)
(18300.2 -13748.4 13293.8 8297.6 -11187.2 7390.66)
(21581.5 -17789.6 1906.01 26526.2 -1519.01 4010.31)
(26962.3 -15215 -7343.11 24823.8 8392.06 15016.8)
(30701 -12028.9 -11058.7 22015.3 8875.26 25157.6)
(31880.7 -9858 -12714.9 19948.1 7598.14 30412.5)
(31059.7 -8298.34 -13913.4 17215.7 6514.3 32089)
(29104.7 -7036.97 -14984.9 13894.1 5730.52 31425.6)
(26634.2 -5974.25 -15862.4 10421.3 5104.4 29359.6)
(24257.4 -5089.52 -16499.1 7346.73 4583.53 26829.9)
(22476.9 -4370.56 -16930 5112.65 4172.96 24605.9)
(21579.5 -3806.08 -17222.5 3950.38 3880.07 23146.4)
(21575.6 -3396.76 -17433.2 3828.7 3701.13 22555.7)
(22187.4 -3166.42 -17594 4429.71 3630.98 22593.5)
(22882 -3170.16 -17718.7 5148.59 3679.26 22699.1)
(22956 -3517.08 -17815.6 5122.52 3887.52 21998.2)
(21901.3 -4423.7 -17859 3470.78 4346.73 19483.8)
(20322.6 -6177.45 -17684.5 289.527 5270.42 15010.7)
(19745.9 -8894.47 -16884.6 -847.023 7426.77 11206.2)
(18300.2 -13748.4 -13293.8 8297.6 11187.2 7390.66)
(-17779.7 -3196.12 367.568 11655.2 -9040.56 -18328)
(-14225.8 -2562.88 1218.01 1874.06 -17145.7 127.535)
(-9579.14 -2368.45 1260.79 -1133.77 -15522.9 14846.4)
(-7599.1 -2359.14 1165.58 -2698.76 -13032.2 22504.7)
(-6064.03 -2315.46 1243.35 -3100.2 -11178.3 27469.5)
(-4707.68 -2139.91 1534.2 -2986.41 -9949.33 30767.3)
(-3697.16 -1858.12 1941.64 -2779.9 -9181.77 32582.4)
(-3131.5 -1540.7 2376.52 -2664.6 -8763.11 33119.7)
(-3015.91 -1246.41 2793.98 -2702.39 -8621.38 32663.4)
(-3304.5 -1014.34 3177.27 -2890.66 -8705.78 31507.5)
(-3894.27 -874.33 3517.03 -3154.25 -8987.16 29929.7)
(-4593.51 -858.296 3803.47 -3314.4 -9470.21 28190.4)
(-5162.87 -1010.81 4026.99 -3129.43 -10205.1 26459.6)
(-5490.53 -1397.88 4172.51 -2468.02 -11291.3 24586.5)
(-5761.03 -2084.3 4191 -1441.72 -12874.2 21815.1)
(-6498.25 -2978.16 3945.97 -18.842 -15113.2 16621.5)
(-9917.32 -3668.82 3239.76 2537.74 -17461.8 5084.3)
(-15218.3 -3825.43 1709.01 11688 -12453.4 -14095.4)
(-17779.7 -3196.12 -367.568 11655.2 9040.56 -18328)
(-14225.8 -2562.88 -1218.01 1874.06 17145.7 127.535)
(-9579.14 -2368.45 -1260.79 -1133.77 15522.9 14846.4)
(-7599.1 -2359.14 -1165.58 -2698.76 13032.2 22504.7)
(-6064.03 -2315.46 -1243.35 -3100.2 11178.3 27469.5)
(-4707.68 -2139.91 -1534.2 -2986.41 9949.33 30767.3)
(-3697.16 -1858.12 -1941.64 -2779.9 9181.77 32582.4)
(-3131.5 -1540.7 -2376.52 -2664.6 8763.11 33119.7)
(-3015.91 -1246.41 -2793.98 -2702.39 8621.38 32663.4)
(-3304.5 -1014.34 -3177.27 -2890.66 8705.78 31507.5)
(-3894.27 -874.33 -3517.03 -3154.25 8987.16 29929.7)
(-4593.51 -858.296 -3803.47 -3314.4 9470.21 28190.4)
(-5162.87 -1010.81 -4026.99 -3129.43 10205.1 26459.6)
(-5490.53 -1397.88 -4172.51 -2468.02 11291.3 24586.5)
(-5761.03 -2084.3 -4191 -1441.72 12874.2 21815.1)
(-6498.25 -2978.16 -3945.97 -18.842 15113.2 16621.5)
(-9917.32 -3668.82 -3239.76 2537.74 17461.8 5084.3)
(-15218.3 -3825.43 -1709.01 11688 12453.4 -14095.4)
(-21580.3 16999.2 -9246.12 -19805.4 -10280.6 -34434.6)
(-23443.6 11945.3 -15908 -29776.1 -12206.5 -24700.1)
(-25161 7939.75 -18270.2 -34544.7 -9962.15 -19607.4)
(-23902.8 5444.19 -19072.7 -34550.8 -7931.92 -15232.6)
(-18453.5 3971.02 -19407 -30079.1 -6597.53 -8529.46)
(-10896 3242.76 -19630.7 -23563.8 -5854.33 -616.206)
(-3601.65 3119.85 -19794.4 -17267.4 -5601.64 6610.98)
(1906.61 3486.32 -19804.1 -12439.9 -5768.34 11849.1)
(4884.52 4186.98 -19541.9 -9558.02 -6253.72 14461.2)
(5182.41 5024.24 -18956.5 -8640.3 -6913.46 14361.4)
(3180.03 5811.66 -18103.5 -9388 -7606.58 11955.6)
(-269.109 6449.96 -17114.5 -11200 -8265.93 8049.3)
(-4047.32 6965.25 -16109.9 -13234.3 -8928.39 3595.68)
(-7212.59 7503.83 -15129.7 -14715.8 -9697.51 -794.296)
(-9587.12 8378.3 -14096 -15413.3 -10663.1 -5521.81)
(-12096.4 10191.8 -12646.1 -15583.9 -11674 -12444.7)
(-17089.8 13664.1 -9508.48 -15756 -11108.1 -25189.7)
(-20684.9 17784 -1880.38 -13326.2 -2801.05 -37778.7)
(-21580.3 16999.2 9246.12 -19805.4 10280.6 -34434.6)
(-23443.6 11945.3 15908 -29776.1 12206.5 -24700.1)
(-25161 7939.75 18270.2 -34544.7 9962.15 -19607.4)
(-23902.8 5444.19 19072.7 -34550.8 7931.92 -15232.6)
(-18453.5 3971.02 19407 -30079.1 6597.53 -8529.46)
(-10896 3242.76 19630.7 -23563.8 5854.33 -616.206)
(-3601.65 3119.85 19794.4 -17267.4 5601.64 6610.98)
(1906.61 3486.32 19804.1 -12439.9 5768.34 11849.1)
(4884.52 4186.98 19541.9 -9558.02 6253.72 14461.2)
(5182.41 5024.24 18956.5 -8640.3 6913.46 14361.4)
(3180.03 5811.66 18103.5 -9388 7606.58 11955.6)
(-269.109 6449.96 17114.5 -11200 8265.93 8049.3)
(-4047.32 6965.25 16109.9 -13234.3 8928.39 3595.68)
(-7212.59 7503.83 15129.7 -14715.8 9697.51 -794.296)
(-9587.12 8378.3 14096 -15413.3 10663.1 -5521.81)
(-12096.4 10191.8 12646.1 -15583.9 11674 -12444.7)
(-17089.8 13664.1 9508.48 -15756 11108.1 -25189.7)
(-20684.9 17784 1880.38 -13326.2 2801.05 -37778.7)
(12265.5 -10333.2 8200.22 20933.8 -14514.2 15089.4)
(26776 -8179.48 14046.6 15449.2 -8620.68 27436.1)
(32055.2 -6087.71 14507.9 17498 -5678.13 33853.5)
(32799.6 -5234.21 14415.8 17520.6 -4191.6 36826.8)
(32275.1 -4684.08 14729.6 16365.8 -3318.57 38311.7)
(31182.6 -3955.06 15492.5 14365.3 -2692.45 38110)
(29829.8 -3056.18 16355.3 12117.5 -2146.93 36569.4)
(28594.1 -2147.57 17073.2 10198.3 -1645.52 34495.4)
(27865.6 -1314.06 17581.4 9004.98 -1192.74 32615.1)
(27862.8 -564.476 17896.2 8711.1 -786.893 31337.5)
(28522.2 116.684 18047.9 9228.29 -409.116 30711.7)
(29479.8 737.457 18062.1 10178.2 -21.9626 30450.7)
(30084.2 1295.55 17967.5 10838.3 432.712 29925)
(29391.8 1790.79 17785.6 10029.5 1036.93 28030.7)
(26464.8 2237.57 17442.9 6235.99 1926.93 23222.2)
(21465.7 2857.72 16636.8 -1278.01 3405.92 14667.1)
(14377.9 4884.65 15317.3 -9442.55 6176.1 5381.74)
(4295.67 6349.7 11409.9 -1803.26 12172.5 12623.1)
(12265.5 -10333.2 -8200.22 20933.8 14514.2 15089.4)
(26776 -8179.48 -14046.6 15449.2 8620.68 27436.1)
(32055.2 -6087.71 -14507.9 17498 5678.13 33853.5)
(32799.6 -5234.21 -14415.8 17520.6 4191.6 36826.8)
(32275.1 -4684.08 -14729.6 16365.8 3318.57 38311.7)
(31182.6 -3955.06 -15492.5 14365.3 2692.45 38110)
(29829.8 -3056.18 -16355.3 12117.5 2146.93 36569.4)
(28594.1 -2147.57 -17073.2 10198.3 1645.52 34495.4)
(27865.6 -1314.06 -17581.4 9004.98 1192.74 32615.1)
(27862.8 -564.476 -17896.2 8711.1 786.892 31337.5)
(28522.2 116.684 -18047.9 9228.29 409.116 30711.7)
(29479.8 737.457 -18062.1 10178.2 21.9625 30450.7)
(30084.2 1295.55 -17967.5 10838.3 -432.712 29925)
(29391.8 1790.79 -17785.6 10029.5 -1036.93 28030.7)
(26464.8 2237.57 -17442.9 6235.99 -1926.93 23222.2)
(21465.7 2857.72 -16636.8 -1278.01 -3405.92 14667.1)
(14377.9 4884.65 -15317.3 -9442.55 -6176.1 5381.74)
(4295.67 6349.7 -11409.9 -1803.26 -12172.5 12623.1)
(-30635.1 -740.623 2041.71 -30651.1 -10888.8 -4895.54)
(-18396.7 -662.624 2303.95 -20220.9 -4802.2 12846.2)
(-10660.9 -968.583 1639.84 -11952.6 -3144.17 23457.3)
(-7798.56 -1463.93 1059.62 -8729.3 -2376.9 29120.4)
(-5804.44 -1848.98 928.796 -6815.22 -1936.77 33423)
(-4182.57 -1875.71 1243.17 -5649.2 -1645.89 36201.6)
(-2985.19 -1579.79 1761.65 -4954.3 -1476.56 37427.7)
(-2244.96 -1137.66 2306.91 -4544.22 -1432.18 37448.3)
(-1968.83 -687.01 2805.19 -4387.22 -1487.28 36602.1)
(-2161.5 -293.043 3232.45 -4523.41 -1596.58 35130.1)
(-2796.4 17.9292 3586.77 -4960.2 -1713.56 33224.1)
(-3756.38 218.95 3878.97 -5605.97 -1791.72 31086.5)
(-4850.53 261.18 4115 -6339.69 -1777.66 28910.5)
(-6031.16 87.6233 4263.65 -7314.01 -1623.17 26641.8)
(-7688.14 -319.332 4223.3 -9320.09 -1318.35 23618.2)
(-10937.8 -829.609 3826.54 -14037.6 -939.557 18321.5)
(-18249.6 -973.844 3159.18 -23750.6 -877.524 8670.23)
(-30215.6 -650.602 2349.26 -35495.3 -4186.87 -3284.63)
(-30635.1 -740.623 -2041.71 -30651.1 10888.8 -4895.54)
(-18396.7 -662.624 -2303.95 -20220.9 4802.2 12846.2)
(-10660.9 -968.583 -1639.84 -11952.6 3144.17 23457.3)
(-7798.56 -1463.93 -1059.62 -8729.3 2376.9 29120.4)
(-5804.44 -1848.98 -928.796 -6815.22 1936.77 33423)
(-4182.57 -1875.71 -1243.17 -5649.2 1645.89 36201.6)
(-2985.19 -1579.79 -1761.65 -4954.3 1476.56 37427.7)
(-2244.96 -1137.66 -2306.91 -4544.22 1432.18 37448.3)
(-1968.83 -687.01 -2805.19 -4387.22 1487.28 36602.1)
(-2161.5 -293.043 -3232.45 -4523.41 1596.58 35130.1)
(-2796.4 17.9292 -3586.77 -4960.2 1713.56 33224.1)
(-3756.38 218.95 -3878.97 -5605.97 1791.72 31086.5)
(-4850.53 261.18 -4115 -6339.69 1777.66 28910.5)
(-6031.16 87.6233 -4263.65 -7314.01 1623.17 26641.8)
(-7688.14 -319.332 -4223.3 -9320.09 1318.35 23618.2)
(-10937.8 -829.609 -3826.54 -14037.6 939.557 18321.5)
(-18249.6 -973.844 -3159.18 -23750.6 877.525 8670.23)
(-30215.6 -650.602 -2349.26 -35495.3 4186.87 -3284.63)
(-42264.3 -1862.64 -14953.1 -55978.6 4060.12 -28186.1)
(-34601.9 -1825.21 -19699.6 -50882.8 2712.52 -25589.2)
(-34319.7 -1743.81 -20765.5 -49113.1 1754.52 -23094)
(-31822 -2204.18 -21066.5 -45635.4 1367.46 -19127.6)
(-25332.2 -2749.39 -21021.6 -39116.8 1167.15 -12424.9)
(-16932 -3007.08 -20990.5 -31651.7 1019.14 -4709.79)
(-9172.07 -2773.61 -21116.6 -25364.8 769.26 2042.63)
(-3552.73 -2014.78 -21278.2 -21169.9 272.355 6727.15)
(-803.778 -842.58 -21247.8 -19247.7 -505.406 8805.25)
(-1094.44 500.9 -20838 -19393.7 -1453.77 8178.26)
(-4007.91 1693.46 -19987.2 -21122.2 -2359.77 5262.06)
(-8528.9 2434.12 -18810.6 -23756.2 -3005.68 984.779)
(-13277.9 2598.99 -17595 -26620.5 -3308.04 -3493.5)
(-17136.6 2355.44 -16680 -29343.8 -3410.93 -7393.38)
(-20021.3 2092.89 -16293.4 -32254.4 -3626.55 -11008.5)
(-22647.3 2347.63 -16502.1 -36135 -4398.06 -15436)
(-29188.4 4281.45 -16720.1 -43860.2 -6876.3 -24798.9)
(-43277.7 9620.64 -10852.7 -43273.8 -14279.4 -41437.9)
(-42264.3 -1862.64 14953.1 -55978.6 -4060.12 -28186.1)
(-34601.9 -1825.21 19699.6 -50882.8 -2712.52 -25589.2)
(-34319.7 -1743.81 20765.5 -49113.1 -1754.52 -23094)
(-31822 -2204.18 21066.5 -45635.4 -1367.46 -19127.6)
(-25332.2 -2749.39 21021.6 -39116.8 -1167.15 -12424.9)
(-16932 -3007.08 20990.5 -31651.7 -1019.14 -4709.79)
(-9172.07 -2773.61 21116.6 -25364.8 -769.26 2042.63)
(-3552.73 -2014.78 21278.2 -21169.9 -272.355 6727.15)
(-803.778 -842.58 21247.8 -19247.7 505.406 8805.25)
(-1094.44 500.9 20838 -19393.7 1453.77 8178.26)
(-4007.91 1693.46 19987.2 -21122.2 2359.77 5262.06)
(-8528.9 2434.12 18810.6 -23756.2 3005.68 984.779)
(-13277.9 2598.99 17595 -26620.5 3308.04 -3493.5)
(-17136.6 2355.44 16680 -29343.8 3410.93 -7393.38)
(-20021.3 2092.89 16293.4 -32254.4 3626.55 -11008.5)
(-22647.3 2347.63 16502.1 -36135 4398.06 -15436)
(-29188.4 4281.45 16720.1 -43860.2 6876.3 -24798.9)
(-43277.7 9620.64 10852.7 -43273.8 14279.4 -41437.9)
(15011.2 9732.96 13067.9 7752.81 10347 12472)
(25001.5 3724.27 15448.8 10297.1 4635.74 26759.3)
(28950 1194.27 15124.7 13564.2 2100.93 32100.5)
(30034.7 -375.956 14600.1 14890.2 968.764 35841.4)
(29859.9 -1212.66 14609.8 14406 587.272 38158.3)
(29303.1 -1127.21 15230.2 12842.5 687.811 38483.3)
(28688.6 -400.902 16091.8 11098.8 1008.58 37285.4)
(28238.2 554.382 16872 9764.33 1407.51 35494)
(28217.8 1528.33 17430.7 9133.25 1835.42 33802.5)
(28788.3 2489.06 17723.3 9306.34 2285.32 32525.5)
(29865.8 3474.17 17729.1 10197.6 2773.5 31635)
(31086 4522.32 17439.3 11500.5 3347.91 30817.4)
(31809.7 5663.16 16870.9 12592.1 4104.9 29457.5)
(31103.5 6957.07 16022.8 12390.8 5174.04 26440.9)
(27958.2 8539.68 14684.6 9581.13 6654.6 20045.4)
(21940.1 10714.9 12163.5 3901.12 8458.37 8550.19)
(12933.5 14133.1 7530.55 66.2467 9070.97 -7179.03)
(9099.25 16758.8 -1646.47 12114.6 -653.549 -10590.7)
(15011.2 9732.96 -13067.9 7752.81 -10347 12472)
(25001.5 3724.27 -15448.8 10297.1 -4635.74 26759.3)
(28950 1194.27 -15124.7 13564.2 -2100.93 32100.5)
(30034.7 -375.956 -14600.1 14890.2 -968.764 35841.4)
(29859.9 -1212.66 -14609.8 14406 -587.272 38158.3)
(29303.1 -1127.21 -15230.2 12842.5 -687.811 38483.3)
(28688.6 -400.902 -16091.8 11098.8 -1008.58 37285.4)
(28238.2 554.382 -16872 9764.33 -1407.51 35494)
(28217.8 1528.33 -17430.7 9133.25 -1835.42 33802.5)
(28788.3 2489.06 -17723.3 9306.34 -2285.32 32525.5)
(29865.8 3474.17 -17729.1 10197.6 -2773.5 31635)
(31086 4522.32 -17439.3 11500.5 -3347.91 30817.4)
(31809.7 5663.16 -16870.9 12592.1 -4104.9 29457.5)
(31103.5 6957.07 -16022.8 12390.8 -5174.04 26440.9)
(27958.2 8539.68 -14684.6 9581.13 -6654.6 20045.4)
(21940.1 10714.9 -12163.5 3901.12 -8458.37 8550.19)
(12933.5 14133.1 -7530.55 66.2468 -9070.97 -7179.03)
(9099.25 16758.8 1646.47 12114.6 653.549 -10590.7)
(-27369 3061.16 1643.57 -2893.79 13674.6 -23796.5)
(-16692 1680.11 2413.18 -7107.39 15869.5 3841.28)
(-9647.77 423.687 2020.82 -5381.05 12035.8 18556.6)
(-6204.85 -746.182 1384.97 -3829.85 9204.96 26792.4)
(-3790.62 -1620.81 1129.71 -2638.2 7478.01 32743.8)
(-2073.98 -1857.55 1368.95 -2186.38 6549.65 36303.5)
(-938.849 -1531.03 1833.8 -2158.99 6046.41 37777.5)
(-263.57 -941.298 2312.7 -2222.01 5715.67 37889.9)
(28.6275 -307.602 2722.85 -2302.04 5472.44 37139.4)
(-55.4945 283.77 3040.53 -2472.3 5325.11 35738.7)
(-554.489 817.12 3273.98 -2798.83 5330.11 33737.7)
(-1494.27 1268.85 3459.45 -3254.18 5610.74 31140.4)
(-2827.42 1565.9 3625.19 -3750.29 6383.02 28006.8)
(-4435.46 1646.96 3710.36 -4261.77 7870.55 24418)
(-6236.75 1569.48 3532.07 -4772.77 10171.6 20094.2)
(-8643.01 1506.88 2856.31 -5123.83 13312.3 13457.9)
(-14031.5 1840.82 1708.27 -4639.17 16570.9 -323.193)
(-24736.2 3024.91 473.265 1023.5 10805.5 -25932.4)
(-27369 3061.16 -1643.57 -2893.79 -13674.6 -23796.5)
(-16692 1680.11 -2413.18 -7107.39 -15869.5 3841.28)
(-9647.77 423.687 -2020.82 -5381.05 -12035.8 18556.6)
(-6204.85 -746.182 -1384.97 -3829.85 -9204.96 26792.4)
(-3790.62 -1620.81 -1129.71 -2638.2 -7478.01 32743.8)
(-2073.98 -1857.55 -1368.95 -2186.38 -6549.65 36303.5)
(-938.849 -1531.03 -1833.8 -2158.99 -6046.41 37777.5)
(-263.57 -941.298 -2312.7 -2222.01 -5715.67 37889.9)
(28.6275 -307.602 -2722.85 -2302.04 -5472.44 37139.4)
(-55.4945 283.77 -3040.53 -2472.3 -5325.11 35738.7)
(-554.489 817.12 -3273.98 -2798.83 -5330.11 33737.7)
(-1494.27 1268.85 -3459.45 -3254.18 -5610.74 31140.4)
(-2827.42 1565.9 -3625.19 -3750.29 -6383.02 28006.8)
(-4435.46 1646.96 -3710.36 -4261.77 -7870.55 24418)
(-6236.75 1569.48 -3532.07 -4772.77 -10171.6 20094.2)
(-8643.01 1506.88 -2856.31 -5123.83 -13312.3 13457.9)
(-14031.5 1840.82 -1708.27 -4639.17 -16570.9 -323.193)
(-24736.2 3024.91 -473.265 1023.5 -10805.5 -25932.4)
(-27720.3 -17338.8 -2450.55 -18638.3 3723.82 -43152.8)
(-28839.1 -13798.1 -12263.1 -28578.4 12442.7 -32996.7)
(-29633.9 -10947.4 -16591.2 -35323.7 11705 -25855.4)
(-28606.8 -9840.07 -18768.2 -36860 9810.45 -20543)
(-23173.6 -9730.77 -19743.6 -33241.1 8240.45 -13298)
(-15339.5 -9687.31 -20178.2 -27799.3 7234.99 -5648.99)
(-7883.29 -9141.36 -20607.2 -23232.4 6574.33 663.004)
(-2479.38 -7967.88 -21095.1 -20565.3 5899.01 4870.38)
(49.9634 -6290.35 -21423.4 -19956.8 5010.72 6600.2)
(-548.916 -4394.75 -21327.7 -21153 3945.64 5737.06)
(-3938.97 -2705.1 -20603.7 -23559.9 2954.14 2597.69)
(-9121.12 -1745 -19229.3 -26389.1 2450.62 -1980.93)
(-14489.4 -1891.26 -17575.9 -28987.8 2796.87 -6769.37)
(-18364.5 -2995.08 -16313.2 -30898.2 3954.02 -10569.7)
(-19950.5 -4614.98 -15824.6 -31689 5626.59 -12957)
(-19389.5 -6763.87 -16011.9 -31003.9 7871.38 -14596.5)
(-18110.6 -10104 -16082.1 -28631.7 10995.9 -18187.2)
(-22516.1 -15134.2 -11191.7 -23296.5 11776 -32508.7)
(-27720.3 -17338.8 2450.55 -18638.3 -3723.82 -43152.8)
(-28839.1 -13798.1 12263.1 -28578.4 -12442.7 -32996.7)
(-29633.9 -10947.4 16591.2 -35323.7 -11705 -25855.4)
(-28606.8 -9840.07 18768.2 -36860 -9810.45 -20543)
(-23173.6 -9730.77 19743.6 -33241.1 -8240.45 -13298)
(-15339.5 -9687.31 20178.2 -27799.3 -7234.99 -5648.99)
(-7883.29 -9141.36 20607.2 -23232.4 -6574.33 663.004)
(-2479.38 -7967.88 21095.1 -20565.3 -5899.01 4870.38)
(49.9635 -6290.35 21423.4 -19956.8 -5010.72 6600.2)
(-548.916 -4394.75 21327.7 -21153 -3945.64 5737.06)
(-3938.97 -2705.1 20603.7 -23559.9 -2954.14 2597.69)
(-9121.12 -1745 19229.3 -26389.1 -2450.62 -1980.93)
(-14489.4 -1891.26 17575.9 -28987.8 -2796.87 -6769.37)
(-18364.5 -2995.08 16313.2 -30898.2 -3954.02 -10569.7)
(-19950.5 -4614.98 15824.6 -31689 -5626.59 -12957)
(-19389.5 -6763.87 16011.9 -31003.9 -7871.38 -14596.5)
(-18110.6 -10104 16082.1 -28631.7 -10995.9 -18187.2)
(-22516.1 -15134.2 11191.7 -23296.5 -11776 -32508.7)
(10345.2 13991.1 8770.82 6353.39 7528.41 -4313.33)
(16470.4 9954.28 12285.5 7890.39 8447.87 9368.77)
(22414.4 6306.52 13521.1 11336.4 6600 20973.4)
(25021.3 3424.02 13763.3 12909.3 4744.83 28638.7)
(25671.9 1667.39 13972.9 12481.2 3801.25 33105.1)
(25629.9 1264.91 14517.8 10898.8 3630.51 34453.6)
(25551.4 1827.6 15268.8 9256.12 3799.96 33753.5)
(25673.7 2811.76 15973.4 8137.86 4091.86 32251.9)
(26170.5 3917.32 16461.9 7733.72 4441.33 30707.1)
(27151 5084.81 16635.1 8067.55 4828.48 29388.2)
(28525.8 6365.57 16411.5 9055.6 5247.98 28189.5)
(29920.4 7814.78 15721.5 10464.2 5723.11 26710.6)
(30626.6 9439 14555.7 11756.9 6328.75 24276.1)
(29632.7 11203.6 12958 11949.9 7132.51 19875.6)
(25976.1 13048.9 10822.8 10028.2 7976.37 12309.1)
(19758.9 14865.1 7693.67 6535.9 8132.86 1432.06)
(14254.8 16395.6 3132.67 6153.03 5788.07 -8056.9)
(11794.5 16609.4 -2794.84 9240.24 -936.061 -9764.06)
(10345.2 13991.1 -8770.82 6353.39 -7528.41 -4313.33)
(16470.4 9954.28 -12285.5 7890.39 -8447.87 9368.77)
(22414.4 6306.52 -13521.1 11336.4 -6600 20973.4)
(25021.3 3424.02 -13763.3 12909.3 -4744.83 28638.7)
(25671.9 1667.39 -13972.9 12481.2 -3801.25 33105.1)
(25629.9 1264.91 -14517.8 10898.8 -3630.51 34453.6)
(25551.4 1827.6 -15268.8 9256.12 -3799.96 33753.5)
(25673.7 2811.76 -15973.4 8137.86 -4091.86 32251.9)
(26170.5 3917.32 -16461.9 7733.72 -4441.33 30707.1)
(27151 5084.81 -16635.1 8067.55 -4828.48 29388.2)
(28525.8 6365.57 -16411.5 9055.6 -5247.98 28189.5)
(29920.4 7814.78 -15721.5 10464.2 -5723.11 26710.6)
(30626.6 9439 -14555.7 11756.9 -6328.75 24276.1)
(29632.7 11203.6 -12958 11949.9 -7132.51 19875.6)
(25976.1 13048.9 -10822.8 10028.2 -7976.37 12309.1)
(19758.9 14865.1 -7693.67 6535.9 -8132.86 1432.06)
(14254.8 16395.6 -3132.67 6153.03 -5788.07 -8056.9)
(11794.5 16609.4 2794.84 9240.24 936.061 -9764.06)
(-15663.3 3204.56 1299.76 14382.4 7430.35 -16489.7)
(-15489.4 2395.92 1970.56 7093.53 15052.4 -7221.11)
(-10310.9 1100.16 2049.46 5020.53 16008.9 6961.88)
(-5700.01 -467.55 1760.37 4765.92 14351.8 18771.3)
(-2485.29 -1766.08 1614.76 4447.46 12598.1 27366.6)
(-370.873 -2214.69 1784.63 3623.11 11540.8 32508.5)
(986.904 -1879.67 2088.92 2701.25 10990.6 34913.6)
(1818.05 -1160.41 2369.16 1997.29 10647.8 35629.5)
(2280.17 -339.568 2563.64 1558.72 10390.3 35308.2)
(2417.87 482.949 2654.75 1299.41 10215.7 34154.5)
(2130.37 1300.01 2661.46 1136.86 10196.6 32059.7)
(1186.74 2077.45 2657.18 1067.28 10522.9 28739.7)
(-656.507 2680.14 2721.68 1122.62 11498.1 23998.7)
(-3351.44 2986.91 2788.24 1385.58 13224.5 18047.6)
(-6336.17 3078.77 2618.41 2410.99 15211.4 11207)
(-9069.71 3128.88 1999.72 5263.45 16362.1 2993.33)
(-10937 3237.58 936.221 11253.4 14392.3 -6606.01)
(-12363.2 3390.13 -245.861 17646.2 5689.2 -14853)
(-15663.3 3204.56 -1299.76 14382.4 -7430.35 -16489.7)
(-15489.4 2395.92 -1970.56 7093.53 -15052.4 -7221.11)
(-10310.9 1100.16 -2049.46 5020.53 -16008.9 6961.88)
(-5700.01 -467.55 -1760.37 4765.92 -14351.8 18771.3)
(-2485.29 -1766.08 -1614.76 4447.46 -12598.1 27366.6)
(-370.873 -2214.69 -1784.63 3623.11 -11540.8 32508.5)
(986.904 -1879.67 -2088.92 2701.25 -10990.6 34913.6)
(1818.05 -1160.41 -2369.16 1997.29 -10647.8 35629.5)
(2280.17 -339.568 -2563.64 1558.72 -10390.3 35308.2)
(2417.87 482.949 -2654.75 1299.41 -10215.7 34154.5)
(2130.37 1300.01 -2661.46 1136.86 -10196.6 32059.7)
(1186.74 2077.45 -2657.18 1067.28 -10522.9 28739.7)
(-656.507 2680.14 -2721.68 1122.62 -11498.1 23998.7)
(-3351.44 2986.91 -2788.24 1385.58 -13224.5 18047.6)
(-6336.17 3078.77 -2618.41 2410.99 -15211.4 11207)
(-9069.71 3128.88 -1999.72 5263.45 -16362.1 2993.33)
(-10937 3237.58 -936.221 11253.4 -14392.3 -6606.01)
(-12363.2 3390.13 245.861 17646.2 -5689.2 -14853)
(-5731.17 -18530.2 -538.441 4170.73 1240.59 -20937.9)
(-12118.1 -17234.6 -7172.09 -4532.55 8759.07 -22705.7)
(-16938.6 -15717.6 -11832.8 -13849.2 11869.1 -21334.3)
(-17912.5 -15136.6 -14936.6 -18569.9 12001.7 -17091.2)
(-14351.4 -15492.2 -16711.6 -18375 11000.7 -10296.9)
(-7878.03 -15762 -17657.8 -15999.9 10152.4 -3133.83)
(-1202.75 -15150.4 -18473.3 -13924.9 9710.64 2641.64)
(3744.95 -13618.6 -19350.1 -13186.6 9296.94 6414.66)
(5980.9 -11442.2 -20084.3 -14021.7 8612.48 7896.48)
(5156.21 -8991.38 -20364.4 -16232 7636.01 6923.13)
(1459.92 -6756.6 -19864.3 -19212.7 6631.54 3601.33)
(-4298.72 -5419.28 -18396.2 -22103.1 6161.97 -1569.6)
(-10489 -5567.35 -16337.2 -24196.4 6797.44 -7499.78)
(-14920.2 -7029.81 -14591.8 -24797 8396.97 -12453.9)
(-16014 -9133.98 -13528.6 -22687.3 10191.6 -15117.1)
(-13551.5 -11686.3 -12638.2 -16856.5 11565.8 -15809.3)
(-8584.79 -14870.3 -10985.1 -7533.78 11510 -16201.3)
(-4602.51 -17826.5 -6668.94 1995.58 7447.64 -18324.5)
(-5731.17 -18530.2 538.441 4170.73 -1240.59 -20937.9)
(-12118.1 -17234.6 7172.09 -4532.55 -8759.07 -22705.7)
(-16938.6 -15717.6 11832.8 -13849.2 -11869.1 -21334.3)
(-17912.5 -15136.6 14936.6 -18569.9 -12001.7 -17091.2)
(-14351.4 -15492.2 16711.6 -18375 -11000.7 -10296.9)
(-7878.03 -15762 17657.8 -15999.9 -10152.4 -3133.83)
(-1202.75 -15150.4 18473.3 -13924.9 -9710.64 2641.64)
(3744.95 -13618.6 19350.1 -13186.6 -9296.94 6414.66)
(5980.9 -11442.2 20084.3 -14021.7 -8612.48 7896.48)
(5156.21 -8991.38 20364.4 -16232 -7636.01 6923.13)
(1459.92 -6756.6 19864.3 -19212.7 -6631.54 3601.33)
(-4298.72 -5419.28 18396.2 -22103.1 -6161.97 -1569.6)
(-10489 -5567.35 16337.2 -24196.4 -6797.44 -7499.78)
(-14920.2 -7029.81 14591.8 -24797 -8396.97 -12453.9)
(-16014 -9133.98 13528.6 -22687.3 -10191.6 -15117.1)
(-13551.5 -11686.3 12638.2 -16856.5 -11565.8 -15809.3)
(-8584.79 -14870.3 10985.1 -7533.78 -11510 -16201.3)
(-4602.51 -17826.5 6668.94 1995.58 -7447.64 -18324.5)
(8756.59 14717.6 6803.88 5842.26 5017.04 -8503.54)
(11370.7 12152.5 9830.22 6413.9 7376.17 -658.494)
(15950.4 9156.11 11669.7 8776.04 7461.03 9616.24)
(19315.2 6270.33 12564.3 10417.2 6586.21 18915.9)
(20893 4251.27 13054.8 10289.1 6005.49 25305.1)
(21455.9 3534.51 13547.9 8918.35 5930.26 28040.3)
(21836.1 3860.36 14116 7396.71 6053.91 28177)
(22407.7 4746.06 14628 6358.01 6229.43 27133.4)
(23317.4 5881.68 14929.4 5977.47 6432.17 25778.3)
(24627.3 7179.55 14889.2 6243.39 6643.74 24417.7)
(26235.6 8676.95 14377.9 7067.8 6833.63 22931.3)
(27738.9 10414.3 13278.9 8257.65 6988.08 20861.9)
(28319.6 12324.6 11590.7 9360.73 7148.67 17526.5)
(26884.2 14182 9506.4 9583.1 7350.45 12263.8)
(22760.9 15682.7 7193.02 8301.57 7366.78 4872.22)
(16832.8 16632 4460.42 6218.16 6513.99 -3595.98)
(11813.5 16941.7 1028.03 5500.8 3916.05 -10024.9)
(9198.21 16384.1 -2927.96 6072.5 -525.749 -11748.3)
(8756.59 14717.6 -6803.88 5842.26 -5017.04 -8503.54)