/*--------------------------------*- C++ -*----------------------------------*\
| =========                 |                                                 |
| \\      /  F ield         | OpenFOAM: The Open Source CFD Toolbox           |
|  \\    /   O peration     | Version:  2312                                  |
|   \\  /    A nd           | Website:  www.openfoam.com                      |
|    \\/     M anipulation  |                                                 |
\*---------------------------------------------------------------------------*/
FoamFile
{
    version     2.0;
    format      ascii;
    arch        "LSB;label=32;scalar=64";
    class       volSymmTensorField;
    location    "0.6";
    object      sigma;
}
// * * * * * * * * * * * * * * * * * * * * * * * * * * * * * * * * * * * * * //

dimensions      [1 -1 -2 0 0 0 0];

internalField   nonuniform List<symmTensor> 
1620
(
(24396.9 45.494 -83.5912 25739.2 -4577.08 63744.2)
(23842.6 -805.511 2351.56 28590 -12306.8 59989.1)
(21385.3 -3147.74 6106.68 29120 -16253 51292.6)
(18012.8 -6077.2 9708.43 25070.4 -16503.3 39766.7)
(13383 -8296.95 12493.5 15916 -14511.8 26471.5)
(5665.51 -9036.99 14423.2 1438.02 -11551.6 10572.2)
(-7065.05 -8116.05 15624 -18433.7 -8263.55 -9378.06)
(-26545.6 -5827.88 16073.5 -44303.1 -4860.08 -35638.4)
(-38335.8 -2736.34 12638.8 -66059.5 -1243.35 -63208)
(-43794.3 2854.04 -15683 -68390.1 -1650.61 -61880.9)
(-34017.4 5408.31 -17233.9 -49157.1 -5306.88 -36840.8)
(-17575.8 7172.25 -16359.6 -26834.7 -8707.57 -13714.7)
(-5268.18 7742.26 -14760.9 -8338.85 -11845.4 5381)
(3038.82 6921.1 -12407.2 5549.65 -14408.8 21050.8)
(8809.46 4938.49 -9255.09 14805.2 -15740.2 34193.5)
(13770.8 2509.27 -5502.92 20080.6 -14852.7 45569.3)
(18178.4 671.567 -1882.37 22101.7 -10971.7 54429.5)
(21478 30.8186 426.043 22772.2 -4461.94 59719)
(21777 59.9088 559.227 22691.4 2968.69 59532.8)
(19007 -398.753 -1474.11 21858.6 9216.18 54081.3)
(14856.3 -1967.21 -4836.72 19726.4 12951.8 45414.8)
(10654.5 -4206.93 -8446.7 15339.7 14060.5 35242.3)
(6556.98 -6165.69 -11605.1 8183.87 13170.8 24340.3)
(972.731 -7070.84 -14039.1 -2545.28 11032.3 11815.6)
(-8233.03 -6614.03 -15715.5 -17617.3 8199.34 -3991.19)
(-23984.1 -4987.48 -16618.6 -39159.7 4980.19 -26760.6)
(-32066.4 -2691.69 -13360.4 -59132 1276.85 -55144.8)
(-39280 2780.49 15050.8 -65195.6 1479.09 -59465.9)
(-31842.7 6009.57 16774.9 -49977.3 4929.19 -40463.6)
(-17836.6 8368 16236.6 -29794.8 8255.62 -20335.7)
(-6534 9355.04 15028 -11445.7 11463.7 -2113.5)
(1581.83 8698.24 13120.9 3368.31 14320.8 13930.7)
(7547.34 6542.57 10359.9 13885.7 16201.6 28325.7)
(12932.6 3591.39 6728.23 20135 15925 41738)
(18143.3 1119.78 2822.65 22657.2 12153.5 53361.1)
(22305 130.857 95.6148 23607.9 4669.43 61276.8)
(11581.7 -1359.03 1106.58 33520.8 -18322 28045.2)
(8649.4 -8168.43 2366.47 39261.2 -10037.6 10215.8)
(7368.08 -13366.4 2633.38 31373.6 -6510.42 2999.78)
(7043.97 -16640.2 2771.81 20425.8 -4690.55 -3496.24)
(5323.17 -17744.9 2845.73 6370.54 -3465.85 -11840.8)
(1671.66 -16618.6 2878.92 -9598.07 -2517.42 -21988.5)
(-4046.12 -13443.5 2877.76 -26031.6 -1707.99 -33358.5)
(-10590.1 -8675.8 2760.23 -40346.8 -945.339 -44051.1)
(-12718.9 -2956.25 1616.18 -46675.6 -192.673 -48661.9)
(-14051.5 3150.6 -2548.09 -48066.5 -282.009 -50042.9)
(-14003.3 8856.37 -3327.22 -43957.8 -1096.13 -47788.5)
(-8886.52 13635.1 -3421.71 -31126.1 -1941.53 -38646)
(-4037.76 16852.1 -3403.81 -15589 -2849.05 -28209.2)
(-881.778 18044.1 -3335.33 -74.7411 -3908.82 -18565.3)
(553.988 17004.3 -3204.45 13825.9 -5259.28 -10453.6)
(724.281 13761.6 -2978.27 24829.5 -7221.72 -3993.6)
(2536.62 8534.88 -2586.44 33516.6 -10934.1 3963.15)
(5536.07 1524.02 -1101.47 27945.2 -19315.1 22318.4)
(4828.89 -1303.81 -951.99 25780.7 17710.8 20743.3)
(827.624 -8093.78 -2263.75 30772.7 9652.02 1893.19)
(-579.398 -13282.2 -2527.06 22884 6130.17 -5419.77)
(-182.002 -16557.5 -2671.32 12756.4 4363.29 -11113.2)
(-147.714 -17682.8 -2768.93 555.674 3219.33 -17597.6)
(-1186.13 -16590.1 -2833.1 -12716.5 2348.33 -25023.4)
(-3946.05 -13450.8 -2854.84 -26133.1 1597.79 -33335.8)
(-8103.77 -8709.89 -2738.12 -38023.6 870.194 -41566.6)
(-9552.22 -2994.71 -1528.21 -43641.6 121.515 -45456.3)
(-10896.2 3101.93 2605.67 -44985.2 198.315 -46774.2)
(-10723.6 8799.68 3316.9 -40746.2 963.005 -44385.7)
(-6302.12 13566.7 3402.92 -28636.6 1759.68 -35943)
(-1711.52 16787.8 3397.74 -13428.1 2625.59 -25796.8)
(1720.45 18008.9 3353.51 2284.17 3648.5 -15912.7)
(3832.94 17016.8 3251.69 16807.2 4960.77 -7144.68)
(4912.09 13828.5 3054.34 28706.8 6872.02 224.21)
(7425.71 8658.4 2698.69 38128.1 10502 8878.75)
(11214.6 1722.15 1344.43 33555.7 18964.9 28026.7)
(-8137.95 -135.199 -1811.52 -7162.01 3857.04 28341.1)
(-11354.1 -1151.05 -4025.17 -8320.81 9701.68 21240.5)
(-16642.1 -3274.37 -7282.87 -12096.8 12654 9512.5)
(-21272.1 -5799.1 -10445.9 -17984.7 12965 -2763.12)
(-24207.8 -7665.51 -12988.6 -25224.9 11578 -13605.2)
(-24833 -8150.18 -14817 -32025.5 9303.44 -21657.9)
(-22100.9 -7066.7 -15999.9 -35707.1 6642.68 -25296)
(-16188.1 -4723.91 -16566.5 -35318.4 3848.47 -24883.1)
(-5919.92 -1968.43 -13141.5 -34440.8 920.342 -30204.2)
(-12181.3 1792.4 14423.2 -37776.6 1013.1 -31481.2)
(-19866.7 5209.5 15351.8 -40176.3 3648.24 -32281.8)
(-25168.3 7834.69 14938.4 -39881.4 6292.13 -32606.8)
(-28016.8 9115.68 14014 -35874.3 8904.18 -29084)
(-28617.2 8717.3 12501.3 -29677.8 11268.6 -22043.2)
(-27683.2 6752.38 10279.3 -23810.5 12906.2 -12746.5)
(-25550.8 3917.09 7339.34 -20111.9 12906.5 -2231.66)
(-22680.3 1403.57 4122.15 -19057.1 9972.67 7994.21)
(-21763.2 176.633 1885.45 -20798.2 3470.03 13492.4)
(-22393.6 -253.963 1965.45 -21412.8 -4721.47 12859.3)
(-24306 -1478.7 4352.99 -20648.9 -11078.8 6419.99)
(-27977.9 -4006.38 7697.53 -22512.6 -13845.9 -4502.2)
(-30269.3 -6880.82 10743.7 -26399.5 -13695.9 -15095.1)
(-30529.1 -8906.88 13046.6 -31674.9 -11908.3 -23714)
(-28408.1 -9363.01 14605.7 -36527.9 -9388.83 -29344.3)
(-23034.9 -8100.32 15526.2 -38298 -6621.65 -30623.2)
(-14648.6 -5458.83 15783.3 -36013.6 -3821.84 -28029.7)
(-3316.37 -2248.87 11443.5 -33557.8 -929.509 -30866.6)
(-10451.3 1637.59 -15311.3 -34571.3 -1167.62 -26555.7)
(-15304.5 4737.27 -15986.3 -34026 -3910.57 -23835)
(-18476.5 7094.66 -15378.4 -31963.7 -6612.28 -22003.4)
(-19525.8 8191.75 -14217.1 -26735.4 -9184.38 -16819.5)
(-18503.7 7749.73 -12435.7 -19606.7 -11370.5 -8422.62)
(-15943.2 5929.17 -9963.61 -12729.4 -12676.8 2077.56)
(-12262.2 3424.48 -6892.1 -7733.16 -12292.1 13513.7)
(-8339.91 1292.84 -3754.54 -5282.71 -9261.26 24029.5)
(-6902.3 261.015 -1710.02 -5908.74 -3346.77 29509)
(9332.35 243.648 -843.824 11963.7 -4472.75 48655.3)
(10651.3 -393.902 1345.62 16522.9 -12011.6 47480.5)
(11179.6 -2381.06 4939.14 19917.7 -16040.3 42528)
(12134.7 -5013.78 8586.02 20382.7 -16468.1 35979.3)
(13847.7 -7118.74 11567 18072.2 -14653.7 29520.9)
(15218.2 -7924.25 13749.5 13345.2 -11775.4 23027.2)
(14845.4 -7212.51 15204 6568.32 -8400.76 15589.9)
(9801.22 -5295.26 15911.4 -4113.29 -4682.41 3680.35)
(10603.4 -2786.46 12434.4 -14160.1 -590.462 -13656.7)
(5694.22 2592.31 -16343.1 -14383.1 -1131.75 -8126.99)
(8411.52 4567.74 -16823.8 -3197.14 -4984.5 9335.02)
(12550.3 5964.31 -15594.3 5667.69 -8442.45 19786.8)
(13289.9 6384.73 -13725.7 11544.6 -11413.5 26831.3)
(12480.2 5632.45 -11180.4 15409 -13662.4 32704)
(11414 3955.14 -7983.16 17268.6 -14691.9 38173.1)
(11239.4 1989.24 -4374.32 17462.6 -13747.9 43598)
(11569.5 558.616 -1008.61 15992.4 -10190.3 47792.1)
(11891.4 96.4354 1117.63 14225.2 -4273.39 49824.8)
(12071.3 180.799 1289.14 14018.6 2548.2 49660.2)
(12347.1 -101.769 -529.122 15826.4 8467.12 47790.6)
(11905.1 -1328.21 -3682.04 17144.8 12215.7 43593.5)
(11879.7 -3219.1 -7219.72 17143.6 13564.2 38434)
(12906.1 -4975.58 -10456.8 15746.4 12971.7 33406.7)
(14142.7 -5887.1 -13069.5 12690.6 11045.9 28278.2)
(14342.4 -5643.87 -14977.7 7943.56 8257.9 22252.5)
(10159.7 -4453.92 -16198.5 -1145.56 4858.59 11079.4)
(13324 -2889.89 -12954.4 -11182.8 709.27 -9575.5)
(6766.15 2373.26 15956.9 -14679.2 968.681 -9128.62)
(8550.98 5154.62 16763.7 -6148.99 4629.61 3394.57)
(11468.3 7238.79 15907.3 1860.31 8082.3 12072.7)
(11445.9 8106.23 14417.9 7925.57 11203.1 18616.8)
(10004.8 7480.1 12256.8 12350.8 13798.4 24596.8)
(8416.12 5561.71 9340.59 14743.8 15366.2 30735)
(7877.4 3047.83 5733.87 15033.3 14933.6 37444.7)
(8180.17 1016.06 2003.26 13177 11316.9 43513.8)
(8363.95 245.876 -585.01 10764.3 4270.79 47105.6)
(-581.658 -453.868 414.972 22496.9 -19449.1 18758.1)
(-1195.43 -7756.03 2350.24 33028.3 -11618.5 1789.49)
(1416.87 -13196.9 2752.27 28017.5 -7533.28 -2036.72)
(6649.74 -16475.1 2951.16 21892.9 -5447.07 -3114.8)
(12011.9 -17536.2 3092.93 14619.1 -4084.82 -4416.84)
(17058.7 -16378.8 3227.9 7331.7 -3016.8 -5902.13)
(21272.4 -13210.7 3368.38 1028.03 -2007.8 -7371.14)
(24658.7 -8526.99 3365.3 -2951.78 -874.127 -8114.94)
(29754.2 -3000.43 1603.47 -1807.23 399.691 -5689.03)
(30568.7 2935.98 -3420.95 -1165.07 238.865 -4790.83)
(27215.3 8432.94 -4060.16 -1218.15 -988.925 -6196.31)
(24440.5 13180.5 -3950.18 3006.49 -2132.84 -5163.24)
(20056.9 16502 -3752.38 8892.24 -3183.64 -4025.56)
(14537.3 17867.4 -3572.82 15610.3 -4316.16 -3041.48)
(8633.51 17045 -3400.19 22383.6 -5786.51 -2213.01)
(2867.21 14038.9 -3174.12 28176.1 -8066.52 -1511.02)
(309.509 8905.8 -2729.65 33884.8 -12509.9 2721.32)
(134.557 1266.46 -577.525 23768 -20550.5 19740.6)
(34.0545 -434.733 -239.108 20961.5 18251.5 18618.8)
(-902.721 -7668.6 -2248.37 31656.1 10976.2 1413.08)
(1690.98 -13121.1 -2673.3 27220.8 7068.36 -2372.83)
(7106.59 -16436.1 -2899.99 21585.1 5103.86 -3205.33)
(12775.8 -17540 -3073.77 14778.9 3842.14 -4123.69)
(18156 -16426.7 -3231.7 7917.87 2856.01 -5167.67)
(22562.5 -13303.9 -3366.56 1875.29 1916.42 -6305.96)
(25708.1 -8657.14 -3300.46 -2280.84 839.528 -7168.03)
(29498 -3126.79 -1304.6 -2307.39 -429.827 -5951.85)
(29695.8 2804.48 3620.34 -1957.61 -327.435 -5392.9)
(26894 8304.55 4126.63 -1339.29 802.616 -6167.37)
(23986 13051 3988.28 2736.84 1885.88 -5226.17)
(19536.9 16374.9 3783.65 8449.89 2887.03 -4183.01)
(14059.2 17754.7 3602.96 15057.1 3964.14 -3238.79)
(8297.68 16973.3 3437.24 21805.3 5360.03 -2379.11)
(2700.95 14059.5 3235.78 27632 7528.48 -1625.58)
(-87.6897 9087.14 2863.15 33049.4 11798.2 2258.61)
(-346.982 1612.88 951.199 22957.1 19998 19270.1)
(-15479.2 -86.0493 -2783.02 -13289.4 3855.49 21340.2)
(-15098.5 -1342.73 -4945.83 -11196.7 9659.95 17822.2)
(-14377.2 -3520.32 -8102.19 -9485.48 12488.9 11915.2)
(-12316.6 -5943.76 -11148.7 -9058.06 12679.3 6097.29)
(-8216.16 -7615.22 -13557.1 -9409.21 11193.3 2064.6)
(-2229.79 -7864.31 -15193.3 -9466.73 8878.76 445.005)
(5684.06 -6593.6 -16103.2 -7508.05 6321.16 1937.32)
(13311.7 -4250.64 -16361 -4741.13 3842.05 4078.37)
(26497.6 -2103 -10246.1 -2342.42 1282.8 -2183.56)
(19502 1175.29 14350.5 -3681.61 1511.31 1113.33)
(12312.4 4386.95 15090.3 -7036.06 3757.53 -713.915)
(4816.73 7053.32 14971 -9982.15 6085.14 -3606.06)
(-2090.73 8609.86 14363.7 -10743.6 8586.72 -4194.36)
(-8033.75 8578.92 13075.7 -10138.8 10986.8 -2313.06)
(-12740.2 6942.76 10985.4 -9764.98 12690.9 1621.25)
(-15962.5 4329.55 8141.52 -10975 12713.4 7036.2)
(-18067 1873.76 5035.89 -14213.5 9755.16 12470.2)
(-20479.5 476.17 2914.4 -18585.1 3226.7 14779.1)
(-20907 -298.872 3016.85 -18740.3 -4926.09 14440.6)
(-18804.7 -1775.5 5292.78 -14307.6 -11148 11947.4)
(-17001.2 -4340.37 8478.91 -11242.9 -13756.8 6303.29)
(-14164.2 -7094.64 11374.2 -10403.1 -13477.4 596.281)
(-9665.87 -8920.78 13522 -11091.7 -11586.3 -3498.03)
(-3526.74 -9160.09 14875.9 -11819.4 -9014.63 -5287.75)
(4574.74 -7753.96 15509.7 -10458.9 -6318.88 -3945.51)
(12788.2 -5162.39 15371.8 -7846.41 -3786.48 -1809.87)
(26077.7 -2515.96 7527.22 -4383.34 -1189.14 -5782.98)
(18305.9 956.939 -15243.2 -3121.96 -1665.72 3488.82)
(13783.8 3919.98 -15702.2 -3862.48 -4076.74 4694.45)
(8228.41 6390.39 -15366.5 -5224.62 -6489.41 3787.66)
(2924.46 7798.52 -14507.6 -4897.56 -8964.23 4710.89)
(-1799.69 7705.54 -12954.6 -3711.35 -11194.3 7543.95)
(-5650.29 6168.78 -10634.6 -3095.8 -12591.3 11857.6)
(-8477.2 3850.05 -7678.85 -4200.96 -12292 16988.2)
(-10819.8 1772.36 -4642.11 -7397.42 -9326.45 21441.2)
(-13784.1 606.887 -2664.02 -11793.5 -3408.2 22757.2)
(4772.17 346.905 -359.456 8926.29 -4208.35 42951.7)
(6744.6 -374.199 1600.43 13677.2 -11322 42739.5)
(7725.87 -2230.43 4903.32 16999.4 -15272 38608.1)
(8706.54 -4642.79 8345.8 17369.6 -15857.8 32445.5)
(10296.2 -6562.44 11229.5 15204.5 -14216.8 26114.8)
(11734.5 -7261.55 13382.9 11052 -11378.4 19831.5)
(11985.5 -6543.26 14840.3 5615.86 -7846.89 13162.3)
(9046.34 -4728.05 15563.8 -1867.63 -3743.08 3822.09)
(9728.71 -2468.6 13460.8 -9471.73 585.642 -10165.4)
(5382.86 1805.59 -15665.5 -13126 447.672 -10743.2)
(2828.29 3534.57 -16574 -6752.55 -3638.42 3947.48)
(7001.69 4943.74 -15273.3 808.124 -7384.56 14181.9)
(8029.87 5541.31 -13386.9 6051.15 -10372.6 21241.1)
(7908.97 5043.61 -10894.9 10084.4 -12470.6 27531.3)
(7384.93 3663.83 -7840.45 12342.7 -13330.1 33226.4)
(7317.75 2011.52 -4468.35 12989.8 -12397.7 38474)
(7190.98 809.433 -1365.5 11915.9 -9184.64 42095.6)
(6688.97 357.564 608.798 10236.2 -3867.94 43381.8)
(6659.92 287.094 800.888 10083.4 2391.03 43223.9)
(7696.72 -102.917 -869.138 12241.4 7985.62 42346.1)
(7960.07 -1276.89 -3821.29 13753.4 11626.7 39012.9)
(8151.03 -3013.25 -7172.49 13720.8 12988.1 34211.2)
(9140.44 -4598.04 -10268 12367.5 12451.9 29287.1)
(10447.3 -5387.14 -12790.2 9739.52 10541.2 24377.4)
(11279.1 -5113.23 -14643.6 6243.08 7651.17 19214.4)
(9604.27 -3989.74 -15805.1 762.115 3973.43 11259.4)
(12407.1 -2619 -14393.4 -5861.04 -248.617 -4188.3)
(8602.68 1391.92 14933.6 -11920.5 -593.305 -10783.1)
(3916.96 4085.69 16592.9 -8978.27 3303.5 -1838.62)
(6855.69 6275.51 15719.9 -2012.34 7105.51 7042.32)
(6960.46 7357.61 14208.5 3352.48 10319.5 13702.4)
(6071.29 6968.37 12064.1 7840.26 12810.1 20124.9)
(4953.36 5299.48 9227.58 10534.9 14199.1 26485.1)
(4503.56 3073.61 5806.22 11204.1 13715.4 32967)
(4395.84 1282.43 2340.88 9774.31 10379.7 38431.1)
(3927.63 521.517 -67.648 7614.5 3910.73 41363.2)
(-1631.37 -228.241 711.337 16615 -18661.4 24922.2)
(-2328.64 -7115.68 3133.89 34080.6 -15750 4668.78)
(553.923 -12859 3716.13 29346.3 -10177.4 -967.852)
(5717.98 -16173.5 3858.49 22524.9 -7112.66 -2838.74)
(10507.9 -17209.6 3872.36 14504.5 -5152.87 -5021.61)
(14630.8 -16049.3 3859.72 6442.49 -3641.85 -7610.26)
(17746.4 -12937 3856.52 -582.385 -2203.81 -10293.6)
(19987.6 -8381.27 3731.88 -5074.93 -559.23 -12187.8)
(24080.5 -3112.24 2431.46 -4053.79 1281.37 -10504.5)
(25543.3 2368.22 -3307.43 -3157.01 1358.29 -9356.51)
(23206.4 7745.13 -4542.81 -3389.06 -467.178 -9890.3)
(21730.6 12522.9 -4534.59 1027.48 -2142.65 -7764)
(18421.2 15969 -4411.46 7310.39 -3584.81 -5560.64)
(13737.8 17502 -4343.85 14499.7 -5102.09 -3595.73)
(8422.95 16879.7 -4306.17 21718.6 -7111.03 -1896.06)
(2953.33 14165.3 -4195.46 27964.2 -10308 -240.16)
(100.032 9342.8 -3714.59 33553.6 -16179 5807.74)
(-554.484 1718.75 -998.691 17742.5 -19256.3 25627.9)
(-658.13 -208.609 -457.298 15158.4 16851.5 24403.1)
(-1569.5 -6922.79 -2976.56 31384.4 14503.9 4418.41)
(872.491 -12704.9 -3638.19 27747.4 9569.56 -1438.11)
(6008.39 -16112.1 -3851.67 21633.9 6756.19 -3250.43)
(11128.3 -17229.6 -3921.43 14236.7 4922.12 -5024.58)
(15769.3 -16140.5 -3945.3 6806.4 3507.63 -6966.6)
(19349.4 -13100.2 -3948.73 291.857 2179.13 -9009.69)
(21654.9 -8614.42 -3792.33 -4108.98 666.436 -10682.1)
(24445.6 -3392.01 -2398.98 -4164.26 -1128.06 -10165.7)
(24808.3 2042.89 3375.23 -3694.99 -1463.96 -9818.35)
(22565 7457.54 4569.27 -3452.28 142.379 -10040.1)
(20831.7 12304.6 4568.78 646.642 1778.45 -8081.85)
(17465.3 15801.2 4451.54 6699.05 3193.2 -5941.83)
(12934.3 17341.9 4373.93 13820.4 4648.16 -3926.63)
(7853.11 16724.3 4316.92 20997.9 6533.93 -2172.58)
(2499.53 14099.1 4209.35 27077.6 9504 -647.889)
(-670.157 9547.53 3846.76 32178.7 15051.8 4737.99)
(-1409.39 2114.56 1479.79 16693.6 18732.8 24704)
(-9579.91 288.275 -1185.44 -5294.31 4632.79 27383.2)
(-9815.74 -1080.09 -3792.71 -3065.22 11261.1 23308.1)
(-9930.22 -3611 -7417.68 -1927.2 14033 16295.2)
(-8824.34 -6370.1 -10734.5 -2650.23 13809.4 9213.4)
(-6460.22 -8248.25 -13244.4 -5104.17 11949 3223.96)
(-3312.03 -8592.54 -14874.7 -8287.6 9444.11 -1386)
(455.483 -7366.61 -15716.3 -10539.1 6937.1 -4120.33)
(3637.03 -5039.31 -15931 -11814.8 4791.38 -6094.78)
(9511.75 -2445.9 -13906.5 -12143.5 2756.72 -11021.6)
(9712.13 1640.94 12803 -11646.3 2958.38 -11553.6)
(5569.53 4599.16 14456.2 -11381 4893.45 -8054.84)
(1892.2 7274.84 14483.9 -11212.2 6790.18 -7318.83)
(-1916.51 8939.6 13998.9 -9176.7 9135.71 -4975.63)
(-5337.94 9007.48 12757.9 -5964.43 11634.6 -619.938)
(-8169.59 7360.32 10597.7 -3422.15 13620.5 5226.19)
(-10097.9 4607.45 7533.22 -3150.11 13977 12049.4)
(-11295.9 2016.26 4029.37 -5629.41 11080.3 18624.8)
(-13474.5 696.891 1487.12 -9963.77 3871.17 21499.9)
(-14443.9 95.6826 1550.37 -10195.5 -5532.06 20929.6)
(-13570.5 -1470.25 4203.81 -6187.4 -12494.6 17226.6)
(-12890.9 -4352.52 7772.59 -3976.95 -15013.2 10263.1)
(-11459.5 -7391.53 10883.6 -4763.52 -14362.4 3032.54)
(-8971.73 -9373.14 13133.2 -7811.63 -12175.9 -3042.69)
(-5700.93 -9674.01 14539.2 -11607.4 -9475.71 -7538.24)
(-1688.36 -8307.67 15232.9 -14226.1 -6841.7 -9935.8)
(1951.92 -5751.3 15349.5 -15427.3 -4603.01 -11310.1)
(8296.04 -2811.33 13168.1 -14600.6 -2632.95 -14355.2)
(8758.96 1420.24 -13472.2 -11317.6 -3189.37 -10286.4)
(6432.25 4126.39 -14966.5 -8605.49 -5444.94 -3495.3)
(4572.41 6645.59 -14810.5 -6955.39 -7436.04 -643.511)
(2379.86 8182.95 -14084.2 -3812.44 -9768.79 3420.79)
(332.798 8124.72 -12562.8 127.957 -12112.6 9031.88)
(-1571.47 6480.33 -10149.8 2861 -13776.6 15408.4)
(-3286.69 3984.56 -6945.75 2875.84 -13750.7 21792.1)
(-4957.46 1821.5 -3486.87 141.686 -10735.8 27088.2)
(-7749.49 795.71 -1082.05 -4181.32 -3996.22 28718.6)
(1021.39 400.577 1040.29 6470.13 -3641.75 37284.2)
(3686.31 -518.666 2712.29 11014.8 -9893.3 38060)
(5286.59 -2255.71 5577.9 14116.9 -13645.9 35148.1)
(6654.09 -4376.31 8649.43 14710.3 -14519.8 30004.7)
(8729.74 -6027.74 11303.1 13375.2 -13204.1 24583.9)
(11167.1 -6584.31 13335.8 10765 -10498 19519.2)
(13096.4 -5867.71 14717.8 7583.31 -6891.27 14706)
(13086.5 -4121.73 15370.5 3781.72 -2588.24 8866.83)
(13459 -1841.7 14505.3 -580.222 1884.39 -289.082)
(15785.1 884.826 -12597.5 -5698.81 2042.99 -9240.83)
(3443.29 2199.16 -16643.5 -4793.34 -1785.66 4717.69)
(7285.01 3712.68 -15302.3 1261.34 -5813.46 14528.2)
(6765.58 4562.98 -13453.5 3954.95 -8889.93 19652.2)
(5835.94 4430.05 -11088.3 6615.12 -10899.9 24824.1)
(4786.78 3461.67 -8265.69 8253.37 -11608.5 29691.1)
(4170.57 2192.41 -5222.42 8804.15 -10637.8 34062.4)
(3439.17 1235.92 -2481.78 8158.83 -7723.62 36796.6)
(2249.96 762.24 -753.075 6998.85 -3135.13 37285.6)
(2208.2 424.648 -572.886 7270.84 2245.71 37231.3)
(3994.73 -207.398 -2033.08 9597.05 7191.45 37346.5)
(5274.39 -1388.45 -4662.33 11285.3 10547.7 35260.8)
(6319.86 -2946.04 -7701.86 11586.8 11868 31511.6)
(8041.83 -4303.54 -10553.2 10872.6 11379 27511)
(10308 -4924.26 -12902 9429.57 9493.59 23770.2)
(12552.4 -4579.35 -14615.9 7763.89 6553.87 20329.5)
(13662.9 -3427.45 -15611.2 5838.72 2758.11 16063)
(15420.9 -1907.87 -15422.7 3028.73 -1503.94 7250.65)
(20466.7 430.92 9753.59 -3711.31 -2219.9 -9418.55)
(5703.54 2820.27 16554.6 -6801.73 1522.95 -2352.69)
(7974.94 5186.69 15859.3 -965.01 5689.26 6937.01)
(6393.35 6551.7 14407.6 1986.24 9087.61 12139.9)
(4533.31 6501.84 12366.9 5030.79 11550 17645.8)
(2847.15 5188.94 9706.91 7056.49 12789 23346.9)
(1886.5 3296.51 6557.22 7620.45 12200.1 29063.1)
(1204.51 1720.03 3445.34 6617.08 9089.55 33603.2)
(216.355 888.55 1318.99 5051.29 3392.22 35753)
(-1826.09 -325.1 1682.56 12778.1 -15633 27727.4)
(-3105.74 -6406.43 3970.3 32253.1 -18127 7759.98)
(-385.929 -12312 4729.85 29511.3 -12396.4 245.871)
(4636.01 -15745.5 4837.17 22655.4 -8642.65 -2537.06)
(9402.7 -16855.8 4727.96 14688.9 -6155.86 -5105.71)
(13635.7 -15808.2 4555 6921.26 -4199.02 -7799.9)
(17113.8 -12878.8 4358.35 469.765 -2334.99 -10268.9)
(19779.6 -8536.11 4011.43 -3345.29 -276.416 -11808.2)
(23613.9 -3432.37 2900.4 -1959.85 2004.42 -10151.7)
(25687 1719.96 -2647.22 -436.374 2531.56 -8791.14)
(23217.3 7135.41 -5021.8 -1635.02 193.229 -9395.19)
(21489.3 11964.9 -5208.03 1476.74 -2063.93 -7736.73)
(18153.7 15466.5 -5196.96 7016.34 -3954.31 -5607.4)
(13627.4 17094.4 -5236.46 13832.5 -5888.68 -3348.26)
(8555.81 16619.6 -5296.71 20852.2 -8370.96 -1055.87)
(3434.89 14154.2 -5231.02 26991 -12131.2 1722.59)
(332.859 9584.91 -4642.59 30895.3 -17974.7 9383.19)
(-401.35 2379.58 -1921.56 13940.8 -15858 28475.9)
(-836.406 -190.413 -1282.57 12129.2 14026 27218.3)
(-2109.14 -6101.51 -3719.48 29104.9 16559.8 7663.67)
(136.215 -12072.7 -4621.1 27493.8 11721.5 -103.792)
(5141.28 -15639.2 -4855.16 21584.5 8306.13 -2853)
(10303 -16862.4 -4836.7 14387.5 5945.58 -4954.37)
(15078.8 -15910.8 -4718.2 7286.92 4093.55 -6951.11)
(18984.9 -13066.6 -4542.29 1274.5 2383.83 -8795.67)
(21684.9 -8805.6 -4198.44 -2551.22 531.866 -10152.7)
(24193.5 -3798.83 -3103.55 -2271.97 -1632.87 -9672.72)
(24824.9 1165.39 2441.94 -1162.15 -2612.37 -9496.25)
(22346.7 6577.57 4966.7 -1532.22 -724.036 -9733.18)
(20275.4 11570 5208.02 1149.22 1528.99 -8270.06)
(16823.8 15210.1 5223.79 6306.41 3440.45 -6229.58)
(12452.5 16870.3 5262.47 12999.1 5320.5 -3906.3)
(7662.28 16370.2 5288.95 19956.8 7644.72 -1536.53)
(2663.54 13946.2 5195.8 25812.7 11076.9 1022.87)
(-642.015 9653.3 4730.64 29218.6 16538.9 7900.83)
(-1434.08 2647.9 2389.75 12695.2 15368 27231.5)
(-3554.05 804.651 409.2 2688.78 5379.64 32314.9)
(-5092.71 -604.855 -2603.31 4848.6 12938.5 27340.2)
(-6823.94 -3582.1 -6718.1 4821.59 15669 18889.2)
(-6979.65 -6770.26 -10315.6 2538.24 14960.7 10500)
(-5927.02 -8930.41 -12910.8 -1714.14 12681.4 3124.49)
(-4308.61 -9470.9 -14532 -6835.76 9983.1 -3069.73)
(-2354.59 -8408.47 -15362.2 -11185.5 7504.89 -7648.86)
(-170.543 -6176.64 -15629.1 -13427.5 5595.68 -10449.5)
(1460.45 -3468.8 -14832.2 -15533.1 4129.93 -15486.9)
(8124.22 1949.38 9324.36 -13426.3 3885.15 -18910.9)
(4353.37 5030.93 13794.4 -10316.2 6089.21 -9832.24)
(1658.88 7737.95 13933 -9630.1 7544.58 -8126.94)
(-799.42 9415.06 13517.1 -6420.35 9674.02 -4647.13)
(-2642.09 9466.09 12333.4 -1558.61 12192.4 1077.87)
(-4034.08 7754.4 10168.8 2654.46 14418.7 8199.16)
(-4766.25 4856.33 6961.56 4302.43 15150.2 16128.3)
(-4819.85 2134.61 3103.13 2780.7 12429.6 23867.5)
(-6298.85 953.969 114.833 -1212.62 4632.93 27585.6)
(-7836.86 689.451 78.1147 -1426.22 -6057.52 26746.9)
(-8943.95 -928.967 3107.77 1880.98 -13887.3 21321.5)
(-9968.49 -4239.19 7079.85 2773.76 -16316 12699.2)
(-9771.3 -7663.48 10388.9 378.018 -15240.9 4273.74)
(-8530.79 -9895.49 12709.4 -4407.38 -12752 -2907.38)
(-6770.33 -10382.1 14163.6 -10079.8 -9945.13 -8704.53)
(-4746.03 -9185.42 14954.7 -14901.1 -7361.33 -12828)
(-2288.41 -6768.37 15305.2 -17128.6 -5314.35 -14807.5)
(-1375.65 -3874.96 14887.5 -19023.5 -3868.82 -18718.1)
(7520.86 1609.82 -8832.13 -14131 -3878.91 -19976.1)
(4522.22 4448.94 -14148.6 -7995.16 -6880.88 -6407.17)
(3346.36 7019.64 -14173.7 -6050.42 -8447.03 -2564.11)
(2319.85 8619.97 -13562.1 -1997.27 -10553.5 2631.69)
(1789.09 8527.39 -12089.2 3507.34 -12945.1 9729.66)
(1385.26 6744.3 -9635.94 7897.79 -14867 17588.2)
(921.578 4054.93 -6243.74 9198.41 -15180.9 25202.8)
(450.081 1780.52 -2393.16 7364.16 -12190.5 31583.2)
(-1592.16 941.512 444.059 3384.47 -4636.53 33723.7)
(-2230.82 483.977 2545.06 4105.25 -3162.07 32056)
(919.57 -609.608 3984.46 8312.1 -8548.73 33555)
(3311.21 -2262.37 6463.88 11413.2 -11970.2 31945.2)
(5294.69 -4139.35 9162.34 12411.6 -12983.9 28035.2)
(7876.71 -5569.24 11553.6 11833.6 -11939.3 23617.9)
(10985.8 -6028.69 13429.6 10287.8 -9405.31 19512.9)
(13862 -5332.31 14698.2 8363.41 -5852.13 15804.9)
(15671.3 -3628.27 15241.7 6649.54 -1594.13 12105)
(16182 -1266.09 14732.3 4420.73 2859.49 5997.57)
(23591.5 1128.85 -3152.7 -1476.28 3176.21 -10488.8)
(3429.03 931.178 -16874.6 -4176.09 21.8265 4449.59)
(7503.23 2523.08 -15457 1583.72 -4089.25 14908.9)
(5936.48 3598.85 -13646.2 2344.81 -7265.95 18478.3)
(4296.71 3802.45 -11399.1 3745.02 -9256.88 22512.9)
(2616.92 3245.89 -8800.27 4667.1 -9898.12 26411.1)
(1311.72 2365.79 -6073.5 4966.73 -8948.91 29789.5)
(-63.9771 1655.97 -3670.01 4584.66 -6320.36 31612.1)
(-1621.39 1186.89 -2174.91 4046.15 -2369.64 31595.9)
(-1478.18 627.5 -2029.38 4870.22 2188.37 31794)
(929.985 -235.794 -3317.24 7345.78 6440.47 32747.5)
(3205.01 -1460.4 -5652.27 9260.92 9417.43 31916.2)
(5154.25 -2890.25 -8394.86 9922.77 10620.5 29319.6)
(7562.52 -4074.41 -11009 9697.84 10136.6 26248.7)
(10520.5 -4568.73 -13180.7 8988.92 8282.79 23441.1)
(13601.8 -4157.61 -14739.3 8294.23 5378.19 21109.3)
(16303.4 -2940.51 -15563.2 8219.27 1659.35 19012.1)
(17955 -1257.21 -15493.7 7695.57 -2544.21 14081.2)
(26073.8 864.779 -2353.29 1406.65 -3631.84 -7273.75)
(8859.47 1775.69 16282 -4778.85 -72.3165 -3271.53)
(9041.67 4159.44 16089.5 -310.19 4212.76 6292.81)
(6383.38 5739.53 14722.3 1125.96 7770.88 10816.6)
(3589.41 5996.37 12788.2 2833.52 10245.8 15476.5)
(1201.6 5053.15 10314.9 4086.97 11396.3 20446.9)
(-444.886 3504.98 7443.45 4371.06 10754.3 25321.1)
(-1814.36 2126.23 4662.98 3552.79 7857.71 28900)
(-3099.99 1233.42 2794.12 2574.14 2851.14 30501.8)
(-1655.41 -399.266 2928.58 10479.9 -12604.6 28527.3)
(-2959.73 -5762.44 4906.3 27550.8 -18496.1 10976.9)
(-832.702 -11529.5 5787.41 27813.7 -13940.7 1911.03)
(3742.81 -15118.3 5882.7 21926.1 -9918.69 -1985.76)
(8467.77 -16409.3 5663.76 14501.2 -7011.28 -4951.93)
(12822.8 -15577.4 5330.84 7128.6 -4649.38 -7755.96)
(16494.1 -12893.6 4921.53 922.547 -2435.57 -10220.6)
(19238.3 -8768.64 4316.76 -2923.41 -147.845 -11842.3)
(22212 -3770.53 3152.7 -2294.09 2271.64 -11030.8)
(24478.5 1286.65 -1302.78 -96.1212 3326.13 -9688)
(22767.1 6582.82 -5496.95 -702.844 833.836 -9311.18)
(20577.9 11457.5 -5975.43 1135.22 -1933.2 -8225.61)
(17410.1 14959 -6103.07 6152.72 -4264.95 -5996.38)
(13151.9 16612.9 -6231.01 12571.8 -6610.74 -3368.35)
(8409.23 16237.8 -6342.24 19198.5 -9470.04 -372.072)
(3795.72 13933.2 -6257.03 24793.9 -13394.5 3730.81)
(730.844 9474.75 -5513.38 26291.4 -18003.9 12685.7)
(-251.491 2986.71 -3033.64 11566.7 -12563 29155.6)
(-1022.63 -99.1279 -2376.52 10423.3 11390.2 27857.2)
(-2346.98 -5342.69 -4530.95 24893.9 17061.6 10642.9)
(-450.417 -11222.3 -5616.55 25637.9 13306.1 1464.44)
(4242.28 -14968.6 -5901.98 20635.3 9641.89 -2352.02)
(9425.1 -16389.9 -5823.98 13987.2 6850.84 -4824.72)
(14343.4 -15665.5 -5573.51 7275.58 4594.97 -6900.44)
(18478.5 -13065.6 -5200.85 1507.18 2564.49 -8694.3)
(21357.7 -9012.5 -4627.17 -2321.4 527.776 -10056.7)
(23262.7 -4129.02 -3541.27 -2672.14 -1709.63 -10209.7)
(23911.8 625.185 713.5 -872.872 -3280 -10209.7)
(21938.4 5709.17 5279.5 -355.101 -1565.71 -9739.79)
(19271.9 10808.8 5899.37 1087.48 1188.71 -8864.92)
(15920.5 14537.7 6079.9 5569.89 3604.48 -6750.26)
(11770.7 16274.5 6231.9 11767.5 5917.86 -4061.05)
(7311.44 15867.5 6320.85 18306.8 8609.85 -960.644)
(2867.12 13543.5 6199.62 23601.5 12182.2 2941.81)
(-198.552 9299.62 5567.41 24750.7 16524 11227.7)
(-1100.16 3036.71 3468.88 10414.3 12099.5 28097.1)
(1172.53 1426.52 1833.3 8920.55 6027.73 35337.4)
(-1947.29 92.589 -1491.7 11126.8 14446.3 29029.9)
(-5308.55 -3385.06 -6014.05 10249.7 17182.2 19301.1)
(-6932.85 -7109.51 -9853.46 6205.04 16039.8 9641.93)
(-7164.31 -9644.92 -12521.8 48.8006 13383.7 1068.56)
(-6724.26 -10454.2 -14146.1 -6880.86 10512.1 -6283.33)
(-5999.28 -9596.77 -15006.8 -13066.5 8017.14 -12104.2)
(-4569.31 -7472.52 -15382 -16527.4 6162.15 -15586.4)
(-5206.16 -4674.65 -15094 -20004.6 4954.67 -21042.3)
(6590.08 1421.5 1280.46 -16964.7 3603.71 -26742.5)
(1927.76 5661.27 13085.9 -10906.5 7147.4 -13062.5)
(-263.667 8368.84 13322.5 -9735.86 8284.08 -10577.3)
(-1736.95 10001.2 12921 -5574.49 10164.4 -6364.76)
(-2257.26 9951.58 11792.1 727.489 12621.4 349.852)
(-2236.92 8121.76 9690.12 6563.26 15016.8 8562.5)
(-1602.31 5060.16 6441.74 9742.59 16131.5 17635.1)
(-441.414 2195.69 2311.85 9143.22 13698.9 26542.7)
(-956.034 1203.81 -1101.86 5452.86 5453.19 31376.1)
(-3122.48 1456.39 -1288.45 5135.85 -6454.06 30157.6)
(-6389.02 -113.992 2066.28 8066.08 -15166.6 22799.1)
(-9191.16 -3951.11 6407.64 7859.86 -17517 12568.7)
(-10198 -7886.91 9872.7 3791.87 -16029.3 3116.03)
(-9929.76 -10473 12232.6 -2641.55 -13280.5 -4813.19)
(-9152.91 -11231.5 13733.1 -9918.35 -10406.1 -11369.4)
(-8353.4 -10254.3 14646.1 -16555.8 -7852.51 -16520.1)
(-6857.62 -7981.22 15223.8 -20215.1 -5842.05 -19157.6)
(-8342.57 -5128.37 15490.2 -23699.1 -4554.44 -23453.8)
(5180.8 343.134 2827.23 -18789.5 -3142.54 -28380.9)
(845.988 4924.18 -13218 -9827.08 -8062.82 -11727.5)
(140.089 7458.5 -13450.7 -7031.9 -9451.23 -6570.08)
(176.706 9060.21 -12934.4 -2063.64 -11291.6 -399.59)
(880.204 8891.92 -11532.5 4727.6 -13658.7 7791.76)
(1944.69 6952.34 -9097.1 10758.4 -15801.2 17011.3)
(3063.4 4043.19 -5585.79 13692.8 -16474.2 26129.4)
(4079.78 1619.88 -1405.18 12874.5 -13542.1 33856.5)
(3249.22 1018.18 1804.1 9297.96 -5228.43 36973.4)
(-4516.69 547.721 4064.91 2026.93 -2800.93 27888.1)
(-1141.72 -653.122 5318.69 5839.59 -7420.47 29789.9)
(1979.89 -2219.69 7480.64 9009.46 -10440.4 29266.2)
(4644.59 -3882.93 9846.1 10453.9 -11430.7 26528.6)
(7725.28 -5118.42 11969.2 10554.8 -10551.4 23096.4)
(11312.3 -5484.45 13651.1 9827.08 -8196.73 19809.1)
(14711.9 -4774.71 14762.4 8712.41 -4795.62 16795.5)
(17226.5 -3053.73 15168.7 7927.54 -730.26 13975.1)
(17450.7 -591.153 14708.3 6507 3533.22 9037.58)
(22410.5 2407.43 7587.23 1827.62 4806.6 -5896.39)
(6503.67 -246.251 -17236.3 -1603.48 1579.65 5879.6)
(8250.4 1312.86 -15700.4 2413.39 -2268.93 15868.6)
(6221.65 2634.29 -13944.4 1913.88 -5520.54 18370.3)
(3840.49 3145.37 -11812.8 2019.79 -7534.3 21085.7)
(1480.05 2974.75 -9411.31 2133.74 -8183.79 23871.6)
(-581.68 2471.74 -6968.47 2023.9 -7333.43 26189.6)
(-2575.33 1993.17 -4868.47 1693.5 -5016.56 27214.4)
(-4224.37 1528.3 -3591.98 1648.73 -1622.36 27086.1)
(-3815.91 805.846 -3508.63 2910.58 2238.55 27655.8)
(-1022.39 -223.495 -4682.76 5492.8 5831.71 29163.6)
(2037.79 -1482.48 -6778.36 7669.41 8360.95 29332.1)
(4800.94 -2808.55 -9249.94 8721.67 9356.86 27789.7)