/*--------------------------------*- C++ -*----------------------------------*\
| =========                 |                                                 |
| \\      /  F ield         | OpenFOAM: The Open Source CFD Toolbox           |
|  \\    /   O peration     | Version:  2312                                  |
|   \\  /    A nd           | Website:  www.openfoam.com                      |
|    \\/     M anipulation  |                                                 |
\*---------------------------------------------------------------------------*/
FoamFile
{
    version     2.0;
    format      ascii;
    arch        "LSB;label=32;scalar=64";
    class       volVectorField;
    location    "0.6";
    object      traction;
}
// * * * * * * * * * * * * * * * * * * * * * * * * * * * * * * * * * * * * * //

dimensions      [1 -1 -2 0 0 0 0];

internalField   uniform (0 0 0);

boundaryField
{
    fixed
    {
        type            calculated;
        value           nonuniform List<vector> 
108
(
(2230.25 -4085.42 63652.3)
(4695.06 -11376.4 60357.6)
(7891.11 -15340.7 52299.6)
(10910 -15999.6 41258.7)
(13250.2 -14502.5 28280.8)
(14858.9 -11754.8 12627.6)
(15806.7 -7691.82 -7018.55)
(16017.9 -1320.28 -32547.5)
(15816.4 6610.14 -56604.1)
(-16551.1 6385.43 -57246.3)
(-16675.6 -1447.85 -35382)
(-16242.2 -7594.06 -13201.1)
(-14948.1 -11767.6 5498.77)
(-12921.7 -14561.6 20961.9)
(-10187.3 -15884.3 34009.2)
(-6946.32 -14971.7 45377.9)
(-3846.93 -11071.5 54250.8)
(-1794.73 -4458.8 59524.3)
(-1760.04 3169.97 59300.5)
(-3640.38 9415.48 53808.4)
(-6458.82 13057.6 45087.7)
(-9524.04 14122 34874)
(-12240.6 13255.5 24023.9)
(-14336 11101.4 11700.5)
(-15715.9 7773.07 -3650.61)
(-16188.5 2501.69 -25254.6)
(-16114.7 -4682.96 -48099.7)
(16485.1 -5420.26 -55380)
(16801.3 1171.58 -37996.5)
(16375.4 6898.55 -18353.3)
(15199.3 11175.5 -309.14)
(13337.7 14274.2 15611.8)
(10751.2 15992.5 29812.6)
(7530.44 15469.7 42855.9)
(4276.1 11693.7 53898.4)
(2041.4 4611.24 61265.7)
(2321.45 -18595.1 32102.1)
(3542.38 -12309.1 11700.8)
(3534.13 -8213.45 3649.67)
(3454.6 -6091.33 -3106.9)
(3361.06 -4627.56 -11564.5)
(3375.61 -3198.65 -21779)
(3558.13 -1226.84 -33180.2)
(3704.25 1783.31 -43811)
(2967.11 4866.85 -48214.8)
(-3462.82 4827.99 -49639.6)
(-4220.62 1754.85 -47550)
(-4105.56 -1182.9 -38466.1)
(-3876.52 -3243.99 -28009.1)
(-3709.53 -4867.22 -18306.6)
(-3579.31 -6540.35 -10086.1)
(-3411.39 -8839.71 -3372.01)
(-3217.66 -13068.3 5390.64)
(-1818.87 -19430.1 26134.4)
(-1628.06 17935.3 24525.9)
(-2783.31 11806.5 3336.12)
(-2848.32 7733.12 -4803.41)
(-2911.52 5632.69 -10765.5)
(-2988.84 4241.7 -17367.1)
(-3131.68 3007.04 -24855.8)
(-3366.78 1435.88 -33196.9)
(-3545.14 -1029.41 -41388.6)
(-2913.22 -3900.59 -45098.6)
(3407.17 -4148.66 -46460.2)
(4182.65 -1637.88 -44175)
(4187.76 895.619 -35764.2)
(4073.48 2848.99 -25588.4)
(3988.86 4509.91 -15636.8)
(3921.04 6256.33 -6746.42)
(3819.75 8614.73 898.698)
(3685.25 12893.4 10408.3)
(2440.16 19324.9 32100.9)
(-1483.44 4321.3 28096.5)
(-4094.26 10479.8 20512.3)
(-7821.77 13181.5 8345.82)
(-11108.6 13086.7 -4113.25)
(-13381 11542.8 -14905.7)
(-14637 9599.93 -22724.1)
(-15186.6 7861.5 -25940.1)
(-15610.1 6379.25 -24707.9)
(-15915.1 4695.21 -24799.8)
(14883.7 4950.04 -29414)
(14591.7 6417.23 -31279.1)
(14280.8 7761.86 -32161)
(13762.5 9486.37 -28975.4)
(12605.8 11368.9 -22130.2)
(10619.7 12816.9 -12928.8)
(7804.03 12821.8 -2431.73)
(4643.26 9972.01 7834.31)
(2685.23 3462.57 13390.4)
(2834.63 -4718.33 12765.6)
(5028.05 -11026.3 6307.02)
(8387.45 -13639.4 -4599.14)
(11338.1 -13407.6 -15130.1)
(13411.6 -11710.6 -23621.1)
(14600.6 -9554.07 -29014.3)
(15116 -7585.24 -29872.7)
(15468.1 -5978.17 -26411.6)
(15629.1 -4272.13 -24626.8)
(-15380 -4519.19 -25353.9)
(-15140 -6234.77 -23885.1)
(-14626.4 -7950.49 -22639.1)
(-13777.6 -9890.48 -17809.3)
(-12273 -11803.8 -9598.53)
(-9950.39 -13136.3 896.057)
(-6823.84 -12939.4 12553.4)
(-3411.4 -9946.17 23505.4)
(-1206.97 -3576.25 29362)
)
;
    }
    inside
    {
        type            calculated;
        value           nonuniform List<vector> 
540
(
(8263.03 391.829 -1678.49)
(11602.1 2427.13 -1763.21)
(17104 6718.48 -1188.31)
(21742 13150.3 123.736)
(23944.5 20809.3 1953.26)
(22872.6 28045.8 3729.37)
(18462.2 32363.9 4564.11)
(12409.6 32680.9 4136.26)
(7046.85 32428.2 3944.15)
(-7179.8 35533.9 5451.01)
(-13341.5 37305.2 6087.77)
(-19905.5 36435.2 6277.91)
(-24943 31851.9 5277.58)
(-27298.4 24896.7 3518.54)
(-27113 17546.7 1700.99)
(-25139.4 11035.2 276.726)
(-22425.6 5850.35 -555.882)
(-21709.6 2108.45 -586.542)
(-22326.7 -1468.43 -416.748)
(-24006.6 -5597.7 -87.0263)
(-27462 -11454.6 934.504)
(-29521 -18634.7 2292.31)
(-29113.5 -26240.4 3701.6)
(-25725.3 -32728.5 4736.92)
(-19472.5 -35734.4 4825.26)
(-12147.6 -34274.4 3883.6)
(-6163.04 -32341.6 3299.29)
(5598.35 -33340 2915.11)
(10794.3 -32591.9 2706.68)
(15866 -30412.7 2457.1)
(19087.5 -25199.6 1543.07)
(19453.8 -18201.5 270.21)
(17147.3 -11294.8 -874.59)
(13070.1 -5770.24 -1594.2)
(8717.43 -2255.04 -1835.01)
(7055.81 -730.689 -1687.08)
(15567.4 475.523 1452.13)
(15302 3082.4 1143.79)
(15279.4 5765.82 750.834)
(14749.5 8365.34 397.375)
(13016.4 10170.5 -1.60764)
(10186.8 10387.8 -661.316)
(6699.62 7954.77 -1970.75)
(4293.52 4521.71 -3519.75)
(3428.48 1940.69 -4495.63)
(-3805.54 3085.54 -4575.78)
(-4834.85 6628.65 -3518.9)
(-7394.12 10337.5 -2034.71)
(-10493.9 11983 -1140.52)
(-13270.3 11683.4 -727.5)
(-15367 10127.9 -463.16)
(-16840.9 7899.04 -115.422)
(-18231.3 5370.4 415.22)
(-20605.3 2584.34 1074.2)
(-21017.8 -916.152 1285.72)
(-18959.3 -4057.21 1031.24)
(-17903.2 -7082.58 864.029)
(-16728.9 -10044.7 788.099)
(-14628.1 -12397.5 701.517)
(-11458.7 -13286.1 415.436)
(-7465.18 -11364.7 -392.533)
(-4363.84 -7925.43 -1456.24)
(-2706.94 -4115.9 -2305.32)
(2156.99 -2738.31 -3714.71)
(2744.19 -3993.33 -3369.52)
(4401.67 -6484.52 -2525.36)
(6303.09 -7491.72 -1900.95)
(7838.38 -7179.75 -1385.71)
(8879.28 -6146.69 -799.893)
(9715.67 -4864.79 -93.6824)
(11104.4 -3561.98 658.697)
(13874.3 -1986.18 1285.36)
(9472.22 -137.097 1966.77)
(9667.01 1450.35 1637.62)
(10625.4 3426.98 1058.26)
(11377.2 5739.77 491.654)
(11414 8119.79 50.6206)
(10543.2 10150.7 -332.752)
(8697.01 10983.3 -977.518)
(6746.72 11025.2 -1952.71)
(5151.08 10719.2 -2821.26)
(-3761.23 9958.28 -4340.75)
(-5318.02 10416 -3761.71)
(-7540.34 11566.8 -2689.33)
(-9610.75 11208.2 -2145.06)
(-10837.8 9498.6 -1928.06)
(-11211.6 7332.76 -1603.3)
(-11156.3 5285.56 -966.893)
(-11431.5 3551.57 -89.269)
(-13513 2034.07 730.279)
(-14333.8 -157.299 1074.29)
(-13342.7 -2334.29 971.817)
(-13507 -4808.22 729.834)
(-13895 -7806.25 532.874)
(-13587.9 -11024.3 441.475)
(-12194.9 -13838 360.209)
(-9650.34 -15174.1 17.0847)
(-6888.94 -15217.7 -708.055)
(-4399.28 -13762.5 -1683.52)
(2008.01 -10235.2 -4246.64)
(3261.17 -8460.81 -4059.49)
(4759.87 -8372.83 -3198.85)
(5768.23 -7248.91 -2533.59)
(5726.35 -5264.28 -1874.16)
(5024.29 -3487.69 -961.959)
(4552.74 -2427.44 148.821)
(5137.98 -1901.9 1189.36)
(7748.63 -1446.32 1831.63)
(3481.67 -459.409 3440.33)
(4557.89 281.358 3020.29)
(7008.46 1869.33 2179.76)
(9163.51 4184.98 1338.68)
(10570 7016.38 630.033)
(10949.2 10002.2 26.9463)
(10063 12282.9 -700.053)
(8201.17 12880.2 -1926.68)
(6576.05 13856 -3173.53)
(-3066.3 10858.5 -6302.2)
(-4801.55 9230.23 -5666.53)
(-6893.84 10403.9 -4101.96)
(-8334.78 9528.95 -3232.26)
(-8400.69 7148.51 -2674.97)
(-7366.38 4672.86 -1908.22)
(-5938.91 2826.98 -768.939)
(-4976.99 1736.59 551.255)
(-6408.05 1325.27 1529.3)
(-7627.93 388.744 1950.54)
(-8222.42 -946.096 1871.47)
(-9992.93 -3109.47 1433.42)
(-11733.7 -6163.89 931.199)
(-12686.6 -9832.33 505.716)
(-12472 -13601 145.991)
(-10917.4 -16548.7 -324.577)
(-8248.77 -17324 -1242.83)
(-5873.22 -18241.9 -2612.78)
(1120.86 -12439.8 -6406.9)
(2616.1 -7944.74 -6053.59)
(4229.31 -8009.84 -4421.48)
(4950.2 -6537.36 -3080.58)
(4027.59 -3811.82 -1783.56)
(2070.31 -1502.01 -240.258)
(344.144 -421.676 1396.89)
(-226.81 -314.384 2765.43)
(1771.46 -735.974 3386.94)
(-878.303 -545.034 5607.23)
(1170.64 -297.376 4924.08)
(4857.76 1151.71 3655.68)
(8394.37 3785.42 2363.08)
(10993.8 7318.98 1219.3)
(12289.1 11340 218.932)
(12025.6 15022.8 -752.476)
(10102.3 16638.7 -2067.32)
(8107.94 18753.4 -3667.39)
(-2063.66 13721.1 -8307.05)
(-4498.62 9953.07 -7582.95)
(-6866 11046.9 -5450.16)
(-8122.3 9659.08 -4082.17)
(-7449.1 6505.86 -2990.47)
(-5327.67 3451.38 -1625.81)
(-2681.92 1407.76 119.564)
(-668.867 593.814 1951.44)
(-1370.34 845.796 3135.55)
(-3066.28 755.312 3536.02)
(-5199.87 -136.182 3255.46)
(-8399.31 -2328.75 2440.03)
(-11294.3 -5749.27 1485.94)
(-13146.4 -10032.7 577.483)
(-13664.7 -14721.9 -243.286)
(-12683 -19068.7 -1048.43)
(-9984.84 -21101.9 -2073.71)
(-7283.81 -23448.7 -3866.93)
(-98.5556 -16658.2 -8679.8)
(2190.04 -10137.7 -8323.07)
(4268.56 -9676.82 -5934.75)
(5081.67 -7656.73 -3723.66)
(3809.67 -4183.21 -1592.9)
(1019.17 -1067.09 746.091)
(-1896.45 564.623 3078.33)
(-3635.54 713.297 4933.28)
(-2553.44 -135.863 5664.04)
(-2930.28 -477.655 7858.21)
(-259.01 -353.888 6832.8)
(4111.68 1146.48 5039.46)
(8499.56 4105.23 3144.56)
(11863.6 8218.38 1415.81)
(13720 13027.3 -101.57)
(13796.8 17728.6 -1429.57)
(11832.2 20484.7 -2801.01)
(9176.67 22695.6 -4632.46)
(-837.638 17276.3 -10447.3)
(-4329.12 12763.2 -9808.17)
(-7157.62 12866.5 -7147.66)
(-8487.04 10824 -5161.67)
(-7511.62 7018.4 -3431.29)
(-4778.69 3401.28 -1395.02)
(-1363.62 1025.62 1010.2)
(1304.05 223.158 3378.9)
(1144.24 722.551 4810.49)
(-910.495 1002.95 5127.52)
(-4089 195.762 4517.5)
(-8190.76 -2184.92 3232.47)
(-11799 -5983.77 1750.98)
(-14145.1 -10761.5 307.521)
(-15021 -16095.5 -1028.9)
(-14284.9 -21352.6 -2259.59)
(-11649.8 -24854.5 -3471.53)
(-8154.83 -26735.7 -5369.47)
(-1582.16 -21725.8 -11045.6)
(1882.83 -15384.2 -11292.7)
(4544.43 -12671 -8290.34)
(5616.97 -9671.89 -5033.28)
(4496.25 -5679.39 -1964.97)
(1472.91 -1870.6 1248.14)
(-2121.1 461.003 4404.05)
(-4672.29 981.539 6908.36)
(-4465.53 166.725 7957.74)
(-3013.53 -311.471 9513.22)
(-172.436 -41.3234 8257.88)
(4406.91 1622.31 5984.28)
(9111.77 4814.78 3488.99)
(12835.4 9275.67 1153.48)
(15016.8 14579.1 -907.229)
(15301.3 19959.4 -2641.93)
(13365.8 23764.7 -4164.57)
(9965.31 25652.1 -6032.54)
(763.41 21386.7 -12851.4)
(-3976.32 16674.5 -12690.4)
(-7385.24 14840.8 -9460.38)
(-9107.16 12451.9 -6735.08)
(-8245.81 8235.53 -4341.91)
(-5294.84 4116.74 -1663.28)
(-1485.4 1357.92 1350.94)
(1571.01 376.146 4210.49)
(1804.73 820.957 5909.03)
(-376.578 1120.92 6189.58)
(-4129 200.566 5287.56)
(-8769.57 -2399.48 3560.16)
(-12779.6 -6481 1581.16)
(-15352.9 -11560.7 -352.041)
(-16374.8 -17262.5 -2170.6)
(-15725.9 -23052.2 -3843.71)
(-13177.6 -27723 -5405.65)
(-8949.61 -29349.2 -7186.47)
(-3488.37 -27488.9 -13929.7)
(1104.33 -20874.4 -14863.1)
(4263.42 -14791.5 -11415.4)
(6005.66 -11558.3 -7205.41)
(5526.33 -7557.07 -3213.35)
(2776.97 -3331.19 845.42)
(-992.47 -368.818 4811.2)
(-3935.64 664.662 7994.96)
(-4341.21 194.36 9505.07)
(-2224.06 -28.1306 10319)
(561.885 469.002 9012.09)
(5169.86 2300.36 6362.57)
(9868.49 5595.29 3380.65)
(13659.9 10142.5 525.491)
(16023.8 15635 -2053.32)
(16521.5 21437.1 -4258.18)
(14766.8 26205.3 -6134.07)
(10840.3 28404.9 -8076.92)
(2780.13 25880.1 -15837.4)
(-3224.01 20126.7 -16194.1)
(-7222.97 15814.6 -12354.2)
(-9677.17 13887.5 -8902.69)
(-9342.87 9707.09 -5874.13)
(-6468.31 5176.97 -2619.44)
(-2454.97 1976.57 904.92)
(1018.05 629.641 4213.97)
(1699.33 842.121 6228.98)
(-331.379 1025.16 6629.94)
(-4395.5 9.79109 5567.04)
(-9491.19 -2711.72 3462.15)
(-13764 -6901.75 1071.5)
(-16429.3 -12042.5 -1257.74)
(-17523.5 -17837.5 -3501.96)
(-16961.1 -23880.7 -5636.19)
(-14579.7 -29388.5 -7713.03)
(-10001.1 -31726.4 -9579.07)
(-5702.29 -32364.3 -17578.8)
(-129.652 -25387.6 -18748.3)
(3496.23 -16024 -15180.4)
(6102.36 -12896.5 -10301)
(6523.93 -9231.77 -5385.59)
(4340.77 -4853.55 -494.143)
(649.792 -1371.95 4230.24)
(-2528.11 212.324 8056.27)
(-3369.78 195.318 10077.7)
(-1897.13 463.796 10679.2)
(973.644 1055.23 9336.73)
(5858.08 2968.61 6263.58)
(10458.3 6224.41 2915.05)
(14162.2 10636.2 -337.861)
(16593.8 16032.7 -3382.11)
(17278.7 21950.8 -6113.28)
(15778.5 27372.7 -8548.59)
(11538.1 30177.4 -10767.1)
(4825.09 29006.7 -19306.3)
(-2276.79 22647.8 -20158.8)
(-7049.92 16533.4 -16059.4)
(-10319.6 15124.4 -11836.8)
(-10726.2 11233.2 -8138.48)
(-8075.96 6326.94 -4309.61)
(-3875.43 2580.3 -313.581)
(395.293 606.885 3550.92)
(1929.73 471.206 6059.33)
(474.258 598.174 6858.67)
(-3950.94 -300.767 5705.41)
(-9819.95 -2974.76 3152.04)
(-14348.1 -7073.3 432.302)
(-17069.9 -12045.8 -2194.64)
(-18227.1 -17676.8 -4805.23)
(-17792.2 -23694 -7413.95)
(-15620.4 -29562.6 -10080.7)
(-11211.6 -33224.5 -12512.6)
(-7706.88 -33566 -21109.4)
(-1504.32 -28704.4 -22644)
(3129.83 -19004.5 -20435.6)
(6363.52 -14322.5 -14845.3)
(7373.78 -10368.6 -8540.58)
(5827.22 -6023.9 -2637.55)
(2258.97 -2129.97 2926.95)
(-1419.85 83.7378 7527.07)
(-2970.77 534.313 10215.6)
(-3354.58 1278.83 11544.2)
(-72.4928 1654.72 9996.6)
(6085.21 3532.88 5880.26)
(10682.3 6638.98 2176.54)
(14255.3 10781.7 -1406.5)
(16602.5 15841.1 -4848.63)
(17327.6 21494.1 -8094.59)
(15984.3 26951 -11147.2)
(11665.4 30207.8 -13911.9)
(6383.67 28629.7 -22632)
(-1283.76 23676.3 -24455.7)
(-7212.5 17782.1 -21097.4)
(-11199.8 16189.4 -15841.2)
(-12397.9 12718.5 -11347.1)
(-10023.3 7475.92 -6827.98)
(-5505.11 3062.58 -2218.08)
(571.081 4.00011 2794.28)
(3708.67 -528.116 6147.9)
(3486.5 -276.142 7781.47)
(-1384.46 -697.728 6596.34)
(-9313.83 -3160.93 2913)
(-14214.3 -7016.28 -137.735)
(-17037.5 -11674.4 -3015.69)
(-18224.1 -16916.4 -5926.81)
(-17891.5 -22571.1 -8971.06)
(-15923.3 -28249.6 -12192.4)
(-12032.9 -32833 -15485.3)
(-9227.26 -31777.3 -24301.1)
(-2950.46 -31452.5 -26928.7)
(2783.76 -22414.5 -26273.4)
(5887 -13779.2 -19786.1)
(7561.03 -10030.7 -12346.6)
(6791 -6304.42 -5300.78)
(3388.57 -2325.11 1322)
(-1799.47 782.155 7488.62)
(-4071.46 1425.8 10736.3)
(-13077.1 3137.8 18477.5)
(-572.194 2334.96 9969.51)
(6777.64 4190.77 4569.55)
(11045.2 7129.82 689.629)
(14186.7 10924.8 -3093.69)
(16095.8 15417.2 -6796.38)
(16550.1 20382.3 -10442.9)
(15165.6 25220.8 -14049.9)
(10901.2 28411.8 -17623.4)
(7287.2 25926.8 -25847.9)
(-441.899 24064.5 -29312.6)
(-7489 18618.6 -27027.4)
(-11848.4 16011.8 -20668.2)
(-14110.8 13818.6 -15768)
(-12404 8737.13 -10630.8)
(-7525.42 3628.09 -5100.81)
(218.611 -484.962 1464.35)
(13687.2 -3795.62 11320.5)
(15232.4 -2376.19 14160.3)
(1348.18 -1264.25 7582.34)
(-9526.03 -3570.75 1849.74)
(-14086.1 -7163.13 -1158.47)
(-16633.6 -11436.5 -4102.33)
(-17507.5 -16058.1 -7121.67)
(-17042.9 -20947.4 -10424.1)
(-15198.3 -25884.8 -14040)
(-11873.2 -30340.1 -17956.8)
(-10235.9 -28716.1 -27724.3)
(-4391.32 -30764 -30331.9)
(2165.48 -24296 -31232.7)
(5728.14 -13381.9 -25681.3)
(7805.14 -8930.38 -17475)
(7716.74 -5939.16 -9145.27)
(5008.29 -2539.44 -1516.95)
(-2759.87 1898.68 7882.95)
(-13880.4 4705.85 18037.1)
(-9302.13 3499.37 16444.2)
(1089.05 3112.43 8046.35)
(7419.35 5020.5 2490.65)
(11402.8 7904.39 -2003.94)
(13849.2 11305.4 -6113.21)
(14962.6 15015.6 -10024.4)
(14742.8 18847.9 -13864.7)
(12969.4 22359.6 -17717)
(8590.99 24498.6 -21836)
(7065.69 21514.7 -28478.6)
(-111.861 21639.2 -32836.5)
(-7617.68 18039.2 -32476.1)
(-12645.9 15563.6 -27030.6)
(-15737.7 14405.1 -22156.6)
(-15158.4 10082.9 -16712.7)
(-10204.1 4437.66 -9878.26)
(-2237.2 -131.296 -1964.14)
(10554.3 -3742.3 9339.91)
(12526 -2782.29 12886.6)
(573.499 -1887.49 6489.03)
(-9611.98 -4181.27 346.847)
(-13959.7 -7766.98 -3054.38)
(-15869.1 -11666 -6106.54)
(-16073.1 -15503 -9112.25)
(-15174.9 -19277.5 -12406)
(-13344.5 -23008.8 -16111.9)
(-10616.4 -26512.1 -20153.1)
(-10336.3 -24154.4 -31441.8)
(-5372.48 -25882.6 -31922.4)
(1243.78 -23724.6 -33971)
(6732.34 -16514.9 -32868.2)
(9171.4 -9315.95 -25268)
(9132.8 -5439.57 -15578.1)
(7109.79 -2577.34 -6758.06)
(-14.4394 1725.35 4488.75)
(-9617.44 4510.13 15638.6)
(8816.27 1924.36 -1761.42)
(10146.6 4358.39 -2859.55)
(13082.3 7140.75 -7367.52)
(14075.3 9899.16 -10775.9)
(14191.6 12463.8 -14096.1)
(13585.8 14897.3 -17444.9)
(12120.3 17138 -20746)
(9576.64 18893.4 -23966.6)
(4854.9 19300 -27336)
(5716.48 16868.9 -31019.1)
(-361.713 16863.2 -34535.9)
(-7110.07 16399.4 -36949.5)
(-12838.2 15268.1 -35088.2)
(-16679 14137.6 -31545.8)
(-18529.9 11669.1 -28018.2)
(-16810.4 7465.88 -22575.6)
(-11494.6 3179.53 -14607.1)
(-6374.28 836.111 -6684.52)
(-4538.53 -521.962 -1245.4)
(-9136.32 -2434.85 -2611.87)
(-15301.9 -5929.81 -7601.18)
(-16845.7 -9713.79 -10341.1)
(-16175.2 -12902.3 -12377.4)
(-14593.3 -15516.7 -14450.7)
(-12604.8 -17745.6 -16842.8)
(-10404.2 -19792.4 -19686.7)
(-8233.38 -21825.3 -22899.4)
(-7964.66 -16332.5 -33227.2)
(-5803.98 -19746.9 -34532.7)
(-305.478 -20021.3 -36155.2)
(5674.66 -17630.4 -37559.5)
(10762.8 -13485.1 -36745.3)
(13699.4 -9640.85 -32075.2)
(14043.4 -6380.75 -24224.5)
(11289.5 -2888.47 -13115.2)
(8812.5 -295.611 -4516.66)
(18133.7 3307.74 -26816.7)
(15582.4 6931.15 -27038.1)
(14225.5 8758.12 -28471.8)
(13042.9 10069 -30175.7)
(11443.1 11092.9 -31350.9)
(9416.78 11898.2 -31997)
(7081.42 12528.9 -32453.7)
(4405.16 12895.1 -32901.1)
(971.006 11916.1 -32739)
(3641.03 11766.4 -33427.6)
(-454.335 11375.8 -35687.7)
(-4918.3 11692.9 -39034.3)
(-9520.76 11307.2 -40155.9)
(-13554 10143.8 -39436.7)
(-17294.4 8458.15 -39650.7)
(-19507.5 5108.38 -38799.1)
(-19154.2 1426.14 -36220.9)
(-16209.3 1471.14 -30577)
(-17483.2 1449.51 -21809.3)
(-20525.4 -6036.12 -24278.3)
(-20610.8 -9936.79 -28202.6)
(-18401.3 -11915.2 -29116.5)
(-15189.1 -13181.2 -28463.4)
(-11829.1 -14024.5 -27438.5)
(-8780.52 -14584.8 -26738.7)
(-6285.97 -15070 -26687.2)
(-4968.01 -15907.6 -27378.1)
(-2027.85 -7262.29 -31623.5)
(-4332.14 -9391.38 -34459.1)
(-1705.72 -10229.5 -35557.2)
(1833.97 -10597.8 -37897.3)
(6283.97 -11095.9 -43068.8)
(10980 -10189 -46588.9)
(14315.2 -7574.88 -46005.6)
(16206.3 -5529.5 -42057.4)
(18364.6 -4159.69 -30963.2)
(12007.8 -577.69 -45527.9)
(9480.78 748.027 -51203.9)
(7218.96 3095.37 -56871.5)
(5198.82 4952.73 -61020.6)
(3434.7 6008.57 -62792.8)
(2043.07 6563.74 -62422)
(999.895 6948.01 -60659.9)
(249.881 7145.25 -58067.8)
(1709.6 6405.53 -54020.2)
(3991.06 9973.86 -52718.7)
(1981.56 8395.62 -52300.8)
(-460.28 7666.09 -52310.5)
(-3344.68 7471.65 -54327.5)
(-6209.21 5901.81 -50051.5)
(-8715.97 3855.77 -45406.8)
(-11665.4 2395.67 -46558.4)
(-13644.3 218.604 -44285.9)
(-15493.8 -762.681 -42932.6)
(-15351.5 161.816 -42574.7)
(-13320.3 -817.166 -47061)
(-11959.5 -3947.58 -53504.3)
(-10800.6 -6520.27 -58513.4)
(-9211.8 -7782.51 -60177)
(-7472 -8257.5 -59124.4)
(-5971.73 -8675.18 -56795.8)
(-4971.94 -9575.42 -54271.6)
(-5599.97 -12022.6 -52516.9)
(-1867.99 -3509.81 -46864.8)
(-5292.69 -1023.56 -46380.3)
(-4206.13 -814.795 -44518)
(-1685.38 -274.144 -41041)
(682.211 -127.547 -41974)
(3525.12 246.53 -44569.4)
(6967.78 1312.52 -45462.8)
(10534.3 2240.24 -42732.8)
(13039.3 935.723 -42351.5)
)
;
    }
    outside
    {
        type            calculated;
        value           nonuniform List<vector> 
540
(
(24335.1 1763.58 1439.52)
(23151.4 5237.48 3489.86)
(18883.4 7087.88 6064.01)
(12864.3 6148.93 7950.97)
(6329.17 1756.19 8241.81)
(-25.3529 -7040.51 6040.45)
(-4906.25 -21127.9 360.474)
(-6259.12 -41307.9 -10175.5)
(1146.68 -58453.1 -22163.3)
(-1216.47 -60797.6 -22280.9)
(7603.33 -45527.6 -11314.5)
(8562.13 -27558.2 -2014.02)
(5368.48 -13421.6 3755.94)
(112.442 -3757.53 6583.95)
(-5918.4 1907.76 7218.77)
(-12187.6 4363.57 6426.42)
(-17631.3 4013.63 4983.31)
(-21319.3 1700.52 4000.51)
(-21583 -1471.87 4075.79)
(-18362.1 -4016.43 5142.6)
(-13156 -4718.55 6500.28)
(-7493.03 -3042.04 7241.59)
(-2362.29 1058.5 6924.27)
(2118.37 8226.66 5194.96)
(5459.25 19604.5 1512.67)
(6532.12 37496 -5618.09)
(10.5206 54430.2 -14713.4)
(906.431 60235.7 -18399.4)
(-8122.28 47682.1 -10701.6)
(-10294.6 30931.2 -3302.93)
(-7897.73 16537.5 1659.97)
(-2768.94 5920.28 4055.47)
(3740.28 -812.954 4297.93)
(10903 -4082.49 3132.66)
(17529.3 -4152.49 1538.37)
(22237 -1793.86 750.582)
(9370.18 799.346 -1463.85)
(10553.8 2663.29 -158.018)
(9971.37 4087.87 1876.56)
(8580.22 4547.17 4081.93)
(7276.3 4152.3 6046.72)
(6007.05 2769.98 7412.69)
(4746.8 10.2763 7805.6)
(3171.18 -6361.88 5912.54)
(4643.54 -12690 1979.69)
(-4652.76 -13185.4 2153.46)
(-3210.92 -5171.62 6927.46)
(-4299.65 273.917 8480.98)
(-5596.98 2936.03 8228.58)
(-6944.7 4170.13 7058.73)
(-8329.61 4448.13 5326.79)
(-10007.7 4070.36 3404.69)
(-11277.5 2838.74 1694.19)
(-11812.3 1099.83 762.106)
(-11982.6 -760.489 812.433)
(-12075.7 -2679.66 1782.36)
(-10814.8 -4166.17 3279.1)
(-9025.73 -4884.36 4764.67)
(-7477.77 -5026.61 5983.23)
(-6031.3 -4435.46 6845.37)
(-4586.02 -2657.56 7295.11)
(-2509.58 3234.07 6275.05)
(-3164.09 10359.8 3482.21)
(3856.39 13965.9 1023.19)
(2031.71 7907.43 4055.52)
(2164.14 3081.08 5158.04)
(2724.85 256.769 4960.76)
(3567.14 -1514.55 3910.68)
(4709.49 -2512.71 2268.71)
(6381.84 -2840.23 427.938)
(7868.7 -2187.79 -1111.25)
(8340.54 -790.243 -1787.71)
(4832.94 745.398 -2739.2)
(6746.85 2275.72 -1962.28)
(6753.05 3566.49 -496.046)
(5611.29 3948.16 1285.81)
(4480.94 3518.83 3032.62)
(3528.35 2339.57 4505.18)
(2774.36 420.583 5546.97)
(1878.24 -3438.9 5622.41)
(3134.18 -7809.46 4209.84)
(-4001.06 -11225.5 2950.91)
(-1493.51 -7155.72 5093.59)
(-1844.88 -2438.94 5909.25)
(-2491.78 135.421 5536.12)
(-3575.87 1929.14 4553.02)
(-4842.98 2802.98 3072.13)
(-6269.99 2881.15 1420.53)
(-6958.22 2014.99 11.6807)
(-6660.78 694.68 -756.217)
(-6647.57 -606.339 -810.733)
(-7575.8 -2061.74 -251.569)
(-7144.44 -3321.03 718.707)
(-5774.1 -3873.56 1773.31)
(-4491.66 -3864.67 2726.72)
(-3406.03 -3333.34 3574.98)
(-2510.29 -2299.47 4419.04)
(-1275.56 669.542 5012.54)
(-1553.95 4876.29 4893.63)
(3247.12 10830 2257.01)
(362.029 9472.93 3012.84)
(-227.863 5112.88 3316.14)
(-292.119 2465.12 2919.19)
(372.719 268.246 2024.62)
(1515.57 -1198.59 634.112)
(3031.44 -1863.76 -948.895)
(4039.96 -1481.72 -2240.77)
(3884.73 -410.346 -2827.36)
(944.03 790.472 -3012.54)
(3492.95 1971.32 -2739.99)
(4129.56 3166.52 -1834.83)
(3468.7 3737.76 -560.835)
(2838.06 3827.73 862.866)
(2543.86 3669.92 2435.8)
(2442.9 3401.42 4206.27)
(2126.63 2513.19 6069.81)
(2626.68 633.584 7127.6)
(-4218.47 -3510.17 6110.5)
(-1554.21 -4180.61 5886.82)
(-1854.65 -435.939 5371.03)
(-1594.32 189.948 4232.92)
(-1831.2 1095.48 3085.96)
(-2351.67 1655.86 1783.03)
(-3051.46 1745.03 433.803)
(-3087.05 1130.58 -685.265)
(-2157.41 172.023 -1326.17)
(-2162.47 -674.559 -1532.35)
(-3805.37 -1756.31 -1434.97)
(-4328.83 -2919.3 -1017.53)
(-3744.93 -3662.54 -410.541)
(-3058.63 -4100.96 283.141)
(-2521.79 -4411.35 1147.77)
(-2078.94 -4760.49 2358.48)
(-1360.87 -4757.55 4061.44)
(-859.855 -3631.43 6045.78)
(3324.73 2680.22 4457.15)
(442.23 6487.51 4059.27)
(-244.142 2755.67 3019.03)
(-1174.11 2020.5 1950.61)
(-1313.18 825.494 985.325)
(-798.363 -255.684 -137.359)
(135.806 -882.296 -1382.18)
(589.847 -697.307 -2410.29)
(10.6982 44.739 -2898.76)
(-2614.58 928.372 -3090.9)
(303.658 1766.67 -3322)
(1663.34 2869.13 -2955.29)
(1624.66 3651.65 -2134.29)
(1449.08 4156.81 -1006.1)
(1547.6 4574.67 560.352)
(1763.86 5000.94 2680.83)
(1887.38 5545.76 5316.5)
(2180.52 5099.82 7663.5)
(-4228.78 152.136 7197.31)
(-1443.63 -2964.4 6512.8)
(-1698.72 1093.06 4871.39)
(-817.986 347.838 3169.29)
(-334.037 473.978 1842.49)
(-68.7743 642.633 677.935)
(54.8111 633.922 -391.338)
(700.746 189.898 -1243.4)
(1950.18 -436.287 -1755.3)
(1741.98 -899.021 -2125.6)
(-435.44 -1653.23 -2486.2)
(-1814.68 -2708.35 -2563.17)
(-1978.05 -3587.98 -2325.09)
(-1770.26 -4294.18 -1848.04)
(-1559.58 -5002.49 -1045.83)
(-1337.07 -5887.45 245.732)
(-966.079 -7185.26 2200.1)
(-257.69 -7690.2 4997.87)
(2989.26 -1264.21 4692.55)
(696.189 4177.69 5030.11)
(-423.796 1122.63 2813.23)
(-1840.88 1392.95 1205.2)
(-2684.29 1082.08 134.61)
(-2866.76 475.809 -763.279)
(-2638.43 13.7972 -1668.87)
(-2827.23 100.364 -2406.03)
(-3612.57 538.399 -2779.91)
(-5391.33 1094.34 -3138.32)
(-2406.45 1653.13 -3790.68)
(-444.856 2640.57 -3892.99)
(151.875 3564.1 -3428.43)
(413.825 4355.45 -2519.43)
(797.936 5110.55 -997.84)
(1193.79 5839.71 1267.32)
(1517.45 6794.82 4155.79)
(1815.08 6639.1 7066.41)
(-3939.84 1709.97 7176.27)
(-1847.46 -280.351 7131.08)
(-1645.9 2627.13 4469.33)
(-539.046 1083.06 2386.89)
(517.745 356.489 884.34)
(1490.21 18.6786 -226.012)
(2426.51 -235.923 -1088.59)
(3691.19 -635.112 -1708.35)
(4979.68 -999.043 -2117.07)
(4513.49 -1171.81 -2642.11)
(2092.86 -1660.6 -3371.5)
(126.262 -2587.18 -3833.6)
(-649.93 -3533.41 -3865.23)
(-844.863 -4398.36 -3551.06)
(-870.902 -5308.27 -2855.09)
(-782.025 -6402.72 -1647.72)
(-523.989 -7946.56 196.5)
(188.384 -9025.6 3082.58)
(2228.77 -4103.6 3812.97)
(1457.99 -172.125 5259.95)
(-582.89 74.6165 2838.23)
(-1990.15 273.822 691.059)
(-3384.58 809.185 -511.378)
(-4244.46 771.926 -1293.33)
(-4797.45 631.396 -1916.86)
(-5626.32 744.776 -2362.93)
(-6465.65 959.853 -2640.75)
(-7204.37 1201 -3195.79)
(-4366.86 1562.76 -4122.15)
(-2095.87 2406.88 -4547.46)
(-1027.66 3357.6 -4333.03)
(-407.46 4295.12 -3597.02)
(203.28 5248.68 -2179.31)
(743.788 6179.69 58.8577)
(1161.4 7283.34 2951.97)
(1519.57 7346.34 6132.06)
(-3561.19 3500.78 6806.69)
(-2463.31 3345.58 7252.33)
(-1546.84 3749.91 4133.59)
(-575.701 2179.88 1752.51)
(880.713 592.193 202.552)
(2325.15 -247.034 -869.116)
(3872.87 -806.129 -1572.4)
(5549.84 -1229.93 -2008.73)
(6734.44 -1404.91 -2370.67)
(6106.75 -1376.88 -3025.07)
(3739.93 -1655.16 -3971.47)
(1525.85 -2420.36 -4671.56)
(343.867 -3345.43 -4892.44)
(-161.9 -4271.55 -4728.78)
(-380.931 -5275.79 -4200.57)
(-415.238 -6490.13 -3221.36)
(-218.906 -8114.36 -1693.76)
(415.848 -9871.7 792.072)
(1324.59 -7375.4 2183.42)
(2103.57 -4314.57 4529.44)
(-675.444 -253.375 3315.06)
(-1803.9 -1016.62 422.953)
(-3519.42 168.132 -907.197)
(-4875.22 665.395 -1667.22)
(-6093.73 906.598 -2097.5)
(-7431.64 1126.4 -2314.6)
(-8289 1217.94 -2541.88)
(-8204.2 1198.02 -3156.86)
(-5662.49 1426.57 -4184.78)
(-3349.29 2115.32 -4771.94)
(-1989.88 3018.26 -4739.03)
(-1097.44 4014.36 -4184.19)
(-294.753 5106.09 -2958.94)
(405.186 6281.4 -925.785)
(960.792 7763.91 1737.95)
(1566 9033.99 4759.6)
(-3231.13 6828.82 5980.92)
(-3015.58 6265.46 6961.7)
(-1125.44 3628.52 4193.4)
(-879.874 3675.76 1107.19)
(911.184 1127.71 -296.158)
(2617.85 -195.406 -1261.99)
(4557.8 -1077.43 -1774.12)
(6454.19 -1552.58 -2051.17)
(7522.54 -1601.8 -2407.68)
(6867.8 -1448.92 -3141.46)
(4731.43 -1564.63 -4144.31)
(2499.75 -2156.28 -4949)
(1082.57 -3002.71 -5315.34)
(356.491 -3922.49 -5324.41)
(-11.0884 -4949.7 -5032.45)
(-153.001 -6226.03 -4397.84)
(-19.6004 -7921.21 -3334.63)
(473.112 -10367.4 -1589.86)
(434.488 -9320.49 438.309)
(2394.07 -6584.16 3641.87)
(-94.7604 -1595.62 3978.79)
(-1455.55 -2209.2 537.572)
(-3250.35 -738.153 -1043.11)
(-4934.96 252.403 -1819.84)
(-6603.98 857.44 -2136.18)
(-8280.3 1218.55 -2205.19)
(-9182.6 1277.82 -2414.41)
(-8743.81 1094.65 -2750.35)
(-6596.11 1220.78 -3712.64)
(-4390.37 1749.47 -4374.02)
(-2859.13 2562.87 -4539.26)
(-1773.78 3548.7 -4220.59)
(-839.487 4684.93 -3258.07)
(-23.5647 5987.26 -1517)
(639.201 7638.43 866.275)
(1617.8 9752.3 3535.33)
(-3066.11 7650.37 5423.59)
(-3143.03 6617.45 6945.68)
(-1019.2 4141.14 4537.9)
(-1362.61 5514.67 311.321)
(683.173 2017.45 -802.743)
(2589.08 141.601 -1498.94)
(4791.39 -1085.07 -1680.58)
(6825.81 -1638.61 -1725.65)
(7818.34 -1611.54 -2041.28)
(7218.56 -1385.53 -2765.75)
(5382.14 -1371.23 -3683.86)
(3230.25 -1787.47 -4525.98)
(1692.72 -2511.99 -5048.15)
(837.932 -3354.73 -5271.45)
(381.242 -4309.65 -5262.02)
(171.198 -5508.29 -5007.48)
(251.904 -7090.21 -4422.55)
(685.138 -9408.01 -3288.17)
(-329.732 -8910.63 -385.094)
(2605.47 -8555.04 2749.14)
(1376.58 -5056.29 4011.2)
(-1333.37 -2602.9 1572.16)
(-2836.21 -1751.74 -843.635)
(-4740.91 -343.486 -1677.03)
(-6666.64 571.476 -1929.82)
(-8555.34 1091.86 -1872.28)
(-9509.86 1178.49 -2043.59)
(-9281.03 970.212 -1491.66)
(-7466.21 987.435 -2366.38)
(-5383.82 1343.88 -3173.97)
(-3745.41 2022.81 -3638.16)
(-2528.19 2922.08 -3625.74)
(-1509.7 3998.29 -2961.31)
(-625.24 5265.09 -1518.39)
(110.123 6811.76 638.994)
(1390.37 8706.52 3203.39)
(-3214.67 5909.67 6493.78)
(-3161.94 6687.36 7825.07)
(-1908.7 7585.17 4160.91)
(-1897.22 7402.21 -635.838)
(210.029 3263.6 -1491.87)
(2353.74 705.499 -1648.46)
(4737.9 -888.74 -1282.07)
(6944.86 -1588.26 -860.658)
(8094.92 -1564.89 -866.958)
(7573.52 -1259.82 -1472.58)
(5952.61 -1118.01 -2297.97)
(3869.79 -1352.91 -3254.12)
(2293.83 -1906.69 -4009.65)
(1399.94 -2589.54 -4491.23)
(903.111 -3373.01 -4782.84)
(638.733 -4376.68 -4910.59)
(632.839 -5755.4 -4836.22)
(989.265 -7760.66 -4333.25)
(-975.25 -7866.13 -335.928)
(2840.63 -9673.85 2441.93)
(2686.95 -7386.1 4531.21)
(-1034.41 -2880.06 3695.05)
(-2446.58 -2741.59 -69.0357)
(-4486.01 -1064.55 -1150.01)
(-6579.52 152.213 -1332.93)
(-8680.11 893.739 -1009.18)
(-9812.33 1065.51 -945.479)
(-9467.61 868.078 743.631)
(-8227.55 804.721 46.651)
(-6284.53 948.703 -1079.86)
(-4650.66 1413.74 -1905.27)
(-3348.76 2144.89 -2239.53)
(-2234.7 3115.52 -1920.43)
(-1246.38 4346.73 -851.136)
(-357.147 5924.54 910.391)
(1290.05 7777.5 3094.56)
(-3753.37 6285.03 9154.67)
(-3867.29 8892.89 10384.1)
(-2728.55 10270.3 4820.2)
(-1748.22 7740.62 -522.725)
(-659.434 4847.46 -2379.52)
(1860.07 1376.45 -1525.86)
(4263.14 -542.259 -445.067)
(6688.78 -1496.88 785.309)
(7896.38 -1502.41 1242.58)
(7547.93 -1152.41 875.547)
(6400.78 -919.408 218.695)
(4419.49 -942.329 -1034.72)
(2921.02 -1257.06 -2097.87)
(2068.01 -1698.51 -2844.78)
(1557.14 -2233.72 -3416.27)
(1230.95 -2963.11 -3891.62)
(1101.97 -4044.74 -4301.29)
(1294.79 -5652.38 -4449.27)
(-1702.6 -6111.32 741.628)
(2883.3 -8573.53 4018.36)
(4073.05 -9049.96 6393.37)
(783.859 -5436.12 5953.7)
(-2577.07 -2944.14 2578.3)
(-4218.75 -1846.9 51.047)
(-6434.51 -299.847 -20.6409)
(-8710.01 724.682 781.765)
(-9758.92 955.1 1055.31)
(-8816.68 754.064 3909.32)
(-7855.87 599.625 2998.65)
(-6482.28 570.165 1825.36)
(-5131.94 791.878 838.365)
(-3833.67 1330.92 186.77)
(-2619.48 2223.04 83.4148)
(-1509.69 3477.09 665.554)
(-448.02 5116.07 1893.24)
(1396.01 6362.03 3749.1)
(-5204.84 8152.11 16405.6)
(-4788.71 9643.42 18148.5)
(-2671.2 9985.65 9833.46)
(-2671.67 9482.4 -85.1963)
(-2844.28 7499.99 -3817)