/*--------------------------------*- C++ -*----------------------------------*\
| =========                 |                                                 |
| \\      /  F ield         | OpenFOAM: The Open Source CFD Toolbox           |
|  \\    /   O peration     | Version:  2312                                  |
|   \\  /    A nd           | Website:  www.openfoam.com                      |
|    \\/     M anipulation  |                                                 |
\*---------------------------------------------------------------------------*/
FoamFile
{
    version     2.0;
    format      ascii;
    arch        "LSB;label=32;scalar=64";
    class       volVectorField;
    location    "0.6";
    object      traction;
}
// * * * * * * * * * * * * * * * * * * * * * * * * * * * * * * * * * * * * * //

dimensions      [1 -1 -2 0 0 0 0];

internalField   uniform (0 0 0);

boundaryField
{
    fixed
    {
        type            calculated;
        value           nonuniform List<vector> 
108
(
(-2966.29 2216.19 -21385)
(1876.04 -2957.81 3026.51)
(7093.69 -5935.79 22236)
(10821.9 -6980.98 35271.5)
(12818.1 -7420.89 41970.7)
(13815.9 -7879.09 43885.1)
(14474.2 -8334.05 42707.2)
(15045.5 -8634.83 39780.4)
(15541.6 -8749.56 36016.2)
(15916.5 -8757.43 31854.6)
(16137.9 -8779.26 27200.1)
(16189.1 -8940.37 21351.6)
(16016.7 -9359.78 13014.7)
(15394.2 -10100 625.173)
(13818.8 -11006.9 -16507.4)
(10971.4 -11473.3 -35697.1)
(7729.82 -10498.1 -48817)
(5654.3 -7397.92 -43257.2)
(2966.29 -2216.19 -21385)
(-1876.04 2957.81 3026.51)
(-7093.69 5935.79 22236)
(-10821.9 6980.98 35271.5)
(-12818.1 7420.89 41970.7)
(-13815.9 7879.09 43885.1)
(-14474.2 8334.05 42707.2)
(-15045.5 8634.83 39780.4)
(-15541.6 8749.56 36016.2)
(-15916.5 8757.43 31854.6)
(-16137.9 8779.26 27200.1)
(-16189.1 8940.37 21351.6)
(-16016.7 9359.78 13014.7)
(-15394.2 10100 625.173)
(-13818.8 11006.9 -16507.4)
(-10971.4 11473.3 -35697.1)
(-7729.82 10498.1 -48817)
(-5654.3 7397.92 -43257.2)
(785.405 -3449.3 -33707.1)
(-166.003 -11088 -17365.3)
(-64.883 -14812.4 1063.92)
(463.952 -15796.6 16572.1)
(818.883 -15805.3 27635.9)
(1008.73 -15768.7 34748)
(1223.8 -15881.6 38631.1)
(1537.98 -16062.2 39803.7)
(1904.56 -16222.5 38625.2)
(2230.81 -16357.2 35290.7)
(2438.02 -16546.6 29802.3)
(2489.94 -16905.6 21953.5)
(2356.21 -17469.8 11353.7)
(1892 -18042.1 -2347.94)
(777.74 -18088.4 -18703.4)
(-1083.7 -16782.4 -35159.3)
(-2640.7 -13085.4 -46174.5)
(-2197.57 -5990.99 -44437.7)
(-785.405 3449.3 -33707.1)
(166.003 11088 -17365.3)
(64.8831 14812.4 1063.92)
(-463.952 15796.6 16572.1)
(-818.883 15805.3 27635.9)
(-1008.73 15768.7 34748)
(-1223.8 15881.6 38631.1)
(-1537.98 16062.2 39803.7)
(-1904.56 16222.5 38625.2)
(-2230.81 16357.2 35290.7)
(-2438.02 16546.6 29802.3)
(-2489.94 16905.6 21953.5)
(-2356.21 17469.8 11353.7)
(-1892 18042.1 -2347.94)
(-777.74 18088.4 -18703.4)
(1083.7 16782.4 -35159.3)
(2640.7 13085.4 -46174.5)
(2197.57 5990.99 -44437.7)
(-3232.52 -5170.68 -41244.6)
(-8233.33 -8907.16 -37924.3)
(-11502.4 -11049.7 -29920.5)
(-13173 -11776.1 -18389.4)
(-14235.7 -11586.5 -5951.01)
(-15208.5 -11189.5 5396.98)
(-15951.3 -11049.6 14269.3)
(-16175.5 -11189.5 19754.4)
(-15824.8 -11391.7 21381.8)
(-15106.5 -11502.1 19028.6)
(-14296.4 -11572.8 12831.8)
(-13517.6 -11735.8 3181.86)
(-12710.4 -11895.6 -9142.81)
(-11841.6 -11586.2 -22665.7)
(-10970.8 -10294.5 -35015.8)
(-9759.27 -7899.34 -43484.9)
(-7104.78 -4426.02 -46445.3)
(-2415.8 226.749 -44763.2)
(3232.52 5170.68 -41244.6)
(8233.33 8907.16 -37924.3)
(11502.4 11049.7 -29920.5)
(13173 11776.1 -18389.4)
(14235.7 11586.5 -5951.01)
(15208.5 11189.5 5396.98)
(15951.3 11049.6 14269.3)
(16175.5 11189.5 19754.4)
(15824.8 11391.7 21381.8)
(15106.5 11502.1 19028.6)
(14296.4 11572.8 12831.8)
(13517.6 11735.8 3181.86)
(12710.4 11895.6 -9142.81)
(11841.6 11586.2 -22665.7)
(10970.8 10294.5 -35015.8)
(9759.27 7899.34 -43484.9)
(7104.78 4426.02 -46445.3)
(2415.8 -226.749 -44763.2)
)
;
    }
    inside
    {
        type            calculated;
        value           nonuniform List<vector> 
540
(
(13269 -11471.7 23643.7)
(12672.4 -3015.61 25534.8)
(7988.65 4282.42 23944.4)
(-16.1408 7690.86 20108.1)
(-8005.88 6909.89 15965.9)
(-13414.8 3268.31 12361.2)
(-15142.9 -1256.87 9315.11)
(-13352.9 -4703.49 6619.35)
(-9146.85 -5554.41 4150.54)
(-4212.37 -2969.9 1975.17)
(-458.019 3062.34 379.909)
(429.709 11610.7 -121.15)
(-2433.54 20779.7 1130.69)
(-8435 28005 4564.95)
(-15138 31019.5 9711.03)
(-19257.9 29299.3 14947.3)
(-18967.9 24468.7 18681.3)
(-15790.7 18469.1 21172.5)
(-13269 11471.7 23643.7)
(-12672.4 3015.61 25534.8)
(-7988.65 -4282.42 23944.4)
(16.1406 -7690.86 20108.1)
(8005.88 -6909.89 15965.9)
(13414.8 -3268.31 12361.2)
(15142.9 1256.86 9315.11)
(13352.9 4703.49 6619.35)
(9146.85 5554.41 4150.54)
(4212.37 2969.9 1975.17)
(458.019 -3062.34 379.909)
(-429.709 -11610.7 -121.15)
(2433.54 -20779.7 1130.69)
(8435 -28005 4564.95)
(15138 -31019.5 9711.03)
(19257.9 -29299.3 14947.3)
(18967.9 -24468.7 18681.3)
(15790.7 -18469.1 21172.5)
(7254.34 -12310.3 25993.5)
(10567.9 -207.268 27966)
(11620.9 9911.88 25966.9)
(9148.16 17046.6 22216.8)
(3591.23 19719.2 17854)
(-2117.91 18495.8 13887.2)
(-5763.11 15326.4 10536.6)
(-6695.07 12149.5 7616.47)
(-5407.63 10307.4 4948.5)
(-2984.71 10379.8 2506.41)
(-586.731 12172.3 412.252)
(1015 14867.2 -1133.7)
(1715.79 17391.6 -1939.44)
(1948.9 18999.7 -1880.64)
(2028.95 19804.6 -796.032)
(1449.65 20640.4 1888.42)
(-1673.44 22233.1 7931.55)
(-4451.8 21099.9 17392.2)
(-7254.34 12310.3 25993.5)
(-10567.9 207.268 27966)
(-11620.9 -9911.88 25966.9)
(-9148.16 -17046.6 22216.8)
(-3591.23 -19719.2 17854)
(2117.91 -18495.8 13887.2)
(5763.11 -15326.4 10536.6)
(6695.07 -12149.5 7616.47)
(5407.63 -10307.4 4948.5)
(2984.71 -10379.8 2506.41)
(586.731 -12172.3 412.252)
(-1015 -14867.2 -1133.7)
(-1715.79 -17391.6 -1939.44)
(-1948.9 -18999.7 -1880.64)
(-2028.95 -19804.6 -796.032)
(-1449.65 -20640.4 1888.42)
(1673.44 -22233.1 7931.55)
(4451.8 -21099.9 17392.2)
(34229.8 6207.06 30840.2)
(23949 14303.3 29123.4)
(22478.6 21803.8 24758.4)
(18326.1 27434.8 19954.2)
(11527.5 29056.3 15431.9)
(4886.89 27350 11719.5)
(439.212 24316.5 8696.75)
(-1417.36 21644.4 6017.85)
(-1297.47 20382.4 3467.16)
(-298.691 20849.3 1051.23)
(502.627 22602.2 -1042.5)
(522.105 24690.9 -2564.03)
(-154.54 26129.6 -3327.87)
(-1024.81 26355.4 -3291.29)
(-1771.83 25546.1 -2541.97)
(-2356.81 24310.6 -1304.75)
(-6232.8 25109.1 1630.31)
(-27139.3 26671.2 13417.5)
(-34229.8 -6207.06 30840.2)
(-23949 -14303.3 29123.4)
(-22478.6 -21803.8 24758.4)
(-18326.1 -27434.8 19954.2)
(-11527.5 -29056.3 15431.9)
(-4886.89 -27350 11719.5)
(-439.212 -24316.5 8696.75)
(1417.36 -21644.4 6017.85)
(1297.47 -20382.4 3467.16)
(298.691 -20849.3 1051.23)
(-502.627 -22602.2 -1042.5)
(-522.105 -24690.9 -2564.03)
(154.54 -26129.6 -3327.87)
(1024.81 -26355.4 -3291.29)
(1771.83 -25546.1 -2541.97)
(2356.81 -24310.6 -1304.75)
(6232.8 -25109.1 1630.31)
(27139.3 -26671.2 13417.5)
(9820.31 18979.3 8485.46)
(17230.9 22190.2 15140.3)
(19004 26301.4 14972.8)
(17443.4 30341.5 13012.1)
(12579.8 31420.4 10540.6)
(7295.05 29786.5 8151.64)
(3701.98 27207 5892.32)
(2242.97 25132.2 3597.49)
(2355.45 24360.3 1177.65)
(3043.02 24990.5 -1262.28)
(3404.76 26416.3 -3455.75)
(3087.14 27667.8 -5121.09)
(2352.2 27899.7 -6108.86)
(1851.49 26475.2 -6490.55)
(2395.19 22879.8 -6705.81)
(5022.45 16608.4 -7754.12)
(9833.99 6977.76 -10393)
(5099.44 -7173.46 -6985.5)
(-9820.31 -18979.3 8485.46)
(-17230.9 -22190.2 15140.3)
(-19004 -26301.4 14972.8)
(-17443.4 -30341.5 13012.1)
(-12579.8 -31420.4 10540.6)
(-7295.05 -29786.5 8151.64)
(-3701.98 -27207 5892.32)
(-2242.97 -25132.2 3597.49)
(-2355.45 -24360.3 1177.65)
(-3043.02 -24990.5 -1262.28)
(-3404.76 -26416.3 -3455.75)
(-3087.14 -27667.8 -5121.09)
(-2352.2 -27899.7 -6108.86)
(-1851.49 -26475.2 -6490.55)
(-2395.19 -22879.8 -6705.81)
(-5022.45 -16608.4 -7754.12)
(-9833.99 -6977.76 -10393)
(-5099.44 7173.46 -6985.5)
(-11843.6 19176.6 -481.882)
(-117.778 21217.5 5065.88)
(7005.06 24391.1 6847.07)
(9167.99 27488.7 7035.34)
(7924.48 28636.7 6586.19)
(5652.23 27657.6 5602)
(4173.64 25762.2 4112.46)
(4082.19 24184.1 2169.32)
(5026.65 23604 -145.488)
(6209.66 24044.5 -2624.36)
(6929.69 24948.9 -4957.61)
(6958.32 25522.7 -6870.81)
(6540.97 25083.1 -8211.7)
(6319.33 22804.8 -8952.02)
(7383.85 17556 -9370.43)
(10891 8717.44 -10098.8)
(16826.4 -3142.29 -11093.5)
(19255.5 -14368.1 -8393.1)
(11843.6 -19176.6 -481.882)
(117.777 -21217.5 5065.88)
(-7005.06 -24391.1 6847.07)
(-9167.99 -27488.7 7035.34)
(-7924.48 -28636.7 6586.19)
(-5652.23 -27657.6 5602)
(-4173.64 -25762.2 4112.46)
(-4082.19 -24184.1 2169.32)
(-5026.65 -23604 -145.488)
(-6209.66 -24044.5 -2624.36)
(-6929.69 -24948.9 -4957.61)
(-6958.32 -25522.7 -6870.81)
(-6540.97 -25083.1 -8211.7)
(-6319.33 -22804.8 -8952.02)
(-7383.85 -17556 -9370.43)
(-10891 -8717.44 -10098.8)
(-16826.4 3142.29 -11093.5)
(-19255.5 14368.1 -8393.1)
(-22156.2 19183.1 -3418.19)
(-13477.6 19630 848.719)
(-5738.34 21124.7 2946.74)
(-1077.71 23294.4 4008.57)
(1103.12 24646.5 4640.3)
(2144.45 24461.9 4597.45)
(3173.65 23225.4 3712.59)
(4776.57 21902.6 2094.31)
(6848.52 21146.1 -67.4793)
(8842.93 21023.7 -2508.4)
(10253.2 21136.5 -4937.13)
(10901 20914.5 -7143.05)
(10943.5 19812.4 -8962.59)
(11008.3 16921.6 -10149.3)
(12405.2 10924.7 -10650.4)
(16487.5 1544.65 -10804.8)
(22750.4 -8933.21 -10583)
(26186.6 -16531 -8417.21)
(22156.2 -19183.1 -3418.19)
(13477.6 -19630 848.719)
(5738.34 -21124.7 2946.74)
(1077.71 -23294.4 4008.57)
(-1103.12 -24646.5 4640.3)
(-2144.45 -24461.9 4597.45)
(-3173.65 -23225.4 3712.59)
(-4776.57 -21902.6 2094.31)
(-6848.52 -21146.1 -67.4794)
(-8842.93 -21023.7 -2508.4)
(-10253.2 -21136.5 -4937.13)
(-10901 -20914.5 -7143.05)
(-10943.5 -19812.4 -8962.59)
(-11008.3 -16921.6 -10149.3)
(-12405.2 -10924.7 -10650.4)
(-16487.5 -1544.65 -10804.8)
(-22750.4 8933.21 -10583)
(-26186.6 16531 -8417.21)
(-30990.6 18888.3 -2851.72)
(-24092.9 18112.2 218.654)
(-16285.6 18469.7 2016.56)
(-9970.8 20026.8 3113.03)
(-5281.01 21536.3 3952.24)
(-1588.77 21928.6 4287.08)
(1641.2 21120.9 3808.79)
(4809.14 19795.3 2528.26)
(7964.95 18599.5 627.256)
(10790.5 17703.9 -1635.87)
(12933.1 16856.8 -4021.11)
(14234.7 15639.5 -6386.88)
(14821.7 13594.5 -8535.13)
(15404.8 9905.71 -9997.65)
(17415.4 3534.9 -10418.4)
(22094.8 -5206.77 -9904.1)
(28592.4 -13514.6 -8613.92)
(32851.4 -18219.5 -6299.75)
(30990.6 -18888.3 -2851.72)
(24092.9 -18112.2 218.654)
(16285.6 -18469.7 2016.56)
(9970.8 -20026.8 3113.03)
(5281.01 -21536.3 3952.24)
(1588.77 -21928.6 4287.08)
(-1641.2 -21120.9 3808.79)
(-4809.14 -19795.3 2528.26)
(-7964.96 -18599.5 627.256)
(-10790.5 -17703.9 -1635.87)
(-12933.1 -16856.8 -4021.11)
(-14234.7 -15639.5 -6386.88)
(-14821.7 -13594.5 -8535.13)
(-15404.8 -9905.71 -9997.65)
(-17415.4 -3534.9 -10418.4)
(-22094.8 5206.77 -9904.1)
(-28592.4 13514.6 -8613.92)
(-32851.4 18219.5 -6299.75)
(-38058.3 18427.8 -38.4038)
(-32171.3 16519.3 1879.33)
(-24414.5 16191 2907.97)
(-17038.9 17416.5 3490.11)
(-10673.6 18935.4 3974.73)
(-5155.05 19524.5 4232.92)
(-262.555 18821.5 3941)
(4209.21 17293.8 2965.17)
(8338.83 15553.7 1389.18)
(11957 13850.1 -585.043)
(14820.8 12035.2 -2767.49)
(16804.8 9784.09 -5035.83)
(18103 6709.38 -7123.43)
(19545 2215.58 -8441.16)
(22506.5 -4211.06 -8502.41)
(27898.7 -11751.4 -7316.22)
(34610.4 -17733.6 -5223.5)
(39060.2 -19778.1 -2638.75)
(38058.3 -18427.8 -38.4039)
(32171.3 -16519.3 1879.33)
(24414.5 -16191 2907.97)
(17038.9 -17416.5 3490.11)
(10673.6 -18935.4 3974.73)
(5155.05 -19524.5 4232.92)
(262.555 -18821.5 3941)
(-4209.21 -17293.8 2965.17)
(-8338.83 -15553.7 1389.18)
(-11957 -13850.1 -585.043)
(-14820.8 -12035.2 -2767.49)
(-16804.8 -9784.09 -5035.83)
(-18103 -6709.38 -7123.43)
(-19545 -2215.58 -8441.16)
(-22506.5 4211.06 -8502.41)
(-27898.7 11751.4 -7316.22)
(-34610.4 17733.6 -5223.5)
(-39060.2 19778.1 -2638.75)
(-44012.2 17914.9 4103.94)
(-38479.5 14754.9 5044.92)
(-30722.3 13697.3 5146.46)
(-22736.6 14504.1 4954.29)
(-15344.5 15751.1 4828.22)
(-8646.6 16156.8 4749.26)
(-2570.46 15283.2 4444.36)
(2957.49 13452.3 3678)
(7965.87 11187 2413.32)
(12351.7 8753.81 772.921)
(15955.5 6087.35 -1087.78)
(18723.6 2957.61 -3012.94)
(20964.2 -929.811 -4668.54)
(23552.2 -5908.98 -5480.65)
(27647.7 -11987.8 -5002.16)
(33763.8 -18020.3 -3236.23)
(40581 -21651.9 -626.733)
(44873.7 -21225.9 2081.25)
(44012.2 -17914.9 4103.94)
(38479.5 -14754.9 5044.92)
(30722.3 -13697.3 5146.46)
(22736.6 -14504.1 4954.29)
(15344.5 -15751.1 4828.22)
(8646.6 -16156.8 4749.26)
(2570.46 -15283.2 4444.36)
(-2957.49 -13452.3 3678)
(-7965.87 -11187 2413.32)
(-12351.7 -8753.81 772.921)
(-15955.5 -6087.35 -1087.78)
(-18723.6 -2957.61 -3012.94)
(-20964.2 929.811 -4668.54)
(-23552.2 5908.98 -5480.65)
(-27647.7 11987.8 -5002.16)
(-33763.8 18020.3 -3236.23)
(-40581 21651.9 -626.733)
(-44873.7 21225.9 2081.25)
(-49165.9 17327.9 9200.97)
(-43694.9 12839.9 9345.18)
(-35930 10752.1 8625.8)
(-27638.3 10716.9 7679.47)
(-19656.7 11271.4 6914)
(-12205.5 11159.8 6394.93)
(-5292.79 9931.65 5921.14)
(1077.01 7772.68 5234.9)
(6870.18 5061.08 4217.42)
(12011.4 2034.33 2915.51)
(16418.4 -1290.51 1461.47)
(20137 -5035.28 56.1909)
(23557.3 -9377 -946.672)
(27479.9 -14400.9 -1076.52)
(32761.5 -19720.6 0.161987)
(39528.5 -23999.1 2238.9)
(46307.1 -25232.8 5118.78)
(50218.9 -22462.9 7724.81)
(49165.9 -17327.9 9200.97)
(43694.9 -12839.9 9345.18)
(35930 -10752.1 8625.8)
(27638.3 -10716.9 7679.47)
(19656.7 -11271.4 6914)
(12205.5 -11159.8 6394.93)
(5292.79 -9931.64 5921.14)
(-1077.01 -7772.68 5234.9)
(-6870.18 -5061.08 4217.42)
(-12011.4 -2034.33 2915.51)
(-16418.4 1290.51 1461.47)
(-20137 5035.28 56.1907)
(-23557.3 9377 -946.672)
(-27479.9 14400.9 -1076.52)
(-32761.5 19720.6 0.16208)
(-39528.5 23999.1 2238.9)
(-46307.1 25232.8 5118.78)
(-50218.9 22462.9 7724.81)
(-53416.4 16548.1 15297.8)
(-48050.8 10745.5 14790.1)
(-40431.7 7335.84 13449.7)
(-32094.3 5972.1 11919.5)
(-23828.3 5379.99 10615)
(-15912.5 4451.91 9653.8)
(-8424.86 2719.44 8918.44)
(-1421.04 203.933 8204.37)
(5042.37 -2884.22 7374.6)
(10927.2 -6350.59 6422.34)
(16231.8 -10105.7 5454.7)
(21080.6 -14166.4 4682.93)
(25856.3 -18570.1 4421.58)
(31174.3 -23156.8 5013.76)
(37549.1 -27247 6664.55)
(44767.9 -29455.7 9243.11)
(51302.7 -28225.9 12143.4)
(54704 -23286.4 14410.1)
(53416.4 -16548.1 15297.8)
(48050.8 -10745.5 14790.1)
(40431.7 -7335.84 13449.7)
(32094.3 -5972.1 11919.5)
(23828.3 -5379.99 10615)
(15912.5 -4451.91 9653.8)
(8424.86 -2719.43 8918.44)
(1421.04 -203.931 8204.37)
(-5042.37 2884.22 7374.6)
(-10927.2 6350.59 6422.34)
(-16231.8 10105.7 5454.7)
(-21080.6 14166.4 4682.93)
(-25856.3 18570.1 4421.58)
(-31174.3 23156.8 5013.76)
(-37549.1 27247 6664.55)
(-44767.9 29455.7 9243.11)
(-51302.7 28225.9 12143.4)
(-54704 23286.4 14410.1)
(-56077.6 15395.7 22770.8)
(-51128.3 8425.47 21753)
(-44025.2 3548.05 20006.3)
(-36018.1 526.927 18104)
(-27818.1 -1560.56 16420.2)
(-19749.8 -3581.24 15102.5)
(-11968.7 -6018.86 14127.9)
(-4562.47 -9008.57 13383.6)
(2435.56 -12469.4 12755.6)
(9046.74 -16232.3 12201.8)
(15324.4 -20154.3 11791.7)
(21400.4 -24154 11702.1)
(27543.7 -28102.8 12171.5)
(34111.1 -31619.2 13416.9)
(41277.2 -33880.6 15503.6)
(48579.1 -33686 18181.6)
(54593.6 -30071.6 20796.1)
(57430.3 -23349.6 22498.1)
(56077.6 -15395.7 22770.8)
(51128.3 -8425.47 21753)
(44025.2 -3548.05 20006.3)
(36018.1 -526.927 18104)
(27818.1 1560.57 16420.2)
(19749.8 3581.24 15102.5)
(11968.7 6018.86 14127.9)
(4562.47 9008.57 13383.6)
(-2435.56 12469.4 12755.6)
(-9046.74 16232.3 12201.8)
(-15324.4 20154.3 11791.7)
(-21400.4 24154 11702.1)
(-27543.7 28102.8 12171.5)
(-34111 31619.2 13416.9)
(-41277.2 33880.6 15503.6)
(-48579.1 33686 18181.6)
(-54593.6 30071.6 20796.1)
(-57430.3 23349.6 22498.1)
(-55237.2 13551.4 32334.9)
(-51267.4 5911.88 31038.6)
(-45335 -202.646 29165.3)
(-38318.8 -4842.45 27164.8)
(-30806.3 -8526.2 25354.1)
(-23148.2 -11841.8 23914.1)
(-15552.3 -15216.9 22910.8)
(-8108.44 -18827.5 22300.4)
(-811.508 -22611.2 21973.4)
(6379.12 -26386.7 21853.5)
(13489.4 -29985.4 21976.1)
(20557.2 -33258.9 22472.3)
(27668 -35960.5 23492)
(34908.2 -37624.2 25119.7)
(42174 -37544 27277.5)
(48906.8 -34967.3 29633.7)
(54012.3 -29563.5 31605.1)
(56297.6 -21937.5 32592.4)
(55237.2 -13551.4 32334.9)
(51267.5 -5911.88 31038.6)
(45335 202.646 29165.3)
(38318.8 4842.45 27164.8)
(30806.3 8526.2 25354.1)
(23148.2 11841.8 23914.1)
(15552.3 15216.9 22910.8)
(8108.45 18827.5 22300.4)
(811.509 22611.2 21973.4)
(-6379.12 26386.7 21853.5)
(-13489.4 29985.4 21976.1)
(-20557.2 33258.9 22472.3)
(-27668 35960.5 23492)
(-34908.2 37624.2 25119.7)
(-42174 37544 27277.5)
(-48906.8 34967.3 29633.7)
(-54012.3 29563.5 31605.1)
(-56297.6 21937.5 32592.4)
(-46981.5 10156.6 46406.2)
(-44536.3 3073.46 45148.6)
(-40517.5 -3162.81 43512.4)
(-35403.6 -8479.62 41811.5)
(-29598.8 -13072.3 40320.3)
(-23394.8 -17235.9 39237)
(-16963.6 -21190.9 38632.2)
(-10368.6 -24976 38422.2)
(-3615.27 -28482.4 38456.4)
(3262.34 -31555.6 38655.6)
(10194.6 -34075 39072.7)
(17087.8 -35901.1 39819.8)
(23870.3 -36795.4 40958.9)
(30438.9 -36407.9 42446.4)
(36569.6 -34360 44110.6)
(41830.1 -30408.1 45654.6)
(45621.5 -24646.6 46709.4)
(47408.5 -17612.5 46983.1)
(46981.5 -10156.6 46406.2)
(44536.3 -3073.46 45148.6)
(40517.5 3162.81 43512.4)
(35403.7 8479.62 41811.5)
(29598.8 13072.3 40320.3)
(23394.8 17235.9 39237)
(16963.6 21190.9 38632.2)
(10368.6 24976 38422.2)
(3615.27 28482.4 38456.4)
(-3262.34 31555.6 38655.6)
(-10194.6 34075 39072.7)
(-17087.8 35901.1 39819.8)
(-23870.3 36795.4 40958.9)
(-30438.9 36407.9 42446.4)
(-36569.6 34360 44110.6)
(-41830.1 30408.1 45654.6)
(-45621.5 24646.6 46709.4)
(-47408.5 17612.5 46983.1)
(-17752.4 3031.47 53602.8)
(-16769.9 64.3706 53333.6)
(-15098.4 -2447.89 53056.5)
(-12948.3 -4427.23 52912.9)
(-10535.5 -5922.86 52996.5)
(-8045.85 -7057.72 53256)
(-5622.54 -7997.85 53561.8)
(-3332.3 -8919.58 53735.1)
(-1146.48 -9969.55 53701.2)
(1029.35 -11177.6 53448.8)
(3300.55 -12438 53065.7)
(5715.3 -13542.8 52727.3)
(8263.95 -14238.9 52586.3)
(10868.1 -14281.9 52710.7)
(13372.6 -13479.7 53025.7)
(15544.8 -11765.4 53393.4)
(17119.7 -9249.23 53660.6)
(17885.9 -6211.08 53734.7)
(17752.4 -3031.47 53602.8)
(16770 -64.3706 53333.6)
(15098.4 2447.89 53056.5)
(12948.3 4427.23 52912.9)
(10535.5 5922.86 52996.5)
(8045.85 7057.72 53256)
(5622.54 7997.85 53561.8)
(3332.3 8919.58 53735.1)
(1146.48 9969.55 53701.2)
(-1029.34 11177.6 53448.8)
(-3300.55 12438 53065.7)
(-5715.3 13542.8 52727.3)
(-8263.95 14238.9 52586.3)
(-10868.1 14281.9 52710.7)
(-13372.6 13479.7 53025.7)
(-15544.8 11765.4 53393.4)
(-17119.7 9249.23 53660.6)
(-17885.9 6211.08 53734.7)
)
;
    }
    outside
    {
        type            calculated;
        value           nonuniform List<vector> 
540
(
(546.53 -14667.2 -15039)
(19943.4 -11211.9 686.988)
(31054.8 -1877.76 7910.39)
(34535.9 8136.42 9654)
(31797.1 15765.8 8805.19)
(25144.7 20220 6970.02)
(16674.2 21755.1 4802.49)
(7943.01 21012 2534.11)
(-45.3733 18721.1 252.787)
(-6716.68 15473.8 -1982.38)
(-11683.2 11502.8 -4141.18)
(-14379.2 6585.87 -6328.46)
(-13706 284.881 -9032.76)
(-8100.73 -7237.04 -13476.9)
(3119.54 -13830.3 -21442.8)
(16843.7 -14797.2 -32768.4)
(25397.8 -6542.15 -40846.9)
(19040 7157.14 -33892.5)
(-546.529 14667.2 -15039)
(-19943.4 11211.9 686.988)
(-31054.8 1877.76 7910.39)
(-34535.9 -8136.42 9654)
(-31797.1 -15765.8 8805.19)
(-25144.7 -20220 6970.02)
(-16674.2 -21755.1 4802.49)
(-7943.01 -21012 2534.11)
(45.3733 -18721.1 252.787)
(6716.68 -15473.8 -1982.38)
(11683.2 -11502.8 -4141.18)
(14379.2 -6585.87 -6328.46)
(13706 -284.88 -9032.76)
(8100.73 7237.04 -13476.9)
(-3119.54 13830.3 -21442.8)
(-16843.7 14797.2 -32768.4)
(-25397.8 6542.15 -40846.9)
(-19040 -7157.14 -33892.5)
(19969.7 -10345.6 -3306.06)
(25897.9 -7632.5 5027.72)
(27873.3 -1702.83 7902.4)
(26292.2 2870 8015.28)
(22355.6 5552.91 7159.55)
(17149.4 6592.46 5862.63)
(11488.9 6307.36 4259.82)
(6049.76 5284.07 2422.77)
(1191.34 4218.83 431.286)
(-3069.47 3641.62 -1592.79)
(-6902.92 3712.98 -3483.99)
(-10430.5 4180.18 -5062.99)
(-13539.1 4481.67 -6209.21)
(-15824 3946.23 -7014.62)
(-16838.3 2253.44 -8014.78)
(-16963.5 354.713 -10006.3)
(-17233.4 673.676 -12216.5)
(-15759.6 4878.21 -11557.2)
(-19969.7 10345.6 -3306.06)
(-25897.9 7632.5 5027.72)
(-27873.3 1702.83 7902.4)
(-26292.2 -2870 8015.28)
(-22355.6 -5552.91 7159.55)
(-17149.4 -6592.46 5862.63)
(-11488.9 -6307.36 4259.82)
(-6049.76 -5284.07 2422.77)
(-1191.34 -4218.83 431.286)
(3069.47 -3641.62 -1592.79)
(6902.92 -3712.98 -3483.99)
(10430.5 -4180.18 -5062.99)
(13539.1 -4481.67 -6209.21)
(15824 -3946.23 -7014.62)
(16838.3 -2253.44 -8014.78)
(16963.5 -354.713 -10006.3)
(17233.4 -673.676 -12216.5)
(15759.6 -4878.21 -11557.2)
(12737.3 -11101.4 5817.45)
(28136.3 -5287.78 10951)
(30972.7 1743.26 10245.1)
(28638.6 5585.66 8572.44)
(24681.3 7901.18 7036.22)
(19933.6 9186.56 5656.26)
(14766.1 9595.75 4224.66)
(9510.89 9422.51 2618.98)
(4430.83 9111.22 856.134)
(-369.065 9016.62 -932.689)
(-4881.88 9198.9 -2539.02)
(-9049.23 9366 -3734.98)
(-12636.3 8891.6 -4367.56)
(-15160.4 6824.32 -4532.93)
(-16050.3 2251.05 -4869.38)
(-15524.5 -4307.64 -6644.23)
(-12071.4 -9216.2 -10373.5)
(-1405.82 -4906.73 -7271.1)
(-12737.3 11101.4 5817.45)
(-28136.3 5287.78 10951)
(-30972.7 -1743.26 10245.1)
(-28638.6 -5585.66 8572.44)
(-24681.3 -7901.18 7036.22)
(-19933.6 -9186.56 5656.26)
(-14766.1 -9595.75 4224.66)
(-9510.89 -9422.51 2618.98)
(-4430.83 -9111.22 856.134)
(369.065 -9016.62 -932.689)
(4881.88 -9198.9 -2539.02)
(9049.23 -9366 -3734.98)
(12636.3 -8891.6 -4367.56)
(15160.4 -6824.32 -4532.93)
(16050.3 -2251.05 -4869.38)
(15524.5 4307.64 -6644.23)
(12071.4 9216.2 -10373.5)
(1405.82 4906.73 -7271.1)
(24214.7 6044.34 18624.7)
(31262 2361.99 15683.3)
(31369.3 4665.46 11590.1)
(28549.5 6763.5 8408.17)
(24477.8 8086.7 6143.51)
(20069.8 8876.27 4623.23)
(15553.9 9239.03 3367.07)
(10948.2 9269.65 2024.16)
(6332.23 9183.66 510.238)
(1802.91 9185.11 -1064.66)
(-2556.58 9290.01 -2479.08)
(-6626.28 9250.77 -3474.34)
(-10187.5 8497.65 -3843.14)
(-12856.6 6034.7 -3563)
(-14206.4 718.614 -2956.45)
(-14460.4 -7487.05 -2709.47)
(-13047.1 -14983.5 -3293.6)
(-14986.9 -16511.7 3945.87)
(-24214.7 -6044.34 18624.7)
(-31262 -2361.99 15683.3)
(-31369.3 -4665.46 11590.1)
(-28549.5 -6763.5 8408.17)
(-24477.8 -8086.7 6143.51)
(-20069.8 -8876.27 4623.23)
(-15553.9 -9239.03 3367.07)
(-10948.2 -9269.65 2024.16)
(-6332.23 -9183.66 510.238)
(-1802.91 -9185.11 -1064.66)
(2556.58 -9290.01 -2479.08)
(6626.28 -9250.77 -3474.34)
(10187.5 -8497.65 -3843.14)
(12856.6 -6034.7 -3563)
(14206.4 -718.615 -2956.45)
(14460.4 7487.05 -2709.47)
(13047.1 14983.5 -3293.6)
(14986.9 16511.7 3945.87)
(20430.5 10272.4 12302.2)
(25373.7 6115.86 13615)
(27785 5956.77 11140)
(26273.5 6698.37 7905.12)
(22853.3 7134.95 5324.83)
(18961.1 7246.15 3717.22)
(15091.6 7188.51 2589.99)
(11207.2 7005.35 1456.78)
(7263.7 6765.44 146.584)
(3308.04 6549.29 -1264)
(-564.65 6326.6 -2549.16)
(-4215.98 5872.82 -3405.81)
(-7434.44 4665.41 -3543.91)
(-9877.04 1801.97 -2853.87)
(-11208.2 -3532.04 -1556.82)
(-11873.5 -10508.1 -41.2286)
(-14254.3 -14763.9 1905.05)
(-18605.5 -14612.7 6255.5)
(-20430.5 -10272.4 12302.2)
(-25373.7 -6115.86 13615)
(-27785 -5956.77 11140)
(-26273.5 -6698.37 7905.12)
(-22853.3 -7134.95 5324.83)
(-18961.1 -7246.15 3717.22)
(-15091.6 -7188.51 2589.99)
(-11207.2 -7005.35 1456.78)
(-7263.7 -6765.44 146.584)
(-3308.04 -6549.29 -1264)
(564.65 -6326.6 -2549.16)
(4215.98 -5872.82 -3405.81)
(7434.44 -4665.41 -3543.91)
(9877.04 -1801.97 -2853.87)
(11208.2 3532.04 -1556.82)
(11873.5 10508.1 -41.2286)
(14254.3 14763.9 1905.05)
(18605.5 14612.7 6255.5)
(17651.5 10948.1 10726.6)
(20480.5 7306.16 12066.3)
(22893.2 5822.93 10702.6)
(22835.2 5648.67 7885.36)
(20668.5 5551.3 5222.28)
(17601.1 5196.64 3508.9)
(14377.3 4701.05 2407.23)
(11120.1 4136.73 1385.18)
(7792.75 3525.29 212.175)
(4417.08 2874.13 -1065.44)
(1078.9 2118.07 -2216.2)
(-2088.51 1058.46 -2884.17)
(-4889.6 -708.703 -2700.73)
(-7035.92 -3753.14 -1557.8)
(-8306.07 -8255.38 199.068)
(-9190.73 -13015.1 2158.78)
(-11289.5 -15424.4 4435.99)
(-14733.6 -14413.7 7474.68)
(-17651.5 -10948.1 10726.6)
(-20480.5 -7306.16 12066.3)
(-22893.2 -5822.93 10702.6)
(-22835.2 -5648.67 7885.36)
(-20668.5 -5551.3 5222.28)
(-17601.1 -5196.64 3508.9)
(-14377.3 -4701.05 2407.23)
(-11120.1 -4136.73 1385.18)
(-7792.75 -3525.29 212.175)
(-4417.08 -2874.13 -1065.44)
(-1078.9 -2118.07 -2216.2)
(2088.51 -1058.46 -2884.17)
(4889.6 708.703 -2700.73)
(7035.92 3753.14 -1557.8)
(8306.07 8255.38 199.068)
(9190.73 13015.1 2158.78)
(11289.5 15424.4 4435.99)
(14733.6 14413.7 7474.68)
(13429.9 11141.7 11289.6)
(15982.5 7468.83 12119.7)
(18263.7 5192.85 11100.4)
(19096.7 4159.62 8674.39)
(18191.2 3562.52 6024.23)
(16155.9 2911.66 4137.77)
(13674.5 2117.39 2938.64)
(11021.8 1205.32 1938.75)
(8245.71 177.692 873.403)
(5391.36 -991.845 -235.934)
(2551.35 -2375.36 -1157.51)
(-140.552 -4103.96 -1515.4)
(-2497.67 -6362.9 -953.306)
(-4279.03 -9298.59 514.804)
(-5381.58 -12686.7 2415.98)
(-6307.02 -15541.8 4406.29)
(-8099.41 -16422.2 6626.72)
(-10828.8 -14702.1 9125.92)
(-13429.9 -11141.7 11289.6)
(-15982.5 -7468.83 12119.7)
(-18263.7 -5192.85 11100.4)
(-19096.7 -4159.62 8674.39)
(-18191.2 -3562.52 6024.23)
(-16155.9 -2911.66 4137.77)
(-13674.5 -2117.39 2938.64)
(-11021.8 -1205.32 1938.75)
(-8245.71 -177.692 873.403)
(-5391.36 991.845 -235.934)
(-2551.35 2375.36 -1157.51)
(140.552 4103.96 -1515.4)
(2497.67 6362.9 -953.306)
(4279.03 9298.59 514.804)
(5381.58 12686.7 2415.98)
(6307.02 15541.8 4406.29)
(8099.41 16422.2 6626.72)
(10828.8 14702.1 9125.92)
(9203.43 11301.5 12907.4)
(11641.4 7294.84 13311.5)
(13920.5 4362.18 12334.9)
(15309.7 2524.76 10204.3)
(15407.1 1321.5 7673.66)
(14402.4 323.272 5639.96)
(12749.5 -740.134 4284.37)
(10759.7 -1973.15 3264.9)
(8563.03 -3414.84 2324.21)
(6250.48 -5097.91 1459.2)
(3935.73 -7058 874.483)
(1763.96 -9312.46 895.959)
(-71.0024 -11819 1761.68)
(-1367.51 -14436.8 3320.12)
(-2152.09 -16823.1 5141.32)
(-2956.51 -18259.6 7051.79)
(-4505.29 -17865.4 9170.42)
(-6789.39 -15306.7 11334.5)
(-9203.43 -11301.5 12907.4)
(-11641.4 -7294.84 13311.5)
(-13920.5 -4362.18 12334.9)
(-15309.7 -2524.76 10204.3)
(-15407.1 -1321.5 7673.66)
(-14402.4 -323.272 5639.96)
(-12749.5 740.134 4284.37)
(-10759.7 1973.15 3264.9)
(-8563.03 3414.84 2324.21)
(-6250.48 5097.91 1459.2)
(-3935.73 7058 874.483)
(-1763.96 9312.45 895.958)
(71.0025 11819 1761.68)
(1367.51 14436.8 3320.12)
(2152.09 16823.1 5141.32)
(2956.51 18259.6 7051.79)
(4505.29 17865.4 9170.42)
(6789.39 15306.7 11334.5)
(5068.46 11325.4 15168)
(7471.07 6857.43 15228.7)
(9774.91 3316.47 14217.3)
(11499.7 747.813 12330)
(12303.3 -1120.58 10035.5)
(12175.4 -2604.35 8003.68)
(11345.9 -4037.13 6553.91)
(10074.3 -5642.04 5540.45)
(8534.27 -7507.76 4763.18)
(6854.5 -9650.71 4194.79)
(5166.63 -12040.9 3979.28)
(3629.03 -14582.3 4334.24)
(2438.45 -17084.6 5346.05)
(1731.59 -19274.7 6809.86)
(1342.54 -20775.3 8450.67)
(714.412 -21014.7 10233.2)
(-681.332 -19417.6 12197.6)
(-2755.35 -15924.6 14040.3)
(-5068.46 -11325.4 15168)
(-7471.07 -6857.43 15228.7)
(-9774.91 -3316.47 14217.3)
(-11499.7 -747.813 12330)
(-12303.3 1120.58 10035.5)
(-12175.4 2604.35 8003.68)
(-11345.9 4037.13 6553.91)
(-10074.3 5642.04 5540.45)
(-8534.27 7507.76 4763.18)
(-6854.5 9650.71 4194.79)
(-5166.63 12040.9 3979.28)
(-3629.03 14582.3 4334.24)
(-2438.45 17084.6 5346.05)
(-1731.59 19274.7 6809.86)
(-1342.54 20775.3 8450.67)
(-714.412 21014.7 10233.2)
(681.332 19417.6 12197.6)
(2755.35 15924.6 14040.3)
(1350.93 10986.7 17749)
(3666.88 6046.33 17551.6)
(5890.76 1957.53 16538.7)
(7725.27 -1257.08 14911.8)
(8936.72 -3783.36 12970)
(9451.97 -5855.02 11147.4)
(9351.19 -7782.89 9762.96)
(8808.14 -9835.43 8834.47)
(7994.45 -12128 8251.51)
(7051.81 -14643.9 7971.96)
(6111.59 -17280.5 8061.37)
(5324.39 -19860.6 8612.52)
(4851.77 -22124.8 9600.72)
(4727.79 -23744.2 10858.1)
(4675.75 -24319.3 12264.9)
(4170.99 -23384.3 13844.6)
(2854.79 -20612.4 15550.5)
(886.088 -16194.3 17018.1)
(-1350.93 -10986.7 17749)
(-3666.88 -6046.33 17551.6)
(-5890.76 -1957.53 16538.7)
(-7725.27 1257.08 14911.8)
(-8936.72 3783.36 12970)
(-9451.97 5855.02 11147.4)
(-9351.19 7782.89 9762.96)
(-8808.14 9835.43 8834.47)
(-7994.45 12128 8251.51)
(-7051.81 14643.9 7971.96)
(-6111.59 17280.5 8061.37)
(-5324.39 19860.6 8612.52)
(-4851.77 22124.8 9600.72)
(-4727.79 23744.2 10858.1)
(-4675.75 24319.3 12264.9)
(-4170.99 23384.3 13844.6)
(-2854.79 20612.4 15550.5)
(-886.088 16194.3 17018.1)
(-1555.78 10093.4 20331)
(517.054 4802.22 19988.4)
(2471.68 287.504 19084)
(4167.47 -3460.05 17803.7)
(5490.16 -6587.19 16334.4)
(6380.22 -9272.84 14918.3)
(6847.25 -11760.2 13787.4)
(6981.32 -14284.7 13040)
(6911.34 -16947.2 12653.9)
(6755.02 -19687.3 12589.5)
(6613.06 -22340.8 12843.4)
(6592.61 -24687.1 13412.5)
(6777.02 -26449.7 14231.4)
(7093.34 -27289.2 15208.1)
(7223.94 -26831.1 16322.4)
(6748.68 -24742.8 17597.8)
(5476.18 -20923.8 18923.8)
(3623.5 -15754.7 19953.6)
(1555.78 -10093.4 20331)
(-517.053 -4802.22 19988.4)
(-2471.68 -287.504 19084)
(-4167.47 3460.05 17803.7)
(-5490.16 6587.19 16334.4)
(-6380.22 9272.84 14918.3)
(-6847.25 11760.2 13787.4)
(-6981.32 14284.7 13040)
(-6911.34 16947.2 12653.9)
(-6755.02 19687.3 12589.5)
(-6613.06 22340.8 12843.4)
(-6592.61 24687.1 13412.5)
(-6777.02 26449.7 14231.4)
(-7093.34 27289.2 15208.1)
(-7223.94 26831.1 16322.4)
(-6748.68 24742.8 17597.8)
(-5476.18 20923.8 18923.8)
(-3623.5 15754.7 19953.6)
(-3269.52 8571.04 22597.8)
(-1628.98 3235.69 22261.7)
(-129.803 -1456.7 21626.2)
(1215.6 -5533.41 20816.9)
(2400.98 -9103.98 19921.3)
(3414.54 -12285.7 19035.1)
(4244.12 -15228.5 18283.2)
(4909.11 -18087.5 17773.6)
(5466.7 -20918.3 17547.5)
(5979.38 -23620.5 17586.8)
(6497.34 -25994.7 17852.6)
(7064.84 -27816.2 18295.4)
(7679.45 -28833.7 18856.4)
(8201.09 -28754.7 19503.5)
(8344.96 -27293.9 20254)
(7836.3 -24275.7 21107.9)
(6634.8 -19783.8 21938.5)
(5000.17 -14297.4 22496.5)
(3269.52 -8571.04 22597.8)
(1628.98 -3235.69 22261.7)
(129.803 1456.7 21626.2)
(-1215.6 5533.4 20816.9)
(-2400.98 9103.98 19921.3)
(-3414.54 12285.7 19035.1)
(-4244.12 15228.5 18283.2)
(-4909.11 18087.5 17773.6)
(-5466.7 20918.3 17547.5)
(-5979.38 23620.5 17586.8)