/*--------------------------------*- C++ -*----------------------------------*\
| =========                 |                                                 |
| \\      /  F ield         | OpenFOAM: The Open Source CFD Toolbox           |
|  \\    /   O peration     | Version:  2312                                  |
|   \\  /    A nd           | Website:  www.openfoam.com                      |
|    \\/     M anipulation  |                                                 |
\*---------------------------------------------------------------------------*/
FoamFile
{
    version     2.0;
    format      ascii;
    arch        "LSB;label=32;scalar=64";
    class       volVectorField;
    location    "0.6";
    object      U;
}
// * * * * * * * * * * * * * * * * * * * * * * * * * * * * * * * * * * * * * //

dimensions      [0 1 -1 0 0 0 0];

internalField   nonuniform List<vector> 
1620
(
(0.000346706 5.15903e-05 8.46586e-05)
(0.00028873 -1.29174e-05 -0.000104229)
(0.000242802 -9.05572e-05 -0.000223251)
(0.000201423 -0.000119953 -0.000267875)
(0.000162838 -0.000104377 -0.000263253)
(0.000131551 -7.11468e-05 -0.00022967)
(0.000110806 -3.87149e-05 -0.000181692)
(9.77527e-05 -1.2244e-05 -0.000131729)
(8.49838e-05 8.51486e-06 -8.87659e-05)
(6.47125e-05 2.40475e-05 -5.69535e-05)
(3.20756e-05 3.57528e-05 -3.54798e-05)
(-1.39342e-05 4.9447e-05 -1.84776e-05)
(-7.2529e-05 7.57587e-05 5.83572e-06)
(-0.000144736 0.000120402 5.50048e-05)
(-0.000232334 0.000165167 0.000143927)
(-0.000326246 0.000162627 0.000258651)
(-0.000395019 8.04424e-05 0.000326783)
(-0.000398991 -2.48124e-05 0.000260685)
(-0.000346706 -5.15903e-05 8.46586e-05)
(-0.00028873 1.29174e-05 -0.000104229)
(-0.000242802 9.05572e-05 -0.000223251)
(-0.000201423 0.000119953 -0.000267875)
(-0.000162838 0.000104377 -0.000263253)
(-0.000131551 7.11468e-05 -0.00022967)
(-0.000110806 3.87149e-05 -0.000181692)
(-9.77527e-05 1.2244e-05 -0.000131729)
(-8.49838e-05 -8.51486e-06 -8.87659e-05)
(-6.47125e-05 -2.40474e-05 -5.69535e-05)
(-3.20756e-05 -3.57528e-05 -3.54798e-05)
(1.39342e-05 -4.9447e-05 -1.84776e-05)
(7.2529e-05 -7.57587e-05 5.83572e-06)
(0.000144736 -0.000120402 5.50048e-05)
(0.000232334 -0.000165167 0.000143927)
(0.000326246 -0.000162627 0.000258651)
(0.000395019 -8.04424e-05 0.000326783)
(0.000398991 2.48124e-05 0.000260685)
(0.00030833 -4.14343e-05 5.48155e-05)
(0.00033274 -7.6013e-05 -3.02154e-05)
(0.000346585 -8.71467e-05 -9.31702e-05)
(0.000340833 -5.90281e-05 -0.000132407)
(0.00031371 -8.99787e-06 -0.000155758)
(0.000273009 4.13054e-05 -0.000164896)
(0.000228677 8.13875e-05 -0.000160627)
(0.000185842 0.000110709 -0.000146458)
(0.000143817 0.000132115 -0.00012642)
(9.88972e-05 0.000147477 -0.000102623)
(4.78548e-05 0.000156862 -7.4892e-05)
(-9.34803e-06 0.000159986 -4.16912e-05)
(-6.89871e-05 0.000157756 -1.08283e-06)
(-0.000126118 0.000150868 4.80883e-05)
(-0.000177987 0.000135323 0.000102688)
(-0.000223474 0.000103209 0.000149173)
(-0.000259312 5.80618e-05 0.000163586)
(-0.000284613 3.00165e-05 0.000129794)
(-0.00030833 4.14343e-05 5.48155e-05)
(-0.00033274 7.6013e-05 -3.02154e-05)
(-0.000346585 8.71467e-05 -9.31702e-05)
(-0.000340833 5.90281e-05 -0.000132407)
(-0.00031371 8.99787e-06 -0.000155758)
(-0.000273009 -4.13054e-05 -0.000164896)
(-0.000228677 -8.13875e-05 -0.000160627)
(-0.000185842 -0.000110709 -0.000146458)
(-0.000143817 -0.000132115 -0.00012642)
(-9.88972e-05 -0.000147477 -0.000102623)
(-4.78548e-05 -0.000156862 -7.4892e-05)
(9.34802e-06 -0.000159986 -4.16912e-05)
(6.89871e-05 -0.000157756 -1.08283e-06)
(0.000126118 -0.000150868 4.80883e-05)
(0.000177987 -0.000135323 0.000102688)
(0.000223474 -0.000103209 0.000149173)
(0.000259312 -5.80618e-05 0.000163586)
(0.000284613 -3.00165e-05 0.000129794)
(0.000218773 -8.54255e-05 6.50769e-06)
(0.000297976 -0.000108832 -1.13595e-05)
(0.000367439 -7.81858e-05 -3.18128e-05)
(0.000411794 -9.24834e-06 -6.48145e-05)
(0.00042111 7.02479e-05 -0.000108057)
(0.000397777 0.000141859 -0.000148547)
(0.000351874 0.000198712 -0.000174868)
(0.000293275 0.000239993 -0.000182383)
(0.000228362 0.000266093 -0.000170793)
(0.000160866 0.000276193 -0.000141114)
(9.41298e-05 0.000267866 -9.55651e-05)
(3.29682e-05 0.00023834 -3.95879e-05)
(-1.64867e-05 0.000187385 1.67593e-05)
(-4.99398e-05 0.000120883 6.06823e-05)
(-6.89245e-05 5.28196e-05 8.16899e-05)
(-8.16265e-05 4.07152e-06 7.67373e-05)
(-0.000101674 -4.01821e-06 5.40917e-05)
(-0.000146494 3.33079e-05 2.88539e-05)
(-0.000218773 8.54255e-05 6.50769e-06)
(-0.000297976 0.000108832 -1.13595e-05)
(-0.000367439 7.81858e-05 -3.18128e-05)
(-0.000411794 9.24834e-06 -6.48145e-05)
(-0.00042111 -7.02479e-05 -0.000108057)
(-0.000397777 -0.000141859 -0.000148547)
(-0.000351874 -0.000198712 -0.000174868)
(-0.000293275 -0.000239993 -0.000182383)
(-0.000228362 -0.000266093 -0.000170793)
(-0.000160866 -0.000276193 -0.000141114)
(-9.41298e-05 -0.000267866 -9.55651e-05)
(-3.29682e-05 -0.00023834 -3.95879e-05)
(1.64867e-05 -0.000187385 1.67593e-05)
(4.99398e-05 -0.000120883 6.06823e-05)
(6.89245e-05 -5.28196e-05 8.16899e-05)
(8.16265e-05 -4.07152e-06 7.67373e-05)
(0.000101674 4.01821e-06 5.40917e-05)
(0.000146494 -3.33079e-05 2.88539e-05)
(0.000913233 -9.92469e-05 0.000290874)
(0.000883743 -0.000258081 -0.000216024)
(0.000838578 -0.000333327 -0.00057661)
(0.000758404 -0.000256962 -0.000761584)
(0.00064295 -0.000104035 -0.00080805)
(0.000515408 4.02378e-05 -0.000758506)
(0.000401629 0.000141366 -0.000654581)
(0.000309455 0.000202302 -0.000534084)
(0.000228236 0.000235556 -0.000424046)
(0.000139382 0.000249054 -0.000336912)
(2.78972e-05 0.000246748 -0.000269534)
(-0.000110186 0.000237875 -0.000202737)
(-0.000268398 0.000244031 -0.000102129)
(-0.000438783 0.000286574 7.44205e-05)
(-0.000616845 0.000347079 0.000351085)
(-0.000787129 0.00034394 0.00067901)
(-0.000907896 0.000213174 0.000881114)
(-0.000941127 6.54916e-05 0.000736635)
(-0.000913233 9.92469e-05 0.000290874)
(-0.000883743 0.000258081 -0.000216024)
(-0.000838578 0.000333327 -0.00057661)
(-0.000758404 0.000256962 -0.000761584)
(-0.00064295 0.000104035 -0.00080805)
(-0.000515408 -4.02378e-05 -0.000758506)
(-0.000401629 -0.000141366 -0.000654581)
(-0.000309455 -0.000202302 -0.000534084)
(-0.000228236 -0.000235556 -0.000424046)
(-0.000139382 -0.000249054 -0.000336912)
(-2.78972e-05 -0.000246748 -0.000269534)
(0.000110186 -0.000237875 -0.000202737)
(0.000268398 -0.000244031 -0.000102129)
(0.000438783 -0.000286574 7.44205e-05)
(0.000616845 -0.000347079 0.000351085)
(0.000787129 -0.000343939 0.00067901)
(0.000907896 -0.000213174 0.000881114)
(0.000941127 -6.54916e-05 0.000736635)
(0.000853069 -0.000236973 0.000288059)
(0.000922871 -0.000327727 -6.96474e-06)
(0.000959773 -0.000317146 -0.000242515)
(0.000942561 -0.000201914 -0.00040888)
(0.000869222 -4.3604e-05 -0.000507872)
(0.000762716 0.000103833 -0.000542221)
(0.000646782 0.000220645 -0.000525584)
(0.000531272 0.000308196 -0.000477369)
(0.000412977 0.000372085 -0.000412542)
(0.000282813 0.000413848 -0.00033656)
(0.000134133 0.000430616 -0.000245694)
(-3.05324e-05 0.000420513 -0.000130506)
(-0.000198327 0.000389479 1.89689e-05)
(-0.000353703 0.000350225 0.000206428)
(-0.000488784 0.00030788 0.000418532)
(-0.000603526 0.0002514 0.000607804)
(-0.00069806 0.000183695 0.000683381)
(-0.000775647 0.00016501 0.000560505)
(-0.000853069 0.000236973 0.000288059)
(-0.000922871 0.000327727 -6.96473e-06)
(-0.000959773 0.000317146 -0.000242515)
(-0.000942561 0.000201914 -0.00040888)
(-0.000869222 4.3604e-05 -0.000507872)
(-0.000762716 -0.000103833 -0.000542221)
(-0.000646782 -0.000220645 -0.000525584)
(-0.000531272 -0.000308196 -0.000477369)
(-0.000412977 -0.000372085 -0.000412542)
(-0.000282813 -0.000413848 -0.00033656)
(-0.000134133 -0.000430616 -0.000245694)
(3.05324e-05 -0.000420513 -0.000130506)
(0.000198327 -0.000389479 1.89689e-05)
(0.000353703 -0.000350225 0.000206428)
(0.000488784 -0.00030788 0.000418532)
(0.000603526 -0.0002514 0.000607804)
(0.00069806 -0.000183695 0.000683381)
(0.000775647 -0.00016501 0.000560505)
(0.000672264 -0.000329453 0.000235103)
(0.000824389 -0.000377072 0.000118136)
(0.000953923 -0.000310619 -2.54157e-06)
(0.00102367 -0.00017069 -0.000144594)
(0.00102425 -8.25033e-06 -0.000282725)
(0.000969636 0.000148097 -0.000385484)
(0.000876226 0.000288651 -0.000439842)
(0.000754297 0.000409169 -0.00044696)
(0.000609212 0.000504337 -0.000410121)
(0.000444708 0.000566513 -0.000328753)
(0.000266441 0.000586214 -0.000200339)
(8.55931e-05 0.000554451 -2.77613e-05)
(-8.00979e-05 0.00046871 0.000172161)
(-0.000212333 0.000341985 0.000365489)
(-0.000304557 0.000208656 0.000508864)
(-0.000369647 0.000118157 0.000564739)
(-0.000434778 0.000113955 0.000515905)
(-0.000529858 0.000208667 0.000384256)
(-0.000672264 0.000329453 0.000235103)
(-0.000824389 0.000377072 0.000118136)
(-0.000953923 0.000310619 -2.54157e-06)
(-0.00102367 0.00017069 -0.000144594)
(-0.00102425 8.25034e-06 -0.000282725)
(-0.000969636 -0.000148097 -0.000385484)
(-0.000876226 -0.000288651 -0.000439842)
(-0.000754297 -0.000409169 -0.00044696)
(-0.000609212 -0.000504337 -0.000410121)
(-0.000444708 -0.000566513 -0.000328753)
(-0.000266441 -0.000586214 -0.000200339)
(-8.55931e-05 -0.000554451 -2.77613e-05)
(8.00979e-05 -0.00046871 0.000172161)
(0.000212333 -0.000341985 0.000365489)
(0.000304557 -0.000208656 0.000508864)
(0.000369647 -0.000118157 0.000564739)
(0.000434778 -0.000113955 0.000515905)
(0.000529858 -0.000208667 0.000384256)
(0.00137058 -0.000544394 0.000666799)
(0.00136798 -0.000716988 -0.000158907)
(0.00131048 -0.000697142 -0.000795689)
(0.00119145 -0.00049053 -0.00115461)
(0.00102242 -0.000214334 -0.00127961)
(0.000831979 2.95216e-05 -0.00125082)
(0.000649619 0.000203623 -0.0011386)
(0.000488186 0.000312894 -0.000994632)
(0.000339698 0.000374288 -0.000852589)
(0.000183498 0.000400834 -0.000727108)
(2.14687e-07 0.000400355 -0.000610579)
(-0.000215612 0.000385339 -0.00047049)
(-0.00045268 0.000383352 -0.00025286)
(-0.00069392 0.000425909 9.94277e-05)
(-0.000927956 0.000503448 0.000603201)
(-0.00114014 0.000535443 0.00116446)
(-0.00129777 0.000459586 0.00152149)
(-0.00136283 0.000413055 0.00135725)
(-0.00137058 0.000544394 0.000666799)
(-0.00136798 0.000716988 -0.000158907)
(-0.00131048 0.000697142 -0.000795689)
(-0.00119145 0.00049053 -0.00115461)
(-0.00102242 0.000214334 -0.00127961)
(-0.000831979 -2.95216e-05 -0.00125082)
(-0.000649619 -0.000203623 -0.0011386)
(-0.000488186 -0.000312894 -0.000994632)
(-0.000339698 -0.000374288 -0.000852588)
(-0.000183498 -0.000400834 -0.000727108)
(-2.14706e-07 -0.000400355 -0.000610579)
(0.000215612 -0.000385339 -0.00047049)
(0.00045268 -0.000383352 -0.00025286)
(0.00069392 -0.000425909 9.94277e-05)
(0.000927956 -0.000503448 0.000603201)
(0.00114014 -0.000535443 0.00116446)
(0.00129777 -0.000459586 0.00152149)
(0.00136283 -0.000413055 0.00135725)
(0.00130975 -0.000582698 0.000710063)
(0.00140036 -0.00066827 0.000175636)
(0.00142936 -0.000601784 -0.000286563)
(0.00138387 -0.000409322 -0.000611935)
(0.00127381 -0.000168912 -0.000797129)
(0.00112646 5.72093e-05 -0.000865033)
(0.000963586 0.00024513 -0.00085089)
(0.000793425 0.0003924 -0.000787427)
(0.00061296 0.0005019 -0.000695189)
(0.000413715 0.000574034 -0.000578926)
(0.000189987 0.000606053 -0.000428141)
(-5.34593e-05 0.000597901 -0.00022216)
(-0.000299923 0.000560121 5.86233e-05)
(-0.0005293 0.000512707 0.0004155)
(-0.000729938 0.000469051 0.00081195)
(-0.000901049 0.000427237 0.00115809)
(-0.00104718 0.000401454 0.00131502)
(-0.00118012 0.000450699 0.00115596)
(-0.00130975 0.000582698 0.000710063)
(-0.00140036 0.00066827 0.000175636)
(-0.00142936 0.000601784 -0.000286563)
(-0.00138387 0.000409322 -0.000611935)
(-0.00127381 0.000168912 -0.000797129)
(-0.00112646 -5.72093e-05 -0.000865033)
(-0.000963586 -0.00024513 -0.00085089)
(-0.000793425 -0.0003924 -0.000787427)
(-0.00061296 -0.0005019 -0.000695189)
(-0.000413715 -0.000574034 -0.000578926)
(-0.000189987 -0.000606053 -0.000428141)
(5.34593e-05 -0.000597901 -0.00022216)
(0.000299923 -0.00056012 5.86233e-05)
(0.0005293 -0.000512707 0.0004155)
(0.000729938 -0.000469051 0.00081195)
(0.000901049 -0.000427237 0.00115809)
(0.00104718 -0.000401454 0.00131502)
(0.00118012 -0.000450699 0.00115596)
(0.00105824 -0.000590144 0.000659643)
(0.00124493 -0.000631548 0.000395114)
(0.00138893 -0.000545512 0.000116035)
(0.00145277 -0.000370946 -0.000158483)
(0.00143779 -0.000161081 -0.000385724)
(0.00136248 5.30533e-05 -0.000534795)
(0.00124028 0.000258233 -0.000604035)
(0.00107711 0.000443922 -0.000605412)
(0.000877065 0.000597512 -0.000546325)
(0.00064621 0.000705662 -0.000422997)
(0.000394391 0.000756226 -0.000224365)
(0.000136368 0.000740104 5.57656e-05)
(-0.00010816 0.000655675 0.000400759)
(-0.000318943 0.00051904 0.000756887)
(-0.000486511 0.00037517 0.00104108)
(-0.000621726 0.00028989 0.00117722)
(-0.000748919 0.000309457 0.00113167)
(-0.000887116 0.000436688 0.000924768)
(-0.00105824 0.000590144 0.000659643)
(-0.00124493 0.000631548 0.000395114)
(-0.00138893 0.000545512 0.000116035)
(-0.00145277 0.000370946 -0.000158483)
(-0.00143779 0.000161081 -0.000385724)
(-0.00136248 -5.30533e-05 -0.000534795)
(-0.00124028 -0.000258233 -0.000604035)
(-0.00107711 -0.000443922 -0.000605412)
(-0.000877065 -0.000597512 -0.000546325)
(-0.00064621 -0.000705662 -0.000422997)
(-0.000394391 -0.000756226 -0.000224365)
(-0.000136368 -0.000740104 5.57656e-05)
(0.00010816 -0.000655675 0.000400759)
(0.000318943 -0.00051904 0.000756887)
(0.000486511 -0.00037517 0.00104108)
(0.000621726 -0.00028989 0.00117722)
(0.000748919 -0.000309457 0.00113167)
(0.000887116 -0.000436688 0.000924768)
(0.00175051 -0.00117699 0.0011478)
(0.00172879 -0.00124708 0.000126934)
(0.00162189 -0.00111503 -0.000732909)
(0.00145259 -0.000824882 -0.00125249)
(0.00125293 -0.00048174 -0.00146342)
(0.00103953 -0.000173889 -0.00148337)
(0.000825511 6.21096e-05 -0.00140616)
(0.000619787 0.000226246 -0.00128546)
(0.000418667 0.000332168 -0.00114973)
(0.000207065 0.000393238 -0.00100874)
(-3.05177e-05 0.000419422 -0.000851058)
(-0.000297217 0.000424639 -0.000639796)
(-0.000580234 0.00043651 -0.000316136)
(-0.000861591 0.000488519 0.000176596)
(-0.00113028 0.000585736 0.000837328)
(-0.00137734 0.000688636 0.00153866)
(-0.00158147 0.000784574 0.00200462)
(-0.00170383 0.000966099 0.00190932)
(-0.00175051 0.00117699 0.0011478)
(-0.00172879 0.00124708 0.000126934)
(-0.00162189 0.00111503 -0.000732909)
(-0.00145259 0.000824882 -0.00125249)
(-0.00125293 0.00048174 -0.00146342)
(-0.00103953 0.000173889 -0.00148337)
(-0.000825511 -6.21096e-05 -0.00140616)
(-0.000619787 -0.000226246 -0.00128546)
(-0.000418667 -0.000332168 -0.00114973)
(-0.000207065 -0.000393238 -0.00100874)
(3.05176e-05 -0.000419422 -0.000851058)
(0.000297217 -0.000424639 -0.000639796)
(0.000580234 -0.00043651 -0.000316136)
(0.000861591 -0.000488519 0.000176596)
(0.00113028 -0.000585736 0.000837328)
(0.00137734 -0.000688636 0.00153866)
(0.00158147 -0.000784573 0.00200462)
(0.00170383 -0.000966099 0.00190932)
(0.00166136 -0.00100895 0.00120459)
(0.00172741 -0.00105055 0.000506934)
(0.00171141 -0.00092583 -0.000137145)
(0.00162529 -0.000684014 -0.000602674)
(0.00149024 -0.000396817 -0.000872135)
(0.0013249 -0.000120442 -0.000986694)
(0.00113908 0.000119224 -0.000998159)
(0.0009362 0.000314428 -0.000945007)
(0.000714869 0.000463939 -0.000847383)
(0.000471212 0.000567244 -0.000707219)
(0.000203933 0.000623898 -0.000509595)
(-8.08463e-05 0.000637876 -0.000228313)
(-0.000369878 0.000623077 0.000159348)
(-0.000648773 0.000601296 0.000647523)
(-0.000907332 0.000590651 0.00117581)
(-0.0011396 0.000603605 0.00162313)
(-0.00134295 0.000670022 0.00183998)
(-0.00152148 0.000829805 0.00170874)
(-0.00166136 0.00100895 0.00120459)
(-0.00172741 0.00105055 0.000506934)
(-0.00171141 0.00092583 -0.000137145)
(-0.00162529 0.000684014 -0.000602674)
(-0.00149024 0.000396817 -0.000872135)
(-0.0013249 0.000120442 -0.000986694)
(-0.00113908 -0.000119224 -0.000998159)
(-0.0009362 -0.000314428 -0.000945007)
(-0.000714869 -0.000463939 -0.000847383)
(-0.000471212 -0.000567244 -0.000707219)
(-0.000203934 -0.000623898 -0.000509595)
(8.08463e-05 -0.000637876 -0.000228313)
(0.000369878 -0.000623077 0.000159348)
(0.000648773 -0.000601296 0.000647523)
(0.000907332 -0.000590651 0.00117581)
(0.0011396 -0.000603605 0.00162313)
(0.00134295 -0.000670022 0.00183998)
(0.00152148 -0.000829805 0.00170874)
(0.0014134 -0.000870391 0.00115745)
(0.00155572 -0.000899155 0.00077083)
(0.00165382 -0.000792564 0.00035753)
(0.00168285 -0.000594048 -3.13803e-05)
(0.00164379 -0.000353455 -0.00033963)
(0.00154964 -0.000102288 -0.000534928)
(0.00140774 0.000143178 -0.000623147)
(0.00121977 0.000368675 -0.000624366)
(0.000989022 0.000558116 -0.000549978)
(0.00072428 0.000696667 -0.00039554)
(0.000439028 0.000774469 -0.000145282)
(0.000147441 0.000787714 0.000213731)
(-0.000138665 0.000738832 0.000666782)
(-0.00040889 0.000644244 0.00114584)
(-0.000654976 0.000548645 0.00153556)
(-0.000876214 0.000517065 0.00173004)
(-0.00107778 0.000587611 0.00169511)
(-0.00125976 0.000732111 0.00147767)
(-0.0014134 0.000870391 0.00115745)
(-0.00155572 0.000899155 0.00077083)
(-0.00165382 0.000792564 0.00035753)
(-0.00168285 0.000594048 -3.13803e-05)
(-0.00164379 0.000353455 -0.00033963)
(-0.00154964 0.000102288 -0.000534928)
(-0.00140774 -0.000143178 -0.000623147)
(-0.00121977 -0.000368675 -0.000624366)
(-0.000989022 -0.000558116 -0.000549978)
(-0.00072428 -0.000696667 -0.00039554)
(-0.000439028 -0.000774469 -0.000145282)
(-0.000147441 -0.000787714 0.000213731)
(0.000138665 -0.000738832 0.000666782)
(0.00040889 -0.000644244 0.00114584)
(0.000654976 -0.000548645 0.00153556)
(0.000876214 -0.000517065 0.00173004)
(0.00107778 -0.000587611 0.00169511)
(0.00125976 -0.000732111 0.00147767)
(0.00203538 -0.00155462 0.00162397)
(0.00198059 -0.00160616 0.000612819)
(0.00180192 -0.00145053 -0.000359443)
(0.0015733 -0.00115758 -0.0010002)
(0.00135019 -0.000813304 -0.00130025)
(0.00113398 -0.00048702 -0.00138793)
(0.000914388 -0.000215678 -0.00136675)
(0.000689919 -7.70514e-06 -0.00128754)
(0.000458614 0.000143305 -0.00117151)
(0.000213217 0.000247123 -0.00102424)
(-5.31688e-05 0.000313067 -0.000836589)
(-0.000338989 0.000355259 -0.000580296)
(-0.000634519 0.00040049 -0.000206446)
(-0.000932119 0.00048182 0.000335403)
(-0.00123065 0.000614927 0.00103655)
(-0.00152322 0.000794409 0.00175861)
(-0.00177956 0.00102707 0.00224378)
(-0.00195693 0.00131405 0.00223543)
(-0.00203538 0.00155462 0.00162397)
(-0.00198059 0.00160616 0.000612819)
(-0.00180192 0.00145053 -0.000359443)
(-0.0015733 0.00115758 -0.0010002)
(-0.00135019 0.000813304 -0.00130025)
(-0.00113398 0.00048702 -0.00138793)
(-0.000914388 0.000215678 -0.00136675)
(-0.000689919 7.70516e-06 -0.00128754)
(-0.000458614 -0.000143305 -0.00117151)
(-0.000213217 -0.000247123 -0.00102424)
(5.31688e-05 -0.000313067 -0.000836589)
(0.000338989 -0.000355259 -0.000580296)
(0.000634519 -0.00040049 -0.000206446)
(0.000932119 -0.00048182 0.000335403)
(0.00123065 -0.000614927 0.00103655)
(0.00152322 -0.000794409 0.00175861)
(0.00177956 -0.00102707 0.00224378)
(0.00195693 -0.00131405 0.00223543)
(0.00188246 -0.00127529 0.00162844)
(0.00190368 -0.0013065 0.000939041)
(0.00183366 -0.00118019 0.000219615)
(0.00170491 -0.000942091 -0.000341287)
(0.00155043 -0.000652845 -0.000687189)
(0.00137868 -0.000361952 -0.000856898)
(0.00118588 -9.79833e-05 -0.000906844)
(0.000969352 0.000125808 -0.000875985)
(0.000728636 0.000303973 -0.000782762)
(0.000464862 0.000434773 -0.000628409)
(0.000181957 0.000520013 -0.000399829)
(-0.000113361 0.000567938 -7.48479e-05)
(-0.00041519 0.000595549 0.000364431)
(-0.000721071 0.000624559 0.000906283)
(-0.00102652 0.000673534 0.00148083)
(-0.00131794 0.000761009 0.00195746)
(-0.00157313 0.000911466 0.00218927)
(-0.0017683 0.00111304 0.00207974)
(-0.00188246 0.00127529 0.00162844)
(-0.00190368 0.0013065 0.000939041)
(-0.00183366 0.00118019 0.000219615)
(-0.00170491 0.000942091 -0.000341287)
(-0.00155043 0.000652845 -0.000687189)
(-0.00137868 0.000361952 -0.000856898)
(-0.00118588 9.79833e-05 -0.000906844)
(-0.000969352 -0.000125808 -0.000875985)
(-0.000728636 -0.000303973 -0.000782762)
(-0.000464862 -0.000434773 -0.000628409)
(-0.000181957 -0.000520013 -0.000399829)
(0.000113361 -0.000567938 -7.48479e-05)
(0.00041519 -0.000595549 0.000364431)
(0.000721071 -0.000624559 0.000906283)
(0.00102652 -0.000673534 0.00148083)
(0.00131794 -0.000761009 0.00195746)
(0.00157313 -0.000911466 0.00218927)
(0.0017683 -0.00111304 0.00207974)
(0.00166305 -0.00107856 0.00158814)
(0.00173008 -0.00108142 0.00117422)
(0.00176258 -0.000975486 0.000706992)
(0.0017474 -0.000780323 0.000247712)
(0.00168033 -0.00053505 -0.000124422)
(0.00156764 -0.000272599 -0.000364113)
(0.0014118 -1.29255e-05 -0.000475545)
(0.00121144 0.000227675 -0.000482117)
(0.000969246 0.000432364 -0.00039874)
(0.000695529 0.000587526 -0.000223561)
(0.000405159 0.000687753 5.80646e-05)
(0.000108981 0.000736292 0.000459903)
(-0.000191854 0.000740983 0.000967419)
(-0.000498919 0.000717232 0.00150548)
(-0.00080543 0.000700678 0.00194481)
(-0.00109645 0.000739358 0.00217041)
(-0.00135229 0.000850683 0.00214875)
(-0.00154647 0.000988159 0.00192796)
(-0.00166305 0.00107856 0.00158814)
(-0.00173008 0.00108142 0.00117422)
(-0.00176258 0.000975486 0.000706992)
(-0.0017474 0.000780323 0.000247712)
(-0.00168033 0.000535051 -0.000124422)
(-0.00156764 0.000272599 -0.000364113)
(-0.0014118 1.29255e-05 -0.000475545)
(-0.00121144 -0.000227675 -0.000482117)
(-0.000969246 -0.000432364 -0.00039874)
(-0.000695529 -0.000587526 -0.000223561)
(-0.000405159 -0.000687753 5.80646e-05)
(-0.000108981 -0.000736292 0.000459903)
(0.000191854 -0.000740983 0.000967419)
(0.000498919 -0.000717232 0.00150548)
(0.00080543 -0.000700678 0.00194481)
(0.00109645 -0.000739358 0.00217041)
(0.00135229 -0.000850683 0.00214875)
(0.00154647 -0.000988159 0.00192796)
(0.00215076 -0.00165529 0.00194838)
(0.00207035 -0.00172847 0.00110569)
(0.00185188 -0.00161881 0.000191734)
(0.00158343 -0.00138561 -0.000489751)
(0.00134056 -0.00109202 -0.00086215)
(0.00112526 -0.000789666 -0.00101859)
(0.000911765 -0.000514871 -0.00105354)
(0.000686692 -0.000284699 -0.00101295)
(0.000446771 -0.000101815 -0.000914117)
(0.000191291 3.72896e-05 -0.000763255)
(-7.79061e-05 0.000139122 -0.000560071)
(-0.000355362 0.000217531 -0.000292806)
(-0.000638166 0.00029921 7.0699e-05)
(-0.000934462 0.000415898 0.000574187)
(-0.00125417 0.000585706 0.0012153)
(-0.00158335 0.000813592 0.00187658)
(-0.0018751 0.00110023 0.00234294)
(-0.00207639 0.00141171 0.00240043)
(-0.00215076 0.00165529 0.00194838)
(-0.00207035 0.00172847 0.00110569)
(-0.00185188 0.00161881 0.000191734)
(-0.00158343 0.00138561 -0.000489751)
(-0.00134056 0.00109202 -0.00086215)
(-0.00112526 0.000789666 -0.00101859)
(-0.000911765 0.000514871 -0.00105354)
(-0.000686692 0.000284699 -0.00101295)
(-0.000446771 0.000101815 -0.000914117)
(-0.000191291 -3.72896e-05 -0.000763255)
(7.79061e-05 -0.000139122 -0.000560071)
(0.000355362 -0.000217531 -0.000292806)
(0.000638166 -0.000299209 7.0699e-05)
(0.000934462 -0.000415898 0.000574187)
(0.00125417 -0.000585706 0.0012153)
(0.00158335 -0.000813592 0.00187658)
(0.0018751 -0.00110023 0.00234294)
(0.00207639 -0.00141171 0.00240043)
(0.00197458 -0.00136419 0.00198016)
(0.00195037 -0.00140049 0.00137525)
(0.00183511 -0.00130722 0.000693004)
(0.00167164 -0.00111269 0.000108687)
(0.00149927 -0.000860044 -0.000287636)
(0.00132397 -0.00058897 -0.000506735)
(0.00113296 -0.000328421 -0.000594446)
(0.000917101 -9.6417e-05 -0.000586164)
(0.000675065 9.69859e-05 -0.000499502)
(0.00041116 0.000247678 -0.000338282)
(0.000132959 0.00035811 -9.65367e-05)
(-0.000153291 0.000439328 0.000237288)
(-0.000449184 0.000510567 0.00067138)
(-0.000763244 0.000592237 0.00119056)
(-0.00109496 0.000698185 0.00173048)
(-0.00141994 0.000839438 0.00217754)
(-0.0016967 0.00102224 0.00241111)
(-0.00188862 0.00121843 0.00234996)
(-0.00197458 0.00136419 0.00198016)
(-0.00195037 0.00140049 0.00137525)
(-0.00183511 0.00130722 0.000693004)
(-0.00167164 0.00111269 0.000108687)
(-0.00149927 0.000860044 -0.000287636)
(-0.00132397 0.00058897 -0.000506735)
(-0.00113296 0.000328421 -0.000594446)
(-0.000917101 9.6417e-05 -0.000586164)
(-0.000675065 -9.69859e-05 -0.000499502)
(-0.00041116 -0.000247678 -0.000338282)
(-0.000132959 -0.00035811 -9.65367e-05)
(0.000153291 -0.000439328 0.000237288)
(0.000449184 -0.000510567 0.00067138)
(0.000763244 -0.000592237 0.00119056)
(0.00109496 -0.000698185 0.00173048)
(0.00141994 -0.000839438 0.00217754)
(0.0016967 -0.00102224 0.00241111)
(0.00188862 -0.00121843 0.00234996)
(0.00178375 -0.00117335 0.00198585)
(0.00179536 -0.00115978 0.0015825)
(0.00176561 -0.00106493 0.00111744)
(0.00170185 -0.000894155 0.000642449)
(0.00160349 -0.000671347 0.000238888)
(0.00147327 -0.000424215 -3.25748e-05)
(0.0013095 -0.00017332 -0.000164997)
(0.0011075 6.38501e-05 -0.000179564)
(0.000868352 0.00027016 -9.343e-05)
(0.000601802 0.000433472 9.09799e-05)
(0.00032128 0.000552075 0.000383283)
(3.32435e-05 0.000634481 0.000792863)
(-0.000268591 0.00069258 0.00130195)
(-0.000591834 0.000739353 0.0018338)
(-0.000928087 0.000796266 0.00226427)
(-0.00125007 0.000886587 0.00249125)
(-0.0015193 0.00100671 0.00248962)
(-0.00170018 0.00111613 0.00230118)
(-0.00178375 0.00117335 0.00198585)
(-0.00179536 0.00115978 0.0015825)
(-0.00176561 0.00106493 0.00111744)
(-0.00170185 0.000894155 0.000642449)
(-0.00160349 0.000671347 0.000238888)
(-0.00147327 0.000424215 -3.25748e-05)
(-0.0013095 0.00017332 -0.000164997)
(-0.0011075 -6.38501e-05 -0.000179564)
(-0.000868353 -0.00027016 -9.343e-05)
(-0.000601802 -0.000433472 9.09798e-05)
(-0.00032128 -0.000552075 0.000383282)
(-3.32435e-05 -0.000634481 0.000792863)
(0.000268591 -0.00069258 0.00130195)
(0.000591834 -0.000739353 0.0018338)
(0.000928087 -0.000796266 0.00226427)
(0.00125007 -0.000886587 0.00249125)
(0.0015193 -0.00100671 0.00248962)
(0.00170018 -0.00111613 0.00230118)
(0.00209986 -0.00155135 0.00216933)
(0.00199945 -0.00165542 0.00152647)
(0.0017724 -0.00161769 0.000769297)
(0.00149556 -0.00146992 0.000134212)
(0.0012438 -0.00125237 -0.000268508)
(0.00102927 -0.00100237 -0.000474341)
(0.000824801 -0.000752409 -0.000551597)
(0.000609566 -0.000524783 -0.000538984)
(0.000377942 -0.000330418 -0.000453058)
(0.000133134 -0.000172584 -0.000304592)
(-0.000117592 -4.81896e-05 -0.000104205)
(-0.000368558 5.59319e-05 0.000144587)
(-0.000625638 0.000165273 0.000460665)
(-0.000909147 0.00030759 0.000883283)
(-0.00123155 0.000497598 0.00141937)
(-0.00156767 0.000738483 0.00198042)
(-0.00185905 0.00102435 0.00239382)
(-0.00204839 0.00131911 0.002484)
(-0.00209986 0.00155135 0.00216933)
(-0.00199945 0.00165542 0.00152647)
(-0.0017724 0.00161769 0.000769297)
(-0.00149556 0.00146992 0.000134212)
(-0.0012438 0.00125237 -0.000268508)
(-0.00102927 0.00100237 -0.000474341)
(-0.000824801 0.000752409 -0.000551597)
(-0.000609566 0.000524783 -0.000538984)
(-0.000377942 0.000330418 -0.000453058)
(-0.000133134 0.000172584 -0.000304592)
(0.000117592 4.81897e-05 -0.000104205)
(0.000368558 -5.59319e-05 0.000144587)
(0.000625638 -0.000165273 0.000460665)
(0.000909147 -0.00030759 0.000883283)
(0.00123155 -0.000497598 0.00141937)
(0.00156767 -0.000738483 0.00198042)
(0.00185905 -0.00102435 0.00239382)
(0.00204839 -0.00131911 0.002484)
(0.0019392 -0.0013096 0.0022644)
(0.00188391 -0.00135862 0.00177569)
(0.0017428 -0.00130921 0.00119142)
(0.00155933 -0.00117424 0.000647886)
(0.00137356 -0.000978956 0.000241662)
(0.00119518 -0.000751097 -6.49958e-06)
(0.00100983 -0.000516181 -0.000121384)
(0.000803775 -0.00029459 -0.000130809)
(0.000573643 -0.000100368 -5.18423e-05)
(0.000324487 5.95684e-05 0.000107408)
(6.47234e-05 0.00018702 0.000344177)
(-0.000201562 0.000293708 0.000658615)
(-0.000481569 0.000398303 0.00104956)
(-0.00078846 0.000517006 0.00150113)
(-0.00112002 0.000656364 0.00196285)
(-0.00144421 0.000818003 0.00234923)
(-0.0017119 0.000998883 0.00256671)
(-0.00188302 0.00117672 0.00254479)
(-0.0019392 0.0013096 0.0022644)
(-0.00188391 0.00135862 0.00177569)
(-0.0017428 0.00130921 0.00119142)
(-0.00155933 0.00117424 0.000647886)
(-0.00137356 0.000978956 0.000241662)
(-0.00119518 0.000751097 -6.49957e-06)
(-0.00100983 0.000516181 -0.000121384)
(-0.000803775 0.00029459 -0.000130809)
(-0.000573643 0.000100368 -5.18423e-05)
(-0.000324487 -5.95684e-05 0.000107408)
(-6.47235e-05 -0.00018702 0.000344177)
(0.000201562 -0.000293708 0.000658615)
(0.000481569 -0.000398303 0.00104956)
(0.00078846 -0.000517006 0.00150113)
(0.00112002 -0.000656364 0.00196285)
(0.00144421 -0.000818003 0.00234923)
(0.0017119 -0.000998883 0.00256671)
(0.00188302 -0.00117672 0.00254479)
(0.0017999 -0.00116826 0.00232859)
(0.00177369 -0.00114947 0.00197076)
(0.00169812 -0.00107022 0.00154698)
(0.00159215 -0.00093259 0.00110057)
(0.00146411 -0.000748553 0.000703383)
(0.00131854 -0.000535206 0.000421611)
(0.00115179 -0.000309351 0.000276012)
(0.00095597 -8.84048e-05 0.00025298)
(0.000729453 0.000110431 0.000335682)
(0.000479309 0.000276097 0.00051777)
(0.000215333 0.000408836 0.000802558)
(-6.01488e-05 0.000519141 0.00119209)
(-0.000355647 0.000619414 0.00166279)
(-0.000677263 0.000717777 0.00214112)
(-0.00101251 0.000821475 0.0025222)
(-0.00132924 0.000934709 0.0027285)
(-0.00158513 0.00104608 0.0027432)
(-0.00174465 0.00113069 0.002596)
(-0.0017999 0.00116826 0.00232859)
(-0.00177369 0.00114947 0.00197076)
(-0.00169812 0.00107022 0.00154698)
(-0.00159215 0.00093259 0.00110057)
(-0.00146411 0.000748553 0.000703383)
(-0.00131854 0.000535206 0.000421611)
(-0.00115179 0.000309351 0.000276012)
(-0.00095597 8.84049e-05 0.00025298)
(-0.000729453 -0.00011043 0.000335682)
(-0.000479309 -0.000276097 0.00051777)
(-0.000215333 -0.000408836 0.000802558)
(6.01488e-05 -0.000519141 0.00119209)
(0.000355647 -0.000619414 0.00166279)
(0.000677263 -0.000717777 0.00214112)
(0.00101251 -0.000821475 0.0025222)
(0.00132924 -0.000934709 0.0027285)
(0.00158513 -0.00104608 0.0027432)
(0.00174465 -0.00113069 0.002596)
(0.00191371 -0.00133636 0.00233227)
(0.00180015 -0.00146434 0.00186569)
(0.00158305 -0.00149086 0.00128551)