/*--------------------------------*- C++ -*----------------------------------*\
| =========                 |                                                 |
| \\      /  F ield         | OpenFOAM: The Open Source CFD Toolbox           |
|  \\    /   O peration     | Version:  2312                                  |
|   \\  /    A nd           | Website:  www.openfoam.com                      |
|    \\/     M anipulation  |                                                 |
\*---------------------------------------------------------------------------*/
FoamFile
{
    version     2.0;
    format      ascii;
    arch        "LSB;label=32;scalar=64";
    class       volVectorField;
    location    "0.6";
    object      U;
}
// * * * * * * * * * * * * * * * * * * * * * * * * * * * * * * * * * * * * * //

dimensions      [0 1 -1 0 0 0 0];

internalField   nonuniform List<vector> 
1620
(
(-0.000114216 -0.000129183 -0.00012763)
(-9.00479e-05 -0.000147054 -0.00012763)
(-6.31447e-05 -0.000160457 -0.00012763)
(-3.43224e-05 -0.000168983 -0.000127629)
(-4.45703e-06 -0.000172375 -0.000127629)
(2.55433e-05 -0.000170531 -0.000127629)
(5.47672e-05 -0.000163504 -0.000127629)
(8.23273e-05 -0.00015151 -0.000127629)
(0.000107387 -0.000134913 -0.000127629)
(0.000129183 -0.000114215 -0.00012763)
(0.000147054 -9.00477e-05 -0.00012763)
(0.000160457 -6.31444e-05 -0.000127629)
(0.000168983 -3.43222e-05 -0.000127629)
(0.000172375 -4.45684e-06 -0.000127629)
(0.000170531 2.55435e-05 -0.000127629)
(0.000163504 5.47673e-05 -0.000127629)
(0.00015151 8.23275e-05 -0.000127629)
(0.000134913 0.000107387 -0.000127629)
(0.000114215 0.000129183 -0.00012763)
(9.00477e-05 0.000147054 -0.00012763)
(6.31445e-05 0.000160457 -0.00012763)
(3.43222e-05 0.000168983 -0.000127629)
(4.45687e-06 0.000172376 -0.000127629)
(-2.55435e-05 0.000170531 -0.00012763)
(-5.47673e-05 0.000163505 -0.000127629)
(-8.23275e-05 0.00015151 -0.000127629)
(-0.000107387 0.000134913 -0.00012763)
(-0.000129183 0.000114216 -0.00012763)
(-0.000147055 9.00479e-05 -0.00012763)
(-0.000160457 6.31447e-05 -0.00012763)
(-0.000168983 3.43224e-05 -0.000127629)
(-0.000172376 4.45707e-06 -0.000127629)
(-0.000170531 -2.55433e-05 -0.00012763)
(-0.000163505 -5.47671e-05 -0.000127629)
(-0.00015151 -8.23273e-05 -0.000127629)
(-0.000134913 -0.000107387 -0.000127629)
(-3.51825e-05 -1.70559e-05 -8.54615e-05)
(-3.16861e-05 -2.29063e-05 -8.54617e-05)
(-2.72271e-05 -2.80605e-05 -8.54615e-05)
(-2.1941e-05 -3.23619e-05 -8.54612e-05)
(-1.59884e-05 -3.568e-05 -8.54613e-05)
(-9.54986e-06 -3.79141e-05 -8.54612e-05)
(-2.82112e-06 -3.89965e-05 -8.54611e-05)
(3.99338e-06 -3.88938e-05 -8.54612e-05)
(1.0687e-05 -3.76095e-05 -8.54614e-05)
(1.70558e-05 -3.51823e-05 -8.54615e-05)
(2.29063e-05 -3.16859e-05 -8.54616e-05)
(2.80604e-05 -2.7227e-05 -8.54614e-05)
(3.23619e-05 -2.19409e-05 -8.54611e-05)
(3.568e-05 -1.59882e-05 -8.54612e-05)
(3.79141e-05 -9.54971e-06 -8.54612e-05)
(3.89965e-05 -2.82097e-06 -8.54611e-05)
(3.88937e-05 3.99352e-06 -8.54612e-05)
(3.76095e-05 1.06872e-05 -8.54614e-05)
(3.51823e-05 1.7056e-05 -8.54615e-05)
(3.16859e-05 2.29064e-05 -8.54616e-05)
(2.72269e-05 2.80606e-05 -8.54615e-05)
(2.19409e-05 3.2362e-05 -8.54612e-05)
(1.59882e-05 3.56801e-05 -8.54613e-05)
(9.54969e-06 3.79143e-05 -8.54613e-05)
(2.82096e-06 3.89966e-05 -8.54612e-05)
(-3.99354e-06 3.88939e-05 -8.54613e-05)
(-1.06872e-05 3.76097e-05 -8.54615e-05)
(-1.7056e-05 3.51825e-05 -8.54616e-05)
(-2.29065e-05 3.16861e-05 -8.54617e-05)
(-2.80606e-05 2.72271e-05 -8.54616e-05)
(-3.23621e-05 2.1941e-05 -8.54612e-05)
(-3.56802e-05 1.59884e-05 -8.54613e-05)
(-3.79143e-05 9.54985e-06 -8.54613e-05)
(-3.89967e-05 2.82111e-06 -8.54612e-05)
(-3.88939e-05 -3.9934e-06 -8.54613e-05)
(-3.76097e-05 -1.06871e-05 -8.54615e-05)
(1.65643e-05 9.95662e-05 -4.25178e-05)
(-9.76634e-07 0.00010093 -4.25178e-05)
(-1.84882e-05 9.92272e-05 -4.25181e-05)
(-3.54379e-05 9.45094e-05 -4.25178e-05)
(-5.13112e-05 8.69198e-05 -4.2518e-05)
(-6.56254e-05 7.66893e-05 -4.25178e-05)
(-7.79452e-05 6.41283e-05 -4.2518e-05)
(-8.78969e-05 4.9619e-05 -4.25181e-05)
(-9.51774e-05 3.36021e-05 -4.25178e-05)
(-9.95662e-05 1.65644e-05 -4.25178e-05)
(-0.00010093 -9.76528e-07 -4.25178e-05)
(-9.92272e-05 -1.84881e-05 -4.2518e-05)
(-9.45094e-05 -3.54378e-05 -4.25178e-05)
(-8.69199e-05 -5.13111e-05 -4.25179e-05)
(-7.66894e-05 -6.56253e-05 -4.25177e-05)
(-6.41283e-05 -7.79451e-05 -4.2518e-05)
(-4.96191e-05 -8.78968e-05 -4.25181e-05)
(-3.36022e-05 -9.51773e-05 -4.25178e-05)
(-1.65645e-05 -9.95661e-05 -4.25178e-05)
(9.76463e-07 -0.00010093 -4.25178e-05)
(1.8488e-05 -9.92271e-05 -4.25181e-05)
(3.54377e-05 -9.45093e-05 -4.25179e-05)
(5.1311e-05 -8.69198e-05 -4.2518e-05)
(6.56252e-05 -7.66893e-05 -4.25178e-05)
(7.79451e-05 -6.41282e-05 -4.25181e-05)
(8.78968e-05 -4.9619e-05 -4.25182e-05)
(9.51773e-05 -3.36021e-05 -4.25179e-05)
(9.95661e-05 -1.65643e-05 -4.25179e-05)
(0.00010093 9.76572e-07 -4.25179e-05)
(9.92271e-05 1.84881e-05 -4.25181e-05)
(9.45093e-05 3.54378e-05 -4.25179e-05)
(8.69197e-05 5.13111e-05 -4.2518e-05)
(7.66892e-05 6.56253e-05 -4.25178e-05)
(6.41282e-05 7.79452e-05 -4.2518e-05)
(4.96189e-05 8.78969e-05 -4.25181e-05)
(3.3602e-05 9.51774e-05 -4.25179e-05)
(-0.000164682 -0.00034203 -0.000411321)
(-0.000102787 -0.000365432 -0.000411322)
(-3.777e-05 -0.000377729 -0.000411321)
(2.83949e-05 -0.000378547 -0.000411319)
(9.36972e-05 -0.000367864 -0.000411318)
(0.000156153 -0.000346005 -0.000411319)
(0.000213864 -0.000313632 -0.000411319)
(0.000265077 -0.00027173 -0.000411319)
(0.000308237 -0.000221573 -0.00041132)
(0.00034203 -0.000164682 -0.000411321)
(0.000365432 -0.000102787 -0.000411322)
(0.000377729 -3.77694e-05 -0.000411321)
(0.000378547 2.83954e-05 -0.000411319)
(0.000367864 9.36978e-05 -0.000411318)
(0.000346005 0.000156154 -0.000411319)
(0.000313632 0.000213865 -0.000411319)
(0.00027173 0.000265078 -0.00041132)
(0.000221572 0.000308237 -0.00041132)
(0.000164682 0.000342031 -0.000411321)
(0.000102787 0.000365432 -0.000411322)
(3.77694e-05 0.000377729 -0.000411321)
(-2.83954e-05 0.000378548 -0.000411319)
(-9.36978e-05 0.000367864 -0.000411318)
(-0.000156154 0.000346005 -0.000411319)
(-0.000213865 0.000313633 -0.000411319)
(-0.000265078 0.000271731 -0.00041132)
(-0.000308238 0.000221573 -0.000411321)
(-0.000342031 0.000164682 -0.000411321)
(-0.000365432 0.000102787 -0.000411322)
(-0.000377729 3.77699e-05 -0.000411321)
(-0.000378548 -2.83949e-05 -0.000411319)
(-0.000367864 -9.36972e-05 -0.000411318)
(-0.000346005 -0.000156153 -0.000411319)
(-0.000313633 -0.000213864 -0.000411319)
(-0.000271731 -0.000265077 -0.00041132)
(-0.000221573 -0.000308237 -0.000411321)
(-0.000110009 -4.42211e-05 -0.000288094)
(-0.000100658 -6.26529e-05 -0.000288094)
(-8.82497e-05 -7.918e-05 -0.000288094)
(-7.31599e-05 -9.33007e-05 -0.000288093)
(-5.58476e-05 -0.000104586 -0.000288093)
(-3.68378e-05 -0.000112696 -0.000288093)
(-1.67087e-05 -0.000117381 -0.000288093)
(3.92803e-06 -0.000118499 -0.000288093)
(2.44459e-05 -0.000116016 -0.000288093)
(4.42211e-05 -0.000110009 -0.000288094)
(6.26528e-05 -0.000100658 -0.000288094)
(7.91799e-05 -8.82492e-05 -0.000288094)
(9.33006e-05 -7.31594e-05 -0.000288093)
(0.000104586 -5.58471e-05 -0.000288092)
(0.000112695 -3.68374e-05 -0.000288093)
(0.00011738 -1.67083e-05 -0.000288093)
(0.000118499 3.92847e-06 -0.000288093)
(0.000116016 2.44464e-05 -0.000288094)
(0.000110009 4.42215e-05 -0.000288094)
(0.000100658 6.26533e-05 -0.000288094)
(8.82491e-05 7.91804e-05 -0.000288094)
(7.31593e-05 9.3301e-05 -0.000288093)
(5.5847e-05 0.000104587 -0.000288093)
(3.68373e-05 0.000112696 -0.000288093)
(1.67082e-05 0.000117381 -0.000288093)
(-3.92854e-06 0.000118499 -0.000288093)
(-2.44464e-05 0.000116017 -0.000288094)
(-4.42216e-05 0.000110009 -0.000288094)
(-6.26534e-05 0.000100658 -0.000288094)
(-7.91805e-05 8.82496e-05 -0.000288094)
(-9.33011e-05 7.31598e-05 -0.000288093)
(-0.000104587 5.58475e-05 -0.000288093)
(-0.000112696 3.68378e-05 -0.000288093)
(-0.000117381 1.67087e-05 -0.000288093)
(-0.000118499 -3.92809e-06 -0.000288093)
(-0.000116017 -2.4446e-05 -0.000288094)
(-9.59714e-05 0.000256142 -0.000166647)
(-0.000138991 0.000235585 -0.000166647)
(-0.000177788 0.00020787 -0.000166647)
(-0.000211183 0.00017384 -0.000166647)
(-0.000238162 0.000134528 -0.000166647)
(-0.000257905 9.11272e-05 -0.000166646)
(-0.000269811 4.49575e-05 -0.000166647)
(-0.000273519 -2.57746e-06 -0.000166647)
(-0.000268916 -5.00345e-05 -0.000166647)
(-0.000256142 -9.59709e-05 -0.000166647)
(-0.000235585 -0.000138991 -0.000166646)
(-0.00020787 -0.000177787 -0.000166647)
(-0.00017384 -0.000211183 -0.000166647)
(-0.000134528 -0.000238161 -0.000166647)
(-9.11273e-05 -0.000257905 -0.000166646)
(-4.49577e-05 -0.000269811 -0.000166647)
(2.57733e-06 -0.000273519 -0.000166647)
(5.00344e-05 -0.000268915 -0.000166647)
(9.59708e-05 -0.000256141 -0.000166647)
(0.000138991 -0.000235585 -0.000166647)
(0.000177787 -0.00020787 -0.000166647)
(0.000211183 -0.00017384 -0.000166647)
(0.000238161 -0.000134527 -0.000166647)
(0.000257904 -9.11269e-05 -0.000166647)
(0.00026981 -4.49573e-05 -0.000166647)
(0.000273519 2.57774e-06 -0.000166647)
(0.000268915 5.00348e-05 -0.000166647)
(0.000256141 9.59712e-05 -0.000166647)
(0.000235584 0.000138991 -0.000166647)
(0.00020787 0.000177788 -0.000166647)
(0.00017384 0.000211183 -0.000166647)
(0.000134527 0.000238162 -0.000166647)
(9.11268e-05 0.000257905 -0.000166647)
(4.49571e-05 0.000269811 -0.000166647)
(-2.57788e-06 0.000273519 -0.000166647)
(-5.00349e-05 0.000268916 -0.000166647)
(-0.000187013 -0.000457268 -0.000714159)
(-0.000104769 -0.000482796 -0.000714159)
(-1.93409e-05 -0.000493654 -0.000714159)
(6.66741e-05 -0.000489511 -0.000714157)
(0.000150663 -0.000470495 -0.000714155)
(0.000230075 -0.000437184 -0.000714155)
(0.000302497 -0.00039059 -0.000714155)
(0.000365727 -0.000332128 -0.000714156)
(0.000417846 -0.000263574 -0.000714158)
(0.000457268 -0.000187013 -0.000714159)
(0.000482796 -0.000104768 -0.000714159)
(0.000493653 -1.934e-05 -0.000714159)
(0.000489511 6.6675e-05 -0.000714157)
(0.000470495 0.000150664 -0.000714155)
(0.000437184 0.000230076 -0.000714155)
(0.00039059 0.000302497 -0.000714155)
(0.000332128 0.000365728 -0.000714157)
(0.000263574 0.000417847 -0.000714158)
(0.000187012 0.000457269 -0.000714159)
(0.000104768 0.000482797 -0.000714159)
(1.93399e-05 0.000493654 -0.000714159)
(-6.66751e-05 0.000489511 -0.000714157)
(-0.000150664 0.000470495 -0.000714156)
(-0.000230076 0.000437185 -0.000714156)
(-0.000302497 0.000390591 -0.000714156)
(-0.000365728 0.000332129 -0.000714157)
(-0.000417847 0.000263575 -0.000714159)
(-0.000457269 0.000187013 -0.00071416)
(-0.000482797 0.000104769 -0.00071416)
(-0.000493654 1.93408e-05 -0.000714159)
(-0.000489512 -6.66742e-05 -0.000714157)
(-0.000470496 -0.000150663 -0.000714156)
(-0.000437185 -0.000230075 -0.000714156)
(-0.000390591 -0.000302497 -0.000714156)
(-0.000332129 -0.000365727 -0.000714157)
(-0.000263575 -0.000417846 -0.000714159)
(-0.000181571 -4.00089e-05 -0.000535509)
(-0.000171865 -7.09308e-05 -0.000535509)
(-0.000156937 -9.96969e-05 -0.000535509)
(-0.000137241 -0.000125433 -0.000535508)
(-0.000113375 -0.000147358 -0.000535507)
(-8.60638e-05 -0.000164807 -0.000535507)
(-5.61378e-05 -0.000177248 -0.000535507)
(-2.4506e-05 -0.000184304 -0.000535508)
(7.87109e-06 -0.00018576 -0.000535508)
(4.00088e-05 -0.000181571 -0.000535509)
(7.09307e-05 -0.000171864 -0.000535509)
(9.96967e-05 -0.000156936 -0.000535509)
(0.000125433 -0.00013724 -0.000535508)
(0.000147358 -0.000113374 -0.000535507)
(0.000164807 -8.6063e-05 -0.000535507)
(0.000177248 -5.61371e-05 -0.000535507)
(0.000184304 -2.45053e-05 -0.000535508)
(0.000185759 7.87183e-06 -0.000535508)
(0.00018157 4.00096e-05 -0.000535509)
(0.000171864 7.09314e-05 -0.000535509)
(0.000156936 9.96975e-05 -0.000535509)
(0.00013724 0.000125434 -0.000535508)
(0.000113374 0.000147359 -0.000535507)
(8.60629e-05 0.000164808 -0.000535508)
(5.6137e-05 0.000177249 -0.000535508)
(2.45052e-05 0.000184305 -0.000535508)
(-7.87196e-06 0.00018576 -0.000535509)
(-4.00097e-05 0.000181571 -0.000535509)
(-7.09316e-05 0.000171865 -0.00053551)
(-9.96977e-05 0.000156937 -0.000535509)
(-0.000125434 0.00013724 -0.000535509)
(-0.000147359 0.000113375 -0.000535508)
(-0.000164808 8.60637e-05 -0.000535508)
(-0.000177249 5.61377e-05 -0.000535508)
(-0.000184305 2.4506e-05 -0.000535508)
(-0.00018576 -7.87118e-06 -0.000535509)
(-0.000229928 0.000363749 -0.00036335)
(-0.000289598 0.000318296 -0.000363349)
(-0.000340469 0.000263173 -0.00036335)
(-0.000380996 0.000200054 -0.00036335)
(-0.000409947 0.000130855 -0.00036335)
(-0.000426442 5.76799e-05 -0.00036335)
(-0.00042998 -1.72477e-05 -0.00036335)
(-0.000420452 -9.1651e-05 -0.000363349)
(-0.00039815 -0.00016327 -0.000363349)
(-0.000363749 -0.000229927 -0.000363349)
(-0.000318296 -0.000289597 -0.000363349)
(-0.000263173 -0.000340468 -0.000363349)
(-0.000200054 -0.000380995 -0.00036335)
(-0.000130855 -0.000409946 -0.00036335)
(-5.76801e-05 -0.000426442 -0.00036335)
(1.72475e-05 -0.000429979 -0.00036335)
(9.16509e-05 -0.000420452 -0.00036335)
(0.000163269 -0.000398149 -0.00036335)
(0.000229927 -0.000363748 -0.00036335)
(0.000289597 -0.000318296 -0.000363349)
(0.000340468 -0.000263172 -0.00036335)
(0.000380995 -0.000200053 -0.00036335)
(0.000409946 -0.000130855 -0.00036335)
(0.000426441 -5.76794e-05 -0.00036335)
(0.000429979 1.72482e-05 -0.00036335)
(0.000420452 9.16516e-05 -0.00036335)
(0.000398149 0.00016327 -0.00036335)
(0.000363748 0.000229927 -0.00036335)
(0.000318295 0.000289598 -0.00036335)
(0.000263172 0.000340469 -0.00036335)
(0.000200053 0.000380996 -0.00036335)
(0.000130854 0.000409947 -0.00036335)
(5.76792e-05 0.000426442 -0.00036335)
(-1.72484e-05 0.00042998 -0.00036335)
(-9.16518e-05 0.000420452 -0.00036335)
(-0.00016327 0.000398149 -0.00036335)
(-0.000189081 -0.00043832 -0.000992672)
(-0.000110095 -0.000464494 -0.000992672)
(-2.77645e-05 -0.000476554 -0.000992672)
(5.54098e-05 -0.000474134 -0.000992671)
(0.0001369 -0.000457309 -0.00099267)
(0.000214231 -0.000426589 -0.000992669)
(0.000285053 -0.000382907 -0.000992669)
(0.000347215 -0.000327591 -0.000992669)
(0.000398827 -0.00026232 -0.00099267)
(0.000438319 -0.00018908 -0.000992671)
(0.000464494 -0.000110094 -0.000992672)
(0.000476554 -2.77633e-05 -0.000992671)
(0.000474134 5.5411e-05 -0.00099267)
(0.000457309 0.000136902 -0.00099267)
(0.000426588 0.000214232 -0.000992669)
(0.000382907 0.000285055 -0.000992669)
(0.00032759 0.000347216 -0.000992669)
(0.00026232 0.000398828 -0.00099267)
(0.00018908 0.000438321 -0.000992671)
(0.000110094 0.000464495 -0.000992672)
(2.77631e-05 0.000476555 -0.000992672)
(-5.54111e-05 0.000474135 -0.000992671)
(-0.000136902 0.00045731 -0.00099267)
(-0.000214233 0.00042659 -0.00099267)
(-0.000285055 0.000382908 -0.000992669)
(-0.000347217 0.000327592 -0.00099267)
(-0.000398828 0.000262321 -0.000992671)
(-0.000438321 0.000189081 -0.000992672)
(-0.000464495 0.000110095 -0.000992673)
(-0.000476555 2.77643e-05 -0.000992672)
(-0.000474136 -5.54099e-05 -0.000992671)
(-0.00045731 -0.000136901 -0.000992671)
(-0.00042659 -0.000214231 -0.00099267)
(-0.000382908 -0.000285054 -0.000992669)
(-0.000327592 -0.000347215 -0.00099267)
(-0.000262321 -0.000398827 -0.000992671)
(-0.000241389 1.05422e-05 -0.000787987)
(-0.000239552 -3.15347e-05 -0.000787987)
(-0.000230437 -7.26526e-05 -0.000787987)
(-0.00021432 -0.000111563 -0.000787986)
(-0.000191691 -0.000147084 -0.000787986)
(-0.000163238 -0.000178137 -0.000787985)
(-0.000129825 -0.000203776 -0.000787985)
(-9.24668e-05 -0.000223225 -0.000787985)
(-5.22991e-05 -0.00023589 -0.000787986)
(-1.05423e-05 -0.000241388 -0.000787986)
(3.15345e-05 -0.000239551 -0.000787986)
(7.26524e-05 -0.000230436 -0.000787986)
(0.000111563 -0.000214319 -0.000787986)
(0.000147084 -0.00019169 -0.000787986)
(0.000178136 -0.000163237 -0.000787985)
(0.000203776 -0.000129824 -0.000787985)
(0.000223225 -9.24658e-05 -0.000787985)
(0.00023589 -5.22981e-05 -0.000787986)
(0.000241388 -1.05413e-05 -0.000787986)
(0.000239551 3.15356e-05 -0.000787987)
(0.000230436 7.26535e-05 -0.000787987)
(0.000214319 0.000111564 -0.000787986)
(0.00019169 0.000147085 -0.000787986)
(0.000163237 0.000178137 -0.000787986)
(0.000129824 0.000203777 -0.000787986)
(9.24656e-05 0.000223226 -0.000787986)
(5.22979e-05 0.000235891 -0.000787987)
(1.05411e-05 0.000241389 -0.000787987)
(-3.15358e-05 0.000239552 -0.000787987)
(-7.26537e-05 0.000230437 -0.000787987)
(-0.000111564 0.00021432 -0.000787987)
(-0.000147085 0.000191691 -0.000787986)
(-0.000178138 0.000163238 -0.000787986)
(-0.000203778 0.000129825 -0.000787986)
(-0.000223226 9.24667e-05 -0.000787986)
(-0.000235891 5.2299e-05 -0.000787986)
(-0.000354099 0.000424936 -0.000597357)
(-0.000422508 0.000356992 -0.000597358)
(-0.00047808 0.000278201 -0.000597357)
(-0.000519126 0.000190958 -0.000597357)
(-0.000544398 9.79113e-05 -0.000597357)
(-0.00055313 1.88997e-06 -0.000597357)
(-0.000545055 -9.41894e-05 -0.000597357)
(-0.000520418 -0.000187407 -0.000597357)
(-0.000479969 -0.000274929 -0.000597357)
(-0.000424936 -0.000354098 -0.000597357)
(-0.000356992 -0.000422507 -0.000597357)
(-0.000278202 -0.000478079 -0.000597357)
(-0.000190958 -0.000519125 -0.000597357)
(-9.79115e-05 -0.000544397 -0.000597357)
(-1.89019e-06 -0.000553129 -0.000597357)
(9.41892e-05 -0.000545054 -0.000597357)
(0.000187406 -0.000520417 -0.000597357)
(0.000274929 -0.000479968 -0.000597357)
(0.000354098 -0.000424935 -0.000597357)
(0.000422507 -0.000356991 -0.000597358)
(0.000478079 -0.000278201 -0.000597357)
(0.000519125 -0.000190957 -0.000597357)
(0.000544397 -9.79105e-05 -0.000597358)
(0.000553129 -1.88917e-06 -0.000597358)
(0.000545054 9.41902e-05 -0.000597358)
(0.000520417 0.000187407 -0.000597358)
(0.000479968 0.00027493 -0.000597358)
(0.000424935 0.000354099 -0.000597358)
(0.000356991 0.000422508 -0.000597358)
(0.0002782 0.00047808 -0.000597358)
(0.000190957 0.000519126 -0.000597358)
(9.79103e-05 0.000544398 -0.000597358)
(1.88897e-06 0.00055313 -0.000597358)
(-9.41904e-05 0.000545055 -0.000597358)
(-0.000187408 0.000520418 -0.000597358)
(-0.00027493 0.000479969 -0.000597357)
(-0.000189738 -0.000295016 -0.00123206)
(-0.000135627 -0.000323482 -0.00123206)
(-7.73945e-05 -0.000342118 -0.00123206)
(-1.68104e-05 -0.000350359 -0.00123206)
(4.42848e-05 -0.000347955 -0.00123206)
(0.000104034 -0.000334979 -0.00123206)
(0.000160622 -0.000311824 -0.00123206)
(0.000212331 -0.000279195 -0.00123206)
(0.000257587 -0.000238083 -0.00123206)
(0.000295016 -0.000189737 -0.00123206)
(0.000323482 -0.000135625 -0.00123206)
(0.000342117 -7.7393e-05 -0.00123206)
(0.000350359 -1.68089e-05 -0.00123206)
(0.000347954 4.42862e-05 -0.00123206)
(0.000334978 0.000104036 -0.00123206)
(0.000311824 0.000160624 -0.00123206)
(0.000279195 0.000212332 -0.00123206)
(0.000238083 0.000257588 -0.00123206)
(0.000189736 0.000295017 -0.00123206)
(0.000135625 0.000323483 -0.00123206)
(7.73929e-05 0.000342119 -0.00123206)
(1.68088e-05 0.00035036 -0.00123206)
(-4.42864e-05 0.000347956 -0.00123206)
(-0.000104036 0.00033498 -0.00123206)
(-0.000160624 0.000311826 -0.00123206)
(-0.000212332 0.000279197 -0.00123206)
(-0.000257588 0.000238084 -0.00123206)
(-0.000295017 0.000189738 -0.00123206)
(-0.000323484 0.000135626 -0.00123206)
(-0.000342119 7.73943e-05 -0.00123206)
(-0.00035036 1.68102e-05 -0.00123206)
(-0.000347956 -4.4285e-05 -0.00123206)
(-0.00033498 -0.000104034 -0.00123206)
(-0.000311826 -0.000160622 -0.00123206)
(-0.000279197 -0.000212331 -0.00123206)
(-0.000238084 -0.000257587 -0.00123206)
(-0.000290018 0.000120826 -0.00102167)
(-0.000306593 6.86292e-05 -0.00102167)
(-0.000313853 1.43487e-05 -0.00102167)
(-0.000311576 -4.03685e-05 -0.00102166)
(-0.000299832 -9.38595e-05 -0.00102166)
(-0.000278978 -0.000144499 -0.00102166)
(-0.000249647 -0.000190748 -0.00102166)
(-0.000212731 -0.000231201 -0.00102166)
(-0.000169352 -0.000264629 -0.00102166)
(-0.000120826 -0.000290016 -0.00102166)
(-6.86295e-05 -0.000306591 -0.00102167)
(-1.4349e-05 -0.000313851 -0.00102166)
(4.03682e-05 -0.000311575 -0.00102166)
(9.38592e-05 -0.000299831 -0.00102166)
(0.000144499 -0.000278977 -0.00102166)
(0.000190748 -0.000249646 -0.00102166)
(0.000231201 -0.000212729 -0.00102166)
(0.000264629 -0.00016935 -0.00102166)
(0.000290016 -0.000120825 -0.00102167)
(0.000306591 -6.86281e-05 -0.00102167)
(0.000313851 -1.43476e-05 -0.00102167)
(0.000311574 4.03696e-05 -0.00102167)
(0.000299831 9.38606e-05 -0.00102167)
(0.000278977 0.0001445 -0.00102167)
(0.000249646 0.000190749 -0.00102167)
(0.000212729 0.000231202 -0.00102167)
(0.00016935 0.00026463 -0.00102167)
(0.000120825 0.000290018 -0.00102167)
(6.86279e-05 0.000306593 -0.00102167)
(1.43474e-05 0.000313852 -0.00102167)
(-4.03698e-05 0.000311576 -0.00102167)
(-9.38609e-05 0.000299832 -0.00102167)
(-0.0001445 0.000278978 -0.00102167)
(-0.000190749 0.000249647 -0.00102167)
(-0.000231203 0.00021273 -0.00102167)
(-0.000264631 0.000169352 -0.00102167)
(-0.000449914 0.000482947 -0.000833774)
(-0.000526942 0.000397484 -0.000833774)
(-0.000587959 0.000299943 -0.000833774)
(-0.00063111 0.000193289 -0.000833773)
(-0.000655087 8.07614e-05 -0.000833774)
(-0.000659158 -3.42202e-05 -0.000833773)
(-0.000643201 -0.000148162 -0.000833774)
(-0.000607701 -0.000257602 -0.000833774)
(-0.000553737 -0.000359215 -0.000833773)
(-0.000482947 -0.000449913 -0.000833773)
(-0.000397484 -0.000526941 -0.000833773)
(-0.000299943 -0.000587957 -0.000833773)
(-0.000193289 -0.000631109 -0.000833773)
(-8.07617e-05 -0.000655085 -0.000833773)
(3.42199e-05 -0.000659157 -0.000833773)
(0.000148162 -0.0006432 -0.000833774)
(0.000257602 -0.0006077 -0.000833774)
(0.000359215 -0.000553736 -0.000833774)
(0.000449913 -0.000482946 -0.000833774)
(0.00052694 -0.000397483 -0.000833774)
(0.000587957 -0.000299942 -0.000833774)
(0.000631109 -0.000193288 -0.000833774)
(0.000655085 -8.07603e-05 -0.000833774)
(0.000659156 3.42213e-05 -0.000833774)
(0.0006432 0.000148163 -0.000833774)
(0.0006077 0.000257603 -0.000833775)
(0.000553736 0.000359216 -0.000833774)
(0.000482946 0.000449914 -0.000833774)
(0.000397482 0.000526942 -0.000833775)
(0.000299942 0.000587958 -0.000833774)
(0.000193288 0.00063111 -0.000833774)
(8.07601e-05 0.000655086 -0.000833774)
(-3.42215e-05 0.000659158 -0.000833774)
(-0.000148164 0.000643201 -0.000833774)
(-0.000257604 0.000607701 -0.000833774)
(-0.000359216 0.000553737 -0.000833774)
(-0.000208259 -6.11626e-05 -0.00144536)
(-0.000194474 -9.63973e-05 -0.00144536)
(-0.000174781 -0.000128702 -0.00144536)
(-0.000149777 -0.000157097 -0.00144536)
(-0.000120221 -0.000180718 -0.00144536)
(-8.70122e-05 -0.000198848 -0.00144536)
(-5.11603e-05 -0.000210937 -0.00144536)
(-1.37541e-05 -0.000216616 -0.00144536)
(2.40696e-05 -0.000215714 -0.00144536)
(6.11623e-05 -0.000208257 -0.00144536)
(9.6397e-05 -0.000194472 -0.00144536)
(0.000128702 -0.000174779 -0.00144536)
(0.000157096 -0.000149775 -0.00144536)
(0.000180718 -0.000120219 -0.00144536)
(0.000198848 -8.70105e-05 -0.00144536)
(0.000210936 -5.11587e-05 -0.00144536)
(0.000216616 -1.37525e-05 -0.00144536)
(0.000215714 2.40712e-05 -0.00144536)
(0.000208257 6.11639e-05 -0.00144536)
(0.000194472 9.63987e-05 -0.00144536)
(0.000174779 0.000128704 -0.00144536)
(0.000149775 0.000157098 -0.00144536)
(0.000120219 0.00018072 -0.00144536)
(8.70103e-05 0.00019885 -0.00144536)
(5.11584e-05 0.000210938 -0.00144536)
(1.37522e-05 0.000216618 -0.00144536)
(-2.40715e-05 0.000215716 -0.00144536)
(-6.11643e-05 0.000208259 -0.00144536)
(-9.6399e-05 0.000194474 -0.00144536)
(-0.000128704 0.000174781 -0.00144536)
(-0.000157099 0.000149776 -0.00144536)
(-0.00018072 0.000120221 -0.00144536)
(-0.00019885 8.70119e-05 -0.00144536)
(-0.000210938 5.11601e-05 -0.00144536)
(-0.000216618 1.37538e-05 -0.00144536)
(-0.000215716 -2.40699e-05 -0.00144536)
(-0.000337282 0.000292181 -0.00123381)
(-0.000382895 0.000229174 -0.00123381)
(-0.000416873 0.000159204 -0.00123381)
(-0.000438185 8.43967e-05 -0.00123381)
(-0.000446183 7.02483e-06 -0.00123381)
(-0.000440624 -7.05607e-05 -0.00123381)
(-0.000421676 -0.000146002 -0.00123381)
(-0.000389917 -0.000217008 -0.00123381)
(-0.00034631 -0.00028142 -0.00123381)
(-0.000292181 -0.000337281 -0.00123381)
(-0.000229174 -0.000382893 -0.00123381)
(-0.000159204 -0.000416871 -0.00123381)
(-8.4397e-05 -0.000438184 -0.00123381)
(-7.02514e-06 -0.000446182 -0.00123381)
(7.05604e-05 -0.000440622 -0.00123381)
(0.000146002 -0.000421675 -0.00123381)
(0.000217008 -0.000389915 -0.00123381)
(0.000281419 -0.000346309 -0.00123381)
(0.00033728 -0.000292179 -0.00123381)
(0.000382893 -0.000229172 -0.00123381)
(0.000416871 -0.000159202 -0.00123381)
(0.000438184 -8.43953e-05 -0.00123381)
(0.000446182 -7.02342e-06 -0.00123381)
(0.000440622 7.05621e-05 -0.00123381)
(0.000421674 0.000146004 -0.00123381)
(0.000389915 0.000217009 -0.00123381)
(0.000346309 0.000281421 -0.00123381)
(0.000292179 0.000337282 -0.00123381)
(0.000229172 0.000382895 -0.00123381)
(0.000159202 0.000416873 -0.00123381)
(8.4395e-05 0.000438185 -0.00123381)
(7.02312e-06 0.000446183 -0.00123381)
(-7.05624e-05 0.000440624 -0.00123381)
(-0.000146004 0.000421676 -0.00123381)
(-0.000217009 0.000389917 -0.00123381)
(-0.000281421 0.00034631 -0.00123381)
(-0.000521083 0.000576398 -0.00105279)
(-0.000613257 0.000477157 -0.00105279)
(-0.000686798 0.000363417 -0.00105279)
(-0.000739471 0.000238636 -0.00105279)
(-0.000769675 0.000106603 -0.00105279)
(-0.000776493 -2.86695e-05 -0.00105279)
(-0.000759717 -0.00016307 -0.00105279)
(-0.000719858 -0.000292517 -0.00105279)
(-0.000658126 -0.000413075 -0.00105279)
(-0.000576398 -0.000521082 -0.00105279)
(-0.000477157 -0.000613256 -0.00105279)
(-0.000363417 -0.000686796 -0.00105279)
(-0.000238636 -0.000739469 -0.00105279)
(-0.000106603 -0.000769673 -0.00105279)
(2.86692e-05 -0.000776491 -0.00105279)
(0.00016307 -0.000759715 -0.00105279)
(0.000292516 -0.000719856 -0.00105279)
(0.000413074 -0.000658125 -0.00105279)
(0.000521081 -0.000576397 -0.00105279)
(0.000613256 -0.000477155 -0.00105279)
(0.000686796 -0.000363416 -0.00105279)
(0.000739469 -0.000238634 -0.00105279)
(0.000769673 -0.000106601 -0.00105279)
(0.000776491 2.86709e-05 -0.00105279)
(0.000759715 0.000163072 -0.00105279)
(0.000719856 0.000292518 -0.00105279)
(0.000658125 0.000413076 -0.00105279)
(0.000576396 0.000521083 -0.00105279)
(0.000477155 0.000613257 -0.00105279)
(0.000363416 0.000686798 -0.00105279)
(0.000238634 0.000739471 -0.00105279)
(0.000106601 0.000769675 -0.00105279)
(-2.86711e-05 0.000776493 -0.00105279)
(-0.000163072 0.000759717 -0.00105279)
(-0.000292518 0.000719857 -0.00105279)
(-0.000413076 0.000658126 -0.00105279)
(-0.000265334 0.000222021 -0.00165579)
(-0.000299856 0.000172573 -0.00165579)
(-0.000325268 0.000117882 -0.00165579)
(-0.000340797 5.96097e-05 -0.00165579)
(-0.00034597 -4.74552e-07 -0.00165579)
(-0.000340632 -6.05434e-05 -0.00165578)
(-0.000324942 -0.000118773 -0.00165578)
(-0.00029938 -0.000173395 -0.00165578)
(-0.000264723 -0.000222748 -0.00165578)
(-0.000222021 -0.000265332 -0.00165578)
(-0.000172573 -0.000299854 -0.00165578)
(-0.000117883 -0.000325266 -0.00165579)
(-5.96101e-05 -0.000340795 -0.00165579)
(4.74168e-07 -0.000345968 -0.00165578)
(6.0543e-05 -0.00034063 -0.00165578)
(0.000118773 -0.00032494 -0.00165578)
(0.000173394 -0.000299378 -0.00165578)
(0.000222747 -0.000264721 -0.00165578)
(0.000265332 -0.000222019 -0.00165578)
(0.000299854 -0.000172571 -0.00165579)
(0.000325266 -0.000117881 -0.00165579)
(0.000340795 -5.96081e-05 -0.00165579)
(0.000345968 4.76233e-07 -0.00165579)
(0.00034063 6.05451e-05 -0.00165579)
(0.00032494 0.000118775 -0.00165579)
(0.000299378 0.000173397 -0.00165579)
(0.00026472 0.000222749 -0.00165579)
(0.000222019 0.000265334 -0.00165579)
(0.000172571 0.000299856 -0.00165579)
(0.00011788 0.000325268 -0.00165579)
(5.96077e-05 0.000340797 -0.00165579)
(-4.76593e-07 0.00034597 -0.00165579)
(-6.05454e-05 0.000340631 -0.00165579)
(-0.000118775 0.000324942 -0.00165579)
(-0.000173397 0.00029938 -0.00165579)
(-0.00022275 0.000264722 -0.00165579)
(-0.000400952 0.000507695 -0.00143647)
(-0.000483021 0.000430357 -0.00143647)
(-0.000550413 0.000339945 -0.00143647)
(-0.000601082 0.000239202 -0.00143647)
(-0.000633486 0.000131191 -0.00143647)
(-0.000646644 1.91954e-05 -0.00143647)
(-0.000640153 -9.33846e-05 -0.00143647)
(-0.00061421 -0.000203127 -0.00143647)
(-0.000569607 -0.000306698 -0.00143647)
(-0.000507696 -0.00040095 -0.00143647)
(-0.000430358 -0.000483019 -0.00143647)
(-0.000339945 -0.000550412 -0.00143647)
(-0.000239202 -0.00060108 -0.00143647)
(-0.000131192 -0.000633484 -0.00143647)
(-1.91957e-05 -0.000646642 -0.00143647)
(9.33843e-05 -0.000640151 -0.00143647)
(0.000203127 -0.000614208 -0.00143647)
(0.000306698 -0.000569605 -0.00143647)
(0.00040095 -0.000507694 -0.00143647)
(0.000483018 -0.000430356 -0.00143647)
(0.000550411 -0.000339943 -0.00143647)
(0.00060108 -0.0002392 -0.00143647)
(0.000633484 -0.00013119 -0.00143647)
(0.000646642 -1.91937e-05 -0.00143647)
(0.00064015 9.33863e-05 -0.00143647)
(0.000614208 0.000203129 -0.00143647)
(0.000569605 0.0003067 -0.00143647)
(0.000507693 0.000400952 -0.00143647)
(0.000430356 0.00048302 -0.00143647)
(0.000339943 0.000550413 -0.00143648)
(0.0002392 0.000601082 -0.00143648)
(0.00013119 0.000633486 -0.00143647)
(1.91934e-05 0.000646644 -0.00143647)
(-9.33866e-05 0.000640152 -0.00143647)
(-0.000203129 0.00061421 -0.00143647)
(-0.0003067 0.000569607 -0.00143647)
(-0.000584703 0.000713915 -0.00125391)
(-0.00069979 0.000601537 -0.00125391)
(-0.000793615 0.000470882 -0.00125391)
(-0.000863325 0.000325919 -0.00125391)
(-0.000906804 0.000171053 -0.00125391)
(-0.000922731 1.09896e-05 -0.00125391)
(-0.00091062 -0.000149408 -0.00125391)
(-0.000870841 -0.000305265 -0.00125391)
(-0.000804602 -0.000451848 -0.00125391)
(-0.000713916 -0.000584702 -0.00125391)
(-0.000601538 -0.000699788 -0.00125391)
(-0.000470882 -0.000793613 -0.00125391)
(-0.000325919 -0.000863324 -0.00125391)
(-0.000171053 -0.000906803 -0.00125391)
(-1.09899e-05 -0.000922729 -0.00125391)
(0.000149407 -0.000910619 -0.00125391)
(0.000305265 -0.000870839 -0.00125391)
(0.000451848 -0.000804601 -0.00125391)
(0.000584701 -0.000713914 -0.00125391)
(0.000699788 -0.000601536 -0.00125391)