/*--------------------------------*- C++ -*----------------------------------*\
| =========                 |                                                 |
| \\      /  F ield         | OpenFOAM: The Open Source CFD Toolbox           |
|  \\    /   O peration     | Version:  2312                                  |
|   \\  /    A nd           | Website:  www.openfoam.com                      |
|    \\/     M anipulation  |                                                 |
\*---------------------------------------------------------------------------*/
FoamFile
{
    version     2.0;
    format      ascii;
    arch        "LSB;label=32;scalar=64";
    class       volVectorField;
    location    "0.6";
    object      U;
}
// * * * * * * * * * * * * * * * * * * * * * * * * * * * * * * * * * * * * * //

dimensions      [0 1 -1 0 0 0 0];

internalField   nonuniform List<vector> 
1620
(
(-8.68268e-05 0.000179374 -0.000236983)
(-7.35277e-05 0.000292686 -0.000223257)
(-6.25362e-05 0.000355653 -0.000189045)
(-5.02427e-05 0.000376669 -0.000137878)
(-2.83966e-05 0.000371995 -6.85687e-05)
(2.75327e-06 0.000356131 2.1251e-05)
(3.20884e-05 0.000340512 0.000134398)
(4.17024e-05 0.000331284 0.000269325)
(3.76587e-05 0.000319474 0.000385344)
(2.17672e-05 0.000306968 0.000354574)
(-1.29694e-05 0.000284529 0.000211111)
(-1.90961e-05 0.000256891 8.31408e-05)
(3.48899e-06 0.000240969 -1.02714e-05)
(3.2301e-05 0.000234615 -7.59196e-05)
(5.23211e-05 0.000225344 -0.000121134)
(6.118e-05 0.000197765 -0.000153736)
(6.50874e-05 0.000136892 -0.000182071)
(6.45745e-05 3.38908e-05 -0.000205822)
(5.63991e-05 -9.65818e-05 -0.000198284)
(4.49453e-05 -0.000204679 -0.000159722)
(3.8994e-05 -0.000272013 -0.000120014)
(3.92143e-05 -0.00030187 -8.08233e-05)
(3.81089e-05 -0.000303954 -3.73197e-05)
(3.05067e-05 -0.000290511 1.56288e-05)
(1.80822e-05 -0.00027477 8.78316e-05)
(1.09151e-05 -0.000266788 0.000192944)
(5.73888e-07 -0.000258659 0.000309512)
(-3.03568e-06 -0.000249969 0.000306117)
(1.30302e-05 -0.000232847 0.000200185)
(4.626e-06 -0.000214618 9.79382e-05)
(-3.00798e-05 -0.000207499 1.77882e-05)
(-6.99443e-05 -0.000206195 -4.23854e-05)
(-9.73592e-05 -0.000195812 -8.65737e-05)
(-0.00010716 -0.000159323 -0.000122696)
(-0.000106133 -8.27895e-05 -0.000162733)
(-9.89439e-05 3.78654e-05 -0.00021092)
(0.000103698 0.000131201 -0.000153913)
(9.98206e-05 0.000235151 -0.000115483)
(8.35371e-05 0.00028693 -7.74071e-05)
(6.33905e-05 0.000298973 -3.26202e-05)
(4.67119e-05 0.000279612 1.85989e-05)
(3.56396e-05 0.000239745 7.15587e-05)
(2.83745e-05 0.000190497 0.000120138)
(2.29266e-05 0.000142806 0.000157926)
(2.4649e-05 0.000109454 0.00017774)
(1.81699e-05 0.000100053 0.000167229)
(1.08644e-05 0.000111785 0.000133456)
(2.794e-06 0.000134975 9.09487e-05)
(-8.60177e-07 0.000163969 4.74068e-05)
(-6.21621e-06 0.000191081 6.64932e-06)
(-1.93817e-05 0.000205548 -2.8178e-05)
(-4.19464e-05 0.000195582 -5.58463e-05)
(-6.92019e-05 0.000151671 -7.97308e-05)
(-9.37847e-05 5.81874e-05 -0.000108327)
(-9.94208e-05 -6.48647e-05 -9.77102e-05)
(-8.28749e-05 -0.000161346 -5.20713e-05)
(-5.6521e-05 -0.000212616 -1.91022e-05)
(-2.73319e-05 -0.000228424 1.10943e-05)
(-2.2717e-06 -0.000215105 4.18547e-05)
(1.50686e-05 -0.000181984 7.27023e-05)
(2.35263e-05 -0.000138163 0.000103114)
(2.26208e-05 -9.24539e-05 0.000132429)
(7.94244e-06 -5.72416e-05 0.000154223)
(-2.8313e-06 -4.36419e-05 0.000149561)
(-1.10364e-05 -5.40489e-05 0.000122359)
(-1.82947e-05 -8.1351e-05 8.48505e-05)
(-2.76522e-05 -0.000118124 4.32065e-05)
(-3.11981e-05 -0.000153534 1.56605e-06)
(-2.05877e-05 -0.000172842 -3.64394e-05)
(6.76778e-06 -0.000161136 -6.99612e-05)
(4.4923e-05 -0.000108433 -0.000103846)
(8.33157e-05 -3.15881e-06 -0.000148351)
(0.000276887 7.71767e-05 -4.39506e-05)
(0.000247293 0.000173629 -1.52657e-05)
(0.000188239 0.000219079 1.51523e-05)
(0.000121729 0.000216788 4.50408e-05)
(6.00883e-05 0.000176711 7.20768e-05)
(1.02987e-05 0.000113248 9.0003e-05)
(-2.24271e-05 4.26195e-05 8.99907e-05)
(-3.16275e-05 -1.92578e-05 6.59719e-05)
(-6.49844e-06 -5.8106e-05 2.92666e-05)
(4.16127e-05 -6.88465e-05 2.71462e-05)
(6.84116e-05 -4.66068e-05 6.29254e-05)
(6.92474e-05 3.88011e-06 7.89859e-05)
(5.09135e-05 6.75947e-05 7.24552e-05)
(1.66108e-05 0.000129442 5.43051e-05)
(-3.24978e-05 0.000174447 3.47251e-05)
(-9.40116e-05 0.000187844 2.05769e-05)
(-0.000159404 0.00015729 1.39708e-05)
(-0.000205963 7.63806e-05 1.28287e-05)
(-0.00020817 -2.52878e-05 2.41006e-05)
(-0.00016572 -0.000109178 4.23972e-05)
(-0.000102329 -0.000147366 5.73445e-05)
(-3.92624e-05 -0.00014419 7.18859e-05)
(1.36552e-05 -0.000109569 8.69163e-05)
(5.22331e-05 -5.52747e-05 9.81316e-05)
(7.27645e-05 7.46333e-06 9.6963e-05)
(6.90752e-05 6.70837e-05 7.4865e-05)
(3.24969e-05 0.000109137 3.85256e-05)
(-2.33169e-05 0.000123552 3.19142e-05)
(-5.72856e-05 0.000101425 6.08428e-05)
(-6.91454e-05 4.70993e-05 6.97127e-05)
(-6.02213e-05 -2.52775e-05 5.61138e-05)
(-2.86886e-05 -9.84134e-05 3.05538e-05)
(2.68505e-05 -0.000152727 2.51021e-06)
(0.000103224 -0.000169091 -2.21474e-05)
(0.000188432 -0.00013334 -4.1688e-05)
(0.000256074 -4.06329e-05 -5.43102e-05)
(-1.38235e-05 0.000495702 -0.000621052)
(-1.98824e-05 0.000831238 -0.000582973)
(-5.42023e-05 0.00102173 -0.000484103)
(-8.57318e-05 0.00108236 -0.000337996)
(-8.88691e-05 0.00105053 -0.000143586)
(-6.00794e-05 0.000963832 0.000101346)
(-1.58378e-05 0.000857884 0.000393909)
(1.89295e-05 0.000762724 0.000711728)
(5.07919e-05 0.000687229 0.000959302)
(7.74108e-05 0.00064143 0.000932336)
(5.31546e-05 0.000619779 0.00064805)
(5.14317e-05 0.000621671 0.00033134)
(7.9749e-05 0.000646691 6.66611e-05)
(0.000108773 0.000672211 -0.000133315)
(0.000114142 0.000665048 -0.000276179)
(9.00584e-05 0.000589203 -0.000379469)
(4.95473e-05 0.000408442 -0.000462193)
(1.0964e-05 0.000102269 -0.000518168)
(-4.99692e-07 -0.000272102 -0.000494178)
(2.27673e-05 -0.000588906 -0.000391244)
(6.68229e-05 -0.000775975 -0.000274004)
(0.000113412 -0.000843411 -0.000157945)
(0.00014467 -0.000824104 -3.41464e-05)
(0.000152274 -0.000753357 0.000112403)
(0.000137892 -0.000665257 0.000301137)
(0.000110559 -0.000588568 0.000542549)
(5.54201e-05 -0.000528483 0.000775723)
(-1.18675e-05 -0.000490216 0.000805681)
(-3.73286e-05 -0.000474846 0.000608182)
(-8.26757e-05 -0.000491646 0.000359048)
(-0.000154599 -0.00053613 0.000132313)
(-0.000219619 -0.000577241 -5.39184e-05)
(-0.000242444 -0.000572378 -0.000199375)
(-0.000208765 -0.000478893 -0.000319266)
(-0.000135506 -0.000261424 -0.000438977)
(-5.69383e-05 8.96786e-05 -0.000560632)
(0.000246217 0.000371141 -0.000481927)
(0.00022926 0.000663446 -0.000390332)
(0.000173074 0.000819515 -0.000263504)
(0.000106846 0.000859407 -0.000110538)
(5.35593e-05 0.000807125 6.29004e-05)
(2.25059e-05 0.000695085 0.000246112)
(1.19391e-05 0.000558391 0.000422998)
(1.74033e-05 0.000430151 0.000571405)
(4.28769e-05 0.000338455 0.000658255)
(6.75388e-05 0.000304142 0.000642928)
(7.92529e-05 0.000328855 0.00053102)
(7.99629e-05 0.000393036 0.000372932)
(7.58248e-05 0.000476464 0.000207642)
(5.62009e-05 0.000552853 5.51297e-05)
(1.07356e-05 0.000589393 -7.47783e-05)
(-6.01783e-05 0.000552304 -0.000180284)
(-0.00014079 0.000414402 -0.000266131)
(-0.000206061 0.000149991 -0.000330514)
(-0.000218234 -0.000180608 -0.000300007)
(-0.00017051 -0.000453228 -0.000184504)
(-9.18314e-05 -0.000601942 -6.87678e-05)
(-7.7383e-06 -0.000644285 4.13216e-05)
(6.14034e-05 -0.000603681 0.000149394)
(0.000104798 -0.00050956 0.000257844)
(0.000118087 -0.000390984 0.000367321)
(9.95261e-05 -0.000274401 0.000473241)
(4.61093e-05 -0.000184223 0.000552375)
(-1.61891e-05 -0.000143938 0.000558375)
(-6.77445e-05 -0.000166701 0.000479517)
(-0.000110154 -0.000241518 0.000349985)
(-0.000143665 -0.000346354 0.00019992)
(-0.000150131 -0.000446835 4.79417e-05)
(-0.000111026 -0.000498378 -9.47482e-05)
(-2.35605e-05 -0.000457018 -0.000225615)
(9.09557e-05 -0.0002934 -0.000349893)
(0.000196002 7.88274e-06 -0.000464557)
(0.000502201 0.000236331 -0.000313345)
(0.000468713 0.000482199 -0.000204036)
(0.00037824 0.000613312 -5.91585e-05)
(0.000262648 0.000632825 9.39935e-05)
(0.000147574 0.000559542 0.000239303)
(5.21845e-05 0.000424826 0.000357489)
(-9.24082e-06 0.00026716 0.000424578)
(-2.47839e-05 0.000125346 0.000423642)
(2.24778e-05 3.21285e-05 0.000378617)
(9.77685e-05 4.65409e-06 0.000374778)
(0.000148027 4.95511e-05 0.000399734)
(0.000157509 0.000153987 0.000380447)
(0.00012685 0.000288032 0.000310269)
(5.83569e-05 0.000416375 0.000209338)
(-4.45449e-05 0.000500953 0.00010097)
(-0.000171346 0.000505513 2.8187e-06)
(-0.000299015 0.000403527 -7.34189e-05)
(-0.000387665 0.000188009 -0.000111704)
(-0.000399575 -7.88593e-05 -7.75641e-05)
(-0.00033136 -0.000300688 1.34912e-05)
(-0.000215704 -0.000418215 0.000116213)
(-8.87975e-05 -0.000434143 0.000214064)
(2.37804e-05 -0.000368384 0.000301623)
(0.000105207 -0.000248575 0.000369487)
(0.000143242 -0.000104276 0.000400707)
(0.000128272 3.38599e-05 0.0003807)
(4.97837e-05 0.000133122 0.000332019)
(-4.97362e-05 0.000167379 0.000329568)
(-0.000125041 0.000121617 0.000352719)
(-0.000165685 4.18476e-06 0.000329661)
(-0.000162248 -0.000156312 0.000252148)
(-0.000105923 -0.000317455 0.000136312)
(5.47239e-06 -0.000427404 1.95913e-06)
(0.000158796 -0.000437203 -0.000134157)
(0.000322964 -0.000316918 -0.000256033)
(0.00045168 -6.75296e-05 -0.000334244)
(3.12361e-05 0.000710913 -0.00085973)
(1.76898e-05 0.00118682 -0.000817786)
(-3.89646e-05 0.00146961 -0.000675991)
(-8.89696e-05 0.00157334 -0.000446113)
(-0.000101584 0.00153938 -0.000128847)
(-7.56773e-05 0.0014135 0.000268713)
(-2.91219e-05 0.00124232 0.000725083)
(1.4716e-05 0.00107042 0.00118887)
(5.83191e-05 0.000932384 0.0015422)
(9.72044e-05 0.000862493 0.00156957)
(8.93827e-05 0.000859441 0.00121892)
(8.4493e-05 0.000902834 0.000747217)
(0.000106619 0.000965985 0.000309235)
(0.00013152 0.00100969 -4.41263e-05)
(0.000130698 0.000990689 -0.00030312)
(9.02101e-05 0.000864961 -0.000481596)
(2.31358e-05 0.000591017 -0.000602368)
(-3.77034e-05 0.00014919 -0.000662469)
(-5.17189e-05 -0.000375753 -0.000617286)
(-6.05344e-06 -0.000823687 -0.000474107)
(7.49703e-05 -0.00109407 -0.000299745)
(0.000154761 -0.00119556 -0.000116436)
(0.000207957 -0.00117078 8.38417e-05)
(0.000226666 -0.00106642 0.000317868)
(0.000213503 -0.000925986 0.000601884)
(0.000175227 -0.000787017 0.000931176)
(0.000101225 -0.000674162 0.00123512)
(6.05834e-06 -0.000613091 0.00132519)
(-6.34088e-05 -0.000612984 0.00110333)
(-0.000128827 -0.000670847 0.000746609)
(-0.000215588 -0.000760137 0.000380203)
(-0.000293423 -0.000828904 5.48264e-05)
(-0.00031835 -0.000819425 -0.000210256)
(-0.000263151 -0.000677479 -0.000422853)
(-0.000147279 -0.000360617 -0.000609887)
(-2.89766e-05 0.000139491 -0.000775515)
(0.000274013 0.000558853 -0.000746945)
(0.000261039 0.000969889 -0.000617732)
(0.000197621 0.00119595 -0.000409045)
(0.000122211 0.00126341 -0.000147146)
(6.32483e-05 0.00120036 0.000154795)
(3.1181e-05 0.00104946 0.000476528)
(2.3543e-05 0.000859367 0.000788344)
(3.39296e-05 0.000676701 0.00105013)
(6.30518e-05 0.000541029 0.00120904)
(9.46485e-05 0.000482441 0.00120532)
(0.000118911 0.000510912 0.00103341)
(0.000127086 0.000602017 0.000766268)
(0.000125153 0.000719503 0.000473404)
(0.000102045 0.000822307 0.00019634)
(4.54973e-05 0.000863126 -4.25062e-05)
(-4.43288e-05 0.000795386 -0.000234772)
(-0.000145992 0.000586453 -0.000380696)
(-0.000225928 0.000209238 -0.000463351)
(-0.000242016 -0.000249366 -0.000409713)
(-0.000184149 -0.000631181 -0.000239745)
(-8.23815e-05 -0.00084593 -4.75225e-05)
(2.68303e-05 -0.000913524 0.000141812)
(0.00011458 -0.000863695 0.000327522)
(0.000165679 -0.000736617 0.000512105)
(0.00017477 -0.000573851 0.000695123)
(0.000142223 -0.000413037 0.000866654)
(7.019e-05 -0.000286357 0.000995346)
(-1.80173e-05 -0.000222659 0.00102114)
(-0.000102166 -0.000245813 0.000911147)
(-0.000170565 -0.000348021 0.000704521)
(-0.000222979 -0.000493481 0.000448616)
(-0.000238466 -0.000630812 0.000177277)
(-0.000192743 -0.000695942 -8.65676e-05)
(-8.00117e-05 -0.00062592 -0.000330652)
(7.00419e-05 -0.000382501 -0.000549675)
(0.000206034 4.90735e-05 -0.000719987)
(0.000554466 0.000393992 -0.000606481)
(0.000531163 0.000737298 -0.000421009)
(0.000445586 0.000921714 -0.000155746)
(0.0003279 0.000956358 0.000135431)
(0.000206497 0.000864581 0.000418568)
(0.000104644 0.000687717 0.000661256)
(3.87465e-05 0.000478254 0.000828155)
(1.9758e-05 0.000288804 0.000892159)
(5.66633e-05 0.000161908 0.000868571)
(0.000127783 0.00012194 0.000851023)
(0.000186432 0.000172522 0.000834533)
(0.000206293 0.000299668 0.000756254)
(0.000179256 0.000468781 0.00060755)
(0.000102423 0.000632561 0.000411821)
(-2.06066e-05 0.000735916 0.000200592)
(-0.000173183 0.000726412 2.40728e-06)
(-0.000323002 0.00057015 -0.000154928)
(-0.000426065 0.00026301 -0.000230268)
(-0.000442864 -0.000111685 -0.000172495)
(-0.000369027 -0.000421123 -7.36062e-06)
(-0.000238345 -0.000592222 0.000192046)
(-8.9907e-05 -0.000626742 0.000384544)
(4.24705e-05 -0.000547807 0.000553574)
(0.000133575 -0.000392378 0.000686461)
(0.000168072 -0.000203021 0.000765804)
(0.000140417 -2.25354e-05 0.000776294)
(5.2712e-05 0.000108544 0.000735875)
(-6.27353e-05 0.000156942 0.000726898)
(-0.000163614 0.000108396 0.000724451)
(-0.000228712 -3.27701e-05 0.000657621)
(-0.000241404 -0.000236116 0.00050933)
(-0.00018516 -0.000446117 0.000292699)
(-5.53051e-05 -0.000587331 3.26172e-05)
(0.000129364 -0.000585922 -0.000240041)
(0.000326787 -0.000400709 -0.000483802)
(0.000484292 -3.86589e-05 -0.000633266)
(3.38231e-05 0.000816269 -0.000849527)
(2.03009e-05 0.00134142 -0.000835747)
(-3.53854e-05 0.00167227 -0.000692968)
(-8.43923e-05 0.00181224 -0.000420884)
(-0.000100402 0.00179521 -2.59424e-05)
(-8.22622e-05 0.00166534 0.00046965)
(-4.1781e-05 0.00147171 0.00102551)
(4.09193e-06 0.00126545 0.00157353)
(5.17412e-05 0.0010977 0.00199747)
(0.000104877 0.00101862 0.0020924)
(0.000134623 0.0010296 0.00175191)
(0.000119486 0.00109873 0.00121084)
(0.000116992 0.00118151 0.000664513)
(0.00011897 0.0012235 0.000199423)
(0.000104178 0.00117769 -0.000148422)
(5.67083e-05 0.00100364 -0.000377453)
(-1.39341e-05 0.000670822 -0.000505978)
(-7.2864e-05 0.000175341 -0.000543816)
(-7.93273e-05 -0.000389725 -0.000482979)
(-1.83529e-05 -0.000873384 -0.000339788)
(8.4215e-05 -0.00117794 -0.000156044)
(0.000183751 -0.00130339 5.1034e-05)
(0.000250732 -0.00128779 0.000286072)
(0.00027667 -0.00117795 0.000560709)
(0.000263923 -0.00101946 0.000883012)
(0.000218515 -0.000853688 0.00123988)
(0.000139301 -0.000718319 0.00156942)
(2.75184e-05 -0.000651448 0.00170731)
(-9.21902e-05 -0.00066397 0.00152282)
(-0.000163101 -0.000742913 0.00113949)
(-0.000237513 -0.000852678 0.000701425)
(-0.000300268 -0.000925907 0.000285898)
(-0.000317053 -0.000899187 -6.54994e-05)
(-0.000259147 -0.000720467 -0.000343516)
(-0.000141377 -0.000355093 -0.000565524)
(-2.41522e-05 0.0001951 -0.000743817)
(0.000200693 0.000679961 -0.000809214)
(0.000200949 0.00113605 -0.000674439)
(0.000154498 0.00139697 -0.000423329)
(9.72982e-05 0.00148701 -9.11521e-05)
(5.4133e-05 0.00143476 0.000299869)
(3.36532e-05 0.00128377 0.000719452)
(3.42136e-05 0.00108524 0.00112656)
(5.02085e-05 0.000889337 0.00146951)
(8.11841e-05 0.000739776 0.00168634)
(0.000119176 0.000667836 0.00170685)
(0.000155633 0.000689144 0.00151652)
(0.000166171 0.000782522 0.00119098)
(0.000161539 0.000901126 0.000814552)
(0.000136822 0.000997377 0.00044738)
(8.22667e-05 0.00101978 0.00012693)
(-2.71521e-06 0.000919965 -0.000127232)
(-9.79629e-05 0.000667275 -0.00030571)
(-0.000171227 0.000243694 -0.000383068)
(-0.000185206 -0.000255735 -0.000312202)
(-0.000127907 -0.000672808 -0.000123965)
(-2.51217e-05 -0.000917477 0.000102026)
(8.41615e-05 -0.0010048 0.000331352)
(0.000168577 -0.00096393 0.000557662)
(0.000211738 -0.000836682 0.000781164)
(0.000209027 -0.000668604 0.000999642)
(0.000163518 -0.000501138 0.00120119)
(8.04753e-05 -0.00036869 0.00135509)
(-2.5409e-05 -0.000295617 0.00140037)
(-0.000134241 -0.000309132 0.00129435)
(-0.000217136 -0.00041043 0.00106274)
(-0.000276891 -0.000556595 0.000752051)
(-0.000298216 -0.00069047 0.000404087)
(-0.000259523 -0.000743245 5.19338e-05)
(-0.000153396 -0.000647789 -0.000279227)
(-7.53795e-06 -0.000363884 -0.000566693)
(0.000127204 0.000117997 -0.000769361)
(0.000441197 0.000529407 -0.000751997)
(0.000438775 0.000914871 -0.000518357)
(0.000382306 0.0011215 -0.000169743)
(0.000297974 0.00116533 0.00022269)
(0.000208363 0.0010756 0.000611144)
(0.000132206 0.000897123 0.000953916)
(8.25827e-05 0.00068519 0.00120891)
(6.78071e-05 0.000493636 0.00134147)
(9.09161e-05 0.000362678 0.00135341)
(0.000156342 0.000315298 0.00132248)
(0.000215255 0.000351943 0.00126946)
(0.000242595 0.000464724 0.00114825)
(0.000226875 0.00062336 0.000943299)
(0.000162348 0.000780133 0.000678038)
(5.1106e-05 0.000874713 0.000389086)
(-9.04587e-05 0.000847369 0.000115133)
(-0.000230117 0.000659757 -9.92409e-05)
(-0.000327357 0.000310507 -0.000194817)
(-0.000344792 -0.00010894 -0.000119028)
(-0.000278027 -0.000454319 9.24148e-05)
(-0.000159405 -0.000650962 0.000351896)
(-2.58796e-05 -0.000701198 0.000603674)
(8.92442e-05 -0.000629418 0.000822714)
(0.000160505 -0.000475597 0.000994945)
(0.00017488 -0.00028716 0.00110628)
(0.000131945 -0.000109148 0.00114376)
(4.42599e-05 2.19966e-05 0.00111704)
(-8.42432e-05 7.67011e-05 0.00109402)
(-0.000199569 4.3855e-05 0.00107357)
(-0.000281787 -7.97784e-05 0.000988776)
(-0.000314625 -0.000270284 0.000802809)
(-0.000279002 -0.000474124 0.000519698)
(-0.000167066 -0.000610342 0.000164067)
(4.86628e-06 -0.000593994 -0.00022079)
(0.000196333 -0.000374837 -0.000566431)
(0.000357543 3.96094e-05 -0.000775541)
(2.0175e-05 0.00083791 -0.000578852)
(-2.54787e-06 0.00134507 -0.000614659)
(-5.33372e-05 0.00168488 -0.000511344)
(-9.40569e-05 0.0018473 -0.00024936)
(-0.000106853 0.00185733 0.000162463)
(-8.99359e-05 0.00175447 0.000690747)
(-4.95151e-05 0.00158414 0.0012838)
(1.65688e-06 0.00139409 0.00186754)
(5.53171e-05 0.00123677 0.00233053)
(0.000124222 0.00116464 0.00249048)
(0.000186245 0.00118058 0.00221942)
(0.000157126 0.00124587 0.00167726)
(0.000124896 0.00131947 0.00108694)
(9.42297e-05 0.00133843 0.000567677)
(5.66775e-05 0.00125633 0.000179241)
(3.50946e-06 0.00104274 -6.22711e-05)
(-5.71683e-05 0.000685536 -0.000172353)
(-9.60623e-05 0.000201847 -0.000180212)
(-7.99216e-05 -0.000321972 -0.000116485)
(-7.12072e-07 -0.000769751 -3.88818e-06)
(0.000112473 -0.00106404 0.000145465)
(0.000216398 -0.00119772 0.000328051)
(0.00028334 -0.00119936 0.00054821)
(0.000305366 -0.00110957 0.000812397)
(0.000285737 -0.000970396 0.00112208)
(0.000232198 -0.00082116 0.00146142)
(0.000149659 -0.000700908 0.00177774)
(2.96257e-05 -0.000646921 0.00194577)
(-0.000112878 -0.000665672 0.00184346)
(-0.000183158 -0.000735934 0.00149607)
(-0.000233551 -0.000832164 0.00105306)
(-0.000264213 -0.000885306 0.000613663)
(-0.000260009 -0.000833921 0.000235449)
(-0.000203791 -0.000634976 -5.8894e-05)
(-0.000106368 -0.000267464 -0.000279541)
(-1.6012e-05 0.000254908 -0.00045164)
(6.39826e-05 0.000742236 -0.000620861)
(7.51707e-05 0.00118762 -0.000511372)
(5.37174e-05 0.00145468 -0.000266681)
(2.74966e-05 0.00155842 8.05303e-05)
(1.34402e-05 0.00152838 0.000503389)
(1.68085e-05 0.00140501 0.000966196)
(3.60179e-05 0.0012346 0.00142179)
(6.60233e-05 0.00106223 0.00181189)
(0.000105764 0.000927523 0.00206908)
(0.000154126 0.000857552 0.00212166)
(0.000198017 0.000869514 0.00194895)
(0.00020782 0.000947506 0.00161218)
(0.000198426 0.00104181 0.00120121)
(0.000172556 0.0011066 0.000792139)
(0.00012561 0.00109518 0.000435845)
(5.78383e-05 0.000966185 0.000161179)
(-1.55621e-05 0.000694787 -1.61377e-05)
(-6.91228e-05 0.000276723 -7.42992e-05)
(-7.31654e-05 -0.000198717 1.53645e-06)
(-1.77174e-05 -0.000596451 0.000173719)
(7.39962e-05 -0.000839404 0.000385112)
(0.000165731 -0.000935587 0.000604952)
(0.000229083 -0.000912162 0.000825202)
(0.000249929 -0.000807882 0.00104456)
(0.00022622 -0.000665616 0.00125974)
(0.000163964 -0.000523773 0.00145863)
(7.03516e-05 -0.000412104 0.00161376)
(-4.68738e-05 -0.000347093 0.00167564)
(-0.000167179 -0.000351288 0.00160119)
(-0.00025672 -0.000431265 0.00138993)
(-0.000317144 -0.000547783 0.00107944)
(-0.000340908 -0.000648082 0.000714484)
(-0.00031425 -0.000670348 0.000333464)
(-0.00023196 -0.000555133 -3.09684e-05)
(-0.000114468 -0.000264911 -0.000345092)
(-2.33185e-06 0.000203018 -0.000561115)
(0.000201673 0.00063109 -0.000657919)
(0.000228463 0.001012 -0.000415894)
(0.000214704 0.00121766 -3.86078e-05)
(0.000182519 0.00126557 0.000395607)
(0.000146489 0.00119089 0.000834228)
(0.000117107 0.00103768 0.00123316)
(0.000101425 0.000855472 0.00154752)
(0.000104663 0.000690382 0.00173555)
(0.000128294 0.000575103 0.00178228)
(0.00019261 0.000528263 0.00174268)
(0.000250908 0.000551887 0.00167067)
(0.000284817 0.000639377 0.00153298)
(0.000284512 0.000763715 0.00130363)
(0.000244612 0.000885024 0.00100703)
(0.000165558 0.000950167 0.00068383)
(5.87967e-05 0.000902756 0.000379327)
(-5.05331e-05 0.000703399 0.000147261)
(-0.000128938 0.000352843 5.12117e-05)
(-0.000144781 -6.10275e-05 0.000134672)
(-9.33657e-05 -0.000402425 0.000354904)
(-2.64523e-06 -0.000601271 0.000622792)
(9.36741e-05 -0.000660226 0.000881701)
(0.000167325 -0.000605551 0.00110575)
(0.000198341 -0.000476569 0.00128226)
(0.000179001 -0.000318175 0.00140114)
(0.000113125 -0.000169926 0.00145181)
(1.62632e-05 -5.88493e-05 0.00143385)
(-0.000119748 -4.92759e-06 0.00139262)
(-0.000242637 -2.23008e-05 0.00136836)
(-0.000338078 -0.000114968 0.0012964)
(-0.000393393 -0.000263032 0.0011146)
(-0.00039103 -0.000423517 0.000817951)
(-0.000320814 -0.000526228 0.00042696)
(-0.000191995 -0.000491289 -1.1233e-05)
(-3.4747e-05 -0.000264809 -0.000413508)
(0.000110046 0.000148059 -0.000663746)
(1.38425e-05 0.000808396 -9.19296e-05)
(-2.97722e-05 0.00125365 -0.000181776)
(-8.27138e-05 0.0015721 -0.000144459)
(-0.000115486 0.00174395 6.15817e-05)
(-0.000119582 0.0017859 0.000432966)
(-9.5157e-05 0.00173082 0.000933212)
(-4.60196e-05 0.00161668 0.00150728)
(1.79316e-05 0.00148211 0.0020825)
(8.61818e-05 0.00136993 0.0025563)
(0.00016635 0.00132194 0.00278055)
(0.00023204 0.00133734 0.00261752)
(0.000195897 0.00137634 0.0021229)
(0.000138682 0.00141683 0.00154099)
(7.5519e-05 0.00139795 0.00102042)
(1.27146e-05 0.00127741 0.00063745)
(-4.61253e-05 0.00103743 0.000416101)
(-9.04715e-05 0.000684711 0.000338012)
(-9.84032e-05 0.000253047 0.000355122)
(-5.01444e-05 -0.000186347 0.000410837)
(4.79787e-05 -0.000557726 0.000479079)
(0.000162029 -0.000809986 0.000568028)
(0.000254844 -0.000935343 0.000689766)
(0.00030602 -0.000954304 0.00085349)
(0.000311575 -0.000899217 0.00106435)
(0.000277449 -0.000804873 0.00132067)
(0.000213731 -0.00070388 0.00160759)
(0.000128331 -0.000627587 0.00188527)
(1.70591e-05 -0.000602642 0.00207449)
(-0.000108838 -0.000626614 0.00206495)
(-0.000184463 -0.000673835 0.00179606)
(-0.000211365 -0.000730866 0.00140435)
(-0.000208 -0.000747028 0.00100224)
(-0.000177831 -0.000670433 0.000655506)
(-0.000119453 -0.000469198 0.00039264)
(-4.45296e-05 -0.000134363 0.000203625)
(1.10717e-05 0.000313986 5.07031e-05)
(-9.50821e-05 0.000761839 -0.000196793)
(-8.06639e-05 0.0011593 -0.00013438)
(-8.011e-05 0.00140943 6.24282e-05)
(-7.35639e-05 0.00151806 0.000372449)
(-5.24773e-05 0.00151406 0.00077111)
(-1.62979e-05 0.00143374 0.00122292)
(3.15593e-05 0.0013151 0.00167978)
(8.52227e-05 0.00119311 0.00208184)
(0.000141468 0.0010971 0.00236141)
(0.000200353 0.00104683 0.0024521)
(0.000245512 0.00105445 0.00232276)
(0.000256194 0.00110759 0.00200999)
(0.000243784 0.00116421 0.00160678)
(0.000217534 0.00118584 0.00120157)
(0.000179288 0.00113552 0.000854324)
(0.000131997 0.000983272 0.000598374)
(8.602e-05 0.000712739 0.000448872)
(5.86306e-05 0.000332026 0.000414876)
(7.00264e-05 -8.26196e-05 0.000484125)
(0.000123919 -0.000428186 0.000617572)
(0.000197858 -0.00064521 0.000778763)
(0.000260712 -0.000737678 0.000948258)
(0.000290456 -0.000731302 0.00112157)
(0.000278095 -0.000660831 0.00129847)
(0.000225796 -0.000562969 0.00147618)
(0.000143077 -0.000468445 0.00164446)
(3.98624e-05 -0.000397408 0.00178266)
(-7.80548e-05 -0.00035853 0.00185793)
(-0.000196523 -0.00036183 0.00182835)
(-0.000289798 -0.000411658 0.00166866)
(-0.000348978 -0.000484442 0.00140509)
(-0.000373578 -0.000538401 0.00107981)
(-0.000358841 -0.000524662 0.000730937)
(-0.000304014 -0.000396753 0.000391398)
(-0.00022287 -0.000123718 9.51603e-05)
(-0.000143716 0.000291214 -0.00011466)
(-0.000109255 0.000699186 -0.000303766)
(-5.31132e-05 0.00104236 -9.47004e-05)
(-1.96365e-05 0.00122931 0.000256184)
(6.52085e-06 0.0012761 0.000672629)
(3.29112e-05 0.00122099 0.00110448)
(6.20415e-05 0.00110566 0.00151052)
(9.41718e-05 0.000970687 0.00184651)
(0.000130205 0.000850383 0.00206622)
(0.000170856 0.000766863 0.00214124)
(0.000235166 0.00073161 0.00210232)
(0.000296253 0.000751374 0.00202547)
(0.000340428 0.000816553 0.0018919)
(0.00035875 0.000901615 0.00166919)
(0.000348234 0.000977331 0.0013809)
(0.000308767 0.0010043 0.00106919)
(0.000246037 0.00093679 0.000781206)
(0.000175608 0.000739052 0.000569776)
(0.000121671 0.000413257 0.000489822)
(0.00010811 3.64772e-05 0.000569694)
(0.000139841 -0.000274589 0.00076497)
(0.000194955 -0.000457339 0.000996037)
(0.000243843 -0.000515505 0.0012153)
(0.000264241 -0.000478011 0.00140235)
(0.000243608 -0.000382771 0.00154844)
(0.000180676 -0.000268807 0.00164754)
(8.37283e-05 -0.000166365 0.00169189)
(-3.22795e-05 -9.06227e-05 0.00167621)
(-0.000165342 -4.85768e-05 0.00162618)
(-0.000292707 -5.90195e-05 0.00160605)
(-0.000401938 -0.000122614 0.00156352)
(-0.000479581 -0.000222558 0.00142285)
(-0.00051286 -0.000327757 0.00116689)
(-0.000491834 -0.000384954 0.000807387)
(-0.000419342 -0.000328933 0.000386195)
(-0.000312991 -0.000110405 -1.52547e-05)
(-0.000200155 0.000266081 -0.000280001)
(2.20238e-05 0.000756375 0.000543024)
(-4.3187e-05 0.00111467 0.000409002)
(-0.000100748 0.00138914 0.000371504)
(-0.000126056 0.00155893 0.000491685)
(-0.000118464 0.00163327 0.000779386)
(-8.20966e-05 0.00163579 0.001204)
(-2.1449e-05 0.00159422 0.00171431)
(5.4356e-05 0.00153551 0.00224578)
(0.000132735 0.00148859 0.00271319)
(0.000210867 0.00147935 0.00299998)
(0.000263715 0.00149874 0.002951)
(0.000236034 0.00150926 0.00253587)
(0.000159677 0.00150731 0.00200436)
(6.79119e-05 0.00144634 0.00152395)
(-1.67586e-05 0.00129181 0.00117939)
(-7.7985e-05 0.00103897 0.000997219)
(-0.000101681 0.000710076 0.000953433)
(-7.46594e-05 0.000348086 0.000987142)
(4.88481e-06 6.77099e-06 0.00102932)
(0.000114859 -0.000272198 0.00105136)
(0.000218496 -0.000464126 0.00107034)
(0.000286837 -0.000567286 0.00111125)
(0.000309465 -0.000598024 0.00119196)
(0.000289393 -0.000580794 0.00132087)
(0.000237378 -0.000541209 0.00149719)
(0.000167545 -0.000501993 0.00171076)
(9.15252e-05 -0.000482466 0.00193812)
(1.06715e-05 -0.000496314 0.00213293)
(-7.95401e-05 -0.000533682 0.00219313)
(-0.000160379 -0.000566188 0.0020325)
(-0.000168476 -0.000577939 0.00173697)
(-0.00013957 -0.000553131 0.00141784)
(-8.9215e-05 -0.000456113 0.0011452)
(-2.86412e-05 -0.000267102 0.000947495)
(2.74096e-05 1.47333e-05 0.000810666)
(5.14433e-05 0.00037017 0.00068839)
(-0.000240695 0.000753787 0.000403791)
(-0.000229321 0.00108251 0.000411943)
(-0.00021254 0.00129852 0.000536149)
(-0.000176578 0.00140399 0.000771635)
(-0.000120228 0.00142568 0.00110253)
(-4.82614e-05 0.00139464 0.0014988)
(3.2319e-05 0.00133952 0.00191637)
(0.000112849 0.0012833 0.00229954)
(0.000186409 0.0012424 0.00258589)
(0.000251622 0.00122687 0.00271424)
(0.000296432 0.00123899 0.00263863)
(0.000311438 0.0012683 0.00237335)
(0.000297141 0.00128684 0.00201161)
(0.000269887 0.00126583 0.00164693)
(0.000239 0.00118027 0.00134247)
(0.000210927 0.0010128 0.00113184)
(0.000192324 0.000756943 0.00102483)
(0.000192036 0.000429065 0.00101471)
(0.000218877 8.95141e-05 0.00107105)
(0.00026863 -0.000188496 0.00115616)
(0.000319828 -0.000363684 0.0012488)
(0.000347403 -0.000441223 0.00134308)
(0.000336958 -0.000446707 0.00144197)
(0.000286209 -0.000411364 0.00154916)
(0.000202909 -0.000364744 0.00166453)
(0.000101294 -0.000327998 0.00178226)
(-5.12963e-06 -0.000310053 0.00189058)
(-0.000111855 -0.000310328 0.00196982)
(-0.000218386 -0.000323048 0.00198288)
(-0.000310667 -0.000348425 0.00189405)
(-0.00036632 -0.000380729 0.00171146)
(-0.000390659 -0.000391688 0.00146817)
(-0.000386457 -0.000347606 0.00119748)
(-0.000356871 -0.00021597 0.000927701)
(-0.000311004 2.57433e-05 0.000685551)
(-0.000266748 0.000370626 0.000501827)
(-0.000421485 0.000735393 0.000264149)
(-0.000346178 0.00102402 0.000412921)
(-0.000272178 0.00118073 0.000695705)
(-0.000191859 0.00122124 0.00104832)
(-0.000104024 0.00118522 0.00142757)
(-1.32407e-05 0.00111158 0.00179785)
(7.37072e-05 0.00103194 0.00211868)
(0.000151789 0.000967906 0.0023436)
(0.000219647 0.000929138 0.0024364)
(0.000288624 0.000918258 0.00240791)
(0.000356827 0.000943958 0.00233326)
(0.000411199 0.000993462 0.00221443)
(0.000446177 0.00104499 0.00202307)
(0.000462037 0.00107879 0.001776)
(0.000458944 0.00107022 0.00151214)
(0.000437511 0.000987099 0.00127594)
(0.000403939 0.000800493 0.00111201)
(0.000372723 0.000512729 0.00105867)
(0.000360257 0.000187607 0.00112796)
(0.000371456 -7.92664e-05 0.00127759)
(0.00039006 -0.000233292 0.00144314)
(0.000390422 -0.000281387 0.00159201)
(0.000355936 -0.000256181 0.00171259)
(0.000281329 -0.000194727 0.00180154)
(0.000172164 -0.00012989 0.00185747)
(4.22575e-05 -8.17118e-05 0.00187685)
(-9.2697e-05 -5.27011e-05 0.00185548)
(-0.000221832 -3.67491e-05 0.00180733)
(-0.000354056 -5.06202e-05 0.00179262)
(-0.000470416 -9.34738e-05 0.00178498)
(-0.00056187 -0.000154586 0.00171112)
(-0.000622536 -0.000212216 0.0015364)
(-0.000644479 -0.000229118 0.00126053)
(-0.000625797 -0.000156486 0.000914699)
(-0.000573294 4.56754e-05 0.00056666)
(-0.000500534 0.000370883 0.000317723)
(4.77447e-05 0.000702878 0.00125453)
(-2.68126e-05 0.000965477 0.0010935)
(-8.17265e-05 0.00118234 0.000987635)