time Vm
0.0000100 -84.0000000
0.0000200 -84.0000000
0.0000300 -84.0000000
0.0000400 -84.0000000
0.0000500 -84.0000000
0.0000600 -84.0000000
0.0000700 -84.0000000
0.0000800 -84.0000000
0.0000900 -84.0000000
0.0001000 -84.0000000
0.0001100 -84.0000000
0.0001200 -84.0000000
0.0001300 -84.0000000
0.0001400 -84.0000000
0.0001500 -84.0000000
0.0001600 -84.0000000
0.0001700 -84.0000000
0.0001800 -84.0000000
0.0001900 -84.0000000
0.0002000 -84.0000000
0.0002100 -84.0000000
0.0002200 -84.0000000
0.0002300 -84.0000000
0.0002400 -84.0000000
0.0002500 -84.0000000
0.0002600 -84.0000000
0.0002700 -84.0000000
0.0002800 -84.0000000
0.0002900 -84.0000000
0.0003000 -84.0000000
0.0003100 -84.0000000
0.0003200 -84.0000000
0.0003300 -84.0000000
0.0003400 -84.0000000
0.0003500 -84.0000000
0.0003600 -84.0000000
0.0003700 -84.0000000
0.0003800 -84.0000000
0.0003900 -84.0000000
0.0004000 -84.0000000
0.0004100 -84.0000000
0.0004200 -84.0000000
0.0004300 -84.0000000
0.0004400 -84.0000000
0.0004500 -84.0000000
0.0004600 -84.0000000
0.0004700 -84.0000000
0.0004800 -84.0000000
0.0004900 -84.0000000
0.0005000 -84.0000000
0.0005100 -84.0000000
0.0005200 -84.0000000
0.0005300 -84.0000000
0.0005400 -84.0000000
0.0005500 -84.0000000
0.0005600 -84.0000000
0.0005700 -84.0000000
0.0005800 -84.0000000
0.0005900 -84.0000000
0.0006000 -84.0000000
0.0006100 -84.0000000
0.0006200 -84.0000000
0.0006300 -84.0000000
0.0006400 -84.0000000
0.0006500 -84.0000000
0.0006600 -84.0000000
0.0006700 -84.0000000
0.0006800 -84.0000000
0.0006900 -84.0000000
0.0007000 -84.0000000
0.0007100 -84.0000000
0.0007200 -84.0000000
0.0007300 -84.0000000
0.0007400 -84.0000000
0.0007500 -84.0000000
0.0007600 -84.0000000
0.0007700 -84.0000000
0.0007800 -84.0000000
0.0007900 -84.0000000
0.0008000 -84.0000000
0.0008100 -84.0000000
0.0008200 -84.0000000
0.0008300 -84.0000000
0.0008400 -84.0000000
0.0008500 -84.0000000
0.0008600 -84.0000000
0.0008700 -84.0000000
0.0008800 -84.0000000
0.0008900 -84.0000000
0.0009000 -84.0000000
0.0009100 -84.0000000
0.0009200 -84.0000000
0.0009300 -84.0000000
0.0009400 -84.0000000
0.0009500 -84.0000000
0.0009600 -84.0000000
0.0009700 -84.0000000
0.0009800 -84.0000000
0.0009900 -84.0000000
0.0010000 -84.0000000
0.0010100 -84.0000000
0.0010200 -84.0000000
0.0010300 -84.0000000
0.0010400 -84.0000000
0.0010500 -84.0000000
0.0010600 -84.0000000
0.0010700 -84.0000000
0.0010800 -84.0000000
0.0010900 -84.0000000
0.0011000 -84.0000000
0.0011100 -84.0000000
0.0011200 -84.0000000
0.0011300 -84.0000000
0.0011400 -84.0000000
0.0011500 -84.0000000
0.0011600 -84.0000000
0.0011700 -84.0000000
0.0011800 -84.0000000
0.0011900 -84.0000000
0.0012000 -84.0000000
0.0012100 -84.0000000
0.0012200 -84.0000000
0.0012300 -84.0000000
0.0012400 -84.0000000
0.0012500 -84.0000000
0.0012600 -84.0000000
0.0012700 -84.0000000
0.0012800 -84.0000000
0.0012900 -84.0000000
0.0013000 -84.0000000
0.0013100 -84.0000000
0.0013200 -84.0000000
0.0013300 -84.0000000
0.0013400 -84.0000000
0.0013500 -84.0000000
0.0013600 -84.0000000
0.0013700 -84.0000000
0.0013800 -84.0000000
0.0013900 -84.0000000
0.0014000 -84.0000000
0.0014100 -84.0000000
0.0014200 -84.0000000
0.0014300 -84.0000000
0.0014400 -84.0000000
0.0014500 -84.0000000
0.0014600 -84.0000000
0.0014700 -84.0000000
0.0014800 -84.0000000
0.0014900 -84.0000000
0.0015000 -84.0000000
0.0015100 -84.0000000
0.0015200 -84.0000000
0.0015300 -84.0000000
0.0015400 -84.0000000
0.0015500 -84.0000000
0.0015600 -84.0000000
0.0015700 -84.0000000
0.0015800 -84.0000000
0.0015900 -84.0000000
0.0016000 -84.0000000
0.0016100 -84.0000000
0.0016200 -84.0000000
0.0016300 -84.0000000
0.0016400 -84.0000000
0.0016500 -84.0000000
0.0016600 -84.0000000
0.0016700 -84.0000000
0.0016800 -84.0000000
0.0016900 -84.0000000
0.0017000 -84.0000000
0.0017100 -84.0000000
0.0017200 -84.0000000
0.0017300 -84.0000000
0.0017400 -84.0000000
0.0017500 -84.0000000
0.0017600 -84.0000000
0.0017700 -84.0000000
0.0017800 -84.0000000
0.0017900 -84.0000000
0.0018000 -84.0000000
0.0018100 -84.0000000
0.0018200 -84.0000000
0.0018300 -84.0000000
0.0018400 -84.0000000
0.0018500 -84.0000000
0.0018600 -84.0000000
0.0018700 -84.0000000
0.0018800 -84.0000000
0.0018900 -84.0000000
0.0019000 -84.0000000
0.0019100 -84.0000000
0.0019200 -84.0000000
0.0019300 -84.0000000
0.0019400 -84.0000000
0.0019500 -84.0000000
0.0019600 -84.0000000
0.0019700 -84.0000000
0.0019800 -84.0000000
0.0019900 -84.0000000
0.0020000 -84.0000000
0.0020100 -84.0000000
0.0020200 -84.0000000
0.0020300 -84.0000000
0.0020400 -84.0000000
0.0020500 -84.0000000
0.0020600 -84.0000000
0.0020700 -84.0000000
0.0020800 -84.0000000
0.0020900 -84.0000000
0.0021000 -84.0000000
0.0021100 -84.0000000
0.0021200 -84.0000000
0.0021300 -84.0000000
0.0021400 -84.0000000
0.0021500 -84.0000000
0.0021600 -84.0000000
0.0021700 -84.0000000
0.0021800 -84.0000000
0.0021900 -84.0000000
0.0022000 -84.0000000
0.0022100 -84.0000000
0.0022200 -84.0000000
0.0022300 -84.0000000
0.0022400 -84.0000000
0.0022500 -84.0000000
0.0022600 -84.0000000
0.0022700 -84.0000000
0.0022800 -84.0000000
0.0022900 -84.0000000
0.0023000 -84.0000000
0.0023100 -84.0000000
0.0023200 -84.0000000
0.0023300 -84.0000000
0.0023400 -84.0000000
0.0023500 -84.0000000
0.0023600 -84.0000000
0.0023700 -84.0000000
0.0023800 -84.0000000
0.0023900 -84.0000000
0.0024000 -84.0000000
0.0024100 -84.0000000
0.0024200 -84.0000000
0.0024300 -84.0000000
0.0024400 -84.0000000
0.0024500 -84.0000000
0.0024600 -84.0000000
0.0024700 -84.0000000
0.0024800 -84.0000000
0.0024900 -84.0000000
0.0025000 -84.0000000
0.0025100 -84.0000000
0.0025200 -84.0000000
0.0025300 -84.0000000
0.0025400 -84.0000000
0.0025500 -84.0000000
0.0025600 -84.0000000
0.0025700 -84.0000000
0.0025800 -84.0000000
0.0025900 -84.0000000
0.0026000 -84.0000000
0.0026100 -84.0000000
0.0026200 -84.0000000
0.0026300 -84.0000000
0.0026400 -84.0000000
0.0026500 -84.0000000
0.0026600 -84.0000000
0.0026700 -84.0000000
0.0026800 -84.0000000
0.0026900 -84.0000000
0.0027000 -84.0000000
0.0027100 -84.0000000
0.0027200 -84.0000000
0.0027300 -84.0000000
0.0027400 -84.0000000
0.0027500 -84.0000000
0.0027600 -84.0000000
0.0027700 -84.0000000
0.0027800 -84.0000000
0.0027900 -84.0000000
0.0028000 -84.0000000
0.0028100 -84.0000000
0.0028200 -84.0000000
0.0028300 -84.0000000
0.0028400 -84.0000000
0.0028500 -84.0000000
0.0028600 -84.0000000
0.0028700 -84.0000000
0.0028800 -84.0000000
0.0028900 -84.0000000
0.0029000 -84.0000000
0.0029100 -84.0000000
0.0029200 -84.0000000
0.0029300 -84.0000000
0.0029400 -84.0000000
0.0029500 -84.0000000
0.0029600 -84.0000000
0.0029700 -84.0000000
0.0029800 -84.0000000
0.0029900 -84.0000000
0.0030000 -84.0000000
0.0030100 -84.0000000
0.0030200 -84.0000000
0.0030300 -84.0000000
0.0030400 -84.0000000
0.0030500 -84.0000000
0.0030600 -84.0000000
0.0030700 -84.0000000
0.0030800 -84.0000000
0.0030900 -84.0000000
0.0031000 -84.0000000
0.0031100 -84.0000000
0.0031200 -84.0000000
0.0031300 -84.0000000
0.0031400 -84.0000000
0.0031500 -84.0000000
0.0031600 -84.0000000
0.0031700 -84.0000000
0.0031800 -84.0000000
0.0031900 -84.0000000
0.0032000 -84.0000000
0.0032100 -84.0000000
0.0032200 -84.0000000
0.0032300 -84.0000000
0.0032400 -84.0000000
0.0032500 -84.0000000
0.0032600 -84.0000000
0.0032700 -84.0000000
0.0032800 -84.0000000
0.0032900 -84.0000000
0.0033000 -84.0000000
0.0033100 -84.0000000
0.0033200 -84.0000000
0.0033300 -84.0000000
0.0033400 -84.0000000
0.0033500 -84.0000000
0.0033600 -84.0000000
0.0033700 -84.0000000
0.0033800 -84.0000000
0.0033900 -84.0000000
0.0034000 -84.0000000
0.0034100 -84.0000000
0.0034200 -84.0000000
0.0034300 -84.0000000
0.0034400 -84.0000000
0.0034500 -84.0000000
0.0034600 -84.0000000
0.0034700 -84.0000000
0.0034800 -84.0000000
0.0034900 -84.0000000
0.0035000 -84.0000000
0.0035100 -84.0000000
0.0035200 -84.0000000
0.0035300 -84.0000000
0.0035400 -84.0000000
0.0035500 -84.0000000
0.0035600 -84.0000000
0.0035700 -84.0000000
0.0035800 -84.0000000
0.0035900 -84.0000000
0.0036000 -84.0000000
0.0036100 -84.0000000
0.0036200 -84.0000000
0.0036300 -84.0000000
0.0036400 -84.0000000
0.0036500 -84.0000000
0.0036600 -84.0000000
0.0036700 -84.0000000
0.0036800 -84.0000000
0.0036900 -84.0000000
0.0037000 -84.0000000
0.0037100 -84.0000000
0.0037200 -84.0000000
0.0037300 -84.0000000
0.0037400 -84.0000000
0.0037500 -84.0000000
0.0037600 -84.0000000
0.0037700 -84.0000000
0.0037800 -84.0000000
0.0037900 -84.0000000
0.0038000 -84.0000000
0.0038100 -84.0000000
0.0038200 -84.0000000
0.0038300 -84.0000000
0.0038400 -84.0000000
0.0038500 -84.0000000
0.0038600 -84.0000000
0.0038700 -84.0000000
0.0038800 -84.0000000
0.0038900 -84.0000000
0.0039000 -84.0000000
0.0039100 -84.0000000
0.0039200 -84.0000000
0.0039300 -84.0000000
0.0039400 -84.0000000
0.0039500 -84.0000000
0.0039600 -84.0000000
0.0039700 -84.0000000
0.0039800 -84.0000000
0.0039900 -84.0000000
0.0040000 -84.0000000
0.0040100 -84.0000000
0.0040200 -84.0000000
0.0040300 -84.0000000
0.0040400 -84.0000000
0.0040500 -84.0000000
0.0040600 -84.0000000
0.0040700 -84.0000000
0.0040800 -84.0000000
0.0040900 -84.0000000
0.0041000 -84.0000000
0.0041100 -84.0000000
0.0041200 -84.0000000
0.0041300 -84.0000000
0.0041400 -84.0000000
0.0041500 -84.0000000
0.0041600 -84.0000000
0.0041700 -84.0000000
0.0041800 -84.0000000
0.0041900 -84.0000000
0.0042000 -84.0000000
0.0042100 -84.0000000
0.0042200 -84.0000000
0.0042300 -84.0000000
0.0042400 -84.0000000
0.0042500 -84.0000000
0.0042600 -84.0000000
0.0042700 -84.0000000
0.0042800 -84.0000000
0.0042900 -84.0000000
0.0043000 -84.0000000
0.0043100 -84.0000000
0.0043200 -84.0000000
0.0043300 -84.0000000
0.0043400 -84.0000000
0.0043500 -84.0000000
0.0043600 -84.0000000
0.0043700 -84.0000000
0.0043800 -84.0000000
0.0043900 -84.0000000
0.0044000 -84.0000000
0.0044100 -84.0000000
0.0044200 -84.0000000
0.0044300 -84.0000000
0.0044400 -84.0000000
0.0044500 -84.0000000
0.0044600 -84.0000000
0.0044700 -84.0000000
0.0044800 -84.0000000
0.0044900 -84.0000000
0.0045000 -84.0000000
0.0045100 -84.0000000
0.0045200 -84.0000000
0.0045300 -84.0000000
0.0045400 -84.0000000
0.0045500 -84.0000000
0.0045600 -84.0000000
0.0045700 -84.0000000
0.0045800 -84.0000000
0.0045900 -84.0000000
0.0046000 -84.0000000
0.0046100 -84.0000000
0.0046200 -84.0000000
0.0046300 -84.0000000
0.0046400 -84.0000000
0.0046500 -84.0000000
0.0046600 -84.0000000
0.0046700 -84.0000000
0.0046800 -84.0000000
0.0046900 -84.0000000
0.0047000 -84.0000000
0.0047100 -84.0000000
0.0047200 -84.0000000
0.0047300 -84.0000000
0.0047400 -84.0000000
0.0047500 -84.0000000
0.0047600 -84.0000000
0.0047700 -84.0000000
0.0047800 -84.0000000
0.0047900 -84.0000000
0.0048000 -84.0000000
0.0048100 -84.0000000
0.0048200 -84.0000000
0.0048300 -84.0000000
0.0048400 -84.0000000
0.0048500 -84.0000000
0.0048600 -84.0000000
0.0048700 -84.0000000
0.0048800 -84.0000000
0.0048900 -84.0000000
0.0049000 -84.0000000
0.0049100 -84.0000000
0.0049200 -84.0000000
0.0049300 -84.0000000
0.0049400 -84.0000000
0.0049500 -84.0000000
0.0049600 -84.0000000
0.0049700 -84.0000000
0.0049800 -84.0000000
0.0049900 -84.0000000
0.0050000 -84.0000000
0.0050100 -84.0000000
0.0050200 -84.0000000
0.0050300 -84.0000000
0.0050400 -84.0000000
0.0050500 -84.0000000
0.0050600 -84.0000000
0.0050700 -84.0000000
0.0050800 -84.0000000
0.0050900 -84.0000000
0.0051000 -84.0000000
0.0051100 -84.0000000
0.0051200 -84.0000000
0.0051300 -84.0000000
0.0051400 -84.0000000
0.0051500 -84.0000000
0.0051600 -84.0000000
0.0051700 -84.0000000
0.0051800 -84.0000000
0.0051900 -84.0000000
0.0052000 -84.0000000
0.0052100 -84.0000000
0.0052200 -84.0000000
0.0052300 -84.0000000
0.0052400 -84.0000000
0.0052500 -84.0000000
0.0052600 -84.0000000
0.0052700 -84.0000000
0.0052800 -84.0000000
0.0052900 -84.0000000
0.0053000 -84.0000000
0.0053100 -84.0000000
0.0053200 -84.0000000
0.0053300 -84.0000000
0.0053400 -84.0000000
0.0053500 -84.0000000
0.0053600 -84.0000000
0.0053700 -84.0000000
0.0053800 -84.0000000
0.0053900 -84.0000000
0.0054000 -84.0000000
0.0054100 -84.0000000
0.0054200 -84.0000000
0.0054300 -84.0000000
0.0054400 -84.0000000
0.0054500 -84.0000000
0.0054600 -84.0000000
0.0054700 -84.0000000
0.0054800 -84.0000000
0.0054900 -84.0000000
0.0055000 -84.0000000
0.0055100 -84.0000000
0.0055200 -84.0000000
0.0055300 -84.0000000
0.0055400 -84.0000000
0.0055500 -84.0000000
0.0055600 -84.0000000
0.0055700 -84.0000000
0.0055800 -84.0000000
0.0055900 -84.0000000
0.0056000 -84.0000000
0.0056100 -84.0000000
0.0056200 -84.0000000
0.0056300 -84.0000000
0.0056400 -84.0000000
0.0056500 -84.0000000
0.0056600 -84.0000000
0.0056700 -84.0000000
0.0056800 -84.0000000
0.0056900 -84.0000000
0.0057000 -84.0000000
0.0057100 -84.0000000
0.0057200 -84.0000000
0.0057300 -84.0000000
0.0057400 -84.0000000
0.0057500 -84.0000000
0.0057600 -84.0000000
0.0057700 -84.0000000
0.0057800 -84.0000000
0.0057900 -84.0000000
0.0058000 -84.0000000
0.0058100 -84.0000000
0.0058200 -84.0000000
0.0058300 -84.0000000
0.0058400 -84.0000000
0.0058500 -84.0000000
0.0058600 -84.0000000
0.0058700 -84.0000000
0.0058800 -84.0000000
0.0058900 -84.0000000
0.0059000 -84.0000000
0.0059100 -84.0000000
0.0059200 -84.0000000
0.0059300 -84.0000000
0.0059400 -84.0000000
0.0059500 -84.0000000
0.0059600 -84.0000000
0.0059700 -84.0000000
0.0059800 -84.0000000
0.0059900 -84.0000000
0.0060000 -84.0000000
0.0060100 -84.0000000
0.0060200 -84.0000000
0.0060300 -84.0000000
0.0060400 -84.0000000
0.0060500 -84.0000000
0.0060600 -84.0000000
0.0060700 -84.0000000
0.0060800 -84.0000000
0.0060900 -84.0000000
0.0061000 -84.0000000
0.0061100 -84.0000000
0.0061200 -84.0000000
0.0061300 -84.0000000
0.0061400 -84.0000000
0.0061500 -84.0000000
0.0061600 -84.0000000
0.0061700 -84.0000000
0.0061800 -84.0000000
0.0061900 -84.0000000
0.0062000 -84.0000000
0.0062100 -84.0000000
0.0062200 -84.0000000
0.0062300 -84.0000000
0.0062400 -84.0000000
0.0062500 -84.0000000
0.0062600 -84.0000000
0.0062700 -84.0000000
0.0062800 -84.0000000
0.0062900 -84.0000000
0.0063000 -84.0000000
0.0063100 -84.0000000
0.0063200 -84.0000000
0.0063300 -84.0000000
0.0063400 -84.0000000
0.0063500 -84.0000000
0.0063600 -84.0000000
0.0063700 -84.0000000
0.0063800 -84.0000000
0.0063900 -84.0000000
0.0064000 -84.0000000
0.0064100 -84.0000000
0.0064200 -84.0000000
0.0064300 -84.0000000
0.0064400 -84.0000000
0.0064500 -84.0000000
0.0064600 -84.0000000
0.0064700 -84.0000000
0.0064800 -84.0000000
0.0064900 -84.0000000
0.0065000 -84.0000000
0.0065100 -84.0000000
0.0065200 -84.0000000
0.0065300 -84.0000000
0.0065400 -84.0000000
0.0065500 -84.0000000
0.0065600 -84.0000000
0.0065700 -84.0000000
0.0065800 -84.0000000
0.0065900 -84.0000000
0.0066000 -84.0000000
0.0066100 -84.0000000
0.0066200 -84.0000000
0.0066300 -84.0000000
0.0066400 -84.0000000
0.0066500 -84.0000000
0.0066600 -84.0000000
0.0066700 -84.0000000
0.0066800 -84.0000000
0.0066900 -84.0000000
0.0067000 -84.0000000
0.0067100 -84.0000000
0.0067200 -84.0000000
0.0067300 -84.0000000
0.0067400 -84.0000000
0.0067500 -84.0000000
0.0067600 -84.0000000
0.0067700 -84.0000000
0.0067800 -84.0000000
0.0067900 -84.0000000
0.0068000 -84.0000000
0.0068100 -84.0000000
0.0068200 -84.0000000
0.0068300 -84.0000000
0.0068400 -84.0000000
0.0068500 -84.0000000
0.0068600 -84.0000000
0.0068700 -84.0000000
0.0068800 -84.0000000
0.0068900 -84.0000000
0.0069000 -84.0000000
0.0069100 -84.0000000
0.0069200 -84.0000000
0.0069300 -84.0000000
0.0069400 -84.0000000
0.0069500 -84.0000000
0.0069600 -84.0000000
0.0069700 -84.0000000
0.0069800 -84.0000000
0.0069900 -84.0000000
0.0070000 -84.0000000
0.0070100 -84.0000000
0.0070200 -84.0000000
0.0070300 -84.0000000
0.0070400 -84.0000000
0.0070500 -84.0000000
0.0070600 -84.0000000
0.0070700 -84.0000000
0.0070800 -84.0000000
0.0070900 -84.0000000
0.0071000 -84.0000000
0.0071100 -84.0000000
0.0071200 -84.0000000
0.0071300 -84.0000000
0.0071400 -84.0000000
0.0071500 -84.0000000
0.0071600 -84.0000000
0.0071700 -84.0000000
0.0071800 -84.0000000
0.0071900 -84.0000000
0.0072000 -84.0000000
0.0072100 -84.0000000
0.0072200 -84.0000000
0.0072300 -84.0000000
0.0072400 -84.0000000
0.0072500 -84.0000000
0.0072600 -84.0000000
0.0072700 -84.0000000
0.0072800 -84.0000000
0.0072900 -84.0000000
0.0073000 -84.0000000
0.0073100 -84.0000000
0.0073200 -84.0000000
0.0073300 -84.0000000
0.0073400 -84.0000000
0.0073500 -84.0000000
0.0073600 -84.0000000
0.0073700 -84.0000000
0.0073800 -84.0000000
0.0073900 -84.0000000
0.0074000 -84.0000000
0.0074100 -84.0000000
0.0074200 -84.0000000
0.0074300 -84.0000000
0.0074400 -84.0000000
0.0074500 -84.0000000
0.0074600 -84.0000000
0.0074700 -84.0000000
0.0074800 -84.0000000
0.0074900 -84.0000000
0.0075000 -84.0000000
0.0075100 -84.0000000
0.0075200 -84.0000000
0.0075300 -84.0000000
0.0075400 -84.0000000
0.0075500 -84.0000000
0.0075600 -84.0000000
0.0075700 -84.0000000
0.0075800 -84.0000000
0.0075900 -84.0000000
0.0076000 -84.0000000
0.0076100 -84.0000000
0.0076200 -84.0000000
0.0076300 -84.0000000
0.0076400 -84.0000000
0.0076500 -84.0000000
0.0076600 -84.0000000
0.0076700 -84.0000000
0.0076800 -84.0000000
0.0076900 -84.0000000
0.0077000 -84.0000000
0.0077100 -84.0000000
0.0077200 -84.0000000
0.0077300 -84.0000000
0.0077400 -84.0000000
0.0077500 -84.0000000
0.0077600 -84.0000000
0.0077700 -84.0000000
0.0077800 -84.0000000
0.0077900 -84.0000000
0.0078000 -84.0000000
0.0078100 -84.0000000
0.0078200 -84.0000000
0.0078300 -84.0000000
0.0078400 -84.0000000
0.0078500 -84.0000000
0.0078600 -84.0000000
0.0078700 -84.0000000
0.0078800 -84.0000000
0.0078900 -84.0000000
0.0079000 -84.0000000
0.0079100 -84.0000000
0.0079200 -84.0000000
0.0079300 -84.0000000
0.0079400 -84.0000000
0.0079500 -84.0000000
0.0079600 -84.0000000
0.0079700 -84.0000000
0.0079800 -84.0000000
0.0079900 -84.0000000
0.0080000 -84.0000000
0.0080100 -84.0000000
0.0080200 -84.0000000
0.0080300 -84.0000000
0.0080400 -84.0000000
0.0080500 -84.0000000
0.0080600 -84.0000000
0.0080700 -84.0000000
0.0080800 -84.0000000
0.0080900 -84.0000000
0.0081000 -84.0000000
0.0081100 -84.0000000
0.0081200 -84.0000000
0.0081300 -84.0000000
0.0081400 -84.0000000
0.0081500 -84.0000000
0.0081600 -84.0000000
0.0081700 -84.0000000
0.0081800 -84.0000000
0.0081900 -84.0000000
0.0082000 -84.0000000
0.0082100 -84.0000000
0.0082200 -84.0000000
0.0082300 -84.0000000
0.0082400 -84.0000000
0.0082500 -84.0000000
0.0082600 -84.0000000
0.0082700 -84.0000000
0.0082800 -84.0000000
0.0082900 -84.0000000
0.0083000 -84.0000000
0.0083100 -84.0000000
0.0083200 -84.0000000
0.0083300 -84.0000000
0.0083400 -84.0000000
0.0083500 -84.0000000
0.0083600 -84.0000000
0.0083700 -84.0000000
0.0083800 -84.0000000
0.0083900 -84.0000000
0.0084000 -84.0000000
0.0084100 -84.0000000
0.0084200 -84.0000000
0.0084300 -84.0000000
0.0084400 -84.0000000
0.0084500 -84.0000000
0.0084600 -84.0000000
0.0084700 -84.0000000
0.0084800 -84.0000000
0.0084900 -84.0000000
0.0085000 -84.0000000
0.0085100 -84.0000000
0.0085200 -84.0000000
0.0085300 -84.0000000
0.0085400 -84.0000000
0.0085500 -84.0000000
0.0085600 -84.0000000
0.0085700 -84.0000000
0.0085800 -84.0000000
0.0085900 -84.0000000
0.0086000 -84.0000000
0.0086100 -84.0000000
0.0086200 -84.0000000
0.0086300 -84.0000000
0.0086400 -84.0000000
0.0086500 -84.0000000
0.0086600 -84.0000000
0.0086700 -84.0000000
0.0086800 -84.0000000
0.0086900 -84.0000000
0.0087000 -84.0000000
0.0087100 -84.0000000
0.0087200 -84.0000000
0.0087300 -84.0000000
0.0087400 -84.0000000
0.0087500 -84.0000000
0.0087600 -84.0000000
0.0087700 -84.0000000
0.0087800 -84.0000000
0.0087900 -84.0000000
0.0088000 -84.0000000
0.0088100 -84.0000000
0.0088200 -84.0000000
0.0088300 -84.0000000
0.0088400 -84.0000000
0.0088500 -84.0000000
0.0088600 -84.0000000
0.0088700 -84.0000000
0.0088800 -84.0000000
0.0088900 -84.0000000
0.0089000 -84.0000000
0.0089100 -84.0000000
0.0089200 -84.0000000
0.0089300 -84.0000000
0.0089400 -84.0000000
0.0089500 -84.0000000
0.0089600 -84.0000000
0.0089700 -84.0000000
0.0089800 -84.0000000
0.0089900 -84.0000000
0.0090000 -84.0000000
0.0090100 -84.0000000
0.0090200 -84.0000000
0.0090300 -84.0000000
0.0090400 -84.0000000
0.0090500 -84.0000000
0.0090600 -84.0000000
0.0090700 -84.0000000
0.0090800 -84.0000000
0.0090900 -84.0000000
0.0091000 -84.0000000
0.0091100 -84.0000000
0.0091200 -84.0000000
0.0091300 -84.0000000
0.0091400 -84.0000000
0.0091500 -84.0000000
0.0091600 -84.0000000
0.0091700 -84.0000000
0.0091800 -84.0000000
0.0091900 -84.0000000
0.0092000 -84.0000000
0.0092100 -84.0000000
0.0092200 -84.0000000
0.0092300 -84.0000000
0.0092400 -84.0000000
0.0092500 -84.0000000
0.0092600 -84.0000000
0.0092700 -84.0000000
0.0092800 -84.0000000
0.0092900 -84.0000000
0.0093000 -84.0000000
0.0093100 -84.0000000
0.0093200 -84.0000000
0.0093300 -84.0000000
0.0093400 -84.0000000
0.0093500 -84.0000000
0.0093600 -84.0000000
0.0093700 -84.0000000
0.0093800 -84.0000000
0.0093900 -84.0000000
0.0094000 -84.0000000
0.0094100 -84.0000000
0.0094200 -84.0000000
0.0094300 -84.0000000
0.0094400 -84.0000000
0.0094500 -84.0000000
0.0094600 -84.0000000
0.0094700 -84.0000000
0.0094800 -84.0000000
0.0094900 -84.0000000
0.0095000 -84.0000000
0.0095100 -84.0000000
0.0095200 -84.0000000
0.0095300 -84.0000000
0.0095400 -84.0000000
0.0095500 -84.0000000
0.0095600 -84.0000000
0.0095700 -84.0000000
0.0095800 -84.0000000
0.0095900 -84.0000000
0.0096000 -84.0000000
0.0096100 -84.0000000
0.0096200 -84.0000000
0.0096300 -84.0000000
0.0096400 -84.0000000
0.0096500 -84.0000000
0.0096600 -84.0000000
0.0096700 -84.0000000
0.0096800 -84.0000000
0.0096900 -84.0000000
0.0097000 -84.0000000
0.0097100 -84.0000000
0.0097200 -84.0000000
0.0097300 -84.0000000
0.0097400 -84.0000000
0.0097500 -84.0000000
0.0097600 -84.0000000
0.0097700 -84.0000000
0.0097800 -84.0000000
0.0097900 -84.0000000
0.0098000 -84.0000000
0.0098100 -84.0000000
0.0098200 -84.0000000
0.0098300 -84.0000000
0.0098400 -84.0000000
0.0098500 -84.0000000
0.0098600 -84.0000000
0.0098700 -84.0000000
0.0098800 -84.0000000
0.0098900 -84.0000000
0.0099000 -84.0000000
0.0099100 -84.0000000
0.0099200 -84.0000000
0.0099300 -84.0000000
0.0099400 -84.0000000
0.0099500 -84.0000000
0.0099600 -84.0000000
0.0099700 -84.0000000
0.0099800 -84.0000000
0.0099900 -84.0000000
0.0100000 -84.0000000
0.0100100 -84.0000000
0.0100200 -84.0000000
0.0100300 -84.0000000
0.0100400 -84.0000000
0.0100500 -84.0000000
0.0100600 -84.0000000
0.0100700 -84.0000000
0.0100800 -84.0000000
0.0100900 -84.0000000
0.0101000 -84.0000000
0.0101100 -84.0000000
0.0101200 -84.0000000
0.0101300 -84.0000000
0.0101400 -84.0000000
0.0101500 -84.0000000
0.0101600 -84.0000000
0.0101700 -84.0000000
0.0101800 -84.0000000
0.0101900 -84.0000000
0.0102000 -84.0000000
0.0102100 -84.0000000
0.0102200 -84.0000000
0.0102300 -84.0000000
0.0102400 -84.0000000
0.0102500 -84.0000000
0.0102600 -84.0000000
0.0102700 -84.0000000
0.0102800 -84.0000000
0.0102900 -84.0000000
0.0103000 -84.0000000
0.0103100 -84.0000000
0.0103200 -84.0000000
0.0103300 -84.0000000
0.0103400 -84.0000000
0.0103500 -84.0000000
0.0103600 -84.0000000
0.0103700 -84.0000000
0.0103800 -84.0000000
0.0103900 -84.0000000
0.0104000 -84.0000000
0.0104100 -84.0000000
0.0104200 -84.0000000
0.0104300 -84.0000000
0.0104400 -84.0000000
0.0104500 -84.0000000
0.0104600 -84.0000000
0.0104700 -84.0000000
0.0104800 -84.0000000
0.0104900 -84.0000000
0.0105000 -84.0000000
0.0105100 -84.0000000
0.0105200 -84.0000000
0.0105300 -84.0000000
0.0105400 -84.0000000
0.0105500 -84.0000000
0.0105600 -84.0000000
0.0105700 -84.0000000
0.0105800 -84.0000000
0.0105900 -84.0000000
0.0106000 -84.0000000
0.0106100 -84.0000000
0.0106200 -84.0000000
0.0106300 -84.0000000
0.0106400 -84.0000000
0.0106500 -84.0000000
0.0106600 -84.0000000
0.0106700 -84.0000000
0.0106800 -84.0000000
0.0106900 -84.0000000
0.0107000 -84.0000000
0.0107100 -84.0000000
0.0107200 -84.0000000
0.0107300 -84.0000000
0.0107400 -84.0000000
0.0107500 -84.0000000
0.0107600 -84.0000000
0.0107700 -84.0000000
0.0107800 -84.0000000
0.0107900 -84.0000000
0.0108000 -84.0000000
0.0108100 -84.0000000
0.0108200 -84.0000000
0.0108300 -84.0000000
0.0108400 -84.0000000
0.0108500 -84.0000000
0.0108600 -84.0000000
0.0108700 -84.0000000
0.0108800 -84.0000000
0.0108900 -84.0000000
0.0109000 -84.0000000
0.0109100 -84.0000000
0.0109200 -84.0000000
0.0109300 -84.0000000
0.0109400 -84.0000000
0.0109500 -84.0000000
0.0109600 -84.0000000
0.0109700 -84.0000000
0.0109800 -84.0000000
0.0109900 -84.0000000
0.0110000 -84.0000000
0.0110100 -84.0000000
0.0110200 -84.0000000
0.0110300 -84.0000000
0.0110400 -84.0000000
0.0110500 -84.0000000
0.0110600 -84.0000000
0.0110700 -84.0000000
0.0110800 -84.0000000
0.0110900 -84.0000000
0.0111000 -84.0000000
0.0111100 -84.0000000
0.0111200 -84.0000000
0.0111300 -84.0000000
0.0111400 -84.0000000
0.0111500 -84.0000000
0.0111600 -84.0000000
0.0111700 -84.0000000
0.0111800 -84.0000000
0.0111900 -84.0000000
0.0112000 -84.0000000
0.0112100 -84.0000000
0.0112200 -84.0000000
0.0112300 -84.0000000
0.0112400 -84.0000000
0.0112500 -84.0000000
0.0112600 -84.0000000
0.0112700 -84.0000000
0.0112800 -84.0000000
0.0112900 -84.0000000
0.0113000 -84.0000000
0.0113100 -84.0000000
0.0113200 -84.0000000
0.0113300 -84.0000000
0.0113400 -84.0000000
0.0113500 -84.0000000
0.0113600 -84.0000000
0.0113700 -84.0000000
0.0113800 -84.0000000
0.0113900 -84.0000000
0.0114000 -84.0000000
0.0114100 -84.0000000
0.0114200 -84.0000000
0.0114300 -84.0000000
0.0114400 -84.0000000
0.0114500 -84.0000000
0.0114600 -84.0000000
0.0114700 -84.0000000
0.0114800 -84.0000000
0.0114900 -84.0000000
0.0115000 -84.0000000
0.0115100 -84.0000000
0.0115200 -84.0000000
0.0115300 -84.0000000
0.0115400 -84.0000000
0.0115500 -84.0000000
0.0115600 -84.0000000
0.0115700 -84.0000000
0.0115800 -84.0000000
0.0115900 -84.0000000
0.0116000 -84.0000000
0.0116100 -84.0000000
0.0116200 -84.0000000
0.0116300 -84.0000000
0.0116400 -84.0000000
0.0116500 -84.0000000
0.0116600 -84.0000000
0.0116700 -84.0000000
0.0116800 -84.0000000
0.0116900 -84.0000000
0.0117000 -84.0000000
0.0117100 -84.0000000
0.0117200 -84.0000000
0.0117300 -84.0000000
0.0117400 -84.0000000
0.0117500 -84.0000000
0.0117600 -84.0000000
0.0117700 -84.0000000
0.0117800 -84.0000000
0.0117900 -84.0000000
0.0118000 -84.0000000
0.0118100 -84.0000000
0.0118200 -84.0000000
0.0118300 -84.0000000
0.0118400 -84.0000000
0.0118500 -84.0000000
0.0118600 -84.0000000
0.0118700 -84.0000000
0.0118800 -84.0000000
0.0118900 -84.0000000
0.0119000 -84.0000000
0.0119100 -84.0000000
0.0119200 -84.0000000
0.0119300 -84.0000000
0.0119400 -84.0000000
0.0119500 -84.0000000
0.0119600 -84.0000000
0.0119700 -84.0000000
0.0119800 -84.0000000
0.0119900 -84.0000000
0.0120000 -84.0000000
0.0120100 -84.0000000
0.0120200 -84.0000000
0.0120300 -84.0000000
0.0120400 -84.0000000
0.0120500 -84.0000000
0.0120600 -84.0000000
0.0120700 -84.0000000
0.0120800 -84.0000000
0.0120900 -84.0000000
0.0121000 -84.0000000
0.0121100 -84.0000000
0.0121200 -84.0000000
0.0121300 -84.0000000
0.0121400 -84.0000000
0.0121500 -84.0000000
0.0121600 -84.0000000
0.0121700 -84.0000000
0.0121800 -84.0000000
0.0121900 -84.0000000
0.0122000 -84.0000000
0.0122100 -84.0000000
0.0122200 -84.0000000
0.0122300 -84.0000000
0.0122400 -84.0000000
0.0122500 -84.0000000
0.0122600 -84.0000000
0.0122700 -84.0000000
0.0122800 -84.0000000
0.0122900 -84.0000000
0.0123000 -84.0000000
0.0123100 -84.0000000
0.0123200 -84.0000000
0.0123300 -84.0000000
0.0123400 -84.0000000
0.0123500 -84.0000000
0.0123600 -84.0000000
0.0123700 -84.0000000
0.0123800 -84.0000000
0.0123900 -84.0000000
0.0124000 -84.0000000
0.0124100 -84.0000000
0.0124200 -84.0000000
0.0124300 -84.0000000
0.0124400 -84.0000000
0.0124500 -84.0000000
0.0124600 -84.0000000
0.0124700 -84.0000000
0.0124800 -84.0000000
0.0124900 -84.0000000
0.0125000 -84.0000000
0.0125100 -84.0000000
0.0125200 -84.0000000
0.0125300 -84.0000000
0.0125400 -84.0000000
0.0125500 -84.0000000
0.0125600 -84.0000000
0.0125700 -84.0000000
0.0125800 -84.0000000
0.0125900 -84.0000000
0.0126000 -84.0000000
0.0126100 -84.0000000
0.0126200 -84.0000000
0.0126300 -84.0000000
0.0126400 -84.0000000
0.0126500 -84.0000000
0.0126600 -84.0000000
0.0126700 -84.0000000
0.0126800 -84.0000000
0.0126900 -84.0000000
0.0127000 -84.0000000
0.0127100 -84.0000000
0.0127200 -84.0000000
0.0127300 -84.0000000
0.0127400 -84.0000000
0.0127500 -84.0000000
0.0127600 -84.0000000
0.0127700 -84.0000000
0.0127800 -84.0000000
0.0127900 -84.0000000
0.0128000 -84.0000000
0.0128100 -84.0000000
0.0128200 -84.0000000
0.0128300 -84.0000000
0.0128400 -84.0000000
0.0128500 -84.0000000
0.0128600 -84.0000000
0.0128700 -84.0000000
0.0128800 -84.0000000
0.0128900 -84.0000000
0.0129000 -84.0000000
0.0129100 -84.0000000
0.0129200 -84.0000000
0.0129300 -84.0000000
0.0129400 -84.0000000
0.0129500 -84.0000000
0.0129600 -84.0000000
0.0129700 -84.0000000
0.0129800 -84.0000000
0.0129900 -84.0000000
0.0130000 -84.0000000
0.0130100 -84.0000000
0.0130200 -84.0000000
0.0130300 -84.0000000
0.0130400 -84.0000000
0.0130500 -84.0000000
0.0130600 -84.0000000
0.0130700 -84.0000000
0.0130800 -84.0000000
0.0130900 -84.0000000
0.0131000 -84.0000000
0.0131100 -84.0000000
0.0131200 -84.0000000
0.0131300 -84.0000000
0.0131400 -84.0000000
0.0131500 -84.0000000
0.0131600 -84.0000000
0.0131700 -84.0000000
0.0131800 -84.0000000
0.0131900 -84.0000000
0.0132000 -84.0000000
0.0132100 -84.0000000
0.0132200 -84.0000000
0.0132300 -84.0000000
0.0132400 -84.0000000
0.0132500 -84.0000000
0.0132600 -84.0000000
0.0132700 -84.0000000
0.0132800 -84.0000000
0.0132900 -84.0000000
0.0133000 -84.0000000
0.0133100 -84.0000000
0.0133200 -84.0000000
0.0133300 -84.0000000
0.0133400 -84.0000000
0.0133500 -84.0000000
0.0133600 -84.0000000
0.0133700 -84.0000000
0.0133800 -84.0000000
0.0133900 -84.0000000
0.0134000 -84.0000000
0.0134100 -84.0000000
0.0134200 -84.0000000
0.0134300 -84.0000000
0.0134400 -84.0000000
0.0134500 -84.0000000
0.0134600 -84.0000000
0.0134700 -84.0000000
0.0134800 -84.0000000
0.0134900 -84.0000000
0.0135000 -84.0000000
0.0135100 -84.0000000
0.0135200 -84.0000000
0.0135300 -84.0000000
0.0135400 -84.0000000
0.0135500 -84.0000000
0.0135600 -84.0000000
0.0135700 -84.0000000
0.0135800 -84.0000000
0.0135900 -84.0000000
0.0136000 -84.0000000
0.0136100 -84.0000000
0.0136200 -84.0000000
0.0136300 -84.0000000