/*--------------------------------*- C++ -*----------------------------------*\
| =========                 |                                                 |
| \\      /  F ield         | OpenFOAM: The Open Source CFD Toolbox           |
|  \\    /   O peration     | Version:  2312                                  |
|   \\  /    A nd           | Website:  www.openfoam.com                      |
|    \\/     M anipulation  |                                                 |
\*---------------------------------------------------------------------------*/
FoamFile
{
    version     2.0;
    format      ascii;
    arch        "LSB;label=32;scalar=64";
    class       volVectorField;
    location    "1";
    object      D;
}
// * * * * * * * * * * * * * * * * * * * * * * * * * * * * * * * * * * * * * //

dimensions      [0 1 0 0 0 0 0];

internalField   nonuniform List<vector> 
1620
(
(-0.000272828 0.000139483 -0.000196325)
(-0.000292904 8.99876e-05 -0.000196325)
(-0.000304081 3.77583e-05 -0.000196325)
(-0.000306018 -1.56174e-05 -0.000196325)
(-0.000298657 -6.85189e-05 -0.000196325)
(-0.000282221 -0.000119339 -0.000196325)
(-0.000257211 -0.000166534 -0.000196324)
(-0.000224385 -0.000208667 -0.000196324)
(-0.000184741 -0.000244462 -0.000196325)
(-0.000139483 -0.000272828 -0.000196325)
(-8.99875e-05 -0.000292904 -0.000196325)
(-3.77583e-05 -0.000304081 -0.000196325)
(1.56174e-05 -0.000306018 -0.000196325)
(6.85189e-05 -0.000298657 -0.000196325)
(0.000119339 -0.000282221 -0.000196325)
(0.000166534 -0.000257211 -0.000196324)
(0.000208667 -0.000224385 -0.000196324)
(0.000244462 -0.000184741 -0.000196325)
(0.000272828 -0.000139483 -0.000196325)
(0.000292904 -8.99875e-05 -0.000196325)
(0.000304081 -3.77583e-05 -0.000196325)
(0.000306018 1.56175e-05 -0.000196325)
(0.000298657 6.85189e-05 -0.000196325)
(0.000282221 0.000119339 -0.000196325)
(0.000257211 0.000166534 -0.000196324)
(0.000224385 0.000208667 -0.000196324)
(0.000184741 0.000244462 -0.000196325)
(0.000139483 0.000272828 -0.000196325)
(8.99876e-05 0.000292904 -0.000196325)
(3.77583e-05 0.000304081 -0.000196325)
(-1.56174e-05 0.000306018 -0.000196325)
(-6.85189e-05 0.000298657 -0.000196325)
(-0.000119339 0.000282221 -0.000196325)
(-0.000166534 0.000257211 -0.000196324)
(-0.000208667 0.000224385 -0.000196324)
(-0.000244462 0.000184741 -0.000196325)
(-0.000174331 0.000276063 -0.000136246)
(-0.00021962 0.000241597 -0.000136246)
(-0.000258236 0.000199789 -0.000136246)
(-0.000289006 0.000151912 -0.000136246)
(-0.000310996 9.94191e-05 -0.000136246)
(-0.000323534 4.39049e-05 -0.000136246)
(-0.000326243 -1.29432e-05 -0.000136246)
(-0.00031904 -6.9398e-05 -0.000136246)
(-0.000302142 -0.000123745 -0.000136246)
(-0.000276063 -0.000174331 -0.000136246)
(-0.000241597 -0.00021962 -0.000136246)
(-0.000199789 -0.000258236 -0.000136246)
(-0.000151912 -0.000289006 -0.000136246)
(-9.94191e-05 -0.000310996 -0.000136246)
(-4.39049e-05 -0.000323534 -0.000136246)
(1.29432e-05 -0.000326243 -0.000136246)
(6.9398e-05 -0.00031904 -0.000136246)
(0.000123745 -0.000302142 -0.000136246)
(0.000174331 -0.000276063 -0.000136246)
(0.00021962 -0.000241597 -0.000136246)
(0.000258236 -0.000199789 -0.000136246)
(0.000289006 -0.000151912 -0.000136246)
(0.000310996 -9.94191e-05 -0.000136246)
(0.000323534 -4.39049e-05 -0.000136246)
(0.000326243 1.29432e-05 -0.000136246)
(0.00031904 6.9398e-05 -0.000136246)
(0.000302142 0.000123745 -0.000136246)
(0.000276063 0.000174331 -0.000136246)
(0.000241597 0.00021962 -0.000136246)
(0.000199789 0.000258236 -0.000136246)
(0.000151912 0.000289006 -0.000136246)
(9.94191e-05 0.000310996 -0.000136246)
(4.39049e-05 0.000323535 -0.000136246)
(-1.29432e-05 0.000326243 -0.000136246)
(-6.9398e-05 0.00031904 -0.000136246)
(-0.000123745 0.000302142 -0.000136246)
(-0.000109238 0.000420116 -9.29606e-05)
(-0.000180531 0.000394764 -9.29605e-05)
(-0.000246338 0.000357419 -9.29609e-05)
(-0.000304661 0.000309212 -9.29606e-05)
(-0.000353727 0.000251611 -9.29608e-05)
(-0.000392045 0.000186365 -9.29606e-05)
(-0.000418451 0.000115455 -9.29608e-05)
(-0.000432142 4.10378e-05 -9.29609e-05)
(-0.000432702 -3.46262e-05 -9.29607e-05)
(-0.000420116 -0.000109238 -9.29606e-05)
(-0.000394764 -0.000180531 -9.29606e-05)
(-0.000357419 -0.000246338 -9.29609e-05)
(-0.000309212 -0.000304661 -9.29606e-05)
(-0.000251611 -0.000353727 -9.29608e-05)
(-0.000186365 -0.000392045 -9.29606e-05)
(-0.000115455 -0.000418451 -9.29608e-05)
(-4.10378e-05 -0.000432142 -9.2961e-05)
(3.46262e-05 -0.000432702 -9.29607e-05)
(0.000109238 -0.000420116 -9.29606e-05)
(0.000180531 -0.000394764 -9.29606e-05)
(0.000246338 -0.000357419 -9.29609e-05)
(0.000304661 -0.000309212 -9.29606e-05)
(0.000353727 -0.000251611 -9.29608e-05)
(0.000392045 -0.000186364 -9.29606e-05)
(0.000418451 -0.000115455 -9.29608e-05)
(0.000432142 -4.10378e-05 -9.29609e-05)
(0.000432702 3.46262e-05 -9.29607e-05)
(0.000420116 0.000109238 -9.29606e-05)
(0.000394764 0.000180531 -9.29606e-05)
(0.000357419 0.000246338 -9.29609e-05)
(0.000309212 0.000304661 -9.29606e-05)
(0.000251611 0.000353727 -9.29608e-05)
(0.000186364 0.000392045 -9.29606e-05)
(0.000115455 0.000418451 -9.29608e-05)
(4.10378e-05 0.000432142 -9.29609e-05)
(-3.46262e-05 0.000432702 -9.29606e-05)
(-0.000604155 0.000571656 -0.000556374)
(-0.000694244 0.00045806 -0.000556375)
(-0.000763239 0.000330547 -0.000556374)
(-0.000809042 0.000192991 -0.000556372)
(-0.000830264 4.95722e-05 -0.000556371)
(-0.000826258 -9.53546e-05 -0.000556372)
(-0.000797148 -0.000237385 -0.000556372)
(-0.000743816 -0.000372201 -0.000556373)
(-0.000667882 -0.000495709 -0.000556373)
(-0.000571656 -0.000604155 -0.000556374)
(-0.00045806 -0.000694244 -0.000556375)
(-0.000330547 -0.000763239 -0.000556374)
(-0.000192991 -0.000809042 -0.000556372)
(-4.95721e-05 -0.000830264 -0.000556371)
(9.53547e-05 -0.000826258 -0.000556372)
(0.000237385 -0.000797148 -0.000556372)
(0.000372201 -0.000743816 -0.000556373)
(0.000495709 -0.000667882 -0.000556373)
(0.000604155 -0.000571655 -0.000556374)
(0.000694244 -0.00045806 -0.000556375)
(0.000763239 -0.000330547 -0.000556374)
(0.000809042 -0.000192991 -0.000556372)
(0.000830264 -4.95721e-05 -0.000556371)
(0.000826258 9.53547e-05 -0.000556372)
(0.000797148 0.000237385 -0.000556372)
(0.000743816 0.000372201 -0.000556373)
(0.000667882 0.000495709 -0.000556373)
(0.000571656 0.000604155 -0.000556374)
(0.00045806 0.000694244 -0.000556375)
(0.000330547 0.000763239 -0.000556374)
(0.000192991 0.000809042 -0.000556372)
(4.95721e-05 0.000830264 -0.000556371)
(-9.53546e-05 0.000826258 -0.000556372)
(-0.000237385 0.000797148 -0.000556372)
(-0.000372201 0.000743816 -0.000556373)
(-0.000495709 0.000667882 -0.000556373)
(-0.000526324 0.000837373 -0.00041873)
(-0.000663735 0.000733256 -0.00041873)
(-0.000780981 0.00060686 -0.00041873)
(-0.000874496 0.000462026 -0.00041873)
(-0.000941441 0.000303152 -0.000418729)
(-0.000979781 0.000135067 -0.000418729)
(-0.000988349 -3.71226e-05 -0.000418729)
(-0.000966887 -0.000208184 -0.000418729)
(-0.000916047 -0.000372919 -0.00041873)
(-0.000837373 -0.000526324 -0.00041873)
(-0.000733256 -0.000663735 -0.00041873)
(-0.00060686 -0.000780981 -0.00041873)
(-0.000462026 -0.000874496 -0.00041873)
(-0.000303152 -0.000941441 -0.000418729)
(-0.000135066 -0.000979781 -0.000418729)
(3.71226e-05 -0.000988349 -0.000418729)
(0.000208184 -0.000966887 -0.000418729)
(0.000372919 -0.000916047 -0.00041873)
(0.000526324 -0.000837373 -0.00041873)
(0.000663735 -0.000733256 -0.00041873)
(0.000780981 -0.00060686 -0.00041873)
(0.000874496 -0.000462026 -0.00041873)
(0.000941441 -0.000303152 -0.000418729)
(0.000979781 -0.000135066 -0.000418729)
(0.000988349 3.71227e-05 -0.000418729)
(0.000966887 0.000208184 -0.000418729)
(0.000916047 0.000372919 -0.00041873)
(0.000837373 0.000526324 -0.00041873)
(0.000733256 0.000663735 -0.00041873)
(0.00060686 0.000780981 -0.00041873)
(0.000462026 0.000874496 -0.00041873)
(0.000303152 0.000941441 -0.000418729)
(0.000135067 0.000979781 -0.000418729)
(-3.71226e-05 0.000988349 -0.000418729)
(-0.000208184 0.000966887 -0.000418729)
(-0.000372919 0.000916047 -0.00041873)
(-0.000494126 0.00110306 -0.000285204)
(-0.000678163 0.0010005 -0.000285204)
(-0.000841595 0.00086754 -0.000285204)
(-0.000979455 0.000708219 -0.000285204)
(-0.00108756 0.000527379 -0.000285204)
(-0.00116261 0.000330514 -0.000285204)
(-0.00120234 0.000123607 -0.000285204)
(-0.00120554 -8.70557e-05 -0.000285204)
(-0.00117211 -0.000295074 -0.000285205)
(-0.00110306 -0.000494126 -0.000285205)
(-0.0010005 -0.000678163 -0.000285204)
(-0.00086754 -0.000841595 -0.000285204)
(-0.000708219 -0.000979455 -0.000285204)
(-0.000527379 -0.00108756 -0.000285204)
(-0.000330514 -0.00116261 -0.000285204)
(-0.000123607 -0.00120234 -0.000285205)
(8.70557e-05 -0.00120554 -0.000285204)
(0.000295074 -0.00117211 -0.000285205)
(0.000494126 -0.00110306 -0.000285205)
(0.000678163 -0.0010005 -0.000285204)
(0.000841595 -0.00086754 -0.000285204)
(0.000979455 -0.000708219 -0.000285204)
(0.00108756 -0.000527379 -0.000285204)
(0.00116261 -0.000330514 -0.000285204)
(0.00120234 -0.000123607 -0.000285204)
(0.00120554 8.70558e-05 -0.000285204)
(0.00117211 0.000295074 -0.000285205)
(0.00110306 0.000494126 -0.000285204)
(0.0010005 0.000678163 -0.000285204)
(0.00086754 0.000841595 -0.000285204)
(0.000708219 0.000979456 -0.000285204)
(0.000527379 0.00108756 -0.000285204)
(0.000330514 0.00116261 -0.000285204)
(0.000123607 0.00120234 -0.000285204)
(-8.70557e-05 0.00120554 -0.000285204)
(-0.000295074 0.00117211 -0.000285204)
(-0.000913309 0.00105916 -0.000987974)
(-0.00108335 0.000884471 -0.000987974)
(-0.00122048 0.000682912 -0.000987974)
(-0.00132053 0.000460603 -0.000987972)
(-0.00138045 0.0002243 -0.00098797)
(-0.00139843 -1.88199e-05 -0.00098797)
(-0.00137391 -0.000261369 -0.000987971)
(-0.00130765 -0.000495976 -0.000987971)
(-0.00120166 -0.000715513 -0.000987973)
(-0.00105916 -0.000913309 -0.000987974)
(-0.000884471 -0.00108335 -0.000987974)
(-0.000682912 -0.00122048 -0.000987974)
(-0.000460603 -0.00132053 -0.000987972)
(-0.0002243 -0.00138045 -0.00098797)
(1.882e-05 -0.00139843 -0.00098797)
(0.000261369 -0.00137391 -0.000987971)
(0.000495976 -0.00130765 -0.000987971)
(0.000715513 -0.00120166 -0.000987973)
(0.00091331 -0.00105916 -0.000987974)
(0.00108336 -0.000884471 -0.000987974)
(0.00122048 -0.000682912 -0.000987974)
(0.00132053 -0.000460603 -0.000987972)
(0.00138045 -0.0002243 -0.00098797)
(0.00139843 1.88201e-05 -0.00098797)
(0.00137391 0.000261369 -0.000987971)
(0.00130765 0.000495976 -0.000987971)
(0.00120166 0.000715513 -0.000987973)
(0.00105916 0.00091331 -0.000987974)
(0.000884471 0.00108336 -0.000987974)
(0.000682912 0.00122048 -0.000987974)
(0.000460603 0.00132053 -0.000987972)
(0.0002243 0.00138045 -0.00098797)
(-1.882e-05 0.00139843 -0.00098797)
(-0.000261369 0.00137391 -0.00098797)
(-0.000495976 0.00130765 -0.000987971)
(-0.000715513 0.00120166 -0.000987973)
(-0.000872447 0.00141109 -0.000786208)
(-0.00110423 0.00123816 -0.000786209)
(-0.00130245 0.0010276 -0.000786209)
(-0.00146111 0.00078582 -0.000786208)
(-0.00157537 0.000520164 -0.000786207)
(-0.00164176 0.000238701 -0.000786207)
(-0.00165827 -5.00139e-05 -0.000786207)
(-0.00162439 -0.00033721 -0.000786208)
(-0.00154115 -0.000614159 -0.000786208)
(-0.00141109 -0.000872447 -0.000786209)
(-0.00123816 -0.00110423 -0.000786209)
(-0.0010276 -0.00130245 -0.000786209)
(-0.00078582 -0.00146111 -0.000786208)
(-0.000520164 -0.00157537 -0.000786207)
(-0.000238701 -0.00164176 -0.000786207)
(5.0014e-05 -0.00165827 -0.000786207)
(0.00033721 -0.00162439 -0.000786208)
(0.000614159 -0.00154115 -0.000786208)
(0.000872447 -0.00141109 -0.000786209)
(0.00110423 -0.00123816 -0.000786209)
(0.00130245 -0.0010276 -0.000786209)
(0.00146111 -0.00078582 -0.000786208)
(0.00157537 -0.000520164 -0.000786207)
(0.00164176 -0.000238701 -0.000786207)
(0.00165827 5.0014e-05 -0.000786207)
(0.00162439 0.00033721 -0.000786208)
(0.00154115 0.000614159 -0.000786208)
(0.00141109 0.000872447 -0.000786209)
(0.00123816 0.00110423 -0.000786209)
(0.0010276 0.00130245 -0.000786209)
(0.00078582 0.00146111 -0.000786208)
(0.000520164 0.00157537 -0.000786207)
(0.000238701 0.00164176 -0.000786207)
(-5.00139e-05 0.00165827 -0.000786207)
(-0.00033721 0.00162439 -0.000786208)
(-0.000614159 0.00154115 -0.000786208)
(-0.000887852 0.00174854 -0.000590619)
(-0.00117799 0.0015678 -0.000590619)
(-0.00143234 0.00133942 -0.000590619)
(-0.00164317 0.00107035 -0.00059062)
(-0.00180407 0.000768758 -0.00059062)
(-0.00191016 0.000443804 -0.00059062)
(-0.0019582 0.000105366 -0.00059062)
(-0.00194675 -0.000236272 -0.000590619)
(-0.00187615 -0.000570733 -0.000590619)
(-0.00174854 -0.000887852 -0.000590619)
(-0.0015678 -0.00117799 -0.000590619)
(-0.00133942 -0.00143234 -0.000590619)
(-0.00107035 -0.00164317 -0.00059062)
(-0.000768758 -0.00180407 -0.00059062)
(-0.000443804 -0.00191016 -0.00059062)
(-0.000105366 -0.0019582 -0.00059062)
(0.000236273 -0.00194675 -0.000590619)
(0.000570733 -0.00187615 -0.000590619)
(0.000887852 -0.00174854 -0.000590619)
(0.00117799 -0.0015678 -0.000590619)
(0.00143234 -0.00133942 -0.000590619)
(0.00164317 -0.00107035 -0.00059062)
(0.00180407 -0.000768758 -0.00059062)
(0.00191016 -0.000443804 -0.00059062)
(0.0019582 -0.000105366 -0.00059062)
(0.00194675 0.000236273 -0.000590619)
(0.00187615 0.000570733 -0.000590619)
(0.00174854 0.000887852 -0.000590619)
(0.0015678 0.00117799 -0.000590619)
(0.00133942 0.00143234 -0.000590619)
(0.00107035 0.00164317 -0.00059062)
(0.000768758 0.00180407 -0.00059062)
(0.000443804 0.00191016 -0.00059062)
(0.000105366 0.0019582 -0.000590619)
(-0.000236273 0.00194675 -0.000590619)
(-0.000570733 0.00187615 -0.000590619)
(-0.00119728 0.00162024 -0.00144886)
(-0.00146045 0.00138772 -0.00144886)
(-0.00167923 0.00111303 -0.00144886)
(-0.001847 0.000804528 -0.00144886)
(-0.00195864 0.000471579 -0.00144886)
(-0.00201077 0.0001243 -0.00144886)
(-0.00200181 -0.000226757 -0.00144886)
(-0.00193202 -0.000570923 -0.00144886)
(-0.00180353 -0.000897741 -0.00144886)
(-0.00162024 -0.00119728 -0.00144886)
(-0.00138772 -0.00146045 -0.00144886)
(-0.00111303 -0.00167923 -0.00144886)
(-0.000804528 -0.001847 -0.00144886)
(-0.000471578 -0.00195864 -0.00144886)
(-0.000124299 -0.00201077 -0.00144886)
(0.000226757 -0.00200181 -0.00144886)
(0.000570923 -0.00193202 -0.00144886)
(0.000897742 -0.00180353 -0.00144886)
(0.00119728 -0.00162024 -0.00144886)
(0.00146045 -0.00138772 -0.00144886)
(0.00167923 -0.00111303 -0.00144886)
(0.001847 -0.000804528 -0.00144886)
(0.00195864 -0.000471578 -0.00144886)
(0.00201077 -0.000124299 -0.00144886)
(0.00200181 0.000226757 -0.00144886)
(0.00193202 0.000570923 -0.00144886)
(0.00180353 0.000897742 -0.00144886)
(0.00162024 0.00119728 -0.00144886)
(0.00138772 0.00146045 -0.00144886)
(0.00111303 0.00167923 -0.00144886)
(0.000804528 0.001847 -0.00144886)
(0.000471578 0.00195864 -0.00144886)
(0.000124299 0.00201078 -0.00144886)
(-0.000226757 0.00200181 -0.00144886)
(-0.000570923 0.00193202 -0.00144886)
(-0.000897741 0.00180353 -0.00144886)
(-0.00120267 0.00199489 -0.00120353)
(-0.00153081 0.00175574 -0.00120353)
(-0.00181244 0.00146325 -0.00120353)
(-0.00203899 0.00112629 -0.00120353)
(-0.00220359 0.000755113 -0.00120353)
(-0.00230124 0.000360992 -0.00120353)
(-0.00232896 -4.40987e-05 -0.00120353)
(-0.00228592 -0.000447849 -0.00120353)
(-0.00217343 -0.000837992 -0.00120353)
(-0.00199489 -0.00120267 -0.00120353)
(-0.00175574 -0.00153081 -0.00120353)
(-0.00146325 -0.00181244 -0.00120353)
(-0.00112629 -0.00203899 -0.00120353)
(-0.000755113 -0.00220359 -0.00120353)
(-0.000360991 -0.00230124 -0.00120353)
(4.40988e-05 -0.00232896 -0.00120353)
(0.000447849 -0.00228592 -0.00120353)
(0.000837992 -0.00217343 -0.00120353)
(0.00120267 -0.00199489 -0.00120353)
(0.00153081 -0.00175574 -0.00120353)
(0.00181244 -0.00146325 -0.00120353)
(0.00203899 -0.00112629 -0.00120353)
(0.00220359 -0.000755113 -0.00120353)
(0.00230124 -0.000360991 -0.00120353)
(0.00232896 4.40989e-05 -0.00120353)
(0.00228592 0.00044785 -0.00120353)
(0.00217343 0.000837992 -0.00120353)
(0.00199489 0.00120267 -0.00120353)
(0.00175574 0.00153081 -0.00120353)
(0.00146325 0.00181244 -0.00120353)
(0.00112629 0.00203899 -0.00120353)
(0.000755113 0.00220359 -0.00120353)
(0.000360992 0.00230124 -0.00120353)
(-4.40987e-05 0.00232896 -0.00120353)
(-0.000447849 0.00228592 -0.00120353)
(-0.000837992 0.00217343 -0.00120353)
(-0.00127048 0.0023364 -0.000970387)
(-0.00165689 0.00208029 -0.000970387)
(-0.00199295 0.00176097 -0.000970387)
(-0.00226846 0.00138815 -0.000970387)
(-0.00247505 0.000973142 -0.000970387)
(-0.00260643 0.000528571 -0.000970387)
(-0.00265862 6.79372e-05 -0.000970387)
(-0.00263003 -0.00039476 -0.000970388)
(-0.00252152 -0.000845462 -0.000970387)
(-0.0023364 -0.00127048 -0.000970387)
(-0.00208029 -0.00165689 -0.000970387)
(-0.00176097 -0.00199295 -0.000970387)
(-0.00138815 -0.00226846 -0.000970387)
(-0.000973142 -0.00247505 -0.000970387)
(-0.000528571 -0.00260643 -0.000970387)
(-6.79371e-05 -0.00265862 -0.000970387)
(0.00039476 -0.00263003 -0.000970388)
(0.000845462 -0.00252152 -0.000970387)
(0.00127048 -0.0023364 -0.000970387)
(0.00165689 -0.00208029 -0.000970388)
(0.00199295 -0.00176097 -0.000970387)
(0.00226846 -0.00138815 -0.000970387)
(0.00247505 -0.000973142 -0.000970387)
(0.00260643 -0.00052857 -0.000970387)
(0.00265862 -6.7937e-05 -0.000970387)
(0.00263003 0.00039476 -0.000970388)
(0.00252152 0.000845463 -0.000970387)
(0.0023364 0.00127048 -0.000970387)
(0.00208029 0.00165689 -0.000970387)
(0.00176097 0.00199295 -0.000970387)
(0.00138815 0.00226846 -0.000970387)
(0.000973142 0.00247505 -0.000970387)
(0.000528571 0.00260643 -0.000970387)
(6.79371e-05 0.00265862 -0.000970387)
(-0.00039476 0.00263003 -0.000970387)
(-0.000845462 0.00252152 -0.000970387)
(-0.00147106 0.00224279 -0.00192125)
(-0.00183817 0.00195327 -0.00192125)
(-0.00214942 0.0016044 -0.00192125)
(-0.00239537 0.00120678 -0.00192125)
(-0.00256853 0.000772495 -0.00192125)
(-0.00266365 0.000314738 -0.00192125)
(-0.00267784 -0.000152582 -0.00192125)
(-0.00261066 -0.000615267 -0.00192125)
(-0.00246416 -0.00105926 -0.00192125)
(-0.00224279 -0.00147106 -0.00192125)
(-0.00195327 -0.00183817 -0.00192125)
(-0.0016044 -0.00214942 -0.00192125)
(-0.00120678 -0.00239537 -0.00192125)
(-0.000772495 -0.00256853 -0.00192125)
(-0.000314738 -0.00266365 -0.00192125)
(0.000152583 -0.00267784 -0.00192125)
(0.000615268 -0.00261066 -0.00192125)
(0.00105926 -0.00246416 -0.00192125)
(0.00147106 -0.00224279 -0.00192125)
(0.00183817 -0.00195327 -0.00192125)
(0.00214942 -0.0016044 -0.00192125)
(0.00239537 -0.00120678 -0.00192125)
(0.00256853 -0.000772495 -0.00192125)
(0.00266365 -0.000314738 -0.00192125)
(0.00267784 0.000152583 -0.00192125)
(0.00261066 0.000615268 -0.00192125)
(0.00246416 0.00105926 -0.00192125)
(0.00224279 0.00147106 -0.00192125)
(0.00195327 0.00183817 -0.00192125)
(0.0016044 0.00214942 -0.00192125)
(0.00120678 0.00239537 -0.00192125)
(0.000772495 0.00256853 -0.00192125)
(0.000314738 0.00266365 -0.00192125)
(-0.000152583 0.00267784 -0.00192125)
(-0.000615267 0.00261066 -0.00192125)
(-0.00105926 0.00246416 -0.00192125)
(-0.00151704 0.0025828 -0.00165005)
(-0.00194249 0.00228013 -0.00165005)
(-0.00230892 0.00190818 -0.00165005)
(-0.0026052 0.00147825 -0.00165005)
(-0.00282231 0.00100341 -0.00165005)
(-0.00295368 0.000498075 -0.00165005)
(-0.00299529 -2.23928e-05 -0.00165005)
(-0.0029459 -0.00054218 -0.00165005)
(-0.002807 -0.00104549 -0.00165005)
(-0.0025828 -0.00151704 -0.00165005)
(-0.00228013 -0.00194249 -0.00165005)
(-0.00190818 -0.00230892 -0.00165005)
(-0.00147825 -0.0026052 -0.00165005)
(-0.00100341 -0.00282231 -0.00165005)
(-0.000498075 -0.00295368 -0.00165005)
(2.2393e-05 -0.00299529 -0.00165005)
(0.00054218 -0.0029459 -0.00165005)
(0.00104549 -0.002807 -0.00165005)
(0.00151704 -0.0025828 -0.00165005)
(0.00194249 -0.00228013 -0.00165005)
(0.00230892 -0.00190818 -0.00165005)
(0.0026052 -0.00147825 -0.00165005)
(0.00282231 -0.00100341 -0.00165005)
(0.00295368 -0.000498075 -0.00165005)
(0.00299529 2.23931e-05 -0.00165005)
(0.0029459 0.00054218 -0.00165005)
(0.002807 0.00104549 -0.00165005)
(0.0025828 0.00151704 -0.00165005)
(0.00228013 0.00194249 -0.00165005)
(0.00190818 0.00230892 -0.00165005)
(0.00147825 0.0026052 -0.00165005)
(0.00100341 0.00282231 -0.00165005)
(0.000498075 0.00295368 -0.00165005)
(-2.23929e-05 0.00299529 -0.00165005)
(-0.00054218 0.0029459 -0.00165005)
(-0.00104549 0.002807 -0.00165005)
(-0.00162595 0.00287195 -0.00139824)
(-0.00209996 0.00254597 -0.00139824)
(-0.00251016 0.00214264 -0.00139824)
(-0.00284409 0.00167421 -0.00139824)
(-0.0030916 0.0011549 -0.00139824)
(-0.00324518 0.000600504 -0.00139824)
(-0.00330016 2.7861e-05 -0.00139824)
(-0.00325486 -0.000545629 -0.00139824)
(-0.00311066 -0.00110254 -0.00139824)
(-0.00287195 -0.00162595 -0.00139824)
(-0.00254597 -0.00209996 -0.00139824)
(-0.00214264 -0.00251016 -0.00139824)
(-0.00167421 -0.00284409 -0.00139824)
(-0.0011549 -0.0030916 -0.00139824)
(-0.000600504 -0.00324518 -0.00139824)
(-2.78608e-05 -0.00330016 -0.00139824)
(0.000545629 -0.00325486 -0.00139824)
(0.00110254 -0.00311066 -0.00139824)
(0.00162595 -0.00287195 -0.00139824)
(0.00209996 -0.00254597 -0.00139824)
(0.00251016 -0.00214264 -0.00139824)
(0.00284409 -0.00167421 -0.00139824)
(0.0030916 -0.0011549 -0.00139824)
(0.00324518 -0.000600504 -0.00139824)
(0.00330016 -2.78608e-05 -0.00139824)
(0.00325486 0.000545629 -0.00139824)
(0.00311066 0.00110254 -0.00139824)
(0.00287195 0.00162595 -0.00139824)
(0.00254597 0.00209996 -0.00139824)
(0.00214264 0.00251016 -0.00139824)
(0.00167421 0.00284409 -0.00139824)
(0.0011549 0.0030916 -0.00139824)
(0.000600504 0.00324518 -0.00139824)
(2.7861e-05 0.00330016 -0.00139824)
(-0.000545629 0.00325486 -0.00139824)
(-0.00110254 0.00311066 -0.00139824)
(-0.00175237 0.00289327 -0.00240563)
(-0.00222816 0.00254502 -0.00240564)
(-0.00263624 0.00211944 -0.00240564)
(-0.00296423 0.00162946 -0.00240564)
(-0.00320215 0.00108998 -0.00240564)
(-0.00334277 0.000517369 -0.00240564)
(-0.00338183 -7.09573e-05 -0.00240564)
(-0.00331813 -0.000657129 -0.00240564)
(-0.00315361 -0.00122333 -0.00240563)
(-0.00289327 -0.00175237 -0.00240564)
(-0.00254502 -0.00222816 -0.00240564)
(-0.00211944 -0.00263624 -0.00240564)
(-0.00162946 -0.00296423 -0.00240564)
(-0.00108998 -0.00320215 -0.00240564)
(-0.000517369 -0.00334277 -0.00240564)
(7.09575e-05 -0.00338183 -0.00240564)
(0.000657129 -0.00331813 -0.00240564)
(0.00122333 -0.00315361 -0.00240563)
(0.00175237 -0.00289327 -0.00240564)
(0.00222816 -0.00254502 -0.00240564)
(0.00263624 -0.00211944 -0.00240564)
(0.00296423 -0.00162946 -0.00240564)
(0.00320215 -0.00108998 -0.00240564)
(0.00334277 -0.000517369 -0.00240564)
(0.00338183 7.09576e-05 -0.00240564)
(0.00331813 0.000657129 -0.00240564)
(0.00315361 0.00122333 -0.00240563)
(0.00289327 0.00175237 -0.00240564)
(0.00254502 0.00222816 -0.00240564)
(0.00211944 0.00263624 -0.00240564)
(0.00162946 0.00296423 -0.00240564)
(0.00108998 0.00320215 -0.00240564)
(0.000517369 0.00334277 -0.00240564)
(-7.09574e-05 0.00338183 -0.00240564)
(-0.000657129 0.00331813 -0.00240564)
(-0.00122333 0.00315361 -0.00240563)
(-0.00182268 0.00315938 -0.00211675)
(-0.00234361 0.00279488 -0.00211675)
(-0.00279333 0.00234545 -0.00211675)
(-0.00315817 0.00182476 -0.00211675)
(-0.00342706 0.00124863 -0.00211675)
(-0.00359182 0.000634558 -0.00211675)
(-0.00364744 1.20533e-06 -0.00211675)
(-0.00359224 -0.000632185 -0.00211675)
(-0.00342789 -0.00124637 -0.00211675)
(-0.00315938 -0.00182268 -0.00211675)
(-0.00279488 -0.00234361 -0.00211675)
(-0.00234545 -0.00279333 -0.00211675)
(-0.00182476 -0.00315817 -0.00211675)
(-0.00124863 -0.00342706 -0.00211675)
(-0.000634558 -0.00359182 -0.00211675)
(-1.2051e-06 -0.00364744 -0.00211675)
(0.000632185 -0.00359224 -0.00211675)
(0.00124637 -0.00342789 -0.00211675)
(0.00182268 -0.00315938 -0.00211675)
(0.00234361 -0.00279488 -0.00211675)
(0.00279333 -0.00234545 -0.00211675)
(0.00315818 -0.00182476 -0.00211675)
(0.00342706 -0.00124863 -0.00211675)
(0.00359182 -0.000634558 -0.00211675)
(0.00364744 -1.20505e-06 -0.00211675)
(0.00359224 0.000632185 -0.00211675)
(0.00342789 0.00124637 -0.00211675)
(0.00315938 0.00182268 -0.00211675)
(0.00279488 0.00234361 -0.00211675)
(0.00234545 0.00279333 -0.00211675)
(0.00182476 0.00315818 -0.00211675)
(0.00124863 0.00342706 -0.00211675)
(0.000634558 0.00359182 -0.00211675)
(1.20527e-06 0.00364744 -0.00211675)
(-0.000632185 0.00359224 -0.00211675)
(-0.00124637 0.00342789 -0.00211675)
(-0.00195228 0.0033605 -0.00185415)
(-0.00250617 0.00297043 -0.00185415)
(-0.0029839 0.00249011 -0.00185415)
(-0.00337097 0.00193413 -0.00185415)
(-0.00365562 0.00131939 -0.00185415)
(-0.00382919 0.00066455 -0.00185415)
(-0.00388641 -1.04773e-05 -0.00185415)
(-0.00382555 -0.000685188 -0.00185415)
(-0.00364845 -0.00133908 -0.00185415)
(-0.00336049 -0.00195228 -0.00185415)
(-0.00297043 -0.00250617 -0.00185415)
(-0.00249011 -0.0029839 -0.00185415)
(-0.00193413 -0.00337097 -0.00185415)
(-0.00131939 -0.00365562 -0.00185415)
(-0.000664549 -0.00382919 -0.00185415)
(1.04776e-05 -0.00388641 -0.00185415)
(0.000685188 -0.00382555 -0.00185415)
(0.00133908 -0.00364845 -0.00185415)
(0.00195228 -0.00336049 -0.00185415)
(0.00250617 -0.00297043 -0.00185415)
(0.0029839 -0.00249011 -0.00185415)
(0.00337098 -0.00193413 -0.00185415)
(0.00365562 -0.00131939 -0.00185415)
(0.00382919 -0.000664549 -0.00185415)
(0.00388642 1.04776e-05 -0.00185415)
(0.00382555 0.000685188 -0.00185415)
(0.00364845 0.00133908 -0.00185415)
(0.0033605 0.00195228 -0.00185415)
(0.00297043 0.00250617 -0.00185415)
(0.00249011 0.0029839 -0.00185415)
(0.00193413 0.00337098 -0.00185415)
(0.00131939 0.00365562 -0.00185415)
(0.00066455 0.00382919 -0.00185415)
(-1.04774e-05 0.00388642 -0.00185415)
(-0.000685188 0.00382555 -0.00185415)
(-0.00133908 0.00364845 -0.00185415)
(-0.00205633 0.00352578 -0.00290862)
(-0.00263733 0.00311513 -0.00290862)
(-0.00313821 0.00260984 -0.00290862)
(-0.00354372 0.00202525 -0.00290862)
(-0.00384156 0.00137912 -0.00290862)
(-0.00402269 0.000691085 -0.00290862)
(-0.00408158 -1.79455e-05 -0.00290862)
(-0.00401645 -0.000726432 -0.00290862)
(-0.00382929 -0.00141285 -0.00290862)
(-0.00352578 -0.00205633 -0.00290862)
(-0.00311513 -0.00263733 -0.00290862)
(-0.00260984 -0.00313821 -0.00290862)
(-0.00202525 -0.00354372 -0.00290862)
(-0.00137912 -0.00384156 -0.00290862)
(-0.000691085 -0.00402269 -0.00290862)
(1.79458e-05 -0.00408158 -0.00290862)
(0.000726433 -0.00401645 -0.00290862)
(0.00141285 -0.00382929 -0.00290862)
(0.00205633 -0.00352578 -0.00290862)
(0.00263733 -0.00311513 -0.00290862)
(0.00313821 -0.00260984 -0.00290862)
(0.00354372 -0.00202525 -0.00290862)
(0.00384157 -0.00137912 -0.00290862)
(0.00402269 -0.000691085 -0.00290862)
(0.00408158 1.79459e-05 -0.00290862)
(0.00401645 0.000726433 -0.00290862)
(0.00382929 0.00141285 -0.00290862)
(0.00352578 0.00205633 -0.00290862)
(0.00311513 0.00263733 -0.00290862)
(0.00260984 0.00313821 -0.00290862)
(0.00202525 0.00354372 -0.00290862)
(0.00137912 0.00384157 -0.00290862)
(0.000691085 0.00402269 -0.00290862)
(-1.79456e-05 0.00408158 -0.00290862)
(-0.000726432 0.00401645 -0.00290862)
(-0.00141285 0.00382929 -0.00290862)
(-0.00212945 0.00369576 -0.00260144)
(-0.00273886 0.00326983 -0.00260144)
(-0.00326505 0.00274456 -0.00260144)
(-0.00369203 0.00213589 -0.00260144)
(-0.00400684 0.00146233 -0.00260144)
(-0.00419989 0.000744336 -0.00260144)
(-0.00426534 3.72262e-06 -0.00260144)
(-0.00420119 -0.000737003 -0.00260144)
(-0.00400938 -0.00145534 -0.00260144)
(-0.00369576 -0.00212945 -0.00260144)
(-0.00326983 -0.00273886 -0.00260144)
(-0.00274456 -0.00326505 -0.00260144)
(-0.00213589 -0.00369203 -0.00260144)
(-0.00146233 -0.00400684 -0.00260144)
(-0.000744336 -0.00419989 -0.00260144)
(-3.72234e-06 -0.00426534 -0.00260144)
(0.000737003 -0.00420119 -0.00260144)
(0.00145534 -0.00400938 -0.00260144)
(0.00212945 -0.00369576 -0.00260144)
(0.00273886 -0.00326983 -0.00260144)
(0.00326505 -0.00274456 -0.00260144)
(0.00369203 -0.00213589 -0.00260144)
(0.00400684 -0.00146233 -0.00260144)
(0.0041999 -0.000744336 -0.00260144)
(0.00426534 -3.72232e-06 -0.00260144)
(0.00420119 0.000737003 -0.00260144)
(0.00400938 0.00145534 -0.00260144)
(0.00369576 0.00212945 -0.00260144)
(0.00326983 0.00273886 -0.00260144)
(0.00274456 0.00326505 -0.00260144)
(0.00213589 0.00369203 -0.00260144)
(0.00146233 0.00400684 -0.00260144)
(0.000744336 0.0041999 -0.00260144)
(3.72258e-06 0.00426534 -0.00260144)
(-0.000737003 0.00420119 -0.00260144)
(-0.00145534 0.00400938 -0.00260144)
(-0.00225525 0.00379242 -0.00232612)
(-0.00287954 0.00334319 -0.00232612)
(-0.00341633 0.00279237 -0.00232612)
(-0.00384931 0.00215671 -0.00232612)
(-0.00416534 0.00145552 -0.00232612)
(-0.00435481 0.0007101 -0.00232612)
(-0.00441196 -5.68926e-05 -0.00232612)
(-0.00433505 -0.000822157 -0.00232612)
(-0.00412643 -0.00156244 -0.00232612)
(-0.00379242 -0.00225525 -0.00232612)
(-0.00334319 -0.00287954 -0.00232612)
(-0.00279237 -0.00341633 -0.00232612)
(-0.00215671 -0.00384931 -0.00232612)
(-0.00145552 -0.00416534 -0.00232612)
(-0.0007101 -0.00435481 -0.00232612)
(5.68929e-05 -0.00441196 -0.00232612)
(0.000822157 -0.00433505 -0.00232612)
(0.00156244 -0.00412643 -0.00232612)
(0.00225525 -0.00379242 -0.00232612)
(0.00287954 -0.00334319 -0.00232612)
(0.00341633 -0.00279237 -0.00232612)
(0.00384931 -0.00215671 -0.00232612)
(0.00416534 -0.00145552 -0.00232612)
(0.00435481 -0.0007101 -0.00232612)
(0.00441196 5.68929e-05 -0.00232612)
(0.00433505 0.000822157 -0.00232612)
(0.00412643 0.00156244 -0.00232612)
(0.00379242 0.00225525 -0.00232612)
(0.00334319 0.00287954 -0.00232612)
(0.00279237 0.00341633 -0.00232612)
(0.00215671 0.00384932 -0.00232612)
(0.00145552 0.00416534 -0.00232612)
(0.0007101 0.00435481 -0.00232612)
(-5.68926e-05 0.00441196 -0.00232612)
(-0.000822157 0.00433505 -0.00232612)
(-0.00156244 0.00412643 -0.00232612)
(-0.00238763 0.00408459 -0.00343288)
(-0.00306064 0.00360793 -0.00343288)
(-0.00364065 0.00302164 -0.00343288)
(-0.00411004 0.00234354 -0.00343288)
(-0.00445455 0.00159424 -0.00343289)
(-0.00466372 0.000796493 -0.00343288)
(-0.00473117 -2.5453e-05 -0.00343288)