/*--------------------------------*- C++ -*----------------------------------*\
| =========                 |                                                 |
| \\      /  F ield         | OpenFOAM: The Open Source CFD Toolbox           |
|  \\    /   O peration     | Version:  2312                                  |
|   \\  /    A nd           | Website:  www.openfoam.com                      |
|    \\/     M anipulation  |                                                 |
\*---------------------------------------------------------------------------*/
FoamFile
{
    version     2.0;
    format      ascii;
    arch        "LSB;label=32;scalar=64";
    class       volVectorField;
    location    "1";
    object      D_0;
}
// * * * * * * * * * * * * * * * * * * * * * * * * * * * * * * * * * * * * * //

dimensions      [0 1 0 0 0 0 0];

internalField   nonuniform List<vector> 
1620
(
(-0.000271879 0.000141489 -0.000194909)
(-0.000292317 9.21272e-05 -0.00019491)
(-0.000303874 3.99673e-05 -0.000194909)
(-0.000306198 -1.34062e-05 -0.000194909)
(-0.000299218 -6.63727e-05 -0.000194909)
(-0.000283147 -0.000117323 -0.00019491)
(-0.000258473 -0.000164709 -0.000194909)
(-0.000225944 -0.00020709 -0.000194909)
(-0.000186551 -0.000243179 -0.000194909)
(-0.000141488 -0.000271879 -0.000194909)
(-9.21271e-05 -0.000292317 -0.00019491)
(-3.99673e-05 -0.000303874 -0.000194909)
(1.34062e-05 -0.000306198 -0.000194909)
(6.63727e-05 -0.000299218 -0.000194909)
(0.000117323 -0.000283147 -0.00019491)
(0.000164709 -0.000258473 -0.000194909)
(0.00020709 -0.000225944 -0.000194909)
(0.000243179 -0.000186551 -0.000194909)
(0.000271879 -0.000141488 -0.000194909)
(0.000292317 -9.21271e-05 -0.00019491)
(0.000303874 -3.99672e-05 -0.000194909)
(0.000306198 1.34063e-05 -0.000194909)
(0.000299218 6.63727e-05 -0.000194909)
(0.000283147 0.000117323 -0.00019491)
(0.000258473 0.000164709 -0.000194909)
(0.000225944 0.00020709 -0.000194909)
(0.000186551 0.000243179 -0.000194909)
(0.000141488 0.000271879 -0.000194909)
(9.21272e-05 0.000292317 -0.00019491)
(3.99673e-05 0.000303874 -0.000194909)
(-1.34062e-05 0.000306198 -0.000194909)
(-6.63727e-05 0.000299218 -0.000194909)
(-0.000117323 0.000283147 -0.000194909)
(-0.000164709 0.000258473 -0.000194909)
(-0.00020709 0.000225944 -0.000194909)
(-0.000243179 0.000186551 -0.000194909)
(-0.000173987 0.000276977 -0.000135124)
(-0.00021944 0.000242556 -0.000135124)
(-0.000258226 0.000200766 -0.000135124)
(-0.000289165 0.000152875 -0.000135124)
(-0.00031132 0.00010034 -0.000135124)
(-0.000324014 4.47555e-05 -0.000135124)
(-0.000326863 -1.21887e-05 -0.000135123)
(-0.000319781 -6.87625e-05 -0.000135123)
(-0.000302982 -0.000123247 -0.000135124)
(-0.000276977 -0.000173987 -0.000135124)
(-0.000242556 -0.00021944 -0.000135124)
(-0.000200766 -0.000258226 -0.000135124)
(-0.000152875 -0.000289165 -0.000135124)
(-0.00010034 -0.00031132 -0.000135124)
(-4.47555e-05 -0.000324014 -0.000135124)
(1.21888e-05 -0.000326863 -0.000135123)
(6.87626e-05 -0.000319781 -0.000135123)
(0.000123247 -0.000302982 -0.000135124)
(0.000173987 -0.000276977 -0.000135124)
(0.00021944 -0.000242556 -0.000135124)
(0.000258226 -0.000200766 -0.000135124)
(0.000289165 -0.000152875 -0.000135124)
(0.00031132 -0.00010034 -0.000135124)
(0.000324014 -4.47554e-05 -0.000135124)
(0.000326863 1.21888e-05 -0.000135123)
(0.000319781 6.87626e-05 -0.000135123)
(0.000302982 0.000123247 -0.000135124)
(0.000276977 0.000173987 -0.000135124)
(0.000242556 0.00021944 -0.000135124)
(0.000200766 0.000258226 -0.000135124)
(0.000152875 0.000289165 -0.000135124)
(0.00010034 0.00031132 -0.000135124)
(4.47555e-05 0.000324014 -0.000135124)
(-1.21888e-05 0.000326863 -0.000135123)
(-6.87626e-05 0.000319781 -0.000135123)
(-0.000123247 0.000302982 -0.000135124)
(-0.000109411 0.000419767 -9.20006e-05)
(-0.000180641 0.00039439 -9.20006e-05)
(-0.000246382 0.000357031 -9.20009e-05)
(-0.000304636 0.000308823 -9.20007e-05)
(-0.000353636 0.000251232 -9.20008e-05)
(-0.000391889 0.000186007 -9.20006e-05)
(-0.000418235 0.00011513 -9.20009e-05)
(-0.000431873 4.07554e-05 -9.2001e-05)
(-0.000432389 -3.48577e-05 -9.20007e-05)
(-0.000419767 -0.000109411 -9.20006e-05)
(-0.00039439 -0.000180641 -9.20006e-05)
(-0.000357031 -0.000246382 -9.20009e-05)
(-0.000308823 -0.000304636 -9.20007e-05)
(-0.000251232 -0.000353636 -9.20008e-05)
(-0.000186007 -0.000391889 -9.20007e-05)
(-0.00011513 -0.000418235 -9.20009e-05)
(-4.07554e-05 -0.000431873 -9.2001e-05)
(3.48577e-05 -0.000432389 -9.20007e-05)
(0.000109411 -0.000419767 -9.20006e-05)
(0.000180641 -0.00039439 -9.20006e-05)
(0.000246382 -0.000357031 -9.20009e-05)
(0.000304636 -0.000308823 -9.20007e-05)
(0.000353636 -0.000251232 -9.20008e-05)
(0.000391889 -0.000186007 -9.20007e-05)
(0.000418235 -0.00011513 -9.20009e-05)
(0.000431873 -4.07554e-05 -9.2001e-05)
(0.000432389 3.48577e-05 -9.20007e-05)
(0.000419767 0.000109411 -9.20006e-05)
(0.00039439 0.000180641 -9.20006e-05)
(0.000357031 0.000246382 -9.20009e-05)
(0.000308823 0.000304636 -9.20007e-05)
(0.000251232 0.000353636 -9.20008e-05)
(0.000186007 0.000391889 -9.20006e-05)
(0.00011513 0.000418235 -9.20008e-05)
(4.07554e-05 0.000431873 -9.2001e-05)
(-3.48577e-05 0.000432389 -9.20007e-05)
(-0.000602649 0.00057615 -0.000552756)
(-0.000693541 0.000462748 -0.000552757)
(-0.000763361 0.000335286 -0.000552756)
(-0.000809985 0.000197637 -0.000552754)
(-0.000831999 5.39834e-05 -0.000552753)
(-0.000828733 -9.13117e-05 -0.000552754)
(-0.000800287 -0.000233833 -0.000552754)
(-0.000747524 -0.000369249 -0.000552755)
(-0.000672046 -0.000493446 -0.000552755)
(-0.00057615 -0.000602649 -0.000552756)
(-0.000462748 -0.000693541 -0.000552757)
(-0.000335286 -0.000763361 -0.000552756)
(-0.000197637 -0.000809985 -0.000552754)
(-5.39834e-05 -0.000831999 -0.000552753)
(9.13118e-05 -0.000828733 -0.000552754)
(0.000233833 -0.000800287 -0.000552754)
(0.000369249 -0.000747524 -0.000552755)
(0.000493446 -0.000672046 -0.000552755)
(0.000602649 -0.00057615 -0.000552756)
(0.000693541 -0.000462748 -0.000552757)
(0.000763361 -0.000335286 -0.000552756)
(0.000809985 -0.000197637 -0.000552754)
(0.000831999 -5.39833e-05 -0.000552753)
(0.000828733 9.13118e-05 -0.000552754)
(0.000800287 0.000233833 -0.000552754)
(0.000747524 0.000369249 -0.000552755)
(0.000672047 0.000493446 -0.000552755)
(0.00057615 0.000602649 -0.000552756)
(0.000462748 0.000693541 -0.000552757)
(0.000335286 0.000763361 -0.000552756)
(0.000197637 0.000809986 -0.000552754)
(5.39834e-05 0.000831999 -0.000552753)
(-9.13117e-05 0.000828733 -0.000552754)
(-0.000233833 0.000800287 -0.000552754)
(-0.000369249 0.000747524 -0.000552755)
(-0.000493446 0.000672047 -0.000552755)
(-0.000525315 0.000839843 -0.000415729)
(-0.000663171 0.000735863 -0.000415729)
(-0.000780877 0.000609526 -0.000415729)
(-0.000874858 0.000464669 -0.000415728)
(-0.000942256 0.000305693 -0.000415728)
(-0.000981024 0.000137427 -0.000415728)
(-0.000989984 -3.5014e-05 -0.000415728)
(-0.000968863 -0.000206391 -0.000415728)
(-0.000918304 -0.000371497 -0.000415728)
(-0.000839843 -0.000525315 -0.000415729)
(-0.000735863 -0.000663171 -0.000415729)
(-0.000609526 -0.000780877 -0.000415729)
(-0.000464669 -0.000874858 -0.000415728)
(-0.000305693 -0.000942256 -0.000415728)
(-0.000137427 -0.000981024 -0.000415728)
(3.5014e-05 -0.000989984 -0.000415728)
(0.000206391 -0.000968863 -0.000415728)
(0.000371497 -0.000918304 -0.000415729)
(0.000525315 -0.000839843 -0.000415729)
(0.000663171 -0.000735863 -0.000415729)
(0.000780877 -0.000609526 -0.000415729)
(0.000874858 -0.000464669 -0.000415729)
(0.000942256 -0.000305693 -0.000415728)
(0.000981024 -0.000137427 -0.000415728)
(0.000989984 3.50141e-05 -0.000415728)
(0.000968863 0.000206391 -0.000415728)
(0.000918304 0.000371497 -0.000415728)
(0.000839843 0.000525315 -0.000415729)
(0.000735863 0.000663171 -0.000415729)
(0.000609526 0.000780878 -0.000415729)
(0.000464669 0.000874858 -0.000415728)
(0.000305693 0.000942256 -0.000415728)
(0.000137427 0.000981024 -0.000415728)
(-3.5014e-05 0.000989984 -0.000415728)
(-0.000206391 0.000968863 -0.000415728)
(-0.000371497 0.000918305 -0.000415728)
(-0.000493399 0.00110334 -0.00028283)
(-0.000677495 0.0010009 -0.000282829)
(-0.000841006 0.000868048 -0.00028283)
(-0.000978964 0.000708821 -0.00028283)
(-0.00108718 0.000528057 -0.00028283)
(-0.00116236 0.000331248 -0.000282829)
(-0.00120222 0.000124374 -0.00028283)
(-0.00120555 -8.62786e-05 -0.00028283)
(-0.00117226 -0.00029431 -0.00028283)
(-0.00110334 -0.000493399 -0.00028283)
(-0.0010009 -0.000677495 -0.000282829)
(-0.000868048 -0.000841006 -0.00028283)
(-0.000708821 -0.000978964 -0.00028283)
(-0.000528057 -0.00108718 -0.00028283)
(-0.000331248 -0.00116236 -0.00028283)
(-0.000124374 -0.00120222 -0.00028283)
(8.62786e-05 -0.00120555 -0.00028283)
(0.00029431 -0.00117226 -0.00028283)
(0.000493399 -0.00110334 -0.00028283)
(0.000677495 -0.0010009 -0.000282829)
(0.000841006 -0.000868048 -0.00028283)
(0.000978964 -0.000708821 -0.00028283)
(0.00108718 -0.000528057 -0.00028283)
(0.00116236 -0.000331248 -0.00028283)
(0.00120222 -0.000124374 -0.00028283)
(0.00120555 8.62787e-05 -0.00028283)
(0.00117226 0.00029431 -0.00028283)
(0.00110334 0.000493399 -0.00028283)
(0.0010009 0.000677495 -0.000282829)
(0.000868048 0.000841006 -0.00028283)
(0.000708821 0.000978964 -0.00028283)
(0.000528057 0.00108718 -0.00028283)
(0.000331248 0.00116236 -0.000282829)
(0.000124374 0.00120222 -0.00028283)
(-8.62786e-05 0.00120555 -0.00028283)
(-0.00029431 0.00117226 -0.00028283)
(-0.000911475 0.00106529 -0.000982228)
(-0.00108261 0.000890831 -0.000982228)
(-0.00122086 0.000689304 -0.000982227)
(-0.00132201 0.000466833 -0.000982226)
(-0.00138299 0.000230178 -0.000982224)
(-0.00140195 -1.34716e-05 -0.000982224)
(-0.00137831 -0.000256713 -0.000982224)
(-0.00131279 -0.000492154 -0.000982225)
(-0.00120738 -0.000712641 -0.000982227)
(-0.00106529 -0.000911475 -0.000982228)
(-0.000890831 -0.00108261 -0.000982228)
(-0.000689304 -0.00122086 -0.000982227)
(-0.000466833 -0.00132201 -0.000982226)
(-0.000230178 -0.00138299 -0.000982224)
(1.34717e-05 -0.00140195 -0.000982224)
(0.000256713 -0.00137831 -0.000982224)
(0.000492154 -0.00131279 -0.000982225)
(0.000712641 -0.00120738 -0.000982227)
(0.000911475 -0.00106529 -0.000982228)
(0.00108261 -0.000890831 -0.000982228)
(0.00122086 -0.000689304 -0.000982227)
(0.00132201 -0.000466833 -0.000982226)
(0.00138299 -0.000230178 -0.000982224)
(0.00140195 1.34718e-05 -0.000982224)
(0.00137831 0.000256713 -0.000982224)
(0.00131279 0.000492154 -0.000982225)
(0.00120738 0.000712642 -0.000982227)
(0.00106529 0.000911475 -0.000982228)
(0.000890831 0.00108261 -0.000982228)
(0.000689304 0.00122086 -0.000982227)
(0.000466833 0.00132201 -0.000982226)
(0.000230178 0.00138299 -0.000982224)
(-1.34717e-05 0.00140195 -0.000982224)
(-0.000256713 0.00137831 -0.000982224)
(-0.000492154 0.00131279 -0.000982225)
(-0.000712641 0.00120738 -0.000982227)
(-0.000870799 0.00141465 -0.000781336)
(-0.00110322 0.00124194 -0.000781336)
(-0.00130212 0.0010315 -0.000781336)
(-0.00146146 0.000789724 -0.000781335)
(-0.00157639 0.000523947 -0.000781334)
(-0.00164342 0.000242249 -0.000781334)
(-0.00166052 -4.68089e-05 -0.000781334)
(-0.00162717 -0.000334445 -0.000781335)
(-0.00154437 -0.000611919 -0.000781335)
(-0.00141465 -0.000870799 -0.000781336)
(-0.00124194 -0.00110322 -0.000781336)
(-0.0010315 -0.00130212 -0.000781336)
(-0.000789724 -0.00146146 -0.000781335)
(-0.000523947 -0.00157639 -0.000781334)
(-0.000242249 -0.00164342 -0.000781334)
(4.6809e-05 -0.00166052 -0.000781335)
(0.000334445 -0.00162717 -0.000781335)
(0.000611919 -0.00154437 -0.000781335)
(0.0008708 -0.00141465 -0.000781336)
(0.00110322 -0.00124194 -0.000781336)
(0.00130212 -0.0010315 -0.000781336)
(0.00146146 -0.000789723 -0.000781335)
(0.00157639 -0.000523947 -0.000781334)
(0.00164342 -0.000242249 -0.000781334)
(0.00166052 4.6809e-05 -0.000781334)
(0.00162717 0.000334445 -0.000781335)
(0.00154437 0.000611919 -0.000781335)
(0.00141465 0.0008708 -0.000781336)
(0.00124194 0.00110322 -0.000781336)
(0.0010315 0.00130212 -0.000781336)
(0.000789724 0.00146146 -0.000781335)
(0.000523947 0.00157639 -0.000781334)
(0.000242249 0.00164342 -0.000781334)
(-4.68089e-05 0.00166052 -0.000781334)
(-0.000334445 0.00162717 -0.000781335)
(-0.000611919 0.00154437 -0.000781335)
(-0.000886034 0.00174947 -0.000586615)
(-0.00117636 0.00156903 -0.000586615)
(-0.00143095 0.00134092 -0.000586615)
(-0.00164206 0.00107207 -0.000586616)
(-0.00180328 0.000770641 -0.000586616)
(-0.0019097 0.000445796 -0.000586616)
(-0.0019581 0.000107407 -0.000586616)
(-0.001947 -0.000234245 -0.000586615)
(-0.00187675 -0.000568781 -0.000586615)
(-0.00174947 -0.000886034 -0.000586615)
(-0.00156903 -0.00117636 -0.000586615)
(-0.00134092 -0.00143095 -0.000586615)
(-0.00107207 -0.00164206 -0.000586616)
(-0.000770641 -0.00180328 -0.000586616)
(-0.000445796 -0.0019097 -0.000586616)
(-0.000107407 -0.0019581 -0.000586616)
(0.000234246 -0.001947 -0.000586615)
(0.000568781 -0.00187675 -0.000586615)
(0.000886034 -0.00174947 -0.000586615)
(0.00117636 -0.00156903 -0.000586615)
(0.00143095 -0.00134092 -0.000586616)
(0.00164206 -0.00107207 -0.000586616)
(0.00180328 -0.000770641 -0.000586616)
(0.0019097 -0.000445796 -0.000586616)
(0.0019581 -0.000107407 -0.000586616)
(0.001947 0.000234246 -0.000586615)
(0.00187675 0.000568781 -0.000586615)
(0.00174947 0.000886034 -0.000586615)
(0.00156903 0.00117636 -0.000586615)
(0.00134092 0.00143095 -0.000586615)
(0.00107207 0.00164206 -0.000586616)
(0.000770641 0.00180328 -0.000586616)
(0.000445796 0.0019097 -0.000586616)
(0.000107407 0.0019581 -0.000586615)
(-0.000234246 0.001947 -0.000586615)
(-0.000568781 0.00187675 -0.000586615)
(-0.00119543 0.00162681 -0.00144147)
(-0.00145977 0.00139451 -0.00144147)
(-0.00167974 0.00111984 -0.00144147)
(-0.00184868 0.000811144 -0.00144147)
(-0.00196145 0.000477801 -0.00144147)
(-0.00201462 0.00012994 -0.00144147)
(-0.00200658 -0.000221869 -0.00144147)
(-0.00193756 -0.000566938 -0.00144147)
(-0.00180968 -0.000894779 -0.00144147)
(-0.00162681 -0.00119543 -0.00144147)
(-0.00139451 -0.00145977 -0.00144147)
(-0.00111984 -0.00167974 -0.00144147)
(-0.000811144 -0.00184868 -0.00144147)
(-0.000477801 -0.00196145 -0.00144147)
(-0.00012994 -0.00201462 -0.00144147)
(0.000221869 -0.00200658 -0.00144147)
(0.000566938 -0.00193756 -0.00144147)
(0.000894779 -0.00180968 -0.00144147)
(0.00119543 -0.00162681 -0.00144147)
(0.00145977 -0.00139451 -0.00144147)
(0.00167974 -0.00111984 -0.00144147)
(0.00184868 -0.000811144 -0.00144147)
(0.00196145 -0.000477801 -0.00144147)
(0.00201462 -0.00012994 -0.00144147)
(0.00200658 0.000221869 -0.00144147)
(0.00193757 0.000566938 -0.00144147)
(0.00180968 0.000894779 -0.00144147)
(0.00162681 0.00119543 -0.00144147)
(0.00139451 0.00145977 -0.00144147)
(0.00111984 0.00167974 -0.00144147)
(0.000811144 0.00184868 -0.00144147)
(0.000477801 0.00196145 -0.00144147)
(0.00012994 0.00201462 -0.00144147)
(-0.000221869 0.00200658 -0.00144147)
(-0.000566938 0.00193757 -0.00144147)
(-0.000894779 0.00180968 -0.00144147)
(-0.00120059 0.00199882 -0.00119713)
(-0.00152944 0.00175997 -0.00119713)
(-0.00181182 0.00146765 -0.00119713)
(-0.00203915 0.00113074 -0.00119713)
(-0.00220452 0.000759464 -0.00119713)
(-0.00230291 0.000365115 -0.00119713)
(-0.00233132 -4.03275e-05 -0.00119713)
(-0.0022889 -0.000444546 -0.00119713)
(-0.00217693 -0.000835256 -0.00119713)
(-0.00199882 -0.00120059 -0.00119713)
(-0.00175997 -0.00152944 -0.00119713)
(-0.00146765 -0.00181182 -0.00119713)
(-0.00113074 -0.00203915 -0.00119713)
(-0.000759464 -0.00220452 -0.00119713)
(-0.000365115 -0.00230291 -0.00119713)
(4.03276e-05 -0.00233132 -0.00119713)
(0.000444546 -0.0022889 -0.00119713)
(0.000835256 -0.00217693 -0.00119713)
(0.00120059 -0.00199882 -0.00119713)
(0.00152944 -0.00175997 -0.00119713)
(0.00181182 -0.00146765 -0.00119713)
(0.00203915 -0.00113074 -0.00119713)
(0.00220452 -0.000759464 -0.00119713)
(0.00230291 -0.000365115 -0.00119713)
(0.00233132 4.03277e-05 -0.00119713)
(0.0022889 0.000444546 -0.00119713)
(0.00217693 0.000835256 -0.00119713)
(0.00199882 0.00120059 -0.00119713)
(0.00175997 0.00152944 -0.00119713)
(0.00146765 0.00181182 -0.00119713)
(0.00113074 0.00203915 -0.00119713)
(0.000759464 0.00220452 -0.00119713)
(0.000365115 0.00230291 -0.00119713)
(-4.03276e-05 0.00233132 -0.00119713)
(-0.000444546 0.0022889 -0.00119713)
(-0.000835256 0.00217693 -0.00119713)
(-0.00126773 0.00233784 -0.000964896)
(-0.00165444 0.00208218 -0.000964896)
(-0.00199087 0.00176326 -0.000964896)
(-0.00226681 0.00139076 -0.000964896)
(-0.00247387 0.000976004 -0.000964896)
(-0.00260577 0.000531593 -0.000964896)
(-0.00265849 7.10284e-05 -0.000964896)
(-0.00263044 -0.000391693 -0.000964896)
(-0.00252246 -0.000842514 -0.000964896)
(-0.00233784 -0.00126773 -0.000964896)
(-0.00208218 -0.00165444 -0.000964896)
(-0.00176326 -0.00199087 -0.000964896)
(-0.00139076 -0.00226681 -0.000964896)
(-0.000976003 -0.00247387 -0.000964896)
(-0.000531593 -0.00260577 -0.000964896)
(-7.10283e-05 -0.00265849 -0.000964896)
(0.000391693 -0.00263044 -0.000964896)
(0.000842514 -0.00252246 -0.000964896)
(0.00126773 -0.00233784 -0.000964896)
(0.00165444 -0.00208218 -0.000964896)
(0.00199087 -0.00176326 -0.000964896)
(0.00226681 -0.00139076 -0.000964896)
(0.00247387 -0.000976003 -0.000964896)
(0.00260577 -0.000531593 -0.000964896)
(0.00265849 -7.10283e-05 -0.000964896)
(0.00263044 0.000391693 -0.000964896)
(0.00252246 0.000842514 -0.000964896)
(0.00233784 0.00126773 -0.000964896)
(0.00208218 0.00165444 -0.000964896)
(0.00176326 0.00199087 -0.000964896)
(0.00139076 0.00226681 -0.000964896)
(0.000976003 0.00247387 -0.000964896)
(0.000531593 0.00260577 -0.000964896)
(7.10284e-05 0.00265849 -0.000964896)
(-0.000391693 0.00263044 -0.000964896)
(-0.000842514 0.00252246 -0.000964896)
(-0.00146949 0.00224863 -0.00191272)
(-0.00183764 0.00195929 -0.00191272)
(-0.00214995 0.00161042 -0.00191272)
(-0.00239693 0.00121262 -0.00191272)
(-0.00257109 0.00077798 -0.00191272)
(-0.00266712 0.000319696 -0.00191272)
(-0.00268211 -0.000148302 -0.00191272)
(-0.00261561 -0.000611794 -0.00191272)
(-0.00246964 -0.0010567 -0.00191272)
(-0.00224863 -0.00146949 -0.00191272)
(-0.00195929 -0.00183764 -0.00191272)
(-0.00161042 -0.00214995 -0.00191272)
(-0.00121262 -0.00239693 -0.00191272)
(-0.00077798 -0.00257109 -0.00191272)
(-0.000319696 -0.00266712 -0.00191272)
(0.000148302 -0.00268211 -0.00191272)
(0.000611794 -0.00261561 -0.00191272)
(0.0010567 -0.00246964 -0.00191272)
(0.00146949 -0.00224863 -0.00191272)
(0.00183764 -0.00195929 -0.00191272)
(0.00214995 -0.00161042 -0.00191272)
(0.00239693 -0.00121262 -0.00191272)
(0.00257109 -0.000777979 -0.00191272)
(0.00266712 -0.000319695 -0.00191272)
(0.00268211 0.000148302 -0.00191272)
(0.00261561 0.000611794 -0.00191272)
(0.00246964 0.0010567 -0.00191272)
(0.00224863 0.00146949 -0.00191272)
(0.00195929 0.00183764 -0.00191272)
(0.00161042 0.00214995 -0.00191272)
(0.00121262 0.00239693 -0.00191272)
(0.00077798 0.00257109 -0.00191272)
(0.000319696 0.00266712 -0.00191272)
(-0.000148302 0.00268211 -0.00191272)
(-0.000611794 0.00261561 -0.00191272)
(-0.0010567 0.00246964 -0.00191272)
(-0.00151483 0.00258626 -0.00164252)
(-0.00194092 0.00228392 -0.00164252)
(-0.00230803 0.00191219 -0.00164252)
(-0.00260501 0.00148236 -0.00164252)
(-0.00282284 0.00100748 -0.00164252)
(-0.0029549 0.000501992 -0.00164252)
(-0.00299718 -1.87487e-05 -0.00164252)
(-0.00294839 -0.000538919 -0.00164252)
(-0.00281002 -0.00104272 -0.00164252)
(-0.00258626 -0.00151483 -0.00164252)
(-0.00228392 -0.00194092 -0.00164252)
(-0.00191219 -0.00230803 -0.00164252)
(-0.00148235 -0.00260501 -0.00164252)
(-0.00100748 -0.00282284 -0.00164252)
(-0.000501992 -0.0029549 -0.00164252)
(1.87489e-05 -0.00299718 -0.00164252)
(0.00053892 -0.00294839 -0.00164252)
(0.00104272 -0.00281002 -0.00164252)
(0.00151483 -0.00258626 -0.00164252)
(0.00194092 -0.00228392 -0.00164252)
(0.00230803 -0.00191219 -0.00164252)
(0.00260501 -0.00148235 -0.00164252)
(0.00282284 -0.00100748 -0.00164252)
(0.0029549 -0.000501992 -0.00164252)
(0.00299718 1.8749e-05 -0.00164252)
(0.00294839 0.00053892 -0.00164252)
(0.00281002 0.00104272 -0.00164252)
(0.00258626 0.00151483 -0.00164252)
(0.00228392 0.00194092 -0.00164252)
(0.00191219 0.00230803 -0.00164252)
(0.00148236 0.00260501 -0.00164252)
(0.00100748 0.00282284 -0.00164252)
(0.000501992 0.0029549 -0.00164252)
(-1.87488e-05 0.00299718 -0.00164252)
(-0.000538919 0.00294839 -0.00164252)
(-0.00104272 0.00281002 -0.00164252)
(-0.00162269 0.00287337 -0.0013915)
(-0.00209699 0.00254794 -0.0013915)
(-0.00250758 0.00214509 -0.0013915)
(-0.00284197 0.00167706 -0.0013915)
(-0.00309001 0.00115808 -0.0013915)
(-0.00324417 0.000603915 -0.0013915)
(-0.00329975 3.13959e-05 -0.0013915)
(-0.00325507 -0.000542078 -0.0013915)
(-0.00311149 -0.00109908 -0.0013915)
(-0.00287337 -0.00162269 -0.0013915)
(-0.00254794 -0.00209699 -0.0013915)
(-0.00214509 -0.00250758 -0.0013915)
(-0.00167706 -0.00284197 -0.0013915)
(-0.00115808 -0.00309001 -0.0013915)
(-0.000603915 -0.00324417 -0.0013915)
(-3.13957e-05 -0.00329975 -0.0013915)
(0.000542078 -0.00325507 -0.0013915)
(0.00109908 -0.00311149 -0.0013915)
(0.00162269 -0.00287337 -0.0013915)
(0.00209699 -0.00254794 -0.0013915)
(0.00250758 -0.00214509 -0.0013915)
(0.00284197 -0.00167706 -0.0013915)
(0.00309001 -0.00115808 -0.0013915)
(0.00324417 -0.000603915 -0.0013915)
(0.00329975 -3.13956e-05 -0.0013915)
(0.00325507 0.000542078 -0.0013915)
(0.00311149 0.00109908 -0.0013915)
(0.00287337 0.00162269 -0.0013915)
(0.00254794 0.00209699 -0.0013915)
(0.00214509 0.00250758 -0.0013915)
(0.00167706 0.00284197 -0.0013915)
(0.00115808 0.00309001 -0.0013915)
(0.000603915 0.00324417 -0.0013915)
(3.13958e-05 0.00329975 -0.0013915)
(-0.000542078 0.00325507 -0.0013915)
(-0.00109908 0.00311149 -0.0013915)
(-0.00175123 0.00289747 -0.00239624)
(-0.00222777 0.00254935 -0.00239624)
(-0.00263661 0.00212377 -0.00239624)
(-0.00296534 0.00163367 -0.00239624)
(-0.00320398 0.00109392 -0.00239624)
(-0.00334526 0.000520937 -0.00239624)
(-0.0033849 -6.78749e-05 -0.00239624)
(-0.00332169 -0.000654626 -0.00239624)
(-0.00315755 -0.00122149 -0.00239624)
(-0.00289747 -0.00175123 -0.00239624)
(-0.00254935 -0.00222777 -0.00239624)
(-0.00212377 -0.00263661 -0.00239624)
(-0.00163367 -0.00296534 -0.00239624)
(-0.00109392 -0.00320398 -0.00239624)
(-0.000520937 -0.00334526 -0.00239624)
(6.78752e-05 -0.0033849 -0.00239624)
(0.000654626 -0.00332169 -0.00239624)
(0.00122149 -0.00315755 -0.00239624)
(0.00175123 -0.00289747 -0.00239624)
(0.00222777 -0.00254935 -0.00239624)
(0.00263661 -0.00212377 -0.00239624)
(0.00296534 -0.00163367 -0.00239624)
(0.00320398 -0.00109392 -0.00239624)
(0.00334526 -0.000520937 -0.00239624)
(0.0033849 6.78753e-05 -0.00239624)
(0.00332169 0.000654626 -0.00239624)
(0.00315755 0.00122149 -0.00239624)
(0.00289747 0.00175123 -0.00239624)
(0.00254935 0.00222777 -0.00239624)
(0.00212377 0.00263661 -0.00239624)
(0.00163367 0.00296534 -0.00239624)
(0.00109392 0.00320398 -0.00239624)
(0.000520937 0.00334526 -0.00239624)
(-6.7875e-05 0.0033849 -0.00239624)
(-0.000654626 0.00332169 -0.00239624)
(-0.00122149 0.00315755 -0.00239624)
(-0.00182061 0.00316158 -0.00210832)
(-0.00234195 0.0027974 -0.00210832)
(-0.00279214 0.00234822 -0.00210832)
(-0.00315748 0.0018277 -0.00210832)
(-0.00342689 0.00125164 -0.00210832)
(-0.00359217 0.000637554 -0.00210832)
(-0.00364831 4.09447e-06 -0.00210832)
(-0.00359359 -0.00062949 -0.00210832)
(-0.00342969 -0.00124395 -0.00210832)
(-0.00316158 -0.00182061 -0.00210832)
(-0.0027974 -0.00234195 -0.00210832)
(-0.00234822 -0.00279214 -0.00210832)
(-0.0018277 -0.00315748 -0.00210832)
(-0.00125164 -0.00342689 -0.00210832)
(-0.000637554 -0.00359217 -0.00210832)
(-4.09422e-06 -0.00364831 -0.00210832)
(0.000629491 -0.00359359 -0.00210832)
(0.00124395 -0.00342969 -0.00210832)
(0.00182061 -0.00316158 -0.00210832)
(0.00234195 -0.0027974 -0.00210832)
(0.00279214 -0.00234822 -0.00210832)
(0.00315748 -0.0018277 -0.00210832)
(0.00342689 -0.00125164 -0.00210832)
(0.00359217 -0.000637554 -0.00210832)
(0.00364831 -4.09416e-06 -0.00210832)
(0.00359359 0.000629491 -0.00210832)
(0.00342969 0.00124395 -0.00210832)
(0.00316158 0.00182061 -0.00210832)
(0.0027974 0.00234195 -0.00210832)
(0.00234822 0.00279214 -0.00210832)
(0.0018277 0.00315748 -0.00210832)
(0.00125164 0.00342689 -0.00210832)
(0.000637554 0.00359217 -0.00210832)
(4.0944e-06 0.00364831 -0.00210832)
(-0.00062949 0.0035936 -0.00210832)
(-0.00124395 0.00342969 -0.00210832)
(-0.00194891 0.00336121 -0.00184636)
(-0.00250297 0.00297172 -0.00184636)
(-0.00298098 0.00249193 -0.00184636)
(-0.00336841 0.00193643 -0.00184636)
(-0.0036535 0.0013221 -0.00184636)
(-0.00382757 0.000667588 -0.00184636)
(-0.00388535 -7.20407e-06 -0.00184636)
(-0.00382507 -0.000681779 -0.00184636)
(-0.00364857 -0.00133564 -0.00184636)
(-0.00336121 -0.00194891 -0.00184636)
(-0.00297172 -0.00250297 -0.00184636)
(-0.00249193 -0.00298098 -0.00184636)
(-0.00193643 -0.00336841 -0.00184636)
(-0.0013221 -0.0036535 -0.00184636)
(-0.000667587 -0.00382757 -0.00184636)
(7.2043e-06 -0.00388535 -0.00184636)
(0.000681779 -0.00382507 -0.00184636)
(0.00133564 -0.00364857 -0.00184636)
(0.00194891 -0.00336121 -0.00184636)
(0.00250297 -0.00297172 -0.00184636)
(0.00298098 -0.00249193 -0.00184636)
(0.00336841 -0.00193643 -0.00184636)
(0.0036535 -0.0013221 -0.00184636)
(0.00382757 -0.000667587 -0.00184636)
(0.00388535 7.20436e-06 -0.00184636)
(0.00382507 0.000681779 -0.00184636)
(0.00364857 0.00133564 -0.00184636)
(0.00336121 0.00194891 -0.00184636)
(0.00297172 0.00250297 -0.00184636)
(0.00249193 0.00298098 -0.00184636)
(0.00193643 0.00336841 -0.00184636)
(0.0013221 0.0036535 -0.00184636)
(0.000667588 0.00382757 -0.00184636)
(-7.20413e-06 0.00388535 -0.00184636)
(-0.000681779 0.00382507 -0.00184636)
(-0.00133564 0.00364857 -0.00184636)
(-0.00205552 0.00352775 -0.00289838)
(-0.00263688 0.00311722 -0.00289838)
(-0.00313812 0.00261197 -0.00289838)
(-0.00354401 0.00202736 -0.00289838)
(-0.00384222 0.00138115 -0.00289838)
(-0.00402368 0.000692973 -0.00289838)
(-0.00408288 -1.62589e-05 -0.00289838)
(-0.00401803 -0.000724998 -0.00289838)
(-0.00383109 -0.00141171 -0.00289838)
(-0.00352775 -0.00205552 -0.00289838)
(-0.00311722 -0.00263688 -0.00289838)
(-0.00261197 -0.00313812 -0.00289838)
(-0.00202736 -0.00354401 -0.00289838)
(-0.00138115 -0.00384222 -0.00289838)
(-0.000692973 -0.00402368 -0.00289838)
(1.62592e-05 -0.00408288 -0.00289838)
(0.000724998 -0.00401803 -0.00289838)
(0.00141171 -0.00383109 -0.00289838)
(0.00205552 -0.00352775 -0.00289838)
(0.00263688 -0.00311722 -0.00289838)
(0.00313812 -0.00261197 -0.00289838)
(0.00354401 -0.00202736 -0.00289838)
(0.00384222 -0.00138115 -0.00289838)
(0.00402368 -0.000692973 -0.00289838)
(0.00408288 1.62593e-05 -0.00289838)
(0.00401803 0.000724999 -0.00289838)
(0.00383109 0.00141171 -0.00289838)
(0.00352775 0.00205552 -0.00289838)
(0.00311722 0.00263688 -0.00289838)
(0.00261197 0.00313812 -0.00289838)
(0.00202736 0.00354401 -0.00289838)
(0.00138115 0.00384222 -0.00289838)
(0.000692973 0.00402368 -0.00289838)
(-1.6259e-05 0.00408288 -0.00289838)
(-0.000724998 0.00401803 -0.00289838)
(-0.00141171 0.0038311 -0.00289838)
(-0.00212759 0.00369614 -0.00259216)
(-0.0027371 0.00327054 -0.00259216)
(-0.00326344 0.00274556 -0.00259216)
(-0.00369062 0.00213716 -0.00259216)
(-0.00400566 0.00146382 -0.00259216)
(-0.004199 0.000746007 -0.00259216)
(-0.00426475 5.52425e-06 -0.00259216)
(-0.00420092 -0.000735125 -0.00259216)
(-0.00400944 -0.00145344 -0.00259216)
(-0.00369614 -0.00212759 -0.00259216)
(-0.00327054 -0.0027371 -0.00259216)
(-0.00274556 -0.00326344 -0.00259216)
(-0.00213716 -0.00369062 -0.00259216)
(-0.00146382 -0.00400566 -0.00259216)
(-0.000746007 -0.004199 -0.00259216)
(-5.52394e-06 -0.00426475 -0.00259216)
(0.000735126 -0.00420092 -0.00259216)
(0.00145344 -0.00400944 -0.00259216)
(0.00212759 -0.00369614 -0.00259216)
(0.0027371 -0.00327054 -0.00259216)
(0.00326344 -0.00274556 -0.00259216)
(0.00369062 -0.00213716 -0.00259216)
(0.00400566 -0.00146382 -0.00259216)
(0.004199 -0.000746007 -0.00259216)
(0.00426475 -5.5239e-06 -0.00259216)
(0.00420092 0.000735126 -0.00259216)
(0.00400944 0.00145344 -0.00259216)
(0.00369614 0.00212759 -0.00259216)
(0.00327054 0.0027371 -0.00259216)
(0.00274556 0.00326344 -0.00259216)
(0.00213716 0.00369062 -0.00259216)
(0.00146382 0.00400566 -0.00259216)
(0.000746007 0.004199 -0.00259216)
(5.52419e-06 0.00426475 -0.00259216)
(-0.000735125 0.00420092 -0.00259216)
(-0.00145344 0.00400944 -0.00259216)
(-0.00225203 0.00379185 -0.0023174)
(-0.00287626 0.00334319 -0.0023174)
(-0.0034131 0.00279294 -0.0023174)
(-0.00384624 0.00215783 -0.0023174)
(-0.00416251 0.00145715 -0.0023174)
(-0.0043523 0.000712205 -0.0023174)
(-0.00440985 -5.43839e-05 -0.0023174)
(-0.00433341 -0.000819321 -0.0023174)
(-0.00412531 -0.00155936 -0.0023174)
(-0.00379185 -0.00225203 -0.0023174)
(-0.00334319 -0.00287626 -0.0023174)
(-0.00279294 -0.0034131 -0.0023174)
(-0.00215783 -0.00384624 -0.0023174)
(-0.00145715 -0.00416251 -0.0023174)
(-0.000712205 -0.0043523 -0.0023174)
(5.43842e-05 -0.00440985 -0.0023174)
(0.000819321 -0.00433341 -0.0023174)
(0.00155936 -0.00412531 -0.0023174)
(0.00225203 -0.00379185 -0.0023174)
(0.00287626 -0.00334319 -0.0023174)
(0.0034131 -0.00279294 -0.0023174)
(0.00384624 -0.00215783 -0.0023174)
(0.00416251 -0.00145715 -0.0023174)
(0.0043523 -0.000712205 -0.0023174)
(0.00440985 5.43843e-05 -0.0023174)
(0.00433341 0.000819321 -0.0023174)
(0.00412531 0.00155936 -0.0023174)
(0.00379185 0.00225203 -0.0023174)
(0.00334319 0.00287626 -0.0023174)
(0.00279294 0.0034131 -0.0023174)
(0.00215783 0.00384624 -0.0023174)
(0.00145715 0.00416251 -0.0023174)
(0.000712205 0.0043523 -0.0023174)
(-5.4384e-05 0.00440985 -0.0023174)
(-0.000819321 0.00433341 -0.0023174)
(-0.00155936 0.00412531 -0.0023174)
(-0.00238674 0.00408418 -0.00342162)
(-0.00305968 0.00360768 -0.00342162)
(-0.00363967 0.00302156 -0.00342162)
(-0.00410906 0.00234363 -0.00342162)
(-0.0044536 0.0015945 -0.00342162)
(-0.00466282 0.000796912 -0.00342162)
(-0.00473037 -2.48857e-05 -0.00342162)
(-0.00465418 -0.000845928 -0.00342162)
(-0.00443658 -0.00164127 -0.00342162)