/*--------------------------------*- C++ -*----------------------------------*\
| =========                 |                                                 |
| \\      /  F ield         | OpenFOAM: The Open Source CFD Toolbox           |
|  \\    /   O peration     | Version:  2312                                  |
|   \\  /    A nd           | Website:  www.openfoam.com                      |
|    \\/     M anipulation  |                                                 |
\*---------------------------------------------------------------------------*/
FoamFile
{
    version     2.0;
    format      ascii;
    arch        "LSB;label=32;scalar=64";
    class       volTensorField;
    location    "1";
    object      F;
}
// * * * * * * * * * * * * * * * * * * * * * * * * * * * * * * * * * * * * * //

dimensions      [0 0 0 0 0 0 0];

internalField   nonuniform List<tensor> 
1620
(
(0.902959 -0.0236164 0.163326 -0.132487 0.958821 -0.233333 -0.0599607 -0.00524614 1.1811)
(0.931339 -0.0284625 0.201363 -0.137334 0.930442 -0.201427 -0.0581393 -0.0155784 1.1811)
(0.959664 -0.02331 0.233281 -0.132181 0.902116 -0.1634 -0.0545506 -0.025437 1.1811)
(0.984519 -0.00877992 0.258111 -0.117651 0.877262 -0.120409 -0.0493043 -0.0345232 1.1811)
(1.00291 0.013375 0.275099 -0.0954959 0.858875 -0.07376 -0.0425605 -0.0425608 1.1811)
(1.01261 0.040482 0.283728 -0.0683888 0.849174 -0.0248691 -0.0345236 -0.0493046 1.1811)
(1.01245 0.0692717 0.283736 -0.0395988 0.84933 0.0247777 -0.0254373 -0.05455 1.1811)
(1.00246 0.0962725 0.275122 -0.0125981 0.859323 0.0736716 -0.0155781 -0.0581385 1.1811)
(0.983832 0.118227 0.258149 0.0093563 0.877948 0.120327 -0.00524571 -0.0599606 1.1811)
(0.958821 0.132487 0.233333 0.0236164 0.902959 0.163326 0.00524613 -0.0599607 1.1811)
(0.930442 0.137334 0.201427 0.0284625 0.931339 0.201363 0.0155784 -0.0581393 1.1811)
(0.902116 0.132181 0.1634 0.02331 0.959664 0.233281 0.025437 -0.0545506 1.1811)
(0.877262 0.117651 0.120409 0.00877992 0.984519 0.258111 0.0345232 -0.0493043 1.1811)
(0.858875 0.095496 0.0737599 -0.013375 1.00291 0.275099 0.0425608 -0.0425605 1.1811)
(0.849174 0.0683888 0.024869 -0.0404819 1.01261 0.283728 0.0493046 -0.0345236 1.1811)
(0.84933 0.0395988 -0.0247777 -0.0692717 1.01245 0.283736 0.05455 -0.0254373 1.1811)
(0.859323 0.0125981 -0.0736716 -0.0962725 1.00246 0.275122 0.0581385 -0.0155781 1.1811)
(0.877948 -0.0093563 -0.120327 -0.118227 0.983832 0.258149 0.0599606 -0.00524571 1.1811)
(0.902959 -0.0236164 -0.163326 -0.132487 0.958821 0.233333 0.0599607 0.00524613 1.1811)
(0.931339 -0.0284625 -0.201363 -0.137334 0.930442 0.201427 0.0581393 0.0155784 1.1811)
(0.959664 -0.02331 -0.233281 -0.132181 0.902116 0.1634 0.0545506 0.025437 1.1811)
(0.984519 -0.00877992 -0.258111 -0.117651 0.877262 0.120409 0.0493043 0.0345232 1.1811)
(1.00291 0.013375 -0.275099 -0.095496 0.858875 0.0737599 0.0425605 0.0425608 1.1811)
(1.01261 0.0404819 -0.283728 -0.0683888 0.849174 0.024869 0.0345236 0.0493046 1.1811)
(1.01245 0.0692717 -0.283736 -0.0395988 0.84933 -0.0247778 0.0254373 0.05455 1.1811)
(1.00246 0.0962725 -0.275122 -0.0125981 0.859323 -0.0736716 0.0155781 0.0581385 1.1811)
(0.983832 0.118227 -0.258149 0.0093563 0.877948 -0.120327 0.00524571 0.0599606 1.1811)
(0.958821 0.132487 -0.233333 0.0236164 0.902959 -0.163326 -0.00524613 0.0599607 1.1811)
(0.930442 0.137334 -0.201427 0.0284625 0.931339 -0.201363 -0.0155784 0.0581393 1.1811)
(0.902116 0.132181 -0.1634 0.02331 0.959664 -0.233281 -0.025437 0.0545506 1.1811)
(0.877262 0.117651 -0.120409 0.00877992 0.984519 -0.258111 -0.0345232 0.0493043 1.1811)
(0.858875 0.0954959 -0.07376 -0.013375 1.00291 -0.275099 -0.0425608 0.0425605 1.1811)
(0.849174 0.0683888 -0.0248691 -0.0404819 1.01261 -0.283728 -0.0493046 0.0345236 1.1811)
(0.84933 0.0395987 0.0247777 -0.0692717 1.01245 -0.283736 -0.05455 0.0254373 1.1811)
(0.859323 0.0125981 0.0736716 -0.0962724 1.00246 -0.275122 -0.0581385 0.0155781 1.1811)
(0.877948 -0.0093563 0.120327 -0.118227 0.983832 -0.258149 -0.0599606 0.00524571 1.1811)
(0.920332 -0.0405087 0.175709 -0.137546 0.966787 -0.300805 -0.0520626 -0.00455496 1.1421)
(0.952182 -0.0430839 0.225274 -0.140121 0.934937 -0.265723 -0.0504811 -0.0135264 1.1421)
(0.982991 -0.0346108 0.267994 -0.131648 0.904127 -0.222568 -0.047365 -0.0220866 1.1421)
(1.00905 -0.0161111 0.302571 -0.113148 0.878074 -0.17265 -0.04281 -0.0299758 1.1421)
(1.0272 0.0101843 0.327955 -0.0868528 0.859918 -0.117487 -0.0369545 -0.0369546 1.1421)
(1.03527 0.0411033 0.343374 -0.0559337 0.851851 -0.0587528 -0.029976 -0.0428101 1.1421)
(1.03227 0.0729162 0.348359 -0.0241205 0.854846 0.0017661 -0.0220866 -0.0473647 1.1421)
(1.01858 0.101787 0.34276 0.00474999 0.868541 0.0622313 -0.0135261 -0.0504803 1.1421)
(0.995835 0.124232 0.326747 0.0271955 0.891284 0.120806 -0.0045548 -0.0520625 1.1421)
(0.966787 0.137546 0.300805 0.0405087 0.920332 0.175709 0.00455495 -0.0520626 1.1421)
(0.934937 0.140121 0.265723 0.0430839 0.952182 0.225274 0.0135264 -0.050481 1.1421)
(0.904127 0.131648 0.222568 0.0346108 0.982991 0.267994 0.0220866 -0.047365 1.1421)
(0.878074 0.113148 0.17265 0.0161111 1.00905 0.302571 0.0299758 -0.0428099 1.1421)
(0.859918 0.0868528 0.117487 -0.0101843 1.0272 0.327955 0.0369546 -0.0369545 1.1421)
(0.851851 0.0559337 0.0587527 -0.0411032 1.03527 0.343374 0.0428101 -0.029976 1.1421)
(0.854846 0.0241205 -0.00176611 -0.0729162 1.03227 0.348359 0.0473647 -0.0220866 1.1421)
(0.868541 -0.00474998 -0.0622314 -0.101787 1.01858 0.34276 0.0504803 -0.0135261 1.1421)
(0.891284 -0.0271955 -0.120806 -0.124232 0.995835 0.326747 0.0520625 -0.0045548 1.1421)
(0.920332 -0.0405087 -0.175709 -0.137546 0.966787 0.300805 0.0520626 0.00455495 1.1421)
(0.952182 -0.0430839 -0.225274 -0.140121 0.934937 0.265723 0.050481 0.0135264 1.1421)
(0.982991 -0.0346108 -0.267994 -0.131648 0.904127 0.222568 0.047365 0.0220866 1.1421)
(1.00905 -0.0161111 -0.302571 -0.113148 0.878074 0.17265 0.0428099 0.0299758 1.1421)
(1.0272 0.0101843 -0.327955 -0.0868528 0.859918 0.117487 0.0369545 0.0369545 1.1421)
(1.03527 0.0411032 -0.343374 -0.0559337 0.851851 0.0587527 0.029976 0.0428101 1.1421)
(1.03227 0.0729162 -0.348359 -0.0241205 0.854846 -0.00176613 0.0220866 0.0473647 1.1421)
(1.01858 0.101787 -0.34276 0.00474999 0.868541 -0.0622314 0.0135261 0.0504803 1.1421)
(0.995835 0.124232 -0.326747 0.0271955 0.891284 -0.120806 0.00455481 0.0520624 1.1421)
(0.966787 0.137546 -0.300805 0.0405087 0.920332 -0.175709 -0.00455495 0.0520626 1.1421)
(0.934937 0.140121 -0.265723 0.0430839 0.952182 -0.225274 -0.0135264 0.050481 1.1421)
(0.904127 0.131648 -0.222568 0.0346108 0.982991 -0.267994 -0.0220866 0.047365 1.1421)
(0.878074 0.113148 -0.17265 0.0161111 1.00905 -0.302571 -0.0299758 0.0428099 1.1421)
(0.859918 0.0868528 -0.117487 -0.0101843 1.0272 -0.327955 -0.0369545 0.0369545 1.1421)
(0.851851 0.0559337 -0.0587528 -0.0411033 1.03527 -0.343374 -0.0428101 0.029976 1.1421)
(0.854846 0.0241205 0.00176611 -0.0729162 1.03227 -0.348359 -0.0473647 0.0220866 1.1421)
(0.868541 -0.00474999 0.0622314 -0.101787 1.01858 -0.34276 -0.0504803 0.0135261 1.1421)
(0.891284 -0.0271955 0.120806 -0.124232 0.995835 -0.326747 -0.0520625 0.0045548 1.1421)
(0.940142 -0.0632406 0.194852 -0.14089 0.972592 -0.365297 -0.043025 -0.00376411 1.09652)
(0.976029 -0.0626345 0.255324 -0.140284 0.936705 -0.325911 -0.041718 -0.0111783 1.09652)
(1.00954 -0.049791 0.308039 -0.127441 0.903189 -0.276623 -0.0391428 -0.0182527 1.09652)
(1.03665 -0.0262592 0.351394 -0.103909 0.876088 -0.218931 -0.0353786 -0.0247722 1.09652)
(1.05406 0.00512275 0.384073 -0.0725265 0.858669 -0.154586 -0.0305395 -0.0305395 1.09652)
(1.0597 0.0405699 0.405081 -0.0370791 0.853035 -0.0855432 -0.0247723 -0.0353787 1.09652)
(1.05287 0.0758061 0.413782 -0.00184281 0.859863 -0.0139019 -0.0182524 -0.0391426 1.09652)
(1.0344 0.106582 0.40991 0.0289331 0.878332 0.0581618 -0.0111781 -0.0417173 1.09652)
(1.00652 0.129186 0.393583 0.0515364 0.906213 0.128458 -0.00376428 -0.0430249 1.09652)
(0.972592 0.14089 0.365297 0.0632406 0.940142 0.194852 0.00376411 -0.043025 1.09652)
(0.936705 0.140284 0.325911 0.0626345 0.976029 0.255324 0.0111783 -0.041718 1.09652)
(0.903189 0.127441 0.276623 0.049791 1.00954 0.308039 0.0182527 -0.0391428 1.09652)
(0.876088 0.103909 0.218931 0.0262592 1.03665 0.351394 0.0247722 -0.0353786 1.09652)
(0.858669 0.0725265 0.154586 -0.00512274 1.05406 0.384073 0.0305395 -0.0305395 1.09652)
(0.853035 0.0370792 0.0855432 -0.0405699 1.0597 0.405081 0.0353787 -0.0247723 1.09652)
(0.859863 0.00184282 0.0139019 -0.0758061 1.05287 0.413782 0.0391426 -0.0182524 1.09652)
(0.878332 -0.0289331 -0.0581618 -0.106582 1.0344 0.40991 0.0417173 -0.0111781 1.09652)
(0.906212 -0.0515364 -0.128458 -0.129186 1.00652 0.393583 0.0430249 -0.00376428 1.09652)
(0.940142 -0.0632406 -0.194852 -0.14089 0.972592 0.365297 0.043025 0.0037641 1.09652)
(0.976029 -0.0626345 -0.255324 -0.140284 0.936705 0.325911 0.041718 0.0111783 1.09652)
(1.00954 -0.049791 -0.308039 -0.127441 0.903189 0.276623 0.0391428 0.0182527 1.09652)
(1.03665 -0.0262592 -0.351394 -0.103909 0.876088 0.218931 0.0353786 0.0247722 1.09652)
(1.05406 0.00512274 -0.384073 -0.0725265 0.858669 0.154586 0.0305395 0.0305395 1.09652)
(1.0597 0.0405699 -0.405081 -0.0370791 0.853035 0.0855432 0.0247723 0.0353786 1.09652)
(1.05287 0.0758061 -0.413782 -0.00184281 0.859863 0.0139018 0.0182524 0.0391426 1.09652)
(1.0344 0.106582 -0.40991 0.0289331 0.878332 -0.0581618 0.0111781 0.0417173 1.09652)
(1.00652 0.129186 -0.393583 0.0515364 0.906213 -0.128458 0.00376428 0.0430249 1.09652)
(0.972592 0.14089 -0.365297 0.0632406 0.940142 -0.194852 -0.0037641 0.043025 1.09652)
(0.936705 0.140284 -0.325911 0.0626345 0.976029 -0.255324 -0.0111783 0.041718 1.09652)
(0.903189 0.127441 -0.276623 0.049791 1.00954 -0.308039 -0.0182527 0.0391428 1.09652)
(0.876088 0.103909 -0.218931 0.0262592 1.03665 -0.351394 -0.0247722 0.0353786 1.09652)
(0.858669 0.0725265 -0.154586 -0.00512275 1.05406 -0.384073 -0.0305395 0.0305395 1.09652)
(0.853035 0.0370791 -0.0855432 -0.0405699 1.0597 -0.405081 -0.0353786 0.0247723 1.09652)
(0.859863 0.0018428 -0.0139019 -0.0758061 1.05287 -0.413782 -0.0391426 0.0182524 1.09652)
(0.878332 -0.0289331 0.0581618 -0.106582 1.0344 -0.40991 -0.0417173 0.0111781 1.09652)
(0.906213 -0.0515364 0.128458 -0.129186 1.00652 -0.393583 -0.0430249 0.00376428 1.09652)
(0.928009 -0.0673115 0.161226 -0.257883 0.912956 -0.251273 -0.135136 -0.0118232 1.19744)
(0.983166 -0.0549317 0.202409 -0.245503 0.857799 -0.219459 -0.13103 -0.0351096 1.19744)
(1.03076 -0.0244339 0.237443 -0.215005 0.810202 -0.180977 -0.122943 -0.0573285 1.19744)
(1.06506 0.0205041 0.265262 -0.170067 0.775907 -0.136996 -0.111119 -0.0778057 1.19744)
(1.08192 0.0744622 0.285021 -0.116108 0.75905 -0.0888524 -0.0959196 -0.0959196 1.19744)
(1.0793 0.130932 0.29612 -0.0596384 0.761663 -0.0380093 -0.0778064 -0.111119 1.19744)
(1.05753 0.183101 0.298222 -0.00746858 0.783433 0.0139888 -0.0573285 -0.122942 1.19744)
(1.01923 0.22468 0.291262 0.0341093 0.821734 0.0655621 -0.0351088 -0.131029 1.19744)
(0.969021 0.250651 0.275452 0.0600801 0.871944 0.115143 -0.0118225 -0.135136 1.19744)
(0.912956 0.257883 0.251273 0.0673115 0.928009 0.161226 0.0118232 -0.135136 1.19744)
(0.857799 0.245503 0.219459 0.0549317 0.983166 0.202409 0.0351096 -0.13103 1.19744)
(0.810202 0.215005 0.180977 0.0244339 1.03076 0.237443 0.0573285 -0.122943 1.19744)
(0.775907 0.170067 0.136996 -0.0205041 1.06506 0.265262 0.0778057 -0.111119 1.19744)
(0.75905 0.116108 0.0888524 -0.0744622 1.08192 0.285021 0.0959196 -0.0959196 1.19744)
(0.761663 0.0596384 0.0380093 -0.130932 1.0793 0.29612 0.111119 -0.0778064 1.19744)
(0.783433 0.00746858 -0.0139888 -0.183101 1.05753 0.298222 0.122942 -0.0573285 1.19744)
(0.821734 -0.0341093 -0.0655621 -0.22468 1.01923 0.291262 0.131029 -0.0351088 1.19744)
(0.871944 -0.0600801 -0.115143 -0.250651 0.969021 0.275452 0.135136 -0.0118225 1.19744)
(0.928009 -0.0673115 -0.161226 -0.257883 0.912956 0.251273 0.135136 0.0118232 1.19744)
(0.983166 -0.0549317 -0.202409 -0.245503 0.857799 0.219459 0.13103 0.0351096 1.19744)
(1.03076 -0.0244339 -0.237443 -0.215005 0.810202 0.180977 0.122943 0.0573285 1.19744)
(1.06506 0.0205041 -0.265262 -0.170067 0.775907 0.136996 0.111119 0.0778056 1.19744)
(1.08192 0.0744622 -0.285021 -0.116108 0.75905 0.0888524 0.0959196 0.0959196 1.19744)
(1.0793 0.130932 -0.29612 -0.0596384 0.761663 0.0380093 0.0778064 0.111119 1.19744)
(1.05753 0.183101 -0.298222 -0.00746858 0.783433 -0.0139889 0.0573285 0.122942 1.19744)
(1.01923 0.22468 -0.291262 0.0341093 0.821734 -0.0655621 0.0351088 0.131029 1.19744)
(0.969021 0.250651 -0.275452 0.0600801 0.871944 -0.115143 0.0118225 0.135136 1.19744)
(0.912956 0.257883 -0.251273 0.0673115 0.928009 -0.161226 -0.0118232 0.135136 1.19744)
(0.857799 0.245503 -0.219459 0.0549317 0.983166 -0.202409 -0.0351096 0.13103 1.19744)
(0.810202 0.215005 -0.180977 0.0244339 1.03076 -0.237443 -0.0573285 0.122943 1.19744)
(0.775907 0.170067 -0.136996 -0.0205041 1.06506 -0.265262 -0.0778056 0.111119 1.19744)
(0.75905 0.116108 -0.0888524 -0.0744622 1.08192 -0.285021 -0.0959196 0.0959196 1.19744)
(0.761663 0.0596384 -0.0380093 -0.130932 1.0793 -0.29612 -0.111119 0.0778064 1.19744)
(0.783433 0.00746856 0.0139888 -0.183101 1.05753 -0.298222 -0.122942 0.0573285 1.19744)
(0.821734 -0.0341093 0.0655621 -0.22468 1.01923 -0.291262 -0.131029 0.0351088 1.19744)
(0.871944 -0.0600801 0.115143 -0.250651 0.969021 -0.275452 -0.135136 0.0118225 1.19744)
(0.953548 -0.104029 0.178472 -0.2603 0.914394 -0.308643 -0.134086 -0.0117312 1.16239)
(1.01467 -0.0863474 0.229356 -0.242619 0.853271 -0.272963 -0.130012 -0.0348367 1.16239)
(1.06606 -0.0488271 0.273271 -0.205098 0.801882 -0.228988 -0.121988 -0.0568835 1.16239)
(1.10152 0.00400629 0.308883 -0.152264 0.766425 -0.178057 -0.110256 -0.0772015 1.16239)
(1.11677 0.0657815 0.335109 -0.0904882 0.751176 -0.121715 -0.0951745 -0.0951743 1.16239)
(1.10997 0.129047 0.351154 -0.0272229 0.757974 -0.0616744 -0.0772017 -0.110256 1.16239)
(1.08194 0.186171 0.356529 0.0299013 0.786001 0.000239887 -0.0568832 -0.121987 1.16239)
(1.03607 0.230265 0.351071 0.0739947 0.831876 0.0621471 -0.0348362 -0.130011 1.16239)
(0.977879 0.25601 0.334945 0.0997389 0.890064 0.122166 -0.0117308 -0.134086 1.16239)
(0.914394 0.2603 0.308643 0.104029 0.953548 0.178472 0.0117312 -0.134086 1.16239)
(0.853271 0.242619 0.272963 0.0863474 1.01467 0.229356 0.0348367 -0.130012 1.16239)
(0.801882 0.205098 0.228988 0.0488271 1.06606 0.273271 0.0568835 -0.121988 1.16239)
(0.766425 0.152264 0.178057 -0.00400628 1.10152 0.308883 0.0772015 -0.110256 1.16239)
(0.751176 0.0904882 0.121715 -0.0657814 1.11677 0.335109 0.0951743 -0.0951745 1.16239)
(0.757974 0.0272229 0.0616744 -0.129047 1.10997 0.351154 0.110256 -0.0772017 1.16239)
(0.786001 -0.0299013 -0.000239904 -0.186171 1.08194 0.356529 0.121987 -0.0568832 1.16239)
(0.831876 -0.0739947 -0.0621471 -0.230265 1.03607 0.351071 0.130011 -0.0348362 1.16239)
(0.890064 -0.0997389 -0.122166 -0.25601 0.977879 0.334945 0.134086 -0.0117308 1.16239)
(0.953548 -0.104029 -0.178472 -0.2603 0.914394 0.308643 0.134086 0.0117312 1.16239)
(1.01467 -0.0863474 -0.229356 -0.242619 0.853271 0.272963 0.130012 0.0348367 1.16239)
(1.06606 -0.0488271 -0.273271 -0.205098 0.801882 0.228988 0.121988 0.0568835 1.16239)
(1.10152 0.00400628 -0.308883 -0.152264 0.766425 0.178057 0.110256 0.0772015 1.16239)
(1.11677 0.0657814 -0.335109 -0.0904882 0.751176 0.121715 0.0951745 0.0951743 1.16239)
(1.10997 0.129047 -0.351154 -0.0272229 0.757974 0.0616744 0.0772017 0.110256 1.16239)
(1.08194 0.186171 -0.356529 0.0299013 0.786001 -0.000239914 0.0568832 0.121987 1.16239)
(1.03607 0.230265 -0.351071 0.0739947 0.831876 -0.0621471 0.0348362 0.130011 1.16239)
(0.977879 0.25601 -0.334945 0.0997389 0.890064 -0.122166 0.0117308 0.134086 1.16239)
(0.914394 0.2603 -0.308643 0.104029 0.953548 -0.178472 -0.0117312 0.134086 1.16239)
(0.853271 0.242619 -0.272963 0.0863474 1.01467 -0.229356 -0.0348367 0.130012 1.16239)
(0.801882 0.205098 -0.228988 0.0488271 1.06606 -0.273271 -0.0568835 0.121988 1.16239)
(0.766425 0.152264 -0.178057 -0.00400628 1.10152 -0.308883 -0.0772014 0.110256 1.16239)
(0.751176 0.0904882 -0.121715 -0.0657814 1.11677 -0.335109 -0.0951743 0.0951745 1.16239)
(0.757974 0.0272229 -0.0616744 -0.129047 1.10997 -0.351154 -0.110256 0.0772017 1.16239)
(0.786001 -0.0299013 0.000239896 -0.186171 1.08194 -0.356529 -0.121987 0.0568832 1.16239)
(0.831876 -0.0739947 0.0621471 -0.230265 1.03607 -0.351071 -0.130011 0.0348361 1.16239)
(0.890064 -0.0997389 0.122166 -0.25601 0.977879 -0.334945 -0.134086 0.0117308 1.16239)
(0.981759 -0.150898 0.202432 -0.258508 0.910502 -0.361431 -0.130932 -0.011455 1.12437)
(1.04962 -0.126367 0.262119 -0.233978 0.842638 -0.320788 -0.126955 -0.0340173 1.12437)
(1.105 -0.0801057 0.313841 -0.187716 0.787257 -0.270398 -0.119118 -0.055546 1.12437)
(1.14122 -0.0176924 0.356027 -0.125302 0.751039 -0.211792 -0.107663 -0.0753863 1.12437)
(1.15391 0.0533446 0.387395 -0.0542641 0.738351 -0.146751 -0.0929362 -0.0929361 1.12437)
(1.14154 0.124438 0.406993 0.016829 0.750724 -0.0772513 -0.075386 -0.107663 1.12437)
(1.10559 0.187011 0.414224 0.0794021 0.786667 -0.00540395 -0.0555453 -0.119118 1.12437)
(1.05042 0.233518 0.40887 0.125909 0.841843 0.0666076 -0.0340171 -0.126953 1.12437)
(0.982663 0.258349 0.391092 0.150739 0.909597 0.136595 -0.0114551 -0.130932 1.12437)
(0.910502 0.258508 0.361431 0.150898 0.981759 0.202432 0.011455 -0.130932 1.12437)
(0.842638 0.233978 0.320788 0.126367 1.04962 0.262119 0.0340173 -0.126955 1.12437)
(0.787257 0.187716 0.270398 0.0801057 1.105 0.313841 0.055546 -0.119118 1.12437)
(0.751039 0.125302 0.211792 0.0176924 1.14122 0.356027 0.0753863 -0.107663 1.12437)
(0.738351 0.0542641 0.146751 -0.0533446 1.15391 0.387395 0.0929361 -0.0929362 1.12437)
(0.750724 -0.016829 0.0772513 -0.124438 1.14154 0.406993 0.107663 -0.075386 1.12437)
(0.786667 -0.0794021 0.00540393 -0.187011 1.10559 0.414224 0.119118 -0.0555453 1.12437)
(0.841843 -0.125909 -0.0666076 -0.233518 1.05042 0.40887 0.126953 -0.0340171 1.12437)
(0.909597 -0.150739 -0.136595 -0.258349 0.982663 0.391092 0.130932 -0.0114551 1.12437)
(0.981759 -0.150898 -0.202432 -0.258508 0.910502 0.361431 0.130932 0.011455 1.12437)
(1.04962 -0.126367 -0.262119 -0.233978 0.842638 0.320788 0.126955 0.0340173 1.12437)
(1.105 -0.0801057 -0.313841 -0.187716 0.787257 0.270398 0.119118 0.0555459 1.12437)
(1.14122 -0.0176924 -0.356027 -0.125302 0.751039 0.211792 0.107663 0.0753863 1.12437)
(1.15391 0.0533446 -0.387395 -0.0542641 0.738351 0.146751 0.0929362 0.0929361 1.12437)
(1.14154 0.124438 -0.406993 0.016829 0.750724 0.0772512 0.075386 0.107663 1.12437)
(1.10559 0.187011 -0.414224 0.0794021 0.786667 0.00540392 0.0555453 0.119118 1.12437)
(1.05042 0.233518 -0.40887 0.125909 0.841843 -0.0666077 0.0340171 0.126953 1.12437)
(0.982663 0.258349 -0.391092 0.150739 0.909597 -0.136595 0.0114551 0.130932 1.12437)
(0.910502 0.258508 -0.361431 0.150898 0.981759 -0.202432 -0.011455 0.130932 1.12437)
(0.842638 0.233978 -0.320788 0.126367 1.04962 -0.262119 -0.0340173 0.126955 1.12437)
(0.787257 0.187716 -0.270398 0.0801057 1.105 -0.313841 -0.0555459 0.119118 1.12437)
(0.751039 0.125302 -0.211792 0.0176924 1.14122 -0.356027 -0.0753863 0.107663 1.12437)
(0.738351 0.0542641 -0.146751 -0.0533446 1.15391 -0.387395 -0.0929361 0.0929362 1.12437)
(0.750724 -0.016829 -0.0772513 -0.124438 1.14154 -0.406993 -0.107663 0.075386 1.12437)
(0.786667 -0.0794021 -0.00540394 -0.187011 1.10559 -0.414224 -0.119118 0.0555453 1.12437)
(0.841843 -0.125909 0.0666076 -0.233518 1.05042 -0.40887 -0.126953 0.0340171 1.12437)
(0.909597 -0.150739 0.136595 -0.258348 0.982663 -0.391092 -0.130932 0.0114551 1.12437)
(0.97196 -0.114855 0.153329 -0.345324 0.872865 -0.272713 -0.193697 -0.0169466 1.23035)
(1.04767 -0.0840324 0.198355 -0.314502 0.797157 -0.241945 -0.187811 -0.0503239 1.23035)
(1.10827 -0.0291759 0.237355 -0.259646 0.736558 -0.203825 -0.17622 -0.0821718 1.23035)
(1.14645 0.0430986 0.269143 -0.187371 0.698375 -0.159512 -0.159273 -0.111523 1.23035)
(1.15761 0.124074 0.292753 -0.106395 0.687215 -0.110352 -0.137486 -0.137486 1.23035)
(1.1404 0.203983 0.307468 -0.0264855 0.704422 -0.0578397 -0.111523 -0.159271 1.23035)
(1.0969 0.273188 0.31284 0.0427196 0.747923 -0.00356981 -0.0821713 -0.176218 1.23035)
(1.03235 0.323342 0.308708 0.0928728 0.81247 0.0508086 -0.0503228 -0.18781 1.23035)
(0.954547 0.348395 0.295195 0.117925 0.890277 0.103643 -0.0169455 -0.193696 1.23035)
(0.872865 0.345324 0.272713 0.114855 0.97196 0.153329 0.0169465 -0.193697 1.23035)
(0.797157 0.314502 0.241945 0.0840324 1.04767 0.198355 0.0503239 -0.187811 1.23035)
(0.736558 0.259646 0.203825 0.0291759 1.10827 0.237355 0.0821718 -0.17622 1.23035)
(0.698375 0.187371 0.159512 -0.0430986 1.14645 0.269143 0.111523 -0.159273 1.23035)
(0.687215 0.106395 0.110352 -0.124074 1.15761 0.292753 0.137486 -0.137486 1.23035)
(0.704422 0.0264855 0.0578396 -0.203983 1.1404 0.307468 0.159271 -0.111523 1.23035)
(0.747923 -0.0427196 0.00356979 -0.273188 1.0969 0.31284 0.176218 -0.0821713 1.23035)
(0.81247 -0.0928728 -0.0508086 -0.323342 1.03235 0.308708 0.18781 -0.0503228 1.23035)
(0.890277 -0.117925 -0.103643 -0.348395 0.954547 0.295195 0.193696 -0.0169455 1.23035)
(0.97196 -0.114855 -0.153329 -0.345324 0.872865 0.272713 0.193697 0.0169465 1.23035)
(1.04767 -0.0840324 -0.198355 -0.314502 0.797157 0.241945 0.187811 0.0503238 1.23035)
(1.10827 -0.0291759 -0.237355 -0.259646 0.736558 0.203825 0.17622 0.0821718 1.23035)
(1.14645 0.0430986 -0.269143 -0.187371 0.698375 0.159512 0.159273 0.111523 1.23035)
(1.15761 0.124074 -0.292753 -0.106395 0.687215 0.110352 0.137486 0.137486 1.23035)
(1.1404 0.203983 -0.307468 -0.0264855 0.704422 0.0578396 0.111523 0.159271 1.23035)
(1.0969 0.273188 -0.31284 0.0427196 0.747923 0.00356978 0.0821714 0.176218 1.23035)
(1.03235 0.323342 -0.308708 0.0928728 0.81247 -0.0508086 0.0503228 0.18781 1.23035)
(0.954547 0.348395 -0.295195 0.117925 0.890277 -0.103643 0.0169455 0.193696 1.23035)
(0.872865 0.345324 -0.272713 0.114855 0.97196 -0.153329 -0.0169465 0.193697 1.23035)
(0.797157 0.314502 -0.241945 0.0840324 1.04767 -0.198355 -0.0503238 0.187811 1.23035)
(0.736558 0.259646 -0.203825 0.0291759 1.10827 -0.237355 -0.0821718 0.17622 1.23035)
(0.698375 0.187371 -0.159512 -0.0430986 1.14645 -0.269143 -0.111523 0.159273 1.23035)
(0.687215 0.106395 -0.110352 -0.124074 1.15761 -0.292753 -0.137486 0.137486 1.23035)
(0.704422 0.0264855 -0.0578397 -0.203983 1.1404 -0.307468 -0.159271 0.111523 1.23035)
(0.747923 -0.0427196 -0.0035698 -0.273188 1.0969 -0.31284 -0.176218 0.0821713 1.23035)
(0.81247 -0.0928728 0.0508086 -0.323342 1.03235 -0.308708 -0.18781 0.0503228 1.23035)
(0.890277 -0.117925 0.103643 -0.348395 0.954547 -0.295195 -0.193696 0.0169454 1.23035)
(1.00499 -0.166973 0.177452 -0.342021 0.866571 -0.305493 -0.192288 -0.0168232 1.20568)
(1.08786 -0.127954 0.227804 -0.303002 0.783702 -0.270038 -0.186446 -0.049958 1.20568)
(1.15239 -0.0629448 0.271235 -0.237993 0.719176 -0.226377 -0.174938 -0.0815747 1.20568)
(1.19079 0.0202126 0.306424 -0.154835 0.680776 -0.175839 -0.158114 -0.110712 1.20568)
(1.19843 0.111489 0.332303 -0.0635577 0.673133 -0.119957 -0.136487 -0.136486 1.20568)
(1.17439 0.199875 0.348085 0.0248286 0.697169 -0.060431 -0.110712 -0.158113 1.20568)
(1.12158 0.27471 0.35329 0.0996634 0.749986 0.000931222 -0.081574 -0.174936 1.20568)
(1.04635 0.326967 0.347761 0.15192 0.825213 0.0622652 -0.0499572 -0.186444 1.20568)
(0.957788 0.350345 0.331666 0.175297 0.913776 0.121708 -0.0168227 -0.192288 1.20568)
(0.866571 0.342021 0.305493 0.166973 1.00499 0.177452 0.0168232 -0.192288 1.20568)
(0.783702 0.303002 0.270038 0.127954 1.08786 0.227804 0.0499579 -0.186446 1.20568)
(0.719176 0.237993 0.226377 0.0629448 1.15239 0.271235 0.0815747 -0.174938 1.20568)
(0.680776 0.154835 0.175839 -0.0202126 1.19079 0.306424 0.110712 -0.158114 1.20568)
(0.673133 0.0635578 0.119957 -0.111489 1.19843 0.332303 0.136486 -0.136487 1.20568)
(0.697169 -0.0248286 0.060431 -0.199875 1.17439 0.348085 0.158113 -0.110712 1.20568)
(0.749986 -0.0996634 -0.000931242 -0.27471 1.12158 0.35329 0.174936 -0.081574 1.20568)
(0.825213 -0.15192 -0.0622653 -0.326967 1.04635 0.347761 0.186444 -0.0499572 1.20568)
(0.913776 -0.175297 -0.121708 -0.350345 0.957788 0.331666 0.192288 -0.0168227 1.20568)
(1.00499 -0.166973 -0.177452 -0.342021 0.866571 0.305493 0.192288 0.0168232 1.20568)
(1.08786 -0.127954 -0.227804 -0.303002 0.783702 0.270038 0.186446 0.0499579 1.20568)
(1.15239 -0.0629448 -0.271235 -0.237993 0.719176 0.226377 0.174938 0.0815747 1.20568)
(1.19079 0.0202126 -0.306424 -0.154835 0.680776 0.175839 0.158114 0.110712 1.20568)
(1.19843 0.111489 -0.332303 -0.0635578 0.673133 0.119957 0.136487 0.136486 1.20568)
(1.17439 0.199875 -0.348085 0.0248286 0.697169 0.0604309 0.110712 0.158113 1.20568)
(1.12158 0.27471 -0.35329 0.0996634 0.749986 -0.000931249 0.081574 0.174936 1.20568)
(1.04635 0.326967 -0.347761 0.15192 0.825213 -0.0622653 0.0499572 0.186444 1.20568)
(0.957788 0.350345 -0.331666 0.175297 0.913776 -0.121708 0.0168227 0.192288 1.20568)
(0.866571 0.342021 -0.305493 0.166973 1.00499 -0.177452 -0.0168232 0.192288 1.20568)
(0.783702 0.303002 -0.270038 0.127954 1.08786 -0.227804 -0.0499579 0.186446 1.20568)
(0.719176 0.237993 -0.226377 0.0629448 1.15239 -0.271235 -0.0815746 0.174938 1.20568)
(0.680776 0.154835 -0.175839 -0.0202126 1.19079 -0.306424 -0.110712 0.158114 1.20568)
(0.673133 0.0635577 -0.119957 -0.111489 1.19843 -0.332303 -0.136486 0.136487 1.20568)
(0.697169 -0.0248286 -0.060431 -0.199875 1.17439 -0.348085 -0.158113 0.110712 1.20568)
(0.749986 -0.0996634 0.000931227 -0.27471 1.12158 -0.35329 -0.174936 0.081574 1.20568)
(0.825213 -0.15192 0.0622652 -0.326967 1.04635 -0.347761 -0.186444 0.0499572 1.20568)
(0.913776 -0.175297 0.121708 -0.350344 0.957788 -0.331666 -0.192288 0.0168227 1.20568)
(1.0406 -0.231429 0.207419 -0.331861 0.85165 -0.330773 -0.188295 -0.0164736 1.18257)
(1.13123 -0.182131 0.261706 -0.282564 0.761019 -0.28973 -0.182574 -0.0489205 1.18257)
(1.19953 -0.10481 0.308041 -0.205243 0.692715 -0.239884 -0.171305 -0.0798809 1.18257)
(1.23727 -0.00879045 0.345017 -0.109222 0.654975 -0.182748 -0.154831 -0.108414 1.18257)
(1.2399 0.0943466 0.371509 -0.00608445 0.652352 -0.12006 -0.133652 -0.133652 1.18257)
(1.20708 0.192161 0.386713 0.0917304 0.685163 -0.0537246 -0.108413 -0.15483 1.18257)
(1.1428 0.272855 0.390167 0.172424 0.749449 0.0142436 -0.0798801 -0.171303 1.18257)
(1.05479 0.326695 0.381766 0.226264 0.837457 0.081779 -0.0489202 -0.182572 1.18257)
(0.953676 0.347188 0.361766 0.246756 0.938572 0.14683 -0.0164737 -0.188294 1.18257)
(0.85165 0.331861 0.330773 0.231429 1.0406 0.207419 0.0164736 -0.188295 1.18257)
(0.761019 0.282564 0.28973 0.182131 1.13123 0.261706 0.0489205 -0.182574 1.18257)
(0.692715 0.205243 0.239884 0.10481 1.19953 0.308041 0.0798808 -0.171305 1.18257)
(0.654975 0.109222 0.182748 0.00879046 1.23727 0.345017 0.108414 -0.15483 1.18257)
(0.652352 0.00608447 0.12006 -0.0943466 1.2399 0.371509 0.133652 -0.133652 1.18257)
(0.685163 -0.0917303 0.0537246 -0.192161 1.20708 0.386713 0.15483 -0.108413 1.18257)
(0.749449 -0.172424 -0.0142436 -0.272855 1.1428 0.390167 0.171303 -0.0798801 1.18257)
(0.837457 -0.226264 -0.0817791 -0.326695 1.05479 0.381766 0.182572 -0.0489202 1.18257)
(0.938572 -0.246756 -0.14683 -0.347188 0.953676 0.361766 0.188294 -0.0164737 1.18257)
(1.0406 -0.231429 -0.207419 -0.331861 0.85165 0.330773 0.188295 0.0164736 1.18257)
(1.13123 -0.182131 -0.261706 -0.282564 0.761019 0.28973 0.182574 0.0489205 1.18257)
(1.19953 -0.10481 -0.308041 -0.205243 0.692715 0.239884 0.171305 0.0798808 1.18257)
(1.23727 -0.00879047 -0.345017 -0.109222 0.654975 0.182748 0.15483 0.108414 1.18257)
(1.2399 0.0943466 -0.371509 -0.00608447 0.652352 0.12006 0.133652 0.133652 1.18257)
(1.20708 0.192161 -0.386713 0.0917304 0.685163 0.0537246 0.108413 0.15483 1.18257)
(1.1428 0.272855 -0.390167 0.172424 0.749449 -0.0142436 0.0798801 0.171303 1.18257)
(1.05479 0.326695 -0.381766 0.226264 0.837457 -0.0817791 0.0489202 0.182572 1.18257)
(0.953676 0.347188 -0.361766 0.246756 0.938572 -0.14683 0.0164737 0.188294 1.18257)
(0.85165 0.331861 -0.330773 0.231429 1.0406 -0.207419 -0.0164736 0.188295 1.18257)
(0.761019 0.282564 -0.28973 0.182131 1.13123 -0.261706 -0.0489205 0.182574 1.18257)
(0.692715 0.205243 -0.239884 0.10481 1.19953 -0.308041 -0.0798808 0.171305 1.18257)
(0.654975 0.109222 -0.182748 0.00879047 1.23727 -0.345017 -0.108414 0.15483 1.18257)
(0.652352 0.00608445 -0.12006 -0.0943466 1.2399 -0.371509 -0.133652 0.133652 1.18257)
(0.685163 -0.0917304 -0.0537246 -0.192161 1.20708 -0.386713 -0.15483 0.108413 1.18257)
(0.749449 -0.172424 0.0142436 -0.272855 1.1428 -0.390167 -0.171303 0.07988 1.18257)
(0.837457 -0.226264 0.081779 -0.326695 1.05479 -0.381766 -0.182572 0.0489202 1.18257)
(0.938572 -0.246756 0.14683 -0.347188 0.953676 -0.361766 -0.188294 0.0164737 1.18257)
(1.0278 -0.170224 0.144444 -0.376454 0.839479 -0.290352 -0.227631 -0.0199157 1.25305)
(1.11561 -0.121534 0.192669 -0.327764 0.751671 -0.260858 -0.220715 -0.0591404 1.25305)
(1.18147 -0.0457484 0.235039 -0.251978 0.68581 -0.223439 -0.207092 -0.0965682 1.25305)
(1.21744 0.0479923 0.270268 -0.158238 0.649842 -0.17923 -0.187176 -0.131062 1.25305)
(1.21918 0.148381 0.297285 -0.0578479 0.648104 -0.129575 -0.161574 -0.161573 1.25305)
(1.18648 0.243311 0.315269 0.0370818 0.680806 -0.0759837 -0.131062 -0.187175 1.25305)
(1.12328 0.321331 0.323673 0.115102 0.744004 -0.0200833 -0.096568 -0.20709 1.25305)
(1.03721 0.373031 0.322244 0.166801 0.830076 0.0364272 -0.0591394 -0.220713 1.25305)
(0.938645 0.392175 0.311023 0.185945 0.928639 0.0918308 -0.0199143 -0.22763 1.25305)
(0.839479 0.376454 0.290352 0.170224 1.0278 0.144444 0.0199157 -0.227631 1.25305)
(0.751671 0.327764 0.260858 0.121534 1.11561 0.192669 0.0591404 -0.220715 1.25305)
(0.68581 0.251978 0.223439 0.0457484 1.18147 0.235039 0.0965681 -0.207092 1.25305)
(0.649842 0.158238 0.17923 -0.0479923 1.21744 0.270268 0.131062 -0.187176 1.25305)
(0.648104 0.0578479 0.129575 -0.148381 1.21918 0.297285 0.161573 -0.161574 1.25305)