/*--------------------------------*- C++ -*----------------------------------*\
| =========                 |                                                 |
| \\      /  F ield         | OpenFOAM: The Open Source CFD Toolbox           |
|  \\    /   O peration     | Version:  2312                                  |
|   \\  /    A nd           | Website:  www.openfoam.com                      |
|    \\/     M anipulation  |                                                 |
\*---------------------------------------------------------------------------*/
FoamFile
{
    version     2.0;
    format      ascii;
    arch        "LSB;label=32;scalar=64";
    class       volVectorField;
    location    "1";
    object      U;
}
// * * * * * * * * * * * * * * * * * * * * * * * * * * * * * * * * * * * * * //

dimensions      [0 1 -1 0 0 0 0];

internalField   nonuniform List<vector> 
1620
(
(-9.4891e-05 -0.00020049 -0.000141263)
(-5.86347e-05 -0.000213922 -0.000141263)
(-2.05972e-05 -0.000220854 -0.000141263)
(1.80665e-05 -0.000221075 -0.000141262)
(5.61812e-05 -0.000214578 -0.000141262)
(9.25887e-05 -0.000201563 -0.000141263)
(0.000126183 -0.000182423 -0.000141262)
(0.000155943 -0.00015774 -0.000141262)
(0.000180966 -0.000128264 -0.000141263)
(0.00020049 -9.48914e-05 -0.000141263)
(0.000213922 -5.86351e-05 -0.000141263)
(0.000220854 -2.05975e-05 -0.000141262)
(0.000221074 1.80662e-05 -0.000141262)
(0.000214578 5.6181e-05 -0.000141262)
(0.000201562 9.25884e-05 -0.000141262)
(0.000182422 0.000126182 -0.000141262)
(0.000157739 0.000155943 -0.000141262)
(0.000128264 0.000180965 -0.000141262)
(9.4891e-05 0.000200489 -0.000141263)
(5.86347e-05 0.000213921 -0.000141263)
(2.05971e-05 0.000220853 -0.000141262)
(-1.80665e-05 0.000221074 -0.000141262)
(-5.61813e-05 0.000214578 -0.000141262)
(-9.25887e-05 0.000201562 -0.000141262)
(-0.000126183 0.000182422 -0.000141262)
(-0.000155943 0.000157739 -0.000141262)
(-0.000180966 0.000128264 -0.000141262)
(-0.00020049 9.48906e-05 -0.000141263)
(-0.000213922 5.86343e-05 -0.000141263)
(-0.000220853 2.05968e-05 -0.000141262)
(-0.000221074 -1.80668e-05 -0.000141262)
(-0.000214578 -5.61816e-05 -0.000141262)
(-0.000201562 -9.2589e-05 -0.000141262)
(-0.000182422 -0.000126183 -0.000141262)
(-0.000157739 -0.000155943 -0.000141262)
(-0.000128264 -0.000180966 -0.000141263)
(-3.44939e-05 -9.17892e-05 -0.000112219)
(-1.80307e-05 -9.63847e-05 -0.00011222)
(-1.01992e-06 -9.80513e-05 -0.000112219)
(1.60218e-05 -9.67388e-05 -0.000112219)
(3.25766e-05 -9.24868e-05 -0.000112219)
(4.81415e-05 -8.54246e-05 -0.000112219)
(6.22438e-05 -7.57672e-05 -0.000112219)
(7.4455e-05 -6.38075e-05 -0.000112219)
(8.44044e-05 -4.99092e-05 -0.00011222)
(9.1789e-05 -3.44942e-05 -0.00011222)
(9.63846e-05 -1.8031e-05 -0.00011222)
(9.80512e-05 -1.02021e-06 -0.000112219)
(9.67386e-05 1.60215e-05 -0.000112219)
(9.24867e-05 3.25763e-05 -0.000112219)
(8.54245e-05 4.81412e-05 -0.000112219)
(7.57671e-05 6.22435e-05 -0.000112219)
(6.38073e-05 7.44548e-05 -0.000112219)
(4.9909e-05 8.44041e-05 -0.000112219)
(3.4494e-05 9.17888e-05 -0.000112219)
(1.80309e-05 9.63843e-05 -0.000112219)
(1.02003e-06 9.80509e-05 -0.000112219)
(-1.60217e-05 9.67383e-05 -0.000112219)
(-3.25765e-05 9.24864e-05 -0.000112219)
(-4.81414e-05 8.54242e-05 -0.000112219)
(-6.22437e-05 7.57668e-05 -0.000112219)
(-7.44549e-05 6.3807e-05 -0.000112219)
(-8.44042e-05 4.99087e-05 -0.000112219)
(-9.17889e-05 3.44937e-05 -0.000112219)
(-9.63844e-05 1.80306e-05 -0.000112219)
(-9.8051e-05 1.01975e-06 -0.000112219)
(-9.67385e-05 -1.6022e-05 -0.000112219)
(-9.24865e-05 -3.25767e-05 -0.000112219)
(-8.54243e-05 -4.81416e-05 -0.000112219)
(-7.57669e-05 -6.2244e-05 -0.000112219)
(-6.38072e-05 -7.44552e-05 -0.000112219)
(-4.99089e-05 -8.44045e-05 -0.000112219)
(1.72411e-05 3.41162e-05 -9.62251e-05)
(1.10552e-05 3.65915e-05 -9.62251e-05)
(4.53303e-06 3.79555e-05 -9.62254e-05)
(-2.12684e-06 3.81663e-05 -9.62253e-05)
(-8.72225e-06 3.72168e-05 -9.62254e-05)
(-1.5053e-05 3.51371e-05 -9.62253e-05)
(-2.09256e-05 3.1989e-05 -9.62255e-05)
(-2.61627e-05 2.78694e-05 -9.62255e-05)
(-3.06044e-05 2.2903e-05 -9.62253e-05)
(-3.41163e-05 1.72409e-05 -9.62252e-05)
(-3.65916e-05 1.1055e-05 -9.62252e-05)
(-3.79556e-05 4.53279e-06 -9.62255e-05)
(-3.81663e-05 -2.1271e-06 -9.62253e-05)
(-3.72169e-05 -8.72252e-06 -9.62253e-05)
(-3.51371e-05 -1.50532e-05 -9.62252e-05)
(-3.1989e-05 -2.09259e-05 -9.62253e-05)
(-2.78694e-05 -2.6163e-05 -9.62253e-05)
(-2.2903e-05 -3.06046e-05 -9.6225e-05)
(-1.72409e-05 -3.41166e-05 -9.62249e-05)
(-1.10549e-05 -3.65918e-05 -9.62249e-05)
(-4.53275e-06 -3.79558e-05 -9.62252e-05)
(2.12713e-06 -3.81665e-05 -9.6225e-05)
(8.72253e-06 -3.7217e-05 -9.6225e-05)
(1.50532e-05 -3.51373e-05 -9.62248e-05)
(2.09258e-05 -3.19892e-05 -9.6225e-05)
(2.61629e-05 -2.78695e-05 -9.6225e-05)
(3.06045e-05 -2.29032e-05 -9.62248e-05)
(3.41165e-05 -1.7241e-05 -9.62248e-05)
(3.65917e-05 -1.10551e-05 -9.62248e-05)
(3.79557e-05 -4.53298e-06 -9.62251e-05)
(3.81664e-05 2.12688e-06 -9.6225e-05)
(3.7217e-05 8.72226e-06 -9.62251e-05)
(3.51372e-05 1.50529e-05 -9.62249e-05)
(3.19891e-05 2.09255e-05 -9.62251e-05)
(2.78695e-05 2.61626e-05 -9.62253e-05)
(2.29032e-05 3.06043e-05 -9.62251e-05)
(-0.000150882 -0.000449507 -0.000360891)
(-7.05338e-05 -0.000468879 -0.000360892)
(1.19568e-05 -0.000474004 -0.000360891)
(9.40839e-05 -0.000464725 -0.000360889)
(0.000173353 -0.000441326 -0.000360888)
(0.000247354 -0.000404519 -0.000360889)
(0.000313841 -0.000355421 -0.00036089)
(0.000370791 -0.000295523 -0.00036089)
(0.000416476 -0.000226647 -0.000360891)
(0.000449506 -0.000150883 -0.000360892)
(0.000468878 -7.05348e-05 -0.000360892)
(0.000474003 1.19558e-05 -0.000360891)
(0.000464724 9.4083e-05 -0.000360889)
(0.000441325 0.000173352 -0.000360888)
(0.000404518 0.000247354 -0.000360888)
(0.00035542 0.00031384 -0.000360889)
(0.000295522 0.00037079 -0.00036089)
(0.000226646 0.000416475 -0.00036089)
(0.000150882 0.000449505 -0.000360891)
(7.05341e-05 0.000468877 -0.000360891)
(-1.19566e-05 0.000474002 -0.00036089)
(-9.40837e-05 0.000464723 -0.000360888)
(-0.000173352 0.000441324 -0.000360887)
(-0.000247354 0.000404517 -0.000360888)
(-0.000313841 0.000355419 -0.000360888)
(-0.000370791 0.000295521 -0.000360889)
(-0.000416476 0.000226645 -0.00036089)
(-0.000449506 0.000150881 -0.00036089)
(-0.000468878 7.05331e-05 -0.000360891)
(-0.000474003 -1.19576e-05 -0.00036089)
(-0.000464724 -9.40847e-05 -0.000360888)
(-0.000441325 -0.000173353 -0.000360887)
(-0.000404518 -0.000247355 -0.000360888)
(-0.00035542 -0.000313841 -0.000360889)
(-0.000295522 -0.000370792 -0.00036089)
(-0.000226646 -0.000416477 -0.000360891)
(-0.000101201 -0.00024814 -0.000299856)
(-5.65738e-05 -0.000261944 -0.000299856)
(-1.02283e-05 -0.000267788 -0.000299856)
(3.64273e-05 -0.000265496 -0.000299855)
(8.19759e-05 -0.000255136 -0.000299855)
(0.000125034 -0.000237025 -0.000299855)
(0.000164293 -0.000211713 -0.000299855)
(0.000198561 -0.000179967 -0.000299855)
(0.000226796 -0.000142753 -0.000299856)
(0.000248139 -0.000101201 -0.000299856)
(0.000261944 -5.65746e-05 -0.000299856)
(0.000267788 -1.02292e-05 -0.000299856)
(0.000265495 3.64265e-05 -0.000299855)
(0.000255136 8.19751e-05 -0.000299854)
(0.000237025 0.000125033 -0.000299854)
(0.000211712 0.000164293 -0.000299854)
(0.000179966 0.00019856 -0.000299855)
(0.000142752 0.000226795 -0.000299855)
(0.000101201 0.000248139 -0.000299855)
(5.65741e-05 0.000261943 -0.000299855)
(1.02287e-05 0.000267787 -0.000299855)
(-3.6427e-05 0.000265494 -0.000299854)
(-8.19755e-05 0.000255135 -0.000299853)
(-0.000125034 0.000237024 -0.000299853)
(-0.000164293 0.000211711 -0.000299854)
(-0.00019856 0.000179965 -0.000299854)
(-0.000226795 0.000142752 -0.000299854)
(-0.000248139 0.0001012 -0.000299855)
(-0.000261943 5.65733e-05 -0.000299855)
(-0.000267788 1.02278e-05 -0.000299855)
(-0.000265495 -3.64278e-05 -0.000299854)
(-0.000255135 -8.19764e-05 -0.000299854)
(-0.000237024 -0.000125035 -0.000299854)
(-0.000211712 -0.000164294 -0.000299854)
(-0.000179966 -0.000198561 -0.000299855)
(-0.000142752 -0.000226796 -0.000299855)
(-7.2849e-05 -2.96826e-05 -0.000237778)
(-6.65872e-05 -4.1882e-05 -0.000237778)
(-5.83026e-05 -5.28087e-05 -0.000237778)
(-4.8247e-05 -6.21302e-05 -0.000237778)
(-3.67258e-05 -6.95644e-05 -0.000237778)
(-2.40891e-05 -7.48851e-05 -0.000237778)
(-1.07198e-05 -7.7931e-05 -0.000237778)
(2.97525e-06 -7.86084e-05 -0.000237778)
(1.65809e-05 -7.68975e-05 -0.000237778)
(2.96823e-05 -7.28497e-05 -0.000237778)
(4.18816e-05 -6.65879e-05 -0.000237778)
(5.28083e-05 -5.83033e-05 -0.000237778)
(6.21298e-05 -4.82478e-05 -0.000237778)
(6.9564e-05 -3.67266e-05 -0.000237778)
(7.48848e-05 -2.40899e-05 -0.000237777)
(7.79307e-05 -1.07205e-05 -0.000237778)
(7.86081e-05 2.97447e-06 -0.000237777)
(7.68972e-05 1.65801e-05 -0.000237777)
(7.28494e-05 2.96815e-05 -0.000237777)
(6.65877e-05 4.18809e-05 -0.000237777)
(5.83031e-05 5.28076e-05 -0.000237777)
(4.82475e-05 6.21291e-05 -0.000237777)
(3.67263e-05 6.95633e-05 -0.000237777)
(2.40896e-05 7.48841e-05 -0.000237777)
(1.07202e-05 7.793e-05 -0.000237777)
(-2.97479e-06 7.86074e-05 -0.000237777)
(-1.65805e-05 7.68966e-05 -0.000237777)
(-2.96819e-05 7.28488e-05 -0.000237777)
(-4.18813e-05 6.6587e-05 -0.000237777)
(-5.28079e-05 5.83023e-05 -0.000237777)
(-6.21295e-05 4.82468e-05 -0.000237777)
(-6.95637e-05 3.67256e-05 -0.000237777)
(-7.48845e-05 2.40889e-05 -0.000237777)
(-7.79304e-05 1.07195e-05 -0.000237777)
(-7.86077e-05 -2.97557e-06 -0.000237777)
(-7.68968e-05 -1.65812e-05 -0.000237778)
(-0.000184002 -0.000613718 -0.000572958)
(-7.46358e-05 -0.000636346 -0.000572958)
(3.69977e-05 -0.000639638 -0.000572958)
(0.000147507 -0.000623495 -0.000572956)
(0.000253533 -0.000588408 -0.000572955)
(0.000351857 -0.000535443 -0.000572955)
(0.000439491 -0.000466209 -0.000572955)
(0.000513771 -0.000382809 -0.000572956)
(0.000572441 -0.000287778 -0.000572958)
(0.000613717 -0.000184003 -0.000572959)
(0.000636345 -7.46373e-05 -0.000572958)
(0.000639637 3.69962e-05 -0.000572958)
(0.000623494 0.000147505 -0.000572956)
(0.000588407 0.000253532 -0.000572954)
(0.000535442 0.000351856 -0.000572954)
(0.000466208 0.000439489 -0.000572954)
(0.000382808 0.000513769 -0.000572955)
(0.000287777 0.000572439 -0.000572956)
(0.000184002 0.000613715 -0.000572957)
(7.46362e-05 0.000636343 -0.000572957)
(-3.69973e-05 0.000639636 -0.000572956)
(-0.000147506 0.000623493 -0.000572954)
(-0.000253533 0.000588405 -0.000572953)
(-0.000351857 0.00053544 -0.000572952)
(-0.00043949 0.000466206 -0.000572953)
(-0.00051377 0.000382807 -0.000572954)
(-0.00057244 0.000287776 -0.000572955)
(-0.000613716 0.000184001 -0.000572956)
(-0.000636344 7.46347e-05 -0.000572956)
(-0.000639637 -3.69988e-05 -0.000572956)
(-0.000623493 -0.000147508 -0.000572954)
(-0.000588406 -0.000253534 -0.000572953)
(-0.000535441 -0.000351858 -0.000572953)
(-0.000466207 -0.000439492 -0.000572954)
(-0.000382808 -0.000513772 -0.000572955)
(-0.000287777 -0.000572442 -0.000572957)
(-0.00016522 -0.000357409 -0.000486443)
(-0.000100646 -0.00038067 -0.000486443)
(-3.30146e-05 -0.000392364 -0.000486443)
(3.56196e-05 -0.000392135 -0.000486443)
(0.000103171 -0.000379992 -0.000486442)
(0.000167588 -0.000356304 -0.000486442)
(0.000226914 -0.00032179 -0.000486442)
(0.000279344 -0.000277498 -0.000486442)
(0.000323288 -0.000224775 -0.000486443)
(0.000357409 -0.000165221 -0.000486443)
(0.000380669 -0.000100648 -0.000486444)
(0.000392363 -3.30159e-05 -0.000486443)
(0.000392134 3.56182e-05 -0.000486442)
(0.000379991 0.00010317 -0.000486441)
(0.000356303 0.000167587 -0.000486441)
(0.000321789 0.000226912 -0.000486441)
(0.000277497 0.000279343 -0.000486441)
(0.000224774 0.000323287 -0.000486442)
(0.00016522 0.000357407 -0.000486442)
(0.000100647 0.000380668 -0.000486442)
(3.30151e-05 0.000392361 -0.000486441)
(-3.56191e-05 0.000392133 -0.000486441)
(-0.00010317 0.000379989 -0.00048644)
(-0.000167588 0.000356302 -0.000486439)
(-0.000226913 0.000321787 -0.00048644)
(-0.000279344 0.000277496 -0.00048644)
(-0.000323287 0.000224772 -0.000486441)
(-0.000357408 0.000165219 -0.000486441)
(-0.000380669 0.000100645 -0.000486441)
(-0.000392362 3.30137e-05 -0.000486441)
(-0.000392134 -3.56204e-05 -0.000486441)
(-0.00037999 -0.000103172 -0.00048644)
(-0.000356302 -0.000167589 -0.00048644)
(-0.000321788 -0.000226914 -0.00048644)
(-0.000277497 -0.000279345 -0.000486441)
(-0.000224773 -0.000323289 -0.000486442)
(-0.00018193 -9.64232e-05 -0.000400297)
(-0.000162422 -0.00012655 -0.000400297)
(-0.000137979 -0.000152832 -0.000400297)
(-0.000109344 -0.00017447 -0.000400298)
(-7.7387e-05 -0.000190807 -0.000400298)
(-4.3079e-05 -0.000201346 -0.000400298)
(-7.46155e-06 -0.000205768 -0.000400298)
(2.83828e-05 -0.000203938 -0.000400298)
(6.33653e-05 -0.000195911 -0.000400297)
(9.64225e-05 -0.000181931 -0.000400297)
(0.00012655 -0.000162423 -0.000400297)
(0.000152831 -0.00013798 -0.000400298)
(0.000174469 -0.000109345 -0.000400298)
(0.000190806 -7.73882e-05 -0.000400297)
(0.000201346 -4.30802e-05 -0.000400297)
(0.000205768 -7.46286e-06 -0.000400297)
(0.000203938 2.83815e-05 -0.000400296)
(0.000195911 6.3364e-05 -0.000400296)
(0.000181931 9.64212e-05 -0.000400296)
(0.000162422 0.000126548 -0.000400296)
(0.000137979 0.00015283 -0.000400296)
(0.000109345 0.000174468 -0.000400296)
(7.73876e-05 0.000190805 -0.000400296)
(4.30797e-05 0.000201344 -0.000400296)
(7.46226e-06 0.000205767 -0.000400295)
(-2.83821e-05 0.000203936 -0.000400295)
(-6.33646e-05 0.00019591 -0.000400295)
(-9.64218e-05 0.000181929 -0.000400295)
(-0.000126549 0.000162421 -0.000400295)
(-0.000152831 0.000137978 -0.000400296)
(-0.000174468 0.000109343 -0.000400296)
(-0.000190805 7.73864e-05 -0.000400296)
(-0.000201345 4.30784e-05 -0.000400296)
(-0.000205767 7.46097e-06 -0.000400296)
(-0.000203937 -2.83834e-05 -0.000400296)
(-0.00019591 -6.33659e-05 -0.000400297)
(-0.000185643 -0.000657836 -0.000736627)
(-6.85912e-05 -0.000680079 -0.000736628)
(5.05449e-05 -0.000681657 -0.000736628)
(0.000168145 -0.000662524 -0.000736627)
(0.000280636 -0.00062326 -0.000736626)
(0.0003846 -0.00056506 -0.000736626)
(0.000476878 -0.000489691 -0.000736626)
(0.000554668 -0.000399442 -0.000736626)
(0.000615604 -0.000297056 -0.000736627)
(0.000657835 -0.000185645 -0.000736628)
(0.000680078 -6.85933e-05 -0.000736628)
(0.000681656 5.05429e-05 -0.000736628)
(0.000662522 0.000168143 -0.000736627)
(0.000623259 0.000280634 -0.000736626)
(0.000565059 0.000384598 -0.000736625)
(0.000489689 0.000476876 -0.000736624)
(0.000399441 0.000554666 -0.000736624)
(0.000297055 0.000615602 -0.000736625)
(0.000185644 0.000657833 -0.000736626)
(6.85918e-05 0.000680075 -0.000736626)
(-5.05443e-05 0.000681654 -0.000736625)
(-0.000168144 0.00066252 -0.000736624)
(-0.000280635 0.000623257 -0.000736623)
(-0.000384599 0.000565056 -0.000736623)
(-0.000476877 0.000489687 -0.000736622)
(-0.000554667 0.000399438 -0.000736623)
(-0.000615603 0.000297053 -0.000736624)
(-0.000657834 0.000185642 -0.000736625)
(-0.000680077 6.85897e-05 -0.000736626)
(-0.000681655 -5.05463e-05 -0.000736625)
(-0.000662521 -0.000168146 -0.000736625)
(-0.000623258 -0.000280637 -0.000736624)
(-0.000565058 -0.000384601 -0.000736624)
(-0.000489688 -0.000476879 -0.000736624)
(-0.00039944 -0.000554669 -0.000736624)
(-0.000297054 -0.000615605 -0.000736626)
(-0.00020902 -0.000395271 -0.000638253)
(-0.000137206 -0.000425562 -0.000638253)
(-6.12234e-05 -0.000442922 -0.000638253)
(1.66192e-05 -0.000446825 -0.000638253)
(9.39566e-05 -0.000437151 -0.000638253)
(0.000168439 -0.000414194 -0.000638253)
(0.000237803 -0.000378653 -0.000638253)
(0.000299943 -0.000331606 -0.000638253)
(0.000352969 -0.000274484 -0.000638253)
(0.00039527 -0.000209021 -0.000638254)
(0.000425561 -0.000137208 -0.000638254)
(0.000442921 -6.12252e-05 -0.000638253)
(0.000446823 1.66173e-05 -0.000638253)
(0.000437149 9.39548e-05 -0.000638252)
(0.000414193 0.000168437 -0.000638252)
(0.000378652 0.000237802 -0.000638251)
(0.000331605 0.000299941 -0.000638251)
(0.000274483 0.000352967 -0.000638251)
(0.00020902 0.000395268 -0.000638252)
(0.000137206 0.000425559 -0.000638252)
(6.1224e-05 0.000442919 -0.000638251)
(-1.66185e-05 0.000446821 -0.000638251)
(-9.39559e-05 0.000437147 -0.00063825)
(-0.000168438 0.000414191 -0.00063825)
(-0.000237803 0.00037865 -0.00063825)
(-0.000299942 0.000331603 -0.00063825)
(-0.000352968 0.000274481 -0.00063825)
(-0.000395269 0.000209018 -0.000638251)
(-0.00042556 0.000137205 -0.000638251)
(-0.00044292 6.12221e-05 -0.000638251)
(-0.000446823 -1.66204e-05 -0.000638251)
(-0.000437149 -9.39578e-05 -0.000638251)
(-0.000414192 -0.00016844 -0.000638251)
(-0.000378651 -0.000237804 -0.000638251)
(-0.000331604 -0.000299944 -0.000638251)
(-0.000274482 -0.00035297 -0.000638252)
(-0.000274192 -0.000147109 -0.00054824)
(-0.000244481 -0.000192487 -0.000548241)
(-0.000207342 -0.000232016 -0.000548241)
(-0.000163903 -0.000264496 -0.000548241)
(-0.000115483 -0.000288939 -0.000548241)
(-6.35562e-05 -0.000304604 -0.000548241)
(-9.69716e-06 -0.000311013 -0.000548241)
(4.44568e-05 -0.000307972 -0.000548241)
(9.72597e-05 -0.000295574 -0.000548241)
(0.000147108 -0.000274194 -0.000548241)
(0.000192486 -0.000244483 -0.000548241)
(0.000232015 -0.000207343 -0.000548241)
(0.000264495 -0.000163904 -0.000548241)
(0.000288938 -0.000115485 -0.00054824)
(0.000304602 -6.3558e-05 -0.00054824)
(0.000311012 -9.69899e-06 -0.00054824)
(0.000307971 4.44549e-05 -0.00054824)
(0.000295572 9.72578e-05 -0.000548239)
(0.000274193 0.000147106 -0.000548239)
(0.000244482 0.000192484 -0.000548239)
(0.000207342 0.000232013 -0.000548239)
(0.000163903 0.000264493 -0.000548239)
(0.000115484 0.000288936 -0.000548238)
(6.3557e-05 0.000304601 -0.000548238)
(9.69804e-06 0.00031101 -0.000548238)
(-4.44559e-05 0.000307969 -0.000548238)
(-9.72588e-05 0.000295571 -0.000548238)
(-0.000147107 0.000274191 -0.000548238)
(-0.000192485 0.00024448 -0.000548239)
(-0.000232015 0.000207341 -0.000548239)
(-0.000264494 0.000163902 -0.000548239)
(-0.000288937 0.000115482 -0.000548239)
(-0.000304602 6.35552e-05 -0.000548239)
(-0.000311011 9.69624e-06 -0.00054824)
(-0.00030797 -4.44577e-05 -0.00054824)
(-0.000295572 -9.72607e-05 -0.00054824)
(-0.000157583 -0.000585356 -0.000849706)
(-5.3543e-05 -0.000603828 -0.000849707)
(5.21236e-05 -0.000603951 -0.000849707)
(0.000156206 -0.000585725 -0.000849707)
(0.000255543 -0.000549701 -0.000849707)
(0.000347116 -0.000496976 -0.000849707)
(0.000428141 -0.00042915 -0.000849707)
(0.000496157 -0.000348285 -0.000849706)
(0.000549098 -0.000256837 -0.000849707)
(0.000585355 -0.000157585 -0.000849707)
(0.000603826 -5.35455e-05 -0.000849708)
(0.00060395 5.21211e-05 -0.000849707)
(0.000585723 0.000156204 -0.000849706)
(0.0005497 0.000255541 -0.000849706)
(0.000496974 0.000347113 -0.000849705)
(0.000429149 0.000428138 -0.000849705)
(0.000348283 0.000496155 -0.000849704)
(0.000256835 0.000549096 -0.000849704)
(0.000157583 0.000585352 -0.000849705)
(5.35437e-05 0.000603824 -0.000849705)
(-5.21229e-05 0.000603947 -0.000849704)
(-0.000156206 0.000585721 -0.000849704)
(-0.000255543 0.000549697 -0.000849703)
(-0.000347115 0.000496971 -0.000849703)
(-0.00042814 0.000429146 -0.000849703)
(-0.000496156 0.000348281 -0.000849702)
(-0.000549097 0.000256833 -0.000849703)
(-0.000585354 0.000157581 -0.000849704)
(-0.000603825 5.35411e-05 -0.000849705)
(-0.000603949 -5.21254e-05 -0.000849704)
(-0.000585722 -0.000156208 -0.000849704)
(-0.000549699 -0.000255545 -0.000849704)
(-0.000496973 -0.000347117 -0.000849704)
(-0.000429148 -0.000428142 -0.000849704)
(-0.000348282 -0.000496159 -0.000849704)
(-0.000256834 -0.0005491 -0.000849705)
(-0.000221431 -0.000348359 -0.000750871)
(-0.000157576 -0.000381518 -0.000750872)
(-8.89321e-05 -0.000403084 -0.000750872)
(-1.75865e-05 -0.000412403 -0.000750871)
(5.42935e-05 -0.000409192 -0.000750872)
(0.000124524 -0.000393548 -0.000750871)
(0.000190971 -0.000365946 -0.000750871)
(0.000251615 -0.000327225 -0.000750872)
(0.000304614 -0.000278562 -0.000750872)
(0.000348358 -0.000221434 -0.000750872)
(0.000381517 -0.000157578 -0.000750872)
(0.000403083 -8.89344e-05 -0.000750872)
(0.000412402 -1.75888e-05 -0.000750871)
(0.00040919 5.42912e-05 -0.000750871)
(0.000393546 0.000124521 -0.00075087)
(0.000365944 0.000190968 -0.00075087)
(0.000327224 0.000251613 -0.00075087)
(0.00027856 0.000304612 -0.000750869)
(0.000221432 0.000348355 -0.00075087)
(0.000157576 0.000381514 -0.00075087)
(8.89328e-05 0.00040308 -0.000750869)
(1.75871e-05 0.000412399 -0.000750869)
(-5.42928e-05 0.000409188 -0.000750868)
(-0.000124523 0.000393544 -0.000750868)
(-0.00019097 0.000365942 -0.000750868)
(-0.000251614 0.000327221 -0.000750868)
(-0.000304613 0.000278557 -0.000750868)
(-0.000348357 0.00022143 -0.000750869)
(-0.000381516 0.000157574 -0.000750869)
(-0.000403082 8.89304e-05 -0.000750869)
(-0.000412401 1.75848e-05 -0.000750869)
(-0.000409189 -5.42951e-05 -0.000750869)
(-0.000393545 -0.000124525 -0.000750869)
(-0.000365944 -0.000190972 -0.000750869)
(-0.000327223 -0.000251617 -0.00075087)
(-0.000278559 -0.000304615 -0.00075087)
(-0.000326286 -0.000145395 -0.000672037)
(-0.000296081 -0.000199845 -0.000672037)
(-0.00025688 -0.000248223 -0.000672037)
(-0.000209875 -0.000289059 -0.000672037)
(-0.000156492 -0.000321112 -0.000672038)
(-9.83543e-05 -0.000343408 -0.000672038)
(-3.72283e-05 -0.00035527 -0.000672038)
(2.50292e-05 -0.000356338 -0.000672038)
(8.65256e-05 -0.000346578 -0.000672038)
(0.000145394 -0.000326288 -0.000672038)
(0.000199844 -0.000296083 -0.000672037)
(0.000248221 -0.000256883 -0.000672037)
(0.000289057 -0.000209877 -0.000672037)
(0.00032111 -0.000156494 -0.000672037)
(0.000343407 -9.83566e-05 -0.000672036)
(0.000355269 -3.72306e-05 -0.000672036)
(0.000356336 2.50268e-05 -0.000672036)
(0.000346577 8.65232e-05 -0.000672036)
(0.000326286 0.000145391 -0.000672035)
(0.000296082 0.000199841 -0.000672035)
(0.000256881 0.000248219 -0.000672035)
(0.000209875 0.000289054 -0.000672035)
(0.000156493 0.000321108 -0.000672035)
(9.83552e-05 0.000343404 -0.000672034)
(3.72292e-05 0.000355266 -0.000672034)
(-2.50282e-05 0.000356334 -0.000672034)
(-8.65246e-05 0.000346574 -0.000672034)
(-0.000145393 0.000326284 -0.000672034)
(-0.000199842 0.00029608 -0.000672035)
(-0.00024822 0.000256879 -0.000672035)
(-0.000289056 0.000209873 -0.000672035)
(-0.000321109 0.000156491 -0.000672035)
(-0.000343406 9.8353e-05 -0.000672035)
(-0.000355268 3.72269e-05 -0.000672036)
(-0.000356336 -2.50305e-05 -0.000672036)
(-0.000346576 -8.65269e-05 -0.000672036)
(-0.00011383 -0.000421281 -0.000935229)
(-3.89466e-05 -0.000434648 -0.000935231)
(3.71205e-05 -0.000434807 -0.000935231)
(0.000112059 -0.000421756 -0.000935231)
(0.000183594 -0.00039589 -0.00093523)
(0.000249551 -0.000357995 -0.00093523)
(0.000307924 -0.000309222 -0.000935231)
(0.000356942 -0.000251054 -0.000935231)
(0.000395113 -0.000185259 -0.00093523)
(0.00042128 -0.000113834 -0.000935231)
(0.000434646 -3.89496e-05 -0.000935231)
(0.000434806 3.71176e-05 -0.000935231)
(0.000421754 0.000112057 -0.00093523)
(0.000395888 0.000183591 -0.000935229)
(0.000357993 0.000249548 -0.000935229)
(0.00030922 0.000307921 -0.000935229)
(0.000251052 0.000356939 -0.000935228)
(0.000185256 0.00039511 -0.000935228)
(0.000113831 0.000421277 -0.000935228)
(3.89473e-05 0.000434643 -0.000935228)
(-3.71199e-05 0.000434802 -0.000935228)
(-0.000112059 0.000421751 -0.000935227)
(-0.000183594 0.000395885 -0.000935226)
(-0.00024955 0.000357989 -0.000935226)
(-0.000307923 0.000309217 -0.000935226)
(-0.000356941 0.000251049 -0.000935226)
(-0.000395112 0.000185253 -0.000935226)
(-0.000421278 0.000113828 -0.000935227)
(-0.000434645 3.89442e-05 -0.000935228)
(-0.000434804 -3.71228e-05 -0.000935228)
(-0.000421753 -0.000112062 -0.000935228)
(-0.000395886 -0.000183596 -0.000935228)
(-0.000357991 -0.000249553 -0.000935228)
(-0.000309219 -0.000307926 -0.000935228)
(-0.000251051 -0.000356943 -0.000935229)
(-0.000185255 -0.000395115 -0.000935229)
(-0.000206668 -0.000222515 -0.000839762)
(-0.000164889 -0.000255022 -0.000839763)
(-0.0001181 -0.00027978 -0.000839763)
(-6.77232e-05 -0.000296037 -0.000839763)
(-1.52884e-05 -0.0003033 -0.000839763)
(3.76114e-05 -0.000301347 -0.000839763)
(8.93684e-05 -0.000290238 -0.000839763)
(0.00013841 -0.000270311 -0.000839763)
(0.000183245 -0.00024217 -0.000839763)
(0.000222513 -0.000206671 -0.000839763)
(0.00025502 -0.000164892 -0.000839763)
(0.000279778 -0.000118103 -0.000839763)
(0.000296035 -6.7726e-05 -0.000839762)
(0.000303298 -1.52911e-05 -0.000839762)
(0.000301345 3.76086e-05 -0.000839761)
(0.000290236 8.93656e-05 -0.000839761)
(0.000270308 0.000138407 -0.000839761)
(0.000242168 0.000183242 -0.00083976)
(0.000206669 0.00022251 -0.00083976)
(0.00016489 0.000255017 -0.00083976)
(0.000118101 0.000279775 -0.00083976)
(6.77239e-05 0.000296032 -0.00083976)
(1.52891e-05 0.000303295 -0.000839759)
(-3.76105e-05 0.000301342 -0.000839759)
(-8.93674e-05 0.000290233 -0.000839759)
(-0.000138409 0.000270305 -0.000839759)
(-0.000183244 0.000242165 -0.000839759)
(-0.000222512 0.000206666 -0.000839759)
(-0.000255019 0.000164887 -0.00083976)
(-0.000279777 0.000118098 -0.00083976)
(-0.000296034 6.77211e-05 -0.00083976)
(-0.000303297 1.52864e-05 -0.00083976)
(-0.000301344 -3.76133e-05 -0.00083976)
(-0.000290235 -8.93702e-05 -0.000839761)
(-0.000270308 -0.000138411 -0.000839761)
(-0.000242167 -0.000183247 -0.000839761)
(-0.000336414 -7.49046e-05 -0.000776334)
(-0.000318296 -0.000132184 -0.000776335)
(-0.000290507 -0.000185447 -0.000776335)
(-0.000253892 -0.000233076 -0.000776335)
(-0.000209562 -0.000273623 -0.000776335)
(-0.000158864 -0.000305857 -0.000776335)
(-0.000103339 -0.000328797 -0.000776335)
(-4.46745e-05 -0.000341746 -0.000776335)
(1.53472e-05 -0.000344312 -0.000776335)
(7.49028e-05 -0.000336417 -0.000776335)
(0.000132182 -0.000318299 -0.000776335)
(0.000185446 -0.00029051 -0.000776335)
(0.000233074 -0.000253895 -0.000776335)
(0.000273621 -0.000209565 -0.000776334)
(0.000305854 -0.000158867 -0.000776334)
(0.000328794 -0.000103342 -0.000776333)
(0.000341744 -4.46774e-05 -0.000776333)
(0.00034431 1.53442e-05 -0.000776333)
(0.000336414 7.48998e-05 -0.000776333)
(0.000318297 0.000132179 -0.000776333)
(0.000290508 0.000185442 -0.000776332)
(0.000253893 0.000233071 -0.000776332)
(0.000209563 0.000273618 -0.000776332)
(0.000158865 0.000305851 -0.000776332)
(0.00010334 0.000328791 -0.000776331)
(4.46757e-05 0.000341741 -0.000776332)
(-1.5346e-05 0.000344307 -0.000776332)
(-7.49016e-05 0.000336412 -0.000776332)
(-0.000132181 0.000318294 -0.000776332)
(-0.000185444 0.000290505 -0.000776332)
(-0.000233073 0.00025389 -0.000776333)
(-0.00027362 0.00020956 -0.000776333)
(-0.000305853 0.000158862 -0.000776333)
(-0.000328794 0.000103338 -0.000776333)
(-0.000341743 4.46728e-05 -0.000776334)
(-0.000344309 -1.53489e-05 -0.000776334)
(-8.02598e-05 -0.000199743 -0.00101944)
(-4.43559e-05 -0.000210645 -0.00101944)
(-7.10446e-06 -0.000215147 -0.00101944)
(3.03624e-05 -0.000213112 -0.00101944)
(6.69077e-05 -0.000204603 -0.00101944)
(0.00010142 -0.000189875 -0.00101944)
(0.00013285 -0.00016938 -0.00101944)
(0.000160244 -0.000143738 -0.00101944)
(0.000182769 -0.000113728 -0.00101944)
(0.00019974 -8.02634e-05 -0.00101944)
(0.000210643 -4.43594e-05 -0.00101944)
(0.000215145 -7.10787e-06 -0.00101944)
(0.00021311 3.03591e-05 -0.00101944)
(0.0002046 6.69045e-05 -0.00101944)
(0.000189873 0.000101416 -0.00101944)
(0.000169377 0.000132847 -0.00101944)
(0.000143735 0.000160241 -0.00101944)
(0.000113726 0.000182765 -0.00101944)
(8.02606e-05 0.000199737 -0.00101944)
(4.43566e-05 0.000210639 -0.00101944)
(7.1051e-06 0.000215141 -0.00101944)
(-3.03618e-05 0.000213106 -0.00101944)
(-6.69071e-05 0.000204596 -0.00101943)
(-0.000101419 0.000189869 -0.00101943)
(-0.000132849 0.000169373 -0.00101943)
(-0.000160243 0.000143731 -0.00101943)
(-0.000182768 0.000113722 -0.00101943)
(-0.000199739 8.02569e-05 -0.00101943)
(-0.000210642 4.43531e-05 -0.00101943)
(-0.000215143 7.10169e-06 -0.00101944)
(-0.000213108 -3.03651e-05 -0.00101944)
(-0.000204599 -6.69103e-05 -0.00101944)
(-0.000189872 -0.000101422 -0.00101944)
(-0.000169376 -0.000132853 -0.00101944)
(-0.000143734 -0.000160247 -0.00101944)
(-0.000113725 -0.000182771 -0.00101944)
(-0.000184992 -4.18265e-05 -0.000923673)
(-0.000174918 -7.33148e-05 -0.000923674)
(-0.00015953 -0.000102575 -0.000923674)
(-0.000139295 -0.000128719 -0.000923675)
(-0.000114827 -0.000150952 -0.000923674)
(-8.68709e-05 -0.000168598 -0.000923674)
(-5.62746e-05 -0.000181122 -0.000923674)
(-2.39683e-05 -0.000188143 -0.000923674)
(9.06533e-06 -0.000189447 -0.000923674)
(4.18243e-05 -0.000184995 -0.000923674)
(7.33126e-05 -0.000174922 -0.000923674)
(0.000102573 -0.000159534 -0.000923674)
(0.000128717 -0.000139299 -0.000923674)
(0.00015095 -0.00011483 -0.000923673)
(0.000168596 -8.68742e-05 -0.000923673)
(0.00018112 -5.62779e-05 -0.000923672)
(0.00018814 -2.39717e-05 -0.000923672)
(0.000189444 9.06187e-06 -0.000923671)
(0.000184992 4.18208e-05 -0.000923671)
(0.000174919 7.33089e-05 -0.000923671)
(0.000159531 0.000102569 -0.000923671)
(0.000139296 0.000128713 -0.000923671)
(0.000114828 0.000150946 -0.000923671)
(8.68718e-05 0.000168592 -0.00092367)
(5.62756e-05 0.000181116 -0.00092367)
(2.39694e-05 0.000188136 -0.00092367)
(-9.06404e-06 0.000189441 -0.00092367)
(-4.18229e-05 0.000184989 -0.00092367)
(-7.33111e-05 0.000174916 -0.000923671)
(-0.000102571 0.000159528 -0.000923671)
(-0.000128715 0.000139293 -0.000923672)
(-0.000150948 0.000114825 -0.000923672)
(-0.000168595 8.68686e-05 -0.000923672)
(-0.000181118 5.62723e-05 -0.000923672)
(-0.000188139 2.39661e-05 -0.000923672)
(-0.000189443 -9.06749e-06 -0.000923673)
(-0.000321437 5.29662e-05 -0.000869303)
(-0.000325751 -3.65522e-06 -0.000869303)
(-0.000320168 -6.01658e-05 -0.000869303)
(-0.000304857 -0.000114849 -0.000869304)
(-0.000280282 -0.000166042 -0.000869304)
(-0.000247192 -0.00021219 -0.000869304)
(-0.00020659 -0.000251891 -0.000869304)
(-0.000159712 -0.000283938 -0.000869303)
(-0.000107981 -0.000307359 -0.000869303)
(-5.29684e-05 -0.00032144 -0.000869304)
(3.65301e-06 -0.000325755 -0.000869303)
(6.01635e-05 -0.000320171 -0.000869303)
(0.000114846 -0.00030486 -0.000869303)