/*--------------------------------*- C++ -*----------------------------------*\
| =========                 |                                                 |
| \\      /  F ield         | OpenFOAM: The Open Source CFD Toolbox           |
|  \\    /   O peration     | Version:  2312                                  |
|   \\  /    A nd           | Website:  www.openfoam.com                      |
|    \\/     M anipulation  |                                                 |
\*---------------------------------------------------------------------------*/
FoamFile
{
    version     2.0;
    format      ascii;
    arch        "LSB;label=32;scalar=64";
    class       volVectorField;
    location    "0.7";
    object      D;
}
// * * * * * * * * * * * * * * * * * * * * * * * * * * * * * * * * * * * * * //

dimensions      [0 1 0 0 0 0 0];

internalField   nonuniform List<vector> 
1620
(
(0.000325503 2.84778e-05 -0.000192223)
(0.000315612 8.4568e-05 -0.000192223)
(0.000296132 0.000138088 -0.000192223)
(0.000267655 0.000187413 -0.000192223)
(0.000231044 0.000231044 -0.000192223)
(0.000187413 0.000267655 -0.000192223)
(0.000138088 0.000296132 -0.000192223)
(8.4568e-05 0.000315612 -0.000192223)
(2.84778e-05 0.000325503 -0.000192223)
(-2.84778e-05 0.000325503 -0.000192223)
(-8.4568e-05 0.000315612 -0.000192223)
(-0.000138088 0.000296132 -0.000192223)
(-0.000187413 0.000267655 -0.000192223)
(-0.000231044 0.000231044 -0.000192223)
(-0.000267655 0.000187413 -0.000192223)
(-0.000296132 0.000138088 -0.000192223)
(-0.000315612 8.4568e-05 -0.000192223)
(-0.000325503 2.84778e-05 -0.000192223)
(-0.000325503 -2.84778e-05 -0.000192223)
(-0.000315612 -8.4568e-05 -0.000192223)
(-0.000296132 -0.000138088 -0.000192223)
(-0.000267655 -0.000187413 -0.000192223)
(-0.000231044 -0.000231044 -0.000192223)
(-0.000187413 -0.000267655 -0.000192223)
(-0.000138088 -0.000296132 -0.000192223)
(-8.4568e-05 -0.000315612 -0.000192223)
(-2.84778e-05 -0.000325503 -0.000192223)
(2.84778e-05 -0.000325503 -0.000192223)
(8.4568e-05 -0.000315612 -0.000192223)
(0.000138088 -0.000296132 -0.000192223)
(0.000187413 -0.000267655 -0.000192223)
(0.000231044 -0.000231044 -0.000192223)
(0.000267655 -0.000187413 -0.000192223)
(0.000296132 -0.000138088 -0.000192223)
(0.000315612 -8.4568e-05 -0.000192223)
(0.000325503 -2.84778e-05 -0.000192223)
(0.00049327 4.31554e-05 -0.000166769)
(0.000478283 0.000128155 -0.000166769)
(0.000448762 0.000209261 -0.000166769)
(0.000405606 0.000284008 -0.00016677)
(0.000350127 0.000350127 -0.00016677)
(0.000284008 0.000405606 -0.00016677)
(0.000209261 0.000448762 -0.000166769)
(0.000128155 0.000478283 -0.000166769)
(4.31554e-05 0.00049327 -0.000166769)
(-4.31554e-05 0.00049327 -0.000166769)
(-0.000128155 0.000478283 -0.000166769)
(-0.000209261 0.000448762 -0.000166769)
(-0.000284008 0.000405606 -0.00016677)
(-0.000350127 0.000350127 -0.00016677)
(-0.000405606 0.000284008 -0.00016677)
(-0.000448762 0.000209261 -0.000166769)
(-0.000478283 0.000128155 -0.000166769)
(-0.00049327 4.31554e-05 -0.000166769)
(-0.00049327 -4.31554e-05 -0.000166769)
(-0.000478283 -0.000128155 -0.000166769)
(-0.000448762 -0.000209261 -0.000166769)
(-0.000405606 -0.000284008 -0.00016677)
(-0.000350127 -0.000350127 -0.00016677)
(-0.000284008 -0.000405606 -0.00016677)
(-0.000209261 -0.000448762 -0.000166769)
(-0.000128155 -0.000478283 -0.000166769)
(-4.31554e-05 -0.00049327 -0.000166769)
(4.31554e-05 -0.00049327 -0.000166769)
(0.000128155 -0.000478283 -0.000166769)
(0.000209261 -0.000448762 -0.000166769)
(0.000284008 -0.000405606 -0.00016677)
(0.000350127 -0.000350127 -0.00016677)
(0.000405606 -0.000284008 -0.00016677)
(0.000448762 -0.000209261 -0.000166769)
(0.000478283 -0.000128155 -0.000166769)
(0.00049327 -4.31554e-05 -0.000166769)
(0.000695831 6.08771e-05 -0.000123068)
(0.000674689 0.000180782 -0.000123068)
(0.000633047 0.000295194 -0.000123068)
(0.000572169 0.000400637 -0.000123068)
(0.000493907 0.000493907 -0.000123068)
(0.000400637 0.000572169 -0.000123068)
(0.000295194 0.000633047 -0.000123068)
(0.000180782 0.000674689 -0.000123068)
(6.08771e-05 0.000695831 -0.000123068)
(-6.08771e-05 0.000695831 -0.000123068)
(-0.000180782 0.000674689 -0.000123068)
(-0.000295194 0.000633047 -0.000123068)
(-0.000400637 0.000572169 -0.000123068)
(-0.000493907 0.000493907 -0.000123068)
(-0.000572169 0.000400637 -0.000123068)
(-0.000633047 0.000295194 -0.000123068)
(-0.000674689 0.000180782 -0.000123068)
(-0.000695831 6.08771e-05 -0.000123068)
(-0.000695831 -6.08771e-05 -0.000123068)
(-0.000674689 -0.000180782 -0.000123068)
(-0.000633047 -0.000295194 -0.000123068)
(-0.000572169 -0.000400637 -0.000123068)
(-0.000493907 -0.000493907 -0.000123068)
(-0.000400637 -0.000572169 -0.000123068)
(-0.000295194 -0.000633047 -0.000123068)
(-0.000180782 -0.000674689 -0.000123068)
(-6.08771e-05 -0.000695831 -0.000123068)
(6.08771e-05 -0.000695831 -0.000123068)
(0.000180782 -0.000674689 -0.000123068)
(0.000295194 -0.000633047 -0.000123068)
(0.000400637 -0.000572169 -0.000123068)
(0.000493907 -0.000493907 -0.000123068)
(0.000572169 -0.000400637 -0.000123068)
(0.000633047 -0.000295194 -0.000123068)
(0.000674689 -0.000180782 -0.000123068)
(0.000695831 -6.08771e-05 -0.000123068)
(0.00116064 0.000101543 -0.000564329)
(0.00112537 0.000301543 -0.000564329)
(0.00105592 0.000492381 -0.00056433)
(0.000954371 0.000668257 -0.00056433)
(0.000823829 0.000823829 -0.00056433)
(0.000668257 0.000954371 -0.00056433)
(0.000492381 0.00105592 -0.00056433)
(0.000301543 0.00112537 -0.000564329)
(0.000101543 0.00116064 -0.000564329)
(-0.000101543 0.00116064 -0.000564329)
(-0.000301543 0.00112537 -0.000564329)
(-0.000492381 0.00105592 -0.00056433)
(-0.000668257 0.000954371 -0.00056433)
(-0.000823829 0.000823829 -0.00056433)
(-0.000954371 0.000668257 -0.00056433)
(-0.00105592 0.000492381 -0.00056433)
(-0.00112537 0.000301543 -0.000564329)
(-0.00116064 0.000101543 -0.000564329)
(-0.00116064 -0.000101543 -0.000564329)
(-0.00112537 -0.000301543 -0.000564329)
(-0.00105592 -0.000492381 -0.00056433)
(-0.000954371 -0.000668257 -0.00056433)
(-0.000823829 -0.000823829 -0.00056433)
(-0.000668257 -0.000954371 -0.00056433)
(-0.000492381 -0.00105592 -0.00056433)
(-0.000301543 -0.00112537 -0.000564329)
(-0.000101543 -0.00116064 -0.000564329)
(0.000101543 -0.00116064 -0.000564329)
(0.000301543 -0.00112537 -0.000564329)
(0.000492381 -0.00105592 -0.00056433)
(0.000668257 -0.000954371 -0.00056433)
(0.000823829 -0.000823829 -0.00056433)
(0.000954371 -0.000668257 -0.00056433)
(0.00105592 -0.000492381 -0.00056433)
(0.00112537 -0.000301543 -0.000564329)
(0.00116064 -0.000101543 -0.000564329)
(0.00144065 0.000126041 -0.000566691)
(0.00139688 0.000374292 -0.000566691)
(0.00131066 0.000611171 -0.000566692)
(0.00118462 0.000829479 -0.000566692)
(0.00102259 0.00102259 -0.000566692)
(0.000829479 0.00118462 -0.000566692)
(0.000611171 0.00131066 -0.000566692)
(0.000374292 0.00139688 -0.000566691)
(0.000126041 0.00144065 -0.000566691)
(-0.000126041 0.00144065 -0.000566691)
(-0.000374292 0.00139688 -0.000566691)
(-0.000611171 0.00131066 -0.000566692)
(-0.000829479 0.00118462 -0.000566692)
(-0.00102259 0.00102259 -0.000566692)
(-0.00118462 0.000829479 -0.000566692)
(-0.00131066 0.000611171 -0.000566692)
(-0.00139688 0.000374292 -0.000566691)
(-0.00144065 0.000126041 -0.000566691)
(-0.00144065 -0.000126041 -0.000566691)
(-0.00139688 -0.000374292 -0.000566691)
(-0.00131066 -0.000611171 -0.000566692)
(-0.00118462 -0.000829479 -0.000566692)
(-0.00102259 -0.00102259 -0.000566692)
(-0.000829479 -0.00118462 -0.000566692)
(-0.000611171 -0.00131066 -0.000566692)
(-0.000374292 -0.00139688 -0.000566691)
(-0.000126041 -0.00144065 -0.000566691)
(0.000126041 -0.00144065 -0.000566691)
(0.000374292 -0.00139688 -0.000566691)
(0.000611171 -0.00131066 -0.000566692)
(0.000829479 -0.00118462 -0.000566692)
(0.00102259 -0.00102259 -0.000566692)
(0.00118462 -0.000829479 -0.000566692)
(0.00131066 -0.000611171 -0.000566692)
(0.00139688 -0.000374292 -0.000566691)
(0.00144065 -0.000126041 -0.000566691)
(0.00177096 0.000154939 -0.000547155)
(0.00171715 0.000460109 -0.000547155)
(0.00161117 0.000751299 -0.000547155)
(0.00145623 0.00101966 -0.000547155)
(0.00125704 0.00125704 -0.000547155)
(0.00101966 0.00145623 -0.000547155)
(0.000751299 0.00161117 -0.000547155)
(0.000460109 0.00171715 -0.000547155)
(0.000154939 0.00177096 -0.000547155)
(-0.000154939 0.00177096 -0.000547155)
(-0.000460109 0.00171715 -0.000547155)
(-0.000751299 0.00161117 -0.000547155)
(-0.00101966 0.00145623 -0.000547155)
(-0.00125704 0.00125704 -0.000547155)
(-0.00145623 0.00101966 -0.000547155)
(-0.00161117 0.000751299 -0.000547155)
(-0.00171715 0.000460109 -0.000547155)
(-0.00177096 0.000154939 -0.000547155)
(-0.00177096 -0.000154939 -0.000547155)
(-0.00171715 -0.000460109 -0.000547155)
(-0.00161117 -0.000751299 -0.000547155)
(-0.00145623 -0.00101966 -0.000547155)
(-0.00125704 -0.00125704 -0.000547155)
(-0.00101966 -0.00145623 -0.000547155)
(-0.000751299 -0.00161117 -0.000547155)
(-0.000460109 -0.00171715 -0.000547155)
(-0.000154939 -0.00177096 -0.000547155)
(0.000154939 -0.00177096 -0.000547155)
(0.000460109 -0.00171715 -0.000547155)
(0.000751299 -0.00161117 -0.000547155)
(0.00101966 -0.00145623 -0.000547155)
(0.00125704 -0.00125704 -0.000547155)
(0.00145623 -0.00101966 -0.000547155)
(0.00161117 -0.000751299 -0.000547155)
(0.00171715 -0.000460109 -0.000547155)
(0.00177096 -0.000154939 -0.000547155)
(0.00190599 0.000166752 -0.00106432)
(0.00184808 0.00049519 -0.00106432)
(0.00173401 0.000808582 -0.00106432)
(0.00156726 0.00109741 -0.00106433)
(0.00135288 0.00135288 -0.00106433)
(0.00109741 0.00156726 -0.00106433)
(0.000808582 0.00173401 -0.00106432)
(0.00049519 0.00184808 -0.00106432)
(0.000166752 0.00190599 -0.00106432)
(-0.000166752 0.00190599 -0.00106432)
(-0.00049519 0.00184808 -0.00106432)
(-0.000808582 0.00173401 -0.00106432)
(-0.00109741 0.00156726 -0.00106433)
(-0.00135288 0.00135288 -0.00106433)
(-0.00156726 0.00109741 -0.00106433)
(-0.00173401 0.000808582 -0.00106432)
(-0.00184808 0.00049519 -0.00106432)
(-0.00190599 0.000166752 -0.00106432)
(-0.00190599 -0.000166752 -0.00106432)
(-0.00184808 -0.00049519 -0.00106432)
(-0.00173401 -0.000808582 -0.00106432)
(-0.00156726 -0.00109741 -0.00106433)
(-0.00135288 -0.00135288 -0.00106433)
(-0.00109741 -0.00156726 -0.00106433)
(-0.000808582 -0.00173401 -0.00106432)
(-0.00049519 -0.00184808 -0.00106432)
(-0.000166752 -0.00190599 -0.00106432)
(0.000166752 -0.00190599 -0.00106432)
(0.00049519 -0.00184808 -0.00106432)
(0.000808582 -0.00173401 -0.00106432)
(0.00109741 -0.00156726 -0.00106433)
(0.00135288 -0.00135288 -0.00106433)
(0.00156726 -0.00109741 -0.00106433)
(0.00173401 -0.000808582 -0.00106432)
(0.00184808 -0.00049519 -0.00106432)
(0.00190599 -0.000166752 -0.00106432)
(0.00226082 0.000197797 -0.00108098)
(0.00219213 0.000587379 -0.00108098)
(0.00205683 0.000959114 -0.00108098)
(0.00185903 0.00130171 -0.00108098)
(0.00160475 0.00160475 -0.00108098)
(0.00130171 0.00185903 -0.00108098)
(0.000959114 0.00205683 -0.00108098)
(0.000587379 0.00219213 -0.00108098)
(0.000197797 0.00226082 -0.00108098)
(-0.000197797 0.00226082 -0.00108098)
(-0.000587379 0.00219213 -0.00108098)
(-0.000959114 0.00205683 -0.00108098)
(-0.00130171 0.00185903 -0.00108098)
(-0.00160475 0.00160475 -0.00108098)
(-0.00185903 0.00130171 -0.00108098)
(-0.00205683 0.000959114 -0.00108098)
(-0.00219213 0.000587379 -0.00108098)
(-0.00226082 0.000197797 -0.00108098)
(-0.00226082 -0.000197797 -0.00108098)
(-0.00219213 -0.000587379 -0.00108098)
(-0.00205683 -0.000959114 -0.00108098)
(-0.00185903 -0.00130171 -0.00108098)
(-0.00160475 -0.00160475 -0.00108098)
(-0.00130171 -0.00185903 -0.00108098)
(-0.000959114 -0.00205683 -0.00108098)
(-0.000587379 -0.00219213 -0.00108098)
(-0.000197797 -0.00226082 -0.00108098)
(0.000197797 -0.00226082 -0.00108098)
(0.000587379 -0.00219213 -0.00108098)
(0.000959114 -0.00205683 -0.00108098)
(0.00130171 -0.00185903 -0.00108098)
(0.00160475 -0.00160475 -0.00108098)
(0.00185903 -0.00130171 -0.00108098)
(0.00205683 -0.000959114 -0.00108098)
(0.00219213 -0.000587379 -0.00108098)
(0.00226082 -0.000197797 -0.00108098)
(0.00267284 0.000233843 -0.00107757)
(0.00259163 0.000694424 -0.00107757)
(0.00243167 0.0011339 -0.00107757)
(0.00219783 0.00153893 -0.00107757)
(0.0018972 0.0018972 -0.00107757)
(0.00153893 0.00219783 -0.00107757)
(0.0011339 0.00243167 -0.00107757)
(0.000694424 0.00259163 -0.00107757)
(0.000233843 0.00267284 -0.00107757)
(-0.000233843 0.00267284 -0.00107757)
(-0.000694424 0.00259163 -0.00107757)
(-0.0011339 0.00243167 -0.00107757)
(-0.00153893 0.00219783 -0.00107757)
(-0.0018972 0.0018972 -0.00107757)
(-0.00219783 0.00153893 -0.00107757)
(-0.00243167 0.0011339 -0.00107757)
(-0.00259163 0.000694424 -0.00107757)
(-0.00267284 0.000233843 -0.00107757)
(-0.00267284 -0.000233843 -0.00107757)
(-0.00259163 -0.000694424 -0.00107757)
(-0.00243167 -0.0011339 -0.00107757)
(-0.00219783 -0.00153893 -0.00107757)
(-0.0018972 -0.0018972 -0.00107757)
(-0.00153893 -0.00219783 -0.00107757)
(-0.0011339 -0.00243167 -0.00107757)
(-0.000694424 -0.00259163 -0.00107757)
(-0.000233843 -0.00267284 -0.00107757)
(0.000233843 -0.00267284 -0.00107757)
(0.000694424 -0.00259163 -0.00107757)
(0.0011339 -0.00243167 -0.00107757)
(0.00153893 -0.00219783 -0.00107757)
(0.0018972 -0.0018972 -0.00107757)
(0.00219783 -0.00153893 -0.00107757)
(0.00243167 -0.0011339 -0.00107757)
(0.00259163 -0.000694424 -0.00107757)
(0.00267284 -0.000233843 -0.00107757)
(0.00247888 0.000216873 -0.00164438)
(0.00240356 0.000644031 -0.00164438)
(0.00225521 0.00105162 -0.00164438)
(0.00203833 0.00142726 -0.00164438)
(0.00175953 0.00175953 -0.00164438)
(0.00142726 0.00203833 -0.00164438)
(0.00105162 0.00225521 -0.00164438)
(0.000644031 0.00240356 -0.00164438)
(0.000216873 0.00247888 -0.00164438)
(-0.000216873 0.00247888 -0.00164438)
(-0.000644031 0.00240356 -0.00164438)
(-0.00105162 0.00225521 -0.00164438)
(-0.00142726 0.00203833 -0.00164438)
(-0.00175953 0.00175953 -0.00164438)
(-0.00203833 0.00142726 -0.00164438)
(-0.00225521 0.00105162 -0.00164438)
(-0.00240356 0.000644031 -0.00164438)
(-0.00247888 0.000216873 -0.00164438)
(-0.00247888 -0.000216873 -0.00164438)
(-0.00240356 -0.000644031 -0.00164438)
(-0.00225521 -0.00105162 -0.00164438)
(-0.00203833 -0.00142726 -0.00164438)
(-0.00175953 -0.00175953 -0.00164438)
(-0.00142726 -0.00203833 -0.00164438)
(-0.00105162 -0.00225521 -0.00164438)
(-0.000644031 -0.00240356 -0.00164438)
(-0.000216873 -0.00247888 -0.00164438)
(0.000216873 -0.00247888 -0.00164438)
(0.000644031 -0.00240356 -0.00164438)
(0.00105162 -0.00225521 -0.00164438)
(0.00142726 -0.00203833 -0.00164438)
(0.00175953 -0.00175953 -0.00164438)
(0.00203833 -0.00142726 -0.00164438)
(0.00225521 -0.00105162 -0.00164438)
(0.00240356 -0.000644031 -0.00164438)
(0.00247888 -0.000216873 -0.00164438)
(0.00287515 0.000251543 -0.00167355)
(0.00278779 0.000746985 -0.00167355)
(0.00261572 0.00121973 -0.00167355)
(0.00236418 0.00165542 -0.00167355)
(0.0020408 0.0020408 -0.00167355)
(0.00165542 0.00236418 -0.00167355)
(0.00121973 0.00261572 -0.00167355)
(0.000746985 0.00278779 -0.00167355)
(0.000251543 0.00287515 -0.00167355)
(-0.000251543 0.00287515 -0.00167355)
(-0.000746985 0.00278779 -0.00167355)
(-0.00121973 0.00261572 -0.00167355)
(-0.00165542 0.00236418 -0.00167355)
(-0.0020408 0.0020408 -0.00167355)
(-0.00236418 0.00165542 -0.00167355)
(-0.00261572 0.00121973 -0.00167355)
(-0.00278779 0.000746985 -0.00167355)
(-0.00287515 0.000251543 -0.00167355)
(-0.00287515 -0.000251543 -0.00167355)
(-0.00278779 -0.000746985 -0.00167355)
(-0.00261572 -0.00121973 -0.00167355)
(-0.00236418 -0.00165542 -0.00167355)
(-0.0020408 -0.0020408 -0.00167355)
(-0.00165542 -0.00236418 -0.00167355)
(-0.00121973 -0.00261572 -0.00167355)
(-0.000746985 -0.00278779 -0.00167355)
(-0.000251543 -0.00287515 -0.00167355)
(0.000251543 -0.00287515 -0.00167355)
(0.000746985 -0.00278779 -0.00167355)
(0.00121973 -0.00261572 -0.00167355)
(0.00165542 -0.00236418 -0.00167355)
(0.0020408 -0.0020408 -0.00167355)
(0.00236418 -0.00165542 -0.00167355)
(0.00261572 -0.00121973 -0.00167355)
(0.00278779 -0.000746985 -0.00167355)
(0.00287515 -0.000251543 -0.00167355)
(0.00333481 0.000291758 -0.001688)
(0.00323349 0.00086641 -0.001688)
(0.00303391 0.00141474 -0.001688)
(0.00274215 0.00192008 -0.001688)
(0.00236707 0.00236707 -0.001688)
(0.00192008 0.00274215 -0.001688)
(0.00141474 0.00303391 -0.001688)
(0.00086641 0.00323349 -0.001688)
(0.000291758 0.00333481 -0.001688)
(-0.000291758 0.00333481 -0.001688)
(-0.00086641 0.00323349 -0.001688)
(-0.00141474 0.00303391 -0.001688)
(-0.00192008 0.00274215 -0.001688)
(-0.00236707 0.00236707 -0.001688)
(-0.00274215 0.00192008 -0.001688)
(-0.00303391 0.00141474 -0.001688)
(-0.00323349 0.00086641 -0.001688)
(-0.00333481 0.000291758 -0.001688)
(-0.00333481 -0.000291758 -0.001688)
(-0.00323349 -0.00086641 -0.001688)
(-0.00303391 -0.00141474 -0.001688)
(-0.00274215 -0.00192008 -0.001688)
(-0.00236707 -0.00236707 -0.001688)
(-0.00192008 -0.00274215 -0.001688)
(-0.00141474 -0.00303391 -0.001688)
(-0.00086641 -0.00323349 -0.001688)
(-0.000291758 -0.00333481 -0.001688)
(0.000291758 -0.00333481 -0.001688)
(0.00086641 -0.00323349 -0.001688)
(0.00141474 -0.00303391 -0.001688)
(0.00192008 -0.00274215 -0.001688)
(0.00236707 -0.00236707 -0.001688)
(0.00274215 -0.00192008 -0.001688)
(0.00303391 -0.00141474 -0.001688)
(0.00323349 -0.00086641 -0.001688)
(0.00333481 -0.000291758 -0.001688)
(0.00284253 0.000248689 -0.00226047)
(0.00275616 0.000738511 -0.00226047)
(0.00258605 0.00120589 -0.00226047)
(0.00233736 0.00163664 -0.00226047)
(0.00201765 0.00201765 -0.00226047)
(0.00163664 0.00233736 -0.00226047)
(0.00120589 0.00258605 -0.00226047)
(0.000738511 0.00275616 -0.00226047)
(0.000248689 0.00284253 -0.00226047)
(-0.000248689 0.00284253 -0.00226047)
(-0.000738511 0.00275616 -0.00226047)
(-0.00120589 0.00258605 -0.00226047)
(-0.00163664 0.00233736 -0.00226047)
(-0.00201765 0.00201765 -0.00226047)
(-0.00233736 0.00163664 -0.00226047)
(-0.00258605 0.00120589 -0.00226047)
(-0.00275616 0.000738511 -0.00226047)
(-0.00284253 0.000248689 -0.00226047)
(-0.00284253 -0.000248689 -0.00226047)
(-0.00275616 -0.000738511 -0.00226047)
(-0.00258605 -0.00120589 -0.00226047)
(-0.00233736 -0.00163664 -0.00226047)
(-0.00201765 -0.00201765 -0.00226047)
(-0.00163664 -0.00233736 -0.00226047)
(-0.00120589 -0.00258605 -0.00226047)
(-0.000738511 -0.00275616 -0.00226047)
(-0.000248689 -0.00284253 -0.00226047)
(0.000248689 -0.00284253 -0.00226047)
(0.000738511 -0.00275616 -0.00226047)
(0.00120589 -0.00258605 -0.00226047)
(0.00163664 -0.00233736 -0.00226047)
(0.00201765 -0.00201765 -0.00226047)
(0.00233736 -0.00163664 -0.00226047)
(0.00258605 -0.00120589 -0.00226047)
(0.00275616 -0.000738511 -0.00226047)
(0.00284253 -0.000248689 -0.00226047)
(0.00325875 0.000285104 -0.00230612)
(0.00315974 0.000846649 -0.00230612)
(0.00296471 0.00138247 -0.00230612)
(0.00267961 0.00187628 -0.00230612)
(0.00231309 0.00231309 -0.00230612)
(0.00187628 0.00267961 -0.00230612)
(0.00138247 0.00296471 -0.00230612)
(0.000846649 0.00315974 -0.00230612)
(0.000285104 0.00325875 -0.00230612)
(-0.000285104 0.00325875 -0.00230612)
(-0.000846649 0.00315974 -0.00230612)
(-0.00138247 0.00296471 -0.00230612)
(-0.00187628 0.00267961 -0.00230612)
(-0.00231309 0.00231309 -0.00230612)
(-0.00267961 0.00187628 -0.00230612)
(-0.00296471 0.00138247 -0.00230612)
(-0.00315974 0.000846649 -0.00230612)
(-0.00325875 0.000285104 -0.00230612)
(-0.00325875 -0.000285104 -0.00230612)
(-0.00315974 -0.000846649 -0.00230612)
(-0.00296471 -0.00138247 -0.00230612)
(-0.00267961 -0.00187628 -0.00230612)
(-0.00231309 -0.00231309 -0.00230612)
(-0.00187628 -0.00267961 -0.00230612)
(-0.00138247 -0.00296471 -0.00230612)
(-0.000846649 -0.00315974 -0.00230612)
(-0.000285104 -0.00325875 -0.00230612)
(0.000285104 -0.00325875 -0.00230612)
(0.000846649 -0.00315974 -0.00230612)
(0.00138247 -0.00296471 -0.00230612)
(0.00187628 -0.00267961 -0.00230612)
(0.00231309 -0.00231309 -0.00230612)
(0.00267961 -0.00187628 -0.00230612)
(0.00296471 -0.00138247 -0.00230612)
(0.00315974 -0.000846649 -0.00230612)
(0.00325875 -0.000285104 -0.00230612)
(0.0037437 0.000327531 -0.00234447)
(0.00362995 0.000972642 -0.00234447)
(0.0034059 0.0015882 -0.00234447)
(0.00307837 0.0021555 -0.00234447)
(0.00265731 0.00265731 -0.00234447)
(0.0021555 0.00307837 -0.00234447)
(0.0015882 0.0034059 -0.00234447)
(0.000972642 0.00362995 -0.00234447)
(0.000327531 0.0037437 -0.00234447)
(-0.000327531 0.0037437 -0.00234447)
(-0.000972642 0.00362995 -0.00234447)
(-0.0015882 0.0034059 -0.00234447)
(-0.0021555 0.00307837 -0.00234447)
(-0.00265731 0.00265731 -0.00234447)
(-0.00307837 0.0021555 -0.00234447)
(-0.0034059 0.0015882 -0.00234447)
(-0.00362995 0.000972642 -0.00234447)
(-0.0037437 0.000327531 -0.00234447)
(-0.0037437 -0.000327531 -0.00234447)
(-0.00362995 -0.000972642 -0.00234447)
(-0.0034059 -0.0015882 -0.00234447)
(-0.00307837 -0.0021555 -0.00234447)
(-0.00265731 -0.00265731 -0.00234447)
(-0.0021555 -0.00307837 -0.00234447)
(-0.0015882 -0.0034059 -0.00234447)
(-0.000972642 -0.00362995 -0.00234447)
(-0.000327531 -0.0037437 -0.00234447)
(0.000327531 -0.0037437 -0.00234447)
(0.000972642 -0.00362995 -0.00234447)
(0.0015882 -0.0034059 -0.00234447)
(0.0021555 -0.00307837 -0.00234447)
(0.00265731 -0.00265731 -0.00234447)
(0.00307837 -0.0021555 -0.00234447)
(0.0034059 -0.0015882 -0.00234447)
(0.00362995 -0.000972642 -0.00234447)
(0.0037437 -0.000327531 -0.00234447)
(0.0029996 0.000262431 -0.00287656)
(0.00290846 0.000779319 -0.00287656)
(0.00272894 0.00127253 -0.00287656)
(0.00246651 0.00172707 -0.00287656)
(0.00212914 0.00212914 -0.00287656)
(0.00172707 0.00246651 -0.00287656)
(0.00127253 0.00272894 -0.00287656)
(0.000779319 0.00290846 -0.00287656)
(0.000262431 0.0029996 -0.00287656)
(-0.000262431 0.0029996 -0.00287656)
(-0.000779319 0.00290846 -0.00287656)
(-0.00127253 0.00272894 -0.00287656)
(-0.00172707 0.00246651 -0.00287656)
(-0.00212914 0.00212914 -0.00287656)
(-0.00246651 0.00172707 -0.00287656)
(-0.00272894 0.00127253 -0.00287656)
(-0.00290846 0.000779319 -0.00287656)
(-0.0029996 0.000262431 -0.00287656)
(-0.0029996 -0.000262431 -0.00287656)
(-0.00290846 -0.000779319 -0.00287656)
(-0.00272894 -0.00127253 -0.00287656)
(-0.00246651 -0.00172707 -0.00287656)
(-0.00212914 -0.00212914 -0.00287656)
(-0.00172707 -0.00246651 -0.00287656)
(-0.00127253 -0.00272894 -0.00287656)
(-0.000779319 -0.00290846 -0.00287656)
(-0.000262431 -0.0029996 -0.00287656)
(0.000262431 -0.0029996 -0.00287656)
(0.000779319 -0.00290846 -0.00287656)
(0.00127253 -0.00272894 -0.00287656)
(0.00172707 -0.00246651 -0.00287656)
(0.00212914 -0.00212914 -0.00287656)
(0.00246651 -0.00172707 -0.00287656)
(0.00272894 -0.00127253 -0.00287656)
(0.00290846 -0.000779319 -0.00287656)
(0.0029996 -0.000262431 -0.00287656)
(0.00342124 0.00029932 -0.00294264)
(0.00331729 0.000888866 -0.00294264)
(0.00311254 0.0014514 -0.00294264)
(0.00281322 0.00196984 -0.00294264)
(0.00242842 0.00242842 -0.00294264)
(0.00196984 0.00281322 -0.00294264)
(0.0014514 0.00311254 -0.00294264)
(0.000888866 0.00331729 -0.00294264)
(0.00029932 0.00342124 -0.00294264)
(-0.00029932 0.00342124 -0.00294264)
(-0.000888866 0.00331729 -0.00294264)
(-0.0014514 0.00311254 -0.00294264)
(-0.00196984 0.00281322 -0.00294264)
(-0.00242842 0.00242842 -0.00294264)
(-0.00281322 0.00196984 -0.00294264)
(-0.00311254 0.0014514 -0.00294264)
(-0.00331729 0.000888866 -0.00294264)
(-0.00342124 0.00029932 -0.00294264)
(-0.00342124 -0.00029932 -0.00294264)
(-0.00331729 -0.000888866 -0.00294264)
(-0.00311254 -0.0014514 -0.00294264)
(-0.00281322 -0.00196984 -0.00294264)
(-0.00242842 -0.00242842 -0.00294264)
(-0.00196984 -0.00281322 -0.00294264)
(-0.0014514 -0.00311254 -0.00294264)
(-0.000888866 -0.00331729 -0.00294264)
(-0.00029932 -0.00342124 -0.00294264)
(0.00029932 -0.00342124 -0.00294264)
(0.000888866 -0.00331729 -0.00294264)
(0.0014514 -0.00311254 -0.00294264)
(0.00196984 -0.00281322 -0.00294264)
(0.00242842 -0.00242842 -0.00294264)
(0.00281322 -0.00196984 -0.00294264)
(0.00311254 -0.0014514 -0.00294264)
(0.00331729 -0.000888866 -0.00294264)
(0.00342124 -0.00029932 -0.00294264)
(0.00391557 0.000342568 -0.00300988)
(0.00379659 0.0010173 -0.00300988)
(0.00356226 0.00166111 -0.00300988)
(0.0032197 0.00225446 -0.00300989)
(0.0027793 0.0027793 -0.00300989)
(0.00225446 0.0032197 -0.00300989)
(0.00166111 0.00356226 -0.00300988)
(0.0010173 0.00379659 -0.00300988)
(0.000342568 0.00391557 -0.00300988)
(-0.000342568 0.00391557 -0.00300988)
(-0.0010173 0.00379659 -0.00300988)
(-0.00166111 0.00356226 -0.00300988)
(-0.00225446 0.0032197 -0.00300989)
(-0.0027793 0.0027793 -0.00300989)
(-0.0032197 0.00225446 -0.00300989)
(-0.00356226 0.00166111 -0.00300988)
(-0.00379659 0.0010173 -0.00300988)
(-0.00391557 0.000342568 -0.00300988)
(-0.00391557 -0.000342568 -0.00300988)
(-0.00379659 -0.0010173 -0.00300988)
(-0.00356226 -0.00166111 -0.00300988)
(-0.0032197 -0.00225446 -0.00300989)
(-0.0027793 -0.0027793 -0.00300989)
(-0.00225446 -0.0032197 -0.00300989)
(-0.00166111 -0.00356226 -0.00300988)
(-0.0010173 -0.00379659 -0.00300988)
(-0.000342568 -0.00391557 -0.00300988)
(0.000342568 -0.00391557 -0.00300988)
(0.0010173 -0.00379659 -0.00300988)
(0.00166111 -0.00356226 -0.00300988)
(0.00225446 -0.0032197 -0.00300989)
(0.0027793 -0.0027793 -0.00300989)
(0.0032197 -0.00225446 -0.00300989)
(0.00356226 -0.00166111 -0.00300988)
(0.00379659 -0.0010173 -0.00300988)
(0.00391557 -0.000342568 -0.00300988)
(0.00297358 0.000260154 -0.00346417)
(0.00288323 0.000772559 -0.00346417)
(0.00270527 0.00126149 -0.00346417)
(0.00244512 0.00171209 -0.00346417)
(0.00211067 0.00211067 -0.00346417)
(0.00171209 0.00244512 -0.00346417)
(0.00126149 0.00270527 -0.00346417)
(0.000772559 0.00288323 -0.00346417)
(0.000260154 0.00297358 -0.00346417)
(-0.000260154 0.00297358 -0.00346417)
(-0.000772559 0.00288323 -0.00346417)
(-0.00126149 0.00270527 -0.00346417)
(-0.00171209 0.00244512 -0.00346417)
(-0.00211067 0.00211067 -0.00346417)
(-0.00244512 0.00171209 -0.00346417)
(-0.00270527 0.00126149 -0.00346417)
(-0.00288323 0.000772559 -0.00346417)
(-0.00297358 0.000260154 -0.00346417)
(-0.00297358 -0.000260154 -0.00346417)
(-0.00288323 -0.000772559 -0.00346417)
(-0.00270527 -0.00126149 -0.00346417)
(-0.00244512 -0.00171209 -0.00346417)
(-0.00211067 -0.00211067 -0.00346417)
(-0.00171209 -0.00244512 -0.00346417)
(-0.00126149 -0.00270527 -0.00346417)
(-0.000772559 -0.00288323 -0.00346417)
(-0.000260154 -0.00297358 -0.00346417)
(0.000260154 -0.00297358 -0.00346417)
(0.000772559 -0.00288323 -0.00346417)
(0.00126149 -0.00270527 -0.00346417)
(0.00171209 -0.00244512 -0.00346417)
(0.00211067 -0.00211067 -0.00346417)
(0.00244512 -0.00171209 -0.00346417)
(0.00270527 -0.00126149 -0.00346417)
(0.00288323 -0.000772559 -0.00346417)
(0.00297358 -0.000260154 -0.00346417)
(0.00339049 0.000296629 -0.00355247)
(0.00328747 0.000880875 -0.00355247)
(0.00308456 0.00143836 -0.00355247)
(0.00278793 0.00195213 -0.00355247)
(0.00240659 0.00240659 -0.00355247)
(0.00195213 0.00278793 -0.00355247)
(0.00143836 0.00308456 -0.00355247)
(0.000880875 0.00328747 -0.00355247)
(0.000296629 0.00339049 -0.00355247)
(-0.000296629 0.00339049 -0.00355247)
(-0.000880875 0.00328747 -0.00355247)
(-0.00143836 0.00308456 -0.00355247)
(-0.00195213 0.00278793 -0.00355247)
(-0.00240659 0.00240659 -0.00355247)
(-0.00278793 0.00195213 -0.00355247)
(-0.00308456 0.00143836 -0.00355247)
(-0.00328747 0.000880875 -0.00355247)
(-0.00339049 0.000296629 -0.00355247)
(-0.00339049 -0.000296629 -0.00355247)
(-0.00328747 -0.000880875 -0.00355247)
(-0.00308456 -0.00143836 -0.00355247)
(-0.00278793 -0.00195213 -0.00355247)
(-0.00240659 -0.00240659 -0.00355247)
(-0.00195213 -0.00278793 -0.00355247)
(-0.00143836 -0.00308456 -0.00355247)
(-0.000880875 -0.00328747 -0.00355247)
(-0.000296629 -0.00339049 -0.00355247)
(0.000296629 -0.00339049 -0.00355247)
(0.000880875 -0.00328747 -0.00355247)
(0.00143836 -0.00308456 -0.00355247)
(0.00195213 -0.00278793 -0.00355247)
(0.00240659 -0.00240659 -0.00355247)
(0.00278793 -0.00195213 -0.00355247)
(0.00308456 -0.00143836 -0.00355247)
(0.00328747 -0.000880875 -0.00355247)
(0.00339049 -0.000296629 -0.00355247)
(0.00388308 0.000339727 -0.00365086)
(0.0037651 0.00100886 -0.00365086)
(0.00353271 0.00164733 -0.00365086)
(0.00319299 0.00223575 -0.00365086)
(0.00275624 0.00275624 -0.00365086)
(0.00223575 0.00319299 -0.00365086)
(0.00164733 0.00353271 -0.00365086)
(0.00100886 0.0037651 -0.00365086)
(0.000339727 0.00388308 -0.00365086)
(-0.000339727 0.00388308 -0.00365086)
(-0.00100886 0.0037651 -0.00365086)
(-0.00164733 0.00353271 -0.00365086)
(-0.00223575 0.00319299 -0.00365086)
(-0.00275624 0.00275624 -0.00365086)
(-0.00319299 0.00223575 -0.00365086)
(-0.00353271 0.00164733 -0.00365086)
(-0.0037651 0.00100886 -0.00365086)
(-0.00388308 0.000339727 -0.00365086)
(-0.00388308 -0.000339727 -0.00365086)
(-0.0037651 -0.00100886 -0.00365086)
(-0.00353271 -0.00164733 -0.00365086)
(-0.00319299 -0.00223575 -0.00365086)
(-0.00275624 -0.00275624 -0.00365086)
(-0.00223575 -0.00319299 -0.00365086)
(-0.00164733 -0.00353271 -0.00365086)
(-0.00100886 -0.0037651 -0.00365086)
(-0.000339727 -0.00388308 -0.00365086)
(0.000339727 -0.00388308 -0.00365086)
(0.00100886 -0.0037651 -0.00365086)
(0.00164733 -0.00353271 -0.00365086)
(0.00223575 -0.00319299 -0.00365086)
(0.00275624 -0.00275624 -0.00365086)
(0.00319299 -0.00223575 -0.00365086)
(0.00353271 -0.00164733 -0.00365086)
(0.0037651 -0.00100886 -0.00365086)
(0.00388308 -0.000339727 -0.00365086)
(0.00279594 0.000244613 -0.00400018)
(0.00271099 0.000726407 -0.00400018)
(0.00254366 0.00118613 -0.00400018)
(0.00229905 0.00160981 -0.00400018)
(0.00198458 0.00198458 -0.00400018)
(0.00160981 0.00229905 -0.00400018)
(0.00118613 0.00254366 -0.00400018)
(0.000726407 0.00271099 -0.00400018)
(0.000244613 0.00279594 -0.00400018)
(-0.000244613 0.00279594 -0.00400018)
(-0.000726407 0.00271099 -0.00400018)
(-0.00118613 0.00254366 -0.00400018)
(-0.00160981 0.00229905 -0.00400018)
(-0.00198458 0.00198458 -0.00400018)
(-0.00229905 0.00160981 -0.00400018)
(-0.00254366 0.00118613 -0.00400018)