/*--------------------------------*- C++ -*----------------------------------*\
| =========                 |                                                 |
| \\      /  F ield         | OpenFOAM: The Open Source CFD Toolbox           |
|  \\    /   O peration     | Version:  2312                                  |
|   \\  /    A nd           | Website:  www.openfoam.com                      |
|    \\/     M anipulation  |                                                 |
\*---------------------------------------------------------------------------*/
FoamFile
{
    version     2.0;
    format      ascii;
    arch        "LSB;label=32;scalar=64";
    class       volVectorField;
    location    "0.7";
    object      D_0_0_0;
}
// * * * * * * * * * * * * * * * * * * * * * * * * * * * * * * * * * * * * * //

dimensions      [0 1 0 0 0 0 0];

internalField   nonuniform List<vector> 
1620
(
(0.000310919 2.72019e-05 -0.000181524)
(0.000301472 8.07789e-05 -0.000181524)
(0.000282864 0.000131901 -0.000181525)
(0.000255662 0.000179016 -0.000181525)
(0.000220692 0.000220692 -0.000181525)
(0.000179016 0.000255662 -0.000181525)
(0.000131901 0.000282864 -0.000181525)
(8.07789e-05 0.000301472 -0.000181524)
(2.72019e-05 0.000310919 -0.000181524)
(-2.72019e-05 0.000310919 -0.000181524)
(-8.07789e-05 0.000301472 -0.000181524)
(-0.000131901 0.000282864 -0.000181525)
(-0.000179016 0.000255662 -0.000181525)
(-0.000220692 0.000220692 -0.000181525)
(-0.000255662 0.000179016 -0.000181525)
(-0.000282864 0.000131901 -0.000181525)
(-0.000301472 8.07789e-05 -0.000181524)
(-0.000310919 2.72019e-05 -0.000181524)
(-0.000310919 -2.72019e-05 -0.000181524)
(-0.000301472 -8.07789e-05 -0.000181524)
(-0.000282864 -0.000131901 -0.000181525)
(-0.000255662 -0.000179016 -0.000181525)
(-0.000220692 -0.000220692 -0.000181525)
(-0.000179016 -0.000255662 -0.000181525)
(-0.000131901 -0.000282864 -0.000181525)
(-8.07789e-05 -0.000301472 -0.000181524)
(-2.72019e-05 -0.000310919 -0.000181524)
(2.72019e-05 -0.000310919 -0.000181524)
(8.07789e-05 -0.000301472 -0.000181524)
(0.000131901 -0.000282864 -0.000181525)
(0.000179016 -0.000255662 -0.000181525)
(0.000220692 -0.000220692 -0.000181525)
(0.000255662 -0.000179016 -0.000181525)
(0.000282864 -0.000131901 -0.000181525)
(0.000301472 -8.07789e-05 -0.000181524)
(0.000310919 -2.72019e-05 -0.000181524)
(0.000472619 4.13486e-05 -0.000158493)
(0.000458259 0.00012279 -0.000158493)
(0.000429974 0.0002005 -0.000158493)
(0.000388625 0.000272118 -0.000158493)
(0.000335468 0.000335468 -0.000158493)
(0.000272118 0.000388625 -0.000158493)
(0.0002005 0.000429974 -0.000158493)
(0.00012279 0.000458259 -0.000158493)
(4.13486e-05 0.000472619 -0.000158493)
(-4.13486e-05 0.000472619 -0.000158493)
(-0.00012279 0.000458259 -0.000158493)
(-0.0002005 0.000429974 -0.000158493)
(-0.000272118 0.000388625 -0.000158493)
(-0.000335468 0.000335468 -0.000158493)
(-0.000388625 0.000272118 -0.000158493)
(-0.000429974 0.0002005 -0.000158493)
(-0.000458259 0.00012279 -0.000158493)
(-0.000472619 4.13486e-05 -0.000158493)
(-0.000472619 -4.13486e-05 -0.000158493)
(-0.000458259 -0.00012279 -0.000158493)
(-0.000429974 -0.0002005 -0.000158493)
(-0.000388625 -0.000272118 -0.000158493)
(-0.000335468 -0.000335468 -0.000158493)
(-0.000272118 -0.000388625 -0.000158493)
(-0.0002005 -0.000429974 -0.000158493)
(-0.00012279 -0.000458259 -0.000158493)
(-4.13486e-05 -0.000472619 -0.000158493)
(4.13486e-05 -0.000472619 -0.000158493)
(0.00012279 -0.000458259 -0.000158493)
(0.0002005 -0.000429974 -0.000158493)
(0.000272118 -0.000388625 -0.000158493)
(0.000335468 -0.000335468 -0.000158493)
(0.000388625 -0.000272118 -0.000158493)
(0.000429974 -0.0002005 -0.000158493)
(0.000458259 -0.00012279 -0.000158493)
(0.000472619 -4.13486e-05 -0.000158493)
(0.000668875 5.85188e-05 -0.000117798)
(0.000648553 0.000173778 -0.000117799)
(0.000608523 0.000283759 -0.000117799)
(0.000550004 0.000385116 -0.000117798)
(0.000474773 0.000474773 -0.000117799)
(0.000385116 0.000550004 -0.000117798)
(0.000283759 0.000608523 -0.000117799)
(0.000173778 0.000648553 -0.000117799)
(5.85188e-05 0.000668875 -0.000117798)
(-5.85188e-05 0.000668875 -0.000117798)
(-0.000173778 0.000648553 -0.000117799)
(-0.000283759 0.000608523 -0.000117799)
(-0.000385116 0.000550004 -0.000117798)
(-0.000474773 0.000474773 -0.000117799)
(-0.000550004 0.000385116 -0.000117798)
(-0.000608523 0.000283759 -0.000117799)
(-0.000648553 0.000173778 -0.000117799)
(-0.000668875 5.85188e-05 -0.000117798)
(-0.000668875 -5.85188e-05 -0.000117798)
(-0.000648553 -0.000173778 -0.000117799)
(-0.000608523 -0.000283759 -0.000117799)
(-0.000550004 -0.000385116 -0.000117798)
(-0.000474773 -0.000474773 -0.000117799)
(-0.000385116 -0.000550004 -0.000117798)
(-0.000283759 -0.000608523 -0.000117799)
(-0.000173778 -0.000648553 -0.000117799)
(-5.85188e-05 -0.000668875 -0.000117798)
(5.85188e-05 -0.000668875 -0.000117798)
(0.000173778 -0.000648553 -0.000117799)
(0.000283759 -0.000608523 -0.000117799)
(0.000385116 -0.000550004 -0.000117798)
(0.000474773 -0.000474773 -0.000117799)
(0.000550004 -0.000385116 -0.000117798)
(0.000608523 -0.000283759 -0.000117799)
(0.000648553 -0.000173778 -0.000117799)
(0.000668875 -5.85188e-05 -0.000117798)
(0.00111097 9.71969e-05 -0.000535244)
(0.00107721 0.000288638 -0.000535245)
(0.00101072 0.000471308 -0.000535245)
(0.000913525 0.000639657 -0.000535245)
(0.000788571 0.000788571 -0.000535245)
(0.000639657 0.000913525 -0.000535245)
(0.000471308 0.00101072 -0.000535245)
(0.000288638 0.00107721 -0.000535245)
(9.71969e-05 0.00111097 -0.000535244)
(-9.71969e-05 0.00111097 -0.000535244)
(-0.000288638 0.00107721 -0.000535245)
(-0.000471308 0.00101072 -0.000535245)
(-0.000639657 0.000913525 -0.000535245)
(-0.000788571 0.000788571 -0.000535245)
(-0.000913525 0.000639657 -0.000535245)
(-0.00101072 0.000471308 -0.000535245)
(-0.00107721 0.000288638 -0.000535245)
(-0.00111097 9.71969e-05 -0.000535244)
(-0.00111097 -9.71969e-05 -0.000535244)
(-0.00107721 -0.000288638 -0.000535245)
(-0.00101072 -0.000471308 -0.000535245)
(-0.000913525 -0.000639657 -0.000535245)
(-0.000788571 -0.000788571 -0.000535245)
(-0.000639657 -0.000913525 -0.000535245)
(-0.000471308 -0.00101072 -0.000535245)
(-0.000288638 -0.00107721 -0.000535245)
(-9.71969e-05 -0.00111097 -0.000535244)
(9.71969e-05 -0.00111097 -0.000535244)
(0.000288638 -0.00107721 -0.000535245)
(0.000471308 -0.00101072 -0.000535245)
(0.000639657 -0.000913525 -0.000535245)
(0.000788571 -0.000788571 -0.000535245)
(0.000913525 -0.000639657 -0.000535245)
(0.00101072 -0.000471308 -0.000535245)
(0.00107721 -0.000288638 -0.000535245)
(0.00111097 -9.71969e-05 -0.000535244)
(0.00138206 0.000120915 -0.000539514)
(0.00134007 0.000359069 -0.000539514)
(0.00125736 0.000586314 -0.000539515)
(0.00113644 0.000795744 -0.000539515)
(0.000980996 0.000980996 -0.000539515)
(0.000795744 0.00113644 -0.000539515)
(0.000586314 0.00125736 -0.000539515)
(0.000359069 0.00134007 -0.000539514)
(0.000120915 0.00138206 -0.000539514)
(-0.000120915 0.00138206 -0.000539514)
(-0.000359069 0.00134007 -0.000539514)
(-0.000586314 0.00125736 -0.000539515)
(-0.000795744 0.00113644 -0.000539515)
(-0.000980996 0.000980996 -0.000539515)
(-0.00113644 0.000795744 -0.000539515)
(-0.00125736 0.000586314 -0.000539515)
(-0.00134007 0.000359069 -0.000539514)
(-0.00138206 0.000120915 -0.000539514)
(-0.00138206 -0.000120915 -0.000539514)
(-0.00134007 -0.000359069 -0.000539514)
(-0.00125736 -0.000586314 -0.000539515)
(-0.00113644 -0.000795744 -0.000539515)
(-0.000980996 -0.000980996 -0.000539515)
(-0.000795744 -0.00113644 -0.000539515)
(-0.000586314 -0.00125736 -0.000539515)
(-0.000359069 -0.00134007 -0.000539514)
(-0.000120915 -0.00138206 -0.000539514)
(0.000120915 -0.00138206 -0.000539514)
(0.000359069 -0.00134007 -0.000539514)
(0.000586314 -0.00125736 -0.000539515)
(0.000795744 -0.00113644 -0.000539515)
(0.000980996 -0.000980996 -0.000539515)
(0.00113644 -0.000795744 -0.000539515)
(0.00125736 -0.000586314 -0.000539515)
(0.00134007 -0.000359069 -0.000539514)
(0.00138206 -0.000120915 -0.000539514)
(0.00170327 0.000149017 -0.000522608)
(0.00165152 0.000442523 -0.000522608)
(0.00154959 0.000722582 -0.000522608)
(0.00140057 0.000980687 -0.000522608)
(0.00120899 0.00120899 -0.000522608)
(0.000980687 0.00140057 -0.000522608)
(0.000722582 0.00154959 -0.000522608)
(0.000442523 0.00165152 -0.000522608)
(0.000149017 0.00170327 -0.000522608)
(-0.000149017 0.00170327 -0.000522608)
(-0.000442523 0.00165152 -0.000522608)
(-0.000722582 0.00154959 -0.000522608)
(-0.000980687 0.00140057 -0.000522608)
(-0.00120899 0.00120899 -0.000522608)
(-0.00140057 0.000980687 -0.000522608)
(-0.00154959 0.000722582 -0.000522608)
(-0.00165152 0.000442523 -0.000522608)
(-0.00170327 0.000149017 -0.000522608)
(-0.00170327 -0.000149017 -0.000522608)
(-0.00165152 -0.000442523 -0.000522608)
(-0.00154959 -0.000722582 -0.000522608)
(-0.00140057 -0.000980687 -0.000522608)
(-0.00120899 -0.00120899 -0.000522608)
(-0.000980687 -0.00140057 -0.000522608)
(-0.000722582 -0.00154959 -0.000522608)
(-0.000442523 -0.00165152 -0.000522608)
(-0.000149017 -0.00170327 -0.000522608)
(0.000149017 -0.00170327 -0.000522608)
(0.000442523 -0.00165152 -0.000522608)
(0.000722582 -0.00154959 -0.000522608)
(0.000980687 -0.00140057 -0.000522608)
(0.00120899 -0.00120899 -0.000522608)
(0.00140057 -0.000980687 -0.000522608)
(0.00154959 -0.000722582 -0.000522608)
(0.00165152 -0.000442523 -0.000522608)
(0.00170327 -0.000149017 -0.000522608)
(0.00182729 0.000159867 -0.00101303)
(0.00177177 0.000474744 -0.00101303)
(0.00166241 0.000775196 -0.00101303)
(0.00150255 0.00105209 -0.00101303)
(0.00129702 0.00129702 -0.00101303)
(0.00105209 0.00150255 -0.00101303)
(0.000775196 0.00166241 -0.00101303)
(0.000474744 0.00177177 -0.00101303)
(0.000159867 0.00182729 -0.00101303)
(-0.000159867 0.00182729 -0.00101303)
(-0.000474744 0.00177177 -0.00101303)
(-0.000775196 0.00166241 -0.00101303)
(-0.00105209 0.00150255 -0.00101303)
(-0.00129702 0.00129702 -0.00101303)
(-0.00150255 0.00105209 -0.00101303)
(-0.00166241 0.000775196 -0.00101303)
(-0.00177177 0.000474744 -0.00101303)
(-0.00182729 0.000159867 -0.00101303)
(-0.00182729 -0.000159867 -0.00101303)
(-0.00177177 -0.000474744 -0.00101303)
(-0.00166241 -0.000775196 -0.00101303)
(-0.00150255 -0.00105209 -0.00101303)
(-0.00129702 -0.00129702 -0.00101303)
(-0.00105209 -0.00150255 -0.00101303)
(-0.000775196 -0.00166241 -0.00101303)
(-0.000474744 -0.00177177 -0.00101303)
(-0.000159867 -0.00182729 -0.00101303)
(0.000159867 -0.00182729 -0.00101303)
(0.000474744 -0.00177177 -0.00101303)
(0.000775196 -0.00166241 -0.00101303)
(0.00105209 -0.00150255 -0.00101303)
(0.00129702 -0.00129702 -0.00101303)
(0.00150255 -0.00105209 -0.00101303)
(0.00166241 -0.000775196 -0.00101303)
(0.00177177 -0.000474744 -0.00101303)
(0.00182729 -0.000159867 -0.00101303)
(0.00217188 0.000190015 -0.00103123)
(0.00210589 0.000564271 -0.00103123)
(0.00197591 0.000921382 -0.00103123)
(0.0017859 0.0012505 -0.00103123)
(0.00154162 0.00154162 -0.00103123)
(0.0012505 0.0017859 -0.00103123)
(0.000921382 0.00197591 -0.00103123)
(0.000564271 0.00210589 -0.00103123)
(0.000190015 0.00217188 -0.00103123)
(-0.000190015 0.00217188 -0.00103123)
(-0.000564271 0.00210589 -0.00103123)
(-0.000921382 0.00197591 -0.00103123)
(-0.0012505 0.0017859 -0.00103123)
(-0.00154162 0.00154162 -0.00103123)
(-0.0017859 0.0012505 -0.00103123)
(-0.00197591 0.000921382 -0.00103123)
(-0.00210589 0.000564271 -0.00103123)
(-0.00217188 0.000190015 -0.00103123)
(-0.00217188 -0.000190015 -0.00103123)
(-0.00210589 -0.000564271 -0.00103123)
(-0.00197591 -0.000921382 -0.00103123)
(-0.0017859 -0.0012505 -0.00103123)
(-0.00154162 -0.00154162 -0.00103123)
(-0.0012505 -0.0017859 -0.00103123)
(-0.000921382 -0.00197591 -0.00103123)
(-0.000564271 -0.00210589 -0.00103123)
(-0.000190015 -0.00217188 -0.00103123)
(0.000190015 -0.00217188 -0.00103123)
(0.000564271 -0.00210589 -0.00103123)
(0.000921382 -0.00197591 -0.00103123)
(0.0012505 -0.0017859 -0.00103123)
(0.00154162 -0.00154162 -0.00103123)
(0.0017859 -0.0012505 -0.00103123)
(0.00197591 -0.000921382 -0.00103123)
(0.00210589 -0.000564271 -0.00103123)
(0.00217188 -0.000190015 -0.00103123)
(0.00257351 0.000225153 -0.00103)
(0.00249532 0.000668618 -0.00103)
(0.00234131 0.00109177 -0.00103)
(0.00211615 0.00148174 -0.00103)
(0.0018267 0.0018267 -0.00103)
(0.00148174 0.00211615 -0.00103)
(0.00109177 0.00234131 -0.00103)
(0.000668618 0.00249532 -0.00103)
(0.000225153 0.00257351 -0.00103)
(-0.000225153 0.00257351 -0.00103)
(-0.000668618 0.00249532 -0.00103)
(-0.00109177 0.00234131 -0.00103)
(-0.00148174 0.00211615 -0.00103)
(-0.0018267 0.0018267 -0.00103)
(-0.00211615 0.00148174 -0.00103)
(-0.00234131 0.00109177 -0.00103)
(-0.00249532 0.000668618 -0.00103)
(-0.00257351 0.000225153 -0.00103)
(-0.00257351 -0.000225153 -0.00103)
(-0.00249532 -0.000668618 -0.00103)
(-0.00234131 -0.00109177 -0.00103)
(-0.00211615 -0.00148174 -0.00103)
(-0.0018267 -0.0018267 -0.00103)
(-0.00148174 -0.00211615 -0.00103)
(-0.00109177 -0.00234131 -0.00103)
(-0.000668618 -0.00249532 -0.00103)
(-0.000225153 -0.00257351 -0.00103)
(0.000225153 -0.00257351 -0.00103)
(0.000668618 -0.00249532 -0.00103)
(0.00109177 -0.00234131 -0.00103)
(0.00148174 -0.00211615 -0.00103)
(0.0018267 -0.0018267 -0.00103)
(0.00211615 -0.00148174 -0.00103)
(0.00234131 -0.00109177 -0.00103)
(0.00249532 -0.000668618 -0.00103)
(0.00257351 -0.000225153 -0.00103)
(0.00238109 0.000208318 -0.00156828)
(0.00230874 0.000618624 -0.00156828)
(0.00216624 0.00101013 -0.00156828)
(0.00195792 0.00137095 -0.00156828)
(0.00169011 0.00169011 -0.00156828)
(0.00137095 0.00195792 -0.00156828)
(0.00101013 0.00216624 -0.00156828)
(0.000618624 0.00230874 -0.00156828)
(0.000208318 0.00238109 -0.00156828)
(-0.000208318 0.00238109 -0.00156828)
(-0.000618624 0.00230874 -0.00156828)
(-0.00101013 0.00216624 -0.00156828)
(-0.00137095 0.00195792 -0.00156828)
(-0.00169011 0.00169011 -0.00156828)
(-0.00195792 0.00137095 -0.00156828)
(-0.00216624 0.00101013 -0.00156828)
(-0.00230874 0.000618624 -0.00156828)
(-0.00238109 0.000208318 -0.00156828)
(-0.00238109 -0.000208318 -0.00156828)
(-0.00230874 -0.000618624 -0.00156828)
(-0.00216624 -0.00101013 -0.00156828)
(-0.00195792 -0.00137095 -0.00156828)
(-0.00169011 -0.00169011 -0.00156828)
(-0.00137095 -0.00195792 -0.00156828)
(-0.00101013 -0.00216624 -0.00156828)
(-0.000618624 -0.00230874 -0.00156828)
(-0.000208318 -0.00238109 -0.00156828)
(0.000208318 -0.00238109 -0.00156828)
(0.000618624 -0.00230874 -0.00156828)
(0.00101013 -0.00216624 -0.00156828)
(0.00137095 -0.00195792 -0.00156828)
(0.00169011 -0.00169011 -0.00156828)
(0.00195792 -0.00137095 -0.00156828)
(0.00216624 -0.00101013 -0.00156828)
(0.00230874 -0.000618624 -0.00156828)
(0.00238109 -0.000208318 -0.00156828)
(0.00276659 0.000242045 -0.00159844)
(0.00268252 0.00071878 -0.00159844)
(0.00251696 0.00117368 -0.00159844)
(0.00227491 0.00159291 -0.00159844)
(0.00196374 0.00196374 -0.00159844)
(0.00159291 0.00227491 -0.00159844)
(0.00117368 0.00251696 -0.00159844)
(0.00071878 0.00268252 -0.00159844)
(0.000242045 0.00276659 -0.00159844)
(-0.000242045 0.00276659 -0.00159844)
(-0.00071878 0.00268252 -0.00159844)
(-0.00117368 0.00251696 -0.00159844)
(-0.00159291 0.00227491 -0.00159844)
(-0.00196374 0.00196374 -0.00159844)
(-0.00227491 0.00159291 -0.00159844)
(-0.00251696 0.00117368 -0.00159844)
(-0.00268252 0.00071878 -0.00159844)
(-0.00276659 0.000242045 -0.00159844)
(-0.00276659 -0.000242045 -0.00159844)
(-0.00268252 -0.00071878 -0.00159844)
(-0.00251696 -0.00117368 -0.00159844)
(-0.00227491 -0.00159291 -0.00159844)
(-0.00196374 -0.00196374 -0.00159844)
(-0.00159291 -0.00227491 -0.00159844)
(-0.00117368 -0.00251696 -0.00159844)
(-0.00071878 -0.00268252 -0.00159844)
(-0.000242045 -0.00276659 -0.00159844)
(0.000242045 -0.00276659 -0.00159844)
(0.00071878 -0.00268252 -0.00159844)
(0.00117368 -0.00251696 -0.00159844)
(0.00159291 -0.00227491 -0.00159844)
(0.00196374 -0.00196374 -0.00159844)
(0.00227491 -0.00159291 -0.00159844)
(0.00251696 -0.00117368 -0.00159844)
(0.00268252 -0.00071878 -0.00159844)
(0.00276659 -0.000242045 -0.00159844)
(0.00321543 0.000281314 -0.00161432)
(0.00311773 0.000835394 -0.00161432)
(0.0029253 0.00136409 -0.00161432)
(0.00264399 0.00185134 -0.00161432)
(0.00228234 0.00228234 -0.00161432)
(0.00185134 0.00264399 -0.00161432)
(0.00136409 0.0029253 -0.00161432)
(0.000835394 0.00311773 -0.00161432)
(0.000281314 0.00321543 -0.00161432)
(-0.000281314 0.00321543 -0.00161432)
(-0.000835394 0.00311773 -0.00161432)
(-0.00136409 0.0029253 -0.00161432)
(-0.00185134 0.00264399 -0.00161432)
(-0.00228234 0.00228234 -0.00161432)
(-0.00264399 0.00185134 -0.00161432)
(-0.0029253 0.00136409 -0.00161432)
(-0.00311773 0.000835394 -0.00161432)
(-0.00321543 0.000281314 -0.00161432)
(-0.00321543 -0.000281314 -0.00161432)
(-0.00311773 -0.000835394 -0.00161432)
(-0.0029253 -0.00136409 -0.00161432)
(-0.00264399 -0.00185134 -0.00161432)
(-0.00228234 -0.00228234 -0.00161432)
(-0.00185134 -0.00264399 -0.00161432)
(-0.00136409 -0.0029253 -0.00161432)
(-0.000835394 -0.00311773 -0.00161432)
(-0.000281314 -0.00321543 -0.00161432)
(0.000281314 -0.00321543 -0.00161432)
(0.000835394 -0.00311773 -0.00161432)
(0.00136409 -0.0029253 -0.00161432)
(0.00185134 -0.00264399 -0.00161432)
(0.00228234 -0.00228234 -0.00161432)
(0.00264399 -0.00185134 -0.00161432)
(0.0029253 -0.00136409 -0.00161432)
(0.00311773 -0.000835394 -0.00161432)
(0.00321543 -0.000281314 -0.00161432)
(0.00273552 0.000239327 -0.00215837)
(0.00265241 0.00071071 -0.00215837)
(0.0024887 0.0011605 -0.00215837)
(0.00224937 0.00157502 -0.00215837)
(0.0019417 0.0019417 -0.00215837)
(0.00157502 0.00224937 -0.00215837)
(0.0011605 0.0024887 -0.00215837)
(0.00071071 0.00265241 -0.00215837)
(0.000239327 0.00273552 -0.00215837)
(-0.000239327 0.00273552 -0.00215837)
(-0.00071071 0.00265241 -0.00215837)
(-0.0011605 0.0024887 -0.00215837)
(-0.00157502 0.00224937 -0.00215837)
(-0.0019417 0.0019417 -0.00215837)
(-0.00224937 0.00157502 -0.00215837)
(-0.0024887 0.0011605 -0.00215837)
(-0.00265241 0.00071071 -0.00215837)
(-0.00273552 0.000239327 -0.00215837)
(-0.00273552 -0.000239327 -0.00215837)
(-0.00265241 -0.00071071 -0.00215837)
(-0.0024887 -0.0011605 -0.00215837)
(-0.00224937 -0.00157502 -0.00215837)
(-0.0019417 -0.0019417 -0.00215837)
(-0.00157502 -0.00224937 -0.00215837)
(-0.0011605 -0.0024887 -0.00215837)
(-0.00071071 -0.00265241 -0.00215837)
(-0.000239327 -0.00273552 -0.00215837)
(0.000239327 -0.00273552 -0.00215837)
(0.00071071 -0.00265241 -0.00215837)
(0.0011605 -0.0024887 -0.00215837)
(0.00157502 -0.00224937 -0.00215837)
(0.0019417 -0.0019417 -0.00215837)
(0.00224937 -0.00157502 -0.00215837)
(0.0024887 -0.0011605 -0.00215837)
(0.00265241 -0.00071071 -0.00215837)
(0.00273552 -0.000239327 -0.00215837)
(0.00314082 0.000274786 -0.00220433)
(0.00304539 0.000816009 -0.00220433)
(0.00285742 0.00133244 -0.00220433)
(0.00258263 0.00180838 -0.00220433)
(0.00222938 0.00222938 -0.00220433)
(0.00180838 0.00258263 -0.00220433)
(0.00133244 0.00285742 -0.00220433)
(0.000816009 0.00304539 -0.00220433)
(0.000274786 0.00314082 -0.00220433)
(-0.000274786 0.00314082 -0.00220433)
(-0.000816009 0.00304539 -0.00220433)
(-0.00133244 0.00285742 -0.00220433)
(-0.00180838 0.00258263 -0.00220433)
(-0.00222938 0.00222938 -0.00220433)
(-0.00258263 0.00180838 -0.00220433)
(-0.00285742 0.00133244 -0.00220433)
(-0.00304539 0.000816009 -0.00220433)
(-0.00314082 0.000274786 -0.00220433)
(-0.00314082 -0.000274786 -0.00220433)
(-0.00304539 -0.000816009 -0.00220433)
(-0.00285742 -0.00133244 -0.00220433)
(-0.00258263 -0.00180838 -0.00220433)
(-0.00222938 -0.00222938 -0.00220433)
(-0.00180838 -0.00258263 -0.00220433)
(-0.00133244 -0.00285742 -0.00220433)
(-0.000816009 -0.00304539 -0.00220433)
(-0.000274786 -0.00314082 -0.00220433)
(0.000274786 -0.00314082 -0.00220433)
(0.000816009 -0.00304539 -0.00220433)
(0.00133244 -0.00285742 -0.00220433)
(0.00180838 -0.00258263 -0.00220433)
(0.00222938 -0.00222938 -0.00220433)
(0.00258263 -0.00180838 -0.00220433)
(0.00285742 -0.00133244 -0.00220433)
(0.00304539 -0.000816009 -0.00220433)
(0.00314082 -0.000274786 -0.00220433)
(0.003615 0.000316272 -0.00224329)
(0.00350516 0.000939206 -0.00224329)
(0.00328882 0.0015336 -0.00224329)
(0.00297255 0.0020814 -0.00224329)
(0.00256596 0.00256596 -0.00224329)
(0.0020814 0.00297255 -0.00224329)
(0.0015336 0.00328882 -0.00224329)
(0.000939206 0.00350516 -0.00224329)
(0.000316272 0.003615 -0.00224329)
(-0.000316272 0.003615 -0.00224329)
(-0.000939206 0.00350516 -0.00224329)
(-0.0015336 0.00328882 -0.00224329)
(-0.0020814 0.00297255 -0.00224329)
(-0.00256596 0.00256596 -0.00224329)
(-0.00297255 0.0020814 -0.00224329)
(-0.00328882 0.0015336 -0.00224329)
(-0.00350516 0.000939206 -0.00224329)
(-0.003615 0.000316272 -0.00224329)
(-0.003615 -0.000316272 -0.00224329)
(-0.00350516 -0.000939206 -0.00224329)
(-0.00328882 -0.0015336 -0.00224329)
(-0.00297255 -0.0020814 -0.00224329)
(-0.00256596 -0.00256596 -0.00224329)
(-0.0020814 -0.00297255 -0.00224329)
(-0.0015336 -0.00328882 -0.00224329)
(-0.000939206 -0.00350516 -0.00224329)
(-0.000316272 -0.003615 -0.00224329)
(0.000316272 -0.003615 -0.00224329)
(0.000939206 -0.00350516 -0.00224329)
(0.0015336 -0.00328882 -0.00224329)
(0.0020814 -0.00297255 -0.00224329)
(0.00256596 -0.00256596 -0.00224329)
(0.00297255 -0.0020814 -0.00224329)
(0.00328882 -0.0015336 -0.00224329)
(0.00350516 -0.000939206 -0.00224329)
(0.003615 -0.000316272 -0.00224329)
(0.00289099 0.000252929 -0.00274823)
(0.00280315 0.000751101 -0.00274823)
(0.00263013 0.00122645 -0.00274823)
(0.00237721 0.00166454 -0.00274823)
(0.00205205 0.00205205 -0.00274823)
(0.00166454 0.00237721 -0.00274823)
(0.00122645 0.00263013 -0.00274823)
(0.000751101 0.00280315 -0.00274823)
(0.000252929 0.00289099 -0.00274823)
(-0.000252929 0.00289099 -0.00274823)
(-0.000751101 0.00280315 -0.00274823)
(-0.00122645 0.00263013 -0.00274823)
(-0.00166454 0.00237721 -0.00274823)
(-0.00205205 0.00205205 -0.00274823)
(-0.00237721 0.00166454 -0.00274823)
(-0.00263013 0.00122645 -0.00274823)
(-0.00280315 0.000751101 -0.00274823)
(-0.00289099 0.000252929 -0.00274823)
(-0.00289099 -0.000252929 -0.00274823)
(-0.00280315 -0.000751101 -0.00274823)
(-0.00263013 -0.00122645 -0.00274823)
(-0.00237721 -0.00166454 -0.00274823)
(-0.00205205 -0.00205205 -0.00274823)
(-0.00166454 -0.00237721 -0.00274823)
(-0.00122645 -0.00263013 -0.00274823)
(-0.000751101 -0.00280315 -0.00274823)
(-0.000252929 -0.00289099 -0.00274823)
(0.000252929 -0.00289099 -0.00274823)
(0.000751101 -0.00280315 -0.00274823)
(0.00122645 -0.00263013 -0.00274823)
(0.00166454 -0.00237721 -0.00274823)
(0.00205205 -0.00205205 -0.00274823)
(0.00237721 -0.00166454 -0.00274823)
(0.00263013 -0.00122645 -0.00274823)
(0.00280315 -0.000751101 -0.00274823)
(0.00289099 -0.000252929 -0.00274823)
(0.00330168 0.00028886 -0.00281409)
(0.00320136 0.000857804 -0.00281409)
(0.00300377 0.00140068 -0.00281409)
(0.00271491 0.001901 -0.00281409)
(0.00234356 0.00234356 -0.00281409)
(0.001901 0.00271491 -0.00281409)
(0.00140068 0.00300377 -0.00281409)
(0.000857804 0.00320136 -0.00281409)
(0.00028886 0.00330168 -0.00281409)
(-0.00028886 0.00330168 -0.00281409)
(-0.000857804 0.00320136 -0.00281409)
(-0.00140068 0.00300377 -0.00281409)
(-0.001901 0.00271491 -0.00281409)
(-0.00234356 0.00234356 -0.00281409)
(-0.00271491 0.001901 -0.00281409)
(-0.00300377 0.00140068 -0.00281409)
(-0.00320136 0.000857804 -0.00281409)
(-0.00330168 0.00028886 -0.00281409)
(-0.00330168 -0.00028886 -0.00281409)
(-0.00320136 -0.000857804 -0.00281409)
(-0.00300377 -0.00140068 -0.00281409)
(-0.00271491 -0.001901 -0.00281409)
(-0.00234356 -0.00234356 -0.00281409)
(-0.001901 -0.00271491 -0.00281409)
(-0.00140068 -0.00300377 -0.00281409)
(-0.000857804 -0.00320136 -0.00281409)
(-0.00028886 -0.00330168 -0.00281409)
(0.00028886 -0.00330168 -0.00281409)
(0.000857804 -0.00320136 -0.00281409)
(0.00140068 -0.00300377 -0.00281409)
(0.001901 -0.00271491 -0.00281409)
(0.00234356 -0.00234356 -0.00281409)
(0.00271491 -0.001901 -0.00281409)
(0.00300377 -0.00140068 -0.00281409)
(0.00320136 -0.000857804 -0.00281409)
(0.00330168 -0.00028886 -0.00281409)
(0.00378549 0.000331188 -0.00288138)
(0.00367047 0.0009835 -0.00288138)
(0.00344392 0.00160593 -0.00288138)
(0.00311274 0.00217956 -0.00288138)
(0.00268697 0.00268697 -0.00288138)
(0.00217956 0.00311274 -0.00288138)
(0.00160593 0.00344392 -0.00288138)
(0.0009835 0.00367047 -0.00288138)
(0.000331188 0.00378549 -0.00288138)
(-0.000331188 0.00378549 -0.00288138)
(-0.0009835 0.00367047 -0.00288138)
(-0.00160593 0.00344392 -0.00288138)
(-0.00217956 0.00311274 -0.00288138)
(-0.00268697 0.00268697 -0.00288138)
(-0.00311274 0.00217956 -0.00288138)
(-0.00344392 0.00160593 -0.00288138)
(-0.00367047 0.0009835 -0.00288138)
(-0.00378549 0.000331188 -0.00288138)
(-0.00378549 -0.000331188 -0.00288138)
(-0.00367047 -0.0009835 -0.00288138)
(-0.00344392 -0.00160593 -0.00288138)
(-0.00311274 -0.00217956 -0.00288138)
(-0.00268697 -0.00268697 -0.00288138)
(-0.00217956 -0.00311274 -0.00288138)
(-0.00160593 -0.00344392 -0.00288138)
(-0.0009835 -0.00367047 -0.00288138)
(-0.000331188 -0.00378549 -0.00288138)
(0.000331188 -0.00378549 -0.00288138)
(0.0009835 -0.00367047 -0.00288138)
(0.00160593 -0.00344392 -0.00288138)
(0.00217956 -0.00311274 -0.00288138)
(0.00268697 -0.00268697 -0.00288138)
(0.00311274 -0.00217956 -0.00288138)
(0.00344392 -0.00160593 -0.00288138)
(0.00367047 -0.0009835 -0.00288138)
(0.00378549 -0.000331188 -0.00288138)
(0.00286829 0.000250943 -0.00330987)
(0.00278114 0.000745203 -0.00330987)
(0.00260948 0.00121682 -0.00330987)
(0.00235854 0.00165147 -0.00330987)
(0.00203593 0.00203593 -0.00330987)
(0.00165147 0.00235854 -0.00330987)
(0.00121682 0.00260948 -0.00330987)
(0.000745203 0.00278114 -0.00330987)
(0.000250943 0.00286829 -0.00330987)
(-0.000250943 0.00286829 -0.00330987)
(-0.000745203 0.00278114 -0.00330987)
(-0.00121682 0.00260948 -0.00330987)
(-0.00165147 0.00235854 -0.00330987)
(-0.00203593 0.00203593 -0.00330987)
(-0.00235854 0.00165147 -0.00330987)
(-0.00260948 0.00121682 -0.00330987)
(-0.00278114 0.000745203 -0.00330987)
(-0.00286829 0.000250943 -0.00330987)
(-0.00286829 -0.000250943 -0.00330987)
(-0.00278114 -0.000745203 -0.00330987)
(-0.00260948 -0.00121682 -0.00330987)
(-0.00235854 -0.00165147 -0.00330987)
(-0.00203593 -0.00203593 -0.00330987)
(-0.00165147 -0.00235854 -0.00330987)
(-0.00121682 -0.00260948 -0.00330987)
(-0.000745203 -0.00278114 -0.00330987)
(-0.000250943 -0.00286829 -0.00330987)
(0.000250943 -0.00286829 -0.00330987)
(0.000745203 -0.00278114 -0.00330987)
(0.00121682 -0.00260948 -0.00330987)
(0.00165147 -0.00235854 -0.00330987)
(0.00203593 -0.00203593 -0.00330987)
(0.00235854 -0.00165147 -0.00330987)
(0.00260948 -0.00121682 -0.00330987)
(0.00278114 -0.000745203 -0.00330987)
(0.00286829 -0.000250943 -0.00330987)
(0.00327416 0.000286452 -0.0033977)
(0.00317468 0.000850653 -0.0033977)
(0.00297873 0.00138901 -0.0033977)
(0.00269228 0.00188516 -0.0033977)
(0.00232403 0.00232403 -0.0033977)
(0.00188516 0.00269228 -0.0033977)
(0.00138901 0.00297873 -0.0033977)
(0.000850653 0.00317468 -0.0033977)
(0.000286452 0.00327416 -0.0033977)
(-0.000286452 0.00327416 -0.0033977)
(-0.000850653 0.00317468 -0.0033977)
(-0.00138901 0.00297873 -0.0033977)
(-0.00188516 0.00269228 -0.0033977)
(-0.00232403 0.00232403 -0.0033977)
(-0.00269228 0.00188516 -0.0033977)
(-0.00297873 0.00138901 -0.0033977)
(-0.00317468 0.000850653 -0.0033977)
(-0.00327416 0.000286452 -0.0033977)
(-0.00327416 -0.000286452 -0.0033977)
(-0.00317468 -0.000850653 -0.0033977)
(-0.00297873 -0.00138901 -0.0033977)
(-0.00269228 -0.00188516 -0.0033977)
(-0.00232403 -0.00232403 -0.0033977)
(-0.00188516 -0.00269228 -0.0033977)
(-0.00138901 -0.00297873 -0.0033977)
(-0.000850653 -0.00317468 -0.0033977)
(-0.000286452 -0.00327416 -0.0033977)
(0.000286452 -0.00327416 -0.0033977)
(0.000850653 -0.00317468 -0.0033977)
(0.00138901 -0.00297873 -0.0033977)
(0.00188516 -0.00269228 -0.0033977)
(0.00232403 -0.00232403 -0.0033977)
(0.00269228 -0.00188516 -0.0033977)
(0.00297873 -0.00138901 -0.0033977)
(0.00317468 -0.000850653 -0.0033977)
(0.00327416 -0.000286452 -0.0033977)
(0.0037563 0.000328635 -0.00349595)
(0.00364217 0.000975918 -0.00349595)
(0.00341737 0.00159355 -0.00349595)
(0.00308874 0.00216276 -0.00349595)
(0.00266626 0.00266626 -0.00349595)
(0.00216276 0.00308874 -0.00349595)
(0.00159355 0.00341737 -0.00349595)
(0.000975918 0.00364217 -0.00349595)
(0.000328635 0.0037563 -0.00349595)
(-0.000328635 0.0037563 -0.00349595)
(-0.000975918 0.00364217 -0.00349595)
(-0.00159355 0.00341737 -0.00349595)
(-0.00216276 0.00308874 -0.00349595)
(-0.00266626 0.00266626 -0.00349595)
(-0.00308874 0.00216276 -0.00349595)
(-0.00341737 0.00159355 -0.00349595)
(-0.00364217 0.000975918 -0.00349595)
(-0.0037563 0.000328635 -0.00349595)
(-0.0037563 -0.000328635 -0.00349595)
(-0.00364217 -0.000975918 -0.00349595)
(-0.00341737 -0.00159355 -0.00349595)
(-0.00308874 -0.00216276 -0.00349595)
(-0.00266626 -0.00266626 -0.00349595)
(-0.00216276 -0.00308874 -0.00349595)
(-0.00159355 -0.00341737 -0.00349595)
(-0.000975918 -0.00364217 -0.00349595)
(-0.000328635 -0.0037563 -0.00349595)
(0.000328635 -0.0037563 -0.00349595)
(0.000975918 -0.00364217 -0.00349595)
(0.00159355 -0.00341737 -0.00349595)
(0.00216276 -0.00308874 -0.00349595)
(0.00266626 -0.00266626 -0.00349595)
(0.00308874 -0.00216276 -0.00349595)
(0.00341737 -0.00159355 -0.00349595)
(0.00364217 -0.000975918 -0.00349595)
(0.0037563 -0.000328635 -0.00349595)
(0.00269688 0.000235946 -0.00382041)
(0.00261494 0.00070067 -0.00382041)
(0.00245354 0.0011441 -0.00382041)
(0.00221759 0.00155278 -0.00382041)
(0.00191427 0.00191427 -0.00382041)
(0.00155278 0.00221759 -0.00382041)
(0.0011441 0.00245354 -0.00382041)
(0.00070067 0.00261494 -0.00382041)
(0.000235946 0.00269688 -0.00382041)
(-0.000235946 0.00269688 -0.00382041)
(-0.00070067 0.00261494 -0.00382041)
(-0.0011441 0.00245354 -0.00382041)
(-0.00155278 0.00221759 -0.00382041)
(-0.00191427 0.00191427 -0.00382041)
(-0.00221759 0.00155278 -0.00382041)
(-0.00245354 0.0011441 -0.00382041)
(-0.00261494 0.00070067 -0.00382041)