/*--------------------------------*- C++ -*----------------------------------*\
| =========                 |                                                 |
| \\      /  F ield         | OpenFOAM: The Open Source CFD Toolbox           |
|  \\    /   O peration     | Version:  2312                                  |
|   \\  /    A nd           | Website:  www.openfoam.com                      |
|    \\/     M anipulation  |                                                 |
\*---------------------------------------------------------------------------*/
FoamFile
{
    version     2.0;
    format      ascii;
    arch        "LSB;label=32;scalar=64";
    class       volVectorField;
    location    "0.7";
    object      U;
}
// * * * * * * * * * * * * * * * * * * * * * * * * * * * * * * * * * * * * * //

dimensions      [0 1 -1 0 0 0 0];

internalField   nonuniform List<vector> 
1620
(
(0.000471688 4.12674e-05 -0.000343817)
(0.000457356 0.000122548 -0.000343817)
(0.000429128 0.000200105 -0.000343817)
(0.000387861 0.000271583 -0.000343818)
(0.000334809 0.000334809 -0.000343818)
(0.000271583 0.000387861 -0.000343818)
(0.000200105 0.000429128 -0.000343817)
(0.000122548 0.000457356 -0.000343817)
(4.12674e-05 0.000471688 -0.000343817)
(-4.12674e-05 0.000471688 -0.000343817)
(-0.000122548 0.000457356 -0.000343817)
(-0.000200105 0.000429128 -0.000343817)
(-0.000271583 0.000387861 -0.000343818)
(-0.000334809 0.000334809 -0.000343818)
(-0.000387861 0.000271583 -0.000343818)
(-0.000429128 0.000200105 -0.000343817)
(-0.000457356 0.000122548 -0.000343817)
(-0.000471688 4.12674e-05 -0.000343817)
(-0.000471688 -4.12674e-05 -0.000343817)
(-0.000457356 -0.000122548 -0.000343817)
(-0.000429128 -0.000200105 -0.000343817)
(-0.000387861 -0.000271583 -0.000343818)
(-0.000334809 -0.000334809 -0.000343818)
(-0.000271583 -0.000387861 -0.000343818)
(-0.000200105 -0.000429128 -0.000343817)
(-0.000122548 -0.000457356 -0.000343817)
(-4.12674e-05 -0.000471688 -0.000343817)
(4.12674e-05 -0.000471688 -0.000343817)
(0.000122548 -0.000457356 -0.000343817)
(0.000200105 -0.000429128 -0.000343817)
(0.000271583 -0.000387861 -0.000343818)
(0.000334809 -0.000334809 -0.000343818)
(0.000387861 -0.000271583 -0.000343818)
(0.000429128 -0.000200105 -0.000343817)
(0.000457356 -0.000122548 -0.000343817)
(0.000471688 -4.12674e-05 -0.000343817)
(0.000664948 5.81753e-05 -0.000267368)
(0.000644745 0.000172758 -0.000267368)
(0.000604949 0.000282092 -0.000267368)
(0.000546774 0.000382855 -0.000267368)
(0.000471986 0.000471986 -0.000267369)
(0.000382855 0.000546774 -0.000267368)
(0.000282092 0.000604949 -0.000267368)
(0.000172758 0.000644745 -0.000267368)
(5.81753e-05 0.000664948 -0.000267368)
(-5.81753e-05 0.000664948 -0.000267368)
(-0.000172758 0.000644745 -0.000267368)
(-0.000282092 0.000604949 -0.000267368)
(-0.000382855 0.000546774 -0.000267368)
(-0.000471986 0.000471986 -0.000267369)
(-0.000546774 0.000382855 -0.000267368)
(-0.000604949 0.000282092 -0.000267368)
(-0.000644745 0.000172758 -0.000267368)
(-0.000664948 5.81753e-05 -0.000267368)
(-0.000664948 -5.81753e-05 -0.000267368)
(-0.000644745 -0.000172758 -0.000267368)
(-0.000604949 -0.000282092 -0.000267368)
(-0.000546774 -0.000382855 -0.000267368)
(-0.000471986 -0.000471986 -0.000267369)
(-0.000382855 -0.000546774 -0.000267368)
(-0.000282092 -0.000604949 -0.000267368)
(-0.000172758 -0.000644745 -0.000267368)
(-5.81753e-05 -0.000664948 -0.000267368)
(5.81753e-05 -0.000664948 -0.000267368)
(0.000172758 -0.000644745 -0.000267368)
(0.000282092 -0.000604949 -0.000267368)
(0.000382855 -0.000546774 -0.000267368)
(0.000471986 -0.000471986 -0.000267369)
(0.000546774 -0.000382855 -0.000267368)
(0.000604949 -0.000282092 -0.000267368)
(0.000644745 -0.000172758 -0.000267368)
(0.000664948 -5.81753e-05 -0.000267368)
(0.000866213 7.57837e-05 -0.000172284)
(0.000839895 0.000225049 -0.000172285)
(0.000788056 0.000367476 -0.000172285)
(0.000712271 0.000498737 -0.000172285)
(0.000614846 0.000614846 -0.000172285)
(0.000498737 0.000712271 -0.000172285)
(0.000367476 0.000788056 -0.000172285)
(0.000225049 0.000839895 -0.000172285)
(7.57837e-05 0.000866213 -0.000172284)
(-7.57837e-05 0.000866213 -0.000172284)
(-0.000225049 0.000839895 -0.000172285)
(-0.000367476 0.000788056 -0.000172285)
(-0.000498737 0.000712271 -0.000172285)
(-0.000614846 0.000614846 -0.000172285)
(-0.000712271 0.000498737 -0.000172285)
(-0.000788056 0.000367476 -0.000172285)
(-0.000839895 0.000225049 -0.000172285)
(-0.000866213 7.57837e-05 -0.000172284)
(-0.000866213 -7.57837e-05 -0.000172284)
(-0.000839895 -0.000225049 -0.000172285)
(-0.000788056 -0.000367476 -0.000172285)
(-0.000712271 -0.000498737 -0.000172285)
(-0.000614846 -0.000614846 -0.000172285)
(-0.000498737 -0.000712271 -0.000172285)
(-0.000367476 -0.000788056 -0.000172285)
(-0.000225049 -0.000839895 -0.000172285)
(-7.57837e-05 -0.000866213 -0.000172284)
(7.57837e-05 -0.000866213 -0.000172284)
(0.000225049 -0.000839895 -0.000172285)
(0.000367476 -0.000788056 -0.000172285)
(0.000498737 -0.000712271 -0.000172285)
(0.000614846 -0.000614846 -0.000172285)
(0.000712271 -0.000498737 -0.000172285)
(0.000788056 -0.000367476 -0.000172285)
(0.000839895 -0.000225049 -0.000172285)
(0.000866213 -7.57837e-05 -0.000172284)
(0.00159954 0.000139942 -0.000934555)
(0.00155094 0.000415573 -0.000934556)
(0.00145521 0.000678577 -0.000934557)
(0.00131527 0.000920963 -0.000934556)
(0.00113537 0.00113537 -0.000934556)
(0.000920963 0.00131527 -0.000934556)
(0.000678577 0.00145521 -0.000934557)
(0.000415573 0.00155094 -0.000934556)
(0.000139942 0.00159954 -0.000934555)
(-0.000139942 0.00159954 -0.000934555)
(-0.000415573 0.00155094 -0.000934556)
(-0.000678577 0.00145521 -0.000934557)
(-0.000920963 0.00131527 -0.000934556)
(-0.00113537 0.00113537 -0.000934556)
(-0.00131527 0.000920963 -0.000934556)
(-0.00145521 0.000678577 -0.000934557)
(-0.00155094 0.000415573 -0.000934556)
(-0.00159954 0.000139942 -0.000934555)
(-0.00159954 -0.000139942 -0.000934555)
(-0.00155094 -0.000415573 -0.000934556)
(-0.00145521 -0.000678577 -0.000934557)
(-0.00131527 -0.000920963 -0.000934556)
(-0.00113537 -0.00113537 -0.000934556)
(-0.000920963 -0.00131527 -0.000934556)
(-0.000678577 -0.00145521 -0.000934557)
(-0.000415573 -0.00155094 -0.000934556)
(-0.000139942 -0.00159954 -0.000934555)
(0.000139942 -0.00159954 -0.000934555)
(0.000415573 -0.00155094 -0.000934556)
(0.000678577 -0.00145521 -0.000934557)
(0.000920963 -0.00131527 -0.000934556)
(0.00113537 -0.00113537 -0.000934556)
(0.00131527 -0.000920963 -0.000934556)
(0.00145521 -0.000678577 -0.000934557)
(0.00155094 -0.000415573 -0.000934556)
(0.00159954 -0.000139942 -0.000934555)
(0.00188348 0.000164783 -0.000877019)
(0.00182625 0.000489341 -0.000877019)
(0.00171353 0.000799032 -0.00087702)
(0.00154875 0.00108444 -0.00087702)
(0.00133691 0.00133691 -0.00087702)
(0.00108444 0.00154875 -0.00087702)
(0.000799032 0.00171353 -0.00087702)
(0.000489341 0.00182625 -0.000877019)
(0.000164783 0.00188348 -0.000877019)
(-0.000164783 0.00188348 -0.000877019)
(-0.000489341 0.00182625 -0.000877019)
(-0.000799032 0.00171353 -0.00087702)
(-0.00108444 0.00154875 -0.00087702)
(-0.00133691 0.00133691 -0.00087702)
(-0.00154875 0.00108444 -0.00087702)
(-0.00171353 0.000799032 -0.00087702)
(-0.00182625 0.000489341 -0.000877019)
(-0.00188348 0.000164783 -0.000877019)
(-0.00188348 -0.000164783 -0.000877019)
(-0.00182625 -0.000489341 -0.000877019)
(-0.00171353 -0.000799032 -0.00087702)
(-0.00154875 -0.00108444 -0.00087702)
(-0.00133691 -0.00133691 -0.00087702)
(-0.00108444 -0.00154875 -0.00087702)
(-0.000799032 -0.00171353 -0.00087702)
(-0.000489341 -0.00182625 -0.000877019)
(-0.000164783 -0.00188348 -0.000877019)
(0.000164783 -0.00188348 -0.000877019)
(0.000489341 -0.00182625 -0.000877019)
(0.000799032 -0.00171353 -0.00087702)
(0.00108444 -0.00154875 -0.00087702)
(0.00133691 -0.00133691 -0.00087702)
(0.00154875 -0.00108444 -0.00087702)
(0.00171353 -0.000799032 -0.00087702)
(0.00182625 -0.000489341 -0.000877019)
(0.00188348 -0.000164783 -0.000877019)
(0.00217321 0.000190131 -0.000796618)
(0.00210718 0.000564616 -0.000796617)
(0.00197712 0.000921945 -0.000796618)
(0.00178699 0.00125126 -0.000796617)
(0.00154256 0.00154256 -0.000796618)
(0.00125126 0.00178699 -0.000796617)
(0.000921945 0.00197712 -0.000796618)
(0.000564616 0.00210718 -0.000796617)
(0.000190131 0.00217321 -0.000796618)
(-0.000190131 0.00217321 -0.000796618)
(-0.000564616 0.00210718 -0.000796617)
(-0.000921945 0.00197712 -0.000796618)
(-0.00125126 0.00178699 -0.000796617)
(-0.00154256 0.00154256 -0.000796618)
(-0.00178699 0.00125126 -0.000796617)
(-0.00197712 0.000921945 -0.000796618)
(-0.00210718 0.000564616 -0.000796617)
(-0.00217321 0.000190131 -0.000796618)
(-0.00217321 -0.000190131 -0.000796618)
(-0.00210718 -0.000564616 -0.000796617)
(-0.00197712 -0.000921945 -0.000796618)
(-0.00178699 -0.00125126 -0.000796617)
(-0.00154256 -0.00154256 -0.000796618)
(-0.00125126 -0.00178699 -0.000796617)
(-0.000921945 -0.00197712 -0.000796618)
(-0.000564616 -0.00210718 -0.000796617)
(-0.000190131 -0.00217321 -0.000796618)
(0.000190131 -0.00217321 -0.000796618)
(0.000564616 -0.00210718 -0.000796617)
(0.000921945 -0.00197712 -0.000796618)
(0.00125126 -0.00178699 -0.000796617)
(0.00154256 -0.00154256 -0.000796618)
(0.00178699 -0.00125126 -0.000796617)
(0.00197712 -0.000921945 -0.000796618)
(0.00210718 -0.000564616 -0.000796617)
(0.00217321 -0.000190131 -0.000796618)
(0.0025262 0.000221013 -0.00164684)
(0.00244944 0.000656325 -0.00164684)
(0.00229826 0.0010717 -0.00164684)
(0.00207724 0.0014545 -0.00164684)
(0.00179312 0.00179312 -0.00164684)
(0.0014545 0.00207724 -0.00164684)
(0.0010717 0.00229826 -0.00164684)
(0.000656325 0.00244944 -0.00164684)
(0.000221013 0.0025262 -0.00164684)
(-0.000221013 0.0025262 -0.00164684)
(-0.000656325 0.00244944 -0.00164684)
(-0.0010717 0.00229826 -0.00164684)
(-0.0014545 0.00207724 -0.00164684)
(-0.00179312 0.00179312 -0.00164684)
(-0.00207724 0.0014545 -0.00164684)
(-0.00229826 0.0010717 -0.00164684)
(-0.00244944 0.000656325 -0.00164684)
(-0.0025262 0.000221013 -0.00164684)
(-0.0025262 -0.000221013 -0.00164684)
(-0.00244944 -0.000656325 -0.00164684)
(-0.00229826 -0.0010717 -0.00164684)
(-0.00207724 -0.0014545 -0.00164684)
(-0.00179312 -0.00179312 -0.00164684)
(-0.0014545 -0.00207724 -0.00164684)
(-0.0010717 -0.00229826 -0.00164684)
(-0.000656325 -0.00244944 -0.00164684)
(-0.000221013 -0.0025262 -0.00164684)
(0.000221013 -0.0025262 -0.00164684)
(0.000656325 -0.00244944 -0.00164684)
(0.0010717 -0.00229826 -0.00164684)
(0.0014545 -0.00207724 -0.00164684)
(0.00179312 -0.00179312 -0.00164684)
(0.00207724 -0.0014545 -0.00164684)
(0.00229826 -0.0010717 -0.00164684)
(0.00244944 -0.000656325 -0.00164684)
(0.0025262 -0.000221013 -0.00164684)
(0.00285115 0.000249443 -0.00160264)
(0.00276451 0.000740749 -0.00160264)
(0.00259388 0.00120955 -0.00160264)
(0.00234444 0.00164159 -0.00160264)
(0.00202376 0.00202376 -0.00160264)
(0.00164159 0.00234444 -0.00160264)
(0.00120955 0.00259388 -0.00160264)
(0.000740749 0.00276451 -0.00160264)
(0.000249443 0.00285115 -0.00160264)
(-0.000249443 0.00285115 -0.00160264)
(-0.000740749 0.00276451 -0.00160264)
(-0.00120955 0.00259388 -0.00160264)
(-0.00164159 0.00234444 -0.00160264)
(-0.00202376 0.00202376 -0.00160264)
(-0.00234444 0.00164159 -0.00160264)
(-0.00259388 0.00120955 -0.00160264)
(-0.00276451 0.000740749 -0.00160264)
(-0.00285115 0.000249443 -0.00160264)
(-0.00285115 -0.000249443 -0.00160264)
(-0.00276451 -0.000740749 -0.00160264)
(-0.00259388 -0.00120955 -0.00160264)
(-0.00234444 -0.00164159 -0.00160264)
(-0.00202376 -0.00202376 -0.00160264)
(-0.00164159 -0.00234444 -0.00160264)
(-0.00120955 -0.00259388 -0.00160264)
(-0.000740749 -0.00276451 -0.00160264)
(-0.000249443 -0.00285115 -0.00160264)
(0.000249443 -0.00285115 -0.00160264)
(0.000740749 -0.00276451 -0.00160264)
(0.00120955 -0.00259388 -0.00160264)
(0.00164159 -0.00234444 -0.00160264)
(0.00202376 -0.00202376 -0.00160264)
(0.00234444 -0.00164159 -0.00160264)
(0.00259388 -0.00120955 -0.00160264)
(0.00276451 -0.000740749 -0.00160264)
(0.00285115 -0.000249443 -0.00160264)
(0.00318008 0.000278222 -0.00153916)
(0.00308346 0.00082621 -0.00153916)
(0.00289314 0.00134909 -0.00153916)
(0.00261492 0.00183099 -0.00153916)
(0.00225725 0.00225725 -0.00153916)
(0.00183099 0.00261492 -0.00153916)
(0.00134909 0.00289314 -0.00153916)
(0.00082621 0.00308346 -0.00153916)
(0.000278222 0.00318008 -0.00153916)
(-0.000278222 0.00318008 -0.00153916)
(-0.00082621 0.00308346 -0.00153916)
(-0.00134909 0.00289314 -0.00153916)
(-0.00183099 0.00261492 -0.00153916)
(-0.00225725 0.00225725 -0.00153916)
(-0.00261492 0.00183099 -0.00153916)
(-0.00289314 0.00134909 -0.00153916)
(-0.00308346 0.00082621 -0.00153916)
(-0.00318008 0.000278222 -0.00153916)
(-0.00318008 -0.000278222 -0.00153916)
(-0.00308346 -0.00082621 -0.00153916)
(-0.00289314 -0.00134909 -0.00153916)
(-0.00261492 -0.00183099 -0.00153916)
(-0.00225725 -0.00225725 -0.00153916)
(-0.00183099 -0.00261492 -0.00153916)
(-0.00134909 -0.00289314 -0.00153916)
(-0.00082621 -0.00308346 -0.00153916)
(-0.000278222 -0.00318008 -0.00153916)
(0.000278222 -0.00318008 -0.00153916)
(0.00082621 -0.00308346 -0.00153916)
(0.00134909 -0.00289314 -0.00153916)
(0.00183099 -0.00261492 -0.00153916)
(0.00225725 -0.00225725 -0.00153916)
(0.00261492 -0.00183099 -0.00153916)
(0.00289314 -0.00134909 -0.00153916)
(0.00308346 -0.00082621 -0.00153916)
(0.00318008 -0.000278222 -0.00153916)
(0.00312609 0.000273497 -0.00244018)
(0.00303111 0.000812182 -0.00244018)
(0.00284402 0.00132619 -0.00244018)
(0.00257053 0.0017999 -0.00244018)
(0.00221893 0.00221893 -0.00244018)
(0.0017999 0.00257053 -0.00244018)
(0.00132619 0.00284402 -0.00244018)
(0.000812182 0.00303111 -0.00244018)
(0.000273497 0.00312609 -0.00244018)
(-0.000273497 0.00312609 -0.00244018)
(-0.000812182 0.00303111 -0.00244018)
(-0.00132619 0.00284402 -0.00244018)
(-0.0017999 0.00257053 -0.00244018)
(-0.00221893 0.00221893 -0.00244018)
(-0.00257053 0.0017999 -0.00244018)
(-0.00284402 0.00132619 -0.00244018)
(-0.00303111 0.000812182 -0.00244018)
(-0.00312609 0.000273497 -0.00244018)
(-0.00312609 -0.000273497 -0.00244018)
(-0.00303111 -0.000812182 -0.00244018)
(-0.00284402 -0.00132619 -0.00244018)
(-0.00257053 -0.0017999 -0.00244018)
(-0.00221893 -0.00221893 -0.00244018)
(-0.0017999 -0.00257053 -0.00244018)
(-0.00132619 -0.00284402 -0.00244018)
(-0.000812182 -0.00303111 -0.00244018)
(-0.000273497 -0.00312609 -0.00244018)
(0.000273497 -0.00312609 -0.00244018)
(0.000812182 -0.00303111 -0.00244018)
(0.00132619 -0.00284402 -0.00244018)
(0.0017999 -0.00257053 -0.00244018)
(0.00221893 -0.00221893 -0.00244018)
(0.00257053 -0.0017999 -0.00244018)
(0.00284402 -0.00132619 -0.00244018)
(0.00303111 -0.000812182 -0.00244018)
(0.00312609 -0.000273497 -0.00244018)
(0.00346595 0.000303232 -0.00241495)
(0.00336064 0.000900481 -0.00241495)
(0.00315322 0.00147037 -0.00241495)
(0.00284999 0.00199558 -0.00241495)
(0.00246016 0.00246016 -0.00241495)
(0.00199558 0.00284999 -0.00241495)
(0.00147037 0.00315322 -0.00241495)
(0.000900481 0.00336064 -0.00241495)
(0.000303232 0.00346595 -0.00241495)
(-0.000303232 0.00346595 -0.00241495)
(-0.000900481 0.00336064 -0.00241495)
(-0.00147037 0.00315322 -0.00241495)
(-0.00199558 0.00284999 -0.00241495)
(-0.00246016 0.00246016 -0.00241495)
(-0.00284999 0.00199558 -0.00241495)
(-0.00315322 0.00147037 -0.00241495)
(-0.00336064 0.000900481 -0.00241495)
(-0.00346595 0.000303232 -0.00241495)
(-0.00346595 -0.000303232 -0.00241495)
(-0.00336064 -0.000900481 -0.00241495)
(-0.00315322 -0.00147037 -0.00241495)
(-0.00284999 -0.00199558 -0.00241495)
(-0.00246016 -0.00246016 -0.00241495)
(-0.00199558 -0.00284999 -0.00241495)
(-0.00147037 -0.00315322 -0.00241495)
(-0.000900481 -0.00336064 -0.00241495)
(-0.000303232 -0.00346595 -0.00241495)
(0.000303232 -0.00346595 -0.00241495)
(0.000900481 -0.00336064 -0.00241495)
(0.00147037 -0.00315322 -0.00241495)
(0.00199558 -0.00284999 -0.00241495)
(0.00246016 -0.00246016 -0.00241495)
(0.00284999 -0.00199558 -0.00241495)
(0.00315322 -0.00147037 -0.00241495)
(0.00336064 -0.000900481 -0.00241495)
(0.00346595 -0.000303232 -0.00241495)
(0.00380612 0.000332992 -0.00237649)
(0.00369047 0.00098886 -0.00237649)
(0.00346269 0.00161468 -0.00237649)
(0.0031297 0.00219144 -0.00237649)
(0.00270161 0.00270161 -0.00237649)
(0.00219144 0.0031297 -0.00237649)
(0.00161468 0.00346269 -0.00237649)
(0.000988859 0.00369047 -0.00237649)
(0.000332992 0.00380612 -0.00237649)
(-0.000332992 0.00380612 -0.00237649)
(-0.00098886 0.00369047 -0.00237649)
(-0.00161468 0.00346269 -0.00237649)
(-0.00219144 0.0031297 -0.00237649)
(-0.00270161 0.00270161 -0.00237649)
(-0.0031297 0.00219144 -0.00237649)
(-0.00346269 0.00161468 -0.00237649)
(-0.00369047 0.000988859 -0.00237649)
(-0.00380612 0.000332992 -0.00237649)
(-0.00380612 -0.000332992 -0.00237649)
(-0.00369047 -0.000988859 -0.00237649)
(-0.00346269 -0.00161468 -0.00237649)
(-0.0031297 -0.00219144 -0.00237649)
(-0.00270161 -0.00270161 -0.00237649)
(-0.00219144 -0.0031297 -0.00237649)
(-0.00161468 -0.00346269 -0.00237649)
(-0.000988859 -0.00369047 -0.00237649)
(-0.000332992 -0.00380612 -0.00237649)
(0.000332992 -0.00380612 -0.00237649)
(0.00098886 -0.00369047 -0.00237649)
(0.00161468 -0.00346269 -0.00237649)
(0.00219144 -0.0031297 -0.00237649)
(0.00270161 -0.00270161 -0.00237649)
(0.0031297 -0.00219144 -0.00237649)
(0.00346269 -0.00161468 -0.00237649)
(0.00369047 -0.000988859 -0.00237649)
(0.00380612 -0.000332992 -0.00237649)
(0.00340452 0.000297857 -0.00326905)
(0.00330108 0.00088452 -0.00326905)
(0.00309733 0.00144431 -0.00326905)
(0.00279947 0.00196021 -0.00326905)
(0.00241656 0.00241656 -0.00326905)
(0.00196021 0.00279947 -0.00326905)
(0.00144431 0.00309733 -0.00326905)
(0.00088452 0.00330108 -0.00326905)
(0.000297857 0.00340452 -0.00326905)
(-0.000297857 0.00340452 -0.00326905)
(-0.00088452 0.00330108 -0.00326905)
(-0.00144431 0.00309733 -0.00326905)
(-0.00196021 0.00279947 -0.00326905)
(-0.00241656 0.00241656 -0.00326905)
(-0.00279947 0.00196021 -0.00326905)
(-0.00309733 0.00144431 -0.00326905)
(-0.00330108 0.00088452 -0.00326905)
(-0.00340452 0.000297857 -0.00326905)
(-0.00340452 -0.000297857 -0.00326905)
(-0.00330108 -0.00088452 -0.00326905)
(-0.00309733 -0.00144431 -0.00326905)
(-0.00279947 -0.00196021 -0.00326905)
(-0.00241656 -0.00241656 -0.00326905)
(-0.00196021 -0.00279947 -0.00326905)
(-0.00144431 -0.00309733 -0.00326905)
(-0.00088452 -0.00330108 -0.00326905)
(-0.000297857 -0.00340452 -0.00326905)
(0.000297857 -0.00340452 -0.00326905)
(0.00088452 -0.00330108 -0.00326905)
(0.00144431 -0.00309733 -0.00326905)
(0.00196021 -0.00279947 -0.00326905)
(0.00241656 -0.00241656 -0.00326905)
(0.00279947 -0.00196021 -0.00326905)
(0.00309733 -0.00144431 -0.00326905)
(0.00330108 -0.00088452 -0.00326905)
(0.00340452 -0.000297857 -0.00326905)
(0.00374716 0.000327834 -0.00326539)
(0.0036333 0.000973541 -0.00326539)
(0.00340905 0.00158967 -0.00326539)
(0.00308122 0.00215749 -0.00326539)
(0.00265976 0.00265976 -0.00326539)
(0.00215749 0.00308122 -0.00326539)
(0.00158967 0.00340905 -0.00326539)
(0.000973541 0.0036333 -0.00326539)
(0.000327834 0.00374716 -0.00326539)
(-0.000327834 0.00374716 -0.00326539)
(-0.000973541 0.0036333 -0.00326539)
(-0.00158967 0.00340905 -0.00326539)
(-0.00215749 0.00308122 -0.00326539)
(-0.00265976 0.00265976 -0.00326539)
(-0.00308122 0.00215749 -0.00326539)
(-0.00340905 0.00158967 -0.00326539)
(-0.0036333 0.000973541 -0.00326539)
(-0.00374716 0.000327834 -0.00326539)
(-0.00374716 -0.000327834 -0.00326539)
(-0.0036333 -0.000973541 -0.00326539)
(-0.00340905 -0.00158967 -0.00326539)
(-0.00308122 -0.00215749 -0.00326539)
(-0.00265976 -0.00265976 -0.00326539)
(-0.00215749 -0.00308122 -0.00326539)
(-0.00158967 -0.00340905 -0.00326539)
(-0.000973541 -0.0036333 -0.00326539)
(-0.000327834 -0.00374716 -0.00326539)
(0.000327834 -0.00374716 -0.00326539)
(0.000973541 -0.0036333 -0.00326539)
(0.00158967 -0.00340905 -0.00326539)
(0.00215749 -0.00308122 -0.00326539)
(0.00265976 -0.00265976 -0.00326539)
(0.00308122 -0.00215749 -0.00326539)
(0.00340905 -0.00158967 -0.00326539)
(0.0036333 -0.000973541 -0.00326539)
(0.00374716 -0.000327834 -0.00326539)
(0.00408222 0.000357148 -0.00325312)
(0.00395818 0.00106059 -0.00325312)
(0.00371388 0.00173181 -0.00325312)
(0.00335673 0.00235041 -0.00325312)
(0.00289759 0.00289759 -0.00325312)
(0.00235041 0.00335673 -0.00325312)
(0.00173181 0.00371388 -0.00325312)
(0.00106059 0.00395818 -0.00325312)
(0.000357148 0.00408222 -0.00325312)
(-0.000357148 0.00408222 -0.00325312)
(-0.00106059 0.00395818 -0.00325312)
(-0.00173181 0.00371388 -0.00325312)
(-0.00235041 0.00335673 -0.00325312)
(-0.00289759 0.00289759 -0.00325312)
(-0.00335673 0.00235041 -0.00325312)
(-0.00371388 0.00173181 -0.00325312)
(-0.00395818 0.00106059 -0.00325312)
(-0.00408222 0.000357148 -0.00325312)
(-0.00408222 -0.000357148 -0.00325312)
(-0.00395818 -0.00106059 -0.00325312)
(-0.00371388 -0.00173181 -0.00325312)
(-0.00335673 -0.00235041 -0.00325312)
(-0.00289759 -0.00289759 -0.00325312)
(-0.00235041 -0.00335673 -0.00325312)
(-0.00173181 -0.00371388 -0.00325312)
(-0.00106059 -0.00395818 -0.00325312)
(-0.000357148 -0.00408222 -0.00325312)
(0.000357148 -0.00408222 -0.00325312)
(0.00106059 -0.00395818 -0.00325312)
(0.00173181 -0.00371388 -0.00325312)
(0.00235041 -0.00335673 -0.00325312)
(0.00289759 -0.00289759 -0.00325312)
(0.00335673 -0.00235041 -0.00325312)
(0.00371388 -0.00173181 -0.00325312)
(0.00395818 -0.00106059 -0.00325312)
(0.00408222 -0.000357148 -0.00325312)
(0.00343923 0.000300894 -0.00410177)
(0.00333473 0.000893537 -0.00410177)
(0.0031289 0.00145903 -0.00410177)
(0.00282801 0.00198019 -0.00410177)
(0.00244119 0.00244119 -0.00410177)
(0.00198019 0.00282801 -0.00410177)
(0.00145903 0.0031289 -0.00410177)
(0.000893537 0.00333473 -0.00410177)
(0.000300894 0.00343923 -0.00410177)
(-0.000300894 0.00343923 -0.00410177)
(-0.000893537 0.00333473 -0.00410177)
(-0.00145903 0.0031289 -0.00410177)
(-0.00198019 0.00282801 -0.00410177)
(-0.00244119 0.00244119 -0.00410177)
(-0.00282801 0.00198019 -0.00410177)
(-0.0031289 0.00145903 -0.00410177)
(-0.00333473 0.000893537 -0.00410177)
(-0.00343923 0.000300894 -0.00410177)
(-0.00343923 -0.000300894 -0.00410177)
(-0.00333473 -0.000893537 -0.00410177)
(-0.0031289 -0.00145903 -0.00410177)
(-0.00282801 -0.00198019 -0.00410177)
(-0.00244119 -0.00244119 -0.00410177)
(-0.00198019 -0.00282801 -0.00410177)
(-0.00145903 -0.0031289 -0.00410177)
(-0.000893537 -0.00333473 -0.00410177)
(-0.000300894 -0.00343923 -0.00410177)
(0.000300894 -0.00343923 -0.00410177)
(0.000893537 -0.00333473 -0.00410177)
(0.00145903 -0.0031289 -0.00410177)
(0.00198019 -0.00282801 -0.00410177)
(0.00244119 -0.00244119 -0.00410177)
(0.00282801 -0.00198019 -0.00410177)
(0.0031289 -0.00145903 -0.00410177)
(0.00333473 -0.000893537 -0.00410177)
(0.00343923 -0.000300894 -0.00410177)
(0.00378056 0.000330756 -0.00411329)
(0.00366569 0.000982219 -0.00411329)
(0.00343944 0.00160384 -0.00411329)
(0.00310868 0.00217672 -0.00411329)
(0.00268347 0.00268347 -0.00411329)
(0.00217672 0.00310868 -0.00411329)
(0.00160384 0.00343944 -0.00411329)
(0.000982219 0.00366569 -0.00411329)
(0.000330756 0.00378056 -0.00411329)
(-0.000330756 0.00378056 -0.00411329)
(-0.000982219 0.00366569 -0.00411329)
(-0.00160384 0.00343944 -0.00411329)
(-0.00217672 0.00310868 -0.00411329)
(-0.00268347 0.00268347 -0.00411329)
(-0.00310868 0.00217672 -0.00411329)
(-0.00343944 0.00160384 -0.00411329)
(-0.00366569 0.000982219 -0.00411329)
(-0.00378056 0.000330756 -0.00411329)
(-0.00378056 -0.000330756 -0.00411329)
(-0.00366569 -0.000982219 -0.00411329)
(-0.00343944 -0.00160384 -0.00411329)
(-0.00310868 -0.00217672 -0.00411329)
(-0.00268347 -0.00268347 -0.00411329)
(-0.00217672 -0.00310868 -0.00411329)
(-0.00160384 -0.00343944 -0.00411329)
(-0.000982219 -0.00366569 -0.00411329)
(-0.000330756 -0.00378056 -0.00411329)
(0.000330756 -0.00378056 -0.00411329)
(0.000982219 -0.00366569 -0.00411329)
(0.00160384 -0.00343944 -0.00411329)
(0.00217672 -0.00310868 -0.00411329)
(0.00268347 -0.00268347 -0.00411329)
(0.00310868 -0.00217672 -0.00411329)
(0.00343944 -0.00160384 -0.00411329)
(0.00366569 -0.000982219 -0.00411329)
(0.00378056 -0.000330756 -0.00411329)
(0.00410527 0.000359165 -0.00411681)
(0.00398053 0.00106658 -0.00411681)
(0.00373485 0.00174159 -0.00411681)
(0.00337569 0.00236368 -0.00411681)
(0.00291395 0.00291395 -0.00411681)
(0.00236368 0.00337569 -0.00411681)
(0.00174159 0.00373485 -0.00411681)
(0.00106658 0.00398053 -0.00411681)
(0.000359165 0.00410527 -0.00411681)
(-0.000359165 0.00410527 -0.00411681)
(-0.00106658 0.00398053 -0.00411681)
(-0.00174159 0.00373485 -0.00411681)
(-0.00236368 0.00337569 -0.00411681)
(-0.00291395 0.00291395 -0.00411681)
(-0.00337569 0.00236368 -0.00411681)
(-0.00373485 0.00174159 -0.00411681)
(-0.00398053 0.00106658 -0.00411681)
(-0.00410527 0.000359165 -0.00411681)
(-0.00410527 -0.000359165 -0.00411681)
(-0.00398053 -0.00106658 -0.00411681)
(-0.00373485 -0.00174159 -0.00411681)
(-0.00337569 -0.00236368 -0.00411681)
(-0.00291395 -0.00291395 -0.00411681)
(-0.00236368 -0.00337569 -0.00411681)
(-0.00174159 -0.00373485 -0.00411681)
(-0.00106658 -0.00398053 -0.00411681)
(-0.000359165 -0.00410527 -0.00411681)
(0.000359165 -0.00410527 -0.00411681)
(0.00106658 -0.00398053 -0.00411681)
(0.00174159 -0.00373485 -0.00411681)
(0.00236368 -0.00337569 -0.00411681)
(0.00291395 -0.00291395 -0.00411681)
(0.00337569 -0.00236368 -0.00411681)
(0.00373485 -0.00174159 -0.00411681)
(0.00398053 -0.00106658 -0.00411681)
(0.00410527 -0.000359165 -0.00411681)
(0.00332091 0.000290541 -0.00492327)
(0.00322 0.000862797 -0.00492327)
(0.00302126 0.00140884 -0.00492327)
(0.00273072 0.00191207 -0.00492327)
(0.00235721 0.00235721 -0.00492326)
(0.00191207 0.00273072 -0.00492327)
(0.00140884 0.00302126 -0.00492327)
(0.000862797 0.00322 -0.00492327)
(0.000290541 0.00332091 -0.00492327)
(-0.000290541 0.00332091 -0.00492327)
(-0.000862797 0.00322 -0.00492327)
(-0.00140884 0.00302126 -0.00492327)
(-0.00191207 0.00273072 -0.00492327)
(-0.00235721 0.00235721 -0.00492326)
(-0.00273072 0.00191207 -0.00492327)
(-0.00302126 0.00140884 -0.00492327)
(-0.00322 0.000862797 -0.00492327)
(-0.00332091 0.000290541 -0.00492327)
(-0.00332091 -0.000290541 -0.00492327)
(-0.00322 -0.000862797 -0.00492327)
(-0.00302126 -0.00140884 -0.00492327)
(-0.00273072 -0.00191207 -0.00492327)
(-0.00235721 -0.00235721 -0.00492326)
(-0.00191207 -0.00273072 -0.00492327)
(-0.00140884 -0.00302126 -0.00492327)
(-0.000862797 -0.00322 -0.00492327)
(-0.000290541 -0.00332091 -0.00492327)
(0.000290541 -0.00332091 -0.00492327)
(0.000862797 -0.00322 -0.00492327)
(0.00140884 -0.00302126 -0.00492327)
(0.00191207 -0.00273072 -0.00492327)
(0.00235721 -0.00235721 -0.00492326)
(0.00273072 -0.00191207 -0.00492327)
(0.00302126 -0.00140884 -0.00492327)
(0.00322 -0.000862797 -0.00492327)
(0.00332091 -0.000290541 -0.00492327)
(0.00366389 0.000320549 -0.00494015)
(0.00355257 0.000951907 -0.00494015)
(0.0033333 0.00155434 -0.00494015)
(0.00301275 0.00210955 -0.00494015)
(0.00260066 0.00260066 -0.00494015)
(0.00210955 0.00301275 -0.00494015)
(0.00155434 0.0033333 -0.00494015)
(0.000951907 0.00355257 -0.00494015)
(0.000320549 0.00366389 -0.00494015)
(-0.000320549 0.00366389 -0.00494015)
(-0.000951907 0.00355257 -0.00494015)
(-0.00155434 0.0033333 -0.00494015)
(-0.00210955 0.00301275 -0.00494015)
(-0.00260066 0.00260066 -0.00494015)
(-0.00301275 0.00210955 -0.00494015)
(-0.0033333 0.00155434 -0.00494015)
(-0.00355257 0.000951907 -0.00494015)
(-0.00366389 0.000320549 -0.00494015)
(-0.00366389 -0.000320549 -0.00494015)
(-0.00355257 -0.000951907 -0.00494015)
(-0.0033333 -0.00155434 -0.00494015)
(-0.00301275 -0.00210955 -0.00494015)
(-0.00260066 -0.00260066 -0.00494015)
(-0.00210955 -0.00301275 -0.00494015)
(-0.00155434 -0.0033333 -0.00494015)
(-0.000951907 -0.00355257 -0.00494015)
(-0.000320549 -0.00366389 -0.00494015)
(0.000320549 -0.00366389 -0.00494015)
(0.000951907 -0.00355257 -0.00494015)
(0.00155434 -0.0033333 -0.00494015)
(0.00210955 -0.00301275 -0.00494015)
(0.00260066 -0.00260066 -0.00494015)
(0.00301275 -0.00210955 -0.00494015)
(0.0033333 -0.00155434 -0.00494015)
(0.00355257 -0.000951907 -0.00494015)
(0.00366389 -0.000320549 -0.00494015)
(0.00398499 0.000348643 -0.00494619)
(0.00386391 0.00103533 -0.00494619)
(0.00362543 0.00169056 -0.00494619)
(0.00327678 0.00229443 -0.00494619)
(0.00282858 0.00282858 -0.00494619)
(0.00229443 0.00327678 -0.00494619)
(0.00169056 0.00362543 -0.00494619)
(0.00103533 0.00386391 -0.00494619)
(0.000348642 0.00398499 -0.00494619)
(-0.000348643 0.00398499 -0.00494619)
(-0.00103533 0.00386391 -0.00494619)
(-0.00169056 0.00362543 -0.00494619)
(-0.00229443 0.00327678 -0.00494619)
(-0.00282858 0.00282858 -0.00494619)
(-0.00327678 0.00229443 -0.00494619)
(-0.00362543 0.00169056 -0.00494619)
(-0.00386391 0.00103533 -0.00494619)
(-0.00398499 0.000348643 -0.00494619)
(-0.00398499 -0.000348642 -0.00494619)
(-0.00386391 -0.00103533 -0.00494619)
(-0.00362543 -0.00169056 -0.00494619)
(-0.00327678 -0.00229443 -0.00494619)
(-0.00282858 -0.00282858 -0.00494619)
(-0.00229443 -0.00327678 -0.00494619)
(-0.00169056 -0.00362543 -0.00494619)
(-0.00103533 -0.00386391 -0.00494619)
(-0.000348642 -0.00398499 -0.00494619)
(0.000348643 -0.00398499 -0.00494619)
(0.00103533 -0.00386391 -0.00494619)
(0.00169056 -0.00362543 -0.00494619)
(0.00229443 -0.00327678 -0.00494619)
(0.00282858 -0.00282858 -0.00494619)
(0.00327678 -0.00229443 -0.00494619)
(0.00362543 -0.00169056 -0.00494619)
(0.00386391 -0.00103533 -0.00494619)
(0.00398499 -0.000348642 -0.00494619)
(0.00311604 0.000272618 -0.00572852)
(0.00302136 0.000809571 -0.00572852)
(0.00283488 0.00132193 -0.00572852)
(0.00256226 0.00179412 -0.00572852)
(0.00221179 0.00221179 -0.00572852)
(0.00179412 0.00256226 -0.00572852)
(0.00132193 0.00283488 -0.00572852)
(0.000809571 0.00302136 -0.00572852)
(0.000272618 0.00311604 -0.00572852)
(-0.000272618 0.00311604 -0.00572852)
(-0.000809571 0.00302136 -0.00572852)
(-0.00132193 0.00283488 -0.00572852)
(-0.00179412 0.00256226 -0.00572852)
(-0.00221179 0.00221179 -0.00572852)