/*--------------------------------*- C++ -*----------------------------------*\
| =========                 |                                                 |
| \\      /  F ield         | OpenFOAM: The Open Source CFD Toolbox           |
|  \\    /   O peration     | Version:  2412                                  |
|   \\  /    A nd           | Website:  www.openfoam.com                      |
|    \\/     M anipulation  |                                                 |
\*---------------------------------------------------------------------------*/
FoamFile
{
    version     2.0;
    format      ascii;
    arch        "LSB;label=32;scalar=64";
    class       volScalarField;
    location    "0.0400007";
    object      activationTime;
}
// * * * * * * * * * * * * * * * * * * * * * * * * * * * * * * * * * * * * * //

dimensions      [0 0 1 0 0 0 0];

internalField   nonuniform List<scalar> 
8679
(
0.0161371
0.0161399
0.016156
0.0161817
0.0162102
0.0162456
0.0162882
0.0163343
0.016392
0.0164537
0.0165274
0.0166045
0.0166868
0.0167705
0.0168646
0.0169666
0.0170696
0.0171768
0.017289
0.017407
0.01753
0.0176577
0.0177905
0.0179281
0.0180652
0.0182089
0.0183526
0.0184984
0.0186527
0.0188069
0.0189639
0.019124
0.0192871
0.016144
0.0161526
0.0161693
0.0161894
0.0162178
0.0162581
0.0162977
0.0163481
0.0164069
0.0164688
0.0165363
0.0166113
0.0166932
0.0167818
0.0168772
0.0169751
0.0170819
0.0171912
0.0173041
0.0174218
0.0175445
0.0176725
0.0178055
0.0179379
0.0180771
0.0182167
0.0183646
0.0185115
0.0186621
0.0188205
0.018979
0.0191393
0.0193029
0.0161729
0.0161808
0.0161925
0.0162163
0.0162439
0.0162796
0.0163238
0.0163762
0.016432
0.0164987
0.0165685
0.0166436
0.0167255
0.0168137
0.0169036
0.0170034
0.0171059
0.0172126
0.0173258
0.0174489
0.0175685
0.0176946
0.0178263
0.0179626
0.0180991
0.0182426
0.0183861
0.0185334
0.0186882
0.0188429
0.0190002
0.01916
0.0193228
0.014816
0.0148243
0.0148369
0.0148621
0.0148925
0.0149315
0.014979
0.0150303
0.0150933
0.0151597
0.0152325
0.0153128
0.0154005
0.0154953
0.0155921
0.0156984
0.0158081
0.0159225
0.0160425
0.0161685
0.0162998
0.0164308
0.0165697
0.0167096
0.016858
0.0170066
0.0171579
0.0173128
0.0174709
0.0176323
0.0177972
0.0179655
0.0181376
0.0148286
0.0148371
0.0148501
0.014876
0.0149064
0.014945
0.014992
0.0150429
0.0151054
0.0151723
0.0152454
0.0153261
0.0154138
0.0155041
0.0156039
0.0157074
0.0158208
0.0159373
0.0160585
0.0161845
0.0163103
0.016444
0.0165839
0.0167241
0.0168669
0.0170192
0.0171714
0.0173264
0.0174847
0.0176464
0.0178116
0.0179804
0.0181528
0.0148481
0.0148576
0.0148758
0.014897
0.0149265
0.0149647
0.0150119
0.0150669
0.0151263
0.0151974
0.0152726
0.0153537
0.0154368
0.01553
0.0156276
0.0157348
0.0158449
0.015959
0.0160784
0.0162039
0.0163349
0.0164659
0.0166047
0.0167442
0.0168923
0.0170401
0.0171916
0.0173464
0.0175098
0.0176739
0.0178352
0.0180021
0.018173
0.0148871
0.0148969
0.0149154
0.014937
0.0149665
0.0150046
0.0150516
0.0151065
0.0151659
0.0152369
0.0153124
0.0153937
0.0154768
0.0155702
0.0156678
0.015775
0.015885
0.0159989
0.016118
0.0162434
0.0163744
0.0165054
0.0166443
0.0167836
0.0169313
0.0170788
0.01723
0.0173895
0.0175498
0.0177126
0.0178785
0.0180423
0.0182117
0.0149529
0.0149617
0.0149755
0.0150019
0.0150328
0.0150716
0.0151184
0.0151694
0.0152318
0.015299
0.0153724
0.0154533
0.0155411
0.0156312
0.015731
0.0158344
0.0159476
0.0160639
0.0161845
0.0163097
0.0164346
0.0165676
0.0167067
0.0168464
0.0169886
0.0171398
0.0172909
0.0174457
0.0176033
0.017764
0.0179282
0.0180959
0.0182671
0.0135
0.0135038
0.0135213
0.0135448
0.0135773
0.0136194
0.0136714
0.0137322
0.0137961
0.0138667
0.0139454
0.014032
0.0141215
0.0142217
0.0143256
0.014435
0.0145514
0.0146739
0.0148023
0.0149363
0.0150706
0.0152136
0.015357
0.0155096
0.0156627
0.0158192
0.0159798
0.0161443
0.0163128
0.0164854
0.0166564
0.0168336
0.0170116
0.0135035
0.0135134
0.0135327
0.0135557
0.013588
0.0136298
0.0136804
0.0137363
0.013804
0.0138764
0.0139558
0.0140426
0.0141324
0.0142332
0.0143376
0.0144473
0.014563
0.0146854
0.0148139
0.0149487
0.015084
0.0152271
0.0153713
0.0155189
0.0156708
0.0158318
0.0159941
0.0161594
0.0163231
0.0164929
0.0166677
0.0168472
0.0170251
0.0135291
0.0135383
0.0135519
0.0135758
0.013614
0.0136567
0.0137024
0.0137601
0.0138231
0.0138934
0.0139726
0.0140601
0.0141553
0.0142531
0.0143615
0.0144729
0.01459
0.0147126
0.014836
0.0149686
0.0151078
0.0152486
0.0153923
0.0155449
0.0156976
0.0158542
0.0160144
0.0161785
0.0163465
0.0165186
0.0166896
0.0168666
0.0170491
0.0135654
0.0135751
0.0135902
0.013619
0.0136532
0.0136947
0.0137402
0.0137981
0.0138611
0.0139318
0.0140113
0.014099
0.0141943
0.0142924
0.0144008
0.0145124
0.0146293
0.014752
0.0148753
0.0150075
0.0151463
0.0152866
0.0154351
0.0155846
0.0157363
0.0158922
0.0160517
0.0162151
0.0163827
0.0165546
0.0167304
0.0169047
0.0170852
0.0136229
0.0136333
0.0136531
0.0136772
0.01371
0.0137522
0.013803
0.0138589
0.013927
0.0139998
0.0140797
0.0141667
0.0142567
0.0143571
0.0144614
0.0145707
0.0146865
0.0148087
0.0149368
0.0150705
0.015205
0.0153472
0.0154902
0.0156375
0.0157935
0.0159504
0.0161109
0.016275
0.0164429
0.0166097
0.0167825
0.0169601
0.0171378
0.0137165
0.0137271
0.0137472
0.0137706
0.0138024
0.0138439
0.0138945
0.0139502
0.0140182
0.014091
0.0141698
0.0142513
0.0143443
0.0144467
0.0145511
0.0146603
0.014775
0.0148962
0.0150237
0.0151571
0.0152907
0.0154323
0.0155744
0.0157209
0.0158762
0.0160325
0.0161924
0.0163556
0.0165227
0.0166936
0.016863
0.0170384
0.0172195
0.0138485
0.0138576
0.0138724
0.0138999
0.0139327
0.0139744
0.0140247
0.0140782
0.0141399
0.0142156
0.0142952
0.0143764
0.0144691
0.0145709
0.0146746
0.0147828
0.0148965
0.0150168
0.0151432
0.0152751
0.0154072
0.0155479
0.0156894
0.01584
0.0159908
0.0161451
0.0163024
0.0164632
0.0166281
0.0167972
0.0169706
0.0171426
0.0173208
0.0140313
0.014035
0.0140516
0.0140744
0.0141052
0.0141456
0.0141958
0.0142541
0.0143153
0.0143842
0.0144607
0.0145449
0.0146367
0.0147313
0.0148368
0.0149441
0.015057
0.0151756
0.0153003
0.0154309
0.0155663
0.0157021
0.0158463
0.0159903
0.0161383
0.0162891
0.0164495
0.0166111
0.0167752
0.0169377
0.0171065
0.0172798
0.0174572
0.0142607
0.0142685
0.0142816
0.0143074
0.0143388
0.0143772
0.01442
0.014475
0.0145354
0.0146072
0.0146836
0.014766
0.0148507
0.0149461
0.0150502
0.015155
0.015265
0.0153806
0.015502
0.0156295
0.0157625
0.0158952
0.0160357
0.0161778
0.0163267
0.0164774
0.0166304
0.016787
0.0169481
0.0171124
0.0172804
0.0174523
0.0176279
0.01454
0.0145434
0.0145592
0.0145819
0.0146171
0.0146567
0.0147029
0.0147526
0.0148139
0.01488
0.0149522
0.0150317
0.0151187
0.0152128
0.0153082
0.0154084
0.0155194
0.0156331
0.0157516
0.0158758
0.0160054
0.0161345
0.0162716
0.0164144
0.0165579
0.016703
0.0168577
0.0170128
0.0171703
0.0173318
0.0174972
0.0176664
0.0178396
0.0148679
0.0148766
0.0148934
0.0149144
0.0149427
0.0149798
0.0150248
0.0150784
0.0151394
0.0152027
0.0152718
0.0153485
0.0154326
0.0155233
0.0156155
0.0157175
0.0158212
0.0159309
0.0160508
0.0161728
0.0162937
0.016422
0.0165567
0.0166965
0.0168361
0.0169836
0.0171308
0.0172812
0.0174352
0.0175929
0.0177598
0.0179224
0.0180904
0.0152581
0.0152661
0.0152779
0.0153018
0.0153292
0.0153641
0.0154081
0.01546
0.0155146
0.0155794
0.0156472
0.0157211
0.0158021
0.0158896
0.0159785
0.0160763
0.0161778
0.0162877
0.0164007
0.0165178
0.0166391
0.0167654
0.016897
0.0170286
0.0171671
0.0173127
0.0174567
0.017604
0.0177585
0.0179145
0.0180735
0.0182353
0.0184006
0.0156997
0.0157076
0.0157192
0.0157421
0.0157693
0.0158033
0.015845
0.0158946
0.0159508
0.0160096
0.0160739
0.0161504
0.0162295
0.0163091
0.0163977
0.0164933
0.0165916
0.0166984
0.0168076
0.0169205
0.0170384
0.0171615
0.0172891
0.0174212
0.0175587
0.0176954
0.0178385
0.0179836
0.0181354
0.0182882
0.0184432
0.018601
0.0187623
0.0161866
0.0161936
0.0162041
0.0162263
0.0162518
0.0162841
0.0163242
0.0163719
0.0164265
0.0164827
0.0165489
0.016618
0.0166933
0.0167744
0.0168621
0.0169556
0.017051
0.0171549
0.0172607
0.0173706
0.0174905
0.0176117
0.0177362
0.0178601
0.0179912
0.0181275
0.0182646
0.0184088
0.0185534
0.0187063
0.0188588
0.0190131
0.0191716
0.0165992
0.0166066
0.0166209
0.0166397
0.0166683
0.0167005
0.0167392
0.0167852
0.0168376
0.0168922
0.0169559
0.017023
0.0170952
0.0171739
0.0172593
0.0173509
0.0174439
0.0175446
0.0176482
0.0177592
0.0178724
0.0179896
0.0181108
0.018236
0.0183658
0.0184998
0.0186334
0.0187744
0.0189161
0.0190645
0.0192135
0.0193653
0.0195236
0.0121734
0.0121833
0.0121992
0.0122297
0.0122667
0.0123119
0.0123623
0.012426
0.0124955
0.012573
0.0126586
0.0127482
0.0128494
0.0129546
0.0130656
0.0131831
0.0133083
0.0134406
0.0135743
0.0137168
0.0138614
0.0140096
0.0141628
0.0143201
0.0144818
0.0146483
0.0148193
0.0149951
0.0151701
0.0153516
0.0155389
0.0157255
0.0159137
0.0121842
0.0121941
0.012209
0.0122349
0.0122749
0.0123164
0.0123701
0.0124303
0.0125038
0.012582
0.0126629
0.0127555
0.0128536
0.0129631
0.0130766
0.0131958
0.0133215
0.0134489
0.0135854
0.0137241
0.0138727
0.0140222
0.0141761
0.0143341
0.0144962
0.0146627
0.0148338
0.0150097
0.0151845
0.0153662
0.015549
0.0157377
0.015928
0.0122009
0.0122116
0.0122321
0.0122571
0.0122922
0.012338
0.012394
0.0124536
0.0125213
0.012598
0.0126843
0.0127794
0.0128772
0.0129816
0.0130931
0.0132121
0.0133378
0.0134698
0.0136035
0.0137461
0.0138901
0.0140444
0.0142
0.0143588
0.0145218
0.0146844
0.0148535
0.0150279
0.015208
0.0153867
0.0155716
0.0157581
0.0159508
0.0122366
0.0122473
0.012268
0.0122935
0.0123286
0.0123743
0.0124297
0.0124897
0.0125574
0.0126345
0.0127213
0.0128167
0.0129145
0.0130192
0.0131358
0.0132514
0.0133755
0.0135072
0.0136453
0.0137846
0.0139273
0.0140805
0.0142353
0.0143939
0.0145571
0.0147244
0.0148909
0.0150641
0.0152431
0.0154219
0.0156069
0.015793
0.0159859
0.0122987
0.0123087
0.0123247
0.0123551
0.012392
0.0124377
0.0124889
0.0125532
0.0126232
0.0127013
0.0127876
0.0128776
0.0129792
0.0130845
0.0131962
0.013314
0.0134393
0.0135715
0.0137049
0.0138468
0.0139909
0.0141385
0.0142914
0.0144487
0.0146105
0.0147768
0.0149475
0.0151228
0.0152974
0.0154783
0.0156651
0.015851
0.0160386
0.0123893
0.0123993
0.0124155
0.0124467
0.0124828
0.0125231
0.0125768
0.0126374
0.0127117
0.0127905
0.0128717
0.0129644
0.0130625
0.013172
0.0132851
0.0134036
0.0135286
0.013655
0.0137905
0.0139281
0.014075
0.0142231
0.0143756
0.0145322
0.0146932
0.0148586
0.0150287
0.0152036
0.0153775
0.0155577
0.0157429
0.0159284
0.0161148
0.0125229
0.0125284
0.0125478
0.0125744
0.0126098
0.012655
0.0127094
0.0127684
0.0128358
0.0129125
0.0129978
0.0130914
0.013189
0.0132978
0.0134103
0.0135282
0.0136522
0.0137772
0.0139119
0.0140531
0.0141953
0.014341
0.0144912
0.0146511
0.0148132
0.0149786
0.0151427
0.0153133
0.015489
0.0156653
0.0158484
0.0160364
0.0162246
0.0127073
0.0127171
0.012734
0.0127643
0.0127994
0.0128385
0.0128915
0.0129547
0.0130219
0.0130964
0.0131796
0.0132669
0.0133655
0.0134677
0.0135771
0.0136976
0.0138158
0.0139419
0.0140754
0.0142152
0.0143547
0.0144986
0.014651
0.0148061
0.0149645
0.0151266
0.0152927
0.0154634
0.0156331
0.0158094
0.015991
0.0161737
0.0163629
0.0129544
0.0129634
0.0129776
0.013002
0.0130401
0.0130788
0.01313
0.0131916
0.0132565
0.0133292
0.0134104
0.0134995
0.0135919
0.0136954
0.0138019
0.0139147
0.014033
0.0141576
0.0142885
0.0144203
0.0145601
0.0147021
0.0148524
0.0150043
0.0151586
0.015317
0.01548
0.0156475
0.0158191
0.0159955
0.0161714
0.0163536
0.0165355
0.0132539
0.0132631
0.0132781
0.0133055
0.0133388
0.01338
0.0134296
0.0134844
0.0135509
0.0136225
0.0137013
0.0137876
0.0138763
0.0139758
0.0140794
0.0141875
0.0143025
0.0144232
0.0145497
0.0146819
0.0148199
0.0149585
0.0150999
0.0152504
0.0154016
0.0155574
0.0157171
0.0158809
0.0160492
0.0162219
0.0163985
0.0165743
0.0167572
0.0136165
0.0136255
0.0136395
0.013667
0.0136989
0.0137387
0.0137864
0.013838
0.0139019
0.0139701
0.0140456
0.0141285
0.0142186
0.0143114
0.0144151
0.0145206
0.0146318
0.0147483
0.0148706
0.0149989
0.015133
0.0152669
0.0154084
0.0155524
0.0157039
0.0158567
0.0160127
0.0161722
0.0163358
0.0165039
0.0166765
0.0168535
0.0170297
0.0140377
0.0140467
0.0140641
0.0140865
0.0141165
0.0141545
0.0142006
0.0142548
0.014317
0.0143823
0.014454
0.0145336
0.0146214
0.0147159
0.0148116
0.0149126
0.0150233
0.0151374
0.0152562
0.0153808
0.0155107
0.0156405
0.015778
0.0159226
0.0160668
0.0162144
0.01637
0.0165276
0.0166879
0.0168519
0.0170203
0.0171933
0.017365
0.0145281
0.0145372
0.0145542
0.0145756
0.0146087
0.0146464
0.0146906
0.0147384
0.0147973
0.0148595
0.0149296
0.0150111
0.0150913
0.0151804
0.0152763
0.015375
0.0154828
0.0155934
0.0157082
0.0158283
0.0159539
0.0160847
0.0162208
0.0163564
0.0164993
0.016644
0.0167913
0.0169479
0.0171055
0.0172658
0.0174297
0.0175976
0.0177695
0.0150878
0.0150957
0.0151077
0.0151319
0.0151602
0.0151953
0.0152379
0.0152882
0.0153455
0.0154046
0.0154709
0.0155444
0.0156247
0.0157117
0.0158054
0.0159049
0.0160066
0.0161124
0.0162287
0.0163465
0.0164683
0.0165951
0.016722
0.0168561
0.0169956
0.0171361
0.0172838
0.0174332
0.017585
0.017746
0.0179074
0.0180714
0.0182393
0.0155806
0.0155886
0.015604
0.0156239
0.0156544
0.015689
0.01573
0.0157779
0.015829
0.0158899
0.0159539
0.0160244
0.0161016
0.0161852
0.0162753
0.0163716
0.0164701
0.0165765
0.0166863
0.0167999
0.0169178
0.0170402
0.0171669
0.0172987
0.0174353
0.0175719
0.0177152
0.0178606
0.0180122
0.0181653
0.0183213
0.0184804
0.0186431
0.0108531
0.0108585
0.010879
0.0109068
0.0109454
0.0109948
0.0110513
0.0111218
0.0111979
0.0112771
0.0113694
0.0114725
0.0115789
0.0116924
0.0118134
0.0119371
0.0120717
0.0122094
0.0123581
0.0125083
0.0126637
0.0128236
0.0129886
0.013159
0.0133294
0.0135068
0.0136905
0.0138747
0.0140607
0.0142561
0.0144522
0.0146507
0.0148537
0.0108554
0.0108666
0.0108887
0.0109162
0.0109542
0.0110032
0.0110587
0.0111288
0.0112045
0.0112839
0.0113758
0.0114745
0.0115851
0.0117012
0.0118239
0.0119486
0.0120835
0.0122221
0.0123708
0.0125218
0.0126763
0.0128367
0.0130023
0.0131731
0.0133434
0.0135212
0.0137002
0.0138862
0.0140739
0.0142692
0.0144664
0.0146659
0.0148687
0.0108795
0.01089
0.0109062
0.010933
0.0109712
0.0110207
0.0110804
0.0111464
0.0112213
0.0113057
0.0113951
0.0114966
0.0116038
0.0117178
0.0118398
0.0119696
0.0121017
0.0122435
0.0123881
0.0125377
0.0126928
0.0128529
0.013018
0.0131886
0.0133642
0.0135396
0.013722
0.0139063
0.0140976
0.0142905
0.0144852
0.014684
0.0148871
0.0109119
0.0109228
0.0109403
0.010973
0.0110119
0.0110561
0.0111144
0.0111797
0.0112545
0.01134
0.0114349
0.0115336
0.0116396
0.0117531
0.0118751
0.0120046
0.0121368
0.0122787
0.0124227
0.0125727
0.0127275
0.0128873
0.0130525
0.0132227
0.0133987
0.0135744
0.013757
0.0139407
0.0141324
0.0143248
0.0145197
0.0147192
0.014927
0.0109706
0.010981
0.0109972
0.0110247
0.0110637
0.0111143
0.0111758
0.0112421
0.0113177
0.0114026
0.0114925
0.0115954
0.0117029
0.0118177
0.0119398
0.0120643
0.0121988
0.0123363
0.0124845
0.0126341
0.0127891
0.0129488
0.0131138
0.0132841
0.0134594
0.013634
0.0138166
0.0140003
0.0141862
0.0143813
0.0145768
0.0147747
0.0149776
0.0110573
0.0110632
0.0110839
0.0111125
0.0111517
0.0112017
0.0112588
0.0113299
0.0114069
0.0114873
0.01158
0.0116789
0.0117898
0.0119057
0.0120279
0.0121518
0.012286
0.012423
0.0125712
0.0127205
0.0128747
0.0130336
0.0131976
0.0133671
0.0135417
0.0137156
0.0138973
0.0140804
0.0142703
0.0144622
0.0146555
0.0148527
0.0150544
0.0111861
0.0111978
0.011221
0.0112497
0.0112888
0.0113385
0.0113934
0.0114575
0.0115324
0.011617
0.0117106
0.0118087
0.011914
0.0120325
0.01215
0.0122766
0.012411
0.0125472
0.0126941
0.0128419
0.0129946
0.0131515
0.0133136
0.0134812
0.0136543
0.0138271
0.0140069
0.0141927
0.0143789
0.0145667
0.0147643
0.0149627
0.0151636
0.0113826
0.0113946
0.0114166
0.0114449
0.011483
0.0115312
0.0115853
0.0116541
0.0117282
0.0118058
0.0118967
0.0119972
0.0121015
0.0122117
0.0123297
0.0124551
0.0125874
0.0127214
0.0128607
0.0130091
0.0131604
0.013315
0.0134741
0.0136389
0.0138087
0.0139839
0.0141585
0.0143403
0.0145222
0.0147131
0.0149041
0.0150992
0.0153033
0.0116507
0.0116563
0.0116765
0.0117032
0.0117399
0.0117871
0.011844
0.0119058
0.0119759
0.0120552
0.0121441
0.0122374
0.0123417
0.0124505
0.0125651
0.0126866
0.0128154
0.0129457
0.0130851
0.0132272
0.0133789
0.0135321
0.0136883
0.0138491
0.0140152
0.0141862
0.014357
0.0145357
0.0147199
0.0149042
0.0150973
0.0152902
0.0154855
0.0119766
0.0119876
0.0120087
0.0120348
0.0120698
0.012114
0.0121633
0.0122256
0.012293
0.0123694
0.012455
0.0125488
0.0126467
0.0127505
0.0128662
0.0129854
0.01311
0.0132354
0.0133701
0.0135071
0.013654
0.0138022
0.0139548
0.0141117
0.0142732
0.0144397
0.0146108
0.014787
0.0149682
0.0151482
0.015337
0.0155253
0.0157179
0.0123742
0.0123852
0.0124062
0.0124313
0.0124646
0.0125076
0.0125596
0.0126157
0.0126797
0.0127573
0.0128398
0.0129247
0.013021
0.0131215
0.0132334
0.0133479
0.0134682
0.0135938
0.0137204
0.013856
0.0139993
0.0141427
0.014291
0.014443
0.0146047
0.014769
0.0149368
0.0151038
0.0152774
0.0154577
0.0156381
0.0158251
0.0160147
0.0128507
0.0128559
0.0128743
0.0128993
0.0129371
0.012979
0.0130237
0.0130801
0.0131415
0.0132116
0.0132898
0.0133755
0.013469
0.013571
0.0136748
0.0137841
0.013899
0.0140197
0.0141462
0.0142795
0.0144188
0.0145579
0.0147011
0.014853
0.0150077
0.0151654
0.0153271
0.015493
0.0156639
0.0158397
0.0160149
0.016197
0.0163863
0.0134039
0.013413
0.0134307
0.0134534
0.0134841
0.0135236
0.0135719
0.0136279
0.0136868
0.0137536
0.0138333
0.013917
0.0140023
0.0140976
0.0141968
0.0143056
0.0144175
0.0145342
0.0146569
0.0147862
0.0149214
0.0150561
0.0151986
0.0153432
0.0154906
0.0156477
0.0158063
0.0159682
0.0161343
0.0163052
0.0164806
0.016655
0.0168367
0.0140584
0.0140618
0.014078
0.0140993
0.0141335
0.0141723
0.0142176
0.014266
0.0143261
0.01439
0.0144617
0.0145406
0.0146263
0.0147191
0.0148186
0.0149204
0.0150263
0.0151438
0.0152642
0.0153892
0.015514
0.0156464
0.0157851
0.0159246
0.0160711
0.0162198
0.0163711
0.0165324
0.0166954
0.0168616
0.0170265
0.0171973
0.0173729
0.0146535
0.0146618
0.014678
0.0146985
0.0147274
0.0147675
0.0148069
0.0148559
0.0149136
0.0149748
0.0150469
0.0151228
0.0152048
0.0152896
0.0153837
0.0154843
0.0155879
0.0156964
0.0158151
0.0159358
0.0160604
0.0161857
0.016318
0.0164557
0.0165954
0.0167408
0.0168884
0.0170428
0.0171993
0.0173586
0.0175211
0.0176875
0.0178582
0.00952356
0.00953524
0.0095547
0.0095893
0.00962705
0.00968034
0.00974645
0.00981889
0.00990067
0.00998812
0.0100904
0.0101982
0.0103146
0.0104345
0.0105661
0.0107022
0.0108506
0.0110017
0.0111585
0.0113216
0.0114906
0.0116602
0.011838
0.0120184
0.0122064
0.0123969
0.0125902
0.0127892
0.0129972
0.0132023
0.0134128
0.0136284
0.0138492
0.00953193
0.00954338
0.00956157
0.00959134
0.00963304
0.0096864
0.00974674
0.00981708
0.00989904
0.00999176
0.0100913
0.0102036
0.010317
0.0104413
0.0105749
0.0107128
0.0108615
0.0110138
0.0111709
0.0113339
0.0114979
0.0116703
0.0118504
0.0120309
0.0122197
0.0124104
0.0126041
0.0128014
0.0130044
0.0132116
0.0134232
0.0136394
0.0138621
0.00955209
0.00955905
0.0095818
0.00961234
0.00965458
0.00970866
0.00976866
0.0098394
0.00992205
0.0100159
0.0101146
0.0102227
0.0103395
0.0104653
0.0105947
0.0107351
0.0108797
0.0110302
0.0111872
0.0113502
0.0115193
0.0116943
0.0118695
0.0120531
0.0122385
0.012427
0.0126256
0.012826
0.0130296
0.0132376
0.0134505
0.0136631
0.0138822
0.0095837
0.00959495
0.00961326
0.00964303
0.00968518
0.00973892
0.00979961
0.0098706
0.00995366
0.010048
0.0101475
0.0102557
0.0103728
0.010499
0.0106286
0.0107695
0.0109137
0.0110647
0.0112215
0.0113842
0.0115532
0.0117282
0.0119034
0.0120863
0.0122719
0.012465
0.0126612
0.0128603
0.0130634
0.0132712
0.0134842
0.0137021
0.0139188
0.00963538
0.00964229
0.00966558
0.0096971
0.0097407
0.00979593
0.00985714
0.00992927
0.0100124
0.0101018
0.0102052
0.0103149
0.010433
0.0105596
0.0106893
0.0108301
0.0109752
0.0111249
0.0112813
0.011444
0.0116128
0.0117824
0.0119598
0.0121451
0.0123301
0.0125188
0.0127118
0.0129147
0.0131196
0.0133283
0.0135363
0.0137509
0.0139706
0.00971939
0.00972628
0.0097498
0.00978167
0.00982454
0.0098753
0.00994133
0.0100158
0.0101
0.0101897
0.0102936
0.0104031
0.0105207
0.0106416
0.0107737
0.0109102
0.0110586
0.0112094
0.0113662
0.0115287
0.0116972
0.0118658
0.0120422
0.0122265
0.0124108
0.0125984
0.0127957
0.0129956
0.0131986
0.013406
0.0136181
0.0138294
0.0140473
0.00984944
0.00986121
0.00988227
0.00991852
0.00995826
0.0100125
0.0100744
0.0101472
0.0102309
0.0103246
0.0104239
0.0105306
0.0106468
0.0107713
0.010904
0.0110394
0.0111865
0.0113355
0.0114903
0.0116509
0.0118175
0.0119844
0.0121593
0.0123409
0.0125247
0.0127157
0.0129093
0.0131053
0.0133051
0.0135103
0.0137202
0.0139346
0.0141555
0.0100612
0.0100728
0.0100921
0.0101224
0.0101648
0.0102188
0.0102786
0.0103491
0.0104305
0.0105221
0.0106185
0.010729
0.010844
0.0109607
0.0110888
0.0112257
0.0113652
0.0115105
0.0116665
0.0118264
0.0119907
0.0121546
0.0123266
0.0125053
0.0126859
0.0128748
0.0130647
0.0132577
0.013456
0.0136586
0.0138657
0.0140777
0.0142943
0.010349
0.0103557
0.0103779
0.0104074
0.0104482
0.0105001
0.0105576
0.0106245
0.0107022
0.0107906
0.0108843
0.0109902
0.0111013
0.0112187
0.0113441
0.0114725
0.0116111
0.0117522
0.0119049
0.0120596
0.0122187
0.0123831
0.0125537
0.0127247
0.0129038
0.0130844
0.0132732
0.0134638
0.0136588
0.0138626
0.0140685
0.0142786
0.0144883
0.0107097
0.0107215
0.0107438
0.0107727
0.0108115
0.0108605
0.0109143
0.010978
0.0110518
0.0111358
0.0112291
0.0113268
0.0114372
0.0115518
0.0116728
0.0117956
0.011929
0.01207
0.0122126
0.0123613
0.0125202
0.0126818
0.0128426
0.0130108
0.0131856
0.0133665
0.0135476
0.0137373
0.013928
0.0141235
0.0143231
0.0145273
0.0147359
0.0111563
0.0111671
0.0111853
0.0112172
0.0112553
0.0113021
0.0113539
0.0114188
0.0114902
0.0115699
0.0116539
0.0117496
0.0118516
0.0119645
0.0120818
0.0122046
0.0123291
0.0124631
0.0126056
0.0127494
0.0128985
0.0130524
0.013217
0.0133838
0.0135497
0.0137227
0.0139029
0.014084
0.0142719
0.0144629
0.0146568
0.0148595
0.0150647
0.0116946
0.0117045
0.0117209
0.0117509
0.0117876
0.0118322
0.0118817
0.0119443
0.0120119
0.0120873
0.0121717
0.0122651
0.0123624
0.0124711
0.0125836
0.0127016
0.0128257
0.0129566
0.0130888
0.0132306
0.0133745
0.013523
0.0136819
0.0138436
0.0140087
0.0141785
0.0143478
0.0145245
0.014709
0.0148925
0.0150801
0.0152758
0.0154747
0.0123452
0.0123496
0.0123677
0.0123923
0.0124256
0.0124683
0.0125207
0.0125818
0.0126464
0.0127178
0.0127984
0.0128873
0.01298
0.0130834
0.0131906
0.0133032
0.0134225
0.0135479
0.0136789
0.0138165
0.0139553
0.0141022
0.0142527
0.0144064
0.0145643
0.0147275
0.0148949
0.015067
0.0152451
0.0154232
0.0156075
0.0157996
0.01599
0.0131234
0.0131316
0.013145
0.0131714
0.0132031
0.0132432
0.0132917
0.0133442
0.0134091
0.0134775
0.0135534
0.0136375
0.0137293
0.0138241
0.0139288
0.0140368
0.0141496
0.0142689
0.0143944
0.014526
0.0146637
0.0148013
0.014947
0.0150948
0.0152459
0.0154013
0.0155621
0.015727
0.0158963
0.0160697
0.0162485
0.016428
0.0166132
0.0138453
0.0138535
0.0138701
0.0138918
0.0139258
0.0139638
0.0140048
0.0140567
0.014118
0.0141825
0.0142543
0.0143334
0.0144196
0.0145126
0.0146087
0.014714
0.0148221
0.014936
0.0150596
0.0151818
0.0153106
0.0154449
0.0155859
0.0157268
0.0158752
0.0160244
0.0161772
0.0163337
0.0164947
0.0166606
0.0168303
0.0170042
0.017183
0.00819774
0.00820972
0.00822925
0.00826131
0.00830731
0.00836689
0.00843402
0.00851227
0.00859798
0.00870004
0.00880995
0.00892971
0.0090544
0.00919204
0.00933637
0.00948704
0.00964632
0.00981304
0.00998166
0.0101595
0.0103411
0.0105312
0.0107246
0.0109216
0.0111235
0.0113314
0.0115452
0.0117656
0.0119856
0.0122129
0.0124435
0.0126763
0.0129191
0.00820451
0.00821199
0.00823615
0.00826924
0.00831449
0.00836931
0.00844007
0.00851503
0.00860442
0.00870315
0.00881657
0.008933
0.00906176
0.00919692
0.00934517
0.00949826
0.00965772
0.00981951
0.00999112
0.0101713
0.0103529
0.0105386
0.0107348
0.0109337
0.0111368
0.0113452
0.0115596
0.0117745
0.0119966
0.0122214
0.0124539
0.0126883
0.0129263
0.00821465
0.00822822
0.00825524
0.00828875
0.00832933
0.00838642
0.00845369
0.00853305
0.00862501
0.00872366
0.00883339
0.00895411
0.00908582
0.00922164
0.00936451
0.0095157
0.00967465
0.00984103
0.0100147
0.01019
0.010375
0.0105626
0.0107546
0.0109516
0.0111547
0.0113628
0.011576
0.0117943
0.012015
0.0122425
0.012472
0.0127099
0.01295
0.00825035
0.00825829
0.0082839
0.00831849
0.00836452
0.00841841
0.00848445
0.00856402
0.00865687
0.00875658
0.00886656
0.00898764
0.00911971
0.00925609
0.00939904
0.00955083
0.00970986
0.0098762
0.0100498
0.0102249
0.0104089
0.0105969
0.0107882
0.010986
0.0111889
0.0113969
0.0116098
0.0118279
0.0120521
0.0122775
0.0125103
0.0127459
0.0129846
0.00829538
0.00830366
0.00833013
0.00836615
0.00841383
0.0084688
0.00853631
0.00861743
0.00871153
0.00881198
0.00892303
0.00904425
0.00917079
0.00930997
0.00945479
0.0096064
0.00976609
0.00993305
0.010102
0.0102796
0.010461
0.0106513
0.0108443
0.0110408
0.0112433
0.0114511
0.0116641
0.0118831
0.0121034
0.0123304
0.0125601
0.0127977
0.0130378
0.00837123
0.00838468
0.00840734
0.00844285
0.00849172
0.00854822
0.00861661
0.00869823
0.0087927
0.0088937
0.00900529
0.00912693
0.00925354
0.0093928
0.0095374
0.00968877
0.00984798
0.0100146
0.010188
0.0103625
0.0105472
0.0107339
0.010925
0.0111207
0.0113227
0.0115298
0.0117421
0.0119596
0.0121842
0.0124085
0.0126413
0.0128758
0.0131139
0.0085052
0.00851839
0.00854071
0.00857565
0.00862471
0.00868662
0.0087574
0.00883909
0.00892814
0.00903274
0.00914402
0.00925948
0.00938762
0.00952648
0.00967033
0.00981959
0.00997697
0.0101414
0.0103078
0.010483
0.0106662
0.0108516
0.0110403
0.0112356
0.0114407
0.0116491
0.0118568
0.0120718
0.0122932
0.0125165
0.0127474
0.0129799
0.0132209
0.008732
0.00874023
0.00876547
0.00880099
0.00884851
0.0089039
0.00897093
0.0090506
0.00914178
0.0092396
0.00934678
0.00946351
0.00959011
0.00972127
0.00986345
0.010011
0.010164
0.0103239
0.010491
0.0106653
0.0108414
0.0110263
0.0112132
0.0114051
0.0116076
0.0118129
0.0120228
0.0122323
0.0124495
0.012673
0.012899
0.0131323
0.0133682
0.00904302
0.00905634
0.00908295
0.00911631
0.00915657
0.00921277
0.00927694
0.00935311
0.00944044
0.00953441
0.00964195
0.00975559
0.00987716
0.0100022
0.0101388
0.0102797
0.0104331
0.0105899
0.0107524
0.0109161
0.0110891
0.0112701
0.0114521
0.011644
0.0118371
0.0120362
0.0122402
0.0124491
0.0126637
0.0128844
0.0131068
0.0133367
0.0135681
0.00945897
0.00947126
0.00949072
0.00952127
0.00956388
0.00961838
0.00967966
0.00975111
0.00983385
0.00992738
0.0100261
0.0101335
0.0102488
0.0103724
0.010505
0.0106458
0.0107887
0.0109379
0.0110928
0.0112537
0.0114214
0.0115964
0.0117779
0.0119597
0.012147
0.0123427
0.0125418
0.0127454
0.0129542
0.0131687
0.0133887
0.0136102
0.0138394
0.00997081
0.00998192
0.0100008
0.0100345
0.0100755
0.0101226
0.010184
0.0102523
0.0103307
0.0104196
0.0105132
0.0106184
0.0107298
0.0108483
0.0109751
0.011105
0.0112445
0.0113881
0.0115408
0.0116976
0.0118593
0.0120273
0.0122018
0.0123766
0.0125607
0.0127469
0.012943
0.0131401
0.0133419
0.0135489
0.0137614
0.0139799
0.0141988
0.0106044
0.0106152
0.0106326
0.0106599
0.0106982
0.010747
0.0108066
0.010871
0.0109452
0.0110285
0.0111206
0.0112178
0.0113264
0.0114403
0.011561
0.0116891
0.0118195
0.0119595
0.0121039
0.012257
0.0124136
0.0125746
0.0127413
0.0129137
0.0130863
0.0132673
0.0134519
0.0136439
0.0138387
0.014037
0.0142401
0.0144484
0.0146616
0.0113865
0.0113969
0.0114132
0.0114437
0.0114804
0.0115262
0.0115774
0.0116423
0.0117119
0.01179
0.0118768
0.0119727
0.0120715
0.012177
0.0122956
0.0124183
0.0125413
0.0126734
0.0128144
0.0129566
0.0131032
0.0132598
0.0134197
0.0135838
0.0137529
0.013922
0.0140986
0.0142827
0.0144671
0.0146604
0.0148544
0.0150528
0.0152548
0.0123251
0.0123341
0.0123488
0.0123767
0.0124107
0.0124527
0.0124994
0.0125593
0.0126246
0.0126979
0.0127789
0.0128675
0.0129635
0.0130631
0.0131733
0.0132872
0.0134063
0.0135324
0.0136648
0.0137977
0.0139395
0.0140839
0.0142318
0.0143899
0.01455
0.0147138
0.0148828
0.0150519
0.0152279
0.0154104
0.0155934
0.0157825
0.0159743
0.013168
0.013176
0.0131892
0.0132147
0.0132456
0.0132848
0.0133326
0.0133849
0.0134488
0.0135166
0.0135919
0.013675
0.0137654
0.0138593
0.0139627
0.0140695
0.0141819
0.0143047
0.0144262
0.0145543
0.0146881
0.0148283
0.0149695
0.015119
0.0152699
0.0154246
0.0155831
0.0157459
0.0159134
0.0160853
0.0162619
0.0164387
0.0166208
0.00686596
0.0068737
0.00689974
0.00693582
0.00698477
0.00704318
0.00711646
0.00720488
0.00730252
0.00741395
0.00753837
0.00767007
0.00781144
0.00796311
0.00812446
0.00829518
0.00846956
0.00865554
0.00884537
0.00904097
0.00924253
0.00945077
0.00966619
0.00988306
0.0101082
0.0103372
0.0105749
0.0108165
0.0110623
0.011313
0.0115693
0.0118313
0.0120937
0.00687255
0.00688053
0.00690677
0.00694213
0.00698644
0.00704906
0.0071242
0.00721333
0.00731192
0.00742269
0.00754198
0.00767649
0.00781956
0.00797155
0.00813381
0.00830522
0.00847995
0.00866179
0.0088541
0.00905158
0.0092544
0.00946356
0.00967429
0.00989332
0.0101203
0.0103502
0.0105839
0.0108275
0.0110748
0.0113266
0.0115836
0.0118409
0.0121058
0.00688103
0.00689448
0.00691725
0.00695382
0.00700429
0.00706528
0.00713982
0.00722911
0.00732747
0.00743815
0.00756185
0.00769393
0.00784122
0.00799632
0.0081545
0.00832448
0.00849925
0.00868425
0.00887429
0.00906921
0.00927124
0.00947993
0.00969489
0.00991802
0.0101416
0.0103743
0.0106096
0.0108495
0.0110941
0.0113442
0.0116004
0.0118623
0.012125
0.00691386
0.00692317
0.00695174
0.00699019
0.00703698
0.00709743
0.00717315
0.00726342
0.00736303
0.00747416
0.00759842
0.00773081
0.00787838
0.00803322
0.00819106
0.00836078
0.00854036
0.0087227
0.00891117
0.00910548
0.00930739
0.00951563
0.00973027
0.00995211
0.010176
0.0104075
0.0106432
0.0108826
0.0111268
0.0113766
0.0116326
0.0118944
0.0121619
0.00695065
0.00696076
0.00699081
0.00703102
0.00707952
0.00714186
0.00721944
0.00731209
0.00741344
0.0075268
0.0076528
0.00778588
0.0079284
0.00808139
0.00824322
0.00841428
0.00858917
0.00877458
0.00896492
0.00916017
0.00936133
0.00956961
0.0097854
0.0100031
0.0102285
0.010457
0.010695
0.0109361
0.011181
0.011431
0.0116866
0.0119484
0.012211
0.00701126
0.00702696
0.00705306