/*--------------------------------*- C++ -*----------------------------------*\
| =========                 |                                                 |
| \\      /  F ield         | OpenFOAM: The Open Source CFD Toolbox           |
|  \\    /   O peration     | Version:  2412                                  |
|   \\  /    A nd           | Website:  www.openfoam.com                      |
|    \\/     M anipulation  |                                                 |
\*---------------------------------------------------------------------------*/
FoamFile
{
    version     2.0;
    format      ascii;
    arch        "LSB;label=32;scalar=64";
    class       volScalarField;
    location    "0.0400007";
    object      Jsi;
}
// * * * * * * * * * * * * * * * * * * * * * * * * * * * * * * * * * * * * * //

dimensions      [0 0 0 0 0 0 0];

internalField   nonuniform List<scalar> 
8679
(
-0.266155
-0.266194
-0.266107
-0.265975
-0.265881
-0.265757
-0.265608
-0.265455
-0.265255
-0.265034
-0.264704
-0.264408
-0.264091
-0.263786
-0.263428
-0.262995
-0.262614
-0.262214
-0.261776
-0.261265
-0.260775
-0.26022
-0.259622
-0.259004
-0.25844
-0.257789
-0.257182
-0.256554
-0.255846
-0.255112
-0.254393
-0.253652
-0.252876
-0.266177
-0.266131
-0.266045
-0.265997
-0.265873
-0.265705
-0.265572
-0.265405
-0.265155
-0.264951
-0.264713
-0.2644
-0.264113
-0.263754
-0.263355
-0.262992
-0.262529
-0.262109
-0.261665
-0.261184
-0.260666
-0.260117
-0.259539
-0.259012
-0.25839
-0.2578
-0.257115
-0.256476
-0.255805
-0.255051
-0.254316
-0.253569
-0.252797
-0.265992
-0.265954
-0.265948
-0.26583
-0.265741
-0.265613
-0.265439
-0.26522
-0.265035
-0.264739
-0.264484
-0.264208
-0.263896
-0.263546
-0.263237
-0.262829
-0.262456
-0.262053
-0.261561
-0.261034
-0.260564
-0.260061
-0.259479
-0.258875
-0.258317
-0.257661
-0.257049
-0.256401
-0.255646
-0.254943
-0.254232
-0.253489
-0.252716
-0.271598
-0.271568
-0.271532
-0.271447
-0.271356
-0.271228
-0.271065
-0.270897
-0.270695
-0.270489
-0.270245
-0.269965
-0.269645
-0.26929
-0.268968
-0.268547
-0.268161
-0.267752
-0.267301
-0.266819
-0.266308
-0.26584
-0.265275
-0.264743
-0.264118
-0.263538
-0.262942
-0.262323
-0.261665
-0.26098
-0.26026
-0.259512
-0.258764
-0.271528
-0.271491
-0.27148
-0.271362
-0.27127
-0.271143
-0.270982
-0.270845
-0.270604
-0.270394
-0.270156
-0.26988
-0.269568
-0.269259
-0.26891
-0.268548
-0.268082
-0.267648
-0.267197
-0.26672
-0.266293
-0.265761
-0.265224
-0.264675
-0.264125
-0.263464
-0.262851
-0.262224
-0.261565
-0.260877
-0.260155
-0.259437
-0.258664
-0.271487
-0.271438
-0.271354
-0.271306
-0.27123
-0.271099
-0.270926
-0.270715
-0.270527
-0.270235
-0.269978
-0.269702
-0.269472
-0.269135
-0.268784
-0.268395
-0.268011
-0.267604
-0.267158
-0.266679
-0.266173
-0.26571
-0.265151
-0.264622
-0.263998
-0.263415
-0.262812
-0.262163
-0.261442
-0.26074
-0.260072
-0.259345
-0.258601
-0.271341
-0.271291
-0.271203
-0.271156
-0.271076
-0.270951
-0.270774
-0.270563
-0.270374
-0.270081
-0.269822
-0.269549
-0.26928
-0.268974
-0.268623
-0.268232
-0.267847
-0.267438
-0.266991
-0.266514
-0.266008
-0.265545
-0.264983
-0.264455
-0.263832
-0.263246
-0.262631
-0.261932
-0.261247
-0.260547
-0.259842
-0.259153
-0.258393
-0.271046
-0.271003
-0.270988
-0.270867
-0.270772
-0.270644
-0.270482
-0.270341
-0.2701
-0.269884
-0.269636
-0.269357
-0.269047
-0.268733
-0.268381
-0.267987
-0.267551
-0.267114
-0.266664
-0.266191
-0.265768
-0.265237
-0.264668
-0.264153
-0.263606
-0.262953
-0.262336
-0.261708
-0.261048
-0.260363
-0.259641
-0.258895
-0.258147
-0.276537
-0.276575
-0.27651
-0.276467
-0.276382
-0.276243
-0.276064
-0.275846
-0.27567
-0.275472
-0.275239
-0.274969
-0.274704
-0.274401
-0.274097
-0.273726
-0.273353
-0.272937
-0.272522
-0.272043
-0.271606
-0.27108
-0.270576
-0.270013
-0.269423
-0.268841
-0.268238
-0.267633
-0.266967
-0.266275
-0.265633
-0.264901
-0.264201
-0.276573
-0.276529
-0.276447
-0.276397
-0.276311
-0.276184
-0.27602
-0.275874
-0.27563
-0.275417
-0.275177
-0.274904
-0.274666
-0.274328
-0.274013
-0.273677
-0.273303
-0.272888
-0.272437
-0.271962
-0.271522
-0.270991
-0.270503
-0.269992
-0.269435
-0.268807
-0.26818
-0.26755
-0.266933
-0.266252
-0.265562
-0.264809
-0.264101
-0.276438
-0.276403
-0.276398
-0.276314
-0.276183
-0.276051
-0.275954
-0.275769
-0.275602
-0.275369
-0.275151
-0.274867
-0.27455
-0.274261
-0.273877
-0.273524
-0.273146
-0.272748
-0.27235
-0.271911
-0.271404
-0.270938
-0.270444
-0.269848
-0.269293
-0.268716
-0.268114
-0.267474
-0.266835
-0.266143
-0.265463
-0.26475
-0.263966
-0.276323
-0.276277
-0.276258
-0.276135
-0.276037
-0.275918
-0.275798
-0.275638
-0.27547
-0.275235
-0.274989
-0.274728
-0.274409
-0.274118
-0.273731
-0.273379
-0.272999
-0.2726
-0.2722
-0.271763
-0.271255
-0.270779
-0.270214
-0.269687
-0.269139
-0.26857
-0.267967
-0.267327
-0.266687
-0.265986
-0.265268
-0.264589
-0.263822
-0.276126
-0.276107
-0.276022
-0.275963
-0.275874
-0.275744
-0.275575
-0.275402
-0.275185
-0.274962
-0.274717
-0.274445
-0.274199
-0.273859
-0.273549
-0.273206
-0.272799
-0.272411
-0.271965
-0.271488
-0.271053
-0.27053
-0.270036
-0.269516
-0.26889
-0.268293
-0.267684
-0.267078
-0.26642
-0.265773
-0.265094
-0.264349
-0.263642
-0.275806
-0.275756
-0.27567
-0.275616
-0.275531
-0.275406
-0.275238
-0.275062
-0.27485
-0.274626
-0.274393
-0.274156
-0.27388
-0.273522
-0.273207
-0.272866
-0.272495
-0.272078
-0.271631
-0.271154
-0.270719
-0.270194
-0.269701
-0.26918
-0.268554
-0.267957
-0.267349
-0.266743
-0.266076
-0.265385
-0.264707
-0.263996
-0.263216
-0.275349
-0.275314
-0.275265
-0.275184
-0.275091
-0.274957
-0.274795
-0.274666
-0.274464
-0.274212
-0.273964
-0.273721
-0.273441
-0.273082
-0.272765
-0.272426
-0.272057
-0.271642
-0.271193
-0.270714
-0.270281
-0.269755
-0.269254
-0.268653
-0.268096
-0.267521
-0.266926
-0.266293
-0.265631
-0.264976
-0.264257
-0.263547
-0.262803
-0.274711
-0.27472
-0.274693
-0.274621
-0.274543
-0.274422
-0.274248
-0.274075
-0.273906
-0.273672
-0.273428
-0.273154
-0.272871
-0.272555
-0.272207
-0.271862
-0.271491
-0.271076
-0.270622
-0.270135
-0.269624
-0.269158
-0.268598
-0.268076
-0.267541
-0.266968
-0.266317
-0.265681
-0.265033
-0.2644
-0.263697
-0.262983
-0.262205
-0.273975
-0.273944
-0.273942
-0.27383
-0.273745
-0.273639
-0.273528
-0.273371
-0.273164
-0.272918
-0.272668
-0.272394
-0.272129
-0.271818
-0.271434
-0.271095
-0.270731
-0.270328
-0.269891
-0.269412
-0.268906
-0.268445
-0.26789
-0.26737
-0.26679
-0.266189
-0.265594
-0.264977
-0.264327
-0.263645
-0.262962
-0.262215
-0.261437
-0.273104
-0.27311
-0.273072
-0.272985
-0.272851
-0.272715
-0.272553
-0.272428
-0.272197
-0.271997
-0.271769
-0.271502
-0.271192
-0.27085
-0.270555
-0.270197
-0.269796
-0.269392
-0.268953
-0.268487
-0.267992
-0.26754
-0.266985
-0.266427
-0.265856
-0.265293
-0.26466
-0.264029
-0.263384
-0.262704
-0.26199
-0.26125
-0.260513
-0.272071
-0.272022
-0.271943
-0.271895
-0.271813
-0.271689
-0.271524
-0.271318
-0.271106
-0.270877
-0.270654
-0.270393
-0.270086
-0.269755
-0.26946
-0.269072
-0.268711
-0.268313
-0.267833
-0.267367
-0.266919
-0.266414
-0.265857
-0.2653
-0.264757
-0.264124
-0.263538
-0.262932
-0.262296
-0.261617
-0.260863
-0.26016
-0.259403
-0.270674
-0.270633
-0.270595
-0.270515
-0.270433
-0.270314
-0.27015
-0.269948
-0.269746
-0.269514
-0.269288
-0.26903
-0.268734
-0.268407
-0.268093
-0.267738
-0.26734
-0.266907
-0.266475
-0.266014
-0.265531
-0.26501
-0.264466
-0.263957
-0.26335
-0.262738
-0.262114
-0.261499
-0.26081
-0.260129
-0.259431
-0.258701
-0.257941
-0.269021
-0.269021
-0.268988
-0.268906
-0.26879
-0.268674
-0.268514
-0.268312
-0.268107
-0.267891
-0.267664
-0.267359
-0.267068
-0.266787
-0.266439
-0.266076
-0.26568
-0.26525
-0.264827
-0.264344
-0.263861
-0.263339
-0.262823
-0.262239
-0.261628
-0.261064
-0.26041
-0.259783
-0.259086
-0.258412
-0.257724
-0.257007
-0.25625
-0.267197
-0.267165
-0.26713
-0.267057
-0.266943
-0.266827
-0.26667
-0.266471
-0.266269
-0.266043
-0.265788
-0.265494
-0.265205
-0.264874
-0.264538
-0.264133
-0.263744
-0.263314
-0.262887
-0.262426
-0.261856
-0.261327
-0.260829
-0.260311
-0.259715
-0.259083
-0.25849
-0.257806
-0.257149
-0.256427
-0.255722
-0.255005
-0.25426
-0.26564
-0.265595
-0.26554
-0.265452
-0.265322
-0.265193
-0.265034
-0.264837
-0.264613
-0.264427
-0.264141
-0.263895
-0.263618
-0.263297
-0.26293
-0.262525
-0.262132
-0.261702
-0.261269
-0.260736
-0.260244
-0.259733
-0.259192
-0.258618
-0.258004
-0.2574
-0.256784
-0.256135
-0.25545
-0.254733
-0.253994
-0.253262
-0.252455
-0.281144
-0.281108
-0.281093
-0.280973
-0.280871
-0.280746
-0.280639
-0.280437
-0.280262
-0.280063
-0.279831
-0.279629
-0.279333
-0.279059
-0.278765
-0.27843
-0.278061
-0.277655
-0.277279
-0.276814
-0.276389
-0.275944
-0.275464
-0.274948
-0.274402
-0.273817
-0.273231
-0.272589
-0.27195
-0.271281
-0.27058
-0.269889
-0.269144
-0.281099
-0.281059
-0.281051
-0.280968
-0.280847
-0.28075
-0.280621
-0.280445
-0.280237
-0.280036
-0.279837
-0.279606
-0.279329
-0.279018
-0.278706
-0.278364
-0.277995
-0.277662
-0.277229
-0.27682
-0.276325
-0.275856
-0.275373
-0.274856
-0.274307
-0.273722
-0.273136
-0.272493
-0.271893
-0.271202
-0.270539
-0.269815
-0.269099
-0.28108
-0.281033
-0.280951
-0.280903
-0.280813
-0.280676
-0.280513
-0.280381
-0.280222
-0.280019
-0.279779
-0.279502
-0.279263
-0.278998
-0.27866
-0.278323
-0.277975
-0.277569
-0.277164
-0.276731
-0.276282
-0.275777
-0.27527
-0.274748
-0.274205
-0.27367
-0.273071
-0.272458
-0.271785
-0.271147
-0.270458
-0.269732
-0.26897
-0.280945
-0.280927
-0.280846
-0.280786
-0.280697
-0.280563
-0.280403
-0.280271
-0.280081
-0.279908
-0.279659
-0.279379
-0.279136
-0.278832
-0.278489
-0.278182
-0.277844
-0.277431
-0.276992
-0.276591
-0.276156
-0.275625
-0.275118
-0.274596
-0.274075
-0.273503
-0.272935
-0.272333
-0.271664
-0.271029
-0.270301
-0.269608
-0.268847
-0.280731
-0.280693
-0.280645
-0.280555
-0.280455
-0.280324
-0.280221
-0.280019
-0.279839
-0.279627
-0.279393
-0.279181
-0.278879
-0.278603
-0.278297
-0.277962
-0.277584
-0.277175
-0.276797
-0.276331
-0.275906
-0.275458
-0.274974
-0.274454
-0.273902
-0.273315
-0.272728
-0.272087
-0.271447
-0.270779
-0.270075
-0.269356
-0.268636
-0.280419
-0.280383
-0.280335
-0.280246
-0.280159
-0.280071
-0.279951
-0.279774
-0.279561
-0.279349
-0.279151
-0.278916
-0.278631
-0.27831
-0.277987
-0.277643
-0.277278
-0.27691
-0.276512
-0.276071
-0.275611
-0.275152
-0.274665
-0.274142
-0.273589
-0.273001
-0.272384
-0.271773
-0.271137
-0.270467
-0.269766
-0.269049
-0.268331
-0.280008
-0.280007
-0.279964
-0.279884
-0.279792
-0.279668
-0.279536
-0.279382
-0.279215
-0.279011
-0.278764
-0.278518
-0.278229
-0.277901
-0.277581
-0.277233
-0.276866
-0.276496
-0.276087
-0.275608
-0.27518
-0.27473
-0.274232
-0.273665
-0.273096
-0.272518
-0.271952
-0.271357
-0.270695
-0.270063
-0.269324
-0.268589
-0.267867
-0.279486
-0.279452
-0.279401
-0.279315
-0.279231
-0.279149
-0.278987
-0.278811
-0.278642
-0.278446
-0.278212
-0.277978
-0.277708
-0.277399
-0.277079
-0.276703
-0.276355
-0.275953
-0.275535
-0.275058
-0.274626
-0.274169
-0.273605
-0.273077
-0.272526
-0.271979
-0.271373
-0.270741
-0.270118
-0.269463
-0.268766
-0.268039
-0.267278
-0.278768
-0.278735
-0.278737
-0.278658
-0.278542
-0.278454
-0.278295
-0.278123
-0.277955
-0.277757
-0.277522
-0.277251
-0.276979
-0.276674
-0.276368
-0.27603
-0.275665
-0.275259
-0.274821
-0.274417
-0.273924
-0.273461
-0.2729
-0.272381
-0.271839
-0.271275
-0.270706
-0.270068
-0.269397
-0.26873
-0.268042
-0.267329
-0.266576
-0.27796
-0.277924
-0.277876
-0.277793
-0.277697
-0.277569
-0.277413
-0.277278
-0.277046
-0.276841
-0.276607
-0.276341
-0.276108
-0.275782
-0.275486
-0.275164
-0.274806
-0.274407
-0.273968
-0.273495
-0.273028
-0.27255
-0.272074
-0.271532
-0.270988
-0.270395
-0.269827
-0.269193
-0.268529
-0.267828
-0.267135
-0.266422
-0.265677
-0.276884
-0.276845
-0.276829
-0.276712
-0.27662
-0.276497
-0.276369
-0.276212
-0.275982
-0.275781
-0.275552
-0.275283
-0.275014
-0.274719
-0.274389
-0.27403
-0.273671
-0.273282
-0.272851
-0.272389
-0.271928
-0.271448
-0.270938
-0.270419
-0.269804
-0.269233
-0.26864
-0.268025
-0.267369
-0.266709
-0.265988
-0.265271
-0.26453
-0.275591
-0.275573
-0.275495
-0.275442
-0.275325
-0.275202
-0.275071
-0.274865
-0.274631
-0.274435
-0.274207
-0.273941
-0.273636
-0.27333
-0.273007
-0.272682
-0.272255
-0.271854
-0.271423
-0.270963
-0.270505
-0.270026
-0.269511
-0.268927
-0.268388
-0.267822
-0.267186
-0.266517
-0.265896
-0.265209
-0.264496
-0.26375
-0.26305
-0.273928
-0.273912
-0.273825
-0.273765
-0.273603
-0.27347
-0.273312
-0.273191
-0.272972
-0.272782
-0.272552
-0.27225
-0.271986
-0.271655
-0.271291
-0.270952
-0.27055
-0.270118
-0.269687
-0.269229
-0.268769
-0.268242
-0.267689
-0.267179
-0.266579
-0.266018
-0.26542
-0.264751
-0.264087
-0.263398
-0.262686
-0.261939
-0.261162
-0.271923
-0.271883
-0.271842
-0.271757
-0.271667
-0.271511
-0.271346
-0.271182
-0.270954
-0.270777
-0.270534
-0.270278
-0.269975
-0.269632
-0.269275
-0.268865
-0.268496
-0.26809
-0.267581
-0.26711
-0.266616
-0.266139
-0.265633
-0.265067
-0.264489
-0.263885
-0.263251
-0.262616
-0.261915
-0.261172
-0.26045
-0.259748
-0.258985
-0.270214
-0.270166
-0.270076
-0.270015
-0.269848
-0.269715
-0.269557
-0.269403
-0.269216
-0.268969
-0.268757
-0.26851
-0.268216
-0.267883
-0.267505
-0.26709
-0.266715
-0.266283
-0.265813
-0.265349
-0.264864
-0.264349
-0.263796
-0.263245
-0.262629
-0.262029
-0.261397
-0.260761
-0.260029
-0.259341
-0.258639
-0.257902
-0.257136
-0.285256
-0.285284
-0.28522
-0.285165
-0.285075
-0.284943
-0.284806
-0.284631
-0.284459
-0.284301
-0.2841
-0.283831
-0.283589
-0.283334
-0.283047
-0.282757
-0.282431
-0.282056
-0.281656
-0.281249
-0.280822
-0.280367
-0.279879
-0.279393
-0.278877
-0.278328
-0.277708
-0.277129
-0.276515
-0.275841
-0.275161
-0.274458
-0.273722
-0.285269
-0.285256
-0.285176
-0.285128
-0.28504
-0.284914
-0.284806
-0.284609
-0.284442
-0.284279
-0.284092
-0.283846
-0.283575
-0.283292
-0.282996
-0.282726
-0.282363
-0.282021
-0.281589
-0.281181
-0.280752
-0.280291
-0.279827
-0.279307
-0.278792
-0.278253
-0.277699
-0.277061
-0.276438
-0.275752
-0.275074
-0.274368
-0.273661
-0.285194
-0.285163
-0.285153
-0.285081
-0.284995
-0.284896
-0.28473
-0.284594
-0.284432
-0.284236
-0.284032
-0.283802
-0.283565
-0.283295
-0.282991
-0.282656
-0.282348
-0.281956
-0.281585
-0.281189
-0.280764
-0.280297
-0.279797
-0.279296
-0.278737
-0.278216
-0.277606
-0.277012
-0.276365
-0.275718
-0.275049
-0.274354
-0.273617
-0.285106
-0.28507
-0.28502
-0.284942
-0.28485
-0.284762
-0.284639
-0.284508
-0.284315
-0.284134
-0.283897
-0.283692
-0.283435
-0.283168
-0.282893
-0.28256
-0.282224
-0.281861
-0.281491
-0.281095
-0.280669
-0.280201
-0.279699
-0.279165
-0.27863
-0.278075
-0.277496
-0.276905
-0.27626
-0.27561
-0.274935
-0.274227
-0.27345
-0.284893
-0.284863
-0.284855
-0.284781
-0.284691
-0.284587
-0.284416
-0.284274
-0.284108
-0.283908
-0.283701
-0.283464
-0.283216
-0.282949
-0.282653
-0.282354
-0.282026
-0.28165
-0.281251
-0.280843
-0.280412
-0.279954
-0.279449
-0.278942
-0.278381
-0.277858
-0.277243
-0.276664
-0.276048
-0.275374
-0.274696
-0.273993
-0.273259
-0.284645
-0.284638
-0.284603
-0.284521
-0.284433
-0.284336
-0.284196
-0.284026
-0.283855
-0.283686
-0.283488
-0.283243
-0.28296
-0.282678
-0.282374
-0.282073
-0.281741
-0.281364
-0.28096
-0.280551
-0.280119
-0.279662
-0.279162
-0.278652
-0.27809
-0.277565
-0.276951
-0.276357
-0.275712
-0.275064
-0.274396
-0.273704
-0.27297
-0.284311
-0.284267
-0.284213
-0.284154
-0.284063
-0.283945
-0.283826
-0.283704
-0.283537
-0.283336
-0.283125
-0.282884
-0.282633
-0.282325
-0.28204
-0.281703
-0.281358
-0.280977
-0.280573
-0.280164
-0.279741
-0.279283
-0.278786
-0.278252
-0.277716
-0.277161
-0.276576
-0.275949
-0.275304
-0.274655
-0.27394
-0.273219
-0.272505
-0.28382
-0.283775
-0.283719
-0.283664
-0.283578
-0.283455
-0.283329
-0.283161
-0.282999
-0.282831
-0.282602
-0.282352
-0.282108
-0.281811
-0.281533
-0.281188
-0.280816
-0.28048
-0.280076
-0.279643
-0.279206
-0.278747
-0.278254
-0.277727
-0.277198
-0.276614
-0.276066
-0.27543
-0.274814
-0.274141
-0.273456
-0.272737
-0.271948
-0.283152
-0.283147
-0.283112
-0.283033
-0.282948
-0.28282
-0.28269
-0.282532
-0.282375
-0.282182
-0.281976
-0.281732
-0.281461
-0.281181
-0.280879
-0.280541
-0.280173
-0.279807
-0.27941
-0.278996
-0.278498
-0.278029
-0.27754
-0.277058
-0.276509
-0.275932
-0.275381
-0.274739
-0.274086
-0.273429
-0.272718
-0.272009
-0.271282
-0.282362
-0.282339
-0.282256
-0.282201
-0.28212
-0.282004
-0.281889
-0.28174
-0.281578
-0.281376
-0.281139
-0.280867
-0.280626
-0.280352
-0.279976
-0.279634
-0.279301
-0.278944
-0.278528
-0.27813
-0.277667
-0.277215
-0.276706
-0.276197
-0.275678
-0.275094
-0.274477
-0.273856
-0.273174
-0.27253
-0.271824
-0.271125
-0.270384
-0.281344
-0.281295
-0.281234
-0.281151
-0.281065
-0.28094
-0.280823
-0.280671
-0.28051
-0.280278
-0.28004
-0.279805
-0.279544
-0.279233
-0.278883
-0.27854
-0.278173
-0.277788
-0.277428
-0.276973
-0.276509
-0.276027
-0.275546
-0.275027
-0.274434
-0.273841
-0.273271
-0.272675
-0.272013
-0.271345
-0.270675
-0.269903
-0.26916
-0.279986
-0.27998
-0.279907
-0.27984
-0.279709
-0.279584
-0.279464
-0.27932
-0.279135
-0.278942
-0.278704
-0.278431
-0.278144
-0.277796
-0.277489
-0.277161
-0.276799
-0.276397
-0.275966
-0.275493
-0.275024
-0.274543
-0.274061
-0.273512
-0.272958
-0.272385
-0.271777
-0.271139
-0.270502
-0.269803
-0.269141
-0.268376
-0.267603
-0.278259
-0.278219
-0.278166
-0.278089
-0.278001
-0.277874
-0.277707
-0.277547
-0.277357
-0.27716
-0.276885
-0.276605
-0.276342
-0.276041
-0.275699
-0.275327
-0.274954
-0.274551
-0.274108
-0.273635
-0.273133
-0.272674
-0.272129
-0.27162
-0.271076
-0.270462
-0.269842
-0.2692
-0.268522
-0.26782
-0.267122
-0.266402
-0.265652
-0.276023
-0.276027
-0.275962
-0.275902
-0.275741
-0.275607
-0.275484
-0.275329
-0.275115
-0.274924
-0.274696
-0.274422
-0.274115
-0.273762
-0.273411
-0.273036
-0.272661
-0.27221
-0.271751
-0.271285
-0.270834
-0.27035
-0.269795
-0.269278
-0.268668
-0.268091
-0.267479
-0.26679
-0.266102
-0.265407
-0.264725
-0.263985
-0.263227
-0.274048
-0.274005
-0.273951
-0.273871
-0.273772
-0.273614
-0.273493
-0.273308
-0.273117
-0.272882
-0.272614
-0.272344
-0.272046
-0.271748
-0.271377
-0.271002
-0.270628
-0.27018
-0.269694
-0.269217
-0.268727
-0.268249
-0.267733
-0.267148
-0.266601
-0.265961
-0.265347
-0.264667
-0.263957
-0.263268
-0.262553
-0.2618
-0.261049
-0.289038
-0.289004
-0.288953
-0.288875
-0.288813
-0.288716
-0.288548
-0.28841
-0.288252
-0.28812
-0.287902
-0.287702
-0.287487
-0.287268
-0.287019
-0.286719
-0.286388
-0.286046
-0.285678
-0.285274
-0.284878
-0.284451
-0.283992
-0.283526
-0.282968
-0.282432
-0.281903
-0.281298
-0.28063
-0.279988
-0.279316
-0.278576
-0.27783
-0.289004
-0.288974
-0.28896
-0.288885
-0.288802
-0.288713
-0.288589
-0.28846
-0.288302
-0.288138
-0.287936
-0.28771
-0.287504
-0.287248
-0.286981
-0.286699
-0.286331
-0.285992
-0.285617
-0.285253
-0.284858
-0.28443
-0.283928
-0.28345
-0.282922
-0.282386
-0.281825
-0.281231
-0.280599
-0.27996
-0.279252
-0.278536
-0.277754
-0.288921
-0.28891
-0.288877
-0.288826
-0.288741
-0.288618
-0.288524
-0.288402
-0.288236
-0.28804
-0.287876
-0.287684
-0.287456
-0.287197
-0.286928
-0.286636
-0.286331
-0.285998
-0.28563
-0.285227
-0.284811
-0.284341
-0.2839
-0.283371
-0.282864
-0.282329
-0.281721
-0.281108
-0.280498
-0.279826
-0.279155
-0.278446
-0.277709
-0.288838
-0.28881
-0.288799
-0.288756
-0.288674
-0.288555
-0.288463
-0.288312
-0.288174
-0.287976
-0.287807
-0.287586
-0.287384
-0.287124
-0.286853
-0.286561
-0.286257
-0.285923
-0.285554
-0.285148
-0.284706
-0.28426
-0.283787
-0.283281
-0.282765
-0.282195
-0.281612
-0.281004
-0.280392
-0.279716
-0.279006
-0.278295
-0.27758
-0.288678
-0.288676
-0.288637
-0.288583
-0.288494
-0.28837
-0.288273
-0.288149
-0.287988
-0.287819
-0.287622
-0.287411
-0.287174
-0.286909
-0.28667
-0.28634
-0.286037
-0.285703
-0.285334
-0.284931
-0.284521
-0.284082
-0.283606
-0.283096
-0.282556
-0.28202
-0.281447
-0.280831
-0.28018
-0.279508
-0.278868
-0.278129
-0.277378
-0.288449
-0.288447
-0.288408
-0.288327
-0.288277
-0.288183
-0.288058
-0.287915
-0.287753
-0.287583
-0.287379
-0.287176
-0.286946
-0.286706
-0.286446
-0.28614
-0.285797
-0.285447
-0.28507
-0.284663
-0.284253
-0.283817
-0.283347
-0.282802
-0.28229
-0.281751
-0.281138
-0.280518
-0.279902
-0.279228
-0.278555
-0.277852
-0.277108
-0.288157
-0.288123
-0.288098
-0.28802
-0.28796
-0.287846
-0.287751
-0.287619
-0.28745
-0.28725
-0.287079
-0.286878
-0.286641
-0.286367
-0.28609
-0.285773
-0.285433
-0.285085
-0.284711
-0.284307
-0.2839
-0.283468
-0.283
-0.282454
-0.281937
-0.28136
-0.280781
-0.280179
-0.279544
-0.278901
-0.278187
-0.277464
-0.276676
-0.287673
-0.287669
-0.287627
-0.287581
-0.287499
-0.287381
-0.28729
-0.287162
-0.287001
-0.286802
-0.286618
-0.286382
-0.286142
-0.285906
-0.28561
-0.2853
-0.284991
-0.284615
-0.284202
-0.283813
-0.28338
-0.282949
-0.282482
-0.281949
-0.281433
-0.280867
-0.280298
-0.279704
-0.279074
-0.278407
-0.277722
-0.276973
-0.276216
-0.287098
-0.287094
-0.287052
-0.286973
-0.286921
-0.286804
-0.28669
-0.286575
-0.28642
-0.286252
-0.286043
-0.285801
-0.285557
-0.285287
-0.284988
-0.284683
-0.284346
-0.284
-0.283589
-0.283174
-0.282733
-0.282264
-0.28177
-0.281306
-0.28078
-0.280215
-0.279618
-0.279016
-0.278371
-0.277656
-0.276967
-0.276227
-0.275517
-0.286389
-0.286338
-0.286257
-0.286201
-0.286113
-0.286004
-0.285926
-0.285815
-0.285662
-0.285461
-0.285227
-0.28501
-0.28473
-0.284421
-0.284144
-0.283842
-0.283481
-0.283113
-0.282738
-0.282336
-0.281861
-0.281389
-0.280927
-0.280409
-0.279877
-0.279309
-0.278703
-0.278075
-0.27744
-0.276783
-0.276084
-0.275378
-0.274603
-0.285369
-0.285323
-0.285268
-0.285175
-0.285077
-0.284956
-0.284867
-0.284684
-0.284523
-0.28433
-0.284161
-0.283906
-0.283648
-0.283334
-0.283018
-0.282685
-0.282351
-0.281983
-0.28155
-0.281148
-0.280713
-0.280242
-0.2797
-0.279163
-0.278666
-0.27808
-0.277487
-0.276861
-0.276206
-0.275543
-0.274845
-0.274066
-0.273315
-0.283972
-0.283938
-0.283885
-0.2838
-0.283697
-0.283576
-0.283454
-0.283295
-0.283131
-0.28293
-0.282694
-0.282417
-0.28216
-0.281811
-0.281493
-0.281155
-0.280811
-0.280405
-0.279999
-0.279565
-0.279132
-0.278663
-0.278087
-0.277576
-0.277013
-0.276426
-0.275844
-0.275225
-0.274568
-0.273889
-0.273206
-0.272447
-0.27168
-0.282002
-0.282035
-0.281968
-0.281921
-0.281833
-0.281699
-0.281531
-0.281324
-0.281155
-0.28096
-0.280724
-0.28045
-0.280208
-0.27987
-0.279555
-0.279209
-0.278835
-0.278419
-0.277973
-0.277525
-0.277051
-0.276551
-0.276052
-0.275528
-0.274979
-0.274394
-0.27377
-0.273108
-0.272417
-0.271758
-0.271037
-0.270243
-0.269498
-0.279442
-0.279408
-0.279398
-0.279284
-0.27919
-0.279067
-0.278914
-0.27878
-0.278554
-0.27836
-0.278123
-0.27785
-0.277568
-0.277257
-0.276911
-0.276535
-0.276162
-0.275744
-0.275295
-0.274811
-0.274336
-0.273834
-0.273307
-0.272787
-0.272208
-0.271634
-0.271025
-0.270374
-0.269693
-0.269006
-0.268259
-0.267546
-0.266743
-0.27713
-0.277119
-0.277036
-0.276946
-0.276819
-0.276698
-0.27658
-0.276432
-0.276202
-0.276006
-0.275779
-0.275513
-0.275208
-0.274868
-0.274551
-0.274152
-0.273768
-0.273352
-0.272874
-0.272431
-0.27193
-0.271391
-0.270858
-0.270296
-0.269715
-0.269144
-0.268515
-0.267888
-0.267225
-0.266521
-0.26582
-0.26505
-0.264249
-0.292339
-0.292304
-0.292295
-0.292246
-0.292158
-0.292033
-0.291936
-0.291826
-0.291707
-0.291558
-0.291399
-0.291223
-0.291036
-0.290826
-0.290596
-0.290329
-0.290031
-0.289724
-0.289386
-0.289014
-0.288625
-0.288177
-0.287717
-0.287228
-0.286702
-0.286164
-0.285558
-0.284941
-0.284325
-0.283646
-0.282958
-0.282224
-0.28142
-0.29232
-0.292309
-0.292274
-0.292223
-0.292145
-0.29205
-0.291939
-0.291848
-0.291738
-0.291579
-0.291401
-0.291239
-0.291055
-0.290828
-0.290561
-0.290288
-0.289992
-0.28971
-0.289347
-0.288966
-0.28858
-0.288158
-0.287672
-0.287173
-0.28667
-0.286104
-0.285528
-0.284921
-0.284281
-0.283627
-0.282908
-0.282178
-0.281399
-0.292295
-0.292282
-0.292205
-0.292156
-0.292102
-0.29203
-0.291912
-0.291817
-0.291666
-0.291543
-0.291387
-0.291192
-0.290971
-0.290774
-0.290552
-0.290292
-0.289988
-0.289649
-0.289299
-0.28894
-0.288503
-0.288079
-0.287627
-0.287166
-0.286634
-0.286094
-0.285487
-0.284871
-0.284252
-0.28357
-0.282872
-0.282108
-0.281333
-0.292204
-0.292192
-0.292154
-0.292102
-0.292024
-0.291951
-0.291871
-0.291749
-0.291623
-0.291462
-0.291309
-0.291139
-0.290916
-0.290716
-0.290492
-0.290228
-0.289919
-0.289579
-0.289229
-0.288841
-0.288432
-0.288007
-0.287554
-0.287091
-0.28656
-0.285982
-0.285399
-0.284778
-0.284118
-0.283425
-0.282697
-0.281989
-0.28123
-0.292072
-0.292067
-0.292024
-0.291969
-0.291892
-0.29184
-0.291724
-0.291631
-0.291473
-0.291338
-0.291178
-0.290991
-0.290795
-0.290568
-0.29033
-0.290054
-0.289748
-0.289409
-0.289086
-0.288709
-0.288311
-0.28783
-0.287394
-0.286899
-0.286367
-0.285823
-0.285209
-0.284584
-0.283958
-0.283271
-0.28257
-0.281802
-0.281024
-0.29184
-0.291832
-0.291793
-0.291741
-0.291692
-0.291608
-0.291518
-0.291398
-0.291265
-0.291107
-0.290946
-0.290782
-0.290586
-0.290357
-0.290116
-0.289843
-0.289526
-0.289177
-0.28882
-0.288456
-0.288013
-0.287586
-0.28713
-0.286664
-0.286125
-0.285579
-0.284965
-0.284339
-0.283674
-0.283009
-0.282277
-0.281538
-0.280772
-0.291594
-0.291562
-0.291547
-0.291498
-0.291408
-0.291286
-0.291189
-0.291066
-0.290963
-0.290805
-0.290645
-0.290485
-0.29026
-0.29002
-0.289775
-0.289503
-0.289191
-0.288852
-0.288526
-0.288118
-0.287694
-0.287265
-0.286805
-0.2863
-0.285753
-0.285171
-0.284615
-0.283975
-0.283315
-0.28265
-0.281918
-0.281173
-0.280356
-0.291147
-0.291166
-0.291101
-0.291051
-0.291004
-0.290921
-0.290833
-0.290708
-0.290554
-0.290424
-0.290263
-0.290064
-0.289837
-0.289625
-0.289357
-0.289079
-0.28877
-0.288424
-0.288036
-0.287649
-0.287249
-0.286795
-0.286301
-0.285828
-0.285254
-0.284664
-0.284088
-0.283478
-0.282833
-0.282137
-0.281435
-0.280665
-0.279886
-0.290697
-0.290657
-0.290607
-0.290561
-0.290511
-0.290408
-0.290322
-0.290197
-0.290039
-0.289897
-0.289697
-0.289494
-0.289259
-0.289024
-0.288755
-0.288474
-0.288127
-0.287771
-0.287393
-0.287034
-0.286591
-0.286128
-0.285662
-0.285136
-0.2846
-0.284033
-0.283428
-0.282814
-0.282129
-0.281427
-0.280727
-0.279965
-0.279183
-0.289954
-0.289948
-0.289905
-0.289861
-0.289783
-0.289696
-0.289578
-0.289458
-0.289293
-0.289123
-0.28892
-0.288713
-0.288472
-0.288195
-0.287909
-0.287593
-0.287245
-0.286908
-0.286532
-0.286148
-0.285694
-0.285224
-0.284702
-0.284212
-0.283681
-0.283084
-0.282482
-0.281874
-0.281198
-0.280512
-0.279756
-0.279031
-0.278241
-0.288963
-0.288927
-0.288875
-0.288792
-0.288704
-0.288642
-0.288492
-0.288358
-0.288186
-0.287981
-0.2878
-0.287562
-0.287313
-0.287028
-0.286715
-0.286398
-0.286057
-0.285701
-0.285282
-0.28486
-0.284406
-0.283916
-0.283423
-0.282904
-0.282353
-0.28179
-0.281156
-0.280525
-0.279861
-0.279159
-0.278445
-0.277664
-0.276913
-0.28743
-0.287396
-0.287354
-0.287303
-0.287216
-0.287089
-0.286952
-0.286783
-0.286613
-0.286432
-0.286189
-0.285936
-0.285655
-0.285364
-0.28504
-0.284696
-0.284374
-0.283963
-0.283561
-0.283108
-0.282652
-0.282166
-0.281644
-0.281099
-0.280586
-0.279987
-0.279399
-0.278749
-0.278094
-0.277416
-0.276694
-0.275933
-0.275129
-0.285173
-0.285138
-0.285116
-0.285001
-0.284906
-0.284783
-0.284677
-0.284483
-0.284303
-0.284098
-0.283856
-0.283606
-0.283329
-0.283044
-0.282688
-0.28233
-0.281986
-0.281575
-0.281153
-0.280707
-0.28026
-0.279742
-0.279224
-0.278678
-0.278115
-0.27755
-0.276949
-0.276276
-0.27563
-0.27492
-0.274207
-0.273441
-0.272701
-0.282083
-0.282051
-0.282038
-0.28196
-0.281841
-0.281727
-0.281633
-0.281446
-0.281274
-0.281071
-0.280831
-0.280549
-0.280241
-0.279953
-0.279602
-0.27925
-0.278866
-0.278449
-0.278
-0.277559
-0.277089
-0.276619
-0.276085
-0.275515
-0.274943
-0.274356
-0.273767
-0.273147
-0.272461
-0.271765
-0.271041
-0.270292
-0.269538
-0.279409
-0.27938
-0.279368
-0.27926
-0.279179
-0.279057
-0.278909
-0.278776
-0.278558
-0.27836
-0.278129
-0.277854
-0.277552
-0.277271
-0.276901
-0.276555
-0.276174
-0.275726
-0.275313
-0.274846
-0.274343
-0.273836
-0.273301
-0.272739
-0.272186
-0.27161
-0.27101
-0.27037
-0.269698
-0.268988
-0.268281
-0.267542
-0.266771
-0.295287
-0.295273
-0.295234
-0.295176
-0.295099
-0.295049
-0.294967
-0.294861
-0.294788
-0.29468
-0.294551
-0.29444
-0.294267
-0.294109
-0.293881
-0.293641
-0.293355
-0.293036
-0.292701
-0.292353
-0.291943
-0.291518
-0.291052
-0.290541
-0.290002
-0.28946
-0.288825
-0.288173
-0.28749
-0.286794
-0.286029
-0.285253
-0.284467
-0.295258
-0.295251
-0.295209
-0.295165
-0.295112
-0.295034
-0.294946
-0.294836
-0.294755
-0.294657
-0.294547
-0.294415
-0.29426
-0.294069
-0.293838
-0.293598
-0.293346
-0.293026
-0.292693
-0.292308
-0.291894
-0.291467
-0.291029
-0.290523
-0.289969
-0.289407
-0.2888
-0.288126
-0.287461
-0.286734
-0.285998
-0.285225
-0.284413
-0.29525
-0.295244
-0.295192
-0.295145
-0.29509
-0.295006
-0.294918
-0.29481
-0.294733
-0.294626
-0.294495
-0.294366
-0.294187
-0.293994
-0.29382
-0.293562
-0.293306
-0.29299
-0.292649
-0.292278
-0.291885
-0.291454
-0.290947
-0.290432
-0.289901
-0.28931
-0.288734
-0.288095
-0.287417
-0.286722
-0.285953
-0.285173
-0.284377
-0.295189
-0.295178
-0.295136
-0.295083
-0.295034
-0.294983
-0.294902
-0.29479
-0.294702
-0.294594
-0.294452
-0.294323
-0.29414
-0.293942
-0.293763
-0.293495
-0.29321
-0.292907
-0.292578
-0.292209
-0.291821
-0.291356
-0.290874
-0.290361
-0.289829
-0.289238
-0.288632
-0.288019
-0.287338
-0.286646
-0.285868
-0.285079
-0.284223
-0.295101
-0.295091
-0.295047
-0.294996
-0.29495
-0.294899
-0.294808
-0.294691
-0.294601
-0.294481
-0.294367
-0.29421
-0.294055
-0.293858
-0.293649
-0.293373
-0.293105
-0.292779
-0.292437
-0.292087
-0.291663
-0.291228
-0.29072
-0.290231
-0.289683
-0.289107
-0.288497
-0.287843
-0.287157
-0.286458
-0.285686
-0.284899
-0.284101
-0.294901
-0.294867
-0.294846
-0.294796
-0.294714
-0.294659
-0.294582
-0.294531
-0.294451
-0.294333
-0.294183
-0.294049
-0.293866
-0.293685
-0.293475
-0.293195
-0.292925
-0.292595
-0.292245
-0.291866
-0.29147
-0.290998
-0.29051
-0.28999
-0.28945
-0.288849
-0.288236
-0.287622
-0.286936
-0.286235
-0.285459
-0.284663
-0.283802
-0.294586
-0.294546
-0.294535
-0.294489