/*--------------------------------*- C++ -*----------------------------------*\
| =========                 |                                                 |
| \\      /  F ield         | OpenFOAM: The Open Source CFD Toolbox           |
|  \\    /   O peration     | Version:  2412                                  |
|   \\  /    A nd           | Website:  www.openfoam.com                      |
|    \\/     M anipulation  |                                                 |
\*---------------------------------------------------------------------------*/
FoamFile
{
    version     2.0;
    format      ascii;
    arch        "LSB;label=32;scalar=64";
    class       volScalarField;
    location    "0.0400007";
    object      Vm_0;
}
// * * * * * * * * * * * * * * * * * * * * * * * * * * * * * * * * * * * * * //

dimensions      [1 2 -3 0 0 -1 0];

internalField   nonuniform List<scalar> 
8679
(
0.0180292
0.0180262
0.0180184
0.0180065
0.0179919
0.017974
0.0179528
0.0179284
0.0178999
0.0178675
0.0178304
0.0177905
0.0177475
0.0177016
0.0176519
0.0175983
0.0175423
0.0174833
0.0174204
0.0173533
0.017283
0.0172087
0.0171306
0.0170497
0.0169666
0.0168801
0.0167913
0.0166994
0.0166033
0.0165036
0.016401
0.0162954
0.0161864
0.0180234
0.0180193
0.0180115
0.0180006
0.0179857
0.017967
0.0179454
0.0179202
0.0178909
0.0178588
0.0178231
0.0177835
0.0177407
0.017694
0.0176436
0.0175903
0.0175331
0.0174732
0.0174101
0.0173433
0.0172729
0.0171991
0.0171221
0.0170427
0.0169595
0.0168733
0.0167833
0.0166907
0.0165946
0.0164946
0.0163917
0.0162859
0.016177
0.0180056
0.0180019
0.017995
0.0179837
0.017969
0.0179506
0.0179282
0.0179018
0.0178724
0.0178387
0.0178024
0.0177632
0.0177205
0.0176744
0.0176256
0.0175728
0.0175171
0.0174577
0.0173939
0.0173266
0.017257
0.0171841
0.017107
0.0170267
0.0169438
0.0168571
0.0167675
0.0166744
0.0165771
0.0164775
0.0163752
0.0162696
0.0161605
0.0187552
0.0187519
0.0187453
0.018735
0.0187214
0.0187043
0.0186837
0.01866
0.018633
0.0186029
0.0185692
0.0185319
0.0184908
0.0184464
0.0183992
0.0183481
0.0182942
0.0182373
0.0181769
0.0181131
0.0180462
0.0179767
0.0179033
0.0178271
0.0177473
0.0176652
0.0175805
0.0174926
0.0174012
0.0173061
0.0172074
0.0171053
0.0169999
0.0187482
0.0187447
0.0187381
0.0187273
0.0187136
0.0186964
0.0186758
0.0186522
0.0186245
0.0185941
0.0185604
0.0185233
0.0184828
0.0184391
0.0183919
0.0183411
0.0182861
0.0182284
0.0181678
0.0181044
0.0180386
0.0179689
0.017896
0.01782
0.0177409
0.0176577
0.017572
0.0174835
0.0173916
0.0172963
0.0171976
0.0170959
0.0169906
0.0187361
0.0187321
0.0187248
0.0187148
0.0187014
0.018684
0.0186627
0.0186377
0.0186097
0.0185777
0.0185432
0.0185061
0.0184667
0.0184231
0.018376
0.0183254
0.0182719
0.0182152
0.018155
0.0180914
0.0180249
0.0179558
0.0178827
0.0178067
0.0177268
0.0176443
0.0175587
0.0174693
0.017376
0.0172803
0.0171822
0.0170806
0.0169753
0.0187145
0.0187104
0.0187029
0.0186928
0.0186793
0.018662
0.0186406
0.0186155
0.0185873
0.0185551
0.0185204
0.0184831
0.0184431
0.0183997
0.0183525
0.0183018
0.0182482
0.0181913
0.018131
0.0180674
0.0180008
0.0179316
0.0178585
0.0177824
0.0177024
0.0176197
0.0175335
0.0174432
0.0173501
0.0172543
0.0171558
0.0170545
0.0169494
0.0186794
0.0186758
0.018669
0.018658
0.0186441
0.0186267
0.0186059
0.0185818
0.0185537
0.0185226
0.0184884
0.0184508
0.0184099
0.0183659
0.0183182
0.0182668
0.0182117
0.0181538
0.0180931
0.0180296
0.0179638
0.0178939
0.0178206
0.0177449
0.0176659
0.0175826
0.0174966
0.0174078
0.0173156
0.0172201
0.017121
0.0170185
0.0169128
0.0194124
0.0194101
0.019404
0.0193948
0.019382
0.0193652
0.0193447
0.0193211
0.0192954
0.019267
0.0192355
0.0192009
0.0191634
0.0191228
0.0190791
0.0190316
0.0189809
0.0189268
0.0188697
0.0188092
0.0187461
0.0186794
0.0186097
0.0185364
0.0184599
0.0183807
0.0182986
0.0182136
0.0181251
0.0180333
0.017939
0.0178408
0.0177394
0.0194083
0.0194047
0.0193978
0.0193882
0.0193754
0.019359
0.0193393
0.0193166
0.0192901
0.0192611
0.0192293
0.0191944
0.0191569
0.0191157
0.0190717
0.0190245
0.0189738
0.0189195
0.0188619
0.0188012
0.0187381
0.0186714
0.0186023
0.0185301
0.0184541
0.0183742
0.0182914
0.018206
0.0181179
0.018026
0.0179309
0.017832
0.0177302
0.0193956
0.0193923
0.0193862
0.0193762
0.0193627
0.0193464
0.0193275
0.0193051
0.0192796
0.0192506
0.0192187
0.0191831
0.0191444
0.0191029
0.0190576
0.0190097
0.018959
0.0189053
0.0188488
0.0187888
0.0187251
0.0186589
0.0185895
0.018516
0.0184399
0.0183609
0.0182786
0.018193
0.0181043
0.0180121
0.0179169
0.0178182
0.0177156
0.0193769
0.0193733
0.0193667
0.0193561
0.0193429
0.0193267
0.0193077
0.0192854
0.0192599
0.0192307
0.0191983
0.0191628
0.0191239
0.0190822
0.0190367
0.0189888
0.0189379
0.0188842
0.0188275
0.0187674
0.0187035
0.0186368
0.0185664
0.0184936
0.0184178
0.018339
0.0182567
0.0181709
0.018082
0.0179895
0.0178938
0.0177955
0.0176933
0.0193477
0.0193442
0.019337
0.0193271
0.0193139
0.0192973
0.0192772
0.019254
0.0192275
0.019198
0.0191657
0.0191304
0.0190925
0.0190508
0.0190064
0.0189587
0.0189073
0.018853
0.0187953
0.0187345
0.0186714
0.0186046
0.0185351
0.0184621
0.0183849
0.018305
0.0182224
0.018137
0.0180483
0.0179567
0.0178615
0.0177625
0.0176605
0.0193039
0.0193
0.0192928
0.0192829
0.01927
0.0192535
0.0192334
0.0192102
0.0191837
0.0191543
0.0191222
0.0190872
0.0190488
0.0190065
0.0189619
0.0189142
0.0188632
0.0188085
0.0187504
0.0186893
0.0186259
0.0185589
0.0184891
0.0184159
0.0183385
0.0182584
0.0181756
0.01809
0.0180008
0.0179083
0.0178128
0.0177137
0.0176107
0.0192444
0.019241
0.0192344
0.0192245
0.0192114
0.0191949
0.0191752
0.0191527
0.0191265
0.0190966
0.0190639
0.0190285
0.0189897
0.0189472
0.0189023
0.0188545
0.0188033
0.0187484
0.01869
0.0186285
0.0185647
0.0184972
0.0184267
0.0183523
0.0182756
0.018196
0.0181134
0.0180275
0.0179383
0.017846
0.0177499
0.0176505
0.0175475
0.0191645
0.0191619
0.0191561
0.0191468
0.0191343
0.0191181
0.0190983
0.0190754
0.0190495
0.01902
0.0189872
0.0189514
0.0189125
0.0188704
0.018825
0.0187768
0.0187253
0.01867
0.018611
0.0185487
0.0184835
0.018416
0.0183449
0.0182715
0.0181952
0.0181155
0.0180321
0.0179459
0.0178569
0.0177651
0.0176692
0.0175696
0.017466
0.0190646
0.0190616
0.0190557
0.0190458
0.0190331
0.0190174
0.0189986
0.0189762
0.0189498
0.0189198
0.0188868
0.0188508
0.018812
0.0187698
0.018724
0.0186757
0.0186243
0.0185694
0.0185108
0.0184486
0.0183833
0.0183156
0.0182443
0.0181705
0.0180933
0.0180131
0.01793
0.0178439
0.0177544
0.0176615
0.0175651
0.0174645
0.0173603
0.0189445
0.0189416
0.018935
0.0189247
0.0189107
0.0188937
0.0188736
0.018851
0.0188243
0.018795
0.0187625
0.0187264
0.0186869
0.0186443
0.0185993
0.0185508
0.0184988
0.0184435
0.0183848
0.0183227
0.0182576
0.0181899
0.0181183
0.0180436
0.017966
0.0178856
0.0178017
0.0177148
0.0176246
0.0175309
0.0174336
0.0173327
0.0172286
0.0187968
0.0187929
0.0187855
0.0187755
0.0187622
0.0187452
0.0187245
0.0187004
0.0186731
0.0186431
0.0186103
0.0185741
0.0185344
0.0184917
0.0184465
0.0183975
0.0183456
0.01829
0.0182304
0.018168
0.0181029
0.0180343
0.017962
0.0178869
0.0178089
0.0177273
0.0176434
0.0175565
0.0174661
0.0173718
0.0172733
0.017172
0.0170668
0.0186135
0.0186098
0.018603
0.0185927
0.0185792
0.0185621
0.0185412
0.0185168
0.0184895
0.0184592
0.0184261
0.0183897
0.0183499
0.0183069
0.0182611
0.0182118
0.0181587
0.0181022
0.0180425
0.0179796
0.0179134
0.0178438
0.0177712
0.0176958
0.0176164
0.0175339
0.0174483
0.0173599
0.0172678
0.0171726
0.0170741
0.016972
0.0168661
0.0184
0.018397
0.0183904
0.0183799
0.0183658
0.0183485
0.0183275
0.018303
0.0182755
0.0182451
0.0182115
0.0181741
0.018134
0.0180909
0.0180442
0.0179939
0.0179402
0.0178829
0.0178226
0.0177586
0.0176915
0.0176212
0.0175478
0.0174708
0.0173904
0.0173074
0.0172207
0.0171309
0.0170376
0.0169416
0.0168425
0.0167399
0.0166333
0.0181777
0.0181742
0.0181673
0.0181568
0.0181425
0.0181249
0.0181037
0.0180791
0.0180514
0.0180204
0.0179861
0.0179483
0.0179075
0.0178631
0.0178152
0.0177635
0.0177088
0.0176507
0.0175895
0.0175246
0.0174556
0.0173843
0.0173108
0.017234
0.0171531
0.0170686
0.0169812
0.0168899
0.0167956
0.0166978
0.0165972
0.0164936
0.0163865
0.0180124
0.0180083
0.0180006
0.0179891
0.017974
0.0179558
0.0179342
0.0179093
0.0178814
0.0178509
0.0178166
0.0177796
0.0177391
0.0176945
0.0176459
0.0175935
0.0175381
0.0174793
0.0174171
0.0173509
0.0172821
0.0172105
0.0171355
0.017057
0.0169749
0.0168898
0.0168017
0.01671
0.0166146
0.0165157
0.0164135
0.0163081
0.0161988
0.020007
0.0200039
0.0199979
0.0199878
0.019975
0.0199594
0.0199411
0.0199193
0.0198952
0.0198685
0.0198391
0.0198073
0.019772
0.019734
0.0196931
0.0196488
0.019601
0.01955
0.0194964
0.0194393
0.0193799
0.0193176
0.019252
0.0191828
0.0191101
0.0190338
0.0189543
0.0188713
0.0187852
0.0186957
0.0186029
0.0185069
0.0184069
0.0200023
0.0199991
0.0199933
0.0199839
0.0199712
0.019956
0.0199377
0.0199162
0.0198918
0.019865
0.0198358
0.0198035
0.0197679
0.0197291
0.0196875
0.0196429
0.0195953
0.0195451
0.019491
0.0194339
0.0193733
0.0193101
0.019244
0.0191747
0.0191018
0.0190256
0.0189461
0.0188632
0.0187776
0.0186882
0.0185957
0.0184995
0.0184
0.019994
0.0199904
0.0199836
0.0199744
0.019962
0.0199464
0.0199279
0.0199072
0.0198837
0.0198569
0.0198268
0.0197937
0.0197584
0.0197201
0.0196782
0.0196335
0.0195858
0.0195346
0.0194805
0.0194233
0.0193628
0.0192989
0.019232
0.0191623
0.0190896
0.0190141
0.0189348
0.0188521
0.0187657
0.0186766
0.0185837
0.0184872
0.018387
0.0199771
0.0199737
0.0199669
0.0199575
0.0199451
0.0199294
0.019911
0.0198902
0.0198662
0.0198395
0.0198092
0.0197758
0.0197401
0.0197012
0.019659
0.0196146
0.019567
0.0195156
0.0194611
0.0194042
0.0193439
0.0192796
0.0192125
0.0191427
0.0190701
0.0189942
0.0189153
0.0188328
0.0187465
0.0186571
0.0185637
0.0184673
0.0183672
0.0199493
0.0199459
0.0199393
0.0199296
0.0199169
0.0199013
0.0198831
0.0198613
0.0198368
0.0198095
0.0197794
0.0197468
0.0197107
0.019672
0.0196302
0.0195853
0.019537
0.0194855
0.0194314
0.0193739
0.0193141
0.0192513
0.019185
0.0191152
0.0190418
0.0189651
0.0188852
0.0188019
0.0187155
0.0186257
0.0185323
0.0184356
0.0183356
0.0199094
0.0199061
0.0198997
0.0198901
0.019878
0.0198632
0.0198452
0.0198236
0.0197987
0.0197714
0.0197416
0.0197087
0.0196722
0.0196324
0.0195899
0.0195445
0.0194963
0.0194452
0.019391
0.0193334
0.0192729
0.0192096
0.019143
0.0190728
0.0189991
0.0189219
0.0188415
0.0187583
0.0186719
0.0185819
0.0184884
0.0183915
0.0182913
0.0198558
0.019853
0.0198469
0.0198376
0.0198253
0.01981
0.0197919
0.0197709
0.0197469
0.0197196
0.019689
0.0196554
0.0196185
0.0195782
0.0195354
0.0194896
0.019441
0.0193894
0.0193345
0.0192761
0.0192155
0.0191519
0.0190845
0.0190132
0.0189389
0.018862
0.0187824
0.0186995
0.0186128
0.0185229
0.0184285
0.0183308
0.0182301
0.0197838
0.0197806
0.0197744
0.019765
0.019753
0.0197381
0.0197196
0.0196981
0.0196739
0.0196468
0.0196164
0.0195832
0.0195466
0.0195068
0.0194638
0.0194175
0.0193685
0.0193162
0.0192605
0.0192015
0.0191402
0.0190758
0.0190072
0.0189361
0.0188623
0.0187855
0.0187053
0.0186217
0.0185351
0.0184449
0.0183509
0.0182531
0.0181516
0.0196906
0.0196876
0.0196821
0.0196729
0.0196604
0.0196452
0.0196266
0.019605
0.0195807
0.0195532
0.0195224
0.0194885
0.0194517
0.0194118
0.0193692
0.0193234
0.0192742
0.0192216
0.0191656
0.019107
0.0190447
0.0189797
0.0189109
0.0188398
0.0187659
0.0186888
0.0186086
0.0185244
0.0184365
0.0183455
0.0182511
0.0181531
0.0180513
0.0195765
0.0195731
0.0195666
0.0195568
0.0195439
0.0195279
0.0195089
0.0194872
0.0194617
0.0194336
0.0194025
0.0193685
0.019332
0.0192919
0.0192492
0.0192035
0.0191544
0.0191016
0.0190451
0.0189854
0.018923
0.0188579
0.01879
0.0187185
0.0186439
0.0185659
0.018485
0.0184002
0.0183117
0.0182196
0.0181245
0.018026
0.0179237
0.019432
0.0194285
0.019422
0.0194117
0.0193986
0.0193825
0.0193635
0.0193412
0.0193152
0.0192867
0.0192553
0.0192208
0.0191833
0.0191428
0.019099
0.0190521
0.0190022
0.018949
0.0188923
0.0188323
0.0187695
0.0187037
0.0186347
0.0185624
0.0184861
0.0184072
0.0183255
0.0182405
0.0181519
0.0180598
0.0179638
0.0178645
0.0177614
0.0192539
0.0192504
0.0192433
0.0192333
0.0192197
0.0192032
0.0191835
0.01916
0.0191334
0.0191046
0.0190727
0.0190374
0.0189988
0.0189573
0.0189129
0.0188653
0.0188137
0.0187591
0.0187014
0.0186406
0.0185771
0.0185104
0.0184403
0.0183666
0.0182902
0.0182107
0.0181272
0.0180403
0.0179508
0.0178575
0.0177607
0.0176603
0.017557
0.0190375
0.0190339
0.0190265
0.0190159
0.0190012
0.0189839
0.0189638
0.0189413
0.0189151
0.0188862
0.0188538
0.0188176
0.0187787
0.018736
0.0186899
0.0186411
0.0185885
0.0185326
0.0184737
0.0184118
0.018347
0.0182786
0.018207
0.0181329
0.0180551
0.0179746
0.0178905
0.0178024
0.0177111
0.0176165
0.0175185
0.017417
0.0173119
0.0188017
0.018798
0.0187909
0.0187803
0.0187662
0.0187485
0.0187278
0.0187044
0.0186776
0.0186485
0.0186158
0.0185797
0.0185396
0.0184957
0.0184484
0.0183975
0.0183442
0.0182873
0.0182263
0.0181628
0.0180966
0.018028
0.0179563
0.0178808
0.0178019
0.0177195
0.0176337
0.0175444
0.0174511
0.0173544
0.0172552
0.0171533
0.0170477
0.0186235
0.0186192
0.0186111
0.0185998
0.0185845
0.0185665
0.0185458
0.0185224
0.0184959
0.0184659
0.0184333
0.0183973
0.0183573
0.0183133
0.0182652
0.0182136
0.0181594
0.0181017
0.0180406
0.0179767
0.0179098
0.0178398
0.0177664
0.0176897
0.0176094
0.0175261
0.0174395
0.0173494
0.0172553
0.0171585
0.0170588
0.0169557
0.0168487
0.0205405
0.0205382
0.0205324
0.0205238
0.020512
0.0204972
0.0204796
0.0204594
0.0204371
0.0204128
0.0203855
0.020355
0.0203223
0.0202871
0.0202491
0.0202082
0.0201639
0.020116
0.0200649
0.0200109
0.019954
0.0198939
0.0198307
0.0197644
0.0196948
0.0196214
0.0195441
0.019464
0.0193803
0.0192927
0.0192017
0.019107
0.0190087
0.0205375
0.0205347
0.0205286
0.02052
0.0205085
0.0204941
0.0204771
0.0204568
0.0204346
0.0204103
0.0203832
0.0203528
0.0203194
0.0202833
0.0202447
0.0202037
0.0201588
0.020111
0.0200594
0.0200052
0.019948
0.0198877
0.0198243
0.0197575
0.0196877
0.0196146
0.019538
0.0194573
0.0193732
0.0192853
0.0191941
0.0190995
0.0190014
0.0205287
0.0205259
0.0205206
0.0205122
0.0205009
0.0204867
0.0204695
0.02045
0.020428
0.0204032
0.0203758
0.0203456
0.0203128
0.020277
0.020238
0.0201961
0.0201516
0.0201035
0.0200527
0.0199988
0.0199416
0.0198807
0.0198165
0.0197491
0.0196784
0.019605
0.0195276
0.0194471
0.0193629
0.0192755
0.0191847
0.0190903
0.0189919
0.0205143
0.0205112
0.0205053
0.0204965
0.0204852
0.0204714
0.0204548
0.0204355
0.020413
0.020388
0.0203601
0.02033
0.020297
0.0202612
0.0202226
0.0201807
0.020136
0.0200881
0.0200374
0.0199835
0.0199261
0.019865
0.0198003
0.0197323
0.0196614
0.0195875
0.0195103
0.0194298
0.0193456
0.019258
0.0191668
0.0190718
0.0189726
0.0204895
0.0204867
0.0204815
0.0204729
0.0204614
0.020447
0.0204295
0.0204097
0.0203873
0.0203621
0.0203342
0.0203037
0.0202704
0.0202344
0.0201955
0.0201539
0.0201091
0.0200608
0.0200093
0.0199549
0.0198973
0.0198363
0.0197717
0.0197039
0.0196327
0.0195588
0.0194811
0.0194006
0.0193165
0.0192286
0.0191373
0.0190424
0.0189436
0.0204554
0.0204528
0.0204472
0.0204385
0.0204271
0.020413
0.0203959
0.0203758
0.0203534
0.0203285
0.0203008
0.0202697
0.0202355
0.0201986
0.0201591
0.0201169
0.0200717
0.020023
0.0199711
0.0199164
0.0198585
0.0197974
0.0197327
0.0196647
0.0195932
0.0195189
0.0194408
0.0193597
0.0192751
0.0191873
0.019096
0.0190011
0.018902
0.0204078
0.0204046
0.0203986
0.0203899
0.0203785
0.0203643
0.0203476
0.0203285
0.0203062
0.0202809
0.0202527
0.0202214
0.0201873
0.0201498
0.0201099
0.0200668
0.0200207
0.0199715
0.0199192
0.0198642
0.0198063
0.0197449
0.0196799
0.0196114
0.0195398
0.0194651
0.0193869
0.0193052
0.01922
0.0191314
0.0190388
0.0189426
0.018843
0.020342
0.0203387
0.0203327
0.0203241
0.0203127
0.0202982
0.0202811
0.0202612
0.0202388
0.0202137
0.0201851
0.0201536
0.0201195
0.0200821
0.020042
0.0199985
0.0199519
0.0199028
0.0198501
0.0197943
0.0197356
0.0196737
0.0196085
0.0195399
0.0194683
0.0193933
0.0193154
0.0192336
0.0191485
0.0190595
0.0189667
0.0188699
0.0187688
0.0202556
0.020253
0.0202473
0.0202385
0.0202268
0.0202122
0.0201949
0.0201749
0.0201524
0.0201268
0.0200982
0.0200663
0.0200315
0.0199938
0.0199531
0.0199092
0.0198622
0.0198124
0.0197594
0.0197031
0.019643
0.0195804
0.019515
0.0194468
0.0193749
0.0192996
0.0192211
0.0191385
0.0190523
0.0189627
0.0188694
0.0187726
0.0186721
0.0201459
0.0201426
0.0201359
0.0201269
0.0201152
0.0201007
0.0200836
0.0200635
0.0200405
0.0200141
0.0199843
0.0199515
0.0199163
0.0198779
0.0198356
0.019791
0.019744
0.0196941
0.0196407
0.0195844
0.0195246
0.019462
0.0193959
0.0193269
0.0192545
0.0191782
0.0190983
0.0190149
0.0189278
0.0188379
0.0187441
0.0186469
0.0185454
0.0200045
0.0200008
0.019994
0.0199843
0.0199719
0.0199567
0.0199391
0.0199184
0.0198947
0.0198674
0.0198371
0.0198041
0.019768
0.0197284
0.0196854
0.01964
0.0195917
0.0195407
0.0194869
0.0194292
0.0193683
0.0193045
0.0192377
0.0191674
0.0190931
0.0190159
0.018936
0.0188528
0.0187657
0.018675
0.0185807
0.0184818
0.0183793
0.0198229
0.0198197
0.0198128
0.0198029
0.0197895
0.0197737
0.0197554
0.0197342
0.0197097
0.0196822
0.0196512
0.0196167
0.0195791
0.0195381
0.0194949
0.0194489
0.0193996
0.0193469
0.0192907
0.0192312
0.0191691
0.0191042
0.0190363
0.0189649
0.0188902
0.0188123
0.018731
0.0186461
0.0185581
0.0184662
0.0183712
0.0182716
0.0181683
0.0195959
0.0195924
0.0195856
0.0195756
0.0195625
0.0195461
0.0195265
0.0195043
0.019479
0.0194507
0.0194185
0.0193833
0.0193454
0.0193042
0.0192596
0.0192118
0.0191609
0.0191067
0.019049
0.0189881
0.0189243
0.0188583
0.0187888
0.0187167
0.0186411
0.0185615
0.0184785
0.018392
0.0183019
0.0182085
0.0181121
0.0180122
0.0179086
0.0193387
0.0193356
0.0193287
0.0193184
0.019304
0.0192871
0.0192678
0.0192454
0.0192196
0.019191
0.0191591
0.0191233
0.0190839
0.0190408
0.0189947
0.0189454
0.0188931
0.0188369
0.0187777
0.0187159
0.0186518
0.0185846
0.0185138
0.0184402
0.0183626
0.0182821
0.0181979
0.0181095
0.0180179
0.0179235
0.0178262
0.0177251
0.0176201
0.0191388
0.019135
0.0191278
0.0191172
0.0191033
0.019086
0.0190664
0.0190434
0.0190171
0.0189875
0.0189544
0.0189183
0.0188788
0.0188361
0.0187895
0.0187397
0.0186867
0.0186297
0.0185693
0.0185063
0.0184408
0.0183728
0.0183015
0.0182264
0.0181483
0.0180663
0.0179811
0.0178919
0.0177993
0.017704
0.0176054
0.0175032
0.0173975
0.0210183
0.0210154
0.0210098
0.0210015
0.0209911
0.0209778
0.0209614
0.0209433
0.0209232
0.0209013
0.0208763
0.0208491
0.0208197
0.0207878
0.0207528
0.0207142
0.0206722
0.0206271
0.0205788
0.0205274
0.0204732
0.0204157
0.0203547
0.0202902
0.0202216
0.0201499
0.0200749
0.0199957
0.0199121
0.0198252
0.0197345
0.0196394
0.0195404
0.0210149
0.0210123
0.0210074
0.0209995
0.020989
0.0209763
0.0209609
0.0209433
0.0209232
0.0209008
0.0208756
0.020848
0.0208181
0.0207852
0.0207494
0.0207105
0.0206679
0.0206226
0.0205743
0.0205233
0.020469
0.0204111
0.0203492
0.0202843
0.0202158
0.020144
0.0200686
0.0199895
0.0199064
0.0198195
0.0197283
0.0196331
0.0195337
0.0210067
0.0210044
0.0209995
0.0209919
0.0209816
0.0209686
0.0209537
0.0209363
0.0209161
0.0208934
0.0208688
0.0208416
0.0208116
0.0207785
0.0207427
0.020704
0.0206623
0.0206173
0.0205689
0.020517
0.0204618
0.020403
0.0203412
0.0202755
0.0202068
0.0201345
0.020058
0.0199781
0.019895
0.0198078
0.0197171
0.0196224
0.0195237
0.0209942
0.0209918
0.0209872
0.0209799
0.0209698
0.0209569
0.0209421
0.0209244
0.0209043
0.0208815
0.0208566
0.020829
0.0207991
0.0207661
0.0207302
0.0206914
0.0206496
0.0206045
0.0205559
0.0205037
0.0204479
0.020389
0.0203267
0.0202609
0.0201916
0.0201186
0.020042
0.019962
0.0198785
0.0197909
0.0196994
0.0196045
0.0195059
0.0209737
0.0209714
0.0209665
0.0209589
0.0209484
0.0209353
0.0209203
0.0209027
0.0208825
0.0208597
0.0208344
0.0208065
0.0207758
0.0207424
0.0207065
0.020667
0.0206249
0.0205795
0.0205308
0.0204786
0.0204233
0.0203645
0.020302
0.0202359
0.0201663
0.0200935
0.0200169
0.0199365
0.0198524
0.0197648
0.019674
0.0195785
0.019479
0.0209432
0.0209409
0.0209358
0.020928
0.0209181
0.0209055
0.0208901
0.0208721
0.0208516
0.0208287
0.0208031
0.0207752
0.0207445
0.0207111
0.0206747
0.0206349
0.0205917
0.0205455
0.0204961
0.0204435
0.020388
0.0203291
0.0202664
0.0201997
0.0201299
0.0200567
0.0199794
0.0198986
0.0198147
0.0197269
0.0196356
0.0195403
0.0194407
0.0209009
0.0208981
0.020893
0.0208851
0.020875
0.0208621
0.020847
0.0208292
0.0208085
0.0207852
0.0207598
0.0207316
0.0207003
0.0206659
0.0206286
0.020588
0.0205444
0.0204979
0.0204482
0.0203954
0.0203397
0.0202807
0.0202177
0.0201506
0.0200804
0.0200066
0.0199294
0.0198488
0.0197645
0.0196765
0.019584
0.0194874
0.0193866
0.02084
0.0208376
0.0208325
0.020825
0.0208146
0.0208016
0.0207866
0.0207687
0.020748
0.0207243
0.0206982
0.020669
0.0206373
0.0206029
0.0205652
0.0205244
0.0204807
0.0204333
0.0203825
0.020329
0.0202725
0.0202129
0.0201497
0.0200827
0.0200125
0.0199387
0.0198617
0.0197811
0.0196965
0.0196079
0.0195153
0.0194182
0.019317
0.0207608
0.0207583
0.020753
0.0207449
0.0207346
0.0207215
0.0207061
0.0206882
0.0206675
0.0206438
0.0206168
0.0205868
0.0205541
0.0205185
0.02048
0.0204386
0.020394
0.0203464
0.0202951
0.0202407
0.020183
0.0201222
0.0200583
0.0199917
0.0199214
0.0198471
0.0197691
0.0196875
0.0196019
0.0195119
0.0194186
0.0193214
0.0192205
0.0206563
0.0206528
0.0206464
0.0206378
0.0206268
0.0206135
0.0205982
0.0205802
0.0205588
0.020534
0.0205059
0.0204751
0.0204409
0.0204037
0.0203644
0.0203222
0.0202766
0.0202282
0.0201768
0.020122
0.0200634
0.0200018
0.0199374
0.0198695
0.0197982
0.0197231
0.0196442
0.0195618
0.019476
0.0193866
0.0192931
0.0191958
0.0190937
0.0205147
0.0205111
0.0205045
0.020495
0.020483
0.0204685
0.020452
0.020432
0.0204095
0.0203841
0.0203562
0.0203245
0.0202896
0.0202513
0.0202102
0.0201666
0.0201202
0.0200706
0.0200175
0.0199618
0.0199027
0.01984
0.0197735
0.0197041
0.0196322
0.0195564
0.0194771
0.0193942
0.0193075
0.0192173
0.0191229
0.0190239
0.0189212
0.0203241
0.0203208
0.0203143
0.0203047
0.0202922
0.020277
0.0202592
0.0202386
0.0202151
0.0201885
0.0201584
0.020125
0.0200887
0.0200488
0.0200065
0.0199615
0.0199137
0.0198624
0.0198081
0.0197507
0.0196905
0.0196267
0.0195587
0.0194884
0.0194148
0.0193379
0.0192579
0.0191743
0.0190869
0.0189959
0.0189012
0.0188019
0.0186987
0.0200747
0.0200723
0.0200661
0.020057
0.0200445
0.0200284
0.0200091
0.0199868
0.0199622
0.0199348
0.0199041
0.0198701
0.0198334
0.019793
0.0197498
0.0197034
0.0196538
0.0196006
0.0195442
0.0194849
0.0194227
0.0193575
0.0192895
0.0192185
0.0191441
0.0190661
0.0189842
0.0188984
0.0188092
0.0187169
0.0186207
0.0185202
0.0184168
0.0197839
0.0197807
0.0197746
0.0197645
0.0197514
0.0197354
0.0197164
0.0196948
0.0196694
0.0196414
0.01961
0.0195752
0.0195372
0.0194959
0.0194512
0.0194032
0.0193522
0.0192976
0.0192397
0.0191787
0.0191152
0.0190487
0.0189792
0.0189069
0.0188312
0.0187524
0.0186699
0.0185836
0.0184936
0.0184002
0.0183029
0.0182024
0.0180975
0.0195565
0.0195532
0.0195459
0.0195354
0.0195217
0.0195055
0.0194869
0.019465
0.0194393
0.0194109
0.0193793
0.0193441
0.0193053
0.0192631
0.0192179
0.019169
0.0191171
0.0190617
0.0190027
0.0189412
0.0188762
0.0188081
0.0187372
0.0186633
0.0185866
0.018507
0.0184239
0.0183374
0.0182473
0.0181534
0.0180559
0.0179542
0.0178486
0.0214403
0.0214378
0.0214334
0.0214264
0.0214167
0.0214046
0.021391
0.0213757
0.0213586
0.0213393
0.0213177
0.0212938
0.0212675
0.0212384
0.0212061
0.0211704
0.0211313
0.0210891
0.0210434
0.020994
0.0209411
0.0208841
0.0208234
0.020759
0.0206906
0.0206184
0.0205418
0.0204616
0.0203777
0.0202895
0.0201972
0.0201002
0.0199983
0.021438
0.0214357
0.0214311
0.0214242
0.0214149
0.0214035
0.0213901
0.0213752
0.0213582
0.0213387
0.0213167
0.0212928
0.0212661
0.0212363
0.0212032
0.0211671
0.0211279
0.0210857
0.0210395
0.0209898
0.0209368
0.02088
0.0208189
0.0207542
0.0206859
0.0206135
0.0205373
0.0204572
0.0203731
0.020285
0.0201922
0.0200952
0.0199936
0.0214326
0.0214302
0.021425
0.0214181
0.0214093
0.0213983
0.021385
0.02137
0.0213525
0.0213332
0.0213115
0.0212869
0.0212597
0.0212303
0.021198
0.0211622
0.0211227
0.0210795
0.0210331
0.0209832
0.0209294
0.0208723
0.0208116
0.0207474
0.0206789
0.0206064
0.0205296
0.0204492
0.020365
0.0202764
0.0201835
0.0200861
0.0199845
0.0214219
0.0214197
0.0214151
0.0214083
0.0213994
0.0213886
0.0213758
0.0213605
0.021343
0.0213232
0.0213013
0.0212769
0.0212497
0.0212201
0.0211876
0.0211515
0.0211117
0.0210682
0.0210215
0.0209712
0.0209174
0.0208601
0.0207993
0.0207348
0.0206659
0.0205926
0.0205156
0.0204346
0.0203494
0.0202601
0.0201667
0.0200698
0.0199685
0.0214044
0.0214023
0.0213977
0.0213909
0.021382
0.0213713
0.0213581
0.0213429
0.0213251
0.0213053
0.0212832
0.0212585
0.0212312
0.021201
0.0211678
0.0211311
0.021091
0.0210475
0.021001
0.0209508
0.0208968
0.0208386
0.0207774
0.0207122
0.020643
0.0205698
0.0204923
0.020411
0.020326
0.0202368
0.0201433
0.0200453
0.0199432
0.0213763
0.0213741
0.0213696
0.0213629
0.0213543
0.0213434
0.0213303
0.0213149
0.0212972
0.0212771
0.0212549
0.0212304
0.021203
0.0211725
0.0211389
0.0211018
0.021061
0.0210167
0.0209693
0.0209186
0.0208639
0.0208059
0.0207445
0.0206793
0.0206098
0.0205363
0.0204584
0.0203766
0.0202909
0.0202014
0.0201074
0.0200094
0.0199072
0.0213385
0.0213361
0.0213317
0.0213249
0.0213154
0.0213035
0.0212899
0.0212743
0.0212568
0.0212367
0.0212143
0.0211894
0.0211611
0.0211299
0.0210958
0.0210583
0.0210174
0.0209731
0.0209257
0.0208742
0.0208192
0.0207609
0.0206988
0.0206325
0.0205621
0.0204879
0.0204103
0.0203283
0.0202423
0.0201524
0.0200579
0.0199591
0.0198556
0.0212833
0.0212815
0.0212767
0.0212699
0.0212612
0.02125
0.0212366
0.0212206
0.0212021
0.0211816
0.0211585
0.0211324
0.0211034
0.0210718
0.0210368
0.0209986
0.020957
0.0209118
0.0208629
0.020811
0.0207557
0.0206965
0.0206334
0.0205669
0.0204959
0.0204211
0.0203431
0.0202612
0.0201752
0.0200847
0.0199902
0.0198909
0.0197874
0.0212118
0.021209
0.021204
0.021197
0.021188
0.0211762
0.0211623
0.0211457
0.0211264
0.0211047
0.0210799
0.0210525
0.0210222
0.0209893
0.0209532
0.0209139
0.0208708
0.0208246
0.0207752
0.0207229
0.0206665
0.0206065
0.020543
0.0204757
0.0204048
0.0203299
0.0202512
0.0201685
0.0200813
0.0199901
0.019895
0.0197954
0.0196913
0.0211083
0.0211058
0.0211007
0.0210934
0.0210834
0.0210711
0.0210561
0.0210386
0.0210182
0.020995
0.0209689
0.0209401
0.0209082
0.0208732
0.0208353
0.0207943
0.0207502
0.0207034
0.0206533
0.0205999
0.0205424
0.0204812
0.0204164
0.0203487
0.0202773
0.0202017
0.0201224
0.0200395
0.0199522
0.0198609
0.0197652
0.0196658
0.0195616
0.0209616
0.0209585
0.0209526
0.020944
0.0209331
0.0209199
0.0209035
0.0208846
0.0208627
0.0208381
0.020811
0.0207806
0.0207473
0.0207107
0.0206711
0.0206287
0.0205834
0.0205349
0.0204828
0.0204275
0.0203687
0.0203064
0.020241
0.0201722
0.0200999
0.020024
0.019944
0.0198603
0.0197728
0.0196812
0.0195856
0.0194855
0.0193815
0.0207521
0.020749
0.0207432
0.0207346
0.0207229
0.0207082
0.0206907
0.0206704
0.0206475
0.0206217
0.0205926
0.0205605
0.0205253
0.0204871
0.0204459
0.0204019
0.0203553
0.0203048
0.0202514
0.0201944
0.0201345
0.0200712
0.0200044
0.0199346
0.019862
0.0197855
0.0197055
0.0196215
0.019534
0.0194426
0.019347
0.0192468
0.0191421
0.0204689
0.0204658
0.0204599
0.0204502
0.0204379
0.0204227
0.0204049
0.0203835
0.0203595
0.0203326
0.0203025
0.0202696
0.0202336
0.0201945
0.0201518
0.0201063
0.020058
0.0200062
0.0199513
0.0198933
0.0198324
0.0197678
0.0197001
0.0196292
0.0195552
0.0194782
0.0193974
0.0193125
0.0192243
0.019132
0.019036
0.018936
0.0188325
0.0201356
0.0201326
0.020127
0.0201178
0.0201052
0.02009
0.0200723
0.0200509
0.0200265
0.0199991
0.0199682
0.0199338
0.0198964
0.0198562
0.0198126
0.0197659
0.0197159
0.0196626
0.0196061
0.019547
0.0194849
0.0194199
0.0193511
0.019279
0.0192039
0.0191259
0.0190448
0.01896
0.0188711
0.0187784
0.0186821
0.0185821
0.0184781
0.0198787
0.0198757
0.0198699
0.0198602
0.0198478
0.0198323
0.0198137
0.0197924
0.0197673
0.0197395
0.0197084
0.0196738
0.019636
0.0195953
0.0195508
0.0195035
0.0194528
0.0193985
0.0193415
0.0192811
0.0192174
0.0191507
0.019081
0.0190083
0.018933
0.0188548
0.0187731
0.0186877
0.0185985
0.0185056
0.0184092
0.0183089
0.0182044
0.0218139
0.0218118
0.0218074
0.0218009
0.0217927
0.0217834
0.0217723
0.0217597
0.0217461
0.0217305
0.0217127
0.0216929
0.0216699
0.021644
0.0216142
0.0215806
0.021543
0.0215015
0.0214564
0.0214075
0.0213543
0.0212971
0.0212356
0.0211696
0.0210994
0.021025
0.0209456
0.0208618
0.0207739
0.0206819
0.0205851
0.0204841
0.0203786
0.0218115
0.0218095
0.0218052
0.0217991
0.0217912
0.0217815
0.0217702
0.0217574
0.0217436
0.021728
0.0217105
0.0216904
0.0216673
0.0216408
0.0216107
0.0215772
0.0215401
0.0214986
0.0214533
0.0214037
0.0213502
0.0212928
0.0212315
0.0211655
0.021095
0.0210204
0.0209412
0.0208573
0.0207695
0.0206771
0.0205805
0.0204794
0.0203736
0.021808
0.0218058
0.0218013
0.021795
0.021787
0.0217772
0.0217658
0.021753
0.0217391
0.0217233
0.0217052
0.0216847
0.0216611
0.0216345
0.0216051
0.0215715
0.0215342
0.0214927
0.0214473
0.0213978
0.0213442
0.0212863
0.0212237
0.0211572
0.0210866
0.0210118
0.0209331
0.0208499
0.0207622
0.02067
0.0205728
0.0204712
0.0203651
0.0218002
0.0217981
0.0217937
0.0217875
0.0217798
0.0217706
0.0217595
0.0217465
0.0217323
0.0217161
0.0216975
0.0216767
0.0216527
0.0216258
0.0215959
0.0215617
0.0215237
0.0214821
0.0214366
0.021387
0.0213333
0.0212748
0.0212122
0.0211455
0.0210747
0.0209995
0.0209204
0.0208371
0.0207491
0.0206566
0.0205589
0.0204568
0.0203498
0.0217863
0.0217843
0.0217801
0.021774
0.0217665
0.0217573
0.021746
0.0217329
0.0217184
0.0217019
0.0216834
0.0216621
0.0216382
0.021611
0.0215803
0.0215455
0.0215073
0.0214649
0.0214189
0.021369
0.0213146
0.0212559
0.0211928
0.0211261
0.0210549
0.0209795
0.0208998
0.0208156
0.020727
0.0206342
0.0205363
0.0204341
0.0203274
0.0217606
0.0217583
0.0217544
0.0217484
0.0217406
0.0217315
0.0217209
0.021709
0.0216951
0.0216786
0.0216596
0.0216382
0.0216137
0.0215863
0.0215552
0.02152
0.0214812
0.0214384
0.0213917
0.021341
0.0212863
0.0212269
0.0211634
0.0210959
0.0210241
0.020948
0.0208679
0.0207838
0.020695
0.0206018
0.0205035
0.0204005
0.0202928
0.0217229
0.0217207
0.021717
0.0217114
0.0217043
0.021695