/*--------------------------------*- C++ -*----------------------------------*\
| =========                 |                                                 |
| \\      /  F ield         | OpenFOAM: The Open Source CFD Toolbox           |
|  \\    /   O peration     | Version:  2312                                  |
|   \\  /    A nd           | Website:  www.openfoam.com                      |
|    \\/     M anipulation  |                                                 |
\*---------------------------------------------------------------------------*/
FoamFile
{
    version     2.0;
    format      ascii;
    arch        "LSB;label=32;scalar=64";
    class       volVectorField;
    location    "0.7";
    object      D;
}
// * * * * * * * * * * * * * * * * * * * * * * * * * * * * * * * * * * * * * //

dimensions      [0 1 0 0 0 0 0];

internalField   nonuniform List<vector> 
1620
(
(0.000118969 0.000272293 -1.04808e-05)
(6.98785e-05 0.000288815 -1.04809e-05)
(1.8665e-05 0.000296562 -1.04808e-05)
(-3.31158e-05 0.000295298 -1.04805e-05)
(-8.38907e-05 0.000285062 -1.04806e-05)
(-0.000132117 0.000266163 -1.04807e-05)
(-0.000176328 0.000239177 -1.04803e-05)
(-0.000215182 0.000204924 -1.04803e-05)
(-0.000247498 0.000164445 -1.04807e-05)
(-0.000272293 0.000118969 -1.04808e-05)
(-0.000288815 6.98785e-05 -1.04809e-05)
(-0.000296562 1.8665e-05 -1.04808e-05)
(-0.000295298 -3.31158e-05 -1.04806e-05)
(-0.000285062 -8.38908e-05 -1.04806e-05)
(-0.000266163 -0.000132117 -1.04807e-05)
(-0.000239177 -0.000176328 -1.04803e-05)
(-0.000204924 -0.000215182 -1.04803e-05)
(-0.000164445 -0.000247498 -1.04807e-05)
(-0.000118969 -0.000272293 -1.04808e-05)
(-6.98785e-05 -0.000288815 -1.04809e-05)
(-1.86649e-05 -0.000296562 -1.04808e-05)
(3.31158e-05 -0.000295298 -1.04805e-05)
(8.38908e-05 -0.000285062 -1.04806e-05)
(0.000132117 -0.000266163 -1.04807e-05)
(0.000176328 -0.000239177 -1.04803e-05)
(0.000215182 -0.000204924 -1.04803e-05)
(0.000247498 -0.000164445 -1.04807e-05)
(0.000272294 -0.000118969 -1.04808e-05)
(0.000288815 -6.98785e-05 -1.04809e-05)
(0.000296562 -1.8665e-05 -1.04808e-05)
(0.000295298 3.31158e-05 -1.04805e-05)
(0.000285062 8.38907e-05 -1.04806e-05)
(0.000266163 0.000132117 -1.04807e-05)
(0.000239177 0.000176328 -1.04803e-05)
(0.000204924 0.000215182 -1.04803e-05)
(0.000164445 0.000247498 -1.04807e-05)
(5.59039e-05 0.000329834 3.95505e-05)
(-2.22052e-06 0.000334531 3.95506e-05)
(-6.02771e-05 0.000329063 3.95506e-05)
(-0.000116502 0.000313596 3.95507e-05)
(-0.000169188 0.000288602 3.95507e-05)
(-0.000216733 0.000254838 3.95507e-05)
(-0.000257692 0.000213331 3.95508e-05)
(-0.000290822 0.000165342 3.95507e-05)
(-0.000315116 0.00011233 3.95505e-05)
(-0.000329834 5.59039e-05 3.95505e-05)
(-0.000334531 -2.22054e-06 3.95505e-05)
(-0.000329063 -6.02771e-05 3.95506e-05)
(-0.000313596 -0.000116502 3.95507e-05)
(-0.000288602 -0.000169188 3.95507e-05)
(-0.000254838 -0.000216733 3.95507e-05)
(-0.000213331 -0.000257692 3.95508e-05)
(-0.000165342 -0.000290822 3.95507e-05)
(-0.00011233 -0.000315116 3.95505e-05)
(-5.59038e-05 -0.000329834 3.95505e-05)
(2.22055e-06 -0.000334531 3.95505e-05)
(6.02771e-05 -0.000329063 3.95506e-05)
(0.000116502 -0.000313596 3.95507e-05)
(0.000169188 -0.000288602 3.95507e-05)
(0.000216733 -0.000254838 3.95507e-05)
(0.000257692 -0.000213331 3.95508e-05)
(0.000290822 -0.000165342 3.95507e-05)
(0.000315116 -0.00011233 3.95505e-05)
(0.000329834 -5.59039e-05 3.95505e-05)
(0.000334531 2.22054e-06 3.95506e-05)
(0.000329063 6.02771e-05 3.95507e-05)
(0.000313596 0.000116502 3.95507e-05)
(0.000288602 0.000169188 3.95507e-05)
(0.000254838 0.000216733 3.95507e-05)
(0.000213331 0.000257692 3.95508e-05)
(0.000165342 0.000290822 3.95507e-05)
(0.00011233 0.000315116 3.95505e-05)
(-3.65869e-05 0.000382567 4.86718e-05)
(-0.000102463 0.000370403 4.8672e-05)
(-0.000165226 0.000346983 4.86719e-05)
(-0.000222969 0.00031302 4.86719e-05)
(-0.000273937 0.000269547 4.86722e-05)
(-0.000316581 0.000217882 4.8672e-05)
(-0.000349607 0.000159599 4.8672e-05)
(-0.000372009 9.64651e-05 4.86717e-05)
(-0.000383109 3.04009e-05 4.86717e-05)
(-0.000382567 -3.6587e-05 4.86718e-05)
(-0.000370403 -0.000102463 4.8672e-05)
(-0.000346983 -0.000165226 4.86719e-05)
(-0.00031302 -0.000222969 4.86719e-05)
(-0.000269547 -0.000273937 4.86722e-05)
(-0.000217882 -0.000316581 4.8672e-05)
(-0.000159599 -0.000349607 4.8672e-05)
(-9.64651e-05 -0.000372009 4.86717e-05)
(-3.04009e-05 -0.000383109 4.86717e-05)
(3.6587e-05 -0.000382567 4.86718e-05)
(0.000102463 -0.000370403 4.8672e-05)
(0.000165226 -0.000346983 4.86719e-05)
(0.000222969 -0.00031302 4.86719e-05)
(0.000273937 -0.000269547 4.86722e-05)
(0.000316581 -0.000217882 4.8672e-05)
(0.000349607 -0.000159599 4.8672e-05)
(0.000372009 -9.64651e-05 4.86717e-05)
(0.000383109 -3.04009e-05 4.86717e-05)
(0.000382567 3.6587e-05 4.86718e-05)
(0.000370403 0.000102463 4.8672e-05)
(0.000346983 0.000165226 4.86719e-05)
(0.00031302 0.000222969 4.86719e-05)
(0.000269547 0.000273937 4.86722e-05)
(0.000217882 0.000316581 4.8672e-05)
(0.000159599 0.000349607 4.8672e-05)
(9.64651e-05 0.000372009 4.86717e-05)
(3.04009e-05 0.000383109 4.86717e-05)
(0.000226093 0.000880628 0.00012109)
(6.97388e-05 0.00090651 0.000121089)
(-8.87343e-05 0.000904849 0.00012109)
(-0.000244511 0.000875693 0.000121091)
(-0.000392859 0.000819931 0.000121091)
(-0.00052927 0.000739255 0.000121091)
(-0.0006496 0.000636117 0.000121091)
(-0.000750192 0.000513651 0.000121091)
(-0.000827989 0.000375577 0.00012109)
(-0.000880628 0.000226093 0.00012109)
(-0.00090651 6.97387e-05 0.000121089)
(-0.000904849 -8.87343e-05 0.00012109)
(-0.000875693 -0.000244511 0.000121091)
(-0.000819931 -0.000392859 0.000121091)
(-0.000739255 -0.00052927 0.000121091)
(-0.000636117 -0.0006496 0.000121091)
(-0.000513651 -0.000750192 0.000121091)
(-0.000375577 -0.000827989 0.00012109)
(-0.000226093 -0.000880628 0.00012109)
(-6.97387e-05 -0.00090651 0.000121089)
(8.87344e-05 -0.000904849 0.00012109)
(0.000244511 -0.000875693 0.000121091)
(0.000392859 -0.000819931 0.000121091)
(0.00052927 -0.000739255 0.000121091)
(0.0006496 -0.000636117 0.000121091)
(0.000750192 -0.000513651 0.000121091)
(0.000827989 -0.000375577 0.00012109)
(0.000880628 -0.000226093 0.00012109)
(0.00090651 -6.97387e-05 0.000121089)
(0.000904849 8.87343e-05 0.00012109)
(0.000875693 0.000244511 0.000121091)
(0.000819931 0.000392859 0.000121091)
(0.000739255 0.00052927 0.000121091)
(0.000636117 0.0006496 0.000121091)
(0.000513651 0.000750192 0.000121091)
(0.000375578 0.000827989 0.00012109)
(0.000119396 0.000981363 0.0002105)
(-5.28297e-05 0.000987186 0.0002105)
(-0.00022345 0.000963015 0.0002105)
(-0.000387281 0.000909584 0.000210501)
(-0.000539345 0.000828514 0.000210501)
(-0.000675021 0.000722271 0.000210501)
(-0.000790186 0.000594081 0.000210501)
(-0.000881343 0.000447841 0.0002105)
(-0.00094572 0.000287993 0.0002105)
(-0.000981363 0.000119395 0.0002105)
(-0.000987186 -5.28297e-05 0.0002105)
(-0.000963015 -0.00022345 0.0002105)
(-0.000909584 -0.000387281 0.000210501)
(-0.000828514 -0.000539345 0.000210501)
(-0.000722271 -0.000675021 0.000210501)
(-0.000594081 -0.000790187 0.000210501)
(-0.000447841 -0.000881343 0.0002105)
(-0.000287993 -0.00094572 0.0002105)
(-0.000119395 -0.000981363 0.0002105)
(5.28298e-05 -0.000987186 0.0002105)
(0.00022345 -0.000963015 0.0002105)
(0.000387281 -0.000909584 0.000210501)
(0.000539345 -0.000828514 0.000210501)
(0.000675021 -0.000722271 0.000210501)
(0.000790187 -0.000594081 0.000210501)
(0.000881343 -0.000447841 0.0002105)
(0.000945721 -0.000287993 0.0002105)
(0.000981363 -0.000119395 0.0002105)
(0.000987186 5.28297e-05 0.0002105)
(0.000963015 0.00022345 0.0002105)
(0.000909584 0.000387281 0.000210501)
(0.000828514 0.000539345 0.000210501)
(0.000722271 0.000675021 0.000210501)
(0.000594081 0.000790187 0.000210501)
(0.000447841 0.000881343 0.0002105)
(0.000287993 0.00094572 0.0002105)
(-2.25947e-05 0.0010689 0.000275476)
(-0.000207864 0.00104874 0.000275476)
(-0.000386817 0.000996712 0.000275476)
(-0.000554018 0.000914399 0.000275476)
(-0.000704385 0.000804303 0.000275476)
(-0.000833349 0.000669768 0.000275476)
(-0.000936993 0.000514883 0.000275476)
(-0.00101217 0.000344354 0.000275476)
(-0.00105659 0.000163362 0.000275476)
(-0.0010689 -2.25948e-05 0.000275476)
(-0.00104874 -0.000207864 0.000275476)
(-0.000996712 -0.000386817 0.000275476)
(-0.000914399 -0.000554018 0.000275476)
(-0.000804303 -0.000704385 0.000275476)
(-0.000669768 -0.000833349 0.000275476)
(-0.000514883 -0.000936993 0.000275476)
(-0.000344354 -0.00101217 0.000275476)
(-0.000163362 -0.00105659 0.000275476)
(2.25948e-05 -0.0010689 0.000275476)
(0.000207864 -0.00104874 0.000275476)
(0.000386817 -0.000996712 0.000275476)
(0.000554018 -0.000914399 0.000275476)
(0.000704385 -0.000804303 0.000275476)
(0.000833349 -0.000669768 0.000275476)
(0.000936993 -0.000514883 0.000275476)
(0.00101217 -0.000344354 0.000275476)
(0.00105659 -0.000163362 0.000275476)
(0.0010689 2.25948e-05 0.000275476)
(0.00104874 0.000207864 0.000275476)
(0.000996712 0.000386817 0.000275476)
(0.000914399 0.000554018 0.000275476)
(0.000804303 0.000704385 0.000275476)
(0.000669768 0.000833349 0.000275476)
(0.000514883 0.000936993 0.000275476)
(0.000344354 0.00101217 0.000275476)
(0.000163362 0.00105659 0.000275476)
(0.000275348 0.00149484 0.000345491)
(1.15892e-05 0.00151994 0.00034549)
(-0.000252522 0.00149886 0.000345491)
(-0.00050896 0.00143224 0.000345492)
(-0.000749933 0.0013221 0.000345493)
(-0.00096812 0.00117179 0.000345493)
(-0.00115689 0.000985877 0.000345493)
(-0.00131051 0.000770007 0.000345492)
(-0.00142431 0.00053074 0.000345491)
(-0.00149484 0.000275348 0.00034549)
(-0.00151994 1.15891e-05 0.00034549)
(-0.00149886 -0.000252522 0.000345491)
(-0.00143224 -0.00050896 0.000345492)
(-0.0013221 -0.000749933 0.000345493)
(-0.00117179 -0.00096812 0.000345493)
(-0.000985877 -0.00115689 0.000345493)
(-0.000770007 -0.00131051 0.000345492)
(-0.00053074 -0.00142431 0.000345491)
(-0.000275348 -0.00149484 0.00034549)
(-1.1589e-05 -0.00151994 0.00034549)
(0.000252522 -0.00149886 0.000345491)
(0.00050896 -0.00143224 0.000345492)
(0.000749933 -0.0013221 0.000345493)
(0.00096812 -0.00117179 0.000345493)
(0.00115689 -0.000985877 0.000345493)
(0.00131051 -0.000770007 0.000345492)
(0.00142431 -0.00053074 0.000345491)
(0.00149484 -0.000275348 0.000345491)
(0.00151994 -1.15891e-05 0.00034549)
(0.00149886 0.000252522 0.000345491)
(0.00143224 0.00050896 0.000345492)
(0.0013221 0.000749933 0.000345493)
(0.00117179 0.00096812 0.000345493)
(0.000985877 0.00115689 0.000345493)
(0.000770007 0.00131051 0.000345492)
(0.00053074 0.00142431 0.000345491)
(0.000129116 0.00160941 0.000457294)
(-0.000152316 0.00160738 0.000457295)
(-0.000429119 0.00155651 0.000457295)
(-0.000692884 0.00145835 0.000457295)
(-0.000935597 0.00131587 0.000457296)
(-0.00114988 0.00113342 0.000457295)
(-0.00132923 0.000916522 0.000457295)
(-0.00146819 0.00067178 0.000457295)
(-0.00156254 0.000406626 0.000457295)
(-0.00160941 0.000129116 0.000457294)
(-0.00160738 -0.000152316 0.000457295)
(-0.00155651 -0.00042912 0.000457294)
(-0.00145835 -0.000692884 0.000457295)
(-0.00131587 -0.000935597 0.000457295)
(-0.00113342 -0.00114988 0.000457295)
(-0.000916522 -0.00132923 0.000457295)
(-0.00067178 -0.00146819 0.000457295)
(-0.000406626 -0.00156254 0.000457295)
(-0.000129116 -0.00160941 0.000457294)
(0.000152316 -0.00160738 0.000457295)
(0.00042912 -0.00155651 0.000457294)
(0.000692884 -0.00145835 0.000457295)
(0.000935598 -0.00131587 0.000457296)
(0.00114988 -0.00113342 0.000457295)
(0.00132923 -0.000916522 0.000457295)
(0.00146819 -0.00067178 0.000457295)
(0.00156254 -0.000406626 0.000457295)
(0.00160941 -0.000129116 0.000457294)
(0.00160738 0.000152316 0.000457295)
(0.00155651 0.00042912 0.000457295)
(0.00145835 0.000692884 0.000457295)
(0.00131587 0.000935597 0.000457296)
(0.00113342 0.00114988 0.000457295)
(0.000916523 0.00132923 0.000457296)
(0.00067178 0.00146819 0.000457295)
(0.000406626 0.00156254 0.000457295)
(-4.81931e-05 0.00170758 0.000549084)
(-0.000343979 0.00167327 0.000549084)
(-0.000629313 0.00158812 0.000549084)
(-0.000895526 0.00145471 0.000549084)
(-0.00113453 0.00127711 0.000549085)
(-0.00133906 0.00106069 0.000549085)
(-0.0015029 0.000812055 0.000549084)
(-0.00162108 0.000538741 0.000549084)
(-0.00169001 0.000249058 0.000549084)
(-0.00170758 -4.81932e-05 0.000549084)
(-0.00167327 -0.000343979 0.000549084)
(-0.00158812 -0.000629313 0.000549084)
(-0.00145471 -0.000895526 0.000549084)
(-0.00127711 -0.00113453 0.000549084)
(-0.00106069 -0.00133906 0.000549085)
(-0.000812055 -0.0015029 0.000549084)
(-0.000538741 -0.00162108 0.000549084)
(-0.000249058 -0.00169001 0.000549084)
(4.81932e-05 -0.00170758 0.000549084)
(0.000343979 -0.00167327 0.000549084)
(0.000629313 -0.00158812 0.000549084)
(0.000895526 -0.00145471 0.000549084)
(0.00113453 -0.00127711 0.000549085)
(0.00133906 -0.00106069 0.000549085)
(0.0015029 -0.000812055 0.000549084)
(0.00162108 -0.000538741 0.000549084)
(0.00169001 -0.000249058 0.000549084)
(0.00170758 4.81932e-05 0.000549084)
(0.00167327 0.000343979 0.000549084)
(0.00158812 0.000629313 0.000549084)
(0.00145471 0.000895526 0.000549085)
(0.00127711 0.00113453 0.000549085)
(0.00106069 0.00133906 0.000549085)
(0.000812055 0.0015029 0.000549084)
(0.000538741 0.00162108 0.000549084)
(0.000249058 0.00169001 0.000549084)
(0.000239404 0.00209601 0.000618394)
(-0.000128201 0.00210574 0.000618393)
(-0.000491911 0.00205149 0.000618394)
(-0.000840674 0.0019349 0.000618395)
(-0.00116389 0.00175952 0.000618395)
(-0.00145175 0.00153068 0.000618396)
(-0.00169549 0.00125534 0.000618396)
(-0.00188772 0.000941844 0.000618395)
(-0.00202259 0.000599735 0.000618394)
(-0.00209601 0.000239404 0.000618394)
(-0.00210574 -0.000128201 0.000618393)
(-0.00205149 -0.000491911 0.000618394)
(-0.0019349 -0.000840674 0.000618395)
(-0.00175952 -0.00116389 0.000618395)
(-0.00153068 -0.00145175 0.000618396)
(-0.00125533 -0.00169549 0.000618396)
(-0.000941844 -0.00188772 0.000618395)
(-0.000599735 -0.00202259 0.000618394)
(-0.000239404 -0.00209601 0.000618393)
(0.000128201 -0.00210574 0.000618393)
(0.000491911 -0.00205149 0.000618394)
(0.000840674 -0.0019349 0.000618395)
(0.00116389 -0.00175952 0.000618395)
(0.00145175 -0.00153068 0.000618396)
(0.00169549 -0.00125534 0.000618396)
(0.00188772 -0.000941844 0.000618395)
(0.00202259 -0.000599735 0.000618394)
(0.00209601 -0.000239404 0.000618394)
(0.00210574 0.000128201 0.000618393)
(0.00205149 0.000491911 0.000618394)
(0.0019349 0.000840674 0.000618395)
(0.00175952 0.00116389 0.000618395)
(0.00153068 0.00145175 0.000618396)
(0.00125534 0.00169549 0.000618396)
(0.000941844 0.00188772 0.000618395)
(0.000599736 0.00202259 0.000618394)
(7.56449e-05 0.00219575 0.000736972)
(-0.000306793 0.00217553 0.000736972)
(-0.000679908 0.0020892 0.000736972)
(-0.00103236 0.0019394 0.000736972)
(-0.00135345 0.00173067 0.000736973)
(-0.00163342 0.00146935 0.000736973)
(-0.00186375 0.00116339 0.000736973)
(-0.00203746 0.000822074 0.000736973)
(-0.00214926 0.000455784 0.000736973)
(-0.00219575 7.56448e-05 0.000736972)
(-0.00217553 -0.000306793 0.000736972)
(-0.0020892 -0.000679908 0.000736972)
(-0.0019394 -0.00103236 0.000736972)
(-0.00173067 -0.00135345 0.000736973)
(-0.00146935 -0.00163342 0.000736973)
(-0.00116339 -0.00186375 0.000736973)
(-0.000822074 -0.00203746 0.000736973)
(-0.000455784 -0.00214926 0.000736972)
(-7.56447e-05 -0.00219575 0.000736972)
(0.000306793 -0.00217553 0.000736972)
(0.000679908 -0.0020892 0.000736972)
(0.00103236 -0.0019394 0.000736972)
(0.00135345 -0.00173067 0.000736973)
(0.00163342 -0.00146935 0.000736973)
(0.00186375 -0.00116339 0.000736973)
(0.00203746 -0.000822074 0.000736973)
(0.00214926 -0.000455784 0.000736973)
(0.00219575 -7.56447e-05 0.000736972)
(0.00217553 0.000306793 0.000736972)
(0.0020892 0.000679908 0.000736972)
(0.0019394 0.00103236 0.000736972)
(0.00173067 0.00135345 0.000736973)
(0.00146935 0.00163342 0.000736973)
(0.00116339 0.00186375 0.000736973)
(0.000822075 0.00203746 0.000736973)
(0.000455784 0.00214926 0.000736973)
(-0.00011486 0.00227904 0.00083733)
(-0.000508865 0.00222447 0.00083733)
(-0.00088741 0.00210231 0.00083733)
(-0.00123899 0.00191628 0.00083733)
(-0.00155292 0.00167202 0.00083733)
(-0.00181967 0.00137695 0.00083733)
(-0.00203113 0.00104005 0.00083733)
(-0.00218088 0.000671545 0.00083733)
(-0.00226436 0.000282637 0.00083733)
(-0.00227904 -0.00011486 0.00083733)
(-0.00222447 -0.000508866 0.00083733)
(-0.00210231 -0.00088741 0.00083733)
(-0.00191628 -0.00123899 0.00083733)
(-0.00167202 -0.00155292 0.000837329)
(-0.00137695 -0.00181967 0.00083733)
(-0.00104005 -0.00203113 0.00083733)
(-0.000671545 -0.00218088 0.00083733)
(-0.000282637 -0.00226436 0.00083733)
(0.00011486 -0.00227904 0.00083733)
(0.000508866 -0.00222447 0.00083733)
(0.00088741 -0.00210231 0.00083733)
(0.00123899 -0.00191628 0.00083733)
(0.00155292 -0.00167202 0.00083733)
(0.00181967 -0.00137695 0.00083733)
(0.00203113 -0.00104005 0.00083733)
(0.00218088 -0.000671545 0.00083733)
(0.00226436 -0.000282637 0.00083733)
(0.00227904 0.00011486 0.00083733)
(0.00222447 0.000508866 0.00083733)
(0.00210231 0.00088741 0.00083733)
(0.00191628 0.00123899 0.00083733)
(0.00167202 0.00155292 0.00083733)
(0.00137695 0.00181967 0.00083733)
(0.00104005 0.00203113 0.00083733)
(0.000671546 0.00218088 0.00083733)
(0.000282637 0.00226436 0.00083733)
(0.000129824 0.00265683 0.000913641)
(-0.000333502 0.00263901 0.00091364)
(-0.000786695 0.00254101 0.00091364)
(-0.00121598 0.00236579 0.000913641)
(-0.00160832 0.0021187 0.000913642)
(-0.0019518 0.00180723 0.000913642)
(-0.00223597 0.00144085 0.000913642)
(-0.0024522 0.00103068 0.000913642)
(-0.00259392 0.000589205 0.000913642)
(-0.00265683 0.000129823 0.000913641)
(-0.00263901 -0.000333502 0.00091364)
(-0.00254101 -0.000786695 0.00091364)
(-0.00236579 -0.00121598 0.000913641)
(-0.0021187 -0.00160832 0.000913641)
(-0.00180723 -0.0019518 0.000913642)
(-0.00144085 -0.00223597 0.000913642)
(-0.00103068 -0.0024522 0.000913642)
(-0.000589205 -0.00259392 0.000913642)
(-0.000129823 -0.00265683 0.000913641)
(0.000333502 -0.00263901 0.00091364)
(0.000786695 -0.00254101 0.00091364)
(0.00121598 -0.00236579 0.000913641)
(0.00160832 -0.0021187 0.000913642)
(0.0019518 -0.00180723 0.000913642)
(0.00223597 -0.00144085 0.000913642)
(0.0024522 -0.00103068 0.000913642)
(0.00259392 -0.000589205 0.000913642)
(0.00265683 -0.000129823 0.000913641)
(0.00263901 0.000333502 0.00091364)
(0.00254101 0.000786695 0.00091364)
(0.00236579 0.00121598 0.000913641)
(0.0021187 0.00160832 0.000913642)
(0.00180723 0.0019518 0.000913642)
(0.00144085 0.00223597 0.000913642)
(0.00103068 0.0024522 0.000913642)
(0.000589205 0.00259392 0.000913642)
(-3.52688e-05 0.00272149 0.00102799)
(-0.000507315 0.00267402 0.00102799)
(-0.000963947 0.0025453 0.00102799)
(-0.00139129 0.00233925 0.00102799)
(-0.00177636 0.00206211 0.00102799)
(-0.00210745 0.00172232 0.00102799)
(-0.00237451 0.0013302 0.00102799)
(-0.00256943 0.000897664 0.00102799)
(-0.00268627 0.000437849 0.00102799)
(-0.00272149 -3.52689e-05 0.00102799)
(-0.00267402 -0.000507315 0.00102799)
(-0.0025453 -0.000963947 0.00102799)
(-0.00233925 -0.00139129 0.00102799)
(-0.00206211 -0.00177636 0.00102799)
(-0.00172232 -0.00210745 0.00102799)
(-0.0013302 -0.00237451 0.00102799)
(-0.000897664 -0.00256943 0.00102799)
(-0.000437849 -0.00268627 0.00102799)
(3.52691e-05 -0.00272149 0.00102799)
(0.000507316 -0.00267402 0.00102799)
(0.000963947 -0.0025453 0.00102799)
(0.00139129 -0.00233925 0.00102799)
(0.00177636 -0.00206211 0.00102799)
(0.00210745 -0.00172232 0.00102799)
(0.00237451 -0.0013302 0.00102799)
(0.00256943 -0.000897664 0.00102799)
(0.00268627 -0.000437849 0.00102799)
(0.00272149 3.5269e-05 0.00102799)
(0.00267402 0.000507315 0.00102799)
(0.0025453 0.000963947 0.00102799)
(0.00233925 0.00139129 0.00102799)
(0.00206211 0.00177636 0.00102799)
(0.00172232 0.00210745 0.00102799)
(0.0013302 0.00237451 0.00102799)
(0.000897664 0.00256943 0.00102799)
(0.00043785 0.00268627 0.00102799)
(-0.000223016 0.0027712 0.00112481)
(-0.000700842 0.00269037 0.00112481)
(-0.00115737 0.0025278 0.00112481)
(-0.00157874 0.00228842 0.00112481)
(-0.00195213 0.00197951 0.00112481)
(-0.00226621 0.00161045 0.00112481)
(-0.00251144 0.00119246 0.00112481)
(-0.00268035 0.00073824 0.00112481)
(-0.00276782 0.000261586 0.00112481)
(-0.0027712 -0.000223016 0.00112481)
(-0.00269037 -0.000700842 0.00112481)
(-0.0025278 -0.00115737 0.00112481)
(-0.00228842 -0.00157874 0.00112481)
(-0.00197951 -0.00195213 0.00112481)
(-0.00161045 -0.00226621 0.00112481)
(-0.00119246 -0.00251144 0.00112481)
(-0.00073824 -0.00268035 0.00112481)
(-0.000261586 -0.00276782 0.00112481)
(0.000223016 -0.0027712 0.00112481)
(0.000700842 -0.00269037 0.00112481)
(0.00115737 -0.0025278 0.00112481)
(0.00157874 -0.00228842 0.00112481)
(0.00195213 -0.00197951 0.00112481)
(0.00226621 -0.00161045 0.00112481)
(0.00251144 -0.00119246 0.00112481)
(0.00268035 -0.00073824 0.00112481)
(0.00276782 -0.000261586 0.00112481)
(0.0027712 0.000223016 0.00112481)
(0.00269037 0.000700842 0.00112481)
(0.0025278 0.00115737 0.00112481)
(0.00228842 0.00157874 0.00112481)
(0.00197951 0.00195213 0.00112481)
(0.00161045 0.00226621 0.00112481)
(0.00119246 0.00251144 0.00112481)
(0.00073824 0.00268035 0.00112481)
(0.000261587 0.00276782 0.00112481)
(-3.07109e-05 0.00314967 0.00121803)
(-0.000577179 0.00309649 0.00121803)
(-0.00110611 0.00294922 0.00121803)
(-0.00160143 0.00271234 0.00121803)
(-0.00204809 0.00239305 0.00121803)
(-0.00243253 0.00200104 0.00121803)
(-0.00274305 0.00154824 0.00121803)
(-0.00297022 0.00104839 0.00121803)
(-0.00310715 0.00051669 0.00121803)
(-0.00314967 -3.07111e-05 0.00121803)
(-0.00309649 -0.000577179 0.00121803)
(-0.00294922 -0.00110611 0.00121803)
(-0.00271234 -0.00160143 0.00121803)
(-0.00239305 -0.00204809 0.00121803)
(-0.00200104 -0.00243253 0.00121803)
(-0.00154824 -0.00274305 0.00121803)
(-0.00104839 -0.00297022 0.00121803)
(-0.00051669 -0.00310715 0.00121803)
(3.07113e-05 -0.00314967 0.00121803)
(0.000577179 -0.00309649 0.00121803)
(0.00110611 -0.00294922 0.00121803)
(0.00160143 -0.00271234 0.00121803)
(0.00204809 -0.00239305 0.00121803)
(0.00243253 -0.00200104 0.00121803)
(0.00274305 -0.00154824 0.00121803)
(0.00297023 -0.00104839 0.00121803)
(0.00310715 -0.00051669 0.00121803)
(0.00314967 3.07111e-05 0.00121803)
(0.00309649 0.000577179 0.00121803)
(0.00294922 0.00110611 0.00121803)
(0.00271234 0.00160143 0.00121803)
(0.00239305 0.00204809 0.00121803)
(0.00200104 0.00243253 0.00121803)
(0.00154824 0.00274305 0.00121803)
(0.00104839 0.00297022 0.00121803)
(0.00051669 0.00310715 0.00121803)
(-0.000188938 0.00316716 0.00132042)
(-0.00073604 0.00308624 0.00132042)
(-0.00126078 0.00291154 0.00132042)
(-0.00174721 0.00264838 0.00132042)
(-0.00218055 0.00230474 0.00132042)
(-0.00254763 0.00189108 0.00132042)
(-0.00283731 0.00141996 0.00132042)
(-0.00304078 0.000905692 0.00132042)
(-0.00315186 0.000363905 0.00132042)
(-0.00316716 -0.000188938 0.00132042)
(-0.00308624 -0.000736041 0.00132042)
(-0.00291154 -0.00126078 0.00132042)
(-0.00264838 -0.00174721 0.00132042)
(-0.00230474 -0.00218055 0.00132042)
(-0.00189108 -0.00254763 0.00132042)
(-0.00141996 -0.00283731 0.00132042)
(-0.000905691 -0.00304078 0.00132042)
(-0.000363905 -0.00315186 0.00132042)
(0.000188938 -0.00316716 0.00132042)
(0.000736041 -0.00308624 0.00132042)
(0.00126078 -0.00291154 0.00132042)
(0.00174721 -0.00264838 0.00132042)
(0.00218055 -0.00230474 0.00132042)
(0.00254763 -0.00189108 0.00132042)
(0.00283731 -0.00141996 0.00132042)
(0.00304078 -0.000905691 0.00132042)
(0.00315186 -0.000363905 0.00132042)
(0.00316717 0.000188938 0.00132042)
(0.00308624 0.000736041 0.00132042)
(0.00291154 0.00126078 0.00132042)
(0.00264838 0.00174721 0.00132042)
(0.00230474 0.00218055 0.00132042)
(0.00189108 0.00254763 0.00132042)
(0.00141996 0.00283731 0.00132042)
(0.000905692 0.00304078 0.00132042)
(0.000363905 0.00315186 0.00132042)
(-0.00036537 0.00317258 0.00140533)
(-0.000910732 0.00306093 0.00140533)
(-0.00142842 0.00285628 0.00140533)
(-0.00190271 0.00256485 0.00140533)
(-0.00231918 0.00219548 0.00140533)
(-0.00266519 0.0017594 0.00140533)
(-0.00293021 0.00126987 0.00140533)
(-0.00310621 0.00074175 0.00140533)
(-0.00318782 0.000191093 0.00140533)
(-0.00317258 -0.00036537 0.00140533)
(-0.00306093 -0.000910732 0.00140533)
(-0.00285628 -0.00142842 0.00140533)
(-0.00256485 -0.00190271 0.00140533)
(-0.00219548 -0.00231918 0.00140533)
(-0.0017594 -0.00266519 0.00140533)
(-0.00126987 -0.00293022 0.00140533)
(-0.00074175 -0.00310621 0.00140533)
(-0.000191093 -0.00318782 0.00140533)
(0.00036537 -0.00317258 0.00140533)
(0.000910732 -0.00306093 0.00140533)
(0.00142842 -0.00285628 0.00140533)
(0.00190271 -0.00256485 0.00140533)
(0.00231918 -0.00219548 0.00140533)
(0.00266519 -0.0017594 0.00140533)
(0.00293022 -0.00126987 0.00140533)
(0.00310621 -0.00074175 0.00140533)
(0.00318782 -0.000191093 0.00140533)
(0.00317258 0.00036537 0.00140533)
(0.00306093 0.000910732 0.00140533)
(0.00285628 0.00142842 0.00140533)
(0.00256485 0.00190271 0.00140533)
(0.00219548 0.00231918 0.00140533)
(0.0017594 0.00266519 0.00140533)
(0.00126987 0.00293022 0.00140533)
(0.00074175 0.00310621 0.00140533)
(0.000191093 0.00318782 0.00140533)
(-0.000214683 0.00355115 0.00153161)
(-0.000828073 0.00345993 0.00153161)
(-0.0014163 0.00326357 0.00153161)
(-0.0019615 0.00296805 0.00153161)
(-0.00244709 0.00258235 0.00153161)
(-0.00285834 0.00211818 0.00153161)
(-0.00318273 0.00158966 0.00153161)
(-0.00341042 0.00101283 0.00153161)
(-0.00353448 0.000405228 0.00153161)
(-0.00355115 -0.000214683 0.00153161)
(-0.00345992 -0.000828073 0.00153161)
(-0.00326357 -0.0014163 0.00153161)
(-0.00296805 -0.0019615 0.00153161)
(-0.00258235 -0.00244709 0.00153161)
(-0.00211818 -0.00285834 0.00153161)
(-0.00158965 -0.00318273 0.00153161)
(-0.00101283 -0.00341042 0.00153161)
(-0.000405228 -0.00353448 0.00153161)
(0.000214684 -0.00355115 0.00153161)
(0.000828073 -0.00345993 0.00153161)
(0.0014163 -0.00326357 0.00153161)
(0.0019615 -0.00296805 0.00153161)
(0.00244709 -0.00258235 0.00153161)
(0.00285834 -0.00211818 0.00153161)
(0.00318273 -0.00158966 0.00153161)
(0.00341042 -0.00101283 0.00153161)
(0.00353448 -0.000405228 0.00153161)
(0.00355115 0.000214683 0.00153161)
(0.00345993 0.000828073 0.00153161)
(0.00326357 0.0014163 0.00153161)
(0.00296805 0.0019615 0.00153161)
(0.00258235 0.00244709 0.00153161)
(0.00211818 0.00285834 0.00153161)
(0.00158966 0.00318273 0.00153161)
(0.00101283 0.00341042 0.00153161)
(0.000405229 0.00353448 0.00153161)
(-0.000364325 0.00351392 0.00161534)
(-0.000968976 0.00339727 0.00161534)
(-0.00154419 0.0031774 0.00161534)
(-0.00207248 0.00286098 0.00161534)
(-0.00253779 0.00245764 0.00161534)
(-0.002926 0.00197962 0.00161534)
(-0.00322531 0.00144145 0.00161534)
(-0.00342661 0.000859479 0.00161534)
(-0.0035238 0.000251395 0.00161534)
(-0.00351392 -0.000364325 0.00161534)
(-0.00339727 -0.000968976 0.00161534)
(-0.0031774 -0.00154419 0.00161534)
(-0.00286098 -0.00207248 0.00161534)
(-0.00245764 -0.00253779 0.00161534)
(-0.00197962 -0.002926 0.00161534)
(-0.00144145 -0.00322531 0.00161534)
(-0.000859479 -0.00342661 0.00161534)
(-0.000251395 -0.0035238 0.00161534)
(0.000364325 -0.00351392 0.00161534)
(0.000968977 -0.00339727 0.00161534)
(0.00154419 -0.0031774 0.00161534)
(0.00207248 -0.00286098 0.00161534)
(0.00253779 -0.00245764 0.00161534)
(0.002926 -0.00197962 0.00161534)
(0.00322531 -0.00144145 0.00161534)
(0.00342661 -0.000859479 0.00161534)
(0.0035238 -0.000251395 0.00161534)
(0.00351392 0.000364325 0.00161534)
(0.00339727 0.000968976 0.00161534)
(0.0031774 0.00154419 0.00161534)
(0.00286098 0.00207248 0.00161534)
(0.00245764 0.00253779 0.00161534)
(0.00197962 0.002926 0.00161534)
(0.00144145 0.00322531 0.00161534)
(0.000859479 0.00342661 0.00161534)
(0.000251395 0.0035238 0.00161534)
(-0.000526824 0.00346942 0.00168098)
(-0.00112128 0.00332523 0.00168098)
(-0.00168166 0.00308 0.00168098)
(-0.00219095 0.00274119 0.00168098)
(-0.00263367 0.00231909 0.00168098)
(-0.00299636 0.00182653 0.00168098)
(-0.00326801 0.00127847 0.00168098)
(-0.00344037 0.000691558 0.00168098)
(-0.00350819 8.3638e-05 0.00168098)
(-0.00346942 -0.000526825 0.00168098)
(-0.00332523 -0.00112128 0.00168098)
(-0.00308 -0.00168166 0.00168098)
(-0.00274119 -0.00219095 0.00168098)
(-0.00231909 -0.00263367 0.00168098)
(-0.00182653 -0.00299636 0.00168098)
(-0.00127847 -0.00326801 0.00168098)
(-0.000691558 -0.00344037 0.00168098)
(-8.36378e-05 -0.00350819 0.00168098)
(0.000526825 -0.00346942 0.00168098)
(0.00112128 -0.00332523 0.00168098)
(0.00168166 -0.00308 0.00168098)
(0.00219095 -0.00274119 0.00168098)
(0.00263367 -0.00231909 0.00168098)
(0.00299636 -0.00182653 0.00168098)
(0.00326801 -0.00127847 0.00168098)
(0.00344037 -0.000691558 0.00168098)
(0.00350819 -8.3638e-05 0.00168098)
(0.00346942 0.000526825 0.00168098)
(0.00332523 0.00112128 0.00168098)
(0.00308 0.00168166 0.00168098)
(0.00274119 0.00219095 0.00168098)
(0.00231909 0.00263367 0.00168098)
(0.00182653 0.00299636 0.00168098)
(0.00127847 0.00326801 0.00168098)
(0.000691558 0.00344037 0.00168098)
(8.36382e-05 0.00350819 0.00168098)
(-0.000392442 0.00384164 0.00186352)
(-0.00105357 0.00371513 0.00186352)
(-0.00168269 0.00347574 0.00186352)
(-0.00226069 0.00313074 0.00186352)
(-0.00276999 0.00269061 0.00186352)
(-0.00319512 0.00216873 0.00186352)
(-0.00352318 0.00158096 0.00186352)
(-0.00374418 0.000945142 0.00186352)
(-0.00385143 0.000280612 0.00186352)
(-0.00384164 -0.000392442 0.00186352)
(-0.00371513 -0.00105357 0.00186352)
(-0.00347574 -0.00168269 0.00186352)
(-0.00313074 -0.00226069 0.00186352)
(-0.00269061 -0.00276999 0.00186352)
(-0.00216873 -0.00319512 0.00186352)
(-0.00158096 -0.00352318 0.00186352)
(-0.000945142 -0.00374419 0.00186352)
(-0.000280612 -0.00385143 0.00186352)
(0.000392442 -0.00384164 0.00186352)
(0.00105357 -0.00371513 0.00186352)
(0.00168269 -0.00347574 0.00186352)
(0.00226069 -0.00313074 0.00186352)
(0.00276999 -0.00269061 0.00186352)
(0.00319512 -0.00216873 0.00186352)
(0.00352318 -0.00158096 0.00186352)
(0.00374419 -0.000945142 0.00186352)