/*--------------------------------*- C++ -*----------------------------------*\
| =========                 |                                                 |
| \\      /  F ield         | OpenFOAM: The Open Source CFD Toolbox           |
|  \\    /   O peration     | Version:  2312                                  |
|   \\  /    A nd           | Website:  www.openfoam.com                      |
|    \\/     M anipulation  |                                                 |
\*---------------------------------------------------------------------------*/
FoamFile
{
    version     2.0;
    format      ascii;
    arch        "LSB;label=32;scalar=64";
    class       volVectorField;
    location    "0.7";
    object      D_0;
}
// * * * * * * * * * * * * * * * * * * * * * * * * * * * * * * * * * * * * * //

dimensions      [0 1 0 0 0 0 0];

internalField   nonuniform List<vector> 
1620
(
(0.000118372 0.000271795 -9.613e-06)
(6.93771e-05 0.000288221 -9.61316e-06)
(1.82744e-05 0.000295889 -9.61302e-06)
(-3.33837e-05 0.000294568 -9.61278e-06)
(-8.40278e-05 0.000284296 -9.6128e-06)
(-0.000132119 0.000265386 -9.6129e-06)
(-0.000176195 0.000238411 -9.6125e-06)
(-0.000214918 0.000204193 -9.61254e-06)
(-0.000247111 0.000163771 -9.61294e-06)
(-0.000271795 0.000118372 -9.613e-06)
(-0.000288221 6.9377e-05 -9.61316e-06)
(-0.000295889 1.82743e-05 -9.61303e-06)
(-0.000294568 -3.33837e-05 -9.61278e-06)
(-0.000284296 -8.40278e-05 -9.61281e-06)
(-0.000265386 -0.000132119 -9.61291e-06)
(-0.000238411 -0.000176195 -9.6125e-06)
(-0.000204193 -0.000214918 -9.61255e-06)
(-0.000163771 -0.000247111 -9.61294e-06)
(-0.000118372 -0.000271795 -9.61301e-06)
(-6.9377e-05 -0.000288221 -9.61316e-06)
(-1.82743e-05 -0.000295889 -9.61303e-06)
(3.33837e-05 -0.000294568 -9.61278e-06)
(8.40278e-05 -0.000284296 -9.6128e-06)
(0.000132119 -0.000265386 -9.6129e-06)
(0.000176195 -0.000238411 -9.6125e-06)
(0.000214918 -0.000204193 -9.61254e-06)
(0.000247111 -0.000163771 -9.61293e-06)
(0.000271795 -0.000118372 -9.613e-06)
(0.000288221 -6.9377e-05 -9.61315e-06)
(0.000295889 -1.82744e-05 -9.61302e-06)
(0.000294568 3.33837e-05 -9.61277e-06)
(0.000284296 8.40278e-05 -9.6128e-06)
(0.000265386 0.000132119 -9.61289e-06)
(0.000238411 0.000176195 -9.61249e-06)
(0.000204193 0.000214918 -9.61254e-06)
(0.000163771 0.000247111 -9.61293e-06)
(5.56336e-05 0.000328312 3.95187e-05)
(-2.2224e-06 0.000332985 3.95187e-05)
(-6.00105e-05 0.00032754 3.95188e-05)
(-0.000115975 0.000312143 3.95189e-05)
(-0.000168417 0.000287263 3.95189e-05)
(-0.000215741 0.000253653 3.95189e-05)
(-0.000256509 0.000212336 3.9519e-05)
(-0.000289485 0.000164568 3.95189e-05)
(-0.000313664 0.000111799 3.95187e-05)
(-0.000328312 5.56336e-05 3.95187e-05)
(-0.000332985 -2.22242e-06 3.95187e-05)
(-0.00032754 -6.00105e-05 3.95188e-05)
(-0.000312143 -0.000115975 3.95189e-05)
(-0.000287263 -0.000168417 3.95189e-05)
(-0.000253653 -0.000215741 3.95189e-05)
(-0.000212336 -0.000256509 3.9519e-05)
(-0.000164568 -0.000289485 3.95189e-05)
(-0.000111799 -0.000313664 3.95187e-05)
(-5.56336e-05 -0.000328312 3.95187e-05)
(2.22243e-06 -0.000332985 3.95187e-05)
(6.00105e-05 -0.00032754 3.95188e-05)
(0.000115975 -0.000312143 3.95189e-05)
(0.000168417 -0.000287263 3.95189e-05)
(0.000215741 -0.000253653 3.95189e-05)
(0.000256509 -0.000212336 3.9519e-05)
(0.000289485 -0.000164568 3.95189e-05)
(0.000313664 -0.000111799 3.95187e-05)
(0.000328312 -5.56336e-05 3.95187e-05)
(0.000332985 2.22242e-06 3.95187e-05)
(0.00032754 6.00105e-05 3.95188e-05)
(0.000312143 0.000115975 3.95189e-05)
(0.000287263 0.000168417 3.95189e-05)
(0.000253653 0.000215741 3.95189e-05)
(0.000212336 0.000256509 3.9519e-05)
(0.000164568 0.000289485 3.95189e-05)
(0.000111799 0.000313664 3.95187e-05)
(-3.61409e-05 0.000380101 4.8377e-05)
(-0.000101596 0.000368051 4.83772e-05)
(-0.000163964 0.000344818 4.83771e-05)
(-0.00022135 0.000311107 4.83771e-05)
(-0.00027201 0.000267944 4.83774e-05)
(-0.000314405 0.000216639 4.83772e-05)
(-0.000347248 0.000158752 4.83772e-05)
(-0.000369539 9.60407e-05 4.83769e-05)
(-0.000380602 3.04119e-05 4.83769e-05)
(-0.000380101 -3.61409e-05 4.8377e-05)
(-0.000368051 -0.000101596 4.83772e-05)
(-0.000344818 -0.000163964 4.83771e-05)
(-0.000311107 -0.00022135 4.83771e-05)
(-0.000267944 -0.00027201 4.83774e-05)
(-0.000216639 -0.000314405 4.83772e-05)
(-0.000158752 -0.000347248 4.83772e-05)
(-9.60407e-05 -0.000369539 4.83769e-05)
(-3.04119e-05 -0.000380602 4.83769e-05)
(3.61409e-05 -0.000380101 4.8377e-05)
(0.000101596 -0.000368051 4.83772e-05)
(0.000163964 -0.000344818 4.83771e-05)
(0.00022135 -0.000311107 4.83771e-05)
(0.00027201 -0.000267944 4.83774e-05)
(0.000314405 -0.000216639 4.83772e-05)
(0.000347248 -0.000158752 4.83772e-05)
(0.000369539 -9.60407e-05 4.83769e-05)
(0.000380602 -3.04119e-05 4.83769e-05)
(0.000380101 3.61409e-05 4.8377e-05)
(0.000368051 0.000101596 4.83772e-05)
(0.000344818 0.000163964 4.83771e-05)
(0.000311107 0.00022135 4.83771e-05)
(0.000267944 0.00027201 4.83774e-05)
(0.000216639 0.000314405 4.83772e-05)
(0.000158752 0.000347248 4.83772e-05)
(9.60407e-05 0.000369539 4.83769e-05)
(3.04119e-05 0.000380602 4.8377e-05)
(0.000225089 0.000877973 0.00012183)
(6.92109e-05 0.000903721 0.00012183)
(-8.87699e-05 0.00090201 0.00012183)
(-0.000244053 0.000872892 0.000121831)
(-0.000391921 0.000817251 0.000121832)
(-0.000527881 0.000736779 0.000121831)
(-0.000647803 0.00063392 0.000121831)
(-0.00074804 0.000511799 0.000121831)
(-0.000825548 0.000374128 0.00012183)
(-0.000877973 0.000225089 0.00012183)
(-0.000903721 6.92108e-05 0.00012183)
(-0.00090201 -8.87699e-05 0.00012183)
(-0.000872892 -0.000244053 0.000121831)
(-0.000817251 -0.000391921 0.000121832)
(-0.000736779 -0.000527881 0.000121831)
(-0.00063392 -0.000647803 0.000121831)
(-0.000511799 -0.00074804 0.000121831)
(-0.000374127 -0.000825549 0.00012183)
(-0.000225088 -0.000877973 0.00012183)
(-6.92108e-05 -0.000903721 0.00012183)
(8.877e-05 -0.00090201 0.00012183)
(0.000244053 -0.000872892 0.000121831)
(0.000391921 -0.000817251 0.000121832)
(0.000527881 -0.000736779 0.000121831)
(0.000647803 -0.00063392 0.000121831)
(0.000748041 -0.000511799 0.000121831)
(0.000825549 -0.000374128 0.00012183)
(0.000877973 -0.000225089 0.00012183)
(0.000903721 -6.92108e-05 0.00012183)
(0.00090201 8.87699e-05 0.00012183)
(0.000872892 0.000244053 0.000121831)
(0.000817251 0.000391921 0.000121832)
(0.000736779 0.000527881 0.000121831)
(0.00063392 0.000647803 0.000121831)
(0.000511799 0.000748041 0.000121831)
(0.000374128 0.000825549 0.00012183)
(0.000119157 0.000976802 0.000209707)
(-5.22726e-05 0.000982653 0.000209707)
(-0.000222114 0.000958648 0.000209707)
(-0.000385207 0.000905515 0.000209708)
(-0.000536596 0.000824867 0.000209709)
(-0.000671681 0.000719156 0.000209708)
(-0.000786356 0.000591594 0.000209708)
(-0.000877139 0.000446057 0.000209708)
(-0.00094127 0.000286967 0.000209707)
(-0.000976802 0.000119157 0.000209707)
(-0.000982653 -5.22726e-05 0.000209707)
(-0.000958648 -0.000222114 0.000209707)
(-0.000905515 -0.000385207 0.000209708)
(-0.000824867 -0.000536596 0.000209709)
(-0.000719156 -0.000671681 0.000209708)
(-0.000591594 -0.000786356 0.000209708)
(-0.000446057 -0.000877139 0.000209708)
(-0.000286967 -0.000941271 0.000209707)
(-0.000119157 -0.000976802 0.000209707)
(5.22727e-05 -0.000982653 0.000209707)
(0.000222114 -0.000958648 0.000209707)
(0.000385207 -0.000905515 0.000209708)
(0.000536596 -0.000824867 0.000209709)
(0.000671681 -0.000719156 0.000209708)
(0.000786356 -0.000591594 0.000209708)
(0.000877139 -0.000446057 0.000209708)
(0.000941271 -0.000286967 0.000209707)
(0.000976802 -0.000119157 0.000209707)
(0.000982653 5.22726e-05 0.000209707)
(0.000958648 0.000222114 0.000209708)
(0.000905515 0.000385207 0.000209708)
(0.000824867 0.000536596 0.000209709)
(0.000719157 0.000671681 0.000209708)
(0.000591595 0.000786356 0.000209708)
(0.000446057 0.000877139 0.000209708)
(0.000286967 0.000941271 0.000209707)
(-2.15859e-05 0.00106265 0.00027356)
(-0.000205784 0.00104275 0.00027356)
(-0.000383729 0.000991178 0.00027356)
(-0.000550016 0.000909485 0.00027356)
(-0.00069959 0.000800159 0.00027356)
(-0.000827908 0.000666519 0.00027356)
(-0.00093107 0.000512629 0.00027356)
(-0.00100594 0.000343162 0.00027356)
(-0.00105025 0.000163269 0.00027356)
(-0.00106265 -2.15859e-05 0.00027356)
(-0.00104275 -0.000205784 0.00027356)
(-0.000991178 -0.000383729 0.00027356)
(-0.000909485 -0.000550016 0.00027356)
(-0.000800159 -0.00069959 0.00027356)
(-0.000666519 -0.000827908 0.00027356)
(-0.000512629 -0.00093107 0.00027356)
(-0.000343162 -0.00100594 0.00027356)
(-0.000163269 -0.00105025 0.00027356)
(2.15859e-05 -0.00106265 0.00027356)
(0.000205784 -0.00104275 0.00027356)
(0.000383729 -0.000991178 0.00027356)
(0.000550016 -0.000909485 0.00027356)
(0.00069959 -0.000800159 0.00027356)
(0.000827908 -0.000666519 0.00027356)
(0.00093107 -0.000512629 0.00027356)
(0.00100594 -0.000343162 0.00027356)
(0.00105025 -0.000163269 0.00027356)
(0.00106265 2.15859e-05 0.00027356)
(0.00104275 0.000205784 0.00027356)
(0.000991178 0.000383729 0.00027356)
(0.000909485 0.000550016 0.00027356)
(0.000800159 0.00069959 0.00027356)
(0.000666519 0.000827908 0.00027356)
(0.000512629 0.00093107 0.00027356)
(0.000343162 0.00100594 0.00027356)
(0.000163269 0.00105025 0.00027356)
(0.000274797 0.00148972 0.000345766)
(1.19344e-05 0.00151481 0.000345766)
(-0.000251291 0.00149387 0.000345766)
(-0.000506881 0.00142754 0.000345767)
(-0.000747069 0.00131783 0.000345768)
(-0.000964558 0.00116808 0.000345768)
(-0.00115274 0.000982844 0.000345768)
(-0.0013059 0.000767741 0.000345767)
(-0.00141937 0.00052931 0.000345766)
(-0.00148972 0.000274797 0.000345766)
(-0.00151481 1.19343e-05 0.000345766)
(-0.00149387 -0.000251291 0.000345766)
(-0.00142754 -0.000506881 0.000345767)
(-0.00131783 -0.000747069 0.000345768)
(-0.00116808 -0.000964558 0.000345768)
(-0.000982844 -0.00115274 0.000345768)
(-0.000767741 -0.0013059 0.000345767)
(-0.00052931 -0.00141937 0.000345766)
(-0.000274797 -0.00148972 0.000345766)
(-1.19342e-05 -0.00151481 0.000345766)
(0.000251291 -0.00149387 0.000345766)
(0.000506881 -0.00142754 0.000345767)
(0.000747069 -0.00131783 0.000345768)
(0.000964558 -0.00116808 0.000345768)
(0.00115274 -0.000982844 0.000345768)
(0.0013059 -0.000767741 0.000345767)
(0.00141937 -0.00052931 0.000345766)
(0.00148972 -0.000274797 0.000345766)
(0.00151481 -1.19343e-05 0.000345766)
(0.00149387 0.000251291 0.000345766)
(0.00142754 0.000506881 0.000345767)
(0.00131783 0.000747069 0.000345768)
(0.00116808 0.000964558 0.000345768)
(0.000982844 0.00115274 0.000345768)
(0.000767741 0.0013059 0.000345767)
(0.00052931 0.00141937 0.000345766)
(0.000129553 0.00160192 0.000455694)
(-0.000150584 0.00160008 0.000455694)
(-0.000426147 0.00154962 0.000455694)
(-0.00068876 0.00145208 0.000455695)
(-0.000930447 0.00131041 0.000455695)
(-0.00114386 0.00112894 0.000455695)
(-0.00132252 0.000913154 0.000455695)
(-0.001461 0.000669627 0.000455695)
(-0.00155508 0.000405755 0.000455694)
(-0.00160192 0.000129553 0.000455694)
(-0.00160008 -0.000150585 0.000455694)
(-0.00154962 -0.000426147 0.000455694)
(-0.00145208 -0.00068876 0.000455695)
(-0.00131041 -0.000930447 0.000455695)
(-0.00112894 -0.00114386 0.000455695)
(-0.000913154 -0.00132252 0.000455695)
(-0.000669627 -0.001461 0.000455695)
(-0.000405754 -0.00155508 0.000455694)
(-0.000129553 -0.00160192 0.000455694)
(0.000150585 -0.00160008 0.000455694)
(0.000426147 -0.00154962 0.000455694)
(0.00068876 -0.00145208 0.000455695)
(0.000930447 -0.00131041 0.000455695)
(0.00114386 -0.00112894 0.000455695)
(0.00132252 -0.000913154 0.000455695)
(0.001461 -0.000669627 0.000455695)
(0.00155508 -0.000405754 0.000455694)
(0.00160192 -0.000129553 0.000455694)
(0.00160008 0.000150585 0.000455694)
(0.00154962 0.000426147 0.000455694)
(0.00145208 0.00068876 0.000455695)
(0.00131041 0.000930447 0.000455695)
(0.00112894 0.00114386 0.000455695)
(0.000913154 0.00132252 0.000455695)
(0.000669627 0.001461 0.000455695)
(0.000405755 0.00155508 0.000455694)
(-4.6339e-05 0.00169796 0.000545941)
(-0.000340482 0.00166412 0.000545941)
(-0.000624279 0.00157971 0.000545942)
(-0.000889108 0.00144731 0.000545942)
(-0.00112692 0.00127093 0.000545942)
(-0.0013305 0.00105593 0.000545942)
(-0.00149364 0.000808848 0.000545942)
(-0.00161141 0.000537192 0.000545941)
(-0.00168021 0.000249212 0.000545941)
(-0.00169796 -4.63391e-05 0.000545941)
(-0.00166412 -0.000340482 0.000545941)
(-0.00157971 -0.000624279 0.000545941)
(-0.00144731 -0.000889109 0.000545942)
(-0.00127093 -0.00112692 0.000545942)
(-0.00105593 -0.0013305 0.000545942)
(-0.000808848 -0.00149364 0.000545942)
(-0.000537192 -0.00161141 0.000545941)
(-0.000249212 -0.00168021 0.000545941)
(4.63391e-05 -0.00169796 0.000545941)
(0.000340482 -0.00166412 0.000545941)
(0.000624279 -0.00157971 0.000545941)
(0.000889109 -0.00144731 0.000545942)
(0.00112692 -0.00127093 0.000545942)
(0.0013305 -0.00105593 0.000545942)
(0.00149364 -0.000808848 0.000545942)
(0.00161141 -0.000537192 0.000545941)
(0.00168021 -0.000249212 0.000545942)
(0.00169796 4.63391e-05 0.000545941)
(0.00166412 0.000340482 0.000545941)
(0.00157971 0.000624279 0.000545942)
(0.00144731 0.000889109 0.000545942)
(0.00127093 0.00112692 0.000545942)
(0.00105593 0.0013305 0.000545942)
(0.000808848 0.00149364 0.000545942)
(0.000537192 0.00161141 0.000545942)
(0.000249213 0.00168021 0.000545942)
(0.000240337 0.00208834 0.000618418)
(-0.000125951 0.00209835 0.000618418)
(-0.000488412 0.0020446 0.000618419)
(-0.000836032 0.00192872 0.00061842)
(-0.00115825 0.00175425 0.00061842)
(-0.00144527 0.00152647 0.000618421)
(-0.00168839 0.00125231 0.00061842)
(-0.0018802 0.000940097 0.00061842)
(-0.00201488 0.000599322 0.000618419)
(-0.00208834 0.000240337 0.000618418)
(-0.00209835 -0.000125951 0.000618418)
(-0.0020446 -0.000488412 0.000618418)
(-0.00192872 -0.000836032 0.000618419)
(-0.00175425 -0.00115825 0.00061842)
(-0.00152647 -0.00144527 0.000618421)
(-0.00125231 -0.00168839 0.00061842)
(-0.000940097 -0.0018802 0.00061842)
(-0.000599322 -0.00201488 0.000618419)
(-0.000240337 -0.00208834 0.000618418)
(0.000125951 -0.00209835 0.000618418)
(0.000488412 -0.0020446 0.000618418)
(0.000836032 -0.00192872 0.000618419)
(0.00115825 -0.00175425 0.00061842)
(0.00144527 -0.00152647 0.000618421)
(0.00168839 -0.00125231 0.00061842)
(0.0018802 -0.000940097 0.00061842)
(0.00201488 -0.000599322 0.000618419)
(0.00208834 -0.000240337 0.000618418)
(0.00209835 0.000125951 0.000618418)
(0.0020446 0.000488412 0.000618419)
(0.00192872 0.000836032 0.00061842)
(0.00175425 0.00115825 0.00061842)
(0.00152647 0.00144527 0.000618421)
(0.00125231 0.00168839 0.00061842)
(0.000940097 0.0018802 0.00061842)
(0.000599322 0.00201488 0.000618419)
(7.74512e-05 0.00218555 0.000734979)
(-0.000303242 0.00216579 0.000734978)
(-0.000674721 0.00208023 0.000734979)
(-0.0010257 0.00193147 0.000734979)
(-0.00134551 0.00172401 0.000734979)
(-0.00162444 0.00146417 0.000734979)
(-0.00185401 0.00115985 0.00073498)
(-0.00202725 0.000820282 0.000734979)
(-0.00213889 0.000455791 0.000734979)
(-0.00218555 7.74511e-05 0.000734979)
(-0.00216579 -0.000303242 0.000734978)
(-0.00208023 -0.000674721 0.000734979)
(-0.00193147 -0.0010257 0.000734979)
(-0.00172401 -0.00134551 0.000734979)
(-0.00146417 -0.00162444 0.000734979)
(-0.00115985 -0.00185401 0.00073498)
(-0.000820282 -0.00202725 0.000734979)
(-0.000455791 -0.00213889 0.000734979)
(-7.7451e-05 -0.00218555 0.000734979)
(0.000303242 -0.00216579 0.000734978)
(0.000674721 -0.00208023 0.000734979)
(0.0010257 -0.00193147 0.000734979)
(0.00134551 -0.00172401 0.000734979)
(0.00162444 -0.00146417 0.000734979)
(0.00185401 -0.00115985 0.00073498)
(0.00202725 -0.000820282 0.000734979)
(0.00213889 -0.000455791 0.000734979)
(0.00218555 -7.74511e-05 0.000734979)
(0.00216579 0.000303242 0.000734979)
(0.00208023 0.000674721 0.000734979)
(0.00193147 0.0010257 0.000734979)
(0.00172401 0.00134551 0.000734979)
(0.00146417 0.00162444 0.00073498)
(0.00115985 0.00185401 0.00073498)
(0.000820282 0.00202725 0.000734979)
(0.000455791 0.00213889 0.000734979)
(-0.000111793 0.00226655 0.000833607)
(-0.000503677 0.00221271 0.000833607)
(-0.000880257 0.00209163 0.000833607)
(-0.00123009 0.001907 0.000833607)
(-0.00154255 0.00166442 0.000833607)
(-0.00180814 0.00137127 0.000833607)
(-0.00201879 0.00103646 0.000833607)
(-0.0021681 0.000670157 0.000833607)
(-0.00225153 0.000283489 0.000833607)
(-0.00226655 -0.000111793 0.000833607)
(-0.00221271 -0.000503677 0.000833607)
(-0.00209163 -0.000880257 0.000833607)
(-0.001907 -0.00123009 0.000833607)
(-0.00166442 -0.00154255 0.000833607)
(-0.00137127 -0.00180814 0.000833607)
(-0.00103646 -0.00201879 0.000833607)
(-0.000670156 -0.0021681 0.000833607)
(-0.000283488 -0.00225153 0.000833607)
(0.000111793 -0.00226655 0.000833607)
(0.000503677 -0.00221271 0.000833607)
(0.000880257 -0.00209163 0.000833607)
(0.00123009 -0.001907 0.000833607)
(0.00154255 -0.00166442 0.000833607)
(0.00180814 -0.00137127 0.000833607)
(0.00201879 -0.00103646 0.000833607)
(0.0021681 -0.000670156 0.000833607)
(0.00225153 -0.000283489 0.000833607)
(0.00226655 0.000111793 0.000833607)
(0.00221271 0.000503677 0.000833607)
(0.00209163 0.000880257 0.000833607)
(0.001907 0.00123009 0.000833607)
(0.00166442 0.00154255 0.000833607)
(0.00137127 0.00180814 0.000833607)
(0.00103646 0.00201879 0.000833607)
(0.000670157 0.0021681 0.000833607)
(0.000283489 0.00225153 0.000833607)
(0.000132953 0.00264686 0.000913975)
(-0.000328689 0.00262973 0.000913974)
(-0.000780344 0.00253271 0.000913975)
(-0.00120829 0.00235872 0.000913975)
(-0.00159952 0.00211307 0.000913976)
(-0.00194215 0.00180322 0.000913976)
(-0.00222577 0.00143857 0.000913976)
(-0.00244176 0.00103021 0.000913976)
(-0.00258356 0.000590555 0.000913976)
(-0.00264686 0.000132953 0.000913975)
(-0.00262973 -0.000328689 0.000913974)
(-0.00253271 -0.000780344 0.000913975)
(-0.00235872 -0.00120829 0.000913975)
(-0.00211307 -0.00159952 0.000913976)
(-0.00180322 -0.00194215 0.000913976)
(-0.00143857 -0.00222577 0.000913976)
(-0.00103021 -0.00244176 0.000913976)
(-0.000590555 -0.00258356 0.000913976)
(-0.000132953 -0.00264686 0.000913975)
(0.000328689 -0.00262973 0.000913974)
(0.000780345 -0.00253271 0.000913975)
(0.00120829 -0.00235872 0.000913975)
(0.00159952 -0.00211307 0.000913976)
(0.00194215 -0.00180322 0.000913976)
(0.00222577 -0.00143857 0.000913976)
(0.00244176 -0.00103021 0.000913976)
(0.00258356 -0.000590555 0.000913976)
(0.00264686 -0.000132953 0.000913975)
(0.00262973 0.000328689 0.000913974)
(0.00253271 0.000780344 0.000913975)
(0.00235872 0.00120829 0.000913975)
(0.00211307 0.00159952 0.000913976)
(0.00180322 0.00194215 0.000913976)
(0.00143857 0.00222577 0.000913976)
(0.00103021 0.00244176 0.000913976)
(0.000590556 0.00258356 0.000913976)
(-3.15337e-05 0.00270894 0.00102625)
(-0.000501457 0.00266231 0.00102625)
(-0.000956144 0.00253479 0.00102625)
(-0.00138178 0.00233024 0.00102625)
(-0.00176543 0.0020549 0.00102625)
(-0.00209544 0.00171712 0.00102625)
(-0.00236178 0.00132716 0.00102625)
(-0.00255635 0.000896881 0.00102625)
(-0.00267326 0.000439348 0.00102625)
(-0.00270894 -3.15338e-05 0.00102625)
(-0.00266231 -0.000501457 0.00102625)
(-0.00253479 -0.000956144 0.00102625)
(-0.00233024 -0.00138178 0.00102625)
(-0.0020549 -0.00176543 0.00102625)
(-0.00171712 -0.00209544 0.00102625)
(-0.00132716 -0.00236178 0.00102625)
(-0.000896881 -0.00255635 0.00102625)
(-0.000439348 -0.00267326 0.00102625)
(3.1534e-05 -0.00270894 0.00102625)
(0.000501457 -0.00266231 0.00102625)
(0.000956144 -0.00253479 0.00102625)
(0.00138178 -0.00233024 0.00102625)
(0.00176543 -0.0020549 0.00102625)
(0.00209544 -0.00171712 0.00102625)
(0.00236178 -0.00132716 0.00102625)
(0.00255635 -0.000896881 0.00102625)
(0.00267326 -0.000439348 0.00102625)
(0.00270894 3.15339e-05 0.00102625)
(0.00266231 0.000501457 0.00102625)
(0.00253479 0.000956144 0.00102625)
(0.00233024 0.00138178 0.00102625)
(0.0020549 0.00176543 0.00102625)
(0.00171712 0.00209544 0.00102625)
(0.00132716 0.00236178 0.00102625)
(0.000896881 0.00255635 0.00102625)
(0.000439348 0.00267326 0.00102625)
(-0.000218328 0.00275631 0.00112126)
(-0.00069364 0.00267653 0.00112126)
(-0.00114788 0.00251542 0.00112126)
(-0.00156723 0.00227787 0.00112126)
(-0.00193897 0.00197112 0.00112126)
(-0.0022518 0.00160448 0.00112126)
(-0.0024962 0.00118908 0.00112126)
(-0.00266476 0.000737554 0.00112126)
(-0.00275235 0.000263619 0.00112126)
(-0.00275631 -0.000218328 0.00112126)
(-0.00267653 -0.00069364 0.00112126)
(-0.00251542 -0.00114788 0.00112126)
(-0.00227787 -0.00156723 0.00112126)
(-0.00197112 -0.00193897 0.00112126)
(-0.00160448 -0.0022518 0.00112126)
(-0.00118908 -0.0024962 0.00112126)
(-0.000737554 -0.00266476 0.00112126)
(-0.000263618 -0.00275235 0.00112126)
(0.000218328 -0.00275631 0.00112126)
(0.00069364 -0.00267653 0.00112126)
(0.00114788 -0.00251542 0.00112126)
(0.00156723 -0.00227787 0.00112126)
(0.00193897 -0.00197112 0.00112126)
(0.0022518 -0.00160448 0.00112126)
(0.0024962 -0.00118908 0.00112126)
(0.00266476 -0.000737554 0.00112126)
(0.00275235 -0.000263618 0.00112126)
(0.00275631 0.000218328 0.00112126)
(0.00267653 0.00069364 0.00112126)
(0.00251542 0.00114788 0.00112126)
(0.00227787 0.00156723 0.00112126)
(0.00197112 0.00193897 0.00112126)
(0.00160448 0.0022518 0.00112126)
(0.00118908 0.0024962 0.00112126)
(0.000737554 0.00266476 0.00112126)
(0.000263619 0.00275235 0.00112126)
(-2.50738e-05 0.00313795 0.00121934)
(-0.000569592 0.00308592 0.00121934)
(-0.0010968 0.00294013 0.00121934)
(-0.00159069 0.00270501 0.00121934)
(-0.00203624 0.00238769 0.00121934)
(-0.00241992 0.00199783 0.00121934)
(-0.00273008 0.00154726 0.00121934)
(-0.00295728 0.00104968 0.00121934)
(-0.00309463 0.000520206 0.00121935)
(-0.00313795 -2.50739e-05 0.00121934)
(-0.00308592 -0.000569592 0.00121934)
(-0.00294013 -0.0010968 0.00121934)
(-0.00270501 -0.00159069 0.00121934)
(-0.00238769 -0.00203624 0.00121934)
(-0.00199783 -0.00241992 0.00121934)
(-0.00154726 -0.00273008 0.00121934)
(-0.00104968 -0.00295728 0.00121934)
(-0.000520206 -0.00309463 0.00121935)
(2.50741e-05 -0.00313795 0.00121934)
(0.000569592 -0.00308592 0.00121934)
(0.0010968 -0.00294013 0.00121934)
(0.00159069 -0.00270501 0.00121934)
(0.00203624 -0.00238769 0.00121934)
(0.00241992 -0.00199783 0.00121934)
(0.00273008 -0.00154726 0.00121934)
(0.00295728 -0.00104968 0.00121934)
(0.00309463 -0.000520206 0.00121935)
(0.00313795 2.5074e-05 0.00121934)
(0.00308592 0.000569592 0.00121934)
(0.00294013 0.0010968 0.00121934)
(0.00270501 0.00159069 0.00121934)
(0.00238769 0.00203624 0.00121934)
(0.00199783 0.00241992 0.00121934)
(0.00154726 0.00273008 0.00121934)
(0.00104968 0.00295728 0.00121934)
(0.000520206 0.00309463 0.00121935)
(-0.000182935 0.00315279 0.00131962)
(-0.000727632 0.00307312 0.00131962)
(-0.00125022 0.00290008 0.00131961)
(-0.00173482 0.00263893 0.00131962)
(-0.00216671 0.00229759 0.00131962)
(-0.00253276 0.00188644 0.00131962)
(-0.00282186 0.00141797 0.00131962)
(-0.00302522 0.000906415 0.00131962)
(-0.00313666 0.00036732 0.00131962)
(-0.00315279 -0.000182935 0.00131962)
(-0.00307312 -0.000727633 0.00131962)
(-0.00290008 -0.00125022 0.00131961)
(-0.00263893 -0.00173482 0.00131962)
(-0.00229759 -0.00216671 0.00131962)
(-0.00188644 -0.00253276 0.00131962)
(-0.00141797 -0.00282186 0.00131962)
(-0.000906415 -0.00302522 0.00131962)
(-0.00036732 -0.00313666 0.00131962)
(0.000182935 -0.00315279 0.00131962)
(0.000727633 -0.00307312 0.00131962)
(0.00125022 -0.00290008 0.00131961)
(0.00173482 -0.00263893 0.00131962)
(0.00216671 -0.00229759 0.00131962)
(0.00253276 -0.00188644 0.00131962)
(0.00282186 -0.00141797 0.00131962)
(0.00302522 -0.000906415 0.00131962)
(0.00313666 -0.00036732 0.00131962)
(0.00315279 0.000182935 0.00131962)
(0.00307312 0.000727633 0.00131962)
(0.00290008 0.00125022 0.00131961)
(0.00263893 0.00173482 0.00131962)
(0.00229759 0.00216671 0.00131962)
(0.00188644 0.00253276 0.00131962)
(0.00141797 0.00282186 0.00131962)
(0.000906415 0.00302522 0.00131962)
(0.00036732 0.00313666 0.00131962)
(-0.000358707 0.00315578 0.00140267)
(-0.000901254 0.00304555 0.00140267)
(-0.00141642 0.00284278 0.00140267)
(-0.00188854 0.00255363 0.00140267)
(-0.00230328 0.0021869 0.00140267)
(-0.00264804 0.00175371 0.00140267)
(-0.00291234 0.00126724 0.00140267)
(-0.00308815 0.000742267 0.00140267)
(-0.00317013 0.000194738 0.00140267)
(-0.00315578 -0.000358708 0.00140267)
(-0.00304555 -0.000901255 0.00140267)
(-0.00284278 -0.00141642 0.00140267)
(-0.00255363 -0.00188854 0.00140267)
(-0.0021869 -0.00230328 0.00140267)
(-0.00175371 -0.00264804 0.00140267)
(-0.00126724 -0.00291234 0.00140267)
(-0.000742267 -0.00308815 0.00140267)
(-0.000194738 -0.00317013 0.00140267)
(0.000358708 -0.00315578 0.00140267)
(0.000901255 -0.00304555 0.00140267)
(0.00141642 -0.00284278 0.00140267)
(0.00188854 -0.00255363 0.00140267)
(0.00230328 -0.0021869 0.00140267)
(0.00264804 -0.00175371 0.00140267)
(0.00291234 -0.00126724 0.00140267)
(0.00308815 -0.000742267 0.00140267)
(0.00317013 -0.000194738 0.00140267)
(0.00315578 0.000358708 0.00140267)
(0.00304555 0.000901255 0.00140267)
(0.00284278 0.00141642 0.00140267)
(0.00255363 0.00188854 0.00140267)
(0.0021869 0.00230328 0.00140267)
(0.00175371 0.00264804 0.00140267)
(0.00126724 0.00291234 0.00140267)
(0.000742267 0.00308815 0.00140267)
(0.000194738 0.00317013 0.00140267)
(-0.000206624 0.00353839 0.00153445)
(-0.00081792 0.00344876 0.00153445)
(-0.00140437 0.00325433 0.00153445)
(-0.00194814 0.00296103 0.00153445)
(-0.00243272 0.00257775 0.00153445)
(-0.00284338 0.00211615 0.00153445)
(-0.00316765 0.00159025 0.00153445)
(-0.00339567 0.00101604 0.00153445)
(-0.00352052 0.000410949 0.00153445)
(-0.00353839 -0.000206624 0.00153445)
(-0.00344876 -0.00081792 0.00153445)
(-0.00325433 -0.00140437 0.00153445)
(-0.00296103 -0.00194814 0.00153445)
(-0.00257775 -0.00243272 0.00153445)
(-0.00211615 -0.00284338 0.00153445)
(-0.00159025 -0.00316765 0.00153445)
(-0.00101604 -0.00339567 0.00153445)
(-0.000410949 -0.00352052 0.00153445)
(0.000206624 -0.00353839 0.00153445)
(0.00081792 -0.00344876 0.00153445)
(0.00140437 -0.00325433 0.00153445)
(0.00194814 -0.00296103 0.00153445)
(0.00243272 -0.00257775 0.00153445)
(0.00284338 -0.00211615 0.00153445)
(0.00316765 -0.00159025 0.00153445)
(0.00339567 -0.00101604 0.00153445)
(0.00352052 -0.000410949 0.00153445)
(0.00353839 0.000206624 0.00153445)
(0.00344876 0.00081792 0.00153445)
(0.00325433 0.00140437 0.00153445)
(0.00296103 0.00194814 0.00153445)
(0.00257775 0.00243272 0.00153445)
(0.00211615 0.00284338 0.00153445)
(0.00159025 0.00316765 0.00153445)
(0.00101604 0.00339567 0.00153445)
(0.00041095 0.00352052 0.00153445)
(-0.000355991 0.0034984 0.00161606)
(-0.000958073 0.00338343 0.00161606)
(-0.00153104 0.00316566 0.00161606)
(-0.0020575 0.0028517 0.00161606)
(-0.00252143 0.0024511 0.00161606)
(-0.00290875 0.00197602 0.00161606)
(-0.00320769 0.0014409 0.00161606)
(-0.00340917 0.000862 0.00161606)
(-0.00350706 0.000256906 0.00161606)
(-0.0034984 -0.000355991 0.00161606)
(-0.00338343 -0.000958073 0.00161606)
(-0.00316566 -0.00153104 0.00161606)
(-0.0028517 -0.0020575 0.00161606)
(-0.0024511 -0.00252143 0.00161605)
(-0.00197602 -0.00290875 0.00161606)
(-0.0014409 -0.00320769 0.00161606)
(-0.000862 -0.00340917 0.00161606)
(-0.000256906 -0.00350706 0.00161606)
(0.000355991 -0.0034984 0.00161606)
(0.000958074 -0.00338343 0.00161606)
(0.00153104 -0.00316566 0.00161606)
(0.0020575 -0.0028517 0.00161606)
(0.00252143 -0.0024511 0.00161606)
(0.00290875 -0.00197602 0.00161606)
(0.00320769 -0.0014409 0.00161606)
(0.00340917 -0.000862 0.00161606)
(0.00350706 -0.000256906 0.00161606)
(0.0034984 0.000355991 0.00161606)
(0.00338343 0.000958073 0.00161606)
(0.00316566 0.00153104 0.00161606)
(0.0028517 0.0020575 0.00161606)
(0.0024511 0.00252143 0.00161606)
(0.00197602 0.00290875 0.00161606)
(0.0014409 0.00320769 0.00161606)
(0.000862 0.00340917 0.00161606)
(0.000256906 0.00350706 0.00161606)
(-0.000518004 0.00345132 0.00167983)
(-0.00110945 0.00330893 0.00167983)
(-0.00166718 0.00306601 0.00167983)
(-0.00217426 0.00272993 0.00167983)
(-0.00261528 0.0023109 0.00167983)
(-0.00297683 0.00182165 0.00167983)
(-0.00324793 0.00127705 0.00167983)
(-0.00342034 0.000693656 0.00167983)
(-0.00348883 8.91814e-05 0.00167983)
(-0.00345132 -0.000518005 0.00167983)
(-0.00330893 -0.00110945 0.00167983)
(-0.00306601 -0.00166718 0.00167983)
(-0.00272993 -0.00217426 0.00167983)
(-0.0023109 -0.00261528 0.00167983)
(-0.00182165 -0.00297683 0.00167983)
(-0.00127705 -0.00324793 0.00167983)
(-0.000693656 -0.00342034 0.00167983)
(-8.91811e-05 -0.00348883 0.00167983)
(0.000518005 -0.00345132 0.00167983)
(0.00110945 -0.00330893 0.00167983)
(0.00166718 -0.00306601 0.00167983)
(0.00217426 -0.00272993 0.00167983)
(0.00261528 -0.0023109 0.00167983)
(0.00297683 -0.00182165 0.00167983)
(0.00324793 -0.00127705 0.00167983)
(0.00342034 -0.000693656 0.00167983)
(0.00348883 -8.91813e-05 0.00167983)
(0.00345132 0.000518005 0.00167983)
(0.00330893 0.00110945 0.00167983)
(0.00306601 0.00166718 0.00167983)
(0.00272993 0.00217426 0.00167983)
(0.0023109 0.00261528 0.00167983)
(0.00182165 0.00297683 0.00167983)
(0.00127705 0.00324793 0.00167983)
(0.000693656 0.00342034 0.00167983)
(8.91816e-05 0.00348883 0.00167983)
(-0.000382441 0.00382864 0.00186816)
(-0.00104147 0.00370406 0.00186816)
(-0.00166885 0.00346694 0.00186816)
(-0.00224552 0.00312448 0.00186816)
(-0.00275397 0.00268708 0.00186816)
(-0.00317873 0.00216803 0.00186816)
(-0.00350692 0.00158311 0.00186816)
(-0.00372854 0.000950091 0.00186816)
(-0.00383688 0.000288202 0.00186816)
(-0.00382864 -0.000382442 0.00186816)
(-0.00370406 -0.00104147 0.00186816)
(-0.00346694 -0.00166885 0.00186816)
(-0.00312447 -0.00224552 0.00186816)
(-0.00268708 -0.00275397 0.00186816)
(-0.00216803 -0.00317873 0.00186816)
(-0.00158311 -0.00350692 0.00186816)
(-0.000950091 -0.00372854 0.00186816)
(-0.000288202 -0.00383688 0.00186816)
(0.000382442 -0.00382864 0.00186816)
(0.00104147 -0.00370406 0.00186816)
(0.00166885 -0.00346694 0.00186816)
(0.00224552 -0.00312447 0.00186816)
(0.00275397 -0.00268708 0.00186816)
(0.00317873 -0.00216803 0.00186816)
(0.00350692 -0.00158311 0.00186816)