/*--------------------------------*- C++ -*----------------------------------*\
| =========                 |                                                 |
| \\      /  F ield         | OpenFOAM: The Open Source CFD Toolbox           |
|  \\    /   O peration     | Version:  2312                                  |
|   \\  /    A nd           | Website:  www.openfoam.com                      |
|    \\/     M anipulation  |                                                 |
\*---------------------------------------------------------------------------*/
FoamFile
{
    version     2.0;
    format      ascii;
    arch        "LSB;label=32;scalar=64";
    class       volVectorField;
    location    "0.7";
    object      D_0_0;
}
// * * * * * * * * * * * * * * * * * * * * * * * * * * * * * * * * * * * * * //

dimensions      [0 1 0 0 0 0 0];

internalField   nonuniform List<vector> 
1620
(
(0.000117769 0.000271276 -8.75279e-06)
(6.88727e-05 0.000287605 -8.75294e-06)
(1.78847e-05 0.000295195 -8.75281e-06)
(-3.3647e-05 0.000293817 -8.75257e-06)
(-8.41566e-05 0.000283511 -8.75259e-06)
(-0.000132109 0.00026459 -8.75269e-06)
(-0.000176048 0.000237629 -8.75229e-06)
(-0.000214637 0.000203448 -8.75234e-06)
(-0.000246705 0.000163086 -8.75272e-06)
(-0.000271276 0.000117769 -8.75279e-06)
(-0.000287605 6.88727e-05 -8.75295e-06)
(-0.000295195 1.78846e-05 -8.75282e-06)
(-0.000293817 -3.3647e-05 -8.75257e-06)
(-0.000283511 -8.41566e-05 -8.7526e-06)
(-0.00026459 -0.000132109 -8.75269e-06)
(-0.000237629 -0.000176048 -8.7523e-06)
(-0.000203448 -0.000214637 -8.75234e-06)
(-0.000163086 -0.000246705 -8.75273e-06)
(-0.000117769 -0.000271276 -8.75279e-06)
(-6.88727e-05 -0.000287605 -8.75295e-06)
(-1.78846e-05 -0.000295195 -8.75281e-06)
(3.3647e-05 -0.000293817 -8.75257e-06)
(8.41566e-05 -0.000283511 -8.75259e-06)
(0.000132109 -0.00026459 -8.75269e-06)
(0.000176048 -0.000237629 -8.75229e-06)
(0.000214637 -0.000203448 -8.75234e-06)
(0.000246705 -0.000163086 -8.75272e-06)
(0.000271276 -0.000117769 -8.75279e-06)
(0.000287605 -6.88727e-05 -8.75294e-06)
(0.000295195 -1.78846e-05 -8.75281e-06)
(0.000293817 3.3647e-05 -8.75256e-06)
(0.000283511 8.41566e-05 -8.75258e-06)
(0.00026459 0.000132109 -8.75268e-06)
(0.000237629 0.000176048 -8.75229e-06)
(0.000203448 0.000214637 -8.75233e-06)
(0.000163086 0.000246705 -8.75272e-06)
(5.53658e-05 0.000326766 3.94805e-05)
(-2.21754e-06 0.000331416 3.94806e-05)
(-5.97332e-05 0.000325995 3.94807e-05)
(-0.000115434 0.00031067 3.94807e-05)
(-0.000167628 0.000285906 3.94807e-05)
(-0.000214728 0.000252454 3.94807e-05)
(-0.000255304 0.000211331 3.94808e-05)
(-0.000288123 0.000163787 3.94807e-05)
(-0.000312187 0.000111267 3.94805e-05)
(-0.000326766 5.53658e-05 3.94805e-05)
(-0.000331416 -2.21756e-06 3.94805e-05)
(-0.000325995 -5.97332e-05 3.94806e-05)
(-0.00031067 -0.000115434 3.94807e-05)
(-0.000285906 -0.000167628 3.94807e-05)
(-0.000252454 -0.000214728 3.94807e-05)
(-0.000211331 -0.000255304 3.94808e-05)
(-0.000163787 -0.000288123 3.94807e-05)
(-0.000111267 -0.000312187 3.94805e-05)
(-5.53658e-05 -0.000326766 3.94805e-05)
(2.21757e-06 -0.000331416 3.94805e-05)
(5.97332e-05 -0.000325995 3.94806e-05)
(0.000115434 -0.00031067 3.94807e-05)
(0.000167628 -0.000285906 3.94807e-05)
(0.000214728 -0.000252454 3.94807e-05)
(0.000255304 -0.000211331 3.94808e-05)
(0.000288123 -0.000163787 3.94807e-05)
(0.000312187 -0.000111267 3.94805e-05)
(0.000326766 -5.53658e-05 3.94805e-05)
(0.000331416 2.21756e-06 3.94806e-05)
(0.000325995 5.97332e-05 3.94807e-05)
(0.00031067 0.000115434 3.94807e-05)
(0.000285906 0.000167628 3.94807e-05)
(0.000252454 0.000214728 3.94807e-05)
(0.000211331 0.000255304 3.94808e-05)
(0.000163787 0.000288123 3.94807e-05)
(0.000111267 0.000312187 3.94805e-05)
(-3.56812e-05 0.000377606 4.80765e-05)
(-0.00010071 0.000365674 4.80767e-05)
(-0.000162678 0.000342631 4.80766e-05)
(-0.000219704 0.000309176 4.80766e-05)
(-0.000270054 0.000266329 4.80769e-05)
(-0.000312199 0.000215387 4.80767e-05)
(-0.000344858 0.000157902 4.80767e-05)
(-0.000367038 9.56195e-05 4.80764e-05)
(-0.000378066 3.04315e-05 4.80765e-05)
(-0.000377606 -3.56812e-05 4.80765e-05)
(-0.000365674 -0.00010071 4.80767e-05)
(-0.000342631 -0.000162678 4.80766e-05)
(-0.000309176 -0.000219704 4.80766e-05)
(-0.000266329 -0.000270054 4.80769e-05)
(-0.000215387 -0.000312199 4.80767e-05)
(-0.000157902 -0.000344858 4.80767e-05)
(-9.56195e-05 -0.000367038 4.80764e-05)
(-3.04314e-05 -0.000378066 4.80765e-05)
(3.56812e-05 -0.000377606 4.80765e-05)
(0.00010071 -0.000365674 4.80767e-05)
(0.000162678 -0.000342631 4.80766e-05)
(0.000219704 -0.000309176 4.80766e-05)
(0.000270054 -0.000266329 4.80769e-05)
(0.000312199 -0.000215387 4.80767e-05)
(0.000344858 -0.000157902 4.80767e-05)
(0.000367038 -9.56195e-05 4.80764e-05)
(0.000378066 -3.04314e-05 4.80765e-05)
(0.000377606 3.56812e-05 4.80765e-05)
(0.000365674 0.00010071 4.80767e-05)
(0.000342631 0.000162678 4.80766e-05)
(0.000309176 0.000219704 4.80766e-05)
(0.000266329 0.000270054 4.80769e-05)
(0.000215387 0.000312199 4.80767e-05)
(0.000157902 0.000344858 4.80767e-05)
(9.56195e-05 0.000367038 4.80764e-05)
(3.04315e-05 0.000378066 4.80765e-05)
(0.000224076 0.000875259 0.000122543)
(6.8685e-05 0.000900872 0.000122542)
(-8.8793e-05 0.000899113 0.000122543)
(-0.000243573 0.000870035 0.000122544)
(-0.000390952 0.000814521 0.000122544)
(-0.000526453 0.000734259 0.000122544)
(-0.000645958 0.000631686 0.000122544)
(-0.000745836 0.000509919 0.000122544)
(-0.000823051 0.000372659 0.000122543)
(-0.000875259 0.000224076 0.000122543)
(-0.000900872 6.8685e-05 0.000122542)
(-0.000899113 -8.87931e-05 0.000122543)
(-0.000870035 -0.000243573 0.000122544)
(-0.000814521 -0.000390952 0.000122544)
(-0.000734259 -0.000526453 0.000122544)
(-0.000631686 -0.000645958 0.000122544)
(-0.000509919 -0.000745836 0.000122544)
(-0.000372659 -0.000823051 0.000122543)
(-0.000224076 -0.000875259 0.000122543)
(-6.86849e-05 -0.000900872 0.000122542)
(8.87931e-05 -0.000899113 0.000122543)
(0.000243573 -0.000870035 0.000122544)
(0.000390952 -0.000814521 0.000122544)
(0.000526453 -0.000734259 0.000122544)
(0.000645958 -0.000631686 0.000122544)
(0.000745836 -0.000509919 0.000122544)
(0.000823051 -0.000372659 0.000122543)
(0.000875259 -0.000224076 0.000122543)
(0.000900873 -6.8685e-05 0.000122542)
(0.000899113 8.87931e-05 0.000122543)
(0.000870035 0.000243573 0.000122544)
(0.000814521 0.000390952 0.000122545)
(0.000734259 0.000526453 0.000122544)
(0.000631686 0.000645958 0.000122544)
(0.00050992 0.000745836 0.000122544)
(0.000372659 0.000823051 0.000122543)
(0.000118928 0.000972169 0.000208887)
(-5.16941e-05 0.000978051 0.000208887)
(-0.000220745 0.000954216 0.000208887)
(-0.000383089 0.000901388 0.000208888)
(-0.000533794 0.000821171 0.000208889)
(-0.000668279 0.000716003 0.000208888)
(-0.000782459 0.000589079 0.000208888)
(-0.000872864 0.000444257 0.000208888)
(-0.000936748 0.000285936 0.000208887)
(-0.000972169 0.000118928 0.000208887)
(-0.000978051 -5.16941e-05 0.000208887)
(-0.000954216 -0.000220745 0.000208887)
(-0.000901388 -0.000383089 0.000208888)
(-0.000821171 -0.000533794 0.000208888)
(-0.000716003 -0.000668279 0.000208888)
(-0.000589079 -0.000782459 0.000208888)
(-0.000444257 -0.000872864 0.000208888)
(-0.000285936 -0.000936748 0.000208887)
(-0.000118927 -0.000972169 0.000208887)
(5.16942e-05 -0.000978051 0.000208887)
(0.000220745 -0.000954216 0.000208887)
(0.000383089 -0.000901388 0.000208888)
(0.000533794 -0.000821171 0.000208889)
(0.000668279 -0.000716003 0.000208888)
(0.000782459 -0.000589079 0.000208888)
(0.000872864 -0.000444257 0.000208888)
(0.000936748 -0.000285936 0.000208887)
(0.000972169 -0.000118928 0.000208887)
(0.000978051 5.16941e-05 0.000208887)
(0.000954216 0.000220745 0.000208887)
(0.000901388 0.000383089 0.000208888)
(0.000821171 0.000533794 0.000208889)
(0.000716003 0.000668279 0.000208888)
(0.000589079 0.000782459 0.000208888)
(0.000444257 0.000872864 0.000208888)
(0.000285936 0.000936748 0.000208887)
(-2.05481e-05 0.0010563 0.000271617)
(-0.000203661 0.00103669 0.000271617)
(-0.000380585 0.000985574 0.000271617)
(-0.000545946 0.000904512 0.000271617)
(-0.000694719 0.000795968 0.000271617)
(-0.000822383 0.000663238 0.000271617)
(-0.000925059 0.000510357 0.000271617)
(-0.000999629 0.000341968 0.000271617)
(-0.00104382 0.00016319 0.000271617)
(-0.0010563 -2.05481e-05 0.000271617)
(-0.00103669 -0.000203661 0.000271617)
(-0.000985574 -0.000380585 0.000271617)
(-0.000904512 -0.000545946 0.000271617)
(-0.000795968 -0.000694719 0.000271617)
(-0.000663238 -0.000822383 0.000271617)
(-0.000510357 -0.000925059 0.000271617)
(-0.000341968 -0.000999629 0.000271617)
(-0.00016319 -0.00104382 0.000271617)
(2.05482e-05 -0.0010563 0.000271617)
(0.000203661 -0.00103669 0.000271617)
(0.000380585 -0.000985574 0.000271617)
(0.000545946 -0.000904512 0.000271617)
(0.000694719 -0.000795968 0.000271617)
(0.000822383 -0.000663238 0.000271617)
(0.000925059 -0.000510357 0.000271617)
(0.000999629 -0.000341968 0.000271617)
(0.00104382 -0.00016319 0.000271617)
(0.0010563 2.05481e-05 0.000271617)
(0.00103669 0.000203661 0.000271617)
(0.000985574 0.000380585 0.000271617)
(0.000904512 0.000545946 0.000271617)
(0.000795968 0.000694719 0.000271617)
(0.000663238 0.000822383 0.000271617)
(0.000510357 0.000925059 0.000271617)
(0.000341968 0.000999629 0.000271617)
(0.00016319 0.00104382 0.000271617)
(0.000274232 0.00148451 0.00034598)
(1.22834e-05 0.00150958 0.00034598)
(-0.000250039 0.00148878 0.00034598)
(-0.000504764 0.00142274 0.000345982)
(-0.000744152 0.00131348 0.000345982)
(-0.000960928 0.0011643 0.000345982)
(-0.00114851 0.000979749 0.000345982)
(-0.00130119 0.000765428 0.000345981)
(-0.00141434 0.000527849 0.00034598)
(-0.00148451 0.000274232 0.00034598)
(-0.00150958 1.22833e-05 0.00034598)
(-0.00148878 -0.000250039 0.00034598)
(-0.00142274 -0.000504764 0.000345982)
(-0.00131348 -0.000744152 0.000345982)
(-0.0011643 -0.000960928 0.000345982)
(-0.000979749 -0.00114851 0.000345982)
(-0.000765428 -0.00130119 0.000345981)
(-0.000527849 -0.00141434 0.00034598)
(-0.000274232 -0.00148451 0.00034598)
(-1.22832e-05 -0.00150958 0.00034598)
(0.000250039 -0.00148878 0.00034598)
(0.000504764 -0.00142274 0.000345982)
(0.000744152 -0.00131348 0.000345982)
(0.000960929 -0.0011643 0.000345982)
(0.00114851 -0.000979749 0.000345982)
(0.00130119 -0.000765428 0.000345981)
(0.00141434 -0.000527849 0.00034598)
(0.00148451 -0.000274232 0.00034598)
(0.00150958 -1.22833e-05 0.00034598)
(0.00148878 0.000250039 0.00034598)
(0.00142274 0.000504764 0.000345982)
(0.00131348 0.000744152 0.000345982)
(0.0011643 0.000960928 0.000345982)
(0.000979749 0.00114851 0.000345982)
(0.000765428 0.00130119 0.000345981)
(0.000527849 0.00141434 0.00034598)
(0.000130004 0.0015943 0.000454033)
(-0.000148818 0.00159266 0.000454034)
(-0.000423119 0.00154262 0.000454034)
(-0.000684564 0.00144571 0.000454034)
(-0.000925209 0.00130487 0.000454034)
(-0.00113774 0.00112439 0.000454034)
(-0.0013157 0.00090974 0.000454034)
(-0.00145369 0.000667448 0.000454034)
(-0.00154751 0.000404877 0.000454034)
(-0.0015943 0.000130004 0.000454033)
(-0.00159266 -0.000148818 0.000454034)
(-0.00154262 -0.000423119 0.000454033)
(-0.00144571 -0.000684564 0.000454034)
(-0.00130487 -0.000925209 0.000454034)
(-0.00112439 -0.00113774 0.000454034)
(-0.00090974 -0.0013157 0.000454034)
(-0.000667448 -0.00145369 0.000454034)
(-0.000404877 -0.00154751 0.000454034)
(-0.000130004 -0.0015943 0.000454033)
(0.000148818 -0.00159266 0.000454033)
(0.00042312 -0.00154262 0.000454033)
(0.000684564 -0.00144571 0.000454034)
(0.000925209 -0.00130487 0.000454034)
(0.00113774 -0.00112439 0.000454034)
(0.0013157 -0.00090974 0.000454034)
(0.00145369 -0.000667448 0.000454034)
(0.00154751 -0.000404877 0.000454034)
(0.0015943 -0.000130004 0.000454033)
(0.00159266 0.000148818 0.000454034)
(0.00154262 0.000423119 0.000454034)
(0.00144571 0.000684564 0.000454034)
(0.00130487 0.000925209 0.000454035)
(0.00112439 0.00113774 0.000454034)
(0.00090974 0.0013157 0.000454034)
(0.000667449 0.00145369 0.000454034)
(0.000404877 0.00154751 0.000454034)
(-4.44401e-05 0.0016882 0.000542739)
(-0.000336917 0.00165483 0.000542739)
(-0.000619156 0.00157119 0.000542739)
(-0.000882584 0.0014398 0.000542739)
(-0.00111919 0.00126467 0.000542739)
(-0.0013218 0.00105111 0.000542739)
(-0.00148424 0.000805613 0.000542739)
(-0.00160158 0.000535638 0.000542739)
(-0.00167027 0.000249388 0.000542739)
(-0.0016882 -4.44402e-05 0.000542739)
(-0.00165483 -0.000336917 0.000542739)
(-0.00157119 -0.000619156 0.000542739)
(-0.0014398 -0.000882584 0.000542739)
(-0.00126467 -0.00111919 0.000542739)
(-0.00105111 -0.0013218 0.000542739)
(-0.000805613 -0.00148424 0.000542739)
(-0.000535638 -0.00160158 0.000542739)
(-0.000249388 -0.00167027 0.000542739)
(4.44402e-05 -0.0016882 0.000542739)
(0.000336917 -0.00165483 0.000542739)
(0.000619156 -0.00157119 0.000542739)
(0.000882584 -0.0014398 0.000542739)
(0.00111919 -0.00126467 0.000542739)
(0.0013218 -0.00105111 0.000542739)
(0.00148424 -0.000805613 0.000542739)
(0.00160158 -0.000535638 0.000542739)
(0.00167027 -0.000249388 0.000542739)
(0.0016882 4.44402e-05 0.000542739)
(0.00165483 0.000336917 0.000542739)
(0.00157119 0.000619156 0.000542739)
(0.0014398 0.000882584 0.000542739)
(0.00126467 0.00111919 0.000542739)
(0.00105111 0.0013218 0.000542739)
(0.000805613 0.00148424 0.000542739)
(0.000535638 0.00160158 0.000542739)
(0.000249388 0.00167027 0.000542739)
(0.000241251 0.00208053 0.000618338)
(-0.000123694 0.00209081 0.000618338)
(-0.000484881 0.00203757 0.000618338)
(-0.000831335 0.00192242 0.000618339)
(-0.00115253 0.00174885 0.00061834)
(-0.0014387 0.00152215 0.00061834)
(-0.00168116 0.00124919 0.00061834)
(-0.00187254 0.000938284 0.00061834)
(-0.00200703 0.000598866 0.000618339)
(-0.00208053 0.000241251 0.000618338)
(-0.00209081 -0.000123694 0.000618338)
(-0.00203757 -0.000484881 0.000618338)
(-0.00192242 -0.000831335 0.000618339)
(-0.00174885 -0.00115253 0.00061834)
(-0.00152215 -0.0014387 0.00061834)
(-0.00124919 -0.00168116 0.00061834)
(-0.000938284 -0.00187254 0.00061834)
(-0.000598866 -0.00200703 0.000618339)
(-0.000241251 -0.00208053 0.000618338)
(0.000123694 -0.00209081 0.000618338)
(0.000484881 -0.00203757 0.000618338)
(0.000831335 -0.00192242 0.000618339)
(0.00115253 -0.00174885 0.00061834)
(0.0014387 -0.00152215 0.00061834)
(0.00168116 -0.00124919 0.00061834)
(0.00187254 -0.000938284 0.00061834)
(0.00200703 -0.000598866 0.000618339)
(0.00208053 -0.000241251 0.000618338)
(0.00209081 0.000123694 0.000618338)
(0.00203757 0.000484881 0.000618338)
(0.00192242 0.000831335 0.000618339)
(0.00174885 0.00115253 0.00061834)
(0.00152215 0.0014387 0.00061834)
(0.00124919 0.00168116 0.00061834)
(0.000938285 0.00187254 0.00061834)
(0.000598866 0.00200703 0.000618339)
(7.92771e-05 0.00217518 0.000732883)
(-0.000299644 0.0021559 0.000732882)
(-0.00066946 0.00207112 0.000732883)
(-0.00101893 0.0019234 0.000732883)
(-0.00133745 0.00171725 0.000732883)
(-0.00161533 0.00145891 0.000732883)
(-0.00184412 0.00115625 0.000732884)
(-0.00201689 0.000818453 0.000732883)
(-0.00212837 0.000455789 0.000732883)
(-0.00217518 7.9277e-05 0.000732883)
(-0.0021559 -0.000299644 0.000732882)
(-0.00207112 -0.00066946 0.000732883)
(-0.0019234 -0.00101893 0.000732883)
(-0.00171725 -0.00133745 0.000732883)
(-0.00145891 -0.00161533 0.000732883)
(-0.00115625 -0.00184412 0.000732884)
(-0.000818452 -0.00201689 0.000732883)
(-0.000455789 -0.00212837 0.000732883)
(-7.92769e-05 -0.00217518 0.000732883)
(0.000299644 -0.0021559 0.000732882)
(0.00066946 -0.00207112 0.000732883)
(0.00101893 -0.0019234 0.000732883)
(0.00133745 -0.00171725 0.000732883)
(0.00161533 -0.00145891 0.000732883)
(0.00184412 -0.00115625 0.000732884)
(0.00201689 -0.000818453 0.000732883)
(0.00212837 -0.000455789 0.000732883)
(0.00217518 -7.9277e-05 0.000732883)
(0.0021559 0.000299644 0.000732882)
(0.00207112 0.00066946 0.000732883)
(0.0019234 0.00101893 0.000732883)
(0.00171725 0.00133745 0.000732883)
(0.00145891 0.00161533 0.000732883)
(0.00115625 0.00184412 0.000732884)
(0.000818453 0.00201689 0.000732883)
(0.000455789 0.00212837 0.000732883)
(-0.000108668 0.00225388 0.000829785)
(-0.0004984 0.00220077 0.000829785)
(-0.000872987 0.00208079 0.000829785)
(-0.00122105 0.00189759 0.000829785)
(-0.00153201 0.00165673 0.000829785)
(-0.00179642 0.00136553 0.000829785)
(-0.00200625 0.00103283 0.000829785)
(-0.00215512 0.00066876 0.000829785)
(-0.00223851 0.000284366 0.000829785)
(-0.00225388 -0.000108668 0.000829785)
(-0.00220077 -0.0004984 0.000829785)
(-0.00208079 -0.000872988 0.000829785)
(-0.00189759 -0.00122105 0.000829785)
(-0.00165673 -0.00153201 0.000829785)
(-0.00136553 -0.00179642 0.000829785)
(-0.00103283 -0.00200625 0.000829785)
(-0.00066876 -0.00215512 0.000829785)
(-0.000284366 -0.00223851 0.000829785)
(0.000108668 -0.00225388 0.000829785)
(0.0004984 -0.00220077 0.000829785)
(0.000872988 -0.00208079 0.000829785)
(0.00122105 -0.00189759 0.000829785)
(0.00153201 -0.00165673 0.000829785)
(0.00179642 -0.00136553 0.000829785)
(0.00200625 -0.00103283 0.000829785)
(0.00215512 -0.00066876 0.000829785)
(0.00223851 -0.000284366 0.000829785)
(0.00225388 0.000108668 0.000829785)
(0.00220077 0.0004984 0.000829785)
(0.00208079 0.000872988 0.000829785)
(0.00189759 0.00122105 0.000829785)
(0.00165673 0.00153201 0.000829785)
(0.00136553 0.00179642 0.000829785)
(0.00103283 0.00200625 0.000829785)
(0.00066876 0.00215512 0.000829785)
(0.000284366 0.00223851 0.000829785)
(0.00013606 0.0026367 0.000914149)
(-0.000323865 0.00262027 0.000914148)
(-0.000773951 0.00252423 0.000914148)
(-0.00120052 0.00235148 0.000914149)
(-0.00159061 0.00210729 0.000914149)
(-0.00193237 0.00179907 0.00091415)
(-0.00221542 0.00143618 0.00091415)
(-0.00243115 0.00102966 0.00091415)
(-0.00257302 0.000591852 0.00091415)
(-0.0026367 0.00013606 0.000914149)
(-0.00262027 -0.000323865 0.000914148)
(-0.00252423 -0.000773951 0.000914148)
(-0.00235148 -0.00120052 0.000914149)
(-0.00210729 -0.00159061 0.000914149)
(-0.00179907 -0.00193237 0.00091415)
(-0.00143618 -0.00221542 0.00091415)
(-0.00102966 -0.00243115 0.00091415)
(-0.000591852 -0.00257302 0.000914149)
(-0.00013606 -0.0026367 0.000914149)
(0.000323865 -0.00262027 0.000914148)
(0.000773951 -0.00252423 0.000914148)
(0.00120052 -0.00235148 0.000914149)
(0.00159061 -0.00210729 0.000914149)
(0.00193237 -0.00179907 0.00091415)
(0.00221542 -0.00143618 0.00091415)
(0.00243115 -0.00102966 0.00091415)
(0.00257302 -0.000591852 0.00091415)
(0.0026367 -0.00013606 0.000914149)
(0.00262027 0.000323865 0.000914148)
(0.00252423 0.000773951 0.000914148)
(0.00235148 0.00120052 0.000914149)
(0.00210729 0.00159061 0.000914149)
(0.00179907 0.00193237 0.00091415)
(0.00143618 0.00221542 0.00091415)
(0.00102966 0.00243115 0.00091415)
(0.000591852 0.00257302 0.00091415)
(-2.7776e-05 0.00269619 0.00102435)
(-0.000495542 0.0026504 0.00102435)
(-0.000948251 0.00252409 0.00102435)
(-0.00137215 0.00232108 0.00102435)
(-0.00175435 0.00204755 0.00102435)
(-0.00208325 0.0017118 0.00102435)
(-0.00234885 0.00132404 0.00102435)
(-0.00254309 0.00089605 0.00102435)
(-0.00266005 0.000440834 0.00102435)
(-0.00269619 -2.77762e-05 0.00102435)
(-0.0026504 -0.000495542 0.00102435)
(-0.00252409 -0.000948251 0.00102435)
(-0.00232108 -0.00137215 0.00102435)
(-0.00204755 -0.00175435 0.00102435)
(-0.0017118 -0.00208325 0.00102435)
(-0.00132404 -0.00234885 0.00102435)
(-0.00089605 -0.00254309 0.00102435)
(-0.000440834 -0.00266005 0.00102435)
(2.77763e-05 -0.00269619 0.00102435)
(0.000495542 -0.0026504 0.00102435)
(0.000948252 -0.00252409 0.00102435)
(0.00137215 -0.00232108 0.00102435)
(0.00175435 -0.00204755 0.00102435)
(0.00208325 -0.0017118 0.00102435)
(0.00234885 -0.00132404 0.00102435)
(0.00254309 -0.00089605 0.00102435)
(0.00266005 -0.000440834 0.00102435)
(0.00269619 2.77762e-05 0.00102435)
(0.0026504 0.000495542 0.00102435)
(0.00252409 0.000948251 0.00102435)
(0.00232108 0.00137215 0.00102435)
(0.00204755 0.00175435 0.00102435)
(0.0017118 0.00208325 0.00102435)
(0.00132404 0.00234885 0.00102435)
(0.00089605 0.00254309 0.00102435)
(0.000440834 0.00266005 0.00102435)
(-0.000213573 0.00274121 0.00111756)
(-0.000686335 0.00266248 0.00111756)
(-0.00113824 0.00250285 0.00111756)
(-0.00155557 0.00226717 0.00111756)
(-0.00192562 0.00196261 0.00111756)
(-0.00223717 0.00159841 0.00111756)
(-0.00248075 0.00118565 0.00111756)
(-0.00264894 0.000736857 0.00111756)
(-0.00273665 0.000265679 0.00111756)
(-0.00274121 -0.000213573 0.00111756)
(-0.00266248 -0.000686335 0.00111756)
(-0.00250285 -0.00113824 0.00111756)
(-0.00226717 -0.00155557 0.00111756)
(-0.00196261 -0.00192562 0.00111756)
(-0.00159841 -0.00223717 0.00111756)
(-0.00118565 -0.00248075 0.00111756)
(-0.000736857 -0.00264894 0.00111756)
(-0.000265678 -0.00273665 0.00111756)
(0.000213573 -0.00274121 0.00111756)
(0.000686335 -0.00266248 0.00111756)
(0.00113824 -0.00250285 0.00111756)
(0.00155557 -0.00226717 0.00111756)
(0.00192562 -0.00196261 0.00111756)
(0.00223717 -0.00159841 0.00111756)
(0.00248075 -0.00118565 0.00111756)
(0.00264894 -0.000736857 0.00111756)
(0.00273665 -0.000265679 0.00111756)
(0.00274121 0.000213573 0.00111756)
(0.00266248 0.000686335 0.00111756)
(0.00250285 0.00113824 0.00111756)
(0.00226717 0.00155557 0.00111756)
(0.00196261 0.00192562 0.00111756)
(0.00159841 0.00223717 0.00111756)
(0.00118565 0.00248075 0.00111756)
(0.000736857 0.00264894 0.00111756)
(0.000265679 0.00273665 0.00111756)
(-1.9463e-05 0.003126 0.00122043)
(-0.000561991 0.00307513 0.00122043)
(-0.00108744 0.00293082 0.00122043)
(-0.00157985 0.00269746 0.00122043)
(-0.00202426 0.00238214 0.00122043)
(-0.00240716 0.00199444 0.00122043)
(-0.00271692 0.00154614 0.00122043)
(-0.00294413 0.00105087 0.00122043)
(-0.00308189 0.000523657 0.00122043)
(-0.003126 -1.94632e-05 0.00122043)
(-0.00307513 -0.000561991 0.00122043)
(-0.00293082 -0.00108744 0.00122043)
(-0.00269746 -0.00157985 0.00122043)
(-0.00238214 -0.00202426 0.00122043)
(-0.00199444 -0.00240716 0.00122043)
(-0.00154614 -0.00271692 0.00122043)
(-0.00105086 -0.00294413 0.00122043)
(-0.000523656 -0.00308189 0.00122043)
(1.94634e-05 -0.003126 0.00122043)
(0.000561991 -0.00307513 0.00122043)
(0.00108744 -0.00293082 0.00122043)
(0.00157985 -0.00269746 0.00122043)
(0.00202426 -0.00238214 0.00122043)
(0.00240716 -0.00199444 0.00122043)
(0.00271692 -0.00154614 0.00122043)
(0.00294413 -0.00105087 0.00122043)
(0.00308189 -0.000523657 0.00122043)
(0.003126 1.94632e-05 0.00122043)
(0.00307513 0.000561991 0.00122043)
(0.00293082 0.00108744 0.00122043)
(0.00269746 0.00157985 0.00122043)
(0.00238214 0.00202426 0.00122043)
(0.00199444 0.00240716 0.00122043)
(0.00154614 0.00271692 0.00122043)
(0.00105087 0.00294413 0.00122043)
(0.000523657 0.00308189 0.00122043)
(-0.00017691 0.00313818 0.0013186)
(-0.000719162 0.00305978 0.0013186)
(-0.00123956 0.00288842 0.0013186)
(-0.0017223 0.00262929 0.0013186)
(-0.0021527 0.00229027 0.0013186)
(-0.0025177 0.00188166 0.0013186)
(-0.0028062 0.00141588 0.0013186)
(-0.00300943 0.00090708 0.0013186)
(-0.00312122 0.000370716 0.0013186)
(-0.00313818 -0.00017691 0.0013186)
(-0.00305978 -0.000719163 0.0013186)
(-0.00288842 -0.00123956 0.0013186)
(-0.00262929 -0.0017223 0.0013186)
(-0.00229027 -0.0021527 0.0013186)
(-0.00188166 -0.0025177 0.0013186)
(-0.00141588 -0.0028062 0.0013186)
(-0.00090708 -0.00300943 0.0013186)
(-0.000370716 -0.00312122 0.0013186)
(0.000176911 -0.00313818 0.0013186)
(0.000719163 -0.00305978 0.0013186)
(0.00123956 -0.00288842 0.0013186)
(0.0017223 -0.00262929 0.0013186)
(0.0021527 -0.00229027 0.0013186)
(0.0025177 -0.00188166 0.0013186)
(0.0028062 -0.00141588 0.0013186)
(0.00300943 -0.00090708 0.0013186)
(0.00312122 -0.000370716 0.0013186)
(0.00313818 0.00017691 0.0013186)
(0.00305978 0.000719163 0.0013186)
(0.00288842 0.00123956 0.0013186)
(0.00262929 0.0017223 0.0013186)
(0.00229027 0.0021527 0.0013186)
(0.00188166 0.0025177 0.0013186)
(0.00141588 0.0028062 0.0013186)
(0.00090708 0.00300943 0.0013186)
(0.000370717 0.00312122 0.0013186)
(-0.000351977 0.00313875 0.00139982)
(-0.000891668 0.00302995 0.00139982)
(-0.00140427 0.00282908 0.00139982)
(-0.0018742 0.00254225 0.00139982)
(-0.00228718 0.00217818 0.00139982)
(-0.00263067 0.00174792 0.00139982)
(-0.00289422 0.00126456 0.00139982)
(-0.00306984 0.000742766 0.00139982)
(-0.00315219 0.000198409 0.00139981)
(-0.00313875 -0.000351977 0.00139981)
(-0.00302995 -0.000891669 0.00139982)
(-0.00282908 -0.00140427 0.00139981)
(-0.00254225 -0.0018742 0.00139982)
(-0.00217818 -0.00228718 0.00139982)
(-0.00174792 -0.00263067 0.00139982)
(-0.00126455 -0.00289422 0.00139981)
(-0.000742766 -0.00306984 0.00139982)
(-0.000198409 -0.00315219 0.00139981)
(0.000351977 -0.00313875 0.00139981)
(0.000891669 -0.00302995 0.00139982)
(0.00140427 -0.00282908 0.00139981)
(0.0018742 -0.00254225 0.00139982)
(0.00228718 -0.00217818 0.00139982)
(0.00263067 -0.00174792 0.00139982)
(0.00289422 -0.00126456 0.00139982)
(0.00306984 -0.000742766 0.00139982)
(0.00315219 -0.000198409 0.00139982)
(0.00313875 0.000351977 0.00139982)
(0.00302995 0.000891669 0.00139982)
(0.00282908 0.00140427 0.00139982)
(0.00254225 0.0018742 0.00139982)
(0.00217818 0.00228718 0.00139982)
(0.00174792 0.00263067 0.00139982)
(0.00126456 0.00289422 0.00139982)
(0.000742767 0.00306984 0.00139982)
(0.000198409 0.00315219 0.00139982)
(-0.000198599 0.00352537 0.00153698)
(-0.000807756 0.00343733 0.00153698)
(-0.00139237 0.00324484 0.00153698)
(-0.00193468 0.00295376 0.00153698)
(-0.0024182 0.00257293 0.00153698)
(-0.00282825 0.00211393 0.00153698)
(-0.00315236 0.00159069 0.00153698)
(-0.00338069 0.00101912 0.00153698)
(-0.0035063 0.000416591 0.00153698)
(-0.00352537 -0.000198599 0.00153698)
(-0.00343733 -0.000807756 0.00153698)
(-0.00324484 -0.00139237 0.00153698)
(-0.00295376 -0.00193468 0.00153698)
(-0.00257293 -0.0024182 0.00153698)
(-0.00211393 -0.00282825 0.00153698)
(-0.00159069 -0.00315236 0.00153698)
(-0.00101912 -0.00338069 0.00153698)
(-0.000416591 -0.0035063 0.00153698)
(0.000198599 -0.00352537 0.00153698)
(0.000807756 -0.00343733 0.00153698)
(0.00139237 -0.00324484 0.00153698)
(0.00193468 -0.00295376 0.00153698)
(0.0024182 -0.00257293 0.00153698)
(0.00282825 -0.00211393 0.00153698)
(0.00315236 -0.00159069 0.00153698)
(0.00338069 -0.00101912 0.00153698)
(0.0035063 -0.000416591 0.00153698)
(0.00352537 0.000198599 0.00153698)
(0.00343733 0.000807756 0.00153698)
(0.00324484 0.00139237 0.00153698)
(0.00295376 0.00193468 0.00153698)
(0.00257293 0.0024182 0.00153698)
(0.00211393 0.00282825 0.00153698)
(0.00159069 0.00315236 0.00153698)
(0.00101912 0.00338069 0.00153698)
(0.000416591 0.0035063 0.00153698)
(-0.000347641 0.00348262 0.00161649)
(-0.00094711 0.00336934 0.00161649)
(-0.0015178 0.00315369 0.00161649)
(-0.00204237 0.00284221 0.00161649)
(-0.00250489 0.00244438 0.00161649)
(-0.0028913 0.00197227 0.00161649)
(-0.00318985 0.00144024 0.00161649)
(-0.00339149 0.000864449 0.00161649)
(-0.00349007 0.000262389 0.00161649)
(-0.00348261 -0.000347641 0.00161649)
(-0.00336934 -0.00094711 0.00161649)
(-0.00315369 -0.0015178 0.00161649)
(-0.00284221 -0.00204237 0.00161649)
(-0.00244438 -0.00250489 0.00161649)
(-0.00197227 -0.0028913 0.00161649)
(-0.00144024 -0.00318985 0.00161649)
(-0.000864448 -0.00339149 0.00161649)
(-0.000262388 -0.00349007 0.00161649)
(0.000347642 -0.00348262 0.00161649)
(0.00094711 -0.00336934 0.00161649)
(0.0015178 -0.00315369 0.00161649)
(0.00204237 -0.00284221 0.00161649)
(0.00250489 -0.00244438 0.00161649)
(0.0028913 -0.00197227 0.00161649)
(0.00318985 -0.00144024 0.00161649)
(0.00339149 -0.000864449 0.00161649)
(0.00349007 -0.000262389 0.00161649)
(0.00348262 0.000347641 0.00161649)
(0.00336934 0.00094711 0.00161649)
(0.00315369 0.0015178 0.00161649)
(0.00284221 0.00204237 0.00161649)
(0.00244438 0.00250489 0.00161649)
(0.00197227 0.0028913 0.00161649)
(0.00144024 0.00318985 0.00161649)
(0.000864449 0.00339149 0.00161649)
(0.000262389 0.00349007 0.00161649)
(-0.000509121 0.00343297 0.00167843)
(-0.00109751 0.0032924 0.00167843)
(-0.00165256 0.0030518 0.00167843)
(-0.00215739 0.00271848 0.00167843)
(-0.00259668 0.00230255 0.00167843)
(-0.00295706 0.00181666 0.00167843)
(-0.0032276 0.00127557 0.00167843)
(-0.00340006 0.000695728 0.00167843)
(-0.00346922 9.47432e-05 0.00167843)
(-0.00343297 -0.000509121 0.00167843)
(-0.0032924 -0.00109751 0.00167843)
(-0.0030518 -0.00165256 0.00167843)
(-0.00271848 -0.00215739 0.00167843)
(-0.00230255 -0.00259668 0.00167843)
(-0.00181666 -0.00295706 0.00167843)
(-0.00127557 -0.0032276 0.00167843)
(-0.000695727 -0.00340006 0.00167843)
(-9.4743e-05 -0.00346922 0.00167843)
(0.000509121 -0.00343297 0.00167843)
(0.00109751 -0.0032924 0.00167843)
(0.00165256 -0.0030518 0.00167843)
(0.00215739 -0.00271848 0.00167843)
(0.00259668 -0.00230255 0.00167843)
(0.00295706 -0.00181666 0.00167843)
(0.0032276 -0.00127557 0.00167843)
(0.00340006 -0.000695728 0.00167843)
(0.00346922 -9.47432e-05 0.00167843)
(0.00343297 0.000509121 0.00167843)
(0.0032924 0.00109751 0.00167843)
(0.0030518 0.00165256 0.00167843)
(0.00271848 0.00215739 0.00167843)
(0.00230255 0.00259668 0.00167843)
(0.00181666 0.00295706 0.00167843)
(0.00127557 0.0032276 0.00167843)
(0.000695728 0.00340006 0.00167843)
(9.47434e-05 0.00346922 0.00167843)
(-0.000372488 0.00381534 0.00187241)
(-0.00102936 0.0036927 0.00187241)
(-0.00165495 0.00345785 0.00187241)
(-0.00223026 0.00311794 0.00187241)
(-0.0027378 0.00268329 0.00187241)
(-0.00316215 0.00216711 0.00187241)
(-0.00349043 0.00158509 0.00187241)
(-0.00371265 0.000954897 0.00187241)
(-0.00382206 0.000295696 0.00187241)
(-0.00381534 -0.000372488 0.00187241)
(-0.0036927 -0.00102936 0.00187241)
(-0.00345785 -0.00165495 0.00187241)
(-0.00311794 -0.00223026 0.00187241)
(-0.00268329 -0.0027378 0.00187241)
(-0.00216711 -0.00316215 0.00187241)
(-0.00158509 -0.00349043 0.00187241)
(-0.000954897 -0.00371265 0.00187241)
(-0.000295695 -0.00382206 0.00187241)
(0.000372489 -0.00381534 0.00187241)
(0.00102936 -0.0036927 0.00187241)
(0.00165495 -0.00345785 0.00187241)
(0.00223026 -0.00311794 0.00187241)
(0.0027378 -0.00268329 0.00187241)
(0.00316215 -0.00216711 0.00187241)
(0.00349043 -0.00158509 0.00187241)