/*--------------------------------*- C++ -*----------------------------------*\
| =========                 |                                                 |
| \\      /  F ield         | OpenFOAM: The Open Source CFD Toolbox           |
|  \\    /   O peration     | Version:  2312                                  |
|   \\  /    A nd           | Website:  www.openfoam.com                      |
|    \\/     M anipulation  |                                                 |
\*---------------------------------------------------------------------------*/
FoamFile
{
    version     2.0;
    format      ascii;
    arch        "LSB;label=32;scalar=64";
    class       volVectorField;
    location    "0.7";
    object      D_0_0_0;
}
// * * * * * * * * * * * * * * * * * * * * * * * * * * * * * * * * * * * * * //

dimensions      [0 1 0 0 0 0 0];

internalField   nonuniform List<vector> 
1620
(
(0.000117158 0.000270736 -7.90033e-06)
(6.83651e-05 0.000286967 -7.90048e-06)
(1.74955e-05 0.000294479 -7.90035e-06)
(-3.39058e-05 0.000293044 -7.90011e-06)
(-8.42773e-05 0.000282704 -7.90013e-06)
(-0.000132088 0.000263775 -7.90023e-06)
(-0.000175885 0.00023683 -7.89984e-06)
(-0.000214338 0.00020269 -7.89989e-06)
(-0.000246279 0.000162391 -7.90027e-06)
(-0.000270736 0.000117158 -7.90034e-06)
(-0.000286967 6.83651e-05 -7.90049e-06)
(-0.000294479 1.74955e-05 -7.90036e-06)
(-0.000293044 -3.39059e-05 -7.90012e-06)
(-0.000282704 -8.42774e-05 -7.90014e-06)
(-0.000263775 -0.000132088 -7.90024e-06)
(-0.00023683 -0.000175885 -7.89985e-06)
(-0.00020269 -0.000214338 -7.8999e-06)
(-0.000162391 -0.000246279 -7.90027e-06)
(-0.000117158 -0.000270736 -7.90034e-06)
(-6.83651e-05 -0.000286967 -7.90049e-06)
(-1.74955e-05 -0.000294479 -7.90036e-06)
(3.39059e-05 -0.000293044 -7.90011e-06)
(8.42774e-05 -0.000282704 -7.90014e-06)
(0.000132088 -0.000263775 -7.90023e-06)
(0.000175885 -0.00023683 -7.89984e-06)
(0.000214338 -0.00020269 -7.89989e-06)
(0.000246279 -0.000162391 -7.90027e-06)
(0.000270736 -0.000117158 -7.90033e-06)
(0.000286967 -6.83651e-05 -7.90048e-06)
(0.000294479 -1.74955e-05 -7.90035e-06)
(0.000293044 3.39059e-05 -7.90011e-06)
(0.000282704 8.42774e-05 -7.90013e-06)
(0.000263775 0.000132088 -7.90022e-06)
(0.00023683 0.000175885 -7.89984e-06)
(0.00020269 0.000214338 -7.89988e-06)
(0.000162391 0.000246279 -7.90026e-06)
(5.51002e-05 0.000325194 3.94358e-05)
(-2.20623e-06 0.000329822 3.94358e-05)
(-5.94453e-05 0.000324428 3.94359e-05)
(-0.000114878 0.000309176 3.9436e-05)
(-0.000166821 0.000284531 3.9436e-05)
(-0.000213695 0.00025124 3.9436e-05)
(-0.000254076 0.000210315 3.9436e-05)
(-0.000286737 0.000163 3.94359e-05)
(-0.000310686 0.000110732 3.94358e-05)
(-0.000325194 5.51002e-05 3.94358e-05)
(-0.000329822 -2.20625e-06 3.94358e-05)
(-0.000324428 -5.94453e-05 3.94359e-05)
(-0.000309176 -0.000114878 3.9436e-05)
(-0.000284531 -0.000166821 3.9436e-05)
(-0.00025124 -0.000213695 3.9436e-05)
(-0.000210315 -0.000254076 3.9436e-05)
(-0.000163 -0.000286737 3.94359e-05)
(-0.000110732 -0.000310686 3.94358e-05)
(-5.51002e-05 -0.000325194 3.94358e-05)
(2.20626e-06 -0.000329822 3.94358e-05)
(5.94453e-05 -0.000324428 3.94359e-05)
(0.000114878 -0.000309176 3.9436e-05)
(0.000166821 -0.000284531 3.9436e-05)
(0.000213695 -0.00025124 3.9436e-05)
(0.000254076 -0.000210315 3.9436e-05)
(0.000286737 -0.000163 3.94359e-05)
(0.000310686 -0.000110732 3.94358e-05)
(0.000325194 -5.51002e-05 3.94358e-05)
(0.000329822 2.20625e-06 3.94358e-05)
(0.000324428 5.94453e-05 3.94359e-05)
(0.000309176 0.000114878 3.9436e-05)
(0.000284531 0.000166821 3.9436e-05)
(0.00025124 0.000213695 3.9436e-05)
(0.000210315 0.000254076 3.9436e-05)
(0.000163 0.000286737 3.94359e-05)
(0.000110732 0.000310686 3.94358e-05)
(-3.5208e-05 0.000375083 4.77702e-05)
(-9.98056e-05 0.000363271 4.77704e-05)
(-0.000161371 0.000340421 4.77703e-05)
(-0.000218033 0.000307227 4.77703e-05)
(-0.00026807 0.0002647 4.77706e-05)
(-0.000309962 0.000214128 4.77704e-05)
(-0.000342436 0.00015705 4.77704e-05)
(-0.000364505 9.5201e-05 4.77701e-05)
(-0.000375498 3.04592e-05 4.77702e-05)
(-0.000375083 -3.52081e-05 4.77702e-05)
(-0.000363271 -9.98056e-05 4.77704e-05)
(-0.000340421 -0.000161371 4.77703e-05)
(-0.000307227 -0.000218033 4.77703e-05)
(-0.0002647 -0.00026807 4.77706e-05)
(-0.000214128 -0.000309962 4.77704e-05)
(-0.00015705 -0.000342436 4.77704e-05)
(-9.5201e-05 -0.000364505 4.77701e-05)
(-3.04592e-05 -0.000375498 4.77702e-05)
(3.52081e-05 -0.000375083 4.77702e-05)
(9.98056e-05 -0.000363271 4.77704e-05)
(0.000161371 -0.000340421 4.77703e-05)
(0.000218033 -0.000307227 4.77703e-05)
(0.00026807 -0.0002647 4.77706e-05)
(0.000309962 -0.000214128 4.77704e-05)
(0.000342436 -0.00015705 4.77704e-05)
(0.000364505 -9.5201e-05 4.77701e-05)
(0.000375498 -3.04592e-05 4.77702e-05)
(0.000375083 3.52081e-05 4.77702e-05)
(0.000363271 9.98056e-05 4.77704e-05)
(0.000340421 0.000161371 4.77703e-05)
(0.000307227 0.000218033 4.77703e-05)
(0.0002647 0.00026807 4.77706e-05)
(0.000214128 0.000309962 4.77704e-05)
(0.00015705 0.000342436 4.77704e-05)
(9.5201e-05 0.000364505 4.77701e-05)
(3.04592e-05 0.000375498 4.77702e-05)
(0.000223054 0.000872483 0.000123227)
(6.81601e-05 0.000897962 0.000123227)
(-8.88045e-05 0.000896156 0.000123227)
(-0.000243071 0.00086712 0.000123228)
(-0.000389952 0.000811738 0.000123229)
(-0.000524984 0.000731692 0.000123229)
(-0.000644066 0.000629413 0.000123229)
(-0.000743578 0.000508009 0.000123228)
(-0.000820495 0.00037117 0.000123227)
(-0.000872483 0.000223054 0.000123227)
(-0.000897962 6.816e-05 0.000123227)
(-0.000896156 -8.88046e-05 0.000123227)
(-0.00086712 -0.000243071 0.000123228)
(-0.000811738 -0.000389952 0.000123229)
(-0.000731692 -0.000524984 0.000123228)
(-0.000629413 -0.000644066 0.000123229)
(-0.000508009 -0.000743578 0.000123228)
(-0.00037117 -0.000820495 0.000123227)
(-0.000223053 -0.000872483 0.000123227)
(-6.816e-05 -0.000897962 0.000123227)
(8.88046e-05 -0.000896156 0.000123227)
(0.000243071 -0.00086712 0.000123228)
(0.000389952 -0.000811738 0.000123229)
(0.000524984 -0.000731692 0.000123229)
(0.000644066 -0.000629413 0.000123229)
(0.000743578 -0.000508009 0.000123228)
(0.000820496 -0.00037117 0.000123227)
(0.000872483 -0.000223054 0.000123227)
(0.000897962 -6.816e-05 0.000123227)
(0.000896156 8.88046e-05 0.000123227)
(0.00086712 0.000243071 0.000123228)
(0.000811738 0.000389952 0.000123229)
(0.000731692 0.000524984 0.000123229)
(0.000629413 0.000644066 0.000123229)
(0.000508009 0.000743578 0.000123228)
(0.00037117 0.000820496 0.000123227)
(0.000118706 0.000967462 0.000208039)
(-5.1095e-05 0.000973377 0.000208039)
(-0.000219344 0.000949717 0.000208039)
(-0.000380927 0.0008972 0.00020804)
(-0.000530938 0.000817422 0.000208041)
(-0.000664816 0.000712807 0.00020804)
(-0.000778493 0.000586534 0.00020804)
(-0.000868516 0.000442438 0.00020804)
(-0.000932151 0.0002849 0.000208039)
(-0.000967462 0.000118706 0.000208039)
(-0.000973377 -5.10951e-05 0.000208039)
(-0.000949717 -0.000219344 0.000208039)
(-0.0008972 -0.000380927 0.00020804)
(-0.000817422 -0.000530938 0.00020804)
(-0.000712807 -0.000664816 0.00020804)
(-0.000586534 -0.000778493 0.00020804)
(-0.000442438 -0.000868516 0.00020804)
(-0.0002849 -0.000932151 0.000208039)
(-0.000118706 -0.000967462 0.000208039)
(5.10951e-05 -0.000973377 0.000208039)
(0.000219344 -0.000949717 0.000208039)
(0.000380928 -0.0008972 0.00020804)
(0.000530938 -0.000817422 0.00020804)
(0.000664816 -0.000712807 0.00020804)
(0.000778493 -0.000586534 0.00020804)
(0.000868516 -0.000442438 0.00020804)
(0.000932151 -0.0002849 0.000208039)
(0.000967462 -0.000118706 0.000208039)
(0.000973377 5.10951e-05 0.000208039)
(0.000949717 0.000219344 0.000208039)
(0.0008972 0.000380927 0.00020804)
(0.000817422 0.000530938 0.000208041)
(0.000712807 0.000664816 0.00020804)
(0.000586534 0.000778493 0.00020804)
(0.000442438 0.000868516 0.00020804)
(0.0002849 0.000932151 0.000208039)
(-1.94823e-05 0.00104988 0.000269646)
(-0.000201495 0.00103054 0.000269646)
(-0.000377385 0.000979897 0.000269646)
(-0.000541809 0.000899478 0.000269646)
(-0.00068977 0.000791728 0.000269646)
(-0.000816773 0.000659922 0.000269646)
(-0.000918959 0.000508065 0.000269646)
(-0.000993223 0.000340771 0.000269646)
(-0.00103731 0.000163123 0.000269646)
(-0.00104988 -1.94824e-05 0.000269646)
(-0.00103054 -0.000201495 0.000269646)
(-0.000979897 -0.000377385 0.000269646)
(-0.000899478 -0.000541809 0.000269646)
(-0.000791728 -0.00068977 0.000269646)
(-0.000659922 -0.000816773 0.000269646)
(-0.000508065 -0.000918959 0.000269646)
(-0.000340771 -0.000993223 0.000269646)
(-0.000163123 -0.00103731 0.000269646)
(1.94824e-05 -0.00104988 0.000269646)
(0.000201495 -0.00103054 0.000269646)
(0.000377385 -0.000979897 0.000269646)
(0.000541809 -0.000899478 0.000269646)
(0.00068977 -0.000791728 0.000269646)
(0.000816773 -0.000659922 0.000269646)
(0.000918959 -0.000508065 0.000269646)
(0.000993223 -0.000340771 0.000269646)
(0.00103731 -0.000163123 0.000269646)
(0.00104988 1.94824e-05 0.000269646)
(0.00103054 0.000201495 0.000269646)
(0.000979897 0.000377385 0.000269646)
(0.000899478 0.000541809 0.000269646)
(0.000791728 0.00068977 0.000269646)
(0.000659922 0.000816773 0.000269646)
(0.000508065 0.000918959 0.000269646)
(0.000340771 0.000993223 0.000269646)
(0.000163123 0.00103731 0.000269646)
(0.000273652 0.0014792 0.000346132)
(1.26347e-05 0.00150425 0.000346132)
(-0.000248767 0.00148359 0.000346132)
(-0.00050261 0.00141785 0.000346133)
(-0.00074118 0.00130903 0.000346134)
(-0.000957231 0.00116044 0.000346134)
(-0.0011442 0.00097659 0.000346134)
(-0.0012964 0.000763065 0.000346133)
(-0.00140921 0.000526355 0.000346132)
(-0.0014792 0.000273652 0.000346132)
(-0.00150425 1.26346e-05 0.000346132)
(-0.00148359 -0.000248767 0.000346132)
(-0.00141785 -0.00050261 0.000346133)
(-0.00130903 -0.00074118 0.000346134)
(-0.00116044 -0.000957231 0.000346134)
(-0.000976589 -0.0011442 0.000346134)
(-0.000763065 -0.0012964 0.000346133)
(-0.000526355 -0.00140921 0.000346132)
(-0.000273652 -0.0014792 0.000346132)
(-1.26345e-05 -0.00150425 0.000346132)
(0.000248767 -0.00148359 0.000346132)
(0.00050261 -0.00141785 0.000346133)
(0.00074118 -0.00130903 0.000346134)
(0.000957231 -0.00116044 0.000346134)
(0.0011442 -0.00097659 0.000346134)
(0.0012964 -0.000763065 0.000346133)
(0.00140921 -0.000526355 0.000346132)
(0.0014792 -0.000273652 0.000346132)
(0.00150425 -1.26346e-05 0.000346132)
(0.00148359 0.000248767 0.000346132)
(0.00141785 0.00050261 0.000346133)
(0.00130903 0.00074118 0.000346134)
(0.00116044 0.000957231 0.000346134)
(0.00097659 0.0011442 0.000346134)
(0.000763065 0.0012964 0.000346133)
(0.000526355 0.00140921 0.000346132)
(0.000130469 0.00158657 0.00045231)
(-0.000147018 0.00158512 0.000452311)
(-0.000420038 0.00153551 0.000452311)
(-0.000680295 0.00143925 0.000452311)
(-0.000919883 0.00129925 0.000452312)
(-0.00113152 0.00111977 0.000452311)
(-0.00130878 0.000906276 0.000452312)
(-0.00144627 0.00066524 0.000452311)
(-0.00153981 0.000403992 0.000452311)
(-0.00158657 0.000130468 0.00045231)
(-0.00158512 -0.000147018 0.000452311)
(-0.00153551 -0.000420038 0.000452311)
(-0.00143925 -0.000680295 0.000452311)
(-0.00129925 -0.000919883 0.000452312)
(-0.00111977 -0.00113152 0.000452311)
(-0.000906275 -0.00130878 0.000452311)
(-0.00066524 -0.00144627 0.000452311)
(-0.000403992 -0.00153981 0.000452311)
(-0.000130468 -0.00158657 0.00045231)
(0.000147018 -0.00158512 0.000452311)
(0.000420038 -0.00153551 0.000452311)
(0.000680295 -0.00143925 0.000452311)
(0.000919883 -0.00129925 0.000452312)
(0.00113152 -0.00111977 0.000452311)
(0.00130878 -0.000906275 0.000452312)
(0.00144627 -0.00066524 0.000452311)
(0.00153981 -0.000403992 0.000452311)
(0.00158657 -0.000130468 0.00045231)
(0.00158512 0.000147018 0.000452311)
(0.00153551 0.000420038 0.000452311)
(0.00143925 0.000680295 0.000452311)
(0.00129925 0.000919883 0.000452312)
(0.00111977 0.00113152 0.000452312)
(0.000906276 0.00130878 0.000452312)
(0.00066524 0.00144627 0.000452311)
(0.000403992 0.00153981 0.000452311)
(-4.24979e-05 0.0016783 0.000539474)
(-0.000333285 0.00164542 0.000539474)
(-0.000613945 0.00156255 0.000539474)
(-0.000875951 0.0014322 0.000539475)
(-0.00111134 0.00125833 0.000539475)
(-0.00131297 0.00104623 0.000539475)
(-0.00147469 0.000802344 0.000539475)
(-0.00159162 0.000534076 0.000539474)
(-0.00166018 0.000249581 0.000539474)
(-0.0016783 -4.24979e-05 0.000539474)
(-0.00164542 -0.000333285 0.000539474)
(-0.00156255 -0.000613945 0.000539474)
(-0.0014322 -0.000875951 0.000539475)
(-0.00125833 -0.00111134 0.000539475)
(-0.00104623 -0.00131297 0.000539475)
(-0.000802344 -0.00147469 0.000539474)
(-0.000534076 -0.00159162 0.000539474)
(-0.000249581 -0.00166018 0.000539474)
(4.2498e-05 -0.0016783 0.000539474)
(0.000333285 -0.00164542 0.000539474)
(0.000613945 -0.00156255 0.000539474)
(0.000875951 -0.0014322 0.000539475)
(0.00111134 -0.00125833 0.000539475)
(0.00131297 -0.00104623 0.000539475)
(0.00147469 -0.000802344 0.000539475)
(0.00159162 -0.000534076 0.000539474)
(0.00166018 -0.000249581 0.000539474)
(0.0016783 4.2498e-05 0.000539474)
(0.00164542 0.000333285 0.000539474)
(0.00156255 0.000613945 0.000539474)
(0.0014322 0.000875951 0.000539475)
(0.00125833 0.00111134 0.000539475)
(0.00104623 0.00131297 0.000539475)
(0.000802344 0.00147469 0.000539475)
(0.000534077 0.00159162 0.000539474)
(0.000249581 0.00166018 0.000539474)
(0.000242144 0.00207257 0.00061815)
(-0.000121434 0.00208313 0.00061815)
(-0.000481321 0.0020304 0.00061815)
(-0.000826583 0.00191597 0.000618151)
(-0.00114673 0.00174333 0.000618152)
(-0.00143203 0.00151772 0.000618152)
(-0.00167383 0.00124599 0.000618152)
(-0.00186476 0.000936402 0.000618152)
(-0.00199904 0.000598363 0.00061815)
(-0.00207257 0.000242143 0.00061815)
(-0.00208313 -0.000121434 0.00061815)
(-0.0020304 -0.000481321 0.00061815)
(-0.00191597 -0.000826583 0.000618151)
(-0.00174333 -0.00114673 0.000618151)
(-0.00151772 -0.00143203 0.000618152)
(-0.00124599 -0.00167383 0.000618152)
(-0.000936402 -0.00186476 0.000618152)
(-0.000598363 -0.00199904 0.00061815)
(-0.000242143 -0.00207257 0.00061815)
(0.000121434 -0.00208313 0.00061815)
(0.000481321 -0.0020304 0.00061815)
(0.000826584 -0.00191597 0.000618151)
(0.00114673 -0.00174333 0.000618152)
(0.00143203 -0.00151772 0.000618152)
(0.00167383 -0.00124599 0.000618152)
(0.00186476 -0.000936402 0.000618152)
(0.00199904 -0.000598363 0.000618151)
(0.00207257 -0.000242143 0.00061815)
(0.00208313 0.000121434 0.00061815)
(0.0020304 0.000481321 0.00061815)
(0.00191597 0.000826583 0.000618151)
(0.00174333 0.00114673 0.000618152)
(0.00151772 0.00143203 0.000618152)
(0.00124599 0.00167383 0.000618152)
(0.000936402 0.00186476 0.000618152)
(0.000598363 0.00199904 0.000618151)
(8.11201e-05 0.00216465 0.000730682)
(-0.000296 0.00214585 0.000730681)
(-0.000664126 0.00206185 0.000730681)
(-0.00101207 0.0019152 0.000730682)
(-0.00132927 0.00171036 0.000730682)
(-0.00160607 0.00145355 0.000730682)
(-0.00183408 0.00115258 0.000730682)
(-0.00200636 0.000816583 0.000730682)
(-0.00211768 0.000455776 0.000730682)
(-0.00216465 8.112e-05 0.000730681)
(-0.00214585 -0.000296 0.000730681)
(-0.00206185 -0.000664126 0.000730681)
(-0.0019152 -0.00101207 0.000730682)
(-0.00171036 -0.00132927 0.000730682)
(-0.00145355 -0.00160607 0.000730682)
(-0.00115258 -0.00183408 0.000730682)
(-0.000816582 -0.00200636 0.000730682)
(-0.000455775 -0.00211768 0.000730682)
(-8.11199e-05 -0.00216465 0.000730681)
(0.000296 -0.00214585 0.000730681)
(0.000664126 -0.00206185 0.000730681)
(0.00101207 -0.0019152 0.000730682)
(0.00132927 -0.00171036 0.000730682)
(0.00160607 -0.00145355 0.000730682)
(0.00183408 -0.00115258 0.000730682)
(0.00200636 -0.000816583 0.000730682)
(0.00211768 -0.000455775 0.000730682)
(0.00216465 -8.112e-05 0.000730682)
(0.00214585 0.000296 0.000730681)
(0.00206185 0.000664126 0.000730681)
(0.0019152 0.00101207 0.000730682)
(0.00171036 0.00132927 0.000730682)
(0.00145355 0.00160607 0.000730682)
(0.00115258 0.00183408 0.000730682)
(0.000816583 0.00200636 0.000730682)
(0.000455776 0.00211768 0.000730682)
(-0.000105487 0.00224103 0.000825861)
(-0.000493035 0.00218867 0.000825861)
(-0.000865602 0.0020698 0.000825861)
(-0.00121187 0.00188805 0.000825861)
(-0.00152131 0.00164892 0.000825861)
(-0.00178453 0.0013597 0.000825861)
(-0.00199353 0.00102916 0.000825861)
(-0.00214196 0.000667353 0.000825861)
(-0.0022253 0.000285267 0.000825861)
(-0.00224103 -0.000105487 0.000825861)
(-0.00218867 -0.000493035 0.000825861)
(-0.0020698 -0.000865602 0.000825861)
(-0.00188805 -0.00121187 0.000825861)
(-0.00164892 -0.00152131 0.000825861)
(-0.0013597 -0.00178453 0.000825861)
(-0.00102916 -0.00199353 0.000825861)
(-0.000667353 -0.00214196 0.000825861)
(-0.000285267 -0.0022253 0.000825861)
(0.000105487 -0.00224103 0.000825861)
(0.000493035 -0.00218867 0.000825861)
(0.000865602 -0.0020698 0.000825861)
(0.00121187 -0.00188805 0.000825861)
(0.00152131 -0.00164892 0.000825861)
(0.00178453 -0.0013597 0.000825861)
(0.00199353 -0.00102916 0.000825861)
(0.00214196 -0.000667353 0.000825861)
(0.0022253 -0.000285267 0.000825861)
(0.00224103 0.000105487 0.000825861)
(0.00218867 0.000493035 0.000825861)
(0.0020698 0.000865602 0.000825861)
(0.00188805 0.00121187 0.000825861)
(0.00164892 0.00152131 0.000825861)
(0.0013597 0.00178453 0.000825861)
(0.00102916 0.00199353 0.000825861)
(0.000667353 0.00214196 0.000825861)
(0.000285267 0.0022253 0.000825861)
(0.000139142 0.00262636 0.000914158)
(-0.000319034 0.00261062 0.000914157)
(-0.000767516 0.00251556 0.000914157)
(-0.00119268 0.00234406 0.000914158)
(-0.0015816 0.00210135 0.000914158)
(-0.00192247 0.00179478 0.000914159)
(-0.00220492 0.00143368 0.000914159)
(-0.00242038 0.00102902 0.000914158)
(-0.00256229 0.00059309 0.000914158)
(-0.00262636 0.000139142 0.000914158)
(-0.00261062 -0.000319034 0.000914157)
(-0.00251556 -0.000767517 0.000914157)
(-0.00234406 -0.00119268 0.000914158)
(-0.00210135 -0.0015816 0.000914158)
(-0.00179478 -0.00192247 0.000914159)
(-0.00143368 -0.00220492 0.000914158)
(-0.00102902 -0.00242038 0.000914158)
(-0.00059309 -0.00256229 0.000914158)
(-0.000139142 -0.00262636 0.000914158)
(0.000319034 -0.00261062 0.000914157)
(0.000767517 -0.00251556 0.000914157)
(0.00119268 -0.00234406 0.000914158)
(0.0015816 -0.00210135 0.000914158)
(0.00192247 -0.00179478 0.000914159)
(0.00220492 -0.00143368 0.000914159)
(0.00242038 -0.00102902 0.000914159)
(0.00256229 -0.00059309 0.000914158)
(0.00262636 -0.000139142 0.000914158)
(0.00261062 0.000319034 0.000914157)
(0.00251556 0.000767517 0.000914157)
(0.00234406 0.00119268 0.000914158)
(0.00210135 0.0015816 0.000914158)
(0.00179478 0.00192247 0.000914159)
(0.00143368 0.00220492 0.000914159)
(0.00102902 0.00242038 0.000914159)
(0.000593091 0.00256229 0.000914158)
(-2.39986e-05 0.00268323 0.0010223)
(-0.000489572 0.0026383 0.0010223)
(-0.00094027 0.0025132 0.0010223)
(-0.0013624 0.00231175 0.0010223)
(-0.00174313 0.00204005 0.0010223)
(-0.0020709 0.00170636 0.0010223)
(-0.00233574 0.00132083 0.0010223)
(-0.00252962 0.000895168 0.0010223)
(-0.00264663 0.000442304 0.0010223)
(-0.00268323 -2.39988e-05 0.0010223)
(-0.0026383 -0.000489572 0.0010223)
(-0.0025132 -0.00094027 0.0010223)
(-0.00231175 -0.0013624 0.0010223)
(-0.00204005 -0.00174313 0.0010223)
(-0.00170636 -0.0020709 0.0010223)
(-0.00132083 -0.00233574 0.0010223)
(-0.000895168 -0.00252962 0.0010223)
(-0.000442304 -0.00264663 0.0010223)
(2.39989e-05 -0.00268323 0.0010223)
(0.000489573 -0.0026383 0.0010223)
(0.00094027 -0.0025132 0.0010223)
(0.0013624 -0.00231175 0.0010223)
(0.00174313 -0.00204005 0.0010223)
(0.0020709 -0.00170636 0.0010223)
(0.00233574 -0.00132083 0.0010223)
(0.00252962 -0.000895168 0.0010223)
(0.00264663 -0.000442304 0.0010223)
(0.00268323 2.39988e-05 0.0010223)
(0.0026383 0.000489572 0.0010223)
(0.0025132 0.00094027 0.0010223)
(0.00231175 0.0013624 0.0010223)
(0.00204005 0.00174313 0.0010223)
(0.00170636 0.0020709 0.0010223)
(0.00132083 0.00233574 0.0010223)
(0.000895168 0.00252962 0.0010223)
(0.000442304 0.00264663 0.0010223)
(-0.000208755 0.00272589 0.00111371)
(-0.000678929 0.00264823 0.00111371)
(-0.00112848 0.0024901 0.00111371)
(-0.00154373 0.00225631 0.00111371)
(-0.00191208 0.00195397 0.00111371)
(-0.00222234 0.00159225 0.00111371)
(-0.00246507 0.00118216 0.00111371)
(-0.0026329 0.000736145 0.00111371)
(-0.00272073 0.000267763 0.00111371)
(-0.00272589 -0.000208755 0.00111371)
(-0.00264823 -0.000678929 0.00111371)
(-0.0024901 -0.00112848 0.00111371)
(-0.00225631 -0.00154373 0.00111371)
(-0.00195397 -0.00191208 0.00111371)
(-0.00159225 -0.00222234 0.00111371)
(-0.00118216 -0.00246507 0.00111371)
(-0.000736145 -0.0026329 0.00111371)
(-0.000267763 -0.00272073 0.00111371)
(0.000208755 -0.00272589 0.00111371)
(0.00067893 -0.00264823 0.00111371)
(0.00112848 -0.0024901 0.00111371)
(0.00154373 -0.00225631 0.00111371)
(0.00191208 -0.00195397 0.00111371)
(0.00222234 -0.00159225 0.00111371)
(0.00246507 -0.00118216 0.00111371)
(0.0026329 -0.000736145 0.00111371)
(0.00272073 -0.000267763 0.00111371)
(0.00272589 0.000208755 0.00111371)
(0.00264823 0.000678929 0.00111371)
(0.0024901 0.00112848 0.00111371)
(0.00225631 0.00154373 0.00111371)
(0.00195397 0.00191208 0.00111371)
(0.00159225 0.00222234 0.00111371)
(0.00118216 0.00246507 0.00111371)
(0.000736145 0.0026329 0.00111371)
(0.000267764 0.00272073 0.00111371)
(-1.38824e-05 0.00311382 0.00122128)
(-0.00055438 0.0030641 0.00122128)
(-0.00107803 0.00292128 0.00122128)
(-0.00156893 0.0026897 0.00122128)
(-0.00201216 0.0023764 0.00122128)
(-0.00239424 0.00199089 0.00122128)
(-0.00270358 0.00154489 0.00122128)
(-0.00293078 0.00105194 0.00122128)
(-0.00306892 0.000527037 0.00122128)
(-0.00311382 -1.38826e-05 0.00122128)
(-0.0030641 -0.00055438 0.00122128)
(-0.00292128 -0.00107803 0.00122128)
(-0.0026897 -0.00156893 0.00122128)
(-0.0023764 -0.00201216 0.00122128)
(-0.00199089 -0.00239424 0.00122128)
(-0.00154489 -0.00270358 0.00122128)
(-0.00105194 -0.00293078 0.00122128)
(-0.000527037 -0.00306892 0.00122128)
(1.38828e-05 -0.00311382 0.00122128)
(0.00055438 -0.0030641 0.00122128)
(0.00107803 -0.00292128 0.00122128)
(0.00156893 -0.0026897 0.00122128)
(0.00201216 -0.0023764 0.00122128)
(0.00239424 -0.00199089 0.00122128)
(0.00270358 -0.00154489 0.00122128)
(0.00293078 -0.00105194 0.00122128)
(0.00306892 -0.000527037 0.00122128)
(0.00311382 1.38826e-05 0.00122128)
(0.0030641 0.00055438 0.00122128)
(0.00292128 0.00107803 0.00122128)
(0.0026897 0.00156893 0.00122128)
(0.0023764 0.00201216 0.00122128)
(0.00199089 0.00239424 0.00122128)
(0.00154489 0.00270358 0.00122128)
(0.00105194 0.00293078 0.00122128)
(0.000527037 0.00306892 0.00122128)
(-0.000170866 0.00312333 0.00131737)
(-0.000710632 0.00304621 0.00131737)
(-0.0012288 0.00287653 0.00131737)
(-0.00170964 0.00261945 0.00131737)
(-0.00213853 0.00228278 0.00131737)
(-0.00250244 0.00187675 0.00131737)
(-0.00279032 0.00141369 0.00131737)
(-0.00299341 0.000907682 0.00131737)
(-0.00310555 0.000374091 0.00131737)
(-0.00312333 -0.000170867 0.00131737)
(-0.00304621 -0.000710633 0.00131737)
(-0.00287653 -0.0012288 0.00131737)
(-0.00261945 -0.00170964 0.00131737)
(-0.00228278 -0.00213853 0.00131737)
(-0.00187675 -0.00250244 0.00131737)
(-0.00141369 -0.00279032 0.00131737)
(-0.000907682 -0.00299341 0.00131737)
(-0.00037409 -0.00310555 0.00131737)
(0.000170867 -0.00312333 0.00131737)
(0.000710633 -0.00304621 0.00131737)
(0.00122881 -0.00287653 0.00131737)
(0.00170964 -0.00261945 0.00131737)
(0.00213853 -0.00228278 0.00131737)
(0.00250244 -0.00187675 0.00131737)
(0.00279032 -0.00141369 0.00131737)
(0.00299341 -0.000907682 0.00131737)
(0.00310555 -0.000374091 0.00131737)
(0.00312333 0.000170867 0.00131737)
(0.00304621 0.000710633 0.00131737)
(0.00287653 0.00122881 0.00131737)
(0.00261945 0.00170964 0.00131737)
(0.00228278 0.00213853 0.00131737)
(0.00187675 0.00250244 0.00131737)
(0.00141369 0.00279032 0.00131737)
(0.000907682 0.00299341 0.00131737)
(0.000374091 0.00310555 0.00131737)
(-0.00034518 0.00312147 0.00139676)
(-0.000881975 0.00301411 0.00139676)
(-0.00139197 0.00281517 0.00139676)
(-0.00185967 0.00253069 0.00139676)
(-0.00227087 0.00216931 0.00139676)
(-0.00261306 0.00174202 0.00139676)
(-0.00287586 0.0012618 0.00139676)
(-0.00305128 0.000743244 0.00139676)
(-0.00313399 0.000202102 0.00139676)
(-0.00312147 -0.00034518 0.00139676)
(-0.00301411 -0.000881975 0.00139676)
(-0.00281517 -0.00139197 0.00139676)
(-0.00253068 -0.00185967 0.00139676)
(-0.00216931 -0.00227087 0.00139676)
(-0.00174202 -0.00261306 0.00139676)
(-0.0012618 -0.00287586 0.00139676)
(-0.000743244 -0.00305128 0.00139676)
(-0.000202102 -0.00313399 0.00139676)
(0.000345181 -0.00312147 0.00139676)
(0.000881975 -0.00301411 0.00139676)
(0.00139197 -0.00281517 0.00139676)
(0.00185967 -0.00253069 0.00139676)
(0.00227087 -0.00216931 0.00139676)
(0.00261306 -0.00174202 0.00139676)
(0.00287586 -0.0012618 0.00139676)
(0.00305128 -0.000743244 0.00139676)
(0.00313399 -0.000202102 0.00139676)
(0.00312147 0.00034518 0.00139676)
(0.00301411 0.000881975 0.00139676)
(0.00281517 0.00139197 0.00139676)
(0.00253069 0.00185967 0.00139676)
(0.00216931 0.00227087 0.00139676)
(0.00174202 0.00261306 0.00139676)
(0.0012618 0.00287586 0.00139676)
(0.000743244 0.00305128 0.00139676)
(0.000202102 0.00313399 0.00139676)
(-0.000190612 0.00351208 0.00153921)
(-0.000797582 0.00342562 0.0015392)
(-0.00138032 0.00323508 0.0015392)
(-0.00192111 0.00294624 0.0015392)
(-0.00240354 0.00256789 0.0015392)
(-0.00281293 0.0021115 0.0015392)
(-0.00313685 0.00159096 0.0015392)
(-0.00336547 0.00102208 0.0015392)
(-0.00349182 0.000422149 0.00153921)
(-0.00351208 -0.000190612 0.00153921)
(-0.00342562 -0.000797582 0.0015392)
(-0.00323508 -0.00138032 0.0015392)
(-0.00294624 -0.00192111 0.0015392)
(-0.00256789 -0.00240354 0.0015392)
(-0.0021115 -0.00281293 0.0015392)
(-0.00159096 -0.00313685 0.0015392)
(-0.00102208 -0.00336547 0.0015392)
(-0.000422149 -0.00349182 0.00153921)
(0.000190612 -0.00351208 0.00153921)
(0.000797582 -0.00342562 0.0015392)
(0.00138032 -0.00323508 0.0015392)
(0.00192111 -0.00294624 0.0015392)
(0.00240354 -0.00256789 0.0015392)
(0.00281293 -0.0021115 0.0015392)
(0.00313685 -0.00159096 0.0015392)
(0.00336547 -0.00102208 0.0015392)
(0.00349182 -0.000422149 0.00153921)
(0.00351208 0.000190612 0.00153921)
(0.00342562 0.000797582 0.0015392)
(0.00323508 0.00138032 0.0015392)
(0.00294624 0.00192111 0.0015392)
(0.00256789 0.00240354 0.0015392)
(0.0021115 0.00281293 0.0015392)
(0.00159096 0.00313685 0.0015392)
(0.00102208 0.00336547 0.0015392)
(0.000422149 0.00349182 0.00153921)
(-0.000339279 0.00346657 0.00161664)
(-0.000936088 0.00335499 0.00161664)
(-0.00150446 0.00314147 0.00161664)
(-0.00202711 0.0028325 0.00161664)
(-0.00248817 0.00243746 0.00161664)
(-0.00287363 0.00196837 0.00161664)
(-0.00317178 0.00143946 0.00161664)
(-0.00337355 0.00086682 0.00161664)
(-0.00347282 0.000267839 0.00161664)
(-0.00346657 -0.000339279 0.00161664)
(-0.00335499 -0.000936089 0.00161664)
(-0.00314147 -0.00150446 0.00161664)
(-0.0028325 -0.00202711 0.00161664)
(-0.00243746 -0.00248817 0.00161664)
(-0.00196837 -0.00287363 0.00161664)
(-0.00143946 -0.00317178 0.00161664)
(-0.00086682 -0.00337355 0.00161664)
(-0.000267838 -0.00347282 0.00161664)
(0.000339279 -0.00346657 0.00161664)
(0.000936089 -0.00335499 0.00161664)
(0.00150446 -0.00314147 0.00161664)
(0.00202711 -0.0028325 0.00161664)
(0.00248817 -0.00243746 0.00161664)
(0.00287363 -0.00196837 0.00161664)
(0.00317178 -0.00143946 0.00161664)
(0.00337355 -0.00086682 0.00161664)
(0.00347282 -0.000267839 0.00161664)
(0.00346657 0.000339279 0.00161664)
(0.00335499 0.000936089 0.00161664)
(0.00314147 0.00150446 0.00161664)
(0.0028325 0.00202711 0.00161664)
(0.00243746 0.00248817 0.00161664)
(0.00196837 0.00287363 0.00161664)
(0.00143946 0.00317178 0.00161664)
(0.00086682 0.00337355 0.00161664)
(0.000267839 0.00347282 0.00161664)
(-0.000500176 0.00341436 0.00167677)
(-0.00108547 0.00327563 0.00167677)
(-0.00163779 0.00303738 0.00167677)
(-0.00214034 0.00270683 0.00167677)
(-0.00257786 0.00229404 0.00167677)
(-0.00293705 0.00181155 0.00167677)
(-0.00320701 0.00127401 0.00167677)
(-0.00337951 0.000697768 0.00167677)
(-0.00344934 0.00010032 0.00167677)
(-0.00341436 -0.000500177 0.00167677)
(-0.00327563 -0.00108547 0.00167677)
(-0.00303738 -0.00163779 0.00167677)
(-0.00270683 -0.00214034 0.00167677)
(-0.00229404 -0.00257786 0.00167677)
(-0.00181155 -0.00293705 0.00167677)
(-0.00127401 -0.00320701 0.00167677)
(-0.000697767 -0.00337951 0.00167677)
(-0.00010032 -0.00344934 0.00167677)
(0.000500177 -0.00341436 0.00167677)
(0.00108547 -0.00327563 0.00167677)
(0.00163779 -0.00303738 0.00167677)
(0.00214034 -0.00270683 0.00167677)
(0.00257786 -0.00229404 0.00167677)
(0.00293705 -0.00181155 0.00167677)
(0.00320701 -0.00127401 0.00167677)
(0.00337952 -0.000697767 0.00167677)
(0.00344934 -0.00010032 0.00167677)
(0.00341436 0.000500177 0.00167677)
(0.00327563 0.00108547 0.00167677)
(0.00303738 0.00163779 0.00167677)
(0.00270683 0.00214034 0.00167677)
(0.00229404 0.00257786 0.00167677)
(0.00181155 0.00293705 0.00167677)
(0.00127401 0.00320701 0.00167677)
(0.000697768 0.00337951 0.00167677)
(0.00010032 0.00344934 0.00167677)
(-0.000362585 0.00380175 0.00187626)
(-0.00101724 0.00368103 0.00187626)
(-0.00164099 0.00344847 0.00187625)
(-0.00221488 0.00311112 0.00187625)
(-0.00272147 0.00267924 0.00187625)
(-0.00314537 0.00216596 0.00187625)
(-0.0034737 0.00158687 0.00187625)
(-0.00369649 0.000959555 0.00187626)
(-0.00380696 0.000303088 0.00187626)
(-0.00380175 -0.000362586 0.00187626)
(-0.00368103 -0.00101724 0.00187626)
(-0.00344847 -0.00164099 0.00187625)
(-0.00311112 -0.00221488 0.00187625)
(-0.00267924 -0.00272148 0.00187625)
(-0.00216596 -0.00314537 0.00187625)
(-0.00158687 -0.0034737 0.00187625)
(-0.000959554 -0.00369649 0.00187626)
(-0.000303088 -0.00380696 0.00187626)
(0.000362586 -0.00380175 0.00187626)
(0.00101724 -0.00368103 0.00187626)
(0.001641 -0.00344847 0.00187625)
(0.00221488 -0.00311112 0.00187625)
(0.00272148 -0.00267924 0.00187625)
(0.00314538 -0.00216596 0.00187625)
(0.00347371 -0.00158687 0.00187625)
(0.00369649 -0.000959555 0.00187626)
(0.00380696 -0.000303088 0.00187626)