/*--------------------------------*- C++ -*----------------------------------*\
| =========                 |                                                 |
| \\      /  F ield         | OpenFOAM: The Open Source CFD Toolbox           |
|  \\    /   O peration     | Version:  2312                                  |
|   \\  /    A nd           | Website:  www.openfoam.com                      |
|    \\/     M anipulation  |                                                 |
\*---------------------------------------------------------------------------*/
FoamFile
{
    version     2.0;
    format      ascii;
    arch        "LSB;label=32;scalar=64";
    class       volTensorField;
    location    "0.7";
    object      F;
}
// * * * * * * * * * * * * * * * * * * * * * * * * * * * * * * * * * * * * * //

dimensions      [0 0 0 0 0 0 0];

internalField   nonuniform List<tensor> 
1620
(
(1.06539 -0.0238085 -0.0504151 -0.0574202 1.00788 -0.318132 -0.0495496 -0.00433511 0.928314)
(1.07754 -0.0115244 0.0055936 -0.0451364 0.995721 -0.322053 -0.0480442 -0.0128734 0.928315)
(1.08477 0.00417671 0.0614326 -0.0294354 0.988499 -0.316189 -0.045079 -0.0210206 0.928314)
(1.08618 0.0214011 0.115405 -0.0122108 0.987083 -0.300718 -0.0407438 -0.0285291 0.928314)
(1.08162 0.0380712 0.165871 0.00445941 0.991643 -0.276109 -0.0351708 -0.0351708 0.928313)
(1.07164 0.0521762 0.211296 0.0185648 1.00163 -0.243112 -0.0285293 -0.0407438 0.928314)
(1.05743 0.0620151 0.250302 0.0284037 1.01584 -0.202727 -0.0210206 -0.0450785 0.928314)
(1.04071 0.0664012 0.281703 0.0327897 1.03255 -0.156182 -0.0128731 -0.0480438 0.928314)
(1.0235 0.0648054 0.304544 0.0311938 1.04976 -0.104892 -0.00433489 -0.0495495 0.928314)
(1.00788 0.0574202 0.318132 0.0238085 1.06539 -0.0504151 0.00433511 -0.0495496 0.928314)
(0.995721 0.0451364 0.322053 0.0115244 1.07754 0.00559362 0.0128734 -0.0480442 0.928315)
(0.988499 0.0294354 0.316189 -0.00417671 1.08477 0.0614326 0.0210206 -0.045079 0.928314)
(0.987083 0.0122108 0.300718 -0.0214011 1.08618 0.115405 0.0285291 -0.0407438 0.928314)
(0.991643 -0.0044594 0.276109 -0.0380712 1.08162 0.165871 0.0351708 -0.0351708 0.928313)
(1.00163 -0.0185647 0.243111 -0.0521762 1.07164 0.211297 0.0407438 -0.0285293 0.928314)
(1.01584 -0.0284037 0.202727 -0.0620151 1.05743 0.250302 0.0450785 -0.0210206 0.928314)
(1.03255 -0.0327897 0.156182 -0.0664012 1.04071 0.281703 0.0480438 -0.0128731 0.928314)
(1.04976 -0.0311938 0.104892 -0.0648054 1.0235 0.304544 0.0495495 -0.00433489 0.928314)
(1.06539 -0.0238085 0.0504151 -0.0574202 1.00788 0.318132 0.0495496 0.00433511 0.928314)
(1.07754 -0.0115244 -0.00559363 -0.0451364 0.995721 0.322053 0.0480442 0.0128734 0.928315)
(1.08477 0.00417671 -0.0614326 -0.0294354 0.988499 0.316189 0.045079 0.0210206 0.928314)
(1.08618 0.0214011 -0.115405 -0.0122108 0.987083 0.300718 0.0407438 0.0285291 0.928314)
(1.08162 0.0380712 -0.165871 0.00445941 0.991643 0.276109 0.0351708 0.0351708 0.928313)
(1.07164 0.0521762 -0.211297 0.0185648 1.00163 0.243112 0.0285293 0.0407438 0.928314)
(1.05743 0.0620151 -0.250302 0.0284037 1.01584 0.202727 0.0210206 0.0450785 0.928314)
(1.04071 0.0664012 -0.281703 0.0327897 1.03255 0.156182 0.0128731 0.0480438 0.928314)
(1.0235 0.0648054 -0.304544 0.0311938 1.04976 0.104892 0.00433489 0.0495495 0.928314)
(1.00788 0.0574202 -0.318132 0.0238085 1.06539 0.0504151 -0.00433511 0.0495496 0.928314)
(0.995721 0.0451364 -0.322053 0.0115244 1.07754 -0.00559362 -0.0128734 0.0480442 0.928315)
(0.988499 0.0294354 -0.316189 -0.00417671 1.08477 -0.0614326 -0.0210206 0.045079 0.928314)
(0.987083 0.0122108 -0.300718 -0.0214011 1.08618 -0.115405 -0.0285291 0.0407438 0.928314)
(0.991643 -0.00445941 -0.276109 -0.0380712 1.08162 -0.165871 -0.0351708 0.0351708 0.928313)
(1.00163 -0.0185648 -0.243112 -0.0521762 1.07164 -0.211297 -0.0407438 0.0285293 0.928314)
(1.01584 -0.0284037 -0.202727 -0.0620151 1.05743 -0.250302 -0.0450785 0.0210206 0.928314)
(1.03255 -0.0327897 -0.156182 -0.0664012 1.04071 -0.281703 -0.0480438 0.0128731 0.928314)
(1.04976 -0.0311938 -0.104892 -0.0648054 1.0235 -0.304544 -0.0495495 0.00433489 0.928314)
(1.08061 -0.0330187 -0.0270188 -0.0551156 1.00197 -0.341037 -0.0301937 -0.00264162 0.909265)
(1.09331 -0.0169124 0.032612 -0.0390097 0.989269 -0.340547 -0.0292765 -0.0078445 0.909265)
(1.09974 0.00256619 0.091252 -0.019531 0.982843 -0.329711 -0.0274694 -0.0128091 0.909266)
(1.09911 0.0230678 0.147119 0.000970758 0.983467 -0.308856 -0.0248277 -0.0173846 0.909265)
(1.09152 0.0421199 0.198517 0.0200228 0.991065 -0.278617 -0.0214319 -0.0214319 0.909265)
(1.07786 0.0574242 0.243882 0.0353272 1.00472 -0.239912 -0.0173848 -0.0248278 0.909265)
(1.05979 0.0671349 0.281837 0.0450381 1.02279 -0.193917 -0.012809 -0.0274692 0.909265)
(1.03949 0.0700806 0.311229 0.0479839 1.04309 -0.142031 -0.00784432 -0.029276 0.909265)
(1.01941 0.0659064 0.331164 0.0438096 1.06317 -0.0858287 -0.00264158 -0.0301937 0.909265)
(1.00197 0.0551156 0.341037 0.0330187 1.08061 -0.0270188 0.00264162 -0.0301937 0.909265)
(0.989269 0.0390097 0.340547 0.0169124 1.09331 0.032612 0.0078445 -0.0292765 0.909266)
(0.982843 0.019531 0.329711 -0.00256618 1.09974 0.091252 0.0128091 -0.0274694 0.909266)
(0.983467 -0.000970753 0.308856 -0.0230678 1.09911 0.147119 0.0173846 -0.0248277 0.909265)
(0.991065 -0.0200228 0.278617 -0.0421199 1.09152 0.198517 0.0214319 -0.0214319 0.909265)
(1.00472 -0.0353272 0.239912 -0.0574242 1.07786 0.243882 0.0248278 -0.0173848 0.909265)
(1.02279 -0.0450381 0.193917 -0.0671349 1.05979 0.281837 0.0274692 -0.012809 0.909265)
(1.04309 -0.0479839 0.142031 -0.0700806 1.03949 0.311229 0.029276 -0.00784432 0.909265)
(1.06317 -0.0438096 0.0858287 -0.0659064 1.01941 0.331164 0.0301937 -0.00264158 0.909265)
(1.08061 -0.0330187 0.0270187 -0.0551156 1.00197 0.341037 0.0301937 0.00264162 0.909265)
(1.09331 -0.0169124 -0.032612 -0.0390097 0.989269 0.340547 0.0292765 0.0078445 0.909266)
(1.09974 0.00256618 -0.091252 -0.019531 0.982843 0.329711 0.0274694 0.0128091 0.909266)
(1.09911 0.0230678 -0.147119 0.000970757 0.983467 0.308856 0.0248277 0.0173846 0.909265)
(1.09152 0.0421199 -0.198517 0.0200228 0.991065 0.278617 0.0214319 0.0214319 0.909265)
(1.07786 0.0574242 -0.243882 0.0353272 1.00472 0.239912 0.0173848 0.0248278 0.909265)
(1.05979 0.0671349 -0.281837 0.0450381 1.02279 0.193917 0.012809 0.0274692 0.909265)
(1.03949 0.0700806 -0.311229 0.0479839 1.04309 0.142031 0.00784432 0.029276 0.909265)
(1.01941 0.0659064 -0.331164 0.0438096 1.06317 0.0858287 0.00264158 0.0301936 0.909265)
(1.00197 0.0551156 -0.341037 0.0330187 1.08061 0.0270188 -0.00264162 0.0301937 0.909265)
(0.989269 0.0390097 -0.340547 0.0169124 1.09331 -0.032612 -0.0078445 0.0292765 0.909265)
(0.982843 0.019531 -0.329711 -0.00256619 1.09974 -0.091252 -0.0128091 0.0274694 0.909266)
(0.983467 -0.000970762 -0.308856 -0.0230678 1.09911 -0.147119 -0.0173846 0.0248277 0.909265)
(0.991065 -0.0200228 -0.278617 -0.0421199 1.09152 -0.198517 -0.0214319 0.0214319 0.909265)
(1.00472 -0.0353272 -0.239912 -0.0574242 1.07786 -0.243882 -0.0248278 0.0173848 0.909265)
(1.02279 -0.0450381 -0.193917 -0.0671349 1.05979 -0.281837 -0.0274692 0.012809 0.909265)
(1.04309 -0.0479839 -0.142031 -0.0700806 1.03949 -0.311229 -0.029276 0.00784432 0.909265)
(1.06317 -0.0438096 -0.0858287 -0.0659064 1.01941 -0.331164 -0.0301937 0.00264158 0.909265)
(1.09636 -0.0443892 -0.000291006 -0.0511523 0.990473 -0.360171 -0.00899765 -0.000787118 0.881591)
(1.10951 -0.0234002 0.0622564 -0.0301635 0.977328 -0.35475 -0.00872435 -0.0023377 0.881591)
(1.11468 0.000819203 0.122912 -0.00594408 0.972153 -0.33855 -0.00818554 -0.00381701 0.881591)
(1.11126 0.0253475 0.179833 0.018584 0.975575 -0.312063 -0.00739846 -0.00518038 0.881591)
(1.09966 0.0472265 0.23129 0.0404631 0.987179 -0.276095 -0.00638666 -0.00638658 0.881591)
(1.08127 0.0638169 0.27572 0.057054 1.00557 -0.231737 -0.00518049 -0.00739854 0.881591)
(1.05832 0.0731182 0.311772 0.0663551 1.02852 -0.180338 -0.00381683 -0.00818557 0.881591)
(1.03357 0.074008 0.338351 0.0672448 1.05327 -0.123459 -0.00233753 -0.00872397 0.881591)
(1.01 0.0663793 0.354649 0.0596161 1.07683 -0.0628297 -0.000787261 -0.00899761 0.881591)
(0.990473 0.0511523 0.360171 0.0443892 1.09636 -0.000290992 0.000787119 -0.00899766 0.881591)
(0.977328 0.0301635 0.35475 0.0234002 1.10951 0.0622564 0.0023377 -0.00872435 0.881591)
(0.972153 0.00594409 0.33855 -0.0008192 1.11468 0.122912 0.00381701 -0.00818555 0.881591)
(0.975575 -0.018584 0.312063 -0.0253475 1.11126 0.179833 0.00518038 -0.00739846 0.881591)
(0.987179 -0.0404631 0.276095 -0.0472265 1.09966 0.23129 0.00638658 -0.00638666 0.881591)
(1.00557 -0.057054 0.231737 -0.0638169 1.08127 0.27572 0.00739854 -0.00518049 0.881591)
(1.02852 -0.0663551 0.180338 -0.0731182 1.05832 0.311772 0.00818557 -0.00381683 0.881591)
(1.05327 -0.0672448 0.123459 -0.074008 1.03357 0.338351 0.00872397 -0.00233753 0.881591)
(1.07683 -0.0596161 0.0628297 -0.0663793 1.01 0.354649 0.00899761 -0.000787262 0.881591)
(1.09636 -0.0443892 0.000290979 -0.0511523 0.990473 0.360171 0.00899766 0.000787118 0.881591)
(1.10951 -0.0234002 -0.0622564 -0.0301635 0.977328 0.35475 0.00872435 0.0023377 0.881591)
(1.11468 0.000819199 -0.122912 -0.00594409 0.972153 0.33855 0.00818554 0.00381701 0.881591)
(1.11126 0.0253475 -0.179833 0.018584 0.975575 0.312063 0.00739846 0.00518038 0.881591)
(1.09966 0.0472265 -0.231291 0.0404631 0.987179 0.276095 0.00638666 0.00638658 0.881591)
(1.08127 0.0638169 -0.27572 0.057054 1.00557 0.231737 0.00518049 0.00739854 0.881591)
(1.05832 0.0731182 -0.311772 0.0663551 1.02852 0.180338 0.00381683 0.00818557 0.881591)
(1.03357 0.074008 -0.338351 0.0672448 1.05327 0.123459 0.00233753 0.00872397 0.881591)
(1.01 0.0663793 -0.354649 0.0596161 1.07683 0.0628297 0.000787262 0.00899761 0.881591)
(0.990473 0.0511523 -0.360171 0.0443892 1.09636 0.000290987 -0.000787117 0.00899765 0.881591)
(0.977328 0.0301635 -0.35475 0.0234002 1.10951 -0.0622564 -0.0023377 0.00872434 0.881591)
(0.972153 0.00594408 -0.33855 -0.000819203 1.11468 -0.122912 -0.00381701 0.00818554 0.881591)
(0.975575 -0.018584 -0.312063 -0.0253475 1.11126 -0.179833 -0.00518038 0.00739846 0.881591)
(0.987179 -0.0404631 -0.276095 -0.0472265 1.09966 -0.23129 -0.00638658 0.00638665 0.881591)
(1.00557 -0.057054 -0.231737 -0.0638169 1.08127 -0.27572 -0.00739854 0.00518049 0.881591)
(1.02852 -0.0663551 -0.180338 -0.0731182 1.05832 -0.311772 -0.00818557 0.00381683 0.881591)
(1.05327 -0.0672448 -0.123459 -0.074008 1.03357 -0.338351 -0.00872397 0.00233753 0.881591)
(1.07683 -0.0596161 -0.0628297 -0.0663793 1.01 -0.354649 -0.00899761 0.000787261 0.881591)
(1.11425 -0.0839943 -0.034685 -0.10189 1.01522 -0.320779 -0.0893803 -0.00781999 0.903232)
(1.14305 -0.0614537 0.0215448 -0.0793492 0.986415 -0.321929 -0.0866649 -0.0232218 0.903232)
(1.16241 -0.0304219 0.0771198 -0.0483175 0.967059 -0.313297 -0.0813161 -0.0379177 0.903232)
(1.16998 0.00535859 0.130352 -0.0125369 0.959485 -0.295146 -0.0734957 -0.0514615 0.903232)
(1.16486 0.041572 0.179623 0.0236768 0.964605 -0.268026 -0.0634423 -0.0634422 0.903231)
(1.14766 0.0738504 0.223436 0.0559555 0.981801 -0.232763 -0.051462 -0.0734956 0.903231)
(1.12046 0.0983004 0.26046 0.0804057 1.009 -0.190428 -0.0379177 -0.0813152 0.903231)
(1.08654 0.111973 0.289571 0.0940785 1.04292 -0.142306 -0.0232212 -0.0866642 0.903232)
(1.04999 0.11322 0.309883 0.0953249 1.07947 -0.0898608 -0.00781948 -0.0893801 0.903232)
(1.01522 0.10189 0.320779 0.0839943 1.11425 -0.034685 0.00781999 -0.0893803 0.903232)
(0.986415 0.0793492 0.321929 0.0614537 1.14305 0.0215448 0.0232218 -0.0866649 0.903232)
(0.967059 0.0483175 0.313297 0.0304219 1.16241 0.0771199 0.0379177 -0.0813161 0.903232)
(0.959485 0.0125369 0.295146 -0.00535859 1.16998 0.130352 0.0514615 -0.0734957 0.903232)
(0.964605 -0.0236768 0.268026 -0.041572 1.16486 0.179623 0.0634422 -0.0634423 0.903231)
(0.981801 -0.0559555 0.232763 -0.0738504 1.14766 0.223436 0.0734956 -0.051462 0.903231)
(1.009 -0.0804057 0.190428 -0.0983004 1.12046 0.260461 0.0813152 -0.0379177 0.903231)
(1.04292 -0.0940785 0.142306 -0.111973 1.08654 0.289571 0.0866641 -0.0232212 0.903232)
(1.07947 -0.0953249 0.0898608 -0.11322 1.04999 0.309883 0.0893801 -0.00781949 0.903232)
(1.11425 -0.0839943 0.034685 -0.10189 1.01522 0.320779 0.0893803 0.00781998 0.903232)
(1.14305 -0.0614537 -0.0215448 -0.0793492 0.986415 0.321929 0.0866648 0.0232218 0.903232)
(1.16241 -0.0304219 -0.0771199 -0.0483175 0.967059 0.313297 0.0813161 0.0379177 0.903232)
(1.16998 0.00535859 -0.130352 -0.0125369 0.959485 0.295146 0.0734957 0.0514615 0.903232)
(1.16486 0.041572 -0.179623 0.0236768 0.964605 0.268026 0.0634423 0.0634422 0.903231)
(1.14766 0.0738504 -0.223436 0.0559555 0.981801 0.232763 0.051462 0.0734956 0.903231)
(1.12046 0.0983004 -0.260461 0.0804057 1.009 0.190428 0.0379177 0.0813152 0.903231)
(1.08654 0.111973 -0.289571 0.0940785 1.04292 0.142306 0.0232212 0.0866641 0.903232)
(1.04999 0.11322 -0.309883 0.0953249 1.07947 0.0898608 0.00781949 0.0893801 0.903232)
(1.01522 0.10189 -0.320779 0.0839943 1.11425 0.034685 -0.00781998 0.0893803 0.903232)
(0.986415 0.0793492 -0.321929 0.0614537 1.14305 -0.0215448 -0.0232218 0.0866649 0.903232)
(0.967059 0.0483175 -0.313297 0.0304219 1.16241 -0.0771199 -0.0379177 0.0813161 0.903232)
(0.959485 0.0125369 -0.295146 -0.00535859 1.16998 -0.130352 -0.0514615 0.0734957 0.903232)
(0.964605 -0.0236768 -0.268026 -0.041572 1.16486 -0.179623 -0.0634422 0.0634423 0.903231)
(0.981801 -0.0559555 -0.232763 -0.0738504 1.14766 -0.223436 -0.0734956 0.051462 0.903231)
(1.009 -0.0804057 -0.190428 -0.0983004 1.12046 -0.260461 -0.0813152 0.0379177 0.903231)
(1.04292 -0.0940785 -0.142306 -0.111973 1.08654 -0.289571 -0.0866642 0.0232212 0.903232)
(1.07947 -0.0953249 -0.0898609 -0.11322 1.04999 -0.309883 -0.0893801 0.00781949 0.903232)
(1.13357 -0.105469 -0.0125218 -0.0962553 1.00583 -0.337309 -0.0781607 -0.00683824 0.887049)
(1.16421 -0.0775418 0.0462416 -0.0683289 0.975187 -0.334359 -0.0757862 -0.0203068 0.887049)
(1.18346 -0.0408179 0.1036 -0.0316051 0.955941 -0.32125 -0.0711086 -0.0331581 0.887049)
(1.18898 0.000273205 0.15781 0.00948655 0.950417 -0.29838 -0.0642698 -0.0450019 0.887049)
(1.18012 0.0407761 0.207226 0.0499896 0.95928 -0.266443 -0.0554786 -0.0554784 0.887049)
(1.15794 0.0758052 0.250345 0.0850188 0.981461 -0.226411 -0.045002 -0.0642697 0.887049)
(1.12512 0.101135 0.285857 0.110349 1.01428 -0.179499 -0.0331579 -0.0711079 0.887049)
(1.08561 0.113711 0.312684 0.122925 1.05379 -0.127133 -0.0203064 -0.0757855 0.887049)
(1.04418 0.112017 0.33001 0.12123 1.09522 -0.0709047 -0.00683804 -0.0781606 0.887049)
(1.00583 0.0962553 0.337309 0.105469 1.13357 -0.0125218 0.00683824 -0.0781607 0.887049)
(0.975187 0.0683289 0.334359 0.0775418 1.16421 0.0462416 0.0203068 -0.0757862 0.887049)
(0.955941 0.0316051 0.32125 0.0408179 1.18346 0.1036 0.0331581 -0.0711086 0.887049)
(0.950417 -0.00948654 0.29838 -0.0002732 1.18898 0.15781 0.0450018 -0.0642698 0.887049)
(0.95928 -0.0499896 0.266443 -0.0407761 1.18012 0.207226 0.0554784 -0.0554786 0.887049)
(0.981461 -0.0850188 0.226411 -0.0758052 1.15794 0.250345 0.0642697 -0.045002 0.887049)
(1.01428 -0.110349 0.179499 -0.101135 1.12512 0.285857 0.0711079 -0.0331579 0.887049)
(1.05379 -0.122925 0.127133 -0.113711 1.08561 0.312684 0.0757855 -0.0203064 0.887049)
(1.09522 -0.12123 0.0709046 -0.112017 1.04418 0.33001 0.0781606 -0.00683804 0.887049)
(1.13357 -0.105469 0.0125218 -0.0962553 1.00583 0.337309 0.0781607 0.00683824 0.887049)
(1.16421 -0.0775418 -0.0462416 -0.0683289 0.975187 0.334359 0.0757862 0.0203068 0.887049)
(1.18346 -0.0408179 -0.1036 -0.0316051 0.955941 0.32125 0.0711086 0.0331581 0.887049)
(1.18898 0.000273199 -0.15781 0.00948655 0.950417 0.29838 0.0642698 0.0450018 0.887049)
(1.18012 0.0407761 -0.207226 0.0499896 0.95928 0.266443 0.0554786 0.0554784 0.887049)
(1.15794 0.0758052 -0.250345 0.0850188 0.981461 0.226411 0.045002 0.0642697 0.887049)
(1.12512 0.101135 -0.285857 0.110349 1.01428 0.179499 0.0331579 0.0711079 0.887049)
(1.08561 0.113711 -0.312684 0.122925 1.05379 0.127133 0.0203064 0.0757855 0.887049)
(1.04418 0.112017 -0.33001 0.12123 1.09522 0.0709047 0.00683804 0.0781606 0.887049)
(1.00583 0.0962553 -0.337309 0.105469 1.13357 0.0125218 -0.00683824 0.0781607 0.887049)
(0.975187 0.0683289 -0.334359 0.0775418 1.16421 -0.0462416 -0.0203068 0.0757862 0.887049)
(0.955941 0.0316051 -0.32125 0.0408179 1.18346 -0.1036 -0.0331581 0.0711086 0.887049)
(0.950417 -0.00948656 -0.29838 -0.000273204 1.18898 -0.15781 -0.0450018 0.0642698 0.887049)
(0.95928 -0.0499897 -0.266443 -0.0407761 1.18012 -0.207226 -0.0554784 0.0554786 0.887049)
(0.981461 -0.0850188 -0.226411 -0.0758052 1.15794 -0.250345 -0.0642697 0.045002 0.887049)
(1.01428 -0.110349 -0.179499 -0.101135 1.12512 -0.285857 -0.0711079 0.0331579 0.887049)
(1.05379 -0.122925 -0.127133 -0.113711 1.08561 -0.312684 -0.0757855 0.0203064 0.887049)
(1.09522 -0.12123 -0.0709047 -0.112017 1.04418 -0.33001 -0.0781606 0.00683804 0.887049)
(1.15373 -0.131229 0.0105944 -0.0871951 0.989313 -0.351336 -0.0657043 -0.00574833 0.865192)
(1.18613 -0.0965246 0.0714421 -0.0524916 0.956918 -0.344159 -0.0637082 -0.0170704 0.865192)
(1.2047 -0.0528339 0.130119 -0.00880073 0.938347 -0.326525 -0.0597759 -0.0278739 0.865192)
(1.20721 -0.00542609 0.184843 0.0386071 0.935838 -0.298969 -0.054027 -0.0378301 0.865192)
(1.19335 0.0399805 0.23395 0.0840142 0.949695 -0.262329 -0.046637 -0.0466369 0.865193)
(1.1648 0.0779094 0.275949 0.121943 0.978247 -0.217719 -0.03783 -0.054027 0.865192)
(1.125 0.103786 0.309563 0.147819 1.01805 -0.166493 -0.0278735 -0.0597753 0.865192)
(1.07875 0.114488 0.333771 0.158522 1.0643 -0.110209 -0.0170703 -0.0637075 0.865192)
(1.03162 0.108726 0.347838 0.15276 1.11142 -0.0505754 -0.00574838 -0.0657042 0.865192)
(0.989313 0.0871951 0.351336 0.131229 1.15373 0.0105944 0.00574833 -0.0657043 0.865192)
(0.956918 0.0524916 0.344159 0.0965246 1.18613 0.0714421 0.0170704 -0.0637082 0.865192)
(0.938347 0.00880074 0.326525 0.0528339 1.2047 0.130119 0.0278739 -0.0597759 0.865192)
(0.935838 -0.0386071 0.298969 0.00542609 1.20721 0.184843 0.0378301 -0.054027 0.865192)
(0.949695 -0.0840141 0.262329 -0.0399805 1.19335 0.23395 0.0466369 -0.046637 0.865193)
(0.978247 -0.121943 0.217719 -0.0779093 1.1648 0.275949 0.054027 -0.03783 0.865192)
(1.01805 -0.147819 0.166493 -0.103786 1.125 0.309563 0.0597753 -0.0278735 0.865192)
(1.0643 -0.158522 0.110209 -0.114488 1.07875 0.333771 0.0637075 -0.0170703 0.865192)
(1.11142 -0.15276 0.0505754 -0.108726 1.03162 0.347838 0.0657042 -0.00574838 0.865192)
(1.15373 -0.131229 -0.0105944 -0.0871951 0.989313 0.351336 0.0657043 0.00574833 0.865192)
(1.18613 -0.0965246 -0.0714422 -0.0524916 0.956918 0.344159 0.0637082 0.0170704 0.865192)
(1.2047 -0.0528339 -0.130119 -0.00880073 0.938347 0.326525 0.0597759 0.0278738 0.865192)
(1.20721 -0.0054261 -0.184843 0.0386071 0.935838 0.298969 0.054027 0.0378301 0.865192)
(1.19335 0.0399805 -0.23395 0.0840142 0.949695 0.262329 0.046637 0.0466369 0.865193)
(1.1648 0.0779093 -0.275949 0.121943 0.978247 0.217719 0.03783 0.0540269 0.865192)
(1.125 0.103786 -0.309563 0.147819 1.01805 0.166493 0.0278735 0.0597753 0.865192)
(1.07875 0.114488 -0.333771 0.158522 1.0643 0.110209 0.0170703 0.0637075 0.865192)
(1.03162 0.108726 -0.347838 0.15276 1.11142 0.0505754 0.00574838 0.0657042 0.865192)
(0.989313 0.0871951 -0.351336 0.131229 1.15373 -0.0105944 -0.00574833 0.0657043 0.865192)
(0.956919 0.0524916 -0.344159 0.0965246 1.18613 -0.0714421 -0.0170704 0.0637082 0.865192)
(0.938347 0.00880072 -0.326525 0.0528339 1.2047 -0.130119 -0.0278738 0.0597759 0.865192)
(0.935838 -0.0386071 -0.298969 0.00542609 1.20721 -0.184843 -0.0378301 0.054027 0.865192)
(0.949695 -0.0840142 -0.262329 -0.0399805 1.19335 -0.23395 -0.0466369 0.046637 0.865193)
(0.978247 -0.121943 -0.217719 -0.0779093 1.1648 -0.275949 -0.054027 0.03783 0.865192)
(1.01805 -0.147819 -0.166493 -0.103786 1.125 -0.309563 -0.0597753 0.0278735 0.865192)
(1.0643 -0.158522 -0.110209 -0.114488 1.07875 -0.333771 -0.0637075 0.0170703 0.865192)
(1.11142 -0.15276 -0.0505754 -0.108726 1.03162 -0.347838 -0.0657042 0.00574838 0.865192)
(1.15906 -0.144721 -0.00281744 -0.121703 1.01857 -0.314937 -0.113896 -0.00996472 0.870823)
(1.20038 -0.112663 0.0519136 -0.0896457 0.977248 -0.310642 -0.110436 -0.029591 0.870823)
(1.22825 -0.0684048 0.105067 -0.0453875 0.949379 -0.296907 -0.103619 -0.0483179 0.870823)
(1.2393 -0.0172837 0.155028 0.00573348 0.938328 -0.274152 -0.0936543 -0.0655767 0.870823)
(1.2322 0.0345337 0.200279 0.0575512 0.945429 -0.243066 -0.0808436 -0.0808432 0.870823)
(1.20781 0.0807978 0.239444 0.103816 0.969824 -0.204595 -0.065577 -0.0936536 0.870823)
(1.16906 0.115928 0.271334 0.138946 1.00857 -0.159908 -0.0483177 -0.103618 0.870823)
(1.12063 0.135688 0.29498 0.158706 1.057 -0.110362 -0.0295903 -0.110435 0.870823)
(1.06837 0.137694 0.309663 0.160712 1.10926 -0.0574628 -0.00996403 -0.113896 0.870823)
(1.01857 0.121703 0.314937 0.144721 1.15906 -0.00281743 0.00996472 -0.113896 0.870823)
(0.977248 0.0896457 0.310641 0.112663 1.20038 0.0519136 0.029591 -0.110436 0.870823)
(0.949379 0.0453875 0.296907 0.0684048 1.22825 0.105067 0.0483179 -0.103619 0.870823)
(0.938328 -0.00573347 0.274152 0.0172837 1.2393 0.155028 0.0655767 -0.0936542 0.870823)
(0.945429 -0.0575511 0.243066 -0.0345337 1.2322 0.200279 0.0808432 -0.0808436 0.870823)
(0.969824 -0.103816 0.204595 -0.0807978 1.20781 0.239444 0.0936536 -0.065577 0.870823)
(1.00857 -0.138946 0.159908 -0.115928 1.16906 0.271334 0.103618 -0.0483177 0.870823)
(1.057 -0.158706 0.110362 -0.135688 1.12063 0.29498 0.110435 -0.0295903 0.870823)
(1.10926 -0.160712 0.0574628 -0.137694 1.06837 0.309663 0.113896 -0.00996404 0.870823)
(1.15906 -0.144721 0.00281741 -0.121703 1.01857 0.314937 0.113896 0.00996472 0.870823)
(1.20038 -0.112663 -0.0519136 -0.0896457 0.977248 0.310641 0.110436 0.029591 0.870823)
(1.22825 -0.0684048 -0.105067 -0.0453875 0.949379 0.296907 0.103619 0.0483179 0.870823)
(1.2393 -0.0172837 -0.155028 0.00573348 0.938328 0.274152 0.0936542 0.0655767 0.870823)
(1.2322 0.0345337 -0.200279 0.0575511 0.945429 0.243066 0.0808436 0.0808432 0.870823)
(1.20781 0.0807978 -0.239444 0.103816 0.969824 0.204595 0.065577 0.0936536 0.870823)
(1.16906 0.115928 -0.271334 0.138946 1.00857 0.159908 0.0483177 0.103618 0.870823)
(1.12063 0.135688 -0.29498 0.158706 1.057 0.110362 0.0295903 0.110435 0.870823)
(1.06837 0.137694 -0.309663 0.160712 1.10926 0.0574628 0.00996404 0.113896 0.870823)
(1.01857 0.121703 -0.314937 0.144721 1.15906 0.00281742 -0.00996472 0.113896 0.870823)
(0.977248 0.0896457 -0.310642 0.112663 1.20038 -0.0519136 -0.029591 0.110436 0.870823)
(0.949379 0.0453875 -0.296907 0.0684048 1.22825 -0.105067 -0.0483179 0.103619 0.870823)
(0.938328 -0.00573349 -0.274152 0.0172837 1.2393 -0.155028 -0.0655767 0.0936543 0.870823)
(0.945429 -0.0575512 -0.243066 -0.0345337 1.2322 -0.200279 -0.0808432 0.0808436 0.870823)
(0.969824 -0.103816 -0.204595 -0.0807978 1.20781 -0.239444 -0.0936536 0.065577 0.870823)
(1.00857 -0.138946 -0.159908 -0.115928 1.16906 -0.271334 -0.103618 0.0483177 0.870823)
(1.057 -0.158706 -0.110362 -0.135688 1.12063 -0.29498 -0.110435 0.0295903 0.870823)
(1.10926 -0.160712 -0.0574629 -0.137694 1.06837 -0.309663 -0.113896 0.00996403 0.870823)
(1.17771 -0.17539 0.0122096 -0.115107 1.00525 -0.319397 -0.105624 -0.00924101 0.861094)
(1.22219 -0.137138 0.0674869 -0.0768542 0.96077 -0.312425 -0.102415 -0.0274419 0.861094)
(1.2509 -0.0859795 0.120714 -0.0256966 0.932058 -0.29596 -0.0960936 -0.0448089 0.861094)
(1.26038 -0.028087 0.170272 0.0321961 0.922575 -0.270502 -0.0868522 -0.0608142 0.861094)
(1.2495 0.029558 0.214658 0.0898412 0.933464 -0.236824 -0.0749721 -0.0749718 0.861094)
(1.21955 0.0800022 0.252521 0.140286 0.963412 -0.195952 -0.0608142 -0.0868517 0.861094)
(1.17415 0.117161 0.282711 0.177445 1.00881 -0.149125 -0.0448086 -0.0960927 0.861094)
(1.11879 0.136554 0.304311 0.196837 1.06417 -0.0977671 -0.0274414 -0.102414 0.861094)
(1.06013 0.13584 0.316665 0.196124 1.12283 -0.0434387 -0.00924063 -0.105624 0.861094)
(1.00525 0.115107 0.319397 0.17539 1.17771 0.0122096 0.00924101 -0.105624 0.861094)
(0.96077 0.0768542 0.312425 0.137138 1.22219 0.0674869 0.0274419 -0.102415 0.861094)
(0.932058 0.0256966 0.29596 0.0859796 1.2509 0.120714 0.0448089 -0.0960936 0.861094)
(0.922575 -0.0321961 0.270502 0.028087 1.26038 0.170272 0.0608142 -0.0868522 0.861094)
(0.933464 -0.0898412 0.236824 -0.029558 1.2495 0.214658 0.0749718 -0.0749721 0.861094)
(0.963412 -0.140286 0.195952 -0.0800022 1.21955 0.252521 0.0868517 -0.0608142 0.861094)
(1.00881 -0.177445 0.149125 -0.117161 1.17415 0.282711 0.0960926 -0.0448086 0.861094)
(1.06417 -0.196837 0.0977671 -0.136554 1.11879 0.304311 0.102414 -0.0274414 0.861094)
(1.12283 -0.196124 0.0434387 -0.13584 1.06013 0.316665 0.105624 -0.00924063 0.861094)
(1.17771 -0.17539 -0.0122096 -0.115107 1.00525 0.319397 0.105624 0.009241 0.861094)
(1.22219 -0.137138 -0.0674869 -0.0768542 0.96077 0.312425 0.102415 0.0274418 0.861094)
(1.2509 -0.0859796 -0.120714 -0.0256966 0.932058 0.29596 0.0960936 0.0448089 0.861094)
(1.26038 -0.028087 -0.170272 0.0321961 0.922575 0.270502 0.0868522 0.0608142 0.861094)
(1.2495 0.029558 -0.214658 0.0898412 0.933464 0.236824 0.0749721 0.0749718 0.861094)
(1.21955 0.0800022 -0.252521 0.140286 0.963412 0.195952 0.0608142 0.0868517 0.861094)
(1.17415 0.117161 -0.282711 0.177445 1.00881 0.149125 0.0448086 0.0960926 0.861094)
(1.11879 0.136553 -0.304311 0.196837 1.06417 0.0977671 0.0274414 0.102414 0.861094)
(1.06013 0.13584 -0.316665 0.196124 1.12283 0.0434387 0.00924063 0.105624 0.861094)
(1.00525 0.115107 -0.319397 0.17539 1.17771 -0.0122096 -0.009241 0.105624 0.861094)
(0.96077 0.0768542 -0.312425 0.137138 1.22219 -0.0674869 -0.0274418 0.102415 0.861094)
(0.932058 0.0256966 -0.29596 0.0859796 1.2509 -0.120714 -0.0448089 0.0960936 0.861094)
(0.922575 -0.0321961 -0.270502 0.028087 1.26038 -0.170272 -0.0608142 0.0868522 0.861094)
(0.933464 -0.0898412 -0.236825 -0.029558 1.2495 -0.214658 -0.0749718 0.0749721 0.861094)
(0.963412 -0.140286 -0.195952 -0.0800022 1.21955 -0.252521 -0.0868517 0.0608142 0.861094)
(1.00881 -0.177445 -0.149125 -0.117161 1.17415 -0.282711 -0.0960927 0.0448086 0.861094)
(1.06417 -0.196837 -0.0977672 -0.136553 1.11879 -0.304311 -0.102414 0.0274414 0.861094)
(1.12283 -0.196124 -0.0434387 -0.13584 1.06013 -0.316665 -0.105624 0.00924063 0.861094)
(1.19698 -0.212244 0.0257334 -0.103801 0.984442 -0.323374 -0.0957979 -0.00838123 0.849341)
(1.24462 -0.166368 0.0814957 -0.0579254 0.936804 -0.313992 -0.0928871 -0.024889 0.849341)
(1.27369 -0.106966 0.134782 0.00147688 0.90773 -0.295071 -0.0871539 -0.0406405 0.849341)
(1.2807 -0.0412018 0.183973 0.0672409 0.900725 -0.267183 -0.0787722 -0.0551568 0.849341)
(1.26479 0.0229919 0.227573 0.131435 0.916635 -0.231178 -0.0679974 -0.0679973 0.849341)
(1.22788 0.0778726 0.26426 0.186316 0.953542 -0.188148 -0.0551566 -0.0787719 0.849341)
(1.17443 0.116821 0.292916 0.225264 1.00699 -0.139401 -0.0406401 -0.0871531 0.849341)
(1.11088 0.135138 0.312673 0.243582 1.07054 -0.086419 -0.0248888 -0.0928865 0.849341)
(1.0449 0.130617 0.322929 0.23906 1.13652 -0.0308109 -0.00838115 -0.0957977 0.849341)
(0.984442 0.103801 0.323374 0.212244 1.19698 0.0257334 0.00838124 -0.0957979 0.849341)
(0.936804 0.0579254 0.313992 0.166368 1.24462 0.0814957 0.024889 -0.0928871 0.849341)
(0.907729 -0.00147686 0.295071 0.106966 1.27369 0.134782 0.0406405 -0.0871539 0.849341)
(0.900725 -0.0672408 0.267183 0.0412018 1.2807 0.183973 0.0551568 -0.0787722 0.849341)
(0.916635 -0.131435 0.231178 -0.0229919 1.26479 0.227573 0.0679973 -0.0679974 0.849341)
(0.953542 -0.186316 0.188148 -0.0778726 1.22788 0.26426 0.0787719 -0.0551566 0.849341)
(1.00699 -0.225264 0.139401 -0.116821 1.17443 0.292916 0.0871531 -0.0406401 0.849341)
(1.07054 -0.243582 0.086419 -0.135138 1.11088 0.312673 0.0928865 -0.0248888 0.849341)
(1.13652 -0.23906 0.0308109 -0.130617 1.0449 0.322929 0.0957976 -0.00838116 0.849341)
(1.19698 -0.212244 -0.0257334 -0.103801 0.984442 0.323374 0.0957979 0.00838123 0.849341)
(1.24462 -0.166368 -0.0814957 -0.0579254 0.936804 0.313992 0.0928871 0.024889 0.849341)
(1.27369 -0.106966 -0.134782 0.00147687 0.907729 0.295071 0.0871539 0.0406405 0.849341)
(1.2807 -0.0412018 -0.183973 0.0672409 0.900725 0.267183 0.0787722 0.0551568 0.849341)
(1.26479 0.0229919 -0.227573 0.131435 0.916635 0.231178 0.0679974 0.0679973 0.849341)
(1.22788 0.0778726 -0.26426 0.186316 0.953542 0.188148 0.0551567 0.0787719 0.849341)
(1.17443 0.116821 -0.292916 0.225264 1.00699 0.139401 0.0406401 0.0871531 0.849341)
(1.11088 0.135138 -0.312673 0.243582 1.07054 0.086419 0.0248888 0.0928865 0.849341)
(1.0449 0.130617 -0.322929 0.23906 1.13652 0.0308109 0.00838116 0.0957976 0.849341)
(0.984442 0.103801 -0.323374 0.212244 1.19698 -0.0257334 -0.00838123 0.0957979 0.849341)
(0.936804 0.0579254 -0.313992 0.166368 1.24462 -0.0814957 -0.024889 0.0928871 0.849341)
(0.90773 -0.00147689 -0.295071 0.106966 1.27369 -0.134782 -0.0406405 0.0871539 0.849341)
(0.900725 -0.0672409 -0.267183 0.0412018 1.2807 -0.183973 -0.0551568 0.0787722 0.849341)
(0.916635 -0.131435 -0.231178 -0.0229919 1.26479 -0.227573 -0.0679973 0.0679974 0.849341)
(0.953542 -0.186316 -0.188148 -0.0778726 1.22788 -0.26426 -0.0787719 0.0551567 0.849341)
(1.00699 -0.225264 -0.139401 -0.116821 1.17443 -0.292916 -0.0871531 0.0406401 0.849341)
(1.07054 -0.243582 -0.086419 -0.135138 1.11088 -0.312673 -0.0928865 0.0248888 0.849341)
(1.13652 -0.23906 -0.0308109 -0.130617 1.0449 -0.322929 -0.0957977 0.00838115 0.849341)
(1.18421 -0.207239 0.0304519 -0.116634 1.01531 -0.296992 -0.126236 -0.0110446 0.85789)
(1.2345 -0.168589 0.0815616 -0.0779841 0.965015 -0.287193 -0.122401 -0.0327973 0.85789)
(1.26854 -0.115069 0.130193 -0.0244642 0.930974 -0.268666 -0.114846 -0.0535534 0.85789)
(1.28223 -0.0531339 0.174868 0.0374707 0.917291 -0.241977 -0.103802 -0.0726824 0.85789)
(1.2739 0.00974549 0.21423 0.10035 0.925617 -0.207935 -0.0896035 -0.089603 0.85789)
(1.24457 0.0659856 0.247083 0.15659 0.954946 -0.167575 -0.0726824 -0.103801 0.85789)