/*--------------------------------*- C++ -*----------------------------------*\
| =========                 |                                                 |
| \\      /  F ield         | OpenFOAM: The Open Source CFD Toolbox           |
|  \\    /   O peration     | Version:  2312                                  |
|   \\  /    A nd           | Website:  www.openfoam.com                      |
|    \\/     M anipulation  |                                                 |
\*---------------------------------------------------------------------------*/
FoamFile
{
    version     2.0;
    format      ascii;
    arch        "LSB;label=32;scalar=64";
    class       pointVectorField;
    location    "0.7";
    object      pointD;
}
// * * * * * * * * * * * * * * * * * * * * * * * * * * * * * * * * * * * * * //

dimensions      [0 1 0 0 0 0 0];

internalField   nonuniform List<vector> 
2164
(
(0 0 0)
(0 0 0)
(0 0 0)
(0 0 0)
(0 0 0)
(0 0 0)
(0 0 0)
(0 0 0)
(0 0 0)
(0 0 0)
(0 0 0)
(0 0 0)
(0 0 0)
(0 0 0)
(0 0 0)
(0 0 0)
(0 0 0)
(0 0 0)
(0 0 0)
(0 0 0)
(0 0 0)
(0 0 0)
(0 0 0)
(0 0 0)
(0 0 0)
(0 0 0)
(0 0 0)
(0 0 0)
(0 0 0)
(0 0 0)
(0 0 0)
(0 0 0)
(0 0 0)
(0 0 0)
(0 0 0)
(0 0 0)
(0.000175023 0.000554579 7.98885e-06)
(7.60624e-05 0.000576546 7.98905e-06)
(-2.52091e-05 0.000580995 7.98991e-06)
(-0.000125714 0.000567792 7.99041e-06)
(-0.0002224 0.000537336 7.99021e-06)
(-0.000312329 0.000490553 7.99051e-06)
(-0.000392768 0.000428864 7.99062e-06)
(-0.000461272 0.000354146 7.98967e-06)
(-0.000515761 0.000268666 7.98948e-06)
(-0.000554579 0.000175023 7.98884e-06)
(-0.000576546 7.60624e-05 7.98904e-06)
(-0.000580995 -2.52092e-05 7.9899e-06)
(-0.000567792 -0.000125714 7.9904e-06)
(-0.000537336 -0.0002224 7.9902e-06)
(-0.000490553 -0.000312329 7.9905e-06)
(-0.000428864 -0.000392768 7.99062e-06)
(-0.000354146 -0.000461272 7.98967e-06)
(-0.000268666 -0.000515761 7.98947e-06)
(-0.000175023 -0.000554579 7.98884e-06)
(-7.60624e-05 -0.000576546 7.98904e-06)
(2.52092e-05 -0.000580995 7.9899e-06)
(0.000125714 -0.000567792 7.99041e-06)
(0.0002224 -0.000537336 7.99021e-06)
(0.000312329 -0.000490553 7.99051e-06)
(0.000392768 -0.000428864 7.99063e-06)
(0.000461272 -0.000354146 7.98969e-06)
(0.000515761 -0.000268666 7.98949e-06)
(0.000554579 -0.000175023 7.98886e-06)
(0.000576546 -7.60624e-05 7.98906e-06)
(0.000580995 2.52092e-05 7.98992e-06)
(0.000567792 0.000125714 7.99042e-06)
(0.000537336 0.0002224 7.99022e-06)
(0.000490553 0.000312329 7.99052e-06)
(0.000428864 0.000392768 7.99064e-06)
(0.000354146 0.000461272 7.98969e-06)
(0.000268666 0.000515761 7.98949e-06)
(8.7055e-05 0.000629722 8.30703e-05)
(-2.36172e-05 0.000635272 8.30701e-05)
(-0.000133571 0.00062152 8.30706e-05)
(-0.000239468 0.000588883 8.30713e-05)
(-0.000338089 0.000538353 8.30713e-05)
(-0.000426437 0.000471466 8.3071e-05)
(-0.000501827 0.000390253 8.30709e-05)
(-0.000561971 0.000297182 8.30707e-05)
(-0.000605038 0.000195083 8.30703e-05)
(-0.000629722 8.7055e-05 8.30703e-05)
(-0.000635272 -2.36172e-05 8.30701e-05)
(-0.00062152 -0.000133571 8.30706e-05)
(-0.000588883 -0.000239468 8.30713e-05)
(-0.000538353 -0.000338089 8.30713e-05)
(-0.000471466 -0.000426437 8.3071e-05)
(-0.000390253 -0.000501827 8.30709e-05)
(-0.000297182 -0.000561971 8.30707e-05)
(-0.000195082 -0.000605038 8.30703e-05)
(-8.7055e-05 -0.000629722 8.30703e-05)
(2.36172e-05 -0.000635272 8.30701e-05)
(0.000133571 -0.00062152 8.30706e-05)
(0.000239468 -0.000588883 8.30713e-05)
(0.000338089 -0.000538353 8.30713e-05)
(0.000426437 -0.000471466 8.3071e-05)
(0.000501827 -0.000390253 8.30709e-05)
(0.000561971 -0.000297182 8.30707e-05)
(0.000605038 -0.000195083 8.30703e-05)
(0.000629722 -8.7055e-05 8.30703e-05)
(0.000635272 2.36172e-05 8.30701e-05)
(0.00062152 0.000133571 8.30706e-05)
(0.000588883 0.000239468 8.30713e-05)
(0.000538353 0.000338089 8.30713e-05)
(0.000471466 0.000426437 8.3071e-05)
(0.000390253 0.000501827 8.30709e-05)
(0.000297182 0.000561971 8.30707e-05)
(0.000195083 0.000605038 8.30703e-05)
(0 0 0)
(0 0 0)
(0 0 0)
(0 0 0)
(0 0 0)
(0 0 0)
(0 0 0)
(0 0 0)
(0 0 0)
(0 0 0)
(0 0 0)
(0 0 0)
(0 0 0)
(0 0 0)
(0 0 0)
(0 0 0)
(0 0 0)
(0 0 0)
(0 0 0)
(0 0 0)
(0 0 0)
(0 0 0)
(0 0 0)
(0 0 0)
(0 0 0)
(0 0 0)
(0 0 0)
(0 0 0)
(0 0 0)
(0 0 0)
(0 0 0)
(0 0 0)
(0 0 0)
(0 0 0)
(0 0 0)
(0 0 0)
(-2.19804e-05 0.00070014 0.000139969)
(-0.000143224 0.000685686 0.000139969)
(-0.000260116 0.000650398 0.000139969)
(-0.000369104 0.000595349 0.000139969)
(-0.000466878 0.00052221 0.000139969)
(-0.000550466 0.000433203 0.000139969)
(-0.000617328 0.000331035 0.000139969)
(-0.000665434 0.000218807 0.000139969)
(-0.000693319 9.99319e-05 0.000139969)
(-0.00070014 -2.19805e-05 0.000139969)
(-0.000685686 -0.000143224 0.000139969)
(-0.000650398 -0.000260116 0.000139969)
(-0.000595349 -0.000369104 0.000139969)
(-0.00052221 -0.000466878 0.000139969)
(-0.000433203 -0.000550466 0.000139969)
(-0.000331035 -0.000617328 0.000139969)
(-0.000218807 -0.000665434 0.000139969)
(-9.99318e-05 -0.000693319 0.000139969)
(2.19805e-05 -0.00070014 0.000139969)
(0.000143224 -0.000685686 0.000139969)
(0.000260116 -0.000650398 0.000139969)
(0.000369104 -0.000595349 0.000139969)
(0.000466878 -0.00052221 0.000139969)
(0.000550466 -0.000433203 0.000139969)
(0.000617328 -0.000331035 0.000139969)
(0.000665434 -0.000218807 0.000139969)
(0.000693319 -9.99319e-05 0.000139969)
(0.00070014 2.19805e-05 0.000139969)
(0.000685686 0.000143224 0.000139969)
(0.000650398 0.000260116 0.000139969)
(0.000595349 0.000369104 0.000139969)
(0.00052221 0.000466878 0.000139969)
(0.000433203 0.000550466 0.000139969)
(0.000331035 0.000617328 0.000139969)
(0.000218807 0.000665434 0.000139969)
(9.99319e-05 0.000693319 0.000139969)
(0 0 0)
(0 0 0)
(0 0 0)
(0 0 0)
(0 0 0)
(0 0 0)
(0 0 0)
(0 0 0)
(0 0 0)
(0 0 0)
(0 0 0)
(0 0 0)
(0 0 0)
(0 0 0)
(0 0 0)
(0 0 0)
(0 0 0)
(0 0 0)
(0 0 0)
(0 0 0)
(0 0 0)
(0 0 0)
(0 0 0)
(0 0 0)
(0 0 0)
(0 0 0)
(0 0 0)
(0 0 0)
(0 0 0)
(0 0 0)
(0 0 0)
(0 0 0)
(0 0 0)
(0 0 0)
(0 0 0)
(0 0 0)
(-0.000149141 0.000758679 0.000174878)
(-0.000278617 0.000721255 0.000174878)
(-0.000399629 0.000661916 0.000174878)
(-0.000508499 0.000582465 0.000174878)
(-0.000601918 0.000485316 0.000174878)
(-0.000677048 0.00037342 0.000174878)
(-0.000731605 0.000250179 0.000174877)
(-0.000763934 0.000119336 0.000174878)
(-0.00077305 -1.51314e-05 0.000174878)
(-0.000758679 -0.000149141 0.000174878)
(-0.000721255 -0.000278617 0.000174878)
(-0.000661916 -0.000399629 0.000174878)
(-0.000582465 -0.000508499 0.000174878)
(-0.000485316 -0.000601918 0.000174878)
(-0.00037342 -0.000677048 0.000174878)
(-0.000250179 -0.000731605 0.000174877)
(-0.000119336 -0.000763934 0.000174878)
(1.51314e-05 -0.00077305 0.000174878)
(0.000149141 -0.000758679 0.000174878)
(0.000278617 -0.000721255 0.000174878)
(0.000399629 -0.000661916 0.000174878)
(0.000508499 -0.000582465 0.000174878)
(0.000601918 -0.000485316 0.000174878)
(0.000677048 -0.00037342 0.000174878)
(0.000731605 -0.000250179 0.000174877)
(0.000763934 -0.000119336 0.000174878)
(0.00077305 1.51314e-05 0.000174878)
(0.000758679 0.000149141 0.000174878)
(0.000721255 0.000278617 0.000174878)
(0.000661916 0.000399629 0.000174878)
(0.000582465 0.000508499 0.000174878)
(0.000485316 0.000601918 0.000174878)
(0.00037342 0.000677048 0.000174878)
(0.000250179 0.000731605 0.000174877)
(0.000119337 0.000763934 0.000174878)
(-1.51313e-05 0.00077305 0.000174878)
(0 0 0)
(0 0 0)
(0 0 0)
(0 0 0)
(0 0 0)
(0 0 0)
(0 0 0)
(0 0 0)
(0 0 0)
(0 0 0)
(0 0 0)
(0 0 0)
(0 0 0)
(0 0 0)
(0 0 0)
(0 0 0)
(0 0 0)
(0 0 0)
(0 0 0)
(0 0 0)
(0 0 0)
(0 0 0)
(0 0 0)
(0 0 0)
(0 0 0)
(0 0 0)
(0 0 0)
(0 0 0)
(0 0 0)
(0 0 0)
(0 0 0)
(0 0 0)
(0 0 0)
(0 0 0)
(0 0 0)
(0 0 0)
(0.000230771 0.00116515 0.000165842)
(2.49391e-05 0.00118752 0.000165842)
(-0.000181652 0.00117381 0.000165843)
(-0.000382722 0.00112444 0.000165845)
(-0.000572163 0.0010409 0.000165845)
(-0.000744221 0.000925728 0.000165845)
(-0.000893665 0.000782431 0.000165844)
(-0.00101596 0.00061536 0.000165843)
(-0.00110738 0.000429591 0.000165842)
(-0.00116515 0.000230771 0.000165842)
(-0.00118752 2.4939e-05 0.000165842)
(-0.00117381 -0.000181652 0.000165843)
(-0.00112444 -0.000382722 0.000165845)
(-0.0010409 -0.000572164 0.000165845)
(-0.000925728 -0.000744221 0.000165845)
(-0.000782431 -0.000893665 0.000165844)
(-0.00061536 -0.00101596 0.000165843)
(-0.000429591 -0.00110738 0.000165842)
(-0.000230771 -0.00116515 0.000165842)
(-2.49389e-05 -0.00118752 0.000165842)
(0.000181652 -0.00117381 0.000165843)
(0.000382722 -0.00112444 0.000165845)
(0.000572164 -0.0010409 0.000165845)
(0.000744221 -0.000925728 0.000165845)
(0.000893665 -0.000782431 0.000165844)
(0.00101596 -0.00061536 0.000165843)
(0.00110738 -0.000429591 0.000165842)
(0.00116515 -0.000230771 0.000165842)
(0.00118752 -2.4939e-05 0.000165842)
(0.00117381 0.000181652 0.000165843)
(0.00112444 0.000382722 0.000165845)
(0.0010409 0.000572164 0.000165845)
(0.000925728 0.000744221 0.000165845)
(0.000782431 0.000893665 0.000165844)
(0.00061536 0.00101596 0.000165843)
(0.000429591 0.00110738 0.000165842)
(9.6955e-05 0.00126671 0.000271604)
(-0.00012448 0.0012643 0.000271604)
(-0.00034213 0.00122348 0.000271604)
(-0.000549388 0.00114548 0.000271606)
(-0.000739951 0.00103268 0.000271606)
(-0.000908031 0.000888497 0.000271605)
(-0.00104852 0.000717319 0.000271606)
(-0.00115716 0.000524347 0.000271605)
(-0.00123063 0.000315442 0.000271604)
(-0.00126671 9.69549e-05 0.000271604)
(-0.0012643 -0.00012448 0.000271604)
(-0.00122348 -0.000342131 0.000271604)
(-0.00114548 -0.000549388 0.000271606)
(-0.00103268 -0.000739952 0.000271606)
(-0.000888496 -0.000908031 0.000271605)
(-0.000717319 -0.00104852 0.000271606)
(-0.000524347 -0.00115716 0.000271605)
(-0.000315442 -0.00123063 0.000271604)
(-9.69549e-05 -0.00126671 0.000271604)
(0.00012448 -0.0012643 0.000271604)
(0.000342131 -0.00122348 0.000271604)
(0.000549388 -0.00114548 0.000271606)
(0.000739952 -0.00103268 0.000271606)
(0.000908032 -0.000888497 0.000271605)
(0.00104852 -0.000717319 0.000271606)
(0.00115716 -0.000524347 0.000271605)
(0.00123063 -0.000315442 0.000271604)
(0.00126671 -9.69549e-05 0.000271604)
(0.0012643 0.00012448 0.000271604)
(0.00122348 0.000342131 0.000271604)
(0.00114548 0.000549388 0.000271606)
(0.00103268 0.000739952 0.000271606)
(0.000888497 0.000908031 0.000271605)
(0.000717319 0.00104852 0.000271606)
(0.000524347 0.00115716 0.000271605)
(0.000315443 0.00123063 0.000271604)
(-5.97758e-05 0.00136175 0.000366467)
(-0.000295331 0.00133068 0.000366467)
(-0.000521915 0.00125918 0.000366467)
(-0.000732641 0.00114942 0.000366468)
(-0.000921106 0.00100474 0.000366468)
(-0.00108158 0.000829524 0.000366467)
(-0.0012092 0.000629107 0.000366467)
(-0.00130007 0.000409575 0.000366467)
(-0.00135144 0.000177598 0.000366466)
(-0.00136175 -5.97759e-05 0.000366466)
(-0.00133068 -0.000295331 0.000366467)
(-0.00125918 -0.000521915 0.000366467)
(-0.00114942 -0.000732641 0.000366468)
(-0.00100474 -0.000921106 0.000366468)
(-0.000829524 -0.00108158 0.000366467)
(-0.000629107 -0.0012092 0.000366467)
(-0.000409575 -0.00130007 0.000366467)
(-0.000177598 -0.00135144 0.000366466)
(5.97759e-05 -0.00136175 0.000366466)
(0.000295331 -0.00133068 0.000366467)
(0.000521915 -0.00125918 0.000366467)
(0.000732641 -0.00114942 0.000366468)
(0.000921106 -0.00100474 0.000366468)
(0.00108158 -0.000829524 0.000366467)
(0.0012092 -0.000629107 0.000366467)
(0.00130007 -0.000409575 0.000366467)
(0.00135144 -0.000177598 0.000366466)
(0.00136175 5.97759e-05 0.000366467)
(0.00133068 0.000295331 0.000366467)
(0.00125918 0.000521915 0.000366467)
(0.00114942 0.000732641 0.000366468)
(0.00100474 0.000921106 0.000366468)
(0.000829524 0.00108158 0.000366467)
(0.000629107 0.0012092 0.000366467)
(0.000409576 0.00130007 0.000366467)
(0.000177598 0.00135144 0.000366466)
(-0.000232257 0.00143794 0.00044444)
(-0.000478423 0.00137576 0.000444439)
(-0.000710051 0.00127178 0.000444439)
(-0.000920106 0.00112916 0.000444439)
(-0.0011022 0.000952232 0.000444439)
(-0.00125081 0.000746369 0.000444439)
(-0.00136142 0.000517828 0.000444439)
(-0.00143065 0.000273553 0.000444439)
(-0.00145642 2.09675e-05 0.000444439)
(-0.00143794 -0.000232257 0.000444439)
(-0.00137576 -0.000478423 0.000444439)
(-0.00127178 -0.000710051 0.000444439)
(-0.00112916 -0.000920106 0.000444439)
(-0.000952231 -0.0011022 0.000444439)
(-0.000746369 -0.00125081 0.000444439)
(-0.000517828 -0.00136142 0.000444439)
(-0.000273553 -0.00143065 0.000444439)
(-2.09675e-05 -0.00145642 0.000444439)
(0.000232257 -0.00143794 0.000444439)
(0.000478423 -0.00137576 0.000444439)
(0.000710051 -0.00127178 0.000444439)
(0.000920106 -0.00112916 0.000444439)
(0.0011022 -0.000952231 0.000444439)
(0.00125081 -0.000746369 0.000444439)
(0.00136142 -0.000517828 0.000444439)
(0.00143065 -0.000273553 0.000444439)
(0.00145642 -2.09675e-05 0.000444439)
(0.00143794 0.000232257 0.00044444)
(0.00137576 0.000478423 0.000444439)
(0.00127178 0.000710051 0.000444439)
(0.00112916 0.000920106 0.000444439)
(0.000952232 0.0011022 0.000444439)
(0.000746369 0.00125081 0.000444439)
(0.000517828 0.00136142 0.000444439)
(0.000273553 0.00143065 0.000444439)
(2.09676e-05 0.00145642 0.000444439)
(0.000199468 0.0017821 0.000416427)
(-0.00011302 0.00178966 0.000416427)
(-0.000422076 0.00174284 0.000416429)
(-0.000718304 0.00164307 0.00041643)
(-0.000992708 0.00149338 0.000416431)
(-0.00123695 0.00129831 0.000416431)
(-0.00144361 0.00106379 0.00041643)
(-0.0016064 0.00079695 0.000416429)
(-0.00172038 0.000505894 0.000416427)
(-0.0017821 0.000199468 0.000416427)
(-0.00178966 -0.00011302 0.000416427)
(-0.00174284 -0.000422076 0.000416429)
(-0.00164307 -0.000718304 0.00041643)
(-0.00149338 -0.000992708 0.000416431)
(-0.00129831 -0.00123695 0.000416431)
(-0.00106379 -0.00144361 0.00041643)
(-0.00079695 -0.0016064 0.000416429)
(-0.000505894 -0.00172038 0.000416427)
(-0.000199468 -0.0017821 0.000416427)
(0.000113021 -0.00178966 0.000416427)
(0.000422076 -0.00174284 0.000416429)
(0.000718304 -0.00164307 0.00041643)
(0.000992709 -0.00149338 0.000416431)
(0.00123695 -0.00129831 0.000416431)
(0.00144361 -0.00106379 0.00041643)
(0.0016064 -0.00079695 0.000416429)
(0.00172038 -0.000505894 0.000416428)
(0.0017821 -0.000199468 0.000416427)
(0.00178966 0.00011302 0.000416427)
(0.00174284 0.000422076 0.000416429)
(0.00164307 0.000718304 0.00041643)
(0.00149338 0.000992708 0.000416431)
(0.00129831 0.00123695 0.000416431)
(0.00106379 0.00144361 0.00041643)
(0.00079695 0.0016064 0.000416429)
(0.000505895 0.00172038 0.000416428)
(3.5742e-05 0.00187969 0.00053617)
(-0.000291205 0.00185734 0.000536171)
(-0.000609303 0.00177855 0.000536171)
(-0.000908889 0.00164573 0.000536172)
(-0.00118086 0.0014629 0.000536172)
(-0.00141695 0.00123562 0.000536172)
(-0.00160998 0.000970797 0.000536172)
(-0.0017541 0.000676477 0.000536171)
(-0.00184492 0.000361602 0.000536171)
(-0.00187969 3.57419e-05 0.00053617)
(-0.00185734 -0.000291205 0.000536171)
(-0.00177855 -0.000609303 0.000536171)
(-0.00164573 -0.000908889 0.000536172)
(-0.0014629 -0.00118086 0.000536172)
(-0.00123562 -0.00141695 0.000536172)
(-0.000970797 -0.00160998 0.000536172)
(-0.000676477 -0.0017541 0.000536171)
(-0.000361602 -0.00184492 0.000536171)
(-3.57418e-05 -0.00187969 0.00053617)
(0.000291205 -0.00185734 0.000536171)
(0.000609303 -0.00177855 0.000536171)
(0.000908889 -0.00164573 0.000536172)
(0.00118086 -0.0014629 0.000536172)
(0.00141695 -0.00123562 0.000536172)
(0.00160998 -0.000970797 0.000536172)
(0.0017541 -0.000676477 0.000536171)
(0.00184492 -0.000361602 0.000536171)
(0.00187969 -3.57419e-05 0.00053617)
(0.00185734 0.000291205 0.000536171)
(0.00177855 0.000609303 0.000536171)
(0.00164573 0.000908889 0.000536172)
(0.0014629 0.00118086 0.000536172)
(0.00123562 0.00141695 0.000536172)
(0.000970797 0.00160998 0.000536172)
(0.000676478 0.0017541 0.000536171)
(0.000361602 0.00184492 0.000536171)
(-0.000148225 0.00197032 0.000645843)
(-0.000488116 0.00191465 0.000645843)
(-0.000813175 0.0018008 0.000645844)
(-0.00111353 0.00163224 0.000645844)
(-0.00138005 0.00141408 0.000645844)
(-0.00160463 0.00115295 0.000645844)
(-0.00178046 0.000856796 0.000645844)
(-0.00190219 0.000534604 0.000645844)
(-0.00196613 0.00019617 0.000645843)
(-0.00197032 -0.000148225 0.000645843)
(-0.00191465 -0.000488116 0.000645843)
(-0.0018008 -0.000813175 0.000645844)
(-0.00163224 -0.00111353 0.000645843)
(-0.00141408 -0.00138005 0.000645844)
(-0.00115295 -0.00160463 0.000645844)
(-0.000856796 -0.00178046 0.000645844)
(-0.000534603 -0.00190219 0.000645844)
(-0.00019617 -0.00196613 0.000645843)
(0.000148225 -0.00197032 0.000645843)
(0.000488116 -0.00191465 0.000645843)
(0.000813175 -0.0018008 0.000645844)
(0.00111353 -0.00163224 0.000645843)
(0.00138005 -0.00141408 0.000645844)
(0.00160463 -0.00115295 0.000645844)
(0.00178046 -0.000856796 0.000645844)
(0.00190219 -0.000534603 0.000645844)
(0.00196613 -0.00019617 0.000645843)
(0.00197032 0.000148225 0.000645843)
(0.00191465 0.000488116 0.000645843)
(0.0018008 0.000813175 0.000645844)
(0.00163224 0.00111353 0.000645844)
(0.00141408 0.00138005 0.000645844)
(0.00115295 0.00160463 0.000645844)
(0.000856796 0.00178046 0.000645844)
(0.000534604 0.00190219 0.000645844)
(0.00019617 0.00196613 0.000645843)
(-0.000343685 0.00204038 0.000740425)
(-0.000692769 0.0019497 0.000740425)
(-0.00102081 0.00179978 0.000740425)
(-0.00131783 0.00159518 0.000740425)
(-0.00157481 0.00134211 0.000740425)
(-0.00178394 0.00104825 0.000740425)
(-0.00193886 0.000722551 0.000740425)
(-0.00203487 0.000374894 0.000740425)
(-0.00206906 1.58445e-05 0.000740426)
(-0.00204038 -0.000343685 0.000740425)
(-0.0019497 -0.000692769 0.000740425)
(-0.00179978 -0.00102081 0.000740425)
(-0.00159518 -0.00131783 0.000740425)
(-0.00134211 -0.00157481 0.000740425)
(-0.00104825 -0.00178394 0.000740425)
(-0.00072255 -0.00193886 0.000740424)
(-0.000374894 -0.00203487 0.000740425)
(-1.58445e-05 -0.00206906 0.000740426)
(0.000343685 -0.00204038 0.000740425)
(0.000692769 -0.0019497 0.000740425)
(0.00102081 -0.00179978 0.000740425)
(0.00131783 -0.00159518 0.000740425)
(0.00157481 -0.00134211 0.000740425)
(0.00178394 -0.00104825 0.000740425)
(0.00193886 -0.00072255 0.000740425)
(0.00203487 -0.000374894 0.000740425)
(0.00206906 -1.58445e-05 0.000740426)
(0.00204038 0.000343685 0.000740425)
(0.0019497 0.000692769 0.000740425)
(0.00179978 0.00102081 0.000740425)
(0.00159518 0.00131783 0.000740425)
(0.00134211 0.00157481 0.000740425)
(0.00104825 0.00178394 0.000740425)
(0.000722551 0.00193886 0.000740425)
(0.000374894 0.00203487 0.000740425)
(1.58446e-05 0.00206906 0.000740426)
(7.42035e-05 0.00237709 0.000705203)
(-0.000339704 0.00235386 0.000705203)
(-0.000743285 0.00225911 0.000705204)
(-0.00112428 0.00209572 0.000705205)
(-0.00147112 0.00186865 0.000705205)
(-0.00177325 0.0015848 0.000705206)
(-0.00202151 0.0012528 0.000705206)
(-0.00220835 0.000882738 0.000705205)
(-0.00232809 0.000485851 0.000705205)
(-0.00237709 7.42033e-05 0.000705203)
(-0.00235386 -0.000339704 0.000705203)
(-0.00225911 -0.000743285 0.000705204)
(-0.00209572 -0.00112428 0.000705205)
(-0.00186865 -0.00147112 0.000705205)
(-0.0015848 -0.00177325 0.000705206)
(-0.0012528 -0.00202151 0.000705206)
(-0.000882737 -0.00220835 0.000705205)
(-0.000485851 -0.00232809 0.000705205)
(-7.42032e-05 -0.00237709 0.000705203)
(0.000339704 -0.00235386 0.000705203)
(0.000743285 -0.00225911 0.000705204)
(0.00112428 -0.00209572 0.000705205)
(0.00147112 -0.00186865 0.000705205)
(0.00177325 -0.0015848 0.000705206)
(0.00202151 -0.0012528 0.000705206)
(0.00220835 -0.000882737 0.000705205)
(0.00232809 -0.000485851 0.000705205)
(0.00237709 -7.42033e-05 0.000705203)
(0.00235386 0.000339704 0.000705203)
(0.00225911 0.000743285 0.000705204)
(0.00209572 0.00112428 0.000705205)
(0.00186865 0.00147112 0.000705205)
(0.0015848 0.00177325 0.000705206)
(0.0012528 0.00202151 0.000705206)
(0.000882738 0.00220835 0.000705205)
(0.000485851 0.00232809 0.000705205)
(-9.63529e-05 0.00244713 0.000825631)
(-0.000519829 0.00239322 0.000825631)
(-0.00092751 0.0022666 0.000825632)
(-0.00130701 0.0020711 0.000825632)
(-0.0016468 0.00181268 0.000825632)
(-0.00193655 0.00149918 0.000825633)
(-0.00216745 0.00114012 0.000825632)
(-0.00233251 0.000746426 0.000825632)
(-0.00242669 0.000330051 0.000825631)
(-0.00244713 -9.6353e-05 0.000825631)
(-0.00239322 -0.000519829 0.00082563)
(-0.0022666 -0.00092751 0.000825632)
(-0.0020711 -0.00130701 0.000825632)
(-0.00181268 -0.0016468 0.000825632)
(-0.00149917 -0.00193655 0.000825633)
(-0.00114012 -0.00216745 0.000825632)
(-0.000746426 -0.00233251 0.000825632)
(-0.000330051 -0.00242669 0.000825631)
(9.63531e-05 -0.00244713 0.000825631)
(0.000519829 -0.00239322 0.00082563)
(0.000927511 -0.0022666 0.000825632)
(0.00130701 -0.0020711 0.000825632)
(0.0016468 -0.00181268 0.000825632)
(0.00193655 -0.00149918 0.000825633)
(0.00216745 -0.00114012 0.000825632)
(0.00233251 -0.000746426 0.000825632)
(0.00242669 -0.000330051 0.000825631)
(0.00244713 9.6353e-05 0.000825631)
(0.00239322 0.000519829 0.000825631)
(0.0022666 0.00092751 0.000825632)
(0.0020711 0.00130701 0.000825632)
(0.00181268 0.0016468 0.000825632)
(0.00149918 0.00193655 0.000825633)
(0.00114012 0.00216745 0.000825632)
(0.000746426 0.00233251 0.000825632)
(0.000330052 0.00242669 0.000825631)
(-0.000283747 0.00251081 0.000936104)
(-0.000715433 0.00242339 0.000936104)
(-0.00112538 0.00226234 0.000936104)
(-0.00150114 0.00203255 0.000936104)
(-0.00183128 0.001741 0.000936104)
(-0.00210578 0.00139656 0.000936104)
(-0.0023163 0.00100967 0.000936104)
(-0.00245643 0.000592114 0.000936104)
(-0.00252194 0.000156561 0.000936104)
(-0.00251081 -0.000283747 0.000936103)
(-0.00242339 -0.000715433 0.000936104)
(-0.00226234 -0.00112538 0.000936104)
(-0.00203255 -0.00150114 0.000936104)
(-0.001741 -0.00183128 0.000936104)
(-0.00139656 -0.00210578 0.000936104)
(-0.00100967 -0.0023163 0.000936104)
(-0.000592113 -0.00245643 0.000936104)
(-0.00015656 -0.00252194 0.000936104)
(0.000283747 -0.00251081 0.000936103)
(0.000715433 -0.00242339 0.000936104)
(0.00112538 -0.00226234 0.000936104)
(0.00150114 -0.00203255 0.000936104)
(0.00183128 -0.001741 0.000936104)
(0.00210578 -0.00139656 0.000936104)
(0.0023163 -0.00100967 0.000936105)
(0.00245643 -0.000592114 0.000936104)
(0.00252194 -0.000156561 0.000936105)
(0.00251081 0.000283747 0.000936104)
(0.00242339 0.000715433 0.000936104)
(0.00226234 0.00112538 0.000936104)
(0.00203255 0.00150114 0.000936104)
(0.001741 0.00183128 0.000936104)
(0.00139656 0.00210578 0.000936104)
(0.00100967 0.0023163 0.000936105)
(0.000592114 0.00245643 0.000936104)
(0.000156561 0.00252194 0.000936105)
(-0.000480396 0.00255445 0.00103243)
(-0.000916674 0.00243222 0.00103243)
(-0.0013251 0.00223609 0.00103243)
(-0.00169326 0.00197202 0.00103243)
(-0.00200997 0.00164803 0.00103243)
(-0.00226561 0.00127396 0.00103243)
(-0.00245242 0.000861189 0.00103243)
(-0.0025647 0.000422248 0.00103243)
(-0.00259906 -2.95233e-05 0.00103243)
(-0.00255445 -0.000480396 0.00103243)
(-0.00243222 -0.000916674 0.00103243)
(-0.00223609 -0.0013251 0.00103243)
(-0.00197202 -0.00169326 0.00103243)
(-0.00164803 -0.00200997 0.00103243)
(-0.00127396 -0.00226561 0.00103243)
(-0.000861188 -0.00245242 0.00103243)
(-0.000422248 -0.0025647 0.00103243)
(2.95234e-05 -0.00259906 0.00103243)
(0.000480397 -0.00255445 0.00103243)
(0.000916674 -0.00243222 0.00103243)
(0.0013251 -0.00223609 0.00103243)
(0.00169326 -0.00197202 0.00103243)
(0.00200997 -0.00164803 0.00103243)
(0.00226561 -0.00127396 0.00103243)
(0.00245242 -0.000861188 0.00103243)
(0.0025647 -0.000422248 0.00103243)
(0.00259906 2.95233e-05 0.00103243)
(0.00255445 0.000480397 0.00103243)
(0.00243222 0.000916674 0.00103243)
(0.00223609 0.0013251 0.00103243)
(0.00197202 0.00169326 0.00103243)
(0.00164803 0.00200997 0.00103243)
(0.00127396 0.00226561 0.00103243)
(0.000861189 0.00245242 0.00103243)
(0.000422249 0.0025647 0.00103243)
(-2.95232e-05 0.00259906 0.00103243)
(-0.000117462 0.00291907 0.00101106)
(-0.000622569 0.00285432 0.00101106)
(-0.00110876 0.00270285 0.00101106)
(-0.00156126 0.00246926 0.00101106)
(-0.00196632 0.00216063 0.00101106)
(-0.00231164 0.00178636 0.00101106)
(-0.00258672 0.00135781 0.00101106)
(-0.0027832 0.000888 0.00101106)
(-0.00289512 0.000391212 0.00101106)
(-0.00291907 -0.000117462 0.00101106)
(-0.00285432 -0.000622569 0.00101106)
(-0.00270285 -0.00110876 0.00101106)
(-0.00246925 -0.00156126 0.00101106)
(-0.00216063 -0.00196632 0.00101106)
(-0.00178636 -0.00231164 0.00101106)
(-0.00135781 -0.00258672 0.00101106)
(-0.000888 -0.0027832 0.00101106)
(-0.000391212 -0.00289512 0.00101106)
(0.000117462 -0.00291907 0.00101106)
(0.000622569 -0.00285432 0.00101106)
(0.00110876 -0.00270285 0.00101106)
(0.00156126 -0.00246926 0.00101106)
(0.00196632 -0.00216063 0.00101106)
(0.00231164 -0.00178636 0.00101106)
(0.00258672 -0.00135781 0.00101106)
(0.0027832 -0.000888 0.00101106)
(0.00289512 -0.000391212 0.00101106)
(0.00291907 0.000117462 0.00101106)
(0.00285432 0.000622569 0.00101106)
(0.00270285 0.00110876 0.00101106)
(0.00246926 0.00156126 0.00101106)
(0.00216063 0.00196632 0.00101106)
(0.00178636 0.00231164 0.00101106)
(0.00135781 0.00258672 0.00101106)
(0.000888 0.0027832 0.00101106)
(0.000391213 0.00289512 0.00101106)
(-0.000280973 0.0029464 0.00112311)
(-0.000788341 0.00285285 0.00112311)
(-0.00127176 0.00267261 0.00112311)
(-0.00171653 0.00241117 0.00112311)
(-0.00210915 0.00207647 0.00112311)
(-0.00243768 0.00167867 0.00112311)
(-0.00269214 0.00122987 0.00112311)
(-0.00286481 0.000743702 0.00112311)
(-0.00295043 0.000234933 0.00112311)
(-0.0029464 -0.000280973 0.00112311)
(-0.00285285 -0.000788341 0.00112311)
(-0.00267261 -0.00127176 0.00112311)
(-0.00241117 -0.00171653 0.00112311)
(-0.00207647 -0.00210915 0.00112311)
(-0.00167867 -0.00243768 0.00112311)
(-0.00122987 -0.00269214 0.00112311)
(-0.000743702 -0.00286481 0.00112311)
(-0.000234933 -0.00295043 0.00112311)
(0.000280973 -0.0029464 0.00112311)
(0.000788341 -0.00285285 0.00112311)
(0.00127176 -0.00267261 0.00112311)
(0.00171653 -0.00241117 0.00112311)
(0.00210915 -0.00207647 0.00112311)
(0.00243768 -0.00167867 0.00112311)
(0.00269214 -0.00122987 0.00112311)
(0.00286481 -0.000743702 0.00112311)
(0.00295043 -0.000234933 0.00112311)
(0.0029464 0.000280973 0.00112311)
(0.00285285 0.000788341 0.00112311)
(0.00267261 0.00127176 0.00112311)
(0.00241117 0.00171653 0.00112311)
(0.00207647 0.00210915 0.00112311)
(0.00167867 0.00243768 0.00112311)
(0.00122987 0.00269214 0.00112311)
(0.000743702 0.00286481 0.00112311)
(0.000234933 0.00295043 0.00112311)
(-0.000458197 0.00296903 0.00122508)
(-0.000966801 0.00284436 0.00122508)
(-0.00144603 0.00263326 0.00122508)
(-0.00188132 0.00234216 0.00122508)
(-0.00225946 0.00197989 0.00122508)
(-0.00256893 0.00155746 0.00122508)
(-0.00280035 0.00108771 0.00122508)
(-0.00294669 0.000584906 0.00122508)
(-0.00300349 6.43318e-05 0.00122508)
(-0.00296903 -0.000458197 0.00122508)
(-0.00284436 -0.000966801 0.00122508)
(-0.00263326 -0.00144603 0.00122508)
(-0.00234216 -0.00188132 0.00122508)
(-0.00197989 -0.00225946 0.00122508)
(-0.00155746 -0.00256893 0.00122508)
(-0.00108771 -0.00280035 0.00122508)
(-0.000584906 -0.00294669 0.00122508)
(-6.43316e-05 -0.00300349 0.00122508)
(0.000458197 -0.00296903 0.00122508)
(0.000966801 -0.00284436 0.00122508)
(0.00144603 -0.00263326 0.00122508)
(0.00188132 -0.00234216 0.00122508)
(0.00225946 -0.00197989 0.00122508)
(0.00256893 -0.00155746 0.00122508)
(0.00280035 -0.00108771 0.00122508)
(0.00294669 -0.000584906 0.00122508)
(0.00300349 -6.43317e-05 0.00122508)
(0.00296903 0.000458197 0.00122508)
(0.00284436 0.000966801 0.00122508)
(0.00263326 0.00144603 0.00122508)
(0.00234216 0.00188132 0.00122508)
(0.00197989 0.00225946 0.00122508)
(0.00155746 0.00256893 0.00122508)
(0.00108771 0.00280035 0.00122508)
(0.000584907 0.00294669 0.00122508)
(6.43319e-05 0.00300349 0.00122508)
(-0.000642564 0.00297323 0.00131326)
(-0.0011491 0.00281648 0.00131326)
(-0.00162072 0.00257415 0.00131326)
(-0.00204309 0.00225361 0.00131326)
(-0.00240339 0.00186459 0.00131326)
(-0.00269066 0.00141892 0.00131326)
(-0.00289617 0.00093014 0.00131326)
(-0.00301369 0.000413091 0.00131326)
(-0.00303964 -0.000116507 0.00131326)
(-0.00297323 -0.000642564 0.00131326)
(-0.00281648 -0.0011491 0.00131326)
(-0.00257415 -0.00162072 0.00131326)
(-0.00225361 -0.00204309 0.00131326)
(-0.00186459 -0.00240339 0.00131326)
(-0.00141892 -0.00269066 0.00131326)
(-0.000930139 -0.00289617 0.00131326)
(-0.000413091 -0.00301369 0.00131326)
(0.000116507 -0.00303964 0.00131326)
(0.000642564 -0.00297323 0.00131326)
(0.0011491 -0.00281648 0.00131326)
(0.00162072 -0.00257415 0.00131326)
(0.00204309 -0.00225361 0.00131326)
(0.00240339 -0.00186459 0.00131326)
(0.00269066 -0.00141892 0.00131326)
(0.00289617 -0.00093014 0.00131326)
(0.00301369 -0.000413091 0.00131326)
(0.00303964 0.000116507 0.00131326)
(0.00297323 0.000642564 0.00131326)
(0.00281648 0.0011491 0.00131326)
(0.00257415 0.00162072 0.00131326)
(0.00225361 0.00204309 0.00131326)
(0.00186459 0.00240339 0.00131326)
(0.00141892 0.00269066 0.00131326)
(0.00093014 0.00289617 0.00131326)
(0.000413091 0.00301369 0.00131326)
(-0.000116507 0.00303964 0.00131326)
(-0.000343217 0.00338151 0.00132684)
(-0.000925196 0.00327054 0.00132684)
(-0.00147906 0.00306019 0.00132684)
(-0.00198799 0.00275686 0.00132684)
(-0.00243651 0.00236977 0.00132684)
(-0.002811 0.00191067 0.00132684)
(-0.00310008 0.00139352 0.00132684)
(-0.00329496 0.000834024 0.00132684)
(-0.00338973 0.000249188 0.00132684)
(-0.00338151 -0.000343217 0.00132684)
(-0.00327054 -0.000925196 0.00132684)
(-0.00306019 -0.00147906 0.00132684)
(-0.00275686 -0.00198799 0.00132684)
(-0.00236977 -0.00243651 0.00132684)
(-0.00191067 -0.002811 0.00132684)
(-0.00139352 -0.00310008 0.00132684)
(-0.000834024 -0.00329496 0.00132684)
(-0.000249188 -0.00338973 0.00132684)
(0.000343218 -0.00338151 0.00132684)
(0.000925196 -0.00327054 0.00132684)
(0.00147906 -0.00306019 0.00132684)
(0.00198799 -0.00275686 0.00132684)
(0.00243651 -0.00236977 0.00132684)
(0.002811 -0.00191067 0.00132684)
(0.00310008 -0.00139352 0.00132684)
(0.00329496 -0.000834024 0.00132684)
(0.00338973 -0.000249188 0.00132684)