/*--------------------------------*- C++ -*----------------------------------*\
| =========                 |                                                 |
| \\      /  F ield         | OpenFOAM: The Open Source CFD Toolbox           |
|  \\    /   O peration     | Version:  2312                                  |
|   \\  /    A nd           | Website:  www.openfoam.com                      |
|    \\/     M anipulation  |                                                 |
\*---------------------------------------------------------------------------*/
FoamFile
{
    version     2.0;
    format      ascii;
    arch        "LSB;label=32;scalar=64";
    class       volScalarField;
    location    "0.7";
    object      sigmaHyd;
}
// * * * * * * * * * * * * * * * * * * * * * * * * * * * * * * * * * * * * * //

dimensions      [1 -1 -2 0 0 0 0];

internalField   nonuniform List<scalar> 
1620
(
-8877.63
-8877.57
-8877.56
-8877.76
-8877.8
-8877.73
-8877.68
-8877.67
-8877.64
-8877.62
-8877.57
-8877.56
-8877.76
-8877.8
-8877.73
-8877.68
-8877.67
-8877.64
-8877.62
-8877.57
-8877.56
-8877.76
-8877.8
-8877.73
-8877.69
-8877.67
-8877.64
-8877.63
-8877.57
-8877.57
-8877.76
-8877.8
-8877.73
-8877.69
-8877.67
-8877.64
-19481.5
-19481.4
-19481.4
-19481.5
-19481.5
-19481.5
-19481.4
-19481.5
-19481.5
-19481.5
-19481.4
-19481.4
-19481.4
-19481.5
-19481.5
-19481.4
-19481.5
-19481.5
-19481.5
-19481.4
-19481.4
-19481.5
-19481.5
-19481.5
-19481.4
-19481.5
-19481.5
-19481.5
-19481.4
-19481.4
-19481.5
-19481.5
-19481.5
-19481.4
-19481.5
-19481.6
-46190.4
-46190.4
-46190.6
-46190.5
-46190.5
-46190.4
-46190.5
-46190.6
-46190.5
-46190.4
-46190.4
-46190.6
-46190.5
-46190.5
-46190.4
-46190.5
-46190.6
-46190.5
-46190.4
-46190.4
-46190.6
-46190.5
-46190.5
-46190.4
-46190.5
-46190.6
-46190.5
-46190.4
-46190.4
-46190.6
-46190.5
-46190.5
-46190.4
-46190.5
-46190.6
-46190.5
5615.2
5615.12
5615.25
5615.23
5615.29
5615.27
5615.07
5615.17
5615.23
5615.2
5615.12
5615.25
5615.23
5615.29
5615.27
5615.07
5615.17
5615.23
5615.2
5615.12
5615.25
5615.23
5615.29
5615.27
5615.07
5615.17
5615.23
5615.2
5615.12
5615.25
5615.23
5615.29
5615.27
5615.07
5615.17
5615.23
-4007.07
-4006.98
-4007.1
-4007.11
-4007.12
-4007.26
-4007
-4007.03
-4007.06
-4007.07
-4006.98
-4007.1
-4007.11
-4007.12
-4007.26
-4007
-4007.03
-4007.06
-4007.07
-4006.98
-4007.1
-4007.11
-4007.12
-4007.26
-4007
-4007.03
-4007.06
-4007.07
-4006.98
-4007.1
-4007.11
-4007.12
-4007.26
-4007
-4007.03
-4007.06
-27406.3
-27406.3
-27406.3
-27406.3
-27406.1
-27406
-27406.2
-27406.2
-27406.3
-27406.3
-27406.3
-27406.3
-27406.3
-27406.1
-27406
-27406.2
-27406.2
-27406.3
-27406.3
-27406.3
-27406.3
-27406.3
-27406.1
-27406
-27406.2
-27406.2
-27406.3
-27406.3
-27406.3
-27406.3
-27406.3
-27406.1
-27406
-27406.2
-27406.2
-27406.3
3576.51
3576.41
3576.5
3576.44
3576.56
3576.55
3576.37
3576.5
3576.35
3576.51
3576.41
3576.5
3576.44
3576.56
3576.55
3576.37
3576.5
3576.35
3576.51
3576.41
3576.5
3576.44
3576.56
3576.55
3576.37
3576.5
3576.35
3576.51
3576.41
3576.49
3576.44
3576.56
3576.55
3576.37
3576.5
3576.35
-6044.06
-6044.01
-6044.05
-6043.89
-6043.92
-6044.06
-6043.95
-6044.17
-6043.97
-6044.06
-6044
-6044.05
-6043.89
-6043.92
-6044.06
-6043.95
-6044.17
-6043.97
-6044.06
-6044
-6044.05
-6043.89
-6043.92
-6044.06
-6043.95
-6044.17
-6043.97
-6044.06
-6044.01
-6044.05
-6043.89
-6043.92
-6044.06
-6043.95
-6044.17
-6043.97
-25583.1
-25583.1
-25583
-25583.1
-25583.2
-25583.1
-25583.2
-25583
-25583
-25583.1
-25583.1
-25583
-25583.1
-25583.2
-25583.1
-25583.2
-25583
-25583
-25583.1
-25583.1
-25583
-25583.1
-25583.2
-25583.1
-25583.2
-25583
-25583
-25583.1
-25583.1
-25583
-25583.1
-25583.2
-25583.1
-25583.2
-25583
-25583
3019.55
3019.57
3019.5
3019.6
3019.63
3019.61
3019.69
3019.51
3019.59
3019.55
3019.57
3019.5
3019.6
3019.63
3019.61
3019.69
3019.51
3019.59
3019.55
3019.57
3019.5
3019.6
3019.63
3019.61
3019.69
3019.51
3019.59
3019.55
3019.57
3019.5
3019.6
3019.63
3019.61
3019.69
3019.51
3019.59
-6072.32
-6072.33
-6072.36
-6072.28
-6072.38
-6072.3
-6072.36
-6072.33
-6072.33
-6072.32
-6072.33
-6072.36
-6072.28
-6072.38
-6072.3
-6072.36
-6072.33
-6072.33
-6072.32
-6072.33
-6072.36
-6072.28
-6072.38
-6072.3
-6072.36
-6072.33
-6072.33
-6072.32
-6072.33
-6072.36
-6072.28
-6072.38
-6072.3
-6072.36
-6072.33
-6072.33
-23711.3
-23711.4
-23711.3
-23711.4
-23711.4
-23711.3
-23711.4
-23711.4
-23711.3
-23711.3
-23711.4
-23711.3
-23711.4
-23711.4
-23711.3
-23711.4
-23711.4
-23711.3
-23711.3
-23711.4
-23711.3
-23711.4
-23711.4
-23711.3
-23711.4
-23711.4
-23711.3
-23711.3
-23711.4
-23711.3
-23711.4
-23711.4
-23711.3
-23711.4
-23711.4
-23711.3
2080.85
2080.96
2080.77
2080.89
2080.81
2080.84
2081.02
2080.78
2080.88
2080.85
2080.96
2080.77
2080.89
2080.81
2080.84
2081.02
2080.78
2080.88
2080.85
2080.96
2080.77
2080.89
2080.81
2080.84
2081.02
2080.78
2080.88
2080.85
2080.96
2080.77
2080.89
2080.81
2080.84
2081.02
2080.78
2080.88
-6408.16
-6408.34
-6408.16
-6408.29
-6408.25
-6408.18
-6408.32
-6408.16
-6408.23
-6408.16
-6408.34
-6408.16
-6408.29
-6408.25
-6408.18
-6408.32
-6408.16
-6408.23
-6408.16
-6408.34
-6408.16
-6408.29
-6408.25
-6408.18
-6408.32
-6408.16
-6408.23
-6408.16
-6408.34
-6408.16
-6408.29
-6408.25
-6408.18
-6408.32
-6408.16
-6408.23
-22381.3
-22381.2
-22381.3
-22381.3
-22381.2
-22381.3
-22381.3
-22381.4
-22381.2
-22381.3
-22381.2
-22381.3
-22381.3
-22381.2
-22381.3
-22381.3
-22381.4
-22381.2
-22381.3
-22381.2
-22381.3
-22381.3
-22381.2
-22381.3
-22381.3
-22381.4
-22381.2
-22381.3
-22381.2
-22381.3
-22381.3
-22381.2
-22381.3
-22381.3
-22381.4
-22381.2
915.823
915.912
915.797
915.902
915.828
915.831
915.876
915.762
915.886
915.823
915.912
915.797
915.903
915.828
915.831
915.876
915.762
915.886
915.823
915.912
915.798
915.903
915.828
915.832
915.876
915.763
915.886
915.823
915.912
915.798
915.903
915.828
915.832
915.876
915.762
915.886
-6796.69
-6796.85
-6796.73
-6796.77
-6796.76
-6796.77
-6796.79
-6796.62
-6796.82
-6796.69
-6796.85
-6796.73
-6796.77
-6796.76
-6796.77
-6796.79
-6796.62
-6796.82
-6796.69
-6796.85
-6796.73
-6796.77
-6796.76
-6796.77
-6796.79
-6796.62
-6796.82
-6796.69
-6796.85
-6796.73
-6796.77
-6796.76
-6796.77
-6796.79
-6796.62
-6796.82
-21016.7
-21016.6
-21016.8
-21016.7
-21016.8
-21016.9
-21016.8
-21016.9
-21016.8
-21016.7
-21016.6
-21016.8
-21016.7
-21016.8
-21016.9
-21016.8
-21016.9
-21016.8
-21016.7
-21016.6
-21016.8
-21016.7
-21016.8
-21016.9
-21016.8
-21016.9
-21016.8
-21016.7
-21016.6
-21016.8
-21016.7
-21016.8
-21016.9
-21016.8
-21016.9
-21016.8
-740.126
-740.057
-740.285
-739.973
-740.139
-740.274
-740.065
-740.26
-740.145
-740.126
-740.057
-740.285
-739.973
-740.139
-740.274
-740.065
-740.26
-740.145
-740.125
-740.056
-740.284
-739.972
-740.138
-740.273
-740.064
-740.259
-740.144
-740.125
-740.056
-740.284
-739.972
-740.138
-740.273
-740.065
-740.26
-740.145
-7281.22
-7281.51
-7281.27
-7281.46
-7281.38
-7281.2
-7281.43
-7281.25
-7281.46
-7281.22
-7281.51
-7281.27
-7281.46
-7281.38
-7281.2
-7281.43
-7281.25
-7281.46
-7281.22
-7281.51
-7281.27
-7281.46
-7281.38
-7281.2
-7281.43
-7281.25
-7281.46
-7281.22
-7281.51
-7281.27
-7281.46
-7281.38
-7281.2
-7281.43
-7281.25
-7281.46
-19351.2
-19350.9
-19351.1
-19351
-19351.1
-19351.1
-19351
-19351.2
-19350.9
-19351.2
-19350.9
-19351.1
-19351
-19351.1
-19351.1
-19351
-19351.2
-19350.9
-19351.2
-19350.9
-19351.1
-19351
-19351.1
-19351.1
-19351
-19351.2
-19350.9
-19351.2
-19350.9
-19351.1
-19351
-19351.1
-19351.1
-19351
-19351.2
-19350.9
-2972.92
-2973
-2973.05
-2972.9
-2973.06
-2973.05
-2973.02
-2973.06
-2973.08
-2972.92
-2973
-2973.05
-2972.9
-2973.06
-2973.05
-2973.02
-2973.06
-2973.08
-2972.92
-2973
-2973.05
-2972.9
-2973.06
-2973.05
-2973.02
-2973.06
-2973.08
-2972.92
-2973
-2973.05
-2972.9
-2973.06
-2973.05
-2973.02
-2973.06
-2973.08
-7805.44
-7805.43
-7805.31
-7805.49
-7805.39
-7805.28
-7805.41
-7805.39
-7805.26
-7805.44
-7805.43
-7805.31
-7805.49
-7805.39
-7805.28
-7805.41
-7805.39
-7805.26
-7805.44
-7805.43
-7805.31
-7805.49
-7805.39
-7805.28
-7805.41
-7805.39
-7805.26
-7805.44
-7805.43
-7805.31
-7805.49
-7805.39
-7805.28
-7805.41
-7805.39
-7805.26
-17085.7
-17085.6
-17085.7
-17085.6
-17085.7
-17085.8
-17085.8
-17085.7
-17085.7
-17085.7
-17085.6
-17085.7
-17085.6
-17085.7
-17085.8
-17085.8
-17085.7
-17085.7
-17085.8
-17085.6
-17085.7
-17085.6
-17085.7
-17085.8
-17085.8
-17085.8
-17085.7
-17085.8
-17085.6
-17085.7
-17085.6
-17085.7
-17085.8
-17085.8
-17085.7
-17085.7
-5679.05
-5679.01
-5678.94
-5678.97
-5679.04
-5679.07
-5679.08
-5679.01
-5678.93
-5679.05
-5679.01
-5678.94
-5678.97
-5679.04
-5679.07
-5679.08
-5679.01
-5678.93
-5679.05
-5679.01
-5678.93
-5678.97
-5679.04
-5679.07
-5679.08
-5679.01
-5678.93
-5679.05
-5679.01
-5678.93
-5678.97
-5679.04
-5679.07
-5679.08
-5679.01
-5678.93
-8261.61
-8261.58
-8261.61
-8261.45
-8261.56
-8261.6
-8261.49
-8261.62
-8261.58
-8261.61
-8261.58
-8261.61
-8261.45
-8261.56
-8261.6
-8261.49
-8261.62
-8261.58
-8261.61
-8261.58
-8261.61
-8261.45
-8261.56
-8261.6
-8261.49
-8261.62
-8261.58
-8261.61
-8261.58
-8261.61
-8261.45
-8261.56
-8261.6
-8261.49
-8261.62
-8261.58
-13995.8
-13995.9
-13995.8
-13995.9
-13995.9
-13995.9
-13995.8
-13995.8
-13996
-13995.8
-13995.9
-13995.8
-13995.9
-13995.9
-13995.9
-13995.8
-13995.8
-13996
-13995.8
-13995.9
-13995.8
-13995.9
-13995.9
-13995.9
-13995.8
-13995.8
-13996
-13995.8
-13995.9
-13995.8
-13995.9
-13995.9
-13995.9
-13995.8
-13995.8
-13996
-8461.18
-8461.24
-8461.14
-8461.03
-8461.12
-8461.18
-8461.22
-8461.07
-8461.09
-8461.18
-8461.24
-8461.14
-8461.03
-8461.12
-8461.18
-8461.22
-8461.07
-8461.09
-8461.18
-8461.24
-8461.14
-8461.03
-8461.12
-8461.18
-8461.22
-8461.07
-8461.09
-8461.18
-8461.24
-8461.14
-8461.03
-8461.12
-8461.18
-8461.22
-8461.07
-8461.09
-8467.95
-8467.9
-8468.03
-8468.07
-8467.98
-8468.1
-8467.95
-8467.99
-8468.07
-8467.95
-8467.9
-8468.03
-8468.07
-8467.98
-8468.1
-8467.95
-8467.99
-8468.07
-8467.95
-8467.9
-8468.03
-8468.07
-8467.98
-8468.1
-8467.95
-8467.99
-8468.07
-8467.95
-8467.9
-8468.03
-8468.07
-8467.98
-8468.1
-8467.95
-8467.99
-8468.07
-10119.6
-10119.7
-10119.6
-10119.7
-10119.6
-10119.5
-10119.5
-10119.6
-10119.7
-10119.6
-10119.7
-10119.6
-10119.7
-10119.6
-10119.5
-10119.5
-10119.6
-10119.7
-10119.6
-10119.7
-10119.6
-10119.7
-10119.6
-10119.5
-10119.5
-10119.6
-10119.7
-10119.6
-10119.7
-10119.6
-10119.7
-10119.6
-10119.5
-10119.5
-10119.6
-10119.7
-10473.7
-10473.7
-10473.6
-10473.6
-10473.6
-10473.7
-10473.6
-10473.7
-10473.7
-10473.7
-10473.7
-10473.6
-10473.6
-10473.6
-10473.7
-10473.6
-10473.7
-10473.7
-10473.7
-10473.7
-10473.6
-10473.6
-10473.6
-10473.7
-10473.6
-10473.7
-10473.7
-10473.7
-10473.7
-10473.6
-10473.6
-10473.6
-10473.7
-10473.6
-10473.7
-10473.7
-8137.59
-8137.42
-8137.58
-8137.56
-8137.59
-8137.53
-8137.55
-8137.68
-8137.53
-8137.6
-8137.42
-8137.57
-8137.56
-8137.59
-8137.53
-8137.55
-8137.68
-8137.53
-8137.6
-8137.42
-8137.57
-8137.56
-8137.59
-8137.53
-8137.55
-8137.68
-8137.53
-8137.6
-8137.42
-8137.57
-8137.56
-8137.59
-8137.53
-8137.55
-8137.68
-8137.53
-6034.16
-6034.31
-6034.2
-6034.33
-6034.27
-6034.26
-6034.35
-6034.2
-6034.27
-6034.16
-6034.32
-6034.21
-6034.33
-6034.27
-6034.26
-6034.35
-6034.2
-6034.27
-6034.17
-6034.32
-6034.21
-6034.33
-6034.27
-6034.26
-6034.35
-6034.2
-6034.27
-6034.17
-6034.32
-6034.21
-6034.33
-6034.27
-6034.26
-6034.35
-6034.2
-6034.27
-10157
-10156.8
-10156.7
-10156.9
-10156.8
-10156.8
-10156.8
-10156.9
-10157.2
-10157
-10156.8
-10156.7
-10156.9
-10156.8
-10156.8
-10156.8
-10156.9
-10157.2
-10157
-10156.8
-10156.7
-10156.9
-10156.8
-10156.8
-10156.8
-10156.9
-10157.2
-10157
-10156.8
-10156.7
-10156.9
-10156.8
-10156.8
-10156.8
-10156.9
-10157.2
-6720.44
-6720.35
-6720.45
-6720.53
-6720.46
-6720.5
-6720.51
-6720.55
-6720.46
-6720.44
-6720.35
-6720.45
-6720.53
-6720.46
-6720.5
-6720.51
-6720.55
-6720.46
-6720.44
-6720.35
-6720.45
-6720.53
-6720.46
-6720.5
-6720.51
-6720.55
-6720.46
-6720.44
-6720.35
-6720.45
-6720.53
-6720.46
-6720.5
-6720.51
-6720.55
-6720.46
-2916.8
-2916.96
-2916.89
-2916.92
-2916.89
-2916.94
-2916.82
-2916.7
-2916.72
-2916.79
-2916.97
-2916.89
-2916.93
-2916.89
-2916.94
-2916.82
-2916.71
-2916.72
-2916.79
-2916.97
-2916.89
-2916.93
-2916.89
-2916.94
-2916.82
-2916.7
-2916.72
-2916.8
-2916.97
-2916.89
-2916.93
-2916.89
-2916.94
-2916.82
-2916.71
-2916.72
-5228.65
-5228.33
-5228.47
-5228.66
-5228.32
-5228.29
-5228.67
-5228.8
-5228.99
-5228.66
-5228.33
-5228.46
-5228.65
-5228.31
-5228.29
-5228.66
-5228.79
-5228.99
-5228.65
-5228.33
-5228.46
-5228.65
-5228.32
-5228.29
-5228.67
-5228.8
-5228.99
-5228.66
-5228.33
-5228.46
-5228.66
-5228.32
-5228.29
-5228.67
-5228.79
-5228.98
-3852.84
-3852.75
-3852.77
-3852.75
-3852.81
-3852.76
-3852.73
-3852.8
-3852.78
-3852.84
-3852.75
-3852.77
-3852.75
-3852.82
-3852.76
-3852.73
-3852.8
-3852.78
-3852.84
-3852.75
-3852.77
-3852.75
-3852.82
-3852.76
-3852.73
-3852.8
-3852.78
-3852.84
-3852.75
-3852.77
-3852.75
-3852.82
-3852.76
-3852.73
-3852.8
-3852.78
-3364.97
-3365.31
-3365.24
-3365.29
-3365.2
-3365.19
-3365.15
-3364.83
-3364.88
-3364.96
-3365.31
-3365.24
-3365.29
-3365.21
-3365.2
-3365.15
-3364.84
-3364.89
-3364.96
-3365.31
-3365.24
-3365.29
-3365.21
-3365.2
-3365.16
-3364.84
-3364.88
-3364.96
-3365.31
-3365.24
-3365.29
-3365.21
-3365.2
-3365.16
-3364.84
-3364.89
832.025
833.146
837.106
835.282
830.837
834.395
837.344
833.237
831.362
831.981
833.101
837.072
835.266
830.834
834.395
837.338
833.224
831.348
831.967
833.09
837.066
835.261
830.825
834.385
837.328
833.219
831.345
831.963
833.084
837.054
835.245
830.814
834.379
837.332
833.247
831.396
3197.93
3197.63
3196.96
3197.48
3197.59
3197.46
3196.9
3197.57
3197.77
3197.94
3197.64
3196.96
3197.48
3197.58
3197.45
3196.9
3197.57
3197.77
3197.94
3197.64
3196.96
3197.48
3197.58
3197.45
3196.9
3197.57
3197.77
3197.94
3197.64
3196.96
3197.49
3197.59
3197.46
3196.9
3197.57
3197.77
-7059.93
-7060.33
-7060.38
-7060.2
-7060.26
-7060.35
-7060.17
-7059.69
-7059.79
-7059.92
-7060.32
-7060.38
-7060.21
-7060.26
-7060.35
-7060.18
-7059.69
-7059.79
-7059.92
-7060.32
-7060.38
-7060.2
-7060.26
-7060.35
-7060.17
-7059.68
-7059.78
-7059.91
-7060.31
-7060.37
-7060.19
-7060.26
-7060.35
-7060.18
-7059.7
-7059.79
38446.5
38453.3
38413.6
38423.7
38461.7
38435.9
38410
38439.8
38439.6
38446.6
38453.6
38413.8
38423.8
38461.8
38436
38410
38439.9
38439.7
38446.7
38453.6
38413.8
38423.8
38461.8
38436
38410
38439.9
38439.6
38446.7
38453.5
38413.8
38423.8
38461.7
38435.9
38410.1
38439.8
38439.5
22758.1
22755.2
22754.1
22754.5
22758.7
22752.9
22754.6
22756.3
22758
22758.2
22755.2
22754.1
22754.5
22758.7
22752.9
22754.6
22756.3
22758.1
22758.2
22755.2
22754.1
22754.5
22758.7
22753
22754.6
22756.3
22758.1
22758.2
22755.2
22754.1
22754.5
22758.7
22753
22754.6
22756.3
22758
-53041.8
-53040.9
-53043.4
-53041.2
-53042.6
-53041.3
-53042.9
-53040.5
-53041.7
-53041.8
-53040.9
-53043.4
-53041.2
-53042.6
-53041.3
-53042.9
-53040.5
-53041.7
-53041.8
-53040.9
-53043.4
-53041.2
-53042.6
-53041.3
-53042.9
-53040.5
-53041.7
-53041.8
-53040.9
-53043.4
-53041.2
-53042.6
-53041.3
-53042.9
-53040.5
-53041.7
)
;

boundaryField
{
    fixed
    {
        type            zeroGradient;
    }
    inside
    {
        type            zeroGradient;
    }
    outside
    {
        type            zeroGradient;
    }
}


// ************************************************************************* //
