/*--------------------------------*- C++ -*----------------------------------*\
| =========                 |                                                 |
| \\      /  F ield         | OpenFOAM: The Open Source CFD Toolbox           |
|  \\    /   O peration     | Version:  2312                                  |
|   \\  /    A nd           | Website:  www.openfoam.com                      |
|    \\/     M anipulation  |                                                 |
\*---------------------------------------------------------------------------*/
FoamFile
{
    version     2.0;
    format      ascii;
    arch        "LSB;label=32;scalar=64";
    class       volSymmTensorField;
    location    "0.7";
    object      sigma;
}
// * * * * * * * * * * * * * * * * * * * * * * * * * * * * * * * * * * * * * //

dimensions      [1 -1 -2 0 0 0 0];

internalField   nonuniform List<symmTensor> 
1620
(
(-8131.98 -1162.86 -2315.72 587.658 15784.6 22911.4)
(-7471.28 -2583.87 -5021.5 -72.9526 15142.7 22911.5)
(-6364.43 -3693.26 -7574.74 -1179.73 14040.7 22911.5)
(-4945.18 -4357.08 -9897.73 -2599.54 12511.9 22911.4)
(-3384.31 -4495.44 -11920 -4160.51 10603.1 22911.4)
(-1870.11 -4091.61 -13580.1 -5674.53 8372.2 22911.5)
(-585.221 -3194.31 -14827.7 -6959.18 5886.86 22911.3)
(315.06 -1911.65 -15624.7 -7859.48 3222.62 22911.4)
(722.451 -398.428 -15946.9 -8266.78 460.447 22911.4)
(587.659 1162.86 -15784.6 -8131.98 -2315.72 22911.4)
(-72.9514 2583.87 -15142.7 -7471.28 -5021.5 22911.5)
(-1179.73 3693.26 -14040.7 -6364.43 -7574.74 22911.5)
(-2599.54 4357.08 -12511.9 -4945.18 -9897.73 22911.4)
(-4160.51 4495.44 -10603.1 -3384.31 -11920 22911.4)
(-5674.53 4091.61 -8372.2 -1870.11 -13580.1 22911.5)
(-6959.18 3194.31 -5886.86 -585.22 -14827.7 22911.3)
(-7859.48 1911.65 -3222.62 315.061 -15624.7 22911.4)
(-8266.78 398.428 -460.447 722.452 -15946.9 22911.4)
(-8131.98 -1162.86 2315.72 587.659 -15784.6 22911.4)
(-7471.28 -2583.87 5021.5 -72.9515 -15142.7 22911.5)
(-6364.43 -3693.26 7574.74 -1179.73 -14040.7 22911.5)
(-4945.18 -4357.08 9897.73 -2599.54 -12511.9 22911.4)
(-3384.31 -4495.44 11920 -4160.51 -10603.1 22911.4)
(-1870.11 -4091.61 13580.1 -5674.53 -8372.2 22911.5)
(-585.222 -3194.31 14827.7 -6959.18 -5886.86 22911.3)
(315.059 -1911.65 15624.7 -7859.48 -3222.62 22911.4)
(722.45 -398.428 15946.9 -8266.78 -460.447 22911.4)
(587.657 1162.86 15784.6 -8131.98 2315.72 22911.4)
(-72.9534 2583.87 15142.7 -7471.28 5021.5 22911.5)
(-1179.74 3693.26 14040.7 -6364.43 7574.74 22911.5)
(-2599.54 4357.08 12511.9 -4945.18 9897.73 22911.4)
(-4160.51 4495.44 10603.1 -3384.31 11920 22911.4)
(-5674.53 4091.61 8372.2 -1870.11 13580.1 22911.5)
(-6959.18 3194.31 5886.86 -585.222 14827.7 22911.3)
(-7859.48 1911.65 3222.62 315.059 15624.7 22911.4)
(-8266.78 398.428 460.447 722.45 15946.9 22911.4)
(-18936.1 -4182.83 -524.514 21874.9 4248.62 -19383.3)
(-16274.9 -10909.7 -1254.31 19213.8 4093 -19383.3)
(-11473.3 -16320.7 -1946 14412.4 3813 -19383.2)
(-5110.83 -19763.1 -2578.65 8049.7 3417.28 -19383.2)
(2045.22 -20821.8 -3132.97 893.434 2917.68 -19383.3)
(9132 -19369.2 -3591.92 -6193.22 2329.26 -19383.3)
(15294.7 -15580.3 -3941.67 -12355.6 1670.07 -19383.2)
(19789.6 -9912.18 -4171.79 -16850.8 960.23 -19383.3)
(22074.9 -3048.53 -4275.16 -19136.2 221.22 -19383.4)
(21874.9 4182.83 -4248.62 -18936.1 -524.514 -19383.3)
(19213.8 10909.7 -4093 -16274.9 -1254.31 -19383.3)
(14412.4 16320.7 -3813 -11473.3 -1946 -19383.2)
(8049.7 19763.1 -3417.28 -5110.83 -2578.65 -19383.2)
(893.436 20821.8 -2917.68 2045.23 -3132.97 -19383.3)
(-6193.22 19369.2 -2329.26 9132 -3591.92 -19383.3)
(-12355.6 15580.3 -1670.07 15294.7 -3941.67 -19383.2)
(-16850.8 9912.18 -960.23 19789.6 -4171.79 -19383.3)
(-19136.2 3048.53 -221.22 22074.9 -4275.16 -19383.4)
(-18936.1 -4182.83 524.514 21874.9 -4248.62 -19383.3)
(-16274.9 -10909.7 1254.31 19213.8 -4093 -19383.3)
(-11473.3 -16320.7 1946 14412.4 -3813 -19383.2)
(-5110.83 -19763.1 2578.65 8049.7 -3417.28 -19383.2)
(2045.23 -20821.8 3132.97 893.435 -2917.68 -19383.3)
(9132 -19369.2 3591.92 -6193.22 -2329.26 -19383.3)
(15294.7 -15580.3 3941.67 -12355.6 -1670.07 -19383.2)
(19789.6 -9912.18 4171.79 -16850.8 -960.23 -19383.3)
(22074.9 -3048.53 4275.16 -19136.2 -221.22 -19383.4)
(21874.9 4182.83 4248.62 -18936.1 524.514 -19383.3)
(19213.8 10909.7 4093 -16274.9 1254.31 -19383.3)
(14412.4 16320.7 3813 -11473.3 1946 -19383.2)
(8049.7 19763.1 3417.28 -5110.83 2578.65 -19383.2)
(893.433 20821.8 2917.68 2045.22 3132.97 -19383.3)
(-6193.23 19369.2 2329.26 9132 3591.92 -19383.3)
(-12355.6 15580.3 1670.07 15294.7 3941.67 -19383.2)
(-16850.8 9912.18 960.23 19789.6 4171.79 -19383.3)
(-19136.2 3048.53 221.22 22074.9 4275.16 -19383.4)
(-46796.4 -1307.74 1199.71 -30113.1 -22093.2 -19661.7)
(-45846.1 -4081.88 5017.93 -31063.5 -21549.3 -19661.8)
(-44004.4 -6363.7 8683.71 -32905.5 -20350.5 -19661.9)
(-41493.1 -7877.97 12085.6 -35416.5 -18533.4 -19661.8)
(-38615.4 -8442.1 15120.3 -38294.1 -16153.3 -19662)
(-35718.4 -7987.84 17695.6 -41191.1 -13282.2 -19661.8)
(-33151.5 -6570.2 19733.2 -43758.2 -10007.6 -19661.8)
(-31224.2 -4360.08 21171.2 -45685.6 -6428.9 -19661.9)
(-30169 -1624.13 21965.9 -46740.7 -2654.95 -19661.8)
(-30113.1 1307.74 22093.2 -46796.4 1199.71 -19661.7)
(-31063.5 4081.88 21549.3 -45846.1 5017.93 -19661.8)
(-32905.5 6363.7 20350.5 -44004.4 8683.71 -19661.9)
(-35416.5 7877.97 18533.4 -41493.1 12085.6 -19661.8)
(-38294.1 8442.1 16153.3 -38615.4 15120.3 -19662)
(-41191.1 7987.84 13282.2 -35718.4 17695.6 -19661.8)
(-43758.2 6570.2 10007.6 -33151.5 19733.2 -19661.7)
(-45685.6 4360.08 6428.9 -31224.2 21171.2 -19661.9)
(-46740.7 1624.13 2654.95 -30169 21965.9 -19661.8)
(-46796.4 -1307.74 -1199.71 -30113.1 22093.2 -19661.7)
(-45846.1 -4081.88 -5017.93 -31063.5 21549.3 -19661.8)
(-44004.4 -6363.7 -8683.71 -32905.5 20350.5 -19661.9)
(-41493.1 -7877.97 -12085.6 -35416.5 18533.4 -19661.8)
(-38615.4 -8442.1 -15120.3 -38294.1 16153.3 -19662)
(-35718.4 -7987.84 -17695.6 -41191.1 13282.2 -19661.8)
(-33151.5 -6570.2 -19733.2 -43758.2 10007.6 -19661.8)
(-31224.2 -4360.08 -21171.2 -45685.6 6428.9 -19661.9)
(-30169 -1624.13 -21965.9 -46740.7 2654.95 -19661.8)
(-30113.1 1307.74 -22093.2 -46796.4 -1199.71 -19661.7)
(-31063.5 4081.88 -21549.3 -45846.1 -5017.93 -19661.8)
(-32905.5 6363.7 -20350.5 -44004.4 -8683.71 -19661.9)
(-35416.5 7877.97 -18533.4 -41493.1 -12085.6 -19661.8)
(-38294.1 8442.1 -16153.3 -38615.4 -15120.3 -19662)
(-41191.1 7987.84 -13282.2 -35718.4 -17695.6 -19661.8)
(-43758.2 6570.2 -10007.6 -33151.5 -19733.2 -19661.8)
(-45685.6 4360.08 -6428.9 -31224.2 -21171.2 -19661.9)
(-46740.7 1624.13 -2654.95 -30169 -21965.9 -19661.8)
(6791.44 -1531.89 -2632.46 12609.2 13731.4 39445)
(7490.69 -2434.35 -4976.82 11909.7 13065.6 39445)
(8456.7 -3043.28 -7170.09 10944 12003 39445)
(9572.48 -3285.01 -9145.36 9828 10575.4 39445.2)
(10703.8 -3130.6 -10842.9 8696.81 8826.62 39445.2)
(11713.9 -2598.6 -12210.8 7686.63 6809.77 39445.3)
(12481.3 -1753.23 -13208 6919.1 4585.97 39444.8)
(12913.2 -696.293 -13803.6 6487.28 2222.75 39445)
(12957.8 444.589 -13979.9 6442.96 -207.97 39445)
(12609.2 1531.89 -13731.4 6791.44 -2632.46 39445)
(11909.7 2434.35 -13065.6 7490.69 -4976.82 39445)
(10944 3043.28 -12003 8456.7 -7170.09 39445)
(9828 3285.01 -10575.4 9572.48 -9145.36 39445.2)
(8696.81 3130.6 -8826.62 10703.8 -10842.9 39445.2)
(7686.62 2598.6 -6809.77 11713.9 -12210.8 39445.3)
(6919.1 1753.23 -4585.97 12481.3 -13208 39444.8)
(6487.28 696.293 -2222.75 12913.2 -13803.6 39445)
(6442.96 -444.589 207.97 12957.8 -13979.9 39445)
(6791.44 -1531.89 2632.46 12609.2 -13731.4 39445)
(7490.69 -2434.35 4976.82 11909.7 -13065.6 39445)
(8456.7 -3043.28 7170.09 10944 -12003 39445)
(9572.48 -3285.01 9145.36 9828 -10575.4 39445.2)
(10703.8 -3130.6 10842.9 8696.81 -8826.62 39445.2)
(11713.9 -2598.6 12210.8 7686.62 -6809.77 39445.2)
(12481.3 -1753.23 13208 6919.1 -4585.97 39444.8)
(12913.2 -696.293 13803.6 6487.28 -2222.75 39445)
(12957.8 444.589 13979.9 6442.96 207.97 39445)
(12609.2 1531.89 13731.4 6791.44 2632.46 39445)
(11909.7 2434.35 13065.6 7490.69 4976.82 39445)
(10944 3043.28 12003 8456.7 7170.09 39445)
(9828 3285.01 10575.4 9572.48 9145.36 39445.2)
(8696.81 3130.6 8826.62 10703.8 10842.9 39445.2)
(7686.63 2598.6 6809.77 11713.9 12210.8 39445.3)
(6919.1 1753.23 4585.97 12481.3 13208 39444.8)
(6487.28 696.293 2222.75 12913.2 13803.6 39445)
(6442.96 -444.589 -207.97 12957.8 13979.9 39445)
(-2846.14 -5423.76 -790.05 36752.7 5980.52 -3927.72)
(203.001 -11868.4 -1816.59 33703.6 5752.62 -3927.56)
(5272.3 -16881.6 -2787.89 28634.1 5349.71 -3927.72)
(11750.6 -19858.6 -3674.57 22155.8 4784.42 -3927.69)
(18856.4 -20440.4 -4449.53 15050 4073.62 -3927.71)
(25732.4 -18556.8 -5089.34 8173.62 3239.11 -3927.83)
(31550.1 -14434.9 -5574.37 2356.56 2306.1 -3927.62)
(35606.8 -8571.98 -5890.21 -1700.22 1303.1 -3927.61)
(37413.6 -1675.23 -6026.85 -3507.1 260.476 -3927.7)
(36752.7 5423.76 -5980.52 -2846.14 -790.05 -3927.72)
(33703.6 11868.4 -5752.63 203.001 -1816.59 -3927.56)
(28634.1 16881.6 -5349.71 5272.3 -2787.89 -3927.72)
(22155.8 19858.6 -4784.42 11750.6 -3674.57 -3927.69)
(15050 20440.4 -4073.62 18856.4 -4449.53 -3927.71)
(8173.62 18556.8 -3239.11 25732.4 -5089.34 -3927.83)
(2356.56 14434.9 -2306.1 31550.1 -5574.37 -3927.62)
(-1700.22 8571.98 -1303.1 35606.8 -5890.21 -3927.61)
(-3507.1 1675.23 -260.476 37413.6 -6026.85 -3927.7)
(-2846.14 -5423.76 790.05 36752.7 -5980.52 -3927.72)
(203.001 -11868.4 1816.59 33703.6 -5752.63 -3927.56)
(5272.3 -16881.6 2787.89 28634.1 -5349.71 -3927.72)
(11750.6 -19858.6 3674.57 22155.8 -4784.42 -3927.69)
(18856.4 -20440.4 4449.53 15050 -4073.62 -3927.71)
(25732.4 -18556.8 5089.34 8173.62 -3239.11 -3927.83)
(31550.1 -14434.9 5574.37 2356.56 -2306.1 -3927.62)
(35606.8 -8571.98 5890.21 -1700.22 -1303.1 -3927.61)
(37413.6 -1675.23 6026.85 -3507.1 -260.476 -3927.7)
(36752.7 5423.76 5980.52 -2846.14 790.05 -3927.72)
(33703.6 11868.4 5752.62 203.001 1816.59 -3927.56)
(28634.1 16881.6 5349.71 5272.3 2787.89 -3927.72)
(22155.8 19858.6 4784.42 11750.6 3674.57 -3927.69)
(15050 20440.4 4073.62 18856.4 4449.53 -3927.71)
(8173.62 18556.8 3239.11 25732.4 5089.34 -3927.83)
(2356.56 14434.9 2306.1 31550.1 5574.37 -3927.62)
(-1700.22 8571.98 1303.1 35606.8 5890.21 -3927.61)
(-3507.1 1675.23 260.476 37413.6 6026.85 -3927.7)
(-27469.5 -1881.62 848.589 -10620.8 -22313.9 -2128.59)
(-26317.9 -4649.44 4710.45 -11772.4 -21827.6 -2128.66)
(-24289.1 -6856.46 8429.19 -13801.2 -20678 -2128.61)
(-21627.8 -8236.49 11891.8 -16462.5 -18900.1 -2128.56)
(-18654.8 -8623.13 14993.1 -19435.1 -16548 -2128.52)
(-15729 -7969.62 17638.9 -22360.7 -13693.1 -2128.26)
(-13203.3 -6354.9 19748.7 -24886.8 -10422.1 -2128.54)
(-11382.1 -3973.66 21258.5 -26708 -6834.38 -2128.58)
(-10485.3 -1113.19 22122.3 -27605 -3039.12 -2128.58)
(-10620.8 1881.62 22313.9 -27469.5 848.589 -2128.59)
(-11772.4 4649.44 21827.6 -26317.9 4710.45 -2128.66)
(-13801.2 6856.46 20678 -24289.1 8429.19 -2128.61)
(-16462.4 8236.49 18900.1 -21627.8 11891.8 -2128.56)
(-19435.1 8623.13 16548 -18654.8 14993.1 -2128.51)
(-22360.7 7969.62 13693.1 -15729 17638.9 -2128.26)
(-24886.8 6354.9 10422.1 -13203.3 19748.7 -2128.54)
(-26708 3973.66 6834.38 -11382.1 21258.5 -2128.58)
(-27605 1113.19 3039.12 -10485.3 22122.3 -2128.58)
(-27469.5 -1881.62 -848.589 -10620.8 22313.9 -2128.59)
(-26317.9 -4649.44 -4710.45 -11772.4 21827.6 -2128.66)
(-24289.1 -6856.46 -8429.19 -13801.2 20678 -2128.61)
(-21627.8 -8236.49 -11891.8 -16462.4 18900.1 -2128.56)
(-18654.8 -8623.13 -14993.1 -19435.1 16548 -2128.52)
(-15729 -7969.62 -17638.9 -22360.7 13693.1 -2128.26)
(-13203.3 -6354.9 -19748.7 -24886.8 10422.1 -2128.54)
(-11382.1 -3973.66 -21258.5 -26708 6834.38 -2128.58)
(-10485.3 -1113.19 -22122.3 -27605 3039.12 -2128.58)
(-10620.8 1881.62 -22313.9 -27469.5 -848.589 -2128.59)
(-11772.4 4649.44 -21827.6 -26317.9 -4710.45 -2128.66)
(-13801.2 6856.46 -20678 -24289.1 -8429.19 -2128.61)
(-16462.5 8236.49 -18900.1 -21627.8 -11891.8 -2128.56)
(-19435.1 8623.13 -16548 -18654.8 -14993.1 -2128.52)
(-22360.7 7969.62 -13693.1 -15729 -17638.9 -2128.26)
(-24886.8 6354.9 -10422.1 -13203.3 -19748.7 -2128.54)
(-26708 3973.66 -6834.38 -11382.1 -21258.5 -2128.58)
(-27605 1113.19 -3039.12 -10485.3 -22122.3 -2128.58)
(5405.16 -1934.97 -1972.67 10675 13812.2 36649.4)
(6225.78 -2719.5 -4341.27 9854.11 13259.8 36649.3)
(7265.39 -3175.96 -6577.81 8814.67 12304.5 36649.4)
(8398.24 -3249.32 -8614.46 7681.59 10975.2 36649.5)
(9488.2 -2930.9 -10389.5 6592.09 9312.75 36649.4)
(10403.1 -2258.79 -11848.7 5676.91 7367.03 36649.6)
(11033.1 -1314.38 -12948.1 5046.71 5197.66 36649.3)
(11302.3 -211.364 -13653.9 4777.8 2870.25 36649.4)
(11177.7 917.089 -13944.9 4902.11 455.766 36649.2)
(10675 1934.97 -13812.2 5405.16 -1972.67 36649.4)
(9854.11 2719.5 -13259.8 6225.78 -4341.27 36649.3)
(8814.67 3175.96 -12304.5 7265.39 -6577.81 36649.4)
(7681.59 3249.32 -10975.2 8398.24 -8614.46 36649.5)
(6592.09 2930.9 -9312.75 9488.2 -10389.5 36649.4)
(5676.91 2258.79 -7367.03 10403.1 -11848.7 36649.6)
(5046.71 1314.38 -5197.66 11033.1 -12948.1 36649.3)
(4777.8 211.364 -2870.25 11302.3 -13653.9 36649.4)
(4902.11 -917.089 -455.766 11177.7 -13944.9 36649.2)
(5405.16 -1934.97 1972.67 10675 -13812.2 36649.4)
(6225.78 -2719.5 4341.27 9854.11 -13259.8 36649.3)
(7265.39 -3175.96 6577.81 8814.67 -12304.5 36649.4)
(8398.24 -3249.32 8614.46 7681.59 -10975.2 36649.5)
(9488.2 -2930.9 10389.5 6592.09 -9312.75 36649.4)
(10403.1 -2258.79 11848.7 5676.91 -7367.03 36649.6)
(11033.1 -1314.38 12948.1 5046.71 -5197.66 36649.3)
(11302.3 -211.364 13653.9 4777.8 -2870.25 36649.4)
(11177.7 917.089 13944.9 4902.11 -455.766 36649.2)
(10675 1934.97 13812.2 5405.16 1972.67 36649.4)
(9854.11 2719.5 13259.8 6225.78 4341.27 36649.3)
(8814.67 3175.96 12304.5 7265.39 6577.81 36649.4)
(7681.59 3249.32 10975.2 8398.24 8614.46 36649.5)
(6592.09 2930.9 9312.75 9488.2 10389.5 36649.4)
(5676.91 2258.79 7367.03 10403.1 11848.7 36649.6)
(5046.71 1314.38 5197.66 11033.1 12948.1 36649.3)
(4777.8 211.364 2870.25 11302.3 13653.9 36649.4)
(4902.11 -917.089 455.766 11177.7 13944.9 36649.2)
(-4025.42 -6617.03 -836.635 34601.4 6350.64 -6708.13)
(-597.492 -12823.5 -1926.71 31173.5 6108.95 -6708.04)
(4746.39 -17483.3 -2958.26 25829.5 5681.57 -6708.08)
(11361.9 -20034.3 -3899.92 19214.4 5081.6 -6707.9)
(18450.9 -20169 -4722.95 12125.4 4327.04 -6708.01)
(25158.2 -17870.9 -5402.75 5417.71 3441.28 -6708.08)
(30675.2 -13417.4 -5918.2 -99.1111 2450.81 -6707.99)
(34336.1 -7345.47 -6253.87 -3760.38 1385.89 -6708.2)
(35699.9 -387.664 -6399.43 -5123.73 278.866 -6708.03)
(34601.4 6617.03 -6350.64 -4025.42 -836.635 -6708.13)
(31173.5 12823.5 -6108.95 -597.492 -1926.71 -6708.04)
(25829.5 17483.3 -5681.57 4746.39 -2958.26 -6708.08)
(19214.4 20034.3 -5081.6 11361.9 -3899.92 -6707.9)
(12125.4 20169 -4327.04 18450.9 -4722.95 -6708.01)
(5417.71 17870.9 -3441.28 25158.2 -5402.75 -6708.08)
(-99.1107 13417.4 -2450.81 30675.2 -5918.2 -6707.99)
(-3760.38 7345.47 -1385.89 34336.1 -6253.87 -6708.2)
(-5123.73 387.665 -278.866 35699.9 -6399.43 -6708.03)
(-4025.42 -6617.03 836.635 34601.4 -6350.64 -6708.13)
(-597.492 -12823.5 1926.71 31173.5 -6108.95 -6708.04)
(4746.39 -17483.3 2958.26 25829.5 -5681.57 -6708.08)
(11361.9 -20034.3 3899.92 19214.4 -5081.6 -6707.9)
(18450.9 -20169 4722.95 12125.4 -4327.04 -6708.01)
(25158.2 -17870.9 5402.75 5417.71 -3441.28 -6708.08)
(30675.2 -13417.4 5918.2 -99.1109 -2450.81 -6707.99)
(34336.1 -7345.47 6253.87 -3760.38 -1385.89 -6708.2)
(35699.9 -387.665 6399.43 -5123.73 -278.866 -6708.03)
(34601.4 6617.03 6350.64 -4025.42 836.635 -6708.13)
(31173.5 12823.5 6108.95 -597.492 1926.71 -6708.04)
(25829.5 17483.3 5681.57 4746.39 2958.26 -6708.08)
(19214.4 20034.3 5081.6 11361.9 3899.92 -6707.9)
(12125.4 20169 4327.04 18450.9 4722.95 -6708.01)
(5417.71 17870.9 3441.28 25158.2 5402.75 -6708.08)
(-99.1111 13417.4 2450.81 30675.2 5918.2 -6707.99)
(-3760.38 7345.47 1385.89 34336.1 6253.87 -6708.2)
(-5123.73 387.664 278.866 35699.9 6399.43 -6708.03)
(-24500.5 -4209.58 2426.87 -8895.17 -22143.5 -1353.58)
(-22590.2 -6624.37 6235.15 -10805.5 -21385.7 -1353.65)
(-19969.1 -8240.2 9854.03 -13426.4 -19978.1 -1353.52)
(-16953.6 -8862.11 13173.5 -16442.1 -17963.4 -1353.58)
(-13907.2 -8415.14 16092.7 -19488.6 -15403 -1353.71)
(-11197.3 -6953.13 18522.9 -22198.5 -12374.5 -1353.64)
(-9150.95 -4652.53 20390.3 -24244.9 -8970.03 -1353.74)
(-8014.62 -1790.76 21638.2 -25380.8 -5293.05 -1353.51)
(-7925.9 1287.03 22228.5 -25469.6 -1455.2 -1353.52)
(-8895.17 4209.58 22143.5 -24500.5 2426.87 -1353.58)
(-10805.5 6624.37 21385.7 -22590.2 6235.16 -1353.65)
(-13426.3 8240.2 19978.1 -19969.1 9854.03 -1353.52)
(-16442.1 8862.11 17963.4 -16953.6 13173.5 -1353.58)
(-19488.6 8415.14 15403 -13907.2 16092.7 -1353.7)
(-22198.5 6953.13 12374.5 -11197.3 18522.9 -1353.64)
(-24244.9 4652.53 8970.03 -9150.95 20390.3 -1353.74)
(-25380.8 1790.76 5293.05 -8014.62 21638.2 -1353.51)
(-25469.6 -1287.03 1455.2 -7925.9 22228.5 -1353.52)
(-24500.5 -4209.58 -2426.87 -8895.17 22143.5 -1353.58)
(-22590.2 -6624.37 -6235.16 -10805.5 21385.7 -1353.65)
(-19969.1 -8240.2 -9854.03 -13426.3 19978.1 -1353.52)
(-16953.6 -8862.11 -13173.5 -16442.1 17963.4 -1353.58)
(-13907.2 -8415.14 -16092.7 -19488.6 15403 -1353.71)
(-11197.3 -6953.13 -18522.9 -22198.5 12374.5 -1353.64)
(-9150.95 -4652.53 -20390.3 -24244.9 8970.03 -1353.74)
(-8014.62 -1790.76 -21638.2 -25380.8 5293.05 -1353.51)
(-7925.9 1287.03 -22228.5 -25469.6 1455.2 -1353.52)
(-8895.17 4209.58 -22143.5 -24500.5 -2426.87 -1353.58)
(-10805.5 6624.37 -21385.7 -22590.2 -6235.16 -1353.65)
(-13426.4 8240.2 -19978.1 -19969.1 -9854.03 -1353.52)
(-16442.1 8862.11 -17963.4 -16953.6 -13173.5 -1353.58)
(-19488.6 8415.14 -15403 -13907.2 -16092.7 -1353.71)
(-22198.5 6953.13 -12374.5 -11197.3 -18522.9 -1353.64)
(-24244.9 4652.53 -8970.03 -9150.95 -20390.3 -1353.74)
(-25380.8 1790.76 -5293.05 -8014.62 -21638.2 -1353.51)
(-25469.6 -1287.03 -1455.2 -7925.9 -22228.5 -1353.52)
(5444.5 -1925.3 -433.105 10372 14108.6 35242.1)
(6251.6 -2651.88 -2876.53 9565.03 13819.2 35242.1)
(7258.45 -3058.6 -5232.53 8558.07 13109.7 35242)
(8343.83 -3096.36 -7429.51 7472.8 12001.9 35242.2)
(9376.58 -2760.68 -9400.66 6440.15 10529.5 35242.2)
(10232.2 -2092 -11086.3 5584.4 8737.04 35242.2)
(10807.7 -1171.06 -12435.1 5009.17 6679.28 35242.2)
(11033.2 -108.801 -13406 4783.3 4418.41 35242)
(10882 966.559 -13969.5 4934.63 2023.38 35242.2)
(10372 1925.3 -14108.6 5444.5 -433.105 35242.1)
(9565.03 2651.88 -13819.2 6251.6 -2876.53 35242.1)
(8558.07 3058.6 -13109.7 7258.45 -5232.53 35242)
(7472.8 3096.36 -12001.9 8343.83 -7429.51 35242.2)
(6440.15 2760.68 -10529.5 9376.58 -9400.66 35242.2)
(5584.4 2092 -8737.04 10232.2 -11086.3 35242.2)
(5009.17 1171.06 -6679.28 10807.7 -12435.1 35242.2)
(4783.3 108.801 -4418.41 11033.2 -13406 35242)
(4934.63 -966.559 -2023.38 10882 -13969.5 35242.2)
(5444.5 -1925.3 433.104 10372 -14108.6 35242.1)
(6251.6 -2651.88 2876.53 9565.03 -13819.2 35242.1)
(7258.45 -3058.6 5232.53 8558.07 -13109.7 35242)
(8343.83 -3096.36 7429.51 7472.8 -12001.9 35242.2)
(9376.58 -2760.68 9400.66 6440.15 -10529.5 35242.2)
(10232.2 -2092 11086.3 5584.4 -8737.04 35242.2)
(10807.7 -1171.06 12435.1 5009.17 -6679.28 35242.2)
(11033.2 -108.801 13406 4783.3 -4418.41 35242)
(10882 966.559 13969.5 4934.63 -2023.38 35242.2)
(10372 1925.3 14108.6 5444.5 433.105 35242.1)
(9565.03 2651.88 13819.2 6251.6 2876.53 35242.1)
(8558.07 3058.6 13109.7 7258.45 5232.53 35242)
(7472.8 3096.36 12001.9 8343.83 7429.51 35242.2)
(6440.15 2760.68 10529.5 9376.58 9400.66 35242.2)
(5584.4 2092 8737.04 10232.2 11086.3 35242.2)
(5009.17 1171.06 6679.28 10807.7 12435.1 35242.2)
(4783.3 108.801 4418.41 11033.2 13406 35242)
(4934.63 -966.56 2023.38 10882 13969.5 35242.2)
(-3046.04 -7702.36 -840.875 34359.9 6552.39 -7530.86)
(716.237 -13634.6 -1965.9 30597.6 6306.79 -7530.88)
(6280.63 -17922.4 -3031.19 25033.2 5869.56 -7530.93)
(12976 -20048.4 -4004.43 18338 5254.1 -7530.81)
(19994.5 -19756.3 -4855.98 11319.3 4478.95 -7530.9)
(26490 -17081.3 -5559.92 4823.91 3567.66 -7530.84)
(31678.9 -12346.1 -6094.9 -365.012 2547.95 -7530.94)
(34935.3 -6121.66 -6444.79 -3621.38 1450.87 -7530.9)
(35866.4 841.085 -6598.86 -4552.48 309.708 -7530.88)
(34359.9 7702.36 -6552.39 -3046.04 -840.875 -7530.86)
(30597.6 13634.6 -6306.79 716.237 -1965.9 -7530.88)
(25033.2 17922.4 -5869.56 6280.63 -3031.19 -7530.93)
(18338 20048.4 -5254.1 12976 -4004.43 -7530.81)
(11319.3 19756.3 -4478.95 19994.5 -4855.98 -7530.9)
(4823.91 17081.3 -3567.66 26490 -5559.92 -7530.84)
(-365.012 12346.1 -2547.95 31678.9 -6094.9 -7530.94)
(-3621.38 6121.66 -1450.87 34935.3 -6444.79 -7530.9)
(-4552.48 -841.085 -309.708 35866.4 -6598.86 -7530.88)
(-3046.04 -7702.36 840.875 34359.9 -6552.39 -7530.86)
(716.237 -13634.6 1965.9 30597.6 -6306.79 -7530.88)
(6280.63 -17922.4 3031.19 25033.2 -5869.56 -7530.93)
(12976 -20048.4 4004.43 18338 -5254.1 -7530.81)
(19994.5 -19756.3 4855.98 11319.3 -4478.95 -7530.9)
(26490 -17081.3 5559.92 4823.91 -3567.66 -7530.84)
(31678.9 -12346.1 6094.9 -365.012 -2547.95 -7530.94)
(34935.3 -6121.66 6444.79 -3621.38 -1450.87 -7530.9)
(35866.4 841.085 6598.86 -4552.48 -309.708 -7530.88)
(34359.9 7702.36 6552.39 -3046.04 840.875 -7530.86)
(30597.6 13634.6 6306.79 716.237 1965.9 -7530.88)
(25033.2 17922.4 5869.56 6280.63 3031.19 -7530.93)
(18338 20048.4 5254.1 12976 4004.43 -7530.81)
(11319.3 19756.3 4478.95 19994.5 4855.98 -7530.9)
(4823.91 17081.3 3567.66 26490 5559.92 -7530.84)
(-365.012 12346.1 2547.95 31678.9 6094.9 -7530.94)
(-3621.38 6121.66 1450.87 34935.3 6444.79 -7530.9)
(-4552.48 -841.085 309.708 35866.4 6598.86 -7530.88)
(-21124.2 -6548.21 3989.85 -7365.26 -21949.3 -644.54)
(-18469.7 -8506.23 7740.7 -10019.8 -20923.1 -644.672)
(-15305.5 -9438.27 11256.4 -13183.9 -19261 -644.552)
(-12013.6 -9231.87 14430 -16476 -17013.7 -644.593)
(-8990.62 -7912.05 17165.2 -19498.9 -14249.6 -644.697)
(-6601.39 -5637.85 19378.8 -21888.1 -11052.4 -644.551)
(-5134.18 -2683.66 21003.6 -23355.5 -7519.35 -644.665)
(-4765.6 594.186 21990.3 -23723.8 -3757.9 -644.644)
(-5540.5 3800.42 22308.7 -22948.9 117.792 -644.541)
(-7365.26 6548.21 21949.3 -21124.2 3989.85 -644.539)
(-10019.8 8506.23 20923.1 -18469.7 7740.7 -644.67)
(-13183.9 9438.27 19261 -15305.5 11256.4 -644.551)
(-16476 9231.87 17013.7 -12013.6 14430 -644.592)
(-19498.9 7912.05 14249.6 -8990.62 17165.2 -644.696)
(-21888.1 5637.85 11052.4 -6601.39 19378.8 -644.55)
(-23355.5 2683.66 7519.35 -5134.18 21003.6 -644.664)
(-23723.8 -594.185 3757.9 -4765.6 21990.3 -644.644)
(-22948.9 -3800.42 -117.792 -5540.5 22308.7 -644.541)
(-21124.2 -6548.21 -3989.85 -7365.26 21949.3 -644.539)
(-18469.7 -8506.23 -7740.7 -10019.8 20923.1 -644.671)
(-15305.5 -9438.27 -11256.4 -13183.9 19261 -644.551)
(-12013.6 -9231.87 -14430 -16476 17013.7 -644.593)
(-8990.62 -7912.05 -17165.2 -19498.9 14249.6 -644.697)
(-6601.39 -5637.85 -19378.8 -21888.1 11052.4 -644.551)
(-5134.18 -2683.66 -21003.6 -23355.5 7519.35 -644.666)
(-4765.6 594.185 -21990.3 -23723.8 3757.9 -644.646)
(-5540.5 3800.42 -22308.7 -22948.9 -117.792 -644.543)
(-7365.26 6548.21 -21949.3 -21124.2 -3989.85 -644.54)
(-10019.8 8506.23 -20923.1 -18469.7 -7740.7 -644.672)
(-13183.9 9438.27 -19261 -15305.5 -11256.4 -644.553)
(-16476 9231.87 -17013.7 -12013.6 -14430 -644.594)
(-19498.9 7912.05 -14249.6 -8990.62 -17165.2 -644.698)
(-21888.1 5637.85 -11052.4 -6601.39 -19378.8 -644.552)
(-23355.5 2683.66 -7519.35 -5134.18 -21003.6 -644.666)
(-23723.8 -594.185 -3757.9 -4765.6 -21990.3 -644.646)
(-22948.9 -3800.42 117.792 -5540.5 -22308.7 -644.543)
(5129.65 -1574.94 1258.15 9541.98 14383.4 33570.9)
(5801.47 -2234.52 -1258.62 8870.45 14383.4 33571)
(6658.06 -2624.58 -3737.14 8013.47 13946.3 33570.8)
(7596.75 -2698.12 -6102.23 7075.02 13085.5 33570.9)
(8503.68 -2446.11 -8281.64 6167.82 11827 33570.9)
(9269.99 -1899.2 -10209.7 5401.7 10209.2 33570.8)
(9803.04 -1123.15 -11827.3 4868.98 8281.31 33571)
(10038.2 -211.643 -13085.7 4633.37 6101.68 33570.8)
(9947.63 725.436 -13946.4 4724.05 3736.63 33571)
(9541.98 1574.94 -14383.4 5129.65 1258.15 33570.9)
(8870.45 2234.52 -14383.4 5801.47 -1258.62 33571)
(8013.47 2624.58 -13946.3 6658.06 -3737.14 33570.8)
(7075.02 2698.12 -13085.5 7596.75 -6102.23 33570.9)
(6167.82 2446.11 -11827 8503.68 -8281.64 33570.9)
(5401.7 1899.2 -10209.2 9269.99 -10209.7 33570.8)
(4868.98 1123.15 -8281.31 9803.04 -11827.3 33571)
(4633.37 211.644 -6101.68 10038.2 -13085.7 33570.8)
(4724.05 -725.436 -3736.64 9947.63 -13946.4 33571)
(5129.65 -1574.94 -1258.15 9541.98 -14383.4 33570.9)
(5801.47 -2234.52 1258.62 8870.45 -14383.4 33571)
(6658.06 -2624.58 3737.14 8013.47 -13946.3 33570.8)
(7596.75 -2698.12 6102.23 7075.02 -13085.5 33570.9)
(8503.68 -2446.11 8281.64 6167.82 -11827 33570.9)
(9269.99 -1899.2 10209.7 5401.7 -10209.2 33570.8)
(9803.04 -1123.15 11827.3 4868.98 -8281.31 33571)
(10038.2 -211.644 13085.7 4633.37 -6101.68 33570.8)
(9947.63 725.436 13946.4 4724.05 -3736.64 33571)
(9541.98 1574.94 14383.4 5129.65 -1258.15 33570.9)
(8870.45 2234.52 14383.4 5801.47 1258.62 33571)
(8013.47 2624.58 13946.3 6658.06 3737.14 33570.8)
(7075.02 2698.12 13085.5 7596.75 6102.23 33570.9)
(6167.82 2446.11 11827 8503.68 8281.64 33570.9)
(5401.7 1899.2 10209.2 9269.99 10209.7 33570.8)
(4868.98 1123.15 8281.31 9803.04 11827.3 33571)
(4633.37 211.643 6101.68 10038.2 13085.7 33570.8)
(4724.05 -725.436 3736.63 9947.63 13946.4 33571)
(-2357.04 -8357.09 -841.105 33570.7 6848.53 -8438.17)
(1584.44 -13997.1 -2017.57 29628.9 6598.42 -8438.35)
(7217.58 -17948.9 -3132.69 23996.1 6147.76 -8438.2)
(13862.3 -19735.8 -4152.65 17351.1 5510.37 -8438.34)
(20717.5 -19142.1 -5046.5 10496 4705.65 -8438.24)
(26956.3 -16239.8 -5786.85 4257.36 3757.79 -8438.22)
(31826.1 -11378.6 -6351.48 -612.713 2695.82 -8438.37)
(34739.8 -5145.06 -6723.18 -3526.13 1551.96 -8438.18)
(35345.6 1709.14 -6890.53 -4132.06 360.901 -8438.26)
(33570.7 8357.09 -6848.53 -2357.04 -841.105 -8438.17)
(29628.9 13997.1 -6598.42 1584.44 -2017.57 -8438.35)
(23996.1 17948.9 -6147.76 7217.58 -3132.69 -8438.2)
(17351.1 19735.8 -5510.37 13862.3 -4152.65 -8438.34)
(10496 19142.1 -4705.65 20717.5 -5046.5 -8438.24)
(4257.36 16239.8 -3757.79 26956.3 -5786.85 -8438.22)
(-612.712 11378.6 -2695.82 31826.1 -6351.48 -8438.37)
(-3526.13 5145.06 -1551.96 34739.8 -6723.18 -8438.18)
(-4132.06 -1709.14 -360.902 35345.6 -6890.53 -8438.26)
(-2357.04 -8357.09 841.105 33570.7 -6848.53 -8438.17)
(1584.44 -13997.1 2017.57 29628.9 -6598.42 -8438.35)
(7217.58 -17948.9 3132.69 23996.1 -6147.76 -8438.2)
(13862.3 -19735.8 4152.65 17351.1 -5510.37 -8438.34)
(20717.5 -19142.1 5046.5 10496 -4705.65 -8438.24)
(26956.3 -16239.8 5786.85 4257.36 -3757.79 -8438.22)
(31826.1 -11378.6 6351.48 -612.712 -2695.82 -8438.37)
(34739.8 -5145.06 6723.18 -3526.13 -1551.96 -8438.18)
(35345.6 1709.14 6890.53 -4132.06 -360.901 -8438.26)
(33570.7 8357.09 6848.53 -2357.04 841.105 -8438.17)
(29628.9 13997.1 6598.42 1584.44 2017.57 -8438.35)
(23996.1 17948.9 6147.76 7217.58 3132.69 -8438.2)
(17351.1 19735.8 5510.37 13862.3 4152.65 -8438.34)
(10496 19142.1 4705.65 20717.5 5046.5 -8438.24)
(4257.36 16239.8 3757.79 26956.3 5786.85 -8438.22)
(-612.713 11378.6 2695.82 31826.1 6351.48 -8438.37)
(-3526.13 5145.06 1551.96 34739.8 6723.18 -8438.18)
(-4132.06 -1709.14 360.901 35345.6 6890.53 -8438.26)
(-18011.4 -8631.11 5480.29 -6569.62 -21693.8 -563.028)
(-14714.2 -10067.2 9164.15 -9866.61 -20412.5 -562.766)
(-11124.9 -10289.1 12569.5 -13456 -18511.1 -562.917)
(-7676.12 -9269.93 15593 -16904.9 -16047.2 -562.861)
(-4783.83 -7132.7 18142.7 -19797 -13095.7 -562.854)
(-2797.08 -4135.13 20141.1 -21783.9 -9746.33 -562.866)
(-1955.27 -638.838 21527.5 -22625.7 -6100.81 -562.958)
(-2360.18 2934.54 22259.9 -22220.9 -2269.9 -562.941)
(-3962.49 6154 22315.9 -20618.3 1629.99 -562.927)
(-6569.62 8631.11 21693.8 -18011.4 5480.29 -563.027)
(-9866.61 10067.2 20412.5 -14714.2 9164.15 -562.765)
(-13456 10289.1 18511.1 -11124.9 12569.5 -562.916)
(-16904.9 9269.93 16047.2 -7676.12 15593 -562.86)
(-19797 7132.7 13095.7 -4783.83 18142.7 -562.853)
(-21783.9 4135.13 9746.33 -2797.08 20141.1 -562.865)
(-22625.7 638.838 6100.81 -1955.27 21527.5 -562.957)
(-22220.9 -2934.54 2269.9 -2360.18 22259.9 -562.941)
(-20618.3 -6154 -1629.99 -3962.49 22315.9 -562.927)
(-18011.4 -8631.11 -5480.29 -6569.62 21693.8 -563.027)
(-14714.2 -10067.2 -9164.15 -9866.61 20412.5 -562.765)
(-11124.9 -10289.1 -12569.5 -13456 18511.1 -562.917)
(-7676.12 -9269.93 -15593 -16904.9 16047.2 -562.862)
(-4783.83 -7132.7 -18142.7 -19797 13095.7 -562.854)
(-2797.08 -4135.13 -20141.1 -21783.9 9746.33 -562.867)
(-1955.27 -638.838 -21527.5 -22625.7 6100.81 -562.959)
(-2360.19 2934.54 -22259.9 -22221 2269.9 -562.943)
(-3962.49 6154 -22315.9 -20618.3 -1629.99 -562.929)
(-6569.62 8631.11 -21693.8 -18011.4 -5480.29 -563.029)
(-9866.61 10067.2 -20412.5 -14714.2 -9164.15 -562.767)
(-13456 10289.1 -18511.1 -11124.9 -12569.5 -562.918)
(-16904.9 9269.93 -16047.2 -7676.12 -15593 -562.862)
(-19797 7132.7 -13095.7 -4783.83 -18142.7 -562.855)
(-21783.9 4135.13 -9746.33 -2797.08 -20141.1 -562.867)
(-22625.7 638.838 -6100.81 -1955.27 -21527.5 -562.959)
(-22221 -2934.54 -2269.9 -2360.19 -22259.9 -562.943)
(-20618.3 -6154 1629.99 -3962.49 -22315.9 -562.929)
(4681.44 -896.344 2988.75 8348.56 14610.8 31717.5)
(5098.67 -1469.38 406.236 7931.48 14907.8 31717.6)
(5686.52 -1865.17 -2188.61 7343.35 14751.9 31717.5)
(6374.55 -2036.1 -4717.12 6655.66 14147.8 31717.5)
(7079.33 -1961.35 -7102.19 5950.65 13113.7 31717.5)
(7716.16 -1650.08 -9271.48 5313.91 11681.2 31717.4)
(8208.01 -1139.71 -11158.9 4822.01 9893.77 31717.6)
(8495.66 -491.969 -12707.5 4534.21 7805.76 31717.4)
(8544.61 215.18 -13869.9 4485.51 5480.48 31717.5)
(8348.56 896.344 -14610.8 4681.44 2988.75 31717.5)
(7931.48 1469.38 -14907.8 5098.67 406.236 31717.6)
(7343.35 1865.17 -14751.9 5686.52 -2188.61 31717.5)
(6655.66 2036.1 -14147.8 6374.55 -4717.12 31717.5)
(5950.65 1961.35 -13113.7 7079.33 -7102.19 31717.5)
(5313.91 1650.08 -11681.2 7716.16 -9271.48 31717.4)
(4822.01 1139.71 -9893.77 8208.01 -11158.9 31717.6)
(4534.21 491.969 -7805.76 8495.66 -12707.5 31717.4)
(4485.51 -215.179 -5480.48 8544.61 -13869.9 31717.5)
(4681.44 -896.344 -2988.75 8348.56 -14610.8 31717.5)