/*--------------------------------*- C++ -*----------------------------------*\
| =========                 |                                                 |
| \\      /  F ield         | OpenFOAM: The Open Source CFD Toolbox           |
|  \\    /   O peration     | Version:  2312                                  |
|   \\  /    A nd           | Website:  www.openfoam.com                      |
|    \\/     M anipulation  |                                                 |
\*---------------------------------------------------------------------------*/
FoamFile
{
    version     2.0;
    format      ascii;
    arch        "LSB;label=32;scalar=64";
    class       volVectorField;
    location    "0.7";
    object      traction;
}
// * * * * * * * * * * * * * * * * * * * * * * * * * * * * * * * * * * * * * //

dimensions      [1 -1 -2 0 0 0 0];

internalField   uniform (0 0 0);

boundaryField
{
    fixed
    {
        type            calculated;
        value           nonuniform List<vector> 
108
(
(-541.276 -1455.67 -9511.09)
(-280.28 -1527.54 -9511.04)
(-10.7639 -1553.01 -9511.03)
(259.07 -1531.29 -9511.23)
(521.034 -1463.04 -9511.27)
(767.173 -1350.33 -9511.2)
(990.006 -1196.59 -9511.15)
(1182.75 -1006.5 -9511.14)
(1339.55 -785.827 -9511.1)
(1455.67 -541.276 -9511.09)
(1527.54 -280.28 -9511.04)
(1553.01 -10.7638 -9511.03)
(1531.29 259.07 -9511.23)
(1463.04 521.034 -9511.27)
(1350.33 767.173 -9511.2)
(1196.59 990.006 -9511.15)
(1006.5 1182.75 -9511.14)
(785.826 1339.55 -9511.1)
(541.276 1455.67 -9511.09)
(280.28 1527.54 -9511.04)
(10.7638 1553.01 -9511.03)
(-259.07 1531.29 -9511.23)
(-521.034 1463.04 -9511.27)
(-767.173 1350.33 -9511.2)
(-990.006 1196.59 -9511.15)
(-1182.75 1006.5 -9511.14)
(-1339.55 785.827 -9511.1)
(-1455.67 541.276 -9511.09)
(-1527.54 280.28 -9511.04)
(-1553.01 10.7639 -9511.03)
(-1531.29 -259.07 -9511.23)
(-1463.04 -521.034 -9511.27)
(-1350.33 -767.173 -9511.2)
(-1196.59 -990.006 -9511.15)
(-1006.5 -1182.75 -9511.14)
(-785.827 -1339.55 -9511.1)
(-534.283 -1568.87 -20210.2)
(-253.735 -1637.82 -20210.1)
(34.5298 -1657 -20210)
(321.736 -1625.83 -20210.1)
(599.165 -1545.26 -20210.2)
(858.393 -1417.74 -20210.1)
(1091.54 -1247.13 -20210)
(1291.52 -1038.64 -20210.1)
(1452.26 -798.598 -20210.2)
(1568.87 -534.283 -20210.2)
(1637.82 -253.735 -20210.1)
(1657 34.5299 -20210)
(1625.83 321.736 -20210.1)
(1545.26 599.165 -20210.2)
(1417.74 858.393 -20210.1)
(1247.13 1091.54 -20210)
(1038.64 1291.52 -20210.1)
(798.598 1452.26 -20210.2)
(534.283 1568.87 -20210.2)
(253.735 1637.82 -20210.1)
(-34.53 1657 -20210)
(-321.737 1625.83 -20210.1)
(-599.165 1545.26 -20210.2)
(-858.393 1417.74 -20210.1)
(-1091.54 1247.13 -20210)
(-1291.52 1038.64 -20210.1)
(-1452.26 798.598 -20210.2)
(-1568.87 534.283 -20210.2)
(-1637.82 253.735 -20210.1)
(-1657 -34.5299 -20210)
(-1625.83 -321.736 -20210.1)
(-1545.26 -599.165 -20210.2)
(-1417.74 -858.393 -20210.1)
(-1247.13 -1091.54 -20210)
(-1038.64 -1291.52 -20210.1)
(-798.598 -1452.26 -20210.2)
(-212.732 -1575.46 -46987.4)
(64.0698 -1588.47 -46987.4)
(338.946 -1553.2 -46987.6)
(603.506 -1470.75 -46987.4)
(849.721 -1343.61 -46987.5)
(1070.13 -1175.64 -46987.4)
(1258.03 -971.949 -46987.4)
(1407.69 -738.727 -46987.5)
(1514.58 -483.074 -46987.4)
(1575.46 -212.732 -46987.4)
(1588.47 64.0698 -46987.4)
(1553.2 338.946 -46987.6)
(1470.75 603.506 -46987.4)
(1343.61 849.721 -46987.5)
(1175.64 1070.13 -46987.4)
(971.949 1258.03 -46987.4)
(738.727 1407.69 -46987.5)
(483.074 1514.58 -46987.4)
(212.732 1575.46 -46987.4)
(-64.0699 1588.47 -46987.4)
(-338.946 1553.2 -46987.6)
(-603.506 1470.75 -46987.4)
(-849.721 1343.61 -46987.5)
(-1070.13 1175.64 -46987.4)
(-1258.03 971.949 -46987.4)
(-1407.69 738.727 -46987.5)
(-1514.58 483.074 -46987.4)
(-1575.46 212.732 -46987.4)
(-1588.47 -64.0699 -46987.4)
(-1553.2 -338.946 -46987.6)
(-1470.75 -603.506 -46987.4)
(-1343.61 -849.721 -46987.5)
(-1175.64 -1070.13 -46987.4)
(-971.949 -1258.03 -46987.4)
(-738.727 -1407.69 -46987.5)
(-483.074 -1514.58 -46987.4)
)
;
    }
    inside
    {
        type            calculated;
        value           nonuniform List<vector> 
540
(
(45130.7 5043.83 8380.6)
(43569.3 12804 8380.3)
(40684 20175.4 8380.59)
(36562.5 26933.5 8380.45)
(31330.1 32873.4 8380.42)
(25145.7 37814.3 8380.51)
(18197.4 41606.3 8380.35)
(10695.9 44134.3 8380.57)
(2869.65 45321 8380.54)
(-5043.83 45130.7 8380.59)
(-12804 43569.3 8380.3)
(-20175.4 40684 8380.59)
(-26933.5 36562.5 8380.45)
(-32873.4 31330.1 8380.41)
(-37814.3 25145.7 8380.5)
(-41606.3 18197.4 8380.35)
(-44134.3 10695.9 8380.57)
(-45321 2869.65 8380.54)
(-45130.7 -5043.83 8380.59)
(-43569.3 -12804 8380.3)
(-40684 -20175.4 8380.59)
(-36562.5 -26933.5 8380.45)
(-31330.1 -32873.4 8380.41)
(-25145.7 -37814.3 8380.5)
(-18197.4 -41606.3 8380.35)
(-10695.9 -44134.3 8380.57)
(-2869.65 -45321 8380.54)
(5043.83 -45130.7 8380.6)
(12804 -43569.3 8380.3)
(20175.4 -40684 8380.59)
(26933.5 -36562.5 8380.45)
(32873.4 -31330.1 8380.42)
(37814.3 -25145.7 8380.51)
(41606.3 -18197.4 8380.35)
(44134.3 -10695.9 8380.57)
(45321 -2869.65 8380.54)
(26571.9 2375.01 4326.6)
(25755.8 6953.18 4326.46)
(24157.1 11319.9 4326.55)
(21824.4 15342.8 4326.67)
(18828.5 18899.3 4326.65)
(15260.5 21881.6 4326.63)
(11229 24199.4 4326.57)
(6856.34 25781.6 4326.52)
(2275.16 26580.6 4326.46)
(-2375.01 26571.9 4326.6)
(-6953.18 25755.8 4326.46)
(-11319.9 24157.1 4326.55)
(-15342.8 21824.4 4326.66)
(-18899.3 18828.5 4326.65)
(-21881.6 15260.5 4326.63)
(-24199.4 11229 4326.57)
(-25781.6 6856.34 4326.52)
(-26580.6 2275.16 4326.46)
(-26571.9 -2375.01 4326.6)
(-25755.8 -6953.18 4326.46)
(-24157.1 -11319.9 4326.55)
(-21824.4 -15342.8 4326.66)
(-18828.5 -18899.3 4326.65)
(-15260.5 -21881.6 4326.63)
(-11229 -24199.4 4326.57)
(-6856.34 -25781.6 4326.52)
(-2275.16 -26580.6 4326.46)
(2375.01 -26571.9 4326.6)
(6953.18 -25755.8 4326.46)
(11319.9 -24157.1 4326.55)
(15342.8 -21824.4 4326.67)
(18899.3 -18828.5 4326.65)
(21881.6 -15260.5 4326.63)
(24199.4 -11229 4326.57)
(25781.6 -6856.34 4326.52)
(26580.6 -2275.16 4326.46)
(24311.6 2282.82 2897.36)
(23545.8 6469.84 2897.45)
(22064.5 10460.1 2897.32)
(19913 14132.8 2897.21)
(17156.4 17376 2897.25)
(13878.5 20091.2 2897.25)
(10178.8 22195.9 2897.35)
(6169.88 23626 2897.47)
(1973.51 24338.6 2897.31)
(-2282.82 24311.6 2897.36)
(-6469.84 23545.8 2897.45)
(-10460.1 22064.5 2897.32)
(-14132.8 19913 2897.21)
(-17376 17156.4 2897.25)
(-20091.2 13878.5 2897.25)
(-22195.9 10178.8 2897.35)
(-23626 6169.88 2897.47)
(-24338.6 1973.51 2897.31)
(-24311.6 -2282.82 2897.36)
(-23545.8 -6469.84 2897.45)
(-22064.5 -10460.1 2897.32)
(-19913 -14132.8 2897.21)
(-17156.4 -17376 2897.25)
(-13878.5 -20091.2 2897.25)
(-10178.8 -22195.9 2897.35)
(-6169.88 -23626 2897.47)
(-1973.51 -24338.6 2897.31)
(2282.82 -24311.6 2897.36)
(6469.84 -23545.8 2897.45)
(10460.1 -22064.5 2897.32)
(14132.8 -19913 2897.21)
(17376 -17156.4 2897.25)
(20091.2 -13878.5 2897.25)
(22195.9 -10178.8 2897.35)
(23626 -6169.88 2897.47)
(24338.6 -1973.51 2897.31)
(21921.9 2134.8 1199.15)
(21218.2 5909.07 1199.11)
(19869.7 9503.72 1199.14)
(17917.6 12809.8 1199.21)
(15421 15726.5 1199.16)
(12455.8 18165.3 1199.19)
(9112.18 20052.4 1199.15)
(5491.71 21330 1199.08)
(1704.4 21959.5 1199.23)
(-2134.8 21921.9 1199.15)
(-5909.07 21218.2 1199.11)
(-9503.72 19869.7 1199.14)
(-12809.8 17917.6 1199.21)
(-15726.5 15421 1199.16)
(-18165.3 12455.8 1199.19)
(-20052.4 9112.18 1199.15)
(-21330 5491.71 1199.08)
(-21959.5 1704.4 1199.23)
(-21921.9 -2134.8 1199.15)
(-21218.2 -5909.07 1199.11)
(-19869.7 -9503.72 1199.14)
(-17917.6 -12809.8 1199.21)
(-15421 -15726.5 1199.16)
(-12455.8 -18165.3 1199.19)
(-9112.18 -20052.4 1199.15)
(-5491.71 -21330 1199.08)
(-1704.4 -21959.5 1199.23)
(2134.8 -21921.9 1199.15)
(5909.07 -21218.2 1199.11)
(9503.72 -19869.7 1199.14)
(12809.8 -17917.6 1199.21)
(15726.5 -15421 1199.16)
(18165.3 -12455.8 1199.19)
(20052.4 -9112.18 1199.15)
(21330 -5491.71 1199.08)
(21959.5 -1704.4 1199.23)
(19953.6 1843.12 -681.813)
(19330.3 5279.87 -681.684)
(18119.8 8556.49 -681.769)
(16358.8 11572.9 -681.778)
(14100.6 14237.7 -681.754)
(11414 16470 -681.792)
(8380.66 18201.8 -681.759)
(5092.51 19380.7 -681.744)
(1649.84 19970.4 -681.735)
(-1843.12 19953.6 -681.814)
(-5279.86 19330.3 -681.685)
(-8556.49 18119.8 -681.77)
(-11572.9 16358.7 -681.779)
(-14237.7 14100.6 -681.755)
(-16470 11414 -681.793)
(-18201.8 8380.66 -681.76)
(-19380.7 5092.51 -681.744)
(-19970.4 1649.84 -681.735)
(-19953.6 -1843.12 -681.814)
(-19330.3 -5279.86 -681.685)
(-18119.8 -8556.49 -681.77)
(-16358.8 -11572.9 -681.779)
(-14100.6 -14237.7 -681.755)
(-11414 -16470 -681.792)
(-8380.66 -18201.8 -681.759)
(-5092.51 -19380.7 -681.744)
(-1649.84 -19970.4 -681.734)
(1843.12 -19953.6 -681.813)
(5279.87 -19330.3 -681.684)
(8556.49 -18119.8 -681.769)
(11572.9 -16358.8 -681.778)
(14237.7 -14100.6 -681.754)
(16470 -11414 -681.791)
(18201.8 -8380.66 -681.758)
(19380.7 -5092.51 -681.743)
(19970.4 -1649.84 -681.734)
(17817.1 1069.24 -2622.21)
(17360.7 4146.82 -2622.23)
(16377.1 7098.64 -2622.25)
(14895.5 9834.56 -2622.33)
(12961.5 12271.8 -2622.35)
(10633.6 14336.2 -2622.34)
(7982.58 15964.7 -2622.31)
(5089.05 17108.5 -2622.3)
(2040.93 17732.2 -2622.18)
(-1069.24 17817.1 -2622.21)
(-4146.82 17360.7 -2622.23)
(-7098.64 16377.1 -2622.25)
(-9834.56 14895.5 -2622.33)
(-12271.8 12961.5 -2622.35)
(-14336.2 10633.6 -2622.34)
(-15964.7 7982.58 -2622.32)
(-17108.5 5089.05 -2622.3)
(-17732.2 2040.93 -2622.18)
(-17817.1 -1069.24 -2622.21)
(-17360.7 -4146.82 -2622.23)
(-16377.1 -7098.64 -2622.25)
(-14895.5 -9834.56 -2622.33)
(-12961.5 -12271.8 -2622.35)
(-10633.6 -14336.2 -2622.34)
(-7982.58 -15964.8 -2622.32)
(-5089.05 -17108.5 -2622.3)
(-2040.93 -17732.2 -2622.18)
(1069.24 -17817.1 -2622.21)
(4146.82 -17360.7 -2622.23)
(7098.64 -16377.1 -2622.25)
(9834.56 -14895.5 -2622.33)
(12271.8 -12961.5 -2622.35)
(14336.2 -10633.6 -2622.34)
(15964.8 -7982.58 -2622.31)
(17108.5 -5089.05 -2622.3)
(17732.2 -2040.93 -2622.18)
(15281.2 -390.161 -4421.48)
(15116.6 2269.16 -4421.43)
(14493 4859.8 -4421.37)
(13428.9 7302.54 -4421.28)
(11956.8 9523.56 -4421.32)
(10121.4 11455.2 -4421.32)
(7978.51 13038.7 -4421.36)
(5593.11 14226.1 -4421.49)
(3037.89 14981 -4421.45)
(390.162 15281.2 -4421.48)
(-2269.16 15116.6 -4421.43)
(-4859.8 14493 -4421.37)
(-7302.54 13428.9 -4421.28)
(-9523.56 11956.8 -4421.32)
(-11455.2 10121.4 -4421.32)
(-13038.7 7978.51 -4421.36)
(-14226.1 5593.11 -4421.49)
(-14981 3037.89 -4421.45)
(-15281.2 390.162 -4421.48)
(-15116.6 -2269.16 -4421.43)
(-14493 -4859.8 -4421.37)
(-13428.9 -7302.54 -4421.28)
(-11956.8 -9523.56 -4421.32)
(-10121.4 -11455.2 -4421.32)
(-7978.51 -13038.7 -4421.36)
(-5593.11 -14226.1 -4421.49)
(-3037.89 -14981 -4421.45)
(-390.161 -15281.2 -4421.48)
(2269.16 -15116.6 -4421.43)
(4859.8 -14493 -4421.37)
(7302.54 -13428.9 -4421.28)
(9523.56 -11956.8 -4421.32)
(11455.2 -10121.4 -4421.32)
(13038.7 -7978.51 -4421.35)
(14226.1 -5593.11 -4421.49)
(14981 -3037.89 -4421.45)
(12238.2 -2772.28 -5826.07)
(12533.6 -605.163 -5826.03)
(12448.2 1580.49 -5826.15)
(11984.7 3718.02 -5826.11)
(11157 5742.8 -5826.13)
(9990.22 7593.06 -5826.18)
(8520 9212.47 -5826.16)
(6790.8 10551.9 -5826.08)
(4855.39 11570.8 -5826.05)
(2772.28 12238.2 -5826.07)
(605.164 12533.6 -5826.03)
(-1580.48 12448.2 -5826.15)
(-3718.02 11984.7 -5826.11)
(-5742.8 11157 -5826.13)
(-7593.06 9990.23 -5826.18)
(-9212.47 8520 -5826.16)
(-10551.9 6790.8 -5826.08)
(-11570.8 4855.39 -5826.06)
(-12238.2 2772.28 -5826.07)
(-12533.6 605.163 -5826.03)
(-12448.2 -1580.49 -5826.15)
(-11984.7 -3718.02 -5826.11)
(-11157 -5742.8 -5826.13)
(-9990.23 -7593.06 -5826.18)
(-8520 -9212.47 -5826.16)
(-6790.8 -10551.9 -5826.08)
(-4855.39 -11570.8 -5826.05)
(-2772.28 -12238.2 -5826.07)
(-605.161 -12533.6 -5826.03)
(1580.49 -12448.2 -5826.15)
(3718.02 -11984.7 -5826.11)
(5742.8 -11157 -5826.13)
(7593.06 -9990.23 -5826.18)
(9212.47 -8520 -5826.16)
(10551.9 -6790.8 -5826.08)
(11570.8 -4855.39 -5826.05)
(8802.45 -6153.75 -6547.91)
(9737.51 -4531.81 -6547.85)
(10376.4 -2772.04 -6547.84)
(10700.2 -927.966 -6547.93)
(10698.8 944.17 -6547.96)
(10372.3 2787.52 -6547.91)
(9730.65 4546.33 -6547.85)
(8793.29 6166.95 -6547.85)
(7588.92 7600.38 -6547.96)
(6153.75 8802.45 -6547.91)
(4531.81 9737.51 -6547.85)
(2772.04 10376.4 -6547.84)
(927.966 10700.2 -6547.93)
(-944.169 10698.8 -6547.96)
(-2787.52 10372.3 -6547.91)
(-4546.33 9730.65 -6547.85)
(-6166.95 8793.29 -6547.86)
(-7600.38 7588.92 -6547.96)
(-8802.45 6153.75 -6547.92)
(-9737.51 4531.81 -6547.85)
(-10376.4 2772.04 -6547.84)
(-10700.2 927.964 -6547.93)
(-10698.8 -944.172 -6547.96)
(-10372.3 -2787.53 -6547.91)
(-9730.65 -4546.33 -6547.85)
(-8793.29 -6166.95 -6547.86)
(-7588.92 -7600.38 -6547.96)
(-6153.75 -8802.45 -6547.92)
(-4531.81 -9737.51 -6547.85)
(-2772.04 -10376.4 -6547.84)
(-927.963 -10700.2 -6547.93)
(944.172 -10698.8 -6547.96)
(2787.53 -10372.3 -6547.91)
(4546.33 -9730.65 -6547.85)
(6166.95 -8793.29 -6547.85)
(7600.38 -7588.92 -6547.96)
(5329.44 -10130.9 -6383.62)
(7007.81 -9051.55 -6383.69)
(8473.15 -7697.16 -6383.66)
(9681.01 -6108.8 -6383.64)
(10594.7 -4335.05 -6383.55)
(11186.5 -2429.5 -6383.57)
(11438.4 -450.097 -6383.61)
(11342.8 1543.11 -6383.67)
(10902.6 3489.43 -6383.68)
(10130.9 5329.44 -6383.62)
(9051.55 7007.81 -6383.7)
(7697.16 8473.15 -6383.66)
(6108.8 9681.01 -6383.64)
(4335.05 10594.7 -6383.55)
(2429.5 11186.5 -6383.57)
(450.097 11438.4 -6383.61)
(-1543.11 11342.8 -6383.67)
(-3489.43 10902.6 -6383.68)
(-5329.44 10130.9 -6383.63)
(-7007.81 9051.55 -6383.7)
(-8473.15 7697.16 -6383.66)
(-9681.01 6108.8 -6383.64)
(-10594.7 4335.04 -6383.55)
(-11186.5 2429.49 -6383.57)
(-11438.4 450.094 -6383.61)
(-11342.8 -1543.11 -6383.67)
(-10902.6 -3489.43 -6383.68)
(-10130.9 -5329.44 -6383.62)
(-9051.55 -7007.81 -6383.7)
(-7697.16 -8473.15 -6383.66)
(-6108.8 -9681.01 -6383.64)
(-4335.04 -10594.7 -6383.55)
(-2429.49 -11186.5 -6383.57)
(-450.095 -11438.4 -6383.61)
(1543.11 -11342.8 -6383.67)
(3489.43 -10902.6 -6383.68)
(2382.42 -13629.8 -5473.37)
(4713.13 -13008.9 -5473.46)
(6900.47 -11992.9 -5473.41)
(8878.15 -10612.3 -5473.49)
(10586.1 -8909.52 -5473.47)
(11972.5 -6935.94 -5473.45)
(12994.9 -4751.51 -5473.49)
(13622.6 -2422.89 -5473.41)
(13836.4 -20.4612 -5473.43)
(13629.8 2382.42 -5473.37)
(13008.9 4713.13 -5473.47)
(11992.9 6900.47 -5473.42)
(10612.3 8878.15 -5473.49)
(8909.52 10586.1 -5473.47)
(6935.94 11972.5 -5473.46)
(4751.51 12994.9 -5473.49)
(2422.89 13622.6 -5473.41)
(20.4599 13836.4 -5473.44)
(-2382.42 13629.8 -5473.37)
(-4713.13 13008.9 -5473.47)
(-6900.47 11992.9 -5473.42)
(-8878.15 10612.3 -5473.49)
(-10586.1 8909.52 -5473.47)
(-11972.5 6935.94 -5473.46)
(-12994.9 4751.51 -5473.49)
(-13622.6 2422.89 -5473.41)
(-13836.4 20.4597 -5473.44)
(-13629.8 -2382.42 -5473.37)
(-13008.9 -4713.13 -5473.47)
(-11992.9 -6900.47 -5473.42)
(-10612.3 -8878.15 -5473.49)
(-8909.52 -10586.1 -5473.47)
(-6935.94 -11972.5 -5473.46)
(-4751.51 -12994.9 -5473.49)
(-2422.89 -13622.6 -5473.41)
(-20.4582 -13836.4 -5473.44)
(583.874 -15149.8 -4584.25)
(3205.74 -14818 -4584.35)
(5730.27 -14036.4 -4584.32)
(8080.51 -12827.9 -4584.35)
(10185.3 -11230 -4584.32)
(11980.7 -9290.73 -4584.34)
(13411.9 -7069.24 -4584.25)
(14435.9 -4632.94 -4584.2)
(15020.9 -2055.82 -4584.2)
(15149.8 583.87 -4584.25)
(14818 3205.74 -4584.35)
(14036.4 5730.27 -4584.32)
(12827.9 8080.51 -4584.35)
(11230 10185.3 -4584.32)
(9290.72 11980.7 -4584.35)
(7069.24 13411.9 -4584.25)
(4632.94 14435.9 -4584.2)
(2055.82 15020.9 -4584.2)
(-583.871 15149.8 -4584.25)
(-3205.74 14818 -4584.36)
(-5730.27 14036.4 -4584.32)
(-8080.51 12827.9 -4584.35)
(-10185.3 11230 -4584.32)
(-11980.7 9290.72 -4584.35)
(-13411.9 7069.24 -4584.25)
(-14435.9 4632.94 -4584.2)
(-15020.9 2055.82 -4584.2)
(-15149.8 -583.872 -4584.25)
(-14818 -3205.74 -4584.36)
(-14036.4 -5730.27 -4584.32)
(-12827.9 -8080.51 -4584.35)
(-11230 -10185.3 -4584.32)
(-9290.72 -11980.7 -4584.35)
(-7069.23 -13411.9 -4584.25)
(-4632.94 -14435.9 -4584.2)
(-2055.81 -15020.9 -4584.2)
(792.716 -12991 -6142.4)
(3036.66 -12655.8 -6142.66)
(5188.23 -11936.2 -6142.63)
(7182.12 -10853.9 -6142.67)
(8957.78 -9441.92 -6142.61)
(10461.3 -7743.07 -6142.58)
(11646.9 -5808.83 -6142.55)
(12478.8 -3698.31 -6142.31)
(12931.3 -1475.21 -6142.35)
(12991 792.713 -6142.4)
(12655.8 3036.66 -6142.66)
(11936.2 5188.23 -6142.63)
(10853.9 7182.12 -6142.68)
(9441.92 8957.78 -6142.62)
(7743.07 10461.3 -6142.58)
(5808.83 11646.9 -6142.55)
(3698.31 12478.8 -6142.31)
(1475.21 12931.3 -6142.35)
(-792.714 12991 -6142.4)
(-3036.66 12655.8 -6142.66)
(-5188.23 11936.2 -6142.63)
(-7182.12 10853.9 -6142.68)
(-8957.78 9441.92 -6142.61)
(-10461.3 7743.07 -6142.58)
(-11646.9 5808.83 -6142.55)
(-12478.8 3698.31 -6142.31)
(-12931.3 1475.21 -6142.35)
(-12991 -792.712 -6142.4)
(-12655.8 -3036.66 -6142.66)
(-11936.2 -5188.23 -6142.63)
(-10853.9 -7182.12 -6142.67)
(-9441.92 -8957.78 -6142.61)
(-7743.07 -10461.3 -6142.58)
(-5808.83 -11646.9 -6142.56)
(-3698.31 -12478.8 -6142.32)
(-1475.2 -12931.3 -6142.36)
(1644.05 -8206.69 -11097.5)
(3044.37 -7796.62 -11097.8)
(4351.9 -7149.3 -11097.9)
(5527.33 -6285.06 -11097.8)
(6534.75 -5229.78 -11097.8)
(7343.63 -4015.61 -11097.8)
(7929.47 -2679.47 -11097.7)
(8274.17 -1262.02 -11097.3)
(8367.86 193.989 -11097.4)
(8206.69 1644.04 -11097.5)
(7796.62 3044.37 -11097.8)
(7149.3 4351.9 -11097.9)
(6285.06 5527.33 -11097.8)
(5229.78 6534.75 -11097.8)
(4015.6 7343.63 -11097.9)
(2679.47 7929.47 -11097.7)
(1262.02 8274.17 -11097.3)
(-193.989 8367.86 -11097.4)
(-1644.04 8206.69 -11097.5)
(-3044.37 7796.62 -11097.8)
(-4351.9 7149.31 -11097.9)
(-5527.33 6285.06 -11097.8)
(-6534.75 5229.78 -11097.8)
(-7343.63 4015.61 -11097.8)
(-7929.47 2679.47 -11097.7)
(-8274.17 1262.02 -11097.2)
(-8367.86 -193.986 -11097.4)
(-8206.7 -1644.04 -11097.4)
(-7796.63 -3044.36 -11097.8)
(-7149.31 -4351.9 -11097.9)
(-6285.07 -5527.33 -11097.8)
(-5229.78 -6534.75 -11097.8)
(-4015.61 -7343.63 -11097.8)
(-2679.46 -7929.47 -11097.7)
(-1262.01 -8274.17 -11097.3)
(193.994 -8367.86 -11097.4)
(6626.23 2634.68 -55945.7)
(6067.8 3745.18 -55944.8)
(5325.62 4742.34 -55947.2)
(4421.06 5594.8 -55945.1)
(3382.38 6277.7 -55946.6)
(2241.04 6769.29 -55945.1)
(1031.23 7056.06 -55946.8)
(-209.314 7127.51 -55944.4)
(-1444.06 6982.9 -55945.7)
(-2634.68 6626.23 -55945.7)
(-3745.18 6067.8 -55944.8)
(-4742.34 5325.62 -55947.2)
(-5594.8 4421.06 -55945.1)
(-6277.7 3382.38 -55946.6)
(-6769.29 2241.04 -55945.1)
(-7056.06 1031.23 -55946.9)
(-7127.51 -209.317 -55944.4)
(-6982.9 -1444.07 -55945.7)
(-6626.23 -2634.68 -55945.7)
(-6067.79 -3745.18 -55944.8)
(-5325.61 -4742.33 -55947.2)
(-4421.06 -5594.8 -55945.1)
(-3382.38 -6277.7 -55946.6)
(-2241.03 -6769.29 -55945.1)
(-1031.23 -7056.06 -55946.9)
(209.319 -7127.5 -55944.4)
(1444.07 -6982.9 -55945.7)
(2634.68 -6626.22 -55945.7)
(3745.18 -6067.79 -55944.8)
(4742.33 -5325.61 -55947.2)
(5594.8 -4421.05 -55945.1)
(6277.7 -3382.37 -55946.6)
(6769.29 -2241.03 -55945.1)
(7056.06 -1031.23 -55946.9)
(7127.51 209.319 -55944.4)
(6982.9 1444.07 -55945.7)
)
;
    }
    outside
    {
        type            calculated;
        value           nonuniform List<vector> 
540
(
(-8897.27 -473.727 -2218.21)
(-8679.82 -2011.38 -2218.22)
(-8198.63 -3488.18 -2218.2)
(-7468.45 -4859.05 -2218.26)
(-6511.33 -6082.05 -2218.3)
(-5356.34 -7120.19 -2218.27)
(-4038.46 -7942.15 -2218.23)
(-2597.84 -8522.78 -2218.22)
(-1078.54 -8844.37 -2218.22)
(473.726 -8897.27 -2218.21)
(2011.38 -8679.82 -2218.22)
(3488.17 -8198.62 -2218.2)
(4859.05 -7468.45 -2218.26)
(6082.05 -6511.33 -2218.3)
(7120.19 -5356.34 -2218.27)
(7942.15 -4038.46 -2218.23)
(8522.78 -2597.84 -2218.22)
(8844.37 -1078.54 -2218.22)
(8897.27 473.726 -2218.21)
(8679.82 2011.38 -2218.22)
(8198.62 3488.17 -2218.2)
(7468.45 4859.05 -2218.26)
(6511.33 6082.05 -2218.3)
(5356.34 7120.19 -2218.27)
(4038.46 7942.15 -2218.23)
(2597.84 8522.78 -2218.22)
(1078.54 8844.37 -2218.22)
(-473.727 8897.27 -2218.21)
(-2011.38 8679.83 -2218.22)
(-3488.18 8198.63 -2218.2)
(-4859.05 7468.45 -2218.26)
(-6082.05 6511.33 -2218.3)
(-7120.19 5356.34 -2218.27)
(-7942.15 4038.46 -2218.23)
(-8522.78 2597.84 -2218.22)
(-8844.37 1078.54 -2218.22)
(5076.28 3113.81 341.131)
(4458.29 3948.27 341.127)
(3705.1 4662.44 341.152)
(2839.33 5234.77 341.142)
(1887.05 5648.51 341.143)
(877.318 5890.51 341.145)
(-158.716 5953.06 341.126)
(-1189.95 5835.13 341.139)
(-2185.46 5539.94 341.134)
(-3113.81 5076.28 341.131)
(-3948.27 4458.29 341.127)
(-4662.44 3705.1 341.152)
(-5234.77 2839.33 341.142)
(-5648.51 1887.05 341.142)
(-5890.51 877.318 341.145)
(-5953.06 -158.716 341.126)
(-5835.13 -1189.95 341.139)
(-5539.94 -2185.46 341.134)
(-5076.28 -3113.81 341.131)
(-4458.29 -3948.27 341.127)
(-3705.1 -4662.44 341.152)
(-2839.33 -5234.77 341.142)
(-1887.05 -5648.51 341.142)
(-877.318 -5890.51 341.145)
(158.716 -5953.06 341.126)
(1189.95 -5835.13 341.139)
(2185.46 -5539.94 341.134)
(3113.81 -5076.28 341.131)
(3948.27 -4458.29 341.127)
(4662.44 -3705.1 341.152)
(5234.77 -2839.33 341.142)
(5648.51 -1887.05 341.142)
(5890.51 -877.318 341.145)
(5953.06 158.716 341.126)
(5835.13 1189.95 341.139)
(5539.94 2185.46 341.134)
(3063.86 4288.31 -258.049)
(2272.54 4755.25 -258.063)
(1412.3 5077.74 -258.058)
(509.119 5245.75 -258.059)
(-409.458 5254.56 -258.048)
(-1315.68 5103.63 -258.047)
(-2181.91 4797.43 -258.06)
(-2981.88 4345.79 -258.05)
(-3691.31 3761.82 -258.065)
(-4288.31 3063.86 -258.049)
(-4755.25 2272.54 -258.063)
(-5077.74 1412.3 -258.058)
(-5245.75 509.119 -258.059)
(-5254.56 -409.458 -258.048)
(-5103.63 -1315.68 -258.047)
(-4797.43 -2181.91 -258.059)
(-4345.79 -2981.88 -258.05)
(-3761.82 -3691.31 -258.065)
(-3063.86 -4288.31 -258.049)
(-2272.54 -4755.25 -258.063)
(-1412.3 -5077.74 -258.058)
(-509.119 -5245.75 -258.059)
(409.458 -5254.56 -258.048)
(1315.68 -5103.63 -258.047)
(2181.91 -4797.43 -258.06)
(2981.88 -4345.79 -258.05)
(3691.31 -3761.82 -258.065)
(4288.31 -3063.86 -258.049)
(4755.25 -2272.54 -258.063)
(5077.74 -1412.3 -258.058)
(5245.75 -509.119 -258.059)
(5254.56 409.458 -258.048)
(5103.63 1315.68 -258.047)
(4797.43 2181.91 -258.06)
(4345.79 2981.88 -258.051)
(3761.82 3691.31 -258.065)
(2473.61 5635.13 -390.607)
(1457.43 5979.29 -390.614)
(397.007 6141.3 -390.612)
(-675.358 6117.01 -390.609)
(-1727.3 5906.85 -390.607)
(-2726.79 5517.17 -390.604)
(-3643.39 4959.93 -390.602)
(-4449.14 4251.66 -390.6)
(-5120.08 3414.56 -390.61)
(-5635.13 2473.6 -390.607)
(-5979.29 1457.43 -390.614)
(-6141.3 397.007 -390.612)
(-6117.01 -675.358 -390.609)
(-5906.85 -1727.3 -390.607)
(-5517.17 -2726.79 -390.604)
(-4959.93 -3643.39 -390.602)
(-4251.66 -4449.14 -390.6)
(-3414.56 -5120.08 -390.61)
(-2473.61 -5635.13 -390.607)
(-1457.43 -5979.29 -390.614)
(-397.007 -6141.3 -390.612)
(675.358 -6117.01 -390.609)
(1727.3 -5906.85 -390.607)
(2726.79 -5517.17 -390.604)
(3643.39 -4959.93 -390.602)
(4449.14 -4251.66 -390.6)
(5120.08 -3414.56 -390.61)
(5635.13 -2473.61 -390.607)
(5979.29 -1457.43 -390.614)
(6141.3 -397.007 -390.612)
(6117.01 675.358 -390.609)
(5906.85 1727.3 -390.607)
(5517.17 2726.79 -390.604)
(4959.93 3643.39 -390.602)
(4251.66 4449.14 -390.6)
(3414.56 5120.08 -390.61)
(1549.95 6978.64 -266.839)
(314.576 7142.05 -266.862)
(-930.449 7087.84 -266.843)
(-2146.99 6818.62 -266.848)
(-3298.54 6342.24 -266.845)
(-4349.83 5673.21 -266.846)
(-5268.8 4831.82 -266.858)
(-6027.57 3843.19 -266.828)
(-6603.59 2738.21 -266.846)
(-6978.64 1549.95 -266.839)
(-7142.05 314.576 -266.862)
(-7087.84 -930.449 -266.843)
(-6818.62 -2146.99 -266.847)
(-6342.24 -3298.54 -266.844)
(-5673.21 -4349.83 -266.846)
(-4831.82 -5268.8 -266.858)
(-3843.19 -6027.57 -266.828)
(-2738.21 -6603.59 -266.846)
(-1549.95 -6978.64 -266.839)
(-314.576 -7142.05 -266.862)
(930.449 -7087.84 -266.843)
(2146.99 -6818.62 -266.847)
(3298.54 -6342.24 -266.844)
(4349.83 -5673.21 -266.846)
(5268.8 -4831.82 -266.858)
(6027.57 -3843.19 -266.828)
(6603.59 -2738.21 -266.847)
(6978.64 -1549.95 -266.839)
(7142.05 -314.576 -266.862)
(7087.84 930.449 -266.843)
(6818.62 2146.99 -266.848)
(6342.24 3298.54 -266.845)
(5673.21 4349.83 -266.846)
(4831.82 5268.8 -266.858)
(3843.19 6027.57 -266.829)
(2738.21 6603.59 -266.847)
(531.74 8323.85 86.3086)
(-921.723 8289.88 86.2771)
(-2347.35 8003.86 86.2917)
(-3701.42 7474.69 86.2861)
(-4943.2 6718.32 86.3014)
(-6034.74 5757.86 86.2999)
(-6942.81 4622.48 86.2919)
(-7640.05 3346.54 86.3063)
(-8105.22 1969.13 86.2924)
(-8323.85 531.74 86.3089)
(-8289.88 -921.723 86.2774)
(-8003.86 -2347.35 86.2919)
(-7474.69 -3701.42 86.2863)
(-6718.32 -4943.2 86.3017)
(-5757.86 -6034.74 86.3001)
(-4622.48 -6942.81 86.2921)
(-3346.54 -7640.06 86.3065)
(-1969.13 -8105.22 86.2925)
(-531.74 -8323.85 86.3089)
(921.723 -8289.88 86.2773)
(2347.35 -8003.87 86.2919)
(3701.42 -7474.69 86.2862)
(4943.2 -6718.32 86.3015)
(6034.74 -5757.86 86.2999)
(6942.81 -4622.48 86.2919)
(7640.06 -3346.54 86.3062)
(8105.22 -1969.13 86.2923)
(8323.85 -531.741 86.3087)
(8289.88 921.723 86.2771)
(8003.86 2347.35 86.2917)
(7474.69 3701.42 86.286)
(6718.32 4943.2 86.3013)
(5757.86 6034.74 86.2997)
(4622.48 6942.81 86.2917)
(3346.54 7640.05 86.3061)
(1969.13 8105.22 86.2922)
(-739.499 9437.8 704.143)
(-2367.06 9166.02 704.14)
(-3922.98 8615.73 704.172)
(-5359.32 7803.92 704.101)
(-6633.03 6754.48 704.151)
(-7705.1 5499.83 704.183)
(-8543.08 4078.53 704.133)
(-9121.64 2532.92 704.178)
(-9422.89 910.581 704.143)
(-9437.8 -739.499 704.143)
(-9166.02 -2367.06 704.14)
(-8615.73 -3922.98 704.172)
(-7803.92 -5359.32 704.101)
(-6754.48 -6633.03 704.151)
(-5499.83 -7705.1 704.183)
(-4078.53 -8543.08 704.133)
(-2532.92 -9121.65 704.178)
(-910.581 -9422.89 704.143)
(739.498 -9437.81 704.143)
(2367.06 -9166.02 704.14)
(3922.98 -8615.73 704.172)
(5359.32 -7803.92 704.101)
(6633.03 -6754.48 704.151)
(7705.1 -5499.83 704.183)
(8543.08 -4078.53 704.132)
(9121.65 -2532.92 704.177)
(9422.89 -910.581 704.143)
(9437.81 739.498 704.143)
(9166.02 2367.06 704.14)
(8615.73 3922.98 704.172)
(7803.92 5359.32 704.1)
(6754.48 6633.03 704.151)
(5499.83 7705.1 704.182)
(4078.53 8543.08 704.132)
(2532.92 9121.64 704.177)
(910.581 9422.89 704.143)
(-2271.38 10142.6 1705.37)
(-3998.18 9594.09 1705.37)
(-5603.49 8754.16 1705.38)
(-7038.48 7648.3 1705.31)
(-8259.65 6309.68 1705.35)
(-9229.75 4779.48 1705.36)
(-9919.51 3104.17 1705.37)
(-10308 1334.52 1705.38)
(-10383.1 -475.713 1705.41)
(-10142.6 -2271.38 1705.37)
(-9594.09 -3998.18 1705.37)
(-8754.16 -5603.49 1705.38)
(-7648.3 -7038.48 1705.31)
(-6309.68 -8259.66 1705.35)
(-4779.48 -9229.75 1705.36)
(-3104.17 -9919.51 1705.37)
(-1334.52 -10308 1705.38)
(475.713 -10383.1 1705.41)
(2271.38 -10142.6 1705.37)
(3998.18 -9594.09 1705.37)
(5603.49 -8754.16 1705.38)
(7038.48 -7648.3 1705.31)
(8259.65 -6309.68 1705.35)
(9229.75 -4779.48 1705.36)
(9919.51 -3104.17 1705.37)
(10308 -1334.52 1705.38)
(10383.1 475.712 1705.41)
(10142.6 2271.38 1705.37)
(9594.09 3998.18 1705.37)
(8754.16 5603.49 1705.38)
(7648.3 7038.48 1705.3)
(6309.68 8259.65 1705.35)
(4779.48 9229.75 1705.36)
(3104.17 9919.51 1705.37)
(1334.52 10308 1705.38)
(-475.713 10383.1 1705.41)
(-3929.3 10347.5 3254.88)
(-5666.38 9508.14 3254.87)
(-7231.38 8379.88 3254.84)
(-8576.64 6996.76 3254.87)
(-9661.34 5401.11 3254.89)
(-10452.5 3641.37 3254.9)
(-10925.9 1770.95 3254.9)
(-11067.6 -153.152 3254.86)
(-10873 -2072.58 3254.81)
(-10347.5 -3929.3 3254.88)
(-9508.14 -5666.38 3254.87)
(-8379.88 -7231.38 3254.84)
(-6996.77 -8576.64 3254.87)
(-5401.11 -9661.35 3254.89)
(-3641.37 -10452.5 3254.9)
(-1770.95 -10925.9 3254.9)
(153.151 -11067.6 3254.86)
(2072.58 -10873 3254.81)
(3929.3 -10347.5 3254.88)
(5666.38 -9508.14 3254.87)
(7231.37 -8379.88 3254.84)
(8576.64 -6996.77 3254.87)
(9661.34 -5401.11 3254.89)
(10452.5 -3641.37 3254.9)
(10925.9 -1770.95 3254.9)
(11067.6 153.151 3254.86)
(10873 2072.58 3254.81)
(10347.5 3929.3 3254.88)
(9508.14 5666.38 3254.87)
(8379.88 7231.37 3254.84)
(6996.77 8576.64 3254.87)
(5401.11 9661.34 3254.89)
(3641.37 10452.5 3254.9)
(1770.95 10925.9 3254.9)
(-153.151 11067.6 3254.86)
(-2072.58 10873 3254.81)
(-5359.05 10063.3 5487.11)
(-7025.11 8979.77 5487.15)
(-8477.67 7623.48 5487.09)
(-9672.66 6035.59 5487.01)
(-10573.8 4264.23 5487.06)
(-11153.7 2363.32 5487.07)
(-11394.6 390.537 5487.11)
(-11289.3 -1593.94 5487.06)
(-10841 -3530.08 5487.06)
(-10063.3 -5359.05 5487.11)
(-8979.77 -7025.11 5487.15)
(-7623.48 -8477.67 5487.09)
(-6035.59 -9672.66 5487.01)
(-4264.23 -10573.8 5487.06)
(-2363.33 -11153.7 5487.07)
(-390.539 -11394.6 5487.11)
(1593.94 -11289.3 5487.06)
(3530.08 -10841 5487.06)
(5359.05 -10063.3 5487.11)
(7025.11 -8979.77 5487.15)
(8477.67 -7623.48 5487.09)
(9672.66 -6035.6 5487.01)
(10573.8 -4264.23 5487.06)
(11153.7 -2363.33 5487.07)
(11394.6 -390.539 5487.11)
(11289.3 1593.94 5487.06)
(10841 3530.08 5487.06)
(10063.3 5359.05 5487.11)
(8979.77 7025.11 5487.15)
(7623.48 8477.67 5487.08)
(6035.59 9672.66 5487.01)
(4264.23 10573.8 5487.06)
(2363.33 11153.7 5487.07)
(390.538 11394.6 5487.11)
(-1593.94 11289.3 5487.06)
(-3530.08 10841 5487.06)
(-5923 9438.38 8241.59)
(-7471.98 8266.43 8241.62)
(-8793.82 6843.17 8241.59)
(-9848.59 5212.25 8241.61)
(-10604.1 3422.88 8241.6)
(-11037.4 1529.5 8241.62)
(-11135.4 -410.231 8241.56)
(-10894.7 -2337.88 8241.66)
(-10323.3 -4194.21 8241.65)
(-9438.38 -5923 8241.6)
(-8266.43 -7471.98 8241.62)
(-6843.17 -8793.82 8241.59)
(-5212.25 -9848.59 8241.61)
(-3422.88 -10604.1 8241.6)
(-1529.51 -11037.4 8241.61)
(410.229 -11135.4 8241.56)
(2337.88 -10894.8 8241.66)
(4194.21 -10323.3 8241.65)
(5922.99 -9438.38 8241.59)
(7471.98 -8266.43 8241.62)
(8793.82 -6843.17 8241.58)
(9848.59 -5212.25 8241.61)
(10604.1 -3422.88 8241.6)
(11037.4 -1529.51 8241.61)
(11135.4 410.229 8241.56)
(10894.8 2337.88 8241.66)
(10323.3 4194.21 8241.65)
(9438.38 5923 8241.59)
(8266.43 7471.98 8241.62)
(6843.17 8793.82 8241.59)
(5212.25 9848.59 8241.61)
(3422.88 10604.1 8241.6)
(1529.5 11037.4 8241.61)
(-410.229 11135.4 8241.56)
(-2337.88 10894.8 8241.66)
(-4194.21 10323.3 8241.65)
(-4820.19 8763.77 10423)
(-6268.69 7793.44 10422.9)
(-7526.77 6586.56 10422.9)
(-8556.23 5179.47 10423)
(-9325.63 3614.98 10422.9)
(-9811.67 1940.65 10422.9)
(-9999.69 207.536 10422.8)
(-9883.8 -1532.14 10423)
(-9467.26 -3225.39 10423.2)
(-8763.77 -4820.19 10423)
(-7793.44 -6268.69 10422.9)
(-6586.56 -7526.77 10422.9)