/*--------------------------------*- C++ -*----------------------------------*\
| =========                 |                                                 |
| \\      /  F ield         | OpenFOAM: The Open Source CFD Toolbox           |
|  \\    /   O peration     | Version:  2312                                  |
|   \\  /    A nd           | Website:  www.openfoam.com                      |
|    \\/     M anipulation  |                                                 |
\*---------------------------------------------------------------------------*/
FoamFile
{
    version     2.0;
    format      ascii;
    arch        "LSB;label=32;scalar=64";
    class       volVectorField;
    location    "0.7";
    object      U;
}
// * * * * * * * * * * * * * * * * * * * * * * * * * * * * * * * * * * * * * //

dimensions      [0 1 -1 0 0 0 0];

internalField   nonuniform List<vector> 
1620
(
(5.93811e-05 4.8812e-05 -8.71546e-05)
(5.00028e-05 5.83817e-05 -8.7155e-05)
(3.91054e-05 6.61775e-05 -8.71549e-05)
(2.70201e-05 7.1963e-05 -8.71546e-05)
(1.41132e-05 7.55623e-05 -8.71547e-05)
(7.7717e-07 7.68651e-05 -8.71548e-05)
(-1.25821e-05 7.58319e-05 -8.7154e-05)
(-2.55591e-05 7.24948e-05 -8.71539e-05)
(-3.77592e-05 6.69551e-05 -8.71545e-05)
(-4.8812e-05 5.93811e-05 -8.71546e-05)
(-5.83817e-05 5.00028e-05 -8.7155e-05)
(-6.61774e-05 3.91055e-05 -8.71549e-05)
(-7.1963e-05 2.70201e-05 -8.71546e-05)
(-7.55622e-05 1.41132e-05 -8.71547e-05)
(-7.6865e-05 7.77181e-07 -8.71548e-05)
(-7.58319e-05 -1.25821e-05 -8.7154e-05)
(-7.24948e-05 -2.55591e-05 -8.71539e-05)
(-6.69551e-05 -3.77592e-05 -8.71545e-05)
(-5.93811e-05 -4.8812e-05 -8.71546e-05)
(-5.00028e-05 -5.83817e-05 -8.7155e-05)
(-3.91054e-05 -6.61774e-05 -8.71549e-05)
(-2.70201e-05 -7.1963e-05 -8.71546e-05)
(-1.41132e-05 -7.55623e-05 -8.71547e-05)
(-7.77166e-07 -7.6865e-05 -8.71548e-05)
(1.25821e-05 -7.58319e-05 -8.7154e-05)
(2.55592e-05 -7.24948e-05 -8.71539e-05)
(3.77592e-05 -6.69551e-05 -8.71545e-05)
(4.8812e-05 -5.93811e-05 -8.71546e-05)
(5.83817e-05 -5.00028e-05 -8.7155e-05)
(6.61775e-05 -3.91054e-05 -8.71549e-05)
(7.1963e-05 -2.70201e-05 -8.71546e-05)
(7.55623e-05 -1.41132e-05 -8.71547e-05)
(7.68651e-05 -7.7716e-07 -8.71548e-05)
(7.58319e-05 1.25821e-05 -8.7154e-05)
(7.24948e-05 2.55592e-05 -8.71539e-05)
(6.69551e-05 3.77592e-05 -8.71545e-05)
(2.71557e-05 0.000150985 2.86144e-06)
(5.24921e-07 0.000153407 2.86137e-06)
(-2.61216e-05 0.000151167 2.86144e-06)
(-5.19744e-05 0.000144334 2.86153e-06)
(-7.62487e-05 0.000133117 2.86147e-06)
(-9.82059e-05 0.000117854 2.86156e-06)
(-0.000117179 9.90101e-05 2.86176e-06)
(-0.000132592 7.71579e-05 2.86168e-06)
(-0.000143976 5.29614e-05 2.86142e-06)
(-0.000150985 2.71557e-05 2.86143e-06)
(-0.000153407 5.24932e-07 2.86136e-06)
(-0.000151167 -2.61215e-05 2.86143e-06)
(-0.000144334 -5.19744e-05 2.86152e-06)
(-0.000133117 -7.62487e-05 2.86146e-06)
(-0.000117854 -9.82059e-05 2.86155e-06)
(-9.90101e-05 -0.000117179 2.86176e-06)
(-7.71579e-05 -0.000132592 2.86167e-06)
(-5.29613e-05 -0.000143976 2.86142e-06)
(-2.71557e-05 -0.000150985 2.86143e-06)
(-5.24923e-07 -0.000153407 2.86136e-06)
(2.61216e-05 -0.000151167 2.86143e-06)
(5.19744e-05 -0.000144334 2.86153e-06)
(7.62487e-05 -0.000133117 2.86147e-06)
(9.82059e-05 -0.000117854 2.86156e-06)
(0.000117179 -9.90101e-05 2.86176e-06)
(0.000132592 -7.71579e-05 2.86168e-06)
(0.000143976 -5.29613e-05 2.86142e-06)
(0.000150985 -2.71557e-05 2.86144e-06)
(0.000153407 -5.24914e-07 2.86137e-06)
(0.000151167 2.61216e-05 2.86144e-06)
(0.000144334 5.19744e-05 2.86153e-06)
(0.000133117 7.62487e-05 2.86147e-06)
(0.000117854 9.82059e-05 2.86156e-06)
(9.90101e-05 0.000117179 2.86177e-06)
(7.71579e-05 0.000132592 2.86168e-06)
(5.29613e-05 0.000143976 2.86143e-06)
(-4.39228e-05 0.000245238 2.9192e-05)
(-8.58405e-05 0.000233885 2.91922e-05)
(-0.00012515 0.000215426 2.91921e-05)
(-0.000160657 0.000190421 2.91921e-05)
(-0.000191283 0.00015963 2.91924e-05)
(-0.000216096 0.000123989 2.91924e-05)
(-0.000234344 8.45804e-05 2.91923e-05)
(-0.000245471 4.26019e-05 2.91919e-05)
(-0.000249139 -6.70635e-07 2.9192e-05)
(-0.000245238 -4.39228e-05 2.9192e-05)
(-0.000233885 -8.58405e-05 2.91922e-05)
(-0.000215426 -0.00012515 2.91921e-05)
(-0.000190421 -0.000160657 2.91921e-05)
(-0.00015963 -0.000191283 2.91924e-05)
(-0.000123989 -0.000216096 2.91924e-05)
(-8.45804e-05 -0.000234344 2.91923e-05)
(-4.26019e-05 -0.000245471 2.91919e-05)
(6.70639e-07 -0.000249139 2.9192e-05)
(4.39228e-05 -0.000245238 2.9192e-05)
(8.58405e-05 -0.000233885 2.91922e-05)
(0.00012515 -0.000215426 2.91921e-05)
(0.000160657 -0.000190421 2.91921e-05)
(0.000191283 -0.00015963 2.91924e-05)
(0.000216096 -0.000123989 2.91924e-05)
(0.000234344 -8.45804e-05 2.91923e-05)
(0.000245471 -4.26019e-05 2.91919e-05)
(0.000249139 6.70657e-07 2.9192e-05)
(0.000245238 4.39229e-05 2.9192e-05)
(0.000233885 8.58405e-05 2.91922e-05)
(0.000215426 0.00012515 2.91921e-05)
(0.000190421 0.000160657 2.91921e-05)
(0.00015963 0.000191283 2.91924e-05)
(0.000123989 0.000216096 2.91924e-05)
(8.45804e-05 0.000234344 2.91923e-05)
(4.26019e-05 0.000245471 2.91919e-05)
(-6.70653e-07 0.000249139 2.9192e-05)
(9.99974e-05 0.000262514 -7.54113e-05)
(5.28935e-05 0.00027589 -7.54121e-05)
(4.18218e-06 0.000280884 -7.5412e-05)
(-4.46561e-05 0.000277343 -7.54101e-05)
(-9.21378e-05 0.000265375 -7.54092e-05)
(-0.00013682 0.000245344 -7.54099e-05)
(-0.000177345 0.000217858 -7.54097e-05)
(-0.000212482 0.000183753 -7.541e-05)
(-0.000241162 0.000144064 -7.5411e-05)
(-0.000262514 9.99975e-05 -7.54113e-05)
(-0.00027589 5.28936e-05 -7.54121e-05)
(-0.000280884 4.18221e-06 -7.5412e-05)
(-0.000277343 -4.46561e-05 -7.54101e-05)
(-0.000265375 -9.21378e-05 -7.54092e-05)
(-0.000245344 -0.00013682 -7.54099e-05)
(-0.000217858 -0.000177345 -7.54097e-05)
(-0.000183753 -0.000212482 -7.541e-05)
(-0.000144063 -0.000241162 -7.54109e-05)
(-9.99974e-05 -0.000262514 -7.54113e-05)
(-5.28935e-05 -0.00027589 -7.54121e-05)
(-4.18218e-06 -0.000280884 -7.5412e-05)
(4.46561e-05 -0.000277343 -7.54101e-05)
(9.21378e-05 -0.000265375 -7.54092e-05)
(0.00013682 -0.000245344 -7.54099e-05)
(0.000177346 -0.000217858 -7.54097e-05)
(0.000212482 -0.000183753 -7.54099e-05)
(0.000241162 -0.000144063 -7.54109e-05)
(0.000262514 -9.99974e-05 -7.54113e-05)
(0.00027589 -5.28935e-05 -7.5412e-05)
(0.000280884 -4.18216e-06 -7.5412e-05)
(0.000277343 4.46562e-05 -7.54101e-05)
(0.000265375 9.21379e-05 -7.54092e-05)
(0.000245344 0.00013682 -7.54099e-05)
(0.000217858 0.000177346 -7.54097e-05)
(0.000183753 0.000212482 -7.54099e-05)
(0.000144063 0.000241162 -7.54109e-05)
(2.42988e-05 0.000452452 7.7897e-05)
(-5.46372e-05 0.000449797 7.78965e-05)
(-0.000131913 0.000433476 7.78967e-05)
(-0.000205181 0.000403984 7.78976e-05)
(-0.000272216 0.000362218 7.78982e-05)
(-0.000330979 0.000309445 7.78981e-05)
(-0.000379685 0.000247269 7.78979e-05)
(-0.000416854 0.000177581 7.78975e-05)
(-0.000441358 0.000102497 7.78971e-05)
(-0.000452452 2.42988e-05 7.7897e-05)
(-0.000449797 -5.46372e-05 7.78965e-05)
(-0.000433476 -0.000131913 7.78967e-05)
(-0.000403984 -0.000205181 7.78976e-05)
(-0.000362217 -0.000272216 7.78982e-05)
(-0.000309445 -0.000330979 7.78981e-05)
(-0.000247269 -0.000379685 7.78979e-05)
(-0.000177581 -0.000416854 7.78975e-05)
(-0.000102497 -0.000441358 7.78971e-05)
(-2.42988e-05 -0.000452452 7.7897e-05)
(5.46372e-05 -0.000449797 7.78965e-05)
(0.000131913 -0.000433476 7.78967e-05)
(0.000205181 -0.000403984 7.78976e-05)
(0.000272216 -0.000362217 7.78982e-05)
(0.000330979 -0.000309445 7.78981e-05)
(0.000379685 -0.000247269 7.78979e-05)
(0.000416854 -0.000177581 7.78975e-05)
(0.000441358 -0.000102497 7.78971e-05)
(0.000452452 -2.42988e-05 7.7897e-05)
(0.000449797 5.46372e-05 7.78965e-05)
(0.000433476 0.000131913 7.78967e-05)
(0.000403984 0.000205181 7.78976e-05)
(0.000362218 0.000272216 7.78982e-05)
(0.000309445 0.000330979 7.78981e-05)
(0.000247269 0.000379685 7.78979e-05)
(0.000177581 0.000416855 7.78975e-05)
(0.000102497 0.000441358 7.78971e-05)
(-9.94418e-05 0.000621441 0.000190192)
(-0.000205843 0.000594732 0.000190192)
(-0.000305989 0.000549953 0.000190192)
(-0.000396838 0.000488463 0.000190192)
(-0.00047563 0.000412132 0.000190192)
(-0.00053997 0.000323277 0.000190192)
(-0.000587904 0.000224601 0.000190192)
(-0.000617974 0.0001191 0.000190192)
(-0.000629268 9.98109e-06 0.000190192)
(-0.000621441 -9.94417e-05 0.000190192)
(-0.000594732 -0.000205843 0.000190192)
(-0.000549953 -0.000305989 0.000190192)
(-0.000488463 -0.000396838 0.000190192)
(-0.000412132 -0.00047563 0.000190192)
(-0.000323277 -0.00053997 0.000190192)
(-0.000224601 -0.000587904 0.000190192)
(-0.0001191 -0.000617974 0.000190192)
(-9.98108e-06 -0.000629268 0.000190192)
(9.94417e-05 -0.000621441 0.000190192)
(0.000205843 -0.000594732 0.000190192)
(0.000305989 -0.000549953 0.000190192)
(0.000396838 -0.000488463 0.000190192)
(0.00047563 -0.000412131 0.000190192)
(0.00053997 -0.000323277 0.000190192)
(0.000587904 -0.000224601 0.000190192)
(0.000617974 -0.0001191 0.000190192)
(0.000629268 -9.98103e-06 0.000190192)
(0.000621441 9.94418e-05 0.000190192)
(0.000594732 0.000205843 0.000190192)
(0.000549953 0.000305989 0.000190192)
(0.000488463 0.000396838 0.000190192)
(0.000412131 0.00047563 0.000190192)
(0.000323277 0.00053997 0.000190192)
(0.000224601 0.000587904 0.000190192)
(0.0001191 0.000617974 0.000190192)
(9.98105e-06 0.000629268 0.000190192)
(5.44123e-05 0.000506226 -3.05531e-05)
(-3.43191e-05 0.000507983 -3.05533e-05)
(-0.000122008 0.000494306 -3.0553e-05)
(-0.00020599 0.00046561 -3.05512e-05)
(-0.000283713 0.000422767 -3.055e-05)
(-0.000352815 0.000367078 -3.05499e-05)
(-0.000411198 0.000300236 -3.05498e-05)
(-0.000457086 0.000224271 -3.05507e-05)
(-0.000489086 0.000141491 -3.05523e-05)
(-0.000506226 5.44124e-05 -3.05531e-05)
(-0.000507983 -3.4319e-05 -3.05533e-05)
(-0.000494306 -0.000122008 -3.05531e-05)
(-0.00046561 -0.00020599 -3.05512e-05)
(-0.000422767 -0.000283713 -3.055e-05)
(-0.000367078 -0.000352815 -3.05499e-05)
(-0.000300236 -0.000411198 -3.05498e-05)
(-0.000224271 -0.000457086 -3.05507e-05)
(-0.000141491 -0.000489086 -3.05523e-05)
(-5.44123e-05 -0.000506226 -3.05531e-05)
(3.43191e-05 -0.000507983 -3.05533e-05)
(0.000122008 -0.000494306 -3.0553e-05)
(0.00020599 -0.00046561 -3.05511e-05)
(0.000283713 -0.000422767 -3.05499e-05)
(0.000352815 -0.000367078 -3.05498e-05)
(0.000411198 -0.000300236 -3.05497e-05)
(0.000457086 -0.000224271 -3.05506e-05)
(0.000489086 -0.000141491 -3.05523e-05)
(0.000506226 -5.44123e-05 -3.05531e-05)
(0.000507983 3.43191e-05 -3.05532e-05)
(0.000494306 0.000122008 -3.0553e-05)
(0.00046561 0.00020599 -3.05511e-05)
(0.000422767 0.000283713 -3.05499e-05)
(0.000367078 0.000352815 -3.05498e-05)
(0.000300236 0.000411198 -3.05498e-05)
(0.000224271 0.000457086 -3.05507e-05)
(0.000141491 0.000489086 -3.05523e-05)
(-4.29208e-05 0.000743317 0.000156985)
(-0.000171344 0.000724571 0.000156985)
(-0.000294561 0.00068381 0.000156985)
(-0.000408827 0.000622271 0.000156986)
(-0.000510673 0.000541826 0.000156987)
(-0.000597002 0.000444916 0.000156987)
(-0.000665191 0.000334488 0.000156987)
(-0.000713169 0.000213897 0.000156986)
(-0.000739477 8.6807e-05 0.000156986)
(-0.000743317 -4.29207e-05 0.000156985)
(-0.000724571 -0.000171344 0.000156985)
(-0.00068381 -0.000294561 0.000156985)
(-0.000622271 -0.000408827 0.000156986)
(-0.000541826 -0.000510673 0.000156987)
(-0.000444916 -0.000597002 0.000156987)
(-0.000334488 -0.000665191 0.000156987)
(-0.000213897 -0.000713169 0.000156986)
(-8.6807e-05 -0.000739477 0.000156986)
(4.29208e-05 -0.000743317 0.000156985)
(0.000171344 -0.000724571 0.000156985)
(0.000294561 -0.00068381 0.000156985)
(0.000408827 -0.000622271 0.000156986)
(0.000510673 -0.000541826 0.000156987)
(0.000597002 -0.000444916 0.000156987)
(0.000665191 -0.000334488 0.000156987)
(0.000713169 -0.000213897 0.000156986)
(0.000739477 -8.68069e-05 0.000156986)
(0.000743317 4.29208e-05 0.000156985)
(0.000724571 0.000171344 0.000156985)
(0.00068381 0.000294561 0.000156985)
(0.000622271 0.000408827 0.000156986)
(0.000541826 0.000510673 0.000156987)
(0.000444916 0.000597002 0.000156987)
(0.000334488 0.000665191 0.000156987)
(0.000213897 0.000713169 0.000156986)
(8.6807e-05 0.000739477 0.000156986)
(-0.000183166 0.000955552 0.000311274)
(-0.000346313 0.000909229 0.000311274)
(-0.000498937 0.00083528 0.000311274)
(-0.000636402 0.000735951 0.000311274)
(-0.00075453 0.00061426 0.000311274)
(-0.000849732 0.000473904 0.000311274)
(-0.000919115 0.00031915 0.000311274)
(-0.000960571 0.000154698 0.000311274)
(-0.000972842 -1.44536e-05 0.000311274)
(-0.000955552 -0.000183166 0.000311274)
(-0.000909229 -0.000346313 0.000311274)
(-0.00083528 -0.000498937 0.000311274)
(-0.000735951 -0.000636402 0.000311274)
(-0.00061426 -0.00075453 0.000311274)
(-0.000473904 -0.000849732 0.000311274)
(-0.00031915 -0.000919115 0.000311274)
(-0.000154698 -0.000960571 0.000311274)
(1.44537e-05 -0.000972842 0.000311274)
(0.000183166 -0.000955552 0.000311274)
(0.000346313 -0.000909229 0.000311274)
(0.000498937 -0.00083528 0.000311274)
(0.000636402 -0.000735951 0.000311274)
(0.00075453 -0.00061426 0.000311274)
(0.000849732 -0.000473904 0.000311274)
(0.000919115 -0.00031915 0.000311274)
(0.000960571 -0.000154698 0.000311274)
(0.000972842 1.44537e-05 0.000311274)
(0.000955552 0.000183166 0.000311274)
(0.000909229 0.000346313 0.000311274)
(0.00083528 0.000498937 0.000311274)
(0.000735951 0.000636402 0.000311274)
(0.00061426 0.00075453 0.000311274)
(0.000473904 0.000849732 0.000311274)
(0.00031915 0.000919115 0.000311274)
(0.000154698 0.000960571 0.000311274)
(-1.44537e-05 0.000972842 0.000311274)
(-9.41762e-05 0.000759847 -7.74802e-06)
(-0.000224692 0.000731949 -7.74887e-06)
(-0.00034838 0.000681812 -7.74828e-06)
(-0.000461482 0.000610958 -7.74727e-06)
(-0.000560563 0.000521541 -7.7466e-06)
(-0.000642611 0.000416276 -7.74561e-06)
(-0.000705134 0.000298364 -7.74535e-06)
(-0.000746232 0.000171386 -7.7458e-06)
(-0.000764656 3.92007e-05 -7.74719e-06)
(-0.000759847 -9.41761e-05 -7.7481e-06)
(-0.000731949 -0.000224692 -7.74894e-06)
(-0.000681812 -0.00034838 -7.74834e-06)
(-0.000610958 -0.000461482 -7.74732e-06)
(-0.000521541 -0.000560563 -7.74663e-06)
(-0.000416276 -0.000642611 -7.74563e-06)
(-0.000298364 -0.000705134 -7.74536e-06)
(-0.000171386 -0.000746232 -7.74578e-06)
(-3.92006e-05 -0.000764656 -7.74716e-06)
(9.41762e-05 -0.000759847 -7.74805e-06)
(0.000224692 -0.000731949 -7.74887e-06)
(0.00034838 -0.000681812 -7.74826e-06)
(0.000461482 -0.000610958 -7.74723e-06)
(0.000560563 -0.000521541 -7.74654e-06)
(0.000642611 -0.000416276 -7.74553e-06)
(0.000705134 -0.000298364 -7.74526e-06)
(0.000746232 -0.000171386 -7.74568e-06)
(0.000764656 -3.92006e-05 -7.74707e-06)
(0.000759847 9.41762e-05 -7.74797e-06)
(0.000731949 0.000224692 -7.74881e-06)
(0.000681812 0.00034838 -7.74822e-06)
(0.000610958 0.000461482 -7.74721e-06)
(0.000521541 0.000560563 -7.74654e-06)
(0.000416276 0.000642612 -7.74555e-06)
(0.000298364 0.000705134 -7.74529e-06)
(0.000171386 0.000746232 -7.74572e-06)
(3.92006e-05 0.000764656 -7.74711e-06)
(-0.000179653 0.00101231 0.000194193)
(-0.00035271 0.000965736 0.000194193)
(-0.000515049 0.000889817 0.000194193)
(-0.000661739 0.000786862 0.000194193)
(-0.000788322 0.000659998 0.000194194)
(-0.000890954 0.00051308 0.000194194)
(-0.000966514 0.000350572 0.000194195)
(-0.00101271 0.000177413 0.000194194)
(-0.00102813 -1.13726e-06 0.000194194)
(-0.00101231 -0.000179653 0.000194193)
(-0.000965736 -0.00035271 0.000194193)
(-0.000889817 -0.000515049 0.000194193)
(-0.000786862 -0.000661739 0.000194193)
(-0.000659998 -0.000788322 0.000194194)
(-0.00051308 -0.000890954 0.000194194)
(-0.000350572 -0.000966514 0.000194195)
(-0.000177413 -0.00101271 0.000194194)
(1.13731e-06 -0.00102813 0.000194194)
(0.000179653 -0.00101231 0.000194193)
(0.00035271 -0.000965736 0.000194193)
(0.000515049 -0.000889817 0.000194193)
(0.000661739 -0.000786862 0.000194193)
(0.000788322 -0.000659998 0.000194194)
(0.000890954 -0.00051308 0.000194194)
(0.000966514 -0.000350572 0.000194195)
(0.00101271 -0.000177413 0.000194194)
(0.00102813 1.13737e-06 0.000194194)
(0.00101231 0.000179653 0.000194193)
(0.000965736 0.00035271 0.000194193)
(0.000889817 0.000515049 0.000194193)
(0.000786862 0.000661739 0.000194193)
(0.000659998 0.000788322 0.000194194)
(0.00051308 0.000890954 0.000194194)
(0.000350572 0.000966514 0.000194195)
(0.000177413 0.00101271 0.000194194)
(-1.13732e-06 0.00102813 0.000194194)
(-0.000303796 0.00123969 0.00036732)
(-0.000514451 0.00116811 0.00036732)
(-0.000709475 0.00106103 0.00036732)
(-0.000882941 0.000921709 0.00036732)
(-0.00102958 0.000754385 0.00036732)
(-0.00114494 0.00056414 0.00036732)
(-0.0012255 0.000356753 0.00036732)
(-0.00126884 0.000138526 0.00036732)
(-0.00127361 -8.39096e-05 0.00036732)
(-0.00123969 -0.000303796 0.00036732)
(-0.00116811 -0.000514451 0.000367319)
(-0.00106103 -0.000709474 0.00036732)
(-0.000921709 -0.000882941 0.00036732)
(-0.000754385 -0.00102958 0.00036732)
(-0.00056414 -0.00114494 0.00036732)
(-0.000356753 -0.0012255 0.00036732)
(-0.000138526 -0.00126884 0.00036732)
(8.39096e-05 -0.00127361 0.00036732)
(0.000303796 -0.00123969 0.00036732)
(0.000514451 -0.00116811 0.000367319)
(0.000709474 -0.00106103 0.00036732)
(0.000882941 -0.000921709 0.00036732)
(0.00102958 -0.000754385 0.00036732)
(0.00114494 -0.00056414 0.00036732)
(0.0012255 -0.000356753 0.00036732)
(0.00126884 -0.000138526 0.00036732)
(0.00127361 8.39097e-05 0.00036732)
(0.00123969 0.000303796 0.00036732)
(0.00116811 0.000514451 0.00036732)
(0.00106103 0.000709475 0.00036732)
(0.000921709 0.000882941 0.00036732)
(0.000754385 0.00102958 0.00036732)
(0.00056414 0.00114494 0.00036732)
(0.000356753 0.0012255 0.00036732)
(0.000138526 0.00126884 0.00036732)
(-8.39097e-05 0.00127361 0.00036732)
(-0.000314063 0.000987777 -4.14702e-05)
(-0.000480817 0.000918234 -4.14716e-05)
(-0.000632962 0.000820791 -4.14712e-05)
(-0.000765874 0.000698408 -4.14703e-05)
(-0.000875515 0.000554805 -4.14697e-05)
(-0.000958555 0.000394344 -4.14691e-05)
(-0.00101247 0.000221902 -4.14689e-05)
(-0.00103562 4.27167e-05 -4.14688e-05)
(-0.00102731 -0.000137766 -4.14694e-05)
(-0.000987777 -0.000314062 -4.14703e-05)
(-0.000918234 -0.000480817 -4.14717e-05)
(-0.000820791 -0.000632962 -4.14713e-05)
(-0.000698408 -0.000765874 -4.14704e-05)
(-0.000554805 -0.000875515 -4.14697e-05)
(-0.000394344 -0.000958555 -4.14691e-05)
(-0.000221902 -0.00101247 -4.14689e-05)
(-4.27166e-05 -0.00103562 -4.14688e-05)
(0.000137766 -0.00102731 -4.14694e-05)
(0.000314063 -0.000987777 -4.14702e-05)
(0.000480817 -0.000918234 -4.14716e-05)
(0.000632962 -0.00082079 -4.14712e-05)
(0.000765874 -0.000698408 -4.14702e-05)
(0.000875515 -0.000554805 -4.14696e-05)
(0.000958555 -0.000394344 -4.1469e-05)
(0.00101247 -0.000221902 -4.14688e-05)
(0.00103562 -4.27166e-05 -4.14687e-05)
(0.00102731 0.000137766 -4.14693e-05)
(0.000987777 0.000314063 -4.14701e-05)
(0.000918234 0.000480817 -4.14715e-05)
(0.000820791 0.000632962 -4.14711e-05)
(0.000698408 0.000765874 -4.14702e-05)
(0.000554805 0.000875516 -4.14696e-05)
(0.000394344 0.000958555 -4.1469e-05)
(0.000221902 0.00101247 -4.14688e-05)
(4.27166e-05 0.00103562 -4.14687e-05)
(-0.000137766 0.00102731 -4.14693e-05)
(-0.00037238 0.00124527 0.000166553)
(-0.000582961 0.00116169 0.000166552)
(-0.00077583 0.00104281 0.000166553)
(-0.000945125 0.000892244 0.000166553)
(-0.0010857 0.00071457 0.000166554)
(-0.00119329 0.000515184 0.000166554)
(-0.00126462 0.000300144 0.000166554)
(-0.00129753 7.59846e-05 0.000166554)
(-0.00129101 -0.000150484 0.000166554)
(-0.00124527 -0.00037238 0.000166553)
(-0.00116169 -0.000582961 0.000166552)
(-0.00104281 -0.00077583 0.000166553)
(-0.000892244 -0.000945124 0.000166553)
(-0.00071457 -0.0010857 0.000166553)
(-0.000515184 -0.00119329 0.000166554)
(-0.000300144 -0.00126462 0.000166554)
(-7.59845e-05 -0.00129753 0.000166554)
(0.000150484 -0.00129101 0.000166554)
(0.00037238 -0.00124527 0.000166553)
(0.000582961 -0.00116169 0.000166552)
(0.00077583 -0.00104281 0.000166553)
(0.000945124 -0.000892244 0.000166553)
(0.0010857 -0.00071457 0.000166554)
(0.00119329 -0.000515184 0.000166554)
(0.00126462 -0.000300144 0.000166554)
(0.00129753 -7.59844e-05 0.000166554)
(0.00129101 0.000150484 0.000166554)
(0.00124527 0.00037238 0.000166553)
(0.00116169 0.000582961 0.000166553)
(0.00104281 0.00077583 0.000166553)
(0.000892244 0.000945125 0.000166553)
(0.00071457 0.0010857 0.000166554)
(0.000515184 0.00119329 0.000166554)
(0.000300144 0.00126462 0.000166554)
(7.59845e-05 0.00129753 0.000166554)
(-0.000150484 0.00129101 0.000166554)
(-0.000465517 0.00147787 0.00034825)
(-0.000715074 0.00137458 0.00034825)
(-0.000942904 0.00122952 0.00034825)
(-0.00114208 0.00104711 0.00034825)
(-0.00130656 0.000832884 0.00034825)
(-0.00143134 0.000593349 0.00034825)
(-0.00151263 0.000335785 0.00034825)
(-0.00154796 6.80177e-05 0.00034825)
(-0.00153625 -0.000201816 0.00034825)
(-0.00147787 -0.000465517 0.00034825)
(-0.00137458 -0.000715074 0.00034825)
(-0.00122952 -0.000942904 0.00034825)
(-0.00104711 -0.00114208 0.00034825)
(-0.000832884 -0.00130656 0.00034825)
(-0.000593349 -0.00143134 0.00034825)
(-0.000335785 -0.00151263 0.00034825)
(-6.80176e-05 -0.00154796 0.00034825)
(0.000201816 -0.00153625 0.00034825)
(0.000465517 -0.00147787 0.00034825)
(0.000715074 -0.00137458 0.00034825)
(0.000942904 -0.00122952 0.00034825)
(0.00114208 -0.00104711 0.00034825)
(0.00130656 -0.000832884 0.00034825)
(0.00143134 -0.000593348 0.00034825)
(0.00151263 -0.000335784 0.00034825)
(0.00154796 -6.80176e-05 0.00034825)
(0.00153625 0.000201816 0.00034825)
(0.00147787 0.000465517 0.00034825)
(0.00137458 0.000715074 0.00034825)
(0.00122952 0.000942904 0.00034825)
(0.00104711 0.00114208 0.00034825)
(0.000832884 0.00130656 0.00034825)
(0.000593349 0.00143134 0.00034825)
(0.000335784 0.00151263 0.00034825)
(6.80176e-05 0.00154796 0.00034825)
(-0.000201816 0.00153625 0.00034825)
(-0.000565034 0.00116095 -0.000142491)
(-0.000758046 0.00104519 -0.000142493)
(-0.000928026 0.000897681 -0.000142493)
(-0.00106981 0.000722893 -0.000142493)
(-0.00117908 0.00052614 -0.000142492)
(-0.00125253 0.000313401 -0.000142492)
(-0.00128793 9.11397e-05 -0.000142492)
(-0.00128419 -0.000133891 -0.000142492)
(-0.00124143 -0.000354853 -0.000142491)
(-0.00116095 -0.000565034 -0.000142492)
(-0.00104519 -0.000758046 -0.000142493)
(-0.000897681 -0.000928026 -0.000142494)
(-0.000722893 -0.00106981 -0.000142493)
(-0.00052614 -0.00117908 -0.000142492)
(-0.000313401 -0.00125253 -0.000142492)
(-9.11395e-05 -0.00128793 -0.000142492)
(0.000133891 -0.00128419 -0.000142492)
(0.000354853 -0.00124143 -0.000142491)
(0.000565034 -0.00116095 -0.000142491)
(0.000758046 -0.00104519 -0.000142493)
(0.000928026 -0.000897681 -0.000142493)
(0.00106981 -0.000722893 -0.000142493)
(0.00117908 -0.00052614 -0.000142492)
(0.00125253 -0.000313401 -0.000142492)
(0.00128793 -9.11395e-05 -0.000142492)
(0.00128419 0.000133891 -0.000142492)
(0.00124143 0.000354853 -0.000142491)
(0.00116095 0.000565034 -0.000142491)
(0.00104519 0.000758046 -0.000142493)
(0.000897681 0.000928026 -0.000142493)
(0.000722893 0.00106981 -0.000142493)
(0.00052614 0.00117908 -0.000142492)
(0.000313401 0.00125253 -0.000142492)
(9.11396e-05 0.00128793 -0.000142492)
(-0.000133891 0.00128419 -0.000142492)
(-0.000354853 0.00124143 -0.000142491)
(-0.00059917 0.00142614 6.94462e-05)
(-0.000837715 0.00130043 6.94454e-05)
(-0.00105081 0.00113521 6.94453e-05)
(-0.00123197 0.000935493 6.94455e-05)
(-0.0013757 0.000707351 6.94459e-05)
(-0.00147763 0.000457717 6.94459e-05)
(-0.00153466 0.000194176 6.94459e-05)
(-0.00154507 -7.5265e-05 6.9446e-05)
(-0.00150852 -0.00034242 6.94465e-05)
(-0.00142614 -0.00059917 6.94461e-05)
(-0.00130043 -0.000837715 6.94453e-05)
(-0.00113521 -0.00105081 6.94452e-05)
(-0.000935493 -0.00123197 6.94454e-05)
(-0.000707351 -0.0013757 6.94458e-05)
(-0.000457717 -0.00147763 6.94458e-05)
(-0.000194176 -0.00153466 6.94459e-05)
(7.52651e-05 -0.00154506 6.9446e-05)
(0.00034242 -0.00150852 6.94465e-05)
(0.00059917 -0.00142614 6.94462e-05)
(0.000837715 -0.00130043 6.94454e-05)
(0.00105081 -0.00113521 6.94453e-05)
(0.00123197 -0.000935492 6.94455e-05)
(0.0013757 -0.000707351 6.9446e-05)
(0.00147763 -0.000457717 6.9446e-05)
(0.00153466 -0.000194176 6.9446e-05)
(0.00154507 7.52652e-05 6.94461e-05)
(0.00150852 0.00034242 6.94467e-05)
(0.00142614 0.00059917 6.94463e-05)
(0.00130043 0.000837715 6.94455e-05)
(0.00113521 0.00105081 6.94454e-05)
(0.000935493 0.00123197 6.94456e-05)
(0.000707351 0.0013757 6.9446e-05)
(0.000457717 0.00147763 6.9446e-05)
(0.000194176 0.00153466 6.9446e-05)
(-7.52651e-05 0.00154507 6.94461e-05)
(-0.00034242 0.00150852 6.94466e-05)
(-0.000662821 0.00166744 0.000255995)
(-0.0009423 0.00152701 0.000255995)
(-0.00119315 0.00134018 0.000255995)
(-0.00140774 0.00111263 0.000255995)
(-0.00157956 0.000851277 0.000255994)
(-0.00170338 0.000564057 0.000255994)
(-0.00177545 0.000259699 0.000255995)
(-0.00179358 -5.25511e-05 0.000255995)
(-0.0017572 -0.000363204 0.000255995)
(-0.00166744 -0.000662821 0.000255995)
(-0.00152701 -0.000942299 0.000255995)
(-0.00134018 -0.00119315 0.000255995)
(-0.00111263 -0.00140774 0.000255994)
(-0.000851277 -0.00157956 0.000255994)
(-0.000564057 -0.00170338 0.000255994)
(-0.000259699 -0.00177545 0.000255995)
(5.25512e-05 -0.00179358 0.000255995)
(0.000363204 -0.0017572 0.000255995)
(0.000662821 -0.00166744 0.000255995)
(0.000942299 -0.00152701 0.000255995)
(0.00119315 -0.00134018 0.000255995)
(0.00140774 -0.00111263 0.000255995)
(0.00157956 -0.000851277 0.000255995)
(0.00170338 -0.000564057 0.000255995)
(0.00177545 -0.000259699 0.000255995)
(0.00179358 5.25513e-05 0.000255995)
(0.0017572 0.000363204 0.000255995)
(0.00166744 0.000662821 0.000255995)
(0.00152701 0.0009423 0.000255995)
(0.00134018 0.00119315 0.000255995)
(0.00111263 0.00140774 0.000255995)
(0.000851277 0.00157956 0.000255995)
(0.000564057 0.00170338 0.000255995)
(0.000259699 0.00177545 0.000255995)
(-5.25512e-05 0.00179358 0.000255995)
(-0.000363204 0.0017572 0.000255995)
(-0.000807632 0.00126298 -0.000299347)
(-0.00101468 0.00110355 -0.000299348)
(-0.00119089 0.000910586 -0.000299349)
(-0.00133092 0.000689956 -0.000299349)
(-0.00143051 0.000448361 -0.000299349)
(-0.00148663 0.000193144 -0.000299348)
(-0.00149759 -6.79411e-05 -0.000299348)
(-0.00146304 -0.000326962 -0.000299348)
(-0.00138404 -0.000576049 -0.000299347)
(-0.00126298 -0.000807632 -0.000299347)
(-0.00110355 -0.00101468 -0.000299348)
(-0.000910586 -0.00119089 -0.000299349)
(-0.000689956 -0.00133092 -0.000299349)
(-0.000448361 -0.00143051 -0.000299349)
(-0.000193144 -0.00148663 -0.000299348)
(6.79413e-05 -0.00149759 -0.000299348)
(0.000326963 -0.00146304 -0.000299347)
(0.000576049 -0.00138404 -0.000299347)
(0.000807632 -0.00126298 -0.000299347)
(0.00101468 -0.00110355 -0.000299348)
(0.00119089 -0.000910585 -0.000299348)
(0.00133092 -0.000689956 -0.000299349)
(0.00143051 -0.000448361 -0.000299349)
(0.00148663 -0.000193144 -0.000299348)
(0.00149759 6.79414e-05 -0.000299348)
(0.00146304 0.000326963 -0.000299347)
(0.00138404 0.000576049 -0.000299346)
(0.00126298 0.000807632 -0.000299347)
(0.00110355 0.00101468 -0.000299348)
(0.000910586 0.00119089 -0.000299348)
(0.000689956 0.00133092 -0.000299349)
(0.000448361 0.00143051 -0.000299349)
(0.000193144 0.00148663 -0.000299348)
(-6.79413e-05 0.00149759 -0.000299348)
(-0.000326963 0.00146304 -0.000299347)
(-0.000576049 0.00138404 -0.000299347)
(-0.000832568 0.00153986 -8.57299e-05)
(-0.00108731 0.0013719 -8.57305e-05)
(-0.00130902 0.00116224 -8.57308e-05)
(-0.00149096 0.000917277 -8.57311e-05)
(-0.00162759 0.000644439 -8.57313e-05)
(-0.00171477 0.000352021 -8.5731e-05)
(-0.00174985 4.89067e-05 -8.57308e-05)
(-0.00173175 -0.000255693 -8.57305e-05)
(-0.00166104 -0.000552525 -8.57299e-05)
(-0.00153986 -0.000832568 -8.573e-05)
(-0.0013719 -0.00108731 -8.57306e-05)
(-0.00116224 -0.00130902 -8.57309e-05)
(-0.000917276 -0.00149096 -8.57312e-05)
(-0.000644439 -0.00162759 -8.57314e-05)
(-0.000352021 -0.00171477 -8.5731e-05)
(-4.89065e-05 -0.00174984 -8.57309e-05)
(0.000255694 -0.00173175 -8.57305e-05)
(0.000552525 -0.00166104 -8.57298e-05)
(0.000832568 -0.00153986 -8.573e-05)
(0.00108731 -0.0013719 -8.57305e-05)
(0.00130902 -0.00116224 -8.57308e-05)
(0.00149096 -0.000917276 -8.5731e-05)
(0.00162759 -0.000644439 -8.57312e-05)
(0.00171477 -0.000352021 -8.57308e-05)
(0.00174985 -4.89064e-05 -8.57306e-05)
(0.00173175 0.000255694 -8.57303e-05)
(0.00166104 0.000552526 -8.57296e-05)
(0.00153986 0.000832568 -8.57298e-05)
(0.0013719 0.00108731 -8.57304e-05)
(0.00116224 0.00130902 -8.57307e-05)
(0.000917277 0.00149096 -8.5731e-05)
(0.000644439 0.00162759 -8.57312e-05)
(0.000352021 0.00171477 -8.57309e-05)
(4.89066e-05 0.00174985 -8.57307e-05)
(-0.000255694 0.00173175 -8.57304e-05)
(-0.000552525 0.00166104 -8.57297e-05)
(-0.000878842 0.0017972 0.000101725)
(-0.00117757 0.00161729 0.000101725)
(-0.00144052 0.00138824 0.000101725)
(-0.0016597 0.001117 0.000101725)
(-0.00182845 0.000811829 0.000101725)
(-0.00194165 0.000481989 0.000101725)
(-0.00199584 0.000137503 0.000101725)
(-0.0019894 -0.00021116 0.000101725)
(-0.00192251 -0.000553408 0.000101725)
(-0.0017972 -0.000878842 0.000101725)
(-0.00161729 -0.00117757 0.000101725)
(-0.00138824 -0.00144052 0.000101725)
(-0.001117 -0.0016597 0.000101725)
(-0.000811829 -0.00182845 0.000101725)
(-0.000481988 -0.00194165 0.000101725)
(-0.000137503 -0.00199584 0.000101724)
(0.000211161 -0.0019894 0.000101725)
(0.000553408 -0.00192251 0.000101725)
(0.000878842 -0.0017972 0.000101725)
(0.00117757 -0.00161729 0.000101725)
(0.00144052 -0.00138824 0.000101725)
(0.0016597 -0.001117 0.000101725)
(0.00182845 -0.000811829 0.000101725)
(0.00194165 -0.000481988 0.000101725)
(0.00199584 -0.000137503 0.000101725)
(0.0019894 0.000211161 0.000101725)
(0.00192251 0.000553408 0.000101725)
(0.0017972 0.000878842 0.000101725)
(0.00161729 0.00117757 0.000101725)
(0.00138824 0.00144052 0.000101725)
(0.001117 0.0016597 0.000101725)
(0.000811829 0.00182845 0.000101725)
(0.000481989 0.00194165 0.000101725)
(0.000137503 0.00199584 0.000101725)
(-0.000211161 0.0019894 0.000101725)