# Probe 0 (0.02 0.003 0.007)
# Time        0            
0.055         1.55185      
0.06          1.44671      
