/*--------------------------------*- C++ -*----------------------------------*\
| =========                 |                                                 |
| \\      /  F ield         | OpenFOAM: The Open Source CFD Toolbox           |
|  \\    /   O peration     | Version:  2312                                  |
|   \\  /    A nd           | Website:  www.openfoam.com                      |
|    \\/     M anipulation  |                                                 |
\*---------------------------------------------------------------------------*/
FoamFile
{
    version     2.0;
    format      ascii;
    arch        "LSB;label=32;scalar=64";
    class       volVectorField;
    location    "0.1";
    object      D_0;
}
// * * * * * * * * * * * * * * * * * * * * * * * * * * * * * * * * * * * * * //

dimensions      [0 1 0 0 0 0 0];

internalField   nonuniform List<vector> 
1620
(
(0.00011455 0.000158569 -0.000433365)
(0.000163459 0.000167807 -0.000385441)
(0.000176863 0.00018059 -0.000285057)
(0.000152438 0.000171722 -0.00015356)
(0.000101061 0.000128613 -1.84706e-05)
(3.75074e-05 5.36195e-05 9.72661e-05)
(-2.63559e-05 -4.14068e-05 0.000179929)
(-8.31841e-05 -0.000141369 0.000225717)
(-0.000129065 -0.000232431 0.000239103)
(-0.000162033 -0.000304464 0.000230156)
(-0.000181093 -0.00035191 0.000211714)
(-0.000185876 -0.000373526 0.000196801)
(-0.000176709 -0.000371328 0.000196369)
(-0.000154712 -0.000349125 0.000217372)
(-0.000121333 -0.000311369 0.000261014)
(-7.70248e-05 -0.000263307 0.000321036)
(-2.06107e-05 -0.000212943 0.000383013)
(4.68441e-05 -0.000173348 0.000427176)
(0.00011455 -0.000158569 0.000433365)
(0.000163459 -0.000167807 0.000385441)
(0.000176863 -0.00018059 0.000285057)
(0.000152438 -0.000171722 0.00015356)
(0.000101061 -0.000128613 1.84706e-05)
(3.75074e-05 -5.36195e-05 -9.72661e-05)
(-2.63559e-05 4.14068e-05 -0.000179929)
(-8.31841e-05 0.000141369 -0.000225717)
(-0.000129065 0.000232431 -0.000239103)
(-0.000162033 0.000304464 -0.000230156)
(-0.000181093 0.00035191 -0.000211714)
(-0.000185876 0.000373526 -0.000196801)
(-0.000176709 0.000371328 -0.000196369)
(-0.000154712 0.000349125 -0.000217372)
(-0.000121333 0.000311369 -0.000261014)
(-7.70248e-05 0.000263307 -0.000321036)
(-2.06107e-05 0.000212943 -0.000383013)
(4.68441e-05 0.000173348 -0.000427176)
(4.50008e-05 0.000212935 -0.00036079)
(6.14461e-05 0.000187021 -0.00031061)
(6.01908e-05 0.000163292 -0.000238697)
(3.94263e-05 0.000136237 -0.000153854)
(3.0643e-06 0.000100639 -6.69335e-05)
(-4.15361e-05 5.5408e-05 1.26633e-05)
(-8.69523e-05 3.18532e-06 7.89007e-05)
(-0.000127346 -5.14467e-05 0.000129725)
(-0.000158634 -0.000103747 0.000166742)
(-0.000178167 -0.000150124 0.000194203)
(-0.000184464 -0.000188799 0.000217575)
(-0.000177202 -0.000219741 0.000241945)
(-0.000157435 -0.000243895 0.000270539)
(-0.000127808 -0.000261881 0.000303627)
(-9.22781e-05 -0.000272735 0.000338135)
(-5.48375e-05 -0.000273724 0.000368154)
(-1.79204e-05 -0.000262317 0.000386278)
(1.6751e-05 -0.000239942 0.000385468)
(4.50008e-05 -0.000212935 0.00036079)
(6.14461e-05 -0.000187021 0.00031061)
(6.01908e-05 -0.000163292 0.000238697)
(3.94263e-05 -0.000136237 0.000153854)
(3.0643e-06 -0.000100639 6.69335e-05)
(-4.15361e-05 -5.5408e-05 -1.26633e-05)
(-8.69523e-05 -3.18532e-06 -7.89007e-05)
(-0.000127346 5.14467e-05 -0.000129725)
(-0.000158634 0.000103747 -0.000166742)
(-0.000178167 0.000150124 -0.000194203)
(-0.000184464 0.000188799 -0.000217575)
(-0.000177202 0.000219741 -0.000241945)
(-0.000157435 0.000243895 -0.000270539)
(-0.000127808 0.000261881 -0.000303627)
(-9.22781e-05 0.000272735 -0.000338135)
(-5.48375e-05 0.000273724 -0.000368154)
(-1.79204e-05 0.000262317 -0.000386278)
(1.6751e-05 0.000239942 -0.000385468)
(-9.7092e-06 0.000240255 -0.000315777)
(-1.74173e-05 0.000194817 -0.000268226)
(-3.10265e-05 0.000150565 -0.000220755)
(-5.0459e-05 0.000116235 -0.00017313)
(-7.6134e-05 9.29086e-05 -0.000123239)
(-0.000106567 7.71487e-05 -6.96466e-05)
(-0.000138258 6.41374e-05 -1.2245e-05)
(-0.000166784 4.94792e-05 4.80966e-05)
(-0.000187899 2.98983e-05 0.000110064)
(-0.00019825 3.28655e-06 0.000172205)
(-0.000195796 -3.14464e-05 0.000232863)
(-0.000180121 -7.436e-05 0.000289813)
(-0.000152752 -0.000124101 0.000339856)
(-0.000117404 -0.000177169 0.000378746)
(-7.97783e-05 -0.000227201 0.000401899)
(-4.63621e-05 -0.000265232 0.000406011)
(-2.23515e-05 -0.000282064 0.000390723)
(-1.02712e-05 -0.000272759 0.000358886)
(-9.7092e-06 -0.000240255 0.000315777)
(-1.74173e-05 -0.000194817 0.000268226)
(-3.10265e-05 -0.000150565 0.000220755)
(-5.0459e-05 -0.000116235 0.00017313)
(-7.6134e-05 -9.29086e-05 0.000123239)
(-0.000106567 -7.71487e-05 6.96466e-05)
(-0.000138258 -6.41374e-05 1.2245e-05)
(-0.000166784 -4.94792e-05 -4.80966e-05)
(-0.000187899 -2.98983e-05 -0.000110064)
(-0.00019825 -3.28655e-06 -0.000172205)
(-0.000195796 3.14464e-05 -0.000232863)
(-0.000180121 7.436e-05 -0.000289813)
(-0.000152752 0.000124101 -0.000339856)
(-0.000117404 0.000177169 -0.000378746)
(-7.97783e-05 0.000227201 -0.000401899)
(-4.63621e-05 0.000265232 -0.000406011)
(-2.23515e-05 0.000282064 -0.000390723)
(-1.02712e-05 0.000272759 -0.000358886)
(0.000380934 0.00060098 -0.00115736)
(0.000500648 0.000573134 -0.000985325)
(0.000501255 0.000539738 -0.000711573)
(0.000390501 0.000465795 -0.000387745)
(0.000207182 0.000335232 -6.53878e-05)
(-6.01773e-06 0.000152204 0.000213888)
(-0.000215678 -6.46143e-05 0.000424661)
(-0.000399872 -0.000290004 0.000559698)
(-0.000545656 -0.000499497 0.000627868)
(-0.000645759 -0.000674391 0.000649472)
(-0.000696168 -0.00080404 0.000650564)
(-0.000695038 -0.000885667 0.000657325)
(-0.000642729 -0.000922227 0.000691086)
(-0.00054242 -0.000919287 0.00076423)
(-0.000400437 -0.000882508 0.00087678)
(-0.000225402 -0.000817865 0.00101297)
(-2.63041e-05 -0.000735528 0.00113791)
(0.000185687 -0.000654585 0.00120053)
(0.000380934 -0.00060098 0.00115736)
(0.000500648 -0.000573134 0.000985325)
(0.000501255 -0.000539738 0.000711573)
(0.000390501 -0.000465795 0.000387745)
(0.000207182 -0.000335232 6.53878e-05)
(-6.01773e-06 -0.000152204 -0.000213888)
(-0.000215678 6.46143e-05 -0.000424661)
(-0.000399872 0.000290004 -0.000559698)
(-0.000545656 0.000499497 -0.000627868)
(-0.000645759 0.000674391 -0.000649472)
(-0.000696168 0.00080404 -0.000650564)
(-0.000695038 0.000885667 -0.000657325)
(-0.000642729 0.000922227 -0.000691086)
(-0.00054242 0.000919287 -0.00076423)
(-0.000400437 0.000882508 -0.00087678)
(-0.000225402 0.000817865 -0.00101297)
(-2.63041e-05 0.000735528 -0.00113791)
(0.000185687 0.000654585 -0.00120053)
(0.000204015 0.000649569 -0.00104868)
(0.000256152 0.000562753 -0.000906891)
(0.000243331 0.000480155 -0.000704397)
(0.000163691 0.000388615 -0.000466102)
(3.56025e-05 0.000277526 -0.00021997)
(-0.000115932 0.000144357 9.42563e-06)
(-0.000268003 -5.52661e-06 0.000205368)
(-0.000402738 -0.000161845 0.00036111)
(-0.000507351 -0.000313205 0.000479476)
(-0.000573327 -0.000450325 0.000570445)
(-0.00059572 -0.00056783 0.00064749)
(-0.00057296 -0.00066426 0.000723483)
(-0.000507214 -0.00074038 0.000806881)
(-0.000405064 -0.000796363 0.000898911)
(-0.000277859 -0.000829157 0.00099243)
(-0.000140589 -0.000832223 0.00107294)
(-8.09097e-06 -0.000799686 0.00112152)
(0.000109803 -0.000733504 0.00111835)
(0.000204015 -0.000649569 0.00104868)
(0.000256152 -0.000562753 0.000906891)
(0.000243331 -0.000480155 0.000704397)
(0.000163691 -0.000388615 0.000466102)
(3.56025e-05 -0.000277526 0.00021997)
(-0.000115932 -0.000144357 -9.42563e-06)
(-0.000268003 5.52661e-06 -0.000205368)
(-0.000402738 0.000161845 -0.00036111)
(-0.000507351 0.000313205 -0.000479476)
(-0.000573327 0.000450325 -0.000570445)
(-0.00059572 0.00056783 -0.00064749)
(-0.00057296 0.00066426 -0.000723483)
(-0.000507214 0.00074038 -0.000806881)
(-0.000405064 0.000796363 -0.000898911)
(-0.000277859 0.000829157 -0.00099243)
(-0.000140589 0.000832223 -0.00107294)
(-8.09097e-06 0.000799686 -0.00112152)
(0.000109803 0.000733504 -0.00111835)
(4.78755e-05 0.000664273 -0.00094092)
(4.23984e-05 0.000535294 -0.000827634)
(1.5723e-05 0.000416657 -0.000693472)
(-3.72199e-05 0.000316043 -0.00053777)
(-0.000115362 0.000228964 -0.000365005)
(-0.000210459 0.000147239 -0.000183135)
(-0.000309964 6.38434e-05 -5.1399e-07)
(-0.00040014 -2.53681e-05 0.000176396)
(-0.000468459 -0.000121858 0.000344094)
(-0.00050519 -0.000225473 0.000501765)
(-0.000504417 -0.000335387 0.000649838)
(-0.000464751 -0.000450183 0.000787819)
(-0.000390011 -0.000566734 0.000912113)
(-0.000289871 -0.000678114 0.00101483)
(-0.000179942 -0.000771621 0.00108479)
(-7.97625e-05 -0.000829094 0.00111169)
(-6.58601e-06 -0.000832186 0.00109213)
(3.3748e-05 -0.000772516 0.00103226)
(4.78755e-05 -0.000664273 0.00094092)
(4.23984e-05 -0.000535294 0.000827634)
(1.5723e-05 -0.000416657 0.000693472)
(-3.72199e-05 -0.000316043 0.00053777)
(-0.000115362 -0.000228964 0.000365005)
(-0.000210459 -0.000147239 0.000183135)
(-0.000309964 -6.38434e-05 5.1399e-07)
(-0.00040014 2.53681e-05 -0.000176396)
(-0.000468459 0.000121858 -0.000344094)
(-0.00050519 0.000225473 -0.000501765)
(-0.000504417 0.000335387 -0.000649838)
(-0.000464751 0.000450183 -0.000787819)
(-0.000390011 0.000566734 -0.000912113)
(-0.000289871 0.000678114 -0.00101483)
(-0.000179942 0.000771621 -0.00108479)
(-7.97625e-05 0.000829094 -0.00111169)
(-6.58601e-06 0.000832186 -0.00109213)
(3.3748e-05 0.000772516 -0.00103226)
(0.000743461 0.00117248 -0.00174215)
(0.00087086 0.00106724 -0.00146363)
(0.000789546 0.000927068 -0.00105534)
(0.000541825 0.000736907 -0.000586486)
(0.00019132 0.000489008 -0.000123675)
(-0.000198777 0.000188874 0.000280889)
(-0.000577013 -0.000143907 0.000595045)
(-0.00090679 -0.000480957 0.000809062)
(-0.00116449 -0.000793084 0.00093393)
(-0.00133579 -0.00105706 0.000996001)
(-0.00141234 -0.00125934 0.00102963)
(-0.0013898 -0.00139644 0.00106944)
(-0.00126744 -0.00147279 0.00114314)
(-0.00104894 -0.00149707 0.00126566)
(-0.00074418 -0.00147889 0.00143427)
(-0.000372069 -0.00142742 0.0016244)
(3.50608e-05 -0.00135239 0.00178613)
(0.000427404 -0.00126366 0.00184618)
(0.000743461 -0.00117248 0.00174215)
(0.00087086 -0.00106724 0.00146363)
(0.000789546 -0.000927068 0.00105534)
(0.000541825 -0.000736907 0.000586486)
(0.00019132 -0.000489008 0.000123675)
(-0.000198777 -0.000188874 -0.000280889)
(-0.000577013 0.000143907 -0.000595045)
(-0.00090679 0.000480957 -0.000809062)
(-0.00116449 0.000793084 -0.00093393)
(-0.00133579 0.00105706 -0.000996001)
(-0.00141234 0.00125934 -0.00102963)
(-0.0013898 0.00139644 -0.00106944)
(-0.00126744 0.00147279 -0.00114314)
(-0.00104894 0.00149707 -0.00126566)
(-0.00074418 0.00147889 -0.00143427)
(-0.000372069 0.00142742 -0.0016244)
(3.50608e-05 0.00135239 -0.00178613)
(0.000427404 0.00126366 -0.00184618)
(0.000454978 0.00110185 -0.00160742)
(0.000513666 0.000950378 -0.00138614)
(0.0004504 0.000791428 -0.00108076)
(0.000282099 0.000618894 -0.000724086)
(4.2681e-05 0.000424185 -0.000353213)
(-0.000229708 0.000203767 -2.34483e-06)
(-0.000499676 -3.69219e-05 0.000303952)
(-0.000738053 -0.000285274 0.000554414)
(-0.000922858 -0.00052611 0.000751162)
(-0.00103893 -0.00074622 0.000906679)
(-0.00107717 -0.000937114 0.00103879)
(-0.00103417 -0.00109537 0.00116489)
(-0.000912318 -0.00122072 0.00129648)
(-0.000720409 -0.00131265 0.00143521)
(-0.000474338 -0.00136726 0.00157105)
(-0.000197791 -0.0013767 0.00168337)
(7.65289e-05 -0.00133342 0.00174448)
(0.000305303 -0.00123734 0.00172593)
(0.000454978 -0.00110185 0.00160742)
(0.000513666 -0.000950378 0.00138614)
(0.0004504 -0.000791428 0.00108076)
(0.000282099 -0.000618894 0.000724086)
(4.2681e-05 -0.000424185 0.000353213)
(-0.000229708 -0.000203767 2.34483e-06)
(-0.000499676 3.69219e-05 -0.000303952)
(-0.000738053 0.000285274 -0.000554414)
(-0.000922858 0.00052611 -0.000751162)
(-0.00103893 0.00074622 -0.000906679)
(-0.00107717 0.000937114 -0.00103879)
(-0.00103417 0.00109537 -0.00116489)
(-0.000912318 0.00122072 -0.00129648)
(-0.000720409 0.00131265 -0.00143521)
(-0.000474338 0.00136726 -0.00157105)
(-0.000197791 0.0013767 -0.00168337)
(7.65289e-05 0.00133342 -0.00174448)
(0.000305303 0.00123734 -0.00172593)
(0.000195839 0.00102009 -0.00145651)
(0.000193963 0.000830047 -0.00129386)
(0.000144556 0.0006546 -0.00108787)
(4.92414e-05 0.000498091 -0.000840068)
(-8.5198e-05 0.0003533 -0.000560661)
(-0.000245272 0.000209191 -0.000265589)
(-0.000411854 5.76199e-05 2.90719e-05)
(-0.000563516 -0.000104704 0.000311214)
(-0.000680171 -0.000277039 0.000574296)
(-0.000745924 -0.000456432 0.000816668)
(-0.000750978 -0.000639155 0.0010392)
(-0.000692807 -0.000820861 0.00124194)
(-0.000576876 -0.000995127 0.00142091)
(-0.000416956 -0.00115084 0.00156634)
(-0.000234799 -0.00127004 0.00166387)
(-5.85974e-05 -0.00132908 0.00169975)
(8.10595e-05 -0.00130621 0.001669)
(0.000161455 -0.00119517 0.00158232)
(0.000195839 -0.00102009 0.00145651)
(0.000193963 -0.000830047 0.00129386)
(0.000144556 -0.0006546 0.00108787)
(4.92414e-05 -0.000498091 0.000840068)
(-8.5198e-05 -0.0003533 0.000560661)
(-0.000245272 -0.000209191 0.000265589)
(-0.000411854 -5.76199e-05 -2.90719e-05)
(-0.000563516 0.000104704 -0.000311214)
(-0.000680171 0.000277039 -0.000574296)
(-0.000745924 0.000456432 -0.000816668)
(-0.000750978 0.000639155 -0.0010392)
(-0.000692807 0.000820861 -0.00124194)
(-0.000576876 0.000995127 -0.00142091)
(-0.000416956 0.00115084 -0.00156634)
(-0.000234799 0.00127004 -0.00166387)
(-5.85974e-05 0.00132908 -0.00169975)
(8.10595e-05 0.00130621 -0.001669)
(0.000161455 0.00119517 -0.00158232)
(0.00101445 0.00176308 -0.00210692)
(0.00110947 0.00152094 -0.00176586)
(0.000930581 0.00123881 -0.00129045)
(0.000542351 0.000914715 -0.000748816)
(2.67958e-05 0.000544363 -0.000208256)
(-0.000535898 0.000132958 0.0002757)
(-0.00107794 -0.000301412 0.000666708)
(-0.00154822 -0.00073162 0.000951672)
(-0.00191165 -0.00112878 0.00113992)
(-0.0021457 -0.00146919 0.00125797)
(-0.00223668 -0.00173867 0.00134164)
(-0.00217717 -0.00193362 0.00142723)
(-0.00196539 -0.00205938 0.00154303)
(-0.00160697 -0.00212666 0.00170201)
(-0.00111894 -0.00214705 0.0018962)
(-0.000535829 -0.00212804 0.00209381)
(8.22323e-05 -0.00206775 0.00224037)
(0.000640419 -0.00195101 0.00226558)
(0.00101445 -0.00176307 0.00210692)
(0.00110947 -0.00152094 0.00176586)
(0.000930581 -0.00123881 0.00129045)
(0.000542351 -0.000914715 0.000748816)
(2.67958e-05 -0.000544363 0.000208256)
(-0.000535898 -0.000132958 -0.0002757)
(-0.00107794 0.000301412 -0.000666708)
(-0.00154822 0.00073162 -0.000951672)
(-0.00191165 0.00112878 -0.00113992)
(-0.0021457 0.00146919 -0.00125797)
(-0.00223668 0.00173867 -0.00134164)
(-0.00217717 0.00193362 -0.00142723)
(-0.00196539 0.00205938 -0.00154303)
(-0.00160697 0.00212666 -0.00170201)
(-0.00111894 0.00214705 -0.0018962)
(-0.000535829 0.00212804 -0.00209381)
(8.22323e-05 0.00206775 -0.00224037)
(0.000640419 0.00195101 -0.00226558)
(0.000652386 0.00154221 -0.001979)
(0.000687131 0.0013101 -0.00170323)
(0.00055912 0.00106276 -0.00133465)
(0.000300446 0.000800368 -0.000905515)
(-4.5632e-05 0.000516415 -0.000454993)
(-0.000431406 0.000208351 -2.12398e-05)
(-0.000811103 -0.00011799 0.000366581)
(-0.00114543 -0.000449389 0.000693266)
(-0.00140366 -0.000769384 0.000958422)
(-0.00156393 -0.00106287 0.00117362)
(-0.0016128 -0.00131929 0.00135699)
(-0.0015448 -0.00153338 0.00152675)
(-0.00136261 -0.00170368 0.00169487)
(-0.00107793 -0.00182925 0.00186237)
(-0.000712839 -0.00190623 0.00201726)
(-0.000301569 -0.00192578 0.00213581)
(0.000107103 -0.00187497 0.0021872)
(0.000447568 -0.00174318 0.00214128)
(0.000652386 -0.00154221 0.001979)
(0.000687131 -0.0013101 0.00170323)
(0.00055912 -0.00106276 0.00133465)
(0.000300446 -0.000800368 0.000905515)
(-4.5632e-05 -0.000516415 0.000454993)
(-0.000431406 -0.000208351 2.12398e-05)
(-0.000811103 0.00011799 -0.000366581)
(-0.00114543 0.000449389 -0.000693266)
(-0.00140366 0.000769384 -0.000958422)
(-0.00156393 0.00106287 -0.00117362)
(-0.0016128 0.00131929 -0.00135699)
(-0.0015448 0.00153338 -0.00152675)
(-0.00136261 0.00170368 -0.00169487)
(-0.00107793 0.00182925 -0.00186237)
(-0.000712839 0.00190623 -0.00201726)
(-0.000301569 0.00192578 -0.00213581)
(0.000107103 0.00187497 -0.0021872)
(0.000447568 0.00174318 -0.00214128)
(0.000300075 0.00135363 -0.00185077)
(0.000290587 0.00112698 -0.00164117)
(0.000216342 0.000905297 -0.00137257)
(8.34049e-05 0.00069386 -0.00104952)
(-9.87128e-05 0.000486341 -0.000686728)
(-0.000312967 0.000273776 -0.000304894)
(-0.000535305 5.0007e-05 7.53778e-05)
(-0.000738384 -0.000186244 0.00043809)
(-0.000896067 -0.000431883 0.000773831)
(-0.0009873 -0.000681158 0.00107925)
(-0.000998917 -0.000927239 0.00135454)
(-0.000927417 -0.0011626 0.00159972)
(-0.000779851 -0.00137785 0.00181114)
(-0.00057376 -0.00155946 0.00197966)
(-0.000335833 -0.00168834 0.00209195)
(-9.89829e-05 -0.00174157 0.00213528)
(0.000102292 -0.00169965 0.00210419)
(0.00023902 -0.00156071 0.00200506)
(0.000300075 -0.00135363 0.00185077)
(0.000290587 -0.00112698 0.00164117)
(0.000216342 -0.000905297 0.00137257)
(8.34049e-05 -0.00069386 0.00104952)
(-9.87128e-05 -0.000486341 0.000686728)
(-0.000312967 -0.000273776 0.000304894)
(-0.000535305 -5.0007e-05 -7.53778e-05)
(-0.000738384 0.000186244 -0.00043809)
(-0.000896067 0.000431883 -0.000773831)
(-0.0009873 0.000681158 -0.00107925)
(-0.000998917 0.000927239 -0.00135454)
(-0.000927417 0.0011626 -0.00159972)
(-0.000779851 0.00137785 -0.00181114)
(-0.00057376 0.00155946 -0.00197966)
(-0.000335833 0.00168834 -0.00209195)
(-9.89829e-05 0.00174157 -0.00213528)
(0.000102292 0.00169965 -0.00210419)
(0.00023902 0.00156071 -0.00200506)
(0.000987591 0.00226776 -0.00225022)
(0.00106536 0.00189463 -0.00189601)
(0.000830474 0.00146649 -0.00141841)
(0.000345355 0.00100072 -0.00087)
(-0.000296352 0.000505125 -0.000309725)
(-0.000997684 -1.24576e-05 0.000209682)
(-0.00167407 -0.000537183 0.000650606)
(-0.00225963 -0.00104692 0.000995873)
(-0.00270746 -0.00151694 0.00124945)
(-0.00298651 -0.00192592 0.00143247)
(-0.00307766 -0.00226032 0.00157589)
(-0.00297091 -0.00251587 0.00171166)
(-0.00266529 -0.00269604 0.0018638)
(-0.00217225 -0.00280811 0.00204063)
(-0.00152286 -0.00285741 0.00222941)
(-0.000776893 -0.00284161 0.00239516)
(-2.90626e-05 -0.00274784 0.00248594)
(0.000598548 -0.0025583 0.0024482)
(0.000987591 -0.00226776 0.00225022)
(0.00106536 -0.00189463 0.00189601)
(0.000830474 -0.00146649 0.00141841)
(0.000345355 -0.00100072 0.00087)
(-0.000296352 -0.000505125 0.000309725)
(-0.000997684 1.24576e-05 -0.000209682)
(-0.00167407 0.000537183 -0.000650606)
(-0.00225963 0.00104692 -0.000995873)
(-0.00270746 0.00151694 -0.00124945)
(-0.00298651 0.00192592 -0.00143247)
(-0.00307766 0.00226032 -0.00157589)
(-0.00297091 0.00251587 -0.00171166)
(-0.00266529 0.00269604 -0.0018638)
(-0.00217225 0.00280811 -0.00204063)
(-0.00152286 0.00285741 -0.00222941)
(-0.000776893 0.00284161 -0.00239516)
(-2.90626e-05 0.00274784 -0.00248594)
(0.000598548 0.0025583 -0.0024482)
(0.000575455 0.00195414 -0.00216061)
(0.000611996 0.00164119 -0.00185911)
(0.000453145 0.00129488 -0.0014655)
(0.000133732 0.000928983 -0.00100847)
(-0.000292674 0.000546492 -0.00052371)
(-0.000767187 0.000148308 -4.76489e-05)
(-0.00123376 -0.000260068 0.000389616)
(-0.00164388 -0.000666933 0.000769874)
(-0.00195898 -0.00105687 0.00108881)
(-0.00215117 -0.00141474 0.00135417)
(-0.00220308 -0.00172889 0.00158088)
(-0.00210773 -0.00199232 0.00178467)
(-0.00186907 -0.0022015 0.00197563)
(-0.00150351 -0.00235326 0.00215331)
(-0.00104251 -0.00244127 0.00230478)
(-0.000535188 -0.00245428 0.00240653)
(-4.80836e-05 -0.00237878 0.00243033)
(0.000343539 -0.00220833 0.00235226)
(0.000575455 -0.00195414 0.00216061)
(0.000611996 -0.00164119 0.00185911)
(0.000453145 -0.00129488 0.0014655)
(0.000133732 -0.000928983 0.00100847)
(-0.000292674 -0.000546492 0.00052371)
(-0.000767187 -0.000148308 4.76489e-05)
(-0.00123376 0.000260068 -0.000389616)
(-0.00164388 0.000666933 -0.000769874)
(-0.00195898 0.00105687 -0.00108881)
(-0.00215117 0.00141474 -0.00135417)
(-0.00220308 0.00172889 -0.00158088)
(-0.00210773 0.00199232 -0.00178467)
(-0.00186907 0.0022015 -0.00197563)
(-0.00150351 0.00235326 -0.00215331)
(-0.00104251 0.00244127 -0.00230478)
(-0.000535188 0.00245428 -0.00240653)
(-4.80836e-05 0.00237878 -0.00243033)
(0.000343539 0.00220833 -0.00235226)
(0.000172308 0.00167918 -0.00209499)
(0.000176837 0.00142721 -0.00184726)
(9.73209e-05 0.00115753 -0.00153093)
(-5.79716e-05 0.000882015 -0.00115663)
(-0.000273328 0.000601933 -0.000741491)
(-0.00052615 0.00031384 -0.00030698)
(-0.000788021 1.50462e-05 0.000125228)
(-0.00102753 -0.000293416 0.00053735)
(-0.00121448 -0.000606428 0.000917824)
(-0.0013242 -0.000916022 0.00126132)
(-0.00134116 -0.00121289 0.00156664)
(-0.00126139 -0.00148706 0.00183329)
(-0.0010936 -0.00172715 0.00205814)
(-0.000858765 -0.00191894 0.00223382)
(-0.000587909 -0.00204484 0.00235)
(-0.000317851 -0.0020868 0.00239719)
(-8.47626e-05 -0.00203373 0.00237051)
(8.34882e-05 -0.00189058 0.00226963)
(0.000172308 -0.00167918 0.00209499)
(0.000176837 -0.00142721 0.00184726)
(9.73209e-05 -0.00115753 0.00153093)
(-5.79716e-05 -0.000882015 0.00115663)
(-0.000273328 -0.000601933 0.000741491)
(-0.00052615 -0.00031384 0.00030698)
(-0.000788021 -1.50462e-05 -0.000125228)
(-0.00102753 0.000293416 -0.00053735)
(-0.00121448 0.000606428 -0.000917824)
(-0.0013242 0.000916022 -0.00126132)
(-0.00134116 0.00121289 -0.00156664)
(-0.00126139 0.00148706 -0.00183329)
(-0.0010936 0.00172715 -0.00205814)
(-0.000858765 0.00191894 -0.00223382)
(-0.000587909 0.00204484 -0.00235)
(-0.000317851 0.0020868 -0.00239719)
(-8.47626e-05 0.00203373 -0.00237051)
(8.34882e-05 0.00189058 -0.00226963)
(0.000629316 0.00266126 -0.00223856)
(0.000692354 0.00216419 -0.00189618)
(0.00043498 0.00160352 -0.00145172)
(-9.03721e-05 0.00100725 -0.000940266)
(-0.000794421 0.00039396 -0.000404578)
(-0.00157451 -0.000223575 0.000112258)
(-0.00233402 -0.000832003 0.000575008)
(-0.00299357 -0.00141418 0.0009629)
(-0.00349452 -0.00195052 0.00127251)
(-0.00379734 -0.00242293 0.00151598)
(-0.00387807 -0.00281845 0.00171528)
(-0.00372596 -0.00313059 0.00189416)
(-0.00334427 -0.00335792 0.00206953)
(-0.00275521 -0.00350011 0.00224425)
(-0.00200762 -0.0035532 0.00240339)
(-0.00118267 -0.00350684 0.00251604)
(-0.000390329 -0.00334661 0.00254424)
(0.000248333 -0.00306295 0.00245646)
(0.000629316 -0.00266126 0.00223856)
(0.000692354 -0.00216419 0.00189618)
(0.00043498 -0.00160352 0.00145172)
(-9.03721e-05 -0.00100725 0.000940266)
(-0.000794421 -0.00039396 0.000404578)
(-0.00157451 0.000223575 -0.000112258)
(-0.00233402 0.000832003 -0.000575008)
(-0.00299357 0.00141418 -0.0009629)
(-0.00349452 0.00195052 -0.00127251)
(-0.00379734 0.00242293 -0.00151598)
(-0.00387807 0.00281845 -0.00171528)
(-0.00372596 0.00313059 -0.00189416)
(-0.00334427 0.00335792 -0.00206953)
(-0.00275521 0.00350011 -0.00224425)
(-0.00200762 0.0035532 -0.00240339)
(-0.00118267 0.00350684 -0.00251604)
(-0.000390329 0.00334661 -0.00254424)
(0.000248333 0.00306295 -0.00245646)
(0.000220224 0.00229166 -0.0021799)
(0.000254096 0.00189761 -0.00187605)
(8.25466e-05 0.00145646 -0.00148936)
(-0.000263468 0.000989561 -0.00104172)
(-0.000730676 0.000509271 -0.000561411)
(-0.00125552 2.23661e-05 -7.93853e-05)
(-0.00177458 -0.000464319 0.00037622)
(-0.00223154 -0.000940519 0.0007855)
(-0.00258103 -0.00139275 0.00113983)
(-0.00279008 -0.00180683 0.00144142)
(-0.00283843 -0.0021706 0.00169974)
(-0.0027188 -0.00247515 0.00192578)
(-0.00243794 -0.00271389 0.00212609)
(-0.00201864 -0.00287997 0.00229833)
(-0.00150196 -0.00296374 0.0024301)
(-0.000947424 -0.00295278 0.00250172)
(-0.000428006 -0.00283624 0.00249241)
(-1.84539e-05 -0.00261206 0.00238695)
(0.000220224 -0.00229166 0.0021799)
(0.000254096 -0.00189761 0.00187605)
(8.25466e-05 -0.00145646 0.00148936)
(-0.000263468 -0.000989561 0.00104172)
(-0.000730676 -0.000509271 0.000561411)
(-0.00125552 -2.23661e-05 7.93853e-05)
(-0.00177458 0.000464319 -0.00037622)
(-0.00223154 0.000940519 -0.0007855)
(-0.00258103 0.00139275 -0.00113983)
(-0.00279008 0.00180683 -0.00144142)
(-0.00283843 0.0021706 -0.00169974)
(-0.0027188 0.00247515 -0.00192578)
(-0.00243794 0.00271389 -0.00212609)
(-0.00201864 0.00287997 -0.00229833)
(-0.00150196 0.00296374 -0.0024301)
(-0.000947424 0.00295278 -0.00250172)
(-0.000428006 0.00283624 -0.00249241)
(-1.84539e-05 0.00261206 -0.00238695)
(-0.000181139 0.00196286 -0.00216465)
(-0.000169516 0.00167694 -0.00190102)
(-0.000252499 0.00135514 -0.00156677)
(-0.000420461 0.00101238 -0.00117432)
(-0.000654842 0.000656983 -0.000741405)
(-0.000929705 0.000292359 -0.000288945)
(-0.00121375 -7.94479e-05 0.000161998)
(-0.00147324 -0.000454683 0.000593376)
(-0.00167588 -0.000826585 0.000992329)
(-0.00179528 -0.00118581 0.00135164)
(-0.00181492 -0.00152162 0.00166827)
(-0.00173097 -0.00182259 0.00194058)
(-0.00155343 -0.00207646 0.00216552)
(-0.00130514 -0.00226943 0.00233726)
(-0.00101855 -0.0023866 0.00244805)
(-0.00073064 -0.00241507 0.00249053)
(-0.000477021 -0.00234901 0.00245938)
(-0.000287078 -0.00219338 0.00235128)
(-0.000181139 -0.00196286 0.00216465)
(-0.000169516 -0.00167694 0.00190102)
(-0.000252499 -0.00135514 0.00156677)
(-0.000420461 -0.00101238 0.00117432)
(-0.000654842 -0.000656983 0.000741405)
(-0.000929705 -0.000292359 0.000288945)
(-0.00121375 7.94479e-05 -0.000161998)
(-0.00147324 0.000454683 -0.000593376)
(-0.00167588 0.000826585 -0.000992329)
(-0.00179528 0.00118581 -0.00135164)
(-0.00181492 0.00152162 -0.00166827)
(-0.00173097 0.00182259 -0.00194058)
(-0.00155343 0.00207646 -0.00216552)
(-0.00130514 0.00226943 -0.00233726)
(-0.00101855 0.0023866 -0.00244805)
(-0.00073064 0.00241507 -0.00249053)
(-0.000477021 0.00234901 -0.00245938)
(-0.000287078 0.00219338 -0.00235128)
(-4.03053e-05 0.00295071 -0.00212285)
(1.27991e-05 0.00234163 -0.00180948)
(-0.000241482 0.00166688 -0.00141544)
(-0.000760407 0.000958878 -0.000962021)
(-0.00146542 0.000242188 -0.000476543)
(-0.00225881 -0.000466244 1.0036e-05)
(-0.00304131 -0.00115281 0.000468029)
(-0.00372583 -0.00180321 0.000875153)
(-0.00424472 -0.00240144 0.00122109)
(-0.0045512 -0.00293155 0.00150822)
(-0.00461774 -0.00338012 0.00174812)
(-0.00443474 -0.00373721 0.00195498)
(-0.00401189 -0.00399522 0.00213821)
(-0.00338268 -0.00414606 0.00229675)
(-0.00260896 -0.00417884 0.00241742)
(-0.00178081 -0.00408056 0.00247867)
(-0.00100705 -0.00384098 0.00245831)
(-0.000397218 -0.00345967 0.00234115)
(-4.03053e-05 -0.00295071 0.00212285)
(1.27991e-05 -0.00234163 0.00180948)
(-0.000241482 -0.00166688 0.00141544)
(-0.000760407 -0.000958878 0.000962021)
(-0.00146542 -0.000242188 0.000476543)
(-0.00225881 0.000466244 -1.0036e-05)
(-0.00304131 0.00115281 -0.000468029)
(-0.00372583 0.00180321 -0.000875153)
(-0.00424472 0.00240144 -0.00122109)
(-0.0045512 0.00293155 -0.00150822)
(-0.00461774 0.00338012 -0.00174812)
(-0.00443474 0.00373721 -0.00195498)
(-0.00401189 0.00399522 -0.00213821)
(-0.00338268 0.00414606 -0.00229675)
(-0.00260896 0.00417884 -0.00241742)
(-0.00178081 0.00408056 -0.00247867)
(-0.00100705 0.00384098 -0.00245831)
(-0.000397218 0.00345967 -0.00234115)
(-0.000393091 0.00254641 -0.00207922)
(-0.000362744 0.00207082 -0.00179123)
(-0.000533759 0.00154137 -0.00143313)
(-0.000879309 0.000982765 -0.00102)
(-0.00135041 0.000413005 -0.000571857)
(-0.00188508 -0.000156082 -0.000112461)
(-0.00241809 -0.000715297 0.000334103)
(-0.00288921 -0.0012546 0.0007479)
(-0.00324865 -0.00176181 0.00111675)
(-0.00345996 -0.00222364 0.00143722)
(-0.00350127 -0.00262745 0.00171246)
(-0.00336609 -0.00296224 0.00194774)
(-0.0030646 -0.00321809 0.00214553)
(-0.00262513 -0.00338444 0.00230203)
(-0.00209476 -0.00344913 0.002407)
(-0.00153668 -0.0034001 0.00244684)
(-0.00102297 -0.00322988 0.00240922)
(-0.00062339 -0.00294064 0.00228693)
(-0.000393091 -0.00254641 0.00207922)
(-0.000362744 -0.00207082 0.00179123)
(-0.000533759 -0.00154137 0.00143313)
(-0.000879309 -0.000982765 0.00102)
(-0.00135041 -0.000413005 0.000571857)
(-0.00188508 0.000156082 0.000112461)
(-0.00241809 0.000715297 -0.000334103)
(-0.00288921 0.0012546 -0.0007479)
(-0.00324865 0.00176181 -0.00111675)
(-0.00345996 0.00222364 -0.00143722)
(-0.00350127 0.00262745 -0.00171246)
(-0.00336609 0.00296224 -0.00194774)
(-0.0030646 0.00321809 -0.00214553)
(-0.00262513 0.00338444 -0.00230203)
(-0.00209476 0.00344913 -0.002407)
(-0.00153668 0.0034001 -0.00244684)
(-0.00102297 0.00322988 -0.00240922)
(-0.00062339 0.00294064 -0.00228693)
(-0.000740739 0.00218462 -0.00209489)
(-0.000727642 0.00185088 -0.00183403)
(-0.00081298 0.0014705 -0.00150735)
(-0.000986139 0.00106011 -0.00112614)
(-0.00122701 0.000632447 -0.000706169)
(-0.00150818 0.000196265 -0.000266052)
(-0.00179736 -0.000241909 0.000175064)
(-0.00206042 -0.000675509 0.000599968)
(-0.00226509 -0.00109637 0.000995293)
(-0.00238513 -0.00149443 0.00135222)
(-0.00240431 -0.00185835 0.00166564)
(-0.00231923 -0.00217612 0.0019322)
(-0.00214026 -0.00243514 0.00214813)
(-0.00189025 -0.00262215 0.00230831)
(-0.001601 -0.00272419 0.00240676)
(-0.0013086 -0.00273122 0.00243794)
(-0.0010486 -0.0026394 0.00239771)
(-0.000851761 -0.00245317 0.00228354)
(-0.000740739 -0.00218462 0.00209489)
(-0.000727642 -0.00185088 0.00183403)
(-0.00081298 -0.0014705 0.00150735)
(-0.000986139 -0.00106011 0.00112614)
(-0.00122701 -0.000632447 0.000706169)
(-0.00150818 -0.000196265 0.000266052)
(-0.00179736 0.000241909 -0.000175064)
(-0.00206042 0.000675509 -0.000599968)
(-0.00226509 0.00109637 -0.000995293)
(-0.00238513 0.00149443 -0.00135222)
(-0.00240431 0.00185835 -0.00166564)
(-0.00231923 0.00217612 -0.0019322)
(-0.00214026 0.00243514 -0.00214813)
(-0.00189025 0.00262215 -0.00230831)
(-0.001601 0.00272419 -0.00240676)
(-0.0013086 0.00273122 -0.00243794)
(-0.0010486 0.0026394 -0.00239771)
(-0.000851761 0.00245317 -0.00228354)
(-0.000972442 0.00314898 -0.00194712)
(-0.000924548 0.00244929 -0.00167353)
(-0.00115583 0.00168406 -0.0013366)
(-0.0016326 0.000887135 -0.000947995)
(-0.00228904 8.57006e-05 -0.000523593)
(-0.00303858 -0.000700579 -8.39457e-05)
(-0.00378779 -0.00145679 0.000347693)
(-0.00444958 -0.00216905 0.000749825)