/*--------------------------------*- C++ -*----------------------------------*\
| =========                 |                                                 |
| \\      /  F ield         | OpenFOAM: The Open Source CFD Toolbox           |
|  \\    /   O peration     | Version:  2312                                  |
|   \\  /    A nd           | Website:  www.openfoam.com                      |
|    \\/     M anipulation  |                                                 |
\*---------------------------------------------------------------------------*/
FoamFile
{
    version     2.0;
    format      ascii;
    arch        "LSB;label=32;scalar=64";
    class       volVectorField;
    location    "0.1";
    object      D_0_0;
}
// * * * * * * * * * * * * * * * * * * * * * * * * * * * * * * * * * * * * * //

dimensions      [0 1 0 0 0 0 0];

internalField   nonuniform List<vector> 
1620
(
(0.000113696 0.000123445 -0.00041842)
(0.000157557 0.000133212 -0.000381517)
(0.000170448 0.000147192 -0.000296592)
(0.000149904 0.000142741 -0.000182335)
(0.000105218 0.000108133 -6.30427e-05)
(4.93626e-05 4.49235e-05 4.08098e-05)
(-7.09759e-06 -3.66663e-05 0.00011672)
(-5.75478e-05 -0.000123231 0.000160918)
(-9.84288e-05 -0.000202258 0.000177056)
(-0.000127937 -0.000264453 0.000173912)
(-0.000145153 -0.000304644 0.000162877)
(-0.000149721 -0.000321648 0.000155594)
(-0.000141907 -0.000317368 0.000161869)
(-0.000122706 -0.000295451 0.000187878)
(-9.34625e-05 -0.000260154 0.000234562)
(-5.46811e-05 -0.000216332 0.000296089)
(-5.34066e-06 -0.000171087 0.000359265)
(5.38388e-05 -0.000135934 0.000406121)
(0.000113696 -0.000123445 0.00041842)
(0.000157557 -0.000133212 0.000381517)
(0.000170448 -0.000147192 0.000296592)
(0.000149904 -0.000142741 0.000182335)
(0.000105218 -0.000108133 6.30427e-05)
(4.93626e-05 -4.49235e-05 -4.08098e-05)
(-7.09759e-06 3.66663e-05 -0.00011672)
(-5.75478e-05 0.000123231 -0.000160918)
(-9.84288e-05 0.000202258 -0.000177056)
(-0.000127937 0.000264453 -0.000173912)
(-0.000145153 0.000304644 -0.000162877)
(-0.000149721 0.000321648 -0.000155594)
(-0.000141907 0.000317368 -0.000161869)
(-0.000122706 0.000295451 -0.000187878)
(-9.34625e-05 0.000260154 -0.000234562)
(-5.46811e-05 0.000216332 -0.000296089)
(-5.34066e-06 0.000171087 -0.000359265)
(5.38388e-05 0.000135934 -0.000406121)
(5.08843e-05 0.000173627 -0.000345322)
(6.57261e-05 0.000150917 -0.000305855)
(6.52408e-05 0.000130791 -0.000245889)
(4.76873e-05 0.000108173 -0.000173167)
(1.63729e-05 7.81924e-05 -9.73417e-05)
(-2.23077e-05 3.96988e-05 -2.68525e-05)
(-6.18612e-05 -5.03412e-06 3.28066e-05)
(-9.71695e-05 -5.18965e-05 7.967e-05)
(-0.000124652 -9.65653e-05 0.000115054)
(-0.000141976 -0.000135727 0.000142683)
(-0.000147822 -0.000167725 0.000167411)
(-0.000141869 -0.000192547 0.000193786)
(-0.000124989 -0.000211161 0.000224691)
(-9.94543e-05 -0.000224339 0.000260329)
(-6.8713e-05 -0.000231479 0.000297834)
(-3.62681e-05 -0.000230347 0.000331703)
(-4.22871e-06 -0.00021876 0.000355013)
(2.60014e-05 -0.000197965 0.000361131)
(5.08843e-05 -0.000173627 0.000345322)
(6.57261e-05 -0.000150917 0.000305855)
(6.52408e-05 -0.000130791 0.000245889)
(4.76873e-05 -0.000108173 0.000173167)
(1.63729e-05 -7.81924e-05 9.73417e-05)
(-2.23077e-05 -3.96988e-05 2.68525e-05)
(-6.18612e-05 5.03412e-06 -3.28066e-05)
(-9.71695e-05 5.18965e-05 -7.967e-05)
(-0.000124652 9.65653e-05 -0.000115054)
(-0.000141976 0.000135727 -0.000142683)
(-0.000147822 0.000167725 -0.000167411)
(-0.000141869 0.000192547 -0.000193786)
(-0.000124989 0.000211161 -0.000224691)
(-9.94543e-05 0.000224339 -0.000260329)
(-6.8713e-05 0.000231479 -0.000297834)
(-3.62681e-05 0.000230347 -0.000331703)
(-4.22871e-06 0.00021876 -0.000355013)
(2.60014e-05 0.000197965 -0.000361131)
(1.02393e-06 0.00019951 -0.000295781)
(-5.70216e-06 0.000158054 -0.00025818)
(-1.73889e-05 0.000117972 -0.000219769)
(-3.39181e-05 8.69289e-05 -0.000180397)
(-5.56746e-05 6.58767e-05 -0.000138279)
(-8.14598e-05 5.18433e-05 -9.22002e-05)
(-0.000108355 4.06713e-05 -4.20656e-05)
(-0.000132633 2.85654e-05 1.13988e-05)
(-0.000150688 1.26822e-05 6.70896e-05)
(-0.000159641 -8.83616e-06 0.000123777)
(-0.000157709 -3.69986e-05 0.000180032)
(-0.000144484 -7.19565e-05 0.0002339)
(-0.000121214 -0.000112667 0.000282528)
(-9.10429e-05 -0.000156229 0.000322083)
(-5.88439e-05 -0.000197227 0.000348353)
(-3.02052e-05 -0.00022791 0.000358162)
(-9.63022e-06 -0.00024025 0.000350865)
(6.67446e-07 -0.000229919 0.000328625)
(1.02393e-06 -0.00019951 0.000295781)
(-5.70216e-06 -0.000158054 0.00025818)
(-1.73889e-05 -0.000117972 0.000219769)
(-3.39181e-05 -8.69289e-05 0.000180397)
(-5.56746e-05 -6.58767e-05 0.000138279)
(-8.14598e-05 -5.18433e-05 9.22002e-05)
(-0.000108355 -4.06713e-05 4.20656e-05)
(-0.000132633 -2.85654e-05 -1.13988e-05)
(-0.000150688 -1.26822e-05 -6.70896e-05)
(-0.000159641 8.83616e-06 -0.000123777)
(-0.000157709 3.69986e-05 -0.000180032)
(-0.000144484 7.19565e-05 -0.0002339)
(-0.000121214 0.000112667 -0.000282528)
(-9.10429e-05 0.000156229 -0.000322083)
(-5.88439e-05 0.000197227 -0.000348353)
(-3.02052e-05 0.00022791 -0.000358162)
(-9.63022e-06 0.00024025 -0.000350865)
(6.67446e-07 0.000229919 -0.000328625)
(0.000375371 0.000481985 -0.00111147)
(0.000483707 0.000459805 -0.000975312)
(0.000487999 0.000435103 -0.00074476)
(0.000393922 0.000375961 -0.000465287)
(0.000234858 0.000267044 -0.000182567)
(4.81455e-05 0.000111147 6.6118e-05)
(-0.000136645 -7.55627e-05 0.000257499)
(-0.000299886 -0.000270532 0.000384354)
(-0.000429835 -0.000451458 0.000453949)
(-0.000519804 -0.000601041 0.000484048)
(-0.000566047 -0.000709321 0.00049786)
(-0.000566795 -0.000773725 0.000518895)
(-0.00052228 -0.000797252 0.000566337)
(-0.000435279 -0.00078563 0.000651198)
(-0.000311418 -0.000744867 0.000773139)
(-0.000158396 -0.00068109 0.00091737)
(1.59121e-05 -0.000603694 0.00105179)
(0.000202215 -0.0005296 0.00112979)
(0.000375371 -0.000481985 0.00111147)
(0.000483707 -0.000459805 0.000975312)
(0.000487999 -0.000435103 0.00074476)
(0.000393922 -0.000375961 0.000465287)
(0.000234858 -0.000267044 0.000182567)
(4.81455e-05 -0.000111147 -6.6118e-05)
(-0.000136645 7.55627e-05 -0.000257499)
(-0.000299886 0.000270532 -0.000384354)
(-0.000429835 0.000451458 -0.000453949)
(-0.000519804 0.000601041 -0.000484048)
(-0.000566047 0.000709321 -0.00049786)
(-0.000566795 0.000773725 -0.000518895)
(-0.00052228 0.000797252 -0.000566337)
(-0.000435279 0.00078563 -0.000651198)
(-0.000311418 0.000744867 -0.000773139)
(-0.000158396 0.00068109 -0.00091737)
(1.59121e-05 0.000603694 -0.00105179)
(0.000202215 0.0005296 -0.00112979)
(0.000217461 0.000531268 -0.00100236)
(0.000264827 0.000455151 -0.000891448)
(0.000255834 0.000384497 -0.000723208)
(0.000188303 0.000307034 -0.000519542)
(7.79063e-05 0.000212734 -0.000305337)
(-5.36602e-05 9.89448e-05 -0.000102654)
(-0.000186374 -2.96804e-05 7.33088e-05)
(-0.000304533 -0.000163848 0.000216196)
(-0.000396842 -0.000293109 0.000328246)
(-0.000455727 -0.000408885 0.000418196)
(-0.000476724 -0.000506206 0.000498018)
(-0.000458309 -0.000583843 0.000579211)
(-0.000402228 -0.000642843 0.000669312)
(-0.000314105 -0.000683989 0.000769269)
(-0.000203787 -0.000705328 0.000872328)
(-8.43929e-05 -0.000701713 0.000964875)
(3.10774e-05 -0.000668263 0.00102909)
(0.000134198 -0.000606742 0.0010463)
(0.000217461 -0.000531268 0.00100236)
(0.000264827 -0.000455151 0.000891448)
(0.000255834 -0.000384497 0.000723208)
(0.000188303 -0.000307034 0.000519542)
(7.79063e-05 -0.000212734 0.000305337)
(-5.36602e-05 -9.89448e-05 0.000102654)
(-0.000186374 2.96804e-05 -7.33088e-05)
(-0.000304533 0.000163848 -0.000216196)
(-0.000396842 0.000293109 -0.000328246)
(-0.000455727 0.000408885 -0.000418196)
(-0.000476724 0.000506206 -0.000498018)
(-0.000458309 0.000583843 -0.000579211)
(-0.000402228 0.000642843 -0.000669312)
(-0.000314105 0.000683989 -0.000769269)
(-0.000203787 0.000705328 -0.000872328)
(-8.43929e-05 0.000701713 -0.000964875)
(3.10774e-05 0.000668263 -0.00102909)
(0.000134198 0.000606742 -0.0010463)
(7.78329e-05 0.000550136 -0.000893122)
(7.32018e-05 0.000434849 -0.000805861)
(5.068e-05 0.000329846 -0.000697408)
(5.84236e-06 0.000241668 -0.000567135)
(-6.05781e-05 0.00016613 -0.000419101)
(-0.000141689 9.59623e-05 -0.000260453)
(-0.000226857 2.50598e-05 -9.86361e-05)
(-0.000304354 -5.00894e-05 6.06376e-05)
(-0.00036341 -0.000130663 0.000214296)
(-0.000395586 -0.000216499 0.000361621)
(-0.000395665 -0.000306956 0.000502949)
(-0.000362293 -0.000401006 0.000637732)
(-0.000298589 -0.000496237 0.000762585)
(-0.000212752 -0.000586981 0.000870197)
(-0.000118191 -0.000662485 0.000950194)
(-3.18432e-05 -0.000707095 0.000992759)
(3.12068e-05 -0.000704824 0.00099402)
(6.58116e-05 -0.000648324 0.000958481)
(7.78329e-05 -0.000550136 0.000893122)
(7.32018e-05 -0.000434849 0.000805861)
(5.068e-05 -0.000329846 0.000697408)
(5.84236e-06 -0.000241668 0.000567135)
(-6.05781e-05 -0.00016613 0.000419101)
(-0.000141689 -9.59623e-05 0.000260453)
(-0.000226857 -2.50598e-05 9.86361e-05)
(-0.000304354 5.00894e-05 -6.06376e-05)
(-0.00036341 0.000130663 -0.000214296)
(-0.000395586 0.000216499 -0.000361621)
(-0.000395665 0.000306956 -0.000502949)
(-0.000362293 0.000401006 -0.000637732)
(-0.000298589 0.000496237 -0.000762585)
(-0.000212752 0.000586981 -0.000870197)
(-0.000118191 0.000662485 -0.000950194)
(-3.18432e-05 0.000707095 -0.000992759)
(3.12068e-05 0.000704824 -0.00099402)
(6.58116e-05 0.000648324 -0.000958481)
(0.000728168 0.000959192 -0.00167455)
(0.000846408 0.000869701 -0.00145411)
(0.00078197 0.000752238 -0.00111222)
(0.000570352 0.000592261 -0.00070963)
(0.000266291 0.000381644 -0.000305371)
(-7.51288e-05 0.00012429 5.3662e-05)
(-0.000408504 -0.000162826 0.000337916)
(-0.000701095 -0.000454229 0.00053763)
(-0.000931435 -0.000723179 0.000661707)
(-0.00108627 -0.000948075 0.000733192)
(-0.00115775 -0.00111618 0.000782728)
(-0.00114174 -0.00122432 0.000841451)
(-0.00103744 -0.00127704 0.000934344)
(-0.000848072 -0.00128332 0.00107462)
(-0.000582335 -0.00125329 0.00125922)
(-0.000256767 -0.00119655 0.001465)
(0.000100539 -0.00112251 0.00164586)
(0.000446511 -0.00104005 0.00173483)
(0.000728168 -0.000959192 0.00167455)
(0.000846408 -0.000869701 0.00145411)
(0.00078197 -0.000752238 0.00111222)
(0.000570352 -0.000592261 0.00070963)
(0.000266291 -0.000381644 0.000305371)
(-7.51288e-05 -0.00012429 -5.3662e-05)
(-0.000408504 0.000162826 -0.000337916)
(-0.000701095 0.000454229 -0.00053763)
(-0.000931435 0.000723179 -0.000661707)
(-0.00108627 0.000948075 -0.000733192)
(-0.00115775 0.00111618 -0.000782728)
(-0.00114174 0.00122432 -0.000841451)
(-0.00103744 0.00127704 -0.000934344)
(-0.000848072 0.00128332 -0.00107462)
(-0.000582335 0.00125329 -0.00125922)
(-0.000256767 0.00119655 -0.001465)
(0.000100539 0.00112251 -0.00164586)
(0.000446511 0.00104005 -0.00173483)
(0.00047149 0.000905521 -0.00153842)
(0.00052614 0.000772815 -0.00136603)
(0.000474742 0.000635831 -0.00111368)
(0.000331279 0.000488298 -0.000810195)
(0.000124733 0.000321884 -0.000488517)
(-0.000111928 0.000132997 -0.000179313)
(-0.000347848 -7.36345e-05 9.51268e-05)
(-0.000557377 -0.000286575 0.00032429)
(-0.000721016 -0.000491891 0.000509671)
(-0.000825164 -0.000677392 0.000662166)
(-0.000861537 -0.000835302 0.000797602)
(-0.000826838 -0.000962737 0.000931482)
(-0.000722898 -0.00106006 0.00107401)
(-0.000557191 -0.0011278 0.00122633)
(-0.000343463 -0.00116371 0.00137886)
(-0.000102325 -0.00116192 0.00151206)
(0.000137677 -0.00111632 0.00159977)
(0.000338667 -0.00102694 0.00161507)
(0.00047149 -0.000905521 0.00153842)
(0.00052614 -0.000772815 0.00136603)
(0.000474742 -0.000635831 0.00111368)
(0.000331279 -0.000488298 0.000810195)
(0.000124733 -0.000321884 0.000488517)
(-0.000111928 -0.000132997 0.000179313)
(-0.000347848 7.36345e-05 -9.51268e-05)
(-0.000557377 0.000286575 -0.00032429)
(-0.000721016 0.000491891 -0.000509671)
(-0.000825164 0.000677392 -0.000662166)
(-0.000861537 0.000835302 -0.000797602)
(-0.000826838 0.000962737 -0.000931482)
(-0.000722898 0.00106006 -0.00107401)
(-0.000557191 0.0011278 -0.00122633)
(-0.000343463 0.00116371 -0.00137886)
(-0.000102325 0.00116192 -0.00151206)
(0.000137677 0.00111632 -0.00159977)
(0.000338667 0.00102694 -0.00161507)
(0.000240796 0.000841939 -0.00138668)
(0.000239259 0.000672681 -0.00126351)
(0.000197317 0.00051814 -0.00109781)
(0.000116352 0.000381745 -0.000890786)
(1.86507e-06 0.000256813 -0.00065148)
(-0.000134921 0.000133509 -0.000394077)
(-0.000277833 4.75533e-06 -0.000132843)
(-0.000408559 -0.000132158 0.000121517)
(-0.000509777 -0.000276432 0.000363228)
(-0.000567641 -0.000425454 0.000590803)
(-0.000573459 -0.000576111 0.000804877)
(-0.000524756 -0.000724943 0.00100523)
(-0.00042594 -0.000866835 0.00118793)
(-0.000288645 -0.00099266 0.00134369)
(-0.000131535 -0.00108728 0.001459)
(2.09216e-05 -0.00113039 0.00152059)
(0.000141902 -0.00110307 0.00152274)
(0.000211299 -0.000999854 0.00147353)
(0.000240796 -0.000841939 0.00138668)
(0.000239259 -0.000672681 0.00126351)
(0.000197317 -0.00051814 0.00109781)
(0.000116352 -0.000381745 0.000890786)
(1.86507e-06 -0.000256813 0.00065148)
(-0.000134921 -0.000133509 0.000394077)
(-0.000277833 -4.75533e-06 0.000132843)
(-0.000408559 0.000132158 -0.000121517)
(-0.000509777 0.000276432 -0.000363228)
(-0.000567641 0.000425454 -0.000590803)
(-0.000573459 0.000576111 -0.000804877)
(-0.000524756 0.000724943 -0.00100523)
(-0.00042594 0.000866835 -0.00118793)
(-0.000288645 0.00099266 -0.00134369)
(-0.000131535 0.00108728 -0.001459)
(2.09216e-05 0.00113039 -0.00152059)
(0.000141902 0.00110307 -0.00152274)
(0.000211299 0.000999854 -0.00147353)
(0.00100279 0.00146167 -0.0020316)
(0.00109632 0.00125169 -0.00176443)
(0.000949877 0.00100896 -0.00137023)
(0.000617992 0.000730812 -0.000908637)
(0.000171107 0.000412471 -0.000439222)
(-0.000321102 5.77635e-05 -1.18174e-05)
(-0.000798983 -0.000317591 0.000340264)
(-0.00121688 -0.000689185 0.000604182)
(-0.00154281 -0.00103049 0.000787267)
(-0.00175583 -0.00131941 0.000912674)
(-0.00184298 -0.00154265 0.00101236)
(-0.00179712 -0.00169709 0.00111901)
(-0.00161647 -0.00178843 0.00125805)
(-0.00130598 -0.0018279 0.00144077)
(-0.000880549 -0.00182788 0.00165909)
(-0.000370179 -0.00179692 0.00188297)
(0.000173097 -0.00173448 0.00206173)
(0.000666978 -0.00162729 0.00213052)
(0.00100279 -0.00146167 0.0020316)
(0.00109632 -0.00125169 0.00176443)
(0.000949877 -0.00100896 0.00137023)
(0.000617992 -0.000730812 0.000908637)
(0.000171107 -0.000412471 0.000439222)
(-0.000321102 -5.77635e-05 1.18174e-05)
(-0.000798983 0.000317591 -0.000340264)
(-0.00121688 0.000689185 -0.000604182)
(-0.00154281 0.00103049 -0.000787267)
(-0.00175583 0.00131941 -0.000912674)
(-0.00184298 0.00154265 -0.00101236)
(-0.00179712 0.00169709 -0.00111901)
(-0.00161647 0.00178843 -0.00125805)
(-0.00130598 0.0018279 -0.00144077)
(-0.000880549 0.00182788 -0.00165909)
(-0.000370179 0.00179692 -0.00188297)
(0.000173097 0.00173448 -0.00206173)
(0.000666978 0.00162729 -0.00213052)
(0.000681188 0.00127479 -0.00189886)
(0.00071679 0.00107135 -0.00168582)
(0.000610631 0.000856748 -0.00138391)
(0.000389748 0.00063045 -0.00102126)
(9.10571e-05 0.000386143 -0.000632544)
(-0.00024431 0.000121216 -0.000251831)
(-0.000576512 -0.000159199 9.45205e-05)
(-0.000870995 -0.000443096 0.000392476)
(-0.00110043 -0.000715383 0.00064125)
(-0.0012451 -0.000962202 0.000850882)
(-0.00129266 -0.001174 0.00103744)
(-0.0012378 -0.00134643 0.00121707)
(-0.00108247 -0.00147906 0.00140027)
(-0.000836625 -0.00157236 0.00158741)
(-0.000519335 -0.00162448 0.0017668)
(-0.000160315 -0.00162896 0.00191581)
(0.000197958 -0.00157516 0.00200506)
(0.000498153 -0.00145375 0.00200566)
(0.000681188 -0.00127479 0.00189886)
(0.00071679 -0.00107135 0.00168582)
(0.000610631 -0.000856748 0.00138391)
(0.000389748 -0.00063045 0.00102126)
(9.10571e-05 -0.000386143 0.000632544)
(-0.00024431 -0.000121216 0.000251831)
(-0.000576512 0.000159199 -9.45205e-05)
(-0.000870995 0.000443096 -0.000392476)
(-0.00110043 0.000715383 -0.00064125)
(-0.0012451 0.000962202 -0.000850882)
(-0.00129266 0.001174 -0.00103744)
(-0.0012378 0.00134643 -0.00121707)
(-0.00108247 0.00147906 -0.00140027)
(-0.000836625 0.00157236 -0.00158741)
(-0.000519335 0.00162448 -0.0017668)
(-0.000160315 0.00162896 -0.00191581)
(0.000197958 0.00157516 -0.00200506)
(0.000498153 0.00145375 -0.00200566)
(0.000368098 0.00111664 -0.00176412)
(0.000360232 0.000915556 -0.00160624)
(0.000297121 0.00072103 -0.00139095)
(0.00018396 0.00053728 -0.00112193)
(2.85554e-05 0.000358416 -0.000812062)
(-0.000154867 0.000176473 -0.000479647)
(-0.000345954 -1.38225e-05 -0.000142905)
(-0.000521344 -0.000213369 0.000184034)
(-0.000658507 -0.000419293 0.00049285)
(-0.000739089 -0.000626571 0.000780501)
(-0.000751383 -0.000829468 0.00104691)
(-0.000691923 -0.00102187 0.00129167)
(-0.00056634 -0.00119622 0.00151089)
(-0.000389396 -0.00134147 0.00169561)
(-0.000183962 -0.00144167 0.00183289)
(2.13853e-05 -0.00147735 0.00191003)
(0.000196326 -0.00143166 0.00192057)
(0.000315153 -0.00130294 0.00186855)
(0.000368098 -0.00111664 0.00176412)
(0.000360232 -0.000915556 0.00160624)
(0.000297121 -0.00072103 0.00139095)
(0.00018396 -0.00053728 0.00112193)
(2.85554e-05 -0.000358416 0.000812062)
(-0.000154867 -0.000176473 0.000479647)
(-0.000345954 1.38225e-05 0.000142905)
(-0.000521344 0.000213369 -0.000184034)
(-0.000658507 0.000419293 -0.00049285)
(-0.000739089 0.000626571 -0.000780501)
(-0.000751383 0.000829468 -0.00104691)
(-0.000691923 0.00102187 -0.00129167)
(-0.00056634 0.00119622 -0.00151089)
(-0.000389396 0.00134147 -0.00169561)
(-0.000183962 0.00144167 -0.00183289)
(2.13853e-05 0.00147735 -0.00191003)
(0.000196326 0.00143166 -0.00192057)
(0.000315153 0.00130294 -0.00186855)
(0.00101541 0.00189589 -0.00217963)
(0.00109731 0.00156997 -0.00190762)
(0.000905009 0.00119755 -0.00151756)
(0.000490891 0.000793374 -0.00105525)
(-6.48144e-05 0.000363804 -0.0005728)
(-0.000678112 -8.45863e-05 -0.000117346)
(-0.00127482 -0.000538721 0.000276921)
(-0.00179617 -0.000978581 0.000593766)
(-0.00219938 -0.00138142 0.000835896)
(-0.00245545 -0.00172743 0.00102171)
(-0.00254608 -0.00200415 0.00117882)
(-0.00246157 -0.00220816 0.00133589)
(-0.0022007 -0.00234393 0.00151431)
(-0.00177353 -0.00242005 0.00172088)
(-0.00120719 -0.00244369 0.00194291)
(-0.000553579 -0.00241479 0.00214716)
(0.000105226 -0.00232288 0.0022849)
(0.000662919 -0.00215185 0.00230591)
(0.00101541 -0.00189589 0.00217963)
(0.00109731 -0.00156997 0.00190762)
(0.000905009 -0.00119755 0.00151756)
(0.000490891 -0.000793374 0.00105525)
(-6.48144e-05 -0.000363804 0.0005728)
(-0.000678112 8.45863e-05 0.000117346)
(-0.00127482 0.000538721 -0.000276921)
(-0.00179617 0.000978581 -0.000593766)
(-0.00219938 0.00138142 -0.000835896)
(-0.00245545 0.00172743 -0.00102171)
(-0.00254608 0.00200415 -0.00117882)
(-0.00246157 0.00220816 -0.00133589)
(-0.0022007 0.00234393 -0.00151431)
(-0.00177353 0.00242005 -0.00172088)
(-0.00120719 0.00244369 -0.00194291)
(-0.000553579 0.00241479 -0.00214716)
(0.000105226 0.00232288 -0.0022849)
(0.000662919 0.00215185 -0.00230591)
(0.000649606 0.00162588 -0.00207982)
(0.000689235 0.00135118 -0.00185004)
(0.000558121 0.00104906 -0.0015314)
(0.00028559 0.000731216 -0.00114874)
(-8.25035e-05 0.000400046 -0.000733487)
(-0.00049536 5.62395e-05 -0.000318)
(-0.000904208 -0.000295234 7.07238e-05)
(-0.00126637 -0.000643698 0.000416113)
(-0.00154746 -0.000975069 0.000713969)
(-0.00172221 -0.00127559 0.00097092)
(-0.00177454 -0.00153495 0.0012001)
(-0.00169759 -0.0017475 0.00141534)
(-0.00149428 -0.00191123 0.00162523)
(-0.00117859 -0.00202497 0.00182857)
(-0.000777764 -0.00208491 0.00201255)
(-0.000334421 -0.00208255 0.00215439)
(9.35353e-05 -0.00200669 0.00222672)
(0.000440376 -0.00185143 0.00220599)
(0.000649606 -0.00162588 0.00207982)
(0.000689235 -0.00135118 0.00185004)
(0.000558121 -0.00104906 0.0015314)
(0.00028559 -0.000731216 0.00114874)
(-8.25035e-05 -0.000400046 0.000733487)
(-0.00049536 -5.62395e-05 0.000318)
(-0.000904208 0.000295234 -7.07238e-05)
(-0.00126637 0.000643698 -0.000416113)
(-0.00154746 0.000975069 -0.000713969)
(-0.00172221 0.00127559 -0.00097092)
(-0.00177454 0.00153495 -0.0012001)
(-0.00169759 0.0017475 -0.00141534)
(-0.00149428 0.00191123 -0.00162523)
(-0.00117859 0.00202497 -0.00182857)
(-0.000777764 0.00208491 -0.00201255)
(-0.000334421 0.00208255 -0.00215439)
(9.35353e-05 0.00200669 -0.00222672)
(0.000440376 0.00185143 -0.00220599)
(0.000291549 0.00138993 -0.00199931)
(0.000297276 0.00116705 -0.00181313)
(0.000230506 0.000930764 -0.00156051)
(9.8336e-05 0.000691198 -0.0012503)
(-8.5862e-05 0.000449317 -0.000897279)
(-0.000302889 0.000202103 -0.000520262)
(-0.000528547 -5.26176e-05 -0.000138327)
(-0.000735966 -0.000313706 0.000232842)
(-0.000899125 -0.000576547 0.000583008)
(-0.000996545 -0.000834252 0.000907317)
(-0.00101441 -0.00107902 0.00120435)
(-0.000948718 -0.00130273 0.0014731)
(-0.000806388 -0.00149624 0.00170997)
(-0.000605036 -0.00164804 0.00190736)
(-0.000371254 -0.00174369 0.00205476)
(-0.000137018 -0.00176813 0.00214206)
(6.59404e-05 -0.00171199 0.00216309)
(0.00021306 -0.00157958 0.00211583)
(0.000291549 -0.00138993 0.00199931)
(0.000297276 -0.00116705 0.00181313)
(0.000230506 -0.000930764 0.00156051)
(9.8336e-05 -0.000691198 0.0012503)
(-8.5862e-05 -0.000449317 0.000897279)
(-0.000302889 -0.000202103 0.000520262)
(-0.000528547 5.26176e-05 0.000138327)
(-0.000735966 0.000313706 -0.000232842)
(-0.000899125 0.000576547 -0.000583008)
(-0.000996545 0.000834252 -0.000907317)
(-0.00101441 0.00107902 -0.00120435)
(-0.000948718 0.00130273 -0.0014731)
(-0.000806388 0.00149624 -0.00170997)
(-0.000605036 0.00164804 -0.00190736)
(-0.000371254 0.00174369 -0.00205476)
(-0.000137018 0.00176813 -0.00214206)
(6.59404e-05 0.00171199 -0.00216309)
(0.00021306 0.00157958 -0.00211583)
(0.000734892 0.00223789 -0.002177)
(0.000806493 0.00180183 -0.00192047)
(0.000596738 0.00131128 -0.00156472)
(0.000149141 0.000790589 -0.0011401)
(-0.000460109 0.00025606 -0.000684231)
(-0.00114233 -0.000280932 -0.000235433)
(-0.00181301 -0.000808323 0.000174681)
(-0.00240149 -0.00131046 0.000527158)
(-0.00285436 -0.00176935 0.000818469)
(-0.0031346 -0.00216842 0.00105913)
(-0.0032192 -0.00249611 0.00126861)
(-0.00309739 -0.00274748 0.00146797)
(-0.00277151 -0.00292297 0.00167191)
(-0.00226094 -0.00302467 0.00188203)
(-0.00160828 -0.00305152 0.00208334)
(-0.000884029 -0.00299607 0.00224609)
(-0.000183791 -0.00284605 0.00233382)
(0.000386541 -0.0025922 0.0023158)
(0.000734892 -0.00223789 0.002177)
(0.000806493 -0.00180183 0.00192047)
(0.000596738 -0.00131128 0.00156472)
(0.000149141 -0.000790589 0.0011401)
(-0.000460109 -0.00025606 0.000684231)
(-0.00114233 0.000280932 0.000235433)
(-0.00181301 0.000808323 -0.000174681)
(-0.00240149 0.00131046 -0.000527158)
(-0.00285436 0.00176935 -0.000818469)
(-0.0031346 0.00216842 -0.00105913)
(-0.0032192 0.00249611 -0.00126861)
(-0.00309739 0.00274748 -0.00146797)
(-0.00277151 0.00292297 -0.00167191)
(-0.00226094 0.00302467 -0.00188203)
(-0.00160828 0.00305152 -0.00208334)
(-0.000884029 0.00299607 -0.00224609)
(-0.000183791 0.00284605 -0.00233382)
(0.000386541 0.0025922 -0.0023158)
(0.000371633 0.00191752 -0.00210537)
(0.000410996 0.00157106 -0.00187799)
(0.000270436 0.00118478 -0.0015698)
(-2.42603e-05 0.000777253 -0.0011996)
(-0.000427592 0.000359427 -0.00079208)
(-0.000884724 -6.25372e-05 -0.000374544)
(-0.00134043 -0.000482309 2.80428e-05)
(-0.00174513 -0.000890462 0.000397873)
(-0.0020583 -0.00127475 0.000727085)
(-0.00224994 -0.00162249 0.00101745)
(-0.00230117 -0.00192319 0.00127713)
(-0.00220465 -0.00216977 0.00151557)
(-0.00196559 -0.00235779 0.00173797)
(-0.00160346 -0.00248301 0.00194123)
(-0.00115378 -0.00253872 0.00211272)
(-0.00066824 -0.00251532 0.00223287)
(-0.000210403 -0.00240363 0.00228078)
(0.000154231 -0.00220136 0.00224056)
(0.000371633 -0.00191752 0.00210537)
(0.000410996 -0.00157106 0.00187799)
(0.000270436 -0.00118478 0.0015698)
(-2.42603e-05 -0.000777253 0.0011996)
(-0.000427592 -0.000359427 0.00079208)
(-0.000884724 6.25372e-05 0.000374544)
(-0.00134043 0.000482309 -2.80428e-05)
(-0.00174513 0.000890462 -0.000397873)
(-0.0020583 0.00127475 -0.000727085)
(-0.00224994 0.00162249 -0.00101745)
(-0.00230117 0.00192319 -0.00127713)
(-0.00220465 0.00216977 -0.00151557)
(-0.00196559 0.00235779 -0.00173797)
(-0.00160346 0.00248301 -0.00194123)
(-0.00115378 0.00253872 -0.00211272)
(-0.00066824 0.00251532 -0.00223287)
(-0.000210403 0.00240363 -0.00228078)
(0.000154231 0.00220136 -0.00224056)
(1.50391e-05 0.00163269 -0.00207017)
(2.84372e-05 0.00138026 -0.00187396)
(-4.03017e-05 0.00109828 -0.00160928)
(-0.000183058 0.00079972 -0.00128642)
(-0.000383932 0.000491908 -0.000920534)
(-0.000620644 0.000177978 -0.000529764)
(-0.000866317 -0.000140023 -0.000132527)
(-0.00109194 -0.000458566 0.000255313)
(-0.00126966 -0.000771641 0.000622368)
(-0.00137647 -0.00107124 0.000962068)
(-0.00139766 -0.00134841 0.00127132)
(-0.00132926 -0.0015939 0.001548)
(-0.00117919 -0.00179794 0.00178849)
(-0.000966573 -0.00194955 0.00198641)
(-0.000719164 -0.00203678 0.00213334)
(-0.000469015 -0.00204909 0.00222088)
(-0.000247319 -0.00198167 0.00224237)
(-7.99665e-05 -0.00183872 0.00219306)
(1.50391e-05 -0.00163269 0.00207017)
(2.84372e-05 -0.00138026 0.00187396)
(-4.03017e-05 -0.00109828 0.00160928)
(-0.000183058 -0.00079972 0.00128642)
(-0.000383932 -0.000491908 0.000920534)
(-0.000620644 -0.000177978 0.000529764)
(-0.000866317 0.000140023 0.000132527)
(-0.00109194 0.000458566 -0.000255313)
(-0.00126966 0.000771641 -0.000622368)
(-0.00137647 0.00107124 -0.000962068)
(-0.00139766 0.00134841 -0.00127132)
(-0.00132926 0.0015939 -0.001548)
(-0.00117919 0.00179794 -0.00178849)
(-0.000966573 0.00194955 -0.00198641)
(-0.000719164 0.00203678 -0.00213334)
(-0.000469015 0.00204909 -0.00222088)
(-0.000247319 0.00198167 -0.00224237)
(-7.99665e-05 0.00183872 -0.00219306)
(0.00017756 0.00249247 -0.00206939)
(0.000241872 0.0019566 -0.00184202)
(3.57821e-05 0.00136418 -0.00153489)
(-0.000405603 0.00074364 -0.00116612)
(-0.00101549 0.000116855 -0.000759522)
(-0.00170961 -0.000500796 -0.000342318)
(-0.00240131 -0.00109678 5.9287e-05)
(-0.00301324 -0.00165795 0.000425548)
(-0.00348398 -0.00216972 0.000747209)
(-0.00376986 -0.00261782 0.00102621)
(-0.00384433 -0.00299071 0.00127261)
(-0.0036973 -0.0032807 0.0014986)
(-0.00333648 -0.00348296 0.00171184)
(-0.00279088 -0.00359267 0.00191011)
(-0.0021144 -0.00360237 0.00207986)
(-0.00138546 -0.00350188 0.00219957)
(-0.000699086 -0.00328223 0.00224684)
(-0.000151644 -0.00294207 0.00220551)
(0.00017756 -0.00249247 0.00206939)
(0.000241872 -0.0019566 0.00184202)
(3.57821e-05 -0.00136418 0.00153489)
(-0.000405603 -0.00074364 0.00116612)
(-0.00101549 -0.000116855 0.000759522)
(-0.00170961 0.000500796 0.000342318)
(-0.00240131 0.00109678 -5.9287e-05)
(-0.00301324 0.00165795 -0.000425548)
(-0.00348398 0.00216972 -0.000747209)
(-0.00376986 0.00261782 -0.00102621)
(-0.00384433 0.00299071 -0.00127261)
(-0.0036973 0.0032807 -0.0014986)
(-0.00333648 0.00348296 -0.00171184)
(-0.00279088 0.00359267 -0.00191011)
(-0.0021144 0.00360237 -0.00207986)
(-0.00138546 0.00350188 -0.00219957)
(-0.000699086 0.00328223 -0.00224684)
(-0.000151644 0.00294207 -0.00220551)
(-0.000136213 0.00214115 -0.0020135)
(-9.85768e-05 0.00172241 -0.00180314)
(-0.000237737 0.00125767 -0.0015235)
(-0.000531576 0.0007686 -0.0011873)
(-0.000938357 0.00027131 -0.000811815)
(-0.00140461 -0.000223362 -0.000417747)
(-0.00187352 -0.000706843 -2.61717e-05)
(-0.00229199 -0.00116987 0.000345391)
(-0.00261549 -0.0016015 0.000686152)
(-0.00281081 -0.00199004 0.000992918)
(-0.00285745 -0.00232481 0.00126818)
(-0.00274856 -0.00259714 0.00151613)
(-0.00249218 -0.0027998 0.00173813)
(-0.00211249 -0.00292529 0.00192958)
(-0.00165021 -0.00296461 0.00207962)
(-0.00116029 -0.00290821 0.00217394)
(-0.000705729 -0.00274967 0.00219916)
(-0.000347977 -0.00249021 0.00214654)
(-0.000136213 -0.00214115 0.0020135)
(-9.85768e-05 -0.00172241 0.00180314)
(-0.000237737 -0.00125767 0.0015235)
(-0.000531576 -0.0007686 0.0011873)
(-0.000938357 -0.00027131 0.000811815)
(-0.00140461 0.000223362 0.000417747)
(-0.00187352 0.000706843 2.61717e-05)
(-0.00229199 0.00116987 -0.000345391)
(-0.00261549 0.0016015 -0.000686152)
(-0.00281081 0.00199004 -0.000992918)
(-0.00285745 0.00232481 -0.00126818)
(-0.00274856 0.00259714 -0.00151613)
(-0.00249218 0.0027998 -0.00173813)
(-0.00211249 0.00292529 -0.00192958)
(-0.00165021 0.00296461 -0.00207962)
(-0.00116029 0.00290821 -0.00217394)
(-0.000705729 0.00274967 -0.00219916)
(-0.000347977 0.00249021 -0.00214654)
(-0.000445528 0.00182649 -0.00200799)
(-0.000429593 0.00153216 -0.00181682)
(-0.000499552 0.00119863 -0.00156145)
(-0.000646566 0.000840476 -0.0012511)
(-0.000853409 0.000468996 -0.000899081)
(-0.00109639 9.21511e-05 -0.000521382)
(-0.0013476 -0.000284004 -0.000134595)
(-0.0015775 -0.000653445 0.000246242)
(-0.0017581 -0.00100895 0.000609336)
(-0.00186648 -0.00134195 0.000946713)
(-0.00188812 -0.00164306 0.00125345)
(-0.00181938 -0.00190261 0.00152588)
(-0.00166844 -0.00211066 0.00175972)
(-0.00145436 -0.0022568 0.00194912)
(-0.00120429 -0.00233082 0.00208708)
(-0.000949512 -0.00232461 0.00216676)
(-0.000721147 -0.00223502 0.00218246)
(-0.000546408 -0.00206562 0.00213018)
(-0.000445528 -0.00182649 0.00200799)
(-0.000429593 -0.00153216 0.00181682)
(-0.000499552 -0.00119863 0.00156145)
(-0.000646566 -0.000840476 0.0012511)
(-0.000853409 -0.000468996 0.000899081)
(-0.00109639 -9.21511e-05 0.000521382)
(-0.0013476 0.000284004 0.000134595)
(-0.0015775 0.000653445 -0.000246242)
(-0.0017581 0.00100895 -0.000609336)
(-0.00186648 0.00134195 -0.000946713)
(-0.00188812 0.00164306 -0.00125345)
(-0.00181938 0.00190261 -0.00152588)
(-0.00166844 0.00211066 -0.00175972)
(-0.00145436 0.0022568 -0.00194912)
(-0.00120429 0.00233082 -0.00208708)
(-0.000949512 0.00232461 -0.00216676)
(-0.000721147 0.00223502 -0.00218246)
(-0.000546408 0.00206562 -0.00213018)
(-0.000614868 0.00266978 -0.00189752)
(-0.000554996 0.00205293 -0.00170745)
(-0.000741237 0.00137964 -0.00145388)
(-0.00114618 0.000679726 -0.0011463)
(-0.00171399 -2.25028e-05 -0.000798174)