/*--------------------------------*- C++ -*----------------------------------*\
| =========                 |                                                 |
| \\      /  F ield         | OpenFOAM: The Open Source CFD Toolbox           |
|  \\    /   O peration     | Version:  2312                                  |
|   \\  /    A nd           | Website:  www.openfoam.com                      |
|    \\/     M anipulation  |                                                 |
\*---------------------------------------------------------------------------*/
FoamFile
{
    version     2.0;
    format      ascii;
    arch        "LSB;label=32;scalar=64";
    class       volTensorField;
    location    "0.1";
    object      F;
}
// * * * * * * * * * * * * * * * * * * * * * * * * * * * * * * * * * * * * * //

dimensions      [0 0 0 0 0 0 0];

internalField   nonuniform List<tensor> 
1620
(
(0.972509 0.0133284 -0.020892 -0.0564908 0.997718 0.0164801 0.0783727 0.00339413 1.02205)
(0.965098 0.0141612 -0.0297143 -0.0513167 1.00015 0.00588009 0.0627494 0.00932488 1.02539)
(0.967167 0.0144149 -0.033986 -0.0449024 1.00211 -0.00526564 0.0422327 0.0159478 1.02146)
(0.977443 0.0140923 -0.0334774 -0.0365336 1.00143 -0.0123545 0.0201184 0.0231484 1.01335)
(0.992731 0.0135434 -0.0297132 -0.0259994 0.996839 -0.0143915 -0.00111619 0.0299693 1.00503)
(1.00989 0.0129094 -0.0243902 -0.0134911 0.988325 -0.0130849 -0.0195763 0.0347205 0.999272)
(1.02649 0.0120514 -0.0186878 0.000346986 0.977143 -0.0111187 -0.0340843 0.0356758 0.996878)
(1.04089 0.0106969 -0.0132539 0.0145408 0.965494 -0.0106725 -0.0443157 0.0318778 0.996962)
(1.05208 0.0085725 -0.00845018 0.0280539 0.955857 -0.0126467 -0.0507572 0.0235332 0.997798)
(1.05946 0.00552445 -0.00457151 0.0400478 0.950323 -0.0165626 -0.0544969 0.0119637 0.99769)
(1.06269 0.00163141 -0.00192194 0.0500272 0.950088 -0.0208892 -0.0569188 -0.000731492 0.995636)
(1.06164 -0.00272646 -0.000746765 0.0578375 0.955174 -0.0235712 -0.059378 -0.0121599 0.991696)
(1.05631 -0.00688791 -0.00105353 0.0635394 0.964352 -0.0226475 -0.0629118 -0.0201782 0.987075)
(1.04697 -0.010082 -0.0023587 0.0672212 0.975337 -0.0169356 -0.0680177 -0.023426 0.983868)
(1.03422 -0.0118019 -0.00347134 0.0688521 0.985344 -0.00673941 -0.074498 -0.0217454 0.984394)
(1.01908 -0.0122358 -0.00260084 0.0683063 0.992115 0.00565617 -0.0813037 -0.0163142 0.99007)
(1.00277 -0.0122293 0.00190186 0.0656129 0.995191 0.0162304 -0.0862606 -0.0092688 1.00029)
(0.986533 -0.0125309 0.0103721 0.0612615 0.996307 0.0206389 -0.0860589 -0.00255339 1.01229)
(0.972509 -0.0133284 0.020892 0.0564908 0.997718 0.0164801 -0.0783727 0.00339413 1.02205)
(0.965098 -0.0141612 0.0297143 0.0513167 1.00015 0.00588009 -0.0627494 0.00932488 1.02539)
(0.967167 -0.0144149 0.033986 0.0449024 1.00211 -0.00526564 -0.0422327 0.0159478 1.02146)
(0.977443 -0.0140923 0.0334774 0.0365336 1.00143 -0.0123545 -0.0201184 0.0231484 1.01335)
(0.992731 -0.0135434 0.0297132 0.0259994 0.996839 -0.0143915 0.00111619 0.0299693 1.00503)
(1.00989 -0.0129094 0.0243902 0.0134911 0.988325 -0.0130849 0.0195763 0.0347205 0.999272)
(1.02649 -0.0120514 0.0186878 -0.000346986 0.977143 -0.0111187 0.0340843 0.0356758 0.996878)
(1.04089 -0.0106969 0.0132539 -0.0145408 0.965494 -0.0106725 0.0443157 0.0318778 0.996962)
(1.05208 -0.0085725 0.00845018 -0.0280539 0.955857 -0.0126467 0.0507572 0.0235332 0.997798)
(1.05946 -0.00552445 0.00457151 -0.0400478 0.950323 -0.0165626 0.0544969 0.0119637 0.99769)
(1.06269 -0.00163141 0.00192194 -0.0500272 0.950088 -0.0208892 0.0569188 -0.000731492 0.995636)
(1.06164 0.00272646 0.000746765 -0.0578375 0.955174 -0.0235712 0.059378 -0.0121599 0.991696)
(1.05631 0.00688791 0.00105353 -0.0635394 0.964352 -0.0226475 0.0629118 -0.0201782 0.987075)
(1.04697 0.010082 0.0023587 -0.0672212 0.975337 -0.0169356 0.0680177 -0.023426 0.983868)
(1.03422 0.0118019 0.00347134 -0.0688521 0.985344 -0.00673941 0.074498 -0.0217454 0.984394)
(1.01908 0.0122358 0.00260084 -0.0683063 0.992115 0.00565617 0.0813037 -0.0163142 0.99007)
(1.00277 0.0122293 -0.00190186 -0.0656129 0.995191 0.0162304 0.0862606 -0.0092688 1.00029)
(0.986533 0.0125309 -0.0103721 -0.0612615 0.996307 0.0206389 0.0860589 -0.00255339 1.01229)
(0.984763 0.00659297 -0.0191118 -0.0552193 0.992973 0.0118373 0.0749364 0.00791549 1.01778)
(0.981234 0.00892644 -0.0272648 -0.0474583 0.993399 0.00237304 0.0632031 0.00961263 1.01992)
(0.98302 0.0115308 -0.030877 -0.0397824 0.996529 -0.00679807 0.0476204 0.0128938 1.015)
(0.990062 0.0130023 -0.0298926 -0.0316503 0.998667 -0.0110102 0.0298854 0.0189441 1.00683)
(1.00073 0.0132145 -0.0261004 -0.0226003 0.996564 -0.00990879 0.0117218 0.0264113 0.999923)
(1.01304 0.0127141 -0.0211997 -0.0124422 0.989197 -0.00617935 -0.00533781 0.0324741 0.996956)
(1.02526 0.0118875 -0.0160905 -0.00135598 0.9779 -0.00323733 -0.020196 0.0343898 0.998071)
(1.036 0.0107047 -0.011095 0.0101744 0.965551 -0.00347693 -0.0323546 0.0306913 1.00152)
(1.04427 0.00886358 -0.00638922 0.0215434 0.955411 -0.00752435 -0.0419197 0.0216401 1.00484)
(1.04937 0.00606868 -0.00226811 0.0322156 0.950122 -0.0143213 -0.04946 0.00902287 1.00588)
(1.05092 0.00228063 0.000823266 0.0418411 0.951052 -0.0216725 -0.0557738 -0.00442269 1.00356)
(1.04879 -0.00213976 0.002428 0.0502594 0.958019 -0.0269644 -0.0616214 -0.01572 0.99818)
(1.04312 -0.00642317 0.00231726 0.0573954 0.969324 -0.0279009 -0.0674785 -0.022376 0.99139)
(1.03442 -0.0095603 0.000791768 0.0630899 0.982069 -0.0232093 -0.0733594 -0.0230542 0.985807)
(1.02358 -0.0107124 -0.00104419 0.066952 0.992823 -0.0132935 -0.0787607 -0.018111 0.984232)
(1.01196 -0.00979255 -0.00130943 0.0683646 0.998758 -0.000651338 -0.0827552 -0.00972242 0.988395)
(1.00105 -0.00775677 0.00194685 0.0667606 0.999099 0.0104291 -0.0841943 -0.00114365 0.997684)
(0.991813 -0.00619598 0.00938864 0.0620401 0.995895 0.0153676 -0.0818693 0.00493939 1.00898)
(0.984763 -0.00659297 0.0191118 0.0552193 0.992973 0.0118373 -0.0749364 0.00791549 1.01778)
(0.981234 -0.00892644 0.0272648 0.0474583 0.993399 0.00237304 -0.0632031 0.00961263 1.01992)
(0.98302 -0.0115308 0.030877 0.0397824 0.996529 -0.00679807 -0.0476204 0.0128938 1.015)
(0.990062 -0.0130023 0.0298926 0.0316503 0.998667 -0.0110102 -0.0298854 0.0189441 1.00683)
(1.00073 -0.0132145 0.0261004 0.0226003 0.996564 -0.00990879 -0.0117218 0.0264113 0.999923)
(1.01304 -0.0127141 0.0211997 0.0124422 0.989197 -0.00617935 0.00533781 0.0324741 0.996956)
(1.02526 -0.0118875 0.0160905 0.00135598 0.9779 -0.00323733 0.020196 0.0343898 0.998071)
(1.036 -0.0107047 0.011095 -0.0101744 0.965551 -0.00347693 0.0323546 0.0306913 1.00152)
(1.04427 -0.00886358 0.00638922 -0.0215434 0.955411 -0.00752435 0.0419197 0.0216401 1.00484)
(1.04937 -0.00606868 0.00226811 -0.0322156 0.950122 -0.0143213 0.04946 0.00902287 1.00588)
(1.05092 -0.00228063 -0.000823266 -0.0418411 0.951052 -0.0216725 0.0557738 -0.00442269 1.00356)
(1.04879 0.00213976 -0.002428 -0.0502594 0.958019 -0.0269644 0.0616214 -0.01572 0.99818)
(1.04312 0.00642317 -0.00231726 -0.0573954 0.969324 -0.0279009 0.0674785 -0.022376 0.99139)
(1.03442 0.0095603 -0.000791768 -0.0630899 0.982069 -0.0232093 0.0733594 -0.0230542 0.985807)
(1.02358 0.0107124 0.00104419 -0.066952 0.992823 -0.0132935 0.0787607 -0.018111 0.984232)
(1.01196 0.00979255 0.00130943 -0.0683646 0.998758 -0.000651338 0.0827552 -0.00972242 0.988395)
(1.00105 0.00775677 -0.00194685 -0.0667606 0.999099 0.0104291 0.0841943 -0.00114365 0.997684)
(0.991813 0.00619598 -0.00938864 -0.0620401 0.995895 0.0153676 0.0818693 0.00493939 1.00898)
(0.996378 0.000565745 -0.0170915 -0.0531714 0.989691 0.00689767 0.0684893 0.0114333 1.01323)
(0.996554 0.00371174 -0.0244996 -0.0429617 0.98857 -0.000783511 0.0599108 0.00960309 1.01406)
(0.998374 0.00813811 -0.0275945 -0.033706 0.992553 -0.00750986 0.0494181 0.0101592 1.00837)
(1.00241 0.0112443 -0.0262867 -0.0255419 0.997061 -0.00863214 0.0368207 0.0153533 1.00054)
(1.00855 0.0122412 -0.0225645 -0.0179512 0.997119 -0.0043243 0.0226732 0.0235471 0.995528)
(1.01606 0.0119165 -0.0181964 -0.0103551 0.990682 0.00178437 0.0078878 0.030858 0.995829)
(1.02391 0.0111749 -0.0138187 -0.00237314 0.979103 0.00550438 -0.00665056 0.0335557 1.00087)
(1.03103 0.0102591 -0.00937789 0.00611813 0.965948 0.00418382 -0.0203073 0.0296884 1.00796)
(1.03642 0.00883471 -0.00481197 0.0150425 0.955326 -0.00248947 -0.0327761 0.0196347 1.01374)
(1.03933 0.00643332 -0.000397363 0.0242282 0.950471 -0.0127288 -0.0440361 0.00576642 1.0156)
(1.03929 0.00286448 0.00326571 0.0334896 0.952864 -0.0234765 -0.054215 -0.00840714 1.01243)
(1.03621 -0.00155102 0.00548063 0.0426389 0.961955 -0.0314211 -0.0634001 -0.0192718 1.00496)
(1.03037 -0.00594949 0.00577218 0.0514066 0.975362 -0.0339428 -0.0714507 -0.0240953 0.995544)
(1.02253 -0.00910657 0.00423616 0.0592943 0.989458 -0.0298662 -0.0778854 -0.0218464 0.987508)
(1.01389 -0.00988516 0.00184667 0.0654409 1.00028 -0.019975 -0.0819401 -0.0137106 0.984097)
(1.00604 -0.00791539 0.000491482 0.0686435 1.00483 -0.00716282 -0.0828845 -0.00295027 0.987064)
(1.00045 -0.00415774 0.00235834 0.0677098 1.00247 0.00412488 -0.0805417 0.00634714 0.995464)
(0.997501 -0.000878495 0.0084746 0.0621315 0.995799 0.00945652 -0.07553 0.0112594 1.00575)
(0.996378 -0.000565745 0.0170915 0.0531714 0.989691 0.00689767 -0.0684893 0.0114333 1.01323)
(0.996554 -0.00371174 0.0244996 0.0429617 0.98857 -0.000783511 -0.0599108 0.00960309 1.01406)
(0.998374 -0.00813811 0.0275945 0.033706 0.992553 -0.00750986 -0.0494181 0.0101592 1.00837)
(1.00241 -0.0112443 0.0262867 0.0255419 0.997061 -0.00863214 -0.0368207 0.0153533 1.00054)
(1.00855 -0.0122412 0.0225645 0.0179512 0.997119 -0.0043243 -0.0226732 0.0235471 0.995528)
(1.01606 -0.0119165 0.0181964 0.0103551 0.990682 0.00178437 -0.0078878 0.030858 0.995829)
(1.02391 -0.0111749 0.0138187 0.00237314 0.979103 0.00550438 0.00665056 0.0335557 1.00087)
(1.03103 -0.0102591 0.00937789 -0.00611813 0.965948 0.00418382 0.0203073 0.0296884 1.00796)
(1.03642 -0.00883471 0.00481197 -0.0150425 0.955326 -0.00248947 0.0327761 0.0196347 1.01374)
(1.03933 -0.00643332 0.000397363 -0.0242282 0.950471 -0.0127288 0.0440361 0.00576642 1.0156)
(1.03929 -0.00286448 -0.00326571 -0.0334896 0.952864 -0.0234765 0.054215 -0.00840714 1.01243)
(1.03621 0.00155102 -0.00548063 -0.0426389 0.961955 -0.0314211 0.0634001 -0.0192718 1.00496)
(1.03037 0.00594949 -0.00577218 -0.0514066 0.975362 -0.0339428 0.0714507 -0.0240953 0.995544)
(1.02253 0.00910657 -0.00423616 -0.0592943 0.989458 -0.0298662 0.0778854 -0.0218464 0.987508)
(1.01389 0.00988516 -0.00184667 -0.0654409 1.00028 -0.019975 0.0819401 -0.0137106 0.984097)
(1.00604 0.00791539 -0.000491482 -0.0686435 1.00483 -0.00716282 0.0828845 -0.00295027 0.987064)
(1.00045 0.00415774 -0.00235834 -0.0677098 1.00247 0.00412488 0.0805417 0.00634714 0.995464)
(0.997501 0.000878495 -0.0084746 -0.0621315 0.995799 0.00945652 0.07553 0.0112594 1.00575)
(0.968017 0.0350337 -0.0531573 -0.0634031 0.990344 0.013047 0.0705535 0.0213451 1.03446)
(0.964621 0.0307096 -0.0719417 -0.0557557 0.994394 -0.00629519 0.0563963 0.0386782 1.03332)
(0.970702 0.0239212 -0.0784303 -0.0458628 0.997581 -0.0230262 0.0384972 0.0547703 1.02438)
(0.98368 0.0166362 -0.0746977 -0.0346512 0.996568 -0.0326542 0.0193243 0.0686434 1.0133)
(1.00067 0.00991051 -0.0649288 -0.0225166 0.989934 -0.0353188 0.000853025 0.0787364 1.0044)
(1.01904 0.00380629 -0.0529168 -0.00958743 0.978053 -0.0338056 -0.0154538 0.0828085 0.999801)
(1.03661 -0.00194429 -0.0411276 0.00384111 0.963031 -0.031512 -0.0286703 0.0791493 0.999374)
(1.05176 -0.00774646 -0.0307706 0.0171928 0.948035 -0.0309521 -0.0384955 0.0673898 1.00133)
(1.06338 -0.0140545 -0.0223428 0.029765 0.936362 -0.0330399 -0.045259 0.0487246 1.00324)
(1.07078 -0.0211678 -0.0161204 0.040946 0.930629 -0.0370438 -0.0497846 0.0256982 1.00296)
(1.07356 -0.0289772 -0.0123462 0.050358 0.93219 -0.0409637 -0.0531531 0.0017481 0.999357)
(1.0715 -0.0368026 -0.0111132 0.0578869 0.940784 -0.0421422 -0.0564296 -0.0193739 0.992797)
(1.06458 -0.0434284 -0.0120451 0.0636165 0.95441 -0.0380551 -0.0604086 -0.0342705 0.985267)
(1.05297 -0.0474062 -0.0138854 0.0677108 0.969555 -0.0273058 -0.0654087 -0.040642 0.980165)
(1.03723 -0.0476978 -0.014154 0.0702971 0.982059 -0.0107593 -0.0711339 -0.0379597 0.981337)
(1.01849 -0.0446141 -0.00923873 0.0713901 0.988798 0.00765916 -0.0765848 -0.0276747 0.991097)
(0.998813 -0.040359 0.0043541 0.0708572 0.989773 0.0214947 -0.0799648 -0.0125916 1.00763)
(0.981065 -0.0373489 0.0270557 0.068295 0.988945 0.0242215 -0.0786239 0.00409272 1.02428)
(0.968017 -0.0350337 0.0531573 0.0634031 0.990344 0.013047 -0.0705535 0.0213451 1.03446)
(0.964621 -0.0307096 0.0719417 0.0557557 0.994394 -0.00629519 -0.0563963 0.0386782 1.03332)
(0.970702 -0.0239212 0.0784303 0.0458628 0.997581 -0.0230262 -0.0384972 0.0547703 1.02438)
(0.98368 -0.0166362 0.0746977 0.0346512 0.996568 -0.0326542 -0.0193243 0.0686434 1.0133)
(1.00067 -0.00991051 0.0649288 0.0225166 0.989934 -0.0353188 -0.000853025 0.0787364 1.0044)
(1.01904 -0.00380629 0.0529168 0.00958743 0.978053 -0.0338056 0.0154538 0.0828085 0.999801)
(1.03661 0.00194429 0.0411276 -0.00384111 0.963031 -0.031512 0.0286703 0.0791493 0.999374)
(1.05176 0.00774646 0.0307706 -0.0171928 0.948035 -0.0309521 0.0384955 0.0673898 1.00133)
(1.06338 0.0140545 0.0223428 -0.029765 0.936362 -0.0330399 0.045259 0.0487246 1.00324)
(1.07078 0.0211678 0.0161204 -0.040946 0.930629 -0.0370438 0.0497846 0.0256982 1.00296)
(1.07356 0.0289772 0.0123462 -0.050358 0.93219 -0.0409637 0.0531531 0.0017481 0.999357)
(1.0715 0.0368026 0.0111132 -0.0578869 0.940784 -0.0421422 0.0564296 -0.0193739 0.992797)
(1.06458 0.0434284 0.0120451 -0.0636165 0.95441 -0.0380551 0.0604086 -0.0342705 0.985267)
(1.05297 0.0474062 0.0138854 -0.0677108 0.969555 -0.0273058 0.0654087 -0.040642 0.980165)
(1.03723 0.0476978 0.014154 -0.0702971 0.982059 -0.0107593 0.0711339 -0.0379597 0.981337)
(1.01849 0.0446141 0.00923873 -0.0713901 0.988798 0.00765916 0.0765848 -0.0276747 0.991097)
(0.998813 0.040359 -0.0043541 -0.0708572 0.989773 0.0214947 0.0799648 -0.0125916 1.00763)
(0.981065 0.0373489 -0.0270557 -0.068295 0.988945 0.0242215 0.0786239 0.00409272 1.02428)
(0.980368 0.0202336 -0.0511058 -0.0558794 0.98041 0.00686371 0.0677442 0.0234841 1.03357)
(0.97883 0.0224433 -0.0689376 -0.047731 0.98329 -0.0118165 0.0570672 0.0332013 1.03118)
(0.982881 0.0226218 -0.0736708 -0.0389937 0.990326 -0.0266822 0.0434297 0.0456688 1.02022)
(0.991444 0.0193112 -0.0679805 -0.0299428 0.99447 -0.0327573 0.0279327 0.0601063 1.00827)
(1.00294 0.013463 -0.0571406 -0.0204838 0.991656 -0.0310903 0.011828 0.0732036 1.00084)
(1.01574 0.00655757 -0.0452714 -0.010418 0.98118 -0.0259675 -0.00364732 0.0807014 1.00005)
(1.02831 -0.000326527 -0.0343932 0.000239071 0.965484 -0.0220161 -0.0175285 0.0793003 1.00478)
(1.03933 -0.00692313 -0.0250362 0.0111993 0.948878 -0.022235 -0.0292982 0.0678976 1.01183)
(1.04779 -0.0136207 -0.0172344 0.0220195 0.935947 -0.0272242 -0.0389239 0.0478725 1.01747)
(1.05293 -0.0209284 -0.011178 0.0322602 0.930224 -0.0353817 -0.0467639 0.0226315 1.01873)
(1.05434 -0.0289135 -0.00733103 0.0415922 0.933373 -0.0436332 -0.0533843 -0.00321629 1.01428)
(1.05185 -0.0368628 -0.00614148 0.0498167 0.944821 -0.0483694 -0.0593384 -0.0247943 1.0048)
(1.04556 -0.0432699 -0.00754633 0.056802 0.961774 -0.0464548 -0.0649592 -0.0379187 0.993061)
(1.03589 -0.046183 -0.0104268 0.0623702 0.979624 -0.0363194 -0.0702126 -0.0401178 0.983477)
(1.0236 -0.043991 -0.0121777 0.0661956 0.993008 -0.0190962 -0.0746508 -0.0316665 0.981017)
(1.00991 -0.0367267 -0.0087903 0.0677965 0.997781 0.000622269 -0.0774876 -0.0161594 0.988919)
(0.996669 -0.0273662 0.00369381 0.066685 0.993556 0.0154682 -0.0777887 0.000567764 1.00555)
(0.986308 -0.0209133 0.0257646 0.0626028 0.985298 0.0182589 -0.0747148 0.0137914 1.02323)
(0.980368 -0.0202336 0.0511058 0.0558794 0.98041 0.00686371 -0.0677442 0.0234841 1.03357)
(0.97883 -0.0224433 0.0689376 0.047731 0.98329 -0.0118165 -0.0570672 0.0332013 1.03118)
(0.982881 -0.0226218 0.0736708 0.0389937 0.990326 -0.0266822 -0.0434297 0.0456688 1.02022)
(0.991444 -0.0193112 0.0679805 0.0299428 0.99447 -0.0327573 -0.0279327 0.0601063 1.00827)
(1.00294 -0.013463 0.0571406 0.0204838 0.991656 -0.0310903 -0.011828 0.0732036 1.00084)
(1.01574 -0.00655757 0.0452714 0.010418 0.98118 -0.0259675 0.00364732 0.0807014 1.00005)
(1.02831 0.000326527 0.0343932 -0.000239071 0.965484 -0.0220161 0.0175285 0.0793003 1.00478)
(1.03933 0.00692313 0.0250362 -0.0111993 0.948878 -0.022235 0.0292982 0.0678976 1.01183)
(1.04779 0.0136207 0.0172344 -0.0220195 0.935947 -0.0272242 0.0389239 0.0478725 1.01747)
(1.05293 0.0209284 0.011178 -0.0322602 0.930224 -0.0353817 0.0467639 0.0226315 1.01873)
(1.05434 0.0289135 0.00733103 -0.0415922 0.933373 -0.0436332 0.0533843 -0.00321629 1.01428)
(1.05185 0.0368628 0.00614148 -0.0498167 0.944821 -0.0483694 0.0593384 -0.0247943 1.0048)
(1.04556 0.0432699 0.00754633 -0.056802 0.961774 -0.0464548 0.0649592 -0.0379187 0.993061)
(1.03589 0.046183 0.0104268 -0.0623702 0.979624 -0.0363194 0.0702126 -0.0401178 0.983477)
(1.0236 0.043991 0.0121777 -0.0661956 0.993008 -0.0190962 0.0746508 -0.0316665 0.981017)
(1.00991 0.0367267 0.0087903 -0.0677965 0.997781 0.000622269 0.0774876 -0.0161594 0.988919)
(0.996669 0.0273662 -0.00369381 -0.066685 0.993556 0.0154682 0.0777887 0.000567764 1.00555)
(0.986308 0.0209133 -0.0257646 -0.0626028 0.985298 0.0182589 0.0747148 0.0137914 1.02323)
(0.992023 0.0052879 -0.0488336 -0.0490857 0.970565 0.000159674 0.0623956 0.0257256 1.0332)
(0.992345 0.0133264 -0.0658197 -0.0400071 0.972649 -0.0173303 0.0550553 0.0266227 1.02922)
(0.994702 0.0208095 -0.0687406 -0.0316787 0.983482 -0.0300532 0.0457515 0.0345798 1.01564)
(0.999016 0.0221015 -0.0606779 -0.0241047 0.993222 -0.032128 0.0343173 0.0497025 1.00251)
(1.00503 0.0173177 -0.0484106 -0.0168912 0.994671 -0.025512 0.0212135 0.0665609 0.996841)
(1.01221 0.00942256 -0.036638 -0.00953912 0.985726 -0.0162514 0.00727604 0.0783329 1.00071)
(1.01971 0.0011318 -0.0268856 -0.00171427 0.969125 -0.0105124 -0.00663294 0.0797419 1.01176)
(1.02656 -0.00643406 -0.0188309 0.0066826 0.950526 -0.0119531 -0.019848 0.0687767 1.02501)
(1.03182 -0.0135606 -0.0118978 0.0155583 0.93609 -0.0207912 -0.0319827 0.0470695 1.03505)
(1.03473 -0.021009 -0.00613391 0.0247097 0.930474 -0.0342602 -0.0428994 0.0191616 1.03785)
(1.03483 -0.0290679 -0.0022506 0.0338884 0.935639 -0.0478244 -0.0526009 -0.00881703 1.03185)
(1.032 -0.0369929 -0.00111372 0.0428124 0.950473 -0.0566103 -0.0610788 -0.030607 1.01837)
(1.02654 -0.0429453 -0.00301899 0.0511107 0.97102 -0.0567735 -0.0681677 -0.0412201 1.00134)
(1.01907 -0.0444328 -0.00697542 0.0582243 0.99126 -0.0467398 -0.0734663 -0.0383003 0.986628)
(1.01062 -0.0393502 -0.0101801 0.0633348 1.00456 -0.0282735 -0.0763927 -0.0234131 0.980477)
(1.00253 -0.0277729 -0.00817703 0.065431 1.00609 -0.00698385 -0.0764279 -0.00262339 0.986836)
(0.996313 -0.0138029 0.00329268 0.0636364 0.995786 0.00875862 -0.0735335 0.0153295 1.00388)
(0.993127 -0.00465828 0.0245186 0.0577772 0.980505 0.011488 -0.0685242 0.0244468 1.02274)
(0.992023 -0.0052879 0.0488336 0.0490857 0.970565 0.000159674 -0.0623956 0.0257256 1.0332)
(0.992345 -0.0133264 0.0658197 0.0400071 0.972649 -0.0173303 -0.0550553 0.0266227 1.02922)
(0.994702 -0.0208095 0.0687406 0.0316787 0.983482 -0.0300532 -0.0457515 0.0345798 1.01564)
(0.999016 -0.0221015 0.0606779 0.0241047 0.993222 -0.032128 -0.0343173 0.0497025 1.00251)
(1.00503 -0.0173177 0.0484106 0.0168912 0.994671 -0.025512 -0.0212135 0.0665609 0.996841)
(1.01221 -0.00942256 0.036638 0.00953912 0.985726 -0.0162514 -0.00727604 0.0783329 1.00071)
(1.01971 -0.0011318 0.0268856 0.00171427 0.969125 -0.0105124 0.00663294 0.0797419 1.01176)
(1.02656 0.00643406 0.0188309 -0.0066826 0.950526 -0.0119531 0.019848 0.0687767 1.02501)
(1.03182 0.0135606 0.0118978 -0.0155583 0.93609 -0.0207912 0.0319827 0.0470695 1.03505)
(1.03473 0.021009 0.00613391 -0.0247097 0.930474 -0.0342602 0.0428994 0.0191616 1.03785)
(1.03483 0.0290679 0.0022506 -0.0338884 0.935639 -0.0478244 0.0526009 -0.00881703 1.03185)
(1.032 0.0369929 0.00111372 -0.0428124 0.950473 -0.0566103 0.0610788 -0.030607 1.01837)
(1.02654 0.0429453 0.00301899 -0.0511107 0.97102 -0.0567735 0.0681677 -0.0412201 1.00134)
(1.01907 0.0444328 0.00697542 -0.0582243 0.99126 -0.0467398 0.0734663 -0.0383003 0.986628)
(1.01062 0.0393502 0.0101801 -0.0633348 1.00456 -0.0282735 0.0763927 -0.0234131 0.980477)
(1.00253 0.0277729 0.00817703 -0.065431 1.00609 -0.00698385 0.0764279 -0.00262339 0.986836)
(0.996313 0.0138029 -0.00329268 -0.0636364 0.995786 0.00875862 0.0735335 0.0153295 1.00388)
(0.993127 0.00465828 -0.0245186 -0.0577772 0.980505 0.011488 0.0685242 0.0244468 1.02274)
(0.966394 0.0497124 -0.087248 -0.0706755 0.982152 -0.0246992 0.0516847 0.0387639 1.04232)
(0.9684 0.0319809 -0.107592 -0.0578542 0.985184 -0.0428012 0.0408863 0.0631377 1.03738)
(0.979338 0.0143814 -0.10961 -0.0430437 0.987327 -0.0534528 0.0284245 0.0853148 1.02492)
(0.995844 -0.00268618 -0.0990386 -0.028182 0.984652 -0.0559725 0.0152398 0.103439 1.01248)
(1.01537 -0.0196737 -0.0824811 -0.013952 0.974927 -0.053041 0.00221852 0.114773 1.00479)
(1.0357 -0.0362172 -0.0653773 -0.000404764 0.959067 -0.0485065 -0.00986076 0.116624 1.00287)
(1.05487 -0.0516395 -0.0509469 0.0125099 0.940327 -0.045598 -0.020391 0.107533 1.00517)
(1.07121 -0.0655379 -0.0404279 0.024706 0.922912 -0.046058 -0.0290527 0.0879523 1.00887)
(1.08348 -0.0779031 -0.0338824 0.0359594 0.910733 -0.0498804 -0.0358794 0.060229 1.01103)
(1.09087 -0.0888413 -0.0308976 0.0460103 0.906528 -0.0554889 -0.0412205 0.0281545 1.00946)
(1.09286 -0.0981803 -0.0308709 0.0546679 0.911333 -0.0602366 -0.045614 -0.00366662 1.0034)
(1.08915 -0.105235 -0.0328892 0.061875 0.924214 -0.0611361 -0.0496111 -0.0305207 0.993909)
(1.07962 -0.108886 -0.0353937 0.0677307 0.942267 -0.0558024 -0.0535875 -0.0483598 0.983879)
(1.06441 -0.107997 -0.0358962 0.0724712 0.961047 -0.0435992 -0.0575671 -0.0546534 0.977679)
(1.04413 -0.102021 -0.0310577 0.0763662 0.975738 -0.0267617 -0.061104 -0.0491108 0.979897)
(1.02034 -0.0914913 -0.0173974 0.0794313 0.983131 -0.0107653 -0.0633165 -0.0337409 0.992989)
(0.996071 -0.0780439 0.00753401 0.0809036 0.983581 -0.00274991 -0.0631492 -0.0117006 1.01424)
(0.976245 -0.0645101 0.0442685 0.0787636 0.981753 -0.00752559 -0.0596018 0.0133552 1.03397)
(0.966394 -0.0497124 0.087248 0.0706755 0.982152 -0.0246992 -0.0516847 0.0387639 1.04232)
(0.9684 -0.0319809 0.107592 0.0578542 0.985184 -0.0428012 -0.0408863 0.0631377 1.03738)
(0.979338 -0.0143814 0.10961 0.0430437 0.987327 -0.0534528 -0.0284245 0.0853148 1.02492)
(0.995844 0.00268618 0.0990386 0.028182 0.984652 -0.0559725 -0.0152398 0.103439 1.01248)
(1.01537 0.0196737 0.0824811 0.013952 0.974927 -0.053041 -0.00221852 0.114773 1.00479)
(1.0357 0.0362172 0.0653773 0.000404763 0.959067 -0.0485065 0.00986076 0.116624 1.00287)
(1.05487 0.0516395 0.0509469 -0.0125099 0.940327 -0.045598 0.020391 0.107533 1.00517)
(1.07121 0.0655379 0.0404279 -0.024706 0.922912 -0.046058 0.0290527 0.0879523 1.00887)
(1.08348 0.0779031 0.0338824 -0.0359594 0.910733 -0.0498804 0.0358794 0.060229 1.01103)
(1.09087 0.0888413 0.0308976 -0.0460103 0.906528 -0.0554889 0.0412205 0.0281545 1.00946)
(1.09286 0.0981803 0.0308709 -0.0546679 0.911333 -0.0602366 0.045614 -0.00366662 1.0034)
(1.08915 0.105235 0.0328892 -0.061875 0.924214 -0.0611361 0.0496111 -0.0305207 0.993909)
(1.07962 0.108886 0.0353937 -0.0677307 0.942267 -0.0558024 0.0535875 -0.0483598 0.983879)
(1.06441 0.107997 0.0358962 -0.0724712 0.961047 -0.0435992 0.0575671 -0.0546534 0.977679)
(1.04413 0.102021 0.0310577 -0.0763662 0.975738 -0.0267617 0.061104 -0.0491108 0.979897)
(1.02034 0.0914913 0.0173974 -0.0794313 0.983131 -0.0107653 0.0633165 -0.0337409 0.992989)
(0.996071 0.0780439 -0.00753401 -0.0809036 0.983581 -0.00274991 0.0631492 -0.0117006 1.01424)
(0.976245 0.0645101 -0.0442685 -0.0787636 0.981753 -0.00752559 0.0596018 0.0133552 1.03397)
(0.976785 0.0294216 -0.0839818 -0.0556631 0.97067 -0.0278164 0.0515894 0.038356 1.04351)
(0.978182 0.0261197 -0.102835 -0.0468082 0.976269 -0.045855 0.0428076 0.053738 1.03611)
(0.98527 0.0186735 -0.101812 -0.03679 0.984255 -0.0549867 0.0323377 0.0726405 1.02128)
(0.996046 0.00633436 -0.0876643 -0.0264158 0.987269 -0.0543656 0.0205817 0.0927672 1.00844)
(1.00903 -0.0105473 -0.0687939 -0.0159268 0.981262 -0.0475367 0.00817758 0.108822 1.00317)
(1.02288 -0.0295427 -0.0514096 -0.005316 0.966463 -0.0397789 -0.00408964 0.115459 1.0062)
(1.03623 -0.0479809 -0.0383271 0.00540085 0.946616 -0.0355989 -0.015497 0.109411 1.01482)
(1.04785 -0.0642986 -0.0298621 0.016068 0.927175 -0.0373162 -0.0255516 0.090386 1.02458)
(1.05669 -0.0781775 -0.0253073 0.0264053 0.91346 -0.0446193 -0.0340603 0.0610437 1.03103)
(1.062 -0.0898702 -0.0239564 0.0360827 0.90922 -0.0549451 -0.041105 0.0262806 1.03099)
(1.0633 -0.0993652 -0.0253541 0.0447955 0.915785 -0.0643726 -0.0469429 -0.00781929 1.02346)
(1.06039 -0.105877 -0.0289242 0.0523061 0.931753 -0.0687489 -0.0518695 -0.0351221 1.00993)
(1.05331 -0.107879 -0.0333271 0.0584505 0.953117 -0.0649271 -0.0560794 -0.0506059 0.994364)
(1.04238 -0.103697 -0.0359292 0.0631182 0.973941 -0.052097 -0.0595607 -0.0515887 0.982532)
(1.02824 -0.0924717 -0.0327687 0.0662089 0.9879 -0.0330045 -0.0620457 -0.0388927 0.98054)
(1.01205 -0.0751001 -0.019415 0.0675356 0.99089 -0.0143068 -0.0630347 -0.0173378 0.991971)
(0.995845 -0.0545249 0.00707 0.0666379 0.983917 -0.00467528 -0.0618996 0.00561254 1.01407)
(0.982937 -0.0369401 0.0452839 0.0627551 0.974056 -0.00989693 -0.0581368 0.0239801 1.03544)
(0.976785 -0.0294216 0.0839818 0.0556631 0.97067 -0.0278164 -0.0515894 0.038356 1.04351)
(0.978182 -0.0261197 0.102835 0.0468082 0.976269 -0.045855 -0.0428076 0.053738 1.03611)
(0.98527 -0.0186735 0.101812 0.03679 0.984255 -0.0549867 -0.0323377 0.0726405 1.02128)
(0.996046 -0.00633436 0.0876643 0.0264158 0.987269 -0.0543656 -0.0205817 0.0927672 1.00844)
(1.00903 0.0105473 0.0687939 0.0159268 0.981262 -0.0475367 -0.00817758 0.108822 1.00317)
(1.02288 0.0295427 0.0514096 0.005316 0.966463 -0.0397789 0.00408964 0.115459 1.0062)
(1.03623 0.0479809 0.0383271 -0.00540085 0.946616 -0.0355989 0.015497 0.109411 1.01482)
(1.04785 0.0642986 0.0298621 -0.016068 0.927175 -0.0373162 0.0255516 0.090386 1.02458)
(1.05669 0.0781775 0.0253073 -0.0264053 0.91346 -0.0446193 0.0340603 0.0610437 1.03103)
(1.062 0.0898702 0.0239564 -0.0360827 0.90922 -0.0549451 0.041105 0.0262806 1.03099)
(1.0633 0.0993652 0.0253541 -0.0447955 0.915785 -0.0643726 0.0469429 -0.00781929 1.02346)
(1.06039 0.105877 0.0289242 -0.0523061 0.931753 -0.0687489 0.0518695 -0.0351221 1.00993)
(1.05331 0.107879 0.0333271 -0.0584505 0.953117 -0.0649271 0.0560794 -0.0506059 0.994364)
(1.04238 0.103697 0.0359292 -0.0631182 0.973941 -0.052097 0.0595607 -0.0515887 0.982532)
(1.02824 0.0924717 0.0327687 -0.0662089 0.9879 -0.0330045 0.0620457 -0.0388927 0.98054)
(1.01205 0.0751001 0.019415 -0.0675356 0.99089 -0.0143068 0.0630347 -0.0173378 0.991971)
(0.995845 0.0545249 -0.00707 -0.0666379 0.983917 -0.00467528 0.0618996 0.00561254 1.01407)
(0.982937 0.0369401 -0.0452839 -0.0627551 0.974056 -0.00989693 0.0581368 0.0239801 1.03544)
(0.988104 0.0110345 -0.0808847 -0.0441266 0.957619 -0.0311285 0.0515167 0.0366847 1.04553)
(0.988457 0.0195516 -0.0982796 -0.0381276 0.966059 -0.0489729 0.0449341 0.0418887 1.03515)
(0.991384 0.0234445 -0.0935941 -0.0317194 0.98029 -0.0565771 0.036223 0.0571559 1.01736)
(0.99623 0.017018 -0.0748154 -0.0247992 0.989966 -0.0525149 0.0256891 0.0794973 1.00371)
(1.00249 0.000465226 -0.0528118 -0.0172756 0.98869 -0.0411236 0.0139365 0.101093 1.00094)
(1.00965 -0.0214665 -0.0348962 -0.00910973 0.975514 -0.0294123 0.00171851 0.113609 1.00972)
(1.01701 -0.0436171 -0.023429 -0.000347134 0.954551 -0.0236073 -0.0102348 0.111463 1.02596)
(1.02375 -0.0629204 -0.0175627 0.00885334 0.932744 -0.0268924 -0.0213467 0.093307 1.04316)
(1.02903 -0.0786252 -0.0155853 0.0182274 0.917204 -0.0386253 -0.0312507 0.0621254 1.05483)
(1.0322 -0.0911449 -0.0163777 0.027438 0.91298 -0.0549352 -0.0397812 0.0242207 1.05647)
(1.03281 -0.100665 -0.0196355 0.0361116 0.921737 -0.0701686 -0.0469132 -0.0124152 1.04678)
(1.03077 -0.10628 -0.0251817 0.0438586 0.941358 -0.078619 -0.0526755 -0.0398825 1.028)
(1.0263 -0.105976 -0.0319335 0.0502706 0.966322 -0.076232 -0.0570724 -0.0521039 1.0056)
(1.01989 -0.0974326 -0.0370658 0.0549176 0.988827 -0.0621844 -0.0600499 -0.0465215 0.987271)
(1.01222 -0.0794499 -0.0358394 0.0573839 1.00093 -0.0401167 -0.0615172 -0.0256527 0.980917)
(1.00411 -0.0536766 -0.022562 0.0573656 0.997918 -0.0182455 -0.0613868 0.0022583 0.991131)
(0.99654 -0.0263971 0.00651954 0.0547949 0.982025 -0.00690793 -0.0596021 0.025303 1.01465)
(0.990839 -0.0101039 0.0468687 0.0500845 0.964005 -0.012654 -0.0562241 0.0352929 1.03794)
(0.988104 -0.0110345 0.0808847 0.0441266 0.957619 -0.0311285 -0.0515167 0.0366847 1.04553)
(0.988457 -0.0195516 0.0982796 0.0381276 0.966059 -0.0489729 -0.0449341 0.0418887 1.03515)
(0.991384 -0.0234445 0.0935941 0.0317194 0.98029 -0.0565771 -0.036223 0.0571559 1.01736)
(0.99623 -0.017018 0.0748154 0.0247992 0.989966 -0.0525149 -0.0256891 0.0794973 1.00371)
(1.00249 -0.000465226 0.0528118 0.0172756 0.98869 -0.0411236 -0.0139365 0.101093 1.00094)
(1.00965 0.0214665 0.0348962 0.00910973 0.975514 -0.0294123 -0.00171851 0.113609 1.00972)
(1.01701 0.0436171 0.023429 0.000347134 0.954551 -0.0236073 0.0102348 0.111463 1.02596)
(1.02375 0.0629204 0.0175627 -0.00885334 0.932744 -0.0268924 0.0213467 0.093307 1.04316)
(1.02903 0.0786252 0.0155853 -0.0182274 0.917204 -0.0386253 0.0312507 0.0621254 1.05483)
(1.0322 0.0911449 0.0163777 -0.027438 0.91298 -0.0549352 0.0397812 0.0242207 1.05647)
(1.03281 0.100665 0.0196355 -0.0361116 0.921737 -0.0701686 0.0469132 -0.0124152 1.04678)
(1.03077 0.10628 0.0251817 -0.0438586 0.941358 -0.078619 0.0526755 -0.0398825 1.028)
(1.0263 0.105976 0.0319335 -0.0502706 0.966322 -0.076232 0.0570724 -0.0521039 1.0056)
(1.01989 0.0974326 0.0370658 -0.0549176 0.988827 -0.0621844 0.0600499 -0.0465215 0.987271)