/*--------------------------------*- C++ -*----------------------------------*\
| =========                 |                                                 |
| \\      /  F ield         | OpenFOAM: The Open Source CFD Toolbox           |
|  \\    /   O peration     | Version:  2312                                  |
|   \\  /    A nd           | Website:  www.openfoam.com                      |
|    \\/     M anipulation  |                                                 |
\*---------------------------------------------------------------------------*/
FoamFile
{
    version     2.0;
    format      ascii;
    arch        "LSB;label=32;scalar=64";
    class       volScalarField;
    location    "0.1";
    object      sigmaEq;
}
// * * * * * * * * * * * * * * * * * * * * * * * * * * * * * * * * * * * * * //

dimensions      [1 -1 -2 0 0 0 0];

internalField   nonuniform List<scalar> 
1620
(
6286.68
6363.55
6212.72
5975.59
5762.33
5620.28
5556.56
5556.25
5593.17
5637.11
5660.28
5644.19
5586.54
5506.88
5449.5
5479.78
5661.11
5984.28
6286.68
6363.55
6212.72
5975.59
5762.33
5620.28
5556.56
5556.25
5593.17
5637.11
5660.28
5644.19
5586.54
5506.88
5449.5
5479.78
5661.11
5984.28
6003.22
6110.72
6120.01
6078.28
6034.37
6009.85
6006.19
6014.01
6018.55
6004.11
5958.61
5878.05
5769.95
5655.12
5567.49
5549.47
5634.74
5812.86
6003.22
6110.72
6120.01
6078.28
6034.37
6009.85
6006.19
6014.01
6018.55
6004.11
5958.61
5878.05
5769.95
5655.12
5567.49
5549.47
5634.74
5812.86
6122.14
6064.31
6030.48
6061.63
6151.06
6265.75
6366.92
6422.89
6415.87
6344.35
6222.74
6078.75
5948.89
5871.15
5872.59
5951.05
6061.15
6131.89
6122.14
6064.31
6030.48
6061.63
6151.06
6265.75
6366.92
6422.89
6415.87
6344.35
6222.74
6078.75
5948.89
5871.15
5872.59
5951.05
6061.15
6131.89
6109.78
5960.39
5696.81
5521.95
5461.79
5497.7
5599.94
5736.35
5874.4
5982.46
6032.97
6007.85
5905.31
5745.6
5574.77
5466.6
5524.27
5835.27
6109.78
5960.39
5696.81
5521.95
5461.79
5497.7
5599.94
5736.35
5874.4
5982.46
6032.97
6007.85
5905.31
5745.6
5574.77
5466.6
5524.27
5835.27
5795.78
5868.56
5848.88
5878.1
5974.08
6116.04
6279.13
6439.08
6572.34
6657.16
6676.26
6619.68
6486.26
6282.77
6023.5
5740.27
5523.49
5558.33
5795.78
5868.56
5848.88
5878.1
5974.08
6116.04
6279.13
6439.08
6572.34
6657.16
6676.26
6619.68
6486.26
6282.77
6023.5
5740.27
5523.49
5558.33
6162.95
6181.47
6205.25
6272.52
6406.75
6591.08
6781.16
6927.27
6993.06
6965.46
6855.67
6694.16
6522.8
6383.93
6303.21
6268.73
6230.9
6173.8
6162.95
6181.47
6205.25
6272.52
6406.75
6591.08
6781.16
6927.27
6993.06
6965.46
6855.67
6694.16
6522.8
6383.93
6303.21
6268.73
6230.9
6173.8
5841.58
5542.74
5410.41
5417.53
5530.67
5709.05
5914.71
6113.05
6271.43
6360.17
6357.21
6255.36
6070.18
5845.39
5651.33
5571.04
5672.86
5967.46
5841.58
5542.74
5410.41
5417.53
5530.67
5709.05
5914.71
6113.05
6271.43
6360.17
6357.21
6255.36
6070.18
5845.39
5651.33
5571.04
5672.86
5967.46
5709.01
5626.44
5710.37
5872.53
6090.05
6348.52
6626.15
6893.21
7116.52
7264.76
7313.79
7251.17
7079.32
6816.24
6493.66
6153.74
5846.12
5582.17
5709.01
5626.44
5710.37
5872.53
6090.05
6348.52
6626.15
6893.21
7116.52
7264.76
7313.79
7251.17
7079.32
6816.24
6493.66
6153.74
5846.12
5582.17
6537.97
6651.65
6583.76
6487.32
6497.04
6649.57
6902.35
7178.29
7404.11
7533.08
7551.91
7475.62
7336.23
7168.64
6994.1
6803
6547.46
6124.88
6537.97
6651.65
6583.76
6487.32
6497.04
6649.57
6902.35
7178.29
7404.11
7533.08
7551.91
7475.62
7336.23
7168.64
6994.1
6803
6547.46
6124.88
5761.08
5500.58
5415.9
5483.67
5634.32
5817.48
5997.26
6142.76
6224.61
6218.04
6109.8
5906.61
5643.88
5391.2
5244.89
5295.29
5564.7
5866.76
5761.08
5500.58
5415.9
5483.67
5634.32
5817.48
5997.26
6142.76
6224.61
6218.04
6109.8
5906.61
5643.88
5391.2
5244.89
5295.29
5564.7
5866.76
5262.42
5432.16
5631.43
5777.67
5925.8
6115.43
6347.75
6592.95
6805
6937.1
6954.39
6843.55
6619.8
6329.35
6041.33
5820.29
5665.72
5438.49
5262.42
5432.16
5631.43
5777.67
5925.8
6115.43
6347.75
6592.95
6805
6937.1
6954.39
6843.55
6619.8
6329.35
6041.33
5820.29
5665.72
5438.49
6109.49
6637.01
6662.91
6401.31
6208.76
6235.09
6471.07
6828.13
7200.58
7503.87
7688.32
7736.5
7652.59
7451.2
7148.28
6754.51
6282.34
5880.83
6109.49
6637.01
6662.91
6401.31
6208.76
6235.09
6471.07
6828.13
7200.58
7503.87
7688.32
7736.5
7652.59
7451.2
7148.28
6754.51
6282.34
5880.83
5467.19
5390.51
5381.73
5455.56
5567.13
5676.41
5758
5793.35
5764.91
5658.08
5469.06
5216.13
4951.39
4763.27
4747.34
4937.68
5243.29
5461.1
5467.19
5390.51
5381.73
5455.56
5567.13
5676.41
5758
5793.35
5764.91
5658.08
5469.06
5216.13
4951.39
4763.27
4747.34
4937.68
5243.29
5461.1
5071.63
5192.35
5343.06
5414.46
5434.53
5472.97
5570.87
5720.26
5873.1
5967.8
5958.21
5834.96
5635.7
5436.34
5309.54
5262.32
5215.91
5113.25
5071.63
5192.35
5343.06
5414.46
5434.53
5472.97
5570.87
5720.26
5873.1
5967.8
5958.21
5834.96
5635.7
5436.34
5309.54
5262.32
5215.91
5113.25
6098
6337.8
6319.73
6045.48
5768.34
5683.7
5846.52
6198.91
6631.01
7037.17
7341.96
7501.48
7495.88
7324.65
7007.96
6594.26
6186.18
5973.13
6098
6337.8
6319.73
6045.48
5768.34
5683.7
5846.52
6198.91
6631.01
7037.17
7341.96
7501.48
7495.88
7324.65
7007.96
6594.26
6186.18
5973.13
5201.92
5210.83
5250.5
5328.03
5403.47
5440.77
5424.61
5354.25
5232.4
5060.27
4843.52
4607.04
4409.4
4334.11
4436.42
4682.92
4958.5
5142.54
5201.92
5210.83
5250.5
5328.03
5403.47
5440.77
5424.61
5354.25
5232.4
5060.27
4843.52
4607.04
4409.4
4334.11
4436.42
4682.92
4958.5
5142.54
4803.24
4873.41
4953.39
4959.46
4889.2
4804.05
4773
4824.78
4926.56
5007.14
5007.6
4922.42
4808.22
4746.01
4768.86
4827.07
4843.86
4809.79
4803.24
4873.41
4953.39
4959.46
4889.2
4804.05
4773
4824.78
4926.56
5007.14
5007.6
4922.42
4808.22
4746.01
4768.86
4827.07
4843.86
4809.79
6043.01
6086.13
5983.29
5718.2
5436.31
5295.55
5380.41
5677.15
6099.17
6541.32
6917.42
7167.99
7255.65
7165.56
6915.63
6568.97
6236.35
6046.41
6043.01
6086.13
5983.29
5718.2
5436.31
5295.55
5380.41
5677.15
6099.17
6541.32
6917.42
7167.99
7255.65
7165.56
6915.63
6568.97
6236.35
6046.41
4976.45
5017.44
5071.41
5143
5197.14
5196.26
5124.68
4990.64
4813.93
4612.74
4403.03
4212.83
4094.39
4105.48
4259.23
4499.4
4735.46
4897.92
4976.45
5017.44
5071.41
5143
5197.14
5196.26
5124.68
4990.64
4813.93
4612.74
4403.03
4212.83
4094.39
4105.48
4259.23
4499.4
4735.46
4897.92
4478.47
4511.6
4541.3
4508.67
4398.33
4252.01
4142.98
4127.42
4195.62
4276.6
4302.47
4268.31
4234.55
4265.16
4357.99
4450.61
4489.29
4480.67
4478.47
4511.6
4541.3
4508.67
4398.33
4252.01
4142.98
4127.42
4195.62
4276.6
4302.47
4268.31
4234.55
4265.16
4357.99
4450.61
4489.29
4480.67
5955.9
5895.72
5755.01
5515.84
5261.72
5106.11
5133.14
5361.01
5736.95
6171.39
6576.71
6882.96
7038.82
7017.41
6831.42
6542.79
6249.84
6046.33
5955.9
5895.72
5755.01
5515.84
5261.72
5106.11
5133.14
5361.01
5736.95
6171.39
6576.71
6882.96
7038.82
7017.41
6831.42
6542.79
6249.84
6046.33
4777.1
4821.51
4868.74
4925.33
4964.54
4951
4865.7
4715.46
4525.63
4325.05
4139.07
3997.06
3938.16
3992.78
4151.45
4361.86
4559.4
4699.74
4777.1
4821.51
4868.74
4925.33
4964.54
4951
4865.7
4715.46
4525.63
4325.05
4139.07
3997.06
3938.16
3992.78
4151.45
4361.86
4559.4
4699.74
4127.94
4136.66
4138.35
4091.61
3977.6
3821
3683.71
3629.1
3668
3744.42
3793.42
3805.82
3828.34
3901.47
4009.17
4099.42
4137.93
4134.95
4127.94
4136.66
4138.35
4091.61
3977.6
3821
3683.71
3629.1
3668
3744.42
3793.42
3805.82
3828.34
3901.47
4009.17
4099.42
4137.93
4134.95
5871.77
5774.32
5636.24
5436.34
5221.21
5070.87
5059.15
5221.04
5534
5930.23
6327.45
6650
6837.51
6856.04
6714.35
6469.13
6205.81
5999.54
5871.77
5774.32
5636.24
5436.34
5221.21
5070.87
5059.15
5221.04
5534
5930.23
6327.45
6650
6837.51
6856.04
6714.35
6469.13
6205.81
5999.54
4586.64
4621.5
4652.77
4689.72
4715.44
4701.15
4627.11
4494.76
4325.38
4149.06
3995.39
3892.91
3868.33
3934.02
4073.67
4246.23
4405.89
4521.26
4586.64
4621.5
4652.77
4689.72
4715.44
4701.15
4627.11
4494.76
4325.38
4149.06
3995.39
3892.91
3868.33
3934.02
4073.67
4246.23
4405.89
4521.26
3772.09
3766.16
3755.03
3710.66
3615.24
3480.34
3349.41
3276.88
3286.11
3346.28
3407.33
3453.5
3508.5
3592.03
3688.04
3760.91
3790.11
3785.09
3772.09
3766.16
3755.03
3710.66
3615.24
3480.34
3349.41
3276.88
3286.11
3346.28
3407.33
3453.5
3508.5
3592.03
3688.04
3760.91
3790.11
3785.09
5811.73
5714.28
5600.72
5446.71
5274.31
5138.65
5101.63
5204.94
5447.85
5784.71
6143.95
6450.11
6639.64
6676.59
6567.39
6361.88
6132.69
5942.06
5811.73
5714.28
5600.72
5446.71
5274.31
5138.65
5101.63
5204.94
5447.85
5784.71
6143.95
6450.11
6639.64
6676.59
6567.39
6361.88
6132.69
5942.06
4393.79
4415.73
4430.68
4449.2
4463.3
4453.01
4401.07
4304.24
4175.67
4039.44
3922.66
3850.23
3840.33
3897.1
4005.6
4136.37
4257.2
4344.98
4393.79
4415.73
4430.68
4449.2
4463.3
4453.01
4401.07
4304.24
4175.67
4039.44
3922.66
3850.23
3840.33
3897.1
4005.6
4136.37
4257.2
4344.98
3417.34
3403.46
3388.73
3355.94
3290.35
3193.94
3091.1
3019.52
3005.31
3041.45
3098.89
3159.24
3225.45
3301.73
3375.97
3427.21
3444.41
3435.06
3417.34
3403.46
3388.73
3355.94
3290.35
3193.94
3091.1
3019.52
3005.31
3041.45
3098.89
3159.24
3225.45
3301.73
3375.97
3427.21
3444.41
3435.06
5778.17
5695.03
5611.39
5502.82
5374.5
5261.1
5211.42
5266.93
5440.35
5705.33
6004.88
6270.56
6442.31
6486.3
6406.82
6244.19
6056.58
5894.15
5778.17
5695.03
5611.39
5502.82
5374.5
5261.1
5211.42
5266.93
5440.35
5705.33
6004.88
6270.56
6442.31
6486.3
6406.82
6244.19
6056.58
5894.15
4202.01
4212.63
4216.6
4223.42
4231.06
4227.75
4200.49
4143.59
4062.56
3972.65
3893.79
3844.81
3838.09
3875.44
3946.72
4033.01
4113.17
4171.2
4202.01
4212.63
4216.6
4223.42
4231.06
4227.75
4200.49
4143.59
4062.56
3972.65
3893.79
3844.81
3838.09
3875.44
3946.72
4033.01
4113.17
4171.2
3055.99
3038.67
3025.64
3008.27
2975.56
2923.36
2860.3
2806.53
2782.73
2795.74
2835.92
2889.36
2948.09
3006.77
3056.36
3086.03
3090.99
3076.84
3055.99
3038.67
3025.64
3008.27
2975.56
2923.36
2860.3
2806.53
2782.73
2795.74
2835.92
2889.36
2948.09
3006.77
3056.36
3086.03
3090.99
3076.84
5752.22
5684.15
5624.77
5554.32
5468.57
5385.18
5337.8
5361.22
5473.28
5662.27
5888.02
6096.05
6236.69
6281.62
6232.3
6116.79
5976.45
5848.5
5752.22
5684.15
5624.77
5554.32
5468.57
5385.18
5337.8
5361.22
5473.28
5662.27
5888.02
6096.05
6236.69
6281.62
6232.3
6116.79
5976.45
5848.5
4037.06
4040.19
4041.49
4047.1
4056.68
4063.41
4058.27
4035.61
3996.6
3949.31
3905.56
3876.5
3869.09
3884.36
3917.35
3958.58
3997.01
4024.06
4037.06
4040.19
4041.49
4047.1
4056.68
4063.41
4058.27
4035.61
3996.6
3949.31
3905.56
3876.5
3869.09
3884.36
3917.35
3958.58
3997.01
4024.06
2669.47
2652.21
2643.63
2641.02
2637.19
2625.33
2604.07
2579.65
2563.09
2563.41
2582.08
2613.57
2649.93
2683.58
2707.65
2716.96
2710.21
2691.6
2669.47
2652.21
2643.63
2641.02
2637.19
2625.33
2604.07
2579.65
2563.09
2563.41
2582.08
2613.57
2649.93
2683.58
2707.65
2716.96
2710.21
2691.6
5678.65
5622.49
5578.05
5534.21
5484.98
5436.19
5405.52
5415.19
5480.1
5597.41
5744.04
5884.63
5985.27
6025.62
6004.19
5935.91
5844.63
5753.79
5678.65
5622.49
5578.05
5534.21
5484.98
5436.19
5405.52
5415.19
5480.1
5597.41
5744.04
5884.63
5985.27
6025.62
6004.19
5935.91
5844.63
5753.79
3938.04
3938.44
3945.7
3961.06
3981.49
4000.39
4010.64
4008.47
3995.58
3977.93
3961.89
3950.99
3945.33
3943.37
3943.43
3943.87
3943.18
3940.77
3938.04
3938.44
3945.7
3961.06
3981.49
4000.39
4010.64
4008.47
3995.58
3977.93
3961.89
3950.99
3945.33
3943.37
3943.43
3943.87
3943.18
3940.77
2267.67
2254.92
2252.27
2259.49
2272.74
2286.7
2297.41
2304.05
2308.63
2313.8
2320.8
2328.72
2335.31
2338.05
2334.86
2324.55
2307.66
2287.05
2267.67
2254.92
2252.27
2259.49
2272.74
2286.7
2297.41
2304.05
2308.63
2313.8
2320.8
2328.72
2335.31
2338.05
2334.86
2324.55
2307.66
2287.05
5422.69
5379.08
5345.21
5318.83
5297.29
5280.75
5273.91
5284.43
5318.75
5377.06
5450.74
5524.34
5581.37
5610.34
5607.74
5577.79
5529.79
5474.87
5422.69
5379.08
5345.21
5318.83
5297.29
5280.75
5273.91
5284.43
5318.75
5377.06
5450.74
5524.34
5581.37
5610.34
5607.74
5577.79
5529.79
5474.87
3918.17
3919.06
3935.38
3963.67
3996.05
4022.53
4035.37
4033.76
4024.74
4018.42
4020.46
4028.17
4033.37
4028.51
4011.26
3984.93
3956.1
3931.85
3918.17
3919.06
3935.38
3963.67
3996.05
4022.53
4035.37
4033.76
4024.74
4018.42
4020.46
4028.17
4033.37
4028.51
4011.26
3984.93
3956.1
3931.85
2010.04
2007.77
2011.46
2019.58
2030.76
2044.72
2062.59
2085.62
2112.64
2138.51
2155.63
2157.96
2144.34
2118.93
2088.57
2059.58
2035.91
2019.28
2010.04
2007.77
2011.46
2019.58
2030.76
2044.72
2062.59
2085.62
2112.64
2138.51
2155.63
2157.96
2144.34
2118.93
2088.57
2059.58
2035.91
2019.28
4770.73
4746.12
4727.51
4717.51
4716.79
4724.07
4736.85
4752.24
4768.2
4784.02
4799.9
4815.74
4830.19
4840.49
4843.41
4836.8
4820.58
4797.16
4770.73
4746.12
4727.51
4717.51
4716.79
4724.07
4736.85
4752.24
4768.2
4784.02
4799.9
4815.74
4830.19
4840.49
4843.41
4836.8
4820.58
4797.16
3996.3
3992.04
4004.29
4026.06
4045.68
4050.97
4036.94
4011.53
3992.45
3995.57
4024.42
4068.35
4109.24
4130.54
4124.53
4095.13
4055.02
4018.65
3996.3
3992.04
4004.29
4026.06
4045.68
4050.97
4036.94
4011.53
3992.45
3995.57
4024.42
4068.35
4109.24
4130.54
4124.53
4095.13
4055.02
4018.65
2100.67
2095.28
2089.95
2082.11
2072.69
2066.31
2069.92
2089.54
2125.96
2172.29
2216.13
2244.84
2250.58
2233.25
2200.1
2162.66
2131.29
2111.05
2100.67
2095.28
2089.95
2082.11
2072.69
2066.31
2069.92
2089.54
2125.96
2172.29
2216.13
2244.84
2250.58
2233.25
2200.1
2162.66
2131.29
2111.05
3590.81
3591.67
3597.77
3612.32
3636.59
3668.05
3700.35
3725.26
3736.03
3729.96
3709.21
3679.87
3649.44
3624.35
3607.62
3598.63
3594.43
3592.17
3590.81
3591.67
3597.77
3612.32
3636.59
3668.05
3700.35
3725.26
3736.03
3729.96
3709.21
3679.87
3649.44
3624.35
3607.62
3598.63
3594.43
3592.17
)
;

boundaryField
{
    fixed
    {
        type            calculated;
        value           nonuniform List<scalar> 
108
(
6263.78
6344.61
6226.18
6002.38
5776.31
5607.47
5514.83
5490.85
5513.17
5553.36
5584.46
5588.25
5561.92
5522.85
5509.01
5570.6
5745.83
6014.82
6263.78
6344.61
6226.18
6002.38
5776.31
5607.47
5514.83
5490.85
5513.17
5553.36
5584.46
5588.25
5561.92
5522.85
5509.01
5570.6
5745.83
6014.82
5980.89
6079.37
6111.77
6083.59
6024.51
5961.21
5907.9
5866.92
5832.39
5794.97
5746.94
5686.92
5622.83
5571.96
5557.27
5598.56
5699.56
5840.15
5980.89
6079.37
6111.77
6083.59
6024.51
5961.21
5907.9
5866.92
5832.39
5794.97
5746.94
5686.92
5622.83
5571.96
5557.27
5598.56
5699.56
5840.15
6118.7
6055.88
6023.2
6058.06
6145.13
6244.69
6316.7
6333.52
6284.71
6177.23
6033.27
5886.44
5776.25
5738.99
5792.89
5919.74
6058.34
6134.6
6118.7
6055.88
6023.2
6058.06
6145.13
6244.69
6316.7
6333.52
6284.71
6177.23
6033.27
5886.44
5776.25
5738.99
5792.89
5919.74
6058.34
6134.6
)
;
    }
    inside
    {
        type            calculated;
        value           nonuniform List<scalar> 
540
(
6288.63
6195.88
6083.53
6034.59
6078.71
6194.44
6333.69
6445.13
6490.73
6454.83
6346.33
6195.34
6046.31
5948.55
5941.45
6031.87
6174.24
6283.04
6288.63
6195.88
6083.53
6034.59
6078.71
6194.44
6333.69
6445.13
6490.73
6454.83
6346.33
6195.34
6046.31
5948.55
5941.45
6031.87
6174.24
6283.04
6580.79
6480.98
6351.86
6293.38
6359.89
6539.65
6771.04
6975.11
7085.72
7068.73
6928.33
6702.59
6454.51
6260.78
6191.68
6273.62
6445.95
6573.49
6580.79
6480.98
6351.86
6293.38
6359.89
6539.65
6771.04
6975.11
7085.72
7068.73
6928.33
6702.59
6454.51
6260.78
6191.68
6273.62
6445.95
6573.49
6935.82
6972.05
6745.25
6532.71
6506.1
6686.92
7000.72
7336.2
7589.08
7691.15
7624.04
7417.89
7139.53
6874.6
6701.02
6651.03
6672.95
6611.7
6935.82
6972.05
6745.25
6532.71
6506.1
6686.92
7000.72
7336.2
7589.08
7691.15
7624.04
7417.89
7139.53
6874.6
6701.02
6651.03
6672.95
6611.7
6815.43
7079.84
6861.06
6528.33
6395.45
6539.08
6894.58
7338.52
7741.53
8002.49
8068.85
7942.46
7670.4
7324.1
6972.41
6662.32
6435.87
6430.5
6815.43
7079.84
6861.06
6528.33
6395.45
6539.08
6894.58
7338.52
7741.53
8002.49
8068.85
7942.46
7670.4
7324.1
6972.41
6662.32
6435.87
6430.5
6706.43
6830.33
6672.09
6399.46
6261.98
6371.63
6708.61
7177.12
7653.48
8022.48
8203.48
8165
7926.08
7546.3
7110.46
6717.53
6479.02
6492.47
6706.43
6830.33
6672.09
6399.46
6261.98
6371.63
6708.61
7177.12
7653.48
8022.48
8203.48
8165
7926.08
7546.3
7110.46
6717.53
6479.02
6492.47
6653.06
6678.85
6550.28
6358.14
6260.79
6352.12
6640.69
7069.97
7543.75
7953.77
8207.26
8248.58
8071.45
7721.84
7290.34
6892.16
6636.12
6578.33
6653.06
6678.85
6550.28
6358.14
6260.79
6352.12
6640.69
7069.97
7543.75
7953.77
8207.26
8248.58
8071.45
7721.84
7290.34
6892.16
6636.12
6578.33
6664.7
6648.85
6554.97
6429.69
6372.09
6452.58
6690.3
7057.72
7488.93
7893.96
8180.88
8279.8
8163.47
7861.19
7457.69
7067.42
6791.36
6673.22
6664.7
6648.85
6554.97
6429.69
6372.09
6452.58
6690.3
7057.72
7488.93
7893.96
8180.88
8279.8
8163.47
7861.19
7457.69
7067.42
6791.36
6673.22
6742.12
6721.03
6663.78
6587.16
6553.8
6618.99
6807.28
7109.43
7482.98
7857.17
8147.23
8276.91
8204.7
7946.2
7577.53
7207.16
6929.24
6784.62
6742.12
6721.03
6663.78
6587.16
6553.8
6618.99
6807.28
7109.43
7482.98
7857.17
8147.23
8276.91
8204.7
7946.2
7577.53
7207.16
6929.24
6784.62
6876.64
6866.55
6842.9
6801.45
6779.4
6822.36
6960.3
7197.69
7509.06
7839
8111.33
8249.63
8206.23
7988.43
7662.94
7327.91
7068.76
6924.54
6876.64
6866.55
6842.9
6801.45
6779.4
6822.36
6960.3
7197.69
7509.06
7839
8111.33
8249.63
8206.23
7988.43
7662.94
7327.91
7068.76
6924.54
7055.32
7056.78
7059.2
7044.83
7030.48
7051.89
7142.56
7318.05
7566.02
7843.2
8082.56
8213.28
8189.34
8013.88
7742.11
7456.57
7230.26
7099.37
7055.32
7056.78
7059.2
7044.83
7030.48
7051.89
7142.56
7318.05
7566.02
7843.2
8082.56
8213.28
8189.34
8013.88
7742.11
7456.57
7230.26
7099.37
7265.96
7269.99
7286.16
7291.92
7288.81
7300.03
7356.32
7478.63
7664.28
7881.21
8074.26
8184.22
8172.98
8042.11
7832.87
7607.26
7421.84
7308.11
7265.96
7269.99
7286.16
7291.92
7288.81
7300.03
7356.32
7478.63
7664.28
7881.21
8074.26
8184.22
8172.98
8042.11
7832.87
7607.26
7421.84
7308.11
7498.47
7494.68
7510.66
7527.91
7540.19
7557.29
7599.1
7683.01
7810.85
7962.08
8097.9
8176.33
8171.02
8082.94
7938.53
7777.42
7637.28
7542.36
7498.47
7494.68
7510.66
7527.91
7540.19
7557.29
7599.1
7683.01
7810.85
7962.08
8097.9
8176.33
8171.02
8082.94
7938.53
7777.42
7637.28
7542.36
7741.02
7726.54
7734.95
7756.57
7784.33
7817.32
7860.62
7920.61
7998.26
8084.15
8159.11
8201.44
8196.89
8144.92
8058.02
7956.11
7859.87
7785.39
7741.02
7726.54
7734.95
7756.57
7784.33
7817.32
7860.62
7920.61
7998.26
8084.15
8159.11
8201.44
8196.89
8144.92
8058.02
7956.11
7859.87
7785.39
8027.82
8011.47
8017.28
8042.36
8080.05
8121.94
8160.65
8192.2
8216.64
8236.26
8252.3
8262.72
8262.71
8247.33
8214.68
8167.76
8114.23
8064.32
8027.82
8011.47
8017.28
8042.36
8080.05
8121.94
8160.65
8192.2
8216.64
8236.26
8252.3
8262.72
8262.71
8247.33
8214.68
8167.76
8114.23
8064.32
8276.12
8269.68
8285.43
8321.97
8369.15
8411.3
8433.5
8428.78
8401.39
8364.52
8333.46
8318.68
8321.28
8333.42
8343.03
8340.48
8323.3
8297.93
8276.12
8269.68
8285.43
8321.97
8369.15
8411.3
8433.5
8428.78
8401.39
8364.52
8333.46
8318.68
8321.28
8333.42
8343.03
8340.48
8323.3
8297.93
)
;
    }
    outside
    {
        type            calculated;
        value           nonuniform List<scalar> 
540
(
6448.24
6486.42
6309.5
6051.76
5818.62
5658.06
5577.6
5561.91
5585.15
5619.31
5640.63
5635.39
5605.09
5570.13
5569.99
5656.33
5870.13
6184.4
6448.24
6486.42
6309.5
6051.76
5818.62
5658.06
5577.6
5561.91
5585.15
5619.31
5640.63
5635.39
5605.09
5570.13
5569.99
5656.33
5870.13
6184.4
6361.99
6209.23
5931.41
5706.46
5576.98
5538.33
5567.39
5635.42
5713.37
5774.41
5796.86
5768.88
5694.48
5599.39
5533.44
5564.63
5758.7
6118.86
6361.99
6209.23
5931.41
5706.46
5576.98
5538.33
5567.39
5635.42
5713.37
5774.41
5796.86
5768.88
5694.48
5599.39
5533.44
5564.63
5758.7
6118.86
6236.66
5968.89
5756.83
5645.99
5634.43
5689
5773.45
5857.45
5916.38
5930.65
5887.71
5787.2
5647.97
5514.27
5454.67
5545.06
5831.57
6275.76
6236.66
5968.89
5756.83
5645.99
5634.43
5689
5773.45
5857.45
5916.38
5930.65
5887.71
5787.2
5647.97
5514.27
5454.67
5545.06
5831.57
6275.76
6271.89
6011.02
5839.56
5796.54
5835.06
5903.28
5963.31
5990.44
5968.54
5888.41
5749.85
5566.83
5374.44
5233.76
5224.93
5418.84
5825.98
6266.64
6271.89
6011.02
5839.56
5796.54
5835.06
5903.28
5963.31
5990.44
5968.54
5888.41
5749.85
5566.83
5374.44
5233.76
5224.93
5418.84
5825.98
6266.64
6084.2
6006.85
5941.22
5948.33
5998.14
6041.93
6045.04
5990.67
5874.67
5701.67
5485.66
5254.59
5056.67
4960.23
5032.85
5297.17
5682.21
6001.27
6084.2
6006.85
5941.22
5948.33
5998.14
6041.93
6045.04
5990.67
5874.67
5701.67
5485.66
5254.59
5056.67
4960.23
5032.85
5297.17
5682.21
6001.27
5951.45
5971.43
5981.46
6027.56
6086.44
6111.49
6069.46
5950.6
5764.09
5530.1
5276.33
5040.79
4875.77
4839.9
4968.38
5238.89
5564.94
5827.56
5951.45
5971.43
5981.46
6027.56
6086.44
6111.49
6069.46
5950.6
5764.09
5530.1
5276.33
5040.79
4875.77
4839.9
4968.38
5238.89
5564.94
5827.56
5875.64
5936.37
5978.13
6037.56
6099
6118.7
6060.63
5915.24
5698.93
5443.17
5185.57
4968.77
4840.82
4843.05
4984.87
5229.65
5506.5
5737.56
5875.64
5936.37
5978.13
6037.56
6099
6118.7
6060.63
5915.24
5698.93
5443.17
5185.57
4968.77
4840.82
4843.05
4984.87
5229.65
5506.5
5737.56
5822.42
5891.56
5935.84
5987.38
6039.69
6057.1
6003.82
5866.49
5659.69
5417.06
5179.6
4990.18
4889.91
4906.34
5037.53
5248.73
5484.9
5688.55
5822.42
5891.56
5935.84
5987.38
6039.69
6057.1
6003.82
5866.49
5659.69
5417.06
5179.6
4990.18
4889.91
4906.34
5037.53
5248.73
5484.9
5688.55
5757.07
5818.9
5852.32
5885.24
5919.42
5930.73
5889.18
5779.15
5608.45
5404.48
5204.44
5047.39
4967.65
4984.9
5094.92
5269.66
5466.24
5639.23
5757.07
5818.9
5852.32
5885.24
5919.42
5930.73
5889.18
5779.15
5608.45
5404.48
5204.44
5047.39
4967.65
4984.9
5094.92
5269.66
5466.24
5639.23
5654.03
5702.76
5723.09
5737.16
5751.78
5754.41
5724.24
5646.95
5523.76
5372.06
5220
5099.24
5037.32
5049.59
5133.39
5268.33
5422
5559.14
5654.03
5702.76
5723.09
5737.16
5751.78
5754.41
5724.24
5646.95
5523.76
5372.06
5220
5099.24
5037.32
5049.59
5133.39
5268.33
5422
5559.14
5497.66
5532.07
5543.12
5545.82
5547.97
5545.23
5525.74
5478.76
5401.81
5303.45
5201.56
5118.31
5073.69
5079.34
5134.7
5226.76
5333.41
5429.91
5497.66
5532.07
5543.12
5545.82
5547.97
5545.23
5525.74
5478.76
5401.81
5303.45
5201.56
5118.31
5073.69
5079.34
5134.7
5226.76
5333.41
5429.91
5283.16
5303.9
5311.85
5314.93
5317.94
5319.17
5311.94
5289.21
5248.28
5193.39
5134.96
5086.07
5058.14
5057.84
5085.3
5133.87
5191.59
5244.78
5283.16
5303.9
5311.85
5314.93
5317.94
5319.17
5311.94
5289.21
5248.28
5193.39
5134.96
5086.07
5058.14
5057.84
5085.3
5133.87
5191.59
5244.78
5022.94
5032.72
5044.47
5060.07
5078.28
5094.18
5101.01
5093.88
5073.12
5044.54
5016.27
4994.51
4981.71
4977.58
4980.79
4989.46
5001
5012.65
5022.94
5032.72
5044.47
5060.07
5078.28
5094.18
5101.01
5093.88
5073.12
5044.54
5016.27
4994.51
4981.71
4977.58
4980.79
4989.46
5001
5012.65
4774.71
4778.48
4797.95
4830.18
4867.13
4897.43
4910.93
4904.45
4884.6
4864.04
4853.02
4852.99
4857.28
4856.97
4846.88
4827.78
4804.89
4785.06
4774.71
4778.48
4797.95
4830.18
4867.13
4897.43
4910.93
4904.45
4884.6
4864.04
4853.02
4852.99
4857.28
4856.97
4846.88
4827.78
4804.89
4785.06
4668.06
4666.57
4685.3
4716.66
4746.74
4759.88
4747.76
4716.83
4686.16
4675.54
4692.98
4730.84
4771.35
4796.01
4794.19
4767.43
4727.68
4690.45
4668.06
4666.57
4685.3
4716.66
4746.74
4759.88
4747.76
4716.83
4686.16
4675.54
4692.98
4730.84
4771.35
4796.01
4794.19
4767.43
4727.68
4690.45
)
;
    }
}


// ************************************************************************* //
