/*--------------------------------*- C++ -*----------------------------------*\
| =========                 |                                                 |
| \\      /  F ield         | OpenFOAM: The Open Source CFD Toolbox           |
|  \\    /   O peration     | Version:  2312                                  |
|   \\  /    A nd           | Website:  www.openfoam.com                      |
|    \\/     M anipulation  |                                                 |
\*---------------------------------------------------------------------------*/
FoamFile
{
    version     2.0;
    format      ascii;
    arch        "LSB;label=32;scalar=64";
    class       volScalarField;
    location    "0.1";
    object      sigmaHyd;
}
// * * * * * * * * * * * * * * * * * * * * * * * * * * * * * * * * * * * * * //

dimensions      [1 -1 -2 0 0 0 0];

internalField   nonuniform List<scalar> 
1620
(
-5967.34
-7706.25
-7815.58
-6619.41
-4671.07
-2457.18
-320.787
1550.76
3081.22
4247.27
5035.48
5418.64
5346.48
4747.62
3547.23
1720.12
-624.563
-3295.6
-5967.34
-7706.25
-7815.58
-6619.41
-4671.07
-2457.18
-320.787
1550.76
3081.22
4247.27
5035.48
5418.64
5346.48
4747.62
3547.23
1720.12
-624.563
-3295.6
-3058.89
-3697.2
-3672.94
-2984.69
-1911.72
-696.795
478.124
1487.15
2251
2724.31
2884.94
2728.14
2265.82
1529.78
579.822
-478.372
-1472.46
-2306.77
-3058.89
-3697.2
-3672.94
-2984.69
-1911.72
-696.795
478.124
1487.15
2251
2724.31
2884.94
2728.14
2265.82
1529.78
579.822
-478.372
-1472.46
-2306.77
269.573
641.461
948.919
1400.03
1982.85
2600.69
3132.98
3461.65
3490.69
3162.96
2475.24
1491.06
351.642
-721.911
-1458.94
-1627.75
-1177.27
-385.232
269.573
641.461
948.919
1400.03
1982.85
2600.69
3132.98
3461.65
3490.69
3162.96
2475.24
1491.06
351.642
-721.911
-1458.94
-1627.75
-1177.27
-385.232
-2446.83
-2645.52
-2503.36
-2267.42
-1874.27
-1394.01
-896.59
-410.553
63.7785
529.662
975.875
1367.33
1642.58
1716.25
1484.52
832.641
-301.139
-1531.58
-2446.83
-2645.52
-2503.36
-2267.42
-1874.27
-1394.01
-896.59
-410.553
63.7785
529.662
975.875
1367.33
1642.58
1716.25
1484.52
832.641
-301.139
-1531.58
-2094.54
-2063.33
-1572.99
-1359.83
-1282.19
-1251.25
-1228.02
-1204.21
-1186.38
-1186.75
-1216.53
-1280.31
-1370.67
-1466.68
-1552.67
-1688.87
-2119.27
-2584.11
-2094.54
-2063.33
-1572.99
-1359.83
-1282.19
-1251.25
-1228.02
-1204.21
-1186.38
-1186.75
-1216.53
-1280.31
-1370.67
-1466.68
-1552.67
-1688.87
-2119.27
-2584.11
-1928.97
-2008.51
-1584.14
-1023.31
-416.084
132.665
531.515
702.718
590.602
171.006
-536.854
-1456.91
-2441.44
-3265.59
-3671.33
-3518.8
-3042.06
-2408.15
-1928.97
-2008.51
-1584.14
-1023.31
-416.084
132.665
531.515
702.718
590.602
171.006
-536.854
-1456.91
-2441.44
-3265.59
-3671.33
-3518.8
-3042.06
-2408.15
-1492.41
-1076.21
-417.501
263.712
866.495
1371.89
1779.92
2114.2
2408.32
2685.41
2943.47
3148.18
3233.33
3109.49
2676.86
1842.46
486.142
-1054.11
-1492.41
-1076.21
-417.501
263.712
866.495
1371.89
1779.92
2114.2
2408.32
2685.41
2943.47
3148.18
3233.33
3109.49
2676.86
1842.46
486.142
-1054.11
-3523.83
-2365.5
-1492.64
-1151.67
-1009.65
-931.821
-863.341
-798.645
-750.526
-735.589
-768.024
-855.364
-994.997
-1175.85
-1396.97
-1698.18
-2254.82
-3388.37
-3523.83
-2365.5
-1492.64
-1151.67
-1009.65
-931.821
-863.341
-798.645
-750.526
-735.589
-768.024
-855.364
-994.997
-1175.85
-1396.97
-1698.18
-2254.82
-3388.37
-4963.25
-4353.95
-3887.14
-3508.05
-2920.7
-2229.22
-1588.5
-1141.15
-990.54
-1193.32
-1749.54
-2591.85
-3577.36
-4492.77
-5099.61
-5236.29
-5028.55
-5017.64
-4963.25
-4353.95
-3887.14
-3508.05
-2920.7
-2229.22
-1588.5
-1141.15
-990.54
-1193.32
-1749.54
-2591.85
-3577.36
-4492.77
-5099.61
-5236.29
-5028.55
-5017.64
-1918.49
-1259.62
-362.911
495.594
1235.77
1804.61
2196.43
2453.41
2633.01
2778.83
2902.81
2978.38
2942.87
2710.61
2196.93
1335.45
6.49192
-1548.13
-1918.49
-1259.62
-362.911
495.594
1235.77
1804.61
2196.43
2453.41
2633.01
2778.83
2902.81
2978.38
2942.87
2710.61
2196.93
1335.45
6.49192
-1548.13
-3274.43
-1865.11
-1358.16
-1245.36
-1194.15
-1101.4
-970.997
-833.516
-722.293
-664.562
-679.917
-780.033
-966.134
-1228.46
-1557.48
-1986.74
-2615.15
-3194.17
-3274.43
-1865.11
-1358.16
-1245.36
-1194.15
-1101.4
-970.997
-833.516
-722.293
-664.562
-679.917
-780.033
-966.134
-1228.46
-1557.48
-1986.74
-2615.15
-3194.17
-2978.12
-2699.4
-3032.93
-3259.88
-3109.43
-2649.47
-2074.05
-1574.56
-1302.62
-1353.57
-1752.67
-2442.15
-3275.24
-4030.56
-4464.48
-4417.65
-3879.81
-3248.46
-2978.12
-2699.4
-3032.93
-3259.88
-3109.43
-2649.47
-2074.05
-1574.56
-1302.62
-1353.57
-1752.67
-2442.15
-3275.24
-4030.56
-4464.48
-4417.65
-3879.81
-3248.46
-2526.31
-2389.87
-1765.81
-895.405
-57.2541
605.18
1054.36
1323.61
1475.29
1564.61
1616.1
1612.8
1496.76
1180.59
573.813
-361.116
-1468.36
-2263.79
-2526.31
-2389.87
-1765.81
-895.405
-57.2541
605.18
1054.36
1323.61
1475.29
1564.61
1616.1
1612.8
1496.76
1180.59
573.813
-361.116
-1468.36
-2263.79
-2035.7
-1885.21
-1757.04
-1660.8
-1568.08
-1424.16
-1230.62
-1026.74
-859.284
-766.637
-776.322
-905.21
-1155.32
-1507.01
-1915.11
-2295.58
-2456.47
-2254.92
-2035.7
-1885.21
-1757.04
-1660.8
-1568.08
-1424.16
-1230.62
-1026.74
-859.284
-766.637
-776.322
-905.21
-1155.32
-1507.01
-1915.11
-2295.58
-2456.47
-2254.92
1103.36
670.497
-208.842
-998.527
-1399.69
-1374.93
-1067.4
-678.168
-393.876
-348.438
-596.956
-1095.94
-1694.11
-2148.8
-2186.26
-1618.75
-496.533
666.499
1103.36
670.497
-208.842
-998.527
-1399.69
-1374.93
-1067.4
-678.168
-393.876
-348.438
-596.956
-1095.94
-1694.11
-2148.8
-2186.26
-1618.75
-496.533
666.499
-3448.08
-3392.35
-3021.82
-2406.08
-1702.24
-1065.93
-584.993
-270.731
-87.3038
10.3487
46.9513
10.8588
-146.367
-490.105
-1059.74
-1810.82
-2584.48
-3174.04
-3448.08
-3392.35
-3021.82
-2406.08
-1702.24
-1065.93
-584.993
-270.731
-87.3038
10.3487
46.9513
10.8588
-146.367
-490.105
-1059.74
-1810.82
-2584.48
-3174.04
-2109.3
-1919.51
-1819.52
-1767.31
-1694.4
-1557.23
-1360.49
-1145.26
-965.071
-867.947
-888.627
-1043.77
-1323.78
-1683.89
-2045.01
-2308.74
-2392.63
-2299.8
-2109.3
-1919.51
-1819.52
-1767.31
-1694.4
-1557.23
-1360.49
-1145.26
-965.071
-867.947
-888.627
-1043.77
-1323.78
-1683.89
-2045.01
-2308.74
-2392.63
-2299.8
3806.31
3497.35
2646.2
1672.11
942.353
614.504
644.532
874.064
1114.26
1208.08
1077.88
758.837
406.982
262.628
550.897
1340.96
2435.98
3398.7
3806.31
3497.35
2646.2
1672.11
942.353
614.504
644.532
874.064
1114.26
1208.08
1077.88
758.837
406.982
262.628
550.897
1340.96
2435.98
3398.7
-4275.34
-4302.68
-4106.22
-3708.29
-3181.53
-2631.81
-2151.69
-1788.7
-1546
-1405.23
-1353.71
-1401.82
-1581.62
-1923.77
-2422.41
-3012.85
-3585.23
-4028.95
-4275.34
-4302.68
-4106.22
-3708.29
-3181.53
-2631.81
-2151.69
-1788.7
-1546
-1405.23
-1353.71
-1401.82
-1581.62
-1923.77
-2422.41
-3012.85
-3585.23
-4028.95
-2111.71
-1947.86
-1825.17
-1742.98
-1658.19
-1531.56
-1358.62
-1169.59
-1013
-937.41
-978.075
-1145.83
-1418.37
-1740.63
-2038.8
-2244.65
-2317.68
-2258.77
-2111.71
-1947.86
-1825.17
-1742.98
-1658.19
-1531.56
-1358.62
-1169.59
-1013
-937.41
-978.075
-1145.83
-1418.37
-1740.63
-2038.8
-2244.65
-2317.68
-2258.77
6003.83
5738.63
4972.46
3998.21
3139.08
2601.23
2420.31
2496.24
2663.08
2762.85
2710.54
2537.57
2393.13
2484.06
2963.16
3816.92
4828.65
5658.6
6003.83
5738.63
4972.46
3998.21
3139.08
2601.23
2420.31
2496.24
2663.08
2762.85
2710.54
2537.57
2393.13
2484.06
2963.16
3816.92
4828.65
5658.6
-5041.63
-5119.56
-5042.27
-4805.33
-4431.74
-3979.6
-3523.5
-3126.88
-2826.02
-2633.83
-2555.69
-2602.61
-2789.02
-3114.91
-3548.21
-4024.93
-4469.48
-4819.98
-5041.63
-5119.56
-5042.27
-4805.33
-4431.74
-3979.6
-3523.5
-3126.88
-2826.02
-2633.83
-2555.69
-2602.61
-2789.02
-3114.91
-3548.21
-4024.93
-4469.48
-4819.98
-2112.19
-1957.48
-1807.54
-1683.79
-1572.28
-1447.56
-1301.45
-1151.69
-1034.82
-991.048
-1049.07
-1212.77
-1455.4
-1727.69
-1975.29
-2155.26
-2240.49
-2221.15
-2112.19
-1957.48
-1807.54
-1683.79
-1572.28
-1447.56
-1301.45
-1151.69
-1034.82
-991.048
-1049.07
-1212.77
-1455.4
-1727.69
-1975.29
-2155.26
-2240.49
-2221.15
7768.16
7538.43
6857.57
5940.16
5052.35
4401.67
4067.8
4002.57
4077.34
4153
4150.44
4096.64
4119.22
4378.46
4965.74
5824.35
6750.67
7473.95
7768.16
7538.43
6857.57
5940.16
5052.35
4401.67
4067.8
4002.57
4077.34
4153
4150.44
4096.64
4119.22
4378.46
4965.74
5824.35
6750.67
7473.95
-5678.01
-5792
-5804.48
-5695.34
-5456.58
-5109.76
-4705.42
-4307.02
-3970.71
-3735.51
-3624.96
-3652.3
-3818.57
-4104.09
-4465.63
-4846.56
-5194.84
-5476.69
-5678.01
-5792
-5804.48
-5695.34
-5456.58
-5109.76
-4705.42
-4307.02
-3970.71
-3735.51
-3624.96
-3652.3
-3818.57
-4104.09
-4465.63
-4846.56
-5194.84
-5476.69
-2181.62
-2034.3
-1860.56
-1694.25
-1544.3
-1402.99
-1266.73
-1146.36
-1065.75
-1052.13
-1123.64
-1278.71
-1493.58
-1731.06
-1954.06
-2132.9
-2241.68
-2259.18
-2181.62
-2034.3
-1860.56
-1694.25
-1544.3
-1402.99
-1266.73
-1146.36
-1065.75
-1052.13
-1123.64
-1278.71
-1493.58
-1731.06
-1954.06
-2132.9
-2241.68
-2259.18
9155.25
8968.95
8385.63
7565.06
6718.04
6029.03
5594.57
5407.22
5382.18
5413.3
5435.44
5467.29
5605.82
5964.72
6591.96
7415.14
8254.91
8893.04
9155.25
8968.95
8385.63
7565.06
6718.04
6029.03
5594.57
5407.22
5382.18
5413.3
5435.44
5467.29
5605.82
5964.72
6591.96
7415.14
8254.91
8893.04
-6113.11
-6256.33
-6344.89
-6349.4
-6241.84
-6016.03
-5697.92
-5339.9
-5003.85
-4744.27
-4598.66
-4584.1
-4695.51
-4905.77
-5172.44
-5451.16
-5708.88
-5930.15
-6113.11
-6256.33
-6344.89
-6349.4
-6241.84
-6016.03
-5697.92
-5339.9
-5003.85
-4744.27
-4598.66
-4584.1
-4695.51
-4905.77
-5172.44
-5451.16
-5708.88
-5930.15
-2394.07
-2256.21
-2065.09
-1858.31
-1659.51
-1478.98
-1324.73
-1209.63
-1150.19
-1160.73
-1247.28
-1403.08
-1608.56
-1836.72
-2060.73
-2255.11
-2392.18
-2443.49
-2394.07
-2256.21
-2065.09
-1858.31
-1659.51
-1478.98
-1324.73
-1209.63
-1150.19
-1160.73
-1247.28
-1403.08
-1608.56
-1836.72
-2060.73
-2255.11
-2392.18
-2443.49
10167.9
10047.3
9590.19
8911.83
8169.24
7509.95
7027.4
6742.39
6614.93
6579.88
6592.6
6663.76
6857.59
7247.46
7853.24
8604.02
9349.9
9916.56
10167.9
10047.3
9590.19
8911.83
8169.24
7509.95
7027.4
6742.39
6614.93
6579.88
6592.6
6663.76
6857.59
7247.46
7853.24
8604.02
9349.9
9916.56
-6298.58
-6463.1
-6615.6
-6722
-6742.16
-6650.5
-6450.52
-6176.81
-5883.64
-5627.95
-5453.65
-5381.94
-5409.05
-5511.37
-5657.08
-5818.21
-5979.15
-6137.57
-6298.58
-6463.1
-6615.6
-6722
-6742.16
-6650.51
-6450.52
-6176.81
-5883.64
-5627.95
-5453.65
-5381.94
-5409.05
-5511.37
-5657.08
-5818.21
-5979.15
-6137.57
-2808.53
-2684
-2484.14
-2243.26
-1991.86
-1755.17
-1556.61
-1419.05
-1359.55
-1384.55
-1489.26
-1660.37
-1879
-2122.62
-2367.15
-2586.66
-2751.79
-2832.24
-2808.53
-2684
-2484.14
-2243.26
-1991.86
-1755.17
-1556.61
-1419.05
-1359.55
-1384.55
-1489.26
-1660.37
-1879
-2122.62
-2367.15
-2586.66
-2751.79
-2832.24
10820
10792.5
10496.1
10005.6
9424.72
8855.8
8374.28
8016.5
7782.82
7653.79
7613.7
7671.56
7863.56
8227.34
8763.63
9411.34
10054.1
10558.6
10820
10792.5
10496.1
10005.6
9424.72
8855.8
8374.28
8016.5
7782.82
7653.79
7613.7
7671.56
7863.56
8227.34
8763.63
9411.34
10054.1
10558.6
-6212.04
-6377.64
-6567.6
-6747.22
-6873.07
-6909.98
-6845.27
-6693.29
-6490.2
-6281.16
-6105.38
-5984.76
-5920.66
-5901.23
-5912.04
-5944.83
-6000.44
-6086.61
-6212.04
-6377.64
-6567.6
-6747.22
-6873.07
-6909.98
-6845.27
-6693.29
-6490.2
-6281.16
-6105.38
-5984.76
-5920.66
-5901.23
-5912.04
-5944.83
-6000.44
-6086.61
-3472.54
-3363.68
-3165.48
-2904.93
-2612.89
-2323.08
-2071.51
-1892.48
-1809.95
-1831.41
-1948.31
-2142.09
-2389.77
-2665.42
-2941.3
-3187.75
-3375.12
-3475.99
-3472.54
-3363.68
-3165.48
-2904.93
-2612.89
-2323.08
-2071.51
-1892.48
-1809.95
-1831.41
-1948.31
-2142.09
-2389.77
-2665.42
-2941.3
-3187.75
-3375.12
-3475.99
11250.6
11334.6
11217.3
10935.3
10543.4
10098.8
9651.94
9243.06
8903.47
8657.47
8525.38
8526.45
8677.22
8984.89
9432
9967.74
10509
10962.3
11250.6
11334.6
11217.3
10935.3
10543.4
10098.8
9651.94
9243.06
8903.47
8657.47
8525.38
8526.45
8677.22
8984.89
9432
9967.74
10509
10962.3
-5860.12
-5992.98
-6172.64
-6369.9
-6548.66
-6677.08
-6735.97
-6722.15
-6648.13
-6536.06
-6407.85
-6277.29
-6149.78
-6027.55
-5916.66
-5829.47
-5782.21
-5789.45
-5860.12
-5992.98
-6172.64
-6369.9
-6548.66
-6677.08
-6735.97
-6722.15
-6648.13
-6536.06
-6407.85
-6277.29
-6149.78
-6027.55
-5916.66
-5829.47
-5782.21
-5789.45
-4470.33
-4399.15
-4235.96
-3998.35
-3711
-3407.73
-3125.33
-2902.63
-2770.67
-2747.79
-2835.27
-3018.45
-3271.34
-3561.03
-3853.1
-4115.03
-4318.99
-4442.28
-4470.33
-4399.15
-4235.96
-3998.35
-3711
-3407.73
-3125.33
-2902.63
-2770.67
-2747.79
-2835.27
-3018.45
-3271.34
-3561.03
-3853.1
-4115.03
-4318.99
-4442.28
11637.2
11774.3
11792.2
11697.9
11505.9
11233.7
10903.9
10545.6
10197.9
9906.97
9717.91
9662.7
9751.22
9970.85
10290.4
10667.3
11050.1
11387.5
11637.2
11774.3
11792.2
11697.9
11505.9
11233.7
10903.9
10545.6
10197.9
9906.97
9717.91
9662.7
9751.22
9970.85
10290.4
10667.3
11050.1
11387.5
-4764.8
-4749.06
-4825.67
-4982.42
-5205.79
-5477.77
-5769.13
-6041.41
-6258.93
-6398.03
-6445.88
-6395.54
-6245.81
-6006.54
-5704.51
-5383.48
-5095.11
-4881.31
-4764.8
-4749.06
-4825.67
-4982.42
-5205.79
-5477.77
-5769.13
-6041.41
-6258.93
-6398.03
-6445.88
-6395.54
-6245.81
-6006.54
-5704.51
-5383.48
-5095.11
-4881.31
-5415.57
-5333.73
-5240.31
-5146.34
-5066.03
-5012.02
-4986.71
-4986.36
-5007.62
-5054.86
-5134.16
-5241.81
-5360.21
-5461.25
-5524.53
-5543.31
-5525.24
-5480.53
-5415.57
-5333.73
-5240.31
-5146.34
-5066.03
-5012.02
-4986.71
-4986.36
-5007.62
-5054.86
-5134.16
-5241.81
-5360.21
-5461.25
-5524.53
-5543.31
-5525.24
-5480.53
13095.3
13236.6
13260.2
13163.1
12951.1
12641
12266
11870.4
11503.8
11213.1
11037.8
11004.6
11121.6
11373
11722.7
12119.8
12510
12846.4
13095.3
13236.6
13260.2
13163.1
12951.1
12641
12266
11870.4
11503.8
11213.1
11037.8
11004.6
11121.6
11373
11722.7
12119.8
12510
12846.4
-5675.83
-5890.19
-6098.1
-6281.14
-6397.11
-6391.94
-6229.52
-5920.26
-5517.71
-5099.16
-4738.13
-4488.96
-4394.96
-4462.42
-4658.34
-4922.7
-5196.81
-5448.37
-5675.83
-5890.19
-6098.1
-6281.14
-6397.11
-6391.94
-6229.52
-5920.26
-5517.71
-5099.16
-4738.13
-4488.96
-4394.96
-4462.42
-4658.34
-4922.7
-5196.81
-5448.37
-7484.15
-7683.18
-7823.08
-7888.75
-7847.31
-7667.9
-7337.1
-6886.12
-6387.76
-5934.83
-5610.83
-5473.94
-5537.46
-5783.57
-6141.57
-6539.08
-6911.48
-7228.35
-7484.15
-7683.18
-7823.08
-7888.75
-7847.31
-7667.9
-7337.1
-6886.12
-6387.76
-5934.83
-5610.83
-5473.94
-5537.46
-5783.57
-6141.57
-6539.08
-6911.48
-7228.35
11563.3
11463.6
11400.9
11386.8
11446.2
11598.6
11849.1
12165.4
12494
12768.7
12936.4
12969.6
12861.8
12653.7
12384.5
12116.6
11883.3
11700.3
11563.3
11463.6
11400.9
11386.8
11446.2
11598.6
11849.1
12165.4
12494
12768.7
12936.4
12969.6
12861.8
12653.7
12384.5
12116.6
11883.3
11700.3
)
;

boundaryField
{
    fixed
    {
        type            zeroGradient;
    }
    inside
    {
        type            zeroGradient;
    }
    outside
    {
        type            zeroGradient;
    }
}


// ************************************************************************* //
