/*--------------------------------*- C++ -*----------------------------------*\
| =========                 |                                                 |
| \\      /  F ield         | OpenFOAM: The Open Source CFD Toolbox           |
|  \\    /   O peration     | Version:  2312                                  |
|   \\  /    A nd           | Website:  www.openfoam.com                      |
|    \\/     M anipulation  |                                                 |
\*---------------------------------------------------------------------------*/
FoamFile
{
    version     2.0;
    format      ascii;
    arch        "LSB;label=32;scalar=64";
    class       volVectorField;
    location    "0.1";
    object      U;
}
// * * * * * * * * * * * * * * * * * * * * * * * * * * * * * * * * * * * * * //

dimensions      [0 1 -1 0 0 0 0];

internalField   nonuniform List<vector> 
1620
(
(0.000360228 0.00402849 -0.00219434)
(0.000826866 0.00387665 -0.00103456)
(0.000848688 0.00362653 0.000545066)
(0.000454838 0.00304545 0.00227928)
(-0.00018655 0.00207472 0.00386065)
(-0.000896877 0.000812985 0.00506579)
(-0.00155667 -0.00057442 0.00579675)
(-0.0021073 -0.00193078 0.00606592)
(-0.00252753 -0.00314355 0.00595706)
(-0.00281257 -0.00414895 0.00558708)
(-0.00296298 -0.00492117 0.00507845)
(-0.00298168 -0.00545666 0.00454188)
(-0.00287455 -0.00575863 0.00406554)
(-0.00264877 -0.00582695 0.00370697)
(-0.00230392 -0.00566167 0.00348253)
(-0.00182 -0.00528679 0.003351)
(-0.00116949 -0.00478637 0.00320164)
(-0.000385747 -0.00431786 0.00287343)
(0.000360228 -0.00402849 0.00219434)
(0.000826866 -0.00387665 0.00103456)
(0.000848688 -0.00362653 -0.000545066)
(0.000454838 -0.00304545 -0.00227928)
(-0.00018655 -0.00207472 -0.00386065)
(-0.000896877 -0.000812985 -0.00506579)
(-0.00155667 0.00057442 -0.00579675)
(-0.0021073 0.00193078 -0.00606592)
(-0.00252753 0.00314355 -0.00595706)
(-0.00281257 0.00414895 -0.00558708)
(-0.00296298 0.00492117 -0.00507845)
(-0.00298168 0.00545666 -0.00454188)
(-0.00287455 0.00575863 -0.00406554)
(-0.00264877 0.00582695 -0.00370697)
(-0.00230392 0.00566167 -0.00348253)
(-0.00182 0.00528679 -0.003351)
(-0.00116949 0.00478637 -0.00320164)
(-0.000385747 0.00431786 -0.00287343)
(-0.000308132 0.00436523 -0.00203686)
(-0.000174449 0.00394504 -0.000935208)
(-0.000267949 0.00346537 0.000287152)
(-0.000590264 0.00289085 0.00152419)
(-0.00107763 0.00219913 0.00266134)
(-0.00163441 0.00140668 0.00361014)
(-0.00217246 0.000555707 0.00432409)
(-0.00262692 -0.000306027 0.00479901)
(-0.00295561 -0.00113966 0.00506369)
(-0.00313408 -0.00192147 0.00516588)
(-0.00315201 -0.00264208 0.00515742)
(-0.00301279 -0.00329987 0.00508069)
(-0.00273536 -0.00388992 0.00495817)
(-0.00235492 -0.00439201 0.00478719)
(-0.00191714 -0.00476462 0.00454184)
(-0.00146329 -0.00495515 0.00418151)
(-0.00101871 -0.00493021 0.0036627)
(-0.000612194 -0.00471109 0.00295174)
(-0.000308132 -0.00436523 0.00203686)
(-0.000174449 -0.00394504 0.000935208)
(-0.000267949 -0.00346537 -0.000287152)
(-0.000590264 -0.00289085 -0.00152419)
(-0.00107763 -0.00219913 -0.00266134)
(-0.00163441 -0.00140668 -0.00361014)
(-0.00217246 -0.000555707 -0.00432409)
(-0.00262692 0.000306027 -0.00479901)
(-0.00295561 0.00113966 -0.00506369)
(-0.00313408 0.00192147 -0.00516588)
(-0.00315201 0.00264208 -0.00515742)
(-0.00301279 0.00329987 -0.00508069)
(-0.00273536 0.00388992 -0.00495817)
(-0.00235492 0.00439201 -0.00478719)
(-0.00191714 0.00476462 -0.00454184)
(-0.00146329 0.00495515 -0.00418151)
(-0.00101871 0.00493021 -0.0036627)
(-0.000612194 0.00471109 -0.00295174)
(-0.000787113 0.00442477 -0.0021993)
(-0.000901069 0.00391183 -0.00119652)
(-0.00109995 0.0033713 -0.000271942)
(-0.00138971 0.00290813 0.000582279)
(-0.00177543 0.00253601 0.00139643)
(-0.00222872 0.0022125 0.00218846)
(-0.002691 0.00187888 0.00295542)
(-0.00309324 0.00148469 0.00367974)
(-0.00337371 0.000996629 0.00433892)
(-0.00348813 0.000398105 0.00491112)
(-0.00341436 -0.000313554 0.00537489)
(-0.00315489 -0.00112729 0.0057047)
(-0.0027395 -0.00201375 0.00586656)
(-0.00222687 -0.00291712 0.00581896)
(-0.00169967 -0.00374904 0.00552401)
(-0.00124623 -0.00439525 0.00496812)
(-0.000932145 -0.00474542 0.00417933)
(-0.000783356 -0.00474325 0.00322553)
(-0.000787113 -0.00442477 0.0021993)
(-0.000901069 -0.00391183 0.00119652)
(-0.00109995 -0.0033713 0.000271942)
(-0.00138971 -0.00290813 -0.000582279)
(-0.00177543 -0.00253601 -0.00139643)
(-0.00222872 -0.0022125 -0.00218846)
(-0.002691 -0.00187888 -0.00295542)
(-0.00309324 -0.00148469 -0.00367974)
(-0.00337371 -0.000996629 -0.00433892)
(-0.00348813 -0.000398105 -0.00491112)
(-0.00341436 0.000313554 -0.00537489)
(-0.00315489 0.00112729 -0.0057047)
(-0.0027395 0.00201375 -0.00586656)
(-0.00222687 0.00291712 -0.00581896)
(-0.00169967 0.00374904 -0.00552401)
(-0.00124623 0.00439525 -0.00496812)
(-0.000932145 0.00474542 -0.00417933)
(-0.000783356 0.00474325 -0.00322553)
(0.00136711 0.0133078 -0.00629698)
(0.00235265 0.0124013 -0.00259375)
(0.00188555 0.0111229 0.00179298)
(0.000216294 0.00921421 0.00625818)
(-0.00209596 0.00665533 0.0102491)
(-0.00453064 0.00362025 0.0133775)
(-0.00673901 0.00037006 0.0154713)
(-0.00853694 -0.00284385 0.016556)
(-0.00984879 -0.00583471 0.0167941)
(-0.0106535 -0.00849312 0.0164155)
(-0.0109497 -0.0107717 0.0156616)
(-0.0107422 -0.0126556 0.0147457)
(-0.0100425 -0.0141284 0.0138283)
(-0.00887536 -0.0151474 0.0130021)
(-0.00728206 -0.0156441 0.0122777)
(-0.00531669 -0.0155746 0.011554)
(-0.00305443 -0.0150053 0.0105705)
(-0.000671014 -0.0141569 0.00892078)
(0.00136711 -0.0133078 0.00629698)
(0.00235265 -0.0124013 0.00259375)
(0.00188555 -0.0111229 -0.00179298)
(0.000216294 -0.00921421 -0.00625818)
(-0.00209596 -0.00665533 -0.0102491)
(-0.00453064 -0.00362025 -0.0133775)
(-0.00673901 -0.00037006 -0.0154713)
(-0.00853694 0.00284385 -0.016556)
(-0.00984879 0.00583471 -0.0167941)
(-0.0106535 0.00849312 -0.0164155)
(-0.0109497 0.0107717 -0.0156616)
(-0.0107422 0.0126556 -0.0147457)
(-0.0100425 0.0141284 -0.0138283)
(-0.00887536 0.0151474 -0.0130021)
(-0.00728206 0.0156441 -0.0122777)
(-0.00531669 0.0155746 -0.011554)
(-0.00305443 0.0150053 -0.0105705)
(-0.000671014 0.0141569 -0.00892078)
(-0.000431488 0.0130515 -0.0060077)
(-5.11947e-05 0.0116845 -0.00282993)
(-0.000490089 0.0101397 0.000679792)
(-0.00169749 0.00835387 0.00422232)
(-0.00339435 0.00630098 0.00750387)
(-0.00525603 0.00401906 0.0102928)
(-0.0070127 0.00159366 0.0124554)
(-0.00847378 -0.000873731 0.013963)
(-0.00951844 -0.00329378 0.0148738)
(-0.0100784 -0.00560447 0.0152988)
(-0.0101249 -0.00777096 0.015365)
(-0.00966391 -0.00977135 0.0151802)
(-0.0087393 -0.0115722 0.0148063)
(-0.00743912 -0.0131019 0.0142457)
(-0.00589723 -0.0142379 0.0134444)
(-0.00427787 -0.0148333 0.0123124)
(-0.00273869 -0.0147904 0.0107496)
(-0.00140418 -0.014137 0.00866183)
(-0.000431488 -0.0130515 0.0060077)
(-5.11947e-05 -0.0116845 0.00282993)
(-0.000490089 -0.0101397 -0.000679792)
(-0.00169749 -0.00835387 -0.00422232)
(-0.00339435 -0.00630098 -0.00750387)
(-0.00525603 -0.00401906 -0.0102928)
(-0.0070127 -0.00159366 -0.0124554)
(-0.00847378 0.000873731 -0.013963)
(-0.00951844 0.00329378 -0.0148738)
(-0.0100784 0.00560447 -0.0152988)
(-0.0101249 0.00777096 -0.015365)
(-0.00966391 0.00977135 -0.0151802)
(-0.0087393 0.0115722 -0.0148063)
(-0.00743912 0.0131019 -0.0142457)
(-0.00589723 0.0142379 -0.0134444)
(-0.00427787 0.0148333 -0.0123124)
(-0.00273869 0.0147904 -0.0107496)
(-0.00140418 0.014137 -0.00866183)
(-0.00198587 0.0124446 -0.00572127)
(-0.00211439 0.010804 -0.00305569)
(-0.00254636 0.00913392 -0.000394091)
(-0.00334926 0.00755088 0.0022623)
(-0.00448892 0.00603677 0.00486698)
(-0.0058292 0.00451633 0.00733592)
(-0.00718118 0.00291472 0.00957462)
(-0.00835155 0.0011861 0.0115045)
(-0.00917653 -0.000682075 0.0130792)
(-0.00954119 -0.00267808 0.0142854)
(-0.00938874 -0.00477503 0.0151273)
(-0.00872557 -0.00693042 0.0156038)
(-0.00762635 -0.00907304 0.015686)
(-0.00623881 -0.0110815 0.0153077)
(-0.00477918 -0.012768 0.0143838)
(-0.00349803 -0.0138925 0.0128632)
(-0.0025961 -0.0142319 0.0107974)
(-0.00212274 -0.0136936 0.00835537)
(-0.00198587 -0.0124446 0.00572127)
(-0.00211439 -0.010804 0.00305569)
(-0.00254636 -0.00913392 0.000394091)
(-0.00334926 -0.00755088 -0.0022623)
(-0.00448892 -0.00603677 -0.00486698)
(-0.0058292 -0.00451633 -0.00733592)
(-0.00718118 -0.00291472 -0.00957462)
(-0.00835155 -0.0011861 -0.0115045)
(-0.00917653 0.000682075 -0.0130792)
(-0.00954119 0.00267808 -0.0142854)
(-0.00938874 0.00477503 -0.0151273)
(-0.00872557 0.00693042 -0.0156038)
(-0.00762635 0.00907304 -0.015686)
(-0.00623881 0.0110815 -0.0153077)
(-0.00477918 0.012768 -0.0143838)
(-0.00349803 0.0138925 -0.0128632)
(-0.0025961 0.0142319 -0.0107974)
(-0.00212274 0.0136936 -0.00835537)
(0.00292371 0.0233787 -0.00937797)
(0.00351741 0.0212249 -0.00340949)
(0.0016507 0.0182952 0.00332951)
(-0.0019326 0.0146082 0.0100137)
(-0.006327 0.01027 0.0159332)
(-0.0107549 0.00548646 0.0206172)
(-0.014681 0.000531737 0.0238616)
(-0.0178069 -0.00432231 0.0257041)
(-0.0200045 -0.00886783 0.0263551)
(-0.0212392 -0.0129819 0.0261124)
(-0.0215101 -0.01661 0.025287)
(-0.0208179 -0.0197303 0.0241502)
(-0.0191613 -0.0223134 0.0229009)
(-0.0165548 -0.0242949 0.0216452)
(-0.0130662 -0.0255768 0.0203777)
(-0.0088745 -0.0260766 0.018948)
(-0.00435049 -0.0258033 0.0170005)
(-0.000133969 -0.024861 0.0139499)
(0.00292371 -0.0233787 0.00937797)
(0.00351741 -0.0212249 0.00340949)
(0.0016507 -0.0182952 -0.00332951)
(-0.0019326 -0.0146082 -0.0100137)
(-0.006327 -0.01027 -0.0159332)
(-0.0107549 -0.00548646 -0.0206172)
(-0.014681 -0.000531737 -0.0238616)
(-0.0178069 0.00432231 -0.0257041)
(-0.0200045 0.00886783 -0.0263551)
(-0.0212392 0.0129819 -0.0261124)
(-0.0215101 0.01661 -0.025287)
(-0.0208179 0.0197303 -0.0241502)
(-0.0191613 0.0223134 -0.0229009)
(-0.0165548 0.0242949 -0.0216452)
(-0.0130662 0.0255768 -0.0203777)
(-0.0088745 0.0260766 -0.018948)
(-0.00435049 0.0258033 -0.0170005)
(-0.000133969 0.024861 -0.0139499)
(-1.51416e-05 0.0214541 -0.00908996)
(0.000201495 0.0190941 -0.00406104)
(-0.00107636 0.0163434 0.00138035)
(-0.00352754 0.0132583 0.00683984)
(-0.00664948 0.00985378 0.0119212)
(-0.00993939 0.00616941 0.016295)
(-0.0129812 0.00229679 0.0197557)
(-0.0154743 -0.00164085 0.0222415)
(-0.017226 -0.00552376 0.0238135)
(-0.0181296 -0.00925881 0.0246119)
(-0.0181419 -0.0127816 0.0248043)
(-0.0172701 -0.0160395 0.0245372)
(-0.0155708 -0.0189621 0.023899)
(-0.0131581 -0.0214301 0.0228999)
(-0.0102162 -0.0232624 0.0214749)
(-0.00701289 -0.0242501 0.0195064)
(-0.00392115 -0.0242478 0.0168565)
(-0.00144853 -0.0232587 0.0133996)
(-1.51416e-05 -0.0214541 0.00908996)
(0.000201495 -0.0190941 0.00406104)
(-0.00107636 -0.0163434 -0.00138035)
(-0.00352755 -0.0132583 -0.00683984)
(-0.00664948 -0.00985378 -0.0119212)
(-0.00993939 -0.00616941 -0.016295)
(-0.0129812 -0.00229679 -0.0197557)
(-0.0154743 0.00164085 -0.0222415)
(-0.017226 0.00552376 -0.0238135)
(-0.0181296 0.00925881 -0.0246119)
(-0.0181419 0.0127816 -0.0248043)
(-0.0172701 0.0160395 -0.0245372)
(-0.0155708 0.0189621 -0.023899)
(-0.0131581 0.0214301 -0.0228999)
(-0.0102162 0.0232624 -0.0214749)
(-0.00701289 0.0242501 -0.0195064)
(-0.00392115 0.0242478 -0.0168565)
(-0.00144853 0.0232587 -0.0133996)
(-0.00262871 0.0193955 -0.00863762)
(-0.0027207 0.016906 -0.004572)
(-0.00347465 0.0143458 -0.000377075)
(-0.00487176 0.0118169 0.00390343)
(-0.00678257 0.00928509 0.00814832)
(-0.00898028 0.00665344 0.0121747)
(-0.0111765 0.00383975 0.0157945)
(-0.013076 0.00081108 0.0188608)
(-0.0144259 -0.00241502 0.0212909)
(-0.0150486 -0.00578545 0.0230629)
(-0.0148584 -0.00922582 0.0241925)
(-0.0138681 -0.0126415 0.0246971)
(-0.0121914 -0.0159015 0.0245616)
(-0.0100398 -0.0188124 0.0237229)
(-0.00770959 -0.0211025 0.0220895)
(-0.00554979 -0.0224514 0.0196071)
(-0.00390297 -0.022596 0.0163531)
(-0.00299083 -0.0214792 0.0125959)
(-0.00262871 -0.0193955 0.00863762)
(-0.0027207 -0.016906 0.004572)
(-0.00347465 -0.0143458 0.000377075)
(-0.00487176 -0.0118169 -0.00390343)
(-0.00678257 -0.00928509 -0.00814832)
(-0.00898028 -0.00665344 -0.0121747)
(-0.0111765 -0.00383975 -0.0157945)
(-0.013076 -0.00081108 -0.0188608)
(-0.0144259 0.00241502 -0.0212909)
(-0.0150486 0.00578545 -0.0230629)
(-0.0148584 0.00922582 -0.0241925)
(-0.0138681 0.0126415 -0.0246971)
(-0.0121914 0.0159015 -0.0245616)
(-0.0100398 0.0188124 -0.0237229)
(-0.00770959 0.0211025 -0.0220895)
(-0.00554979 0.0224514 -0.0196071)
(-0.00390297 0.022596 -0.0163531)
(-0.00299083 0.0214792 -0.0125959)
(0.00314471 0.0323294 -0.0109871)
(0.00277843 0.028362 -0.00340651)
(-0.000722376 0.0236202 0.00486272)
(-0.00627987 0.0182364 0.0129886)
(-0.0127234 0.0123184 0.0202486)
(-0.0190541 0.00604775 0.0261337)
(-0.0245638 -0.000324719 0.0303985)
(-0.0288459 -0.00654493 0.0330537)
(-0.0317272 -0.0124162 0.0342992)
(-0.0331689 -0.017819 0.0344335)
(-0.0331779 -0.0226917 0.0337723)
(-0.0317532 -0.0269924 0.0325907)
(-0.0288793 -0.0306623 0.0310869)
(-0.02457 -0.0336046 0.0293559)
(-0.0189591 -0.0356862 0.0273648)
(-0.0124224 -0.0367568 0.0249281)
(-0.00570432 -0.0366587 0.0216943)
(-1.06036e-05 -0.0352073 0.0171763)
(0.00314471 -0.0323294 0.0109871)
(0.00277843 -0.028362 0.00340651)
(-0.000722376 -0.0236202 -0.00486272)
(-0.00627987 -0.0182364 -0.0129886)
(-0.0127234 -0.0123184 -0.0202486)
(-0.0190541 -0.00604775 -0.0261337)
(-0.0245638 0.000324719 -0.0303985)
(-0.0288459 0.00654493 -0.0330537)
(-0.0317272 0.0124162 -0.0342992)
(-0.0331689 0.017819 -0.0344335)
(-0.0331779 0.0226917 -0.0337723)
(-0.0317532 0.0269924 -0.0325907)
(-0.0288793 0.0306623 -0.0310869)
(-0.02457 0.0336046 -0.0293559)
(-0.0189591 0.0356862 -0.0273648)
(-0.0124224 0.0367568 -0.0249281)
(-0.00570432 0.0366587 -0.0216943)
(-1.06037e-05 0.0352073 -0.0171763)
(-0.000484378 0.0287988 -0.0109514)
(-0.000861525 0.0252999 -0.00450108)
(-0.00316612 0.0213393 0.00236256)
(-0.0068615 0.0170202 0.0092327)
(-0.0113096 0.0123612 0.0156714)
(-0.0158813 0.00740192 0.0212911)
(-0.0200427 0.00223578 0.0258298)
(-0.0234001 -0.00300632 0.0291823)
(-0.0257011 -0.00818866 0.0313848)
(-0.0268095 -0.0131934 0.0325695)
(-0.0266739 -0.0179237 0.0329086)
(-0.0253058 -0.0222885 0.0325598)
(-0.022776 -0.0261757 0.0316239)
(-0.0192305 -0.0294251 0.0301207)
(-0.0149208 -0.0318183 0.0279901)
(-0.010239 -0.0331033 0.0251162)
(-0.00575502 -0.0330522 0.0213662)
(-0.00224109 -0.031552 0.0166421)
(-0.000484378 -0.0287988 0.0109514)
(-0.000861525 -0.0252999 0.00450108)
(-0.00316612 -0.0213393 -0.00236256)
(-0.0068615 -0.0170202 -0.0092327)
(-0.0113096 -0.0123612 -0.0156714)
(-0.0158813 -0.00740192 -0.0212911)
(-0.0200427 -0.00223578 -0.0258298)
(-0.0234001 0.00300632 -0.0291823)
(-0.0257011 0.00818866 -0.0313848)
(-0.0268095 0.0131934 -0.0325695)
(-0.0266739 0.0179237 -0.0329086)
(-0.0253058 0.0222885 -0.0325598)
(-0.022776 0.0261757 -0.0316239)
(-0.0192305 0.0294251 -0.0301207)
(-0.0149208 0.0318183 -0.0279901)
(-0.010239 0.0331033 -0.0251162)
(-0.00575502 0.0330522 -0.0213662)
(-0.00224109 0.031552 -0.0166421)
(-0.00399596 0.0256126 -0.0109871)
(-0.00423641 0.0225137 -0.00564695)
(-0.00534024 0.0191951 -7.68184e-05)
(-0.00722922 0.0157759 0.0056236)
(-0.00973872 0.0122328 0.0112584)
(-0.0125951 0.00849003 0.0165731)
(-0.0154435 0.00448624 0.0213168)
(-0.0179107 0.0002128 0.0252914)
(-0.0196704 -0.00427831 0.0283795)
(-0.0204913 -0.00888848 0.0305449)
(-0.0202641 -0.0134909 0.031808)
(-0.0190118 -0.0179369 0.0322041)
(-0.0168896 -0.0220435 0.0317439)
(-0.0141709 -0.0255712 0.0303956)
(-0.0112156 -0.0282163 0.0281073)
(-0.00841563 -0.0296525 0.0248679)
(-0.00613079 -0.0296378 0.0207758)
(-0.00462549 -0.0281744 0.0160605)
(-0.00399596 -0.0256126 0.0109871)
(-0.00423641 -0.0225137 0.00564695)
(-0.00534024 -0.0191951 7.68184e-05)
(-0.00722922 -0.0157759 -0.0056236)
(-0.00973872 -0.0122328 -0.0112584)
(-0.0125951 -0.00849003 -0.0165731)
(-0.0154435 -0.00448624 -0.0213168)
(-0.0179107 -0.0002128 -0.0252914)
(-0.0196704 0.00427831 -0.0283795)
(-0.0204913 0.00888848 -0.0305449)
(-0.0202641 0.0134909 -0.031808)
(-0.0190118 0.0179369 -0.0322041)
(-0.0168896 0.0220435 -0.0317439)
(-0.0141709 0.0255712 -0.0303956)
(-0.0112156 0.0282163 -0.0281073)
(-0.00841563 0.0296525 -0.0248679)
(-0.00613079 0.0296378 -0.0207758)
(-0.00462549 0.0281744 -0.0160605)
(-0.000179501 0.0390054 -0.0112734)
(-0.00128175 0.0334603 -0.00283027)
(-0.00584817 0.0270592 0.00614154)
(-0.0127976 0.0201133 0.0149797)
(-0.020779 0.0128053 0.0230384)
(-0.0285627 0.00529273 0.0298071)
(-0.0352505 -0.0022387 0.0349867)
(-0.0403208 -0.00959331 0.0385102)
(-0.0435596 -0.0166066 0.0405006)
(-0.0449339 -0.0231627 0.041193)
(-0.0444702 -0.0291764 0.0408562)
(-0.0421787 -0.0345579 0.0397337)
(-0.0380528 -0.0391793 0.0380025)
(-0.032153 -0.0428562 0.0357424)
(-0.0247663 -0.0453497 0.0329066)
(-0.0165855 -0.0463911 0.029307)
(-0.00879237 -0.0457313 0.024646)
(-0.00288391 -0.0432304 0.0186477)
(-0.000179501 -0.0390054 0.0112734)
(-0.00128175 -0.0334603 0.00283027)
(-0.00584817 -0.0270592 -0.00614154)
(-0.0127976 -0.0201133 -0.0149797)
(-0.020779 -0.0128053 -0.0230384)
(-0.0285627 -0.00529273 -0.0298071)
(-0.0352505 0.0022387 -0.0349867)
(-0.0403208 0.00959331 -0.0385102)
(-0.0435596 0.0166066 -0.0405006)
(-0.0449339 0.0231627 -0.041193)
(-0.0444702 0.0291764 -0.0408562)
(-0.0421787 0.0345579 -0.0397337)
(-0.0380528 0.0391793 -0.0380025)
(-0.032153 0.0428562 -0.0357424)
(-0.0247663 0.0453497 -0.0329066)
(-0.0165855 0.0463911 -0.029307)
(-0.00879237 0.0457313 -0.024646)
(-0.00288391 0.0432304 -0.0186477)
(-0.00419757 0.0346788 -0.011695)
(-0.00490991 0.0301418 -0.00431408)
(-0.00782285 0.0249906 0.00344786)
(-0.0123588 0.0194509 0.0112053)
(-0.0177527 0.013607 0.0185337)
(-0.0232413 0.0075036 0.0250334)
(-0.0281799 0.00121478 0.0304025)
(-0.032096 -0.00514414 0.0344814)
(-0.0346916 -0.0114359 0.0372541)
(-0.0358132 -0.0175221 0.0388123)
(-0.0354109 -0.02327 0.0393033)
(-0.0335093 -0.0285409 0.0388739)
(-0.030205 -0.0331674 0.0376255)
(-0.0256974 -0.036931 0.0355877)
(-0.0203432 -0.0395586 0.032719)
(-0.0147123 -0.0407607 0.0289354)
(-0.00959139 -0.0403193 0.0241596)
(-0.0058556 -0.0382096 0.0183808)
(-0.00419757 -0.0346788 0.011695)
(-0.00490991 -0.0301418 0.00431408)
(-0.00782285 -0.0249906 -0.00344786)
(-0.0123588 -0.0194509 -0.0112053)
(-0.0177527 -0.013607 -0.0185337)
(-0.0232413 -0.0075036 -0.0250334)
(-0.0281799 -0.00121478 -0.0304025)
(-0.032096 0.00514414 -0.0344814)
(-0.0346916 0.0114359 -0.0372541)
(-0.0358132 0.0175221 -0.0388123)
(-0.0354109 0.02327 -0.0393033)
(-0.0335093 0.0285409 -0.0388739)
(-0.030205 0.0331674 -0.0376255)
(-0.0256974 0.036931 -0.0355877)
(-0.0203432 0.0395586 -0.032719)
(-0.0147123 0.0407607 -0.0289354)
(-0.00959139 0.0403193 -0.0241596)
(-0.0058556 0.0382096 -0.0183808)
(-0.00809581 0.0308167 -0.0124939)
(-0.00834247 0.0272735 -0.00613181)
(-0.00959768 0.0232604 0.000549413)
(-0.0117602 0.0189558 0.00734954)
(-0.0146183 0.0144063 0.0140099)
(-0.0178571 0.00958873 0.02024)
(-0.021083 0.0044775 0.0257606)
(-0.0238764 -0.0009064 0.0303465)
(-0.0258615 -0.00647817 0.0338565)
(-0.0267679 -0.0120993 0.0362401)
(-0.0264709 -0.0175985 0.0375159)
(-0.0250087 -0.0227831 0.0377304)
(-0.0225777 -0.0274312 0.0369177)
(-0.0195069 -0.031277 0.0350844)
(-0.0162074 -0.0340173 0.0322338)
(-0.0131044 -0.0353727 0.0284149)
(-0.0105671 -0.0351981 0.0237502)
(-0.00885422 -0.0335803 0.0184001)
(-0.00809581 -0.0308167 0.0124939)
(-0.00834247 -0.0272735 0.00613181)
(-0.00959768 -0.0232604 -0.000549413)
(-0.0117602 -0.0189558 -0.00734954)
(-0.0146183 -0.0144063 -0.0140099)
(-0.0178571 -0.00958873 -0.02024)
(-0.021083 -0.0044775 -0.0257606)
(-0.0238764 0.0009064 -0.0303465)
(-0.0258615 0.00647817 -0.0338565)
(-0.0267679 0.0120993 -0.0362401)
(-0.0264709 0.0175985 -0.0375159)
(-0.0250087 0.0227831 -0.0377304)
(-0.0225777 0.0274312 -0.0369177)
(-0.0195069 0.031277 -0.0350844)
(-0.0162074 0.0340173 -0.0322338)
(-0.0131044 0.0353727 -0.0284149)
(-0.0105671 0.0351981 -0.0237502)
(-0.00885422 0.0335803 -0.0184001)
(-0.00722152 0.0433713 -0.0109897)
(-0.00888714 0.036472 -0.00215098)
(-0.013963 0.0287045 0.00702397)
(-0.0214861 0.0204646 0.0160681)
(-0.0301458 0.0119979 0.0244907)
(-0.0386268 0.0034549 0.0318362)
(-0.0458884 -0.00503671 0.0377615)
(-0.0512909 -0.0133419 0.0420937)
(-0.0545622 -0.0213262 0.0448361)
(-0.0556649 -0.0288649 0.0461223)
(-0.0546475 -0.0358291 0.0461494)
(-0.0515543 -0.0420558 0.045115)
(-0.046438 -0.0473199 0.0431687)
(-0.0394822 -0.0513264 0.0403742)
(-0.0311872 -0.053736 0.0366899)
(-0.0225004 -0.0542309 0.0319877)
(-0.0147448 -0.0526139 0.0261307)
(-0.00930567 -0.0489037 0.0190843)
(-0.00722152 -0.0433713 0.0109897)
(-0.00888714 -0.036472 0.00215098)
(-0.013963 -0.0287045 -0.00702397)
(-0.0214861 -0.0204646 -0.0160681)
(-0.0301458 -0.0119979 -0.0244907)
(-0.0386268 -0.0034549 -0.0318362)
(-0.0458884 0.00503671 -0.0377615)
(-0.0512909 0.0133419 -0.0420937)
(-0.0545622 0.0213262 -0.0448361)
(-0.0556649 0.0288649 -0.0461223)
(-0.0546475 0.0358291 -0.0461494)
(-0.0515543 0.0420558 -0.045115)
(-0.046438 0.0473199 -0.0431687)
(-0.0394822 0.0513264 -0.0403742)
(-0.0311872 0.053736 -0.0366899)
(-0.0225004 0.0542309 -0.0319877)
(-0.0147448 0.0526139 -0.0261307)
(-0.00930567 0.0489037 -0.0190843)
(-0.010997 0.0386728 -0.0116274)
(-0.0120371 0.0332006 -0.00374412)
(-0.0152802 0.0270191 0.00444042)
(-0.020183 0.0204129 0.0126081)
(-0.0259861 0.0135318 0.0203923)
(-0.0318801 0.00644647 0.0274154)
(-0.0371508 -0.000779942 0.0333514)
(-0.0412644 -0.00805108 0.0379839)
(-0.0438869 -0.0152341 0.0412287)
(-0.0448544 -0.0221729 0.0431178)
(-0.0441263 -0.0286966 0.0437552)
(-0.0417528 -0.0346131 0.043262)
(-0.0378776 -0.0396907 0.0417294)
(-0.0327798 -0.0436466 0.0391951)
(-0.0269316 -0.0461647 0.0356498)
(-0.0210226 -0.0469636 0.0310725)
(-0.0158913 -0.0458979 0.0254767)
(-0.0123535 -0.0430394 0.0189434)
(-0.010997 -0.0386728 0.0116274)
(-0.0120371 -0.0332006 0.00374412)
(-0.0152802 -0.0270191 -0.00444042)
(-0.020183 -0.0204129 -0.0126081)
(-0.0259861 -0.0135318 -0.0203923)
(-0.0318801 -0.00644647 -0.0274154)
(-0.0371508 0.000779942 -0.0333514)
(-0.0412644 0.00805108 -0.0379839)
(-0.0438869 0.0152341 -0.0412287)
(-0.0448544 0.0221729 -0.0431178)
(-0.0441263 0.0286966 -0.0437552)
(-0.0417528 0.0346131 -0.043262)
(-0.0378776 0.0396907 -0.0417294)
(-0.0327798 0.0436466 -0.0391951)
(-0.0269316 0.0461647 -0.0356498)
(-0.0210226 0.0469636 -0.0310725)
(-0.0158913 0.0458979 -0.0254767)
(-0.0123535 0.0430394 -0.0189434)
(-0.0146727 0.0345188 -0.0128779)
(-0.015031 0.0305078 -0.00589574)
(-0.0164378 0.02585 0.00142923)
(-0.0187578 0.0207414 0.00885954)
(-0.0217592 0.0152877 0.0161026)
(-0.0251189 0.00952775 0.0228467)
(-0.0284406 0.00348253 0.0287993)
(-0.0312977 -0.00279538 0.033723)
(-0.0332993 -0.00919518 0.0374613)
(-0.0341607 -0.0155511 0.0399479)
(-0.0337556 -0.0216613 0.0411903)
(-0.0321395 -0.0273011 0.041232)
(-0.0295413 -0.0322209 0.0401188)
(-0.0263236 -0.0361419 0.0378891)
(-0.0229149 -0.0387821 0.0345946)
(-0.0197354 -0.0399239 0.0303251)
(-0.0171413 -0.0394974 0.0252033)
(-0.0153981 -0.0376134 0.019352)
(-0.0146727 -0.0345188 0.0128779)
(-0.015031 -0.0305078 0.00589574)
(-0.0164378 -0.02585 -0.00142923)
(-0.0187578 -0.0207414 -0.00885954)
(-0.0217592 -0.0152877 -0.0161026)
(-0.0251189 -0.00952775 -0.0228467)
(-0.0284406 -0.00348253 -0.0287993)
(-0.0312977 0.00279538 -0.033723)
(-0.0332993 0.00919518 -0.0374613)
(-0.0341607 0.0155511 -0.0399479)
(-0.0337556 0.0216613 -0.0411903)
(-0.0321395 0.0273011 -0.041232)
(-0.0295413 0.0322209 -0.0401188)
(-0.0263236 0.0361419 -0.0378891)
(-0.0229149 0.0387821 -0.0345946)
(-0.0197354 0.0399239 -0.0303251)
(-0.0171413 0.0394974 -0.0252033)
(-0.0153981 0.0376134 -0.019352)
(-0.0175022 0.0457886 -0.0105854)
(-0.0194773 0.0377807 -0.00169376)
(-0.0245688 0.0289433 0.00739334)
(-0.0319542 0.0196931 0.0163555)
(-0.0404719 0.0103007 0.0248428)
(-0.0488743 0.00091416 0.0324771)
(-0.0560908 -0.0083709 0.0389001)
(-0.0614028 -0.0174542 0.0438486)
(-0.0644683 -0.0262112 0.0472057)
(-0.0652204 -0.0344927 0.0489978)
(-0.0637216 -0.0421156 0.0493453)
(-0.0600725 -0.0488402 0.0483978)
(-0.0544317 -0.0543531 0.0462767)
(-0.0471377 -0.0582786 0.0430412)
(-0.0388523 -0.0602365 0.0386881)
(-0.0305936 -0.0599401 0.0331945)
(-0.0235819 -0.0572973 0.0265842)
(-0.0189568 -0.0524585 0.0189756)
(-0.0175022 -0.0457886 0.0105854)
(-0.0194773 -0.0377807 0.00169376)
(-0.0245688 -0.0289433 -0.00739334)
(-0.0319542 -0.0196931 -0.0163555)
(-0.0404719 -0.0103007 -0.0248428)
(-0.0488743 -0.00091416 -0.0324771)
(-0.0560908 0.0083709 -0.0389001)
(-0.0614028 0.0174542 -0.0438486)
(-0.0644683 0.0262112 -0.0472057)
(-0.0652204 0.0344927 -0.0489978)
(-0.0637216 0.0421156 -0.0493453)
(-0.0600725 0.0488402 -0.0483978)
(-0.0544317 0.0543531 -0.0462767)
(-0.0471377 0.0582786 -0.0430412)
(-0.0388523 0.0602365 -0.0386881)
(-0.0305936 0.0599401 -0.0331945)
(-0.0235819 0.0572973 -0.0265842)
(-0.0189568 0.0524585 -0.0189756)
(-0.0204514 0.0409055 -0.0111303)
(-0.0217172 0.0345792 -0.00310278)
(-0.0250304 0.027521 0.00514127)
(-0.0298978 0.0200351 0.0133528)
(-0.035622 0.0123055 0.0212363)
(-0.0414294 0.00442554 0.0284576)
(-0.0466041 -0.00354022 0.0346891)
(-0.0505892 -0.0115044 0.0396701)
(-0.0530283 -0.0193356 0.0432511)
(-0.0537497 -0.0268613 0.0453995)
(-0.0527252 -0.0338758 0.0461673)
(-0.0500397 -0.040137 0.0456404)
(-0.0458963 -0.0453569 0.0438945)
(-0.0406525 -0.0492052 0.040977)
(-0.0348532 -0.0513541 0.0369228)
(-0.0292104 -0.0515622 0.0317864)
(-0.0245037 -0.0497633 0.0256687)
(-0.0214286 -0.0461036 0.0187209)
(-0.0204514 -0.0409055 0.0111303)
(-0.0217172 -0.0345792 0.00310278)
(-0.0250304 -0.027521 -0.00514127)
(-0.0298978 -0.0200351 -0.0133528)
(-0.035622 -0.0123055 -0.0212363)
(-0.0414294 -0.00442554 -0.0284576)
(-0.0466041 0.00354022 -0.0346891)
(-0.0505892 0.0115044 -0.0396701)
(-0.0530283 0.0193356 -0.0432511)
(-0.0537497 0.0268613 -0.0453995)
(-0.0527252 0.0338758 -0.0461673)
(-0.0500397 0.040137 -0.0456404)
(-0.0458963 0.0453569 -0.0438945)
(-0.0406525 0.0492052 -0.040977)
(-0.0348532 0.0513541 -0.0369228)
(-0.0292104 0.0515622 -0.0317864)
(-0.0245037 0.0497633 -0.0256687)
(-0.0214286 0.0461036 -0.0187209)
(-0.0233445 0.036642 -0.0124873)
(-0.0238535 0.0320705 -0.00525645)
(-0.0253806 0.0267723 0.00228366)
(-0.0277601 0.0209522 0.00990006)
(-0.030743 0.0147483 0.0173074)
(-0.034011 0.00824271 0.0241999)
(-0.0371902 0.00149482 0.0302876)
(-0.0398823 -0.00541682 0.035329)
(-0.0417199 -0.0123654 0.0391561)
(-0.0424332 -0.0191716 0.0416831)
(-0.0419076 -0.0256163 0.0428952)
(-0.0402123 -0.0314537 0.0428201)
(-0.0375885 -0.0364146 0.0415023)
(-0.0344014 -0.0402156 0.0390001)
(-0.0310687 -0.0425965 0.0353986)
(-0.0279939 -0.0433854 0.030816)
(-0.0255223 -0.0425543 0.0253871)
(-0.0239177 -0.0402285 0.0192392)
(-0.0233445 -0.036642 0.0124873)
(-0.0238535 -0.0320705 0.00525645)
(-0.0253806 -0.0267723 -0.00228366)
(-0.0277601 -0.0209522 -0.00990006)
(-0.030743 -0.0147483 -0.0173074)
(-0.034011 -0.00824271 -0.0241999)
(-0.0371902 -0.00149482 -0.0302876)
(-0.0398823 0.00541682 -0.035329)
(-0.0417199 0.0123654 -0.0391561)
(-0.0424332 0.0191716 -0.0416831)
(-0.0419076 0.0256163 -0.0428952)
(-0.0402123 0.0314537 -0.0428201)
(-0.0375885 0.0364146 -0.0415023)
(-0.0344014 0.0402156 -0.0390001)
(-0.0310687 0.0425965 -0.0353986)
(-0.0279939 0.0433854 -0.030816)
(-0.0255223 0.0425543 -0.0253871)
(-0.0239177 0.0402285 -0.0192392)
(-0.0301986 0.046676 -0.0103254)
(-0.0322207 0.0378768 -0.00163973)
(-0.0369215 0.028279 0.00717478)
(-0.043633 0.0182945 0.0158861)
(-0.0513905 0.00820079 0.0242332)
(-0.0591071 -0.00184703 0.031901)
(-0.0657841 -0.0117542 0.0385402)
(-0.0706859 -0.0214213 0.0438377)
(-0.0734111 -0.03071 0.0475914)
(-0.0738451 -0.0394376 0.0497399)
(-0.072052 -0.0473717 0.0503345)
(-0.0681958 -0.0542174 0.0494796)
(-0.0625496 -0.059612 0.0472758)
(-0.0555759 -0.0631564 0.0437945)
(-0.0479933 -0.0644919 0.03909)
(-0.0407412 -0.0634024 0.0332365)
(-0.0348267 -0.0598889 0.0263602)
(-0.0311227 -0.054179 0.0186468)
(-0.0301986 -0.046676 0.0103254)
(-0.0322207 -0.0378768 0.00163973)
(-0.0369215 -0.028279 -0.00717478)
(-0.043633 -0.0182945 -0.0158861)
(-0.0513905 -0.00820079 -0.0242332)
(-0.0591071 0.00184703 -0.031901)
(-0.0657841 0.0117542 -0.0385402)
(-0.0706859 0.0214213 -0.0438377)
(-0.0734111 0.03071 -0.0475914)
(-0.0738451 0.0394376 -0.0497399)
(-0.072052 0.0473717 -0.0503345)
(-0.0681958 0.0542174 -0.0494796)
(-0.0625496 0.059612 -0.0472758)
(-0.0555759 0.0631564 -0.0437945)
(-0.0479933 0.0644919 -0.03909)
(-0.0407412 0.0634024 -0.0332365)
(-0.0348267 0.0598889 -0.0263602)
(-0.0311227 0.054179 -0.0186468)
(-0.0318747 0.0416575 -0.0105242)
(-0.0332283 0.0346301 -0.00264129)
(-0.0363721 0.0268751 0.00539539)
(-0.0408794 0.0187047 0.013389)
(-0.0461458 0.0103225 0.0211021)
(-0.0514835 0.00184301 0.0282478)
(-0.056231 -0.00665714 0.0345152)
(-0.0598496 -0.0150862 0.0396249)
(-0.0619793 -0.0233078 0.0433812)
(-0.0624444 -0.0311356 0.0456953)
(-0.0612281 -0.0383382 0.046568)
(-0.0584498 -0.0446392 0.0460483)
(-0.0543647 -0.0497178 0.044197)
(-0.0493793 -0.0532293 0.0410762)
(-0.0440502 -0.0548645 0.0367655)
(-0.0390355 -0.0544345 0.0313828)
(-0.0349986 -0.0519363 0.0250881)
(-0.0324947 -0.0475632 0.0180697)
(-0.0318747 -0.0416575 0.0105242)
(-0.0332283 -0.0346301 0.00264129)
(-0.0363721 -0.0268751 -0.00539539)
(-0.0408794 -0.0187047 -0.013389)
(-0.0461458 -0.0103225 -0.0211021)
(-0.0514835 -0.00184301 -0.0282478)
(-0.056231 0.00665714 -0.0345152)
(-0.0598496 0.0150862 -0.0396249)
(-0.0619793 0.0233078 -0.0433812)
(-0.0624444 0.0311356 -0.0456953)
(-0.0612281 0.0383382 -0.046568)
(-0.0584498 0.0446392 -0.0460483)
(-0.0543647 0.0497178 -0.044197)
(-0.0493793 0.0532293 -0.0410762)
(-0.0440502 0.0548645 -0.0367655)
(-0.0390355 0.0544345 -0.0313828)
(-0.0349986 0.0519363 -0.0250881)
(-0.0324947 0.0475632 -0.0180697)
(-0.0335619 0.0373254 -0.011704)
(-0.034202 0.0321778 -0.00454492)
(-0.0357735 0.0262846 0.00286485)
(-0.0380953 0.0198646 0.0103154)
(-0.0409137 0.0130791 0.0175518)
(-0.0439242 0.00603863 0.024296)
(-0.0467883 -0.00117104 0.0302763)
(-0.0491577 -0.00845493 0.0352572)