/*--------------------------------*- C++ -*----------------------------------*\
| =========                 |                                                 |
| \\      /  F ield         | OpenFOAM: The Open Source CFD Toolbox           |
|  \\    /   O peration     | Version:  2312                                  |
|   \\  /    A nd           | Website:  www.openfoam.com                      |
|    \\/     M anipulation  |                                                 |
\*---------------------------------------------------------------------------*/
FoamFile
{
    version     2.0;
    format      ascii;
    arch        "LSB;label=32;scalar=64";
    class       volVectorField;
    location    "0.2";
    object      D;
}
// * * * * * * * * * * * * * * * * * * * * * * * * * * * * * * * * * * * * * //

dimensions      [0 1 0 0 0 0 0];

internalField   nonuniform List<vector> 
1620
(
(6.37156e-05 0.000200308 3.12986e-05)
(2.79645e-05 0.000208329 3.12985e-05)
(-8.63615e-06 0.00021002 3.12986e-05)
(-4.49745e-05 0.00020533 3.12988e-05)
(-7.99464e-05 0.000194401 3.12988e-05)
(-0.000112489 0.000177565 3.12987e-05)
(-0.000141614 0.000155333 3.12987e-05)
(-0.000166436 0.000128382 3.12987e-05)
(-0.000186201 9.75308e-05 3.12986e-05)
(-0.000200308 6.37156e-05 3.12986e-05)
(-0.000208329 2.79645e-05 3.12985e-05)
(-0.00021002 -8.63617e-06 3.12986e-05)
(-0.00020533 -4.49745e-05 3.12988e-05)
(-0.000194401 -7.99464e-05 3.12988e-05)
(-0.000177565 -0.000112489 3.12987e-05)
(-0.000155333 -0.000141614 3.12987e-05)
(-0.000128382 -0.000166436 3.12987e-05)
(-9.75308e-05 -0.000186201 3.12986e-05)
(-6.37156e-05 -0.000200308 3.12986e-05)
(-2.79644e-05 -0.000208329 3.12985e-05)
(8.63618e-06 -0.00021002 3.12986e-05)
(4.49745e-05 -0.00020533 3.12988e-05)
(7.99464e-05 -0.000194401 3.12988e-05)
(0.000112489 -0.000177565 3.12987e-05)
(0.000141614 -0.000155333 3.12987e-05)
(0.000166436 -0.000128382 3.12987e-05)
(0.000186201 -9.75308e-05 3.12986e-05)
(0.000200308 -6.37156e-05 3.12986e-05)
(0.000208329 -2.79645e-05 3.12985e-05)
(0.00021002 8.63616e-06 3.12986e-05)
(0.00020533 4.49745e-05 3.12988e-05)
(0.000194401 7.99464e-05 3.12988e-05)
(0.000177565 0.000112489 3.12987e-05)
(0.000155333 0.000141614 3.12987e-05)
(0.000128382 0.000166436 3.12987e-05)
(9.75308e-05 0.000186201 3.12986e-05)
(3.33033e-05 0.000195498 3.42792e-05)
(-1.15051e-06 0.000198311 3.42792e-05)
(-3.55692e-05 0.000195098 3.42792e-05)
(-6.89071e-05 0.000185958 3.42793e-05)
(-0.000100152 0.000171167 3.42793e-05)
(-0.000128353 0.000151175 3.42793e-05)
(-0.000152654 0.00012659 3.42792e-05)
(-0.000172317 9.81589e-05 3.42792e-05)
(-0.000186745 6.67451e-05 3.42791e-05)
(-0.000195498 3.33033e-05 3.42792e-05)
(-0.000198311 -1.15052e-06 3.42792e-05)
(-0.000195098 -3.55692e-05 3.42792e-05)
(-0.000185958 -6.89071e-05 3.42793e-05)
(-0.000171167 -0.000100152 3.42793e-05)
(-0.000151175 -0.000128353 3.42793e-05)
(-0.00012659 -0.000152654 3.42792e-05)
(-9.81589e-05 -0.000172317 3.42792e-05)
(-6.67451e-05 -0.000186745 3.42791e-05)
(-3.33032e-05 -0.000195498 3.42792e-05)
(1.15053e-06 -0.000198311 3.42792e-05)
(3.55692e-05 -0.000195098 3.42792e-05)
(6.89071e-05 -0.000185958 3.42793e-05)
(0.000100152 -0.000171167 3.42793e-05)
(0.000128353 -0.000151175 3.42793e-05)
(0.000152654 -0.00012659 3.42792e-05)
(0.000172317 -9.81589e-05 3.42792e-05)
(0.000186745 -6.67451e-05 3.42791e-05)
(0.000195498 -3.33033e-05 3.42792e-05)
(0.000198311 1.15052e-06 3.42792e-05)
(0.000195098 3.55692e-05 3.42792e-05)
(0.000185958 6.89071e-05 3.42793e-05)
(0.000171167 0.000100152 3.42793e-05)
(0.000151175 0.000128353 3.42793e-05)
(0.00012659 0.000152654 3.42792e-05)
(9.81589e-05 0.000172317 3.42792e-05)
(6.67451e-05 0.000186745 3.42791e-05)
(-5.11719e-06 0.000188146 3.47265e-05)
(-3.77107e-05 0.0001844 3.47266e-05)
(-6.91585e-05 0.00017505 3.47266e-05)
(-9.85048e-05 0.000160381 3.47265e-05)
(-0.000124858 0.00014084 3.47266e-05)
(-0.000147418 0.000117018 3.47266e-05)
(-0.000165498 8.96416e-05 3.47266e-05)
(-0.00017855 5.95412e-05 3.47265e-05)
(-0.000186176 2.76318e-05 3.47265e-05)
(-0.000188146 -5.1172e-06 3.47265e-05)
(-0.0001844 -3.77107e-05 3.47266e-05)
(-0.00017505 -6.91585e-05 3.47266e-05)
(-0.000160381 -9.85048e-05 3.47265e-05)
(-0.00014084 -0.000124858 3.47266e-05)
(-0.000117018 -0.000147418 3.47266e-05)
(-8.96416e-05 -0.000165498 3.47266e-05)
(-5.95412e-05 -0.00017855 3.47265e-05)
(-2.76318e-05 -0.000186176 3.47265e-05)
(5.11721e-06 -0.000188146 3.47265e-05)
(3.77107e-05 -0.0001844 3.47266e-05)
(6.91585e-05 -0.00017505 3.47266e-05)
(9.85048e-05 -0.000160381 3.47265e-05)
(0.000124858 -0.00014084 3.47266e-05)
(0.000147418 -0.000117018 3.47266e-05)
(0.000165498 -8.96416e-05 3.47266e-05)
(0.00017855 -5.95412e-05 3.47265e-05)
(0.000186176 -2.76318e-05 3.47265e-05)
(0.000188146 5.1172e-06 3.47265e-05)
(0.0001844 3.77107e-05 3.47266e-05)
(0.00017505 6.91585e-05 3.47266e-05)
(0.000160381 9.85048e-05 3.47265e-05)
(0.00014084 0.000124858 3.47266e-05)
(0.000117018 0.000147418 3.47266e-05)
(8.96416e-05 0.000165498 3.47266e-05)
(5.95412e-05 0.00017855 3.47265e-05)
(2.76318e-05 0.000186176 3.47265e-05)
(0.00012561 0.000591664 0.000115806)
(2.09609e-05 0.000604488 0.000115806)
(-8.43257e-05 0.000598944 0.000115806)
(-0.00018705 0.000575202 0.000115806)
(-0.000284091 0.000533982 0.000115806)
(-0.0003725 0.000476538 0.000115806)
(-0.000449591 0.000404615 0.000115806)
(-0.000513021 0.000320397 0.000115806)
(-0.000560864 0.000226444 0.000115806)
(-0.000591664 0.00012561 0.000115806)
(-0.000604488 2.09608e-05 0.000115806)
(-0.000598944 -8.43257e-05 0.000115806)
(-0.000575202 -0.00018705 0.000115806)
(-0.000533982 -0.000284091 0.000115806)
(-0.000476538 -0.0003725 0.000115806)
(-0.000404614 -0.000449591 0.000115806)
(-0.000320397 -0.000513022 0.000115806)
(-0.000226444 -0.000560864 0.000115806)
(-0.00012561 -0.000591664 0.000115806)
(-2.09608e-05 -0.000604488 0.000115806)
(8.43257e-05 -0.000598944 0.000115806)
(0.00018705 -0.000575202 0.000115806)
(0.000284091 -0.000533982 0.000115806)
(0.0003725 -0.000476538 0.000115806)
(0.000449591 -0.000404615 0.000115806)
(0.000513022 -0.000320397 0.000115806)
(0.000560864 -0.000226444 0.000115806)
(0.000591664 -0.00012561 0.000115806)
(0.000604488 -2.09608e-05 0.000115806)
(0.000598944 8.43257e-05 0.000115806)
(0.000575202 0.00018705 0.000115806)
(0.000533982 0.000284091 0.000115806)
(0.000476538 0.0003725 0.000115806)
(0.000404615 0.000449591 0.000115806)
(0.000320397 0.000513021 0.000115806)
(0.000226444 0.000560864 0.000115806)
(8.36649e-05 0.000577865 0.000128847)
(-1.79511e-05 0.000583614 0.000128847)
(-0.000119022 0.000571631 0.000128847)
(-0.000216476 0.000542278 0.000128847)
(-0.000307353 0.000496449 0.000128847)
(-0.000388891 0.000435536 0.000128847)
(-0.000458613 0.000361388 0.000128847)
(-0.0005144 0.000276261 0.000128847)
(-0.000554557 0.000182739 0.000128847)
(-0.000577865 8.36649e-05 0.000128847)
(-0.000583614 -1.79511e-05 0.000128847)
(-0.000571631 -0.000119022 0.000128847)
(-0.000542278 -0.000216476 0.000128847)
(-0.000496449 -0.000307353 0.000128847)
(-0.000435536 -0.000388891 0.000128847)
(-0.000361388 -0.000458613 0.000128847)
(-0.000276261 -0.0005144 0.000128847)
(-0.000182739 -0.000554557 0.000128847)
(-8.36648e-05 -0.000577865 0.000128847)
(1.79512e-05 -0.000583614 0.000128847)
(0.000119022 -0.000571631 0.000128847)
(0.000216476 -0.000542278 0.000128847)
(0.000307353 -0.000496449 0.000128847)
(0.000388891 -0.000435536 0.000128847)
(0.000458613 -0.000361389 0.000128847)
(0.0005144 -0.000276261 0.000128847)
(0.000554557 -0.000182739 0.000128847)
(0.000577865 -8.36649e-05 0.000128847)
(0.000583614 1.79511e-05 0.000128847)
(0.000571631 0.000119022 0.000128847)
(0.000542279 0.000216476 0.000128847)
(0.000496449 0.000307353 0.000128847)
(0.000435536 0.000388891 0.000128847)
(0.000361389 0.000458613 0.000128847)
(0.000276261 0.0005144 0.000128847)
(0.000182739 0.000554557 0.000128847)
(3.27336e-05 0.000561356 0.000138391)
(-6.5242e-05 0.000558512 0.000138391)
(-0.000161235 0.000538698 0.000138391)
(-0.000252329 0.000502515 0.000138391)
(-0.000335757 0.000451064 0.000138391)
(-0.000408982 0.000385908 0.000138391)
(-0.000469781 0.000309026 0.000138391)
(-0.000516306 0.000222754 0.000138391)
(-0.000547143 0.000129715 0.000138391)
(-0.000561356 3.27336e-05 0.000138391)
(-0.000558512 -6.52421e-05 0.000138391)
(-0.000538698 -0.000161235 0.000138391)
(-0.000502515 -0.000252329 0.000138391)
(-0.000451064 -0.000335757 0.000138391)
(-0.000385908 -0.000408982 0.000138391)
(-0.000309026 -0.000469781 0.000138391)
(-0.000222754 -0.000516306 0.000138391)
(-0.000129715 -0.000547143 0.000138391)
(-3.27335e-05 -0.000561356 0.000138391)
(6.52421e-05 -0.000558512 0.000138391)
(0.000161235 -0.000538698 0.000138391)
(0.000252329 -0.000502515 0.000138391)
(0.000335757 -0.000451064 0.000138391)
(0.000408982 -0.000385908 0.000138391)
(0.000469781 -0.000309026 0.000138391)
(0.000516306 -0.000222755 0.000138391)
(0.000547143 -0.000129715 0.000138391)
(0.000561356 -3.27336e-05 0.000138391)
(0.000558512 6.52421e-05 0.000138391)
(0.000538698 0.000161235 0.000138391)
(0.000502515 0.000252329 0.000138391)
(0.000451064 0.000335757 0.000138391)
(0.000385908 0.000408982 0.000138391)
(0.000309026 0.000469781 0.000138391)
(0.000222755 0.000516306 0.000138391)
(0.000129715 0.000547143 0.000138391)
(0.000169198 0.000975833 0.000249083)
(-2.82411e-06 0.000990388 0.000249083)
(-0.00017476 0.000974852 0.000249083)
(-0.000341387 0.000929695 0.000249084)
(-0.00049764 0.000856289 0.000249084)
(-0.000638772 0.000756866 0.000249084)
(-0.000760496 0.000634446 0.000249084)
(-0.000859113 0.000492748 0.000249083)
(-0.000931627 0.000336079 0.000249083)
(-0.000975833 0.000169198 0.000249083)
(-0.000990388 -2.82419e-06 0.000249083)
(-0.000974852 -0.00017476 0.000249083)
(-0.000929695 -0.000341387 0.000249084)
(-0.000856289 -0.00049764 0.000249084)
(-0.000756866 -0.000638772 0.000249084)
(-0.000634446 -0.000760497 0.000249084)
(-0.000492748 -0.000859113 0.000249083)
(-0.000336079 -0.000931627 0.000249083)
(-0.000169198 -0.000975833 0.000249083)
(2.82423e-06 -0.000990388 0.000249083)
(0.00017476 -0.000974852 0.000249083)
(0.000341387 -0.000929695 0.000249084)
(0.00049764 -0.000856289 0.000249084)
(0.000638772 -0.000756866 0.000249084)
(0.000760497 -0.000634446 0.000249084)
(0.000859113 -0.000492748 0.000249083)
(0.000931627 -0.000336079 0.000249083)
(0.000975833 -0.000169198 0.000249083)
(0.000990388 2.82415e-06 0.000249083)
(0.000974852 0.00017476 0.000249083)
(0.000929695 0.000341387 0.000249084)
(0.000856289 0.00049764 0.000249084)
(0.000756866 0.000638772 0.000249084)
(0.000634446 0.000760497 0.000249084)
(0.000492748 0.000859113 0.000249083)
(0.000336079 0.000931627 0.000249083)
(0.000114715 0.000946457 0.000267842)
(-5.13783e-05 0.000951998 0.000267842)
(-0.00021591 0.000928614 0.000267842)
(-0.000373882 0.000877014 0.000267842)
(-0.000520494 0.000798765 0.000267842)
(-0.00065129 0.000696248 0.000267842)
(-0.000762298 0.000572575 0.000267842)
(-0.000850144 0.000431504 0.000267842)
(-0.000912158 0.000277323 0.000267842)
(-0.000946457 0.000114715 0.000267842)
(-0.000951998 -5.13784e-05 0.000267842)
(-0.000928614 -0.000215911 0.000267842)
(-0.000877013 -0.000373882 0.000267842)
(-0.000798765 -0.000520494 0.000267842)
(-0.000696248 -0.00065129 0.000267842)
(-0.000572575 -0.000762298 0.000267842)
(-0.000431504 -0.000850144 0.000267842)
(-0.000277323 -0.000912158 0.000267842)
(-0.000114715 -0.000946457 0.000267842)
(5.13784e-05 -0.000951999 0.000267842)
(0.000215911 -0.000928614 0.000267842)
(0.000373882 -0.000877014 0.000267842)
(0.000520494 -0.000798765 0.000267842)
(0.00065129 -0.000696248 0.000267842)
(0.000762298 -0.000572575 0.000267842)
(0.000850144 -0.000431504 0.000267842)
(0.000912158 -0.000277323 0.000267842)
(0.000946457 -0.000114715 0.000267842)
(0.000951999 5.13783e-05 0.000267842)
(0.000928614 0.00021591 0.000267842)
(0.000877014 0.000373882 0.000267842)
(0.000798766 0.000520494 0.000267842)
(0.000696248 0.00065129 0.000267842)
(0.000572575 0.000762298 0.000267842)
(0.000431504 0.000850144 0.000267842)
(0.000277323 0.000912158 0.000267842)
(5.20449e-05 0.000913658 0.000283267)
(-0.000107401 0.000908815 0.000283267)
(-0.000263583 0.000876358 0.000283267)
(-0.000411756 0.000817274 0.000283267)
(-0.000547419 0.000733357 0.000283267)
(-0.000666449 0.000627157 0.000283267)
(-0.000765228 0.000501901 0.000283267)
(-0.000840757 0.000361396 0.000283267)
(-0.00089074 0.000209909 0.000283267)
(-0.000913658 5.20448e-05 0.000283267)
(-0.000908815 -0.000107401 0.000283267)
(-0.000876358 -0.000263583 0.000283267)
(-0.000817274 -0.000411756 0.000283267)
(-0.000733357 -0.000547419 0.000283267)
(-0.000627157 -0.000666449 0.000283267)
(-0.000501901 -0.000765228 0.000283267)
(-0.000361396 -0.000840757 0.000283267)
(-0.000209909 -0.00089074 0.000283267)
(-5.20448e-05 -0.000913658 0.000283267)
(0.000107401 -0.000908815 0.000283267)
(0.000263583 -0.000876358 0.000283267)
(0.000411756 -0.000817274 0.000283267)
(0.000547419 -0.000733357 0.000283267)
(0.000666449 -0.000627157 0.000283267)
(0.000765228 -0.000501901 0.000283267)
(0.000840757 -0.000361396 0.000283267)
(0.00089074 -0.000209909 0.000283267)
(0.000913658 -5.20448e-05 0.000283267)
(0.000908815 0.000107401 0.000283267)
(0.000876358 0.000263583 0.000283267)
(0.000817274 0.000411756 0.000283267)
(0.000733357 0.000547419 0.000283267)
(0.000627157 0.000666449 0.000283267)
(0.000501901 0.000765228 0.000283267)
(0.000361396 0.000840757 0.000283267)
(0.000209909 0.00089074 0.000283267)
(0.000182155 0.00134432 0.000416085)
(-5.40508e-05 0.00135553 0.000416085)
(-0.000288615 0.00132555 0.000416085)
(-0.000514409 0.00125529 0.000416085)
(-0.000724572 0.0011469 0.000416086)
(-0.000912721 0.00100365 0.000416086)
(-0.00107314 0.000829911 0.000416085)
(-0.00120095 0.000630954 0.000416085)
(-0.00129227 0.000412826 0.000416085)
(-0.00134432 0.000182155 0.000416085)
(-0.00135553 -5.40509e-05 0.000416085)
(-0.00132555 -0.000288615 0.000416085)
(-0.00125529 -0.000514409 0.000416085)
(-0.0011469 -0.000724573 0.000416085)
(-0.00100365 -0.000912721 0.000416086)
(-0.000829911 -0.00107314 0.000416085)
(-0.000630954 -0.00120095 0.000416085)
(-0.000412826 -0.00129227 0.000416085)
(-0.000182155 -0.00134432 0.000416085)
(5.4051e-05 -0.00135553 0.000416085)
(0.000288615 -0.00132555 0.000416085)
(0.000514409 -0.00125529 0.000416085)
(0.000724573 -0.0011469 0.000416085)
(0.000912721 -0.00100365 0.000416086)
(0.00107314 -0.000829911 0.000416085)
(0.00120095 -0.000630954 0.000416085)
(0.00129227 -0.000412826 0.000416085)
(0.00134432 -0.000182155 0.000416085)
(0.00135553 5.40508e-05 0.000416085)
(0.00132555 0.000288615 0.000416085)
(0.00125529 0.000514409 0.000416085)
(0.0011469 0.000724573 0.000416086)
(0.00100365 0.000912721 0.000416086)
(0.000829911 0.00107314 0.000416085)
(0.000630954 0.00120095 0.000416085)
(0.000412826 0.00129227 0.000416085)
(0.000120541 0.00129211 0.000437046)
(-0.000105664 0.00129342 0.000437046)
(-0.000328658 0.00125542 0.000437046)
(-0.000541665 0.00117927 0.000437046)
(-0.000738214 0.0010673 0.000437046)
(-0.000912334 0.000922894 0.000437046)
(-0.00105873 0.000750448 0.000437046)
(-0.00117296 0.0005552 0.000437046)
(-0.00125155 0.000343083 0.000437046)
(-0.00129211 0.000120541 0.000437046)
(-0.00129342 -0.000105664 0.000437046)
(-0.00125542 -0.000328658 0.000437046)
(-0.00117927 -0.000541665 0.000437046)
(-0.0010673 -0.000738215 0.000437046)
(-0.000922894 -0.000912334 0.000437046)
(-0.000750448 -0.00105873 0.000437046)
(-0.0005552 -0.00117296 0.000437046)
(-0.000343082 -0.00125155 0.000437046)
(-0.000120541 -0.00129211 0.000437046)
(0.000105664 -0.00129342 0.000437046)
(0.000328658 -0.00125542 0.000437046)
(0.000541665 -0.00117927 0.000437046)
(0.000738215 -0.0010673 0.000437046)
(0.000912334 -0.000922894 0.000437046)
(0.00105873 -0.000750448 0.000437046)
(0.00117296 -0.0005552 0.000437046)
(0.00125155 -0.000343083 0.000437046)
(0.00129211 -0.000120541 0.000437046)
(0.00129342 0.000105664 0.000437046)
(0.00125542 0.000328658 0.000437046)
(0.00117927 0.000541665 0.000437046)
(0.0010673 0.000738214 0.000437046)
(0.000922894 0.000912334 0.000437046)
(0.000750448 0.00105873 0.000437046)
(0.0005552 0.00117296 0.000437046)
(0.000343083 0.00125155 0.000437046)
(5.16614e-05 0.00123633 0.000454592)
(-0.000163809 0.00122652 0.000454592)
(-0.000374303 0.00117944 0.000454592)
(-0.000573423 0.00109652 0.000454592)
(-0.00075512 0.000980289 0.000454592)
(-0.000913873 0.000834271 0.000454592)
(-0.00104486 0.000662904 0.000454592)
(-0.0011441 0.000471395 0.000454592)
(-0.00120857 0.000265563 0.000454592)
(-0.00123633 5.16613e-05 0.000454592)
(-0.00122652 -0.000163809 0.000454592)
(-0.00117944 -0.000374303 0.000454592)
(-0.00109652 -0.000573423 0.000454592)
(-0.000980289 -0.00075512 0.000454592)
(-0.000834271 -0.000913873 0.000454592)
(-0.000662904 -0.00104486 0.000454592)
(-0.000471395 -0.0011441 0.000454592)
(-0.000265562 -0.00120857 0.000454592)
(-5.16613e-05 -0.00123633 0.000454592)
(0.00016381 -0.00122652 0.000454592)
(0.000374303 -0.00117944 0.000454592)
(0.000573423 -0.00109652 0.000454592)
(0.00075512 -0.000980289 0.000454592)
(0.000913873 -0.000834271 0.000454592)
(0.00104486 -0.000662904 0.000454592)
(0.0011441 -0.000471395 0.000454592)
(0.00120857 -0.000265563 0.000454592)
(0.00123633 -5.16613e-05 0.000454592)
(0.00122652 0.000163809 0.000454592)
(0.00117944 0.000374303 0.000454592)
(0.00109652 0.000573423 0.000454592)
(0.000980289 0.00075512 0.000454592)
(0.000834271 0.000913873 0.000454592)
(0.000662904 0.00104486 0.000454592)
(0.000471395 0.0011441 0.000454592)
(0.000265563 0.00120857 0.000454592)
(0.000164108 0.00168785 0.000608624)
(-0.000131478 0.00169071 0.000608624)
(-0.000423069 0.00164219 0.000608624)
(-0.000701804 0.00154378 0.000608624)
(-0.000959216 0.00139846 0.000608624)
(-0.00118748 0.00121064 0.000608624)
(-0.00137967 0.000986048 0.000608624)
(-0.00152993 0.00073149 0.000608624)
(-0.00163371 0.000454707 0.000608624)
(-0.00168785 0.000164108 0.000608624)
(-0.00169071 -0.000131478 0.000608624)
(-0.00164219 -0.000423069 0.000608624)
(-0.00154378 -0.000701804 0.000608624)
(-0.00139846 -0.000959216 0.000608624)
(-0.00121064 -0.00118748 0.000608624)
(-0.000986048 -0.00137967 0.000608624)
(-0.00073149 -0.00152993 0.000608624)
(-0.000454707 -0.00163371 0.000608624)
(-0.000164108 -0.00168785 0.000608624)
(0.000131478 -0.00169071 0.000608624)
(0.000423069 -0.00164219 0.000608624)
(0.000701804 -0.00154378 0.000608624)
(0.000959216 -0.00139846 0.000608624)
(0.00118748 -0.00121064 0.000608624)
(0.00137967 -0.000986048 0.000608624)
(0.00152993 -0.00073149 0.000608624)
(0.00163371 -0.000454707 0.000608624)
(0.00168785 -0.000164108 0.000608624)
(0.00169071 0.000131478 0.000608624)
(0.00164219 0.000423069 0.000608624)
(0.00154378 0.000701804 0.000608624)
(0.00139846 0.000959216 0.000608624)
(0.00121064 0.00118748 0.000608624)
(0.000986048 0.00137967 0.000608624)
(0.00073149 0.00152993 0.000608624)
(0.000454707 0.00163371 0.000608624)
(0.000100418 0.00160636 0.000628467)
(-0.000180049 0.00159939 0.000628467)
(-0.000455045 0.00154383 0.000628467)
(-0.000716215 0.00144136 0.000628467)
(-0.000955623 0.00129509 0.000628467)
(-0.00116599 0.00110947 0.000628467)
(-0.00134094 0.000890144 0.000628467)
(-0.00147514 0.00064377 0.000628467)
(-0.00156452 0.000377834 0.000628467)
(-0.00160636 0.000100418 0.000628467)
(-0.00159939 -0.000180049 0.000628467)
(-0.00154383 -0.000455045 0.000628467)
(-0.00144136 -0.000716215 0.000628467)
(-0.00129509 -0.000955623 0.000628467)
(-0.00110947 -0.00116599 0.000628467)
(-0.000890144 -0.00134094 0.000628467)
(-0.00064377 -0.00147514 0.000628467)
(-0.000377834 -0.00156452 0.000628467)
(-0.000100418 -0.00160636 0.000628467)
(0.00018005 -0.00159939 0.000628467)
(0.000455046 -0.00154383 0.000628467)
(0.000716215 -0.00144136 0.000628467)
(0.000955623 -0.00129509 0.000628467)
(0.00116599 -0.00110947 0.000628467)
(0.00134094 -0.000890145 0.000628467)
(0.00147514 -0.00064377 0.000628467)
(0.00156452 -0.000377834 0.000628467)
(0.00160636 -0.000100418 0.000628467)
(0.00159939 0.000180049 0.000628467)
(0.00154383 0.000455045 0.000628467)
(0.00144136 0.000716215 0.000628467)
(0.00129509 0.000955623 0.000628467)
(0.00110947 0.00116599 0.000628467)
(0.000890145 0.00134094 0.000628467)
(0.00064377 0.00147514 0.000628467)
(0.000377834 0.00156452 0.000628467)
(3.03511e-05 0.00152162 0.000644796)
(-0.000234336 0.00150377 0.000644796)
(-0.000491904 0.00144024 0.000644796)
(-0.000734525 0.00133294 0.000644796)
(-0.000954827 0.00118514 0.000644796)
(-0.00114612 0.00100133 0.000644796)
(-0.00130258 0.000787095 0.000644796)
(-0.00141947 0.000548945 0.000644796)
(-0.00149323 0.000294117 0.000644796)
(-0.00152162 3.03509e-05 0.000644796)
(-0.00150377 -0.000234337 0.000644796)
(-0.00144024 -0.000491904 0.000644796)
(-0.00133294 -0.000734525 0.000644796)
(-0.00118514 -0.000954827 0.000644796)
(-0.00100133 -0.00114612 0.000644796)
(-0.000787095 -0.00130259 0.000644796)
(-0.000548945 -0.00141947 0.000644796)
(-0.000294117 -0.00149323 0.000644796)
(-3.03509e-05 -0.00152162 0.000644796)
(0.000234337 -0.00150377 0.000644796)
(0.000491904 -0.00144024 0.000644796)
(0.000734525 -0.00133294 0.000644796)
(0.000954828 -0.00118514 0.000644796)
(0.00114612 -0.00100133 0.000644796)
(0.00130259 -0.000787095 0.000644796)
(0.00141947 -0.000548946 0.000644796)
(0.00149323 -0.000294117 0.000644796)
(0.00152162 -3.0351e-05 0.000644796)
(0.00150377 0.000234336 0.000644796)
(0.00144024 0.000491904 0.000644796)
(0.00133294 0.000734525 0.000644796)
(0.00118514 0.000954827 0.000644796)
(0.00100133 0.00114612 0.000644796)
(0.000787095 0.00130259 0.000644796)
(0.000548946 0.00141947 0.000644796)
(0.000294117 0.00149323 0.000644796)
(0.000118495 0.00199666 0.000821007)
(-0.000230022 0.00198691 0.000821006)
(-0.00057155 0.00191678 0.000821006)
(-0.000895711 0.00178841 0.000821006)
(-0.00119266 0.0016057 0.000821006)
(-0.00145336 0.0013742 0.000821006)
(-0.00166991 0.00110095 0.000821006)
(-0.00183572 0.000794248 0.000821007)
(-0.00194575 0.000463412 0.000821007)
(-0.00199666 0.000118495 0.000821006)
(-0.00198691 -0.000230022 0.000821006)
(-0.00191678 -0.00057155 0.000821006)
(-0.00178841 -0.000895711 0.000821006)
(-0.0016057 -0.00119266 0.000821006)
(-0.0013742 -0.00145336 0.000821006)
(-0.00110095 -0.00166991 0.000821006)
(-0.000794248 -0.00183572 0.000821007)
(-0.000463412 -0.00194575 0.000821007)
(-0.000118495 -0.00199666 0.000821006)
(0.000230022 -0.00198691 0.000821006)
(0.00057155 -0.00191678 0.000821006)
(0.000895711 -0.00178841 0.000821006)
(0.00119266 -0.0016057 0.000821006)
(0.00145336 -0.0013742 0.000821006)
(0.00166991 -0.00110095 0.000821006)
(0.00183572 -0.000794248 0.000821007)
(0.00194575 -0.000463412 0.000821007)
(0.00199666 -0.000118495 0.000821007)
(0.00198691 0.000230022 0.000821006)
(0.00191678 0.00057155 0.000821006)
(0.00178841 0.000895711 0.000821006)
(0.0016057 0.00119266 0.000821006)
(0.0013742 0.00145336 0.000821006)
(0.00110095 0.00166991 0.000821006)
(0.000794248 0.00183572 0.000821007)
(0.000463412 0.00194575 0.000821007)
(5.70898e-05 0.00188077 0.000836547)
(-0.000270371 0.00186211 0.000836547)
(-0.000589616 0.00178688 0.000836547)
(-0.000890945 0.00165734 0.000836547)
(-0.0011652 0.00147745 0.000836547)
(-0.00140406 0.00125267 0.000836547)
(-0.00160025 0.000989828 0.000836547)
(-0.00174782 0.00069691 0.000836547)
(-0.00184229 0.000382815 0.000836547)
(-0.00188077 5.70896e-05 0.000836547)
(-0.00186211 -0.000270371 0.000836547)
(-0.00178688 -0.000589616 0.000836547)
(-0.00165734 -0.000890946 0.000836547)
(-0.00147745 -0.0011652 0.000836547)
(-0.00125267 -0.00140406 0.000836547)
(-0.000989828 -0.00160025 0.000836547)
(-0.00069691 -0.00174782 0.000836547)
(-0.000382815 -0.00184229 0.000836547)
(-5.70895e-05 -0.00188077 0.000836547)
(0.000270371 -0.00186211 0.000836547)
(0.000589616 -0.00178688 0.000836547)
(0.000890946 -0.00165734 0.000836547)
(0.0011652 -0.00147745 0.000836547)
(0.00140406 -0.00125267 0.000836547)
(0.00160025 -0.000989829 0.000836547)
(0.00174782 -0.00069691 0.000836547)
(0.00184229 -0.000382815 0.000836547)
(0.00188077 -5.70897e-05 0.000836547)
(0.00186211 0.000270371 0.000836547)
(0.00178688 0.000589616 0.000836547)
(0.00165734 0.000890945 0.000836547)
(0.00147745 0.0011652 0.000836547)
(0.00125267 0.00140406 0.000836547)
(0.000989829 0.00160025 0.000836547)
(0.00069691 0.00174782 0.000836547)
(0.000382815 0.00184229 0.000836547)
(-9.77425e-06 0.00176237 0.000848455)
(-0.000315658 0.00173389 0.000848455)
(-0.000611949 0.00165274 0.000848455)
(-0.000889647 0.00152137 0.000848455)
(-0.00114031 0.00134377 0.000848455)
(-0.00135633 0.00112534 0.000848455)
(-0.00153114 0.000872718 0.000848455)
(-0.00165942 0.00059358 0.000848455)
(-0.00173729 0.000296406 0.000848455)
(-0.00176237 -9.7744e-06 0.000848455)
(-0.00173389 -0.000315658 0.000848455)
(-0.00165274 -0.00061195 0.000848455)
(-0.00152137 -0.000889647 0.000848455)
(-0.00134377 -0.00114031 0.000848455)
(-0.00112534 -0.00135633 0.000848455)
(-0.000872718 -0.00153114 0.000848455)
(-0.00059358 -0.00165942 0.000848455)
(-0.000296406 -0.00173729 0.000848455)
(9.7745e-06 -0.00176237 0.000848455)
(0.000315658 -0.00173389 0.000848455)
(0.00061195 -0.00165274 0.000848455)
(0.000889647 -0.00152137 0.000848455)
(0.00114031 -0.00134377 0.000848455)
(0.00135633 -0.00112534 0.000848455)
(0.00153114 -0.000872718 0.000848455)
(0.00165942 -0.00059358 0.000848455)
(0.00173729 -0.000296406 0.000848455)
(0.00176237 9.77433e-06 0.000848455)
(0.00173389 0.000315658 0.000848455)
(0.00165274 0.00061195 0.000848455)
(0.00152137 0.000889647 0.000848455)
(0.00134377 0.00114031 0.000848455)
(0.00112534 0.00135633 0.000848455)
(0.000872718 0.00153114 0.000848455)
(0.00059358 0.00165942 0.000848455)
(0.000296406 0.00173729 0.000848455)
(5.15117e-05 0.00226096 0.00105043)
(-0.000341883 0.00223556 0.00105043)
(-0.000724889 0.00214223 0.00105043)
(-0.00108587 0.00198381 0.00105043)
(-0.00141386 0.00176511 0.00105043)
(-0.00169889 0.00149278 0.00105043)
(-0.00193229 0.00117509 0.00105043)
(-0.00210699 0.000821699 0.00105043)
(-0.00221767 0.00044334 0.00105043)
(-0.00226096 5.15115e-05 0.00105043)
(-0.00223556 -0.000341883 0.00105043)
(-0.00214223 -0.00072489 0.00105043)
(-0.00198381 -0.00108587 0.00105043)
(-0.00176511 -0.00141386 0.00105043)
(-0.00149278 -0.00169889 0.00105043)
(-0.00117509 -0.00193229 0.00105043)
(-0.000821699 -0.00210699 0.00105043)
(-0.00044334 -0.00221767 0.00105043)
(-5.15114e-05 -0.00226096 0.00105043)
(0.000341883 -0.00223556 0.00105043)
(0.00072489 -0.00214223 0.00105043)
(0.00108587 -0.00198381 0.00105043)
(0.00141386 -0.00176511 0.00105043)
(0.00169889 -0.00149278 0.00105043)
(0.00193229 -0.00117509 0.00105043)
(0.00210699 -0.000821699 0.00105043)
(0.00221767 -0.00044334 0.00105043)
(0.00226096 -5.15116e-05 0.00105043)
(0.00223556 0.000341883 0.00105043)
(0.00214223 0.00072489 0.00105043)
(0.00198381 0.00108587 0.00105043)
(0.00176511 0.00141386 0.00105043)
(0.00149278 0.00169889 0.00105043)
(0.00117509 0.00193229 0.00105043)
(0.000821699 0.00210699 0.00105043)
(0.00044334 0.00221767 0.00105043)
(-3.91652e-06 0.00210682 0.00105846)
(-0.000369703 0.00207414 0.00105846)
(-0.000724256 0.00197843 0.00105846)
(-0.0010568 0.0018226 0.00105846)
(-0.00135724 0.0016114 0.00105846)
(-0.00161644 0.00135124 0.00105846)
(-0.00182652 0.00105002 0.00105846)
(-0.0019811 0.000716895 0.00105846)
(-0.0020755 0.000361988 0.00105846)
(-0.00210682 -3.9167e-06 0.00105846)
(-0.00207414 -0.000369703 0.00105846)
(-0.00197843 -0.000724256 0.00105846)
(-0.0018226 -0.0010568 0.00105846)
(-0.0016114 -0.00135724 0.00105846)
(-0.00135124 -0.00161644 0.00105846)
(-0.00105002 -0.00182652 0.00105846)
(-0.000716895 -0.0019811 0.00105846)
(-0.000361988 -0.0020755 0.00105846)
(3.91683e-06 -0.00210682 0.00105846)
(0.000369704 -0.00207414 0.00105846)
(0.000724256 -0.00197843 0.00105846)
(0.0010568 -0.0018226 0.00105846)
(0.00135724 -0.0016114 0.00105846)
(0.00161644 -0.00135124 0.00105846)
(0.00182652 -0.00105002 0.00105846)
(0.0019811 -0.000716896 0.00105846)
(0.0020755 -0.000361988 0.00105846)
(0.00210682 3.91661e-06 0.00105846)
(0.00207414 0.000369703 0.00105846)
(0.00197843 0.000724256 0.00105846)
(0.0018226 0.0010568 0.00105846)
(0.0016114 0.00135724 0.00105846)
(0.00135124 0.00161644 0.00105846)
(0.00105002 0.00182652 0.00105846)
(0.000716896 0.0019811 0.00105846)
(0.000361988 0.0020755 0.00105846)
(-6.37725e-05 0.00195127 0.0010627)
(-0.000401637 0.00191055 0.0010627)
(-0.000727299 0.00181178 0.0010627)
(-0.00103086 0.00165796 0.0010627)
(-0.0013031 0.00145376 0.0010627)
(-0.00153575 0.0012054 0.0010627)
(-0.00172173 0.000920405 0.0010627)
(-0.0018554 0.000607446 0.0010627)
(-0.0019327 0.000276031 0.0010627)
(-0.00195127 -6.37726e-05 0.0010627)
(-0.00191055 -0.000401637 0.0010627)
(-0.00181178 -0.000727299 0.0010627)
(-0.00165796 -0.00103086 0.0010627)
(-0.00145376 -0.0013031 0.0010627)
(-0.0012054 -0.00153575 0.0010627)
(-0.000920405 -0.00172173 0.0010627)
(-0.000607446 -0.0018554 0.0010627)
(-0.000276031 -0.0019327 0.0010627)
(6.37727e-05 -0.00195127 0.0010627)
(0.000401638 -0.00191055 0.0010627)
(0.000727299 -0.00181178 0.0010627)
(0.00103086 -0.00165796 0.0010627)
(0.0013031 -0.00145376 0.0010627)
(0.00153575 -0.0012054 0.0010627)
(0.00172173 -0.000920405 0.0010627)
(0.0018554 -0.000607446 0.0010627)
(0.0019327 -0.000276031 0.0010627)
(0.00195127 6.37725e-05 0.0010627)
(0.00191055 0.000401637 0.0010627)
(0.00181178 0.000727299 0.0010627)
(0.00165796 0.00103086 0.0010627)
(0.00145376 0.0013031 0.0010627)
(0.0012054 0.00153575 0.0010627)
(0.000920405 0.00172173 0.0010627)
(0.000607447 0.0018554 0.0010627)
(0.000276031 0.0019327 0.0010627)
(-2.85835e-05 0.0024706 0.00129608)
(-0.000457165 0.00242811 0.00129608)
(-0.000871856 0.00231183 0.00129608)
(-0.00126006 0.00212531 0.00129608)
(-0.00160997 0.00187422 0.00129608)
(-0.00191096 0.00156618 0.00129608)
(-0.0021539 0.00121055 0.00129608)
(-0.00233138 0.000818135 0.00129608)
(-0.00243803 0.000400865 0.00129608)
(-0.0024706 -2.85837e-05 0.00129608)
(-0.00242811 -0.000457165 0.00129608)
(-0.00231183 -0.000871856 0.00129608)