/*--------------------------------*- C++ -*----------------------------------*\
| =========                 |                                                 |
| \\      /  F ield         | OpenFOAM: The Open Source CFD Toolbox           |
|  \\    /   O peration     | Version:  2312                                  |
|   \\  /    A nd           | Website:  www.openfoam.com                      |
|    \\/     M anipulation  |                                                 |
\*---------------------------------------------------------------------------*/
FoamFile
{
    version     2.0;
    format      ascii;
    arch        "LSB;label=32;scalar=64";
    class       volVectorField;
    location    "0.2";
    object      D_0_0;
}
// * * * * * * * * * * * * * * * * * * * * * * * * * * * * * * * * * * * * * //

dimensions      [0 1 0 0 0 0 0];

internalField   nonuniform List<vector> 
1620
(
(5.91719e-05 0.000189445 2.92807e-05)
(2.53762e-05 0.000196841 2.92807e-05)
(-9.19034e-06 0.000198258 2.92807e-05)
(-4.34778e-05 0.00019365 2.92809e-05)
(-7.64443e-05 0.000183158 2.92809e-05)
(-0.000107088 0.000167101 2.92808e-05)
(-0.000134478 0.000145967 2.92808e-05)
(-0.000157782 0.000120397 2.92808e-05)
(-0.000176291 9.11697e-05 2.92807e-05)
(-0.000189445 5.91719e-05 2.92807e-05)
(-0.000196841 2.53762e-05 2.92806e-05)
(-0.000198258 -9.19036e-06 2.92807e-05)
(-0.00019365 -4.34778e-05 2.92809e-05)
(-0.000183158 -7.64443e-05 2.92809e-05)
(-0.000167101 -0.000107088 2.92808e-05)
(-0.000145967 -0.000134478 2.92808e-05)
(-0.000120397 -0.000157782 2.92808e-05)
(-9.11697e-05 -0.000176291 2.92807e-05)
(-5.91719e-05 -0.000189445 2.92807e-05)
(-2.53762e-05 -0.000196841 2.92806e-05)
(9.19037e-06 -0.000198258 2.92807e-05)
(4.34778e-05 -0.00019365 2.92809e-05)
(7.64443e-05 -0.000183158 2.92809e-05)
(0.000107088 -0.000167101 2.92808e-05)
(0.000134478 -0.000145967 2.92808e-05)
(0.000157782 -0.000120397 2.92808e-05)
(0.000176291 -9.11697e-05 2.92807e-05)
(0.000189445 -5.91719e-05 2.92807e-05)
(0.000196841 -2.53762e-05 2.92807e-05)
(0.000198258 9.19035e-06 2.92807e-05)
(0.00019365 4.34778e-05 2.92809e-05)
(0.000183158 7.64443e-05 2.92809e-05)
(0.000167101 0.000107088 2.92808e-05)
(0.000145967 0.000134478 2.92808e-05)
(0.000120397 0.000157782 2.92808e-05)
(9.11697e-05 0.000176291 2.92807e-05)
(3.12597e-05 0.000183487 3.15882e-05)
(-1.07734e-06 0.000186127 3.15882e-05)
(-3.33815e-05 0.000183112 3.15883e-05)
(-6.46714e-05 0.000174534 3.15883e-05)
(-9.39966e-05 0.000160652 3.15884e-05)
(-0.000120465 0.000141889 3.15883e-05)
(-0.000143274 0.000118815 3.15883e-05)
(-0.00016173 9.21306e-05 3.15882e-05)
(-0.000175271 6.26469e-05 3.15882e-05)
(-0.000183487 3.12597e-05 3.15882e-05)
(-0.000186127 -1.07736e-06 3.15882e-05)
(-0.000183112 -3.33815e-05 3.15883e-05)
(-0.000174534 -6.46714e-05 3.15883e-05)
(-0.000160652 -9.39966e-05 3.15884e-05)
(-0.000141889 -0.000120465 3.15883e-05)
(-0.000118815 -0.000143274 3.15883e-05)
(-9.21306e-05 -0.00016173 3.15882e-05)
(-6.26469e-05 -0.000175271 3.15882e-05)
(-3.12597e-05 -0.000183487 3.15882e-05)
(1.07736e-06 -0.000186127 3.15882e-05)
(3.33815e-05 -0.000183112 3.15883e-05)
(6.46714e-05 -0.000174534 3.15883e-05)
(9.39966e-05 -0.000160653 3.15884e-05)
(0.000120465 -0.000141889 3.15883e-05)
(0.000143274 -0.000118815 3.15883e-05)
(0.00016173 -9.21306e-05 3.15882e-05)
(0.000175271 -6.26469e-05 3.15882e-05)
(0.000183487 -3.12597e-05 3.15882e-05)
(0.000186127 1.07735e-06 3.15882e-05)
(0.000183112 3.33815e-05 3.15883e-05)
(0.000174534 6.46714e-05 3.15883e-05)
(0.000160653 9.39966e-05 3.15884e-05)
(0.000141889 0.000120465 3.15883e-05)
(0.000118815 0.000143274 3.15883e-05)
(9.21306e-05 0.00016173 3.15882e-05)
(6.26469e-05 0.000175271 3.15882e-05)
(-3.64538e-06 0.000175334 3.17122e-05)
(-3.40364e-05 0.000172037 3.17123e-05)
(-6.33932e-05 0.000163513 3.17123e-05)
(-9.08238e-05 0.000150021 3.17123e-05)
(-0.000115495 0.000131971 3.17123e-05)
(-0.000136657 0.00010991 3.17123e-05)
(-0.000153666 8.45099e-05 3.17123e-05)
(-0.000166007 5.65421e-05 3.17122e-05)
(-0.000173303 2.68563e-05 3.17122e-05)
(-0.000175334 -3.64539e-06 3.17122e-05)
(-0.000172037 -3.40364e-05 3.17123e-05)
(-0.000163513 -6.33933e-05 3.17123e-05)
(-0.000150021 -9.08239e-05 3.17123e-05)
(-0.000131971 -0.000115495 3.17123e-05)
(-0.00010991 -0.000136657 3.17123e-05)
(-8.45099e-05 -0.000153666 3.17123e-05)
(-5.65421e-05 -0.000166007 3.17122e-05)
(-2.68563e-05 -0.000173303 3.17122e-05)
(3.6454e-06 -0.000175334 3.17122e-05)
(3.40364e-05 -0.000172037 3.17123e-05)
(6.33933e-05 -0.000163513 3.17123e-05)
(9.08239e-05 -0.000150021 3.17123e-05)
(0.000115495 -0.000131971 3.17123e-05)
(0.000136657 -0.00010991 3.17123e-05)
(0.000153666 -8.45099e-05 3.17123e-05)
(0.000166007 -5.65421e-05 3.17122e-05)
(0.000173303 -2.68563e-05 3.17122e-05)
(0.000175334 3.64539e-06 3.17122e-05)
(0.000172037 3.40364e-05 3.17123e-05)
(0.000163513 6.33932e-05 3.17123e-05)
(0.000150021 9.08239e-05 3.17123e-05)
(0.000131971 0.000115495 3.17123e-05)
(0.00010991 0.000136657 3.17123e-05)
(8.45099e-05 0.000153666 3.17123e-05)
(5.65421e-05 0.000166007 3.17122e-05)
(2.68563e-05 0.000173303 3.17122e-05)
(0.000116861 0.000559577 0.000107987)
(1.79158e-05 0.000571369 0.000107987)
(-8.15733e-05 0.000565799 0.000107987)
(-0.000178584 0.000543038 0.000107988)
(-0.000270168 0.000503778 0.000107988)
(-0.000353544 0.00044921 0.000107988)
(-0.000426178 0.000380993 0.000107988)
(-0.000485862 0.0003012 0.000107988)
(-0.000530783 0.000212255 0.000107987)
(-0.000559577 0.000116861 0.000107987)
(-0.000571369 1.79158e-05 0.000107987)
(-0.000565799 -8.15734e-05 0.000107987)
(-0.000543038 -0.000178584 0.000107988)
(-0.000503778 -0.000270168 0.000107988)
(-0.00044921 -0.000353544 0.000107988)
(-0.000380993 -0.000426178 0.000107988)
(-0.0003012 -0.000485862 0.000107988)
(-0.000212255 -0.000530783 0.000107987)
(-0.000116861 -0.000559577 0.000107987)
(-1.79158e-05 -0.000571369 0.000107987)
(8.15734e-05 -0.000565799 0.000107987)
(0.000178584 -0.000543038 0.000107988)
(0.000270168 -0.000503778 0.000107988)
(0.000353544 -0.00044921 0.000107988)
(0.000426178 -0.000380993 0.000107988)
(0.000485862 -0.0003012 0.000107988)
(0.000530783 -0.000212255 0.000107987)
(0.000559577 -0.000116861 0.000107987)
(0.000571369 -1.79158e-05 0.000107987)
(0.000565799 8.15733e-05 0.000107987)
(0.000543038 0.000178584 0.000107988)
(0.000503778 0.000270168 0.000107988)
(0.00044921 0.000353544 0.000107988)
(0.000380993 0.000426178 0.000107988)
(0.0003012 0.000485862 0.000107988)
(0.000212255 0.000530783 0.000107987)
(7.91031e-05 0.000542542 0.000118884)
(-1.63099e-05 0.000548035 0.000118884)
(-0.000111228 0.000536878 0.000118884)
(-0.000202765 0.000509407 0.000118885)
(-0.000288143 0.000466458 0.000118885)
(-0.000364765 0.000409336 0.000118885)
(-0.000430303 0.000339776 0.000118885)
(-0.000482768 0.000259893 0.000118884)
(-0.000520563 0.000172113 0.000118884)
(-0.000542542 7.9103e-05 0.000118884)
(-0.000548035 -1.631e-05 0.000118884)
(-0.000536878 -0.000111228 0.000118884)
(-0.000509407 -0.000202765 0.000118885)
(-0.000466458 -0.000288143 0.000118885)
(-0.000409336 -0.000364765 0.000118885)
(-0.000339776 -0.000430303 0.000118885)
(-0.000259893 -0.000482768 0.000118884)
(-0.000172113 -0.000520563 0.000118884)
(-7.9103e-05 -0.000542542 0.000118884)
(1.631e-05 -0.000548036 0.000118884)
(0.000111228 -0.000536878 0.000118884)
(0.000202765 -0.000509407 0.000118885)
(0.000288143 -0.000466458 0.000118885)
(0.000364765 -0.000409336 0.000118885)
(0.000430303 -0.000339776 0.000118885)
(0.000482768 -0.000259893 0.000118884)
(0.000520563 -0.000172113 0.000118884)
(0.000542542 -7.9103e-05 0.000118884)
(0.000548036 1.631e-05 0.000118884)
(0.000536878 0.000111228 0.000118884)
(0.000509407 0.000202765 0.000118885)
(0.000466458 0.000288143 0.000118885)
(0.000409336 0.000364765 0.000118885)
(0.000339776 0.000430303 0.000118885)
(0.000259893 0.000482768 0.000118884)
(0.000172113 0.000520563 0.000118884)
(3.35242e-05 0.000523208 0.000126788)
(-5.78391e-05 0.00052108 0.000126788)
(-0.000147445 0.00050312 0.000126788)
(-0.000232571 0.000469873 0.000126788)
(-0.00031063 0.000422349 0.000126788)
(-0.000379251 0.000361992 0.000126788)
(-0.000436349 0.000290636 0.000126788)
(-0.000480188 0.00021045 0.000126788)
(-0.000509437 0.000123869 0.000126788)
(-0.000523208 3.35242e-05 0.000126788)
(-0.00052108 -5.78391e-05 0.000126788)
(-0.00050312 -0.000147445 0.000126788)
(-0.000469873 -0.000232571 0.000126788)
(-0.000422349 -0.00031063 0.000126788)
(-0.000361992 -0.000379251 0.000126788)
(-0.000290636 -0.000436349 0.000126788)
(-0.00021045 -0.000480188 0.000126788)
(-0.000123869 -0.000509437 0.000126788)
(-3.35242e-05 -0.000523208 0.000126788)
(5.78392e-05 -0.00052108 0.000126788)
(0.000147445 -0.00050312 0.000126788)
(0.000232571 -0.000469873 0.000126788)
(0.00031063 -0.000422349 0.000126788)
(0.000379251 -0.000361992 0.000126788)
(0.000436349 -0.000290637 0.000126788)
(0.000480188 -0.00021045 0.000126788)
(0.000509437 -0.000123869 0.000126788)
(0.000523208 -3.35242e-05 0.000126788)
(0.00052108 5.78391e-05 0.000126788)
(0.00050312 0.000147445 0.000126788)
(0.000469873 0.000232571 0.000126788)
(0.000422349 0.00031063 0.000126788)
(0.000361992 0.000379251 0.000126788)
(0.000290637 0.000436349 0.000126788)
(0.00021045 0.000480188 0.000126788)
(0.000123869 0.000509437 0.000126788)
(0.000157845 0.000922534 0.000231592)
(-4.74959e-06 0.000935928 0.000231592)
(-0.0001672 0.000920885 0.000231592)
(-0.000324569 0.00087786 0.000231593)
(-0.000472077 0.000808163 0.000231593)
(-0.000605241 0.00071391 0.000231593)
(-0.000720015 0.000597965 0.000231593)
(-0.000812912 0.000463851 0.000231593)
(-0.000881109 0.000315643 0.000231592)
(-0.000922534 0.000157845 0.000231592)
(-0.000935928 -4.74967e-06 0.000231592)
(-0.000920885 -0.0001672 0.000231592)
(-0.00087786 -0.000324569 0.000231593)
(-0.000808163 -0.000472077 0.000231593)
(-0.00071391 -0.000605241 0.000231593)
(-0.000597965 -0.000720015 0.000231593)
(-0.000463851 -0.000812912 0.000231593)
(-0.000315643 -0.000881109 0.000231592)
(-0.000157845 -0.000922534 0.000231592)
(4.74971e-06 -0.000935928 0.000231592)
(0.0001672 -0.000920885 0.000231592)
(0.00032457 -0.00087786 0.000231593)
(0.000472077 -0.000808163 0.000231593)
(0.000605241 -0.00071391 0.000231593)
(0.000720015 -0.000597965 0.000231593)
(0.000812912 -0.000463851 0.000231593)
(0.000881109 -0.000315643 0.000231592)
(0.000922534 -0.000157845 0.000231592)
(0.000935928 4.74963e-06 0.000231592)
(0.000920885 0.0001672 0.000231592)
(0.00087786 0.000324569 0.000231593)
(0.000808163 0.000472077 0.000231593)
(0.00071391 0.000605241 0.000231593)
(0.000597965 0.000720015 0.000231593)
(0.000463851 0.000812912 0.000231593)
(0.000315643 0.000881109 0.000231592)
(0.000109265 0.000888752 0.000247427)
(-4.67248e-05 0.000894224 0.000247427)
(-0.000201295 0.000872525 0.000247427)
(-0.000349749 0.000824315 0.000247427)
(-0.000487576 0.000751058 0.000247427)
(-0.000610589 0.000654981 0.000247427)
(-0.000715049 0.000539003 0.000247427)
(-0.000797783 0.000406647 0.000247427)
(-0.000856276 0.000261935 0.000247427)
(-0.000888752 0.000109265 0.000247427)
(-0.000894224 -4.67249e-05 0.000247427)
(-0.000872525 -0.000201295 0.000247427)
(-0.000824315 -0.000349749 0.000247427)
(-0.000751058 -0.000487577 0.000247427)
(-0.000654981 -0.000610589 0.000247427)
(-0.000539003 -0.000715049 0.000247427)
(-0.000406647 -0.000797783 0.000247427)
(-0.000261935 -0.000856276 0.000247427)
(-0.000109265 -0.000888752 0.000247427)
(4.67249e-05 -0.000894224 0.000247427)
(0.000201295 -0.000872525 0.000247427)
(0.000349749 -0.000824315 0.000247427)
(0.000487577 -0.000751058 0.000247427)
(0.000610589 -0.000654981 0.000247427)
(0.000715049 -0.000539003 0.000247427)
(0.000797783 -0.000406647 0.000247427)
(0.000856276 -0.000261936 0.000247427)
(0.000888752 -0.000109265 0.000247427)
(0.000894224 4.67248e-05 0.000247427)
(0.000872525 0.000201295 0.000247427)
(0.000824315 0.000349749 0.000247427)
(0.000751058 0.000487577 0.000247427)
(0.000654981 0.000610589 0.000247427)
(0.000539003 0.000715049 0.000247427)
(0.000406647 0.000797783 0.000247427)
(0.000261936 0.000856276 0.000247427)
(5.35136e-05 0.000852049 0.000260429)
(-9.5256e-05 0.000848397 0.000260429)
(-0.000241131 0.000818967 0.000260429)
(-0.00037968 0.000764653 0.00026043)
(-0.000506692 0.000687106 0.00026043)
(-0.000618309 0.00058868 0.00026043)
(-0.000711139 0.000472369 0.000260429)
(-0.000782361 0.000341704 0.000260429)
(-0.000829811 0.000200657 0.000260429)
(-0.000852049 5.35135e-05 0.000260429)
(-0.000848397 -9.52561e-05 0.000260429)
(-0.000818967 -0.000241131 0.000260429)
(-0.000764653 -0.00037968 0.00026043)
(-0.000687106 -0.000506692 0.00026043)
(-0.00058868 -0.000618309 0.00026043)
(-0.000472369 -0.000711139 0.000260429)
(-0.000341704 -0.000782361 0.000260429)
(-0.000200657 -0.000829812 0.000260429)
(-5.35135e-05 -0.000852049 0.000260429)
(9.52561e-05 -0.000848397 0.000260429)
(0.000241131 -0.000818967 0.000260429)
(0.00037968 -0.000764653 0.00026043)
(0.000506692 -0.000687106 0.00026043)
(0.000618309 -0.00058868 0.00026043)
(0.000711139 -0.000472369 0.000260429)
(0.000782361 -0.000341704 0.000260429)
(0.000829812 -0.000200657 0.000260429)
(0.000852049 -5.35135e-05 0.000260429)
(0.000848397 9.52561e-05 0.000260429)
(0.000818967 0.000241131 0.000260429)
(0.000764653 0.00037968 0.00026043)
(0.000687106 0.000506692 0.00026043)
(0.000588681 0.000618309 0.00026043)
(0.000472369 0.000711139 0.000260429)
(0.000341704 0.000782361 0.000260429)
(0.000200658 0.000829812 0.000260429)
(0.000170773 0.00127042 0.0003865)
(-5.24267e-05 0.00128077 0.0003865)
(-0.000274034 0.00125221 0.0003865)
(-0.000487314 0.0011856 0.0003865)
(-0.000685788 0.00108297 0.0003865)
(-0.000863425 0.000947429 0.000386501)
(-0.00101483 0.000783103 0.0003865)
(-0.00113539 0.000594983 0.0003865)
(-0.00122146 0.000388784 0.0003865)
(-0.00127042 0.000170773 0.0003865)
(-0.00128077 -5.24268e-05 0.0003865)
(-0.00125221 -0.000274034 0.0003865)
(-0.0011856 -0.000487315 0.0003865)
(-0.00108297 -0.000685788 0.0003865)
(-0.000947429 -0.000863425 0.000386501)
(-0.000783103 -0.00101483 0.0003865)
(-0.000594983 -0.00113539 0.0003865)
(-0.000388784 -0.00122146 0.0003865)
(-0.000170773 -0.00127042 0.0003865)
(5.24268e-05 -0.00128077 0.0003865)
(0.000274034 -0.00125221 0.0003865)
(0.000487315 -0.0011856 0.0003865)
(0.000685788 -0.00108297 0.0003865)
(0.000863425 -0.000947429 0.000386501)
(0.00101483 -0.000783103 0.0003865)
(0.00113539 -0.000594983 0.0003865)
(0.00122146 -0.000388785 0.0003865)
(0.00127042 -0.000170773 0.0003865)
(0.00128077 5.24267e-05 0.0003865)
(0.00125221 0.000274034 0.0003865)
(0.0011856 0.000487315 0.0003865)
(0.00108297 0.000685788 0.0003865)
(0.000947429 0.000863425 0.000386501)
(0.000783103 0.00101483 0.0003865)
(0.000594983 0.00113539 0.0003865)
(0.000388785 0.00122146 0.0003865)
(0.000116173 0.0012137 0.000404309)
(-9.63488e-05 0.00121543 0.000404309)
(-0.000305943 0.00118024 0.000404309)
(-0.000506241 0.00110918 0.000404309)
(-0.000691157 0.00100442 0.000404309)
(-0.000855073 0.000869145 0.000404309)
(-0.000993008 0.000707459 0.000404309)
(-0.00110077 0.000524277 0.000404309)
(-0.00117509 0.000325165 0.000404309)
(-0.0012137 0.000116173 0.000404309)
(-0.00121543 -9.63489e-05 0.000404309)
(-0.00118024 -0.000305943 0.000404309)
(-0.00110918 -0.000506241 0.000404309)
(-0.00100442 -0.000691157 0.000404309)
(-0.000869145 -0.000855073 0.000404309)
(-0.000707459 -0.000993008 0.000404309)
(-0.000524277 -0.00110077 0.000404309)
(-0.000325165 -0.00117509 0.000404309)
(-0.000116173 -0.0012137 0.000404309)
(9.6349e-05 -0.00121543 0.000404309)
(0.000305943 -0.00118024 0.000404309)
(0.000506241 -0.00110918 0.000404309)
(0.000691157 -0.00100442 0.000404309)
(0.000855073 -0.000869145 0.000404309)
(0.000993008 -0.000707459 0.000404309)
(0.00110077 -0.000524277 0.000404309)
(0.00117509 -0.000325165 0.000404309)
(0.0012137 -0.000116173 0.000404309)
(0.00121543 9.63489e-05 0.000404309)
(0.00118024 0.000305943 0.000404309)
(0.00110918 0.000506241 0.000404309)
(0.00100442 0.000691157 0.000404309)
(0.000869145 0.000855073 0.000404309)
(0.000707459 0.000993008 0.000404309)
(0.000524277 0.00110077 0.000404309)
(0.000325165 0.00117509 0.000404309)
(5.51521e-05 0.00115392 0.000419213)
(-0.000146062 0.00114596 0.000419213)
(-0.000342837 0.00110319 0.000419213)
(-0.000529196 0.0010269 0.000419213)
(-0.000699474 0.000919403 0.000419213)
(-0.0008485 0.000783973 0.000419213)
(-0.000971746 0.000624722 0.000419213)
(-0.00106546 0.000446489 0.000419213)
(-0.00112681 0.00025469 0.000419213)
(-0.00115392 5.5152e-05 0.000419213)
(-0.00114596 -0.000146062 0.000419213)
(-0.00110319 -0.000342837 0.000419213)
(-0.0010269 -0.000529196 0.000419213)
(-0.000919403 -0.000699474 0.000419213)
(-0.000783973 -0.000848501 0.000419213)
(-0.000624722 -0.000971746 0.000419213)
(-0.000446489 -0.00106546 0.000419213)
(-0.00025469 -0.00112681 0.000419213)
(-5.51519e-05 -0.00115392 0.000419213)
(0.000146062 -0.00114596 0.000419213)
(0.000342837 -0.00110319 0.000419213)
(0.000529196 -0.0010269 0.000419213)
(0.000699474 -0.000919403 0.000419213)
(0.000848501 -0.000783973 0.000419213)
(0.000971746 -0.000624722 0.000419213)
(0.00106546 -0.000446489 0.000419213)
(0.00112681 -0.00025469 0.000419213)
(0.00115392 -5.5152e-05 0.000419213)
(0.00114596 0.000146062 0.000419213)
(0.00110319 0.000342837 0.000419213)
(0.0010269 0.000529196 0.000419213)
(0.000919403 0.000699474 0.000419213)
(0.000783973 0.000848501 0.000419213)
(0.000624722 0.000971746 0.000419213)
(0.000446489 0.00106546 0.000419213)
(0.00025469 0.00112681 0.000419213)
(0.000155073 0.00159478 0.000565262)
(-0.000124213 0.00159748 0.000565261)
(-0.000399725 0.00155164 0.000565262)
(-0.000663091 0.00145865 0.000565262)
(-0.000906309 0.00132135 0.000565262)
(-0.00112199 0.0011439 0.000565262)
(-0.00130358 0.000931686 0.000565262)
(-0.00144556 0.000691166 0.000565262)
(-0.00154362 0.000429647 0.000565262)
(-0.00159478 0.000155073 0.000565262)
(-0.00159748 -0.000124213 0.000565261)
(-0.00155164 -0.000399725 0.000565261)
(-0.00145865 -0.000663091 0.000565262)
(-0.00132135 -0.000906309 0.000565262)
(-0.0011439 -0.00112199 0.000565262)
(-0.000931685 -0.00130358 0.000565262)
(-0.000691166 -0.00144556 0.000565262)
(-0.000429647 -0.00154362 0.000565262)
(-0.000155073 -0.00159478 0.000565262)
(0.000124213 -0.00159748 0.000565261)
(0.000399725 -0.00155164 0.000565261)
(0.000663091 -0.00145865 0.000565262)
(0.000906309 -0.00132135 0.000565262)
(0.00112199 -0.0011439 0.000565262)
(0.00130358 -0.000931686 0.000565262)
(0.00144556 -0.000691166 0.000565262)
(0.00154362 -0.000429647 0.000565262)
(0.00159478 -0.000155073 0.000565262)
(0.00159748 0.000124213 0.000565261)
(0.00155164 0.000399725 0.000565262)
(0.00145865 0.000663091 0.000565262)
(0.00132135 0.000906309 0.000565262)
(0.0011439 0.00112199 0.000565262)
(0.000931686 0.00130358 0.000565262)
(0.000691167 0.00144556 0.000565262)
(0.000429647 0.00154362 0.000565262)
(9.89744e-05 0.0015096 0.000582179)
(-0.000164669 0.00150386 0.000582179)
(-0.000423309 0.00145242 0.000582179)
(-0.000669087 0.00135684 0.000582179)
(-0.000894535 0.00122004 0.000582179)
(-0.0010928 0.00104617 0.000582179)
(-0.00125787 0.000840517 0.000582179)
(-0.00138471 0.000609321 0.000582179)
(-0.00146948 0.000359611 0.000582179)
(-0.0015096 9.89743e-05 0.000582179)
(-0.00150386 -0.000164669 0.000582179)
(-0.00145242 -0.000423309 0.000582179)
(-0.00135684 -0.000669087 0.000582179)
(-0.00122004 -0.000894535 0.000582179)
(-0.00104617 -0.0010928 0.000582179)
(-0.000840517 -0.00125787 0.000582179)
(-0.000609321 -0.00138471 0.000582179)
(-0.000359611 -0.00146948 0.000582179)
(-9.89742e-05 -0.0015096 0.000582179)
(0.000164669 -0.00150386 0.000582179)
(0.000423309 -0.00145242 0.000582179)
(0.000669087 -0.00135684 0.000582179)
(0.000894535 -0.00122004 0.000582179)
(0.0010928 -0.00104617 0.000582179)
(0.00125787 -0.000840517 0.000582179)
(0.00138471 -0.000609321 0.000582179)
(0.00146948 -0.000359611 0.000582179)
(0.0015096 -9.89744e-05 0.000582179)
(0.00150386 0.000164669 0.000582179)
(0.00145242 0.000423309 0.000582179)
(0.00135684 0.000669087 0.000582179)
(0.00122004 0.000894535 0.000582179)
(0.00104617 0.0010928 0.000582179)
(0.000840517 0.00125787 0.000582179)
(0.000609321 0.00138471 0.000582179)
(0.000359611 0.00146948 0.000582179)
(3.71826e-05 0.00142165 0.000596099)
(-0.000210249 0.00140651 0.000596099)
(-0.000451292 0.00134863 0.000596099)
(-0.000678623 0.00124978 0.000596099)
(-0.000885334 0.00111295 0.000596099)
(-0.00106514 0.000942302 0.000596099)
(-0.00121259 0.000743026 0.000596099)
(-0.0013232 0.000521173 0.000596099)
(-0.00139359 0.000283485 0.000596099)
(-0.00142165 3.71824e-05 0.000596099)
(-0.00140651 -0.000210249 0.000596099)
(-0.00134863 -0.000451292 0.000596099)
(-0.00124977 -0.000678623 0.000596099)
(-0.00111295 -0.000885334 0.000596099)
(-0.000942302 -0.00106514 0.000596099)
(-0.000743026 -0.00121259 0.000596099)
(-0.000521173 -0.0013232 0.000596099)
(-0.000283485 -0.00139359 0.000596099)
(-3.71824e-05 -0.00142165 0.000596099)
(0.000210249 -0.00140651 0.000596099)
(0.000451293 -0.00134863 0.000596099)
(0.000678623 -0.00124978 0.000596099)
(0.000885334 -0.00111295 0.000596099)
(0.00106514 -0.000942302 0.000596099)
(0.00121259 -0.000743026 0.000596099)
(0.0013232 -0.000521173 0.000596099)
(0.00139359 -0.000283485 0.000596099)
(0.00142165 -3.71825e-05 0.000596099)
(0.00140651 0.000210249 0.000596099)
(0.00134863 0.000451292 0.000596099)
(0.00124978 0.000678623 0.000596099)
(0.00111295 0.000885334 0.000596099)
(0.000942302 0.00106514 0.000596099)
(0.000743026 0.00121259 0.000596099)
(0.000521173 0.0013232 0.000596099)
(0.000283485 0.00139359 0.000596099)
(0.000113607 0.00188674 0.000762599)
(-0.000215748 0.0018778 0.000762599)
(-0.000538547 0.00181181 0.000762599)
(-0.000844982 0.00169077 0.000762599)
(-0.00112574 0.00151835 0.000762599)
(-0.0013723 0.0012998 0.000762599)
(-0.00157716 0.00104176 0.000762599)
(-0.0017341 0.000752058 0.000762599)
(-0.00183835 0.00043951 0.000762599)
(-0.00188674 0.000113607 0.000762599)
(-0.0018778 -0.000215748 0.000762599)
(-0.00181181 -0.000538547 0.000762599)
(-0.00169077 -0.000844982 0.000762599)
(-0.00151835 -0.00112574 0.000762599)
(-0.0012998 -0.0013723 0.000762599)
(-0.00104176 -0.00157716 0.000762599)
(-0.000752058 -0.0017341 0.000762599)
(-0.00043951 -0.00183835 0.000762599)
(-0.000113607 -0.00188674 0.000762599)
(0.000215748 -0.0018778 0.000762599)
(0.000538547 -0.00181181 0.000762599)
(0.000844982 -0.00169077 0.000762599)
(0.00112574 -0.00151835 0.000762599)
(0.0013723 -0.0012998 0.000762599)
(0.00157716 -0.00104176 0.000762599)
(0.0017341 -0.000752058 0.000762599)
(0.00183835 -0.00043951 0.000762599)
(0.00188674 -0.000113607 0.000762599)
(0.0018778 0.000215748 0.000762599)
(0.00181181 0.000538547 0.000762599)
(0.00169077 0.000844982 0.000762599)
(0.00151835 0.00112574 0.000762599)
(0.0012998 0.0013723 0.000762599)
(0.00104176 0.00157716 0.000762599)
(0.000752058 0.0017341 0.000762599)
(0.00043951 0.00183835 0.000762599)
(5.9982e-05 0.00176871 0.000775807)
(-0.000248064 0.00175226 0.000775807)
(-0.000548571 0.00168256 0.000775807)
(-0.000832411 0.00156174 0.000775807)
(-0.00109096 0.00139347 0.000775807)
(-0.00131636 0.00118286 0.000775807)
(-0.00150176 0.000936303 0.000775807)
(-0.00164153 0.000661301 0.000775808)
(-0.00173143 0.000366205 0.000775807)
(-0.00176871 5.99819e-05 0.000775807)
(-0.00175226 -0.000248064 0.000775807)
(-0.00168256 -0.000548571 0.000775807)
(-0.00156174 -0.000832411 0.000775807)
(-0.00139347 -0.00109096 0.000775807)
(-0.00118286 -0.00131636 0.000775807)
(-0.000936303 -0.00150176 0.000775807)
(-0.000661301 -0.00164153 0.000775807)
(-0.000366204 -0.00173143 0.000775807)
(-5.99818e-05 -0.00176871 0.000775807)
(0.000248064 -0.00175226 0.000775807)
(0.000548571 -0.00168256 0.000775807)
(0.000832411 -0.00156174 0.000775807)
(0.00109096 -0.00139347 0.000775807)
(0.00131636 -0.00118286 0.000775807)
(0.00150176 -0.000936303 0.000775807)
(0.00164153 -0.000661301 0.000775808)
(0.00173143 -0.000366205 0.000775807)
(0.00176871 -5.99819e-05 0.000775807)
(0.00175226 0.000248064 0.000775807)
(0.00168256 0.000548571 0.000775807)
(0.00156174 0.000832411 0.000775807)
(0.00139347 0.00109096 0.000775807)
(0.00118286 0.00131636 0.000775807)
(0.000936303 0.00150176 0.000775807)
(0.000661301 0.00164153 0.000775808)
(0.000366205 0.00173143 0.000775807)
(1.4201e-06 0.00164853 0.000785915)
(-0.000284866 0.00162373 0.000785915)
(-0.000562496 0.0015496 0.000785915)
(-0.000823034 0.00142838 0.000785915)
(-0.00105857 0.00126376 0.000785915)
(-0.00126193 0.00106074 0.000785915)
(-0.00142696 0.000825495 0.000785915)
(-0.00154862 0.000565165 0.000785915)
(-0.00162324 0.000287663 0.000785915)
(-0.00164853 1.41996e-06 0.000785915)
(-0.00162373 -0.000284866 0.000785915)
(-0.0015496 -0.000562496 0.000785915)
(-0.00142838 -0.000823035 0.000785915)
(-0.00126376 -0.00105857 0.000785915)
(-0.00106074 -0.00126193 0.000785915)
(-0.000825495 -0.00142696 0.000785915)
(-0.000565165 -0.00154862 0.000785915)
(-0.000287662 -0.00162324 0.000785915)
(-1.41987e-06 -0.00164853 0.000785915)
(0.000284866 -0.00162373 0.000785915)
(0.000562496 -0.0015496 0.000785915)
(0.000823035 -0.00142838 0.000785915)
(0.00105857 -0.00126376 0.000785915)
(0.00126193 -0.00106074 0.000785915)
(0.00142696 -0.000825495 0.000785915)
(0.00154862 -0.000565165 0.000785915)
(0.00162324 -0.000287663 0.000785915)
(0.00164853 -1.42004e-06 0.000785915)
(0.00162373 0.000284866 0.000785915)
(0.0015496 0.000562496 0.000785915)
(0.00142838 0.000823035 0.000785915)
(0.00126376 0.00105857 0.000785915)
(0.00106074 0.00126193 0.000785915)
(0.000825495 0.00142696 0.000785915)
(0.000565165 0.00154862 0.000785915)
(0.000287663 0.00162324 0.000785915)
(5.17645e-05 0.00213735 0.000975774)
(-0.000320168 0.00211386 0.000975774)
(-0.000682373 0.00202615 0.000975774)
(-0.00102384 0.00187688 0.000975774)
(-0.0013342 0.00167058 0.000975773)
(-0.00160403 0.00141351 0.000975774)
(-0.00182511 0.0011135 0.000975774)
(-0.00199074 0.000779657 0.000975774)
(-0.00209589 0.000422124 0.000975774)
(-0.00213735 5.17644e-05 0.000975774)
(-0.00211386 -0.000320168 0.000975774)
(-0.00202615 -0.000682373 0.000975774)
(-0.00187688 -0.00102384 0.000975774)
(-0.00167058 -0.0013342 0.000975773)
(-0.00141351 -0.00160403 0.000975774)
(-0.0011135 -0.00182511 0.000975774)
(-0.000779657 -0.00199074 0.000975774)
(-0.000422123 -0.00209589 0.000975774)
(-5.17642e-05 -0.00213735 0.000975774)
(0.000320168 -0.00211386 0.000975774)
(0.000682373 -0.00202615 0.000975774)
(0.00102384 -0.00187688 0.000975774)
(0.00133421 -0.00167058 0.000975773)
(0.00160403 -0.00141351 0.000975774)
(0.00182511 -0.0011135 0.000975774)
(0.00199074 -0.000779658 0.000975774)
(0.00209589 -0.000422124 0.000975774)
(0.00213735 -5.17645e-05 0.000975774)
(0.00211386 0.000320168 0.000975774)
(0.00202615 0.000682373 0.000975774)
(0.00187688 0.00102384 0.000975774)
(0.00167058 0.0013342 0.000975774)
(0.00141351 0.00160403 0.000975774)
(0.0011135 0.00182511 0.000975774)
(0.000779658 0.00199074 0.000975774)
(0.000422124 0.00209589 0.000975774)
(4.05936e-06 0.00198312 0.000982384)
(-0.000340368 0.0019537 0.000982383)
(-0.000674452 0.00186491 0.000982384)
(-0.000988044 0.00171946 0.000982383)
(-0.00127161 0.00152177 0.000982383)
(-0.00151655 0.00127783 0.000982383)
(-0.0017154 0.000995075 0.000982384)
(-0.00186213 0.000682081 0.000982384)
(-0.00195229 0.000348362 0.000982384)
(-0.00198312 4.05919e-06 0.000982384)
(-0.0019537 -0.000340368 0.000982383)
(-0.00186491 -0.000674452 0.000982383)
(-0.00171946 -0.000988044 0.000982383)
(-0.00152177 -0.00127161 0.000982383)
(-0.00127783 -0.00151655 0.000982383)
(-0.000995075 -0.0017154 0.000982383)
(-0.000682081 -0.00186213 0.000982383)
(-0.000348362 -0.00195229 0.000982384)
(-4.05907e-06 -0.00198312 0.000982384)
(0.000340368 -0.0019537 0.000982383)
(0.000674452 -0.00186491 0.000982383)
(0.000988045 -0.00171946 0.000982383)
(0.00127161 -0.00152177 0.000982383)
(0.00151655 -0.00127783 0.000982383)
(0.0017154 -0.000995075 0.000982383)
(0.00186213 -0.000682081 0.000982383)
(0.00195229 -0.000348362 0.000982384)
(0.00198312 -4.05929e-06 0.000982384)
(0.0019537 0.000340368 0.000982383)
(0.00186491 0.000674452 0.000982384)
(0.00171946 0.000988044 0.000982383)
(0.00152177 0.00127161 0.000982383)
(0.00127783 0.00151655 0.000982383)
(0.000995075 0.0017154 0.000982384)
(0.000682081 0.00186213 0.000982384)
(0.000348362 0.00195229 0.000982384)
(-4.77269e-05 0.00182768 0.000985767)
(-0.000364374 0.00179162 0.000985767)
(-0.00066995 0.00170113 0.000985767)
(-0.00095517 0.00155895 0.000985767)
(-0.00121137 0.0013694 0.000985766)
(-0.00143076 0.00113825 0.000985767)
(-0.00160668 0.000872506 0.000985767)
(-0.00173378 0.000580254 0.000985766)
(-0.0018082 0.000270371 0.000985767)
(-0.00182768 -4.77271e-05 0.000985767)
(-0.00179162 -0.000364374 0.000985766)
(-0.00170113 -0.00066995 0.000985767)
(-0.00155895 -0.00095517 0.000985766)
(-0.0013694 -0.00121137 0.000985766)
(-0.00113825 -0.00143076 0.000985766)
(-0.000872505 -0.00160668 0.000985767)
(-0.000580254 -0.00173378 0.000985766)
(-0.000270371 -0.0018082 0.000985767)
(4.77272e-05 -0.00182768 0.000985767)
(0.000364374 -0.00179162 0.000985766)
(0.000669951 -0.00170113 0.000985767)
(0.000955171 -0.00155895 0.000985766)
(0.00121137 -0.0013694 0.000985766)
(0.00143076 -0.00113825 0.000985766)
(0.00160668 -0.000872506 0.000985767)
(0.00173378 -0.000580254 0.000985766)
(0.0018082 -0.000270371 0.000985767)
(0.00182768 4.7727e-05 0.000985767)
(0.00179162 0.000364374 0.000985767)
(0.00170113 0.00066995 0.000985767)
(0.00155895 0.00095517 0.000985767)
(0.0013694 0.00121137 0.000985766)
(0.00113825 0.00143076 0.000985767)
(0.000872506 0.00160668 0.000985767)
(0.000580254 0.00173378 0.000985766)
(0.000270371 0.0018082 0.000985767)
(-2.3127e-05 0.0023372 0.00120379)
(-0.000428626 0.00229767 0.00120379)
(-0.000821101 0.00218834 0.00120379)
(-0.00118863 0.00201251 0.00120379)
(-0.00152004 0.00177553 0.00120379)
(-0.00180526 0.0014846 0.00120379)
(-0.00203563 0.00114857 0.00120379)
(-0.00220416 0.000777635 0.00120379)
(-0.0023057 0.000383073 0.00120379)