/*--------------------------------*- C++ -*----------------------------------*\
| =========                 |                                                 |
| \\      /  F ield         | OpenFOAM: The Open Source CFD Toolbox           |
|  \\    /   O peration     | Version:  2312                                  |
|   \\  /    A nd           | Website:  www.openfoam.com                      |
|    \\/     M anipulation  |                                                 |
\*---------------------------------------------------------------------------*/
FoamFile
{
    version     2.0;
    format      ascii;
    arch        "LSB;label=32;scalar=64";
    class       volVectorField;
    location    "0.2";
    object      D_0_0_0;
}
// * * * * * * * * * * * * * * * * * * * * * * * * * * * * * * * * * * * * * //

dimensions      [0 1 0 0 0 0 0];

internalField   nonuniform List<vector> 
1620
(
(5.64677e-05 0.00018411 2.81145e-05)
(2.36394e-05 0.000191119 2.81144e-05)
(-9.90708e-06 0.00019232 2.81145e-05)
(-4.31526e-05 0.000187678 2.81146e-05)
(-7.50871e-05 0.000177334 2.81147e-05)
(-0.00010474 0.000161601 2.81146e-05)
(-0.00013121 0.000140958 2.81146e-05)
(-0.000153694 0.000116032 2.81145e-05)
(-0.000171508 8.75803e-05 2.81145e-05)
(-0.00018411 5.64677e-05 2.81145e-05)
(-0.000191119 2.36393e-05 2.81144e-05)
(-0.00019232 -9.9071e-06 2.81145e-05)
(-0.000187678 -4.31526e-05 2.81146e-05)
(-0.000177334 -7.50871e-05 2.81147e-05)
(-0.000161601 -0.00010474 2.81146e-05)
(-0.000140958 -0.00013121 2.81146e-05)
(-0.000116032 -0.000153694 2.81145e-05)
(-8.75803e-05 -0.000171508 2.81145e-05)
(-5.64677e-05 -0.00018411 2.81145e-05)
(-2.36393e-05 -0.000191119 2.81144e-05)
(9.9071e-06 -0.00019232 2.81145e-05)
(4.31526e-05 -0.000187678 2.81146e-05)
(7.50871e-05 -0.000177334 2.81147e-05)
(0.00010474 -0.000161601 2.81146e-05)
(0.00013121 -0.000140958 2.81146e-05)
(0.000153694 -0.000116032 2.81145e-05)
(0.000171508 -8.75803e-05 2.81145e-05)
(0.000184111 -5.64677e-05 2.81145e-05)
(0.000191119 -2.36394e-05 2.81144e-05)
(0.00019232 9.90708e-06 2.81145e-05)
(0.000187678 4.31526e-05 2.81146e-05)
(0.000177334 7.50871e-05 2.81147e-05)
(0.000161601 0.00010474 2.81146e-05)
(0.000140958 0.00013121 2.81146e-05)
(0.000116032 0.000153694 2.81145e-05)
(8.75803e-05 0.000171508 2.81145e-05)
(2.99145e-05 0.000177614 3.01257e-05)
(-1.38227e-06 0.00018011 3.01257e-05)
(-3.26369e-05 0.000177134 3.01258e-05)
(-6.28999e-05 0.000168775 3.01258e-05)
(-9.12521e-05 0.000155289 3.01259e-05)
(-0.000116831 0.000137084 3.01258e-05)
(-0.000138861 0.000114714 3.01258e-05)
(-0.000156671 8.88579e-05 3.01257e-05)
(-0.000169721 6.03023e-05 3.01257e-05)
(-0.000177614 2.99145e-05 3.01257e-05)
(-0.00018011 -1.38229e-06 3.01257e-05)
(-0.000177134 -3.26369e-05 3.01257e-05)
(-0.000168775 -6.29e-05 3.01258e-05)
(-0.000155289 -9.12521e-05 3.01259e-05)
(-0.000137084 -0.000116831 3.01258e-05)
(-0.000114714 -0.000138861 3.01258e-05)
(-8.88579e-05 -0.000156671 3.01257e-05)
(-6.03023e-05 -0.000169721 3.01257e-05)
(-2.99145e-05 -0.000177614 3.01257e-05)
(1.3823e-06 -0.00018011 3.01257e-05)
(3.2637e-05 -0.000177134 3.01257e-05)
(6.29e-05 -0.000168775 3.01258e-05)
(9.12521e-05 -0.000155289 3.01259e-05)
(0.000116831 -0.000137084 3.01258e-05)
(0.000138861 -0.000114714 3.01258e-05)
(0.000156671 -8.88579e-05 3.01257e-05)
(0.000169721 -6.03023e-05 3.01257e-05)
(0.000177614 -2.99145e-05 3.01257e-05)
(0.00018011 1.38228e-06 3.01257e-05)
(0.000177134 3.26369e-05 3.01258e-05)
(0.000168775 6.29e-05 3.01258e-05)
(0.000155289 9.12521e-05 3.01259e-05)
(0.000137084 0.000116831 3.01258e-05)
(0.000114714 0.000138861 3.01258e-05)
(8.88579e-05 0.000156671 3.01257e-05)
(6.03023e-05 0.000169721 3.01257e-05)
(-3.13068e-06 0.000169091 3.01246e-05)
(-3.24455e-05 0.000165979 3.01246e-05)
(-6.07745e-05 0.000157823 3.01246e-05)
(-8.72568e-05 0.000144872 3.01246e-05)
(-0.000111088 0.000127519 3.01247e-05)
(-0.000131544 0.000106291 3.01246e-05)
(-0.000148003 8.18344e-05 3.01246e-05)
(-0.000159964 5.48907e-05 3.01245e-05)
(-0.000167066 2.62792e-05 3.01245e-05)
(-0.000169091 -3.13069e-06 3.01246e-05)
(-0.000165979 -3.24455e-05 3.01246e-05)
(-0.000157823 -6.07745e-05 3.01246e-05)
(-0.000144872 -8.72568e-05 3.01246e-05)
(-0.000127519 -0.000111088 3.01247e-05)
(-0.000106291 -0.000131544 3.01246e-05)
(-8.18343e-05 -0.000148003 3.01246e-05)
(-5.48907e-05 -0.000159964 3.01245e-05)
(-2.62792e-05 -0.000167066 3.01245e-05)
(3.1307e-06 -0.000169091 3.01246e-05)
(3.24455e-05 -0.000165979 3.01246e-05)
(6.07745e-05 -0.000157823 3.01246e-05)
(8.72568e-05 -0.000144872 3.01246e-05)
(0.000111088 -0.000127519 3.01247e-05)
(0.000131544 -0.000106291 3.01246e-05)
(0.000148003 -8.18344e-05 3.01246e-05)
(0.000159964 -5.48907e-05 3.01245e-05)
(0.000167066 -2.62792e-05 3.01245e-05)
(0.000169091 3.13069e-06 3.01246e-05)
(0.000165979 3.24455e-05 3.01246e-05)
(0.000157823 6.07745e-05 3.01246e-05)
(0.000144872 8.72568e-05 3.01246e-05)
(0.000127519 0.000111088 3.01247e-05)
(0.000106291 0.000131544 3.01246e-05)
(8.18344e-05 0.000148003 3.01246e-05)
(5.48907e-05 0.000159964 3.01245e-05)
(2.62792e-05 0.000167066 3.01245e-05)
(0.000111432 0.000543839 0.000103545)
(1.53029e-05 0.000554928 0.000103545)
(-8.12916e-05 0.000549154 0.000103545)
(-0.000175416 0.000526695 0.000103545)
(-0.000264211 0.000488233 0.000103545)
(-0.000344977 0.000434936 0.000103545)
(-0.000415263 0.000368423 0.000103545)
(-0.00047293 0.000290717 0.000103545)
(-0.000516227 0.000204176 0.000103545)
(-0.000543839 0.000111432 0.000103545)
(-0.000554928 1.53029e-05 0.000103545)
(-0.000549154 -8.12917e-05 0.000103545)
(-0.000526695 -0.000175416 0.000103545)
(-0.000488233 -0.000264211 0.000103545)
(-0.000434936 -0.000344977 0.000103545)
(-0.000368423 -0.000415263 0.000103545)
(-0.000290716 -0.00047293 0.000103545)
(-0.000204176 -0.000516227 0.000103545)
(-0.000111432 -0.000543839 0.000103545)
(-1.53028e-05 -0.000554928 0.000103545)
(8.12917e-05 -0.000549154 0.000103545)
(0.000175416 -0.000526695 0.000103545)
(0.000264211 -0.000488233 0.000103545)
(0.000344977 -0.000434936 0.000103545)
(0.000415263 -0.000368423 0.000103545)
(0.00047293 -0.000290717 0.000103545)
(0.000516227 -0.000204176 0.000103545)
(0.000543839 -0.000111432 0.000103545)
(0.000554928 -1.53029e-05 0.000103545)
(0.000549155 8.12916e-05 0.000103545)
(0.000526695 0.000175416 0.000103545)
(0.000488233 0.000264211 0.000103545)
(0.000434936 0.000344977 0.000103545)
(0.000368423 0.000415263 0.000103545)
(0.000290717 0.00047293 0.000103545)
(0.000204176 0.000516227 0.000103545)
(7.58795e-05 0.000525267 0.000113436)
(-1.64848e-05 0.000530463 0.000113436)
(-0.000108348 0.000519542 0.000113437)
(-0.00019692 0.000492835 0.000113437)
(-0.000279508 0.000451153 0.000113437)
(-0.000353604 0.000395763 0.000113437)
(-0.000416955 0.000328347 0.000113437)
(-0.000467637 0.000250955 0.000113436)
(-0.000504111 0.000165938 0.000113436)
(-0.000525267 7.58795e-05 0.000113436)
(-0.000530463 -1.64848e-05 0.000113436)
(-0.000519542 -0.000108348 0.000113437)
(-0.000492835 -0.00019692 0.000113437)
(-0.000451153 -0.000279508 0.000113437)
(-0.000395762 -0.000353604 0.000113437)
(-0.000328347 -0.000416955 0.000113437)
(-0.000250955 -0.000467637 0.000113436)
(-0.000165938 -0.000504111 0.000113436)
(-7.58794e-05 -0.000525267 0.000113436)
(1.64848e-05 -0.000530463 0.000113436)
(0.000108348 -0.000519542 0.000113437)
(0.00019692 -0.000492835 0.000113437)
(0.000279508 -0.000451153 0.000113437)
(0.000353604 -0.000395763 0.000113437)
(0.000416955 -0.000328347 0.000113437)
(0.000467637 -0.000250955 0.000113436)
(0.000504111 -0.000165938 0.000113436)
(0.000525267 -7.58795e-05 0.000113436)
(0.000530463 1.64848e-05 0.000113436)
(0.000519542 0.000108348 0.000113437)
(0.000492835 0.00019692 0.000113437)
(0.000451153 0.000279508 0.000113437)
(0.000395763 0.000353604 0.000113437)
(0.000328347 0.000416955 0.000113437)
(0.000250955 0.000467637 0.000113436)
(0.000165938 0.000504111 0.000113436)
(3.30763e-05 0.000504591 0.000120578)
(-5.50474e-05 0.000502669 0.000120578)
(-0.000141498 0.000485473 0.000120578)
(-0.00022365 0.000453527 0.000120578)
(-0.000299006 0.0004078 0.000120578)
(-0.000365278 0.000349683 0.000120578)
(-0.00042045 0.00028094 0.000120578)
(-0.000462847 0.000203662 0.000120578)
(-0.000491181 0.000120195 0.000120578)
(-0.000504591 3.30763e-05 0.000120578)
(-0.000502669 -5.50475e-05 0.000120578)
(-0.000485473 -0.000141498 0.000120578)
(-0.000453527 -0.00022365 0.000120578)
(-0.0004078 -0.000299007 0.000120578)
(-0.000349683 -0.000365278 0.000120578)
(-0.00028094 -0.00042045 0.000120578)
(-0.000203662 -0.000462847 0.000120578)
(-0.000120195 -0.000491182 0.000120578)
(-3.30763e-05 -0.000504591 0.000120578)
(5.50475e-05 -0.000502669 0.000120578)
(0.000141498 -0.000485473 0.000120578)
(0.00022365 -0.000453527 0.000120578)
(0.000299007 -0.0004078 0.000120578)
(0.000365278 -0.000349683 0.000120578)
(0.00042045 -0.00028094 0.000120578)
(0.000462847 -0.000203662 0.000120578)
(0.000491182 -0.000120195 0.000120578)
(0.000504591 -3.30763e-05 0.000120578)
(0.000502669 5.50475e-05 0.000120578)
(0.000485473 0.000141498 0.000120578)
(0.000453527 0.00022365 0.000120578)
(0.0004078 0.000299007 0.000120578)
(0.000349683 0.000365278 0.000120578)
(0.00028094 0.00042045 0.000120578)
(0.000203662 0.000462847 0.000120578)
(0.000120195 0.000491182 0.000120578)
(0.000150519 0.000896377 0.000221751)
(-7.42196e-06 0.000908896 0.000221751)
(-0.000165137 0.000893799 0.000221751)
(-0.000317835 0.000851545 0.000221752)
(-0.000460875 0.000783416 0.000221752)
(-0.000589912 0.000691484 0.000221752)
(-0.000701025 0.000578542 0.000221752)
(-0.000790838 0.00044802 0.000221752)
(-0.000856621 0.000303886 0.000221751)
(-0.000896377 0.000150519 0.000221751)
(-0.000908896 -7.42203e-06 0.000221751)
(-0.000893799 -0.000165137 0.000221751)
(-0.000851544 -0.000317835 0.000221752)
(-0.000783416 -0.000460875 0.000221752)
(-0.000691484 -0.000589912 0.000221752)
(-0.000578542 -0.000701025 0.000221752)
(-0.00044802 -0.000790838 0.000221752)
(-0.000303886 -0.000856622 0.000221751)
(-0.000150519 -0.000896377 0.000221751)
(7.42207e-06 -0.000908896 0.000221751)
(0.000165137 -0.000893799 0.000221751)
(0.000317835 -0.000851545 0.000221752)
(0.000460875 -0.000783416 0.000221752)
(0.000589912 -0.000691484 0.000221752)
(0.000701025 -0.000578542 0.000221752)
(0.000790838 -0.00044802 0.000221752)
(0.000856622 -0.000303886 0.000221751)
(0.000896377 -0.000150519 0.000221751)
(0.000908896 7.42199e-06 0.000221751)
(0.000893799 0.000165137 0.000221751)
(0.000851545 0.000317835 0.000221752)
(0.000783416 0.000460875 0.000221752)
(0.000691484 0.000589912 0.000221752)
(0.000578542 0.000701025 0.000221752)
(0.00044802 0.000790838 0.000221752)
(0.000303886 0.000856621 0.000221751)
(0.000105027 0.000860503 0.000236203)
(-4.59936e-05 0.000865668 0.000236203)
(-0.000195617 0.00084453 0.000236203)
(-0.000339295 0.000797731 0.000236203)
(-0.000472665 0.000726694 0.000236203)
(-0.000591674 0.000633576 0.000236203)
(-0.000692704 0.000521208 0.000236203)
(-0.000772687 0.000393002 0.000236203)
(-0.000829193 0.000252856 0.000236203)
(-0.000860503 0.000105027 0.000236203)
(-0.000865668 -4.59937e-05 0.000236203)
(-0.00084453 -0.000195617 0.000236203)
(-0.000797731 -0.000339296 0.000236203)
(-0.000726694 -0.000472665 0.000236203)
(-0.000633576 -0.000591674 0.000236203)
(-0.000521208 -0.000692704 0.000236203)
(-0.000393002 -0.000772688 0.000236203)
(-0.000252856 -0.000829193 0.000236203)
(-0.000105026 -0.000860503 0.000236203)
(4.59937e-05 -0.000865668 0.000236203)
(0.000195617 -0.00084453 0.000236203)
(0.000339296 -0.000797731 0.000236203)
(0.000472665 -0.000726694 0.000236203)
(0.000591674 -0.000633576 0.000236203)
(0.000692704 -0.000521208 0.000236203)
(0.000772688 -0.000393002 0.000236203)
(0.000829193 -0.000252856 0.000236203)
(0.000860504 -0.000105027 0.000236203)
(0.000865668 4.59936e-05 0.000236203)
(0.00084453 0.000195617 0.000236203)
(0.000797731 0.000339295 0.000236203)
(0.000726694 0.000472665 0.000236203)
(0.000633576 0.000591674 0.000236203)
(0.000521208 0.000692704 0.000236203)
(0.000393002 0.000772688 0.000236203)
(0.000252856 0.000829193 0.000236203)
(5.28614e-05 0.000821947 0.000248062)
(-9.06712e-05 0.000818639 0.000248062)
(-0.000231449 0.000790458 0.000248062)
(-0.000365194 0.000738258 0.000248063)
(-0.000487843 0.000663627 0.000248063)
(-0.000595669 0.000568832 0.000248063)
(-0.000685396 0.000456753 0.000248062)
(-0.000754298 0.000330796 0.000248062)
(-0.00080028 0.000194788 0.000248062)
(-0.000821947 5.28614e-05 0.000248062)
(-0.000818639 -9.06713e-05 0.000248062)
(-0.000790458 -0.000231449 0.000248062)
(-0.000738258 -0.000365194 0.000248062)
(-0.000663627 -0.000487843 0.000248062)
(-0.000568832 -0.000595669 0.000248062)
(-0.000456753 -0.000685396 0.000248062)
(-0.000330796 -0.000754298 0.000248062)
(-0.000194788 -0.00080028 0.000248062)
(-5.28613e-05 -0.000821947 0.000248062)
(9.06713e-05 -0.000818639 0.000248062)
(0.000231449 -0.000790458 0.000248062)
(0.000365194 -0.000738258 0.000248062)
(0.000487843 -0.000663627 0.000248063)
(0.000595669 -0.000568832 0.000248062)
(0.000685396 -0.000456753 0.000248062)
(0.000754298 -0.000330796 0.000248062)
(0.000800281 -0.000194788 0.000248062)
(0.000821947 -5.28614e-05 0.000248062)
(0.000818639 9.06712e-05 0.000248062)
(0.000790458 0.000231449 0.000248062)
(0.000738259 0.000365194 0.000248063)
(0.000663627 0.000487843 0.000248063)
(0.000568832 0.000595669 0.000248063)
(0.000456753 0.000685396 0.000248062)
(0.000330796 0.000754298 0.000248062)
(0.000194788 0.00080028 0.000248062)
(0.000162907 0.00123409 0.00036989)
(-5.38655e-05 0.00124363 0.00036989)
(-0.000269002 0.00121538 0.00036989)
(-0.000475964 0.00115021 0.00036989)
(-0.000668464 0.00105008 0.00036989)
(-0.000840653 0.000918052 0.00036989)
(-0.0009873 0.000758127 0.00036989)
(-0.00110395 0.000575166 0.00036989)
(-0.00118705 0.000374729 0.00036989)
(-0.00123409 0.000162907 0.00036989)
(-0.00124363 -5.38656e-05 0.00036989)
(-0.00121538 -0.000269002 0.00036989)
(-0.00115021 -0.000475964 0.00036989)
(-0.00105008 -0.000668464 0.00036989)
(-0.000918052 -0.000840653 0.00036989)
(-0.000758127 -0.0009873 0.00036989)
(-0.000575166 -0.00110395 0.00036989)
(-0.000374729 -0.00118705 0.00036989)
(-0.000162907 -0.00123409 0.00036989)
(5.38657e-05 -0.00124363 0.00036989)
(0.000269002 -0.00121538 0.00036989)
(0.000475964 -0.00115021 0.00036989)
(0.000668464 -0.00105008 0.00036989)
(0.000840653 -0.000918052 0.00036989)
(0.0009873 -0.000758127 0.00036989)
(0.00110395 -0.000575166 0.00036989)
(0.00118705 -0.00037473 0.00036989)
(0.00123409 -0.000162907 0.00036989)
(0.00124363 5.38656e-05 0.00036989)
(0.00121538 0.000269002 0.00036989)
(0.00115021 0.000475964 0.00036989)
(0.00105008 0.000668464 0.00036989)
(0.000918052 0.000840653 0.00036989)
(0.000758127 0.0009873 0.00036989)
(0.000575166 0.00110395 0.00036989)
(0.00037473 0.00118705 0.00036989)
(0.000111981 0.00117525 0.000386208)
(-9.37993e-05 0.00117684 0.000386208)
(-0.00029673 0.00114267 0.000386208)
(-0.000490644 0.00107378 0.000386208)
(-0.00066965 0.00097227 0.000386208)
(-0.000828309 0.000841216 0.000386208)
(-0.000961801 0.000684601 0.000386208)
(-0.00106607 0.000507186 0.000386208)
(-0.00113795 0.000314359 0.000386208)
(-0.00117525 0.000111981 0.000386208)
(-0.00117684 -9.37994e-05 0.000386208)
(-0.00114267 -0.00029673 0.000386208)
(-0.00107378 -0.000490644 0.000386208)
(-0.00097227 -0.00066965 0.000386208)
(-0.000841216 -0.000828309 0.000386208)
(-0.000684601 -0.000961801 0.000386208)
(-0.000507185 -0.00106607 0.000386208)
(-0.000314359 -0.00113795 0.000386208)
(-0.000111981 -0.00117525 0.000386208)
(9.37994e-05 -0.00117684 0.000386208)
(0.00029673 -0.00114267 0.000386208)
(0.000490644 -0.00107378 0.000386208)
(0.00066965 -0.00097227 0.000386208)
(0.000828309 -0.000841216 0.000386208)
(0.000961801 -0.000684601 0.000386208)
(0.00106607 -0.000507186 0.000386208)
(0.00113795 -0.000314359 0.000386208)
(0.00117525 -0.000111981 0.000386208)
(0.00117684 9.37993e-05 0.000386208)
(0.00114267 0.00029673 0.000386208)
(0.00107378 0.000490644 0.000386208)
(0.000972271 0.00066965 0.000386208)
(0.000841216 0.000828309 0.000386208)
(0.000684601 0.000961801 0.000386208)
(0.000507186 0.00106607 0.000386208)
(0.000314359 0.00113795 0.000386208)
(5.50525e-05 0.00111358 0.000399863)
(-0.000139155 0.00110622 0.000399863)
(-0.000329134 0.00106525 0.000399863)
(-0.000509113 0.000991915 0.000399863)
(-0.000673622 0.000888439 0.000399863)
(-0.000817665 0.000757969 0.000399863)
(-0.000936862 0.000604467 0.000399863)
(-0.00102759 0.0004326 0.000399863)
(-0.0010871 0.000247587 0.000399863)
(-0.00111358 5.50524e-05 0.000399863)
(-0.00110622 -0.000139155 0.000399863)
(-0.00106525 -0.000329134 0.000399863)
(-0.000991915 -0.000509113 0.000399863)
(-0.000888439 -0.000673623 0.000399863)
(-0.000757969 -0.000817665 0.000399863)
(-0.000604467 -0.000936863 0.000399863)
(-0.0004326 -0.00102759 0.000399863)
(-0.000247587 -0.0010871 0.000399863)
(-5.50524e-05 -0.00111358 0.000399863)
(0.000139155 -0.00110622 0.000399863)
(0.000329134 -0.00106525 0.000399863)
(0.000509113 -0.000991915 0.000399863)
(0.000673623 -0.000888439 0.000399863)
(0.000817665 -0.000757969 0.000399863)
(0.000936863 -0.000604467 0.000399863)
(0.00102759 -0.0004326 0.000399863)
(0.0010871 -0.000247587 0.000399863)
(0.00111358 -5.50525e-05 0.000399863)
(0.00110622 0.000139155 0.000399863)
(0.00106525 0.000329134 0.000399863)
(0.000991915 0.000509113 0.000399863)
(0.000888439 0.000673622 0.000399863)
(0.000757969 0.000817665 0.000399863)
(0.000604467 0.000936862 0.000399863)
(0.0004326 0.00102759 0.000399863)
(0.000247588 0.0010871 0.000399863)
(0.000147951 0.00154891 0.0005409)
(-0.000123262 0.00155107 0.000540899)
(-0.00039073 0.0015061 0.0005409)
(-0.000646325 0.00141537 0.0005409)
(-0.000882282 0.00128163 0.0005409)
(-0.00109143 0.00110896 0.0005409)
(-0.00126742 0.000902584 0.0005409)
(-0.0014049 0.000668786 0.0005409)
(-0.00149969 0.000414668 0.0005409)
(-0.00154891 0.000147951 0.0005409)
(-0.00155107 -0.000123262 0.000540899)
(-0.0015061 -0.00039073 0.0005409)
(-0.00141537 -0.000646326 0.0005409)
(-0.00128163 -0.000882283 0.0005409)
(-0.00110896 -0.00109143 0.0005409)
(-0.000902584 -0.00126742 0.0005409)
(-0.000668786 -0.0014049 0.0005409)
(-0.000414668 -0.00149969 0.0005409)
(-0.00014795 -0.00154891 0.0005409)
(0.000123262 -0.00155107 0.000540899)
(0.00039073 -0.0015061 0.0005409)
(0.000646326 -0.00141537 0.0005409)
(0.000882283 -0.00128163 0.0005409)
(0.00109143 -0.00110896 0.0005409)
(0.00126742 -0.000902584 0.0005409)
(0.0014049 -0.000668786 0.0005409)
(0.00149969 -0.000414668 0.0005409)
(0.00154891 -0.000147951 0.0005409)
(0.00155107 0.000123262 0.000540899)
(0.0015061 0.00039073 0.0005409)
(0.00141537 0.000646325 0.0005409)
(0.00128163 0.000882283 0.0005409)
(0.00110896 0.00109143 0.0005409)
(0.000902584 0.00126742 0.0005409)
(0.000668787 0.0014049 0.0005409)
(0.000414668 0.00149969 0.0005409)
(9.58489e-05 0.00146203 0.000556445)
(-0.000159487 0.00145647 0.000556445)
(-0.000409976 0.00140664 0.000556445)
(-0.000648009 0.00131408 0.000556445)
(-0.000866352 0.00118159 0.000556445)
(-0.00105837 0.0010132 0.000556445)
(-0.00121823 0.000814024 0.000556445)
(-0.00134108 0.000590114 0.000556445)
(-0.00142318 0.000348272 0.000556445)
(-0.00146203 9.58488e-05 0.000556445)
(-0.00145647 -0.000159487 0.000556444)
(-0.00140664 -0.000409976 0.000556445)
(-0.00131408 -0.000648009 0.000556445)
(-0.00118159 -0.000866352 0.000556445)
(-0.0010132 -0.00105837 0.000556445)
(-0.000814024 -0.00121823 0.000556445)
(-0.000590114 -0.00134108 0.000556445)
(-0.000348272 -0.00142318 0.000556445)
(-9.58487e-05 -0.00146203 0.000556445)
(0.000159487 -0.00145647 0.000556444)
(0.000409976 -0.00140664 0.000556445)
(0.000648009 -0.00131408 0.000556445)
(0.000866352 -0.00118159 0.000556445)
(0.00105837 -0.0010132 0.000556445)
(0.00121823 -0.000814025 0.000556445)
(0.00134108 -0.000590114 0.000556445)
(0.00142318 -0.000348272 0.000556445)
(0.00146203 -9.58488e-05 0.000556445)
(0.00145647 0.000159487 0.000556445)
(0.00140664 0.000409976 0.000556445)
(0.00131408 0.000648009 0.000556445)
(0.00118159 0.000866352 0.000556445)
(0.0010132 0.00105837 0.000556445)
(0.000814025 0.00121823 0.000556445)
(0.000590114 0.00134108 0.000556445)
(0.000348272 0.00142318 0.000556445)
(3.83947e-05 0.0013726 0.000569238)
(-0.000200538 0.00135841 0.000569238)
(-0.000433377 0.00130295 0.000569238)
(-0.000653048 0.0012079 0.000569237)
(-0.000852876 0.00107615 0.000569238)
(-0.00102679 0.000911701 0.000569237)
(-0.00116951 0.00071955 0.000569238)
(-0.00127669 0.000505535 0.000569238)
(-0.00134508 0.000276161 0.000569238)
(-0.0013726 3.83946e-05 0.000569238)
(-0.00135841 -0.000200538 0.000569238)
(-0.00130295 -0.000433377 0.000569238)
(-0.0012079 -0.000653048 0.000569237)
(-0.00107615 -0.000852876 0.000569238)
(-0.000911701 -0.00102679 0.000569237)
(-0.00071955 -0.00116951 0.000569238)
(-0.000505535 -0.00127669 0.000569237)
(-0.000276161 -0.00134508 0.000569238)
(-3.83945e-05 -0.0013726 0.000569238)
(0.000200538 -0.00135841 0.000569237)
(0.000433377 -0.00130295 0.000569238)
(0.000653048 -0.0012079 0.000569237)
(0.000852876 -0.00107615 0.000569238)
(0.00102679 -0.000911701 0.000569237)
(0.00116951 -0.00071955 0.000569238)
(0.00127669 -0.000505535 0.000569238)
(0.00134508 -0.000276161 0.000569238)
(0.0013726 -3.83946e-05 0.000569238)
(0.00135841 0.000200538 0.000569238)
(0.00130295 0.000433377 0.000569238)
(0.0012079 0.000653048 0.000569237)
(0.00107615 0.000852876 0.000569238)
(0.000911701 0.00102679 0.000569237)
(0.00071955 0.00116951 0.000569238)
(0.000505535 0.00127669 0.000569238)
(0.000276161 0.00134508 0.000569238)
(0.00010825 0.00183238 0.000729736)
(-0.000211584 0.00182334 0.000729736)
(-0.000524989 0.0017589 0.000729736)
(-0.000822443 0.00164102 0.000729736)
(-0.00109491 0.00147327 0.000729736)
(-0.0013341 0.00126076 0.000729736)
(-0.00153276 0.00100994 0.000729736)
(-0.00168485 0.000728434 0.000729736)
(-0.00178575 0.000424796 0.000729736)
(-0.00183238 0.00010825 0.000729736)
(-0.00182334 -0.000211584 0.000729736)
(-0.0017589 -0.00052499 0.000729736)
(-0.00164102 -0.000822443 0.000729736)
(-0.00147327 -0.00109491 0.000729736)
(-0.00126076 -0.0013341 0.000729736)
(-0.00100994 -0.00153276 0.000729736)
(-0.000728434 -0.00168485 0.000729736)
(-0.000424796 -0.00178575 0.000729736)
(-0.00010825 -0.00183238 0.000729736)
(0.000211584 -0.00182334 0.000729736)
(0.00052499 -0.0017589 0.000729736)
(0.000822443 -0.00164102 0.000729736)
(0.00109491 -0.00147327 0.000729736)
(0.0013341 -0.00126076 0.000729736)
(0.00153276 -0.00100994 0.000729736)
(0.00168485 -0.000728434 0.000729736)
(0.00178575 -0.000424796 0.000729736)
(0.00183238 -0.00010825 0.000729736)
(0.00182334 0.000211584 0.000729736)
(0.0017589 0.000524989 0.000729736)
(0.00164102 0.000822443 0.000729736)
(0.00147327 0.00109491 0.000729736)
(0.00126076 0.0013341 0.000729736)
(0.00100994 0.00153276 0.000729736)
(0.000728434 0.00168485 0.000729736)
(0.000424796 0.00178575 0.000729736)
(5.87428e-05 0.00171344 0.00074188)
(-0.000239685 0.00169761 0.00074188)
(-0.00053083 0.00163019 0.00074188)
(-0.000805845 0.00151325 0.00074188)
(-0.00105638 0.00135033 0.00074188)
(-0.00127481 0.00114638 0.00074188)
(-0.00145451 0.000907591 0.00074188)
(-0.00159001 0.00064123 0.00074188)
(-0.0016772 0.000355385 0.00074188)
(-0.00171344 5.87426e-05 0.00074188)
(-0.00169761 -0.000239685 0.00074188)
(-0.00163019 -0.00053083 0.00074188)
(-0.00151325 -0.000805845 0.00074188)
(-0.00135033 -0.00105638 0.00074188)
(-0.00114638 -0.00127481 0.00074188)
(-0.000907591 -0.00145451 0.00074188)
(-0.00064123 -0.00159001 0.00074188)
(-0.000355385 -0.0016772 0.00074188)
(-5.87425e-05 -0.00171344 0.00074188)
(0.000239685 -0.00169761 0.00074188)
(0.00053083 -0.0016302 0.00074188)
(0.000805845 -0.00151325 0.00074188)
(0.00105638 -0.00135033 0.00074188)
(0.00127481 -0.00114638 0.00074188)
(0.00145451 -0.000907591 0.00074188)
(0.00159001 -0.00064123 0.00074188)
(0.0016772 -0.000355385 0.00074188)
(0.00171344 -5.87427e-05 0.00074188)
(0.00169761 0.000239685 0.00074188)
(0.0016302 0.00053083 0.00074188)
(0.00151325 0.000805845 0.00074188)
(0.00135033 0.00105638 0.00074188)
(0.00114638 0.00127481 0.00074188)
(0.000907591 0.00145451 0.00074188)
(0.00064123 0.00159001 0.00074188)
(0.000355385 0.0016772 0.00074188)
(4.56307e-06 0.00159251 0.000751174)
(-0.000272042 0.0015691 0.000751174)
(-0.000540381 0.00149803 0.000751174)
(-0.000792301 0.00138143 0.000751174)
(-0.00102015 0.00122286 0.000751174)
(-0.001217 0.00102714 0.000751174)
(-0.00137687 0.000800205 0.000751174)
(-0.0014949 0.000548957 0.000751174)
(-0.00156752 0.000281029 0.000751174)
(-0.00159251 4.56293e-06 0.000751174)
(-0.0015691 -0.000272042 0.000751174)
(-0.00149803 -0.000540381 0.000751174)
(-0.00138143 -0.000792301 0.000751174)
(-0.00122286 -0.00102015 0.000751174)
(-0.00102714 -0.001217 0.000751174)
(-0.000800205 -0.00137687 0.000751174)
(-0.000548957 -0.0014949 0.000751174)
(-0.000281029 -0.00156752 0.000751174)
(-4.56285e-06 -0.00159251 0.000751174)
(0.000272042 -0.0015691 0.000751174)
(0.000540382 -0.00149803 0.000751174)
(0.000792301 -0.00138143 0.000751174)
(0.00102015 -0.00122286 0.000751174)
(0.001217 -0.00102714 0.000751174)
(0.00137687 -0.000800205 0.000751174)
(0.00149491 -0.000548957 0.000751174)
(0.00156752 -0.000281029 0.000751174)
(0.00159251 -4.56301e-06 0.000751174)
(0.0015691 0.000272042 0.000751174)
(0.00149803 0.000540381 0.000751174)
(0.00138143 0.000792301 0.000751174)
(0.00122286 0.00102015 0.000751174)
(0.00102714 0.001217 0.000751174)
(0.000800205 0.00137687 0.000751174)
(0.000548957 0.0014949 0.000751174)
(0.00028103 0.00156752 0.000751174)
(4.88105e-05 0.00207595 0.000933722)
(-0.000312416 0.00205289 0.000933722)
(-0.00066415 0.00196745 0.000933722)
(-0.000995704 0.00182223 0.000933722)
(-0.001297 0.00162164 0.000933722)
(-0.00155889 0.00137179 0.000933722)
(-0.00177342 0.00108025 0.000933722)
(-0.00193406 0.000755883 0.000933722)
(-0.00203594 0.000408553 0.000933722)
(-0.00207595 4.88103e-05 0.000933722)
(-0.00205289 -0.000312416 0.000933722)
(-0.00196745 -0.00066415 0.000933722)
(-0.00182223 -0.000995704 0.000933722)
(-0.00162164 -0.001297 0.000933722)
(-0.00137179 -0.00155889 0.000933722)
(-0.00108025 -0.00177342 0.000933722)
(-0.000755883 -0.00193406 0.000933722)
(-0.000408553 -0.00203594 0.000933722)
(-4.88102e-05 -0.00207595 0.000933722)
(0.000312416 -0.00205289 0.000933722)
(0.00066415 -0.00196745 0.000933722)
(0.000995704 -0.00182223 0.000933722)
(0.001297 -0.00162164 0.000933722)
(0.00155889 -0.00137179 0.000933722)
(0.00177342 -0.00108025 0.000933722)
(0.00193406 -0.000755883 0.000933722)
(0.00203594 -0.000408553 0.000933722)
(0.00207595 -4.88104e-05 0.000933722)
(0.00205289 0.000312416 0.000933722)
(0.00196745 0.00066415 0.000933722)
(0.00182223 0.000995704 0.000933722)
(0.00162164 0.001297 0.000933722)
(0.00137179 0.00155889 0.000933722)
(0.00108025 0.00177342 0.000933722)
(0.000755883 0.00193406 0.000933722)
(0.000408553 0.00203594 0.000933722)
(5.20654e-06 0.00192185 0.000939745)
(-0.000328598 0.00189356 0.000939745)
(-0.000652418 0.00180773 0.000939745)
(-0.000956415 0.00166697 0.000939744)
(-0.00123135 0.00147557 0.000939744)
(-0.00146887 0.00123933 0.000939744)
(-0.00166177 0.000965433 0.000939745)
(-0.00180417 0.000662203 0.000939745)
(-0.00189175 0.000338852 0.000939745)
(-0.00192185 5.20637e-06 0.000939745)
(-0.00189356 -0.000328598 0.000939744)
(-0.00180773 -0.000652418 0.000939745)
(-0.00166697 -0.000956416 0.000939744)
(-0.00147557 -0.00123135 0.000939744)
(-0.00123933 -0.00146887 0.000939744)
(-0.000965433 -0.00166177 0.000939745)
(-0.000662203 -0.00180417 0.000939744)
(-0.000338852 -0.00189175 0.000939745)
(-5.20626e-06 -0.00192185 0.000939745)
(0.000328599 -0.00189356 0.000939744)
(0.000652419 -0.00180773 0.000939744)
(0.000956416 -0.00166697 0.000939744)
(0.00123135 -0.00147557 0.000939744)
(0.00146887 -0.00123933 0.000939744)
(0.00166177 -0.000965433 0.000939745)
(0.00180417 -0.000662203 0.000939745)
(0.00189175 -0.000338852 0.000939745)
(0.00192185 -5.20648e-06 0.000939745)
(0.00189356 0.000328598 0.000939745)
(0.00180773 0.000652418 0.000939745)
(0.00166697 0.000956415 0.000939744)
(0.00147557 0.00123135 0.000939744)
(0.00123933 0.00146887 0.000939744)
(0.000965433 0.00166177 0.000939745)
(0.000662203 0.00180417 0.000939745)
(0.000338852 0.00189175 0.000939745)
(-4.22959e-05 0.00176663 0.000942803)
(-0.000348425 0.00173245 0.000942803)
(-0.000643968 0.00164562 0.000942803)
(-0.000919945 0.0015088 0.000942803)
(-0.00116797 0.00132613 0.000942803)
(-0.0013805 0.00110317 0.000942803)
(-0.00155109 0.000846687 0.000942803)
(-0.00167456 0.000564479 0.000942803)
(-0.00174714 0.000265119 0.000942803)
(-0.00176663 -4.22961e-05 0.000942803)
(-0.00173245 -0.000348426 0.000942803)
(-0.00164562 -0.000643969 0.000942803)
(-0.0015088 -0.000919945 0.000942803)
(-0.00132613 -0.00116797 0.000942803)
(-0.00110317 -0.0013805 0.000942803)
(-0.000846687 -0.0015511 0.000942803)
(-0.000564479 -0.00167456 0.000942803)
(-0.000265119 -0.00174714 0.000942803)
(4.22962e-05 -0.00176663 0.000942803)
(0.000348426 -0.00173245 0.000942803)
(0.000643969 -0.00164562 0.000942803)
(0.000919945 -0.0015088 0.000942803)
(0.00116797 -0.00132613 0.000942803)
(0.0013805 -0.00110317 0.000942803)
(0.0015511 -0.000846687 0.000942803)
(0.00167456 -0.000564479 0.000942803)
(0.00174714 -0.000265119 0.000942803)
(0.00176663 4.2296e-05 0.000942803)
(0.00173245 0.000348426 0.000942803)
(0.00164562 0.000643968 0.000942803)
(0.0015088 0.000919945 0.000942803)
(0.00132613 0.00116797 0.000942803)
(0.00110317 0.0013805 0.000942803)
(0.000846687 0.0015511 0.000942803)
(0.000564479 0.00167456 0.000942803)
(0.00026512 0.00174714 0.000942803)
(-2.34956e-05 0.00227058 0.00115181)
(-0.000417421 0.00223201 0.00115181)
(-0.000798664 0.00212561 0.00115181)
(-0.00115564 0.00195463 0.00115181)
(-0.0014775 0.00172426 0.00115181)
(-0.00175447 0.0014415 0.00115181)
(-0.00197813 0.00111494 0.00115181)
(-0.00214168 0.000754505 0.00115181)
(-0.00224017 0.000371143 0.00115181)
(-0.00227058 -2.34957e-05 0.00115181)
(-0.00223201 -0.000417421 0.00115181)