/*--------------------------------*- C++ -*----------------------------------*\
| =========                 |                                                 |
| \\      /  F ield         | OpenFOAM: The Open Source CFD Toolbox           |
|  \\    /   O peration     | Version:  2312                                  |
|   \\  /    A nd           | Website:  www.openfoam.com                      |
|    \\/     M anipulation  |                                                 |
\*---------------------------------------------------------------------------*/
FoamFile
{
    version     2.0;
    format      ascii;
    arch        "LSB;label=32;scalar=64";
    class       pointVectorField;
    location    "0.2";
    object      pointD;
}
// * * * * * * * * * * * * * * * * * * * * * * * * * * * * * * * * * * * * * //

dimensions      [0 1 0 0 0 0 0];

internalField   nonuniform List<vector> 
2164
(
(0 0 0)
(0 0 0)
(0 0 0)
(0 0 0)
(0 0 0)
(0 0 0)
(0 0 0)
(0 0 0)
(0 0 0)
(0 0 0)
(0 0 0)
(0 0 0)
(0 0 0)
(0 0 0)
(0 0 0)
(0 0 0)
(0 0 0)
(0 0 0)
(0 0 0)
(0 0 0)
(0 0 0)
(0 0 0)
(0 0 0)
(0 0 0)
(0 0 0)
(0 0 0)
(0 0 0)
(0 0 0)
(0 0 0)
(0 0 0)
(0 0 0)
(0 0 0)
(0 0 0)
(0 0 0)
(0 0 0)
(0 0 0)
(7.97877e-05 0.000410683 6.2913e-05)
(7.26129e-06 0.000418298 6.29131e-05)
(-6.54857e-05 0.000413204 6.29134e-05)
(-0.000136243 0.000395556 6.29137e-05)
(-0.00020286 0.000365888 6.29137e-05)
(-0.000263314 0.000325103 6.29136e-05)
(-0.000315768 0.00027444 6.29135e-05)
(-0.000358626 0.000215438 6.29132e-05)
(-0.000390588 0.00014989 6.29131e-05)
(-0.000410683 7.97876e-05 6.2913e-05)
(-0.000418298 7.26125e-06 6.29131e-05)
(-0.000413204 -6.54857e-05 6.29134e-05)
(-0.000395556 -0.000136243 6.29137e-05)
(-0.000365888 -0.00020286 6.29137e-05)
(-0.000325103 -0.000263314 6.29136e-05)
(-0.00027444 -0.000315768 6.29135e-05)
(-0.000215438 -0.000358626 6.29132e-05)
(-0.00014989 -0.000390588 6.29131e-05)
(-7.97876e-05 -0.000410683 6.2913e-05)
(-7.26124e-06 -0.000418298 6.29131e-05)
(6.54858e-05 -0.000413204 6.29134e-05)
(0.000136243 -0.000395556 6.29137e-05)
(0.00020286 -0.000365888 6.29137e-05)
(0.000263314 -0.000325103 6.29136e-05)
(0.000315768 -0.00027444 6.29135e-05)
(0.000358626 -0.000215438 6.29132e-05)
(0.000390588 -0.00014989 6.29131e-05)
(0.000410683 -7.97876e-05 6.2913e-05)
(0.000418298 -7.26127e-06 6.29131e-05)
(0.000413204 6.54857e-05 6.29134e-05)
(0.000395556 0.000136243 6.29137e-05)
(0.000365888 0.00020286 6.29137e-05)
(0.000325103 0.000263314 6.29136e-05)
(0.00027444 0.000315768 6.29135e-05)
(0.000215438 0.000358626 6.29132e-05)
(0.00014989 0.000390588 6.29131e-05)
(4.56394e-05 0.000399583 7.1912e-05)
(-2.44408e-05 0.000401438 7.19121e-05)
(-9.37779e-05 0.000391095 7.19123e-05)
(-0.000160266 0.000368869 7.19125e-05)
(-0.000221885 0.000335435 7.19125e-05)
(-0.000276762 0.000291809 7.19124e-05)
(-0.000323229 0.000239317 7.19122e-05)
(-0.000359876 0.000179552 7.19121e-05)
(-0.000385587 0.000114333 7.1912e-05)
(-0.000399583 4.56393e-05 7.1912e-05)
(-0.000401438 -2.44408e-05 7.19121e-05)
(-0.000391095 -9.37779e-05 7.19123e-05)
(-0.000368869 -0.000160266 7.19125e-05)
(-0.000335435 -0.000221885 7.19125e-05)
(-0.000291809 -0.000276762 7.19123e-05)
(-0.000239316 -0.000323229 7.19122e-05)
(-0.000179552 -0.000359876 7.19121e-05)
(-0.000114333 -0.000385587 7.1912e-05)
(-4.56393e-05 -0.000399583 7.1912e-05)
(2.44408e-05 -0.000401438 7.19121e-05)
(9.37779e-05 -0.000391095 7.19123e-05)
(0.000160266 -0.000368869 7.19125e-05)
(0.000221885 -0.000335435 7.19125e-05)
(0.000276762 -0.000291809 7.19123e-05)
(0.000323229 -0.000239317 7.19122e-05)
(0.000359876 -0.000179552 7.19121e-05)
(0.000385587 -0.000114333 7.1912e-05)
(0.000399583 -4.56394e-05 7.1912e-05)
(0.000401438 2.44408e-05 7.19121e-05)
(0.000391095 9.37779e-05 7.19123e-05)
(0.000368869 0.000160266 7.19125e-05)
(0.000335435 0.000221885 7.19125e-05)
(0.000291809 0.000276762 7.19124e-05)
(0.000239317 0.000323229 7.19122e-05)
(0.000179552 0.000359876 7.19121e-05)
(0.000114333 0.000385587 7.1912e-05)
(0 0 0)
(0 0 0)
(0 0 0)
(0 0 0)
(0 0 0)
(0 0 0)
(0 0 0)
(0 0 0)
(0 0 0)
(0 0 0)
(0 0 0)
(0 0 0)
(0 0 0)
(0 0 0)
(0 0 0)
(0 0 0)
(0 0 0)
(0 0 0)
(0 0 0)
(0 0 0)
(0 0 0)
(0 0 0)
(0 0 0)
(0 0 0)
(0 0 0)
(0 0 0)
(0 0 0)
(0 0 0)
(0 0 0)
(0 0 0)
(0 0 0)
(0 0 0)
(0 0 0)
(0 0 0)
(0 0 0)
(0 0 0)
(6.06766e-06 0.000386864 7.89519e-05)
(-6.12026e-05 0.000382041 7.89519e-05)
(-0.000126613 0.000365609 7.89521e-05)
(-0.000188177 0.000338068 7.89521e-05)
(-0.000244023 0.000300256 7.89521e-05)
(-0.000292455 0.00025332 7.89521e-05)
(-0.000332 0.000198687 7.89519e-05)
(-0.000361458 0.000138017 7.89519e-05)
(-0.000379933 7.31539e-05 7.89518e-05)
(-0.000386864 6.06763e-06 7.89519e-05)
(-0.000382041 -6.12026e-05 7.89519e-05)
(-0.000365609 -0.000126614 7.89521e-05)
(-0.000338068 -0.000188177 7.89521e-05)
(-0.000300256 -0.000244023 7.89521e-05)
(-0.00025332 -0.000292455 7.89521e-05)
(-0.000198687 -0.000332 7.89519e-05)
(-0.000138017 -0.000361458 7.89519e-05)
(-7.31539e-05 -0.000379933 7.89518e-05)
(-6.06761e-06 -0.000386864 7.89519e-05)
(6.12026e-05 -0.000382041 7.89519e-05)
(0.000126614 -0.000365609 7.89521e-05)
(0.000188177 -0.000338068 7.89521e-05)
(0.000244023 -0.000300256 7.89521e-05)
(0.000292455 -0.00025332 7.89521e-05)
(0.000332 -0.000198687 7.89519e-05)
(0.000361458 -0.000138017 7.89519e-05)
(0.000379933 -7.31539e-05 7.89518e-05)
(0.000386864 -6.06764e-06 7.89519e-05)
(0.000382041 6.12026e-05 7.89519e-05)
(0.000365609 0.000126614 7.89521e-05)
(0.000338068 0.000188177 7.89521e-05)
(0.000300256 0.000244023 7.89521e-05)
(0.00025332 0.000292455 7.89521e-05)
(0.000198687 0.000332 7.89519e-05)
(0.000138017 0.000361458 7.89519e-05)
(7.31539e-05 0.000379933 7.89518e-05)
(0 0 0)
(0 0 0)
(0 0 0)
(0 0 0)
(0 0 0)
(0 0 0)
(0 0 0)
(0 0 0)
(0 0 0)
(0 0 0)
(0 0 0)
(0 0 0)
(0 0 0)
(0 0 0)
(0 0 0)
(0 0 0)
(0 0 0)
(0 0 0)
(0 0 0)
(0 0 0)
(0 0 0)
(0 0 0)
(0 0 0)
(0 0 0)
(0 0 0)
(0 0 0)
(0 0 0)
(0 0 0)
(0 0 0)
(0 0 0)
(0 0 0)
(0 0 0)
(0 0 0)
(0 0 0)
(0 0 0)
(0 0 0)
(-3.82745e-05 0.000370924 8.40438e-05)
(-0.000102103 0.000358642 8.40438e-05)
(-0.000162829 0.000335464 8.40438e-05)
(-0.000218609 0.000302092 8.40438e-05)
(-0.000267745 0.000259542 8.40439e-05)
(-0.000308746 0.000209105 8.40438e-05)
(-0.000340366 0.000152315 8.40437e-05)
(-0.000361645 9.08969e-05 8.40437e-05)
(-0.000371935 2.67174e-05 8.40437e-05)
(-0.000370924 -3.82745e-05 8.40438e-05)
(-0.000358642 -0.000102103 8.40438e-05)
(-0.000335464 -0.000162829 8.40438e-05)
(-0.000302092 -0.000218609 8.40438e-05)
(-0.000259542 -0.000267745 8.40439e-05)
(-0.000209105 -0.000308746 8.40438e-05)
(-0.000152315 -0.000340367 8.40437e-05)
(-9.08969e-05 -0.000361645 8.40437e-05)
(-2.67173e-05 -0.000371935 8.40437e-05)
(3.82745e-05 -0.000370924 8.40438e-05)
(0.000102103 -0.000358642 8.40438e-05)
(0.000162829 -0.000335464 8.40438e-05)
(0.000218609 -0.000302092 8.40438e-05)
(0.000267745 -0.000259542 8.40439e-05)
(0.000308746 -0.000209105 8.40438e-05)
(0.000340367 -0.000152315 8.40437e-05)
(0.000361645 -9.08969e-05 8.40437e-05)
(0.000371935 -2.67174e-05 8.40437e-05)
(0.000370924 3.82745e-05 8.40438e-05)
(0.000358643 0.000102103 8.40438e-05)
(0.000335464 0.000162829 8.40438e-05)
(0.000302092 0.000218609 8.40438e-05)
(0.000259542 0.000267745 8.40439e-05)
(0.000209105 0.000308746 8.40438e-05)
(0.000152315 0.000340367 8.40437e-05)
(9.08969e-05 0.000361645 8.40437e-05)
(2.67174e-05 0.000371935 8.40437e-05)
(0 0 0)
(0 0 0)
(0 0 0)
(0 0 0)
(0 0 0)
(0 0 0)
(0 0 0)
(0 0 0)
(0 0 0)
(0 0 0)
(0 0 0)
(0 0 0)
(0 0 0)
(0 0 0)
(0 0 0)
(0 0 0)
(0 0 0)
(0 0 0)
(0 0 0)
(0 0 0)
(0 0 0)
(0 0 0)
(0 0 0)
(0 0 0)
(0 0 0)
(0 0 0)
(0 0 0)
(0 0 0)
(0 0 0)
(0 0 0)
(0 0 0)
(0 0 0)
(0 0 0)
(0 0 0)
(0 0 0)
(0 0 0)
(0.000107257 0.000812433 0.000163921)
(-3.545e-05 0.000818715 0.000163921)
(-0.00017708 0.000800121 0.000163922)
(-0.000313329 0.000757216 0.000163922)
(-0.000440058 0.000691303 0.000163922)
(-0.000553416 0.000604386 0.000163922)
(-0.000649959 0.000499104 0.000163922)
(-0.000726753 0.000378657 0.000163921)
(-0.000781465 0.000246705 0.000163921)
(-0.000812433 0.000107257 0.000163921)
(-0.000818715 -3.54501e-05 0.000163921)
(-0.000800121 -0.00017708 0.000163922)
(-0.000757216 -0.000313329 0.000163922)
(-0.000691303 -0.000440058 0.000163922)
(-0.000604386 -0.000553416 0.000163922)
(-0.000499104 -0.000649959 0.000163922)
(-0.000378657 -0.000726753 0.000163921)
(-0.000246705 -0.000781465 0.000163921)
(-0.000107257 -0.000812433 0.000163921)
(3.54501e-05 -0.000818715 0.000163921)
(0.00017708 -0.000800121 0.000163922)
(0.000313329 -0.000757216 0.000163922)
(0.000440058 -0.000691303 0.000163922)
(0.000553416 -0.000604386 0.000163922)
(0.000649959 -0.000499104 0.000163922)
(0.000726753 -0.000378657 0.000163921)
(0.000781465 -0.000246705 0.000163921)
(0.000812433 -0.000107257 0.000163921)
(0.000818715 3.54501e-05 0.000163921)
(0.000800121 0.00017708 0.000163922)
(0.000757216 0.000313329 0.000163922)
(0.000691303 0.000440058 0.000163922)
(0.000604386 0.000553416 0.000163922)
(0.000499104 0.000649959 0.000163922)
(0.000378657 0.000726753 0.000163921)
(0.000246705 0.000781465 0.000163921)
(6.16474e-05 0.000788062 0.00018116)
(-7.6135e-05 0.000786794 0.00018116)
(-0.000211603 0.000761621 0.00018116)
(-0.000340643 0.000713305 0.000181161)
(-0.000459331 0.000643317 0.000181161)
(-0.000564064 0.000553781 0.000181161)
(-0.000651658 0.000447419 0.000181161)
(-0.000719451 0.000327462 0.00018116)
(-0.000765384 0.000197556 0.00018116)
(-0.000788062 6.16473e-05 0.00018116)
(-0.000786794 -7.61351e-05 0.00018116)
(-0.000761621 -0.000211603 0.00018116)
(-0.000713305 -0.000340643 0.000181161)
(-0.000643317 -0.000459331 0.000181161)
(-0.000553781 -0.000564064 0.000181161)
(-0.000447419 -0.000651658 0.000181161)
(-0.000327462 -0.000719451 0.00018116)
(-0.000197556 -0.000765384 0.00018116)
(-6.16473e-05 -0.000788062 0.00018116)
(7.61351e-05 -0.000786794 0.00018116)
(0.000211603 -0.000761621 0.00018116)
(0.000340643 -0.000713305 0.000181161)
(0.000459331 -0.000643317 0.000181161)
(0.000564064 -0.000553781 0.000181161)
(0.000651658 -0.000447419 0.000181161)
(0.000719451 -0.000327462 0.00018116)
(0.000765384 -0.000197556 0.00018116)
(0.000788062 -6.16474e-05 0.00018116)
(0.000786794 7.6135e-05 0.00018116)
(0.000761621 0.000211603 0.00018116)
(0.000713305 0.000340643 0.000181161)
(0.000643317 0.000459331 0.000181161)
(0.000553781 0.000564064 0.000181161)
(0.000447419 0.000651658 0.000181161)
(0.000327462 0.000719451 0.00018116)
(0.000197556 0.000765384 0.00018116)
(1.02071e-05 0.000762242 0.000196316)
(-0.000122309 0.000752435 0.000196317)
(-0.00025111 0.000719765 0.000196317)
(-0.000372281 0.000665225 0.000196317)
(-0.000482141 0.000590473 0.000196317)
(-0.00057735 0.000497779 0.000196317)
(-0.000655018 0.000389961 0.000196317)
(-0.000712782 0.000270294 0.000196316)
(-0.00074889 0.000142414 0.000196316)
(-0.000762242 1.0207e-05 0.000196316)
(-0.000752435 -0.000122309 0.000196317)
(-0.000719765 -0.00025111 0.000196317)
(-0.000665225 -0.000372281 0.000196317)
(-0.000590472 -0.000482141 0.000196317)
(-0.000497779 -0.00057735 0.000196317)
(-0.000389961 -0.000655018 0.000196317)
(-0.000270294 -0.000712782 0.000196316)
(-0.000142414 -0.00074889 0.000196316)
(-1.0207e-05 -0.000762242 0.000196316)
(0.000122309 -0.000752435 0.000196317)
(0.00025111 -0.000719765 0.000196317)
(0.000372281 -0.000665225 0.000196317)
(0.000482141 -0.000590473 0.000196317)
(0.00057735 -0.000497779 0.000196317)
(0.000655018 -0.000389961 0.000196317)
(0.000712782 -0.000270294 0.000196316)
(0.00074889 -0.000142414 0.000196316)
(0.000762242 -1.0207e-05 0.000196316)
(0.000752435 0.000122309 0.000196317)
(0.000719765 0.00025111 0.000196317)
(0.000665225 0.000372281 0.000196317)
(0.000590473 0.000482141 0.000196317)
(0.000497779 0.00057735 0.000196317)
(0.000389961 0.000655018 0.000196317)
(0.000270294 0.000712782 0.000196316)
(0.000142414 0.00074889 0.000196316)
(-4.54171e-05 0.00073205 0.000208885)
(-0.000171846 0.000713042 0.000208885)
(-0.000293053 0.000672369 0.000208885)
(-0.000405356 0.000611266 0.000208885)
(-0.000505343 0.00053159 0.000208885)
(-0.000589975 0.000435762 0.000208885)
(-0.000656681 0.000326693 0.000208885)
(-0.000703435 0.000207698 0.000208885)
(-0.000728815 8.23926e-05 0.000208885)
(-0.00073205 -4.54171e-05 0.000208885)
(-0.000713042 -0.000171846 0.000208885)
(-0.000672369 -0.000293053 0.000208885)
(-0.000611266 -0.000405356 0.000208885)
(-0.00053159 -0.000505343 0.000208884)
(-0.000435762 -0.000589975 0.000208884)
(-0.000326693 -0.000656681 0.000208885)
(-0.000207698 -0.000703435 0.000208885)
(-8.23926e-05 -0.000728815 0.000208885)
(4.54172e-05 -0.00073205 0.000208885)
(0.000171846 -0.000713042 0.000208885)
(0.000293053 -0.000672369 0.000208885)
(0.000405356 -0.000611266 0.000208885)
(0.000505343 -0.00053159 0.000208885)
(0.000589975 -0.000435762 0.000208884)
(0.000656681 -0.000326693 0.000208885)
(0.000703435 -0.000207698 0.000208885)
(0.000728815 -8.23926e-05 0.000208885)
(0.00073205 4.54171e-05 0.000208885)
(0.000713042 0.000171846 0.000208885)
(0.000672369 0.000293053 0.000208885)
(0.000611266 0.000405356 0.000208885)
(0.00053159 0.000505343 0.000208885)
(0.000435762 0.000589975 0.000208885)
(0.000326693 0.000656681 0.000208885)
(0.000207698 0.000703435 0.000208885)
(8.23927e-05 0.000728815 0.000208885)
(0.000107966 0.00120402 0.000315107)
(-0.000102751 0.00120448 0.000315107)
(-0.000310347 0.00116834 0.000315107)
(-0.000508511 0.0010967 0.000315108)
(-0.000691226 0.000991735 0.000315108)
(-0.000852937 0.000856638 0.000315108)
(-0.000988733 0.000695513 0.000315107)
(-0.00109449 0.000513254 0.000315107)
(-0.00116698 0.000315402 0.000315107)
(-0.00120402 0.000107966 0.000315107)
(-0.00120448 -0.000102751 0.000315107)
(-0.00116834 -0.000310347 0.000315107)
(-0.0010967 -0.000508511 0.000315108)
(-0.000991735 -0.000691226 0.000315108)
(-0.000856638 -0.000852937 0.000315108)
(-0.000695513 -0.000988733 0.000315107)
(-0.000513254 -0.00109449 0.000315107)
(-0.000315402 -0.00116698 0.000315107)
(-0.000107966 -0.00120402 0.000315106)
(0.000102751 -0.00120448 0.000315107)
(0.000310347 -0.00116834 0.000315107)
(0.000508511 -0.0010967 0.000315108)
(0.000691226 -0.000991735 0.000315108)
(0.000852937 -0.000856638 0.000315108)
(0.000988733 -0.000695513 0.000315107)
(0.00109449 -0.000513254 0.000315107)
(0.00116698 -0.000315402 0.000315107)
(0.00120402 -0.000107966 0.000315107)
(0.00120448 0.000102751 0.000315107)
(0.00116834 0.000310347 0.000315107)
(0.0010967 0.000508511 0.000315108)
(0.000991735 0.000691226 0.000315108)
(0.000856639 0.000852937 0.000315108)
(0.000695513 0.000988733 0.000315107)
(0.000513255 0.00109449 0.000315107)
(0.000315402 0.00116698 0.000315107)
(5.36141e-05 0.00115932 0.000336353)
(-0.000148514 0.00115101 0.000336353)
(-0.000346129 0.00110774 0.000336353)
(-0.000533227 0.0010308 0.000336353)
(-0.000704123 0.000922551 0.000336353)
(-0.000853625 0.000786266 0.000336353)
(-0.00097719 0.00062609 0.000336353)
(-0.00107106 0.000446891 0.000336353)
(-0.00113239 0.000254112 0.000336353)
(-0.00115932 5.3614e-05 0.000336353)
(-0.00115101 -0.000148514 0.000336353)
(-0.00110774 -0.000346129 0.000336353)
(-0.0010308 -0.000533227 0.000336353)
(-0.000922551 -0.000704123 0.000336353)
(-0.000786266 -0.000853625 0.000336353)
(-0.000626089 -0.00097719 0.000336353)
(-0.000446891 -0.00107106 0.000336353)
(-0.000254112 -0.00113239 0.000336353)
(-5.36139e-05 -0.00115932 0.000336353)
(0.000148514 -0.00115101 0.000336353)
(0.000346129 -0.00110774 0.000336353)
(0.000533227 -0.0010308 0.000336353)
(0.000704123 -0.000922551 0.000336353)
(0.000853625 -0.000786266 0.000336353)
(0.00097719 -0.00062609 0.000336353)
(0.00107106 -0.000446891 0.000336353)
(0.00113239 -0.000254113 0.000336353)
(0.00115932 -5.3614e-05 0.000336353)
(0.00115101 0.000148514 0.000336353)
(0.00110774 0.000346129 0.000336353)
(0.0010308 0.000533227 0.000336353)
(0.000922551 0.000704123 0.000336353)
(0.000786266 0.000853625 0.000336353)
(0.00062609 0.00097719 0.000336353)
(0.000446891 0.00107106 0.000336353)
(0.000254113 0.00113239 0.000336353)
(-6.20512e-06 0.00111315 0.000355471)
(-0.000199408 0.00109516 0.000355471)
(-0.000386551 0.0010439 0.000355471)
(-0.00056195 0.000960917 0.000355471)
(-0.000720275 0.000848736 0.000355471)
(-0.000856713 0.000710767 0.000355471)
(-0.000967121 0.000551203 0.000355471)
(-0.00104814 0.000374889 0.000355471)
(-0.00109732 0.000187186 0.000355471)
(-0.00111315 -6.20521e-06 0.000355471)
(-0.00109516 -0.000199408 0.000355471)
(-0.0010439 -0.000386552 0.000355471)
(-0.000960917 -0.00056195 0.000355471)
(-0.000848736 -0.000720275 0.000355471)
(-0.000710767 -0.000856714 0.000355471)
(-0.000551203 -0.000967121 0.000355471)
(-0.000374889 -0.00104814 0.000355471)
(-0.000187186 -0.00109732 0.000355471)
(6.20526e-06 -0.00111315 0.000355471)
(0.000199408 -0.00109516 0.000355471)
(0.000386552 -0.0010439 0.000355471)
(0.00056195 -0.000960917 0.000355471)
(0.000720275 -0.000848736 0.000355471)
(0.000856714 -0.000710767 0.000355471)
(0.000967121 -0.000551203 0.000355471)
(0.00104814 -0.000374889 0.000355471)
(0.00109732 -0.000187186 0.000355471)
(0.00111315 6.20517e-06 0.000355471)
(0.00109516 0.000199408 0.000355471)
(0.0010439 0.000386551 0.000355471)
(0.000960917 0.00056195 0.000355471)
(0.000848736 0.000720275 0.000355471)
(0.000710768 0.000856713 0.000355471)
(0.000551203 0.000967121 0.000355471)
(0.000374889 0.00104814 0.000355471)
(0.000187186 0.00109732 0.000355471)
(-6.90721e-05 0.00106189 0.000371903)
(-0.000252417 0.00103377 0.000371903)
(-0.000428094 0.000974228 0.000371903)
(-0.000590763 0.00088509 0.000371903)
(-0.000735482 0.000769058 0.000371903)
(-0.000857854 0.000629659 0.000371903)
(-0.000954161 0.000471128 0.000371903)
(-0.00102148 0.000298283 0.000371903)
(-0.00105775 0.000116373 0.000371903)
(-0.00106189 -6.90722e-05 0.000371903)
(-0.00103377 -0.000252418 0.000371903)
(-0.000974228 -0.000428095 0.000371903)
(-0.00088509 -0.000590764 0.000371903)
(-0.000769058 -0.000735482 0.000371903)
(-0.000629659 -0.000857854 0.000371903)
(-0.000471128 -0.000954161 0.000371903)
(-0.000298283 -0.00102148 0.000371903)
(-0.000116373 -0.00105775 0.000371903)
(6.90723e-05 -0.00106189 0.000371903)
(0.000252418 -0.00103377 0.000371903)
(0.000428095 -0.000974228 0.000371903)
(0.000590764 -0.00088509 0.000371903)
(0.000735482 -0.000769058 0.000371903)
(0.000857854 -0.000629659 0.000371903)
(0.000954161 -0.000471128 0.000371903)
(0.00102148 -0.000298283 0.000371903)
(0.00105775 -0.000116373 0.000371903)
(0.00106189 6.90722e-05 0.000371903)
(0.00103377 0.000252418 0.000371903)
(0.000974228 0.000428094 0.000371903)
(0.00088509 0.000590764 0.000371903)
(0.000769058 0.000735482 0.000371903)
(0.000629659 0.000857854 0.000371903)
(0.000471128 0.000954161 0.000371903)
(0.000298283 0.00102148 0.000371903)
(0.000116373 0.00105775 0.000371903)
(7.47474e-05 0.00157573 0.000496525)
(-0.000200012 0.00156477 0.000496526)
(-0.000468693 0.00150627 0.000496526)
(-0.000723132 0.001402 0.000496526)
(-0.000955599 0.00125513 0.000496526)
(-0.00115903 0.00107012 0.000496526)
(-0.00132725 0.000852598 0.000496526)
(-0.00145514 0.00060917 0.000496526)
(-0.00153881 0.000347233 0.000496526)
(-0.00157573 7.47473e-05 0.000496525)
(-0.00156477 -0.000200013 0.000496526)
(-0.00150627 -0.000468693 0.000496526)
(-0.001402 -0.000723132 0.000496526)
(-0.00125513 -0.000955599 0.000496526)
(-0.00107012 -0.00115903 0.000496526)
(-0.000852598 -0.00132725 0.000496526)
(-0.00060917 -0.00145514 0.000496526)
(-0.000347233 -0.00153881 0.000496526)
(-7.47472e-05 -0.00157573 0.000496525)
(0.000200013 -0.00156477 0.000496526)
(0.000468693 -0.00150627 0.000496526)
(0.000723132 -0.001402 0.000496526)
(0.000955599 -0.00125513 0.000496526)
(0.00115903 -0.00107012 0.000496526)
(0.00132725 -0.000852598 0.000496526)
(0.00145514 -0.00060917 0.000496526)
(0.00153881 -0.000347233 0.000496526)
(0.00157573 -7.47474e-05 0.000496525)
(0.00156477 0.000200012 0.000496526)
(0.00150627 0.000468693 0.000496526)
(0.001402 0.000723132 0.000496526)
(0.00125513 0.000955599 0.000496526)
(0.00107012 0.00115903 0.000496526)
(0.000852598 0.00132725 0.000496526)
(0.00060917 0.00145514 0.000496526)
(0.000347233 0.00153881 0.000496526)
(1.79694e-05 0.00150404 0.000518393)
(-0.000243478 0.00148432 0.000518393)
(-0.000497527 0.00141949 0.000518394)
(-0.000736459 0.00131153 0.000518394)
(-0.000953015 0.00116371 0.000518394)
(-0.00114061 0.000980546 0.000518394)
(-0.00129355 0.000767584 0.000518394)
(-0.00140719 0.000531299 0.000518394)
(-0.00147807 0.000278871 0.000518393)
(-0.00150404 1.79693e-05 0.000518393)
(-0.00148432 -0.000243478 0.000518393)
(-0.00141949 -0.000497527 0.000518394)
(-0.00131153 -0.000736459 0.000518394)
(-0.00116371 -0.000953015 0.000518394)
(-0.000980546 -0.00114061 0.000518394)
(-0.000767584 -0.00129356 0.000518394)
(-0.000531299 -0.00140719 0.000518394)
(-0.000278871 -0.00147807 0.000518393)
(-1.79692e-05 -0.00150404 0.000518393)
(0.000243478 -0.00148432 0.000518393)
(0.000497527 -0.00141949 0.000518394)
(0.000736459 -0.00131153 0.000518394)
(0.000953015 -0.00116371 0.000518394)
(0.00114061 -0.000980546 0.000518394)
(0.00129356 -0.000767584 0.000518394)
(0.00140719 -0.000531299 0.000518394)
(0.00147807 -0.000278871 0.000518393)
(0.00150404 -1.79693e-05 0.000518393)
(0.00148432 0.000243478 0.000518393)
(0.00141949 0.000497527 0.000518394)
(0.00131153 0.000736459 0.000518394)
(0.00116372 0.000953015 0.000518394)
(0.000980546 0.00114061 0.000518394)
(0.000767585 0.00129355 0.000518394)
(0.000531299 0.00140719 0.000518394)
(0.000278871 0.00147807 0.000518393)
(-4.36011e-05 0.00143125 0.000537971)
(-0.000291472 0.00140193 0.000537971)
(-0.000530487 0.00133002 0.000537971)
(-0.000753383 0.0012177 0.000537971)
(-0.000953387 0.00106837 0.000537971)
(-0.00112442 0.000886589 0.000537971)
(-0.0012613 0.000677864 0.000537971)
(-0.00135984 0.000448545 0.000537971)
(-0.00141707 0.000205595 0.000537971)
(-0.00143125 -4.36012e-05 0.000537971)
(-0.00140193 -0.000291472 0.000537971)
(-0.00133002 -0.000530487 0.000537971)
(-0.0012177 -0.000753383 0.000537971)
(-0.00106837 -0.000953387 0.000537971)
(-0.000886589 -0.00112442 0.000537971)
(-0.000677864 -0.0012613 0.000537971)
(-0.000448545 -0.00135984 0.000537971)
(-0.000205595 -0.00141707 0.000537971)
(4.36013e-05 -0.00143125 0.000537971)
(0.000291472 -0.00140193 0.000537971)
(0.000530487 -0.00133002 0.000537971)
(0.000753384 -0.0012177 0.000537971)
(0.000953387 -0.00106837 0.000537971)
(0.00112442 -0.000886589 0.000537971)
(0.0012613 -0.000677864 0.000537971)
(0.00135984 -0.000448545 0.000537971)
(0.00141707 -0.000205595 0.000537971)
(0.00143125 4.36012e-05 0.000537971)
(0.00140193 0.000291472 0.000537971)
(0.00133002 0.000530487 0.000537971)
(0.0012177 0.000753383 0.000537971)
(0.00106837 0.000953387 0.000537971)
(0.000886589 0.00112442 0.000537971)
(0.000677864 0.0012613 0.000537971)
(0.000448545 0.00135984 0.000537971)
(0.000205595 0.00141707 0.000537971)
(-0.000107559 0.00135319 0.000554649)
(-0.000340903 0.00131395 0.000554649)
(-0.000563889 0.00123479 0.000554649)
(-0.000769743 0.00111812 0.000554649)
(-0.000952206 0.000967465 0.000554649)
(-0.00110574 0.000787418 0.000554649)
(-0.00122567 0.000583445 0.000554649)
(-0.00130837 0.000361746 0.000554649)
(-0.00135131 0.000129054 0.000554649)
(-0.00135319 -0.000107559 0.000554649)
(-0.00131395 -0.000340904 0.000554649)
(-0.00123479 -0.000563889 0.000554649)
(-0.00111812 -0.000769743 0.000554649)
(-0.000967465 -0.000952206 0.000554649)
(-0.000787418 -0.00110574 0.000554649)
(-0.000583445 -0.00122567 0.000554649)
(-0.000361746 -0.00130837 0.000554649)
(-0.000129054 -0.00135131 0.000554649)
(0.000107559 -0.00135319 0.000554649)
(0.000340904 -0.00131395 0.000554649)
(0.000563889 -0.00123479 0.000554649)
(0.000769743 -0.00111812 0.000554649)
(0.000952206 -0.000967465 0.000554649)
(0.00110574 -0.000787418 0.000554649)
(0.00122567 -0.000583445 0.000554649)
(0.00130837 -0.000361746 0.000554649)
(0.00135131 -0.000129054 0.000554649)
(0.00135319 0.000107559 0.000554649)
(0.00131395 0.000340903 0.000554649)
(0.00123479 0.000563889 0.000554649)
(0.00111812 0.000769743 0.000554649)
(0.000967465 0.000952206 0.000554649)
(0.000787418 0.00110574 0.000554649)
(0.000583445 0.00122567 0.000554649)
(0.000361746 0.00130837 0.000554649)
(0.000129054 0.00135131 0.000554649)
(1.13862e-05 0.00191759 0.000701612)
(-0.000321773 0.00189043 0.000701612)
(-0.000645154 0.00180584 0.000701612)
(-0.000948934 0.00166637 0.000701613)
(-0.00122388 0.00147628 0.000701613)
(-0.00146164 0.00124132 0.000701613)
(-0.00165499 0.000968655 0.000701613)
(-0.00179805 0.000666553 0.000701613)
(-0.00188648 0.000344198 0.000701613)
(-0.00191759 1.1386e-05 0.000701612)
(-0.00189043 -0.000321773 0.000701612)
(-0.00180584 -0.000645154 0.000701612)
(-0.00166637 -0.000948934 0.000701612)
(-0.00147628 -0.00122388 0.000701613)
(-0.00124132 -0.00146164 0.000701613)
(-0.000968654 -0.00165499 0.000701613)
(-0.000666553 -0.00179805 0.000701613)
(-0.000344198 -0.00188648 0.000701613)
(-1.13859e-05 -0.00191759 0.000701612)
(0.000321773 -0.00189043 0.000701612)
(0.000645154 -0.00180584 0.000701612)
(0.000948934 -0.00166637 0.000701612)
(0.00122388 -0.00147628 0.000701613)
(0.00146164 -0.00124132 0.000701613)
(0.00165499 -0.000968655 0.000701613)
(0.00179805 -0.000666553 0.000701613)
(0.00188648 -0.000344199 0.000701613)
(0.00191759 -1.13861e-05 0.000701612)
(0.00189043 0.000321773 0.000701612)
(0.00180584 0.000645154 0.000701612)
(0.00166637 0.000948934 0.000701613)
(0.00147628 0.00122388 0.000701613)
(0.00124132 0.00146164 0.000701613)
(0.000968655 0.00165499 0.000701613)
(0.000666553 0.00179805 0.000701613)
(0.000344199 0.00188648 0.000701613)
(-4.25126e-05 0.00181341 0.000720847)
(-0.000356762 0.00177848 0.000720847)
(-0.000660172 0.00168951 0.000720847)
(-0.000943523 0.00154921 0.000720848)
(-0.00119821 0.00136183 0.000720848)
(-0.00141648 0.00113307 0.000720848)
(-0.00159172 0.000869891 0.000720848)
(-0.00171859 0.000580276 0.000720848)
(-0.00179325 0.000273029 0.000720848)
(-0.00181341 -4.25127e-05 0.000720847)
(-0.00177848 -0.000356762 0.000720847)
(-0.00168951 -0.000660173 0.000720847)
(-0.00154921 -0.000943523 0.000720848)
(-0.00136183 -0.00119821 0.000720848)
(-0.00113307 -0.00141648 0.000720848)
(-0.000869891 -0.00159172 0.000720847)
(-0.000580276 -0.00171859 0.000720848)
(-0.000273029 -0.00179325 0.000720848)
(4.25128e-05 -0.00181341 0.000720847)
(0.000356762 -0.00177848 0.000720847)
(0.000660173 -0.00168951 0.000720847)
(0.000943523 -0.00154921 0.000720848)
(0.00119821 -0.00136183 0.000720848)
(0.00141648 -0.00113307 0.000720848)
(0.00159172 -0.000869891 0.000720848)
(0.00171859 -0.000580276 0.000720848)
(0.00179325 -0.00027303 0.000720848)
(0.00181341 4.25126e-05 0.000720847)
(0.00177848 0.000356762 0.000720847)
(0.00168951 0.000660173 0.000720847)
(0.00154921 0.000943523 0.000720848)
(0.00136183 0.00119821 0.000720848)
(0.00113307 0.00141648 0.000720848)
(0.000869891 0.00159172 0.000720848)
(0.000580277 0.00171859 0.000720848)
(0.00027303 0.00179325 0.000720848)
(-0.000100598 0.00170875 0.000737654)
(-0.00039579 0.00166532 0.000737654)
(-0.000678958 0.00157129 0.000737654)
(-0.000941494 0.00142952 0.000737654)
(-0.00117543 0.00124432 0.000737654)
(-0.00137364 0.0010213 0.000737654)
(-0.00153012 0.000767255 0.000737654)
(-0.00164011 0.000489897 0.000737654)
(-0.00170026 0.000197652 0.000737654)
(-0.00170875 -0.000100598 0.000737654)
(-0.00166532 -0.00039579 0.000737654)
(-0.00157129 -0.000678958 0.000737654)
(-0.00142952 -0.000941495 0.000737654)
(-0.00124432 -0.00117543 0.000737654)
(-0.0010213 -0.00137364 0.000737654)
(-0.000767255 -0.00153012 0.000737654)
(-0.000489897 -0.00164011 0.000737654)
(-0.000197652 -0.00170026 0.000737654)
(0.000100598 -0.00170875 0.000737654)
(0.00039579 -0.00166532 0.000737654)
(0.000678958 -0.00157129 0.000737654)
(0.000941495 -0.00142952 0.000737654)
(0.00117543 -0.00124432 0.000737654)
(0.00137364 -0.0010213 0.000737654)
(0.00153012 -0.000767255 0.000737654)
(0.00164011 -0.000489897 0.000737654)
(0.00170026 -0.000197652 0.000737654)
(0.00170875 0.000100598 0.000737654)
(0.00166532 0.00039579 0.000737654)
(0.00157129 0.000678958 0.000737654)
(0.00142952 0.000941494 0.000737654)
(0.00124432 0.00117543 0.000737654)
(0.0010213 0.00137364 0.000737654)
(0.000767255 0.00153012 0.000737654)
(0.000489898 0.00164011 0.000737654)
(0.000197652 0.00170026 0.000737654)
(-0.000160463 0.0015991 0.000751347)
(-0.000435707 0.00154694 0.000751348)
(-0.000697712 0.00144778 0.000751348)
(-0.000938516 0.00130463 0.000751347)
(-0.0011508 0.00112184 0.000751347)
(-0.00132813 0.000904962 0.000751347)
(-0.00146509 0.000660587 0.000751347)
(-0.00155755 0.000396139 0.000751347)
(-0.00160267 0.000119655 0.000751348)
(-0.0015991 -0.000160463 0.000751347)
(-0.00154694 -0.000435707 0.000751347)
(-0.00144778 -0.000697712 0.000751348)
(-0.00130463 -0.000938516 0.000751347)
(-0.00112184 -0.00115081 0.000751347)
(-0.000904962 -0.00132813 0.000751347)
(-0.000660586 -0.00146509 0.000751347)
(-0.000396139 -0.00155755 0.000751347)
(-0.000119655 -0.00160267 0.000751348)
(0.000160463 -0.0015991 0.000751347)
(0.000435708 -0.00154694 0.000751347)
(0.000697712 -0.00144778 0.000751348)
(0.000938516 -0.00130463 0.000751347)
(0.00115081 -0.00112184 0.000751347)
(0.00132813 -0.000904962 0.000751347)
(0.00146509 -0.000660587 0.000751347)
(0.00155755 -0.000396139 0.000751347)
(0.00160267 -0.000119655 0.000751348)
(0.0015991 0.000160463 0.000751347)
(0.00154694 0.000435707 0.000751348)
(0.00144778 0.000697712 0.000751348)
(0.00130463 0.000938516 0.000751347)
(0.00112184 0.0011508 0.000751347)
(0.000904962 0.00132813 0.000751347)
(0.000660587 0.00146509 0.000751347)
(0.000396139 0.00155755 0.000751347)
(0.000119655 0.00160267 0.000751348)
(-7.58563e-05 0.00221965 0.000926188)
(-0.000460142 0.00217276 0.000926188)
(-0.000830446 0.00205984 0.000926188)
(-0.00117552 0.00188434 0.000926188)
(-0.00148487 0.00165159 0.000926188)
(-0.00174911 0.00136865 0.000926188)
(-0.0019602 0.00104413 0.000926188)
(-0.00211173 0.000687883 0.000926188)
(-0.0021991 0.000310734 0.000926189)
(-0.00221965 -7.58565e-05 0.000926188)
(-0.00217276 -0.000460143 0.000926188)