/*--------------------------------*- C++ -*----------------------------------*\
| =========                 |                                                 |
| \\      /  F ield         | OpenFOAM: The Open Source CFD Toolbox           |
|  \\    /   O peration     | Version:  2412                                  |
|   \\  /    A nd           | Website:  www.openfoam.com                      |
|    \\/     M anipulation  |                                                 |
\*---------------------------------------------------------------------------*/
FoamFile
{
    version     2.0;
    format      ascii;
    arch        "LSB;label=32;scalar=64";
    class       volScalarField;
    location    "0.0400007";
    object      activationTime;
}
// * * * * * * * * * * * * * * * * * * * * * * * * * * * * * * * * * * * * * //

dimensions      [0 0 1 0 0 0 0];

internalField   nonuniform List<scalar> 
8790
(
0
0
0
0
0
0
0
0
0
0
0
0
0
0
0
0
0
0
0
0
0
0
0
0
0
0
0
0
0
0
0
0
0
0
0
0
0
0
0
0
0
0
0
0
0
0
0
0
0
0
0
0
0
0
0
0
0
0
0
0
0
0
0
0
0
0
0
0
0
0
0
0
0
0
0
0
0
0
0
0
0
0
0
0
0
0
0
0
0
0
0
0
0
0
0
0
0
0
0
0
0
0
0
0
0
0
0
0
0
0
0
0
0
0
0
0
0
0
0
0
0
0
0
0
0
0
0
0
0
0
0
0
0
0
0
0
0
0
0
0
0
0
0
0
0
0
0
0
0
0
0
0
0
0
0
0
0
0
0
0
0
0
0
0
0
0
0
0
0
0
0
0
0
0
0
0
0
0
0
0
0
0
0
0
0
0
0
0
0
0
0
0
0
0
0
0
0
0
0
0
0
0
0
0
0
0
0
0
0
0
0
0
0
0
0
0
0
0
0
0
0
0
0
0
0
0
0
0
0
0
0
0
0
0
0
0
0
0
0
0
0
0
0
0
0
0
0
0
0
0
0
0
0
0
0
0
0
0
0
0
0
0
0
0
0
0
0
0
0
0
0
0
0
0
0
0
0
0
0
0
0
0
0
0
0
0
0
0
0
0
0
0
0
0
0
0
0
0
0
0
0
0
0
0
0
0
0
0
0
0
0
0
0
0
0
0
0
0
0
0
0
0
0
0
0
0
0
0
0
0
0
0
0
0
0
0
0
0
0
0
0
0
0
0
0
0
0
0
0
0
0
0
0
0
0
0
0
0
0
0
0
0
0
0
0
0
0
0
0
0
0
0
0
0
0
0
0
0
0
0
0
0
0
0
0
0
0
0
0
0
0
0
0
0
0
0
0
0
0
0
0
0
0
0
0
0
0
0
0
0
0
0
0
0
0
0
0
0
0
0
0
0
0
0
0
0
0
0
0
0
0
0
0
0
0
0
0
0
0
0
0
0
0
0
0
0
0
0
0
0
0
0
0
0
0
0
0
0
0
0
0
0
0
0
0
0
0
0
0
0
0
0
0
0
0
0
0
0
0
0
0
0
0
0
0
0
0
0
0
0
0
0
0
0
0
0
0
0
0
0
0
0
0
0
0
0
0
0
0
0
0
0
0
0
0
0
0
0
0
0
0
0
0
0
0
0
0
0
0
0
0
0
0
0
0
0
0
0
0
0
0
0
0
0
0
0
0
0
0
0
0
0
0
0
0
0
0
0
0
0
0
0
0
0
0
0
0
0
0
0
0
0
0
0
0
0
0
0
0
0
0
0
0
0
0
0
0
0
0
0
0
0
0
0
0
0
0
0
0
0
0
0
0
0
0
0
0
0
0
0
0
0
0
0
0
0
0
0
0
0
0
0
0
0
0
0
0
0
0
0
0
0
0
0
0
0
0
0
0
0
0
0
0
0
0
0
0
0
0
0
0
0
0
0
0
0
0
0
0
0
0
0
0
0
0
0
0
0
0
0
0
0
0
0
0
0
0
0
0
0
0
0
0
0
0
0
0
0
0
0
0
0
0
0
0
0
0
0
0
0
0
0
0
0
0
0
0
0
0
0
0
0
0
0
0
0
0
0
0
0
0
0
0
0
0
0
0
0
0
0
0
0
0
0
0
0
0
0
0
0
0
0
0
0
0
0
0
0
0
0
0
0
0
0
0
0
0
0
0
0
0
0
0
0
0
0
0
0
0
0
0
0
0
0
0
0
0
0
0
0
0
0
0
0
0
0
0
0
0
0
0
0
0
0
0
0
0
0
0
0
0
0
0
0
0
0
0
0
0
0
0
0
0
0
0
0
0
0
0
0
0
0
0
0
0
0
0
0
0
0
0
0
0
0
0
0
0
0
0
0
0
0
0
0
0
0
0
0
0
0
0
0
0
0
0
0
0
0
0
0
0
0
0
0
0
0
0
0
0
0
0
0
0
0
0
0
0
0
0
0
0
0
0
0
0
0
0
0
0
0
0
0
0
0
0
0
0
0
0
0
0
0
0
0
0
0
0
0
0
0
0
0
0
0
0
0
0
0
0
0
0
0
0
0
0
0
0
0
0
0
0
0
0
0
0
0
0
0
0
0
0
0
0
0
0
0
0
0
0
0
0
0
0
0
0
0
0
0
0
0
0
0
0
0
0
0
0
0
0
0
0
0
0
0
0
0
0
0
0
0
0
0
0
0
0
0
0
0
0
0
0
0
0
0
0
0
0
0
0
0
0
0
0
0
0
0
0
0
0
0
0
0
0
0
0
0
0
0
0
0
0
0
0
0
0
0
0
0
0
0
0
0
0
0
0
0
0
0
0
0
0
0
0
0
0
0
0
0
0
0
0
0
0
0
0
0
0
0
0
0
0
0
0
0
0
0
0
0
0
0
0
0
0
0
0
0
0
0
0
0
0
0
0
0
0
0
0
0
0
0
0
0
0
0
0
0
0
0
0
0
0
0
0
0
0
0
0
0
0
0
0
0
0
0
0
0
0
0
0
0
0
0
0
0
0
0
0
0
0
0
0
0
0
0
0
0
0
0
0
0
0
0
0
0
0
0
0
0
0
0
0
0
0
0
0
0
0
0
0
0
0
0
0
0
0
0
0
0
0
0
0
0
0
0
0
0
0
0
0
0
0
0
0
0
0
0
0
0
0
0
0
0
0
0
0
0
0
0
0
0
0
0
0
0
0
0
0
0
0
0
0
0
0
0
0
0
0
0
0
0
0
0
0
0
0
0
0
0
0
0
0
0
0
0
0
0
0
0
0
0
0
0
0
0
0
0
0
0
0
0
0
0
0
0
0
0
0
0
0
0
0
0
0
0
0
0
0
0
0
0
0
0
0
0
0
0
0
0
0
0
0
0
0
0
0
0
0
0
0
0
0
0
0
0
0
0
0
0
0
0
0
0
0
0
0
0
0
0
0
0
0
0
0
0
0
0
0
0
0
0
0
0
0
0
0
0
0
0
0
0
0
0
0
0
0
0
0
0
0
0
0
0
0
0
0
0
0
0
0
0
0
0
0
0
0
0
0
0
0
0
0
0
0
0
0
0
0
0
0
0
0
0
0
0
0
0
0
0
0
0
0
0
0
0
0
0
0
0
0
0
0
0
0
0
0
0
0
0
0
0
0
0
0
0
0
0
0
0
0
0
0
0
0
0
0
0
0
0
0
0
0
0
0
0
0
0
0
0
0
0
0
0
0
0
0
0
0
0
0
0
0
0
0
0
0
0
0
0
0
0
0
0
0
0
0
0
0
0
0
0
0
0
0
0
0
0
0
0
0
0
0
0
0
0
0
0
0
0
0
0
0
0
0
0
0
0.0399958
0
0
0
0
0
0
0
0
0
0
0
0
0
0
0
0
0
0
0
0
0
0
0
0
0
0
0
0
0
0
0
0
0.0399996
0
0
0
0
0
0
0
0
0
0
0
0
0
0
0
0
0
0
0
0
0
0
0
0
0
0
0
0
0
0
0
0
0
0
0
0
0
0
0
0
0
0
0
0
0
0
0
0
0
0
0
0
0
0
0
0
0
0
0
0
0
0
0
0
0
0
0
0
0
0
0
0
0
0
0
0
0
0
0
0
0
0
0
0
0
0
0
0
0
0
0
0
0
0
0
0
0
0
0
0
0
0
0
0
0
0
0
0
0
0
0
0
0
0
0
0
0
0
0
0
0
0
0
0
0
0
0
0
0
0
0
0
0
0
0
0
0
0
0
0
0
0
0
0
0
0
0
0
0
0
0
0
0
0
0
0
0
0
0
0
0
0
0
0
0
0
0
0
0
0
0
0
0
0
0
0
0
0
0
0
0
0
0
0
0
0
0
0
0
0
0
0
0
0
0
0
0
0
0
0
0
0
0
0
0
0
0
0
0
0
0
0
0
0
0
0
0
0
0
0
0
0
0
0
0
0
0
0
0
0
0
0
0
0
0
0
0
0
0
0
0
0
0
0
0
0
0
0
0
0
0
0
0
0
0
0
0
0
0
0
0
0
0
0
0
0
0
0
0
0
0
0
0
0
0
0
0
0
0
0
0
0
0
0
0
0
0
0
0
0
0
0
0
0
0
0
0
0
0
0
0
0
0
0
0
0
0
0
0
0
0
0
0
0
0
0
0
0
0
0
0
0
0
0
0
0
0
0
0
0
0
0
0
0
0
0
0
0
0
0
0
0
0
0
0
0
0
0
0
0
0
0
0
0
0
0
0
0
0
0
0
0
0
0
0
0
0
0
0
0
0
0
0
0
0
0
0
0
0
0
0
0
0
0
0
0
0
0
0
0
0
0
0
0
0
0
0
0
0
0
0
0
0
0
0
0
0
0
0
0
0
0
0
0
0
0
0
0
0
0
0
0
0
0
0
0
0
0
0
0
0
0
0
0
0
0
0
0
0
0
0
0
0
0
0
0
0
0
0
0
0
0
0
0
0
0
0
0
0
0
0
0.0388551
0.0390221
0.0391906
0.0393606
0.039527
0.039697
0.0398694
0
0
0
0
0
0
0
0
0
0
0
0
0
0
0
0
0
0
0
0
0
0
0
0
0
0
0.0388629
0.0390264
0.0391934
0.0393625
0.0395331
0.0397051
0.0398793
0
0
0
0
0
0
0
0
0
0
0
0
0
0
0
0
0
0
0
0
0
0
0
0
0
0
0.0388791
0.0390464
0.039215
0.0393851
0.0395568
0.0397301
0.0398998
0
0
0
0
0
0
0
0
0
0
0
0
0
0
0
0
0
0
0
0
0
0
0
0
0
0
0.0389082
0.0390755
0.0392442
0.0394142
0.0395858
0.0397592
0.0399341
0
0
0
0
0
0
0
0
0
0
0
0
0
0
0
0
0
0
0
0
0
0
0
0
0
0
0.0389571
0.0391238
0.0392922
0.0394619
0.0396331
0.0398061
0.0399808
0
0
0
0
0
0
0
0
0
0
0
0
0
0
0
0
0
0
0
0
0
0
0
0
0
0
0.0390237
0.0391902
0.039358
0.0395272
0.0396929
0.0398626
0
0
0
0
0
0
0
0
0
0
0
0
0
0
0
0
0
0
0
0
0
0
0
0
0
0
0
0.0390961
0.0392618
0.0394286
0.0395967
0.0397662
0.0399375
0
0
0
0
0
0
0
0
0
0
0
0
0
0
0
0
0
0
0
0
0
0
0
0
0
0
0
0.0391815
0.0393469
0.0395133
0.0396808
0.0398499
0
0
0
0
0
0
0
0
0
0
0
0
0
0
0
0
0
0
0
0
0
0
0
0
0
0
0
0
0.0392761
0.0394433
0.0396107
0.0397789
0.0399432
0
0
0
0
0
0
0
0
0
0
0
0
0
0
0
0
0
0
0
0
0
0
0
0
0
0
0
0
0.0393895
0.0395533
0.0397181
0.0398843
0
0
0
0
0
0
0
0
0
0
0
0
0
0
0
0
0
0
0
0
0
0
0
0
0
0
0
0
0
0.0395137
0.0396764
0.0398401
0
0
0
0
0
0
0
0
0
0
0
0
0
0
0
0
0
0
0
0
0
0
0
0
0
0
0
0
0
0
0.0396482
0.0398122
0.0399762
0
0
0
0
0
0
0
0
0
0
0
0
0
0
0
0
0
0
0
0
0
0
0
0
0
0
0
0
0
0
0.0397849
0.0399463
0
0
0
0
0
0
0
0
0
0
0
0
0
0
0
0
0
0
0
0
0
0
0
0
0
0
0
0
0
0
0
0.0399096
0
0
0
0
0
0
0
0
0
0
0
0
0
0
0
0
0
0
0
0
0
0
0
0
0
0
0
0
0
0
0
0
0.0399883
0
0
0
0
0
0
0
0
0
0
0
0
0
0
0
0
0
0
0
0
0
0
0
0
0
0
0
0
0
0
0
0
0.0377204
0.0378872
0.0380577
0.0382305
0.0384054
0.0385833
0.0387576
0.0389357
0.0391164
0.0392952
0.0394778
0.0396627
0.0398459
0
0
0
0
0
0
0
0
0
0
0
0
0
0
0
0
0
0
0
0
0.0377242
0.0378948
0.0380669
0.0382412
0.0384177
0.0385908
0.0387674
0.0389463
0.039128
0.0393064
0.0394886
0.0396744
0.0398571
0
0
0
0
0
0
0
0
0
0
0
0
0
0
0
0
0
0
0
0
0.0377461
0.037918
0.0380916
0.0382616
0.0384354
0.0386114
0.0387902
0.038966
0.0391454
0.0393272
0.0395074
0.0396915
0.039878
0
0
0
0
0
0
0
0
0
0
0
0
0
0
0
0
0
0
0
0
0.0377756
0.0379473
0.0381209
0.0382962
0.0384677
0.038643
0.0388208
0.0390013
0.0391784
0.0393592
0.0395427
0.039724
0.0399089
0
0
0
0
0
0
0
0
0
0
0
0
0
0
0
0
0
0
0
0
0.0378246
0.0379958
0.0381689
0.0383437
0.0385145
0.0386893
0.0388667
0.0390474
0.0392239
0.0394043
0.0395878
0.0397684
0.0399527
0
0
0
0
0
0
0
0
0
0
0
0
0
0
0
0
0
0
0
0
0.0378873
0.0380553
0.0382257
0.038398
0.038572
0.0387487
0.0389275
0.0391022
0.0392805
0.0394621
0.0396409
0.0398233
0
0
0
0
0
0
0
0
0
0
0
0
0
0
0
0
0
0
0
0
0
0.0379629
0.0381327
0.0383041
0.0384718
0.0386433
0.0388174
0.0389937
0.0391729
0.0393484
0.0395278
0.0397099
0.0398899
0
0
0
0
0
0
0
0
0
0
0
0
0
0
0
0
0
0
0
0
0
0.0380501
0.0382196
0.0383906
0.0385576
0.0387283
0.0389015
0.0390769
0.0392554
0.0394301
0.0396088
0.03979
0.0399693
0
0
0
0
0
0
0
0
0
0
0
0
0
0
0
0
0
0
0
0
0
0.0381418
0.0383106
0.0384807
0.0386519
0.0388244
0.0389992
0.0391758
0.0393486
0.0395252
0.0397043
0.0398817
0
0
0
0
0
0
0
0
0
0
0
0
0
0
0
0
0
0
0
0
0
0
0.0382607
0.0384295
0.0385944
0.0387631
0.0389341
0.0391071
0.0392821
0.0394591
0.0396329
0.0398106
0.0399904
0
0
0
0
0
0
0
0
0
0
0
0
0
0
0
0
0
0
0
0
0
0
0.0383888
0.0385522
0.0387189
0.0388877
0.0390582
0.0392305
0.0394046
0.0395806
0.0397589
0.039933
0
0
0
0
0
0
0
0
0
0
0
0
0
0
0
0
0
0
0
0
0
0
0
0.0385229
0.0386885
0.0388555
0.0390241
0.0391944
0.0393664
0.0395402
0.0397163
0.0398884
0
0
0
0
0
0
0
0
0
0
0
0
0
0
0
0
0
0
0
0
0
0
0
0
0.0386694
0.0388345
0.0390011
0.0391692
0.039339
0.0395103
0.039678
0.0398499
0
0
0
0
0
0
0
0
0
0
0
0
0
0
0
0
0
0
0
0
0
0
0
0
0
0.0388011
0.0389662
0.0391321
0.039299
0.0394675
0.0396377
0.0398042
0.0399745
0
0
0
0
0
0
0
0
0
0
0
0
0
0
0
0
0
0
0
0
0
0
0
0
0
0.0388855
0.0390504
0.0392158
0.0393821
0.03955
0.0397196
0.0398855
0
0
0
0
0
0
0
0
0
0
0
0
0
0
0
0
0
0
0
0
0
0
0
0
0
0
0.0365916
0.0367668
0.0369449
0.0371198
0.0372985
0.0374799
0.0376594
0.0378429
0.0380288
0.0382129
0.0384004
0.0385865
0.0387769
0.0389659
0.0391592
0.0393516
0.0395431
0.0397413
0.0399378
0
0
0
0
0
0
0
0
0
0
0
0
0
0
0.0366031
0.0367798
0.0369532
0.0371303
0.0373097
0.0374922
0.0376712
0.0378541
0.0380357
0.0382218
0.0384054
0.0385949
0.0387815
0.0389739
0.0391635
0.0393592
0.0395527
0.0397459
0.0399456
0
0
0
0
0
0
0
0
0
0
0
0
0
0
0.0366229
0.0367971
0.0369736
0.0371528
0.0373292
0.0375093
0.0376916
0.0378725
0.038057
0.0382395
0.0384274
0.0386177
0.038806
0.038993
0.0391866
0.0393777
0.0395743
0.0397691
0.0399634
0
0
0
0
0
0
0
0
0
0
0
0
0
0
0.0366576
0.0368295
0.0370052
0.0371834
0.0373644
0.0375421
0.0377237
0.0379084
0.0380904
0.0382758
0.03846
0.0386487
0.0388358
0.0390277
0.0392179
0.0394074
0.039603
0.0397965
0.0399912
0
0
0
0
0
0
0
0
0
0
0
0
0
0
0.0367062
0.0368774
0.0370522
0.0372296
0.0374105
0.0375876
0.0377689
0.0379538
0.0381354
0.0383205
0.0385045
0.0386925
0.0388791
0.0390703
0.0392602
0.0394493
0.0396447
0.0398379
0
0
0
0
0
0
0
0
0
0
0
0
0
0
0
0.0367627
0.0369367
0.0371137
0.0372872
0.0374649
0.0376449
0.0378281
0.038008
0.0381916
0.0383738
0.0385601
0.0387443
0.038934
0.0391211
0.039314
0.0395045
0.0397004
0.0398947
0
0
0
0
0
0
0
0
0
0
0
0
0
0
0
0.0368359
0.0370089
0.037184
0.0373614
0.0375359
0.0377143
0.0378954
0.0380743
0.038258
0.0384435
0.0386271
0.0388148
0.0390007
0.0391917
0.0393805
0.0395742
0.0397665
0.0399579
0
0
0
0
0
0
0
0
0
0
0
0
0
0
0
0.0369237
0.037096
0.0372705
0.0374478
0.0376214
0.037799
0.0379793
0.0381574
0.0383404
0.0385254
0.0387081
0.0388955
0.0390804
0.0392711
0.0394588
0.0396523
0.0398436
0
0
0
0
0
0
0
0
0
0
0
0
0
0
0
0
0.0370241
0.037198
0.0373736
0.0375453
0.0377208
0.037899
0.0380751
0.0382556
0.0384384
0.0386188
0.0388042
0.0389918
0.0391774
0.0393669
0.039555
0.0397424
0.039936
0
0
0
0
0
0
0
0
0
0
0
0
0
0
0
0
0.0371366
0.0373088
0.0374829
0.0376593
0.0378319
0.0380085
0.0381877
0.0383697
0.0385488
0.0387316
0.0389122
0.0390983
0.0392816
0.0394704
0.0396569
0.0398486
0
0
0
0
0
0
0
0
0
0
0
0
0
0
0
0
0
0.0372678
0.0374392
0.0376129
0.0377884
0.0379598
0.0381352
0.0383133
0.0384941
0.0386719
0.038854
0.0390335
0.0392185
0.0394059
0.0395911
0.039781
0.0399689
0
0
0
0
0
0
0
0
0
0
0
0
0
0
0
0
0
0.0374164
0.0375819
0.0377517
0.0379242
0.0380985
0.0382746
0.0384533
0.0386287
0.038808
0.0389898
0.0391693
0.0393534
0.039535
0.0397221
0.0399071
0
0
0
0
0
0
0
0
0
0
0
0
0
0
0
0
0
0
0.0375574
0.0377269
0.037898
0.0380707
0.0382459
0.038417
0.0385922
0.0387699
0.0389498
0.0391273
0.0393088
0.0394929
0.0396747
0.0398609
0
0
0
0
0
0
0
0
0
0
0
0
0
0
0
0
0
0
0
0.0376969
0.0378652
0.0380355
0.0382026
0.0383738
0.0385471
0.0387225
0.0388999
0.0390746
0.0392537
0.0394357
0.0396149
0.0397983
0.0399849
0
0
0
0
0
0
0
0
0
0
0
0
0
0
0
0
0
0
0
0.0377872
0.0379556
0.0381256
0.0382918
0.0384617
0.0386344
0.0388093
0.0389862
0.03916
0.0393384
0.0395194
0.0396976
0.0398799
0
0
0
0
0
0
0
0
0
0
0
0
0
0
0
0
0
0
0
0
0.0354848
0.0356618
0.0358429
0.0360228
0.0362069
0.0363936
0.0365784
0.0367668
0.0369543
0.0371458
0.0373365
0.0375259
0.0377221
0.0379167
0.038111
0.0383079
0.0385102
0.0387111
0.038912
0.0391145
0.0393187
0.039524
0.0397306
0.0399387
0
0
0
0
0
0
0
0
0
0.0354932
0.0356723
0.0358551
0.0360348
0.0362185
0.0364012
0.0365882
0.0367733
0.0369635
0.0371514
0.0373448
0.0375364
0.0377278
0.0379254
0.0381209
0.0383169
0.0385197
0.0387207
0.0389217
0.0391234
0.0393269
0.0395324
0.0397394
0.0399481
0
0
0
0
0
0
0
0
0
0.0355147
0.0356915
0.0358723
0.0360554
0.0362373
0.0364226
0.0366063
0.036795
0.0369813
0.0371732
0.0373626
0.0375574
0.0377506
0.0379434
0.0381433
0.0383411
0.0385385
0.0387371
0.0389378
0.0391448
0.0393508
0.0395572
0.0397648
0.0399737
0
0
0
0
0
0
0
0
0
0.0355455
0.0357266
0.0359049
0.0360872
0.0362726
0.0364552
0.0366418
0.0368276
0.0370173
0.0372058
0.0373936
0.0375878
0.0377799
0.0379782
0.0381748
0.0383705
0.0385674
0.0387662
0.0389706
0.0391739
0.0393777
0.0395826
0.0397894
0.039998
0
0
0
0
0
0
0
0
0
0.0355929
0.0357742
0.0359517
0.0361331
0.0363133
0.0364982
0.0366856
0.0368716
0.0370614
0.03725
0.0374374
0.0376315
0.0378234
0.0380167
0.0382153
0.0384117
0.0386089
0.0388077
0.039012
0.0392152
0.0394186
0.0396232
0.0398299
0
0
0
0
0
0
0
0
0
0
0.0356518
0.0358301
0.0360108
0.0361898
0.0363728
0.0365579
0.0367417
0.0369293
0.0371158
0.0373067
0.0374959
0.0376849
0.03788
0.038073
0.0382676
0.0384674
0.0386651
0.0388632
0.0390635
0.0392699
0.0394751
0.0396805
0.0398871
0
0
0
0
0
0
0
0
0
0
0.0357288
0.0359038
0.0360829
0.0362643
0.0364442
0.0366282
0.0368099
0.0369976
0.0371875
0.0373758
0.0375626
0.0377557
0.0379467
0.038144
0.0383391
0.0385334
0.0387298
0.038932
0.0391327
0.0393336
0.0395359
0.0397402
0.0399459
0
0
0
0
0
0
0
0
0
0
0.0358168
0.0359912
0.0361696
0.0363507
0.0365299
0.0367131
0.0368941
0.0370812
0.0372707
0.0374582
0.0376445
0.037837
0.0380271
0.038224
0.0384183
0.0386121
0.0388082
0.0390099
0.0392104
0.0394112
0.0396136
0.0398171
0
0
0
0
0
0
0
0
0
0
0
0.0359153
0.0360923
0.0362723
0.0364492
0.03663
0.0368139
0.0369957
0.0371815
0.037366
0.0375552
0.0377423
0.0379346
0.0381251
0.0383155
0.0385124
0.0387068
0.0389019
0.0391039
0.0393041
0.039504
0.039705
0.0399081
0
0
0
0
0
0
0
0
0
0
0
0.0360309
0.0362072
0.0363858
0.0365617
0.0367425
0.0369257
0.0371059
0.0372915
0.0374793
0.0376653
0.0378553
0.038044
0.0382319
0.0384262
0.0386182
0.038812
0.0390114
0.039209
0.0394073
0.0396072
0.0398083
0
0
0
0
0
0
0
0
0
0
0
0
0.0361648
0.0363406
0.0365186
0.0366937
0.036873
0.0370548
0.037234
0.0374185
0.0376007
0.0377879
0.0379784
0.0381664
0.0383539
0.0385473
0.0387385
0.0389365
0.0391325
0.0393279
0.0395257
0.0397245
0.039929
0
0
0
0
0
0
0
0
0
0
0
0
0.036314
0.0364851
0.0366605
0.0368381
0.0370176
0.0371948
0.0373762
0.0375602
0.0377419
0.0379284
0.0381124
0.0383026
0.0384895
0.0386832
0.0388738
0.0390656
0.0392633
0.0394589
0.0396557
0.0398539
0
0
0
0
0
0
0
0
0
0
0
0
0
0.0364623
0.0366369
0.0368136
0.0369872
0.0371648
0.0373447
0.0375217
0.037704
0.0378887
0.0380704
0.0382581
0.0384428
0.0386331
0.0388209
0.0390149
0.0392058
0.0393985
0.0395965
0.0397921
0.0399893
0
0
0
0
0
0
0
0
0
0
0
0
0
0.0366056
0.0367769
0.0369509
0.0371268
0.0373047
0.0374796
0.0376589
0.0378411
0.0380206
0.0382047
0.0383924
0.0385767
0.0387669
0.0389537
0.0391421
0.0393347
0.039527
0.0397247
0.0399197
0
0
0
0
0
0
0
0
0
0
0
0
0
0
0.0366996
0.0368715
0.0370454
0.0372211
0.037394
0.0375708
0.0377508
0.037933
0.0381119
0.0382964
0.0384785
0.0386648
0.0388503
0.0390394
0.039228
0.0394207
0.0396124
0.0398098
0
0
0
0
0
0
0
0
0
0
0
0
0
0
0
0.0343844
0.0345692
0.034757
0.034943
0.0351329
0.0353218
0.0355092
0.0357039
0.0358967
0.0360899
0.0362892
0.0364868
0.0366841
0.0368838
0.0370899
0.0372949
0.0375004
0.0377072
0.0379156
0.0381256
0.0383373
0.0385512
0.0387612
0.038975
0.0391916
0.0394106
0.0396333
0.0398521
0
0
0
0
0
0.0343969
0.0345815
0.0347652
0.0349532
0.0351397
0.0353311
0.0355207
0.0357153
0.0359088
0.0361018
0.0362966
0.0364972
0.0366961
0.0368951
0.0370965
0.0372994
0.037504
0.0377102
0.037918
0.0381273
0.0383384
0.0385512
0.0387656
0.0389815
0.0391992
0.0394199
0.0396378
0.0398589
0
0
0
0
0
0.0344182
0.034601
0.0347874
0.0349725
0.0351621
0.0353499
0.0355429
0.0357345
0.0359255
0.0361232
0.0363187
0.0365144
0.0367125
0.0369162
0.0371186
0.0373213
0.0375252
0.0377312
0.0379389
0.0381482
0.0383592
0.0385719
0.038787
0.0390045
0.0392187
0.0394367
0.0396572
0.0398808
0
0
0
0
0
0.0344507
0.0346317
0.0348182
0.035007
0.0351944
0.0353805
0.0355732
0.0357634
0.0359597
0.0361539
0.0363479
0.0365448
0.0367471
0.0369481
0.0371493
0.037352
0.0375563
0.0377617
0.0379688
0.0381776
0.0383882
0.0386005
0.0388145
0.0390305
0.0392491
0.0394653
0.039685
0.0399069
0
0
0
0
0
0.0344977
0.0346786
0.0348644
0.035048
0.0352376
0.0354244
0.0356174
0.0358076
0.0360038
0.036198
0.0363918
0.0365883
0.0367907
0.0369916
0.0371926
0.037395
0.037599
0.0378042
0.0380109
0.0382195
0.0384298
0.0386418
0.0388554
0.0390712
0.0392893
0.0395105
0.0397275
0.0399481
0
0
0
0
0
0.034555
0.0347386
0.0349253
0.0351101
0.0352987
0.0354865
0.0356736
0.0358673
0.0360586
0.0362561
0.0364517
0.0366465
0.0368435
0.0370471
0.0372492
0.0374514
0.0376546
0.0378593
0.0380661
0.0382746
0.0384847
0.0386965
0.0389103
0.0391269
0.0393404
0.039558
0.0397779
0.0399999
0
0
0
0
0
0.0346328
0.0348135
0.0349983
0.0351816
0.0353698
0.0355558
0.0357476
0.0359372
0.0361322
0.0363257
0.0365186
0.0367141
0.0369152
0.037115
0.0373148
0.0375168
0.0377202
0.0379248
0.0381308
0.0383387
0.0385484
0.03876
0.0389731
0.0391879
0.0394044
0.039623
0.0398403
0
0
0
0
0
0
0.0347207
0.034901
0.0350851
0.0352678
0.0354553
0.0356406
0.0358317
0.0360208
0.0362154
0.0364085
0.0366007
0.0367959
0.0369966
0.0371956
0.0373951
0.0375967
0.0377995
0.0380035
0.038214
0.0384239
0.0386348
0.038842
0.0390528
0.0392661
0.0394816
0.0396993
0.0399195
0
0
0
0
0
0
0.0348205
0.0350032
0.0351842
0.0353694
0.0355525
0.0357415
0.0359277
0.0361203
0.0363104
0.0365066
0.0367005
0.0368936
0.0370894
0.0372907
0.0374904
0.0376905
0.0378927
0.0380964
0.0383019
0.0385092
0.0387183
0.0389291
0.0391414
0.0393553
0.0395709
0.0397885
0
0
0
0
0
0
0
0.0349396
0.0351218
0.0353011
0.0354858
0.0356728
0.0358581
0.0360478
0.036236
0.036424
0.0366181
0.0368098
0.0370037
0.0372027
0.0374001
0.0375989
0.037799
0.0380053
0.0382106
0.0384162
0.0386228
0.0388307
0.0390406
0.0392528
0.039467
0.0396777
0.0398925
0
0
0
0
0
0
0
0.0350763
0.0352579
0.0354373
0.0356208
0.035802
0.0359891
0.0361737
0.0363638
0.0365518
0.0367456
0.0369365
0.0371295
0.0373276
0.037524
0.0377223
0.0379216
0.0381271
0.0383315
0.0385362
0.0387418
0.0389491
0.0391581
0.039369
0.0395818
0.0397971
0
0
0
0
0
0
0
0
0.0352268
0.035406
0.0355877
0.035767
0.0359511
0.0361327
0.0363196
0.036505
0.0366951
0.036884
0.0370783
0.03727
0.0374637
0.0376622
0.0378589
0.0380574
0.0382572
0.0384634
0.0386685
0.038874
0.0390807
0.0392894
0.0395
0.0397128
0.0399276
0
0
0
0
0
0
0
0
0.0353827
0.0355608
0.0357418
0.0359245
0.0361047
0.0362894
0.0364715
0.0366594
0.036845
0.0370362
0.0372252
0.0374204
0.037613
0.0378069
0.0380022
0.0382027
0.0384021
0.0386032
0.0388056
0.0390094
0.0392149
0.0394221
0.0396308
0.0398416
0
0
0
0
0
0
0
0
0
0.035534
0.035712
0.0358872
0.0360681
0.0362512
0.0364312
0.0366167
0.0367998
0.0369876
0.0371744
0.0373658
0.0375562
0.037752
0.0379449
0.0381396
0.0383355
0.038537
0.0387376
0.0389391
0.0391414
0.0393452
0.0395508
0.0397583
0.0399678
0
0
0
0
0
0
0
0
0
0.035634
0.0358095
0.0359879
0.0361687
0.0363467
0.0365299
0.0367112
0.0368959
0.0370856
0.0372713
0.0374636
0.0376525
0.0378432
0.0380387
0.0382325
0.0384277
0.0386286
0.0388277
0.0390279
0.0392294
0.0394322
0.0396367
0.0398433
0
0
0
0
0
0
0
0
0
0
0.033308
0.0334938
0.0336866
0.0338769
0.0340733
0.0342679
0.0344619
0.0346587
0.0348618
0.0350638
0.0352656
0.0354681
0.0356728
0.0358793
0.0360876
0.0362977
0.0365096
0.0367234
0.0369399
0.0371592
0.0373747
0.0375939
0.0378161
0.0380373
0.0382623
0.0384903
0.0387172
0.0389474
0.0391765
0.0394073
0.0396271
0.0398288
0.0399586
0.0333181
0.0335057
0.0336983
0.0338899
0.0340808
0.0342786
0.0344745
0.03467
0.0348685
0.035073
0.0352762
0.0354797
0.0356845
0.035891
0.0360994
0.0363098
0.0365221
0.0367369
0.0369538
0.0371671
0.0373844
0.0376046
0.0378286
0.0380492
0.0382736
0.0384977
0.0387263
0.0389532
0.0391852
0.0394125
0.0396357
0.0398337
0.0399668
0.0333377
0.0335285
0.0337179
0.0339121
0.0341055
0.0342984
0.034493
0.0346937
0.0348929
0.0350922
0.0352936
0.0354969
0.0357019
0.0359084
0.0361166
0.0363266
0.0365385
0.0367521
0.0369674
0.0371845
0.0374046
0.0376223
0.0378437
0.0380676
0.0382905
0.0385173
0.0387477
0.0389758
0.0392081
0.0394361
0.0396587
0.0398574
0.0399899
0.0333684
0.0335594
0.0337475
0.0339423
0.0341349
0.0343278
0.034527
0.0347245
0.0349218
0.0351216
0.0353228
0.0355304
0.0357373
0.035945
0.0361539
0.0363644
0.0365772
0.0367866
0.0369998
0.0372157
0.0374338
0.037655
0.037874
0.0380967
0.0383225
0.0385471
0.0387756
0.039003
0.0392344
0.0394618
0.0396848
0.039883
0
0.0334151
0.0336055
0.0337936
0.0339878
0.0341803
0.0343725
0.0345717
0.034769
0.0349661
0.0351654
0.0353664
0.035574
0.035781
0.0359885
0.0361972
0.0364075
0.0366201
0.0368292
0.0370421
0.0372576
0.0374755
0.0376964
0.0379151
0.0381376
0.0383631
0.0385878
0.0388163
0.0390434
0.0392747
0.0395017
0.0397245
0.0399223
0
0.0334759
0.0336618
0.0338539
0.0340433
0.0342388
0.0344323
0.0346259
0.0348271
0.0350265
0.0352258
0.0354258
0.0356285
0.0358327
0.0360384
0.0362458
0.0364552
0.0366665
0.0368794
0.037094
0.0373104
0.0375297
0.0377467
0.0379674
0.0381907
0.0384128
0.0386392
0.0388685
0.0390968
0.0393279
0.0395559
0.0397782
0.039976
0
0.0335514
0.0337405
0.0339284
0.034121
0.0343127
0.0345037
0.034702
0.0348988
0.0350952
0.0352932
0.0354934
0.0357001
0.0359059
0.0361123
0.0363199
0.036529
0.0367403
0.0369538
0.0371638
0.0373777
0.0375947
0.0378141
0.0380374
0.0382573
0.0384808
0.0387033
0.0389311
0.0391613
0.0393902
0.0396201
0.0398393
0
0
0.0336383
0.0338281
0.0340163
0.0342036
0.0343976
0.0345894
0.0347829
0.0349816
0.0351786
0.0353767
0.0355766
0.035783
0.0359884
0.0361944
0.0364017
0.0366105
0.0368213
0.0370342
0.0372437
0.037457
0.0376733
0.0378921
0.0381137
0.0383335
0.0385567
0.0387828
0.039008
0.0392369
0.0394641
0.0396937
0.039912
0
0
0.0337416
0.0339299
0.0341162
0.0343077
0.0344972
0.0346926
0.0348853
0.0350795
0.03528
0.0354791
0.035678
0.0358792
0.0360817
0.0362858
0.0364917
0.0366995
0.0369091
0.0371205
0.0373334
0.0375482
0.0377649
0.0379838
0.0382066
0.0384253
0.0386481
0.0388699
0.0390968
0.0393262
0.0395538
0.039783
0.0400006
0
0
0.0338676
0.0340522
0.0342413
0.0344288
0.0346165
0.0348098
0.0350014
0.0351997
0.0353963
0.0355927
0.0357916
0.0359918
0.0361984
0.0364039
0.0366097
0.0368165
0.0370252
0.0372361
0.0374491
0.0376643
0.037876
0.0380918
0.0383106
0.038532
0.0387522
0.0389762
0.0392034
0.0394296
0.0396588
0.0398843
0
0
0
0.0340036
0.0341901
0.0343739
0.034564
0.0347513
0.034945
0.0351358
0.0353283
0.0355266
0.0357233
0.0359213
0.0361209
0.0363221
0.0365293
0.0367353
0.0369419
0.0371501
0.0373603
0.0375726
0.0377871
0.037998
0.0382129
0.0384307
0.0386512
0.0388698
0.0390933
0.0393197
0.0395441
0.039773
0.0399972
0
0
0
0.0341607
0.0343427
0.0345296
0.0347142
0.0349049
0.0350928
0.0352824
0.035477
0.0356707
0.0358659
0.0360662
0.0362648
0.0364653
0.0366671
0.0368706
0.0370758
0.0372829
0.0374917
0.0377023
0.0379148
0.038129
0.0383451
0.0385635
0.0387843
0.0390031
0.0392257
0.0394512
0.039675
0.0399028
0
0
0
0
0.0343254
0.0345056
0.0346915
0.0348746
0.0350637
0.0352503
0.035443
0.0356333
0.0358256
0.0360226
0.0362185
0.0364158
0.0366142
0.0368185
0.0370218
0.0372264
0.0374327
0.0376407
0.0378506
0.0380623
0.038276
0.0384923
0.0387059
0.0389236
0.039144
0.0393669
0.039588
0.0398132
0
0
0
0
0
0.0344803
0.0346594
0.034843
0.0350305
0.0352146
0.0354049
0.0355924
0.0357818
0.0359751
0.0361686
0.0363629
0.0365623
0.0367613
0.0369614
0.0371627
0.0373655
0.0375749
0.0377834
0.0379931
0.0381993
0.0384098
0.0386231
0.0388385
0.039056
0.0392758
0.0394936
0.0397156
0.0399408
0
0
0
0
0
0.0345855
0.034768
0.0349481
0.035132
0.0353208
0.0355062
0.0356977
0.0358861
0.0360766
0.0362714
0.0364655
0.0366606
0.0368611
0.0370603
0.0372609
0.0374626
0.037666
0.0378713
0.0380785
0.0382874
0.0384982
0.0387111
0.0389262
0.0391436
0.0393632
0.03958
0.0398016
0
0
0
0
0
0
0.0324389
0.0326384
0.0328364
0.0330343
0.0332346
0.0334367
0.0336405
0.033851
0.034061
0.0342717
0.0344788
0.0346899
0.0349036
0.0351195
0.0353377
0.0355593
0.0357781
0.0360007
0.0362271
0.0364517
0.0366802
0.0369085
0.037141
0.0373729
0.0376096
0.0378462
0.038083
0.0383203
0.0385628
0.0387949
0.039004
0.039141
0.0324511
0.032646
0.0328471
0.0330467
0.0332466
0.0334485
0.0336524
0.0338579
0.0340651
0.0342741
0.034485
0.0346977
0.0349123
0.0351292
0.0353493
0.0355666
0.0357876
0.0360112
0.036234
0.0364607
0.0366911
0.0369197
0.0371479
0.0373826
0.0376157
0.0378544
0.0380924
0.0383299
0.038572
0.038805
0.0390144
0.0391508
0.0324737
0.0326694
0.032865
0.0330635
0.0332682
0.0334718
0.0336758
0.0338813
0.0340885
0.0342975
0.0345086
0.0347222
0.0349384
0.0351512
0.035368
0.0355876
0.0358108
0.0360315
0.0362558
0.0364793
0.036708
0.0369398
0.0371705
0.0374008
0.0376376
0.0378732
0.0381091
0.0383512
0.0385901
0.038821
0.0390304
0.0391713
0.0325063
0.0327002
0.0328966
0.0330995
0.033301
0.0335026
0.0337052
0.0339103
0.0341173
0.0343262
0.0345368
0.0347493
0.0349642
0.0351823
0.0353972
0.0356158
0.0358372
0.0360624
0.0362849
0.0365115
0.0367374
0.0369681
0.0371979
0.0374328
0.0376668
0.0379007
0.0381412
0.03838
0.0386168
0.0388524
0.0390634
0.0391998
0.0325511
0.0327457
0.0329415
0.033144
0.0333452
0.0335465
0.0337491
0.0339538
0.0341607
0.0343695
0.03458
0.0347925
0.0350073
0.0352251
0.0354397
0.035658
0.0358793
0.0361043
0.0363267
0.036553
0.0367787
0.0370092
0.0372388
0.0374737
0.0377074
0.0379462
0.0381844
0.038422
0.0386579
0.0388931
0.0391037
0.0392397
0.032608
0.0328066
0.0330032
0.0331999
0.0333994
0.0336003
0.0338076
0.0340142
0.0342218
0.0344309
0.0346418
0.034855
0.0350648
0.0352787
0.0354955
0.0357149
0.0359379
0.036158
0.0363818
0.0366046
0.0368327
0.0370637
0.0372941
0.0375239
0.0377603
0.0379952
0.0382355
0.0384749
0.0387119
0.0389469
0.0391533
0.0392919
0.0326857
0.0328805
0.0330747
0.0332716
0.0334744
0.033676
0.0338783
0.0340821
0.0342884
0.0344966
0.0347064
0.0349182
0.0351319
0.0353487
0.0355625
0.0357803
0.0360008
0.036224
0.036446
0.0366717
0.0369014
0.0371291
0.0373619
0.0375932
0.0378243
0.0380617
0.0382983
0.0385345
0.0387759
0.0390076
0.039216
0.0393519
0.0327709
0.0329678
0.0331628
0.0333592
0.0335623
0.033764
0.033966
0.0341691
0.0343744
0.0345819
0.034791
0.035002
0.0352151
0.0354311
0.0356496
0.0358644
0.0360834
0.0363054
0.0365263
0.0367513
0.0369799
0.0372075
0.037439
0.0376701
0.0379005
0.038138
0.0383741
0.0386108
0.0388518
0.039082
0.0392899
0.0394264
0.0328802
0.0330717
0.0332709
0.0334682
0.0336655
0.0338649
0.0340661
0.034269
0.0344786
0.0346875
0.0348973
0.0351036
0.0353138
0.0355268
0.0357424
0.0359601
0.0361801
0.0363988
0.0366214
0.0368469
0.0370711
0.0373001
0.0375277
0.037761
0.0379923
0.0382294
0.0384654
0.0387007
0.0389417
0.0391722
0.0393797
0.0395151
0.0330034
0.033194
0.033392
0.033588
0.0337844
0.0339832
0.0341834
0.0343899
0.0345959
0.0348024
0.0350104
0.0352203
0.0354325
0.0356468
0.0358578
0.0360728
0.0362907
0.0365113
0.0367303
0.0369542
0.0371809
0.0374064
0.0376367
0.0378653
0.0380999
0.0383334
0.0385723
0.0388102
0.0390455
0.0392787
0.0394835
0.0396199
0.0331442
0.0333349
0.0335267
0.033725
0.0339216
0.0341192
0.0343187
0.0345197
0.0347274
0.0349345
0.0351424
0.0353521
0.0355637
0.035772
0.0359844
0.0361995
0.0364171
0.0366371
0.0368553
0.0370783
0.0373044
0.0375287
0.0377583
0.0379856
0.0382197
0.0384517
0.0386903
0.038927
0.0391609
0.0393939
0.0396019
0.0397356
0.0332995
0.0334888
0.0336847
0.0338784
0.0340732
0.0342697
0.0344722
0.0346733
0.0348759
0.0350803
0.0352861
0.0354936
0.0357031
0.0359145
0.0361278
0.0363432
0.0365612
0.0367769
0.0369966
0.0372193
0.0374401
0.0376666
0.0378961
0.0381239
0.0383565
0.0385883
0.0388206
0.0390589
0.0392931
0.0395255
0.0397332
0.0398659
0.0334703
0.033658
0.0338526
0.0340446
0.0342382
0.0344332
0.0346341
0.0348343
0.0350359
0.0352387
0.0354429
0.0356488
0.0358567
0.0360667
0.0362788
0.0364929
0.0367094
0.0369279
0.0371491
0.037368
0.037591
0.0378173
0.0380424
0.0382716
0.0384999
0.0387334
0.0389656
0.0391977
0.0394342
0.0396607
0.0398657
0
0.0336339
0.0338207
0.0340132
0.0342037
0.0343961
0.0345939
0.0347909
0.0349893
0.0351889
0.03539
0.0355975
0.0358041
0.0360117
0.0362209
0.0364321
0.0366458
0.0368563
0.0370713
0.0372896
0.0375103
0.0377337
0.0379555
0.0381815
0.0384054
0.0386356
0.0388636
0.0390979
0.0393291
0.0395656
0.0397904
0.0399943
0
0.0337464
0.0339331
0.0341231
0.0343138
0.0345089
0.0347032
0.0348984
0.0350993
0.0352986
0.0354995
0.0357018
0.0359057
0.0361114
0.0363188
0.0365282
0.0367397
0.0369531
0.0371687
0.0373868
0.0376027
0.0378229
0.0380468
0.0382737
0.0384982
0.0387277
0.0389545
0.039188
0.0394189
0.0396543
0.0398787
0
0
0.0314112
0.0316136
0.0318172
0.0320231
0.0322313
0.0324415
0.0326536
0.0328682
0.0330855
0.0332996
0.0335178
0.0337391
0.0339639
0.0341862
0.0344127
0.0346387
0.0348694
0.0350996
0.0353349
0.0355694
0.0358037
0.0360453
0.0362859
0.0365269
0.0367695
0.0370152
0.0372673
0.0375186
0.0377696
0.0380145
0.038232
0.0383757
0.0314202
0.0316244
0.0318292
0.0320355
0.0322438
0.0324541
0.0326668
0.032882
0.0330939
0.0333098
0.0335286
0.0337507
0.0339712
0.0341957
0.0344243
0.0346507
0.0348814
0.0351121
0.0353424
0.0355796
0.0358155
0.0360521
0.0362955
0.0365382
0.0367816
0.0370265
0.037273
0.037522
0.0377718
0.0380166
0.0382381
0.0383837
0.0314401
0.0316425
0.0318466
0.0320524
0.0322602
0.0324701
0.032682
0.0328959
0.0331118
0.0333303
0.033547
0.0337676
0.0339909
0.0342184
0.0344428
0.0346717
0.0349003
0.035133
0.0353655
0.0355975
0.0358362
0.0360742
0.0363127
0.0365583
0.0368039
0.03705
0.0372975
0.0375466
0.0377961
0.0380399
0.0382631
0.0384074
0.0314717
0.0316739
0.031878
0.032089
0.0322994
0.0325056
0.0327156
0.0329283
0.0331432
0.0333607
0.0335807
0.0337992
0.0340213
0.0342466
0.034471
0.0346999
0.0349274
0.0351602
0.0353917
0.0356288
0.0358657
0.0361026
0.0363465
0.0365901
0.0368337
0.0370784
0.0373249
0.0375732
0.0378224
0.0380664