/*--------------------------------*- C++ -*----------------------------------*\
| =========                 |                                                 |
| \\      /  F ield         | OpenFOAM: The Open Source CFD Toolbox           |
|  \\    /   O peration     | Version:  2412                                  |
|   \\  /    A nd           | Website:  www.openfoam.com                      |
|    \\/     M anipulation  |                                                 |
\*---------------------------------------------------------------------------*/
FoamFile
{
    version     2.0;
    format      ascii;
    arch        "LSB;label=32;scalar=64";
    class       volScalarField;
    location    "0.0400007";
    object      ionicCurrent;
}
// * * * * * * * * * * * * * * * * * * * * * * * * * * * * * * * * * * * * * //

dimensions      [1 2 -4 0 0 -1 0];

internalField   nonuniform List<scalar> 
8790
(
0.000397153
0.000300197
0.000225183
0.00016655
0.000122163
8.93084e-05
6.52123e-05
4.74584e-05
3.42668e-05
2.45019e-05
1.73863e-05
1.22683e-05
8.60972e-06
5.99913e-06
4.14297e-06
2.83537e-06
1.92417e-06
1.2948e-06
8.63162e-07
5.69452e-07
3.71605e-07
2.39824e-07
1.53013e-07
9.64437e-08
6.00092e-08
3.68412e-08
2.23081e-08
1.33209e-08
7.8504e-09
4.58509e-09
2.69451e-09
1.67013e-09
1.22306e-09
0.000391034
0.000295597
0.00022164
0.000163847
0.000120123
8.77821e-05
6.40758e-05
4.66141e-05
3.3645e-05
2.40521e-05
1.70665e-05
1.20432e-05
8.45182e-06
5.88849e-06
4.06585e-06
2.78209e-06
1.8877e-06
1.27005e-06
8.46503e-07
5.58346e-07
3.64281e-07
2.35045e-07
1.49923e-07
9.44671e-08
5.87588e-08
3.60603e-08
2.18271e-08
1.30289e-08
7.67543e-09
4.4812e-09
2.63239e-09
1.63093e-09
1.19394e-09
0.000378155
0.000285989
0.000214037
0.000158019
0.000115786
8.46026e-05
6.1754e-05
4.49145e-05
3.23983e-05
2.31504e-05
1.64246e-05
1.15903e-05
8.13331e-06
5.6648e-06
3.90992e-06
2.6746e-06
1.81432e-06
1.22033e-06
8.13071e-07
5.36075e-07
3.4961e-07
2.25488e-07
1.43763e-07
9.05393e-08
5.62846e-08
3.45218e-08
2.08831e-08
1.24572e-08
7.33347e-09
4.27831e-09
2.51111e-09
1.55439e-09
1.13709e-09
0.000357687
0.000270437
0.00020215
0.000149121
0.000109261
7.98747e-05
5.83182e-05
4.239e-05
3.05474e-05
2.1815e-05
1.54759e-05
1.0922e-05
7.66354e-06
5.33518e-06
3.68048e-06
2.5167e-06
1.70669e-06
1.14749e-06
7.64114e-07
5.03478e-07
3.28147e-07
2.11512e-07
1.34761e-07
8.48063e-08
5.26791e-08
3.22841e-08
1.95126e-08
1.16289e-08
6.83902e-09
3.98547e-09
2.33635e-09
1.44427e-09
1.05538e-09
0.000330819
0.000249885
0.000186276
0.000137282
0.000100649
7.36763e-05
5.38368e-05
3.91196e-05
2.81612e-05
2.01024e-05
1.42631e-05
1.00683e-05
7.06323e-06
4.91427e-06
3.38802e-06
2.3157e-06
1.56977e-06
1.05484e-06
7.01881e-07
4.62083e-07
3.00919e-07
1.93801e-07
1.23364e-07
7.75557e-08
4.81239e-08
2.94597e-08
1.77846e-08
1.05856e-08
6.21692e-09
3.61756e-09
2.11719e-09
1.30644e-09
9.5328e-10
0.00029913
0.000225321
0.00016737
0.000123302
9.05411e-05
6.64178e-05
4.85855e-05
3.52812e-05
2.53751e-05
1.81109e-05
1.2854e-05
9.07481e-06
6.36311e-06
4.42308e-06
3.04686e-06
2.08127e-06
1.41002e-06
9.46722e-07
6.29297e-07
4.13865e-07
2.69248e-07
1.73223e-07
1.10137e-07
6.91509e-08
4.28499e-08
2.61934e-08
1.57884e-08
9.38203e-09
5.50041e-09
3.1946e-09
1.86577e-09
1.14872e-09
8.36678e-10
0.000264738
0.000198469
0.000147084
0.000108394
7.97425e-05
5.85922e-05
4.28549e-05
3.10738e-05
2.23272e-05
1.59352e-05
1.13135e-05
7.98633e-06
5.59478e-06
3.88422e-06
2.67309e-06
1.82463e-06
1.23516e-06
8.28404e-07
5.49932e-07
3.61197e-07
2.34682e-07
1.50776e-07
9.57172e-08
5.99981e-08
3.71146e-08
2.26472e-08
1.36254e-08
8.08057e-09
4.7274e-09
2.73942e-09
1.59592e-09
9.79898e-10
7.12142e-10
0.000228859
0.000170761
0.000126376
9.32252e-05
6.87126e-05
5.05237e-05
3.69031e-05
2.67029e-05
1.91697e-05
1.36827e-05
9.71585e-06
6.85448e-06
4.79536e-06
3.32473e-06
2.28583e-06
1.55896e-06
1.05414e-06
7.05945e-07
4.67866e-07
3.06799e-07
1.99011e-07
1.27631e-07
8.08649e-08
5.0584e-08
3.1225e-08
1.90116e-08
1.14115e-08
6.75095e-09
3.93926e-09
2.27635e-09
1.32208e-09
8.09054e-10
5.86393e-10
0.000192974
0.000143543
0.000106219
7.84843e-05
5.79242e-05
4.2555e-05
3.09997e-05
2.23832e-05
1.60566e-05
1.14596e-05
8.13347e-06
5.73019e-06
4.00159e-06
2.77037e-06
1.90264e-06
1.29615e-06
8.7507e-07
5.8491e-07
3.86897e-07
2.53223e-07
1.63932e-07
1.04901e-07
6.63039e-08
4.13711e-08
2.54714e-08
1.5466e-08
9.2564e-09
5.45935e-09
3.17543e-09
1.82871e-09
1.05813e-09
6.44916e-10
4.65901e-10
0.000158147
0.000117518
8.71154e-05
6.45215e-05
4.7636e-05
3.49118e-05
2.53528e-05
1.82782e-05
1.3108e-05
9.35304e-06
6.63063e-06
4.66184e-06
3.24904e-06
2.24601e-06
1.54045e-06
1.04763e-06
7.05733e-07
4.7058e-07
3.10532e-07
2.02759e-07
1.30927e-07
8.35469e-08
5.26516e-08
3.27538e-08
2.01032e-08
1.21666e-08
7.25667e-09
4.26453e-09
2.4711e-09
1.41736e-09
8.16484e-10
4.95251e-10
3.56386e-10
0.0001264
9.40234e-05
6.98742e-05
5.18102e-05
3.81778e-05
2.78794e-05
2.02008e-05
1.45548e-05
1.04366e-05
7.44053e-06
5.26397e-06
3.69196e-06
2.56809e-06
1.77249e-06
1.21354e-06
8.23377e-07
5.53141e-07
3.67808e-07
2.42051e-07
1.57591e-07
1.01439e-07
6.45102e-08
4.0511e-08
2.51097e-08
1.5353e-08
9.25455e-09
5.49674e-09
3.21627e-09
1.85524e-09
1.059e-09
6.06844e-10
3.66003e-10
2.62161e-10
9.91746e-05
7.39564e-05
5.50559e-05
4.07675e-05
2.99264e-05
2.17887e-05
1.57699e-05
1.13594e-05
8.13899e-06
5.7902e-06
4.08465e-06
2.85773e-06
1.984e-06
1.36675e-06
9.33481e-07
6.31481e-07
4.22906e-07
2.80353e-07
1.8392e-07
1.19332e-07
7.65205e-08
4.84674e-08
3.03095e-08
1.87044e-08
1.13837e-08
6.82868e-09
4.03549e-09
2.34898e-09
1.34764e-09
7.6487e-10
4.35595e-10
2.60975e-10
1.85921e-10
7.7633e-05
5.79995e-05
4.31283e-05
3.18118e-05
2.327e-05
1.6918e-05
1.22413e-05
8.81228e-06
6.30109e-06
4.46865e-06
3.14297e-06
2.1937e-06
1.51964e-06
1.04408e-06
7.1076e-07
4.79113e-07
3.19751e-07
2.11233e-07
1.38056e-07
8.92042e-08
5.69482e-08
3.59042e-08
2.23451e-08
1.37196e-08
8.30523e-09
4.95421e-09
2.91086e-09
1.68425e-09
9.60297e-10
5.41475e-10
3.06198e-10
1.8206e-10
1.28895e-10
6.26012e-05
4.67341e-05
3.46276e-05
2.54428e-05
1.85768e-05
1.35e-05
9.76375e-06
7.01686e-06
5.00255e-06
3.53682e-06
2.48135e-06
1.72806e-06
1.19402e-06
8.17753e-07
5.54713e-07
3.72612e-07
2.47815e-07
1.63113e-07
1.06177e-07
6.83068e-08
4.3409e-08
2.72388e-08
1.68677e-08
1.03019e-08
6.20175e-09
3.67815e-09
2.14821e-09
1.23528e-09
6.99762e-10
3.9188e-10
2.19966e-10
1.29741e-10
9.12467e-11
5.47766e-05
4.08163e-05
3.01543e-05
2.21151e-05
1.61373e-05
1.17243e-05
8.47257e-06
6.07809e-06
4.32373e-06
3.0512e-06
2.13743e-06
1.48621e-06
1.02485e-06
7.00213e-07
4.73811e-07
3.17512e-07
2.1066e-07
1.38293e-07
8.97604e-08
5.75693e-08
3.64695e-08
2.2808e-08
1.40735e-08
8.56258e-09
5.134e-09
3.03211e-09
1.76314e-09
1.00921e-09
5.68961e-10
3.17012e-10
1.76958e-10
1.03745e-10
7.2597e-11
0.163631
0.123445
0.0953968
0.00108077
0.000793948
0.000575601
0.000417072
0.000304644
0.000222867
0.000160813
0.000114287
8.05531e-05
5.66211e-05
3.97005e-05
2.76109e-05
1.89811e-05
1.2919e-05
8.72486e-06
5.84705e-06
3.8795e-06
2.54402e-06
1.64897e-06
1.05689e-06
6.69462e-07
4.18573e-07
2.58108e-07
1.56927e-07
9.40649e-08
5.56259e-08
3.25823e-08
1.91903e-08
1.19133e-08
8.73144e-09
0.161113
0.121779
0.0941097
0.00106521
0.000781552
0.000566012
0.000409935
0.000299393
0.000218927
0.000157882
0.000112172
7.90712e-05
5.55968e-05
3.89871e-05
2.711e-05
1.86316e-05
1.26786e-05
8.56172e-06
5.73701e-06
3.80572e-06
2.49513e-06
1.61698e-06
1.03615e-06
6.56119e-07
4.10062e-07
2.52744e-07
1.53594e-07
9.20251e-08
5.43958e-08
3.18482e-08
1.87498e-08
1.16346e-08
8.52418e-09
0.155512
0.118206
0.0915744
0.00102834
0.000752679
0.000544618
0.000394848
0.00028881
0.00021117
0.00015201
0.000107923
7.60823e-05
5.35171e-05
3.75258e-05
2.60781e-05
1.79128e-05
1.21864e-05
8.22871e-06
5.51292e-06
3.65562e-06
2.39569e-06
1.55196e-06
9.94098e-07
6.29171e-07
3.92981e-07
2.42062e-07
1.47007e-07
8.80179e-08
5.1988e-08
3.04136e-08
1.78893e-08
1.109e-08
8.11888e-09
0.146818
0.112153
0.0867778
0.000971512
0.000709542
0.000513363
0.000372829
0.00027298
0.000199375
0.000143229
0.000101608
7.16615e-05
5.04496e-05
3.53737e-05
2.45582e-05
1.68562e-05
1.14648e-05
7.74102e-06
5.18435e-06
3.43531e-06
2.24968e-06
1.45648e-06
9.32371e-07
5.89656e-07
3.67984e-07
2.26468e-07
1.37415e-07
8.21973e-08
4.84993e-08
2.834e-08
1.66481e-08
1.03059e-08
7.53619e-09
0.135586
0.104302
0.00120394
0.000893743
0.000651294
0.000471899
0.000344145
0.000252717
0.00018409
0.000131924
9.35369e-05
6.60299e-05
4.65348e-05
3.26201e-05
2.26191e-05
1.55127e-05
1.05485e-05
7.12115e-06
4.76615e-06
3.15494e-06
2.06406e-06
1.33522e-06
8.54034e-07
5.39568e-07
3.36347e-07
2.0676e-07
1.25309e-07
7.48593e-08
4.4107e-08
2.57333e-08
1.50907e-08
9.3242e-09
6.80788e-09
0.122948
0.0953782
0.00108488
0.000800157
0.00058255
0.000423859
0.000310974
0.000228767
0.000166107
0.000118787
8.42208e-05
5.9531e-05
4.1989e-05
2.94047e-05
2.03564e-05
1.39472e-05
9.48052e-06
6.3975e-06
4.27738e-06
2.82763e-06
1.84778e-06
1.19417e-06
7.63016e-07
4.81444e-07
2.99687e-07
1.83957e-07
1.1132e-07
6.63914e-08
3.90466e-08
2.27361e-08
1.33042e-08
8.20094e-09
5.97631e-09
0.109874
0.0012762
0.000954816
0.000700888
0.000510508
0.000373448
0.000275281
0.000202352
0.000146297
0.000104437
7.4092e-05
5.24564e-05
3.7008e-05
2.58638e-05
1.78696e-05
1.2232e-05
8.31226e-06
5.6056e-06
3.7425e-06
2.47002e-06
1.61188e-06
1.04041e-06
6.63806e-07
4.18121e-07
2.59796e-07
1.5918e-07
9.61438e-08
5.72232e-08
3.35806e-08
1.95072e-08
1.1385e-08
6.99786e-09
5.08773e-09
0.0967095
0.00110523
0.000819345
0.000599451
0.000437993
0.000322568
0.000238463
0.00017445
0.000125594
8.95644e-05
6.36323e-05
4.51201e-05
3.18017e-05
2.21694e-05
1.52902e-05
1.04597e-05
7.10512e-06
4.78577e-06
3.18882e-06
2.10051e-06
1.36851e-06
8.81892e-07
5.61571e-07
3.5295e-07
2.18819e-07
1.33778e-07
8.06115e-08
4.78564e-08
2.80072e-08
1.62219e-08
9.43691e-09
5.77996e-09
4.19018e-09
0.00124268
0.000931705
0.000685891
0.000501624
0.000368759
0.000273107
0.000201658
0.000146482
0.000105089
7.4938e-05
5.33338e-05
3.78326e-05
2.65998e-05
1.84907e-05
1.27346e-05
8.70737e-06
5.91029e-06
3.97345e-06
2.64138e-06
1.73637e-06
1.12926e-06
7.26262e-07
4.61335e-07
2.89175e-07
1.78796e-07
1.09005e-07
6.54875e-08
3.87532e-08
2.26031e-08
1.30447e-08
7.55851e-09
4.60952e-09
3.32996e-09
0.0010252
0.00076067
0.000558595
0.000410771
0.000304531
0.000226072
0.000165651
0.000119612
8.5672e-05
6.11837e-05
4.36106e-05
3.0891e-05
2.16415e-05
1.50061e-05
1.03237e-05
7.05373e-06
4.77928e-06
3.20383e-06
2.1237e-06
1.39272e-06
9.03661e-07
5.7958e-07
3.67016e-07
2.2933e-07
1.41352e-07
8.58953e-08
5.14221e-08
3.03158e-08
1.76122e-08
1.01214e-08
5.83721e-09
3.54163e-09
2.54786e-09
0.000819129
0.00060427
0.000445115
0.000330339
0.000246211
0.000181792
0.000132136
9.51058e-05
6.81766e-05
4.88012e-05
3.47777e-05
2.4542e-05
1.7132e-05
1.18578e-05
8.15109e-06
5.56115e-06
3.75697e-06
2.51003e-06
1.65891e-06
1.08504e-06
7.01944e-07
4.48621e-07
2.83021e-07
1.76183e-07
1.08178e-07
6.54674e-08
3.90222e-08
2.29011e-08
1.32416e-08
7.57129e-09
4.34229e-09
2.61874e-09
1.87465e-09
0.000638147
0.000471194
0.000350225
0.000261868
0.000194633
0.000142361
0.000102983
7.4117e-05
5.32573e-05
3.81457e-05
2.70904e-05
1.90303e-05
1.32486e-05
9.15938e-06
6.28847e-06
4.27884e-06
2.88011e-06
1.91766e-06
1.26368e-06
8.23981e-07
5.3106e-07
3.3797e-07
2.12286e-07
1.31565e-07
8.04025e-08
4.8413e-08
2.87042e-08
1.67539e-08
9.6324e-09
5.47461e-09
3.11936e-09
1.868e-09
1.32955e-09
0.000494143
0.000367955
0.000275821
0.000206084
0.000151671
0.000110288
7.97272e-05
5.75204e-05
4.13893e-05
2.95613e-05
2.08862e-05
1.46189e-05
1.01594e-05
7.0139e-06
4.80251e-06
3.25444e-06
2.18174e-06
1.44768e-06
9.50799e-07
6.17528e-07
3.96173e-07
2.50912e-07
1.56836e-07
9.67054e-08
5.87759e-08
3.51861e-08
2.07369e-08
1.20288e-08
6.87124e-09
3.87869e-09
2.19371e-09
1.30322e-09
9.21488e-10
0.000396136
0.000297509
0.000223242
0.000165308
0.000120799
8.76879e-05
6.35113e-05
4.59076e-05
3.29731e-05
2.34327e-05
1.64878e-05
1.15147e-05
7.99083e-06
5.50388e-06
3.75408e-06
2.53342e-06
1.6923e-06
1.11925e-06
7.32389e-07
4.73591e-07
3.02397e-07
1.90607e-07
1.18556e-07
7.27151e-08
4.39445e-08
2.61515e-08
1.53182e-08
8.82906e-09
5.00985e-09
2.80799e-09
1.57593e-09
9.28398e-10
6.5191e-10
0.000346482
0.000260989
0.000195039
0.000143485
0.000104573
7.59428e-05
5.50948e-05
3.98207e-05
2.85167e-05
2.01985e-05
1.41847e-05
9.89716e-06
6.86063e-06
4.71493e-06
3.20659e-06
2.15819e-06
1.43843e-06
9.49185e-07
6.19406e-07
3.99286e-07
2.54142e-07
1.59675e-07
9.89735e-08
6.04733e-08
3.63968e-08
2.15672e-08
1.25765e-08
7.21485e-09
4.0737e-09
2.27131e-09
1.26743e-09
7.41977e-10
5.18276e-10
1.29055
0.888302
0.674395
0.525202
0.39721
0.288557
0.203344
0.144477
0.106519
0.00119116
0.000856121
0.000601242
0.000418777
0.000293664
0.000206692
0.000143379
9.78325e-05
6.60674e-05
4.44086e-05
2.96686e-05
1.95747e-05
1.27369e-05
8.19048e-06
5.21147e-06
3.27523e-06
2.02882e-06
1.23824e-06
7.44944e-07
4.4208e-07
2.59723e-07
1.53326e-07
9.53415e-08
6.99419e-08
1.26714
0.876143
0.667361
0.51939
0.391851
0.283831
0.199653
0.141944
0.104731
0.00117019
0.000840164
0.00058977
0.000411009
0.000288487
0.000203092
0.000140825
9.60502e-05
6.48595e-05
4.35993e-05
2.91235e-05
1.921e-05
1.24973e-05
8.03528e-06
5.11146e-06
3.21094e-06
1.98785e-06
1.21251e-06
7.29047e-07
4.32413e-07
2.53915e-07
1.49826e-07
9.31209e-08
6.82878e-08
1.20355
0.844055
0.648236
0.503238
0.37768
0.272229
0.191388
0.1368
0.101575
0.00112944
0.000808476
0.000566929
0.00039534
0.000277815
0.000195563
0.000135418
9.22939e-05
6.23283e-05
4.19185e-05
2.79955e-05
1.84547e-05
1.20002e-05
7.71351e-06
4.90481e-06
3.07902e-06
1.90473e-06
1.16098e-06
6.97562e-07
4.13406e-07
2.42539e-07
1.42975e-07
8.87714e-08
6.50441e-08
1.11662
0.798375
0.619081
0.478738
0.356854
0.255696
0.179576
0.129186
0.0965939
0.0010664
0.000760508
0.000532728
0.000372274
0.000262292
0.000184439
0.00012747
8.68026e-05
5.8639e-05
3.9457e-05
2.63347e-05
1.73418e-05
1.1268e-05
7.23946e-06
4.60039e-06
2.8851e-06
1.78293e-06
1.0857e-06
6.51706e-07
3.85807e-07
2.26069e-07
1.33084e-07
8.25074e-08
6.03811e-08
1.00231
0.739475
0.577864
0.443588
0.327467
0.233005
0.16434
0.119775
0.0900449
0.000984174
0.000698908
0.000489296
0.000343078
0.000242451
0.000170178
0.000117341
7.98317e-05
5.39547e-05
3.63162e-05
2.42106e-05
1.59193e-05
1.03333e-05
6.63482e-06
4.21253e-06
2.63861e-06
1.62852e-06
9.90491e-07
5.93803e-07
3.51015e-07
2.05344e-07
1.20664e-07
7.46595e-08
5.45499e-08
0.883467
0.673853
0.526433
0.399455
0.291566
0.206542
0.147272
0.108982
0.001226
0.000887452
0.000627734
0.000439723
0.000309683
0.000219303
0.00015345
0.000105508
7.17143e-05
4.84948e-05
3.26356e-05
2.17188e-05
1.4255e-05
9.24289e-06
5.93053e-06
3.76121e-06
2.35233e-06
1.44959e-06
8.8038e-07
5.26944e-07
3.10913e-07
1.81509e-07
1.06417e-07
6.56824e-08
4.78943e-08
0.776206
0.606445
0.470069
0.351451
0.253148
0.179162
0.129894
0.0977808
0.00108692
0.000780569
0.000550274
0.000386538
0.000273733
0.000193774
0.000134898
9.24853e-05
6.2852e-05
4.25457e-05
2.86073e-05
1.89926e-05
1.24407e-05
8.05721e-06
5.16448e-06
3.26992e-06
2.04088e-06
1.25519e-06
7.60888e-07
4.54489e-07
2.67548e-07
1.55807e-07
9.11014e-08
5.60622e-08
4.078e-08
0.681753
0.534898
0.408276
0.299928
0.213735
0.152726
0.113
0.00128225
0.000936957
0.000667935
0.00047034
0.000332181
0.000236248
0.000166676
0.000115513
7.90363e-05
5.37473e-05
3.6406e-05
2.44277e-05
1.61697e-05
1.05692e-05
6.83638e-06
4.37512e-06
2.76367e-06
1.72065e-06
1.05587e-06
6.38621e-07
3.80479e-07
2.23338e-07
1.29661e-07
7.5556e-08
4.63218e-08
3.35916e-08
0.592746
0.459586
0.343615
0.247939
0.17639
0.128698
0.09736
0.0010872
0.000784563
0.000555969
0.000392454
0.000279147
0.000198833
0.000139349
9.61536e-05
6.57409e-05
4.47663e-05
3.03094e-05
2.0275e-05
1.33814e-05
8.73128e-06
5.64021e-06
3.60172e-06
2.26839e-06
1.40809e-06
8.61654e-07
5.19601e-07
3.08531e-07
1.80455e-07
1.04367e-07
6.05625e-08
3.69596e-08
2.67021e-08
0.500706
0.380367
0.278474
0.198903
0.143744
0.107589
0.00122138
0.000892186
0.00063744
0.000451037
0.000320621
0.000229496
0.000162602
0.000113229
7.79016e-05
5.32904e-05
3.63137e-05
2.45142e-05
1.6329e-05
1.07433e-05
6.99657e-06
4.50993e-06
2.87058e-06
1.80151e-06
1.1147e-06
6.80012e-07
4.08639e-07
2.41701e-07
1.40784e-07
8.10647e-08
4.68097e-08
2.84122e-08
2.04359e-08
0.408164
0.302303
0.217451
0.156544
0.116466
0.0888232
0.000983727
0.000708698
0.000503707
0.000358361
0.000256994
0.000183723
0.000129095
8.94387e-05
6.14896e-05
4.21212e-05
2.86597e-05
1.92589e-05
1.27749e-05
8.38289e-06
5.44776e-06
3.50011e-06
2.21856e-06
1.38664e-06
8.5473e-07
5.19324e-07
3.10674e-07
1.82878e-07
1.05996e-07
6.07126e-08
3.48533e-08
2.10199e-08
1.50397e-08
0.319724
0.231377
0.166473
0.123387
0.0941562
0.00105671
0.000767375
0.000548367
0.000390926
0.000280846
0.000202001
0.000143111
9.98401e-05
6.90113e-05
4.75052e-05
3.25436e-05
2.20506e-05
1.47447e-05
9.74712e-06
6.38142e-06
4.13438e-06
2.64439e-06
1.66804e-06
1.0378e-06
6.3676e-07
3.84896e-07
2.28968e-07
1.34007e-07
7.72118e-08
4.39489e-08
2.50569e-08
1.49998e-08
1.06672e-08
0.243322
0.175294
0.129533
0.0986913
0.00112069
0.000820264
0.000589788
0.000421898
0.000303743
0.000219491
0.000156673
0.000110007
7.64353e-05
5.28552e-05
3.64093e-05
2.48469e-05
1.67382e-05
1.1143e-05
7.34561e-06
4.79499e-06
3.09242e-06
1.96733e-06
1.23456e-06
7.64272e-07
4.66381e-07
2.80214e-07
1.65649e-07
9.63287e-08
5.51335e-08
3.11597e-08
1.76282e-08
1.04648e-08
7.39088e-09
0.189418
0.139361
0.105888
0.00121425
0.000896082
0.000648139
0.0004653
0.000335657
0.000243518
0.000175142
0.000123799
8.64571e-05
6.00287e-05
4.15455e-05
2.85449e-05
1.93697e-05
1.29842e-05
8.61688e-06
5.6656e-06
3.68374e-06
2.36359e-06
1.49598e-06
9.34254e-07
5.75411e-07
3.49111e-07
2.08464e-07
1.22459e-07
7.07515e-08
4.02178e-08
2.25637e-08
1.26634e-08
7.45217e-09
5.22514e-09
0.162825
0.122243
0.0940168
0.00105955
0.000773433
0.000557049
0.000401303
0.000291459
0.000211586
0.000151108
0.000106273
7.40997e-05
5.14894e-05
3.56297e-05
2.43991e-05
1.64923e-05
1.10259e-05
7.3054e-06
4.79353e-06
3.10693e-06
1.98663e-06
1.25339e-06
7.80256e-07
4.78792e-07
2.89276e-07
1.71973e-07
1.00564e-07
5.78244e-08
3.27028e-08
1.82481e-08
1.01807e-08
5.95229e-09
4.15073e-09
-218.423
-136.758
-14.844
2.3211
2.24207
2.17057
1.73276
1.12776
0.770872
0.577861
0.431088
0.307751
0.210376
0.142972
0.101202
0.00108394
0.000747675
0.000503102
0.000335982
0.000225914
0.000150784
9.8715e-05
6.35669e-05
4.0548e-05
2.56396e-05
1.59766e-05
9.79009e-06
5.90973e-06
3.52044e-06
2.07562e-06
1.22856e-06
7.65342e-07
5.62062e-07
-224.82
-135.665
-12.5483
2.31929
2.24012
2.16866
1.69722
1.10201
0.757464
0.568838
0.423576
0.301716
0.206014
0.140297
0.0995376
0.00106597
0.000734549
0.000494031
0.000330005
0.000221944
0.00014809
9.69153e-05
6.24003e-05
3.98025e-05
2.51593e-05
1.56666e-05
9.59271e-06
5.78648e-06
3.44476e-06
2.02974e-06
1.20072e-06
7.47623e-07
5.48844e-07
-220.976
-114.498
-4.91851
2.30482
2.22663
2.15635
1.6153
1.04818
0.731201
0.551101
0.409037
0.290047
0.197407
0.134873
0.096396
0.00102683
0.000705722
0.000474236
0.000317292
0.000213706
0.000142403
9.30901e-05
5.99157e-05
3.8222e-05
2.41454e-05
1.50201e-05
9.18853e-06
5.53867e-06
3.29453e-06
1.93933e-06
1.14603e-06
7.1278e-07
5.22796e-07
-215.619
-87.58
2.39007
2.29527
2.21872
2.14268
1.49544
0.972636
0.693217
0.523752
0.386057
0.271804
0.18463
0.127085
0.0915804
0.000968737
0.000663698
0.000445648
0.000298831
0.000201407
0.000134006
8.74694e-05
5.62689e-05
3.58919e-05
2.26501e-05
1.407e-05
8.59706e-06
5.17717e-06
3.07612e-06
1.80834e-06
1.06703e-06
6.62607e-07
4.85375e-07
-188.222
-49.9614
2.35889
2.26663
2.19235
2.12658
1.33389
0.880753
0.645541
0.487658
0.356042
0.248328
0.16864
0.117455
0.00127329
0.000893901
0.00060985
0.000409246
0.000275274
0.000185597
0.000123158
8.02209e-05
5.1577e-05
3.28957e-05
2.07338e-05
1.28581e-05
7.84587e-06
4.71941e-06
2.80007e-06
1.64312e-06
9.67665e-07
5.9966e-07
4.38523e-07
-134.229
-14.1254
2.32057
2.24196
2.17109
1.76023
1.15386
0.787559
0.591446
0.44451
0.320646
0.221314
0.150896
0.10664
0.00115494
0.000805302
0.000546646
0.000366937
0.000247737
0.000166849
0.000110347
7.17067e-05
4.60905e-05
2.93922e-05
1.84975e-05
1.14494e-05
6.97584e-06
4.19031e-06
2.4816e-06
1.45304e-06
8.53687e-07
5.27675e-07
3.85066e-07
-70.9177
2.37323
2.2837
2.20854
2.14108
1.48544
0.974564
0.699408
0.532043
0.395249
0.280573
0.192072
0.132548
0.0954608
0.001022
0.00070618
0.000477476
0.000321489
0.000217842
0.000146283
9.63559e-05
6.24848e-05
4.0162e-05
2.559e-05
1.60665e-05
9.91974e-06
6.03261e-06
3.61691e-06
2.13693e-06
1.2479e-06
7.31101e-07
4.50521e-07
3.27929e-07
-17.6621
2.32408
2.24517
2.17371
1.82103
1.20741
0.820029
0.615474
0.466762
0.34071
0.237759
0.162498
0.1143
0.00124702
0.000879255
0.000602691
0.000406833
0.00027542
0.000186901
0.00012484
8.18697e-05
5.30093e-05
3.40721e-05
2.16657e-05
1.35595e-05
8.34967e-06
5.06771e-06
3.03126e-06
1.78555e-06
1.03927e-06
6.06711e-07
3.72394e-07
2.70173e-07
2.36453
2.27895
2.20488
2.13865
1.45613
0.961539
0.695844
0.531861
0.396934
0.283341
0.195005
0.134973
0.0976258
0.00105278
0.000733059
0.000499084
0.000337713
0.000230143
0.000155767
0.000103471
6.76211e-05
4.37739e-05
2.81224e-05
1.78252e-05
1.11134e-05
6.82284e-06
4.12993e-06
2.46195e-06
1.44452e-06
8.37363e-07
4.86706e-07
2.97291e-07
2.14823e-07
2.30267
2.22697
2.15798
1.68167
1.11276
0.774839
0.588931
0.446323
0.32514
0.226999
0.156182
0.111145
0.00121791
0.000861454
0.000593191
0.0004027
0.000274315
0.000187313
0.000125906
8.31123e-05
5.41783e-05
3.50682e-05
2.24694e-05
1.4178e-05
8.80527e-06
5.39114e-06
3.25333e-06
1.93165e-06
1.12837e-06
6.51101e-07
3.76513e-07
2.28666e-07
1.64454e-07
2.24517
2.17465
1.85568
1.24752
0.848068
0.636377
0.48698
0.36018
0.255126
0.176013
0.123851
0.0909308
0.000977747
0.000681327
0.000465559
0.000317352
0.000217703
0.000147975
9.86996e-05
6.48438e-05
4.22416e-05
2.73075e-05
1.74169e-05
1.09332e-05
6.76267e-06
4.12585e-06
2.47873e-06
1.46415e-06
8.50791e-07
4.88263e-07
2.80627e-07
1.69276e-07
1.21061e-07
2.18903
2.12532
1.34948
0.908545
0.673353
0.518354
0.388183
0.27857
0.193448
0.135378
0.0984954
0.00107827
0.00075986
0.000523344
0.0003577
0.000246081
0.000168801
0.000113731
7.5343e-05
4.93918e-05
3.21651e-05
2.07109e-05
1.31303e-05
8.19826e-06
5.04935e-06
3.06554e-06
1.83077e-06
1.07467e-06
6.20631e-07
3.53867e-07
2.01918e-07
1.20844e-07
8.58689e-08
2.13769
1.44262
0.965431
0.706021
0.545286
0.412535
0.299715
0.209904
0.146628
0.106156
0.00117342
0.000835173
0.00057975
0.000397855
0.000274259
0.000189413
0.000128772
8.60142e-05
5.67536e-05
3.71923e-05
2.41507e-05
1.54528e-05
9.73432e-06
6.04748e-06
3.70616e-06
2.23615e-06
1.32638e-06
7.7337e-07
4.43593e-07
2.51071e-07
1.42105e-07
8.4303e-08
5.94711e-08
1.581
1.05728
0.757553
0.584853
0.446936
0.328589
0.232551
0.162483
0.116966
0.0868072
0.000936624
0.000655661
0.000451794
0.000311597
0.000216288
0.000148373
9.99457e-05
6.63921e-05
4.37664e-05
2.8644e-05
1.84994e-05
1.17612e-05
7.37072e-06
4.55861e-06
2.77822e-06
1.6653e-06
9.81216e-07
5.68361e-07
3.23741e-07
1.81852e-07
1.02074e-07
6.00076e-08
4.20123e-08
1.29631
0.886997
0.669912
0.518942
0.389746
0.280834
0.196617
0.13932
0.102586
0.00113306
0.000804663
0.000558642
0.000385046
0.000267306
0.000185491
0.000126422
8.47034e-05
5.61702e-05
3.70353e-05
2.41824e-05
1.55521e-05
9.8501e-06
6.15581e-06
3.79524e-06
2.30325e-06
1.37411e-06
8.05862e-07
4.64545e-07
2.63231e-07
1.47032e-07
8.20236e-08
4.78962e-08
3.33428e-08
-16.2214
-22.2229
-26.8229
-33.279
-48.9991
-86.0865
-167.523
-219.897
-79.4064
2.36205
2.2653
2.1883
1.82303
1.14795
0.745056
0.535797
0.383795
0.261241
0.17005
0.112369
0.0011538
0.000768328
0.000495831
0.0003145
0.000199901
0.00012578
7.751e-05
4.68801e-05
2.80229e-05
1.65967e-05
9.8553e-06
6.15085e-06
4.52275e-06
-16.1131
-22.921
-27.4399
-34.3876
-49.9775
-89.1713
-172.544
-214.793
-72.2797
2.35615
2.26199
2.17824
1.78158
1.11922
0.73234
0.52812
0.377731
0.256658
0.166888
0.110431
0.00113429
0.000754791
0.000486805
0.000308837
0.000196378
0.000123453
7.60009e-05
4.59279e-05
2.74345e-05
1.62364e-05
9.63453e-06
6.00958e-06
4.41717e-06
-17.4464
-23.1233
-27.8938
-35.659
-53.3318
-96.4475
-187.043
-208.969
-55.3064
2.34648
2.24924
2.17423
1.70144
1.06395
0.705568
0.510783
0.363806
0.245923
0.159927
0.106663
0.00109315
0.000725196
0.000466914
0.00029652
0.000188646
0.000118455
7.28192e-05
4.39713e-05
2.62475e-05
1.55172e-05
9.19677e-06
5.72993e-06
4.20777e-06
-18.7341
-24.0892
-29.0389
-37.8862
-58.7094
-109.676
-201.187
-188.23
-32.7398
2.32527
2.24
2.15982
1.57774
0.983248
0.667195
0.485136
0.343557
0.230625
0.149975
0.100663
0.00103192
0.000682505
0.00043851
0.000278765
0.000177299
0.000111106
6.81651e-05
4.11182e-05
2.45239e-05
1.44779e-05
8.56606e-06
5.32805e-06
3.90741e-06
-20.4699
-25.3814
-30.8891
-41.8574
-68.4842
-131.095
-218.01
-146.343
-8.60262
2.30184
2.22088
2.1435
1.41471
0.887925
0.620272
0.451583
0.316725
0.21063
0.137416
0.0933738
0.000951982
0.000626369
0.000401392
0.000255666
0.00016257
0.000101631
6.2212e-05
3.7494e-05
2.23372e-05
1.31613e-05
7.76983e-06
4.82244e-06
3.5304e-06
-22.3077
-26.9849
-33.701
-47.9456
-85.2223
-164.2
-223.813
-90.0304
2.37599
2.26962
2.19282
2.12617
1.23028
0.790694
0.567145
0.410847
0.284071
0.187003
0.12308
0.00126933
0.000855594
0.000559296
0.000357666
0.000228546
0.000145259
9.05558e-05
5.53044e-05
3.33022e-05
1.98103e-05
1.16439e-05
6.85611e-06
4.24422e-06
3.10022e-06
-24.5167
-29.5386
-38.7607
-60.2888
-112.048
-202.313
-188.166
-34.6475
2.32811
2.2432
2.1699
1.64863
1.03537
0.696253
0.507995
0.363674
0.247295
0.161836
0.108185
0.00111978
0.000749652
0.000486751
0.000311172
0.000199418
0.000126461
7.85204e-05
4.78352e-05
2.87723e-05
1.70763e-05
1.00061e-05
5.87389e-06
3.625e-06
2.64093e-06
-26.8491
-33.3547
-47.204
-80.8636
-154.345
-221.9
-106.206
2.39076
2.28574
2.20766
2.13921
1.35071
0.857642
0.607663
0.444468
0.312586
0.208797
0.13714
0.0938217
0.000963008
0.000638012
0.000411702
0.000263919
0.000169368
0.000106947
6.61026e-05
4.01909e-05
2.4141e-05
1.42858e-05
8.3398e-06
4.87754e-06
2.99779e-06
2.17627e-06
-29.8135
-39.9383
-63.0377
-116.6
-210.341
-182.529
-32.0846
2.32758
2.24379
2.17093
1.67754
1.06027
0.711539
0.521
0.3763
0.258634
0.170477
0.114092
0.00118741
0.000802674
0.000526391
0.000338828
0.000218401
0.000139907
8.78362e-05
5.40435e-05
3.28022e-05
1.96463e-05
1.15744e-05
6.72579e-06
3.91589e-06
2.39466e-06
1.73099e-06
-35.7959
-52.5921
-93.0642
-175.02
-216.607
-79.6232
2.37212
2.27738
2.1943
2.12804
1.28331
0.826034
0.593856
0.436271
0.307719
0.206333
0.136338
0.0938908
0.000969884
0.000646864
0.000420293
0.000271168
0.000175264
0.000111605
6.96129e-05
4.27065e-05
2.58817e-05
1.54437e-05
9.05257e-06
5.23458e-06
3.03192e-06
1.84297e-06
1.32545e-06
-46.9409
-79.2452
-149.641
-224.399
-125.434
-3.57758
2.30071
2.22186
2.14501
1.48596
0.945207
0.659653
0.487919
0.351195
0.240269
0.159
0.10775
0.0011296
0.000765855
0.000503989
0.000326409
0.000211983
0.000136565
8.62889e-05
5.34937e-05
3.27406e-05
1.97728e-05
1.17321e-05
6.83568e-06
3.93063e-06
2.26242e-06
1.3653e-06
9.76045e-07
-70.8764
-133.256
-217.564
-155.078
-19.0897
2.32119
2.24004
2.16117
1.65647
1.05946
0.719225
0.531927
0.388846
0.271054
0.180992
0.121577
0.00127889
0.000878627
0.00058582
0.00038206
0.000248696
0.000161737
0.000103407
6.4787e-05
3.99857e-05
2.43932e-05
1.46439e-05
8.62604e-06
4.99296e-06
2.85228e-06
1.62938e-06
9.75061e-07
6.92316e-07
-120.261
-211.29
-183.493
-36.1965
2.33353
2.24998
2.17726
1.81011
1.17443
0.779997
0.57317
0.42346
0.299828
0.202559
0.135649
0.0946609
0.000989557
0.000667925
0.000439404
0.000286786
0.000187819
0.000121377
7.68489e-05
4.78252e-05
2.94184e-05
1.78432e-05
1.06278e-05
6.21313e-06
3.57176e-06
2.02527e-06
1.14711e-06
6.80124e-07
4.79237e-07
-190.956
-209.615
-66.2044
2.36205
2.27157
2.19593
2.12953
1.33392
0.869645
0.629391
0.469606
0.338059
0.231641
0.154822
0.106948
0.00113104
0.000773259
0.000513834
0.000336651
0.000221346
0.000144582
9.25773e-05
5.81534e-05
3.60661e-05
2.20949e-05
1.33087e-05
7.86661e-06
4.56808e-06
2.60811e-06
1.46734e-06
8.23879e-07
4.83876e-07
3.38264e-07
-225.144
-143.583
-14.0935
2.31717
2.23575
2.163
1.67315
1.07995
0.742429
0.555069
0.409501
0.288175
0.19407
0.131074
0.0924878
0.000969847
0.000654996
0.000432045
0.000283965
0.00018736
0.000121741
7.74652e-05
4.85005e-05
3.00352e-05
1.83326e-05
1.0984e-05
6.45942e-06
3.73328e-06
2.12037e-06
1.18593e-06
6.61631e-07
3.85888e-07
2.68177e-07
4.03354
2.97708
2.24477
0.989531
-1.1359
-4.68542
-11.3249
-18.7825
-24.8205
-32.1542
-45.1169
-78.1428
-157.251
-224.582
-76.6835
2.34135
2.23492
2.15936
1.46443
0.872634
0.576458
0.398039
0.262932
0.163621
0.102403
0.000986332
0.000616101
0.000372602
0.000222605
0.000132663
7.91831e-05
4.94894e-05
3.64232e-05
3.69465
3.13992
2.34295
1.05418
-1.08103
-5.51395
-11.5388
-19.0676
-25.0501
-32.6165
-46.2708
-81.1407
-162.816
-220.161
-67.768
2.3366
2.23278
2.15803
1.43445
0.855016
0.567311
0.391547
0.258095
0.160506
0.101044
0.00096947
0.000604637
0.000365207
0.000218052
0.000129864
7.74403e-05
4.83627e-05
3.55799e-05
3.79933
3.21919
2.43556
0.472186
-1.84987
-5.86636
-12.0606
-20.3451
-26.1255
-32.8243
-48.9548
-87.9693
-172.771
-216.383
-49.9851
2.31958
2.22719
2.14643
1.36253
0.816159
0.547092
0.376814
0.246905
0.153287
0.0969871
0.000931449
0.000579629
0.00034953
0.000208757
0.000124155
7.39182e-05
4.61063e-05
3.38952e-05
3.61799
2.98668
2.06164
0.617667
-2.61255
-6.97412
-13.7595
-20.8921
-27.5555
-35.1935
-52.5019
-99.353
-191.661
-198.697
-28.3058
2.30721
2.21239
2.13363
1.26052
0.763994
0.51917
0.356621
0.23196
0.143746
0.0916902
0.000875932
0.000542969
0.000326683
0.00019519
0.000115956
6.88879e-05
4.28885e-05
3.14916e-05
3.47629
2.78234
1.71824
0.0228588
-3.63016
-8.59205
-15.8105
-22.514
-29.1316
-38.285
-60.0939
-117.277
-213.227
-160.208
-4.66857
2.28468
2.19479
1.84848
1.12756
0.700522
0.482423
0.329141
0.211694
0.131248
0.00126344
0.000803192
0.000495408
0.000297594
0.000177894
0.000105505
6.24954e-05
3.88218e-05
2.84596e-05
2.93198
2.17986