/*--------------------------------*- C++ -*----------------------------------*\
| =========                 |                                                 |
| \\      /  F ield         | OpenFOAM: The Open Source CFD Toolbox           |
|  \\    /   O peration     | Version:  2412                                  |
|   \\  /    A nd           | Website:  www.openfoam.com                      |
|    \\/     M anipulation  |                                                 |
\*---------------------------------------------------------------------------*/
FoamFile
{
    version     2.0;
    format      ascii;
    arch        "LSB;label=32;scalar=64";
    class       volScalarField;
    location    "0.0400007";
    object      Jsi;
}
// * * * * * * * * * * * * * * * * * * * * * * * * * * * * * * * * * * * * * //

dimensions      [0 0 0 0 0 0 0];

internalField   nonuniform List<scalar> 
8790
(
0
0
0
0
0
0
0
0
0
0
0
0
0
0
0
0
0
0
0
0
0
0
0
0
0
0
0
0
0
0
0
0
0
0
0
0
0
0
0
0
0
0
0
0
0
0
0
0
0
0
0
0
0
0
0
0
0
0
0
0
0
0
0
0
0
0
0
0
0
0
0
0
0
0
0
0
0
0
0
0
0
0
0
0
0
0
0
0
0
0
0
0
0
0
0
0
0
0
0
0
0
0
0
0
0
0
0
0
0
0
0
0
0
0
0
0
0
0
0
0
0
0
0
0
0
0
0
0
0
0
0
0
0
0
0
0
0
0
0
0
0
0
0
0
0
0
0
0
0
0
0
0
0
0
0
0
0
0
0
0
0
0
0
0
0
0
0
0
0
0
0
0
0
0
0
0
0
0
0
0
0
0
0
0
0
0
0
0
0
0
0
0
0
0
0
0
0
0
0
0
0
0
0
0
0
0
0
0
0
0
0
0
0
0
0
0
0
0
0
0
0
0
0
0
0
0
0
0
0
0
0
0
0
0
0
0
0
0
0
0
0
0
0
0
0
0
0
0
0
0
0
0
0
0
0
0
0
0
0
0
0
0
0
0
0
0
0
0
0
0
0
0
0
0
0
0
0
0
0
0
0
0
0
0
0
0
0
0
0
0
0
0
0
0
0
0
0
0
0
0
0
0
0
0
0
0
0
0
0
0
0
0
0
0
0
0
0
0
0
0
0
0
0
0
0
0
0
0
0
0
0
0
0
0
0
0
0
0
0
0
0
0
0
0
0
0
0
0
0
0
0
0
0
0
0
0
0
0
0
0
0
0
0
0
0
0
0
0
0
0
0
0
0
0
0
0
0
0
0
0
0
0
0
0
0
0
0
0
0
0
0
0
0
0
0
0
0
0
0
0
0
0
0
0
0
0
0
0
0
0
0
0
0
0
0
0
0
0
0
0
0
0
0
0
0
0
0
0
0
0
0
0
0
0
0
0
0
0
0
0
0
0
0
0
0
0
0
0
0
0
0
0
0
0
0
0
0
0
0
0
0
0
0
0
0
0
0
0
0
0
0
0
0
0
0
0
0
0
0
0
0
0
0
0
0
0
0
0
0
0
0
0
0
0
0
0
0
0
0
0
0
0
0
0
0
0
0
0
0
0
0
0
0
0
0
0
0
0
0
0
0
0
0
0
0
0
0
0
0
0
0
0
0
0
0
0
0
0
0
0
0
0
0
0
0
0
0
0
0
0
0
0
0
0
0
0
0
0
0
0
0
0
0
0
0
0
0
0
0
0
0
0
0
0
0
0
0
0
0
0
0
0
0
0
0
0
0
0
0
0
0
0
0
0
0
0
0
0
0
0
0
0
0
0
0
0
0
0
0
0
0
0
0
0
0
0
0
0
0
0
0
0
0
0
0
0
0
0
0
0
0
0
0
0
0
0
0
0
0
0
0
0
0
0
0
0
0
0
0
0
0
0
0
0
0
0
0
0
0
0
0
0
0
0
0
0
0
0
0
0
0
0
0
0
0
0
0
0
0
0
0
0
0
0
0
0
0
0
0
0
0
0
0
0
0
0
0
0
0
0
0
0
0
0
0
0
0
0
0
0
0
0
0
0
0
0
0
0
0
0
0
0
0
0
0
0
0
0
0
0
0
0
0
0
0
0
0
0
0
0
0
0
0
0
0
0
0
0
0
0
0
0
0
0
0
0
0
0
0
0
0
0
0
0
0
0
0
0
0
0
0
0
0
0
0
0
0
0
0
0
0
0
0
0
0
0
0
0
0
0
0
0
0
0
0
0
0
0
0
0
0
0
0
0
0
0
0
0
0
0
0
0
0
0
0
0
0
0
0
0
0
0
0
0
0
0
0
0
0
0
0
0
0
0
0
0
0
0
0
0
0
0
0
0
0
0
0
0
0
0
0
0
0
0
0
0
0
0
0
0
0
0
0
0
0
0
0
0
0
0
0
0
0
0
0
0
0
0
0
0
0
0
0
0
0
0
0
0
0
0
0
0
0
0
0
0
0
0
0
0
0
0
0
0
0
0
0
0
0
0
0
0
0
0
0
0
0
0
0
0
0
0
0
0
0
0
0
0
0
0
0
0
0
0
0
0
0
0
0
0
0
0
0
0
0
0
0
0
0
0
0
0
0
0
0
0
0
0
0
0
0
0
0
0
0
0
0
0
0
0
0
0
0
0
0
0
0
0
0
0
0
0
0
0
0
0
0
0
0
0
0
0
0
0
0
0
0
0
0
0
0
0
0
0
0
0
0
0
0
0
0
0
0
0
0
0
0
0
0
0
0
0
0
0
0
0
0
0
0
0
0
0
0
0
0
0
0
0
0
0
0
0
0
0
0
0
0
0
0
0
0
0
0
0
0
0
0
0
0
0
0
0
0
0
0
0
0
0
0
0
0
0
0
0
0
0
0
0
0
0
0
0
0
0
0
0
0
0
0
0
0
0
0
0
0
0
0
0
0
0
0
0
0
0
0
0
0
0
0
0
0
0
0
0
0
0
0
0
0
0
0
0
0
0
0
0
0
0
0
0
0
0
0
0
0
0
0
0
0
0
0
0
0
0
0
0
0
0
0
0
0
0
0
0
0
0
0
0
0
0
0
0
0
0
0
0
0
0
0
0
0
0
0
0
0
0
0
0
0
0
0
0
0
0
0
0
0
0
0
0
0
0
0
0
0
0
0
0
0
0
0
0
0
0
0
0
0
0
0
0
0
0
0
0
0
0
0
0
0
0
0
0
0
0
0
0
0
0
0
0
0
0
0
0
0
0
0
0
0
0
0
0
0
0
0
0
0
0
0
0
0
0
0
0
0
0
0
0
0
0
0
0
0
0
0
0
0
0
0
0
0
0
0
0
0
0
0
0
0
0
0
0
0
0
0
0
0
0
0
0
0
0
0
0
0
0
0
0
0
0
0
0
0
0
0
0
0
0
0
0
0
0
0
0
0
0
0
0
0
0
0
0
0
0
0
0
0
0
0
0
0
0
0
0
0
0
0
0
0
0
0
0
0
0
0
0
0
0
0
0
0
0
0
0
0
0
0
0
0
0
0
0
0
0
0
0
0
0
0
0
0
0
0
0
0
0
0
0
0
0
0
0
0
0
0
0
0
0
0
0
0
0
0
0
0
0
0
0
0
0
0
0
0
0
0
0
0
0
0
0
0
0
0
0
0
0
0
0
0
0
0
0
0
0
0
0
0
0
0
0
0
0
0
0
0
0
0
0
0
0
0
0
0
0
0
0
0
0
0
0
0
0
0
0
0
0
0
0
0
0
0
0
0
0
0
0
0
0
0
0
0
0
0
0
0
0
0
0
0
0
0
0
0
0
0
-0.0152392
-0.0135622
-0.0130744
-0.0128201
-0.012631
-0.0124913
0
0
0
0
0
0
0
0
0
0
0
0
0
0
0
0
0
0
0
0
0
0
0
0
0
0
0
-0.0151289
-0.013518
-0.0130478
-0.0127972
-0.0126082
-0.0124689
0
0
0
0
0
0
0
0
0
0
0
0
0
0
0
0
0
0
0
0
0
0
0
0
0
0
0
-0.0148442
-0.0134766
-0.0130588
-0.012817
-0.0126336
-0.0124993
0
0
0
0
0
0
0
0
0
0
0
0
0
0
0
0
0
0
0
0
0
0
0
0
0
0
0
-0.0143837
-0.0133026
-0.0129458
-0.0127171
-0.0125441
-0.0125061
0
0
0
0
0
0
0
0
0
0
0
0
0
0
0
0
0
0
0
0
0
0
0
0
0
0
0
-0.0139023
-0.0131624
-0.0128674
-0.012744
-0.0125868
-0.0124753
0
0
0
0
0
0
0
0
0
0
0
0
0
0
0
0
0
0
0
0
0
0
0
0
0
0
0
-0.0135487
-0.0130764
-0.012829
-0.0126433
-0.012508
0
0
0
0
0
0
0
0
0
0
0
0
0
0
0
0
0
0
0
0
0
0
0
0
0
0
0
0
-0.0133015
-0.0129824
-0.0127695
-0.0126093
-0.0124949
0
0
0
0
0
0
0
0
0
0
0
0
0
0
0
0
0
0
0
0
0
0
0
0
0
0
0
0
-0.0131087
-0.0128642
-0.0126821
-0.0125488
0
0
0
0
0
0
0
0
0
0
0
0
0
0
0
0
0
0
0
0
0
0
0
0
0
0
0
0
0
-0.0129322
-0.012728
-0.0125754
-0.0124682
0
0
0
0
0
0
0
0
0
0
0
0
0
0
0
0
0
0
0
0
0
0
0
0
0
0
0
0
0
-0.0128119
-0.0126504
-0.012535
0
0
0
0
0
0
0
0
0
0
0
0
0
0
0
0
0
0
0
0
0
0
0
0
0
0
0
0
0
0
-0.0126827
-0.0125609
0
0
0
0
0
0
0
0
0
0
0
0
0
0
0
0
0
0
0
0
0
0
0
0
0
0
0
0
0
0
0
-0.0125524
-0.0124677
0
0
0
0
0
0
0
0
0
0
0
0
0
0
0
0
0
0
0
0
0
0
0
0
0
0
0
0
0
0
0
-0.0124419
0
0
0
0
0
0
0
0
0
0
0
0
0
0
0
0
0
0
0
0
0
0
0
0
0
0
0
0
0
0
0
0
0
0
0
0
0
0
0
0
0
0
0
0
0
0
0
0
0
0
0
0
0
0
0
0
0
0
0
0
0
0
0
0
0
0
0
0
0
0
0
0
0
0
0
0
0
0
0
0
0
0
0
0
0
0
0
0
0
0
0
0
0
0
0
0
0
0
-0.044474
-0.0401479
-0.0357214
-0.0311968
-0.0266972
-0.0221833
-0.0177561
-0.0144111
-0.0131984
-0.0129028
-0.0126524
-0.0124642
0
0
0
0
0
0
0
0
0
0
0
0
0
0
0
0
0
0
0
0
0
-0.0442652
-0.0400348
-0.0356319
-0.0311052
-0.0265722
-0.0219373
-0.017514
-0.0142721
-0.0132337
-0.0128676
-0.0126226
-0.0125256
0
0
0
0
0
0
0
0
0
0
0
0
0
0
0
0
0
0
0
0
0
-0.043893
-0.0395423
-0.0350928
-0.0305431
-0.0259075
-0.0212723
-0.0169969
-0.0140989
-0.0131403
-0.012799
-0.0126492
-0.0124706
0
0
0
0
0
0
0
0
0
0
0
0
0
0
0
0
0
0
0
0
0
-0.0430737
-0.0387111
-0.0343257
-0.0297632
-0.0251317
-0.0205174
-0.016296
-0.0138325
-0.0130856
-0.0127758
-0.0125516
-0.0124718
0
0
0
0
0
0
0
0
0
0
0
0
0
0
0
0
0
0
0
0
0
-0.0418017
-0.0375147
-0.0330439
-0.0284791
-0.0238625
-0.019316
-0.0153881
-0.0135347
-0.0129949
-0.0127168
-0.0125095
-0.012444
0
0
0
0
0
0
0
0
0
0
0
0
0
0
0
0
0
0
0
0
0
-0.0401048
-0.0357373
-0.0312671
-0.0267196
-0.0222444
-0.0179524
-0.0145588
-0.0132695
-0.0128764
-0.0127143
-0.012527
-0.0123917
0
0
0
0
0
0
0
0
0
0
0
0
0
0
0
0
0
0
0
0
0
-0.0382445
-0.0338637
-0.0293927
-0.0248614
-0.0203585
-0.0162488
-0.0137718
-0.0131186
-0.012815
-0.0125943
-0.0124295
0
0
0
0
0
0
0
0
0
0
0
0
0
0
0
0
0
0
0
0
0
0
-0.0359925
-0.0315891
-0.0271102
-0.0226083
-0.018252
-0.0147638
-0.013314
-0.0129747
-0.0127224
-0.0125317
-0.0123925
0
0
0
0
0
0
0
0
0
0
0
0
0
0
0
0
0
0
0
0
0
0
-0.0334417
-0.0289725
-0.02447
-0.0200285
-0.0160926
-0.0137209
-0.013109
-0.0128165
-0.0126033
-0.0124441
0
0
0
0
0
0
0
0
0
0
0
0
0
0
0
0
0
0
0
0
0
0
0
-0.0304513
-0.0260393
-0.0216284
-0.0174375
-0.014353
-0.0132337
-0.0128733
-0.0126389
-0.0125508
-0.0124247
0
0
0
0
0
0
0
0
0
0
0
0
0
0
0
0
0
0
0
0
0
0
0
-0.0271088
-0.0227362
-0.0184953
-0.0150028
-0.013425
-0.012971
-0.0127201
-0.0125318
-0.0124824
0
0
0
0
0
0
0
0
0
0
0
0
0
0
0
0
0
0
0
0
0
0
0
0
-0.023459
-0.0191836
-0.0155008
-0.0135782
-0.0130247
-0.0127605
-0.0125651
-0.0125087
0
0
0
0
0
0
0
0
0
0
0
0
0
0
0
0
0
0
0
0
0
0
0
0
0
-0.0198934
-0.0160774
-0.0137293
-0.013056
-0.0128637
-0.0126647
-0.0125187
0
0
0
0
0
0
0
0
0
0
0
0
0
0
0
0
0
0
0
0
0
0
0
0
0
0
-0.0168386
-0.0141366
-0.0132332
-0.0129223
-0.0127135
-0.0125576
-0.0124498
0
0
0
0
0
0
0
0
0
0
0
0
0
0
0
0
0
0
0
0
0
0
0
0
0
0
-0.0152421
-0.013543
-0.0130619
-0.0128193
-0.0126396
-0.0125089
0
0
0
0
0
0
0
0
0
0
0
0
0
0
0
0
0
0
0
0
0
0
0
0
0
0
0
-0.0724672
-0.0685484
-0.0644986
-0.0602301
-0.0558368
-0.0513424
-0.0469423
-0.0422894
-0.0375268
-0.0328335
-0.027885
-0.0229525
-0.0181777
-0.0144732
-0.0130954
-0.0127705
-0.0125926
-0.0123911
0
0
0
0
0
0
0
0
0
0
0
0
0
0
0
-0.072381
-0.0684054
-0.0642326
-0.059939
-0.0555368
-0.051221
-0.046656
-0.0419812
-0.0372922
-0.0325228
-0.0275766
-0.0226427
-0.0179056
-0.0143244
-0.0130557
-0.0127424
-0.0125661
-0.0123698
0
0
0
0
0
0
0
0
0
0
0
0
0
0
0
-0.0718792
-0.0677945
-0.0636061
-0.0594256
-0.055131
-0.0506279
-0.0460307
-0.0415351
-0.0367907
-0.0319208
-0.027118
-0.0221363
-0.0174486
-0.0140561
-0.0130451
-0.0127626
-0.0125062
-0.0124048
0
0
0
0
0
0
0
0
0
0
0
0
0
0
0
-0.0712036
-0.0671089
-0.0628915
-0.0585746
-0.0543462
-0.0498549
-0.0452404
-0.0405441
-0.0359442
-0.0310781
-0.0261883
-0.0213056
-0.0167609
-0.0137698
-0.0129985
-0.0126617
-0.0125067
-0.0124174
0
0
0
0
0
0
0
0
0
0
0
0
0
0
0
-0.0700372
-0.0659333
-0.0617079
-0.0573806
-0.0531507
-0.0486577
-0.0440406
-0.0394181
-0.0347329
-0.0298614
-0.0249782
-0.0201484
-0.0158367
-0.0134606
-0.0129199
-0.0126149
-0.0124763
0
0
0
0
0
0
0
0
0
0
0
0
0
0
0
0
-0.0685516
-0.0644952
-0.060375
-0.0560609
-0.0516324
-0.0470903
-0.0425454
-0.0379564
-0.0331873
-0.0283785
-0.0235286
-0.0187304
-0.0148598
-0.0131868
-0.0128111
-0.0126228
-0.0124148
0
0
0
0
0
0
0
0
0
0
0
0
0
0
0
0
-0.0667201
-0.0625963
-0.0583749
-0.0541749
-0.0498678
-0.0453584
-0.040747
-0.0361261
-0.0314211
-0.0265467
-0.0217222
-0.0171546
-0.0140177
-0.0130225
-0.0127569
-0.0125092
-0.012414
0
0
0
0
0
0
0
0
0
0
0
0
0
0
0
0
-0.0646077
-0.0604563
-0.0562123
-0.0520788
-0.0476898
-0.0431833
-0.0385728
-0.0339428
-0.0292307
-0.0243741
-0.0196429
-0.0154763
-0.0134403
-0.0128804
-0.0126774
-0.0124601
0
0
0
0
0
0
0
0
0
0
0
0
0
0
0
0
0
-0.0623733
-0.0582671
-0.0539857
-0.0496178
-0.0451585
-0.0406101
-0.0360562
-0.0314254
-0.0266349
-0.0218028
-0.017353
-0.0140593
-0.0130831
-0.0127243
-0.0125663
-0.0123842
0
0
0
0
0
0
0
0
0
0
0
0
0
0
0
0
0
-0.0594401
-0.055248
-0.05108
-0.0468181
-0.0423739
-0.0378235
-0.0331566
-0.0283971
-0.0237652
-0.0190803
-0.0150811
-0.0133242
-0.0128342
-0.012645
-0.0124403
0
0
0
0
0
0
0
0
0
0
0
0
0
0
0
0
0
0
-0.056265
-0.0521588
-0.047888
-0.0435943
-0.0391333
-0.0345611
-0.0298753
-0.025107
-0.0204588
-0.0162185
-0.0136307
-0.0129908
-0.0126822
-0.0125475
-0.0123811
0
0
0
0
0
0
0
0
0
0
0
0
0
0
0
0
0
0
-0.0529318
-0.0487128
-0.0444053
-0.0400083
-0.0355076
-0.0308973
-0.026199
-0.0215763
-0.0172092
-0.0140596
-0.0131163
-0.012769
-0.0125337
-0.0124452
0
0
0
0
0
0
0
0
0
0
0
0
0
0
0
0
0
0
0
-0.0491711
-0.0449216
-0.0405897
-0.0361656
-0.03172
-0.0271155
-0.0225756
-0.0181129
-0.0145561
-0.0132425
-0.0128371
-0.0125867
-0.0124898
0
0
0
0
0
0
0
0
0
0
0
0
0
0
0
0
0
0
0
0
-0.0457828
-0.0415102
-0.0371671
-0.0328137
-0.0282798
-0.0236917
-0.0192712
-0.0153636
-0.0133974
-0.0129509
-0.012678
-0.0124777
-0.0124212
0
0
0
0
0
0
0
0
0
0
0
0
0
0
0
0
0
0
0
0
-0.0436906
-0.0394022
-0.0350401
-0.0305909
-0.0260568
-0.0215043
-0.0172511
-0.0141308
-0.0130873
-0.0128284
-0.012595
-0.0124229
0
0
0
0
0
0
0
0
0
0
0
0
0
0
0
0
0
0
0
0
0
-0.0971534
-0.093521
-0.0897694
-0.0860843
-0.0820984
-0.0779689
-0.0739026
-0.069535
-0.0650958
-0.0605703
-0.0559181
-0.0511624
-0.0462852
-0.0414055
-0.0362579
-0.031177
-0.0260141
-0.020767
-0.015966
-0.013351
-0.0127587
-0.0125173
-0.012367
0
0
0
0
0
0
0
0
0
0
-0.0968864
-0.0932474
-0.0896762
-0.0858177
-0.0818054
-0.0777427
-0.0736038
-0.0693356
-0.064943
-0.0604263
-0.0557787
-0.0510198
-0.0461507
-0.0411891
-0.0362034
-0.0309431
-0.0257575
-0.0206062
-0.0158689
-0.0133722
-0.0127302
-0.012494
-0.0123459
0
0
0
0
0
0
0
0
0
0
-0.0964876
-0.0929407
-0.0891677
-0.0852746
-0.0814456
-0.0773283
-0.0731462
-0.0688687
-0.0643907
-0.0599327
-0.0552657
-0.0503691
-0.0455806
-0.0406324
-0.0355716
-0.0304751
-0.0252122
-0.0200012
-0.0154583
-0.0132311
-0.0127437
-0.0125194
-0.0123791
0
0
0
0
0
0
0
0
0
0
-0.0957641
-0.0922906
-0.0885271
-0.084606
-0.0806415
-0.0766007
-0.072333
-0.0679972
-0.0635837
-0.0590415
-0.0543912
-0.0496098
-0.044814
-0.0397529
-0.0347745
-0.0297033
-0.0243877
-0.0193035
-0.014962
-0.0131366
-0.0127316
-0.0124365
-0.012306
0
0
0
0
0
0
0
0
0
0
-0.0947413
-0.0912605
-0.0874927
-0.0835699
-0.0795974
-0.0755437
-0.0712585
-0.0669032
-0.0624748
-0.0579184
-0.053262
-0.0484816
-0.0436907
-0.0386357
-0.0336516
-0.0285752
-0.0232727
-0.0182695
-0.0143321
-0.0130116
-0.0126822
-0.0124066
-0.0122903
0
0
0
0
0
0
0
0
0
0
-0.0936339
-0.0899427
-0.0861329
-0.0823922
-0.0783551
-0.0741601
-0.0699126
-0.0655894
-0.0611386
-0.0565772
-0.0519046
-0.0471218
-0.0422429
-0.037345
-0.0321769
-0.0270631
-0.0218483
-0.0169253
-0.0137045
-0.0128668
-0.0125957
-0.0124308
0
0
0
0
0
0
0
0
0
0
0
-0.0921443
-0.0884404
-0.0845999
-0.0806532
-0.0767739
-0.0726012
-0.0682823
-0.0640115
-0.0594517
-0.0548341
-0.0501375
-0.0453326
-0.0404398
-0.0354406
-0.0304174
-0.0251484
-0.0200874
-0.01558
-0.0132956
-0.0127977
-0.0124874
-0.0123475
0
0
0
0
0
0
0
0
0
0
0
-0.090273
-0.086541
-0.0826731
-0.0786997
-0.0747992
-0.0706066
-0.0662702
-0.061979
-0.0574019
-0.0527696
-0.0480603
-0.0432483
-0.0383498
-0.0333399
-0.0283115
-0.0230718
-0.0181515
-0.0143131
-0.0130283
-0.0126179
-0.0124339
-0.012322
0
0
0
0
0
0
0
0
0
0
0
-0.0880626
-0.0842616
-0.0804312
-0.07654
-0.0724388
-0.068192
-0.0640024
-0.0595277
-0.054994
-0.0503645
-0.0456304
-0.0406942
-0.0358596
-0.030749
-0.0257324
-0.0207397
-0.0160228
-0.0134212
-0.0128244
-0.0125915
-0.0123583
0
0
0
0
0
0
0
0
0
0
0
0
-0.0856631
-0.081833
-0.0778842
-0.0738334
-0.0698566
-0.0655856
-0.061164
-0.0566885
-0.0521501
-0.0475079
-0.0427771
-0.0379603
-0.033032
-0.0280086
-0.0230056
-0.0180228
-0.0142735
-0.0130329
-0.0126318
-0.0124536
-0.0123458
0
0
0
0
0
0
0
0
0
0
0
0
-0.0827481
-0.078884
-0.0748961
-0.0708774
-0.0667942
-0.0624953
-0.0581246
-0.0535551
-0.0490045
-0.0443524
-0.0396116
-0.0347698
-0.029715
-0.0247594
-0.0197039
-0.0153921
-0.0132842
-0.0127309
-0.0125202
-0.0123902
0
0
0
0
0
0
0
0
0
0
0
0
0
-0.0794074
-0.0757272
-0.0717568
-0.0676345
-0.0633836
-0.0590864
-0.0545956
-0.0501207
-0.0455456
-0.0407773
-0.0360268
-0.0311676
-0.02621
-0.0212589
-0.0166832
-0.0136392
-0.0128907
-0.0126455
-0.0124076
0
0
0
0
0
0
0
0
0
0
0
0
0
0
-0.0762321
-0.0722821
-0.0682113
-0.064102
-0.0598083
-0.0555286
-0.0510551
-0.0465296
-0.0418287
-0.0371519
-0.0323655
-0.0273756
-0.0225318
-0.0177223
-0.0141942
-0.0129592
-0.012662
-0.012495
-0.0123074
0
0
0
0
0
0
0
0
0
0
0
0
0
0
-0.0729783
-0.0690815
-0.0650014
-0.0609205
-0.0566411
-0.0522346
-0.0477909
-0.0431753
-0.0385738
-0.0338768
-0.0289685
-0.0240751
-0.0192758
-0.0150541
-0.0132134
-0.0128019
-0.0125215
-0.0124033
0
0
0
0
0
0
0
0
0
0
0
0
0
0
0
-0.0709349
-0.066922
-0.0628098
-0.0587188
-0.054433
-0.0500085
-0.0455492
-0.0409236
-0.0363183
-0.031611
-0.0267077
-0.0219367
-0.0172394
-0.0138819
-0.0129532
-0.0126904
-0.0124477
-0.0123581
0
0
0
0
0
0
0
0
0
0
0
0
0
0
0
-0.11788
-0.114807
-0.111522
-0.108277
-0.104723
-0.10109
-0.0973808
-0.0935098
-0.0896054
-0.085393
-0.081228
-0.0769441
-0.0723296
-0.0677477
-0.0630408
-0.058179
-0.0530701
-0.0479278
-0.0426996
-0.0373754
-0.0319403
-0.0264067
-0.0208819
-0.0158244
-0.0131482
-0.012592
-0.012436
0
0
0
0
0
0
-0.117756
-0.114582
-0.111335
-0.108016
-0.104552
-0.100973
-0.0972497
-0.0934007
-0.0894078
-0.0853629
-0.0810162
-0.0767059
-0.0722676
-0.0675111
-0.0627832
-0.0579217
-0.0528074
-0.0476676
-0.0424452
-0.0371269
-0.0316978
-0.0261651
-0.0206422
-0.0156341
-0.013094
-0.0126523
-0.0124134
0
0
0
0
0
0
-0.117346
-0.114328
-0.111017
-0.10764
-0.104177
-0.100575
-0.0968519
-0.0929879
-0.0889952
-0.0848508
-0.0806574
-0.0761555
-0.0716977
-0.0670997
-0.0622512
-0.0573739
-0.0523115
-0.047207
-0.0419708
-0.0365155
-0.0310307
-0.025476
-0.0200585
-0.0152213
-0.0130487
-0.0125873
-0.0123593
0
0
0
0
0
0
-0.116823
-0.113672
-0.110446
-0.106986
-0.103459
-0.099857
-0.0960975
-0.092231
-0.0882049
-0.0841622
-0.079919
-0.0754936
-0.0710039
-0.0662734
-0.0614382
-0.056582
-0.0515997
-0.0464777
-0.0411373
-0.0357776
-0.0303284
-0.0247972
-0.0193412
-0.014708
-0.0129828
-0.0125806
-0.0123678
0
0
0
0
0
0
-0.115963
-0.112797
-0.109571
-0.106133
-0.102715
-0.098996
-0.0951862
-0.0913633
-0.0872392
-0.0831766
-0.0789186
-0.0744824
-0.069995
-0.0653706
-0.0605143
-0.0555388
-0.0505341
-0.0453981
-0.0400501
-0.0346833
-0.0292283
-0.0237083
-0.0183323
-0.0141143
-0.012791
-0.0125381
-0.0123445
0
0
0
0
0
0
-0.115029
-0.111797
-0.108426
-0.105112
-0.101503
-0.0978121
-0.0940368
-0.0901074
-0.0861348
-0.0818625
-0.077645
-0.0732948
-0.0686237
-0.0639741
-0.059192
-0.0541825
-0.0491409
-0.0439236
-0.038669
-0.0331954
-0.0276972
-0.0221879
-0.0169717
-0.0135914
-0.0127517
-0.0124693
-0.0122974
0
0
0
0
0
0
-0.11356
-0.110476
-0.107096
-0.103653
-0.100126
-0.0964506
-0.0926518
-0.0886848
-0.0844809
-0.0803614
-0.0760555
-0.0715743
-0.0670266
-0.0622428
-0.0573622
-0.0524553
-0.0474176
-0.0421587
-0.0368905
-0.0315321
-0.0260812
-0.0206423
-0.0157017
-0.0131455
-0.0126097
-0.0123714
0
0
0
0
0
0
0
-0.112023
-0.10884
-0.105429
-0.101955
-0.0984011
-0.094699
-0.0908721
-0.0868794
-0.0826469
-0.0785
-0.074165
-0.0696564
-0.0650865
-0.0602834
-0.0553796
-0.0504545
-0.0453976
-0.0401245
-0.0348298
-0.0294484
-0.0240051
-0.0186856
-0.0143646
-0.0128827
-0.0125301
-0.0123331
0
0
0
0
0
0
0
-0.110227
-0.106874
-0.103475
-0.100008
-0.096311
-0.0925283
-0.0886705
-0.0846504
-0.0805894
-0.0762303
-0.0719073
-0.0672795
-0.0627006
-0.0579868
-0.0530455
-0.0479991
-0.0429236
-0.0376341
-0.0323309
-0.0269536
-0.0215644
-0.0165191
-0.0134021
-0.0126945
-0.0124338
-0.012274
0
0
0
0
0
0
0
-0.108125
-0.104733
-0.101226
-0.0977786
-0.0940367
-0.0902164
-0.0863047
-0.0822366
-0.0779431
-0.0737028
-0.0691678
-0.0646873
-0.0600841
-0.0551669
-0.0502906
-0.0452975
-0.0400963
-0.0348812
-0.0295806
-0.0242073
-0.0189287
-0.0145305
-0.0129557
-0.0125915
-0.0123955
0
0
0
0
0
0
0
0
-0.105549
-0.102103
-0.0986169
-0.095062
-0.0912857
-0.0874329
-0.083492
-0.0794046
-0.0751918
-0.0708236
-0.0662215
-0.0616933
-0.0570471
-0.0520942
-0.0471768
-0.0420521
-0.0369207
-0.0317119
-0.0264092
-0.0210099
-0.0160463
-0.0132586
-0.0126509
-0.0124086
-0.0123492
0
0
0
0
0
0
0
0
-0.102669
-0.0993119
-0.0957319
-0.0920759
-0.0882191
-0.0843581
-0.0803484
-0.0761125
-0.0719356
-0.0674621
-0.0630187
-0.0582835
-0.0535838
-0.0486667
-0.0436671
-0.0386535
-0.0334328
-0.0281841
-0.0229048
-0.0178097
-0.0139711
-0.0127848
-0.0125714
-0.0123968
0
0
0
0
0
0
0
0
0
-0.0997166
-0.0962285
-0.0925547
-0.0888864
-0.0850791
-0.0810611
-0.0770234
-0.0728328
-0.0684224
-0.0640635
-0.0594158
-0.0548002
-0.0499868
-0.0450623
-0.0400335
-0.034998
-0.0297739
-0.0244618
-0.0193081
-0.0149023
-0.0130375
-0.0126345
-0.0124335
0
0
0
0
0
0
0
0
0
0
-0.0969242
-0.0933798
-0.0896826
-0.0859272
-0.0819772
-0.078019
-0.0739213
-0.0696026
-0.0653341
-0.060768
-0.0561232
-0.0513899
-0.0465358
-0.0416124
-0.03668
-0.0315521
-0.0263841
-0.0210404
-0.0162411
-0.013383
-0.0127336
-0.012494
-0.0123495
0
0
0
0
0
0
0
0
0
0
-0.0949847
-0.0913709
-0.0877018
-0.083848
-0.0799892
-0.0759908
-0.0717585
-0.0673896
-0.0630904
-0.0585076
-0.0539588
-0.0491441
-0.0443708
-0.0394332
-0.0343861
-0.0292321
-0.024068
-0.0188281
-0.0145923
-0.0129741
-0.0126112
-0.0124221
0
0
0
0
0
0
0
0
0
0
0
-0.135381
-0.132609
-0.12976
-0.12692
-0.123797
-0.120747
-0.117517
-0.114097
-0.110642
-0.107052
-0.103207
-0.0992525
-0.0952463
-0.0910699
-0.0866061
-0.082086
-0.0774355
-0.0726332
-0.0677513
-0.062633
-0.0573598
-0.0519401
-0.0465071
-0.040948
-0.0351638
-0.0292467
-0.023342
-0.0176726
-0.0136363
-0.0126086
-0.0123245
-0.0122229
0
-0.135157
-0.13246
-0.129673
-0.126755
-0.123733
-0.12056
-0.117352
-0.113844
-0.110387
-0.106813
-0.103078
-0.0990878
-0.0950522
-0.0908887
-0.0865002
-0.0821029
-0.0774661
-0.0726707
-0.0677185
-0.0626114
-0.0573442
-0.0519195
-0.046434
-0.0407375
-0.0349259
-0.0290845
-0.0231966
-0.0174885
-0.0135436
-0.012578
-0.012389
-0.0122018
0
-0.13486
-0.132174
-0.129352
-0.126435
-0.123384
-0.120299
-0.11692
-0.113584
-0.110125
-0.106347
-0.102605
-0.0987337
-0.0946947
-0.0903879
-0.0860262
-0.0815412
-0.076906
-0.0721118
-0.0671537
-0.062033
-0.0568326
-0.0513991
-0.0458131
-0.0401058
-0.034483
-0.0285937
-0.0227146
-0.0170301
-0.0133288
-0.0125906
-0.0123292
0
0
-0.134376
-0.131749
-0.128837
-0.125852
-0.122889
-0.119753
-0.116434
-0.113073
-0.10941
-0.105795
-0.102058
-0.0981437
-0.0939601
-0.0897249
-0.0853724
-0.0808762
-0.0762321
-0.0714358
-0.0664749
-0.0613524
-0.0560696
-0.0507144
-0.0451352
-0.0394206
-0.0335988
-0.0278482
-0.0219271
-0.0164526
-0.0131618
-0.0125809
-0.0123396
0
0
-0.133724
-0.131028
-0.128194
-0.125257
-0.122181
-0.118995
-0.115649
-0.112262
-0.108573
-0.104935
-0.10118
-0.0972483
-0.093044
-0.0887909
-0.0844175
-0.0799021
-0.0752405
-0.070428
-0.0654519
-0.0603149
-0.0550191
-0.0496536
-0.0440672
-0.038348
-0.0325082
-0.0266477
-0.0208252
-0.0155828
-0.0129594
-0.0125343
-0.012318
0
0
-0.132873
-0.130045
-0.127142
-0.124249
-0.121068
-0.117954
-0.114643
-0.111148
-0.107599
-0.103817
-0.0999459
-0.0960244
-0.0919268
-0.0875559
-0.0831367
-0.0785949
-0.0739078
-0.0690651
-0.0640639
-0.0589011
-0.0536632
-0.0481986
-0.0425918
-0.0368752
-0.0312315
-0.0253395
-0.0195018
-0.0146161
-0.0127641
-0.0124561
-0.0122665
0
0
-0.13165
-0.128908
-0.126023
-0.123049
-0.119926
-0.1167
-0.113307
-0.109871
-0.106201
-0.102445
-0.0986426
-0.0946649
-0.090417
-0.086119
-0.0817042
-0.0771427
-0.0724276
-0.0675572
-0.0625334
-0.0573531
-0.0520162
-0.0465342
-0.0410046
-0.0352836
-0.0294494
-0.0236264
-0.0179743
-0.0137151
-0.0126688
-0.0123546
-0.0121938
0
0
-0.130302
-0.127525
-0.124614
-0.121615
-0.118463
-0.115275
-0.111785
-0.108314
-0.104607
-0.100814
-0.0969768
-0.0929641
-0.0886841
-0.084355
-0.0799082
-0.0753145
-0.0705613
-0.0656365
-0.0604423
-0.0551808
-0.0498066
-0.0444207
-0.0388436
-0.0332203
-0.0273939
-0.0215379
-0.0161831
-0.0131109
-0.0125711
-0.012319
0
0
0
-0.128794
-0.125931
-0.123006
-0.119941
-0.11677
-0.113448
-0.110081
-0.106412
-0.102758
-0.0988668
-0.0948898
-0.0908659
-0.0866735
-0.0822191
-0.0777141
-0.0730865
-0.0683069
-0.0633702
-0.0582737
-0.0530249
-0.047629
-0.0421056
-0.0365526
-0.0308098
-0.0249776
-0.0193136
-0.0144896
-0.0127586
-0.0124604
-0.0122575
0
0
0
-0.126954
-0.124051
-0.121079
-0.117955
-0.114616
-0.111331
-0.107755
-0.104223
-0.100567
-0.096589
-0.0926408
-0.0885478
-0.0841906
-0.0797817
-0.0752512
-0.0705533
-0.0655775
-0.060547
-0.0553975
-0.0501171
-0.0447107
-0.0391788
-0.0335317
-0.0277812
-0.0221833
-0.0167519
-0.0132804
-0.0126044
-0.0123314
0
0
0
0
-0.124777
-0.121749
-0.11874
-0.11559
-0.112334
-0.108931
-0.10548
-0.10173
-0.0979952
-0.0940277
-0.089952
-0.0858123
-0.0814116
-0.0769548
-0.0723754
-0.0676285
-0.0626113
-0.0575372
-0.0523492
-0.0470389
-0.0416144
-0.0360776
-0.0304223
-0.024677
-0.0191207
-0.014465
-0.0127763
-0.0124865
-0.0122824
0
0
0
0
-0.122289
-0.119315
-0.116131
-0.112948
-0.109627
-0.106268
-0.102614
-0.0989699
-0.0950322
-0.0911002
-0.0869386
-0.0826642
-0.0783241
-0.0737348
-0.0690995
-0.0643331
-0.0593956
-0.0541937
-0.0489448
-0.0435939
-0.0381362
-0.0325695
-0.026893
-0.0212062
-0.0160512
-0.0131363
-0.0125289
-0.0123704
0
0
0
0
0
-0.119713
-0.116615
-0.113427
-0.110055
-0.106755
-0.103173
-0.0996187
-0.0957685
-0.0919328
-0.0878663
-0.0836678
-0.0793086
-0.0749147
-0.0703948
-0.0656386
-0.0607104
-0.0557254
-0.050617
-0.0453818
-0.0400262
-0.0345613
-0.028985
-0.0234266
-0.0179545
-0.0138158
-0.012665
-0.012444
-0.0122666
0
0
0
0
0
-0.117123
-0.113961
-0.110858
-0.107454
-0.103918
-0.100436
-0.0966719
-0.0929258
-0.0888851
-0.0848556
-0.0805966
-0.0762003
-0.0716458
-0.0670627
-0.06236
-0.0574878
-0.0523642
-0.0472022
-0.0419537
-0.0366114
-0.0311543
-0.0255924
-0.0200532
-0.0151304
-0.0129149
-0.0124681
-0.0123443
0
0
0
0
0
0
-0.11538
-0.112283
-0.108962
-0.105512
-0.102125
-0.0984553
-0.0948031
-0.090847
-0.0867998
-0.0826571
-0.078356
-0.0740315
-0.0695707
-0.0647851
-0.0600376
-0.0551547
-0.0500169
-0.0448515
-0.0396078
-0.0342675
-0.0288114
-0.0232751
-0.0178876
-0.0138036
-0.0126803
-0.0123764
-0.0122933
0
0
0
0
0
0
-0.149807
-0.147491
-0.145019
-0.142535
-0.139787
-0.137112
-0.134351
-0.131435
-0.128254
-0.125046
-0.121742
-0.118318
-0.114745
-0.111007
-0.107101
-0.103026
-0.0988539
-0.0944369
-0.0898352
-0.0850709
-0.0803384
-0.075263
-0.0700687
-0.0647196
-0.0591852
-0.0533636
-0.0475695
-0.0415524
-0.0354318
-0.0292896
-0.0233503
-0.0180952
-0.0148934
-0.149641
-0.147354
-0.144813
-0.14234
-0.139773
-0.136987
-0.134129
-0.13123
-0.128183
-0.124879
-0.12154
-0.118088
-0.114495
-0.110744
-0.10683
-0.10282
-0.0985698
-0.0941393
-0.0895495
-0.0849926
-0.0800905
-0.0750545
-0.0697568
-0.0644138
-0.0588886
-0.0532681
-0.0473226
-0.041382
-0.0351886
-0.0291155
-0.0231999
-0.0180148
-0.014713
-0.1494
-0.147009
-0.144612
-0.141957
-0.139378
-0.136711
-0.133907
-0.130868
-0.12781
-0.124643
-0.121344
-0.117891
-0.114287
-0.110524
-0.106605
-0.102521
-0.0982638
-0.0939122
-0.0893108
-0.0845345
-0.0796614
-0.0746449
-0.06937
-0.0639795
-0.0584358
-0.05271
-0.0467865
-0.0407518
-0.0346053
-0.0285497
-0.0225477
-0.0174164
-0.0142699
-0.149077
-0.146685
-0.144281
-0.141614
-0.139016
-0.136316
-0.133382
-0.130371
-0.127327
-0.124153
-0.120808
-0.117181
-0.113498
-0.109694
-0.105817
-0.101713
-0.0974574
-0.0931572
-0.088665
-0.0838975
-0.0789374
-0.0738816
-0.0686837
-0.0632996
-0.0576329
-0.0519871
-0.0460149
-0.0400607
-0.0339369
-0.0277853
-0.0218788
-0.0167992
-0.0138896
-0.148479
-0.146078
-0.143661
-0.140984
-0.138368
-0.135653
-0.1327
-0.129737
-0.12661
-0.123418
-0.120055
-0.116405
-0.112701
-0.108878
-0.104979
-0.100855
-0.0965785
-0.0922597
-0.0877493
-0.0829637
-0.0779865
-0.0729135
-0.067698
-0.0622977
-0.0566126
-0.0509424
-0.0449498
-0.0389857
-0.0328606
-0.0267064
-0.020829
-0.0158911
-0.0134339
-0.147742
-0.145345
-0.14282
-0.140279
-0.137479
-0.134741
-0.131878
-0.128763
-0.125637
-0.122412
-0.119055
-0.115543
-0.111884
-0.108072
-0.104095
-0.0999513
-0.0956334
-0.0912226
-0.0865658
-0.0817306
-0.076801
-0.0717277
-0.0663995
-0.0609581
-0.0553592
-0.0495876
-0.0436243
-0.0375519
-0.0313966
-0.0253275
-0.0194182
-0.0148027
-0.0130277
-0.146697
-0.144253
-0.141805
-0.139098
-0.136451
-0.133699
-0.130702
-0.12769
-0.124515
-0.121277
-0.117866
-0.114167
-0.110416
-0.106546
-0.1026
-0.0984237
-0.0940763
-0.0895689
-0.085024
-0.0802879
-0.0752639
-0.0701231
-0.064722
-0.0592766
-0.053666
-0.047965
-0.041945
-0.0358549
-0.0296978
-0.0235531
-0.0179107
-0.0137793
-0.0128165
-0.145655
-0.143097
-0.140639
-0.138087
-0.13525
-0.132456
-0.12954
-0.126393
-0.123219
-0.119865
-0.116413
-0.112678
-0.10889
-0.10498
-0.100992
-0.0967716
-0.0923892
-0.0878473
-0.083262
-0.0784928
-0.073441
-0.0681993
-0.0628546
-0.057376
-0.0517281
-0.0458133
-0.039936
-0.033871
-0.0277156
-0.0216226
-0.0161121
-0.0131072
-0.012563
-0.14433
-0.141844
-0.139276
-0.136574
-0.133844
-0.130907
-0.127892
-0.124809
-0.121476
-0.118108
-0.114635
-0.111023
-0.107262
-0.103339
-0.0992512
-0.0949971
-0.0905717
-0.0859801
-0.0812974
-0.0763626
-0.0712479
-0.0660265
-0.060552
-0.0551223
-0.0493667
-0.0436093
-0.0375562
-0.0314533
-0.025295
-0.0193015
-0.0143745
-0.0126962
-0.0124094
-0.142577
-0.140137
-0.137448
-0.134819
-0.132087
-0.129057
-0.12605
-0.122808
-0.119536
-0.116161
-0.112646
-0.108954
-0.104977
-0.100946
-0.0967932
-0.0924943
-0.0880241
-0.0833799
-0.0785667
-0.0736738
-0.0686603
-0.0633852
-0.0579845
-0.052328
-0.0467043
-0.0407624
-0.034747
-0.0286459
-0.0225323
-0.0167813
-0.013219
-0.0125217
-0.0123313
-0.14076
-0.138201
-0.135633
-0.132794
-0.129989
-0.12697
-0.123874
-0.120707
-0.117289
-0.113828
-0.110253
-0.106527
-0.102616
-0.0984345
-0.0942021
-0.0898354
-0.0853025
-0.0806025
-0.0757346
-0.0707925
-0.0657274
-0.0604096
-0.0549754
-0.0492855
-0.043545
-0.0376744
-0.0315811
-0.0255677
-0.0195853
-0.0144807
-0.0127107
-0.0123959
-0.0122541
-0.138551
-0.136039
-0.133265
-0.130536
-0.127598
-0.124584
-0.121508
-0.118186
-0.11482
-0.111242
-0.10748
-0.103676
-0.0997457
-0.0956529
-0.0914021
-0.0869841
-0.082399
-0.0776465
-0.0728105
-0.0677283
-0.062483
-0.0570655
-0.0515504
-0.0457946
-0.0400998
-0.0341262
-0.0281082
-0.0220718
-0.0164435
-0.0130422
-0.0124639
-0.0122798
0
-0.136231
-0.133677
-0.130853
-0.128073
-0.125087
-0.121997
-0.118751
-0.11547
-0.111986
-0.10832
-0.104611
-0.10077
-0.0967629
-0.0924831
-0.0881408
-0.0836577
-0.0790153
-0.0742079
-0.0692314
-0.0640903
-0.0588569
-0.0533824
-0.0478646
-0.0422081
-0.0363194
-0.0303943
-0.0244012
-0.0185787
-0.0138921
-0.0126177
-0.0122983
0
0
-0.134038
-0.131432
-0.128549
-0.125589
-0.122562
-0.119391
-0.116196
-0.112808
-0.109244
-0.105627
-0.101859
-0.0977577
-0.0936719
-0.0894594
-0.0850917
-0.0805423
-0.0757092
-0.0708954
-0.065881
-0.0608215
-0.055518
-0.050032
-0.0444755
-0.0386933
-0.0327974
-0.026968
-0.0209963
-0.0156049
-0.0128524
-0.0124188
-0.0122061
0
0
-0.13251
-0.129713
-0.126963
-0.123923
-0.120807
-0.117609
-0.114262
-0.110896
-0.107391
-0.103564
-0.0997653
-0.0958199
-0.0916063
-0.0873449
-0.0829589
-0.0784201
-0.0737121
-0.0688413
-0.063806
-0.0586135
-0.05326
-0.0477445
-0.0421539
-0.0363487
-0.030434
-0.024616
-0.0187612
-0.0140591
-0.0125825
-0.0123275
0
0
0
-0.159985
-0.157757
-0.155486
-0.153216
-0.15086
-0.148391
-0.145772
-0.142972
-0.140101
-0.137165
-0.134235
-0.13106
-0.127774
-0.12425
-0.120556
-0.11678
-0.112884
-0.108781
-0.104401
-0.100034
-0.0953097
-0.0905566
-0.0855159
-0.0802893
-0.0748348
-0.0692933
-0.0635791
-0.0576792
-0.0515759
-0.0457028
-0.0404078
-0.0368613
-0.159822
-0.157699
-0.155383
-0.153081
-0.150708
-0.148241
-0.145663
-0.142966
-0.140147
-0.137203
-0.134122
-0.130962
-0.12758
-0.124039
-0.120413
-0.116676
-0.11268
-0.108562
-0.104299
-0.0998229
-0.0951279
-0.0903039
-0.0853666
-0.0801393
-0.0747838
-0.0690611
-0.0633275
-0.0574256
-0.0513085
-0.0454262
-0.0401186
-0.036576
-0.159506
-0.157383
-0.155191
-0.152887
-0.150367
-0.147848
-0.145247
-0.142538
-0.139712
-0.136821
-0.133726
-0.13048
-0.127099
-0.12376
-0.1201
-0.116237
-0.112266
-0.108176
-0.103903
-0.0994455
-0.0947711
-0.0898759
-0.0848415
-0.0796848
-0.0742378
-0.0686833
-0.062941
-0.0569352
-0.050836
-0.0449516
-0.0396218
-0.0360558
-0.159186
-0.157078
-0.154855
-0.152417
-0.149988
-0.147497
-0.144912
-0.14221
-0.139376
-0.136406
-0.133291
-0.130103
-0.126695
-0.12315
-0.119639
-0.115792
-0.11181