/*--------------------------------*- C++ -*----------------------------------*\
| =========                 |                                                 |
| \\      /  F ield         | OpenFOAM: The Open Source CFD Toolbox           |
|  \\    /   O peration     | Version:  2412                                  |
|   \\  /    A nd           | Website:  www.openfoam.com                      |
|    \\/     M anipulation  |                                                 |
\*---------------------------------------------------------------------------*/
FoamFile
{
    version     2.0;
    format      ascii;
    arch        "LSB;label=32;scalar=64";
    class       volScalarField;
    location    "0.0400007";
    object      Vm;
}
// * * * * * * * * * * * * * * * * * * * * * * * * * * * * * * * * * * * * * //

dimensions      [0 0 0 0 0 0 0];

internalField   nonuniform List<scalar> 
8790
(
0.00185369
0.00140115
0.00105103
0.000777361
0.000570188
0.000416842
0.000304375
0.000221509
0.000159939
0.000114361
8.11498e-05
5.72615e-05
4.01854e-05
2.80006e-05
1.93371e-05
1.32339e-05
8.98096e-06
6.04339e-06
4.02876e-06
2.65789e-06
1.73445e-06
1.11937e-06
7.14178e-07
4.50145e-07
2.8009e-07
1.71954e-07
1.04122e-07
6.21746e-08
3.66413e-08
2.14007e-08
1.25765e-08
7.79523e-09
5.70857e-09
0.00182513
0.00137968
0.00103449
0.000764746
0.000560668
0.000409718
0.00029907
0.000217569
0.000157036
0.000112262
7.9657e-05
5.62109e-05
3.94484e-05
2.74842e-05
1.89771e-05
1.29852e-05
8.81074e-06
5.92787e-06
3.951e-06
2.60605e-06
1.70026e-06
1.09706e-06
6.99759e-07
4.4092e-07
2.74254e-07
1.6831e-07
1.01877e-07
6.08115e-08
3.58246e-08
2.09158e-08
1.22865e-08
7.61227e-09
5.57267e-09
0.00176502
0.00133484
0.000999005
0.000737545
0.000540422
0.000394878
0.000288233
0.000209636
0.000151217
0.000108053
7.66607e-05
5.40971e-05
3.79618e-05
2.64402e-05
1.82493e-05
1.24835e-05
8.46825e-06
5.69584e-06
3.79496e-06
2.5021e-06
1.63178e-06
1.05245e-06
6.71006e-07
4.22587e-07
2.62705e-07
1.61129e-07
9.74705e-08
5.81432e-08
3.42286e-08
1.99688e-08
1.17205e-08
7.25501e-09
5.3073e-09
0.00166948
0.00126225
0.000943526
0.000696015
0.000509971
0.000372811
0.000272197
0.000197853
0.000142578
0.00010182
7.22328e-05
5.09779e-05
3.57692e-05
2.49017e-05
1.71784e-05
1.17465e-05
7.9659e-06
5.35585e-06
3.56646e-06
2.34996e-06
1.53161e-06
9.8722e-07
6.28989e-07
3.95829e-07
2.45877e-07
1.50684e-07
9.10741e-08
5.42774e-08
3.19207e-08
1.86019e-08
1.09048e-08
6.74104e-09
4.92594e-09
0.00154408
0.00116633
0.000869431
0.000640755
0.000469773
0.00034388
0.00025128
0.000182589
0.000131441
9.3827e-05
6.6572e-05
4.69931e-05
3.29672e-05
2.29371e-05
1.58134e-05
1.08084e-05
7.32682e-06
4.92343e-06
3.27599e-06
2.15675e-06
1.40453e-06
9.04554e-07
5.75793e-07
3.61987e-07
2.24616e-07
1.37502e-07
8.30085e-08
4.94077e-08
2.90171e-08
1.68847e-08
9.88184e-09
6.09772e-09
4.44938e-09
0.00139617
0.00105167
0.00078119
0.000575505
0.000422595
0.000310002
0.00022677
0.000164673
0.000118437
8.45316e-05
5.99955e-05
4.23562e-05
2.96995e-05
2.06445e-05
1.42211e-05
9.71422e-06
6.58117e-06
4.41877e-06
2.93721e-06
1.93169e-06
1.2567e-06
8.0851e-07
5.14057e-07
3.22758e-07
1.99999e-07
1.22256e-07
7.36917e-08
4.37901e-08
2.56728e-08
1.49106e-08
8.7084e-09
5.36157e-09
3.90515e-09
0.00123565
0.000926342
0.000686506
0.000505925
0.000372194
0.000273476
0.000200023
0.000145035
0.000104211
7.43765e-05
5.28054e-05
3.72758e-05
2.61133e-05
1.81294e-05
1.24765e-05
8.51637e-06
5.76502e-06
3.86653e-06
2.56678e-06
1.68587e-06
1.09536e-06
7.0374e-07
4.46755e-07
2.80038e-07
1.7323e-07
1.05705e-07
6.35958e-08
3.77156e-08
2.20649e-08
1.27861e-08
7.44889e-09
4.57362e-09
3.32388e-09
0.00106818
0.000797018
0.000589851
0.000435124
0.000320712
0.000235816
0.000172243
0.000124634
8.94733e-05
6.38632e-05
4.53482e-05
3.19929e-05
2.23821e-05
1.5518e-05
1.0669e-05
7.27636e-06
4.92015e-06
3.29496e-06
2.18374e-06
1.43197e-06
9.28872e-07
5.95708e-07
3.77432e-07
2.36098e-07
1.45741e-07
8.87357e-08
5.32625e-08
3.15097e-08
1.83863e-08
1.06247e-08
6.17074e-09
3.77621e-09
2.73696e-09
0.000900696
0.000669979
0.000495771
0.000366321
0.000270358
0.000198623
0.000144689
0.000104472
7.49433e-05
5.34871e-05
3.79625e-05
2.67453e-05
1.86772e-05
1.29306e-05
8.88048e-06
6.04969e-06
4.08434e-06
2.73004e-06
1.80582e-06
1.18191e-06
7.65143e-07
4.89621e-07
3.0947e-07
1.93097e-07
1.18887e-07
7.21868e-08
4.32037e-08
2.54812e-08
1.48211e-08
8.53541e-09
4.93878e-09
3.01011e-09
2.17457e-09
0.000738144
0.000548508
0.000406606
0.00030115
0.000222339
0.000162949
0.000118333
8.53125e-05
6.11809e-05
4.36548e-05
3.09481e-05
2.17589e-05
1.51647e-05
1.04831e-05
7.18996e-06
4.88977e-06
3.29397e-06
2.19641e-06
1.44939e-06
9.46365e-07
6.11093e-07
3.89951e-07
2.45748e-07
1.52877e-07
9.38308e-08
5.6787e-08
3.38701e-08
1.99045e-08
1.15337e-08
6.61543e-09
3.81089e-09
2.31155e-09
1.66341e-09
0.000589966
0.000438849
0.000326134
0.000241821
0.000178193
0.000130125
9.4286e-05
6.79338e-05
4.87124e-05
3.47282e-05
2.45693e-05
1.7232e-05
1.19864e-05
8.27302e-06
5.66412e-06
3.84307e-06
2.58175e-06
1.71672e-06
1.12976e-06
7.35549e-07
4.73463e-07
3.01098e-07
1.89083e-07
1.17198e-07
7.16591e-08
4.31951e-08
2.56558e-08
1.50118e-08
8.65925e-09
4.94282e-09
2.83241e-09
1.7083e-09
1.22362e-09
0.000462892
0.000345187
0.00025697
0.00019028
0.00013968
0.000101698
7.3605e-05
5.30196e-05
3.79883e-05
2.70254e-05
1.90649e-05
1.33383e-05
9.26023e-06
6.37925e-06
4.35697e-06
2.9474e-06
1.97389e-06
1.30853e-06
8.58434e-07
5.56974e-07
3.57155e-07
2.26219e-07
1.41468e-07
8.73019e-08
5.3133e-08
3.18725e-08
1.88354e-08
1.09637e-08
6.29005e-09
3.56999e-09
2.03311e-09
1.21809e-09
8.67775e-10
0.000362348
0.00027071
0.000201299
0.00014848
0.000108611
7.89636e-05
5.71358e-05
4.11308e-05
2.941e-05
2.08572e-05
1.46696e-05
1.0239e-05
7.09284e-06
4.8732e-06
3.31743e-06
2.23623e-06
1.49242e-06
9.85917e-07
6.44371e-07
4.16356e-07
2.65803e-07
1.67581e-07
1.04294e-07
6.40354e-08
3.87642e-08
2.31235e-08
1.35863e-08
7.86116e-09
4.48213e-09
2.5273e-09
1.42916e-09
8.49754e-10
6.01611e-10
0.000292188
0.000218129
0.000161623
0.000118753
8.67062e-05
6.30106e-05
4.55718e-05
3.27508e-05
2.33491e-05
1.65079e-05
1.15816e-05
8.06562e-06
5.57302e-06
3.81682e-06
2.58909e-06
1.73915e-06
1.15666e-06
7.61319e-07
4.95575e-07
3.18818e-07
2.02609e-07
1.27136e-07
7.87291e-08
4.80834e-08
2.89463e-08
1.71676e-08
1.00267e-08
5.7656e-09
3.2661e-09
1.82908e-09
1.02668e-09
6.05559e-10
4.25889e-10
0.000255667
0.000190508
0.000140744
0.000103221
7.53198e-05
5.47227e-05
3.95453e-05
2.83692e-05
2.01808e-05
1.42413e-05
9.97635e-06
6.93679e-06
4.78345e-06
3.26821e-06
2.21149e-06
1.48197e-06
9.83244e-07
6.45473e-07
4.18952e-07
2.68702e-07
1.70219e-07
1.06455e-07
6.56874e-08
3.99654e-08
2.39626e-08
1.41522e-08
8.22934e-09
4.71043e-09
2.6556e-09
1.47964e-09
8.25944e-10
4.84223e-10
3.38842e-10
0.0114561
0.00864256
0.00667889
0.00504442
0.00370571
0.00268659
0.00194666
0.00142191
0.00104022
0.000750586
0.000533427
0.000375977
0.000264276
0.0001853
0.000128872
8.85932e-05
6.02986e-05
4.07228e-05
2.72908e-05
1.81073e-05
1.18741e-05
7.69649e-06
4.93296e-06
3.12468e-06
1.95367e-06
1.20471e-06
7.32447e-07
4.39043e-07
2.59631e-07
1.52076e-07
8.95697e-08
5.56045e-08
4.07535e-08
0.0112798
0.00852598
0.00658878
0.0049718
0.00364785
0.00264183
0.00191335
0.0013974
0.00102183
0.000736904
0.000523558
0.00036906
0.000259495
0.00018197
0.000126534
8.69621e-05
5.91767e-05
3.99614e-05
2.67772e-05
1.7763e-05
1.16459e-05
7.54716e-06
4.83618e-06
3.0624e-06
1.91394e-06
1.17967e-06
7.1689e-07
4.29522e-07
2.53889e-07
1.4865e-07
8.75138e-08
5.43039e-08
3.97861e-08
0.0108876
0.00827578
0.00641127
0.00479972
0.00351309
0.00254197
0.00184293
0.00134801
0.000985624
0.000709498
0.000503724
0.00035511
0.000249788
0.00017515
0.000121718
8.36069e-05
5.68794e-05
3.8407e-05
2.57313e-05
1.70624e-05
1.11817e-05
7.24367e-06
4.6399e-06
2.93662e-06
1.83421e-06
1.12981e-06
6.86147e-07
4.10819e-07
2.42651e-07
1.41954e-07
8.34974e-08
5.17618e-08
3.78944e-08
0.010279
0.00785205
0.00607546
0.00453448
0.00331175
0.00239609
0.00174016
0.00127412
0.000930573
0.000668511
0.00047425
0.000334476
0.000235471
0.000165105
0.000114624
7.86753e-05
5.35115e-05
3.61308e-05
2.41977e-05
1.60341e-05
1.05003e-05
6.79806e-06
4.35179e-06
2.75219e-06
1.71755e-06
1.05703e-06
6.41379e-07
3.83651e-07
2.26368e-07
1.32275e-07
7.77041e-08
4.81023e-08
3.51748e-08
0.00949262
0.00730235
0.00561933
0.00417149
0.00303988
0.00220256
0.00160628
0.00117954
0.000859231
0.000615749
0.000436578
0.000308191
0.000217199
0.000152252
0.000105573
7.24046e-05
4.92344e-05
3.32376e-05
2.22457e-05
1.47255e-05
9.63387e-06
6.23207e-06
3.98615e-06
2.51841e-06
1.56988e-06
9.65041e-07
5.84874e-07
3.49402e-07
2.05867e-07
1.20109e-07
7.04351e-08
4.35202e-08
3.17754e-08
0.0086078
0.00667759
0.00506363
0.00373469
0.00271902
0.00197834
0.00145145
0.00106776
0.000775294
0.00055443
0.000393096
0.000277858
0.000195981
0.000137245
9.50123e-05
6.50976e-05
4.42498e-05
2.986e-05
1.99644e-05
1.31978e-05
8.62443e-06
5.57371e-06
3.56133e-06
2.24711e-06
1.39877e-06
8.58608e-07
5.19578e-07
3.09878e-07
1.82248e-07
1.0612e-07
6.20965e-08
3.82774e-08
2.78941e-08
0.00769248
0.00595658
0.00445655
0.00327136
0.00238277
0.00174305
0.00128486
0.000944466
0.000682831
0.000487452
0.00034582
0.000244837
0.000172733
0.000120718
8.34054e-05
5.70922e-05
3.8797e-05
2.61638e-05
1.74679e-05
1.15287e-05
7.52336e-06
4.85606e-06
3.09828e-06
1.95155e-06
1.21258e-06
7.42963e-07
4.48746e-07
2.67086e-07
1.56736e-07
9.10488e-08
5.31387e-08
3.26621e-08
2.37467e-08
0.00677079
0.00515861
0.00382425
0.00279791
0.00204431
0.00150557
0.00111301
0.000814234
0.000586205
0.000418037
0.000297
0.000210596
0.000148433
0.000103475
7.13662e-05
4.88199e-05
3.31628e-05
2.23373e-05
1.48836e-05
9.80402e-06
6.38745e-06
4.11618e-06
2.6211e-06
1.64738e-06
1.02133e-06
6.24399e-07
3.7625e-07
2.23367e-07
1.30722e-07
7.5715e-08
4.40463e-08
2.69776e-08
1.95574e-08
0.00580013
0.00434868
0.00320136
0.0023413
0.00172116
0.00127471
0.000941229
0.000683696
0.000490498
0.000349769
0.000248932
0.000176581
0.000124153
8.63044e-05
5.94381e-05
4.06412e-05
2.75859e-05
1.85459e-05
1.23285e-05
8.10442e-06
5.27077e-06
3.38979e-06
2.15325e-06
1.34971e-06
8.3452e-07
5.08773e-07
3.05659e-07
1.80878e-07
1.05499e-07
6.08854e-08
3.52789e-08
2.15147e-08
1.55424e-08
0.00478507
0.00355038
0.00260721
0.00191725
0.00142138
0.00105518
0.000773168
0.000558283
0.000399869
0.000285572
0.00020355
0.000144182
0.00010101
7.00402e-05
4.81854e-05
3.29229e-05
2.2307e-05
1.49537e-05
9.91227e-06
6.50043e-06
4.21779e-06
2.70516e-06
1.71303e-06
1.07039e-06
6.59752e-07
4.00912e-07
2.4001e-07
1.41497e-07
8.22038e-08
4.72409e-08
2.72448e-08
1.65304e-08
1.1892e-08
0.00382324
0.0028204
0.00207755
0.00154184
0.00114918
0.000848506
0.000616738
0.000443901
0.000318211
0.000227777
0.000162323
0.000114548
7.99629e-05
5.53457e-05
3.80447e-05
2.59564e-05
1.75355e-05
1.17154e-05
7.74288e-06
5.06435e-06
3.27628e-06
2.09392e-06
1.32099e-06
8.22324e-07
5.04913e-07
3.05565e-07
1.82134e-07
1.0689e-07
6.18046e-08
3.53386e-08
2.02674e-08
1.22228e-08
8.74982e-09
0.00297852
0.00219927
0.00163466
0.00122225
0.000908437
0.000664464
0.000480668
0.000345937
0.000248576
0.000178043
0.000126443
8.8823e-05
6.18372e-05
4.27509e-05
2.93511e-05
1.99712e-05
1.34427e-05
8.95056e-06
5.89816e-06
3.84589e-06
2.47869e-06
1.57745e-06
9.90835e-07
6.14073e-07
3.75274e-07
2.25965e-07
1.33975e-07
7.81977e-08
4.49587e-08
2.55524e-08
1.45594e-08
8.7188e-09
6.20561e-09
0.00230639
0.00171741
0.00128738
0.000961887
0.000707918
0.000514762
0.000372122
0.000268473
0.000193182
0.000137976
9.7485e-05
6.82327e-05
4.74184e-05
3.2737e-05
2.24154e-05
1.51899e-05
1.01832e-05
6.75696e-06
4.4378e-06
2.88228e-06
1.84912e-06
1.17112e-06
7.32023e-07
4.51367e-07
2.74333e-07
1.64229e-07
9.67885e-08
5.61437e-08
3.20711e-08
1.81036e-08
1.0239e-08
6.0827e-09
4.30099e-09
0.00184894
0.00138861
0.00104197
0.000771568
0.000563823
0.000409278
0.000296435
0.000214271
0.0001539
0.000109371
7.69557e-05
5.37442e-05
3.72967e-05
2.5689e-05
1.7522e-05
1.18246e-05
7.89874e-06
5.22403e-06
3.41839e-06
2.21046e-06
1.41142e-06
8.89646e-07
5.53352e-07
3.39394e-07
2.05108e-07
1.22061e-07
7.14967e-08
4.12091e-08
2.33832e-08
1.31061e-08
7.35558e-09
4.33324e-09
3.04275e-09
0.00161719
0.00121815
0.000910333
0.000669708
0.000488088
0.000354459
0.000257152
0.000185861
0.0001331
9.42756e-05
6.62061e-05
4.61945e-05
3.20216e-05
2.20067e-05
1.49666e-05
1.00733e-05
6.7138e-06
4.43027e-06
2.89104e-06
1.86365e-06
1.1862e-06
7.45276e-07
4.61953e-07
2.82256e-07
1.6988e-07
1.00664e-07
5.87001e-08
3.36749e-08
1.90138e-08
1.06012e-08
5.91566e-09
3.46314e-09
2.41902e-09
0.0903533
0.0621915
0.0472155
0.0367703
0.0278093
0.0202024
0.0142365
0.0101151
0.00745758
0.00555969
0.0039959
0.00280626
0.00195462
0.00137066
0.000964724
0.000669214
0.000456628
0.000308366
0.000207275
0.000138476
9.13637e-05
5.94489e-05
3.82286e-05
2.43242e-05
1.52869e-05
9.46939e-06
5.7794e-06
3.47698e-06
2.06338e-06
1.21224e-06
7.15641e-07
4.45001e-07
3.2645e-07
0.0887143
0.0613403
0.0467231
0.0363633
0.0274341
0.0198715
0.013978
0.00993774
0.00733242
0.0054618
0.00392142
0.00275272
0.00191836
0.0013465
0.000947922
0.000657291
0.000448309
0.000302728
0.000203497
0.000135932
8.96615e-05
5.83303e-05
3.75042e-05
2.38574e-05
1.49869e-05
9.2782e-06
5.65931e-06
3.40279e-06
2.01826e-06
1.18514e-06
6.99302e-07
4.34637e-07
3.1873e-07
0.0842626
0.0590937
0.0453841
0.0352325
0.026442
0.0190592
0.0133994
0.00957759
0.00711142
0.00527161
0.00377352
0.00264611
0.00184523
0.00129669
0.000912777
0.000632054
0.000430777
0.000290914
0.000195652
0.000130668
8.61362e-05
5.60103e-05
3.60024e-05
2.28929e-05
1.43711e-05
8.89023e-06
5.41879e-06
3.25583e-06
1.92955e-06
1.13204e-06
6.67327e-07
4.14336e-07
3.0359e-07
0.0781767
0.0558956
0.0433429
0.0335173
0.0249839
0.0179017
0.0125724
0.00904451
0.0067627
0.00497734
0.00354963
0.00248648
0.00173757
0.00122423
0.000860859
0.000594957
0.000405146
0.000273694
0.000184163
0.000122916
8.09418e-05
5.25928e-05
3.37898e-05
2.14721e-05
1.3466e-05
8.32172e-06
5.06746e-06
3.0418e-06
1.80073e-06
1.05516e-06
6.21163e-07
3.85099e-07
2.81825e-07
0.0701735
0.0517719
0.0404572
0.0310563
0.0229265
0.0163131
0.0115057
0.00838564
0.00630419
0.00459358
0.00326211
0.00228376
0.0016013
0.00113163
0.000794298
0.00054768
0.00037261
0.000251831
0.000169504
0.000113001
7.43026e-05
4.82302e-05
3.09676e-05
1.96618e-05
1.23156e-05
7.60101e-06
4.62306e-06
2.77154e-06
1.63834e-06
9.5843e-07
5.63193e-07
3.48469e-07
2.54609e-07
0.061853
0.0471776
0.0368564
0.0279665
0.020413
0.0144603
0.0103107
0.00763003
0.0057223
0.00414213
0.00292991
0.00205238
0.00144543
0.00102359
0.000716217
0.000492451
0.000334723
0.000226347
0.000152325
0.000101371
6.65345e-05
4.31407e-05
2.76804e-05
1.75552e-05
1.09794e-05
6.7659e-06
4.10913e-06
2.45948e-06
1.45117e-06
8.47185e-07
4.96698e-07
3.06569e-07
2.23544e-07
0.0543435
0.0424582
0.0329103
0.0246057
0.0177233
0.0125434
0.00909408
0.0068458
0.00507314
0.00364326
0.00256837
0.00180414
0.00127763
0.00090443
0.000629631
0.00043167
0.000293358
0.00019858
0.000133523
8.86468e-05
5.80664e-05
3.76066e-05
2.41049e-05
1.52622e-05
9.5257e-06
5.85854e-06
3.5514e-06
2.1213e-06
1.24876e-06
7.27221e-07
4.25211e-07
2.61667e-07
1.90338e-07
0.0477306
0.0374491
0.0285841
0.0209984
0.014964
0.0106926
0.00791131
0.00598484
0.00437319
0.00311755
0.00219529
0.00155044
0.00110267
0.000777952
0.00053915
0.000368898
0.000250862
0.000169923
0.000114015
7.54714e-05
4.93312e-05
3.19084e-05
2.04206e-05
1.28993e-05
8.03102e-06
4.92821e-06
2.98073e-06
1.77586e-06
1.04242e-06
6.05187e-07
3.52653e-07
2.16205e-07
1.56787e-07
0.0414992
0.0321764
0.0240571
0.0173587
0.0123493
0.00901036
0.00681634
0.00507446
0.0036619
0.00259495
0.00183176
0.0013029
0.000928042
0.000650402
0.000448792
0.000306842
0.000208944
0.000141467
9.46325e-05
6.24571e-05
4.07527e-05
2.63254e-05
1.68108e-05
1.05876e-05
6.57217e-06
4.02172e-06
2.42521e-06
1.44005e-06
8.42262e-07
4.87127e-07
2.82672e-07
1.72507e-07
1.2463e-07
0.0350553
0.0266302
0.0194964
0.0139255
0.0100637
0.00753247
0.00570071
0.00416423
0.00297522
0.00210519
0.00149648
0.00107116
0.000758937
0.00052849
0.000363602
0.00024873
0.000169492
0.000114419
7.62146e-05
5.01438e-05
3.26561e-05
2.10498e-05
1.33983e-05
8.40845e-06
5.20279e-06
3.17392e-06
1.9073e-06
1.12812e-06
6.571e-07
3.78365e-07
2.18482e-07
1.32612e-07
9.53832e-08
0.0285763
0.0211647
0.0152241
0.0109599
0.00815398
0.00621866
0.00459149
0.00330781
0.00235102
0.00167263
0.0011995
0.000857517
0.000602546
0.00041745
0.000286999
0.000196599
0.000133768
8.98897e-05
5.9626e-05
3.91267e-05
2.54271e-05
1.63366e-05
1.0355e-05
6.47205e-06
3.98941e-06
2.42391e-06
1.45005e-06
8.53574e-07
4.94728e-07
2.83373e-07
1.62676e-07
9.81093e-08
7.01968e-08
0.0223844
0.0161991
0.0116551
0.00863851
0.00659203
0.00493212
0.00358168
0.00255947
0.00182462
0.00131083
0.000942826
0.000667964
0.000465998
0.000322106
0.000221728
0.000151895
0.00010292
6.882e-05
4.54941e-05
2.97849e-05
1.9297e-05
1.23425e-05
7.7855e-06
4.84389e-06
2.97204e-06
1.79648e-06
1.0687e-06
6.25471e-07
3.60382e-07
2.05129e-07
1.16952e-07
7.00108e-08
4.97885e-08
0.0170354
0.0122726
0.00906884
0.00690954
0.00523077
0.00382854
0.0027528
0.00196918
0.0014177
0.00102446
0.000731261
0.00051345
0.000356758
0.000246699
0.000169938
0.000115971
7.81244e-05
5.20092e-05
3.42852e-05
2.23804e-05
1.44337e-05
9.18242e-06
5.76224e-06
3.5672e-06
2.17681e-06
1.30788e-06
7.73155e-07
4.49609e-07
2.57333e-07
1.45436e-07
8.22788e-08
4.88436e-08
3.44965e-08
0.0132615
0.00975688
0.00741338
0.00566745
0.00418241
0.00302515
0.00217176
0.00156666
0.00113661
0.000817463
0.000577824
0.000403534
0.000280181
0.000193911
0.000133232
9.04071e-05
6.06029e-05
4.02188e-05
2.64439e-05
1.71937e-05
1.10319e-05
6.98242e-06
4.36058e-06
2.6857e-06
1.62946e-06
9.72993e-07
5.71569e-07
3.30229e-07
1.87714e-07
1.05315e-07
5.91058e-08
3.47826e-08
2.4388e-08
0.0113996
0.00855846
0.00658228
0.0049454
0.00360996
0.0026
0.00187306
0.00136037
0.000987565
0.000705289
0.000496024
0.000345856
0.000240324
0.0001663
0.000113881
7.69769e-05
5.14629e-05
3.40976e-05
2.23735e-05
1.45014e-05
9.27248e-06
5.85011e-06
3.6418e-06
2.23474e-06
1.35018e-06
8.02676e-07
4.69377e-07
2.69892e-07
1.52638e-07
8.51721e-08
4.75181e-08
2.7782e-08
1.93733e-08
0.892542
0.504861
0.319137
0.263914
0.218504
0.170419
0.121314
0.0789566
0.05397
0.040457
0.0301812
0.0215462
0.0147288
0.0100097
0.0070853
0.00505925
0.00348973
0.0023482
0.00156818
0.00105444
0.000703778
0.000460747
0.000296695
0.000189256
0.000119671
7.45699e-05
4.56947e-05
2.75833e-05
1.64315e-05
9.68784e-06
5.73422e-06
3.57219e-06
2.62339e-06
0.880811
0.495671
0.316075
0.26226
0.216449
0.167974
0.118825
0.0771532
0.0530313
0.0398253
0.0296552
0.0211236
0.0144234
0.00982241
0.00696879
0.00497534
0.00342847
0.00230586
0.00154028
0.00103591
0.000691202
0.000452347
0.00029125
0.000185776
0.00011743
7.31231e-05
4.47735e-05
2.70081e-05
1.60782e-05
9.47371e-06
5.60431e-06
3.48949e-06
2.5617e-06
0.822472
0.460173
0.307811
0.256592
0.210402
0.161662
0.11309
0.073385
0.0511926
0.0385835
0.0286374
0.0203066
0.0138208
0.00944265
0.00674885
0.00479268
0.00329392
0.00221347
0.00148094
0.000997461
0.000664657
0.000434493
0.000279653
0.000178399
0.000112697
7.01056e-05
4.28869e-05
2.58514e-05
1.5377e-05
9.05169e-06
5.34901e-06
3.32686e-06
2.44012e-06
0.745684
0.414913
0.296425
0.24833
0.201832
0.152882
0.104698
0.0680959
0.0485333
0.0366687
0.0270285
0.0190294
0.0129263
0.00889744
0.00641169
0.00452153
0.00309777
0.00208004
0.00139478
0.000940056
0.000625467
0.000408258
0.000262632
0.000167524
0.000105718
6.56709e-05
4.01263e-05
2.41642e-05
1.43576e-05
8.4403e-06
4.98032e-06
3.09268e-06
2.26546e-06
0.628826
0.362024
0.281501
0.235803
0.188774
0.139742
0.093388
0.061663
0.0451954
0.0341418
0.0249271
0.0173859
0.0118067
0.00822322
0.00594302
0.00417224
0.00284644
0.00191013
0.00128483
0.000866262
0.000574835
0.000374426
0.000240733
0.000153539
9.67739e-05
6.00146e-05
3.66202e-05
2.20276e-05
1.30692e-05
7.66919e-06
4.51652e-06
2.79888e-06
2.04678e-06
0.500232
0.318326
0.264012
0.218994
0.171656
0.123237
0.0807837
0.0551383
0.0414081
0.0311209
0.022449
0.0154946
0.0105645
0.00746603
0.00539061
0.0037587
0.00255144
0.00171266
0.0011563
0.000778758
0.000515038
0.000334687
0.000215125
0.000137186
8.6336e-05
5.34393e-05
3.25593e-05
1.9558e-05
1.15827e-05
6.78197e-06
3.98453e-06
2.46289e-06
1.79727e-06
0.391725
0.291132
0.245022
0.199244
0.15113
0.103998
0.0682309
0.0489667
0.0372492
0.027672
0.0196434
0.0134473
0.00927988
0.00668337
0.00477013
0.00329606
0.00222859
0.00150053
0.00101677
0.000682766
0.000449736
0.000291644
0.000187454
0.00011944
7.49895e-05
4.62998e-05
2.81569e-05
1.68817e-05
9.974e-06
5.82449e-06
3.41238e-06
2.10278e-06
1.53059e-06
0.322321
0.266837
0.222384
0.175496
0.127494
0.0845329
0.0574116
0.0430903
0.0326788
0.0238537
0.0166459
0.0113768
0.00800231
0.00582041
0.00410387
0.00281303
0.00189887
0.00128551
0.000872349
0.000582684
0.000382122
0.000247418
0.00015903
0.000101123
6.32884e-05
3.89716e-05
2.36533e-05
1.41482e-05
8.33396e-06
4.85074e-06
2.83179e-06
1.73813e-06
1.26102e-06
0.286001
0.241092
0.195503
0.147861
0.101946
0.0673189
0.0487172
0.0372365
0.02779
0.0198372
0.0136526
0.00944967
0.00683495
0.00491379
0.00342151
0.00232945
0.00157626
0.00107418
0.000727035
0.000482943
0.000315618
0.000204312
0.00013126
8.31983e-05
5.18711e-05
3.18452e-05
1.92762e-05
1.1491e-05
6.7422e-06
3.90834e-06
2.27167e-06
1.38759e-06
1.00268e-06
0.255431
0.21136
0.164726
0.117737
0.0779061
0.0542478
0.0412321
0.0312478
0.0227636
0.0158926
0.0109346
0.00778147
0.00568453
0.00402079
0.00276868
0.00187958
0.00128035
0.000874271
0.000587659
0.000387922
0.000252874
0.000163679
0.000104875
6.61752e-05
4.10981e-05
2.51629e-05
1.51848e-05
9.01586e-06
5.2666e-06
3.03898e-06
1.75736e-06
1.06729e-06
7.67579e-07
0.222409
0.176726
0.129919
0.0873409
0.0593747
0.0445538
0.0340943
0.0252168
0.0178618
0.012323
0.00867104
0.00636621
0.00456358
0.00318005
0.00217297
0.00148122
0.00101612
0.000690667
0.000460675
0.000302655
0.000197161
0.000127456
8.12925e-05
5.10299e-05
3.15644e-05
1.92572e-05
1.15693e-05
6.83384e-06
3.97102e-06
2.27894e-06
1.30981e-06
7.90087e-07
5.65047e-07
0.185049
0.138357
0.0944792
0.0636087
0.0471426
0.0362908
0.0271773
0.0195032
0.0135436
0.00947804
0.00689583
0.00503275
0.00354661
0.00244268
0.00166954
0.00114857
0.00078787
0.000530831
0.000351659
0.000230533
0.000150129
9.66669e-05
6.12851e-05
3.82649e-05
2.35676e-05
1.43083e-05
8.54504e-06
5.01598e-06
2.89676e-06
1.65165e-06
9.42443e-07
5.64033e-07
4.00789e-07
0.145615
0.101001
0.0675915
0.0494297
0.0381764
0.0288823
0.0209836
0.0146957
0.0102657
0.00743215
0.00547689
0.00389813
0.00270595
0.00185697
0.00128009
0.000884076
0.000601037
0.000401467
0.000264894
0.000173593
0.000112722
7.21251e-05
4.54344e-05
2.82263e-05
1.72983e-05
1.04371e-05
6.1908e-06
3.60966e-06
2.07044e-06
1.17186e-06
6.63268e-07
3.93479e-07
2.77578e-07
0.110688
0.0740221
0.0530375
0.0409465
0.0312908
0.0230051
0.0162813
0.0113757
0.00818899
0.00607752
0.00437164
0.00306026
0.00210872
0.00145436
0.00100951
0.000692521
0.000466491
0.000309882
0.000204277
0.000133694
8.63451e-05
5.48948e-05
3.44024e-05
2.12771e-05
1.29672e-05
7.77271e-06
4.57977e-06
2.65279e-06
1.51105e-06
8.48784e-07
4.76426e-07
2.80082e-07
1.9609e-07
0.0907565
0.0621001
0.0469016
0.036332
0.0272868
0.0196617
0.0137655
0.00975401
0.00718219
0.00528848
0.00375572
0.00260743
0.00179718
0.00124764
0.00086577
0.000590069
0.000395348
0.000262171
0.00017286
0.00011287
7.25887e-05
4.59748e-05
2.87319e-05
1.77141e-05
1.07503e-05
6.41359e-06
3.76131e-06
2.16824e-06
1.22862e-06
6.86262e-07
3.82841e-07
2.23553e-07
1.55626e-07
1.38204
1.38084
1.38529
1.38652
1.37466
1.31895
1.15322
0.767897
0.403407
0.283999
0.23128
0.180033
0.127633
0.0803701
0.0521626
0.037512
0.0268701
0.0182899
0.0119055
0.00786715
0.00538531
0.00358613
0.00231426
0.00146791
0.000933026
0.000587071
0.000361774
0.00021881
0.000130796
7.7464e-05
4.59991e-05
2.87088e-05
2.11097e-05
1.38232
1.38331
1.38813
1.38844
1.37257
1.31218
1.13619
0.741693
0.390672
0.280395
0.228348
0.177075
0.124731
0.0783583
0.0512723
0.0369746
0.0264456
0.0179691
0.0116841
0.00773143
0.00529424
0.00352295
0.00227213
0.00144148
0.000916584
0.000576211
0.00035473
0.000214366
0.000128049
7.57824e-05
4.49686e-05
2.80494e-05
2.06169e-05
1.38248
1.38264
1.38688
1.38545
1.36528
1.29572
1.10316
0.69265
0.368749
0.273971
0.223024
0.171618
0.119121
0.0744891
0.049398
0.0357608
0.0254707
0.0172175
0.0111968
0.00746766
0.00510219
0.00338481
0.00217929
0.00138399
0.000880495
0.000552882
0.000339879
0.000205234
0.000122509
7.24258e-05
4.29254e-05
2.67442e-05
1.96395e-05
1.38278
1.38425
1.38832
1.38488
1.35908
1.27352
1.03479
0.614242
0.339675
0.264071
0.213812
0.162391
0.11046
0.0688388
0.0467115
0.0339652
0.024053
0.0161464
0.0105
0.00704758
0.00481643
0.00318555
0.00204672
0.00130112
0.000827534
0.000518582
0.000318157
0.000191917
0.000114464
6.7575e-05
3.99816e-05
2.48684e-05
1.82376e-05
1.3818
1.38498
1.38803
1.38056
1.34383
1.23052
0.930444
0.514756
0.311792
0.251351
0.201383
0.149788
0.0990462
0.0621651
0.0434263
0.0316161
0.0221744
0.0147465
0.00962071
0.00653726
0.00444332
0.00292354
0.00187347
0.00119331
0.000758786
0.000474358
0.000290371
0.000175001
0.000104258
6.14297e-05
3.62653e-05
2.25085e-05
1.6478e-05
1.38059
1.38488
1.38555
1.37187
1.32082
1.16387
0.792035
0.418408
0.288651
0.236019
0.18601
0.134226
0.0861342
0.0553578
0.0397068
0.0287641
0.0198883
0.0130924
0.00861707
0.00592452
0.00399344
0.00261049
0.00166939
0.00106673
0.000677986
0.000422664
0.00025813
0.000155436
9.24634e-05
5.43473e-05
3.20005e-05
1.98097e-05
1.44701e-05
1.383
1.38701
1.38286
1.35565
1.26783
1.02774
0.614113
0.341905
0.266759
0.217439
0.1666
0.115423
0.0724881
0.0487459
0.0355656
0.0254614
0.0173135
0.0113304
0.00757418
0.00522652
0.00349896
0.00227188
0.00145238
0.000930773
0.00059025
0.00036649
0.000223268
0.000134293
7.97025e-05
4.67029e-05
2.74161e-05
1.69195e-05
1.23264e-05
1.38528
1.38642
1.37355
1.3233
1.17839
0.831918
0.447008
0.297628
0.244089
0.19495
0.143695
0.0945654
0.060045
0.0425435
0.0311179
0.0218847
0.0146182
0.00960141
0.00656861
0.00449478
0.00297789
0.00192159
0.00123183
0.000790516
0.000499171
0.00030853
0.000187589
0.000112677
6.66781e-05
3.89256e-05
2.27656e-05
1.3992e-05
1.01576e-05
1.38625
1.38014
1.34965
1.25665
1.0163
0.600256
0.338908
0.266585
0.218159
0.168062
0.117448
0.0742314
0.0498161
0.0364761
0.0263454
0.0181074
0.0119354
0.00798775
0.00554216
0.00374644
0.0024569
0.00158146
0.00101937
0.000653009
0.00040997
0.000252245
0.000153102
9.16979e-05
5.40231e-05
3.13923e-05
1.82772e-05
1.1177e-05
8.07928e-06
1.38512
1.36689
1.30345
1.12731
0.750485
0.403709
0.287011
0.23665
0.188106
0.137657
0.0898469
0.057832
0.0415769
0.030544
0.0215439
0.0144457
0.00954527
0.00657345
0.00452688
0.0030192
0.00196169
0.00126566
0.000818035
0.00052091
0.000324914
0.00019933
0.000120801
7.20828e-05
4.22524e-05
2.44321e-05
1.41513e-05
8.60196e-06
6.18647e-06
1.37412
1.32686
1.19235
0.868733
0.478147
0.306378
0.250962
0.202995
0.153089
0.104034
0.0661755
0.0461834
0.03416
0.0245877
0.0168216
0.0111318
0.00754376
0.00527236
0.00357459
0.00235234
0.00152349
0.00098942
0.000637408
0.000402749
0.000249679
0.000152815
9.22884e-05
5.47588e-05
3.19052e-05
1.8346e-05
1.05597e-05
6.37246e-06
4.55564e-06
1.33858
1.22479
0.941219
0.540082
0.323949
0.261714
0.214449
0.165338
0.115972
0.0741749
0.0503541
0.0372411
0.0272238
0.018977
0.0126716
0.00851179
0.00596914
0.00410094
0.00273428
0.00178324
0.00116077
0.000754897
0.000482645
0.00030239
0.000186631
0.000113854
6.83496e-05
4.02616e-05
2.33044e-05
1.33129e-05
7.60506e-06
4.55105e-06
3.23135e-06
1.2578
1.00953
0.602582
0.343732
0.270855
0.224086
0.176107
0.126729
0.082224
0.0546089
0.0401286
0.0296471
0.0209914
0.0141815
0.00949699
0.00662737
0.0046187
0.0031175
0.00205089
0.00133856
0.000876634
0.000566522
0.000358688
0.000223222
0.000137309
8.32823e-05
4.96049e-05
2.89994e-05
1.6671e-05
9.45283e-06
5.35408e-06
3.17444e-06
2.23681e-06
1.08683
0.694961
0.382721
0.284674
0.236937
0.18941
0.140294
0.0933901
0.0608853
0.0440647
0.0328779
0.0236681
0.0162176
0.0108394
0.00748759
0.00527908
0.00360914
0.00239829
0.0015713
0.00103312
0.000674827
0.000432099
0.000271428
0.000168337
0.000103127
6.21176e-05
3.6717e-05
2.13212e-05
1.21732e-05
6.84873e-06
3.84541e-06
2.25846e-06
1.57883e-06
0.90746
0.509739
0.31829
0.262162
0.21556
0.166536
0.11714
0.075609
0.0519787
0.0388613
0.0286698
0.0201756
0.0135872
0.00917673
0.00647522
0.00452671
0.00305716
0.00201655
0.00132539
0.000874493
0.000568218
0.000361564
0.000226373
0.000140188
8.55665e-05
5.12671e-05
3.0149e-05
1.74249e-05
9.89672e-06
5.53527e-06
3.08812e-06
1.80111e-06
1.2517e-06
1.36307
1.37464
1.38432
1.3919
1.39659
1.39722
1.39363
1.38677
1.38646
1.38946
1.37822
1.32932
1.18487
0.797301
0.396517
0.270786
0.212972
0.157494
0.102527
0.0610945
0.0403588
0.0278673
0.0184083
0.0114554
0.00716937
0.00460365
0.00287562
0.0017391
0.001039
0.000619196
0.000369583
0.000230989
0.000170003
1.36498
1.37536
1.38465
1.39206
1.3967
1.39809
1.3929
1.38588
1.38582
1.38833
1.37568
1.32273
1.16821
0.769296
0.384763
0.267734
0.210602
0.155374
0.100429
0.0598611
0.0397184
0.0274129
0.0180697
0.0112373
0.00707422
0.00452495
0.00282211
0.00170458
0.00101774
0.000606131
0.000361448
0.00022573
0.000166067
1.3653
1.37549
1.38483
1.39314
1.39735
1.39676
1.39113
1.38645
1.38732
1.38773
1.37485
1.31487
1.13545
0.72063
0.362054
0.261084
0.20474
0.149487
0.0953927
0.0571406
0.0383028
0.0263814
0.0172862
0.0107319
0.00679023
0.00434749
0.00270539
0.00163141
0.00097436
0.000579485
0.000345009
0.000215199
0.000158204
1.3678
1.37778
1.38654
1.39343
1.39799
1.39664
1.38977
1.38469
1.38792
1.38663
1.36713
1.29738
1.08384
0.641873
0.334523
0.251645
0.196428
0.141242
0.0882509
0.0534885
0.036348
0.0249676
0.0162399
0.0100639
0.00641939
0.00408836
0.00253428
0.00152478
0.00091104
0.00054122
0.000321531
0.00020018
0.000146985
1.3703
1.38002
1.38825
1.39429
1.3977
1.39488
1.38743
1.38429
1.38819
1.38402
1.35612
1.26501
0.994283
0.541012