/*--------------------------------*- C++ -*----------------------------------*\
| =========                 |                                                 |
| \\      /  F ield         | OpenFOAM: The Open Source CFD Toolbox           |
|  \\    /   O peration     | Version:  2412                                  |
|   \\  /    A nd           | Website:  www.openfoam.com                      |
|    \\/     M anipulation  |                                                 |
\*---------------------------------------------------------------------------*/
FoamFile
{
    version     2.0;
    format      ascii;
    arch        "LSB;label=32;scalar=64";
    class       volScalarField;
    location    "0.0400007";
    object      Vm_0;
}
// * * * * * * * * * * * * * * * * * * * * * * * * * * * * * * * * * * * * * //

dimensions      [1 2 -3 0 0 -1 0];

internalField   nonuniform List<scalar> 
8790
(
-0.0838411
-0.0838799
-0.0839099
-0.0839334
-0.0839511
-0.0839643
-0.0839739
-0.083981
-0.0839863
-0.0839902
-0.083993
-0.0839951
-0.0839966
-0.0839976
-0.0839983
-0.0839989
-0.0839992
-0.0839995
-0.0839997
-0.0839998
-0.0839999
-0.0839999
-0.0839999
-0.084
-0.084
-0.084
-0.084
-0.084
-0.084
-0.084
-0.084
-0.084
-0.084
-0.0838436
-0.0838818
-0.0839113
-0.0839345
-0.083952
-0.0839649
-0.0839744
-0.0839814
-0.0839865
-0.0839904
-0.0839932
-0.0839952
-0.0839966
-0.0839976
-0.0839984
-0.0839989
-0.0839992
-0.0839995
-0.0839997
-0.0839998
-0.0839999
-0.0839999
-0.0839999
-0.084
-0.084
-0.084
-0.084
-0.084
-0.084
-0.084
-0.084
-0.084
-0.084
-0.0838487
-0.0838856
-0.0839144
-0.0839368
-0.0839537
-0.0839662
-0.0839753
-0.083982
-0.083987
-0.0839907
-0.0839934
-0.0839954
-0.0839967
-0.0839977
-0.0839984
-0.0839989
-0.0839993
-0.0839995
-0.0839997
-0.0839998
-0.0839999
-0.0839999
-0.0839999
-0.084
-0.084
-0.084
-0.084
-0.084
-0.084
-0.084
-0.084
-0.084
-0.084
-0.0838569
-0.0838918
-0.0839191
-0.0839404
-0.0839563
-0.0839681
-0.0839767
-0.083983
-0.0839878
-0.0839913
-0.0839938
-0.0839956
-0.0839969
-0.0839979
-0.0839985
-0.083999
-0.0839993
-0.0839995
-0.0839997
-0.0839998
-0.0839999
-0.0839999
-0.0839999
-0.084
-0.084
-0.084
-0.084
-0.084
-0.084
-0.084
-0.084
-0.084
-0.084
-0.0838677
-0.0839
-0.0839255
-0.0839451
-0.0839597
-0.0839705
-0.0839785
-0.0839844
-0.0839887
-0.083992
-0.0839943
-0.083996
-0.0839972
-0.083998
-0.0839986
-0.0839991
-0.0839994
-0.0839996
-0.0839997
-0.0839998
-0.0839999
-0.0839999
-0.084
-0.084
-0.084
-0.084
-0.084
-0.084
-0.084
-0.084
-0.084
-0.084
-0.084
-0.0838803
-0.0839099
-0.0839331
-0.0839507
-0.0839638
-0.0839734
-0.0839806
-0.0839859
-0.0839898
-0.0839928
-0.0839949
-0.0839964
-0.0839975
-0.0839982
-0.0839988
-0.0839992
-0.0839994
-0.0839996
-0.0839997
-0.0839998
-0.0839999
-0.0839999
-0.084
-0.084
-0.084
-0.084
-0.084
-0.084
-0.084
-0.084
-0.084
-0.084
-0.084
-0.0838941
-0.0839206
-0.0839412
-0.0839566
-0.0839681
-0.0839766
-0.0839829
-0.0839876
-0.0839911
-0.0839936
-0.0839955
-0.0839968
-0.0839978
-0.0839984
-0.0839989
-0.0839993
-0.0839995
-0.0839997
-0.0839998
-0.0839999
-0.0839999
-0.0839999
-0.084
-0.084
-0.084
-0.084
-0.084
-0.084
-0.084
-0.084
-0.084
-0.084
-0.084
-0.0839085
-0.0839317
-0.0839494
-0.0839627
-0.0839725
-0.0839798
-0.0839852
-0.0839893
-0.0839923
-0.0839945
-0.0839961
-0.0839973
-0.0839981
-0.0839987
-0.0839991
-0.0839994
-0.0839996
-0.0839997
-0.0839998
-0.0839999
-0.0839999
-0.0839999
-0.084
-0.084
-0.084
-0.084
-0.084
-0.084
-0.084
-0.084
-0.084
-0.084
-0.084
-0.0839228
-0.0839426
-0.0839575
-0.0839686
-0.0839768
-0.083983
-0.0839876
-0.083991
-0.0839936
-0.0839954
-0.0839967
-0.0839977
-0.0839984
-0.0839989
-0.0839992
-0.0839995
-0.0839996
-0.0839998
-0.0839998
-0.0839999
-0.0839999
-0.084
-0.084
-0.084
-0.084
-0.084
-0.084
-0.084
-0.084
-0.084
-0.084
-0.084
-0.084
-0.0839367
-0.083953
-0.0839652
-0.0839742
-0.0839809
-0.083986
-0.0839899
-0.0839927
-0.0839948
-0.0839963
-0.0839973
-0.0839981
-0.0839987
-0.0839991
-0.0839994
-0.0839996
-0.0839997
-0.0839998
-0.0839999
-0.0839999
-0.0839999
-0.084
-0.084
-0.084
-0.084
-0.084
-0.084
-0.084
-0.084
-0.084
-0.084
-0.084
-0.084
-0.0839494
-0.0839624
-0.0839721
-0.0839793
-0.0839847
-0.0839888
-0.0839919
-0.0839942
-0.0839958
-0.083997
-0.0839979
-0.0839985
-0.083999
-0.0839993
-0.0839995
-0.0839997
-0.0839998
-0.0839999
-0.0839999
-0.0839999
-0.084
-0.084
-0.084
-0.084
-0.084
-0.084
-0.084
-0.084
-0.084
-0.084
-0.084
-0.084
-0.084
-0.0839603
-0.0839704
-0.083978
-0.0839837
-0.083988
-0.0839913
-0.0839937
-0.0839955
-0.0839967
-0.0839977
-0.0839984
-0.0839989
-0.0839992
-0.0839995
-0.0839996
-0.0839997
-0.0839998
-0.0839999
-0.0839999
-0.084
-0.084
-0.084
-0.084
-0.084
-0.084
-0.084
-0.084
-0.084
-0.084
-0.084
-0.084
-0.084
-0.084
-0.0839689
-0.0839768
-0.0839827
-0.0839873
-0.0839907
-0.0839932
-0.0839951
-0.0839965
-0.0839975
-0.0839982
-0.0839987
-0.0839991
-0.0839994
-0.0839996
-0.0839997
-0.0839998
-0.0839999
-0.0839999
-0.0839999
-0.084
-0.084
-0.084
-0.084
-0.084
-0.084
-0.084
-0.084
-0.084
-0.084
-0.084
-0.084
-0.084
-0.084
-0.083975
-0.0839813
-0.0839861
-0.0839898
-0.0839926
-0.0839946
-0.0839961
-0.0839972
-0.083998
-0.0839986
-0.083999
-0.0839993
-0.0839995
-0.0839997
-0.0839998
-0.0839999
-0.0839999
-0.0839999
-0.084
-0.084
-0.084
-0.084
-0.084
-0.084
-0.084
-0.084
-0.084
-0.084
-0.084
-0.084
-0.084
-0.084
-0.084
-0.0839781
-0.0839837
-0.0839879
-0.0839912
-0.0839935
-0.0839953
-0.0839966
-0.0839976
-0.0839983
-0.0839988
-0.0839991
-0.0839994
-0.0839996
-0.0839997
-0.0839998
-0.0839999
-0.0839999
-0.0839999
-0.084
-0.084
-0.084
-0.084
-0.084
-0.084
-0.084
-0.084
-0.084
-0.084
-0.084
-0.084
-0.084
-0.084
-0.084
-0.0830182
-0.0832593
-0.0834276
-0.0835677
-0.0836824
-0.0837698
-0.0838332
-0.0838781
-0.0839109
-0.0839357
-0.0839543
-0.0839678
-0.0839774
-0.0839841
-0.083989
-0.0839924
-0.0839948
-0.0839965
-0.0839977
-0.0839984
-0.083999
-0.0839993
-0.0839996
-0.0839997
-0.0839998
-0.0839999
-0.0839999
-0.084
-0.084
-0.084
-0.084
-0.084
-0.084
-0.0830333
-0.0832693
-0.0834353
-0.0835739
-0.0836874
-0.0837736
-0.083836
-0.0838802
-0.0839124
-0.0839368
-0.0839551
-0.0839684
-0.0839778
-0.0839844
-0.0839892
-0.0839925
-0.0839949
-0.0839966
-0.0839977
-0.0839985
-0.083999
-0.0839994
-0.0839996
-0.0839997
-0.0839998
-0.0839999
-0.0839999
-0.084
-0.084
-0.084
-0.084
-0.084
-0.084
-0.0830669
-0.0832908
-0.0834506
-0.0835887
-0.0836989
-0.0837822
-0.0838421
-0.0838845
-0.0839155
-0.0839392
-0.0839568
-0.0839696
-0.0839786
-0.083985
-0.0839896
-0.0839928
-0.0839951
-0.0839967
-0.0839978
-0.0839985
-0.083999
-0.0839994
-0.0839996
-0.0839997
-0.0839998
-0.0839999
-0.0839999
-0.084
-0.084
-0.084
-0.084
-0.084
-0.084
-0.0831191
-0.0833271
-0.0834793
-0.0836114
-0.0837162
-0.0837947
-0.0838509
-0.0838908
-0.0839202
-0.0839427
-0.0839594
-0.0839713
-0.0839798
-0.0839859
-0.0839902
-0.0839933
-0.0839954
-0.0839969
-0.0839979
-0.0839986
-0.0839991
-0.0839994
-0.0839996
-0.0839998
-0.0839999
-0.0839999
-0.0839999
-0.084
-0.084
-0.084
-0.084
-0.084
-0.084
-0.0831865
-0.0833742
-0.0835184
-0.0836425
-0.0837395
-0.0838112
-0.0838623
-0.0838989
-0.0839264
-0.0839472
-0.0839626
-0.0839736
-0.0839814
-0.083987
-0.083991
-0.0839938
-0.0839958
-0.0839972
-0.0839981
-0.0839987
-0.0839992
-0.0839995
-0.0839997
-0.0839998
-0.0839999
-0.0839999
-0.0839999
-0.084
-0.084
-0.084
-0.084
-0.084
-0.084
-0.0832623
-0.0834277
-0.083566
-0.0836799
-0.083767
-0.0838305
-0.0838756
-0.0839085
-0.0839336
-0.0839525
-0.0839663
-0.0839762
-0.0839832
-0.0839882
-0.0839919
-0.0839944
-0.0839962
-0.0839974
-0.0839983
-0.0839989
-0.0839993
-0.0839995
-0.0839997
-0.0839998
-0.0839999
-0.0839999
-0.084
-0.084
-0.084
-0.084
-0.084
-0.084
-0.084
-0.0833408
-0.0834895
-0.0836181
-0.0837196
-0.0837958
-0.0838506
-0.0838899
-0.0839191
-0.0839415
-0.0839582
-0.0839704
-0.083979
-0.0839852
-0.0839897
-0.0839929
-0.0839951
-0.0839967
-0.0839978
-0.0839985
-0.083999
-0.0839994
-0.0839996
-0.0839997
-0.0839998
-0.0839999
-0.0839999
-0.084
-0.084
-0.084
-0.084
-0.084
-0.084
-0.084
-0.0834197
-0.0835579
-0.0836723
-0.0837602
-0.0838248
-0.083871
-0.0839046
-0.0839302
-0.0839498
-0.0839642
-0.0839745
-0.083982
-0.0839873
-0.0839911
-0.0839939
-0.0839958
-0.0839972
-0.0839981
-0.0839987
-0.0839992
-0.0839995
-0.0839996
-0.0839998
-0.0839999
-0.0839999
-0.0839999
-0.084
-0.084
-0.084
-0.084
-0.084
-0.084
-0.084
-0.0835029
-0.0836273
-0.0837256
-0.0837994
-0.0838525
-0.0838908
-0.0839193
-0.0839414
-0.083958
-0.08397
-0.0839787
-0.0839849
-0.0839894
-0.0839926
-0.0839949
-0.0839965
-0.0839976
-0.0839984
-0.0839989
-0.0839993
-0.0839995
-0.0839997
-0.0839998
-0.0839999
-0.0839999
-0.084
-0.084
-0.084
-0.084
-0.084
-0.084
-0.084
-0.084
-0.0835899
-0.0836957
-0.0837766
-0.0838357
-0.0838782
-0.0839096
-0.0839337
-0.0839522
-0.0839657
-0.0839755
-0.0839826
-0.0839876
-0.0839913
-0.083994
-0.0839959
-0.0839972
-0.0839981
-0.0839987
-0.0839992
-0.0839994
-0.0839996
-0.0839998
-0.0839999
-0.0839999
-0.0839999
-0.084
-0.084
-0.084
-0.084
-0.084
-0.084
-0.084
-0.084
-0.0836723
-0.0837583
-0.083822
-0.0838679
-0.0839015
-0.0839273
-0.0839471
-0.083962
-0.0839727
-0.0839805
-0.0839861
-0.0839902
-0.0839931
-0.0839953
-0.0839967
-0.0839978
-0.0839985
-0.083999
-0.0839993
-0.0839996
-0.0839997
-0.0839998
-0.0839999
-0.0839999
-0.084
-0.084
-0.084
-0.084
-0.084
-0.084
-0.084
-0.084
-0.084
-0.0837447
-0.0838115
-0.0838599
-0.0838953
-0.0839221
-0.0839431
-0.0839588
-0.0839704
-0.0839787
-0.0839847
-0.0839892
-0.0839924
-0.0839947
-0.0839963
-0.0839975
-0.0839983
-0.0839988
-0.0839992
-0.0839995
-0.0839997
-0.0839998
-0.0839999
-0.0839999
-0.0839999
-0.084
-0.084
-0.084
-0.084
-0.084
-0.084
-0.084
-0.084
-0.084
-0.0838023
-0.0838528
-0.0838897
-0.0839176
-0.0839393
-0.0839559
-0.0839681
-0.083977
-0.0839834
-0.0839882
-0.0839916
-0.0839942
-0.0839959
-0.0839972
-0.0839981
-0.0839987
-0.0839991
-0.0839994
-0.0839996
-0.0839998
-0.0839998
-0.0839999
-0.0839999
-0.084
-0.084
-0.084
-0.084
-0.084
-0.084
-0.084
-0.084
-0.084
-0.084
-0.0838415
-0.083881
-0.0839107
-0.0839339
-0.0839517
-0.0839649
-0.0839746
-0.0839816
-0.0839868
-0.0839906
-0.0839934
-0.0839954
-0.0839968
-0.0839978
-0.0839985
-0.083999
-0.0839993
-0.0839996
-0.0839997
-0.0839998
-0.0839999
-0.0839999
-0.084
-0.084
-0.084
-0.084
-0.084
-0.084
-0.084
-0.084
-0.084
-0.084
-0.084
-0.0838614
-0.0838956
-0.083922
-0.0839426
-0.0839582
-0.0839696
-0.083978
-0.0839841
-0.0839886
-0.0839919
-0.0839943
-0.083996
-0.0839973
-0.0839981
-0.0839987
-0.0839991
-0.0839994
-0.0839996
-0.0839998
-0.0839998
-0.0839999
-0.0839999
-0.084
-0.084
-0.084
-0.084
-0.084
-0.084
-0.084
-0.084
-0.084
-0.084
-0.084
-0.0762567
-0.0786702
-0.0799536
-0.0808488
-0.0816167
-0.0822687
-0.0827799
-0.0831331
-0.0833609
-0.0835235
-0.0836576
-0.0837595
-0.0838325
-0.0838825
-0.0839173
-0.0839426
-0.0839609
-0.0839736
-0.0839822
-0.0839881
-0.0839922
-0.0839949
-0.0839967
-0.0839979
-0.0839987
-0.0839992
-0.0839995
-0.0839997
-0.0839998
-0.0839999
-0.0839999
-0.084
-0.084
-0.0763972
-0.0787431
-0.0799958
-0.0808837
-0.0816489
-0.082297
-0.0828021
-0.0831483
-0.0833716
-0.0835319
-0.0836639
-0.0837641
-0.0838356
-0.0838846
-0.0839188
-0.0839437
-0.0839616
-0.0839741
-0.0839826
-0.0839884
-0.0839923
-0.083995
-0.0839968
-0.083998
-0.0839987
-0.0839992
-0.0839995
-0.0839997
-0.0839998
-0.0839999
-0.0839999
-0.084
-0.084
-0.0767787
-0.0789357
-0.0801106
-0.0809806
-0.0817339
-0.0823666
-0.0828517
-0.0831792
-0.0833906
-0.0835482
-0.0836766
-0.0837732
-0.0838419
-0.0838889
-0.0839218
-0.0839458
-0.0839631
-0.0839751
-0.0839832
-0.0839888
-0.0839926
-0.0839952
-0.0839969
-0.083998
-0.0839988
-0.0839992
-0.0839995
-0.0839997
-0.0839998
-0.0839999
-0.0839999
-0.084
-0.084
-0.0773003
-0.0792098
-0.0802855
-0.0811276
-0.0818589
-0.0824658
-0.0829225
-0.0832249
-0.0834204
-0.0835734
-0.0836958
-0.0837869
-0.0838511
-0.0838951
-0.0839262
-0.083949
-0.0839653
-0.0839765
-0.0839842
-0.0839895
-0.0839931
-0.0839955
-0.0839971
-0.0839982
-0.0839988
-0.0839993
-0.0839996
-0.0839997
-0.0839998
-0.0839999
-0.0839999
-0.084
-0.084
-0.0779861
-0.0795632
-0.0805328
-0.0813385
-0.0820352
-0.082602
-0.083014
-0.0832814
-0.0834597
-0.0836063
-0.0837204
-0.0838043
-0.0838628
-0.083903
-0.0839319
-0.0839531
-0.0839681
-0.0839784
-0.0839855
-0.0839903
-0.0839936
-0.0839959
-0.0839973
-0.0839983
-0.0839989
-0.0839993
-0.0839996
-0.0839998
-0.0839999
-0.0839999
-0.084
-0.084
-0.084
-0.0786992
-0.0799569
-0.0808414
-0.0816033
-0.0822506
-0.0827607
-0.0831164
-0.0833461
-0.0835096
-0.083645
-0.0837489
-0.0838241
-0.0838761
-0.0839123
-0.0839386
-0.0839578
-0.0839713
-0.0839806
-0.0839869
-0.0839913
-0.0839943
-0.0839963
-0.0839976
-0.0839985
-0.0839991
-0.0839994
-0.0839996
-0.0839998
-0.0839999
-0.0839999
-0.084
-0.084
-0.084
-0.0793428
-0.0803613
-0.0811796
-0.0818913
-0.0824811
-0.082925
-0.0832206
-0.0834133
-0.0835652
-0.0836878
-0.0837799
-0.0838454
-0.0838905
-0.0839225
-0.083946
-0.083963
-0.0839749
-0.083983
-0.0839886
-0.0839924
-0.083995
-0.0839968
-0.0839979
-0.0839987
-0.0839992
-0.0839995
-0.0839997
-0.0839998
-0.0839999
-0.0839999
-0.084
-0.084
-0.084
-0.0799095
-0.0807906
-0.0815503
-0.0822004
-0.0827176
-0.0830836
-0.083322
-0.0834871
-0.0836252
-0.0837328
-0.0838119
-0.0838671
-0.0839055
-0.0839333
-0.0839538
-0.0839684
-0.0839785
-0.0839854
-0.0839902
-0.0839935
-0.0839958
-0.0839973
-0.0839982
-0.0839989
-0.0839993
-0.0839996
-0.0839997
-0.0839998
-0.0839999
-0.0839999
-0.084
-0.084
-0.084
-0.0804435
-0.0812425
-0.0819383
-0.0825124
-0.0829417
-0.0832278
-0.0834158
-0.0835651
-0.0836862
-0.0837776
-0.083843
-0.0838883
-0.0839205
-0.0839443
-0.0839615
-0.0839737
-0.0839821
-0.0839879
-0.0839919
-0.0839946
-0.0839965
-0.0839977
-0.0839986
-0.0839991
-0.0839994
-0.0839997
-0.0839998
-0.0839999
-0.0839999
-0.084
-0.084
-0.084
-0.084
-0.0809958
-0.0817178
-0.0823292
-0.0828066
-0.0831375
-0.0833545
-0.0835114
-0.0836431
-0.083745
-0.0838196
-0.0838718
-0.0839082
-0.083935
-0.0839547
-0.0839688
-0.0839787
-0.0839855
-0.0839902
-0.0839935
-0.0839957
-0.0839972
-0.0839982
-0.0839989
-0.0839993
-0.0839996
-0.0839997
-0.0839998
-0.0839999
-0.0839999
-0.084
-0.084
-0.084
-0.084
-0.081551
-0.0821862
-0.0826953
-0.0830607
-0.0833012
-0.0834671
-0.0836065
-0.0837165
-0.0837985
-0.0838567
-0.0838972
-0.0839265
-0.0839484
-0.0839642
-0.0839754
-0.0839832
-0.0839885
-0.0839923
-0.0839949
-0.0839966
-0.0839978
-0.0839986
-0.0839991
-0.0839994
-0.0839997
-0.0839998
-0.0839999
-0.0839999
-0.084
-0.084
-0.084
-0.084
-0.084
-0.0820817
-0.0826117
-0.0830012
-0.0832597
-0.0834351
-0.0835773
-0.0836931
-0.0837807
-0.0838436
-0.0838877
-0.0839192
-0.0839428
-0.0839601
-0.0839724
-0.083981
-0.083987
-0.0839912
-0.0839941
-0.0839961
-0.0839974
-0.0839983
-0.0839989
-0.0839993
-0.0839996
-0.0839997
-0.0839998
-0.0839999
-0.0839999
-0.084
-0.084
-0.084
-0.084
-0.084
-0.0825401
-0.0829482
-0.0832228
-0.0834079
-0.0835517
-0.0836719
-0.0837641
-0.0838312
-0.0838785
-0.0839122
-0.0839373
-0.083956
-0.0839694
-0.0839789
-0.0839854
-0.0839901
-0.0839933
-0.0839955
-0.0839971
-0.0839981
-0.0839988
-0.0839992
-0.0839995
-0.0839997
-0.0839998
-0.0839999
-0.0839999
-0.084
-0.084
-0.084
-0.084
-0.084
-0.084
-0.0828635
-0.0831638
-0.0833647
-0.0835143
-0.0836416
-0.0837407
-0.0838139
-0.0838657
-0.0839026
-0.0839299
-0.0839505
-0.0839654
-0.083976
-0.0839834
-0.0839886
-0.0839923
-0.0839948
-0.0839966
-0.0839977
-0.0839985
-0.0839991
-0.0839994
-0.0839996
-0.0839998
-0.0839999
-0.0839999
-0.084
-0.084
-0.084
-0.084
-0.084
-0.084
-0.084
-0.0830231
-0.0832665
-0.0834359
-0.0835762
-0.0836906
-0.0837772
-0.0838395
-0.0838834
-0.0839154
-0.0839396
-0.0839575
-0.0839704
-0.0839794
-0.0839857
-0.0839902
-0.0839934
-0.0839956
-0.0839971
-0.0839981
-0.0839988
-0.0839992
-0.0839995
-0.0839997
-0.0839998
-0.0839999
-0.0839999
-0.084
-0.084
-0.084
-0.084
-0.084
-0.084
-0.084
-0.00750913
-0.0407334
-0.05665
-0.0613826
-0.0652742
-0.0693951
-0.0736034
-0.0772334
-0.0793748
-0.0805328
-0.0814135
-0.0821535
-0.0827377
-0.0831422
-0.0833928
-0.0835664
-0.0837009
-0.0837988
-0.0838656
-0.0839096
-0.0839397
-0.0839605
-0.0839746
-0.0839838
-0.0839897
-0.0839936
-0.0839961
-0.0839976
-0.0839986
-0.0839992
-0.0839995
-0.0839997
-0.0839998
-0.0085145
-0.041521
-0.0569124
-0.0615243
-0.0654503
-0.0696047
-0.0738167
-0.077388
-0.0794552
-0.080587
-0.0814585
-0.0821897
-0.0827639
-0.0831582
-0.0834028
-0.0835736
-0.0837062
-0.0838024
-0.083868
-0.0839112
-0.0839408
-0.0839612
-0.083975
-0.0839841
-0.0839899
-0.0839937
-0.0839962
-0.0839977
-0.0839986
-0.0839992
-0.0839995
-0.0839997
-0.0839998
-0.0135141
-0.0445632
-0.0576206
-0.06201
-0.0659686
-0.0701456
-0.0743082
-0.0777109
-0.0796128
-0.0806934
-0.0815458
-0.0822597
-0.0828156
-0.0831908
-0.0834216
-0.0835893
-0.0837177
-0.0838103
-0.0838731
-0.0839145
-0.083943
-0.0839628
-0.083976
-0.0839847
-0.0839903
-0.083994
-0.0839963
-0.0839978
-0.0839987
-0.0839992
-0.0839995
-0.0839997
-0.0839998
-0.0200948
-0.048442
-0.0585964
-0.0627181
-0.066703
-0.070898
-0.0750273
-0.0781642
-0.0798407
-0.0808575
-0.0816837
-0.0823692
-0.0828922
-0.0832375
-0.0834505
-0.0836125
-0.0837345
-0.0838217
-0.0838805
-0.0839194
-0.0839464
-0.083965
-0.0839775
-0.0839856
-0.0839909
-0.0839944
-0.0839966
-0.0839979
-0.0839988
-0.0839993
-0.0839996
-0.0839997
-0.0839998
-0.0301096
-0.0529745
-0.0598754
-0.0637917
-0.0678221
-0.0720241
-0.0759967
-0.0787155
-0.0801268
-0.0810741
-0.0818637
-0.08251
-0.0829882
-0.0832953
-0.0834907
-0.0836424
-0.0837561
-0.0838363
-0.0838899
-0.0839258
-0.0839507
-0.0839679
-0.0839794
-0.0839868
-0.0839917
-0.0839949
-0.0839969
-0.0839981
-0.0839989
-0.0839993
-0.0839996
-0.0839998
-0.0839998
-0.0411301
-0.0567194
-0.0613742
-0.0652322
-0.0692891
-0.0734386
-0.0770768
-0.0792746
-0.0804513
-0.0813329
-0.0820761
-0.0826721
-0.0830946
-0.0833602
-0.083538
-0.0836779
-0.0837813
-0.0838532
-0.0839009
-0.0839333
-0.0839559
-0.0839713
-0.0839816
-0.0839882
-0.0839926
-0.0839954
-0.0839972
-0.0839983
-0.083999
-0.0839994
-0.0839997
-0.0839998
-0.0839998
-0.0504292
-0.05905
-0.0630016
-0.0669248
-0.0710482
-0.0750874
-0.0781526
-0.0798036
-0.0808077
-0.0816285
-0.0823166
-0.0828476
-0.0832047
-0.0834272
-0.0835912
-0.0837175
-0.083809
-0.0838714
-0.0839129
-0.0839415
-0.0839615
-0.083975
-0.0839839
-0.0839898
-0.0839936
-0.083996
-0.0839976
-0.0839986
-0.0839991
-0.0839995
-0.0839997
-0.0839998
-0.0839999
-0.0563771
-0.0611321
-0.0649417
-0.06896
-0.0730738
-0.0767555
-0.0790798
-0.0803072
-0.0811994
-0.0819557
-0.0825734
-0.083025
-0.0833142
-0.0835012
-0.0836483
-0.0837589
-0.0838373
-0.0838898
-0.0839252
-0.0839501
-0.0839673
-0.0839788
-0.0839864
-0.0839913
-0.0839946
-0.0839967
-0.083998
-0.0839988
-0.0839993
-0.0839996
-0.0839998
-0.0839999
-0.0839999
-0.0594897
-0.0633384
-0.0672454
-0.0713284
-0.0752632
-0.0782308
-0.0798249
-0.0808088
-0.0816184
-0.0823
-0.08283
-0.0831902
-0.0834142
-0.0835789
-0.0837068
-0.0838004
-0.0838649
-0.0839079
-0.0839377
-0.0839586
-0.083973
-0.0839825
-0.0839888
-0.0839929
-0.0839956
-0.0839973
-0.0839983
-0.083999
-0.0839994
-0.0839997
-0.0839998
-0.0839999
-0.0839999
-0.0621095
-0.0658864
-0.069883
-0.07391
-0.0773234
-0.079351
-0.0804664
-0.0813221
-0.0820492
-0.082638
-0.0830629
-0.0833331
-0.0835128
-0.0836554
-0.0837627
-0.0838389
-0.0838903
-0.0839251
-0.0839496
-0.0839668
-0.0839783
-0.083986
-0.083991
-0.0839943
-0.0839965
-0.0839978
-0.0839987
-0.0839992
-0.0839995
-0.0839997
-0.0839998
-0.0839999
-0.0839999
-0.0649396
-0.0688546
-0.0728659
-0.0765149
-0.0789116
-0.0801817
-0.0810781
-0.0818389
-0.0824692
-0.0829439
-0.0832569
-0.0834544
-0.0836089
-0.0837275
-0.0838138
-0.0838731
-0.0839129
-0.0839408
-0.0839605
-0.0839741
-0.0839831
-0.0839891
-0.083993
-0.0839956
-0.0839973
-0.0839983
-0.083999
-0.0839994
-0.0839997
-0.0839998
-0.0839999
-0.0839999
-0.084
-0.0681413
-0.0721428
-0.0759031
-0.0785487
-0.0799599
-0.0808899
-0.0816709
-0.0823286
-0.0828393
-0.0831877
-0.083409
-0.0835687
-0.0836961
-0.0837907
-0.0838569
-0.0839016
-0.0839325
-0.0839545
-0.0839699
-0.0839802
-0.0839871
-0.0839917
-0.0839947
-0.0839967
-0.083998
-0.0839988
-0.0839993
-0.0839996
-0.0839998
-0.0839999
-0.0839999
-0.084
-0.084
-0.0715208
-0.0753443
-0.0782074
-0.0797639
-0.0807283
-0.0815248
-0.0822017
-0.0827406
-0.0831202
-0.0833631
-0.0835306
-0.0836659
-0.0837681
-0.0838409
-0.0838903
-0.0839242
-0.0839485
-0.0839656
-0.0839773
-0.0839851
-0.0839903
-0.0839938
-0.0839961
-0.0839976
-0.0839985
-0.0839991
-0.0839995
-0.0839997
-0.0839998
-0.0839999
-0.0839999
-0.084
-0.084
-0.074514
-0.0776563
-0.0794547
-0.0804909
-0.0813184
-0.0820285
-0.0826047
-0.0830251
-0.0832982
-0.0834792
-0.0836254
-0.0837377
-0.0838193
-0.0838754
-0.0839135
-0.0839407
-0.08396
-0.0839734
-0.0839825
-0.0839885
-0.0839926
-0.0839953
-0.0839971
-0.0839982
-0.0839989
-0.0839993
-0.0839996
-0.0839998
-0.0839999
-0.0839999
-0.084
-0.084
-0.084
-0.0762222
-0.078678
-0.0799805
-0.0808863
-0.0816615
-0.082315
-0.0828203
-0.0831641
-0.0833845
-0.0835468
-0.0836781
-0.0837765
-0.083846
-0.0838931
-0.0839258
-0.0839494
-0.0839661
-0.0839775
-0.0839852
-0.0839903
-0.0839938
-0.0839961
-0.0839975
-0.0839985
-0.0839991
-0.0839995
-0.0839997
-0.0839998
-0.0839999
-0.0839999
-0.084
-0.084
-0.084
0.0344412
0.0343378
0.0347195
0.0348248
0.0338084
0.0290336
0.0148314
-0.0181912
-0.049428
-0.0596613
-0.0641793
-0.0685712
-0.0730618
-0.0771123
-0.0795297
-0.0807852
-0.0816972
-0.0824326
-0.0829797
-0.0833258
-0.0835385
-0.0836927
-0.0838017
-0.0838742
-0.08392
-0.0839497
-0.083969
-0.0839812
-0.0839888
-0.0839934
-0.0839961
-0.0839975
-0.0839982
0.034465
0.0345493
0.0349626
0.0349896
0.0336288
0.0284536
0.0133718
-0.0204369
-0.0505194
-0.0599702
-0.0644306
-0.0688247
-0.0733105
-0.0772847
-0.079606
-0.0808313
-0.0817336
-0.0824601
-0.0829987
-0.0833374
-0.0835463
-0.0836981
-0.0838053
-0.0838765
-0.0839214
-0.0839506
-0.0839696
-0.0839816
-0.083989
-0.0839935
-0.0839961
-0.0839976
-0.0839982
0.0344787
0.0344922
0.034856
0.034733
0.0330044
0.0270434
0.0105412
-0.0246399
-0.0523982
-0.0605207
-0.0648868
-0.0692923
-0.0737914
-0.0776163
-0.0797666
-0.0809353
-0.0818172
-0.0825245
-0.0830404
-0.08336
-0.0835627
-0.0837099
-0.0838132
-0.0838814
-0.0839245
-0.0839526
-0.0839709
-0.0839824
-0.0839895
-0.0839938
-0.0839963
-0.0839977
-0.0839983
0.0345046
0.0346301
0.0349787
0.0346838
0.0324732
0.0251409
0.00468139
-0.0313594
-0.0548898
-0.0613691
-0.0656763
-0.0700831
-0.0745336
-0.0781005
-0.0799968
-0.0810892
-0.0819387
-0.0826163
-0.0831002
-0.083396
-0.0835872
-0.083727
-0.0838246
-0.0838885
-0.0839291
-0.0839556
-0.0839727
-0.0839836
-0.0839902
-0.0839942
-0.0839966
-0.0839979
-0.0839984
0.0344199
0.0346931
0.0349541
0.0343137
0.0311664
0.0214552
-0.00426092
-0.0398854
-0.0572794
-0.0624592
-0.0667415
-0.0711632
-0.0755117
-0.0786725
-0.0802784
-0.0812905
-0.0820997
-0.0827362
-0.0831755
-0.0834398
-0.0836192
-0.0837495
-0.0838394
-0.0838977
-0.083935
-0.0839593
-0.0839751
-0.083985
-0.0839911
-0.0839947
-0.0839969
-0.0839981
-0.0839986
0.0343164
0.0346843
0.0347414
0.0335694
0.0291946
0.0157435
-0.0161226
-0.0481424
-0.0592627
-0.0637732
-0.0680589
-0.0724968
-0.0766183
-0.0792558
-0.0805971
-0.0815349
-0.0822956
-0.082878
-0.0832615
-0.0834923
-0.0836578
-0.0837763
-0.0838569
-0.0839086
-0.0839419
-0.0839638
-0.0839779
-0.0839867
-0.0839921
-0.0839953
-0.0839973
-0.0839983
-0.0839988
0.0345231
0.0348664
0.0345107
0.0321796
0.0246532
0.00407715
-0.0313706
-0.0546987
-0.0611388
-0.0653655
-0.0697224
-0.0741082
-0.0777878
-0.0798225
-0.080952
-0.081818
-0.0825162
-0.083029
-0.0833509
-0.0835521
-0.0837001
-0.0838053
-0.0838755
-0.0839202
-0.0839494
-0.0839686
-0.0839809
-0.0839885
-0.0839932
-0.083996
-0.0839977
-0.0839986
-0.0839989
0.0347188
0.034816
0.0337132
0.0294068
0.0169877
-0.0127046
-0.0456914
-0.0584933
-0.0630816
-0.0672928
-0.0716853
-0.0758957
-0.0788541
-0.080354
-0.0813332
-0.0821245
-0.0827472
-0.0831772
-0.0834371
-0.0836148
-0.0837448
-0.0838353
-0.0838944
-0.0839323
-0.0839572
-0.0839736
-0.0839839
-0.0839903
-0.0839943
-0.0839967
-0.083998
-0.0839988
-0.0839991
0.0348015
0.0342778
0.0316648
0.0236952
0.00309698
-0.032558
-0.0549556
-0.0611537
-0.0653038
-0.0695971
-0.0739347
-0.0776384
-0.0797308
-0.080874
-0.0817422
-0.0824482
-0.0829771
-0.0833154
-0.083525
-0.0836789
-0.0837894
-0.0838645
-0.0839126
-0.083944
-0.0839649
-0.0839784
-0.0839869
-0.0839921
-0.0839954
-0.0839973
-0.0839984
-0.083999
-0.0839993
0.0347047
0.0331422
0.027706
0.0126101
-0.0196834
-0.0494022
-0.0594032
-0.0637191
-0.0678793
-0.0722028
-0.0763001
-0.0790438
-0.0804369
-0.0813824
-0.0821537
-0.082762
-0.083182
-0.0834367
-0.083612
-0.0837413
-0.0838319
-0.0838915
-0.0839299
-0.0839554
-0.0839722
-0.0839829
-0.0839896
-0.0839938
-0.0839964
-0.0839979
-0.0839988
-0.0839993
-0.0839995
0.0337621
0.0297121
0.0181841
-0.00954959
-0.0430228
-0.0577434
-0.0624925
-0.0666033
-0.0708803
-0.0750842
-0.0783288
-0.0800421
-0.0810725
-0.0818928
-0.0825584
-0.083046
-0.0833535
-0.0835482
-0.0836937
-0.0837984
-0.0838694
-0.0839152
-0.0839454
-0.0839655
-0.0839786
-0.0839869
-0.0839921
-0.0839953
-0.0839973
-0.0839984
-0.0839991
-0.0839995
-0.0839996
0.0307164
0.0209646
-0.0033375
-0.0377149
-0.0562376
-0.0615711
-0.0656217
-0.0698305
-0.0740612
-0.0776432
-0.0796847
-0.0808084
-0.0816669
-0.0823737
-0.082914
-0.0832705
-0.0834884
-0.0836485
-0.0837657
-0.0838472
-0.0839005
-0.0839353
-0.0839586
-0.0839741
-0.083984
-0.0839902
-0.0839941
-0.0839965
-0.083998
-0.0839989
-0.0839993
-0.0839996
-0.0839997
0.0237931
0.00251638
-0.0323587
-0.0545421
-0.0607878
-0.0647958
-0.0689077
-0.0731394
-0.0769534
-0.07932
-0.080561
-0.0814592
-0.082201
-0.0827846
-0.0831861
-0.083432
-0.0836042
-0.0837328
-0.0838242
-0.0838853
-0.0839249
-0.0839514
-0.0839693
-0.0839809
-0.0839882
-0.0839929
-0.0839957
-0.0839975
-0.0839986
-0.0839992
-0.0839995
-0.0839997
-0.0839998
0.00914104
-0.0244418
-0.0512008
-0.0596034
-0.0636945
-0.0677676
-0.0719768
-0.0759965
-0.0787821
-0.0802237
-0.0811824
-0.0819716
-0.0826102
-0.0830711
-0.0833583
-0.0835476
-0.0836907
-0.0837945
-0.0838653
-0.0839115
-0.0839422
-0.083963
-0.0839767
-0.0839856
-0.0839912
-0.0839947
-0.0839969
-0.0839982
-0.083999
-0.0839994
-0.0839997
-0.0839998
-0.0839999
-0.00623065
-0.0403153
-0.0567226
-0.0615327
-0.0655265
-0.0697279
-0.0739611
-0.0775203
-0.0795454
-0.0806696
-0.081543
-0.0822709
-0.0828356
-0.0832136
-0.0834451
-0.0836121
-0.083738
-0.0838272
-0.0838864
-0.0839251
-0.0839513
-0.083969
-0.0839806
-0.083988
-0.0839927
-0.0839956
-0.0839974
-0.0839985
-0.0839992
-0.0839995
-0.0839997
-0.0839998
-0.0839999
0.0328148
0.0338064
0.034636
0.0352859
0.0356875
0.0357419
0.0354343
0.0348461
0.0348199
0.0350767
0.0341133
0.0299229
0.0175436
-0.0156713
-0.0500185
-0.0607937
-0.0657483
-0.0705028
-0.0752134
-0.0787642
-0.0805413
-0.0816118
-0.0824224
-0.0830183
-0.0833856
-0.0836055
-0.0837536
-0.083851
-0.083911
-0.0839469
-0.0839683
-0.0839802
-0.0839854
0.0329788
0.0338684
0.0346649
0.0352996
0.0356971
0.0358167
0.0353718
0.0347699
0.0347645
0.0349797
0.0338954
0.0293582
0.0161156
-0.0180713
-0.0510258
-0.0610552
-0.0659514
-0.0706844
-0.0753933
-0.0788699
-0.0805961
-0.0816507
-0.0824514
-0.083037
-0.0833937
-0.0836122
-0.0837581
-0.0838539
-0.0839128
-0.0839481
-0.083969
-0.0839807
-0.0839858
0.0330065
0.0338799
0.0346795
0.0353923
0.035753
0.0357021
0.0352197
0.0348191
0.034893
0.0349287
0.0338245
0.0286843
0.0133084
-0.022242
-0.0529719
-0.0616251
-0.0664538
-0.071189
-0.0758248
-0.079103
-0.0807174
-0.0817391
-0.0825186
-0.0830803
-0.0834181
-0.0836274
-0.0837681
-0.0838602
-0.0839165
-0.0839503
-0.0839704
-0.0839816
-0.0839864
0.0332206
0.0340755
0.0348264
0.0354168
0.0358077
0.0356917
0.0351033
0.0346676
0.0349446
0.0348341
0.0331629
0.0271857
0.00888504
-0.0289915
-0.0553313
-0.062434
-0.0671661
-0.0718956
-0.0764369
-0.079416
-0.080885
-0.0818603
-0.0826082
-0.0831375
-0.0834499
-0.0836496
-0.0837828
-0.0838693
-0.0839219
-0.0839536
-0.0839724
-0.0839828
-0.0839874
0.0334347
0.0342678
0.0349728
0.0354905
0.0357828
0.0355414
0.0349028
0.034634
0.0349677
0.0346108
0.0322191
0.0244116
0.00121001
-0.0376352
-0.0576426
-0.0635015
-0.0681805
-0.0729091
-0.0772346
-0.0797969
-0.0811055
-0.0820252
-0.0827298
-0.0832125
-0.0834946
-0.0836787
-0.0838018
-0.083881
-0.0839288
-0.0839578
-0.083975
-0.0839845
-0.0839886
0.0337879
0.0346114
0.0352569
0.0356579
0.0357015
0.0352776
0.0346829
0.0347681
0.0349427
0.0341954
0.0308193
0.0197778
-0.00948324
-0.04632
-0.0597275
-0.0648384
-0.0695211
-0.0742243
-0.0781363
-0.0802158
-0.081373
-0.0822297
-0.0828773
-0.0832993
-0.0835471
-0.0837129
-0.0838239
-0.0838943
-0.0839368
-0.0839626
-0.0839779
-0.0839863
-0.08399
0.034043
0.0347855
0.0353622
0.0357444
0.0356298
0.0350598
0.0346288
0.0348017
0.03491
0.0334078
0.0277916
0.011887
-0.0246788
-0.0537293
-0.0617445
-0.0664626
-0.0711334
-0.0757164
-0.0790141
-0.0806441
-0.0816679
-0.0824537
-0.0830312
-0.083388
-0.0836035
-0.0837503
-0.0838479
-0.0839086
-0.0839454
-0.0839679
-0.0839811
-0.0839883
-0.0839915
0.0344233
0.0350761
0.0355216
0.0357252
0.0353935
0.0347947
0.034674
0.0349101
0.0345684
0.0317262
0.0226111
-0.00201026
-0.0404496
-0.0582208
-0.0637499
-0.0683606
-0.073027
-0.0772708
-0.0797865
-0.081078
-0.0819913
-0.0826969
-0.0831878
-0.0834752
-0.0836627
-0.0837896
-0.0838725
-0.0839232
-0.0839543
-0.0839732
-0.0839843
-0.0839903
-0.083993
0.0349532
0.0354723
0.0357029
0.0355381
0.0349879
0.0345933
0.0347918
0.0349258
0.0335139
0.0281598
0.0130581
-0.0225061
-0.0527356
-0.0613429
-0.0660043
-0.0706023
-0.0751949
-0.0786936
-0.0804611
-0.0815214
-0.0823314
-0.0829407
-0.0833322
-0.0835637
-0.0837215
-0.0838281
-0.083896
-0.0839374
-0.0839629
-0.0839784
-0.0839874
-0.0839923
-0.0839944
0.0352075
0.0355916
0.0357175
0.0353189
0.0347884
0.0347855
0.0349495
0.0342742
0.0312054
0.0210631
-0.00634079
-0.0435059
-0.0588144
-0.0640035
-0.0685297
-0.0731505
-0.0773252
-0.0797901
-0.0810618
-0.0819668
-0.0826707
-0.0831662
-0.0834585
-0.0836492
-0.0837789
-0.0838646
-0.0839179
-0.0839506
-0.0839709
-0.0839831
-0.0839902
-0.0839941
-0.0839957
0.0355385
0.0357609
0.0354871
0.0349298
0.0347739
0.0349834
0.0346112