/*--------------------------------*- C++ -*----------------------------------*\
| =========                 |                                                 |
| \\      /  F ield         | OpenFOAM: The Open Source CFD Toolbox           |
|  \\    /   O peration     | Version:  2312                                  |
|   \\  /    A nd           | Website:  www.openfoam.com                      |
|    \\/     M anipulation  |                                                 |
\*---------------------------------------------------------------------------*/
FoamFile
{
    version     2.0;
    format      ascii;
    arch        "LSB;label=32;scalar=64";
    class       volVectorField;
    location    "0.2";
    object      D_0_0_0;
}
// * * * * * * * * * * * * * * * * * * * * * * * * * * * * * * * * * * * * * //

dimensions      [0 1 0 0 0 0 0];

internalField   nonuniform List<vector> 
1620
(
(0.000282769 0.000268127 -0.000841211)
(0.000366919 0.000311034 -0.000749736)
(0.000380012 0.000354953 -0.000564082)
(0.000324587 0.000354816 -0.000324627)
(0.000225729 0.000292175 -8.13997e-05)
(0.000111435 0.000175443 0.000126263)
(1.3347e-06 2.70708e-05 0.000277214)
(-9.4174e-05 -0.000128234 0.000367772)
(-0.000170598 -0.000270194 0.000407112)
(-0.000226136 -0.00038529 0.000411968)
(-0.000259841 -0.000466582 0.00040215)
(-0.000271044 -0.000512269 0.000397068)
(-0.000259495 -0.000523685 0.000412996)
(-0.000225416 -0.000503502 0.000460675)
(-0.000168596 -0.000455516 0.000542637)
(-8.6747e-05 -0.000387398 0.00064969)
(2.32168e-05 -0.000315624 0.000758332)
(0.000155381 -0.000267478 0.000834345)
(0.000282769 -0.000268127 0.000841211)
(0.000366919 -0.000311034 0.000749736)
(0.000380012 -0.000354953 0.000564082)
(0.000324587 -0.000354816 0.000324627)
(0.000225729 -0.000292175 8.13997e-05)
(0.000111435 -0.000175443 -0.000126263)
(1.3347e-06 -2.70708e-05 -0.000277214)
(-9.4174e-05 0.000128234 -0.000367772)
(-0.000170598 0.000270194 -0.000407112)
(-0.000226136 0.00038529 -0.000411968)
(-0.000259841 0.000466582 -0.00040215)
(-0.000271044 0.000512269 -0.000397068)
(-0.000259495 0.000523685 -0.000412996)
(-0.000225416 0.000503502 -0.000460675)
(-0.000168596 0.000455516 -0.000542637)
(-8.6747e-05 0.000387398 -0.00064969)
(2.32168e-05 0.000315624 -0.000758332)
(0.000155381 0.000267478 -0.000834345)
(0.000143361 0.000366401 -0.000684298)
(0.000171126 0.000338272 -0.000591233)
(0.000164822 0.000312793 -0.000460065)
(0.000123031 0.000280364 -0.000306416)
(5.43469e-05 0.000232756 -0.000149092)
(-2.7392e-05 0.000168791 -3.87163e-06)
(-0.000109083 9.28797e-05 0.000119614)
(-0.000180839 1.17677e-05 0.000218514)
(-0.000235931 -6.81808e-05 0.000295768)
(-0.000270034 -0.000142628 0.000358163)
(-0.000280712 -0.000209806 0.000413928)
(-0.000267404 -0.000269968 0.000470245)
(-0.000231863 -0.000323841 0.00053106)
(-0.000178541 -0.000370504 0.00059565)
(-0.000114009 -0.000405859 0.000658379)
(-4.4736e-05 -0.00042349 0.000709722)
(2.51292e-05 -0.000419027 0.000738094)
(9.11547e-05 -0.000396202 0.000732299)
(0.000143361 -0.000366401 0.000684298)
(0.000171126 -0.000338272 0.000591233)
(0.000164822 -0.000312793 0.000460065)
(0.000123031 -0.000280364 0.000306416)
(5.43469e-05 -0.000232756 0.000149092)
(-2.7392e-05 -0.000168791 3.87163e-06)
(-0.000109083 -9.28797e-05 -0.000119614)
(-0.000180839 -1.17677e-05 -0.000218514)
(-0.000235931 6.81808e-05 -0.000295768)
(-0.000270034 0.000142628 -0.000358163)
(-0.000280712 0.000209806 -0.000413928)
(-0.000267404 0.000269968 -0.000470245)
(-0.000231863 0.000323841 -0.00053106)
(-0.000178541 0.000370504 -0.00059565)
(-0.000114009 0.000405859 -0.000658379)
(-4.4736e-05 0.00042349 -0.000709722)
(2.51292e-05 0.000419027 -0.000738094)
(9.11547e-05 0.000396202 -0.000732299)
(3.40015e-05 0.000413977 -0.000567202)
(2.12348e-05 0.000342291 -0.000481162)
(-1.37131e-06 0.000274713 -0.000396742)
(-3.52726e-05 0.00022735 -0.00031187)
(-8.25502e-05 0.000201372 -0.000221536)
(-0.00014066 0.0001891 -0.000122745)
(-0.000202427 0.000180328 -1.55716e-05)
(-0.000258621 0.000166013 9.77784e-05)
(-0.000300428 0.000139587 0.000214259)
(-0.00032099 9.68955e-05 0.000330703)
(-0.000316249 3.57595e-05 0.000443679)
(-0.000285526 -4.4033e-05 0.000548702)
(-0.000232155 -0.000139919 0.000639409)
(-0.000163944 -0.000245031 0.000707552)
(-9.25621e-05 -0.000346806 0.000744677)
(-3.07187e-05 -0.00042762 0.000745503)
(1.23236e-05 -0.000469521 0.000710932)
(3.31977e-05 -0.000462999 0.000647903)
(3.40015e-05 -0.000413977 0.000567202)
(2.12348e-05 -0.000342291 0.000481162)
(-1.37131e-06 -0.000274713 0.000396742)
(-3.52726e-05 -0.00022735 0.00031187)
(-8.25502e-05 -0.000201372 0.000221536)
(-0.00014066 -0.0001891 0.000122745)
(-0.000202427 -0.000180328 1.55716e-05)
(-0.000258621 -0.000166013 -9.77784e-05)
(-0.000300428 -0.000139587 -0.000214259)
(-0.00032099 -9.68955e-05 -0.000330703)
(-0.000316249 -3.57595e-05 -0.000443679)
(-0.000285526 4.4033e-05 -0.000548702)
(-0.000232155 0.000139919 -0.000639409)
(-0.000163944 0.000245031 -0.000707552)
(-9.25621e-05 0.000346806 -0.000744677)
(-3.07187e-05 0.00042762 -0.000745503)
(1.23236e-05 0.000469521 -0.000710932)
(3.31977e-05 0.000462999 -0.000647903)
(0.000910071 0.001014 -0.00218768)
(0.00111035 0.00101858 -0.00186924)
(0.00108085 0.00100687 -0.00137316)
(0.000851857 0.000918281 -0.000793215)
(0.000505464 0.00073068 -0.000220366)
(0.000121988 0.000457077 0.000275737)
(-0.000241918 0.000131079 0.000656616)
(-0.000553593 -0.000208183 0.000915303)
(-0.000796772 -0.000526763 0.00106978)
(-0.000963745 -0.000801245 0.00115363)
(-0.00105009 -0.00101961 0.00120681)
(-0.00105243 -0.00117887 0.00126767)
(-0.000968651 -0.00128062 0.00136643)
(-0.000799444 -0.00132628 0.00152018)
(-0.000549748 -0.00131531 0.00172836)
(-0.000229069 -0.00125049 0.0019667)
(0.000147815 -0.00114988 0.00217867)
(0.000551494 -0.00105443 0.00227727)
(0.000910071 -0.001014 0.00218768)
(0.00111035 -0.00101858 0.00186924)
(0.00108085 -0.00100687 0.00137316)
(0.000851857 -0.000918281 0.000793215)
(0.000505464 -0.00073068 0.000220367)
(0.000121988 -0.000457077 -0.000275737)
(-0.000241918 -0.000131079 -0.000656616)
(-0.000553593 0.000208183 -0.000915303)
(-0.000796772 0.000526763 -0.00106978)
(-0.000963745 0.000801245 -0.00115363)
(-0.00105009 0.00101961 -0.00120681)
(-0.00105243 0.00117887 -0.00126767)
(-0.000968651 0.00128062 -0.00136643)
(-0.000799444 0.00132628 -0.00152018)
(-0.000549748 0.00131531 -0.00172836)
(-0.000229069 0.00125049 -0.0019667)
(0.000147815 0.00114988 -0.00217867)
(0.000551494 0.00105443 -0.00227727)
(0.0005852 0.00111499 -0.00197715)
(0.000674487 0.00100666 -0.00171403)
(0.000638168 0.0009045 -0.00134548)
(0.000478836 0.000786713 -0.000915202)
(0.000235457 0.000636832 -0.000470751)
(-4.41003e-05 0.000451036 -5.29236e-05)
(-0.000318695 0.000236762 0.000311389)
(-0.00055801 7.65677e-06 0.000611961)
(-0.000741431 -0.000221942 0.000853706)
(-0.000855696 -0.000441112 0.00105213)
(-0.000893094 -0.000644064 0.00122722)
(-0.000850918 -0.000829199 0.00139709)
(-0.000732251 -0.000995702 0.00157216)
(-0.000547537 -0.00113879 0.00175139)
(-0.000315608 -0.00124624 0.00192123)
(-6.20375e-05 -0.00130051 0.00205812)
(0.000186821 -0.00128909 0.00213274)
(0.000410336 -0.00121727 0.00211378)
(0.0005852 -0.00111499 0.00197715)
(0.000674487 -0.00100666 0.00171403)
(0.000638168 -0.0009045 0.00134548)
(0.000478836 -0.000786713 0.000915202)
(0.000235457 -0.000636832 0.000470751)
(-4.41003e-05 -0.000451036 5.29236e-05)
(-0.000318695 -0.000236762 -0.000311389)
(-0.00055801 -7.65677e-06 -0.000611961)
(-0.000741431 0.000221942 -0.000853706)
(-0.000855696 0.000441112 -0.00105213)
(-0.000893094 0.000644064 -0.00122722)
(-0.000850918 0.000829199 -0.00139709)
(-0.000732251 0.000995702 -0.00157216)
(-0.000547537 0.00113879 -0.00175139)
(-0.000315608 0.00124624 -0.00192123)
(-6.20375e-05 0.00130051 -0.00205812)
(0.000186821 0.00128909 -0.00213274)
(0.000410336 0.00121727 -0.00211378)
(0.000298268 0.00115257 -0.00175812)
(0.000294473 0.000961837 -0.00154904)
(0.000249516 0.000792309 -0.00130375)
(0.000151165 0.00065868 -0.00101806)
(1.23854e-06 0.000552311 -0.000697535)
(-0.000183362 0.000455692 -0.000355278)
(-0.000377103 0.000352224 -6.72233e-06)
(-0.000552437 0.000230635 0.000334903)
(-0.000684688 8.53487e-05 0.000661202)
(-0.000755103 -8.52665e-05 0.000968626)
(-0.0007526 -0.000280652 0.00125606)
(-0.000675001 -0.00049825 0.00152094)
(-0.000530355 -0.000731433 0.00175526)
(-0.000338261 -0.000965649 0.00194356)
(-0.000129774 -0.00117486 0.00206515)
(5.7423e-05 -0.00132251 0.00210249)
(0.00019227 -0.0013721 0.00205283)
(0.00026752 -0.00130665 0.00193186)
(0.000298268 -0.00115257 0.00175812)
(0.000294473 -0.000961837 0.00154904)
(0.000249516 -0.000792309 0.00130375)
(0.000151165 -0.00065868 0.00101806)
(1.23854e-06 -0.000552311 0.000697535)
(-0.000183362 -0.000455692 0.000355278)
(-0.000377103 -0.000352224 6.72233e-06)
(-0.000552437 -0.000230635 -0.000334903)
(-0.000684688 -8.53487e-05 -0.000661202)
(-0.000755103 8.52665e-05 -0.000968626)
(-0.0007526 0.000280652 -0.00125606)
(-0.000675001 0.00049825 -0.00152094)
(-0.000530355 0.000731433 -0.00175526)
(-0.000338261 0.000965649 -0.00194356)
(-0.000129774 0.00117486 -0.00206515)
(5.7423e-05 0.00132251 -0.00210249)
(0.00019227 0.0013721 -0.00205283)
(0.00026752 0.00130665 -0.00193186)
(0.00175604 0.00197346 -0.00328315)
(0.00195392 0.00185964 -0.00277197)
(0.00175368 0.0016821 -0.00203528)
(0.00125649 0.00141718 -0.00119875)
(0.000595727 0.00105679 -0.000378806)
(-0.00010793 0.000614402 0.000338606)
(-0.000765831 0.000122914 0.000905595)
(-0.00132279 -0.000375989 0.00131277)
(-0.00174893 -0.000843907 0.00158265)
(-0.00202914 -0.00125352 0.00175866)
(-0.0021545 -0.00159087 0.0018929)
(-0.00211755 -0.00185307 0.00203512)
(-0.00191168 -0.00204325 0.0022234)
(-0.00153413 -0.00216497 0.00247684)
(-0.000992086 -0.00221945 0.00278947)
(-0.000312124 -0.0022094 0.00312316)
(0.000446779 -0.00214836 0.00339764)
(0.00118137 -0.00206089 0.00348687)
(0.00175604 -0.00197346 0.00328315)
(0.00195392 -0.00185964 0.00277197)
(0.00175368 -0.0016821 0.00203528)
(0.00125649 -0.00141718 0.00119875)
(0.000595727 -0.00105679 0.000378806)
(-0.00010793 -0.000614402 -0.000338606)
(-0.000765831 -0.000122914 -0.000905595)
(-0.00132279 0.000375989 -0.00131277)
(-0.00174893 0.000843907 -0.00158265)
(-0.00202914 0.00125352 -0.00175866)
(-0.0021545 0.00159087 -0.0018929)
(-0.00211755 0.00185307 -0.00203512)
(-0.00191168 0.00204325 -0.0022234)
(-0.00153413 0.00216497 -0.00247684)
(-0.000992086 0.00221945 -0.00278947)
(-0.000312124 0.0022094 -0.00312316)
(0.000446779 0.00214836 -0.00339764)
(0.00118137 0.00206089 -0.00348687)
(0.00124075 0.00187904 -0.00302832)
(0.00133637 0.00167934 -0.00261862)
(0.00119823 0.00146759 -0.00206354)
(0.000866695 0.00123589 -0.00141946)
(0.000412359 0.000970359 -0.000749059)
(-9.05035e-05 0.000663611 -0.000109205)
(-0.000577393 0.000321058 0.000460097)
(-0.000998741 -4.19771e-05 0.000941029)
(-0.00131974 -0.000407066 0.00133705)
(-0.00151773 -0.000758693 0.00166715)
(-0.00157933 -0.00108718 0.00195752)
(-0.00149898 -0.00138795 0.00223243)
(-0.00127918 -0.00165751 0.00250607)
(-0.000932481 -0.00188772 0.00277685)
(-0.000484102 -0.00206154 0.00302562)
(2.53164e-05 -0.00215539 0.00321815)
(0.000535976 -0.00215116 0.00331085)
(0.000964327 -0.00205019 0.00325859)
(0.00124075 -0.00187904 0.00302832)
(0.00133637 -0.00167934 0.00261862)
(0.00119823 -0.00146759 0.00206354)
(0.000866695 -0.00123589 0.00141946)
(0.000412359 -0.000970359 0.000749059)
(-9.05035e-05 -0.000663611 0.000109205)
(-0.000577393 -0.000321058 -0.000460097)
(-0.000998741 4.19771e-05 -0.000941029)
(-0.00131974 0.000407066 -0.00133705)
(-0.00151773 0.000758693 -0.00166715)
(-0.00157933 0.00108718 -0.00195752)
(-0.00149898 0.00138795 -0.00223243)
(-0.00127918 0.00165751 -0.00250607)
(-0.000932481 0.00188772 -0.00277685)
(-0.000484102 0.00206154 -0.00302562)
(2.53164e-05 0.00215539 -0.00321815)
(0.000535976 0.00215116 -0.00331085)
(0.000964327 0.00205019 -0.00325859)
(0.000776649 0.00176177 -0.00273772)
(0.000784251 0.00148967 -0.00243462)
(0.000699016 0.00124631 -0.00205428)
(0.000520598 0.00104147 -0.001596)
(0.000262126 0.000861395 -0.00107483)
(-4.83621e-05 0.000682154 -0.000518039)
(-0.00037159 0.000483094 4.46133e-05)
(-0.000664629 0.000252372 0.000588839)
(-0.000888356 -1.32322e-05 0.00109969)
(-0.00101275 -0.000311195 0.00157117)
(-0.00102002 -0.000635968 0.00200241)
(-0.000906398 -0.000979479 0.00239166)
(-0.000683455 -0.0013286 0.00273035)
(-0.000378788 -0.00166032 0.0029997)
(-3.50715e-05 -0.00193772 0.00317295)
(0.00029408 -0.00211261 0.00322563)
(0.000553321 -0.00214103 0.00315202)
(0.000704778 -0.00200942 0.00297783)
(0.000776649 -0.00176177 0.00273772)
(0.000784251 -0.00148967 0.00243462)
(0.000699016 -0.00124631 0.00205428)
(0.000520598 -0.00104147 0.001596)
(0.000262126 -0.000861395 0.00107483)
(-4.83621e-05 -0.000682154 0.000518039)
(-0.00037159 -0.000483094 -4.46133e-05)
(-0.000664629 -0.000252372 -0.000588839)
(-0.000888356 1.32322e-05 -0.00109969)
(-0.00101275 0.000311195 -0.00157117)
(-0.00102002 0.000635968 -0.00200241)
(-0.000906398 0.000979479 -0.00239166)
(-0.000683455 0.0013286 -0.00273035)
(-0.000378788 0.00166032 -0.0029997)
(-3.50715e-05 0.00193772 -0.00317295)
(0.00029408 0.00211261 -0.00322563)
(0.000553321 0.00214103 -0.00315202)
(0.000704778 0.00200942 -0.00297783)
(0.00247536 0.00292972 -0.00398186)
(0.00259438 0.00258695 -0.00335912)
(0.00219713 0.00218329 -0.00250372)
(0.001429 0.00171669 -0.00153846)
(0.000460988 0.00118019 -0.00057957)
(-0.000551581 0.000582358 0.00028166)
(-0.00148982 -4.9534e-05 0.000990191)
(-0.00227593 -0.000678264 0.00153097)
(-0.00286586 -0.00126821 0.00192364)
(-0.00323665 -0.0017934 0.0022113)
(-0.00337461 -0.00224022 0.00244734)
(-0.00326785 -0.00260574 0.00268288)
(-0.00290516 -0.00289328 0.00295591)
(-0.00228192 -0.00310744 0.00328209)
(-0.00141328 -0.00325032 0.00364687)
(-0.000353159 -0.0033195 0.00399959)
(0.000785008 -0.00330483 0.00425139)
(0.00181107 -0.00318166 0.00428203)
(0.00247536 -0.00292972 0.00398186)
(0.00259438 -0.00258695 0.00335912)
(0.00219713 -0.00218329 0.00250372)
(0.001429 -0.00171669 0.00153846)
(0.000460988 -0.00118019 0.00057957)
(-0.000551581 -0.000582358 -0.00028166)
(-0.00148982 4.9534e-05 -0.000990191)
(-0.00227593 0.000678264 -0.00153097)
(-0.00286586 0.00126821 -0.00192364)
(-0.00323665 0.0017934 -0.0022113)
(-0.00337461 0.00224022 -0.00244734)
(-0.00326785 0.00260574 -0.00268288)
(-0.00290516 0.00289328 -0.00295591)
(-0.00228192 0.00310744 -0.00328209)
(-0.00141328 0.00325032 -0.00364687)
(-0.000353159 0.0033195 -0.00399959)
(0.000785008 0.00330483 -0.00425139)
(0.00181107 0.00318166 -0.00428203)
(0.00183571 0.00259233 -0.00373735)
(0.00187795 0.00226839 -0.00322947)
(0.00161277 0.00192621 -0.00255942)
(0.00110945 0.00156672 -0.00178225)
(0.000457114 0.00117654 -0.000964447)
(-0.000250833 0.000747286 -0.000170368)
(-0.000930365 0.00028306 0.000551431)
(-0.00151474 -0.000201317 0.00117594)
(-0.00195603 -0.000686486 0.00170197)
(-0.00222271 -0.00115467 0.00214664)
(-0.002296 -0.00159315 0.00253634)
(-0.00216749 -0.00199413 0.00289645)
(-0.00183926 -0.00235122 0.00324184)
(-0.00132691 -0.00265417 0.00356996)
(-0.000664789 -0.00288432 0.00385819)
(8.78925e-05 -0.00301457 0.00406661)
(0.000840612 -0.00301504 0.0041452)
(0.00146717 -0.00286603 0.00404544)
(0.00183571 -0.00259233 0.00373735)
(0.00187795 -0.00226839 0.00322947)
(0.00161277 -0.00192621 0.00255942)
(0.00110945 -0.00156672 0.00178225)
(0.000457114 -0.00117654 0.000964447)
(-0.000250833 -0.000747286 0.000170368)
(-0.000930365 -0.00028306 -0.000551431)
(-0.00151474 0.000201317 -0.00117594)
(-0.00195603 0.000686486 -0.00170197)
(-0.00222271 0.00115467 -0.00214664)
(-0.002296 0.00159315 -0.00253634)
(-0.00216749 0.00199413 -0.00289645)
(-0.00183926 0.00235122 -0.00324184)
(-0.00132691 0.00265417 -0.00356996)
(-0.000664789 0.00288432 -0.00385819)
(8.78925e-05 0.00301457 -0.00406661)
(0.000840612 0.00301504 -0.0041452)
(0.00146717 0.00286603 -0.00404544)
(0.00121279 0.00231453 -0.00349166)
(0.00120618 0.00199928 -0.00310042)
(0.00107591 0.00169794 -0.00260121)
(0.000828975 0.00142078 -0.00199927)
(0.000482554 0.00115443 -0.00131898)
(7.08873e-05 0.000877427 -0.000597107)
(-0.00035714 0.000571303 0.000127784)
(-0.000746692 0.000226567 0.000823882)
(-0.00104666 -0.000156556 0.00147074)
(-0.00121722 -0.000570773 0.00205941)
(-0.00123464 -0.00100494 0.00258831)
(-0.00109393 -0.00144525 0.00305651)
(-0.000810332 -0.00187317 0.00345675)
(-0.000419161 -0.00226102 0.00377163)
(2.72738e-05 -0.00256895 0.00397611)
(0.000466873 -0.00274896 0.00404732)
(0.000838081 -0.00276051 0.00397789)
(0.0010924 -0.00259812 0.00378376)
(0.00121279 -0.00231453 0.00349166)
(0.00120618 -0.00199928 0.00310042)
(0.00107591 -0.00169794 0.00260121)
(0.000828975 -0.00142078 0.00199927)
(0.000482554 -0.00115443 0.00131898)
(7.08873e-05 -0.000877427 0.000597107)
(-0.00035714 -0.000571303 -0.000127784)
(-0.000746692 -0.000226567 -0.000823882)
(-0.00104666 0.000156556 -0.00147074)
(-0.00121722 0.000570773 -0.00205941)
(-0.00123464 0.00100494 -0.00258831)
(-0.00109393 0.00144525 -0.00305651)
(-0.000810332 0.00187317 -0.00345675)
(-0.000419161 0.00226102 -0.00377163)
(2.72738e-05 0.00256895 -0.00397611)
(0.000466873 0.00274896 -0.00404732)
(0.000838081 0.00276051 -0.00397789)
(0.0010924 0.00259812 -0.00378376)
(0.00268577 0.00369051 -0.00427642)
(0.00275674 0.00313649 -0.00363469)
(0.00224887 0.00250368 -0.00277822)
(0.00130067 0.00182361 -0.00180031)
(0.00010642 0.00110696 -0.000801781)
(-0.00114443 0.00036226 0.0001299)
(-0.00230139 -0.000392517 0.000935195)
(-0.00326331 -0.00113085 0.00158981)
(-0.00397173 -0.00182519 0.00210288)
(-0.00439602 -0.00245396 0.00250795)
(-0.00451821 -0.0030044 0.00285047)
(-0.00432322 -0.00347134 0.00317516)
(-0.00379832 -0.0038533 0.00351434)
(-0.00294385 -0.00414726 0.00387753)
(-0.00179586 -0.00434357 0.00424261)
(-0.000454474 -0.00442238 0.00455123)
(0.00089898 -0.00435423 0.00471488)
(0.00202251 -0.00411054 0.0046409)
(0.00268577 -0.00369051 0.00427642)
(0.00275674 -0.00313649 0.00363469)
(0.00224887 -0.00250368 0.00277822)
(0.00130067 -0.00182361 0.00180031)
(0.00010642 -0.00110696 0.000801781)
(-0.00114443 -0.00036226 -0.0001299)
(-0.00230139 0.000392517 -0.000935195)
(-0.00326331 0.00113085 -0.00158981)
(-0.00397173 0.00182519 -0.00210288)
(-0.00439602 0.00245396 -0.00250795)
(-0.00451821 0.0030044 -0.00285047)
(-0.00432322 0.00347134 -0.00317516)
(-0.00379832 0.0038533 -0.00351434)
(-0.00294385 0.00414726 -0.00387753)
(-0.00179586 0.00434357 -0.00424261)
(-0.000454474 0.00442238 -0.00455123)
(0.00089898 0.00435423 -0.00471488)
(0.00202251 0.00411054 -0.0046409)
(0.00197154 0.00321625 -0.00409824)
(0.00200483 0.00276992 -0.00354746)
(0.00167721 0.00227935 -0.00283183)
(0.00106204 0.00176802 -0.00200088)
(0.000267286 0.00123645 -0.00111588)
(-0.000592929 0.000679368 -0.000239622)
(-0.00141612 9.81872e-05 0.000576173)
(-0.00212043 -0.00049598 0.00130013)
(-0.00264669 -0.00108595 0.00192384)
(-0.00295587 -0.00165384 0.00245806)
(-0.00302479 -0.00218479 0.00292441)
(-0.0028433 -0.00266748 0.00334506)
(-0.00241482 -0.00309118 0.00373278)
(-0.00176134 -0.0034408 0.0040834)
(-0.000932312 -0.00369261 0.00437298)
(-1.39624e-05 -0.00381494 0.00456106)
(0.000868845 -0.00377738 0.00460043)
(0.0015714 -0.00356916 0.00445207)
(0.00197154 -0.00321625 0.00409824)
(0.00200483 -0.00276992 0.00354746)
(0.00167721 -0.00227935 0.00283183)
(0.00106204 -0.00176802 0.00200088)
(0.000267286 -0.00123645 0.00111588)
(-0.000592929 -0.000679368 0.000239622)
(-0.00141612 -9.81872e-05 -0.000576173)
(-0.00212043 0.00049598 -0.00130013)
(-0.00264669 0.00108595 -0.00192384)
(-0.00295587 0.00165384 -0.00245806)
(-0.00302479 0.00218479 -0.00292441)
(-0.0028433 0.00266748 -0.00334506)
(-0.00241482 0.00309118 -0.00373278)
(-0.00176134 0.0034408 -0.0040834)
(-0.000932312 0.00369261 -0.00437298)
(-1.39624e-05 0.00381494 -0.00456106)
(0.000868845 0.00377738 -0.00460043)
(0.0015714 0.00356916 -0.00445207)
(0.00127313 0.00281604 -0.00396523)
(0.00128428 0.00247699 -0.00350574)
(0.00114076 0.00211452 -0.00291605)
(0.000854095 0.00174843 -0.00221485)
(0.000450831 0.00137713 -0.00143331)
(-2.70439e-05 0.000987934 -0.000611282)
(-0.000523978 0.000568024 0.000210083)
(-0.000977598 0.000111742 0.000995807)
(-0.00132853 -0.000377139 0.00172212)
(-0.00152968 -0.000887303 0.00237743)
(-0.00155294 -0.00140319 0.00295883)
(-0.00139303 -0.00190674 0.00346549)
(-0.00106924 -0.002376 0.00389166)
(-0.000624233 -0.00278171 0.00422326)
(-0.00011867 -0.00308614 0.00444064)
(0.000378741 -0.00324995 0.00452698)
(0.000803967 -0.00324861 0.00447559)
(0.00111002 -0.00309031 0.00428812)
(0.00127313 -0.00281604 0.00396523)
(0.00128428 -0.00247699 0.00350574)
(0.00114076 -0.00211452 0.00291605)
(0.000854095 -0.00174843 0.00221485)
(0.000450831 -0.00137713 0.00143331)
(-2.70439e-05 -0.000987934 0.000611282)
(-0.000523978 -0.000568024 -0.000210083)
(-0.000977598 -0.000111742 -0.000995807)
(-0.00132853 0.000377139 -0.00172212)
(-0.00152968 0.000887303 -0.00237743)
(-0.00155294 0.00140319 -0.00295883)
(-0.00139303 0.00190674 -0.00346549)
(-0.00106924 0.002376 -0.00389166)
(-0.000624233 0.00278171 -0.00422326)
(-0.00011867 0.00308614 -0.00444064)
(0.000378741 0.00324995 -0.00452698)
(0.000803967 0.00324861 -0.00447559)
(0.00111002 0.00309031 -0.00428812)
(0.00233848 0.00421982 -0.00428288)
(0.00237013 0.00347252 -0.00367052)
(0.0018221 0.00263749 -0.00287701)
(0.000810612 0.00176369 -0.00196335)
(-0.000480646 0.000878494 -0.00100189)
(-0.00185185 -4.44824e-06 -6.52939e-05)
(-0.00313037 -0.000872979 0.000787291)
(-0.00419279 -0.00171073 0.0015216)
(-0.00496475 -0.0024989 0.00213209)
(-0.0054065 -0.00322046 0.00263727)
(-0.00549583 -0.00386234 0.00306946)
(-0.00521726 -0.00441433 0.00346263)
(-0.00456335 -0.00486538 0.00384023)
(-0.00355053 -0.00519897 0.00420425)
(-0.00224594 -0.00539017 0.00452778)
(-0.00078996 -0.00540723 0.00475623)
(0.00060878 -0.00522071 0.0048224)
(0.00171665 -0.00481865 0.00467175)
(0.00233848 -0.00421982 0.00428288)
(0.00237013 -0.00347252 0.00367052)
(0.0018221 -0.00263749 0.00287701)
(0.000810612 -0.00176369 0.00196335)
(-0.000480646 -0.000878494 0.00100189)
(-0.00185185 4.44824e-06 6.52939e-05)
(-0.00313037 0.000872979 -0.000787291)
(-0.00419279 0.00171073 -0.0015216)
(-0.00496475 0.0024989 -0.00213209)
(-0.0054065 0.00322046 -0.00263727)
(-0.00549583 0.00386234 -0.00306946)
(-0.00521726 0.00441433 -0.00346263)
(-0.00456335 0.00486538 -0.00384023)
(-0.00355053 0.00519897 -0.00420425)
(-0.00224594 0.00539017 -0.00452778)
(-0.00078996 0.00540723 -0.00475623)
(0.00060878 0.00522071 -0.0048224)
(0.00171665 0.00481865 -0.00467175)
(0.00164476 0.00367455 -0.00415555)
(0.00166214 0.00310717 -0.00360723)
(0.0013093 0.00247606 -0.00290621)
(0.000651534 0.00181639 -0.00209019)
(-0.000205535 0.00114337 -0.00120857)
(-0.00114075 0.000459873 -0.000316414)
(-0.00203952 -0.000232153 0.000535798)
(-0.00280774 -0.000924923 0.00131204)
(-0.00337657 -0.00160452 0.00199587)
(-0.00370059 -0.00225418 0.00258923)
(-0.0037535 -0.00285756 0.00310586)
(-0.00352529 -0.00339942 0.00356173)
(-0.00302388 -0.00386322 0.00396518)
(-0.00228175 -0.00422711 0.0043098)
(-0.00136535 -0.00446193 0.00457248)
(-0.000380013 -0.00453564 0.00471842)
(0.000538795 -0.00442497 0.00471169)
(0.00125101 -0.00412906 0.0045268)
(0.00164476 -0.00367455 0.00415555)
(0.00166214 -0.00310717 0.00360723)
(0.0013093 -0.00247606 0.00290621)
(0.000651534 -0.00181639 0.00209019)
(-0.000205535 -0.00114337 0.00120857)
(-0.00114075 -0.000459873 0.000316414)
(-0.00203952 0.000232153 -0.000535798)
(-0.00280774 0.000924923 -0.00131204)
(-0.00337657 0.00160452 -0.00199587)
(-0.00370059 0.00225418 -0.00258923)
(-0.0037535 0.00285756 -0.00310586)
(-0.00352529 0.00339942 -0.00356173)
(-0.00302388 0.00386322 -0.00396518)
(-0.00228175 0.00422711 -0.0043098)
(-0.00136535 0.00446193 -0.00457248)
(-0.000380013 0.00453564 -0.00471842)
(0.000538795 0.00442497 -0.00471169)
(0.00125101 0.00412906 -0.0045268)
(0.000962893 0.00320955 -0.00411023)
(0.000977871 0.00282994 -0.00362622)
(0.000823905 0.00239795 -0.00300455)
(0.000516265 0.00193658 -0.00226846)
(8.56606e-05 0.00145508 -0.00145242)
(-0.0004224 0.000952114 -0.000597034)
(-0.000949694 0.000423022 0.000256902)
(-0.00143099 -0.000132972 0.00107423)
(-0.00180327 -0.00070909 0.00182975)
(-0.00201589 -0.00129156 0.0025096)
(-0.00203875 -0.00186235 0.00310864)
(-0.00186735 -0.00240098 0.00362472)
(-0.0015244 -0.00288387 0.00405253)
(-0.00105696 -0.00328234 0.00438096)
(-0.000528456 -0.00356381 0.00459555)
(-7.0325e-06 -0.00369949 0.00468348)
(0.000445361 -0.0036762 0.00463603)
(0.000779757 -0.0035035 0.0044467)
(0.000962893 -0.00320955 0.00411023)
(0.000977871 -0.00282994 0.00362622)
(0.000823905 -0.00239795 0.00300455)
(0.000516265 -0.00193658 0.00226846)
(8.56606e-05 -0.00145508 0.00145242)
(-0.0004224 -0.000952114 0.000597034)
(-0.000949694 -0.000423022 -0.000256902)
(-0.00143099 0.000132972 -0.00107423)
(-0.00180327 0.00070909 -0.00182975)
(-0.00201589 0.00129156 -0.0025096)
(-0.00203875 0.00186235 -0.00310864)
(-0.00186735 0.00240098 -0.00362472)
(-0.0015244 0.00288387 -0.00405253)
(-0.00105696 0.00328234 -0.00438096)
(-0.000528456 0.00356381 -0.00459555)
(-7.0325e-06 0.00369949 -0.00468348)
(0.000445361 0.0036762 -0.00463603)
(0.000779757 0.0035035 -0.0044467)
(0.00147564 0.00454863 -0.0040899)
(0.00148526 0.00362922 -0.00353944)
(0.000953217 0.00262341 -0.00284077)
(-2.64403e-05 0.0015863 -0.00203)
(-0.00129486 0.000554071 -0.00115293)
(-0.00266485 -0.000454653 -0.00026311)
(-0.00396023 -0.0014295 0.000586417)
(-0.0050441 -0.00235992 0.00135506)
(-0.00582721 -0.00323257 0.00202346)
(-0.00625919 -0.00403263 0.00259422)
(-0.00631345 -0.0047449 0.00308498)
(-0.00597732 -0.00535254 0.00351734)
(-0.00525504 -0.00583399 0.00390498)
(-0.00418427 -0.0061605 0.00424387)
(-0.00285757 -0.00629741 0.00450866)
(-0.00143091 -0.00621161 0.00465887)
(-0.0001048 -0.00588362 0.00465347)
(0.000917519 -0.00531836 0.00446569)
(0.00147564 -0.00454863 0.0040899)
(0.00148526 -0.00362922 0.00353944)
(0.000953217 -0.00262341 0.00284077)
(-2.64403e-05 -0.0015863 0.00203)
(-0.00129486 -0.000554071 0.00115293)
(-0.00266485 0.000454653 0.00026311)
(-0.00396023 0.0014295 -0.000586417)
(-0.0050441 0.00235992 -0.00135506)
(-0.00582721 0.00323257 -0.00202346)
(-0.00625919 0.00403263 -0.00259422)
(-0.00631345 0.0047449 -0.00308498)
(-0.00597732 0.00535254 -0.00351734)
(-0.00525504 0.00583399 -0.00390498)
(-0.00418427 0.0061605 -0.00424387)
(-0.00285757 0.00629741 -0.00450866)
(-0.00143091 0.00621161 -0.00465887)
(-0.0001048 0.00588362 -0.00465347)
(0.000917519 0.00531836 -0.00446569)
(0.000890717 0.00396895 -0.00398456)
(0.000895606 0.0032776 -0.00347337)
(0.00054723 0.00251489 -0.00282862)
(-9.81806e-05 0.00172053 -0.00207591)
(-0.000945465 0.000918305 -0.00125079)
(-0.00187912 0.000118424 -0.000397077)
(-0.0027835 -0.000674395 0.000439853)
(-0.00355891 -0.00145345 0.00122217)
(-0.00412992 -0.00220702 0.00192663)
(-0.00444616 -0.00291933 0.00254605)
(-0.00447937 -0.00357265 0.00308507)
(-0.00422152 -0.00414785 0.00355181)
(-0.003687 -0.00462256 0.00394911)
(-0.00291894 -0.00496898 0.00426871)
(-0.00199518 -0.0051551 0.00449111)
(-0.00102673 -0.0051519 0.00459131)
(-0.0001438 -0.00494435 0.00454703)
(0.000527663 -0.00453987 0.0043453)
(0.000890717 -0.00396895 0.00398456)
(0.000895606 -0.0032776 0.00347337)
(0.00054723 -0.00251489 0.00282862)
(-9.81806e-05 -0.00172053 0.00207591)
(-0.000945465 -0.000918305 0.00125079)
(-0.00187912 -0.000118424 0.000397077)
(-0.0027835 0.000674395 -0.000439853)
(-0.00355891 0.00145345 -0.00122217)
(-0.00412992 0.00220702 -0.00192663)
(-0.00444616 0.00291933 -0.00254605)
(-0.00447937 0.00357265 -0.00308507)
(-0.00422152 0.00414785 -0.00355181)
(-0.003687 0.00462256 -0.00394911)
(-0.00291894 0.00496898 -0.00426871)
(-0.00199518 0.0051551 -0.00449111)
(-0.00102673 0.0051519 -0.00459131)
(-0.0001438 0.00494435 -0.00454703)
(0.000527663 0.00453987 -0.0043453)
(0.000310137 0.00347476 -0.00399264)
(0.000320137 0.00302593 -0.00352048)
(0.000159339 0.00250934 -0.00291714)
(-0.000154216 0.0019496 -0.00220428)
(-0.000587288 0.00136245 -0.00141372)
(-0.00109346 0.000755144 -0.000582961)
(-0.0016155 0.000130515 0.000250046)
(-0.00209 -0.000507456 0.00105175)
(-0.00245536 -0.00114971 0.00179664)
(-0.00266155 -0.00178142 0.00246874)
(-0.00267905 -0.00238369 0.00305984)
(-0.00250441 -0.00293502 0.00356507)
(-0.00216152 -0.0034112 0.0039782)
(-0.00169754 -0.00378482 0.00428983)
(-0.00117404 -0.00402777 0.00448909)
(-0.000656395 -0.00411809 0.00456624)
(-0.000205298 -0.00404764 0.00451337)
(0.000128871 -0.00382547 0.00432375)
(0.000310137 -0.00347476 0.00399264)
(0.000320137 -0.00302593 0.00352048)
(0.000159339 -0.00250934 0.00291714)
(-0.000154216 -0.0019496 0.00220428)
(-0.000587288 -0.00136245 0.00141372)
(-0.00109346 -0.000755144 0.000582961)
(-0.0016155 -0.000130515 -0.000250045)
(-0.00209 0.000507456 -0.00105175)
(-0.00245536 0.00114971 -0.00179664)
(-0.00266155 0.00178142 -0.00246874)
(-0.00267905 0.00238369 -0.00305984)
(-0.00250441 0.00293502 -0.00356507)
(-0.00216152 0.0034112 -0.0039782)
(-0.00169754 0.00378482 -0.00428983)
(-0.00117404 0.00402777 -0.00448909)
(-0.000656395 0.00411809 -0.00456624)
(-0.000205298 0.00404764 -0.00451337)
(0.000128871 0.00382547 -0.00432375)
(0.000189442 0.00472081 -0.00377678)
(0.000194658 0.00366399 -0.00330808)
(-0.000278184 0.00252437 -0.00271758)
(-0.0011568 0.00135836 -0.00202445)
(-0.00231205 0.000205775 -0.00125538)
(-0.00358234 -0.000911149 -0.000447249)
(-0.00480418 -0.00198087 0.000355904)
(-0.00583928 -0.00299385 0.00111245)
(-0.00658895 -0.00393779 0.0017938)
(-0.00699326 -0.00479695 0.00238939)
(-0.00702173 -0.00555257 0.00290342)
(-0.00666643 -0.00618175 0.00334585)
(-0.00594497 -0.00665548 0.00372202)
(-0.00491239 -0.00693868 0.00402553)
(-0.00367244 -0.00699511 0.00423777)
(-0.0023748 -0.00679726 0.00433454)
(-0.00119379 -0.00633694 0.00429516)
(-0.000296187 -0.00563113 0.00410898)
(0.000189442 -0.00472081 0.00377678)