/*--------------------------------*- C++ -*----------------------------------*\
| =========                 |                                                 |
| \\      /  F ield         | OpenFOAM: The Open Source CFD Toolbox           |
|  \\    /   O peration     | Version:  2312                                  |
|   \\  /    A nd           | Website:  www.openfoam.com                      |
|    \\/     M anipulation  |                                                 |
\*---------------------------------------------------------------------------*/
FoamFile
{
    version     2.0;
    format      ascii;
    arch        "LSB;label=32;scalar=64";
    class       volVectorField;
    location    "0.2";
    object      D_0_0;
}
// * * * * * * * * * * * * * * * * * * * * * * * * * * * * * * * * * * * * * //

dimensions      [0 1 0 0 0 0 0];

internalField   nonuniform List<vector> 
1620
(
(0.000317815 0.00022683 -0.000912229)
(0.000406965 0.000280979 -0.000827392)
(0.000420844 0.000338022 -0.000641935)
(0.000362746 0.000349932 -0.000397847)
(0.000259378 0.000296855 -0.000147502)
(0.000140056 0.000187231 6.78578e-05)
(2.50658e-05 4.41677e-05 0.000226031)
(-7.49952e-05 -0.000106953 0.000323031)
(-0.000155605 -0.000245389 0.000368205)
(-0.000214917 -0.000357363 0.000378705)
(-0.000251845 -0.000435781 0.000374866)
(-0.00026547 -0.000478702 0.00037667)
(-0.000255209 -0.000487261 0.000400972)
(-0.0002209 -0.000463873 0.000459061)
(-0.000161905 -0.000412212 0.000553845)
(-7.55025e-05 -0.000340394 0.000676037)
(4.15331e-05 -0.000266331 0.00080114)
(0.000182393 -0.000219543 0.000892917)
(0.000317815 -0.00022683 0.000912229)
(0.000406965 -0.000280979 0.000827392)
(0.000420844 -0.000338022 0.000641935)
(0.000362746 -0.000349932 0.000397847)
(0.000259378 -0.000296855 0.000147502)
(0.000140056 -0.000187231 -6.78578e-05)
(2.50658e-05 -4.41677e-05 -0.000226031)
(-7.49952e-05 0.000106953 -0.000323031)
(-0.000155605 0.000245389 -0.000368205)
(-0.000214917 0.000357363 -0.000378705)
(-0.000251845 0.000435781 -0.000374866)
(-0.00026547 0.000478702 -0.00037667)
(-0.000255209 0.000487261 -0.000400972)
(-0.0002209 0.000463873 -0.000459061)
(-0.000161905 0.000412212 -0.000553845)
(-7.55025e-05 0.000340394 -0.000676037)
(4.15331e-05 0.000266331 -0.00080114)
(0.000182393 0.000219543 -0.000892917)
(0.000168389 0.000335593 -0.000737749)
(0.00019831 0.000312483 -0.000649716)
(0.000192504 0.000293709 -0.000520589)
(0.000149584 0.000268862 -0.000366386)
(7.85195e-05 0.000228943 -0.000206635)
(-6.35599e-06 0.000172349 -5.77974e-05)
(-9.15109e-05 0.000103317 7.00432e-05)
(-0.000166728 2.8523e-05 0.000173848)
(-0.000225002 -4.57412e-05 0.000256584)
(-0.000261742 -0.00011525 0.000325203)
(-0.000274253 -0.000178391 0.000388142)
(-0.000261744 -0.000235578 0.000452747)
(-0.00022582 -0.000287622 0.000522994)
(-0.000170932 -0.00033352 0.00059801)
(-0.000103813 -0.000368891 0.000671843)
(-3.11617e-05 -0.000386988 0.000734521)
(4.26437e-05 -0.000383373 0.000773868)
(0.000112754 -0.000362213 0.000777912)
(0.000168389 -0.000335593 0.000737749)
(0.00019831 -0.000312483 0.000649716)
(0.000192504 -0.000293709 0.000520589)
(0.000149584 -0.000268862 0.000366386)
(7.85195e-05 -0.000228943 0.000206635)
(-6.35599e-06 -0.000172349 5.77974e-05)
(-9.15109e-05 -0.000103317 -7.00432e-05)
(-0.000166728 -2.8523e-05 -0.000173848)
(-0.000225002 4.57412e-05 -0.000256584)
(-0.000261742 0.00011525 -0.000325203)
(-0.000274253 0.000178391 -0.000388142)
(-0.000261744 0.000235578 -0.000452747)
(-0.00022582 0.000287622 -0.000522994)
(-0.000170932 0.00033352 -0.00059801)
(-0.000103813 0.000368891 -0.000671843)
(-3.11617e-05 0.000386988 -0.000734521)
(4.26437e-05 0.000383373 -0.000773868)
(0.000112754 0.000362213 -0.000777912)
(5.06905e-05 0.00039042 -0.000602542)
(3.8348e-05 0.000318645 -0.000520626)
(1.61308e-05 0.000252497 -0.000439932)
(-1.77584e-05 0.00020887 -0.000357952)
(-6.5834e-05 0.000188818 -0.000269202)
(-0.000125694 0.000184008 -0.000170394)
(-0.000189962 0.000183424 -6.15133e-05)
(-0.000248988 0.000177266 5.51984e-05)
(-0.000293456 0.000158339 0.000176602)
(-0.000316027 0.000121976 0.000299412)
(-0.000312252 6.558e-05 0.000420035)
(-0.000281233 -1.13864e-05 0.000533718)
(-0.000226321 -0.000106522 0.000633663)
(-0.000155651 -0.000212829 0.000711019)
(-8.14957e-05 -0.000317192 0.000756681)
(-1.72314e-05 -0.000401005 0.000764916)
(2.75001e-05 -0.000445193 0.000736548)
(4.93565e-05 -0.000439586 0.000678728)
(5.06905e-05 -0.00039042 0.000602542)
(3.8348e-05 -0.000318645 0.000520626)
(1.61308e-05 -0.000252497 0.000439932)
(-1.77584e-05 -0.00020887 0.000357952)
(-6.5834e-05 -0.000188818 0.000269202)
(-0.000125694 -0.000184008 0.000170394)
(-0.000189962 -0.000183424 6.15133e-05)
(-0.000248988 -0.000177266 -5.51984e-05)
(-0.000293456 -0.000158339 -0.000176602)
(-0.000316027 -0.000121976 -0.000299412)
(-0.000312252 -6.558e-05 -0.000420035)
(-0.000281233 1.13864e-05 -0.000533718)
(-0.000226321 0.000106522 -0.000633663)
(-0.000155651 0.000212829 -0.000711019)
(-8.14957e-05 0.000317192 -0.000756681)
(-1.72314e-05 0.000401005 -0.000764916)
(2.75001e-05 0.000445193 -0.000736548)
(4.93565e-05 0.000439586 -0.000678728)
(0.00101654 0.000901625 -0.00235986)
(0.00123107 0.000928112 -0.00205779)
(0.0012033 0.00094302 -0.00156509)
(0.000965673 0.00088103 -0.00097928)
(0.000604744 0.000717619 -0.000395329)
(0.000204605 0.000465333 0.000113965)
(-0.000175843 0.000158225 0.000508365)
(-0.000502923 -0.000163994 0.000780447)
(-0.000759972 -0.000467045 0.000948642)
(-0.000938999 -0.000727491 0.00104749)
(-0.00103509 -0.000933504 0.00111807)
(-0.00104404 -0.0010823 0.00119979)
(-0.000962582 -0.00117549 0.00132377)
(-0.000790205 -0.00121411 0.00150765)
(-0.000530872 -0.00119692 0.00175097)
(-0.000193754 -0.00112644 0.00202881)
(0.000205557 -0.0010223 0.00228229)
(0.000634831 -0.00092938 0.00241948)
(0.00101654 -0.000901625 0.00235986)
(0.00123107 -0.000928112 0.00205779)
(0.0012033 -0.00094302 0.00156509)
(0.000965673 -0.00088103 0.00097928)
(0.000604744 -0.000717619 0.000395329)
(0.000204605 -0.000465333 -0.000113965)
(-0.000175843 -0.000158225 -0.000508365)
(-0.000502923 0.000163994 -0.000780447)
(-0.000759972 0.000467045 -0.000948642)
(-0.000938999 0.000727491 -0.00104749)
(-0.00103509 0.000933504 -0.00111807)
(-0.00104404 0.0010823 -0.00119979)
(-0.000962582 0.00117549 -0.00132377)
(-0.000790205 0.00121411 -0.00150765)
(-0.000530872 0.00119692 -0.00175097)
(-0.000193754 0.00112644 -0.00202881)
(0.000205557 0.0010223 -0.00228229)
(0.000634831 0.00092938 -0.00241948)
(0.000675784 0.00102667 -0.00212819)
(0.000773366 0.000930781 -0.00188023)
(0.000738768 0.000846052 -0.00151877)
(0.000574707 0.00074869 -0.00108853)
(0.00032197 0.000620418 -0.000638693)
(3.05002e-05 0.000456127 -0.000211629)
(-0.000256897 0.000262422 0.000164593)
(-0.000508693 5.23965e-05 0.000479138)
(-0.000703358 -0.00016005 0.000736837)
(-0.000826838 -0.000364423 0.000953485)
(-0.000870657 -0.00055539 0.00114954)
(-0.000831369 -0.000731772 0.00134346)
(-0.000711447 -0.000892978 0.00154578)
(-0.00052108 -0.00103401 0.00175504)
(-0.000279418 -0.00114187 0.0019568)
(-1.30144e-05 -0.00119791 0.00212622)
(0.000250317 -0.00118903 0.00223241)
(0.000488337 -0.00112128 0.00224192)
(0.000675784 -0.00102667 0.00212819)
(0.000773366 -0.000930781 0.00188023)
(0.000738768 -0.000846052 0.00151877)
(0.000574707 -0.00074869 0.00108853)
(0.00032197 -0.000620418 0.000638693)
(3.05002e-05 -0.000456127 0.000211629)
(-0.000256897 -0.000262422 -0.000164593)
(-0.000508693 -5.23965e-05 -0.000479138)
(-0.000703358 0.00016005 -0.000736837)
(-0.000826838 0.000364423 -0.000953485)
(-0.000870657 0.00055539 -0.00114954)
(-0.000831369 0.000731772 -0.00134346)
(-0.000711447 0.000892978 -0.00154578)
(-0.00052108 0.00103401 -0.00175504)
(-0.000279418 0.00114187 -0.0019568)
(-1.30144e-05 0.00119791 -0.00212622)
(0.000250317 0.00118903 -0.00223241)
(0.000488337 0.00112128 -0.00224192)
(0.000374613 0.00108437 -0.00188567)
(0.000374321 0.000898129 -0.00169091)
(0.000331063 0.00073789 -0.00145632)
(0.000231452 0.000618911 -0.00117636)
(7.68948e-05 0.000531539 -0.000856037)
(-0.000115258 0.000456445 -0.000508562)
(-0.00031843 0.000375071 -0.000149932)
(-0.000503722 0.000274455 0.000205932)
(-0.000645047 0.000147731 0.000550035)
(-0.000722355 -7.67551e-06 0.000878403)
(-0.000723517 -0.000191907 0.00118961)
(-0.000645704 -0.000402906 0.0014807)
(-0.000496877 -0.000634261 0.00174301)
(-0.000297306 -0.000871114 0.00195992)
(-7.95419e-05 -0.00108631 0.0021092)
(0.00011672 -0.00124128 0.0021718)
(0.000258816 -0.00129719 0.00214429)
(0.000339416 -0.00123566 0.00204265)
(0.000374613 -0.00108437 0.00188567)
(0.000374321 -0.000898129 0.00169091)
(0.000331063 -0.00073789 0.00145632)
(0.000231452 -0.000618911 0.00117636)
(7.68948e-05 -0.000531539 0.000856037)
(-0.000115258 -0.000456445 0.000508562)
(-0.00031843 -0.000375071 0.000149932)
(-0.000503722 -0.000274455 -0.000205932)
(-0.000645047 -0.000147731 -0.000550035)
(-0.000722355 7.67551e-06 -0.000878403)
(-0.000723517 0.000191907 -0.00118961)
(-0.000645704 0.000402906 -0.0014807)
(-0.000496877 0.000634261 -0.00174301)
(-0.000297306 0.000871114 -0.00195992)
(-7.95419e-05 0.00108631 -0.0021092)
(0.00011672 0.00124128 -0.0021718)
(0.000258816 0.00129719 -0.00214429)
(0.000339416 0.00123566 -0.00204265)
(0.00195846 0.00180954 -0.00354002)
(0.00217741 0.00172397 -0.00305495)
(0.00197544 0.00158034 -0.00232684)
(0.0014593 0.00135109 -0.0014863)
(0.000769734 0.0010256 -0.000654722)
(3.36772e-05 0.000616193 7.8239e-05)
(-0.000656072 0.000155573 0.000662606)
(-0.00124214 -0.000314418 0.00108845)
(-0.00169372 -0.000755407 0.00137892)
(-0.00199522 -0.00114046 0.00157868)
(-0.002137 -0.00145627 0.00174129)
(-0.00211028 -0.0017006 0.0019178)
(-0.00190644 -0.00187695 0.00214724)
(-0.00152034 -0.0019886 0.00244912)
(-0.000957181 -0.00203598 0.00281726)
(-0.000243156 -0.00202125 0.00321231)
(0.000560121 -0.00195931 0.00355062)
(0.0013425 -0.00187854 0.00369876)
(0.00195846 -0.00180954 0.00354002)
(0.00217741 -0.00172397 0.00305495)
(0.00197544 -0.00158034 0.00232684)
(0.0014593 -0.00135109 0.0014863)
(0.000769734 -0.0010256 0.000654722)
(3.36772e-05 -0.000616193 -7.8239e-05)
(-0.000656072 -0.000155573 -0.000662606)
(-0.00124214 0.000314418 -0.00108845)
(-0.00169372 0.000755407 -0.00137892)
(-0.00199522 0.00114046 -0.00157868)
(-0.002137 0.00145627 -0.00174129)
(-0.00211028 0.0017006 -0.0019178)
(-0.00190644 0.00187695 -0.00214724)
(-0.00152034 0.0019886 -0.00244912)
(-0.000957181 0.00203598 -0.00281726)
(-0.000243156 0.00202125 -0.00321231)
(0.000560121 0.00195931 -0.00355062)
(0.0013425 0.00187854 -0.00369876)
(0.00142029 0.00174205 -0.00325913)
(0.00152881 0.00156088 -0.00287415)
(0.00139083 0.00137443 -0.00233226)
(0.00104842 0.00117298 -0.00169096)
(0.000575488 0.00094043 -0.0010148)
(4.98249e-05 0.000667279 -0.000362653)
(-0.000461108 0.000357335 0.000223833)
(-0.000905502 2.47968e-05 0.000725862)
(-0.00124691 -0.000312749 0.00114662)
(-0.00146137 -0.000640532 0.00150537)
(-0.0015343 -0.000949593 0.00182881)
(-0.00145892 -0.00123599 0.00214169)
(-0.00123658 -0.00149659 0.00245826)
(-0.000879022 -0.00172305 0.00277637)
(-0.000411505 -0.00189735 0.00307546)
(0.000124025 -0.00199437 0.00331924)
(0.000664697 -0.00199508 0.00346142)
(0.0011217 -0.00190142 0.00345362)
(0.00142029 -0.00174205 0.00325913)
(0.00152881 -0.00156088 0.00287415)
(0.00139083 -0.00137443 0.00233226)
(0.00104842 -0.00117298 0.00169096)
(0.000575488 -0.00094043 0.0010148)
(4.98249e-05 -0.000667279 0.000362653)
(-0.000461108 -0.000357335 -0.000223833)
(-0.000905502 -2.47968e-05 -0.000725862)
(-0.00124691 0.000312749 -0.00114662)
(-0.00146137 0.000640532 -0.00150537)
(-0.0015343 0.000949593 -0.00182881)
(-0.00145892 0.00123599 -0.00214169)
(-0.00123658 0.00149659 -0.00245826)
(-0.000879022 0.00172305 -0.00277637)
(-0.000411505 0.00189735 -0.00307546)
(0.000124025 0.00199437 -0.00331924)
(0.000664697 0.00199508 -0.00346142)
(0.0011217 0.00190142 -0.00345362)
(0.000935415 0.00165021 -0.00293928)
(0.000948842 0.00138777 -0.00266031)
(0.000865188 0.00116118 -0.00229744)
(0.000683242 0.000980505 -0.00184824)
(0.000415875 0.000830511 -0.00132705)
(9.18701e-05 0.000684627 -0.000761553)
(-0.000247834 0.000519359 -0.000182557)
(-0.000558119 0.000320427 0.000384407)
(-0.000797562 8.27974e-05 0.000923322)
(-0.000934043 -0.000192258 0.00142746)
(-0.000948067 -0.000500036 0.00189545)
(-0.000834762 -0.000833024 0.00232511)
(-0.000605407 -0.0011783 0.00270708)
(-0.000288386 -0.00151242 0.00302111)
(7.16501e-05 -0.00179701 0.00323823)
(0.000418167 -0.00198126 0.00333151)
(0.000692686 -0.00201817 0.0032937)
(0.000855229 -0.00189257 0.00315101)
(0.000935415 -0.00165021 0.00293928)
(0.000948842 -0.00138777 0.00266031)
(0.000865188 -0.00116118 0.00229744)
(0.000683242 -0.000980505 0.00184824)
(0.000415875 -0.000830511 0.00132705)
(9.18701e-05 -0.000684627 0.000761553)
(-0.000247834 -0.000519359 0.000182557)
(-0.000558119 -0.000320427 -0.000384407)
(-0.000797562 -8.27974e-05 -0.000923322)
(-0.000934043 0.000192258 -0.00142746)
(-0.000948067 0.000500036 -0.00189545)
(-0.000834762 0.000833024 -0.00232511)
(-0.000605407 0.0011783 -0.00270708)
(-0.000288386 0.00151242 -0.00302111)
(7.16501e-05 0.00179701 -0.00323823)
(0.000418167 0.00198126 -0.00333151)
(0.000692686 0.00201817 -0.0032937)
(0.000855229 0.00189257 -0.00315101)
(0.00277772 0.00273571 -0.00429532)
(0.00292175 0.00241934 -0.00370883)
(0.0025192 0.00204978 -0.00287084)
(0.00172247 0.00162235 -0.0019084)
(0.000711849 0.00112713 -0.000942165)
(-0.000348698 0.000570619 -6.70209e-05)
(-0.00133392 -2.0882e-05 0.000659763)
(-0.00216237 -0.000610662 0.00122244)
(-0.00278842 -0.00116374 0.00164117)
(-0.00318853 -0.00165511 0.00196026)
(-0.00334829 -0.00207239 0.00223444)
(-0.00325422 -0.00241376 0.00251605)
(-0.0028923 -0.00268324 0.0028439)
(-0.00225432 -0.00288552 0.00323388)
(-0.00135237 -0.00302225 0.00367092)
(-0.000240066 -0.00309065 0.00410225)
(0.000964298 -0.00308097 0.00443434)
(0.00205913 -0.00296935 0.00453865)
(0.00277772 -0.00273571 0.00429532)
(0.00292175 -0.00241934 0.00370883)
(0.0025192 -0.00204978 0.00287084)
(0.00172247 -0.00162235 0.0019084)
(0.000711849 -0.00112713 0.000942165)
(-0.000348698 -0.000570619 6.70209e-05)
(-0.00133392 2.0882e-05 -0.000659763)
(-0.00216237 0.000610662 -0.00122244)
(-0.00278842 0.00116374 -0.00164117)
(-0.00318853 0.00165511 -0.00196026)
(-0.00334829 0.00207239 -0.00223444)
(-0.00325422 0.00241376 -0.00251605)
(-0.0028923 0.00268324 -0.0028439)
(-0.00225432 0.00288552 -0.00323388)
(-0.00135237 0.00302225 -0.00367092)
(-0.000240066 0.00309065 -0.00410225)
(0.000964298 0.00308097 -0.00443434)
(0.00205913 0.00296935 -0.00453865)
(0.00210954 0.0024193 -0.00402369)
(0.0021666 0.00211668 -0.0035497)
(0.0018992 0.00180409 -0.00290023)
(0.00137915 0.00148102 -0.00213096)
(0.000699675 0.00113147 -0.00130995)
(-4.11989e-05 0.000744406 -0.000503614)
(-0.000755217 0.000321797 0.00023762)
(-0.00137234 -0.000123133 0.000887512)
(-0.00184229 -0.000572285 0.00144439)
(-0.00213178 -0.00100897 0.00192546)
(-0.00222051 -0.00142146 0.00235754)
(-0.00209849 -0.0018028 0.00276644)
(-0.00176615 -0.00214717 0.00316711)
(-0.00123778 -0.00244427 0.00355628)
(-0.000547502 -0.00267467 0.00390969)
(0.000243708 -0.00280975 0.00418465)
(0.00104073 -0.00281811 0.00432741)
(0.00170961 -0.00267923 0.00428509)
(0.00210954 -0.0024193 0.00402369)
(0.0021666 -0.00211668 0.0035497)
(0.0018992 -0.00180409 0.00290023)
(0.00137915 -0.00148102 0.00213096)
(0.000699675 -0.00113147 0.00130995)
(-4.11989e-05 -0.000744406 0.000503614)
(-0.000755217 -0.000321797 -0.00023762)
(-0.00137234 0.000123133 -0.000887512)
(-0.00184229 0.000572285 -0.00144439)
(-0.00213178 0.00100897 -0.00192546)
(-0.00222051 0.00142146 -0.00235754)
(-0.00209849 0.0018028 -0.00276644)
(-0.00176615 0.00214717 -0.00316711)
(-0.00123778 0.00244427 -0.00355628)
(-0.000547502 0.00267467 -0.00390969)
(0.000243708 0.00280975 -0.00418465)
(0.00104073 0.00281811 -0.00432741)
(0.00170961 0.00267923 -0.00428509)
(0.00145861 0.00216585 -0.00374952)
(0.00145844 0.00186645 -0.00339062)
(0.00132914 0.00158908 -0.00291451)
(0.00107682 0.0013439 -0.00232464)
(0.000718213 0.00111575 -0.00164489)
(0.000288329 0.000880384 -0.000912663)
(-0.000161924 0.000616238 -0.000167829)
(-0.000574862 0.000311047 0.000556276)
(-0.000896284 -3.70586e-05 0.00123785)
(-0.00108351 -0.0004222 0.001867)
(-0.00111045 -0.000834148 0.00244157)
(-0.000970567 -0.00125968 0.0029602)
(-0.000678633 -0.00168052 0.00341485)
(-0.000270938 -0.00206863 0.00378662)
(0.000197691 -0.00238272 0.004048)
(0.0006615 -0.00257213 0.00417326)
(0.00105503 -0.00259335 0.00415297)
(0.0013267 -0.00243959 0.00400266)
(0.00145861 -0.00216585 0.00374952)
(0.00145844 -0.00186645 0.00339062)
(0.00132914 -0.00158908 0.00291451)
(0.00107682 -0.0013439 0.00232464)
(0.000718213 -0.00111575 0.00164489)
(0.000288329 -0.000880384 0.000912663)
(-0.000161924 -0.000616238 0.000167829)
(-0.000574862 -0.000311047 -0.000556276)
(-0.000896284 3.70586e-05 -0.00123785)
(-0.00108351 0.0004222 -0.001867)
(-0.00111045 0.000834148 -0.00244157)
(-0.000970567 0.00125968 -0.0029602)
(-0.000678633 0.00168052 -0.00341485)
(-0.000270938 0.00206863 -0.00378662)
(0.000197691 0.00238272 -0.004048)
(0.0006615 0.00257213 -0.00417326)
(0.00105503 0.00259335 -0.00415297)
(0.0013267 0.00243959 -0.00400266)
(0.00306991 0.00347797 -0.00461629)
(0.00317039 0.00294763 -0.00402188)
(0.00265818 0.0023458 -0.00319454)
(0.00167702 0.00170352 -0.00223004)
(0.00043128 0.00102958 -0.00123236)
(-0.000878796 0.000330373 -0.0002919)
(-0.0020941 -0.000377826 0.00052969)
(-0.00310825 -0.00106985 0.00120718)
(-0.00386053 -0.0017196 0.00174988)
(-0.00431971 -0.00230722 0.00219211)
(-0.00446722 -0.00282176 0.00258035)
(-0.00428625 -0.00325962 0.00296024)
(-0.0037606 -0.00362032 0.00336475)
(-0.00288597 -0.00390112 0.00380354)
(-0.00169471 -0.00409194 0.00425345)
(-0.000287782 -0.00417214 0.00465285)
(0.00114512 -0.0041114 0.00490695)
(0.00234674 -0.00388035 0.00491476)
(0.00306991 -0.00347797 0.00461629)
(0.00317039 -0.00294763 0.00402188)
(0.00265818 -0.0023458 0.00319454)
(0.00167702 -0.00170352 0.00223004)
(0.00043128 -0.00102958 0.00123236)
(-0.000878796 -0.000330373 0.0002919)
(-0.0020941 0.000377826 -0.00052969)
(-0.00310825 0.00106985 -0.00120718)
(-0.00386053 0.0017196 -0.00174988)
(-0.00431971 0.00230722 -0.00219211)
(-0.00446722 0.00282176 -0.00258035)
(-0.00428625 0.00325962 -0.00296024)
(-0.0037606 0.00362032 -0.00336475)
(-0.00288597 0.00390112 -0.00380354)
(-0.00169471 0.00409194 -0.00425345)
(-0.000287782 0.00417214 -0.00465285)
(0.00114512 0.0041114 -0.00490695)
(0.00234674 0.00388035 -0.00491476)
(0.0023246 0.00302021 -0.00441445)
(0.00237642 0.00259668 -0.00390644)
(0.00204713 0.00213663 -0.00321953)
(0.00141235 0.00166331 -0.00240344)
(0.000584898 0.00117533 -0.0015205)
(-0.000315374 0.000664814 -0.000635139)
(-0.00118063 0.000130721 0.000199168)
(-0.00192477 -0.00041791 0.000949694)
(-0.00248568 -0.000965614 0.00160732)
(-0.00282219 -0.00149599 0.00218265)
(-0.00290939 -0.0019955 0.00269752)
(-0.0027353 -0.00245388 0.0031744)
(-0.00230133 -0.00286119 0.00362608)
(-0.00162784 -0.00320248 0.00404763)
(-0.000764059 -0.00345333 0.00441317)
(0.000201081 -0.0035806 0.00467889)
(0.0011363 -0.00355219 0.00479312)
(0.00188778 -0.00335645 0.00471213)
(0.0023246 -0.00302021 0.00441445)
(0.00237642 -0.00259668 0.00390644)
(0.00204713 -0.00213663 0.00321953)
(0.00141235 -0.00166331 0.00240344)
(0.000584898 -0.00117533 0.0015205)
(-0.000315374 -0.000664814 0.000635139)
(-0.00118063 -0.000130721 -0.000199168)
(-0.00192477 0.00041791 -0.000949694)
(-0.00248568 0.000965614 -0.00160732)
(-0.00282219 0.00149599 -0.00218265)
(-0.00290939 0.0019955 -0.00269752)
(-0.0027353 0.00245388 -0.0031744)
(-0.00230133 0.00286119 -0.00362608)
(-0.00162784 0.00320248 -0.00404763)
(-0.000764059 0.00345333 -0.00441317)
(0.000201081 0.0035806 -0.00467889)
(0.0011363 0.00355219 -0.00479312)
(0.00188778 0.00335645 -0.00471213)
(0.00159564 0.00264026 -0.00425852)
(0.00161542 0.00232337 -0.0038381)
(0.00147322 0.00199034 -0.00327623)
(0.00118007 0.00166102 -0.00259037)
(0.000762493 0.00133236 -0.00181144)
(0.000263363 0.000989226 -0.000979916)
(-0.000259648 0.000615852 -0.000138235)
(-0.000740972 0.00020381 0.000677099)
(-0.00111756 -0.000245313 0.00144091)
(-0.0013388 -0.000721701 0.00214058)
(-0.00137367 -0.00121078 0.00277263)
(-0.001215 -0.00169515 0.00333577)
(-0.000881583 -0.00215327 0.00382355)
(-0.000417396 -0.00255568 0.00422035)
(0.000113752 -0.00286344 0.00450412)
(0.000638945 -0.00303508 0.00465528)
(0.00109008 -0.00304408 0.00466491)
(0.00141733 -0.00289827 0.00453301)
(0.00159564 -0.00264026 0.00425852)
(0.00161542 -0.00232337 0.0038381)
(0.00147322 -0.00199034 0.00327623)
(0.00118007 -0.00166102 0.00259037)
(0.000762493 -0.00133236 0.00181144)
(0.000263363 -0.000989226 0.000979916)
(-0.000259648 -0.000615852 0.000138235)
(-0.000740972 -0.00020381 -0.000677099)
(-0.00111756 0.000245313 -0.00144091)
(-0.0013388 0.000721701 -0.00214058)
(-0.00137367 0.00121078 -0.00277263)
(-0.001215 0.00169515 -0.00333577)
(-0.000881583 0.00215327 -0.00382355)
(-0.000417396 0.00255568 -0.00422035)
(0.000113752 0.00286344 -0.00450412)
(0.000638945 0.00303508 -0.00465528)
(0.00109008 0.00304408 -0.00466491)
(0.00141733 0.00289827 -0.00453301)
(0.00278417 0.00399554 -0.00462449)
(0.00284757 0.00326862 -0.00406976)
(0.00229796 0.0024605 -0.00331749)
(0.00125473 0.00162088 -0.00242945)
(-8.97294e-05 0.000776584 -0.00147939)
(-0.00152447 -6.02638e-05 -0.000541735)
(-0.00286687 -0.000879412 0.000322669)
(-0.00398692 -0.00166653 0.00107843)
(-0.00480717 -0.00240505 0.00171965)
(-0.00528704 -0.00308036 0.00226511)
(-0.0054037 -0.00368179 0.00274772)
(-0.00513974 -0.00420111 0.00320206)
(-0.00448381 -0.00462844 0.00365202)
(-0.00344732 -0.0049475 0.00409938)
(-0.00209423 -0.0051326 0.0045154)
(-0.00056752 -0.00515058 0.0048412)
(0.000913965 -0.00497044 0.0050031)
(0.00210132 -0.0045792 0.0049397)
(0.00278417 -0.00399554 0.00462449)
(0.00284757 -0.00326862 0.00406976)
(0.00229796 -0.0024605 0.00331749)
(0.00125473 -0.00162088 0.00242945)
(-8.97294e-05 -0.000776584 0.00147939)
(-0.00152447 6.02638e-05 0.000541735)
(-0.00286687 0.000879412 -0.000322669)
(-0.00398692 0.00166653 -0.00107843)
(-0.00480717 0.00240505 -0.00171965)
(-0.00528704 0.00308036 -0.00226511)
(-0.0054037 0.00368179 -0.00274772)
(-0.00513974 0.00420111 -0.00320206)
(-0.00448381 0.00462844 -0.00365202)
(-0.00344732 0.0049475 -0.00409938)
(-0.00209423 0.0051326 -0.0045154)
(-0.00056752 0.00515058 -0.0048412)
(0.000913965 0.00497044 -0.0050031)
(0.00210132 0.0045792 -0.0049397)
(0.00206052 0.00346445 -0.00447746)
(0.00209837 0.00291992 -0.00398025)
(0.00174551 0.00231844 -0.00331656)
(0.0010686 0.00169561 -0.00252373)
(0.000177633 0.00106569 -0.00165148)
(-0.000800337 0.00042958 -0.000755905)
(-0.00174474 -0.000213151 0.000111123)
(-0.00255652 -0.000857082 0.000912269)
(-0.00316331 -0.00149044 0.0016302)
(-0.00351727 -0.00209836 0.00226643)
(-0.00359011 -0.00266616 0.0028347)
(-0.00336982 -0.00317996 0.00335106)
(-0.00286214 -0.00362415 0.00382373)
(-0.00209793 -0.00397714 0.00424533)
(-0.00114384 -0.00420912 0.00459049)
(-0.000108736 -0.00428658 0.00482072)
(0.000864923 -0.00418467 0.00489551)
(0.00162811 -0.00390164 0.00478495)
(0.00206052 -0.00346445 0.00447746)
(0.00209837 -0.00291992 0.00398025)
(0.00174551 -0.00231844 0.00331656)
(0.0010686 -0.00169561 0.00252373)
(0.000177633 -0.00106569 0.00165148)
(-0.000800337 -0.00042958 0.000755905)
(-0.00174474 0.000213151 -0.000111123)
(-0.00255652 0.000857082 -0.000912269)
(-0.00316331 0.00149044 -0.0016302)
(-0.00351727 0.00209836 -0.00226643)
(-0.00359011 0.00266616 -0.0028347)
(-0.00336982 0.00317996 -0.00335106)
(-0.00286214 0.00362415 -0.00382373)
(-0.00209793 0.00397714 -0.00424533)
(-0.00114384 0.00420912 -0.00459049)
(-0.000108736 0.00428658 -0.00482072)
(0.000864923 0.00418467 -0.00489551)
(0.00162811 0.00390164 -0.00478495)
(0.00134884 0.00301714 -0.00441508)
(0.00137391 0.00266363 -0.00397655)
(0.00122188 0.00226406 -0.00338807)
(0.000907666 0.00184134 -0.00267191)
(0.000462123 0.00140373 -0.00186242)
(-6.8307e-05 0.000947985 -0.00100088)
(-0.000623306 0.000466957 -0.000129177)
(-0.00113437 -4.26832e-05 0.000716201)
(-0.00153451 -0.000576318 0.00150877)
(-0.00176913 -0.00112176 0.00223366)
(-0.00180486 -0.00166207 0.00288514)
(-0.00163514 -0.00217763 0.00346057)
(-0.00128224 -0.00264543 0.00395386)
(-0.000794902 -0.00303688 0.0043524)
(-0.000239946 -0.00331863 0.0046394)
(0.000310355 -0.00346051 0.00479945)
(0.000790341 -0.00344814 0.00482122)
(0.00114825 -0.00329078 0.0046957)
(0.00134884 -0.00301714 0.00441508)
(0.00137391 -0.00266363 0.00397655)
(0.00122188 -0.00226406 0.00338807)
(0.000907666 -0.00184134 0.00267191)
(0.000462123 -0.00140373 0.00186242)
(-6.8307e-05 -0.000947985 0.00100088)
(-0.000623306 -0.000466957 0.000129177)
(-0.00113437 4.26832e-05 -0.000716201)
(-0.00153451 0.000576318 -0.00150877)
(-0.00176913 0.00112176 -0.00223366)
(-0.00180486 0.00166207 -0.00288514)
(-0.00163514 0.00217763 -0.00346057)
(-0.00128224 0.00264543 -0.00395386)
(-0.000794902 0.00303688 -0.0043524)
(-0.000239946 0.00331863 -0.0046394)
(0.000310355 0.00346051 -0.00479945)
(0.000790341 0.00344814 -0.00482122)
(0.00114825 0.00329078 -0.0046957)
(0.0019628 0.00431905 -0.00441401)
(0.00200466 0.00341565 -0.00393039)
(0.00147453 0.00243206 -0.00328425)
(0.000468022 0.00142461 -0.00251114)
(-0.0008493 0.000429823 -0.00165672)
(-0.00228048 -0.000534565 -0.000774976)
(-0.00363951 -0.00146002 8.00151e-05)
(-0.00478214 -0.00233841 0.000866517)
(-0.00561516 -0.00315915 0.00156437)
(-0.0060867 -0.00391033 0.00217589)
(-0.00616914 -0.00457956 0.00271888)
(-0.00584761 -0.00515226 0.00321524)
(-0.00512241 -0.00560814 0.0036787)
(-0.00402672 -0.00591849 0.00410444)
(-0.00265124 -0.00604751 0.0044646)
(-0.00115581 -0.00596029 0.00471423)
(0.000248963 -0.00563564 0.00480667)
(0.00134631 -0.0050776 0.00470978)
(0.0019628 -0.00431905 0.00441401)
(0.00200466 -0.00341565 0.00393039)
(0.00147453 -0.00243206 0.00328425)
(0.000468022 -0.00142461 0.00251114)
(-0.0008493 -0.000429823 0.00165672)
(-0.00228048 0.000534565 0.000774976)
(-0.00363951 0.00146002 -8.00151e-05)
(-0.00478214 0.00233841 -0.000866517)
(-0.00561516 0.00315915 -0.00156437)
(-0.0060867 0.00391033 -0.00217589)
(-0.00616914 0.00457956 -0.00271888)
(-0.00584761 0.00515226 -0.00321524)
(-0.00512241 0.00560814 -0.0036787)
(-0.00402672 0.00591849 -0.00410444)
(-0.00265124 0.00604751 -0.0044646)
(-0.00115581 0.00596029 -0.00471423)
(0.000248963 0.00563564 -0.00480667)
(0.00134631 0.0050776 -0.00470978)
(0.00135198 0.00375303 -0.0042926)
(0.00137802 0.00308241 -0.00383978)
(0.00103165 0.00234664 -0.0032407)
(0.000369786 0.00158611 -0.00251994)
(-0.000508996 0.000824325 -0.00171263)
(-0.00148394 7.01706e-05 -0.000862832)
(-0.00243356 -0.000673753 -1.67853e-05)
(-0.00325297 -0.00140318 0.000786547)
(-0.0038628 -0.00210881 0.0015229)
(-0.00420987 -0.00277711 0.00218447)
(-0.00426369 -0.00339233 0.00277557)
(-0.00401403 -0.0039369 0.00330421)
(-0.00347317 -0.00438956 0.0037728)
(-0.00268293 -0.00472279 0.0041718)
(-0.00172194 -0.00490386 0.0044792)
(-0.000705124 -0.00490232 0.00466633)
(0.000230573 -0.00470164 0.0047068)
(0.000951102 -0.00430836 0.00458374)
(0.00135198 -0.00375303 0.0042926)
(0.00137802 -0.00308241 0.00383978)
(0.00103165 -0.00234664 0.0032407)
(0.000369786 -0.00158611 0.00251994)
(-0.000508996 -0.000824325 0.00171263)
(-0.00148394 -7.01706e-05 0.000862832)
(-0.00243356 0.000673753 1.67853e-05)
(-0.00325297 0.00140318 -0.000786547)
(-0.0038628 0.00210881 -0.0015229)
(-0.00420987 0.00277711 -0.00218447)
(-0.00426369 0.00339233 -0.00277557)
(-0.00401403 0.0039369 -0.00330421)
(-0.00347317 0.00438956 -0.0037728)
(-0.00268293 0.00472279 -0.0041718)
(-0.00172194 0.00490386 -0.0044792)
(-0.000705124 0.00490232 -0.00466633)
(0.000230573 0.00470164 -0.0047068)
(0.000951102 0.00430836 -0.00458374)
(0.000744892 0.00327568 -0.0042891)
(0.000765724 0.00285354 -0.00386786)
(0.000607532 0.00236928 -0.00330328)
(0.000288018 0.00184735 -0.00261594)
(-0.000159364 0.00130277 -0.00183744)
(-0.000687263 0.000741402 -0.00100575)
(-0.00123648 0.00016407 -0.000159647)
(-0.00174049 -0.00042751 0.000666279)
(-0.00213378 -0.00102636 0.00144543)
(-0.00236231 -0.00161932 0.00216089)
(-0.00239312 -0.00218876 0.00280377)
(-0.00222067 -0.00271421 0.00336863)
(-0.00186856 -0.00317226 0.00384832)
(-0.00138565 -0.00353585 0.0042319)
(-0.000836754 -0.00377652 0.0045063)
(-0.000291016 -0.00387142 0.00465919)
(0.000187466 -0.00381148 0.00467995)
(0.000545494 -0.00360519 0.0045591)
(0.000744892 -0.00327568 0.0042891)
(0.000765724 -0.00285354 0.00386786)
(0.000607532 -0.00236928 0.00330328)
(0.000288018 -0.00184735 0.00261594)
(-0.000159364 -0.00130277 0.00183744)
(-0.000687263 -0.000741402 0.00100575)
(-0.00123648 -0.00016407 0.000159647)
(-0.00174049 0.00042751 -0.000666279)
(-0.00213378 0.00102636 -0.00144543)
(-0.00236231 0.00161932 -0.00216089)
(-0.00239312 0.00218876 -0.00280377)
(-0.00222067 0.00271421 -0.00336863)
(-0.00186856 0.00317226 -0.00384832)
(-0.00138565 0.00353585 -0.0042319)
(-0.000836754 0.00377652 -0.0045063)
(-0.000291016 0.00387142 -0.00465919)
(0.000187466 0.00381148 -0.00467995)
(0.000545494 0.00360519 -0.0045591)
(0.000700144 0.00449274 -0.00407039)
(0.000736623 0.00344715 -0.00367614)
(0.00026928 0.00232483 -0.0031478)
(-0.000629247 0.00118371 -0.00250299)
(-0.00182526 6.43452e-05 -0.00176711)
(-0.00314959 -0.00101149 -0.000976368)
(-0.00443022 -0.00203397 -0.000175045)
(-0.00552163 -0.00299613 0.000594267)
(-0.00632044 -0.00388862 0.0013019)
(-0.0067642 -0.0046988 0.00193655)
(-0.00682069 -0.00541084 0.00250211)
(-0.00647952 -0.00600416 0.00300844)
(-0.00575474 -0.00645105 0.00346051)
(-0.00469816 -0.00671635 0.00385058)
(-0.00341308 -0.00676249 0.00415729)
(-0.00205355 -0.00656006 0.00435243)
(-0.000802714 -0.00609929 0.00441083)
(0.000161563 -0.00539645 0.00431767)
(0.000700144 -0.00449274 0.00407039)
(0.000736623 -0.00344715 0.00367614)
(0.00026928 -0.00232483 0.0031478)