/*--------------------------------*- C++ -*----------------------------------*\
| =========                 |                                                 |
| \\      /  F ield         | OpenFOAM: The Open Source CFD Toolbox           |
|  \\    /   O peration     | Version:  2312                                  |
|   \\  /    A nd           | Website:  www.openfoam.com                      |
|    \\/     M anipulation  |                                                 |
\*---------------------------------------------------------------------------*/
FoamFile
{
    version     2.0;
    format      ascii;
    arch        "LSB;label=32;scalar=64";
    class       volTensorField;
    location    "0.2";
    object      F;
}
// * * * * * * * * * * * * * * * * * * * * * * * * * * * * * * * * * * * * * //

dimensions      [0 0 0 0 0 0 0];

internalField   nonuniform List<tensor> 
1620
(
(0.91887 0.0265319 -0.0462163 -0.056975 1.00423 0.0381328 0.169658 -0.00300598 1.05828)
(0.904722 0.0273603 -0.0623137 -0.0541787 1.00953 0.0153243 0.149248 0.0059631 1.06402)
(0.90904 0.0270953 -0.0679927 -0.0505297 1.01419 -0.0075037 0.119095 0.016621 1.05528)
(0.928609 0.026045 -0.0643167 -0.0445357 1.01418 -0.021239 0.0849552 0.028689 1.03837)
(0.956926 0.0251284 -0.0554131 -0.0357215 1.00731 -0.0243813 0.0510333 0.0403918 1.02123)
(0.988017 0.024719 -0.0447867 -0.0242546 0.993632 -0.0207519 0.0204447 0.0487855 1.00917)
(1.01762 0.0244497 -0.0342598 -0.0109154 0.975345 -0.0157565 -0.00498598 0.0510206 1.00363)
(1.04317 0.0234885 -0.0244739 0.00313995 0.95608 -0.0135609 -0.0248708 0.0455964 1.00294)
(1.06326 0.0208821 -0.0157254 0.0167728 0.9398 -0.0158691 -0.0400912 0.0328457 1.00403)
(1.07717 0.0159333 -0.00849356 0.0291899 0.92984 -0.0219285 -0.0523859 0.0147692 1.00388)
(1.0844 0.0085466 -0.00351518 0.0400681 0.928237 -0.0291191 -0.0638358 -0.00544708 1.00064)
(1.08448 -0.000565675 -0.00149334 0.0494482 0.935291 -0.0337445 -0.0763551 -0.0240506 0.994232)
(1.07697 -0.00992174 -0.00255559 0.0574382 0.94931 -0.0319967 -0.0912653 -0.037476 0.986632)
(1.06173 -0.017682 -0.00558072 0.0638281 0.966698 -0.0212662 -0.109007 -0.0432621 0.981613)
(1.03922 -0.0225092 -0.00773465 0.0678562 0.9828 -0.00179144 -0.129004 -0.0409578 0.983597)
(1.01086 -0.0244953 -0.00496039 0.0685293 0.993758 0.0219954 -0.149483 -0.0325251 0.995414)
(0.978926 -0.0250688 0.00597244 0.0656564 0.998843 0.0418059 -0.166805 -0.0216698 1.01592)
(0.946457 -0.0255677 0.0247637 0.060761 1.00106 0.048655 -0.175004 -0.0116718 1.03957)
(0.91887 -0.0265319 0.0462163 0.056975 1.00423 0.0381328 -0.169658 -0.00300598 1.05828)
(0.904722 -0.0273603 0.0623137 0.0541787 1.00953 0.0153243 -0.149248 0.0059631 1.06402)
(0.90904 -0.0270953 0.0679927 0.0505297 1.01419 -0.0075037 -0.119095 0.016621 1.05528)
(0.928609 -0.026045 0.0643167 0.0445357 1.01418 -0.021239 -0.0849552 0.028689 1.03837)
(0.956926 -0.0251284 0.0554131 0.0357215 1.00731 -0.0243813 -0.0510333 0.0403918 1.02123)
(0.988017 -0.024719 0.0447867 0.0242546 0.993632 -0.0207519 -0.0204447 0.0487855 1.00917)
(1.01762 -0.0244497 0.0342598 0.0109154 0.975345 -0.0157565 0.00498598 0.0510206 1.00363)
(1.04317 -0.0234885 0.0244739 -0.00313995 0.95608 -0.0135609 0.0248708 0.0455964 1.00294)
(1.06326 -0.0208821 0.0157254 -0.0167728 0.9398 -0.0158691 0.0400912 0.0328457 1.00403)
(1.07717 -0.0159333 0.00849356 -0.0291899 0.92984 -0.0219285 0.0523859 0.0147692 1.00388)
(1.0844 -0.0085466 0.00351518 -0.0400681 0.928237 -0.0291191 0.0638358 -0.00544708 1.00064)
(1.08448 0.000565675 0.00149334 -0.0494482 0.935291 -0.0337445 0.0763551 -0.0240506 0.994232)
(1.07697 0.00992174 0.00255559 -0.0574382 0.94931 -0.0319967 0.0912653 -0.037476 0.986632)
(1.06173 0.017682 0.00558072 -0.0638281 0.966698 -0.0212662 0.109007 -0.0432621 0.981613)
(1.03922 0.0225092 0.00773465 -0.0678562 0.9828 -0.00179144 0.129004 -0.0409578 0.983597)
(1.01086 0.0244953 0.00496039 -0.0685293 0.993758 0.0219954 0.149483 -0.0325251 0.995414)
(0.978926 0.0250688 -0.00597244 -0.0656564 0.998843 0.0418059 0.166805 -0.0216698 1.01592)
(0.946457 0.0255677 -0.0247637 -0.060761 1.00106 0.048655 0.175004 -0.0116718 1.03957)
(0.93944 0.0134594 -0.0423067 -0.0612553 0.993448 0.028606 0.163624 0.00529746 1.05298)
(0.931838 0.0182718 -0.0566219 -0.0534044 0.99539 0.00744677 0.149266 0.00553309 1.05619)
(0.934794 0.0229109 -0.0608293 -0.0470016 1.00322 -0.0119397 0.127137 0.00936824 1.04522)
(0.947933 0.0248699 -0.0565122 -0.0409905 1.00946 -0.0204156 0.0999688 0.0190849 1.02782)
(0.967893 0.0246647 -0.0481977 -0.0343879 1.00782 -0.0178072 0.0705326 0.0320507 1.01283)
(0.990847 0.0239632 -0.0390895 -0.0265216 0.996478 -0.00975288 0.0413411 0.0430606 1.00527)
(1.01357 0.0235865 -0.0301902 -0.0172212 0.977964 -0.00286979 0.0142406 0.0473181 1.00537)
(1.03365 0.0230761 -0.0213763 -0.00676705 0.957315 -0.00155859 -0.00987045 0.0424107 1.01002)
(1.04938 0.0212335 -0.0125922 0.00435133 0.939967 -0.0069773 -0.0310486 0.0288016 1.01501)
(1.0596 0.0169231 -0.00441925 0.0156964 0.930234 -0.0174342 -0.0500673 0.00930651 1.01673)
(1.06358 0.00973951 0.00198191 0.0270268 0.930473 -0.0293338 -0.0680318 -0.0118144 1.01329)
(1.06092 0.000382878 0.0053341 0.0382646 0.940705 -0.0382071 -0.0859442 -0.0298242 1.00494)
(1.05164 -0.00931976 0.00493949 0.0492858 0.958515 -0.0397748 -0.1043 -0.0405266 0.994274)
(1.03633 -0.0168555 0.00149402 0.0595964 0.979254 -0.0312199 -0.122808 -0.0414341 0.985794)
(1.01644 -0.020088 -0.00228524 0.0680691 0.996937 -0.0127583 -0.14034 -0.0329682 0.98468)
(0.994349 -0.018712 -0.00200378 0.0730764 1.00627 0.0109941 -0.155179 -0.0189665 0.994305)
(0.972883 -0.0149032 0.00627744 0.073284 1.00562 0.031279 -0.165373 -0.00537231 1.0135)
(0.954086 -0.0121736 0.022819 0.0686066 0.998848 0.0385669 -0.168772 0.00296493 1.03605)
(0.93944 -0.0134594 0.0423067 0.0612553 0.993448 0.028606 -0.163624 0.00529746 1.05298)
(0.931838 -0.0182718 0.0566219 0.0534044 0.99539 0.00744677 -0.149266 0.00553309 1.05619)
(0.934794 -0.0229109 0.0608293 0.0470016 1.00322 -0.0119397 -0.127137 0.00936824 1.04522)
(0.947933 -0.0248699 0.0565122 0.0409905 1.00946 -0.0204156 -0.0999688 0.0190849 1.02782)
(0.967893 -0.0246647 0.0481977 0.0343879 1.00782 -0.0178072 -0.0705326 0.0320507 1.01283)
(0.990847 -0.0239632 0.0390895 0.0265216 0.996478 -0.00975288 -0.0413411 0.0430606 1.00527)
(1.01357 -0.0235865 0.0301902 0.0172212 0.977964 -0.00286979 -0.0142406 0.0473181 1.00537)
(1.03365 -0.0230761 0.0213763 0.00676705 0.957315 -0.00155859 0.00987045 0.0424107 1.01002)
(1.04938 -0.0212335 0.0125922 -0.00435133 0.939967 -0.0069773 0.0310486 0.0288016 1.01501)
(1.0596 -0.0169231 0.00441925 -0.0156964 0.930234 -0.0174342 0.0500673 0.00930651 1.01673)
(1.06358 -0.00973951 -0.00198191 -0.0270268 0.930473 -0.0293338 0.0680318 -0.0118144 1.01329)
(1.06092 -0.000382878 -0.0053341 -0.0382646 0.940705 -0.0382071 0.0859442 -0.0298242 1.00494)
(1.05164 0.00931976 -0.00493949 -0.0492858 0.958515 -0.0397748 0.1043 -0.0405266 0.994274)
(1.03633 0.0168555 -0.00149402 -0.0595964 0.979254 -0.0312199 0.122808 -0.0414341 0.985794)
(1.01644 0.020088 0.00228524 -0.0680691 0.996937 -0.0127583 0.14034 -0.0329682 0.98468)
(0.994349 0.018712 0.00200378 -0.0730764 1.00627 0.0109941 0.155179 -0.0189665 0.994305)
(0.972883 0.0149032 -0.00627744 -0.073284 1.00562 0.031279 0.165373 -0.00537231 1.0135)
(0.954086 0.0121736 -0.022819 -0.0686066 0.998848 0.0385669 0.168772 0.00296493 1.03605)
(0.959214 0.00232567 -0.0378053 -0.0640098 0.984382 0.0184168 0.152164 0.0116399 1.04713)
(0.957934 0.0095843 -0.0501353 -0.0515494 0.983922 -2.55357e-05 0.142755 0.00431726 1.04757)
(0.960094 0.0178647 -0.0531973 -0.0419326 0.99441 -0.0152197 0.129046 0.00240406 1.03474)
(0.967101 0.0224095 -0.0486213 -0.035425 1.00625 -0.0180953 0.110216 0.0101888 1.01744)
(0.978736 0.0229097 -0.0411761 -0.0309145 1.00952 -0.00951404 0.0869194 0.0244506 1.00524)
(0.993505 0.0219584 -0.0339015 -0.0269133 1.00037 0.00311516 0.0606413 0.0379561 1.00284)
(1.00931 0.0215617 -0.0269929 -0.0221521 0.981453 0.0117704 0.033033 0.044024 1.0092)
(1.02392 0.0217047 -0.0194271 -0.0158425 0.959221 0.0116229 0.00545073 0.0393063 1.01965)
(1.03534 0.0209217 -0.0106723 -0.00766872 0.940774 0.0020973 -0.0212769 0.0244522 1.02855)
(1.04199 0.0175512 -0.00138728 0.00237938 0.931559 -0.013863 -0.0468407 0.00330699 1.03155)
(1.04288 0.0108013 0.0067762 0.0141707 0.934177 -0.0312492 -0.0712396 -0.0185212 1.02678)
(1.03771 0.00133378 0.011867 0.0274797 0.94804 -0.0444997 -0.0944435 -0.0351904 1.01527)
(1.02697 -0.00867278 0.0125458 0.041863 0.969569 -0.0488604 -0.116034 -0.0420947 1.00073)
(1.01205 -0.0160649 0.00906204 0.0563904 0.992798 -0.0416702 -0.134958 -0.0373 0.988777)
(0.995389 -0.0180285 0.0039859 0.0693596 1.0106 -0.0236828 -0.149589 -0.0227563 0.985258)
(0.98016 -0.0139586 0.00191361 0.0782909 1.01698 -8.95007e-05 -0.158369 -0.00438901 0.993515)
(0.969148 -0.00662198 0.00731627 0.0806146 1.01041 0.0200388 -0.160911 0.010164 1.01169)
(0.962774 -0.0012406 0.0209971 0.0750709 0.996137 0.0273502 -0.158467 0.0155588 1.03268)
(0.959214 -0.00232567 0.0378053 0.0640098 0.984382 0.0184168 -0.152164 0.0116399 1.04713)
(0.957934 -0.0095843 0.0501353 0.0515494 0.983922 -2.55357e-05 -0.142755 0.00431726 1.04757)
(0.960094 -0.0178647 0.0531973 0.0419326 0.99441 -0.0152197 -0.129046 0.00240406 1.03474)
(0.967101 -0.0224095 0.0486213 0.035425 1.00625 -0.0180953 -0.110216 0.0101888 1.01744)
(0.978736 -0.0229097 0.0411761 0.0309145 1.00952 -0.00951404 -0.0869194 0.0244506 1.00524)
(0.993505 -0.0219584 0.0339015 0.0269133 1.00037 0.00311516 -0.0606413 0.0379561 1.00284)
(1.00931 -0.0215617 0.0269929 0.0221521 0.981453 0.0117704 -0.033033 0.044024 1.0092)
(1.02392 -0.0217047 0.0194271 0.0158425 0.959221 0.0116229 -0.00545073 0.0393063 1.01965)
(1.03534 -0.0209217 0.0106723 0.00766872 0.940774 0.0020973 0.0212769 0.0244522 1.02855)
(1.04199 -0.0175512 0.00138728 -0.00237938 0.931559 -0.013863 0.0468407 0.00330699 1.03155)
(1.04288 -0.0108013 -0.0067762 -0.0141707 0.934177 -0.0312492 0.0712396 -0.0185212 1.02678)
(1.03771 -0.00133378 -0.011867 -0.0274797 0.94804 -0.0444997 0.0944435 -0.0351904 1.01527)
(1.02697 0.00867278 -0.0125458 -0.041863 0.969569 -0.0488604 0.116034 -0.0420947 1.00073)
(1.01205 0.0160649 -0.00906204 -0.0563904 0.992798 -0.0416702 0.134958 -0.0373 0.988777)
(0.995389 0.0180285 -0.0039859 -0.0693596 1.0106 -0.0236828 0.149589 -0.0227563 0.985258)
(0.98016 0.0139586 -0.00191361 -0.0782909 1.01698 -8.95007e-05 0.158369 -0.00438901 0.993515)
(0.969148 0.00662198 -0.00731627 -0.0806146 1.01041 0.0200388 0.160911 0.010164 1.01169)
(0.962774 0.0012406 -0.0209971 -0.0750709 0.996137 0.0273502 0.158467 0.0155588 1.03268)
(0.905243 0.0680094 -0.1002 -0.0712271 0.999124 0.0508476 0.154294 0.0158007 1.07883)
(0.898054 0.0559308 -0.133435 -0.0635077 1.00673 0.0130221 0.136307 0.0466194 1.0771)
(0.90957 0.0396004 -0.141915 -0.0532657 1.01247 -0.0191821 0.11063 0.0753417 1.06011)
(0.93424 0.0238962 -0.131966 -0.0420282 1.01037 -0.0366187 0.0815781 0.0999363 1.03917)
(0.966067 0.011314 -0.112828 -0.0302718 0.998063 -0.0400793 0.0524713 0.117275 1.02293)
(0.99984 0.00200425 -0.0915903 -0.017883 0.976564 -0.035864 0.0256593 0.12329 1.01529)
(1.03159 -0.00501882 -0.0719357 -0.00495588 0.949983 -0.0310875 0.0025623 0.115348 1.01548)
(1.05867 -0.0114723 -0.0550441 0.00801795 0.924028 -0.0305855 -0.0164305 0.0934497 1.01972)
(1.07958 -0.0193893 -0.0411866 0.0204073 0.904285 -0.0358169 -0.0319103 0.0602139 1.02335)
(1.09346 -0.0303836 -0.030828 0.0317443 0.894947 -0.0451377 -0.0451702 0.0202234 1.02255)
(1.0998 -0.0448631 -0.0248315 0.041867 0.898072 -0.0546499 -0.0577964 -0.0207775 1.01541)
(1.09806 -0.0615547 -0.0239062 0.0508743 0.913144 -0.0592015 -0.0712427 -0.05667 1.00259)
(1.08771 -0.0775721 -0.0276078 0.0589394 0.936794 -0.0535971 -0.0864606 -0.0818463 0.987644)
(1.06839 -0.0891885 -0.0332202 0.0660606 0.962976 -0.0343797 -0.103635 -0.0923879 0.976852)
(1.04037 -0.0934152 -0.0350239 0.0718741 0.984365 -0.00233519 -0.122051 -0.0873643 0.977755)
(1.00534 -0.0900851 -0.0249635 0.0757217 0.995575 0.0352292 -0.14001 -0.0693395 0.995323)
(0.967123 -0.0827875 0.0037958 0.0770416 0.997025 0.0649051 -0.154509 -0.0431871 1.02651)
(0.93166 -0.0756033 0.0501627 0.0754777 0.995996 0.0722196 -0.160631 -0.0143858 1.05856)
(0.905243 -0.0680094 0.1002 0.0712271 0.999124 0.0508476 -0.154294 0.0158007 1.07883)
(0.898054 -0.0559308 0.133435 0.0635077 1.00673 0.0130221 -0.136307 0.0466194 1.0771)
(0.90957 -0.0396004 0.141915 0.0532657 1.01247 -0.0191821 -0.11063 0.0753417 1.06011)
(0.93424 -0.0238962 0.131966 0.0420282 1.01037 -0.0366187 -0.0815781 0.0999363 1.03917)
(0.966067 -0.011314 0.112828 0.0302718 0.998063 -0.0400793 -0.0524713 0.117275 1.02293)
(0.99984 -0.00200425 0.0915903 0.017883 0.976564 -0.035864 -0.0256593 0.12329 1.01529)
(1.03159 0.00501882 0.0719357 0.00495588 0.949983 -0.0310875 -0.0025623 0.115348 1.01548)
(1.05867 0.0114723 0.0550441 -0.00801795 0.924028 -0.0305855 0.0164305 0.0934497 1.01972)
(1.07958 0.0193893 0.0411866 -0.0204073 0.904285 -0.0358169 0.0319103 0.0602139 1.02335)
(1.09346 0.0303836 0.030828 -0.0317443 0.894947 -0.0451377 0.0451702 0.0202234 1.02255)
(1.0998 0.0448631 0.0248315 -0.041867 0.898072 -0.0546499 0.0577964 -0.0207775 1.01541)
(1.09806 0.0615547 0.0239062 -0.0508743 0.913144 -0.0592015 0.0712427 -0.05667 1.00259)
(1.08771 0.0775721 0.0276078 -0.0589394 0.936794 -0.0535971 0.0864606 -0.0818463 0.987644)
(1.06839 0.0891885 0.0332202 -0.0660606 0.962976 -0.0343797 0.103635 -0.0923879 0.976852)
(1.04037 0.0934152 0.0350239 -0.0718741 0.984365 -0.00233519 0.122051 -0.0873643 0.977755)
(1.00534 0.0900851 0.0249635 -0.0757217 0.995575 0.0352292 0.14001 -0.0693395 0.995323)
(0.967123 0.0827875 -0.0037958 -0.0770416 0.997025 0.0649051 0.154509 -0.0431871 1.02651)
(0.93166 0.0756033 -0.0501627 -0.0754777 0.995996 0.0722196 0.160631 -0.0143858 1.05856)
(0.925756 0.0407813 -0.0961438 -0.0638221 0.979936 0.0384852 0.148744 0.0202232 1.07956)
(0.921702 0.0426803 -0.126943 -0.0550219 0.985339 0.00183034 0.136016 0.0361934 1.07502)
(0.928751 0.0395784 -0.131805 -0.0464432 0.999119 -0.026807 0.117183 0.0578341 1.05397)
(0.944705 0.030086 -0.118662 -0.0385566 1.00754 -0.0375383 0.0938776 0.0835352 1.03143)
(0.966349 0.0175976 -0.09872 -0.0309613 1.00278 -0.0330701 0.0680399 0.10665 1.01803)
(0.990421 0.00580313 -0.0791336 -0.0228945 0.983872 -0.0225414 0.0416858 0.119086 1.01727)
(1.014 -0.00349369 -0.0621279 -0.0138843 0.955884 -0.015112 0.0164642 0.115235 1.02634)
(1.03472 -0.0109934 -0.0472271 -0.00391757 0.926904 -0.0161456 -0.00666382 0.0939416 1.03895)
(1.05082 -0.0190631 -0.0337926 0.00672289 0.904887 -0.0262815 -0.0275072 0.0583713 1.04841)
(1.0611 -0.0301187 -0.0223813 0.0176923 0.895548 -0.0423216 -0.0464948 0.0147194 1.04981)
(1.0648 -0.0450959 -0.0147061 0.028732 0.901393 -0.0587096 -0.0643749 -0.0292877 1.04114)
(1.06149 -0.0625653 -0.0126227 0.0396762 0.921406 -0.0689712 -0.0818542 -0.0657024 1.02366)
(1.05112 -0.0787187 -0.0166503 0.0503225 0.951024 -0.0671193 -0.0992548 -0.0875995 1.00204)
(1.03408 -0.0883456 -0.0244507 0.0602125 0.982483 -0.0494311 -0.116265 -0.0906358 0.984045)
(1.01149 -0.0869784 -0.029825 0.0684395 1.00625 -0.0168987 -0.13187 -0.0750633 0.978988)
(0.985478 -0.0741499 -0.0234309 0.0736991 1.01447 0.0223718 -0.144526 -0.0472221 0.993554)
(0.959547 -0.0561035 0.00287936 0.074791 1.00593 0.0534634 -0.152525 -0.0178067 1.02521)
(0.938537 -0.0431786 0.0479325 0.0712286 0.989706 0.0605426 -0.15432 0.00456564 1.05931)
(0.925756 -0.0407813 0.0961438 0.0638221 0.979936 0.0384852 -0.148744 0.0202232 1.07956)
(0.921702 -0.0426803 0.126943 0.0550219 0.985339 0.00183034 -0.136016 0.0361934 1.07502)
(0.928751 -0.0395784 0.131805 0.0464432 0.999119 -0.026807 -0.117183 0.0578341 1.05397)
(0.944705 -0.030086 0.118662 0.0385566 1.00754 -0.0375383 -0.0938776 0.0835352 1.03143)
(0.966349 -0.0175976 0.09872 0.0309613 1.00278 -0.0330701 -0.0680399 0.10665 1.01803)
(0.990421 -0.00580313 0.0791336 0.0228945 0.983872 -0.0225414 -0.0416858 0.119086 1.01727)
(1.014 0.00349369 0.0621279 0.0138843 0.955884 -0.015112 -0.0164642 0.115235 1.02634)
(1.03472 0.0109934 0.0472271 0.00391757 0.926904 -0.0161456 0.00666382 0.0939416 1.03895)
(1.05082 0.0190631 0.0337926 -0.00672289 0.904887 -0.0262815 0.0275072 0.0583713 1.04841)
(1.0611 0.0301187 0.0223813 -0.0176923 0.895548 -0.0423216 0.0464948 0.0147194 1.04981)
(1.0648 0.0450959 0.0147061 -0.028732 0.901393 -0.0587096 0.0643749 -0.0292877 1.04114)
(1.06149 0.0625653 0.0126227 -0.0396762 0.921406 -0.0689712 0.0818542 -0.0657024 1.02366)
(1.05112 0.0787187 0.0166503 -0.0503225 0.951024 -0.0671193 0.0992548 -0.0875995 1.00204)
(1.03408 0.0883456 0.0244507 -0.0602125 0.982483 -0.0494311 0.116265 -0.0906358 0.984045)
(1.01149 0.0869784 0.029825 -0.0684395 1.00625 -0.0168987 0.13187 -0.0750633 0.978988)
(0.985478 0.0741499 0.0234309 -0.0736991 1.01447 0.0223718 0.144526 -0.0472221 0.993554)
(0.959547 0.0561035 -0.00287936 -0.074791 1.00593 0.0534634 0.152525 -0.0178067 1.02521)
(0.938537 0.0431786 -0.0479325 -0.0712286 0.989706 0.0605426 0.15432 0.00456564 1.05931)
(0.94526 0.0138883 -0.0916057 -0.057868 0.960468 0.0250723 0.138773 0.024356 1.08129)
(0.944397 0.0284894 -0.120077 -0.0472836 0.964486 -0.0094595 0.131231 0.0232618 1.07321)
(0.947633 0.0391342 -0.121159 -0.0390001 0.986109 -0.0341029 0.119329 0.0364307 1.04707)
(0.955139 0.0367712 -0.104117 -0.0330944 1.00585 -0.037403 0.102372 0.0635549 1.02241)
(0.966529 0.0244206 -0.0829325 -0.0287064 1.00961 -0.02389 0.0808758 0.0937857 1.0123)
(0.980694 0.00956818 -0.0652161 -0.0245293 0.99372 -0.00601313 0.0562149 0.114151 1.01984)
(0.995889 -0.00258189 -0.0515119 -0.019421 0.964046 0.00438582 0.0300093 0.115415 1.03977)
(1.01007 -0.0113951 -0.0392505 -0.0126849 0.931412 0.00105331 0.00366403 0.0949423 1.06262)
(1.02128 -0.0195898 -0.0265719 -0.00408862 0.906706 -0.0156883 -0.0218689 0.0565615 1.07897)
(1.02795 -0.0305556 -0.0140711 0.00626726 0.897563 -0.0405149 -0.0461106 0.00857664 1.08242)
(1.0291 -0.0458813 -0.00447537 0.018095 0.906911 -0.0654906 -0.0688975 -0.0386765 1.07089)
(1.02441 -0.0639496 -0.00103215 0.0309817 0.932796 -0.0822668 -0.0901084 -0.0749828 1.04678)
(1.01432 -0.079852 -0.00539192 0.0443205 0.968788 -0.0839232 -0.109367 -0.0921095 1.01667)
(1.00008 -0.0867238 -0.0155633 0.0571258 1.00482 -0.0668065 -0.125825 -0.0858422 0.990488)
(0.98369 -0.0787676 -0.024622 0.0678455 1.02902 -0.0327676 -0.138189 -0.0584948 0.979542)
(0.967831 -0.0559951 -0.0217069 0.0744181 1.03162 0.00867682 -0.145181 -0.0207706 0.991815)
(0.955454 -0.0282252 0.00237304 0.0749016 1.01122 0.0408992 -0.146499 0.0109494 1.02466)
(0.948609 -0.0113787 0.0457667 0.0686658 0.980566 0.047382 -0.143717 0.025242 1.06117)
(0.94526 -0.0138883 0.0916057 0.057868 0.960468 0.0250723 -0.138773 0.024356 1.08129)
(0.944397 -0.0284894 0.120077 0.0472836 0.964486 -0.0094595 -0.131231 0.0232618 1.07321)
(0.947633 -0.0391342 0.121159 0.0390001 0.986109 -0.0341029 -0.119329 0.0364307 1.04707)
(0.955139 -0.0367712 0.104117 0.0330944 1.00585 -0.037403 -0.102372 0.0635549 1.02241)
(0.966529 -0.0244206 0.0829325 0.0287064 1.00961 -0.02389 -0.0808758 0.0937857 1.0123)
(0.980694 -0.00956818 0.0652161 0.0245293 0.99372 -0.00601313 -0.0562149 0.114151 1.01984)
(0.995889 0.00258189 0.0515119 0.019421 0.964046 0.00438582 -0.0300093 0.115415 1.03977)
(1.01007 0.0113951 0.0392505 0.0126849 0.931412 0.00105331 -0.00366403 0.0949423 1.06262)
(1.02128 0.0195898 0.0265719 0.00408862 0.906706 -0.0156883 0.0218689 0.0565615 1.07897)
(1.02795 0.0305556 0.0140711 -0.00626726 0.897563 -0.0405149 0.0461106 0.00857664 1.08242)
(1.0291 0.0458813 0.00447537 -0.018095 0.906911 -0.0654906 0.0688975 -0.0386765 1.07089)
(1.02441 0.0639496 0.00103215 -0.0309817 0.932796 -0.0822668 0.0901084 -0.0749828 1.04678)
(1.01432 0.079852 0.00539192 -0.0443205 0.968788 -0.0839232 0.109367 -0.0921095 1.01667)
(1.00008 0.0867238 0.0155633 -0.0571258 1.00482 -0.0668065 0.125825 -0.0858422 0.990488)
(0.98369 0.0787676 0.024622 -0.0678455 1.02902 -0.0327676 0.138189 -0.0584948 0.979542)
(0.967831 0.0559951 0.0217069 -0.0744181 1.03162 0.00867682 0.145181 -0.0207706 0.991815)
(0.955454 0.0282252 -0.00237304 -0.0749016 1.01122 0.0408992 0.146499 0.0109494 1.02466)
(0.948609 0.0113787 -0.0457667 -0.0686658 0.980566 0.047382 0.143717 0.025242 1.06117)
(0.893322 0.0980362 -0.156168 -0.0871623 0.991311 -0.000830534 0.116293 0.0340219 1.09496)
(0.895832 0.0573085 -0.192631 -0.0689952 0.996572 -0.0347748 0.103846 0.0779628 1.08729)
(0.915952 0.0174911 -0.192333 -0.0490409 1.00004 -0.0549831 0.0876484 0.117965 1.0644)
(0.946992 -0.0188756 -0.169355 -0.0307437 0.99441 -0.0589911 0.0692058 0.150082 1.04174)
(0.983602 -0.0516375 -0.138029 -0.014822 0.975806 -0.0522262 0.0498404 0.16895 1.02886)
(1.02113 -0.0798528 -0.108543 -0.000784273 0.94641 -0.0429722 0.0307284 0.169691 1.02736)
(1.0557 -0.102983 -0.0856921 0.0119498 0.912746 -0.038063 0.0128144 0.15033 1.03354)
(1.08455 -0.121883 -0.0703573 0.0236788 0.882655 -0.0408629 -0.00341648 0.112763 1.04144)
(1.10603 -0.138535 -0.0617709 0.0344889 0.862821 -0.0509811 -0.0180275 0.0621269 1.0454)
(1.11933 -0.154924 -0.0590943 0.0444172 0.857417 -0.0650333 -0.0315208 0.00551006 1.04164)
(1.12393 -0.171799 -0.0617553 0.0535493 0.86758 -0.0778063 -0.0446078 -0.0492805 1.02911)
(1.11929 -0.187953 -0.0687433 0.0620378 0.891304 -0.0834764 -0.0579515 -0.0946903 1.00982)
(1.10467 -0.20037 -0.0774164 0.0700883 0.923486 -0.0769852 -0.0719254 -0.124325 0.988955)
(1.0794 -0.205297 -0.0825325 0.0779373 0.956423 -0.0559577 -0.0863907 -0.134101 0.974487)
(1.04364 -0.199941 -0.0763814 0.0857495 0.981639 -0.0232148 -0.1005 -0.123511 0.975513)
(0.999649 -0.18397 -0.050818 0.0932085 0.993623 0.0114286 -0.112656 -0.0959303 0.997965)
(0.953192 -0.159633 -0.00077852 0.0986189 0.993611 0.0331286 -0.120836 -0.056544 1.03797)
(0.914027 -0.131633 0.0729891 0.0980351 0.99041 0.0296906 -0.122868 -0.0116495 1.07684)
(0.893322 -0.0980362 0.156168 0.0871623 0.991311 -0.000830534 -0.116293 0.0340219 1.09496)
(0.895832 -0.0573085 0.192631 0.0689952 0.996572 -0.0347748 -0.103846 0.0779628 1.08729)
(0.915952 -0.0174911 0.192333 0.0490409 1.00004 -0.0549831 -0.0876484 0.117965 1.0644)
(0.946992 0.0188756 0.169355 0.0307437 0.99441 -0.0589911 -0.0692058 0.150082 1.04174)
(0.983602 0.0516375 0.138029 0.014822 0.975806 -0.0522262 -0.0498404 0.16895 1.02886)
(1.02113 0.0798528 0.108543 0.000784273 0.94641 -0.0429722 -0.0307284 0.169691 1.02736)
(1.0557 0.102983 0.0856921 -0.0119498 0.912746 -0.038063 -0.0128144 0.15033 1.03354)
(1.08455 0.121883 0.0703573 -0.0236788 0.882655 -0.0408629 0.00341648 0.112763 1.04144)
(1.10603 0.138535 0.0617709 -0.0344889 0.862821 -0.0509811 0.0180275 0.0621269 1.0454)
(1.11933 0.154924 0.0590943 -0.0444172 0.857417 -0.0650333 0.0315208 0.00551006 1.04164)
(1.12393 0.171799 0.0617553 -0.0535493 0.86758 -0.0778063 0.0446078 -0.0492805 1.02911)
(1.11929 0.187953 0.0687433 -0.0620378 0.891304 -0.0834764 0.0579515 -0.0946903 1.00982)
(1.10467 0.20037 0.0774164 -0.0700883 0.923486 -0.0769852 0.0719254 -0.124325 0.988955)
(1.0794 0.205297 0.0825325 -0.0779373 0.956423 -0.0559577 0.0863907 -0.134101 0.974487)
(1.04364 0.199941 0.0763814 -0.0857495 0.981639 -0.0232148 0.1005 -0.123511 0.975513)
(0.999649 0.18397 0.050818 -0.0932085 0.993623 0.0114286 0.112656 -0.0959303 0.997965)
(0.953192 0.159633 0.00077852 -0.0986189 0.993611 0.0331286 0.120836 -0.056544 1.03797)
(0.914027 0.131633 -0.0729891 -0.0980351 0.99041 0.0296906 0.122868 -0.0116495 1.07684)
(0.910119 0.0601495 -0.149949 -0.0647411 0.970333 -0.0070453 0.115149 0.0347133 1.09903)
(0.911675 0.0491047 -0.182795 -0.05406 0.979822 -0.0408767 0.105442 0.0611446 1.08624)
(0.92431 0.0288384 -0.176375 -0.0426697 0.994587 -0.0583358 0.0919663 0.0946123 1.05903)
(0.944221 -0.000222334 -0.147341 -0.0319174 1.00038 -0.0567171 0.0751545 0.13056 1.03613)
(0.968473 -0.0349895 -0.113386 -0.0218486 0.98921 -0.04313 0.0559336 0.158386 1.02825)
(0.99429 -0.069317 -0.0854622 -0.0119951 0.961872 -0.0285465 0.0355997 0.167923 1.03599)
(1.01901 -0.0983995 -0.0666713 -0.00195319 0.926088 -0.0219557 0.0154163 0.153859 1.05316)
(1.04038 -0.121185 -0.0554575 0.00840236 0.892311 -0.0273597 -0.0037084 0.117027 1.07092)
(1.05672 -0.139781 -0.0494297 0.0189499 0.869834 -0.0434445 -0.0213517 0.0634617 1.08127)
(1.06691 -0.157147 -0.0475656 0.0294377 0.864457 -0.06499 -0.0375371 0.00234619 1.07928)
(1.07024 -0.174696 -0.0503158 0.0395868 0.87766 -0.0848146 -0.0525727 -0.0560426 1.06388)
(1.06628 -0.190887 -0.0581644 0.0491405 0.906634 -0.0955465 -0.0668326 -0.10193 1.03802)
(1.05482 -0.201299 -0.0695486 0.0578623 0.944628 -0.0912462 -0.0805316 -0.127366 1.00841)
(1.03594 -0.200276 -0.0791189 0.0655 0.981675 -0.0693748 -0.0935333 -0.127807 0.984995)
(1.01036 -0.183836 -0.0774959 0.0717163 1.00665 -0.0333665 -0.105222 -0.104207 0.979133)
(0.979982 -0.152638 -0.0538039 0.075938 1.0117 0.00536762 -0.114489 -0.0646578 0.998779)
(0.948696 -0.112856 -0.00135583 0.0770631 0.998 0.0294705 -0.119914 -0.0227774 1.04035)
(0.923102 -0.0774751 0.0751735 0.0734706 0.978223 0.0248608 -0.120294 0.0100025 1.08214)
(0.910119 -0.0601495 0.149949 0.0647411 0.970333 -0.0070453 -0.115149 0.0347133 1.09903)
(0.911675 -0.0491047 0.182795 0.05406 0.979822 -0.0408767 -0.105442 0.0611446 1.08624)
(0.92431 -0.0288384 0.176375 0.0426697 0.994587 -0.0583358 -0.0919663 0.0946123 1.05903)
(0.944221 0.000222334 0.147341 0.0319174 1.00038 -0.0567171 -0.0751545 0.13056 1.03613)
(0.968473 0.0349895 0.113386 0.0218486 0.98921 -0.04313 -0.0559336 0.158386 1.02825)
(0.99429 0.069317 0.0854622 0.0119951 0.961872 -0.0285465 -0.0355997 0.167923 1.03599)
(1.01901 0.0983995 0.0666713 0.00195319 0.926088 -0.0219557 -0.0154163 0.153859 1.05316)
(1.04038 0.121185 0.0554575 -0.00840236 0.892311 -0.0273597 0.0037084 0.117027 1.07092)
(1.05672 0.139781 0.0494297 -0.0189499 0.869834 -0.0434445 0.0213517 0.0634617 1.08127)
(1.06691 0.157147 0.0475656 -0.0294377 0.864457 -0.06499 0.0375371 0.00234619 1.07928)
(1.07024 0.174696 0.0503158 -0.0395868 0.87766 -0.0848146 0.0525727 -0.0560426 1.06388)
(1.06628 0.190887 0.0581644 -0.0491405 0.906634 -0.0955465 0.0668326 -0.10193 1.03802)
(1.05482 0.201299 0.0695486 -0.0578623 0.944628 -0.0912462 0.0805316 -0.127366 1.00841)
(1.03594 0.200276 0.0791189 -0.0655 0.981675 -0.0693748 0.0935333 -0.127807 0.984995)
(1.01036 0.183836 0.0774959 -0.0717163 1.00665 -0.0333665 0.105222 -0.104207 0.979133)
(0.979982 0.152638 0.0538039 -0.075938 1.0117 0.00536762 0.114489 -0.0646578 0.998779)
(0.948696 0.112856 0.00135583 -0.0770631 0.998 0.0294705 0.119914 -0.0227774 1.04035)
(0.923102 0.0774751 -0.0751735 -0.0734706 0.978223 0.0248608 0.120294 0.0100025 1.08214)
(0.928599 0.0263716 -0.144135 -0.0493798 0.946291 -0.0136721 0.114559 0.032222 1.10462)
(0.92841 0.0403255 -0.173342 -0.0440321 0.960425 -0.0471982 0.107909 0.0395611 1.08578)
(0.93306 0.0417635 -0.159554 -0.0388047 0.986851 -0.0621043 0.0965302 0.0663318 1.05339)
(0.941531 0.0220148 -0.122507 -0.0334183 1.00574 -0.054565 0.0807986 0.106501 1.02961)
(0.953076 -0.0146946 -0.0846046 -0.0275284 1.00413 -0.033027 0.0616935 0.144616 1.02682)
(0.966774 -0.0563803 -0.0581696 -0.0207864 0.980235 -0.0116968 0.0405403 0.164814 1.04508)
(0.981251 -0.0928636 -0.0443152 -0.0129055 0.942583 -0.00265123 0.0186972 0.157568 1.07542)
(0.994811 -0.120529 -0.0383788 -0.0037918 0.904649 -0.0111303 -0.00268691 0.122075 1.10528)
(1.00576 -0.141508 -0.0358063 0.00638693 0.879083 -0.0348286 -0.0228142 0.0652887 1.12347)
(1.01269 -0.159924 -0.0352354 0.0172327 0.87387 -0.0660604 -0.0412761 -0.000970079 1.12329)
(1.01472 -0.178013 -0.0383381 0.0282086 0.890894 -0.0948375 -0.0579777 -0.0632102 1.10371)
(1.01153 -0.193814 -0.0474415 0.0387181 0.9261 -0.111575 -0.0729753 -0.108861 1.0691)
(1.00345 -0.201169 -0.0622935 0.0481241 0.970343 -0.109234 -0.0862862 -0.128315 1.02859)
(0.991378 -0.192125 -0.0773481 0.0557152 1.01071 -0.085421 -0.0977482 -0.11708 0.994906)
(0.976623 -0.161377 -0.0810887 0.0607067 1.03318 -0.0448569 -0.106995 -0.0786237 0.982106)
(0.96078 -0.111509 -0.0590646 0.0623974 1.02804 -0.00119925 -0.113548 -0.0269222 0.999933)
(0.945839 -0.0569263 -0.00220045 0.0604846 0.997567 0.0253868 -0.116964 0.0155987 1.04422)
(0.934412 -0.0246462 0.0784806 0.0556177 0.961145 0.0193148 -0.117146 0.0323949 1.08945)
(0.928599 -0.0263716 0.144135 0.0493798 0.946291 -0.0136721 -0.114559 0.032222 1.10462)
(0.92841 -0.0403255 0.173342 0.0440321 0.960425 -0.0471982 -0.107909 0.0395611 1.08578)
(0.93306 -0.0417635 0.159554 0.0388047 0.986851 -0.0621043 -0.0965302 0.0663318 1.05339)
(0.941531 -0.0220148 0.122507 0.0334183 1.00574 -0.054565 -0.0807986 0.106501 1.02961)
(0.953076 0.0146946 0.0846046 0.0275284 1.00413 -0.033027 -0.0616935 0.144616 1.02682)
(0.966774 0.0563803 0.0581696 0.0207864 0.980235 -0.0116968 -0.0405403 0.164814 1.04508)
(0.981251 0.0928636 0.0443152 0.0129055 0.942583 -0.00265123 -0.0186972 0.157568 1.07542)
(0.994811 0.120529 0.0383788 0.0037918 0.904649 -0.0111303 0.00268691 0.122075 1.10528)
(1.00576 0.141508 0.0358063 -0.00638693 0.879083 -0.0348286 0.0228142 0.0652887 1.12347)
(1.01269 0.159924 0.0352354 -0.0172327 0.87387 -0.0660604 0.0412761 -0.000970079 1.12329)
(1.01472 0.178013 0.0383381 -0.0282086 0.890894 -0.0948375 0.0579777 -0.0632102 1.10371)
(1.01153 0.193814 0.0474415 -0.0387181 0.9261 -0.111575 0.0729753 -0.108861 1.0691)
(1.00345 0.201169 0.0622935 -0.0481241 0.970343 -0.109234 0.0862862 -0.128315 1.02859)
(0.991378 0.192125 0.0773481 -0.0557152 1.01071 -0.085421 0.0977482 -0.11708 0.994906)
(0.976623 0.161377 0.0810887 -0.0607067 1.03318 -0.0448569 0.106995 -0.0786237 0.982106)
(0.96078 0.111509 0.0590646 -0.0623974 1.02804 -0.00119925 0.113548 -0.0269222 0.999933)
(0.945839 0.0569263 0.00220045 -0.0604846 0.997567 0.0253868 0.116964 0.0155987 1.04422)
(0.934412 0.0246462 -0.0784806 -0.0556177 0.961145 0.0193148 0.117146 0.0323949 1.08945)
(0.922654 0.107385 -0.194249 -0.0849207 0.961927 -0.0742821 0.0683173 0.0464454 1.093)