/*--------------------------------*- C++ -*----------------------------------*\
| =========                 |                                                 |
| \\      /  F ield         | OpenFOAM: The Open Source CFD Toolbox           |
|  \\    /   O peration     | Version:  2312                                  |
|   \\  /    A nd           | Website:  www.openfoam.com                      |
|    \\/     M anipulation  |                                                 |
\*---------------------------------------------------------------------------*/
FoamFile
{
    version     2.0;
    format      ascii;
    arch        "LSB;label=32;scalar=64";
    class       pointVectorField;
    location    "0.2";
    object      pointD;
}
// * * * * * * * * * * * * * * * * * * * * * * * * * * * * * * * * * * * * * //

dimensions      [0 1 0 0 0 0 0];

internalField   nonuniform List<vector> 
2164
(
(0 0 0)
(0 0 0)
(0 0 0)
(0 0 0)
(0 0 0)
(0 0 0)
(0 0 0)
(0 0 0)
(0 0 0)
(0 0 0)
(0 0 0)
(0 0 0)
(0 0 0)
(0 0 0)
(0 0 0)
(0 0 0)
(0 0 0)
(0 0 0)
(0 0 0)
(0 0 0)
(0 0 0)
(0 0 0)
(0 0 0)
(0 0 0)
(0 0 0)
(0 0 0)
(0 0 0)
(0 0 0)
(0 0 0)
(0 0 0)
(0 0 0)
(0 0 0)
(0 0 0)
(0 0 0)
(0 0 0)
(0 0 0)
(0.00102545 0.000345963 -0.00198187)
(0.00116013 0.000496329 -0.00168298)
(0.00107546 0.000596714 -0.00121843)
(0.000835107 0.000578153 -0.000698378)
(0.000526624 0.00043582 -0.000218467)
(0.000215475 0.000205297 0.000159655)
(-6.31401e-05 -6.42082e-05 0.000413067)
(-0.000295312 -0.000327749 0.000550878)
(-0.000477328 -0.000552693 0.000603118)
(-0.000607909 -0.000720098 0.000610308)
(-0.000684359 -0.000822434 0.000615366)
(-0.000701764 -0.000859488 0.000657615)
(-0.000653961 -0.000833733 0.00076808)
(-0.000534647 -0.000747825 0.000964814)
(-0.000337279 -0.000608672 0.00124551)
(-5.53902e-05 -0.000440306 0.00157443)
(0.000307262 -0.000297258 0.00187189)
(0.000703042 -0.000256273 0.00203798)
(0.00102545 -0.000345963 0.00198187)
(0.00116013 -0.000496329 0.00168298)
(0.00107546 -0.000596714 0.00121843)
(0.000835107 -0.000578153 0.000698378)
(0.000526624 -0.00043582 0.000218467)
(0.000215475 -0.000205297 -0.000159655)
(-6.31401e-05 6.42082e-05 -0.000413067)
(-0.000295312 0.000327749 -0.000550878)
(-0.000477328 0.000552693 -0.000603118)
(-0.000607909 0.000720098 -0.000610308)
(-0.000684359 0.000822434 -0.000615366)
(-0.000701764 0.000859488 -0.000657615)
(-0.000653961 0.000833733 -0.00076808)
(-0.000534647 0.000747825 -0.000964814)
(-0.000337279 0.000608672 -0.00124551)
(-5.53902e-05 0.000440306 -0.00157443)
(0.000307262 0.000297258 -0.00187189)
(0.000703042 0.000256273 -0.00203798)
(0.000690674 0.000466355 -0.00174511)
(0.000763099 0.000491364 -0.00151198)
(0.000697556 0.000506016 -0.00117186)
(0.000524055 0.000470621 -0.000787217)
(0.000294934 0.000375538 -0.000414716)
(5.54052e-05 0.000233209 -9.3514e-05)
(-0.000164855 6.58792e-05 0.000159021)
(-0.000348858 -0.000104035 0.000345172)
(-0.000487108 -0.000259479 0.000481275)
(-0.000573698 -0.000390807 0.000591187)
(-0.000604466 -0.000495161 0.000700053)
(-0.00057706 -0.000573669 0.00082883)
(-0.000492296 -0.00062717 0.000989926)
(-0.000355533 -0.00065237 0.00118432)
(-0.00017615 -0.000642329 0.00139989)
(3.57639e-05 -0.000594955 0.0016094)
(0.0002709 -0.000525958 0.00176884)
(0.000506015 -0.000473865 0.00182836)
(0.000690674 -0.000466355 0.00174511)
(0.000763099 -0.000491364 0.00151198)
(0.000697556 -0.000506016 0.00117186)
(0.000524055 -0.000470621 0.000787217)
(0.000294934 -0.000375538 0.000414716)
(5.54052e-05 -0.000233209 9.3514e-05)
(-0.000164855 -6.58792e-05 -0.000159021)
(-0.000348858 0.000104035 -0.000345172)
(-0.000487108 0.000259479 -0.000481275)
(-0.000573698 0.000390807 -0.000591187)
(-0.000604466 0.000495161 -0.000700053)
(-0.00057706 0.000573669 -0.00082883)
(-0.000492296 0.00062717 -0.000989926)
(-0.000355533 0.00065237 -0.00118432)
(-0.00017615 0.000642329 -0.00139989)
(3.57639e-05 0.000594955 -0.0016094)
(0.0002709 0.000525958 -0.00176884)
(0.000506015 0.000473865 -0.00182836)
(0 0 0)
(0 0 0)
(0 0 0)
(0 0 0)
(0 0 0)
(0 0 0)
(0 0 0)
(0 0 0)
(0 0 0)
(0 0 0)
(0 0 0)
(0 0 0)
(0 0 0)
(0 0 0)
(0 0 0)
(0 0 0)
(0 0 0)
(0 0 0)
(0 0 0)
(0 0 0)
(0 0 0)
(0 0 0)
(0 0 0)
(0 0 0)
(0 0 0)
(0 0 0)
(0 0 0)
(0 0 0)
(0 0 0)
(0 0 0)
(0 0 0)
(0 0 0)
(0 0 0)
(0 0 0)
(0 0 0)
(0 0 0)
(0.000379601 0.000564038 -0.00151175)
(0.000392074 0.000475951 -0.0013463)
(0.000341353 0.000413853 -0.00112962)
(0.000228148 0.00036728 -0.000877289)
(7.12076e-05 0.0003227 -0.000608421)
(-0.000104047 0.000270356 -0.000340584)
(-0.000273246 0.000205807 -8.58728e-05)
(-0.000416078 0.000128599 0.000150902)
(-0.000516981 3.98087e-05 0.000371749)
(-0.000565149 -6.00691e-05 0.000582934)
(-0.000554723 -0.00017184 0.000791095)
(-0.000485692 -0.000296174 0.000998892)
(-0.000365574 -0.00043012 0.00120148)
(-0.000210894 -0.00056265 0.00138549)
(-4.59801e-05 -0.000672554 0.00153232)
(0.000104303 -0.000733366 0.00162521)
(0.000226657 -0.000726597 0.00165464)
(0.000319653 -0.000660201 0.00161647)
(0.000379601 -0.000564038 0.00151175)
(0.000392074 -0.000475951 0.0013463)
(0.000341353 -0.000413853 0.00112962)
(0.000228148 -0.00036728 0.000877289)
(7.12076e-05 -0.0003227 0.000608421)
(-0.000104047 -0.000270356 0.000340584)
(-0.000273246 -0.000205807 8.58728e-05)
(-0.000416078 -0.000128599 -0.000150902)
(-0.000516981 -3.98087e-05 -0.000371749)
(-0.000565149 6.00691e-05 -0.000582934)
(-0.000554723 0.00017184 -0.000791095)
(-0.000485692 0.000296174 -0.000998892)
(-0.000365574 0.00043012 -0.00120148)
(-0.000210894 0.00056265 -0.00138549)
(-4.59801e-05 0.000672554 -0.00153232)
(0.000104303 0.000733366 -0.00162521)
(0.000226657 0.000726597 -0.00165464)
(0.000319653 0.000660201 -0.00161647)
(0 0 0)
(0 0 0)
(0 0 0)
(0 0 0)
(0 0 0)
(0 0 0)
(0 0 0)
(0 0 0)
(0 0 0)
(0 0 0)
(0 0 0)
(0 0 0)
(0 0 0)
(0 0 0)
(0 0 0)
(0 0 0)
(0 0 0)
(0 0 0)
(0 0 0)
(0 0 0)
(0 0 0)
(0 0 0)
(0 0 0)
(0 0 0)
(0 0 0)
(0 0 0)
(0 0 0)
(0 0 0)
(0 0 0)
(0 0 0)
(0 0 0)
(0 0 0)
(0 0 0)
(0 0 0)
(0 0 0)
(0 0 0)
(0.00011206 0.000613154 -0.0012981)
(7.6035e-05 0.000446918 -0.0011947)
(3.71313e-05 0.000332009 -0.00108742)
(-2.35135e-05 0.000284214 -0.000952241)
(-0.000114983 0.000289791 -0.000775181)
(-0.000230575 0.0003217 -0.000554089)
(-0.000352255 0.000352244 -0.000295641)
(-0.000457687 0.000359616 -1.0888e-05)
(-0.00052613 0.000329416 0.000288322)
(-0.000542311 0.000253547 0.000590618)
(-0.000498822 0.000128895 0.000884109)
(-0.00039797 -4.24524e-05 0.00115407)
(-0.00025357 -0.00025087 0.00138116)
(-9.1886e-05 -0.000475242 0.00154263)
(5.13727e-05 -0.000680151 0.00161935)
(0.00014264 -0.000819647 0.00160791)
(0.000169835 -0.00085262 0.00152863)
(0.000149907 -0.000771541 0.0014142)
(0.00011206 -0.000613154 0.0012981)
(7.6035e-05 -0.000446918 0.0011947)
(3.71313e-05 -0.000332009 0.00108742)
(-2.35135e-05 -0.000284214 0.000952241)
(-0.000114983 -0.000289791 0.000775181)
(-0.000230575 -0.0003217 0.000554089)
(-0.000352255 -0.000352244 0.000295641)
(-0.000457687 -0.000359616 1.0888e-05)
(-0.00052613 -0.000329416 -0.000288322)
(-0.000542311 -0.000253547 -0.000590618)
(-0.000498822 -0.000128895 -0.000884109)
(-0.00039797 4.24524e-05 -0.00115407)
(-0.00025357 0.00025087 -0.00138116)
(-9.1886e-05 0.000475242 -0.00154263)
(5.13727e-05 0.000680151 -0.00161935)
(0.00014264 0.000819647 -0.00160791)
(0.000169835 0.00085262 -0.00152863)
(0.000149907 0.000771541 -0.0014142)
(0 0 0)
(0 0 0)
(0 0 0)
(0 0 0)
(0 0 0)
(0 0 0)
(0 0 0)
(0 0 0)
(0 0 0)
(0 0 0)
(0 0 0)
(0 0 0)
(0 0 0)
(0 0 0)
(0 0 0)
(0 0 0)
(0 0 0)
(0 0 0)
(0 0 0)
(0 0 0)
(0 0 0)
(0 0 0)
(0 0 0)
(0 0 0)
(0 0 0)
(0 0 0)
(0 0 0)
(0 0 0)
(0 0 0)
(0 0 0)
(0 0 0)
(0 0 0)
(0 0 0)
(0 0 0)
(0 0 0)
(0 0 0)
(0.00219127 0.00102626 -0.00349961)
(0.00230794 0.0011143 -0.00292713)
(0.00199976 0.00111395 -0.0021261)
(0.00141706 0.000971359 -0.00126499)
(0.000721025 0.000687743 -0.000477442)
(3.20854e-05 0.000303678 0.000153289)
(-0.00057933 -0.000122314 0.000597186)
(-0.00108074 -0.000533667 0.00086976)
(-0.00146052 -0.000888243 0.00101789)
(-0.00171373 -0.00116244 0.00110454)
(-0.00183346 -0.00134905 0.00119559)
(-0.00180778 -0.00145129 0.00134931)
(-0.00162126 -0.00147535 0.00160839)
(-0.00125985 -0.00142519 0.00199307)
(-0.000718469 -0.00130651 0.00249187)
(-1.22252e-05 -0.00114413 0.0030425)
(0.000805098 -0.000998005 0.00350432)
(0.00162136 -0.000954795 0.00369791)
(0.00219127 -0.00102626 0.00349961)
(0.00230794 -0.0011143 0.00292713)
(0.00199976 -0.00111395 0.0021261)
(0.00141706 -0.000971359 0.00126499)
(0.000721025 -0.000687743 0.000477442)
(3.20854e-05 -0.000303678 -0.000153289)
(-0.00057933 0.000122314 -0.000597186)
(-0.00108074 0.000533667 -0.00086976)
(-0.00146052 0.000888243 -0.00101789)
(-0.00171373 0.00116244 -0.00110454)
(-0.00183346 0.00134905 -0.00119559)
(-0.00180778 0.00145129 -0.00134931)
(-0.00162126 0.00147535 -0.00160839)
(-0.00125985 0.00142519 -0.00199307)
(-0.000718469 0.00130651 -0.00249187)
(-1.22252e-05 0.00114413 -0.0030425)
(0.000805098 0.000998005 -0.00350432)
(0.00162136 0.000954795 -0.00369791)
(0.00161106 0.00106618 -0.00321942)
(0.00167642 0.00102708 -0.00278048)
(0.0014583 0.000965132 -0.00217374)
(0.00103981 0.000843623 -0.00149778)
(0.000523423 0.000650705 -0.000838767)
(-5.05606e-06 0.00039748 -0.000257482)
(-0.000486503 0.000109885 0.000217166)
(-0.000884836 -0.000182596 0.000586756)
(-0.00117914 -0.000455942 0.000875918)
(-0.00135656 -0.000696081 0.00112221)
(-0.00140792 -0.000898725 0.00136557)
(-0.00132663 -0.00106537 0.00163884)
(-0.00111055 -0.00119659 0.00196008)
(-0.000765655 -0.0012857 0.00232779)
(-0.000310015 -0.00131873 0.00271859)
(0.000222695 -0.00128716 0.00308426)
(0.000776614 -0.00120625 0.00334571)
(0.00127507 -0.00112174 0.00341132)
(0.00161106 -0.00106618 0.00321942)
(0.00167642 -0.00102708 0.00278048)
(0.0014583 -0.000965132 0.00217374)
(0.00103981 -0.000843623 0.00149778)
(0.000523423 -0.000650705 0.000838767)
(-5.05606e-06 -0.00039748 0.000257482)
(-0.000486503 -0.000109885 -0.000217166)
(-0.000884836 0.000182596 -0.000586756)
(-0.00117914 0.000455942 -0.000875918)
(-0.00135656 0.000696081 -0.00112221)
(-0.00140792 0.000898725 -0.00136557)
(-0.00132663 0.00106537 -0.00163884)
(-0.00111055 0.00119659 -0.00196008)
(-0.000765655 0.0012857 -0.00232779)
(-0.000310015 0.00131873 -0.00271859)
(0.000222695 0.00128716 -0.00308426)
(0.000776614 0.00120625 -0.00334571)
(0.00127507 0.00112174 -0.00341132)
(0.00105906 0.00108746 -0.00290923)
(0.00107083 0.000923106 -0.00261029)
(0.000935234 0.000798792 -0.00220297)
(0.000673665 0.000697284 -0.00171699)
(0.000329908 0.000595422 -0.00119108)
(-4.52792e-05 0.000475128 -0.0006629)
(-0.000404097 0.000328696 -0.000159709)
(-0.000706495 0.000156863 0.000305937)
(-0.000921819 -3.58887e-05 0.000735453)
(-0.00102889 -0.000245495 0.00113946)
(-0.001016 -0.000469891 0.00153064)
(-0.000881783 -0.000707041 0.00191577)
(-0.00063739 -0.000949504 0.00228911)
(-0.000308993 -0.00117755 0.00262951)
(6.18077e-05 -0.00135591 0.00290453)
(0.000422877 -0.00144247 0.00308212)
(0.000721475 -0.00140958 0.00314444)
(0.000932253 -0.00127129 0.00308729)
(0.00105906 -0.00108746 0.00290923)
(0.00107083 -0.000923106 0.00261029)
(0.000935234 -0.000798792 0.00220297)
(0.000673665 -0.000697284 0.00171699)
(0.000329908 -0.000595422 0.00119108)
(-4.52792e-05 -0.000475128 0.0006629)
(-0.000404097 -0.000328696 0.000159709)
(-0.000706495 -0.000156863 -0.000305937)
(-0.000921819 3.58887e-05 -0.000735453)
(-0.00102889 0.000245495 -0.00113946)
(-0.001016 0.000469891 -0.00153064)
(-0.000881783 0.000707041 -0.00191577)
(-0.00063739 0.000949504 -0.00228911)
(-0.000308993 0.00117755 -0.00262951)
(6.18077e-05 0.00135591 -0.00290453)
(0.000422877 0.00144247 -0.00308212)
(0.000721475 0.00140958 -0.00314444)
(0.000932253 0.00127129 -0.00308729)
(0.000572512 0.00107138 -0.00259737)
(0.000536113 0.000814734 -0.00242448)
(0.000472411 0.000643621 -0.00219749)
(0.00035547 0.000563114 -0.00188727)
(0.000176014 0.00054492 -0.0014886)
(-5.01519e-05 0.000547403 -0.00101554)
(-0.000288618 0.000532423 -0.000491691)
(-0.000497667 0.000472959 5.82244e-05)
(-0.000638553 0.000353886 0.000613423)
(-0.000682712 0.000169326 0.00115777)
(-0.000616311 -7.98834e-05 0.00167662)
(-0.000443274 -0.000385999 0.00215159)
(-0.000187571 -0.000730617 0.00255593)
(0.00010613 -0.00107842 0.00285443)
(0.000376744 -0.00137306 0.00301315)
(0.000561578 -0.00154464 0.00302101)
(0.000625416 -0.00153595 0.00291335)
(0.000606562 -0.00134957 0.002757)
(0.000572512 -0.00107138 0.00259737)
(0.000536113 -0.000814734 0.00242448)
(0.000472411 -0.000643621 0.00219749)
(0.00035547 -0.000563114 0.00188727)
(0.000176014 -0.00054492 0.0014886)
(-5.01519e-05 -0.000547403 0.00101554)
(-0.000288618 -0.000532423 0.000491691)
(-0.000497667 -0.000472959 -5.82244e-05)
(-0.000638553 -0.000353886 -0.000613423)
(-0.000682712 -0.000169326 -0.00115777)
(-0.000616311 7.98834e-05 -0.00167662)
(-0.000443274 0.000385999 -0.00215159)
(-0.000187571 0.000730617 -0.00255593)
(0.00010613 0.00107842 -0.00285443)
(0.000376744 0.00137306 -0.00301315)
(0.000561578 0.00154464 -0.00302101)
(0.000625416 0.00153595 -0.00291335)
(0.000606562 0.00134957 -0.002757)
(0.00343996 0.00192313 -0.00459635)
(0.00338616 0.00176567 -0.00385977)
(0.00274242 0.00152709 -0.00287063)
(0.00174017 0.00118135 -0.00181483)
(0.000598431 0.000727836 -0.000838739)
(-0.000514409 0.000198355 -3.47298e-05)
(-0.00149181 -0.000354693 0.000562249)
(-0.00227952 -0.000877507 0.000968501)
(-0.00285584 -0.0013296 0.00123695)
(-0.00321156 -0.00168961 0.00143958)
(-0.00333538 -0.00195369 0.00165148)
(-0.00320696 -0.00212954 0.00193772)
(-0.00279853 -0.00222913 0.00234301)
(-0.00208559 -0.00226363 0.00288244)
(-0.00106809 -0.0022442 0.00353049)
(0.00019847 -0.00218844 0.00420416)
(0.0015647 -0.0021152 0.00473782)
(0.00276913 -0.00203097 0.00490968)
(0.00343996 -0.00192313 0.00459635)
(0.00338616 -0.00176567 0.00385977)
(0.00274242 -0.00152709 0.00287063)
(0.00174017 -0.00118135 0.00181483)
(0.000598431 -0.000727836 0.000838739)
(-0.000514409 -0.000198355 3.47298e-05)
(-0.00149181 0.000354693 -0.000562249)
(-0.00227952 0.000877507 -0.000968501)
(-0.00285584 0.0013296 -0.00123695)
(-0.00321156 0.00168961 -0.00143958)
(-0.00333538 0.00195369 -0.00165148)
(-0.00320696 0.00212954 -0.00193772)
(-0.00279853 0.00222913 -0.00234301)
(-0.00208559 0.00226363 -0.00288244)
(-0.00106809 0.0022442 -0.00353049)
(0.00019847 0.00218844 -0.00420416)
(0.0015647 0.0021152 -0.00473782)
(0.00276913 0.00203097 -0.00490968)
(0.00267121 0.00174494 -0.00429539)
(0.00261703 0.00155287 -0.00372496)
(0.00216565 0.00134177 -0.00295725)
(0.00145242 0.00108912 -0.00209941)
(0.000616156 0.000779403 -0.00124902)
(-0.000224605 0.000416933 -0.00047864)
(-0.000982999 2.36744e-05 0.000173806)
(-0.00160311 -0.000371632 0.000705806)
(-0.0020519 -0.000744029 0.00114289)
(-0.00230949 -0.00107825 0.00152699)
(-0.00236168 -0.00136928 0.00190365)
(-0.00219672 -0.00161857 0.00231022)
(-0.00180694 -0.00182743 0.00276608)
(-0.00119558 -0.00199048 0.00326586)
(-0.000387968 -0.00209386 0.0037759)
(0.000552223 -0.00212162 0.00423212)
(0.00149903 -0.00206325 0.00453712)
(0.00226837 -0.00192526 0.00457762)
(0.00267121 -0.00174494 0.00429539)
(0.00261703 -0.00155287 0.00372496)
(0.00216565 -0.00134177 0.00295725)
(0.00145242 -0.00108912 0.00209941)
(0.000616156 -0.000779403 0.00124902)
(-0.000224605 -0.000416933 0.00047864)
(-0.000982999 -2.36744e-05 -0.000173806)
(-0.00160311 0.000371632 -0.000705806)
(-0.0020519 0.000744029 -0.00114289)
(-0.00230949 0.00107825 -0.00152699)
(-0.00236168 0.00136928 -0.00190365)
(-0.00219672 0.00161857 -0.00231022)
(-0.00180694 0.00182743 -0.00276608)
(-0.00119558 0.00199048 -0.00326586)
(-0.000387968 0.00209386 -0.0037759)
(0.000552223 0.00212162 -0.00423212)
(0.00149903 0.00206325 -0.00453712)
(0.00226837 0.00192526 -0.00457762)
(0.00192145 0.00157385 -0.00396997)
(0.00187359 0.0013374 -0.00357268)
(0.00161404 0.00114195 -0.00302748)
(0.00118764 0.000971555 -0.00236952)
(0.000654072 0.000798666 -0.001649)
(8.16878e-05 0.000600707 -0.000917389)
(-0.000462432 0.000367643 -0.000214106)
(-0.000920303 0.000100712 0.000439988)
(-0.00124697 -0.000192792 0.00104243)
(-0.00141138 -0.000504703 0.00160376)
(-0.00139617 -0.000828501 0.00213871)
(-0.00119814 -0.00115774 0.00265632)
(-0.000830224 -0.00148058 0.00315129)
(-0.000324193 -0.00177252 0.00359983)
(0.000267784 -0.0019928 0.0039632)
(0.000873152 -0.00209221 0.00419979)
(0.00139742 -0.0020349 0.0042825)
(0.00175693 -0.00183363 0.00420602)
(0.00192145 -0.00157385 0.00396997)
(0.00187359 -0.0013374 0.00357268)
(0.00161404 -0.00114195 0.00302748)
(0.00118764 -0.000971555 0.00236952)
(0.000654072 -0.000798666 0.001649)
(8.16878e-05 -0.000600707 0.000917389)
(-0.000462432 -0.000367643 0.000214106)
(-0.000920303 -0.000100712 -0.000439988)
(-0.00124697 0.000192792 -0.00104243)
(-0.00141138 0.000504703 -0.00160376)
(-0.00139617 0.000828501 -0.00213871)
(-0.00119814 0.00115774 -0.00265632)
(-0.000830224 0.00148058 -0.00315129)
(-0.000324193 0.00177252 -0.00359983)
(0.000267784 0.0019928 -0.0039632)
(0.000873152 0.00209221 -0.00419979)
(0.00139742 0.0020349 -0.0042825)
(0.00175693 0.00183363 -0.00420602)
(0.00124168 0.00142744 -0.00364752)
(0.00120087 0.00115358 -0.00340447)
(0.001114 0.000966279 -0.00305695)
(0.000953631 0.000861656 -0.00258296)
(0.000707907 0.000806526 -0.00198938)
(0.000395525 0.000756303 -0.00130441)
(6.13724e-05 0.000671253 -0.000565205)
(-0.000237495 0.000525101 0.00019242)
(-0.000446627 0.000306303 0.000940038)
(-0.000525329 1.48751e-05 0.00165745)
(-0.00045376 -0.000341105 0.00232867)
(-0.000237221 -0.000746026 0.00293507)
(9.18952e-05 -0.00117293 0.00344919)
(0.000476034 -0.00157706 0.00383411)
(0.000841014 -0.00189316 0.00405359)
(0.00111292 -0.00204693 0.00409489)
(0.00124377 -0.00198917 0.0039953)
(0.00126232 -0.00174424 0.00383319)
(0.00124168 -0.00142744 0.00364752)
(0.00120087 -0.00115358 0.00340447)
(0.001114 -0.000966279 0.00305695)
(0.000953631 -0.000861656 0.00258296)
(0.000707907 -0.000806526 0.00198938)
(0.000395525 -0.000756303 0.00130441)
(6.13724e-05 -0.000671253 0.000565205)
(-0.000237495 -0.000525101 -0.00019242)
(-0.000446627 -0.000306303 -0.000940038)
(-0.000525329 -1.48751e-05 -0.00165745)
(-0.00045376 0.000341105 -0.00232867)
(-0.000237221 0.000746026 -0.00293507)
(9.18952e-05 0.00117293 -0.00344919)
(0.000476034 0.00157706 -0.00383411)
(0.000841014 0.00189316 -0.00405359)
(0.00111292 0.00204693 -0.00409489)
(0.00124377 0.00198917 -0.0039953)
(0.00126232 0.00174424 -0.00383319)
(0.0042313 0.00270165 -0.00517463)
(0.00403753 0.00223072 -0.00442822)
(0.0031348 0.00171072 -0.00342976)
(0.00178385 0.00114031 -0.00233802)
(0.000255348 0.00051775 -0.00129064)
(-0.00123009 -0.000138233 -0.000383382)
(-0.00252563 -0.000790606 0.000340189)
(-0.00355298 -0.00139872 0.00088717)
(-0.00427981 -0.00193179 0.00130276)
(-0.00469323 -0.00237486 0.00165299)
(-0.00477849 -0.00272744 0.00200808)
(-0.00450831 -0.00299822 0.00242853)
(-0.00384563 -0.00319857 0.00295338)
(-0.00276434 -0.003337 0.00358808)
(-0.00128958 -0.00341524 0.00429031)
(0.000452096 -0.00342328 0.00495786)
(0.00219948 -0.00332972 0.00543047)
(0.00357722 -0.00308789 0.00552962)
(0.0042313 -0.00270165 0.00517463)
(0.00403753 -0.00223072 0.00442822)
(0.0031348 -0.00171072 0.00342976)
(0.00178385 -0.00114031 0.00233802)
(0.000255348 -0.00051775 0.00129064)
(-0.00123009 0.000138233 0.000383382)
(-0.00252563 0.000790606 -0.000340189)
(-0.00355298 0.00139872 -0.00088717)
(-0.0042798 0.00193179 -0.00130276)
(-0.00469323 0.00237486 -0.00165299)
(-0.00477849 0.00272744 -0.00200808)
(-0.00450831 0.00299822 -0.00242853)
(-0.00384563 0.00319857 -0.00295338)
(-0.00276434 0.003337 -0.00358808)
(-0.00128958 0.00341524 -0.00429031)
(0.000452096 0.00342328 -0.00495786)
(0.00219948 0.00332972 -0.00543047)
(0.00357722 0.00308789 -0.00552962)
(0.00335898 0.00235751 -0.00491005)
(0.0032096 0.00196912 -0.00430646)
(0.002579 0.00157156 -0.00349578)
(0.00162473 0.00115959 -0.00257203)
(0.00051871 0.000718752 -0.00162931)
(-0.000586942 0.000246889 -0.000744329)
(-0.00157767 -0.000242273 3.70799e-05)
(-0.00237842 -0.000726621 0.000704019)
(-0.00294501 -0.00118518 0.00127514)
(-0.00325159 -0.00160414 0.00178751)
(-0.00327998 -0.00197803 0.00228353)
(-0.00301438 -0.00230665 0.00279834)
(-0.00244404 -0.00258934 0.00334882)
(-0.00157542 -0.00281833 0.00392496)
(-0.000454303 -0.00297458 0.00448439)
(0.000808523 -0.00302811 0.00495245)
(0.00202258 -0.00294374 0.00523221)
(0.0029422 -0.00270558 0.00523045)
(0.00335898 -0.00235751 0.00491005)
(0.0032096 -0.00196912 0.00430646)
(0.002579 -0.00157156 0.00349578)
(0.00162473 -0.00115959 0.00257203)
(0.00051871 -0.000718752 0.00162931)
(-0.000586942 -0.000246889 0.000744329)
(-0.00157767 0.000242273 -3.70799e-05)
(-0.00237842 0.000726621 -0.000704019)
(-0.00294501 0.00118518 -0.00127514)
(-0.00325159 0.00160414 -0.00178751)
(-0.00327998 0.00197803 -0.00228353)
(-0.00301438 0.00230665 -0.00279834)
(-0.00244404 0.00258934 -0.00334882)
(-0.00157542 0.00281833 -0.00392496)
(-0.000454303 0.00297458 -0.00448439)
(0.000808523 0.00302811 -0.00495245)
(0.00202258 0.00294374 -0.00523221)
(0.0029422 0.00270558 -0.00523045)
(0.0024904 0.00205214 -0.00466186)
(0.00239919 0.00173755 -0.00420123)
(0.00204834 0.00144789 -0.00357106)
(0.00149462 0.00117842 -0.00280934)
(0.000812529 0.000906711 -0.00196974)
(8.5697e-05 0.000611664 -0.00110879)
(-0.0006033 0.000282736 -0.000272571)
(-0.00118196 -7.90056e-05 0.000511254)
(-0.00159331 -0.000464807 0.00123482)
(-0.0017979 -0.000863428 0.00190543)
(-0.00177368 -0.00126435 0.00253675)
(-0.00151659 -0.00165722 0.00313817)
(-0.00104293 -0.00202695 0.00370531)
(-0.000393037 -0.00234713 0.00421532)
(0.000366066 -0.00257705 0.00463015)
(0.00114134 -0.00266948 0.00490748)
(0.00182012 -0.00259244 0.0050142)
(0.00229284 -0.00236189 0.00493404)
(0.0024904 -0.00205214 0.00466186)
(0.00239919 -0.00173755 0.00420123)
(0.00204834 -0.00144789 0.00357106)
(0.00149462 -0.00117842 0.00280934)
(0.000812529 -0.000906711 0.00196974)
(8.5697e-05 -0.000611664 0.00110879)
(-0.0006033 -0.000282736 0.000272571)
(-0.00118196 7.90056e-05 -0.000511254)
(-0.00159331 0.000464807 -0.00123482)
(-0.0017979 0.000863428 -0.00190543)
(-0.00177368 0.00126435 -0.00253675)
(-0.00151659 0.00165722 -0.00313817)
(-0.00104293 0.00202695 -0.00370531)
(-0.000393037 0.00234713 -0.00421532)
(0.000366066 0.00257705 -0.00463015)
(0.00114134 0.00266948 -0.00490748)
(0.00182012 0.00259244 -0.0050142)
(0.00229284 0.00236189 -0.00493404)
(0.00168342 0.00181047 -0.00443382)
(0.00165185 0.00156076 -0.0041008)
(0.00156064 0.00136036 -0.00362903)
(0.00138158 0.0012096 -0.00301385)
(0.00110182 0.00108369 -0.00227365)
(0.000739866 0.000946956 -0.00144364)
(0.000345106 0.000766427 -0.000566395)
(-1.56659e-05 0.000521438 0.00031753)
(-0.000275934 0.000206436 0.0011762)
(-0.000384883 -0.000171914 0.001988)
(-0.000317725 -0.000598939 0.00273777)
(-8.1788e-05 -0.00105348 0.00340945)
(0.000281997 -0.00150483 0.00397971)
(0.000704436 -0.00190774 0.00441793)
(0.00110415 -0.0022032 0.00469691)
(0.00141222 -0.00233427 0.00481026)
(0.00159636 -0.00227855 0.00478219)
(0.00167218 -0.00207508 0.00465275)
(0.00168342 -0.00181047 0.00443382)
(0.00165185 -0.00156076 0.0041008)
(0.00156064 -0.00136036 0.00362903)
(0.00138158 -0.0012096 0.00301385)
(0.00110182 -0.00108369 0.00227365)
(0.000739866 -0.000946956 0.00144364)
(0.000345106 -0.000766427 0.000566395)
(-1.56659e-05 -0.000521438 -0.00031753)
(-0.000275934 -0.000206436 -0.0011762)
(-0.000384883 0.000171914 -0.001988)
(-0.000317725 0.000598939 -0.00273777)
(-8.1788e-05 0.00105348 -0.00340945)
(0.000281997 0.00150483 -0.00397971)
(0.000704436 0.00190774 -0.00441793)
(0.00110415 0.0022032 -0.00469691)
(0.00141222 0.00233427 -0.00481026)
(0.00159636 0.00227855 -0.00478219)
(0.00167218 0.00207508 -0.00465275)
(0.00431497 0.0032408 -0.00532575)
(0.00406675 0.00249715 -0.0046721)
(0.00305669 0.00170819 -0.00378512)
(0.00152425 0.000910021 -0.0027749)
(-0.000238774 0.000116145 -0.00175228)
(-0.00196988 -0.000662104 -0.00080708)
(-0.00348152 -0.00140572 7.76784e-06)
(-0.00466791 -0.00209208 0.000682217)
(-0.00548326 -0.00270351 0.00124296)
(-0.0059097 -0.00323202 0.00173947)
(-0.00592989 -0.00367801 0.00222833)
(-0.0055139 -0.00404514 0.00275899)
(-0.00462626 -0.00433373 0.00336048)
(-0.00325887 -0.00453455 0.00402678)
(-0.00148578 -0.00462465 0.00470292)
(0.000489241 -0.00456766 0.00528298)
(0.00234026 -0.00432334 0.00563607)
(0.00370643 -0.00387211 0.00566029)
(0.00431497 -0.0032408 0.00532575)
(0.00406675 -0.00249715 0.0046721)
(0.00305669 -0.00170819 0.00378512)
(0.00152425 -0.000910021 0.0027749)
(-0.000238774 -0.000116145 0.00175228)
(-0.00196988 0.000662104 0.00080708)
(-0.00348152 0.00140572 -7.76784e-06)
(-0.00466791 0.00209208 -0.000682217)
(-0.00548326 0.00270351 -0.00124296)
(-0.0059097 0.00323202 -0.00173947)
(-0.00592989 0.00367801 -0.00222833)
(-0.0055139 0.00404514 -0.00275899)
(-0.00462626 0.00433373 -0.00336048)
(-0.00325887 0.00453455 -0.00402678)
(-0.00148578 0.00462465 -0.00470292)
(0.000489241 0.00456766 -0.00528298)
(0.00234026 0.00432334 -0.00563607)
(0.00370643 0.00387211 -0.00566029)
(0.00342893 0.002829 -0.00511839)
(0.0032532 0.00225638 -0.00455596)
(0.00255029 0.0016633 -0.00379271)
(0.00147106 0.00107324 -0.00289844)
(0.000204395 0.000486415 -0.00195152)
(-0.00107061 -0.000100712 -0.00102419)
(-0.00221338 -0.000683833 -0.000167736)
(-0.00312992 -0.00125084 0.000595817)
(-0.00376499 -0.0017876 0.00127261)
(-0.00408725 -0.00228312 0.00188844)
(-0.00407576 -0.00273088 0.00247675)
(-0.00371383 -0.00312633 0.00306591)
(-0.00299417 -0.00346135 0.00366746)
(-0.00193773 -0.00371791 0.00426627)
(-0.00062284 -0.00386504 0.00481555)
(0.000792784 -0.003864 0.00524185)
(0.00208437 -0.00368429 0.00546527)
(0.00301915 -0.00332615 0.00542918)
(0.00342893 -0.002829 0.00511839)
(0.0032532 -0.00225638 0.00455596)
(0.00255029 -0.0016633 0.00379271)
(0.00147106 -0.00107324 0.00289844)
(0.000204395 -0.000486415 0.00195152)
(-0.00107061 0.000100712 0.00102419)
(-0.00221338 0.000683833 0.000167736)
(-0.00312992 0.00125084 -0.000595817)
(-0.00376499 0.0017876 -0.00127261)
(-0.00408725 0.00228312 -0.00188844)
(-0.00407576 0.00273088 -0.00247675)
(-0.00371383 0.00312633 -0.00306591)
(-0.00299417 0.00346135 -0.00366746)
(-0.00193773 0.00371791 -0.00426627)
(-0.00062284 0.00386504 -0.00481555)
(0.000792784 0.003864 -0.00524185)
(0.00208437 0.00368429 -0.00546527)
(0.00301915 0.00332615 -0.00542918)
(0.00254529 0.00246802 -0.00496581)
(0.00245245 0.00206843 -0.00449079)
(0.00206498 0.00166418 -0.00383917)
(0.00144474 0.00126936 -0.00304861)
(0.000677503 0.00087631 -0.0021696)
(-0.000141275 0.00047034 -0.00125691)
(-0.000917736 4.17365e-05 -0.000358394)
(-0.00156884 -0.000409417 0.000493587)
(-0.00202877 -0.000874651 0.0012853)
(-0.00225179 -0.00134142 0.00201872)
(-0.00221296 -0.0017966 0.00270362)
(-0.00190926 -0.00222644 0.0033473)
(-0.0013625 -0.00261254 0.00394509)
(-0.000623601 -0.0029265 0.00447598)
(0.000225508 -0.00312986 0.00490583)
(0.0010765 -0.0031852 0.00519668)
(0.00181024 -0.00307616 0.00531628)
(0.00232263 -0.00282181 0.00524265)
(0.00254529 -0.00246802 0.00496581)
(0.00245245 -0.00206843 0.00449079)
(0.00206498 -0.00166418 0.00383917)
(0.00144474 -0.00126936 0.00304861)
(0.000677503 -0.00087631 0.0021696)
(-0.000141275 -0.00047034 0.00125691)
(-0.000917736 -4.17365e-05 0.000358394)
(-0.00156884 0.000409417 -0.000493587)
(-0.00202877 0.000874651 -0.0012853)
(-0.00225179 0.00134142 -0.00201872)
(-0.00221296 0.0017966 -0.00270362)
(-0.00190926 0.00222644 -0.0033473)
(-0.0013625 0.00261254 -0.00394509)
(-0.000623601 0.0029265 -0.00447598)
(0.000225508 0.00312986 -0.00490583)
(0.0010765 0.0031852 -0.00519668)
(0.00181024 0.00307616 -0.00531628)
(0.00232263 0.00282181 -0.00524265)
(0.00171889 0.00217408 -0.00485125)
(0.00170794 0.00194147 -0.00445593)
(0.0016178 0.00171016 -0.00390122)
(0.00142998 0.00148893 -0.00320131)
(0.00113662 0.00126788 -0.00238432)
(0.000755489 0.00102575 -0.00148828)
(0.000334755 0.000740795 -0.000555279)
(-5.60316e-05 0.000400422 0.000375091)
(-0.000344174 5.11033e-06 0.00127147)
(-0.000472667 -0.000433584 0.00211279)
(-0.000414014 -0.000897243 0.0028851)
(-0.000177934 -0.0013627 0.00357493)
(0.00018829 -0.00180017 0.00416378)
(0.000610132 -0.00217069 0.0046293)
(0.0010081 -0.0024305 0.00495422)
(0.00132447 -0.00254726 0.00513529)
(0.00153916 -0.0025197 0.0051795)
(0.00166407 -0.00238023 0.00508838)
(0.00171889 -0.00217408 0.00485125)
(0.00170794 -0.00194147 0.00445593)
(0.0016178 -0.00171016 0.00390122)
(0.00142998 -0.00148893 0.00320131)
(0.00113662 -0.00126788 0.00238432)
(0.000755489 -0.00102575 0.00148828)
(0.000334755 -0.000740795 0.000555279)
(-5.60316e-05 -0.000400422 -0.000375091)
(-0.000344174 -5.11033e-06 -0.00127147)
(-0.000472667 0.000433584 -0.00211279)
(-0.000414014 0.000897243 -0.0028851)
(-0.000177934 0.0013627 -0.00357493)
(0.00018829 0.00180017 -0.00416378)
(0.000610132 0.00217069 -0.0046293)
(0.0010081 0.0024305 -0.00495422)
(0.00132447 0.00254726 -0.00513529)
(0.00153916 0.0025197 -0.0051795)
(0.00166407 0.00238023 -0.00508838)
(0.00372031 0.00355489 -0.00519266)
(0.00346233 0.00257979 -0.00466633)
(0.00246664 0.00156504 -0.00393906)
(0.00092946 0.000566069 -0.0030738)
(-0.00088045 -0.000389281 -0.00214379)
(-0.00269277 -0.00129004 -0.00122237)
(-0.00429379 -0.00212896 -0.000367039)
(-0.0055503 -0.00289771 0.000394037)
(-0.00639767 -0.00358912 0.001065)
(-0.00680855 -0.00419943 0.00167439)
(-0.00676299 -0.00472646 0.00226159)
(-0.00623546 -0.00516435 0.00286201)
(-0.00520701 -0.00549731 0.00349231)
(-0.00370405 -0.00569569 0.00413618)
(-0.00184782 -0.00571827 0.00473744)
(0.000124956 -0.0055232 0.00521106)
(0.00190075 -0.00508573 0.00547285)
(0.00317237 -0.00441437 0.00547)
(0.00372031 -0.00355489 0.00519266)
(0.00346233 -0.00257979 0.00466633)
(0.00246664 -0.00156504 0.00393906)
(0.00092946 -0.000566069 0.0030738)
(-0.00088045 0.000389281 0.00214379)
(-0.00269277 0.00129004 0.00122237)
(-0.00429379 0.00212896 0.000367039)
(-0.0055503 0.00289771 -0.000394037)
(-0.00639767 0.00358912 -0.001065)
(-0.00680855 0.00419943 -0.00167439)