/*--------------------------------*- C++ -*----------------------------------*\
| =========                 |                                                 |
| \\      /  F ield         | OpenFOAM: The Open Source CFD Toolbox           |
|  \\    /   O peration     | Version:  2312                                  |
|   \\  /    A nd           | Website:  www.openfoam.com                      |
|    \\/     M anipulation  |                                                 |
\*---------------------------------------------------------------------------*/
FoamFile
{
    version     2.0;
    format      ascii;
    arch        "LSB;label=32;scalar=64";
    class       volScalarField;
    location    "0.2";
    object      sigmaEq;
}
// * * * * * * * * * * * * * * * * * * * * * * * * * * * * * * * * * * * * * //

dimensions      [1 -1 -2 0 0 0 0];

internalField   nonuniform List<scalar> 
1620
(
12732.3
12915.9
12677.7
12277.1
11927.5
11705.3
11609.9
11611.1
11666.9
11729.1
11750.9
11699.7
11573.2
11411.6
11296.4
11336.5
11632.4
12179.9
12732.3
12915.9
12677.7
12277.1
11927.5
11705.3
11609.9
11611.1
11666.9
11729.1
11750.9
11699.7
11573.2
11411.6
11296.4
11336.5
11632.4
12179.9
11948.7
12025.9
12011.4
11950.8
11900.2
11888
11916.9
11973.3
12033
12067.1
12049.9
11969.2
11835
11681.2
11560.6
11528.9
11614.8
11785.2
11948.7
12025.9
12011.4
11950.8
11900.2
11888
11916.9
11973.3
12033
12067.1
12049.9
11969.2
11835
11681.2
11560.6
11528.9
11614.8
11785.2
12378.2
12050.7
11830.2
11796.5
11916.4
12114.1
12314
12458.7
12514.6
12474.8
12358.9
12210.6
12089.7
12058.8
12160.1
12375.9
12586.4
12608.7
12378.2
12050.7
11830.2
11796.5
11916.4
12114.1
12314
12458.7
12514.6
12474.8
12358.9
12210.6
12089.7
12058.8
12160.1
12375.9
12586.4
12608.7
12374
12078.5
11660.3
11414.9
11357.1
11444.2
11627.1
11857.9
12088.6
12268.6
12348.5
12291.8
12093.3
11796.2
11496.6
11332.3
11466.1
11991.4
12374
12078.5
11660.3
11414.9
11357.1
11444.2
11627.1
11857.9
12088.6
12268.6
12348.5
12291.8
12093.3
11796.2
11496.6
11332.3
11466.1
11991.4
11610.5
11453.1
11345.4
11394.9
11562.9
11804
12084.8
12374.4
12639
12842.2
12950
12938.4
12799.3
12542.2
12196
11820.8
11547.2
11550
11610.5
11453.1
11345.4
11394.9
11562.9
11804
12084.8
12374.4
12639
12842.2
12950
12938.4
12799.3
12542.2
12196
11820.8
11547.2
11550
12584.4
12211.5
12010.6
12025.7
12242.9
12595.2
12976.4
13276.5
13420.8
13390.8
13222.3
12988.5
12778.7
12674.7
12719.3
12880
13020.6
12936.7
12584.4
12211.5
12010.6
12025.7
12242.9
12595.2
12976.4
13276.5
13420.8
13390.8
13222.3
12988.5
12778.7
12674.7
12719.3
12880
13020.6
12936.7
11762.8
11338.7
11160.3
11208.1
11415.4
11721.8
12074.7
12420
12700.7
12859.5
12848.4
12641.2
12254.4
11770.8
11342.9
11143.1
11299.8
11928.5
11762.8
11338.7
11160.3
11208.1
11415.4
11721.8
12074.7
12420
12700.7
12859.5
12848.4
12641.2
12254.4
11770.8
11342.9
11143.1
11299.8
11928.5
10735.6
10673
10842.7
11100.3
11432.3
11842.6
12310
12787.9
13218.1
13542.3
13708.1
13674.2
13418.7
12956
12353.1
11719.6
11175.8
10907.9
10735.6
10673
10842.7
11100.3
11432.3
11842.6
12310
12787.9
13218.1
13542.3
13708.1
13674.2
13418.7
12956
12353.1
11719.6
11175.8
10907.9
12572.1
12628.5
12350.5
12091.8
12127.9
12497.7
13084.5
13695.1
14153.7
14370.8
14355.6
14182.7
13944.9
13712.2
13499.1
13254
12883.5
12357.9
12572.1
12628.5
12350.5
12091.8
12127.9
12497.7
13084.5
13695.1
14153.7
14370.8
14355.6
14182.7
13944.9
13712.2
13499.1
13254
12883.5
12357.9
12089.9
11635.6
11391.8
11434.7
11628.7
11899.5
12196.5
12458.9
12616.6
12607.4
12391.6
11960.2
11357.1
10721.7
10296.6
10307.9
10838.1
11762.1
12089.9
11635.6
11391.8
11434.7
11628.7
11899.5
12196.5
12458.9
12616.6
12607.4
12391.6
11960.2
11357.1
10721.7
10296.6
10307.9
10838.1
11762.1
11172.3
11138.1
11099.4
11059.2
11110.1
11323.8
11703.2
12177.4
12632
12952.8
13049.3
12863.7
12393
11739.4
11128.4
10797.3
10839.2
11100
11172.3
11138.1
11099.4
11059.2
11110.1
11323.8
11703.2
12177.4
12632
12952.8
13049.3
12863.7
12393
11739.4
11128.4
10797.3
10839.2
11100
12673.3
13260.6
12775
12002.3
11599.3
11746.1
12380.3
13260.6
14096.4
14688.7
14973.6
14978.3
14755.5
14346.5
13790.5
13150.2
12520.1
12153.5
12673.3
13260.6
12775
12002.3
11599.3
11746.1
12380.3
13260.6
14096.4
14688.7
14973.6
14978.3
14755.5
14346.5
13790.5
13150.2
12520.1
12153.5
11425.8
11466.4
11491.1
11578
11690
11799.5
11891.8
11935.8
11879
11669.5
11276.7
10702.7
10020.2
9446.12
9299.73
9703.11
10432.1
11107.3
11425.8
11466.4
11491.1
11578
11690
11799.5
11891.8
11935.8
11879
11669.5
11276.7
10702.7
10020.2
9446.12
9299.73
9703.11
10432.1
11107.3
10907.9
11009.9
10978.7
10765
10502.4
10360.9
10462.1
10800.2
11223
11528.3
11563.2
11267.1
10719.2
10195.8
10028.3
10253.4
10594.9
10804.2
10907.9
11009.9
10978.7
10765
10502.4
10360.9
10462.1
10800.2
11223
11528.3
11563.2
11267.1
10719.2
10195.8
10028.3
10253.4
10594.9
10804.2
12797.6
12947.4
12455.4
11640.7
11029.2
10924.4
11435.8
12396.6
13464
14352.6
14932.9
15183
15111.4
14740.4
14145
13465.6
12878.5
12609.2
12797.6
12947.4
12455.4
11640.7
11029.2
10924.4
11435.8
12396.6
13464
14352.6
14932.9
15183
15111.4
14740.4
14145
13465.6
12878.5
12609.2
10889.1
11110.3
11316
11507.8
11623.4
11621.5
11506.3
11304.2
11026.4
10657.6
10175.7
9583.27
8978.01
8623.29
8774.2
9342.23
10011.1
10549
10889.1
11110.3
11316
11507.8
11623.4
11621.5
11506.3
11304.2
11026.4
10657.6
10175.7
9583.27
8978.01
8623.29
8774.2
9342.23
10011.1
10549
10483.9
10547.8
10494.3
10237.6
9822.29
9407.22
9221.93
9410.78
9841.97
10201.4
10243.4
9914.98
9417.55
9163.2
9377.98
9829.93
10200.4
10390
10483.9
10547.8
10494.3
10237.6
9822.29
9407.22
9221.93
9410.78
9841.97
10201.4
10243.4
9914.98
9417.55
9163.2
9377.98
9829.93
10200.4
10390
12797.2
12557.3
11991.8
11252.7
10629.4
10385.2
10721.8
11606.9
12747
13821.2
14651
15170.3
15341.9
15147.2
14639.7
13975.9
13362.3
12967.7
12797.2
12557.3
11991.8
11252.7
10629.4
10385.2
10721.8
11606.9
12747
13821.2
14651
15170.3
15341.9
15147.2
14639.7
13975.9
13362.3
12967.7
10452.8
10729.7
11005
11260.2
11416.2
11395.4
11175.4
10805.7
10361.7
9882.89
9367.34
8825.86
8372.77
8239.64
8540.06
9096.94
9664.17
10118.2
10452.8
10729.7
11005
11260.2
11416.2
11395.4
11175.4
10805.7
10361.7
9882.89
9367.34
8825.86
8372.77
8239.64
8540.06
9096.94
9664.17
10118.2
9930.08
9955.13
9881.6
9625.31
9173.81
8636.81
8268.38
8328.24
8753.74
9163.62
9236.84
8939.94
8562.69
8521.4
8889.23
9363.69
9699.72
9861.79
9930.08
9955.13
9881.6
9625.31
9173.81
8636.81
8268.38
8328.24
8753.74
9163.62
9236.84
8939.94
8562.69
8521.4
8889.23
9363.69
9699.72
9861.79
12675.3
12243.5
11671.4
11023.3
10459.1
10171.4
10361.2
11098.5
12198.7
13356.9
14353.3
15074.9
15445.5
15409.2
14986.8
14326.4
13643
13091
12675.3
12243.5
11671.4
11023.3
10459.1
10171.4
10361.2
11098.5
12198.7
13356.9
14353.3
15074.9
15445.5
15409.2
14986.8
14326.4
13643
13091
10081.4
10347.1
10617.3
10877.6
11053.2
11053.3
10827.9
10410.1
9895.67
9367.4
8858.52
8400.89
8101.17
8108.11
8434.67
8917.85
9390.28
9777.45
10081.4
10347.1
10617.3
10877.6
11053.2
11053.3
10827.9
10410.1
9895.67
9367.4
8858.52
8400.89
8101.17
8108.11
8434.67
8917.85
9390.28
9777.45
9299.41
9301.21
9223.34
8993.5
8576.69
8039.54
7594.56
7517.13
7834.4
8216.7
8333.11
8149.39
7942.8
8032.25
8411.8
8831.36
9117.01
9251.91
9299.41
9301.21
9223.34
8993.5
8576.69
8039.54
7594.56
7517.13
7834.4
8216.7
8333.11
8149.39
7942.8
8032.25
8411.8
8831.36
9117.01
9251.91
12506.9
12041.9
11536
10999.2
10522.3
10243.6
10332.1
10900.5
11869.9
12996.9
14045.8
14862
15336.2
15387
15016.2
14364
13644.7
13015.4
12506.9
12041.9
11536
10999.2
10522.3
10243.6
10332.1
10900.5
11869.9
12996.9
14045.8
14862
15336.2
15387
15016.2
14364
13644.7
13015.4
9726.28
9950.53
10177.2
10402.5
10566.6
10586.5
10404.4
10030.2
9543.26
9038.66
8579.54
8216.25
8027.76
8087.18
8369.9
8759.25
9143.53
9467.43
9726.28
9950.53
10177.2
10402.5
10566.6
10586.5
10404.4
10030.2
9543.26
9038.66
8579.54
8216.25
8027.76
8087.18
8369.9
8759.25
9143.53
9467.43
8624.6
8615.8
8542.87
8352.84
8009.04
7545.7
7107.22
6910.73
7045.95
7322.31
7472.17
7436.63
7398.93
7556.65
7890.37
8234.85
8472.03
8587.51
8624.6
8615.8
8542.87
8352.84
8009.04
7545.7
7107.22
6910.73
7045.95
7322.31
7472.17
7436.63
7398.93
7556.65
7890.37
8234.85
8472.03
8587.51
12357.3
11947.1
11552.3
11148.6
10778.5
10538.3
10560.3
10960.2
11734.3
12724.6
13715.2
14523.3
15011.4
15088.2
14756.3
14148.1
13462.5
12849.7
12357.3
11947.1
11552.3
11148.6
10778.5
10538.3
10560.3
10960.2
11734.3
12724.6
13715.2
14523.3
15011.4
15088.2
14756.3
14148.1
13462.5
12849.7
9343.51
9520.46
9696.09
9873.26
10010.5
10042.5
9918.59
9634.8
9243.47
8825.45
8451.88
8177.22
8051.36
8103.08
8306.53
8590.25
8881.74
9136.58
9343.51
9520.46
9696.09
9873.26
10010.5
10042.5
9918.59
9634.8
9243.47
8825.45
8451.88
8177.22
8051.36
8103.08
8306.53
8590.25
8881.74
9136.58
7906.11
7894.34
7831.47
7686.5
7432.2
7081.29
6713.77
6465.9
6436.23
6569.23
6708.64
6781.68
6860.87
7040.91
7310.69
7579.06
7771.74
7872.83
7906.11
7894.34
7831.47
7686.5
7432.2
7081.29
6713.77
6465.9
6436.23
6569.23
6708.64
6781.68
6860.87
7040.91
7310.69
7579.06
7771.74
7872.83
12254.2
11929.3
11656.8
11396.3
11150.3
10973.8
10962.4
11216.8
11775
12557.6
13395.3
14104.5
14537.1
14607.7
14325.9
13806.7
13214.3
12678.6
12254.2
11929.3
11656.8
11396.3
11150.3
10973.8
10962.4
11216.8
11775
12557.6
13395.3
14104.5
14537.1
14607.7
14325.9
13806.7
13214.3
12678.6
8924.57
9057.65
9191.66
9328.93
9442.57
9487.22
9424.4
9245.09
8978.6
8681.23
8411.81
8214.93
8118.87
8133.4
8243.54
8413.18
8600.77
8775.16
8924.57
9057.65
9191.66
9328.93
9442.57
9487.22
9424.4
9245.09
8978.6
8681.23
8411.81
8214.93
8118.87
8133.4
8243.54
8413.18
8600.77
8775.16
7115.74
7104.39
7055.9
6958.69
6798.04
6574.58
6320.91
6103.88
5993.65
6005.98
6088.53
6188.37
6306.79
6468.41
6666.28
6858.65
7004.15
7087.05
7115.74
7104.39
7055.9
6958.69
6798.04
6574.58
6320.91
6103.88
5993.65
6005.98
6088.53
6188.37
6306.79
6468.41
6666.28
6858.65
7004.15
7087.05
12185.1
11944.2
11777.5
11647.2
11529.6
11438.9
11431.5
11584
11946.5
12493.2
13111.7
13650
13977.6
14027.1
13811.3
13414
12951.9
12524.1
12185.1
11944.2
11777.5
11647.2
11529.6
11438.9
11431.5
11584
11946.5
12493.2
13111.7
13650
13977.6
14027.1
13811.3
13414
12951.9
12524.1
8516.77
8608.77
8714.45
8830.81
8937.45
9002.83
8998.87
8915.46
8767.54
8590.57
8424.24
8296.23
8218.35
8192.24
8213.14
8269.95
8347.18
8431.17
8516.77
8608.77
8714.45
8830.81
8937.45
9002.83
8998.87
8915.46
8767.54
8590.57
8424.24
8296.23
8218.35
8192.24
8213.14
8269.95
8347.18
8431.17
6208.08
6198.54
6169.13
6120.94
6048.77
5947.58
5822.16
5694.03
5597.06
5557.86
5577.11
5636.22
5719.99
5822.97
5938.03
6049.18
6137.26
6190.27
6208.08
6198.54
6169.13
6120.94
6048.77
5947.58
5822.16
5694.03
5597.06
5557.86
5577.11
5636.22
5719.99
5822.97
5938.03
6049.18
6137.26
6190.27
12070.7
11900.8
11807
11767.3
11753.3
11751.5
11778.9
11877.9
12088.3
12410.6
12787
13120.4
13321.7
13346.3
13202.9
12939.8
12623.9
12319
12070.7
11900.8
11807
11767.3
11753.3
11751.5
11778.9
11877.9
12088.3
12410.6
12787
13120.4
13321.7
13346.3
13202.9
12939.8
12623.9
12319
8203.98
8256.46
8344.57
8459.67
8580.05
8676.89
8724.42
8711.14
8646.85
8558.69
8474.45
8406.34
8350.56
8299.87
8253.2
8214.87
8190.23
8184.39
8203.98
8256.46
8344.57
8459.67
8580.05
8676.89
8724.42
8711.14
8646.85
8558.69
8474.45
8406.34
8350.56
8299.87
8253.2
8214.87
8190.23
8184.39
5197.41
5196.22
5194.51
5194.78
5194.36
5187.22
5169.35
5143.68
5119.36
5105.13
5102.85
5107.94
5115.91
5126.65
5142.2
5161.78
5180.6
5193.15
5197.41
5196.22
5194.51
5194.78
5194.36
5187.22
5169.35
5143.68
5119.36
5105.13
5102.85
5107.94
5115.91
5126.65
5142.2
5161.78
5180.6
5193.15
11661
11548.9
11492.9
11489.1
11522.1
11573.8
11635.3
11712.6
11819.9
11963.8
12129
12278.8
12372.2
12384.2
12313.1
12175.8
12000.4
11818.9
11661
11548.9
11492.9
11489.1
11522.1
11573.8
11635.3
11712.6
11819.9
11963.8
12129
12278.8
12372.2
12384.2
12313.1
12175.8
12000.4
11818.9
8043.42
8053
8118.89
8232.35
8369.37
8495.84
8578.46
8600.41
8572.68
8528.09
8496.11
8480.94
8464.22
8424.39
8353.46
8260.17
8163.62
8085.02
8043.42
8053
8118.89
8232.35
8369.37
8495.84
8578.46
8600.41
8572.68
8528.09
8496.11
8480.94
8464.22
8424.39
8353.46
8260.17
8163.62
8085.02
4418.66
4450.1
4492.94
4539.1
4581.15
4615.24
4644.08
4675.98
4716.78
4759.71
4784.85
4771.8
4715.07
4628.62
4537.4
4463.89
4419.79
4406.28
4418.66
4450.1
4492.94
4539.1
4581.15
4615.24
4644.08
4675.98
4716.78
4759.71
4784.85
4771.8
4715.07
4628.62
4537.4
4463.89
4419.79
4406.28
10467.8
10406.9
10370.8
10366.5
10393.3
10443.1
10502.2
10556.7
10598.4
10627.5
10649.9
10671.3
10691
10702.6
10696.4
10666
10611.5
10541
10467.8
10406.9
10370.8
10366.5
10393.3
10443.1
10502.2
10556.7
10598.4
10627.5
10649.9
10671.3
10691
10702.6
10696.4
10666
10611.5
10541
8147.19
8071.18
8070.44
8137.2
8243.93
8348.16
8411.94
8426.18
8418.11
8430.31
8489.12
8588.04
8692.09
8754.26
8736.87
8631.37
8465.35
8288.3
8147.19
8071.18
8070.44
8137.2
8243.93
8348.16
8411.94
8426.18
8418.11
8430.31
8489.12
8588.04
8692.09
8754.26
8736.87
8631.37
8465.35
8288.3
4365.61
4421.2
4492.43
4562.87
4622.34
4667.53
4702.17
4734.71
4772.01
4811.47
4839.4
4837.53
4792.26
4702.68
4583.71
4464.9
4378.82
4345.97
4365.61
4421.2
4492.43
4562.87
4622.34
4667.53
4702.17
4734.71
4772.01
4811.47
4839.4
4837.53
4792.26
4702.68
4583.71
4464.9
4378.82
4345.97
7982.15
7984.24
7992.58
8015.7
8059.54
8121.63
8188.59
8240.55
8260.67
8242.46
8191.64
8123.53
8056.6
8006.21
7978.99
7971.65
7974.87
7979.72
7982.15
7984.24
7992.58
8015.7
8059.54
8121.63
8188.59
8240.55
8260.67
8242.46
8191.64
8123.53
8056.6
8006.21
7978.99
7971.65
7974.87
7979.72
)
;

boundaryField
{
    fixed
    {
        type            calculated;
        value           nonuniform List<scalar> 
108
(
12700.1
12901.8
12725.5
12345.8
11970.5
11702.4
11560.3
11523.9
11556
11611.4
11645.4
11626.1
11549.8
11451.1
11399.9
11481.7
11762.4
12225.6
12700.1
12901.8
12725.5
12345.8
11970.5
11702.4
11560.3
11523.9
11556
11611.4
11645.4
11626.1
11549.8
11451.1
11399.9
11481.7
11762.4
12225.6
11929.2
12024.8
12070
12041.5
11968.9
11894
11842.4
11818.6
11812.1
11804.4
11778
11725.2
11655
11592.9
11571.2
11611.2
11703.8
11817.1
11929.2
12024.8
12070
12041.5
11968.9
11894
11842.4
11818.6
11812.1
11804.4
11778
11725.2
11655
11592.9
11571.2
11611.2
11703.8
11817.1
12386.7
12079.8
11881.2
11866.6
11991.1
12168.3
12320.4
12397.2
12378.8
12273.7
12115.1
11955.7
11858.1
11879.8
12048.3
12322.9
12565.7
12601.5
12386.7
12079.8
11881.2
11866.6
11991.1
12168.3
12320.4
12397.2
12378.8
12273.7
12115.1
11955.7
11858.1
11879.8
12048.3
12322.9
12565.7
12601.5
)
;
    }
    inside
    {
        type            calculated;
        value           nonuniform List<scalar> 
540
(
13003.6
12642
12251.7
12027.6
12019.7
12176.2
12403.3
12607.8
12721.5
12714.5
12599.1
12423.2
12259.1
12188.5
12280.1
12548.1
12893.8
13104.3
13003.6
12642
12251.7
12027.6
12019.7
12176.2
12403.3
12607.8
12721.5
12714.5
12599.1
12423.2
12259.1
12188.5
12280.1
12548.1
12893.8
13104.3
13724.4
13206.4
12699.9
12461.9
12557.5
12922.2
13408.2
13837.7
14065.9
14029.3
13755.4
13339
12912.7
12625.1
12609.8
12925.4
13462.5
13847.5
13724.4
13206.4
12699.9
12461.9
12557.5
12922.2
13408.2
13837.7
14065.9
14029.3
13755.4
13339
12912.7
12625.1
12609.8
12925.4
13462.5
13847.5
14142.9
13971.1
13273.8
12771.7
12785.9
13296.2
14113.4
14951.3
15530.2
15689.2
15431.3
14885
14240.4
13697.6
13409
13416.2
13624.1
13804.6
14142.9
13971.1
13273.8
12771.7
12785.9
13296.2
14113.4
14951.3
15530.2
15689.2
15431.3
14885
14240.4
13697.6
13409
13416.2
13624.1
13804.6
14212.7
14471.8
13604.5
12811
12660.8
13200.9
14269.6
15533.8
16595.6
17159.5
17136.2
16621.9
15811.9
14922.6
14126.2
13518.1
13176
13345.8
14212.7
14471.8
13604.5
12811
12660.8
13200.9
14269.6
15533.8
16595.6
17159.5
17136.2
16621.9
15811.9
14922.6
14126.2
13518.1
13176
13345.8
14000
14022.7
13381.9
12749.3
12622.1
13153.6
14296.1
15786.5
17208.9
18175.7
18484
18135.7
17272.4
16124.8
14967.8
14051.1
13555.9
13595
14000
14022.7
13381.9
12749.3
12622.1
13153.6
14296.1
15786.5
17208.9
18175.7
18484
18135.7
17272.4
16124.8
14967.8
14051.1
13555.9
13595
13913.8
13716.3
13229.1
12828
12831.8
13384.4
14503.3
16032.1
17619.7
18858.3
19465.9
19349.4
18577
17359.9
16020.3
14889
14177.1
13921.5
13913.8
13716.3
13229.1
12828
12831.8
13384.4
14503.3
16032.1
17619.7
18858.3
19465.9
19349.4
18577
17359.9
16020.3
14889
14177.1
13921.5
13932.3
13654.9
13307.5
13093.5
13219.1
13796.6
14859.4
16318.6
17908.1
19259.5
20063.4
20160.4
19548.3
18379.8
16959.3
15656
14723.4
14202.2
13932.3
13654.9
13307.5
13093.5
13219.1
13796.6
14859.4
16318.6
17908.1
19259.5
20063.4
20160.4
19548.3
18379.8
16959.3
15656
14723.4
14202.2
14055.2
13805.8
13599
13524.5
13720.3
14281.8
15246.2
16559.8
18031.1
19359.9
20247.2
20491.5
20028
18949
17527.9
16145.7
15087.6
14425
14055.2
13805.8
13599
13524.5
13720.3
14281.8
15246.2
16559.8
18031.1
19359.9
20247.2
20491.5
20028
18949
17527.9
16145.7
15087.6
14425
14287.1
14119.5
14055
14099.5
14330.1
14827.7
15639
16743.8
18016.6
19226.2
20098.4
20408
20047.8
19074.5
17736.5
16395.5
15335.5
14651.4
14287.1
14119.5
14055
14099.5
14330.1
14827.7
15639
16743.8
18016.6
19226.2
20098.4
20408
20047.8
19074.5
17736.5
16395.5
15335.5
14651.4
14634.6
14557.6
14627.3
14791.4
15058.9
15480.9
16113.1
16973.9
17998.6
19016.4
19784.6
20077.2
19776.3
18928.3
17751.1
16552.9
15583.7
14949.7
14634.6
14557.6
14627.3
14791.4
15058.9
15480.9
16113.1
16973.9
17998.6
19016.4
19784.6
20077.2
19776.3
18928.3
17751.1
16552.9
15583.7
14949.7
15119.8
15114.2
15288.6
15564.3
15890.1
16268.6
16746.9
17370.5
18124.7
18893.9
19479.8
19684.4
19408.6
18700.6
17736.2
16746.4
15925.4
15377.2
15119.8
15114.2
15288.6
15564.3
15890.1
16268.6
16746.9
17370.5
18124.7
18893.9
19479.8
19684.4
19408.6
18700.6
17736.2
16746.4
15925.4
15377.2
15789.7
15822.6
16047.7
16391.6
16775.6
17155.3
17541.2
17973
18463.6
18952.5
19306.6
19384.7
19120.7
18559.3
17826.2
17073.4
16432.6
15991.7
15789.7
15822.6
16047.7
16391.6
16775.6
17155.3
17541.2
17973
18463.6
18952.5
19306.6
19384.7
19120.7
18559.3
17826.2
17073.4
16432.6
15991.7
16720.1
16752.8
16958.9
17290.7
17678.9
18058.9
18396.7
18692.9
18959.1
19183.7
19316.2
19290.5
19070.4
18677.4
18179
17660.8
17204.5
16876.2
16720.1
16752.8
16958.9
17290.7
17678.9
18058.9
18396.7
18692.9
18959.1
19183.7
19316.2
19290.5
19070.4
18677.4
18179
17660.8
17204.5
16876.2
18158.5
18146.6
18262.7
18487.8
18777.1
19069.4
19306.1
19453.3
19514
19517.3
19491.8
19444.2
19360
19219.8
19016.8
18767.2
18508.5
18289.9
18158.5
18146.6
18262.7
18487.8
18777.1
19069.4
19306.1
19453.3
19514
19517.3
19491.8
19444.2
19360
19219.8
19016.8
18767.2
18508.5
18289.9
19738.5
19622.3
19576.9
19613.3
19711.8
19827.5
19907.9
19922.2
19878.3
19816
19783.6
19812.7
19900.8
20012
20093.7
20103.5
20027.6
19890.3
19738.5
19622.3
19576.9
19613.3
19711.8
19827.5
19907.9
19922.2
19878.3
19816
19783.6
19812.7
19900.8
20012
20093.7
20103.5
20027.6
19890.3
)
;
    }
    outside
    {
        type            calculated;
        value           nonuniform List<scalar> 
540
(
13250.5
13395.9
13069.7
12572.1
12139.3
11851.4
11702.3
11656.1
11668.3
11694.1
11695.2
11649.8
11564.3
11480.7
11473.8
11635.8
12043.5
12668.8
13250.5
13395.9
13069.7
12572.1
12139.3
11851.4
11702.3
11656.1
11668.3
11694.1
11695.2
11649.8
11564.3
11480.7
11473.8
11635.8
12043.5
12668.8
13057.7
12825.5
12333.6
11943.7
11734.9
11681.6
11732.8
11837.8
11950.2
12028
12035.2
11950.6
11781.7
11579.4
11442.5
11498.9
11867.9
12555.6
13057.7
12825.5
12333.6
11943.7
11734.9
11681.6
11732.8
11837.8
11950.2
12028
12035.2
11950.6
11781.7
11579.4
11442.5
11498.9
11867.9
12555.6
12922.5
12500
12104.9
11906
11890.6
11986.3
12126.5
12258.4
12339.7
12336.4
12224.1
11996.3
11681.4
11363.4
11183.8
11293.6
11793.7
12712.2
12922.5
12500
12104.9
11906
11890.6
11986.3
12126.5
12258.4
12339.7
12336.4
12224.1
11996.3
11681.4
11363.4
11183.8
11293.6
11793.7
12712.2
13113.4
12764.4
12423.6
12318.3
12363.1
12461.3
12547.7
12575.4
12508.4
12323.6
12014
11595.2
11124.3
10725.9
10583.8
10847.8
11565
12619.6
13113.4
12764.4
12423.6
12318.3
12363.1
12461.3
12547.7
12575.4
12508.4
12323.6
12014
11595.2
11124.3
10725.9
10583.8
10847.8
11565
12619.6
12606.5
12712.8
12718.7
12787.5
12891
12954.7
12925.9
12776.8
12496.5
12089.6
11577.7
11005.3
10463.1
10114.8
10146
10605.6
11357.2
12137.3
12606.5
12712.8
12718.7
12787.5
12891
12954.7
12925.9
12776.8
12496.5
12089.6
11577.7
11005.3
10463.1
10114.8
10146
10605.6
11357.2
12137.3
12307.6
12606.6
12843.1
13097.9
13323.4
13418.4
13312.2
12996
12507.9
11904.5
11245.1
10600.6
10084.3
9863.18
10046.8
10555.7
11206
11833.1
12307.6
12606.6
12843.1
13097.9
13323.4
13418.4
13312.2
12996
12507.9
11904.5
11245.1
10600.6
10084.3
9863.18
10046.8
10555.7
11206
11833.1
12175.8
12531.5
12851.9
13196.8
13518.5
13689
13591.9
13203.1
12595.3
11877.4
11147.3
10495.6
10041.1
9916.05
10148.5
10615.8
11171.2
11715.7
12175.8
12531.5
12851.9
13196.8
13518.5
13689
13591.9
13203.1
12595.3
11877.4
11147.3
10495.6
10041.1
9916.05
10148.5
10615.8
11171.2
11715.7
12118.4
12453.6
12757.7
13091.9
13426.5
13641.1
13599
13244.9
12643.2
11922.4
11204.7
10594.9
10202.7
10118.1
10330.5
10732
11213.2
11696.9
12118.4
12453.6
12757.7
13091.9
13426.5
13641.1
13599
13244.9
12643.2
11922.4
11204.7
10594.9
10202.7
10118.1
10330.5
10732
11213.2
11696.9
12037.9
12320.3
12565.8
12833.1
13111.9
13310.9
13310.9
13043.9
12543.6
11918.6
11290.3
10764.2
10433.4
10357
10520.4
10847.7
11256.2
11674.5
12037.9
12320.3
12565.8
12833.1
13111.9
13310.9
13310.9
13043.9
12543.6
11918.6
11290.3
10764.2
10433.4
10357
10520.4
10847.7
11256.2
11674.5
11862
12088.1
12274.8
12466.9
12665.2
12811.7
12822.7
12641.7
12278.1
11804
11315.8
10903.5
10638.8
10562.1
10667.7
10911
11232.2
11568.4
11862
12088.1
12274.8
12466.9
12665.2
12811.7
12822.7
12641.7
12278.1
11804
11315.8
10903.5
10638.8
10562.1
10667.7
10911
11232.2
11568.4
11549.8
11724.3
11868.3
12005.2
12136.9
12231.1
12238.6
12123.5
11886
11567.2
11231.7
10943.2
10749.6
10676.8
10726.6
10878.4
11095.7
11333.5
11549.8
11724.3
11868.3
12005.2
12136.9
12231.1
12238.6
12123.5
11886
11567.2
11231.7
10943.2
10749.6
10676.8
10726.6
10878.4
11095.7
11333.5
11086.2
11209.6
11324.3
11435.1
11536.9
11609.3
11624
11559.9
11417.1
11221.6
11015.3
10837.4
10712.2
10650.2
10653.3
10715.7
10822.9
10953.4
11086.2
11209.6
11324.3
11435.1
11536.9
11609.3
11624
11559.9
11417.1
11221.6
11015.3
10837.4
10712.2
10650.2
10653.3
10715.7
10822.9
10953.4
10489.6
10556.9
10647.6
10756.9
10870.5
10964.5
11012
10994.3
10912.9
10793.8
10673.5
10577
10509
10462.3
10431.4
10416.7
10420.8
10444.8
10489.6
10556.9
10647.6
10756.9
10870.5
10964.5
11012
10994.3
10912.9
10793.8
10673.5
10577
10509
10462.3
10431.4
10416.7
10420.8
10444.8
9895.67
9896.81
9952.6
10059.5
10197.4
10331.7
10422.7
10442.9
10396
10318.1
10252.4
10219.1
10207.4
10191.8
10152.9
10088.3
10010.5
9939.46
9895.67
9896.81
9952.6
10059.5
10197.4
10331.7
10422.7
10442.9
10396
10318.1
10252.4
10219.1
10207.4
10191.8
10152.9
10088.3
10010.5
9939.46
9635.88
9525.47
9499.32
9554.08
9662.31
9776.99
9852.65
9873.94
9867.11
9879.76
9945.4
10062
10193.3
10285.6
10291.6
10194.1
10016.9
9812.6
9635.88
9525.47
9499.32
9554.08
9662.31
9776.99
9852.65
9873.94
9867.11
9879.76
9945.4
10062
10193.3
10285.6
10291.6
10194.1
10016.9
9812.6
)
;
    }
}


// ************************************************************************* //
