/*--------------------------------*- C++ -*----------------------------------*\
| =========                 |                                                 |
| \\      /  F ield         | OpenFOAM: The Open Source CFD Toolbox           |
|  \\    /   O peration     | Version:  2312                                  |
|   \\  /    A nd           | Website:  www.openfoam.com                      |
|    \\/     M anipulation  |                                                 |
\*---------------------------------------------------------------------------*/
FoamFile
{
    version     2.0;
    format      ascii;
    arch        "LSB;label=32;scalar=64";
    class       volScalarField;
    location    "0.2";
    object      sigmaHyd;
}
// * * * * * * * * * * * * * * * * * * * * * * * * * * * * * * * * * * * * * //

dimensions      [1 -1 -2 0 0 0 0];

internalField   nonuniform List<scalar> 
1620
(
-13815.2
-17362.4
-17440.6
-14844
-10913.8
-6733.62
-2926.9
281.804
2888.69
4951.81
6495.81
7466.02
7712.12
6996.38
5045.29
1688.34
-2927.56
-8388.49
-13815.2
-17362.4
-17440.6
-14844
-10913.8
-6733.62
-2926.9
281.804
2888.69
4951.81
6495.81
7466.02
7712.12
6996.38
5045.29
1688.34
-2927.56
-8388.49
-9634.34
-10957.6
-10868.8
-9407.74
-7188.34
-4748.28
-2456.3
-525.872
936.715
1883.52
2292.03
2148.63
1443.41
174.139
-1630.36
-3832.87
-6067.47
-7998.62
-9634.34
-10957.6
-10868.8
-9407.74
-7188.34
-4748.28
-2456.3
-525.872
936.715
1883.52
2292.03
2148.63
1443.41
174.139
-1630.36
-3832.87
-6067.47
-7998.62
-5633.75
-5075.08
-4509.38
-3540.34
-2205.58
-737.621
572.259
1457.88
1719.91
1247.67
37.0385
-1791.16
-3973.7
-6105.11
-7694.07
-8303.61
-7782.38
-6590.32
-5633.75
-5075.08
-4509.38
-3540.34
-2205.58
-737.621
572.259
1457.88
1719.91
1247.67
37.0385
-1791.16
-3973.7
-6105.11
-7694.07
-8303.61
-7782.38
-6590.32
-3666.05
-4122.61
-3809.35
-3283.42
-2525.16
-1714.84
-954.23
-232.115
509.699
1312.9
2166.82
2993.59
3648.96
3939.92
3651.1
2547.66
465.189
-1877.67
-3666.05
-4122.61
-3809.35
-3283.42
-2525.16
-1714.84
-954.23
-232.115
509.699
1312.9
2166.82
2993.59
3648.96
3939.92
3651.1
2547.66
465.189
-1877.67
-4191.19
-3948.65
-2950.76
-2600.7
-2513.94
-2478.46
-2413.48
-2317.66
-2224.43
-2176.3
-2209.89
-2343.89
-2564
-2813.16
-3035.12
-3356.02
-4319.4
-5307.08
-4191.19
-3948.65
-2950.76
-2600.7
-2513.94
-2478.46
-2413.48
-2317.66
-2224.43
-2176.3
-2209.89
-2343.89
-2564
-2813.16
-3035.12
-3356.02
-4319.4
-5307.08
-5643.4
-5527.14
-4512.54
-3438.72
-2360.55
-1397.44
-686.092
-372.627
-579.932
-1376.6
-2745.73
-4551.57
-6502.46
-8136.25
-8922.94
-8615.33
-7768.19
-6651.07
-5643.4
-5527.14
-4512.54
-3438.72
-2360.55
-1397.44
-686.092
-372.627
-579.932
-1376.6
-2745.73
-4551.57
-6502.46
-8136.25
-8922.94
-8615.33
-7768.19
-6651.07
-2509.33
-1822.68
-281.992
1293.98
2582.83
3508.74
4113.69
4528.97
4899.49
5319.92
5804.62
6280.18
6594.05
6543.12
5909.02
4455
1733.58
-1692.64
-2509.33
-1822.68
-281.992
1293.98
2582.83
3508.74
4113.69
4528.97
4899.49
5319.92
5804.62
6280.18
6594.05
6543.12
5909.02
4455
1733.58
-1692.64
-7913.88
-5253.63
-3334.27
-2619.76
-2337.78
-2132.41
-1894.9
-1649.98
-1455.93
-1363.68
-1409.95
-1617.06
-1983.59
-2470.03
-3027.43
-3723.25
-5088.92
-7795.04
-7913.88
-5253.63
-3334.27
-2619.76
-2337.78
-2132.41
-1894.9
-1649.98
-1455.93
-1363.68
-1409.95
-1617.06
-1983.59
-2470.03
-3027.43
-3723.25
-5088.92
-7795.04
-11753.9
-10171
-9175.01
-8543.38
-7605.11
-6461.87
-5352.58
-4537.91
-4241.47
-4612.66
-5688.82
-7362.08
-9348.15
-11175.3
-12278.7
-12308.8
-11675.8
-11688.4
-11753.9
-10171
-9175.01
-8543.38
-7605.11
-6461.87
-5352.58
-4537.91
-4241.47
-4612.66
-5688.82
-7362.08
-9348.15
-11175.3
-12278.7
-12308.8
-11675.8
-11688.4
-3807.1
-2352.8
-261.433
1731.06
3356.4
4444.66
5023.42
5275.93
5409.19
5565.99
5792.07
6032.53
6141.51
5909.03
5110.14
3535.32
809.702
-2730.84
-3807.1
-2352.8
-261.433
1731.06
3356.4
4444.66
5023.42
5275.93
5409.19
5565.99
5792.07
6032.53
6141.51
5909.03
5110.14
3535.32
809.702
-2730.84
-7387.25
-4194.63
-3057.59
-2848.4
-2709.96
-2388.65
-1934.57
-1471.91
-1107.98
-906.698
-905.282
-1137.28
-1630.13
-2372.2
-3294.59
-4386.11
-5887.22
-7347.2
-7387.25
-4194.63
-3057.59
-2848.4
-2709.96
-2388.65
-1934.57
-1471.91
-1107.98
-906.698
-905.282
-1137.28
-1630.13
-2372.2
-3294.59
-4386.11
-5887.22
-7347.2
-6763.79
-6277.3
-7235.06
-8038.23
-8072.29
-7433.1
-6450.27
-5483.39
-4872.12
-4872.69
-5597.28
-6971.35
-8698.28
-10248.5
-10976.5
-10486.8
-8940.45
-7388.15
-6763.79
-6277.3
-7235.06
-8038.23
-8072.29
-7433.1
-6450.27
-5483.39
-4872.12
-4872.69
-5597.28
-6971.35
-8698.28
-10248.5
-10976.5
-10486.8
-8940.45
-7388.15
-4603.59
-4336.49
-2914.35
-907.958
961.183
2302.28
3057.42
3384.91
3501.54
3576.33
3682.7
3783.09
3729.38
3285.63
2195.62
313.045
-2100.91
-3975.21
-4603.59
-4336.49
-2914.35
-907.958
961.183
2302.28
3057.42
3384.91
3501.54
3576.33
3682.7
3783.09
3729.38
3285.63
2195.62
313.045
-2100.91
-3975.21
-4569.72
-4118.8
-3803.17
-3587.9
-3296.55
-2788.94
-2130.88
-1481.42
-977.273
-694.037
-673.482
-961.907
-1606.34
-2590.43
-3767.59
-4870.23
-5461.31
-5145
-4569.72
-4118.8
-3803.17
-3587.9
-3296.55
-2788.94
-2130.88
-1481.42
-977.273
-694.037
-673.482
-961.907
-1606.34
-2590.43
-3767.59
-4870.23
-5461.31
-5145
1379.94
336.352
-1768.8
-3724.53
-4849.37
-5025.25
-4485.36
-3617.1
-2854.97
-2564.18
-2940.34
-3947.14
-5265.76
-6284.25
-6269.64
-4801.15
-2158.64
450.256
1379.94
336.352
-1768.8
-3724.53
-4849.37
-5025.25
-4485.36
-3617.1
-2854.97
-2564.18
-2940.34
-3947.14
-5265.76
-6284.25
-6269.64
-4801.15
-2158.64
450.256
-6440.85
-6292.19
-5402.99
-3932.5
-2289.39
-884.586
85.1947
646.395
935.824
1092.41
1187.69
1187.36
947.857
274.472
-950.771
-2634.2
-4419.87
-5807.57
-6440.85
-6292.19
-5402.99
-3932.5
-2289.39
-884.586
85.1947
646.395
935.824
1092.41
1187.69
1187.36
947.857
274.472
-950.771
-2634.2
-4419.87
-5807.57
-4576.99
-4092.51
-3808.57
-3616.59
-3296.51
-2748.85
-2049.89
-1363.61
-838.756
-563.83
-586.896
-949.028
-1669.43
-2672.8
-3746.29
-4608.14
-5032.03
-4975.64
-4576.99
-4092.51
-3808.57
-3616.59
-3296.51
-2748.85
-2049.89
-1363.61
-838.756
-563.83
-586.896
-949.028
-1669.43
-2672.8
-3746.29
-4608.14
-5032.03
-4975.64
6548.27
5749.52
3694.52
1352.35
-416.277
-1230.24
-1140.92
-479.84
284.784
718.107
570.998
-127.274
-1019.07
-1465.68
-839.407
1017.08
3550.08
5704.48
6548.27
5749.52
3694.52
1352.35
-416.277
-1230.24
-1140.92
-479.84
284.784
718.107
570.998
-127.274
-1019.07
-1465.68
-839.407
1017.08
3550.08
5704.48
-8265.35
-8283.92
-7778.88
-6785.19
-5479.82
-4141.32
-3001.61
-2163.51
-1617
-1301.75
-1178.37
-1282.02
-1719.36
-2583.3
-3840.03
-5300.45
-6685.3
-7725.18
-8265.35
-8283.92
-7778.88
-6785.19
-5479.82
-4141.32
-3001.61
-2163.51
-1617
-1301.75
-1178.37
-1282.02
-1719.36
-2583.3
-3840.03
-5300.45
-6685.3
-7725.18
-4392.3
-3995.38
-3624.68
-3309.36
-2933.08
-2408.55
-1776.92
-1169.09
-720.259
-518.328
-607.733
-1006.78
-1691.26
-2555.87
-3424
-4125
-4545.14
-4626.19
-4392.3
-3995.38
-3624.68
-3309.36
-2933.08
-2408.55
-1776.92
-1169.09
-720.259
-518.328
-607.733
-1006.78
-1691.26
-2555.87
-3424
-4125
-4545.14
-4626.19
10929.6
10232.6
8325.63
5924.48
3844.73
2606.14
2304.68
2691.15
3321.99
3755.26
3733.63
3297.55
2814.88
2860.77
3890.82
5880.46
8254.11
10171.7
10929.6
10232.6
8325.63
5924.48
3844.73
2606.14
2304.68
2691.15
3321.99
3755.26
3733.63
3297.55
2814.88
2860.77
3890.82
5880.46
8254.11
10171.7
-10075.2
-10204.8
-9987.83
-9380.39
-8411.87
-7227.5
-6027.59
-4986.97
-4209.26
-3729.57
-3558.73
-3731.18
-4297.22
-5247.08
-6454.13
-7712.18
-8813.92
-9616.25
-10075.2
-10204.8
-9987.83
-9380.39
-8411.87
-7227.5
-6027.59
-4986.97
-4209.26
-3729.57
-3558.73
-3731.18
-4297.22
-5247.08
-6454.13
-7712.18
-8813.92
-9616.25
-4253.26
-3888.83
-3422.97
-2969.29
-2519.57
-2022.3
-1487.16
-996.831
-653.659
-530.473
-660.408
-1041.3
-1627.54
-2325.88
-3028.47
-3654.7
-4130.09
-4353.29
-4253.26
-3888.83
-3422.97
-2969.29
-2519.57
-2022.3
-1487.16
-996.831
-653.659
-530.473
-660.408
-1041.3
-1627.54
-2325.88
-3028.47
-3654.7
-4130.09
-4353.29
14670.2
14082.1
12341.5
9999.57
7780.27
6242.94
5581.64
5640.31
6047.26
6403.68
6469.5
6284.78
6179.36
6619.64
7912.53
9945.39
12189.8
13953.6
14670.2
14082.1
12341.5
9999.57
7780.27
6242.94
5581.64
5640.31
6047.26
6403.68
6469.5
6284.78
6179.36
6619.64
7912.53
9945.39
12189.8
13953.6
-11610.8
-11817
-11828.6
-11558.8
-10942.3
-10015
-8913.84
-7826.03
-6923.43
-6322.31
-6086.48
-6251.8
-6817.99
-7706.31
-8754.32
-9774.57
-10620.9
-11226.9
-11610.8
-11817
-11828.6
-11558.8
-10942.3
-10015
-8913.84
-7826.03
-6923.43
-6322.31
-6086.48
-6251.8
-6817.99
-7706.31
-8754.32
-9774.57
-10620.9
-11226.9
-4357.93
-4024.32
-3486.47
-2904.23
-2352.25
-1830.42
-1343.15
-936.113
-674.365
-606.676
-751.248
-1095.75
-1597.21
-2191.17
-2821.09
-3448.36
-4003.03
-4349.62
-4357.93
-4024.32
-3486.47
-2904.23
-2352.25
-1830.42
-1343.15
-936.113
-674.365
-606.676
-751.248
-1095.75
-1597.21
-2191.17
-2821.09
-3448.36
-4003.03
-4349.62
17835
17378.4
15859.6
13697.6
11494.5
9780.75
8810.99
8530.63
8672.2
8913.24
9041.37
9074.43
9268.38
9972.75
11390
13383.3
15491.4
17132.3
17835
17378.4
15859.6
13697.6
11494.5
9780.75
8810.99
8530.63
8672.2
8913.24
9041.37
9074.43
9268.38
9972.75
11390
13383.3
15491.4
17132.3
-12626.2
-12881.2
-13080.3
-13121.5
-12884.1
-12318.1
-11484.2
-10534.9
-9657.39
-9013.52
-8707.84
-8781.96
-9207.44
-9879.06
-10641.9
-11350.2
-11915.7
-12324.5
-12626.2
-12881.2
-13080.3
-13121.5
-12884.1
-12318.1
-11484.2
-10534.9
-9657.39
-9013.52
-8707.84
-8781.96
-9207.44
-9879.06
-10641.9
-11350.2
-11915.7
-12324.5
-4883.97
-4598.09
-4028.2
-3341.61
-2660.69
-2038.59
-1504.26
-1097.92
-863.151
-824.397
-980.502
-1312.31
-1787.65
-2366.18
-3013.06
-3693.97
-4332.49
-4780.81
-4883.97
-4598.09
-4028.2
-3341.61
-2660.69
-2038.59
-1504.26
-1097.92
-863.151
-824.397
-980.502
-1312.31
-1787.65
-2366.18
-3013.06
-3693.97
-4332.49
-4780.81
20303.7
20009.7
18794.2
16960.8
14966.1
13252.3
12086.5
11504.9
11362.9
11441.8
11574
11748.8
12130.5
12956.6
14355.8
16202.6
18115.2
19611.8
20303.7
20009.7
18794.2
16960.8
14966.1
13252.3
12086.5
11504.9
11362.9
11441.8
11574
11748.8
12130.5
12956.6
14355.8
16202.6
18115.2
19611.8
-12974.2
-13249.4
-13592.7
-13904.7
-14040.1
-13892.4
-13449.9
-12803.5
-12108
-11525.4
-11175.3
-11105.8
-11285.8
-11621.2
-11997.1
-12325.9
-12575.5
-12770.4
-12974.2
-13249.4
-13592.7
-13904.7
-14040.1
-13892.4
-13449.9
-12803.5
-12108
-11525.4
-11175.3
-11105.8
-11285.8
-11621.2
-11997.1
-12325.9
-12575.5
-12770.4
-5933.64
-5713.67
-5161.4
-4417.28
-3612.37
-2838.1
-2164.76
-1660.17
-1376.45
-1330.21
-1503.81
-1866.61
-2388.41
-3035.48
-3766.91
-4529.99
-5238.52
-5754.88
-5933.64
-5713.67
-5161.4
-4417.28
-3612.37
-2838.1
-2164.76
-1660.17
-1376.45
-1330.21
-1503.81
-1866.61
-2388.41
-3035.48
-3766.91
-4529.99
-5238.52
-5754.88
21924.6
21821
20987.8
19629.2
18051
16562.3
15382.5
14597.8
14179.2
14033.4
14071.1
14273.1
14717.3
15527.7
16768.3
18340.3
19959.7
21256.4
21924.6
21821
20987.8
19629.2
18051
16562.3
15382.5
14597.8
14179.2
14033.4
14071.1
14273.1
14717.3
15527.7
16768.3
18340.3
19959.7
21256.4
-12633.7
-12887.3
-13305.2
-13799.3
-14227
-14460
-14439.1
-14189.7
-13803.8
-13399.9
-13077
-12879.9
-12790.5
-12752.6
-12711.3
-12644.7
-12572.7
-12546.9
-12633.7
-12887.3
-13305.2
-13799.3
-14227
-14460
-14439.1
-14189.7
-13803.8
-13399.9
-13077
-12879.9
-12790.5
-12752.6
-12711.3
-12644.7
-12572.7
-12546.9
-7524.9
-7373.25
-6884.91
-6153.83
-5287.61
-4388.25
-3557.37
-2897.4
-2491.32
-2378.26
-2548.78
-2965.61
-3583.41
-4347.87
-5190.84
-6030.6
-6773.29
-7307.27
-7524.9
-7373.25
-6884.91
-6153.83
-5287.61
-4388.25
-3557.37
-2897.4
-2491.32
-2378.26
-2548.78
-2965.61
-3583.41
-4347.87
-5190.84
-6030.6
-6773.29
-7307.27
22788
22888.4
22482.1
21685
20666.8
19597
18607.4
17779.5
17157
16761.7
16606.8
16706.7
17081.6
17753.8
18719.4
19904.7
21133.4
22166
22788
22888.4
22482.1
21685
20666.8
19597
18607.4
17779.5
17157
16761.7
16606.8
16706.7
17081.6
17753.8
18719.4
19904.7
21133.4
22166
-11728.2
-11915.3
-12305.9
-12829.9
-13374.6
-13831.5
-14130.7
-14250.4
-14213.7
-14073.3
-13878.4
-13647.3
-13373.7
-13046.2
-12671.1
-12287.8
-11959.9
-11754.5
-11728.2
-11915.3
-12305.9
-12829.9
-13374.6
-13831.5
-14130.7
-14250.4
-14213.7
-14073.3
-13878.4
-13647.3
-13373.7
-13046.2
-12671.1
-12287.8
-11959.9
-11754.5
-9652.73
-9597.78
-9252.23
-8662.16
-7893.46
-7031.19
-6170.53
-5417.92
-4873.56
-4617.93
-4688.83
-5071.26
-5705.95
-6503.99
-7365.17
-8192.62
-8900.19
-9408.7
-9652.73
-9597.78
-9252.23
-8662.16
-7893.46
-7031.19
-6170.53
-5417.92
-4873.56
-4617.93
-4688.83
-5071.26
-5705.95
-6503.99
-7365.17
-8192.62
-8900.19
-9408.7
23384.4
23555.5
23481.9
23206.2
22786.6
22273.8
21708.5
21127.4
20578.2
20126.4
19848.2
19801.8
20000.7
20415.5
20993.2
21671.4
22365
22968.8
23384.4
23555.5
23481.9
23206.2
22786.6
22273.8
21708.5
21127.4
20578.2
20126.4
19848.2
19801.8
20000.7
20415.5
20993.2
21671.4
22365
22968.8
-9753.08
-9699.51
-9867.63
-10209.2
-10674.8
-11225.5
-11813.4
-12365.2
-12807
-13103.5
-13246.6
-13217.8
-12996.4
-12573.9
-11970.1
-11263.2
-10582.6
-10053.7
-9753.08
-9699.51
-9867.63
-10209.2
-10674.8
-11225.5
-11813.4
-12365.2
-12807
-13103.5
-13246.6
-13217.8
-12996.4
-12573.9
-11970.1
-11263.2
-10582.6
-10053.7
-11981
-11910.6
-11730.2
-11454.7
-11120.9
-10777.7
-10455.8
-10164.6
-9917.99
-9770.54
-9795.43
-10023.8
-10417.6
-10875.1
-11292.1
-11609.7
-11824.3
-11948.3
-11981
-11910.6
-11730.2
-11454.7
-11120.9
-10777.7
-10455.8
-10164.6
-9917.99
-9770.54
-9795.43
-10023.8
-10417.6
-10875.1
-11292.1
-11609.7
-11824.3
-11948.3
25557.8
25743.9
25775.6
25657.6
25396.8
25008.1
24532.1
24030.6
23568.3
23193.6
22944
22854.5
22951.2
23235
23677.3
24212.3
24753.3
25219.8
25557.8
25743.9
25775.6
25657.6
25396.8
25008.1
24532.1
24030.6
23568.3
23193.6
22944
22854.5
22951.2
23235
23677.3
24212.3
24753.3
25219.8
-10557.9
-10884
-11270.5
-11717.6
-12161.3
-12471.1
-12509.7
-12225.2
-11680.6
-11008.8
-10332.5
-9732.66
-9308.57
-9149.99
-9266.41
-9565.65
-9920.69
-10251.4
-10557.9
-10884
-11270.5
-11717.6
-12161.3
-12471.1
-12509.7
-12225.2
-11680.6
-11008.8
-10332.5
-9732.66
-9308.57
-9149.99
-9266.41
-9565.65
-9920.69
-10251.4
-14596.3
-14932.7
-15219
-15445.6
-15558.3
-15468.3
-15093.7
-14437.4
-13610.5
-12787.1
-12124.8
-11731.7
-11664.3
-11942.6
-12468.1
-13098.6
-13694.8
-14193.2
-14596.3
-14932.7
-15219
-15445.6
-15558.3
-15468.3
-15093.7
-14437.4
-13610.5
-12787.1
-12124.8
-11731.7
-11664.3
-11942.6
-12468.1
-13098.6
-13694.8
-14193.2
23418.2
23251.4
23115.1
23022.7
23029.7
23204.7
23593.6
24157.7
24792
25351.6
25723.9
25850.5
25701.9
25339.2
24842.3
24346.6
23934.4
23633.1
23418.2
23251.4
23115.1
23022.7
23029.7
23204.7
23593.6
24157.7
24792
25351.6
25723.9
25850.5
25701.9
25339.2
24842.3
24346.6
23934.4
23633.1
)
;

boundaryField
{
    fixed
    {
        type            zeroGradient;
    }
    inside
    {
        type            zeroGradient;
    }
    outside
    {
        type            zeroGradient;
    }
}


// ************************************************************************* //
