/*--------------------------------*- C++ -*----------------------------------*\
| =========                 |                                                 |
| \\      /  F ield         | OpenFOAM: The Open Source CFD Toolbox           |
|  \\    /   O peration     | Version:  2312                                  |
|   \\  /    A nd           | Website:  www.openfoam.com                      |
|    \\/     M anipulation  |                                                 |
\*---------------------------------------------------------------------------*/
FoamFile
{
    version     2.0;
    format      ascii;
    arch        "LSB;label=32;scalar=64";
    class       volSymmTensorField;
    location    "0.2";
    object      sigma;
}
// * * * * * * * * * * * * * * * * * * * * * * * * * * * * * * * * * * * * * //

dimensions      [1 -1 -2 0 0 0 0];

internalField   nonuniform List<symmTensor> 
1620
(
(-13820.1 -1761.85 1905.85 -7903.66 -5938.26 -7721.83)
(-16339.2 -2866.18 3210.02 -12552.4 -5475.57 -11195.7)
(-15212.2 -3245.76 4053.18 -13738.5 -4780.85 -11371.2)
(-11616.6 -3212.52 4522.8 -11967.5 -4091.39 -8947.99)
(-6964.6 -3041.71 4765.78 -8605.59 -3536.43 -5171.2)
(-2288.23 -2865.85 4887.35 -4820.42 -3154.08 -1092.2)
(1851.08 -2734.6 4946.57 -1288.88 -2938.83 2657.09)
(5267.26 -2663.5 4969.9 1744.54 -2869.99 5833.62)
(7969.61 -2654.94 4960.95 4278.15 -2924.14 8418.29)
(10010.9 -2703.58 4906.84 6385.08 -3078.82 10459.5)
(11399.1 -2795.06 4784.56 8110.87 -3312.66 11977.5)
(12058 -2903.78 4568.65 9420.73 -3605.55 12919.3)
(11816.2 -2991.71 4237.11 10177.4 -3941.67 13142.7)
(10418.2 -3005.17 3770.54 10147.2 -4314.37 12423.7)
(7580.66 -2860.88 3140.31 9049.26 -4727.67 10505.9)
(3160.09 -2415.59 2291.17 6669.66 -5184.58 7235.26)
(-2532.45 -1462.09 1143.37 2981.89 -5648.15 2767.89)
(-8646.02 78.628 -324.066 -2026.97 -5974.1 -2492.49)
(-13820.1 1761.85 -1905.85 -7903.66 -5938.26 -7721.83)
(-16339.2 2866.18 -3210.02 -12552.4 -5475.57 -11195.7)
(-15212.2 3245.76 -4053.18 -13738.5 -4780.85 -11371.2)
(-11616.6 3212.52 -4522.8 -11967.5 -4091.39 -8947.99)
(-6964.6 3041.71 -4765.78 -8605.59 -3536.43 -5171.2)
(-2288.23 2865.85 -4887.35 -4820.42 -3154.08 -1092.2)
(1851.08 2734.6 -4946.57 -1288.88 -2938.83 2657.09)
(5267.26 2663.5 -4969.9 1744.54 -2869.99 5833.62)
(7969.61 2654.94 -4960.95 4278.15 -2924.14 8418.29)
(10010.9 2703.58 -4906.84 6385.08 -3078.82 10459.5)
(11399.1 2795.06 -4784.56 8110.87 -3312.66 11977.5)
(12058 2903.78 -4568.65 9420.73 -3605.55 12919.3)
(11816.2 2991.71 -4237.11 10177.4 -3941.67 13142.7)
(10418.2 3005.17 -3770.54 10147.2 -4314.37 12423.7)
(7580.66 2860.88 -3140.31 9049.26 -4727.67 10505.9)
(3160.09 2415.59 -2291.17 6669.66 -5184.58 7235.26)
(-2532.45 1462.09 -1143.37 2981.89 -5648.15 2767.89)
(-8646.02 -78.628 324.066 -2026.97 -5974.1 -2492.49)
(-9620.57 -1766.52 395.003 1942.55 -1103.62 -9225)
(-9663.74 -4076.92 609.293 -665.997 -1154.48 -10543.1)
(-7807.26 -5360.36 767.812 -2289.78 -1103.27 -10509.5)
(-4703.82 -5849.07 853.787 -2388.15 -963.253 -9131.25)
(-1173.24 -5915.77 880.634 -1410.79 -794.394 -6981.01)
(2252.59 -5807.94 870.846 83.4109 -651.927 -4580.85)
(5261.29 -5654.4 843.885 1677.19 -564.717 -2307.37)
(7684.53 -5518.52 812.707 3125.81 -538.336 -387.963)
(9435.23 -5432.6 783.103 4312.79 -564.609 1062.13)
(10460.9 -5412.65 753.543 5196.2 -628.655 1993.51)
(10717.9 -5461.34 716.656 5770.5 -712.879 2387.74)
(10162.4 -5564.73 662.852 6046.04 -799.333 2237.41)
(8749.17 -5684.9 584.667 6042.78 -871.864 1538.28)
(6435.62 -5744.95 479.442 5794.58 -918.921 292.22)
(3216.28 -5598.32 348.73 5362.47 -937.182 -1469.84)
(-741.334 -4984.8 196.004 4854.71 -937.225 -3611.99)
(-4814.97 -3546.15 23.5039 4388.52 -949.607 -5775.95)
(-8014.72 -1114.81 -172.811 3658.19 -1009.66 -7639.33)
(-9620.57 1766.52 -395.003 1942.55 -1103.62 -9225)
(-9663.74 4076.92 -609.293 -665.997 -1154.48 -10543.1)
(-7807.26 5360.36 -767.812 -2289.78 -1103.27 -10509.5)
(-4703.82 5849.07 -853.787 -2388.15 -963.253 -9131.25)
(-1173.24 5915.77 -880.634 -1410.79 -794.394 -6981.01)
(2252.59 5807.94 -870.846 83.4109 -651.927 -4580.85)
(5261.29 5654.4 -843.885 1677.19 -564.717 -2307.37)
(7684.53 5518.52 -812.707 3125.81 -538.336 -387.963)
(9435.23 5432.6 -783.103 4312.79 -564.609 1062.13)
(10460.9 5412.65 -753.543 5196.2 -628.655 1993.51)
(10717.9 5461.34 -716.656 5770.5 -712.879 2387.74)
(10162.4 5564.73 -662.852 6046.04 -799.333 2237.41)
(8749.17 5684.9 -584.667 6042.78 -871.864 1538.28)
(6435.62 5744.95 -479.442 5794.58 -918.921 292.22)
(3216.28 5598.32 -348.73 5362.47 -937.182 -1469.84)
(-741.334 4984.8 -196.004 4854.71 -937.225 -3611.99)
(-4814.97 3546.15 -23.5039 4388.52 -949.607 -5775.95)
(-8014.72 1114.81 172.811 3658.19 -1009.66 -7639.33)
(-5876.07 -461.854 -42.2188 2081.03 5900.92 -1106.2)
(-4761.9 -1971.16 -1269.48 2135.13 5554.02 -598.46)
(-3262.55 -2989.64 -2232.59 1884.21 5099.95 -149.796)
(-1325.9 -3561.37 -2950.99 2003.38 4709.48 701.488)
(857.198 -3841.97 -3500.17 2555.58 4424.62 1970.48)
(3023.96 -3951.8 -3939.59 3322.23 4211.15 3440.94)
(4892.4 -3960.21 -4296.44 4020.3 4021.41 4804.08)
(6206.52 -3909.02 -4574.76 4407.69 3827.99 5759.43)
(6767.48 -3831.05 -4768.76 4317.98 3632.25 6074.27)
(6455.71 -3756.84 -4873.21 3670.13 3459.65 5617.17)
(5251.88 -3712.84 -4888.5 2478.69 3349.68 4380.54)
(3257.07 -3714.91 -4819.13 872.265 3345.23 2497.18)
(708.58 -3758.97 -4666.5 -882.133 3484.71 252.447)
(-2022.87 -3807.04 -4417.63 -2371.04 3795.69 -1921.42)
(-4481.56 -3764.56 -4031.84 -3093.57 4284.11 -3507.07)
(-6220.1 -3455.94 -3432.1 -2639.08 4906.94 -4051.66)
(-6921.36 -2651.51 -2528.04 -1010.56 5527.1 -3415.22)
(-6644.49 -1252.33 -1311.66 982.759 5914.96 -2109.22)
(-5876.07 461.854 42.2188 2081.03 5900.92 -1106.2)
(-4761.9 1971.16 1269.48 2135.13 5554.02 -598.46)
(-3262.55 2989.64 2232.59 1884.21 5099.95 -149.796)
(-1325.9 3561.37 2950.99 2003.38 4709.48 701.488)
(857.198 3841.97 3500.17 2555.58 4424.62 1970.48)
(3023.96 3951.8 3939.59 3322.23 4211.15 3440.94)
(4892.4 3960.21 4296.44 4020.3 4021.41 4804.08)
(6206.52 3909.02 4574.76 4407.69 3827.99 5759.43)
(6767.48 3831.05 4768.76 4317.98 3632.25 6074.27)
(6455.71 3756.84 4873.21 3670.13 3459.65 5617.17)
(5251.88 3712.84 4888.5 2478.69 3349.68 4380.54)
(3257.07 3714.91 4819.13 872.265 3345.23 2497.18)
(708.58 3758.97 4666.5 -882.133 3484.71 252.447)
(-2022.87 3807.04 4417.63 -2371.04 3795.69 -1921.42)
(-4481.56 3764.56 4031.84 -3093.57 4284.11 -3507.07)
(-6220.1 3455.94 3432.1 -2639.08 4906.94 -4051.66)
(-6921.36 2651.51 2528.04 -1010.56 5527.1 -3415.22)
(-6644.49 1252.33 1311.66 982.759 5914.96 -2109.22)
(-3207.41 -2242.59 2406.38 1517.46 -5519.8 2691.79)
(-1356.67 -3079.62 4260.99 -1246.26 -4100.96 2235.1)
(416.836 -2651.66 4958.5 -2209.81 -2903.83 2364.93)
(1699.32 -2178.41 5221.19 -2246.45 -2143.26 2696.88)
(2894.75 -1862 5347.05 -1796.61 -1692.22 3326.38)
(4002.52 -1681.36 5430.78 -1217.07 -1461.6 4070.03)
(4992.6 -1602.4 5502.2 -652.458 -1397.76 4797.17)
(5895.63 -1605.4 5565.51 -85.5718 -1463.05 5493.6)
(6762.65 -1681.45 5610.47 564.016 -1628.61 6202.43)
(7615.15 -1824.4 5617.02 1365.16 -1870.16 6958.39)
(8416.58 -2023.59 5560.53 2333.78 -2164.21 7750.1)
(9062.41 -2260.57 5419.36 3411.89 -2486.87 8506.48)
(9383.64 -2512.01 5182.58 4463.04 -2819.17 9100.19)
(9159.21 -2757.02 4850.47 5294.46 -3161.57 9366.09)
(8118.5 -2975.74 4415.17 5712.86 -3555.19 9121.95)
(5893.71 -3094.59 3801.84 5590.05 -4099.43 8159.21)
(2108.68 -2744.38 2730.18 4974.65 -4921.98 6312.24)
(-2063.75 -816.191 580.153 4184.73 -5812.52 4246.03)
(-3207.41 2242.59 -2406.38 1517.46 -5519.8 2691.79)
(-1356.67 3079.62 -4260.99 -1246.26 -4100.96 2235.1)
(416.836 2651.66 -4958.5 -2209.81 -2903.83 2364.93)
(1699.32 2178.41 -5221.19 -2246.45 -2143.26 2696.88)
(2894.75 1862 -5347.05 -1796.61 -1692.22 3326.38)
(4002.52 1681.36 -5430.78 -1217.07 -1461.6 4070.03)
(4992.6 1602.4 -5502.2 -652.458 -1397.76 4797.17)
(5895.63 1605.4 -5565.51 -85.5718 -1463.05 5493.6)
(6762.65 1681.45 -5610.47 564.016 -1628.61 6202.43)
(7615.15 1824.4 -5617.02 1365.16 -1870.16 6958.39)
(8416.58 2023.59 -5560.53 2333.78 -2164.21 7750.1)
(9062.41 2260.57 -5419.36 3411.89 -2486.87 8506.48)
(9383.64 2512.01 -5182.58 4463.04 -2819.17 9100.19)
(9159.21 2757.02 -4850.47 5294.46 -3161.57 9366.09)
(8118.5 2975.74 -4415.17 5712.86 -3555.19 9121.95)
(5893.71 3094.59 -3801.84 5590.05 -4099.43 8159.21)
(2108.68 2744.38 -2730.18 4974.65 -4921.98 6312.24)
(-2063.75 816.191 -580.153 4184.73 -5812.52 4246.03)
(-3647.6 -2916.27 415.889 6630.86 -1161.75 -3556.83)
(30.3985 -5543.63 783.032 3432.38 -1009.37 -3308.73)
(3780.34 -5606.86 951.958 1771.78 -780.13 -2404.41)
(5741.84 -5078.69 1029.11 629.814 -566.414 -2173.75)
(6809.02 -4585.78 1061.99 -173.395 -393.885 -2177.44)
(7511.87 -4217.83 1067.15 -750.927 -283.976 -2196.31)
(8073.01 -3960.21 1058.14 -1146.24 -247.462 -2167.2)
(8544.97 -3796.93 1046.91 -1390.02 -279.914 -2107.94)
(8900.61 -3726.12 1039.21 -1511.87 -366.078 -2062.04)
(9081.06 -3754.95 1032.24 -1537.99 -485.678 -2071.98)
(9022.41 -3891.37 1015.79 -1484.63 -616.511 -2167.46)
(8673.13 -4137.97 976.851 -1348.5 -735.4 -2356.28)
(8006.35 -4489.78 906.152 -1089.05 -820.185 -2609.32)
(7012.56 -4933.64 803.677 -602.999 -856.568 -2849.04)
(5613.26 -5432.48 679.441 277.153 -850.788 -2995.78)
(3404.9 -5827.87 543.64 1690.71 -842.175 -3163.68)
(-543.148 -5442.71 375.28 3511.26 -902.945 -3926.3)
(-4912.48 -2442.25 69.1413 5748.91 -1073.4 -4757.67)
(-3647.6 2916.27 -415.889 6630.86 -1161.75 -3556.83)
(30.3985 5543.63 -783.032 3432.38 -1009.37 -3308.73)
(3780.34 5606.86 -951.958 1771.78 -780.13 -2404.41)
(5741.84 5078.69 -1029.11 629.814 -566.414 -2173.75)
(6809.02 4585.78 -1061.99 -173.395 -393.885 -2177.44)
(7511.87 4217.83 -1067.15 -750.927 -283.976 -2196.31)
(8073.01 3960.21 -1058.14 -1146.24 -247.462 -2167.2)
(8544.97 3796.93 -1046.91 -1390.02 -279.914 -2107.94)
(8900.61 3726.12 -1039.21 -1511.87 -366.078 -2062.04)
(9081.06 3754.95 -1032.24 -1537.99 -485.678 -2071.98)
(9022.41 3891.37 -1015.79 -1484.63 -616.511 -2167.46)
(8673.13 4137.97 -976.851 -1348.5 -735.4 -2356.28)
(8006.35 4489.78 -906.152 -1089.05 -820.185 -2609.32)
(7012.56 4933.64 -803.677 -602.999 -856.568 -2849.04)
(5613.26 5432.48 -679.441 277.153 -850.788 -2995.78)
(3404.9 5827.87 -543.64 1690.71 -842.175 -3163.68)
(-543.148 5442.71 -375.28 3511.26 -902.945 -3926.3)
(-4912.48 2442.25 -69.1413 5748.91 -1073.4 -4757.67)
(-5822.85 -1293.56 -853.446 1861.98 5939.87 -969.327)
(-3858.73 -3414.61 -2864.59 248.699 5039.02 -971.391)
(-988.52 -3913.97 -3932.78 -397.509 4136.94 -151.604)
(1308.15 -3826.86 -4487.33 -391.635 3559.58 767.323)
(3162.36 -3645.1 -4855.58 -37.9813 3243.6 1793.96)
(4658.82 -3472.59 -5177.38 332.065 3049.78 2816.79)
(5771.21 -3300.47 -5479.28 508.922 2863.47 3661.59)
(6396.44 -3114.62 -5734.99 366.585 2625.45 4119.09)
(6419.09 -2927.33 -5908.94 -163.505 2337.88 4004.62)
(5764.98 -2774.64 -5983.82 -1107.44 2049.03 3212.67)
(4443.72 -2700.01 -5968.31 -2437.43 1827.32 1756.51)
(2581.43 -2739.89 -5888.11 -4032.73 1740.45 -203.422)
(445.96 -2917 -5769.26 -5622.5 1846.5 -2330.84)
(-1562.23 -3236.46 -5617.56 -6741.64 2193.25 -4104.88)
(-3049.82 -3667.13 -5387.45 -6788.42 2821.38 -4930.57)
(-4016.87 -4059.65 -4923.15 -5319.72 3761.3 -4509.41)
(-5268.53 -3889.54 -3873.5 -2627.89 4953.69 -3408.16)
(-6498.79 -2044.38 -1814.57 590.998 5955.86 -2045.42)
(-5822.85 1293.56 853.446 1861.98 5939.87 -969.327)
(-3858.73 3414.61 2864.59 248.699 5039.02 -971.391)
(-988.52 3913.97 3932.78 -397.509 4136.94 -151.604)
(1308.15 3826.86 4487.33 -391.635 3559.58 767.323)
(3162.36 3645.1 4855.58 -37.9813 3243.6 1793.96)
(4658.82 3472.59 5177.38 332.065 3049.78 2816.79)
(5771.21 3300.47 5479.28 508.922 2863.47 3661.59)
(6396.44 3114.62 5734.99 366.585 2625.45 4119.09)
(6419.09 2927.33 5908.94 -163.505 2337.88 4004.62)
(5764.98 2774.64 5983.82 -1107.44 2049.03 3212.67)
(4443.72 2700.01 5968.31 -2437.43 1827.32 1756.51)
(2581.43 2739.89 5888.11 -4032.73 1740.45 -203.422)
(445.96 2917 5769.26 -5622.5 1846.5 -2330.84)
(-1562.23 3236.46 5617.56 -6741.64 2193.25 -4104.88)
(-3049.82 3667.13 5387.45 -6788.42 2821.38 -4930.57)
(-4016.87 4059.65 4923.15 -5319.72 3761.3 -4509.41)
(-5268.53 3889.54 3873.5 -2627.89 4953.69 -3408.16)
(-6498.79 2044.38 1814.57 590.998 5955.86 -2045.42)
(2962.85 -707.757 5690.76 -2575.65 -720.661 4084.82)
(3768.87 243.206 5493.57 -1877.37 310.919 4640.46)
(5433.55 362.434 5423.58 -217.551 538.921 5938.02)
(7171.06 337.991 5466.18 1383.53 637.023 7327.37)
(8646.98 254.153 5561.83 2579.05 641.887 8522.46)
(9799.47 138.425 5682.27 3321.74 552.899 9405.02)
(10668 -0.161139 5808.81 3702.94 379.612 9970.13)
(11359.8 -162.058 5921.45 3904.24 139.299 10322.9)
(11983.8 -350.153 5997.75 4114.41 -147.92 10600.2)
(12596.3 -562.697 6015.5 4463.4 -458.949 10900)
(13176.6 -787.906 5958.18 4989.28 -765.365 11248)
(13624 -1002.44 5823.07 5624.66 -1032.54 11591.9)
(13772.8 -1176.18 5630.79 6195.79 -1224.53 11813.5)
(13431.3 -1285.56 5430.55 6444.65 -1318.54 11753.4)
(12421.4 -1332.08 5289.77 6075.77 -1324.87 11229.8)
(10558.1 -1355.18 5265.16 4790.01 -1297.59 10016.9)
(7408.62 -1454.45 5377.48 2142.53 -1357.42 7649.6)
(3166.99 -2204.62 5443.56 -853.927 -2218.57 4609.01)
(2962.85 707.757 -5690.76 -2575.65 -720.661 4084.82)
(3768.87 -243.206 -5493.57 -1877.37 310.919 4640.46)
(5433.55 -362.434 -5423.58 -217.551 538.921 5938.02)
(7171.06 -337.991 -5466.18 1383.53 637.023 7327.37)
(8646.98 -254.153 -5561.83 2579.05 641.887 8522.46)
(9799.47 -138.425 -5682.27 3321.74 552.899 9405.02)
(10668 0.161139 -5808.81 3702.94 379.612 9970.13)
(11359.8 162.058 -5921.45 3904.24 139.299 10322.9)
(11983.8 350.153 -5997.75 4114.41 -147.92 10600.2)
(12596.3 562.697 -6015.5 4463.4 -458.949 10900)
(13176.6 787.906 -5958.18 4989.28 -765.365 11248)
(13624 1002.44 -5823.07 5624.66 -1032.54 11591.9)
(13772.8 1176.18 -5630.79 6195.79 -1224.53 11813.5)
(13431.3 1285.56 -5430.55 6444.65 -1318.54 11753.4)
(12421.4 1332.08 -5289.77 6075.77 -1324.87 11229.8)
(10558.1 1355.18 -5265.16 4790.01 -1297.59 10016.9)
(7408.62 1454.45 -5377.48 2142.53 -1357.42 7649.6)
(3166.99 2204.62 -5443.56 -853.927 -2218.57 4609.01)
(2067.46 -3213.57 1064.53 -6809.33 -340.441 -6999.76)
(5664.15 -1049.16 939.303 -5010.89 -82.6606 -4414.16)
(7771.08 -618.21 946.089 -3101.67 11.5934 -2672.22)
(8658.01 -515.777 1021.99 -2412.56 116.774 -2104.73)
(9147.84 -538.699 1086.08 -2248.84 204.622 -1912.33)
(9616.19 -604.794 1111.68 -2249.68 240.256 -1763.74)
(10161.6 -671.792 1104.02 -2266.03 208.464 -1580.3)
(10726.3 -726.024 1077.56 -2271 113.738 -1405.24)
(11209.3 -774.078 1042.58 -2275.92 -26.4221 -1301.22)
(11518 -830.536 1000.61 -2296.3 -188.391 -1312.73)
(11579.5 -905.448 946.368 -2346.03 -345.239 -1463.33)
(11345 -995.414 874.327 -2439.52 -466.305 -1756.6)
(10803.7 -1082.13 788.552 -2589.72 -519.669 -2164.77)
(10006.9 -1144.07 711.846 -2801.4 -485.064 -2615.56)
(9043.52 -1183.74 684.707 -3091.22 -374.35 -3034.6)
(7898.42 -1263.41 748.731 -3577.26 -238.391 -3490.93)
(6046.94 -1593.51 931.136 -4762.86 -157.436 -4550.83)
(2017.66 -3564.81 1180.23 -6418.99 -373.616 -6983.79)
(2067.46 3213.57 -1064.53 -6809.33 -340.441 -6999.76)
(5664.15 1049.16 -939.303 -5010.89 -82.6606 -4414.16)
(7771.08 618.21 -946.089 -3101.67 11.5934 -2672.22)
(8658.01 515.777 -1021.99 -2412.56 116.774 -2104.73)
(9147.84 538.699 -1086.08 -2248.84 204.622 -1912.33)
(9616.19 604.794 -1111.68 -2249.68 240.256 -1763.74)
(10161.6 671.792 -1104.02 -2266.03 208.464 -1580.3)
(10726.3 726.024 -1077.56 -2271 113.738 -1405.24)
(11209.3 774.078 -1042.58 -2275.92 -26.4221 -1301.22)
(11518 830.536 -1000.61 -2296.3 -188.391 -1312.73)
(11579.5 905.448 -946.368 -2346.03 -345.239 -1463.33)
(11345 995.414 -874.327 -2439.52 -466.305 -1756.6)
(10803.7 1082.13 -788.552 -2589.72 -519.669 -2164.77)
(10006.9 1144.07 -711.846 -2801.4 -485.064 -2615.56)
(9043.52 1183.74 -684.707 -3091.22 -374.35 -3034.6)
(7898.42 1263.41 -748.731 -3577.26 -238.391 -3490.93)
(6046.94 1593.51 -931.136 -4762.86 -157.436 -4550.83)
(2017.66 3564.81 -1180.23 -6418.99 -373.616 -6983.79)
(-5934.32 -3270.58 -5365.66 -10419.9 2762.52 -6907.59)
(-2925.37 -1557.59 -5999.15 -10138.7 1159.76 -5448.82)
(-1708.63 -1100.48 -5919.41 -9120.21 830.211 -4696.18)
(-1009.15 -983.963 -5777.87 -8395.96 817.369 -4225.03)
(-27.6553 -1008.21 -5760.23 -7489.09 918.094 -3298.58)
(1186.1 -1060.94 -5903.21 -6543.06 1007.33 -2028.65)
(2404.6 -1062.2 -6162.9 -5759.49 989.148 -702.841)
(3350.91 -970.268 -6451.73 -5302.33 811.256 337.691)
(3773.89 -794.523 -6680.34 -5280.11 488.522 781.8)
(3503.5 -584.779 -6798.44 -5763.13 95.5199 421.649)
(2497.82 -399.821 -6809.12 -6774.24 -268.723 -790.026)
(871.18 -278.791 -6752.49 -8248.21 -515.208 -2709.22)
(-1088.67 -230.602 -6676.21 -9976.91 -585.681 -4978.86)
(-2923.88 -241.433 -6609.18 -11572.6 -467.676 -7029.39)
(-4104.03 -296.258 -6546.24 -12531.6 -200.735 -8200.33)
(-4319.16 -415.709 -6444.55 -12514.8 155.861 -8092.48)
(-4011.64 -763.26 -6221.06 -11868.5 634.067 -7147.28)
(-5200.55 -2555.91 -5528.05 -11038.5 2176.17 -6826.24)
(-5934.32 3270.58 5365.66 -10419.9 2762.52 -6907.59)
(-2925.37 1557.59 5999.15 -10138.7 1159.76 -5448.82)
(-1708.63 1100.48 5919.41 -9120.21 830.211 -4696.18)
(-1009.15 983.963 5777.87 -8395.96 817.369 -4225.03)
(-27.6553 1008.21 5760.23 -7489.09 918.094 -3298.58)
(1186.1 1060.94 5903.21 -6543.06 1007.33 -2028.65)
(2404.6 1062.2 6162.9 -5759.49 989.148 -702.841)
(3350.91 970.268 6451.73 -5302.33 811.256 337.691)
(3773.89 794.523 6680.34 -5280.11 488.522 781.8)
(3503.5 584.779 6798.44 -5763.13 95.5199 421.649)
(2497.82 399.821 6809.12 -6774.24 -268.723 -790.026)
(871.18 278.791 6752.49 -8248.21 -515.208 -2709.22)
(-1088.67 230.602 6676.21 -9976.91 -585.681 -4978.86)
(-2923.88 241.433 6609.18 -11572.6 -467.676 -7029.39)
(-4104.03 296.258 6546.24 -12531.6 -200.735 -8200.33)
(-4319.16 415.709 6444.55 -12514.8 155.861 -8092.48)
(-4011.64 763.26 6221.06 -11868.5 634.067 -7147.28)
(-5200.55 2555.91 5528.05 -11038.5 2176.17 -6826.24)
(-3929.11 1154.06 675.957 1819.2 5830.99 2688.63)
(-468.88 2862.95 2929.78 1302.76 4798.32 4107.73)
(3168.9 2840.5 3948.21 1996.43 3905.02 6050.37)
(6055.72 2488.93 4523.76 3188.69 3343.85 7948.78)
(8293.58 2128.19 4927.21 4227.3 2921 9548.32)
(9912.4 1799.24 5245.14 4801.65 2524.28 10619.9)
(11010.9 1496.25 5499.09 4919.7 2114.61 11139.7)
(11768 1210.65 5679.85 4789.71 1690.73 11270.1)
(12351.4 940.884 5768.68 4653.08 1270.03 11223.1)
(12856.7 696.017 5752.81 4679.14 879.992 11162.1)
(13286.1 497.877 5634.67 4927.14 555.615 11163)
(13543 383.074 5437.3 5342.74 342.003 11211.9)
(13445.2 402.469 5208.18 5763.11 296.533 11216.2)
(12772.1 612.173 5011.58 5938.27 481.872 11016.7)
(11321.4 1056.54 4888.56 5608.18 956.913 10400.8)
(8838.71 1753.7 4776.21 4648.19 1805.08 9119.08)
(4555.36 2565.93 4353.21 3129.36 3210.15 6744.39)
(-1802.39 2177.58 2660.91 2052.53 5162.47 3557.34)
(-3929.11 -1154.06 -675.957 1819.2 5830.99 2688.63)
(-468.88 -2862.95 -2929.78 1302.76 4798.32 4107.73)
(3168.9 -2840.5 -3948.21 1996.43 3905.02 6050.37)
(6055.72 -2488.93 -4523.76 3188.69 3343.85 7948.78)
(8293.58 -2128.19 -4927.21 4227.3 2921 9548.32)
(9912.4 -1799.24 -5245.14 4801.65 2524.28 10619.9)
(11010.9 -1496.25 -5499.09 4919.7 2114.61 11139.7)
(11768 -1210.65 -5679.85 4789.71 1690.73 11270.1)
(12351.4 -940.884 -5768.68 4653.08 1270.03 11223.1)
(12856.7 -696.017 -5752.81 4679.14 879.992 11162.1)
(13286.1 -497.877 -5634.67 4927.14 555.615 11163)
(13543 -383.074 -5437.3 5342.74 342.003 11211.9)
(13445.2 -402.469 -5208.18 5763.11 296.533 11216.2)
(12772.1 -612.173 -5011.58 5938.27 481.872 11016.7)
(11321.4 -1056.54 -4888.56 5608.18 956.913 10400.8)
(8838.71 -1753.7 -4776.21 4648.19 1805.08 9119.08)
(4555.36 -2565.93 -4353.21 3129.36 3210.15 6744.39)
(-1802.39 -2177.58 -2660.91 2052.53 5162.47 3557.34)
(-6575.13 3049.45 16.8951 3044.66 1131.19 -6631.29)
(680.72 5625 349.374 2241.6 869.259 -3506.19)
(4539.23 5277.52 598.853 739.14 779.649 -2451.12)
(6155.4 4456.24 820.79 -436.136 789.319 -2264.46)
(7132.99 3707.2 968.739 -1156.37 795.252 -2106.49)
(8088.97 3102.38 1032.73 -1485.3 749.371 -1769.63)
(9107.15 2644.11 1027.64 -1573.78 636.051 -1337.09)
(10079.3 2325.58 974.814 -1551.77 461.161 -943.277)
(10860.2 2132.72 892.15 -1498.21 245.555 -685.971)
(11333.7 2048.78 789.995 -1445.1 17.6791 -608.677)
(11411.7 2068.18 674.021 -1402.72 -189.808 -724.827)
(11013.2 2210.18 554.625 -1382.81 -337.893 -1042.23)
(10070.7 2521.13 458.273 -1400.77 -382.654 -1560.29)
(8572.78 3055.15 427.616 -1442.54 -291.698 -2246.83)
(6552.19 3836.09 493.752 -1394.69 -65.8398 -3041.27)
(3807.43 4794.25 630.733 -994.668 271.605 -3971.09)
(-573.109 5402.5 720.495 222.845 710.149 -5311.39)
(-6321.59 3171.26 507.225 2915.94 1145.13 -6635.94)
(-6575.13 -3049.45 -16.8951 3044.66 1131.19 -6631.29)
(680.72 -5625 -349.374 2241.6 869.259 -3506.19)
(4539.23 -5277.52 -598.853 739.14 779.649 -2451.12)
(6155.4 -4456.24 -820.79 -436.136 789.319 -2264.46)
(7132.99 -3707.2 -968.739 -1156.37 795.252 -2106.49)
(8088.97 -3102.38 -1032.73 -1485.3 749.371 -1769.63)
(9107.15 -2644.11 -1027.64 -1573.78 636.051 -1337.09)
(10079.3 -2325.58 -974.814 -1551.77 461.161 -943.277)
(10860.2 -2132.72 -892.15 -1498.21 245.555 -685.971)
(11333.7 -2048.78 -789.995 -1445.1 17.6791 -608.677)
(11411.7 -2068.18 -674.021 -1402.72 -189.808 -724.827)
(11013.2 -2210.18 -554.625 -1382.81 -337.893 -1042.23)
(10070.7 -2521.13 -458.273 -1400.77 -382.654 -1560.29)
(8572.78 -3055.15 -427.616 -1442.54 -291.698 -2246.83)
(6552.19 -3836.09 -493.752 -1394.69 -65.8398 -3041.27)
(3807.43 -4794.25 -630.733 -994.668 271.605 -3971.09)
(-573.109 -5402.5 -720.495 222.845 710.149 -5311.39)
(-6321.59 -3171.26 -507.225 2915.94 1145.13 -6635.94)
(-6131.12 2544.68 -2393.51 -151.96 -5653.99 -2008.28)
(-2698.5 4136.83 -4631.48 -2463.8 -4445.22 -1669.59)
(-1785.46 3701.47 -5268.79 -5107.82 -3169.48 -2811.91)
(-1753.05 2912.87 -5329.27 -6699.5 -2215.73 -3662.14)
(-1387.54 2223.51 -5367.18 -7228.67 -1549.32 -3600.66)
(-498.24 1705.45 -5541.83 -7055.43 -1125.25 -2745.63)
(688.272 1387.5 -5858.51 -6575.01 -961.709 -1464.08)
(1826.85 1288.03 -6235.47 -6084.74 -1084.4 -192.29)
(2556.07 1383.09 -6559.48 -5802.39 -1462.16 629.958)
(2598.39 1606.46 -6751.38 -5884.95 -1996.15 668.476)
(1833.81 1888.58 -6795.9 -6414.11 -2556.96 -211.559)
(330.663 2196.86 -6721.36 -7348.52 -3028.32 -1896.19)
(-1642.53 2545.96 -6552.13 -8458.76 -3342.9 -3993.56)
(-3623.78 2968.75 -6267.53 -9273.57 -3522.97 -5848.13)
(-5083.4 3460.1 -5794.33 -9123.74 -3703.55 -6722.34)
(-5826.8 3900.78 -5006.65 -7417.2 -4083.27 -6216.42)
(-6341.71 3789.73 -3623.85 -3945.91 -4816.35 -4533.73)
(-7264.98 1595.45 -1076.29 -140.139 -5704.8 -2759.32)
(-6131.12 -2544.68 2393.51 -151.96 -5653.99 -2008.28)
(-2698.5 -4136.83 4631.48 -2463.8 -4445.22 -1669.59)
(-1785.46 -3701.47 5268.79 -5107.82 -3169.48 -2811.91)
(-1753.05 -2912.87 5329.27 -6699.5 -2215.73 -3662.14)
(-1387.54 -2223.51 5367.18 -7228.67 -1549.32 -3600.66)
(-498.24 -1705.45 5541.83 -7055.43 -1125.25 -2745.63)
(688.272 -1387.5 5858.51 -6575.01 -961.709 -1464.08)
(1826.85 -1288.03 6235.47 -6084.74 -1084.4 -192.29)
(2556.07 -1383.09 6559.48 -5802.39 -1462.16 629.958)
(2598.39 -1606.46 6751.38 -5884.95 -1996.15 668.475)
(1833.81 -1888.58 6795.9 -6414.11 -2556.96 -211.559)
(330.663 -2196.86 6721.36 -7348.52 -3028.32 -1896.19)
(-1642.53 -2545.96 6552.13 -8458.76 -3342.9 -3993.56)
(-3623.78 -2968.75 6267.53 -9273.57 -3522.97 -5848.13)
(-5083.4 -3460.1 5794.33 -9123.74 -3703.55 -6722.34)
(-5826.8 -3900.78 5006.65 -7417.2 -4083.27 -6216.42)
(-6341.71 -3789.73 3623.85 -3945.91 -4816.35 -4533.73)
(-7264.98 -1595.45 1076.29 -140.139 -5704.8 -2759.32)
(-4535.35 224.057 -570.043 1011.98 5605.77 1712.61)
(-3775.46 1663.79 903.341 711.466 5560.7 2054.52)
(-1408.34 2426.82 2111.26 1163.31 5256.97 3501.98)
(1519.37 2660.41 3021.23 2199.68 4879.01 5557.08)
(4202.34 2620.04 3705.32 3185.24 4458.72 7495.98)
(6312.52 2450.18 4234.81 3726.83 3983.16 8867.47)
(7835.29 2215.36 4638.09 3781.05 3453.66 9555.93)
(8909.2 1950.67 4907.45 3545.29 2895.94 9700.25)
(9688.71 1686.06 5027.19 3277.21 2352.05 9538.71)
(10272.8 1453.23 4998.15 3169.4 1868.24 9286.81)
(10669.5 1287.59 4846.93 3304.03 1490.45 9074.57)
(10770.8 1230.43 4624.86 3650.13 1272.61 8928.31)
(10359.1 1324.85 4398.22 4062.36 1284.29 8766.67)
(9178.19 1592.09 4214.9 4286.24 1594.16 8392.45)
(7033.87 1983.68 4046.02 4034.78 2227.68 7518.2)
(3849.06 2324.39 3754.29 3175.48 3138.28 5914.6)
(-72.6353 2262.56 3135.98 1987.84 4195.46 3782.05)
(-3346.49 1375.19 2040.26 1257.64 5132.36 2163.22)
(-4535.35 -224.057 570.043 1011.98 5605.77 1712.61)
(-3775.46 -1663.79 -903.341 711.466 5560.7 2054.52)
(-1408.34 -2426.82 -2111.26 1163.31 5256.97 3501.98)
(1519.37 -2660.41 -3021.23 2199.68 4879.01 5557.08)
(4202.34 -2620.04 -3705.32 3185.24 4458.72 7495.98)
(6312.52 -2450.18 -4234.81 3726.83 3983.16 8867.47)
(7835.29 -2215.36 -4638.09 3781.05 3453.66 9555.93)
(8909.2 -1950.67 -4907.45 3545.29 2895.94 9700.25)
(9688.71 -1686.06 -5027.19 3277.21 2352.05 9538.71)
(10272.8 -1453.23 -4998.15 3169.4 1868.24 9286.81)
(10669.5 -1287.59 -4846.93 3304.03 1490.45 9074.57)
(10770.8 -1230.43 -4624.86 3650.13 1272.61 8928.31)
(10359.1 -1324.85 -4398.22 4062.36 1284.29 8766.67)
(9178.19 -1592.09 -4214.9 4286.24 1594.16 8392.45)
(7033.87 -1983.68 -4046.02 4034.78 2227.68 7518.2)
(3849.06 -2324.39 -3754.29 3175.48 3138.28 5914.6)
(-72.6353 -2262.56 -3135.98 1987.84 4195.46 3782.05)
(-3346.49 -1375.19 -2040.26 1257.64 5132.36 2163.22)
(-4151.4 1548.97 -354.132 6368.07 1011.65 -3925.83)
(-2258.73 4006.63 -111.364 5398.36 1062.22 -3496.02)
(-33.3244 5169.05 198.659 3788.71 1136.32 -3164.89)
(1843.22 5376.09 487.135 2248.49 1199.94 -2855.43)
(3442.03 5111.24 688.307 1094.45 1202.1 -2426.13)
(5022.51 4669.12 789.484 409.94 1115.08 -1799.26)
(6621.06 4206.91 801.682 78.6353 930.443 -1092.35)
(8088.16 3817.99 744.314 -48.8297 661.534 -483.594)
(9222.38 3553.97 640.42 -61.8844 342.619 -92.3184)
(9863.88 3432.68 511.595 10.6958 17.8772 43.3161)
(9896.97 3458.71 377.919 163.368 -266.386 -80.7837)
(9210.62 3643.19 266.066 384.205 -458.373 -480.546)
(7711.48 3994.21 214.638 651.089 -501.652 -1181.58)
(5424.26 4462.09 255.924 969.431 -361.877 -2164.99)
(2558.51 4865.14 374.508 1446.4 -64.4577 -3307.69)
(-559.134 4844.29 497.852 2314.96 310.27 -4366.52)
(-3320.47 3870.11 550.45 3838.63 666.271 -4902.1)
(-4639.75 1548.1 501.128 5728.1 910.632 -4523.34)
(-4151.4 -1548.97 354.132 6368.07 1011.65 -3925.83)
(-2258.73 -4006.63 111.364 5398.36 1062.22 -3496.02)
(-33.3244 -5169.05 -198.659 3788.71 1136.32 -3164.89)
(1843.22 -5376.09 -487.135 2248.49 1199.94 -2855.43)
(3442.03 -5111.24 -688.307 1094.45 1202.1 -2426.13)
(5022.51 -4669.12 -789.484 409.94 1115.08 -1799.26)
(6621.06 -4206.91 -801.682 78.6353 930.443 -1092.35)
(8088.16 -3817.99 -744.314 -48.8297 661.534 -483.594)
(9222.38 -3553.97 -640.42 -61.8844 342.619 -92.3184)
(9863.88 -3432.68 -511.595 10.6958 17.8772 43.3161)
(9896.97 -3458.71 -377.919 163.368 -266.386 -80.7837)
(9210.62 -3643.19 -266.066 384.205 -458.373 -480.546)
(7711.48 -3994.21 -214.638 651.089 -501.652 -1181.58)
(5424.26 -4462.09 -255.924 969.431 -361.877 -2164.99)
(2558.51 -4865.14 -374.508 1446.4 -64.4577 -3307.69)
(-559.134 -4844.29 -497.852 2314.96 310.27 -4366.52)
(-3320.47 -3870.11 -550.45 3838.63 666.271 -4902.1)
(-4639.75 -1548.1 -501.128 5728.1 910.632 -4523.34)
(1660.9 1785.44 -1823.64 8632.09 -5980.53 5846.83)
(1858.42 3310.22 -3226.34 6408.54 -5404.81 4742.09)
(1083.74 3831.62 -3924.25 3002.26 -4539.22 2607.59)
(155.306 3698.89 -4213.28 -71.4156 -3682.16 742.505)
(-222.282 3311.56 -4407.05 -2147.86 -2982.35 -177.979)
(171.562 2884.47 -4654.46 -3192.81 -2502.05 -54.4912)
(1163.42 2548.2 -5004.45 -3465.86 -2316.69 846.345)
(2362.1 2389.61 -5410.75 -3279.54 -2481.34 2066.15)
(3297.31 2425.64 -5765.98 -2933.48 -2967.82 3071.27)
(3579.22 2604.18 -5979.9 -2684.33 -3658.7 3412.57)
(3007.4 2856.13 -6024.6 -2693.43 -4394.1 2865)
(1611.12 3144.27 -5911.98 -2957.17 -5020.44 1504.64)
(-316.324 3455.04 -5635.08 -3237.59 -5432.25 -243.357)
(-2189.91 3726.86 -5135.47 -3031.71 -5627.33 -1631.12)
(-3267 3787.06 -4344.31 -1699.26 -5720.81 -1842.67)
(-3052.11 3380.79 -3233.67 1110.2 -5842.7 -461.544)
(-1608.27 2257.65 -1788.68 4933.3 -6016.21 2199.04)
(342.661 367.947 -23.8642 8123.18 -6130.72 4884.92)
(1660.9 -1785.44 1823.64 8632.09 -5980.53 5846.83)
(1858.42 -3310.22 3226.34 6408.54 -5404.81 4742.09)
(1083.74 -3831.62 3924.25 3002.26 -4539.22 2607.59)
(155.306 -3698.89 4213.28 -71.4156 -3682.16 742.505)
(-222.282 -3311.56 4407.05 -2147.86 -2982.35 -177.979)
(171.562 -2884.47 4654.46 -3192.81 -2502.05 -54.4912)
(1163.42 -2548.2 5004.45 -3465.86 -2316.69 846.345)
(2362.1 -2389.61 5410.75 -3279.54 -2481.34 2066.15)
(3297.31 -2425.64 5765.98 -2933.48 -2967.82 3071.27)
(3579.22 -2604.18 5979.9 -2684.33 -3658.7 3412.57)
(3007.4 -2856.13 6024.6 -2693.43 -4394.1 2865)
(1611.12 -3144.27 5911.98 -2957.17 -5020.44 1504.64)
(-316.324 -3455.04 5635.08 -3237.59 -5432.25 -243.357)
(-2189.91 -3726.86 5135.47 -3031.71 -5627.33 -1631.12)
(-3267 -3787.06 4344.31 -1699.26 -5720.81 -1842.67)
(-3052.11 -3380.79 3233.67 1110.2 -5842.7 -461.544)
(-1608.27 -2257.65 1788.68 4933.3 -6016.21 2199.04)
(342.661 -367.947 23.8642 8123.18 -6130.72 4884.92)
(-5977.56 -46.0946 -1148.2 -1115.44 5350.37 -229.544)
(-5750.33 912.41 -160.398 -1184.97 5561.67 58.7268)
(-4475.5 1641.94 836.501 -822.329 5594.18 1088.85)
(-2461.68 2090.31 1728.74 -64.4634 5480.62 2728.65)
(-180.412 2304.06 2478.64 767.315 5228.09 4544.92)
(1961.62 2346.09 3099.66 1331.89 4830.94 6052.74)
(3766.58 2267.25 3595.07 1509.99 4302.67 6979.02)
(5202.65 2112.32 3941.78 1414.22 3692.89 7322.31)
(6300.08 1927.55 4116.59 1251.99 3075.59 7255.41)
(7084.61 1759.14 4125.81 1198.77 2524.37 6993.84)
(7527.07 1648.77 4012.9 1340.1 2101.75 6695.89)
(7498.25 1630.13 3847.02 1653.79 1869.6 6410.05)
(6787.98 1719.28 3695.67 1997.36 1895.28 6058.22)
(5237.82 1891.67 3578.06 2127.15 2221.64 5458.44)
(2896.99 2055.87 3433.84 1819.84 2814.72 4430.85)
(53.714 2057.21 3161.21 1062.21 3557.39 2981.47)
(-2790.31 1733.68 2690.95 111.43 4303.36 1419.27)