/*--------------------------------*- C++ -*----------------------------------*\
| =========                 |                                                 |
| \\      /  F ield         | OpenFOAM: The Open Source CFD Toolbox           |
|  \\    /   O peration     | Version:  2412                                  |
|   \\  /    A nd           | Website:  www.openfoam.com                      |
|    \\/     M anipulation  |                                                 |
\*---------------------------------------------------------------------------*/
FoamFile
{
    version     2.0;
    format      ascii;
    arch        "LSB;label=32;scalar=64";
    class       volScalarField;
    location    "0.0199794";
    object      ionicCurrent;
}
// * * * * * * * * * * * * * * * * * * * * * * * * * * * * * * * * * * * * * //

dimensions      [1 2 -4 0 0 -1 0];

internalField   nonuniform List<scalar> 
8730
(
3.90743e-15
2.55435e-15
1.68698e-15
1.09718e-15
4.72677e-16
1.25733e-16
2.16493e-17
-1.30451e-17
-1.30451e-17
-1.30451e-17
9.10383e-17
-1.30451e-17
2.16493e-17
-1.30451e-17
2.16493e-17
3.69926e-15
2.48496e-15
1.54821e-15
1.13187e-15
7.15539e-16
1.95122e-16
2.16493e-17
-1.30451e-17
-1.30451e-17
-1.30451e-17
9.10383e-17
2.16493e-17
2.16493e-17
-1.30451e-17
2.16493e-17
3.4911e-15
2.34618e-15
1.75637e-15
1.06248e-15
4.72677e-16
3.68594e-16
9.10383e-17
-1.30451e-17
-1.30451e-17
-1.30451e-17
-1.30451e-17
-1.30451e-17
9.10383e-17
1.25733e-16
9.10383e-17
3.10946e-15
1.89515e-15
1.09718e-15
5.42066e-16
3.339e-16
2.16493e-17
2.99205e-16
2.99205e-16
3.68594e-16
9.10383e-17
9.10383e-17
-1.30451e-17
9.10383e-17
9.10383e-17
2.16493e-17
2.93598e-15
1.96454e-15
1.30534e-15
8.89011e-16
3.68594e-16
-8.24341e-17
-1.30451e-17
-1.30451e-17
-1.30451e-17
-1.30451e-17
-4.77396e-17
-1.30451e-17
2.16493e-17
-1.30451e-17
2.16493e-17
2.51965e-15
1.65229e-15
1.16657e-15
5.42066e-16
2.99205e-16
2.16493e-17
-8.24341e-17
5.63438e-17
-1.30451e-17
-1.30451e-17
5.63438e-17
9.10383e-17
9.10383e-17
-1.30451e-17
-1.30451e-17
1.96454e-15
1.30534e-15
9.23706e-16
3.68594e-16
1.25733e-16
-8.24341e-17
2.16493e-17
-1.30451e-17
2.16493e-17
-1.30451e-17
-1.30451e-17
1.25733e-16
2.16493e-17
-1.30451e-17
2.16493e-17
1.20126e-15
6.11455e-16
3.68594e-16
2.64511e-16
9.10383e-17
1.25733e-16
2.29816e-16
-1.30451e-17
-1.30451e-17
-4.77396e-17
-1.30451e-17
1.25733e-16
2.29816e-16
-1.30451e-17
-1.30451e-17
8.89011e-16
3.339e-16
9.10383e-17
1.60427e-16
9.10383e-17
-1.30451e-17
-1.30451e-17
5.63438e-17
-1.30451e-17
-1.30451e-17
5.63438e-17
9.10383e-17
-1.30451e-17
-1.30451e-17
-1.30451e-17
1.95122e-16
-1.30451e-17
5.63438e-17
-1.30451e-17
-1.30451e-17
-1.30451e-17
2.29816e-16
9.10383e-17
-1.30451e-17
-1.30451e-17
9.10383e-17
-1.30451e-17
-4.77396e-17
9.10383e-17
-1.30451e-17
2.64511e-16
9.10383e-17
9.10383e-17
9.10383e-17
-1.30451e-17
-1.30451e-17
-1.30451e-17
-1.30451e-17
1.25733e-16
-4.77396e-17
-1.30451e-17
-1.30451e-17
2.16493e-17
-1.30451e-17
-4.77396e-17
2.16493e-17
-1.51823e-16
-4.77396e-17
-1.86517e-16
-1.86517e-16
-1.30451e-17
5.63438e-17
-1.17129e-16
2.16493e-17
9.10383e-17
-4.77396e-17
2.16493e-17
-4.77396e-17
-1.17129e-16
5.63438e-17
-1.30451e-17
-1.51823e-16
5.63438e-17
-4.77396e-17
-1.30451e-17
-1.30451e-17
-1.30451e-17
-1.30451e-17
-1.30451e-17
-4.77396e-17
-1.30451e-17
-1.30451e-17
-4.77396e-17
-1.30451e-17
-4.77396e-17
9.10383e-17
-1.30451e-17
9.10383e-17
9.10383e-17
-1.30451e-17
-1.30451e-17
-1.30451e-17
-1.30451e-17
2.16493e-17
-1.30451e-17
-1.30451e-17
1.25733e-16
2.16493e-17
-1.30451e-17
-1.30451e-17
9.10383e-17
-1.51823e-16
2.16493e-17
-4.77396e-17
9.10383e-17
-1.30451e-17
-1.30451e-17
-4.77396e-17
-1.30451e-17
-4.77396e-17
-4.77396e-17
-1.51823e-16
-4.77396e-17
-4.77396e-17
-4.77396e-17
2.72221e-14
1.88607e-14
1.28586e-14
8.55649e-15
5.67685e-15
3.52579e-15
2.13801e-15
1.47882e-15
7.84928e-16
1.60427e-16
-8.24341e-17
-1.30451e-17
-1.30451e-17
-1.30451e-17
1.60427e-16
2.63894e-14
1.82016e-14
1.23382e-14
8.34832e-15
5.57276e-15
3.52579e-15
2.13801e-15
1.20126e-15
5.42066e-16
9.10383e-17
9.10383e-17
2.16493e-17
2.16493e-17
-1.30451e-17
-1.30451e-17
2.5418e-14
1.76117e-14
1.17484e-14
7.75852e-15
5.01765e-15
3.42171e-15
2.2421e-15
1.09718e-15
5.07372e-16
9.10383e-17
9.10383e-17
5.63438e-17
9.10383e-17
1.25733e-16
1.25733e-16
2.32669e-14
1.58423e-14
1.06382e-14
6.96054e-15
4.63601e-15
3.21354e-15
2.31148e-15
1.5829e-15
1.09718e-15
6.11455e-16
2.64511e-16
2.16493e-17
2.29816e-16
9.10383e-17
-4.77396e-17
2.122e-14
1.43852e-14
9.80549e-15
6.44013e-15
4.25437e-15
2.69312e-15
1.54821e-15
7.15539e-16
3.68594e-16
1.60427e-16
2.16493e-17
-1.30451e-17
2.16493e-17
-1.30451e-17
2.16493e-17
1.82362e-14
1.26157e-14
8.72996e-15
5.78093e-15
3.56049e-15
2.10332e-15
1.09718e-15
5.07372e-16
1.95122e-16
1.95122e-16
9.10383e-17
-1.30451e-17
1.60427e-16
-1.30451e-17
-1.30451e-17
1.4975e-14
1.03606e-14
7.06463e-15
4.63601e-15
3.07476e-15
1.89515e-15
1.30534e-15
8.19622e-16
4.03289e-16
9.10383e-17
9.10383e-17
1.25733e-16
2.16493e-17
-1.30451e-17
2.16493e-17
1.15402e-14
7.89729e-15
5.50338e-15
3.69926e-15
2.2074e-15
1.47882e-15
7.50233e-16
2.29816e-16
1.25733e-16
-1.30451e-17
-1.30451e-17
-1.30451e-17
2.29816e-16
-1.30451e-17
-4.77396e-17
8.69527e-15
6.05849e-15
4.18499e-15
2.8319e-15
1.68698e-15
9.93094e-16
3.68594e-16
2.16493e-17
9.10383e-17
1.95122e-16
-1.30451e-17
-1.30451e-17
1.60427e-16
-1.30451e-17
-1.30451e-17
5.60746e-15
3.83804e-15
2.8319e-15
1.72168e-15
1.02779e-15
5.42066e-16
4.03289e-16
1.25733e-16
2.16493e-17
-1.30451e-17
-1.30451e-17
-1.30451e-17
-1.30451e-17
-1.30451e-17
-1.30451e-17
3.42171e-15
2.38087e-15
1.54821e-15
1.09718e-15
5.42066e-16
4.72677e-16
4.72677e-16
2.64511e-16
2.29816e-16
-1.30451e-17
-1.30451e-17
1.25733e-16
2.29816e-16
-1.30451e-17
-4.77396e-17
1.99923e-15
1.20126e-15
6.11455e-16
4.37983e-16
1.60427e-16
9.10383e-17
5.63438e-17
-1.17129e-16
2.16493e-17
9.10383e-17
-1.30451e-17
2.16493e-17
2.16493e-17
-1.17129e-16
5.63438e-17
7.84928e-16
3.68594e-16
2.64511e-16
9.10383e-17
-8.24341e-17
-4.77396e-17
-1.30451e-17
-1.30451e-17
-1.30451e-17
-1.30451e-17
-1.30451e-17
-1.30451e-17
-1.30451e-17
-1.30451e-17
-1.30451e-17
3.68594e-16
9.10383e-17
9.10383e-17
9.10383e-17
-8.24341e-17
2.29816e-16
2.64511e-16
9.10383e-17
2.29816e-16
-1.30451e-17
-1.30451e-17
1.25733e-16
2.29816e-16
-1.30451e-17
-4.77396e-17
2.16493e-17
-1.30451e-17
2.16493e-17
-1.30451e-17
9.10383e-17
-1.30451e-17
-4.77396e-17
-1.30451e-17
-1.30451e-17
-4.77396e-17
-4.77396e-17
-1.30451e-17
-4.77396e-17
-4.77396e-17
-4.77396e-17
2.00139e-13
1.39355e-13
9.58478e-14
6.50391e-14
4.34591e-14
2.84364e-14
1.81669e-14
1.14708e-14
6.99524e-15
4.25437e-15
2.62373e-15
1.5829e-15
9.93094e-16
6.80844e-16
2.99205e-16
1.95941e-13
1.36406e-13
9.38702e-14
6.3686e-14
4.24877e-14
2.78813e-14
1.77852e-14
1.12627e-14
6.89115e-15
4.21968e-15
2.62373e-15
1.44412e-15
7.84928e-16
2.29816e-16
9.10383e-17
1.87684e-13
1.30646e-13
8.96028e-14
6.04247e-14
4.02325e-14
2.65976e-14
1.73689e-14
1.0881e-14
6.99524e-15
4.28907e-15
2.38087e-15
1.47882e-15
6.11455e-16
1.25733e-16
1.60427e-16
1.74327e-13
1.21209e-13
8.30802e-14
5.60185e-14
3.72141e-14
2.44466e-14
1.59117e-14
1.03259e-14
6.54421e-15
4.1156e-15
2.55435e-15
1.5829e-15
8.54317e-16
4.37983e-16
1.95122e-16
1.56771e-13
1.08962e-13
7.46148e-14
5.04674e-14
3.34671e-14
2.18792e-14
1.40729e-14
9.04221e-15
5.60746e-15
3.52579e-15
2.10332e-15
1.30534e-15
7.15539e-16
5.63438e-17
2.16493e-17
1.3481e-13
9.35232e-14
6.40676e-14
4.32163e-14
2.86099e-14
1.86873e-14
1.19219e-14
7.30749e-15
4.49724e-15
2.76251e-15
1.51351e-15
6.80844e-16
1.95122e-16
5.63438e-17
2.16493e-17
1.11148e-13
7.71475e-14
5.27572e-14
3.55141e-14
2.34404e-14
1.53566e-14
9.87488e-15
6.16257e-15
3.87274e-15
2.45026e-15
1.61759e-15
9.23706e-16
1.95122e-16
2.16493e-17
2.16493e-17
8.62721e-14
5.96267e-14
4.06836e-14
2.72221e-14
1.79587e-14
1.17831e-14
7.55035e-15
4.80949e-15
2.90129e-15
1.82576e-15
1.02779e-15
3.339e-16
1.95122e-16
9.10383e-17
2.16493e-17
6.27493e-14
4.33897e-14
2.96507e-14
1.98322e-14
1.29627e-14
8.45241e-15
5.39929e-15
3.28293e-15
2.13801e-15
1.34004e-15
7.15539e-16
1.25733e-16
2.16493e-17
-1.30451e-17
2.16493e-17
4.2106e-14
2.89915e-14
1.94852e-14
1.32055e-14
8.86874e-15
5.74624e-15
3.69926e-15
2.27679e-15
1.47882e-15
8.89011e-16
3.339e-16
9.10383e-17
-1.30451e-17
-1.30451e-17
9.10383e-17
2.59731e-14
1.76464e-14
1.17831e-14
7.8626e-15
5.22582e-15
3.31762e-15
2.06862e-15
1.30534e-15
5.07372e-16
9.10383e-17
2.16493e-17
2.16493e-17
-4.77396e-17
-1.30451e-17
-1.30451e-17
1.43505e-14
9.7361e-15
6.47482e-15
4.21968e-15
2.76251e-15
1.68698e-15
1.02779e-15
3.339e-16
1.60427e-16
2.16493e-17
-4.77396e-17
-1.17129e-16
-4.77396e-17
5.63438e-17
-1.30451e-17
7.44627e-15
5.08704e-15
3.42171e-15
2.06862e-15
1.20126e-15
7.15539e-16
4.03289e-16
9.10383e-17
2.16493e-17
9.10383e-17
9.10383e-17
-1.30451e-17
-1.30451e-17
9.10383e-17
-1.30451e-17
3.52579e-15
2.51965e-15
1.37473e-15
8.54317e-16
4.03289e-16
2.16493e-17
5.63438e-17
-1.30451e-17
2.16493e-17
9.10383e-17
-1.30451e-17
2.16493e-17
2.16493e-17
-1.30451e-17
9.10383e-17
1.82576e-15
9.93094e-16
2.99205e-16
3.339e-16
1.60427e-16
2.16493e-17
-1.30451e-17
9.10383e-17
2.16493e-17
-1.30451e-17
9.10383e-17
2.16493e-17
2.16493e-17
9.10383e-17
2.16493e-17
1.4693e-12
1.02795e-12
7.09732e-13
4.83385e-13
3.24797e-13
2.15058e-13
1.40257e-13
9.02273e-14
5.72328e-14
3.55141e-14
2.17404e-14
1.28933e-14
7.61974e-15
4.60132e-15
2.38087e-15
1.43832e-12
1.00627e-12
6.94709e-13
4.73254e-13
3.17615e-13
2.10131e-13
1.36961e-13
8.77987e-14
5.54287e-14
3.44733e-14
2.10118e-14
1.25464e-14
7.41157e-15
4.21968e-15
2.38087e-15
1.37541e-12
9.61787e-13
6.63484e-13
4.51431e-13
3.02974e-13
2.00452e-13
1.30681e-13
8.40863e-14
5.31736e-14
3.2912e-14
2.02138e-14
1.22688e-14
7.30749e-15
4.28907e-15
2.48496e-15
1.27924e-12
8.93786e-13
6.16195e-13
4.18749e-13
2.80561e-13
1.85498e-13
1.20758e-13
7.73209e-14
4.88715e-14
3.01018e-14
1.82362e-14
1.10545e-14
6.71768e-15
3.87274e-15
2.2074e-15
1.15111e-12
8.03615e-13
5.53711e-13
3.76144e-13
2.51799e-13
1.66243e-13
1.0806e-13
6.9133e-14
4.33897e-14
2.67711e-14
1.64321e-14
1.00137e-14
6.05849e-15
3.42171e-15
2.06862e-15
9.94504e-13
6.93425e-13
4.77001e-13
3.23721e-13
2.16619e-13
1.42824e-13
9.25171e-14
5.92104e-14
3.72141e-14
2.29894e-14
1.40382e-14
8.59118e-15
4.91357e-15
2.97068e-15
1.75637e-15
8.19158e-13
5.70156e-13
3.91618e-13
2.65261e-13
1.77137e-13
1.1656e-13
7.54474e-14
4.81776e-14
3.04834e-14
1.8722e-14
1.14014e-14
6.99524e-15
4.01151e-15
2.17271e-15
1.13187e-15
6.36804e-13
4.42446e-13
3.03355e-13
2.04997e-13
1.36544e-13
8.96722e-14
5.79961e-14
3.67631e-14
2.292e-14
1.39688e-14
8.45241e-15
5.05235e-15
2.93598e-15
1.68698e-15
1.06248e-15
4.62811e-13
3.20945e-13
2.19568e-13
1.48063e-13
9.83805e-14
6.45534e-14
4.15856e-14
2.64241e-14
1.65709e-14
9.97896e-15
5.91971e-15
3.69926e-15
2.31148e-15
1.30534e-15
7.15539e-16
3.11717e-13
2.15509e-13
1.46953e-13
9.89009e-14
6.55595e-14
4.26265e-14
2.73956e-14
1.70219e-14
1.06382e-14
6.40543e-15
3.76865e-15
2.10332e-15
1.13187e-15
4.37983e-16
2.29816e-16
1.92888e-13
1.32832e-13
9.02273e-14
6.039e-14
3.98509e-14
2.59384e-14
1.64668e-14
1.02565e-14
6.19726e-15
3.59518e-15
2.17271e-15
1.40943e-15
8.89011e-16
3.68594e-16
9.10383e-17
1.09136e-13
7.49964e-14
5.08144e-14
3.371e-14
2.20873e-14
1.42464e-14
9.00752e-15
5.46868e-15
3.28293e-15
2.06862e-15
1.30534e-15
7.84928e-16
1.95122e-16
1.25733e-16
9.10383e-17
5.61573e-14
3.8255e-14
2.57649e-14
1.71607e-14
1.11933e-14
7.02993e-15
4.42785e-15
2.65843e-15
1.68698e-15
9.23706e-16
3.339e-16
1.60427e-16
2.16493e-17
9.10383e-17
9.10383e-17
2.72568e-14
1.8375e-14
1.23729e-14
8.07077e-15
5.19113e-15
3.28293e-15
1.89515e-15
1.06248e-15
7.15539e-16
1.60427e-16
9.10383e-17
-1.30451e-17
-1.30451e-17
9.10383e-17
-1.30451e-17
1.51137e-14
1.00137e-14
6.78707e-15
4.42785e-15
2.97068e-15
1.82576e-15
1.02779e-15
4.72677e-16
2.99205e-16
1.95122e-16
2.16493e-17
-1.30451e-17
-1.30451e-17
9.10383e-17
9.10383e-17
1.07717e-11
7.56904e-12
5.24784e-12
3.58889e-12
2.41968e-12
1.60769e-12
1.05224e-12
6.78264e-13
4.30198e-13
2.68383e-13
1.64682e-13
9.9456e-14
5.88982e-14
3.44733e-14
1.97281e-14
1.05424e-11
7.40622e-12
5.13362e-12
3.50978e-12
2.3657e-12
1.57133e-12
1.02809e-12
6.62374e-13
4.19964e-13
2.62034e-13
1.60969e-13
9.73396e-14
5.78573e-14
3.371e-14
1.92771e-14
1.008e-11
7.07794e-12
4.90381e-12
3.35085e-12
2.25728e-12
1.49865e-12
9.80106e-13
6.3101e-13
4.00084e-13
2.4944e-13
1.52955e-13
9.22049e-14
5.46654e-14
3.19059e-14
1.83056e-14
9.37898e-12
6.58132e-12
4.55652e-12
3.11128e-12
2.09453e-12
1.38926e-12
9.07698e-13
5.84034e-13
3.6983e-13
2.30185e-13
1.40881e-13
8.48149e-14
5.00511e-14
2.90956e-14
1.6675e-14
8.44514e-12
5.92046e-12
4.09511e-12
2.79327e-12
1.87838e-12
1.24444e-12
8.12011e-13
5.21688e-13
3.29862e-13
2.0517e-13
1.25407e-13
7.54474e-14
4.44653e-14
2.57996e-14
1.47321e-14
7.30557e-12
5.11527e-12
3.53355e-12
2.40712e-12
1.61633e-12
1.06937e-12
6.9686e-13
4.47025e-13
2.8188e-13
1.74743e-13
1.06638e-13
6.41717e-14
3.79774e-14
2.18792e-14
1.24076e-14
6.02211e-12
4.2102e-12
2.90367e-12
1.97466e-12
1.32379e-12
8.74253e-13
5.68699e-13
3.64036e-13
2.29283e-13
1.41818e-13
8.62721e-14
5.1647e-14
3.03099e-14
1.74383e-14
9.87488e-15
4.68749e-12
3.27067e-12
2.251e-12
1.52745e-12
1.02153e-12
6.72956e-13
4.36721e-13
2.78757e-13
1.74986e-13
1.08026e-13
6.56983e-14
3.92264e-14
2.28853e-14
1.33443e-14
7.61974e-15
3.41233e-12
2.37479e-12
1.62997e-12
1.10289e-12
7.35336e-13
4.8283e-13
3.12411e-13
1.98994e-13
1.24644e-13
7.66617e-14
4.62347e-14
2.75344e-14
1.61546e-14
9.25038e-15
5.26051e-15
2.30072e-12
1.59597e-12
1.09168e-12
7.36134e-13
4.89214e-13
3.20009e-13
2.06003e-13
1.30299e-13
8.11373e-14
4.98082e-14
2.9963e-14
1.76811e-14
1.01524e-14
5.60746e-15
2.79721e-15
1.4243e-12
9.8413e-13
6.70458e-13
4.50182e-13
2.97596e-13
1.93929e-13
1.24228e-13
7.8223e-14
4.85245e-14
2.95813e-14
1.75077e-14
1.03606e-14
5.71154e-15
2.8319e-15
1.5829e-15
8.03788e-13
5.52843e-13
3.74965e-13
2.50516e-13
1.64786e-13
1.06777e-13
6.81616e-14
4.29387e-14
2.65976e-14
1.60158e-14
9.49324e-15
5.50338e-15
3.07476e-15
1.72168e-15
1.09718e-15
4.13476e-13
2.82782e-13
1.90702e-13
1.26795e-13
8.30108e-14
5.34511e-14
3.35712e-14
2.08036e-14
1.27545e-14
7.55035e-15
4.28907e-15
2.45026e-15
1.30534e-15
5.07372e-16
1.25733e-16
2.00278e-13
1.36059e-13
9.13375e-14
6.03553e-14
3.90529e-14
2.48282e-14
1.54954e-14
9.45855e-15
5.60746e-15
3.24824e-15
1.65229e-15
7.15539e-16
4.03289e-16
9.10383e-17
2.99205e-16
1.09621e-13
7.40943e-14
4.94613e-14
3.23569e-14
2.07689e-14
1.30668e-14
8.07077e-15
4.80949e-15
2.93598e-15
1.79107e-15
1.13187e-15
3.339e-16
2.16493e-17
-1.30451e-17
2.29816e-16
7.89613e-11
5.57285e-11
3.88095e-11
2.66565e-11
1.80496e-11
1.20429e-11
7.91383e-12
5.1195e-12
3.2588e-12
2.04006e-12
1.25551e-12
7.59241e-13
4.5105e-13
2.63249e-13
1.50839e-13
7.72896e-11
5.45358e-11
3.79695e-11
2.60726e-11
1.76494e-11
1.17726e-11
7.7338e-12
5.0014e-12
3.1823e-12
1.99145e-12
1.22515e-12
7.40679e-13
4.39948e-13
2.56795e-13
1.46918e-13
7.39195e-11
5.21334e-11
3.62789e-11
2.48986e-11
1.68455e-11
1.123e-11
7.37284e-12
4.76465e-12
3.02975e-12
1.89451e-12
1.16454e-12
7.03556e-13
4.1757e-13
2.43299e-13
1.3932e-13
6.88115e-11
4.84975e-11
3.37239e-11
2.31273e-11
1.56341e-11
1.04131e-11
6.83015e-12
4.41007e-12
2.80146e-12
1.75015e-12
1.07479e-12
6.48565e-13
3.84645e-13
2.24009e-13
1.27905e-13
6.19961e-11
4.36537e-11
3.03259e-11
2.07749e-11
1.40282e-11
9.33256e-12
6.11402e-12
3.94246e-12
2.50104e-12
1.56051e-12
9.57173e-13
5.7706e-13
3.41832e-13
1.98647e-13
1.13299e-13
5.36793e-11
3.77518e-11
2.61919e-11
1.79183e-11
1.20814e-11
8.02492e-12
5.24888e-12
3.37916e-12
2.14001e-12
1.33239e-12
8.15689e-13
4.90775e-13
2.90171e-13
1.68463e-13
9.58131e-14
4.43028e-11
3.11084e-11
2.15465e-11
1.47141e-11
9.90252e-12
6.56463e-12
4.28448e-12
2.75199e-12
1.73873e-12
1.07992e-12
6.59286e-13
3.95226e-13
2.32891e-13
1.34567e-13
7.63148e-14
3.45387e-11
2.42024e-11
1.67265e-11
1.13964e-11
7.65105e-12
5.05903e-12
3.29298e-12
2.1092e-12
1.32868e-12
8.23217e-13
5.01218e-13
2.99643e-13
1.75957e-13
1.01434e-13
5.72675e-14
2.51888e-11
1.76033e-11
1.21317e-11
8.24103e-12
5.51523e-12
3.635e-12
2.35841e-12
1.50552e-12
9.45342e-13
5.83548e-13
3.5394e-13
2.10895e-13
1.23256e-13
7.08331e-14
3.99897e-14
1.70138e-11
1.18492e-11
8.13667e-12
5.50635e-12
3.67059e-12
2.40952e-12
1.55683e-12
9.89508e-13
6.18485e-13
3.801e-13
2.29734e-13
1.36371e-13
7.9472e-14
4.53673e-14
2.5418e-14
1.05422e-11
7.3106e-12
4.99762e-12
3.3666e-12
2.23379e-12
1.45917e-12
9.3816e-13
5.93366e-13
3.69067e-13
2.25952e-13
1.35885e-13
8.06169e-14
4.66163e-14
2.66323e-14
1.47668e-14
5.94391e-12
4.1008e-12
2.78876e-12
1.86867e-12
1.23299e-12
8.01082e-13
5.12216e-13
3.22264e-13
1.99584e-13
1.21556e-13
7.28453e-14
4.28693e-14
2.48282e-14
1.39688e-14
7.93199e-15
3.04495e-12
2.08898e-12
1.41261e-12
9.41317e-13
6.17618e-13
3.98904e-13
2.53534e-13
1.58749e-13
9.78601e-14
5.89676e-14
3.51671e-14
2.05608e-14
1.20606e-14
6.92585e-15
4.0809e-15
1.45944e-12
9.95024e-13
6.68515e-13
4.42446e-13
2.88506e-13
1.8529e-13
1.17046e-13
7.28453e-14
4.45e-14
2.66323e-14
1.55995e-14
8.86874e-15
5.26051e-15
3.00537e-15
1.54821e-15
7.888e-13
5.34559e-13
3.56958e-13
2.34626e-13
1.52018e-13
9.68886e-14
6.10492e-14
3.7908e-14
2.31976e-14
1.37954e-14
8.03607e-15
4.32376e-15
2.48496e-15
1.47882e-15
6.4615e-16
5.78841e-10
4.10434e-10
2.87178e-10
1.98183e-10
1.34821e-10
9.03637e-11
5.96403e-11
3.87397e-11
2.4752e-11
1.55479e-11
9.59669e-12
5.81759e-12
3.46246e-12
2.02243e-12
1.15892e-12
5.66649e-10
4.01696e-10
2.80995e-10
1.93865e-10
1.31847e-10
8.83447e-11
5.82899e-11
3.78504e-11
2.41758e-11
1.51804e-11
9.36659e-12
5.67614e-12
3.37701e-12
1.97199e-12
1.12964e-12
5.42102e-10
3.8412e-10
2.68569e-10
1.85195e-10
1.25881e-10
8.42975e-11
5.55849e-11
3.60703e-11
2.30227e-11
1.44461e-11
8.90675e-12
5.39338e-12
3.20631e-12
1.87064e-12
1.07059e-12
5.04891e-10
3.57511e-10
2.49782e-10
1.72106e-10
1.16886e-10
7.82045e-11
5.15187e-11
3.33984e-11
2.12954e-11
1.33479e-11
8.2206e-12
4.97222e-12
2.95256e-12
1.72062e-12
9.83749e-13
4.55208e-10
3.22034e-10
2.24772e-10
1.54708e-10
1.0495e-10
7.01336e-11
4.61428e-11
2.98732e-11
1.90208e-11
1.1905e-11
7.32076e-12
4.42107e-12
2.62108e-12
1.52512e-12
8.70679e-13
3.94532e-10
2.78771e-10
1.94322e-10
1.33562e-10
9.04698e-11
6.03609e-11
3.96465e-11
2.56221e-11
1.6284e-11
1.01724e-11
6.24288e-12
3.76246e-12
2.22588e-12
1.29253e-12
7.36238e-13
3.26075e-10
2.30036e-10
1.60077e-10
1.09823e-10
7.42445e-11
4.94328e-11
3.23973e-11
2.0889e-11
1.3244e-11
8.25245e-12
5.05157e-12
3.03666e-12
1.79171e-12
1.03746e-12
5.89273e-13
2.54693e-10
1.79301e-10
1.24491e-10
8.52042e-11
5.74548e-11
3.81513e-11
2.49329e-11
1.60284e-11
1.01309e-11
6.29256e-12
3.83907e-12
2.30006e-12
1.35269e-12
7.80474e-13
4.42133e-13
1.86189e-10
1.30709e-10
9.04833e-11
6.17344e-11
4.14912e-11
2.74557e-11
1.78782e-11
1.14503e-11
7.20943e-12
4.46045e-12
2.71042e-12
1.61727e-12
9.47181e-13
5.44274e-13
3.07102e-13
1.26082e-10
8.81883e-11
6.08135e-11
4.13242e-11
2.76569e-11
1.82214e-11
1.1812e-11
7.52997e-12
4.71878e-12
2.90561e-12
1.75723e-12
1.04346e-12
6.08424e-13
3.48007e-13
1.95352e-13
7.82723e-11
5.44941e-11
3.73974e-11
2.52854e-11
1.68355e-11
1.10329e-11
7.11312e-12
4.5095e-12
2.81024e-12
1.72073e-12
1.03503e-12
6.11442e-13
3.54634e-13
2.01978e-13
1.12987e-13
4.41382e-11
3.05583e-11
2.08504e-11
1.40146e-11
9.27524e-12
6.04175e-12
3.87147e-12
2.43949e-12
1.51104e-12
9.19737e-13
5.49964e-13
3.23027e-13
1.86331e-13
1.05701e-13
5.89329e-14
2.25315e-11
1.54998e-11
1.05072e-11
7.01608e-12
4.61307e-12
2.9852e-12
1.90058e-12
1.19011e-12
7.32734e-13
4.43452e-13
2.63491e-13
1.53961e-13
8.86313e-14
5.00164e-14
2.77772e-14
1.06966e-11
7.30647e-12
4.91827e-12
3.26109e-12
2.12926e-12
1.36861e-12
8.65649e-13
5.3848e-13
3.29307e-13
1.98023e-13
1.17115e-13
6.79534e-14
3.88448e-14
2.16363e-14
1.17484e-14
5.69425e-12
3.86335e-12
2.58309e-12
1.70154e-12
1.10372e-12
7.04805e-13
4.43313e-13
2.74351e-13
1.67076e-13
9.98723e-14
5.85859e-14
3.40569e-14
1.94506e-14
1.10545e-14
6.05849e-15
4.2415e-09
3.02219e-09
2.12516e-09
1.47399e-09
1.00779e-09
6.78829e-10
4.50184e-10
2.93759e-10
1.88494e-10
1.1886e-10
7.36124e-11
4.47502e-11
2.66903e-11
1.56109e-11
8.95106e-12
4.15261e-09
2.95818e-09
2.07964e-09
1.44204e-09
9.85679e-10
6.63737e-10
4.40038e-10
2.87044e-10
1.8412e-10
1.1606e-10
7.18508e-11
4.36622e-11
2.60308e-11
1.52191e-11
8.72266e-12
3.97395e-09
2.82967e-09
1.98836e-09
1.37804e-09
9.41411e-10
6.33553e-10
4.19762e-10
2.73634e-10
1.75394e-10
1.10477e-10
6.83415e-11
4.14964e-11
2.47191e-11
1.44401e-11
8.26945e-12
3.70312e-09
2.6351e-09
1.85032e-09
1.28138e-09
8.7465e-10
5.88095e-10
3.89269e-10
2.53498e-10
1.62312e-10
1.02122e-10
6.30978e-11
3.82653e-11
2.27656e-11
1.32817e-11
7.59606e-12
3.34133e-09
2.3755e-09
1.6664e-09
1.15278e-09
7.85955e-10
5.27803e-10
3.489e-10
2.26891e-10
1.45062e-10
9.11273e-11
5.6214e-11
3.40338e-11
2.02136e-11
1.17724e-11
6.72096e-12
2.89907e-09
2.05862e-09
1.44223e-09
9.96291e-10
6.78227e-10
4.54714e-10
3.00062e-10
1.94772e-10
1.24285e-10
7.79162e-11
4.79624e-11
2.89742e-11
1.71696e-11
9.97628e-12
5.68239e-12
2.39977e-09
1.70138e-09
1.1899e-09
8.20448e-10
5.57396e-10
3.72899e-10
2.45511e-10
1.58978e-10
1.01188e-10
6.32672e-11
3.88374e-11
2.33953e-11
1.38234e-11
8.00837e-12
4.54791e-12
1.87851e-09
1.32901e-09
9.27344e-10
6.37831e-10
4.32184e-10
2.88319e-10
1.8926e-10
1.22169e-10
7.75032e-11
4.82927e-11
2.95403e-11
1.77302e-11
1.04375e-11
6.02433e-12
3.40865e-12
1.37716e-09
9.71514e-10
6.75804e-10
4.63293e-10
3.12827e-10
2.07928e-10
1.35963e-10
8.7411e-11
5.52203e-11
3.42589e-11
2.08628e-11
1.24654e-11
7.30466e-12
4.19691e-12
2.36389e-12
9.35592e-10
6.57468e-10
4.55483e-10
3.10914e-10
2.08992e-10
1.38259e-10
8.9964e-11
5.75451e-11
3.61637e-11
2.2317e-11
1.35176e-11
8.03294e-12
4.68201e-12
2.67562e-12
1.49931e-12
5.82481e-10
4.07293e-10
2.807e-10
1.90571e-10
1.27381e-10
8.37795e-11
5.41896e-11
3.44509e-11
2.15167e-11
1.31957e-11
7.94277e-12
4.6911e-12
2.71764e-12
1.5442e-12
8.60444e-13
3.28854e-10
2.28546e-10
1.56519e-10
1.05573e-10
7.00973e-11
4.57908e-11
2.94144e-11
1.85711e-11
1.15188e-11
7.01608e-12
4.19479e-12
2.46121e-12
1.41687e-12
8.00284e-13
4.43382e-13
1.6747e-10
1.15562e-10
7.85696e-11
5.26065e-11
3.467e-11
2.24795e-11
1.43332e-11
8.98329e-12
5.53195e-12
3.34592e-12
1.98704e-12
1.1585e-12
6.62998e-13
3.72571e-13
2.05482e-13
7.88153e-11
5.39541e-11
3.63903e-11
2.41717e-11
1.58049e-11
1.01684e-11
6.43442e-12
4.00328e-12
2.44806e-12
1.47079e-12
8.67973e-13
5.03022e-13
2.86182e-13
1.59755e-13
8.75558e-14
4.13359e-11
2.8076e-11
1.87901e-11
1.23859e-11
8.03838e-12
5.13456e-12
3.22678e-12
1.9945e-12
1.21225e-12
7.24234e-13
4.25098e-13
2.45346e-13
1.39146e-13
7.75291e-14
4.26265e-14
3.10544e-08
2.22395e-08
1.57196e-08
1.09607e-08
7.5343e-09
5.10217e-09
3.40141e-09
2.23071e-09
1.43815e-09
9.10831e-10
5.66294e-10
3.45397e-10
2.06535e-10
1.21013e-10
6.94442e-11
3.04064e-08
2.17705e-08
1.53845e-08
1.07244e-08
7.36987e-09
4.98937e-09
3.32516e-09
2.17997e-09
1.40493e-09
8.89451e-10
5.52777e-10
3.3701e-10
2.01432e-10
1.1797e-10
6.76679e-11
2.91073e-08
2.08316e-08
1.47144e-08
1.02522e-08
7.04162e-09
4.76435e-09
3.17318e-09
2.07891e-09
1.33882e-09
8.4694e-10
5.25926e-10
3.20364e-10
1.91312e-10
1.11942e-10
6.4151e-11
2.71386e-08
1.94105e-08
1.37013e-08
9.53923e-09
6.54656e-09
4.42541e-09
2.94455e-09
1.9271e-09
1.23967e-09
7.83293e-10
4.85796e-10
2.95533e-10
1.76245e-10
1.02983e-10
5.8934e-11
2.45079e-08
1.75133e-08
1.23502e-08
8.58951e-09
5.88795e-09
3.97515e-09
2.64136e-09
1.72617e-09
1.10872e-09
6.99423e-10
4.33044e-10
2.62975e-10
1.56541e-10
9.12977e-11
5.21468e-11
2.12881e-08
1.51946e-08
1.07013e-08
7.4323e-09
5.08686e-09
3.42856e-09
2.27408e-09
1.48332e-09
9.50809e-10
5.98524e-10
3.69741e-10
2.24006e-10
1.33022e-10
7.73881e-11
4.40906e-11
1.76505e-08
1.25787e-08
8.84397e-09
6.13077e-09
4.1874e-09
2.81603e-09
1.86336e-09
1.21235e-09
7.75053e-10
4.86519e-10
2.99667e-10
1.80999e-10
1.07146e-10
6.21356e-11
3.52867e-11
1.38494e-08
9.84923e-09
6.90898e-09
4.77733e-09
3.25404e-09
2.18192e-09
1.43927e-09
9.33338e-10
5.94601e-10
3.71878e-10
2.28181e-10
1.3728e-10
8.09389e-11
4.67462e-11
2.64382e-11
1.01859e-08
7.22285e-09
5.05062e-09
3.48039e-09
2.36198e-09
1.57764e-09
1.03642e-09
6.69207e-10
4.24406e-10
2.64186e-10
1.61316e-10
9.65707e-11
5.6651e-11
3.25533e-11
1.83185e-11
6.94663e-09
4.90618e-09
3.41597e-09
2.34324e-09
1.58263e-09
1.05179e-09
6.87332e-10
4.41369e-10
2.78321e-10
1.72237e-10
1.04544e-10
6.22077e-11
3.62726e-11
2.07181e-11
1.159e-11
4.34129e-09
3.04985e-09
2.11164e-09
1.44008e-09
9.66745e-10
6.3843e-10
4.14482e-10
2.64369e-10
1.65563e-10
1.01746e-10
6.13265e-11
3.62378e-11
2.09848e-11
1.19059e-11
6.61723e-12
2.45671e-09
1.71446e-09
1.1789e-09
7.98273e-10
5.31966e-10
3.48663e-10
2.24622e-10
1.42158e-10
8.83336e-11
5.38637e-11
3.22173e-11
1.88945e-11
1.08621e-11
6.11992e-12
3.37912e-12
1.24961e-09
8.65214e-10
5.90158e-10
3.96335e-10
2.61914e-10
1.70223e-10
1.08743e-10
6.8247e-11
4.20586e-11
2.54407e-11
1.5099e-11
8.78983e-12
5.01826e-12
2.80941e-12
1.54216e-12
5.83569e-10
4.00432e-10
2.70666e-10
1.8013e-10
1.17969e-10
7.59918e-11
4.81248e-11
2.99492e-11
1.83077e-11
1.0989e-11
6.47488e-12
3.74421e-12
2.12464e-12
1.18324e-12
6.46553e-13
3.01617e-10
2.051e-10
1.37397e-10
9.06345e-11
5.88471e-11
3.75912e-11
2.36157e-11
1.45849e-11
8.8519e-12
5.2783e-12
3.09158e-12
1.77818e-12
1.00457e-12
5.57458e-13
3.03633e-13
2.27088e-07
1.63496e-07
1.16184e-07
8.14517e-08
5.63019e-08
3.83446e-08
2.57084e-08
1.69531e-08
1.09868e-08
6.99205e-09
4.36634e-09
2.67335e-09
1.60353e-09
9.41629e-10
5.41025e-10
2.22365e-07
1.60059e-07
1.13716e-07
7.97023e-08
5.50789e-08
3.75015e-08
2.51354e-08
1.65697e-08
1.07343e-08
6.82869e-09
4.2625e-09
2.60859e-09
1.56395e-09
9.17942e-10
5.2716e-10
2.1293e-07
1.53205e-07
1.08799e-07
7.62215e-08
5.26474e-08
3.5826e-08
2.39973e-08
1.58084e-08
1.02335e-08
6.50481e-09
4.05684e-09
2.48046e-09
1.4857e-09
8.71158e-10
4.9979e-10
1.98645e-07
1.42839e-07
1.01372e-07
7.09685e-08
4.89812e-08
3.3302e-08
2.22847e-08
1.46644e-08
9.48195e-09
6.01972e-09
3.74939e-09
2.2893e-09
1.36921e-09
8.01648e-10
4.59209e-10
1.79563e-07
1.29e-07
9.14608e-08
6.39641e-08
4.40968e-08
2.99431e-08
2.0009e-08
1.3147e-08
8.4873e-09
5.37924e-09
3.34453e-09
2.03828e-09
1.21669e-09
7.10911e-10
4.06392e-10
1.56158e-07
1.1205e-07
7.93438e-08
5.54147e-08
3.81454e-08
2.58582e-08
1.72473e-08
1.131e-08
7.28613e-09
4.60771e-09
2.85809e-09
1.73749e-09
1.03446e-09
6.02821e-10
3.43665e-10
1.29693e-07
9.29162e-08
6.56861e-08
4.57922e-08
3.14565e-08
2.12749e-08
1.4155e-08
9.25773e-09
5.94746e-09
3.75013e-09
2.31894e-09
1.40516e-09
8.33784e-10
4.84205e-10
2.75075e-10
1.02018e-07
7.29385e-08
5.14477e-08
3.57763e-08
2.45073e-08
1.65241e-08
1.0958e-08
7.14201e-09
4.57147e-09
2.87133e-09
1.76827e-09
1.06693e-09
6.30324e-10
3.64422e-10
2.06096e-10
7.52907e-08
5.36764e-08
3.7742e-08
2.61537e-08
1.78471e-08
1.19842e-08
7.91312e-09
5.13407e-09
3.27044e-09
2.04376e-09
1.25198e-09
7.5131e-10
4.41408e-10
2.53775e-10
1.42718e-10
5.15706e-08
3.66178e-08
2.56333e-08
1.76775e-08
1.20015e-08
8.01583e-09
5.26322e-09
3.39474e-09
2.14915e-09
1.33444e-09
8.12086e-10
4.84078e-10
2.82493e-10
1.61321e-10
9.01212e-11
3.23815e-08
2.2864e-08
1.59097e-08
1.0903e-08
7.35386e-09
4.87835e-09
3.18048e-09
2.03627e-09
1.27934e-09
7.88209e-10
4.75929e-10
2.8148e-10
1.62987e-10
9.23651e-11
5.12173e-11
1.83897e-08
1.2891e-08
8.903e-09
6.05415e-09
4.05084e-09
2.66501e-09
1.72267e-09
1.09334e-09
6.80889e-10
4.1582e-10
2.48889e-10
1.45939e-10
8.37987e-11
4.71084e-11
2.59241e-11
9.35472e-09
6.50077e-09
4.44983e-09
2.99839e-09
1.98754e-09
1.29522e-09
8.29263e-10
5.21321e-10
3.21613e-10
1.94603e-10
1.15439e-10
6.71083e-11
3.82218e-11
2.13248e-11
1.16543e-11
4.33987e-09
2.98541e-09
2.02267e-09
1.34894e-09
8.85018e-10
5.70901e-10
3.61891e-10
2.25305e-10
1.37699e-10
8.25775e-11
4.85747e-11
2.80188e-11
1.58454e-11
8.7849e-12
4.77474e-12
2.21156e-09
1.5055e-09
1.00947e-09
6.66363e-10
4.32835e-10
2.7651e-10
1.73647e-10
1.07151e-10
6.49413e-11
3.86443e-11
2.25716e-11
1.29382e-11
7.27708e-12
4.01615e-12
2.17523e-12
2.26126e-06
1.65743e-06
1.20027e-06
8.57891e-07
6.04786e-07
4.20378e-07
2.8797e-07
1.94245e-07
1.28871e-07
8.39987e-08
5.37419e-08
3.37237e-08
2.07378e-08
1.24845e-08
7.35133e-09
4.23081e-09
2.21464e-06
1.62299e-06
1.17508e-06
8.39683e-07
5.91814e-07
4.11272e-07
2.81667e-07
1.89943e-07
1.25975e-07
8.20807e-08
5.24932e-08
3.29254e-08
2.02372e-08
1.2177e-08
7.16646e-09
4.12222e-09
2.12198e-06
1.55463e-06
1.12515e-06
8.03641e-07
5.66154e-07
3.93265e-07
2.69204e-07
1.81432e-07
1.20248e-07
7.82883e-08
5.00258e-08
3.13497e-08
1.92501e-08
1.15711e-08
6.8026e-09
3.90864e-09
1.98178e-06
1.45129e-06
1.04973e-06
7.49265e-07
5.27483e-07
3.66146e-07
2.50441e-07
1.68628e-07
1.11639e-07
7.25949e-08
4.63283e-08
2.89931e-08
1.77771e-08
1.0669e-08
6.26204e-09
3.59204e-09
1.79498e-06
1.31349e-06
9.49093e-07
6.76686e-07
4.75879e-07
3.2997e-07
2.25424e-07
1.5157e-07
1.00187e-07
6.50387e-08
4.14339e-08
2.58826e-08
1.58388e-08
9.48598e-09
5.55556e-09
3.17968e-09
1.56493e-06
1.14388e-06
8.25423e-07
5.87702e-07
4.12754e-07
2.85802e-07
1.94937e-07
1.30826e-07
8.62959e-08
5.58984e-08
3.55294e-08
2.21403e-08
1.35134e-08
8.07088e-09
4.71321e-09
2.68964e-09
1.30415e-06
9.51767e-07
6.85615e-07
4.87332e-07
3.41674e-07
2.36126e-07
1.60688e-07
1.0756e-07
7.07498e-08
4.56953e-08
2.89565e-08
1.79864e-08
1.09404e-08
6.51064e-09
3.78797e-09
2.15346e-09
1.03094e-06
7.50722e-07
5.39589e-07
3.82699e-07
2.67685e-07
1.84489e-07
1.2515e-07
8.34776e-08
5.47069e-08
3.51983e-08
2.22144e-08
1.37389e-08
8.31862e-09
4.92699e-09
2.85273e-09
1.61382e-09
7.65774e-07
5.56014e-07
3.9851e-07
2.81802e-07
1.96445e-07
1.3486e-07
9.10854e-08
6.04758e-08
3.94428e-08
2.52497e-08
1.585e-08
9.74673e-09
5.86639e-09
3.45347e-09
1.98726e-09
1.11725e-09
5.28837e-07
3.82567e-07
2.73141e-07
1.92312e-07
1.33398e-07
9.10782e-08
6.11602e-08
4.03654e-08
2.61633e-08
1.66385e-08
1.03718e-08
6.33178e-09
3.78281e-09
2.21026e-09
1.26234e-09
7.04399e-10
3.35567e-07
2.41531e-07
1.71475e-07
1.19971e-07
8.26514e-08
5.60301e-08
3.73508e-08
2.44649e-08
1.57311e-08
9.9207e-09
6.13091e-09
3.71014e-09
2.19713e-09
1.27253e-09
7.2048e-10