/*--------------------------------*- C++ -*----------------------------------*\
| =========                 |                                                 |
| \\      /  F ield         | OpenFOAM: The Open Source CFD Toolbox           |
|  \\    /   O peration     | Version:  2412                                  |
|   \\  /    A nd           | Website:  www.openfoam.com                      |
|    \\/     M anipulation  |                                                 |
\*---------------------------------------------------------------------------*/
FoamFile
{
    version     2.0;
    format      ascii;
    arch        "LSB;label=32;scalar=64";
    class       volScalarField;
    location    "0.0199794";
    object      Vm;
}
// * * * * * * * * * * * * * * * * * * * * * * * * * * * * * * * * * * * * * //

dimensions      [0 0 0 0 0 0 0];

internalField   nonuniform List<scalar> 
8730
(
1.82377e-14
1.19223e-14
7.8739e-15
5.12102e-15
2.2062e-15
5.86851e-16
1.01047e-16
-6.08874e-17
-6.08874e-17
-6.08874e-17
4.24916e-16
-6.08874e-17
1.01047e-16
-6.08874e-17
1.01047e-16
1.72661e-14
1.15984e-14
7.22617e-15
5.28295e-15
3.33974e-15
9.1072e-16
1.01047e-16
-6.08874e-17
-6.08874e-17
-6.08874e-17
4.24916e-16
1.01047e-16
1.01047e-16
-6.08874e-17
1.01047e-16
1.62945e-14
1.09507e-14
8.19777e-15
4.95908e-15
2.2062e-15
1.72039e-15
4.24916e-16
-6.08874e-17
-6.08874e-17
-6.08874e-17
-6.08874e-17
-6.08874e-17
4.24916e-16
5.86851e-16
4.24916e-16
1.45132e-14
8.84551e-15
5.12102e-15
2.53006e-15
1.55846e-15
1.01047e-16
1.39652e-15
1.39652e-15
1.72039e-15
4.24916e-16
4.24916e-16
-6.08874e-17
4.24916e-16
4.24916e-16
1.01047e-16
1.37035e-14
9.16938e-15
6.09262e-15
4.14941e-15
1.72039e-15
-3.84756e-16
-6.08874e-17
-6.08874e-17
-6.08874e-17
-6.08874e-17
-2.22822e-16
-6.08874e-17
1.01047e-16
-6.08874e-17
1.01047e-16
1.17603e-14
7.71197e-15
5.44489e-15
2.53006e-15
1.39652e-15
1.01047e-16
-3.84756e-16
2.62982e-16
-6.08874e-17
-6.08874e-17
2.62982e-16
4.24916e-16
4.24916e-16
-6.08874e-17
-6.08874e-17
9.16938e-15
6.09262e-15
4.31134e-15
1.72039e-15
5.86851e-16
-3.84756e-16
1.01047e-16
-6.08874e-17
1.01047e-16
-6.08874e-17
-6.08874e-17
5.86851e-16
1.01047e-16
-6.08874e-17
1.01047e-16
5.60682e-15
2.85393e-15
1.72039e-15
1.23459e-15
4.24916e-16
5.86851e-16
1.07265e-15
-6.08874e-17
-6.08874e-17
-2.22822e-16
-6.08874e-17
5.86851e-16
1.07265e-15
-6.08874e-17
-6.08874e-17
4.14941e-15
1.55846e-15
4.24916e-16
7.48785e-16
4.24916e-16
-6.08874e-17
-6.08874e-17
2.62982e-16
-6.08874e-17
-6.08874e-17
2.62982e-16
4.24916e-16
-6.08874e-17
-6.08874e-17
-6.08874e-17
9.1072e-16
-6.08874e-17
2.62982e-16
-6.08874e-17
-6.08874e-17
-6.08874e-17
1.07265e-15
4.24916e-16
-6.08874e-17
-6.08874e-17
4.24916e-16
-6.08874e-17
-2.22822e-16
4.24916e-16
-6.08874e-17
1.23459e-15
4.24916e-16
4.24916e-16
4.24916e-16
-6.08874e-17
-6.08874e-17
-6.08874e-17
-6.08874e-17
5.86851e-16
-2.22822e-16
-6.08874e-17
-6.08874e-17
1.01047e-16
-6.08874e-17
-2.22822e-16
1.01047e-16
-7.08625e-16
-2.22822e-16
-8.7056e-16
-8.7056e-16
-6.08874e-17
2.62982e-16
-5.46691e-16
1.01047e-16
4.24916e-16
-2.22822e-16
1.01047e-16
-2.22822e-16
-5.46691e-16
2.62982e-16
-6.08874e-17
-7.08625e-16
2.62982e-16
-2.22822e-16
-6.08874e-17
-6.08874e-17
-6.08874e-17
-6.08874e-17
-6.08874e-17
-2.22822e-16
-6.08874e-17
-6.08874e-17
-2.22822e-16
-6.08874e-17
-2.22822e-16
4.24916e-16
-6.08874e-17
4.24916e-16
4.24916e-16
-6.08874e-17
-6.08874e-17
-6.08874e-17
-6.08874e-17
1.01047e-16
-6.08874e-17
-6.08874e-17
5.86851e-16
1.01047e-16
-6.08874e-17
-6.08874e-17
4.24916e-16
-7.08625e-16
1.01047e-16
-2.22822e-16
4.24916e-16
-6.08874e-17
-6.08874e-17
-2.22822e-16
-6.08874e-17
-2.22822e-16
-2.22822e-16
-7.08625e-16
-2.22822e-16
-2.22822e-16
-2.22822e-16
1.27058e-13
8.80315e-14
6.00168e-14
3.99369e-14
2.64964e-14
1.64564e-14
9.97905e-15
6.9023e-15
3.66361e-15
7.48785e-16
-3.84756e-16
-6.08874e-17
-6.08874e-17
-6.08874e-17
7.48785e-16
1.23171e-13
8.49547e-14
5.75878e-14
3.89653e-14
2.60106e-14
1.64564e-14
9.97905e-15
5.60682e-15
2.53006e-15
4.24916e-16
4.24916e-16
1.01047e-16
1.01047e-16
-6.08874e-17
-6.08874e-17
1.18637e-13
8.22018e-14
5.48349e-14
3.62124e-14
2.34196e-14
1.59706e-14
1.04649e-14
5.12102e-15
2.36813e-15
4.24916e-16
4.24916e-16
2.62982e-16
4.24916e-16
5.86851e-16
5.86851e-16
1.08597e-13
7.39432e-14
4.9653e-14
3.24879e-14
2.16383e-14
1.4999e-14
1.07887e-14
7.3881e-15
5.12102e-15
2.85393e-15
1.23459e-15
1.01047e-16
1.07265e-15
4.24916e-16
-2.22822e-16
9.9043e-14
6.71419e-14
4.57666e-14
3.00589e-14
1.98571e-14
1.257e-14
7.22617e-15
3.33974e-15
1.72039e-15
7.48785e-16
1.01047e-16
-6.08874e-17
1.01047e-16
-6.08874e-17
1.01047e-16
8.51167e-14
5.88833e-14
4.07466e-14
2.69822e-14
1.66184e-14
9.81712e-15
5.12102e-15
2.36813e-15
9.1072e-16
9.1072e-16
4.24916e-16
-6.08874e-17
7.48785e-16
-6.08874e-17
-6.08874e-17
6.98948e-14
4.83575e-14
3.29738e-14
2.16383e-14
1.43513e-14
8.84551e-15
6.09262e-15
3.82554e-15
1.88233e-15
4.24916e-16
4.24916e-16
5.86851e-16
1.01047e-16
-6.08874e-17
1.01047e-16
5.38633e-14
3.68602e-14
2.56867e-14
1.72661e-14
1.03029e-14
6.9023e-15
3.50167e-15
1.07265e-15
5.86851e-16
-6.08874e-17
-6.08874e-17
-6.08874e-17
1.07265e-15
-6.08874e-17
-2.22822e-16
4.05847e-14
2.82777e-14
1.95332e-14
1.32177e-14
7.8739e-15
4.63521e-15
1.72039e-15
1.01047e-16
4.24916e-16
9.1072e-16
-6.08874e-17
-6.08874e-17
7.48785e-16
-6.08874e-17
-6.08874e-17
2.61725e-14
1.79138e-14
1.32177e-14
8.03584e-15
4.79715e-15
2.53006e-15
1.88233e-15
5.86851e-16
1.01047e-16
-6.08874e-17
-6.08874e-17
-6.08874e-17
-6.08874e-17
-6.08874e-17
-6.08874e-17
1.59706e-14
1.11126e-14
7.22617e-15
5.12102e-15
2.53006e-15
2.2062e-15
2.2062e-15
1.23459e-15
1.07265e-15
-6.08874e-17
-6.08874e-17
5.86851e-16
1.07265e-15
-6.08874e-17
-2.22822e-16
9.33131e-15
5.60682e-15
2.85393e-15
2.04426e-15
7.48785e-16
4.24916e-16
2.62982e-16
-5.46691e-16
1.01047e-16
4.24916e-16
-6.08874e-17
1.01047e-16
1.01047e-16
-5.46691e-16
2.62982e-16
3.66361e-15
1.72039e-15
1.23459e-15
4.24916e-16
-3.84756e-16
-2.22822e-16
-6.08874e-17
-6.08874e-17
-6.08874e-17
-6.08874e-17
-6.08874e-17
-6.08874e-17
-6.08874e-17
-6.08874e-17
-6.08874e-17
1.72039e-15
4.24916e-16
4.24916e-16
4.24916e-16
-3.84756e-16
1.07265e-15
1.23459e-15
4.24916e-16
1.07265e-15
-6.08874e-17
-6.08874e-17
5.86851e-16
1.07265e-15
-6.08874e-17
-2.22822e-16
1.01047e-16
-6.08874e-17
1.01047e-16
-6.08874e-17
4.24916e-16
-6.08874e-17
-2.22822e-16
-6.08874e-17
-6.08874e-17
-2.22822e-16
-2.22822e-16
-6.08874e-17
-2.22822e-16
-2.22822e-16
-2.22822e-16
9.34139e-13
6.5043e-13
4.47364e-13
3.03566e-13
2.02843e-13
1.32725e-13
8.47928e-14
5.35394e-14
3.26499e-14
1.98571e-14
1.22461e-14
7.3881e-15
4.63521e-15
3.1778e-15
1.39652e-15
9.14545e-13
6.36666e-13
4.38134e-13
2.97251e-13
1.98309e-13
1.30134e-13
8.30115e-14
5.25678e-14
3.21641e-14
1.96951e-14
1.22461e-14
6.74036e-15
3.66361e-15
1.07265e-15
4.24916e-16
8.76005e-13
6.09784e-13
4.18216e-13
2.82029e-13
1.87783e-13
1.24143e-13
8.10683e-14
5.07865e-14
3.26499e-14
2.0019e-14
1.11126e-14
6.9023e-15
2.85393e-15
5.86851e-16
7.48785e-16
8.1366e-13
5.65738e-13
3.87772e-13
2.61463e-13
1.73695e-13
1.14103e-13
7.42671e-14
4.81956e-14
3.05447e-14
1.92093e-14
1.19223e-14
7.3881e-15
3.98748e-15
2.04426e-15
9.1072e-16
7.31721e-13
5.08575e-13
3.4826e-13
2.35554e-13
1.56206e-13
1.0212e-13
6.56845e-14
4.2204e-14
2.61725e-14
1.64564e-14
9.81712e-15
6.09262e-15
3.33974e-15
2.62982e-16
1.01047e-16
6.29217e-13
4.36515e-13
2.99032e-13
2.0171e-13
1.33535e-13
8.72218e-14
5.56446e-14
3.41073e-14
2.09906e-14
1.28939e-14
7.06423e-15
3.1778e-15
9.1072e-16
2.62982e-16
1.01047e-16
5.18777e-13
3.60081e-13
2.46242e-13
1.6576e-13
1.09407e-13
7.16761e-14
4.60904e-14
2.87635e-14
1.80758e-14
1.14365e-14
7.55003e-15
4.31134e-15
9.1072e-16
1.01047e-16
1.01047e-16
4.0267e-13
2.78305e-13
1.89888e-13
1.27058e-13
8.38212e-14
5.49968e-14
3.52408e-14
2.2448e-14
1.35416e-14
8.52164e-15
4.79715e-15
1.55846e-15
9.1072e-16
4.24916e-16
1.01047e-16
2.92879e-13
2.02519e-13
1.38393e-13
9.25657e-14
6.05026e-14
3.94511e-14
2.52009e-14
1.53229e-14
9.97905e-15
6.25456e-15
3.33974e-15
5.86851e-16
1.01047e-16
-6.08874e-17
1.01047e-16
1.96528e-13
1.35316e-13
9.09463e-14
6.16362e-14
4.13943e-14
2.68202e-14
1.72661e-14
1.06268e-14
6.9023e-15
4.14941e-15
1.55846e-15
4.24916e-16
-6.08874e-17
-6.08874e-17
4.24916e-16
1.21228e-13
8.23638e-14
5.49968e-14
3.66982e-14
2.43912e-14
1.54848e-14
9.65518e-15
6.09262e-15
2.36813e-15
4.24916e-16
1.01047e-16
1.01047e-16
-2.22822e-16
-6.08874e-17
-6.08874e-17
6.698e-14
4.54427e-14
3.02209e-14
1.96951e-14
1.28939e-14
7.8739e-15
4.79715e-15
1.55846e-15
7.48785e-16
1.01047e-16
-2.22822e-16
-5.46691e-16
-2.22822e-16
2.62982e-16
-6.08874e-17
3.4755e-14
2.37435e-14
1.59706e-14
9.65518e-15
5.60682e-15
3.33974e-15
1.88233e-15
4.24916e-16
1.01047e-16
4.24916e-16
4.24916e-16
-6.08874e-17
-6.08874e-17
4.24916e-16
-6.08874e-17
1.64564e-14
1.17603e-14
6.41649e-15
3.98748e-15
1.88233e-15
1.01047e-16
2.62982e-16
-6.08874e-17
1.01047e-16
4.24916e-16
-6.08874e-17
1.01047e-16
1.01047e-16
-6.08874e-17
4.24916e-16
8.52164e-15
4.63521e-15
1.39652e-15
1.55846e-15
7.48785e-16
1.01047e-16
-6.08874e-17
4.24916e-16
1.01047e-16
-6.08874e-17
4.24916e-16
1.01047e-16
1.01047e-16
4.24916e-16
1.01047e-16
6.85787e-12
4.7979e-12
3.31263e-12
2.25617e-12
1.51597e-12
1.00377e-12
6.5464e-13
4.21131e-13
2.67131e-13
1.6576e-13
1.01472e-13
6.01788e-14
3.55647e-14
2.14764e-14
1.11126e-14
6.71326e-12
4.69669e-12
3.24252e-12
2.20889e-12
1.48245e-12
9.80776e-13
6.39257e-13
4.09795e-13
2.5871e-13
1.60902e-13
9.80714e-14
5.85594e-14
3.45931e-14
1.96951e-14
1.11126e-14
6.41967e-12
4.48909e-12
3.09677e-12
2.10703e-12
1.41411e-12
9.35597e-13
6.09946e-13
3.92468e-13
2.48185e-13
1.53615e-13
9.43469e-14
5.72639e-14
3.41073e-14
2.0019e-14
1.15984e-14
5.97079e-12
4.1717e-12
2.87606e-12
1.95449e-12
1.3095e-12
8.65803e-13
5.63633e-13
3.60891e-13
2.28105e-13
1.40498e-13
8.51167e-14
5.15962e-14
3.13544e-14
1.80758e-14
1.03029e-14
5.37276e-12
3.75083e-12
2.58441e-12
1.75563e-12
1.17526e-12
7.75929e-13
5.04365e-13
3.22675e-13
2.02519e-13
1.24953e-13
7.66961e-14
4.67382e-14
2.82777e-14
1.59706e-14
9.65518e-15
4.64179e-12
3.23652e-12
2.22638e-12
1.51095e-12
1.01106e-12
6.66624e-13
4.31818e-13
2.76361e-13
1.73695e-13
1.07302e-13
6.55226e-14
4.00989e-14
2.29338e-14
1.38655e-14
8.19777e-15
3.82337e-12
2.66117e-12
1.82786e-12
1.23809e-12
8.26777e-13
5.44039e-13
3.52147e-13
2.24866e-13
1.4228e-13
8.73837e-14
5.32156e-14
3.26499e-14
1.87235e-14
1.0141e-14
5.28295e-15
2.97225e-12
2.06509e-12
1.41589e-12
9.5681e-13
6.37313e-13
4.1854e-13
2.70694e-13
1.7159e-13
1.06978e-13
6.51987e-14
3.94511e-14
2.35816e-14
1.37035e-14
7.8739e-15
4.95908e-15
2.16015e-12
1.498e-12
1.02482e-12
6.91076e-13
4.59185e-13
3.01299e-13
1.94099e-13
1.23333e-13
7.73438e-14
4.65763e-14
2.76299e-14
1.72661e-14
1.07887e-14
6.09262e-15
3.33974e-15
1.45492e-12
1.00588e-12
6.85894e-13
4.61614e-13
3.05995e-13
1.98957e-13
1.27867e-13
7.9449e-14
4.9653e-14
2.9897e-14
1.759e-14
9.81712e-15
5.28295e-15
2.04426e-15
1.07265e-15
9.00295e-13
6.19986e-13
4.21131e-13
2.81867e-13
1.86002e-13
1.21066e-13
7.6858e-14
4.78717e-14
2.89254e-14
1.67803e-14
1.0141e-14
6.57843e-15
4.14941e-15
1.72039e-15
4.24916e-16
5.09385e-13
3.50042e-13
2.37173e-13
1.57339e-13
1.03091e-13
6.64942e-14
4.20421e-14
2.55248e-14
1.53229e-14
9.65518e-15
6.09262e-15
3.66361e-15
9.1072e-16
5.86851e-16
4.24916e-16
2.62111e-13
1.78553e-13
1.20256e-13
8.00967e-14
5.2244e-14
3.28118e-14
2.06667e-14
1.24081e-14
7.8739e-15
4.31134e-15
1.55846e-15
7.48785e-16
1.01047e-16
4.24916e-16
4.24916e-16
1.2722e-13
8.57644e-14
5.77497e-14
3.76699e-14
2.42293e-14
1.53229e-14
8.84551e-15
4.95908e-15
3.33974e-15
7.48785e-16
4.24916e-16
-6.08874e-17
-6.08874e-17
4.24916e-16
-6.08874e-17
7.05426e-14
4.67382e-14
3.16783e-14
2.06667e-14
1.38655e-14
8.52164e-15
4.79715e-15
2.2062e-15
1.39652e-15
9.1072e-16
1.01047e-16
-6.08874e-17
-6.08874e-17
4.24916e-16
4.24916e-16
5.02762e-11
3.53281e-11
2.4494e-11
1.67509e-11
1.12937e-11
7.50382e-12
4.91125e-12
3.16576e-12
2.00793e-12
1.25266e-12
7.68642e-13
4.64205e-13
2.74904e-13
1.60902e-13
9.20799e-14
4.92058e-11
3.45681e-11
2.39609e-11
1.63817e-11
1.10418e-11
7.33412e-12
4.79854e-12
3.09159e-12
1.96016e-12
1.22303e-12
7.51315e-13
4.54327e-13
2.70046e-13
1.57339e-13
8.99747e-14
4.70477e-11
3.30359e-11
2.28882e-11
1.56399e-11
1.05357e-11
6.99486e-12
4.57459e-12
2.9452e-12
1.86737e-12
1.16425e-12
7.13908e-13
4.30361e-13
2.55148e-13
1.48919e-13
8.54405e-14
4.37759e-11
3.07179e-11
2.12673e-11
1.45217e-11
9.77609e-12
6.48428e-12
4.23663e-12
2.72594e-12
1.72616e-12
1.07437e-12
6.57555e-13
3.95869e-13
2.33611e-13
1.35802e-13
7.78296e-14
3.94172e-11
2.76334e-11
1.91137e-11
1.30374e-11
8.76724e-12
5.80837e-12
3.79002e-12
2.43495e-12
1.53961e-12
9.5762e-13
5.85332e-13
3.52147e-13
2.07539e-13
1.20418e-13
6.87613e-14
3.40983e-11
2.38752e-11
1.64926e-11
1.12351e-11
7.54414e-12
4.99125e-12
3.25256e-12
2.08647e-12
1.31566e-12
8.15603e-13
4.97726e-13
2.99518e-13
1.77257e-13
1.0212e-13
5.79117e-14
2.81079e-11
1.96509e-11
1.35527e-11
9.2166e-12
6.17871e-12
4.08053e-12
2.65437e-12
1.69912e-12
1.07016e-12
6.61927e-13
4.0267e-13
2.4106e-13
1.4147e-13
8.13922e-14
4.60904e-14
2.18786e-11
1.52657e-11
1.05064e-11
7.12927e-12
4.76794e-12
3.14098e-12
2.03837e-12
1.30108e-12
8.16737e-13
5.04203e-13
3.06643e-13
1.83087e-13
1.06816e-13
6.22839e-14
3.55647e-14
1.59268e-11
1.10842e-11
7.60778e-12
5.14768e-12
3.43214e-12
2.25358e-12
1.45816e-12
9.28795e-13
5.8177e-13
3.57814e-13
2.15798e-13
1.28515e-13
7.54006e-14
4.31756e-14
2.45532e-14
1.07385e-11
7.44909e-12
5.09537e-12
3.43587e-12
2.28338e-12
1.49362e-12
9.61506e-13
6.08165e-13
3.78704e-13
2.32477e-13
1.39851e-13
8.25257e-14
4.73859e-14
2.61725e-14
1.30558e-14
6.64784e-12
4.59337e-12
3.12932e-12
2.1012e-12
1.38901e-12
9.05153e-13
5.79827e-13
3.65101e-13
2.26485e-13
1.38069e-13
8.1716e-14
4.83575e-14
2.66583e-14
1.32177e-14
7.3881e-15
3.75164e-12
2.58037e-12
1.75013e-12
1.16927e-12
7.69128e-13
4.98374e-13
3.1814e-13
2.00414e-13
1.24143e-13
7.47529e-14
4.43092e-14
2.56867e-14
1.43513e-14
8.03584e-15
5.12102e-15
1.92987e-12
1.31987e-12
8.90093e-13
5.9181e-13
3.87448e-13
2.4948e-13
1.56692e-13
9.70998e-14
5.9531e-14
3.52408e-14
2.0019e-14
1.14365e-14
6.09262e-15
2.36813e-15
5.86851e-16
9.34787e-13
6.35046e-13
4.26313e-13
2.81705e-13
1.82277e-13
1.15884e-13
7.23238e-14
4.41472e-14
2.61725e-14
1.5161e-14
7.71197e-15
3.33974e-15
1.88233e-15
4.24916e-16
1.39652e-15
5.11652e-13
3.45831e-13
2.30858e-13
1.51024e-13
9.69379e-14
6.09884e-14
3.76699e-14
2.2448e-14
1.37035e-14
8.35971e-15
5.28295e-15
1.55846e-15
1.01047e-16
-6.08874e-17
1.07265e-15
3.68547e-10
2.6011e-10
1.81141e-10
1.24418e-10
8.42456e-11
5.62097e-11
3.69374e-11
2.3895e-11
1.52103e-11
9.52185e-12
5.86003e-12
3.54371e-12
2.10525e-12
1.2287e-12
7.0403e-13
3.60745e-10
2.54543e-10
1.7722e-10
1.21692e-10
8.23776e-11
5.4948e-11
3.60971e-11
2.33438e-11
1.48532e-11
9.29498e-12
5.71833e-12
3.45708e-12
2.05343e-12
1.19858e-12
6.85732e-13
3.45015e-10
2.4333e-10
1.6933e-10
1.16213e-10
7.86255e-11
5.24156e-11
3.44123e-11
2.22387e-11
1.41412e-11
8.84254e-12
5.43543e-12
3.28381e-12
1.94898e-12
1.13559e-12
6.50268e-13
3.21174e-10
2.26359e-10
1.57404e-10
1.07945e-10
7.29715e-11
4.86025e-11
3.18793e-11
2.05838e-11
1.30757e-11
8.16873e-12
5.01651e-12
3.02714e-12
1.79531e-12
1.04555e-12
5.96992e-13
2.89363e-10
2.03751e-10
1.41544e-10
9.69657e-11
6.54757e-11
4.35592e-11
2.85368e-11
1.84012e-11
1.16735e-11
7.28359e-12
4.46755e-12
2.6934e-12
1.59548e-12
9.27176e-13
5.28817e-13
2.50545e-10
1.76204e-10
1.22249e-10
8.36328e-11
5.63894e-11
3.74559e-11
2.44988e-11
1.5772e-11
9.98838e-12
6.21887e-12
3.80718e-12
2.29066e-12
1.35436e-12
7.86293e-13
4.47202e-13
2.06781e-10
1.45197e-10
1.00567e-10
6.86772e-11
4.62194e-11
3.06401e-11
1.99976e-11
1.28447e-11
8.11545e-12
5.04047e-12
3.07718e-12
1.8447e-12
1.08701e-12
6.28083e-13
3.56195e-13
1.61208e-10
1.12964e-10
7.80702e-11
5.3192e-11
3.57109e-11
2.36127e-11
1.53698e-11
9.84459e-12
6.20155e-12
3.84232e-12
2.33941e-12
1.39857e-12
8.21271e-13
4.73436e-13
2.67293e-13
1.17567e-10
8.21624e-11
5.66241e-11
3.84646e-11
2.5742e-11
1.69661e-11
1.10078e-11
7.02693e-12
4.41233e-12
2.72368e-12
1.652e-12
9.84339e-13
5.75292e-13
3.30609e-13
1.8665e-13
7.94112e-11
5.53053e-11
3.79775e-11
2.57006e-11
1.71323e-11
1.12463e-11
7.26643e-12
4.61847e-12
2.88675e-12
1.77409e-12
1.07227e-12
6.36504e-13
3.70931e-13
2.11749e-13
1.18637e-13
4.92052e-11
3.41218e-11
2.33261e-11
1.57134e-11
1.04261e-11
6.81058e-12
4.37881e-12
2.76951e-12
1.7226e-12
1.05462e-12
6.34237e-13
3.76275e-13
2.17579e-13
1.24305e-13
6.89232e-14
2.77429e-11
1.91403e-11
1.30164e-11
8.72189e-12
5.75493e-12
3.73901e-12
2.39074e-12
1.50415e-12
9.31548e-13
5.67358e-13
3.40002e-13
2.0009e-13
1.15884e-13
6.51987e-14
3.70221e-14
1.42121e-11
9.75018e-12
6.59326e-12
4.39355e-12
2.8827e-12
1.86186e-12
1.18336e-12
7.40951e-13
4.56756e-13
2.75228e-13
1.64141e-13
9.59663e-14
5.62923e-14
3.2326e-14
1.90474e-14
6.81188e-12
4.64422e-12
3.12026e-12
2.06509e-12
1.34659e-12
8.64831e-13
5.46306e-13
3.40002e-13
2.07701e-13
1.24305e-13
7.28096e-14
4.13943e-14
2.45532e-14
1.40274e-14
7.22617e-15
3.68168e-12
2.49503e-12
1.66608e-12
1.0951e-12
7.09536e-13
4.52222e-13
2.84944e-13
1.76934e-13
1.08273e-13
6.4389e-14
3.75079e-14
2.01809e-14
1.15984e-14
6.9023e-15
3.01587e-15
2.70171e-09
1.91568e-09
1.34039e-09
9.25007e-10
6.2927e-10
4.21767e-10
2.78368e-10
1.80816e-10
1.15529e-10
7.25689e-11
4.4792e-11
2.71533e-11
1.61608e-11
9.43959e-12
5.4092e-12
2.6448e-09
1.87489e-09
1.31153e-09
9.04853e-10
6.15388e-10
4.12344e-10
2.72065e-10
1.76665e-10
1.12839e-10
7.08539e-11
4.3718e-11
2.64931e-11
1.5762e-11
9.20413e-12
5.27253e-12
2.53023e-09
1.79286e-09
1.25353e-09
8.64388e-10
5.87543e-10
3.93454e-10
2.5944e-10
1.68356e-10
1.07457e-10
6.74264e-11
4.15718e-11
2.51733e-11
1.49653e-11
8.73112e-12
4.99691e-12
2.35655e-09
1.66866e-09
1.16584e-09
8.03294e-10
5.4556e-10
3.65015e-10
2.40461e-10
1.55885e-10
9.9395e-11
6.23007e-11
3.83692e-11
2.32076e-11
1.37809e-11
8.03092e-12
4.59159e-12
2.12466e-09
1.50308e-09
1.04911e-09
7.22091e-10
4.8985e-10
3.27345e-10
2.15369e-10
1.39431e-10
8.87786e-11
5.55658e-11
3.41693e-11
2.06351e-11
1.22338e-11
7.11842e-12
4.06385e-12
1.84145e-09
1.30115e-09
9.06987e-10
6.23392e-10
4.22263e-10
2.81731e-10
1.85048e-10
1.1959e-10
7.60046e-11
4.7479e-11
2.91383e-11
1.75611e-11
1.03892e-11
6.03281e-12
3.43635e-12
1.52194e-09
1.07368e-09
7.47148e-10
5.12592e-10
3.46532e-10
2.30725e-10
1.51213e-10
9.74981e-11
6.18157e-11
3.85178e-11
2.35779e-11
1.41734e-11
8.36272e-12
4.84227e-12
2.7504e-12
1.18877e-09
8.36879e-10
5.81055e-10
3.97686e-10
2.68167e-10
1.78069e-10
1.16373e-10
7.48117e-11
4.72855e-11
2.93702e-11
1.79186e-11
1.07354e-11
6.3136e-12
3.64282e-12
2.06363e-12
8.69025e-10
6.10076e-10
4.22326e-10
2.88142e-10
1.93658e-10
1.28148e-10
8.34456e-11
5.34438e-11
3.36496e-11
2.08189e-11
1.26507e-11
7.54852e-12
4.42091e-12
2.54037e-12
1.43338e-12
5.88482e-10
4.11614e-10
2.83844e-10
1.92878e-10
1.29087e-10
8.50473e-11
5.51317e-11
3.51457e-11
2.20247e-11
1.35618e-11
8.20176e-12
4.87028e-12
2.83978e-12
1.6243e-12
9.11792e-13
3.65332e-10
2.54348e-10
1.7455e-10
1.18018e-10
7.85787e-11
5.14956e-11
3.32001e-11
2.10479e-11
1.31166e-11
8.03141e-12
4.83093e-12
2.85387e-12
1.65523e-12
9.42722e-13
5.2736e-13
2.06013e-10
1.42629e-10
9.73182e-11
6.54126e-11
4.32917e-11
2.81995e-11
1.80699e-11
1.13862e-11
7.05267e-12
4.29282e-12
2.56693e-12
1.50771e-12
8.69689e-13
4.93354e-13
2.75066e-13
1.05165e-10
7.23443e-11
4.90416e-11
3.27471e-11
2.15312e-11
1.39333e-11
8.87087e-12
5.55478e-12
3.42e-12
2.06979e-12
1.22983e-12
7.18604e-13
4.13682e-13
2.33449e-13
1.29649e-13
4.99256e-11
3.41025e-11
2.29558e-11
1.5221e-11
9.93818e-12
6.38793e-12
4.04037e-12
2.51332e-12
1.53702e-12
9.24261e-13
5.4663e-13
3.17169e-13
1.81306e-13
1.00986e-13
5.48349e-14
2.65776e-11
1.8032e-11
1.20564e-11
7.94186e-12
5.15156e-12
3.28964e-12
2.06914e-12
1.28052e-12
7.79816e-13
4.66149e-13
2.73447e-13
1.58959e-13
9.07844e-14
5.15962e-14
2.82777e-14
1.9797e-08
1.41059e-08
9.91908e-09
6.87975e-09
4.70382e-09
3.1684e-09
2.10121e-09
1.37111e-09
8.79783e-10
5.54773e-10
3.43582e-10
2.08869e-10
1.24576e-10
7.28629e-11
4.17786e-11
1.93821e-08
1.38071e-08
9.70662e-09
6.73065e-09
4.6006e-09
3.09796e-09
2.05385e-09
1.33976e-09
8.59369e-10
5.41702e-10
3.3536e-10
2.03791e-10
1.21497e-10
7.10345e-11
4.07125e-11
1.85482e-08
1.32073e-08
9.28054e-09
6.43191e-09
4.39398e-09
2.95708e-09
1.95922e-09
1.27717e-09
8.18644e-10
5.15646e-10
3.1898e-10
1.93682e-10
1.15375e-10
6.73984e-11
3.85972e-11
1.72841e-08
1.22992e-08
8.63628e-09
5.98079e-09
4.08238e-09
2.7449e-09
1.81689e-09
1.18319e-09
7.57584e-10
4.76647e-10
2.94505e-10
1.78601e-10
1.06257e-10
6.19915e-11
3.54542e-11
1.55955e-08
1.10875e-08
7.77783e-09
5.38053e-09
3.6684e-09
2.46349e-09
1.62847e-09
1.059e-09
6.7707e-10
4.25332e-10
2.62376e-10
1.58851e-10
9.43459e-11
5.49472e-11
3.13697e-11
1.35313e-08
9.6085e-09
6.73153e-09
4.65013e-09
3.16559e-09
2.12235e-09
1.40052e-09
9.09088e-10
5.80095e-10
3.63669e-10
2.23862e-10
1.35236e-10
8.01379e-11
4.65637e-11
2.65222e-11
1.12008e-08
7.94111e-09
5.55381e-09
3.8294e-09
2.60162e-09
1.74049e-09
1.14591e-09
7.42022e-10
4.72287e-10
2.95296e-10
1.81271e-10
1.09196e-10
6.45202e-11
3.73786e-11
2.12271e-11
8.76784e-09
6.20307e-09
4.32833e-09
2.97704e-09
2.01719e-09
1.34571e-09
8.8336e-10
5.70217e-10
3.61742e-10
2.25404e-10
1.37878e-10
8.27546e-11
4.87165e-11
2.81182e-11
1.59097e-11
6.42783e-09
4.53449e-09
3.15428e-09
2.16239e-09
1.4601e-09
9.70491e-10
6.34598e-10
4.07986e-10
2.57738e-10
1.59902e-10
9.7376e-11
5.81814e-11
3.40941e-11
1.95888e-11
1.10333e-11
4.36682e-09
3.0687e-09
2.12594e-09
1.45117e-09
9.7546e-10
6.45315e-10
4.19902e-10
2.68589e-10
1.68792e-10
1.04163e-10
6.30927e-11
3.74933e-11
2.1853e-11
1.24883e-11
6.99794e-12
2.7187e-09
1.90102e-09
1.31015e-09
8.89478e-10
5.94542e-10
3.91036e-10
2.52927e-10
1.60798e-10
1.00428e-10
6.15903e-11
3.70724e-11
2.18954e-11
1.26844e-11
7.20748e-12
4.01608e-12
1.53491e-09
1.06673e-09
7.30544e-10
4.92757e-10
3.27175e-10
2.13726e-10
1.3729e-10
8.66794e-11
5.37635e-11
3.27471e-11
1.9579e-11
1.14876e-11
6.61318e-12
3.73528e-12
2.06946e-12
7.81658e-10
5.39381e-10
3.66719e-10
2.45538e-10
1.6182e-10
1.04922e-10
6.68996e-11
4.1929e-11
2.58201e-11
1.56169e-11
9.27441e-12
5.40726e-12
3.09451e-12
1.73895e-12
9.59077e-13
3.67866e-10
2.51828e-10
1.6985e-10
1.1282e-10
7.37686e-11
4.74604e-11
3.00323e-11
1.86851e-11
1.14262e-11
6.86483e-12
4.05122e-12
2.34783e-12
1.33574e-12
7.45648e-13
4.08662e-13
1.92933e-10
1.31043e-10
8.77016e-11
5.78104e-11
3.75187e-11
2.39653e-11
1.50608e-11
9.30923e-12
5.65809e-12
3.38032e-12
1.98412e-12
1.14514e-12
6.49458e-13
3.61863e-13
1.98957e-13
1.44945e-07
1.03801e-07
7.33704e-08
5.11584e-08
3.5166e-08
2.38141e-08
1.58759e-08
1.04117e-08
6.71247e-09
4.25125e-09
2.64315e-09
1.61212e-09
9.63991e-10
5.6482e-10
3.24127e-10
1.4192e-07
1.01613e-07
7.18064e-08
5.00554e-08
3.43985e-08
2.32876e-08
1.552e-08
1.01749e-08
6.55743e-09
4.15146e-09
2.58006e-09
1.57297e-09
9.40171e-10
5.5062e-10
3.15836e-10
1.35857e-07
9.72304e-08
6.86785e-08
4.78516e-08
3.28664e-08
2.22374e-08
1.48107e-08
9.70319e-09
6.24887e-09
3.95305e-09
2.45473e-09
1.49528e-09
8.9294e-10
5.22482e-10
2.99421e-10
1.26668e-07
9.05973e-08
6.39499e-08
4.45238e-08
3.05557e-08
2.06553e-08
1.37435e-08
8.99463e-09
5.7861e-09
3.65598e-09
2.26743e-09
1.37938e-09
8.22616e-10
4.80667e-10
2.75071e-10
1.14389e-07
8.17425e-08
5.76439e-08
4.00911e-08
2.74817e-08
1.85538e-08
1.23284e-08
8.05683e-09
5.1749e-09
3.26452e-09
2.02121e-09
1.22742e-09
7.30648e-10
4.26127e-10
2.43392e-10
9.93608e-08
7.09197e-08
4.99479e-08
3.46898e-08
2.37426e-08
1.60026e-08
1.06142e-08
6.92329e-09
4.43785e-09
2.79358e-09
1.72574e-09
1.04554e-09
6.20871e-10
3.61205e-10
2.05791e-10
8.23828e-08
5.87105e-08
4.12787e-08
2.8615e-08
1.95445e-08
1.31437e-08
8.69713e-09
5.65858e-09
3.61752e-09
2.2708e-09
1.39868e-09
8.44802e-10
5.00099e-10
2.90014e-10
1.64699e-10
6.46415e-08
4.59707e-08
3.22473e-08
2.22979e-08
1.51881e-08
1.0184e-08
6.71772e-09
4.3563e-09
2.77527e-09
1.73572e-09
1.06502e-09
6.40745e-10
3.77778e-10
2.18185e-10
1.23399e-10
4.75421e-08
3.37122e-08
2.35735e-08
1.62445e-08
1.10244e-08
7.36355e-09
4.83743e-09
3.12348e-09
1.98089e-09
1.23307e-09
7.52933e-10
4.50739e-10
2.64415e-10
1.51941e-10
8.55006e-11
3.2423e-08
2.28993e-08
1.59438e-08
1.09369e-08
7.38686e-09
4.90915e-09
3.20808e-09
2.06007e-09
1.29905e-09
8.03907e-10
4.87953e-10
2.90351e-10
1.693e-10
9.67006e-11
5.40956e-11
2.02627e-08
1.4235e-08
9.85599e-09
6.72151e-09
4.51223e-09
2.97983e-09
1.93457e-09
1.23393e-09
7.72755e-10
4.74892e-10
2.86238e-10
1.69138e-10
9.79454e-11
5.55702e-11
3.08855e-11
1.14666e-08
8.00213e-09
5.50245e-09
3.72589e-09
2.48292e-09
1.62736e-09
1.04841e-09
6.63515e-10
4.12292e-10
2.51406e-10
1.50373e-10
8.8189e-11
5.06982e-11
2.85644e-11
1.57719e-11
5.83247e-09
4.03834e-09
2.75453e-09
1.84987e-09
1.22247e-09
7.94505e-10
5.0755e-10
3.18539e-10
1.96306e-10
1.18743e-10
7.04738e-11
4.1026e-11
2.34225e-11
1.31127e-11
7.19793e-12
2.72378e-09
1.869e-09
1.26332e-09
8.40748e-10
5.50616e-10
3.54688e-10
2.2462e-10
1.39786e-10
8.54502e-11
5.12906e-11
3.02211e-11
1.74759e-11
9.91665e-12
5.52272e-12
3.01775e-12
1.40778e-09
9.57292e-10
6.41291e-10
4.23032e-10
2.74665e-10
1.75455e-10
1.10225e-10
6.80741e-11
4.13157e-11
2.46362e-11
1.44298e-11
8.29957e-12
4.68875e-12
2.6019e-12
1.41719e-12
1.05992e-06
7.63106e-07
5.42284e-07
3.80171e-07
2.62786e-07
1.78971e-07
1.19992e-07
7.91275e-08
5.12801e-08
3.2635e-08
2.03796e-08
1.24777e-08
7.48439e-09
4.395e-09
2.52521e-09
1.03788e-06
7.47067e-07
5.30763e-07
3.72006e-07
2.57078e-07
1.75036e-07
1.17318e-07
7.73381e-08
5.01019e-08
3.18726e-08
1.9895e-08
1.21755e-08
7.29964e-09
4.28444e-09
2.46049e-09
9.93838e-07
7.15077e-07
5.07815e-07
3.5576e-07
2.45729e-07
1.67216e-07
1.12006e-07
7.37849e-08
4.77641e-08
3.03608e-08
1.89351e-08
1.15774e-08
6.93445e-09
4.06608e-09
2.33274e-09
9.27164e-07
6.66695e-07
4.73147e-07
3.31242e-07
2.28617e-07
1.55435e-07
1.04013e-07
6.84454e-08
4.42565e-08
2.80967e-08
1.75001e-08
1.06852e-08
6.39073e-09
3.74165e-09
2.14333e-09
8.38102e-07
6.02098e-07
4.26888e-07
2.98549e-07
2.0582e-07
1.39758e-07
9.33908e-08
6.1363e-08
3.9614e-08
2.51073e-08
1.56104e-08
9.51355e-09
5.67885e-09
3.31814e-09
1.89681e-09
7.28859e-07
5.22989e-07
3.70333e-07
2.58645e-07
1.78041e-07
1.20692e-07
8.0501e-08
5.2789e-08
3.40076e-08
2.15062e-08
1.334e-08
8.10965e-09
4.82829e-09
2.81363e-09
1.60404e-09
6.05333e-07
4.33681e-07
3.06586e-07
2.13733e-07
1.46822e-07
9.92995e-08
6.60675e-08
4.321e-08
2.77595e-08
1.75035e-08
1.08235e-08
6.55849e-09
3.89164e-09
2.26e-09
1.2839e-09
4.76164e-07
3.40437e-07
2.40129e-07
1.66984e-07
1.14387e-07
7.71252e-08
5.11458e-08
3.3335e-08
2.13371e-08
1.34018e-08
8.25332e-09
4.97983e-09
2.942e-09
1.70092e-09
9.61944e-10
3.51415e-07
2.50532e-07
1.76159e-07
1.22071e-07
8.33005e-08
5.59357e-08
3.6934e-08
2.3963e-08
1.52646e-08
9.53912e-09
5.84355e-09
3.5067e-09
2.06025e-09
1.18448e-09
6.66127e-10
2.40703e-07
1.70911e-07
1.19642e-07
8.25088e-08
5.60162e-08
3.74135e-08
2.45658e-08
1.58448e-08
1.0031e-08
6.2284e-09
3.79037e-09
2.25941e-09
1.31852e-09
7.52956e-10
4.20636e-10
1.51139e-07
1.06717e-07
7.42577e-08
5.08889e-08
3.43237e-08
2.27694e-08
1.48447e-08
9.5042e-09
5.97123e-09
3.67892e-09
2.22137e-09
1.31379e-09
7.60734e-10
4.31109e-10
2.39054e-10
8.58331e-08
6.01681e-08
4.15543e-08
2.82574e-08
1.89071e-08
1.24388e-08
8.04048e-09
5.1031e-09
3.17801e-09
1.94082e-09
1.16168e-09
6.81161e-10
3.91126e-10
2.19876e-10
1.20999e-10
4.36626e-08
3.0342e-08
2.07693e-08
1.39948e-08
9.27674e-09
6.04535e-09
3.87054e-09
2.43324e-09
1.50111e-09
9.08298e-10
5.38803e-10
3.13224e-10
1.78398e-10
9.95323e-11
5.4396e-11
2.02561e-08
1.39342e-08
9.4407e-09
6.29608e-09
4.13077e-09
2.66465e-09
1.68911e-09
1.0516e-09
6.42701e-10
3.85426e-10
2.2672e-10
1.30776e-10
7.39575e-11
4.10031e-11
2.22859e-11
1.03223e-08
7.02686e-09
4.71162e-09
3.11021e-09
2.02023e-09
1.2906e-09
8.10489e-10
5.00123e-10
3.0311e-10
1.8037e-10
1.05352e-10
6.03882e-11
3.39654e-11
1.87452e-11
1.01527e-11
1.05543e-05
7.73596e-06
5.60219e-06
4.00416e-06
2.82281e-06
1.96209e-06
1.34408e-06
9.06628e-07
6.01497e-07
3.92059e-07
2.50837e-07
1.57403e-07
9.67923e-08
5.82708e-08
3.43119e-08
1.97471e-08
1.03367e-05
7.5752e-06
5.4846e-06
3.91918e-06
2.76226e-06
1.91959e-06
1.31467e-06
8.86547e-07
5.87983e-07
3.83107e-07
2.45009e-07
1.53678e-07
9.4456e-08
5.68354e-08
3.34491e-08
1.92402e-08
9.90422e-06
7.25615e-06
5.25157e-06
3.75095e-06
2.64249e-06
1.83554e-06
1.25649e-06
8.46825e-07
5.61252e-07
3.65406e-07
2.33493e-07
1.46323e-07
8.98488e-08
5.40076e-08
3.17508e-08
1.82433e-08
9.24984e-06
6.77382e-06
4.89958e-06
3.49715e-06
2.462e-06
1.70897e-06
1.16892e-06
7.87061e-07
5.21067e-07
3.38833e-07
2.16235e-07
1.35324e-07
8.29734e-08
4.97971e-08
2.92277e-08
1.67656e-08
8.37799e-06
6.13064e-06
4.42984e-06
3.15839e-06
2.22114e-06
1.54011e-06
1.05216e-06
7.07443e-07
4.67616e-07
3.03565e-07
1.9339e-07
1.20806e-07
7.39268e-08
4.42753e-08
2.59303e-08
1.4841e-08
7.30422e-06
5.33898e-06
3.85262e-06
2.74307e-06
1.92651e-06
1.33396e-06
9.0986e-07
6.10624e-07
4.02781e-07
2.60903e-07
1.65832e-07
1.03339e-07
6.3073e-08
3.76704e-08
2.19987e-08
1.25537e-08
6.08703e-06
4.44232e-06
3.20007e-06
2.27459e-06
1.59474e-06
1.10211e-06
7.50004e-07
5.02029e-07
3.30221e-07
2.1328e-07
1.35153e-07
8.39504e-08
5.10637e-08
3.03881e-08
1.76802e-08
1.00512e-08
4.81186e-06
3.50396e-06
2.5185e-06
1.78623e-06
1.2494e-06
8.6109e-07
5.84129e-07
3.89627e-07
2.55341e-07
1.64286e-07
1.03684e-07
6.41254e-08
3.88267e-08
2.29965e-08
1.3315e-08
7.53243e-09
3.57421e-06
2.59516e-06
1.86002e-06
1.31529e-06
9.16894e-07
6.29453e-07
4.25136e-07
2.82267e-07
1.84097e-07
1.17851e-07
7.39788e-08
4.54923e-08
2.7381e-08
1.61189e-08
9.27542e-09
5.21471e-09
2.46832e-06
1.78561e-06
1.27487e-06
8.97606e-07
6.22628e-07
4.25102e-07
2.85462e-07
1.88403e-07
1.22116e-07
7.76592e-08
4.84096e-08
2.95532e-08
1.76561e-08
1.03163e-08
5.89188e-09
3.28774e-09
1.56624e-06
1.12733e-06
8.0035e-07
5.59959e-07
3.85771e-07
2.61517e-07
1.74333e-07
1.14189e-07
7.34241e-08
4.63043e-08
2.86157e-08
1.73169e-08
1.0255e-08
5.93947e-09
3.3628e-09
1.86061e-09
9.00324e-07
6.43368e-07