/*--------------------------------*- C++ -*----------------------------------*\
| =========                 |                                                 |
| \\      /  F ield         | OpenFOAM: The Open Source CFD Toolbox           |
|  \\    /   O peration     | Version:  2312                                  |
|   \\  /    A nd           | Website:  www.openfoam.com                      |
|    \\/     M anipulation  |                                                 |
\*---------------------------------------------------------------------------*/
FoamFile
{
    version     2.0;
    format      ascii;
    arch        "LSB;label=32;scalar=64";
    class       volVectorField;
    location    "1";
    object      D_0;
}
// * * * * * * * * * * * * * * * * * * * * * * * * * * * * * * * * * * * * * //

dimensions      [0 1 0 0 0 0 0];

internalField   nonuniform List<vector> 
1620
(
(0.000137228 0.000328489 4.25889e-05)
(7.81015e-05 0.000347327 4.25885e-05)
(1.66026e-05 0.000355613 4.25887e-05)
(-4.54009e-05 0.000353094 4.25894e-05)
(-0.000106025 0.000339846 4.25895e-05)
(-0.000163428 0.000316272 4.25892e-05)
(-0.000215866 0.000283088 4.25895e-05)
(-0.000261744 0.000241302 4.25895e-05)
(-0.000299669 0.000192185 4.2589e-05)
(-0.000328489 0.000137228 4.25889e-05)
(-0.000347327 7.81015e-05 4.25885e-05)
(-0.000355613 1.66025e-05 4.25887e-05)
(-0.000353094 -4.54009e-05 4.25894e-05)
(-0.000339846 -0.000106025 4.25895e-05)
(-0.000316272 -0.000163428 4.25892e-05)
(-0.000283088 -0.000215866 4.25895e-05)
(-0.000241302 -0.000261744 4.25895e-05)
(-0.000192185 -0.000299669 4.2589e-05)
(-0.000137228 -0.000328489 4.25889e-05)
(-7.81015e-05 -0.000347327 4.25885e-05)
(-1.66025e-05 -0.000355613 4.25887e-05)
(4.54009e-05 -0.000353094 4.25894e-05)
(0.000106025 -0.000339846 4.25895e-05)
(0.000163428 -0.000316272 4.25892e-05)
(0.000215866 -0.000283088 4.25895e-05)
(0.000261744 -0.000241302 4.25895e-05)
(0.000299669 -0.000192185 4.2589e-05)
(0.000328489 -0.000137228 4.25889e-05)
(0.000347327 -7.81015e-05 4.25885e-05)
(0.000355613 -1.66025e-05 4.25887e-05)
(0.000353094 4.54009e-05 4.25894e-05)
(0.000339846 0.000106025 4.25895e-05)
(0.000316272 0.000163428 4.25892e-05)
(0.000283088 0.000215866 4.25895e-05)
(0.000241302 0.000261744 4.25895e-05)
(0.000192185 0.000299669 4.2589e-05)
(6.58324e-05 0.000378902 8.80721e-05)
(-9.63291e-07 0.000384577 8.80721e-05)
(-6.77293e-05 0.000378567 8.80721e-05)
(-0.000132438 0.000361054 8.80725e-05)
(-0.000193123 0.000332572 8.80727e-05)
(-0.000247939 0.000293984 8.80724e-05)
(-0.000295222 0.000246463 8.80724e-05)
(-0.000333535 0.000191454 8.80724e-05)
(-0.000361714 0.000130628 8.80721e-05)
(-0.000378902 6.58324e-05 8.80721e-05)
(-0.000384577 -9.63307e-07 8.80721e-05)
(-0.000378567 -6.77293e-05 8.80721e-05)
(-0.000361054 -0.000132438 8.80725e-05)
(-0.000332572 -0.000193123 8.80727e-05)
(-0.000293984 -0.000247939 8.80724e-05)
(-0.000246463 -0.000295222 8.80724e-05)
(-0.000191454 -0.000333535 8.80723e-05)
(-0.000130628 -0.000361714 8.80721e-05)
(-6.58324e-05 -0.000378902 8.80721e-05)
(9.63319e-07 -0.000384577 8.80721e-05)
(6.77293e-05 -0.000378567 8.80721e-05)
(0.000132438 -0.000361054 8.80725e-05)
(0.000193123 -0.000332572 8.80727e-05)
(0.000247939 -0.000293984 8.80724e-05)
(0.000295222 -0.000246463 8.80724e-05)
(0.000333535 -0.000191454 8.80724e-05)
(0.000361714 -0.000130628 8.80721e-05)
(0.000378902 -6.58324e-05 8.80721e-05)
(0.000384577 9.63309e-07 8.80721e-05)
(0.000378567 6.77293e-05 8.80721e-05)
(0.000361054 0.000132438 8.80725e-05)
(0.000332572 0.000193123 8.80727e-05)
(0.000293984 0.000247939 8.80724e-05)
(0.000246463 0.000295222 8.80724e-05)
(0.000191454 0.000333535 8.80724e-05)
(0.000130628 0.000361714 8.80721e-05)
(-4.85699e-05 0.000411838 0.00011369)
(-0.000119347 0.000397147 0.00011369)
(-0.000186498 0.00037039 0.00011369)
(-0.000247982 0.000332377 0.00011369)
(-0.000301931 0.000284267 0.00011369)
(-0.000346706 0.000227517 0.00011369)
(-0.000380947 0.000163856 0.00011369)
(-0.000403613 9.52158e-05 0.00011369)
(-0.000414015 2.36827e-05 0.00011369)
(-0.000411838 -4.85699e-05 0.00011369)
(-0.000397147 -0.000119347 0.00011369)
(-0.00037039 -0.000186498 0.00011369)
(-0.000332377 -0.000247982 0.00011369)
(-0.000284267 -0.000301931 0.00011369)
(-0.000227517 -0.000346706 0.00011369)
(-0.000163856 -0.000380947 0.00011369)
(-9.52157e-05 -0.000403613 0.00011369)
(-2.36827e-05 -0.000414015 0.00011369)
(4.85699e-05 -0.000411838 0.00011369)
(0.000119347 -0.000397147 0.00011369)
(0.000186498 -0.00037039 0.00011369)
(0.000247982 -0.000332377 0.00011369)
(0.000301931 -0.000284267 0.00011369)
(0.000346706 -0.000227517 0.00011369)
(0.000380947 -0.000163856 0.00011369)
(0.000403613 -9.52157e-05 0.00011369)
(0.000414015 -2.36827e-05 0.00011369)
(0.000411838 4.85699e-05 0.00011369)
(0.000397147 0.000119347 0.00011369)
(0.00037039 0.000186498 0.00011369)
(0.000332377 0.000247982 0.00011369)
(0.000284267 0.000301931 0.00011369)
(0.000227517 0.000346706 0.00011369)
(0.000163856 0.000380947 0.00011369)
(9.52158e-05 0.000403613 0.00011369)
(2.36827e-05 0.000414015 0.00011369)
(0.000260628 0.0009819 0.00018581)
(8.61641e-05 0.00101224 0.000185809)
(-9.09185e-05 0.00101183 0.00018581)
(-0.000265239 0.000980665 0.000185812)
(-0.000431499 0.000919709 0.000185813)
(-0.00058465 0.000830808 0.000185812)
(-0.000720036 0.000716662 0.000185812)
(-0.000833545 0.000580741 0.000185811)
(-0.000921725 0.000427174 0.00018581)
(-0.0009819 0.000260628 0.00018581)
(-0.00101224 8.6164e-05 0.000185809)
(-0.00101182 -9.09186e-05 0.00018581)
(-0.000980665 -0.000265239 0.000185812)
(-0.000919709 -0.000431499 0.000185812)
(-0.000830808 -0.00058465 0.000185812)
(-0.000716662 -0.000720037 0.000185812)
(-0.000580741 -0.000833545 0.000185811)
(-0.000427174 -0.000921725 0.00018581)
(-0.000260628 -0.0009819 0.00018581)
(-8.6164e-05 -0.00101224 0.000185809)
(9.09186e-05 -0.00101183 0.00018581)
(0.000265239 -0.000980665 0.000185812)
(0.000431499 -0.000919709 0.000185813)
(0.00058465 -0.000830808 0.000185812)
(0.000720037 -0.000716662 0.000185812)
(0.000833545 -0.000580741 0.000185811)
(0.000921725 -0.000427174 0.00018581)
(0.0009819 -0.000260628 0.00018581)
(0.00101224 -8.6164e-05 0.000185809)
(0.00101183 9.09186e-05 0.00018581)
(0.000980665 0.000265239 0.000185812)
(0.000919709 0.000431499 0.000185813)
(0.000830808 0.00058465 0.000185812)
(0.000716662 0.000720037 0.000185812)
(0.000580741 0.000833545 0.000185811)
(0.000427174 0.000921725 0.00018581)
(0.000132363 0.00111038 0.000303542)
(-6.24624e-05 0.0011165 0.000303542)
(-0.000255391 0.00108869 0.000303542)
(-0.000440559 0.0010278 0.000303543)
(-0.000612342 0.000935684 0.000303544)
(-0.000765519 0.000815136 0.000303544)
(-0.000895436 0.000669821 0.000303543)
(-0.000998145 0.000504154 0.000303543)
(-0.00107053 0.000323168 0.000303542)
(-0.00111038 0.000132363 0.000303542)
(-0.0011165 -6.24625e-05 0.000303542)
(-0.00108869 -0.000255391 0.000303542)
(-0.0010278 -0.000440559 0.000303543)
(-0.000935684 -0.000612342 0.000303544)
(-0.000815136 -0.000765519 0.000303544)
(-0.000669821 -0.000895436 0.000303543)
(-0.000504153 -0.000998145 0.000303543)
(-0.000323168 -0.00107053 0.000303542)
(-0.000132363 -0.00111038 0.000303542)
(6.24625e-05 -0.0011165 0.000303542)
(0.000255391 -0.00108869 0.000303542)
(0.000440559 -0.0010278 0.000303543)
(0.000612342 -0.000935684 0.000303544)
(0.000765519 -0.000815136 0.000303544)
(0.000895436 -0.000669821 0.000303543)
(0.000998145 -0.000504153 0.000303543)
(0.00107053 -0.000323168 0.000303542)
(0.00111038 -0.000132363 0.000303542)
(0.0011165 6.24625e-05 0.000303542)
(0.00108869 0.000255391 0.000303542)
(0.0010278 0.000440559 0.000303543)
(0.000935684 0.000612342 0.000303544)
(0.000815136 0.000765519 0.000303544)
(0.000669821 0.000895436 0.000303543)
(0.000504154 0.000998145 0.000303543)
(0.000323168 0.00107053 0.000303542)
(-4.61003e-05 0.00121812 0.000392791)
(-0.000256924 0.00119161 0.000392791)
(-0.000459941 0.00112889 0.000392791)
(-0.000648984 0.00103188 0.000392791)
(-0.000818307 0.000903504 0.000392791)
(-0.000962768 0.000747679 0.000392791)
(-0.00107797 0.000569137 0.000392791)
(-0.00116043 0.000373302 0.000392791)
(-0.00120762 0.000166125 0.000392791)
(-0.00121812 -4.61004e-05 0.000392791)
(-0.00119161 -0.000256924 0.000392791)
(-0.00112889 -0.000459941 0.000392791)
(-0.00103188 -0.000648984 0.000392791)
(-0.000903504 -0.000818308 0.000392791)
(-0.000747679 -0.000962768 0.000392791)
(-0.000569137 -0.00107797 0.000392791)
(-0.000373302 -0.00116043 0.000392791)
(-0.000166125 -0.00120762 0.000392791)
(4.61004e-05 -0.00121812 0.000392791)
(0.000256924 -0.00119161 0.000392791)
(0.000459941 -0.00112889 0.000392791)
(0.000648984 -0.00103188 0.000392791)
(0.000818308 -0.000903504 0.000392791)
(0.000962768 -0.000747679 0.000392791)
(0.00107797 -0.000569137 0.000392791)
(0.00116043 -0.000373302 0.000392791)
(0.00120762 -0.000166125 0.000392791)
(0.00121812 4.61004e-05 0.000392791)
(0.00119161 0.000256924 0.000392791)
(0.00112889 0.000459941 0.000392791)
(0.00103188 0.000648984 0.000392791)
(0.000903504 0.000818308 0.000392791)
(0.000747679 0.000962768 0.000392791)
(0.000569137 0.00107797 0.000392791)
(0.000373302 0.00116043 0.000392791)
(0.000166125 0.00120762 0.000392791)
(0.000298919 0.00164909 0.000428647)
(8.01577e-06 0.00167595 0.000428647)
(-0.000283131 0.00165188 0.000428648)
(-0.000565675 0.00157762 0.00042865)
(-0.000831031 0.00145542 0.000428651)
(-0.00107114 0.001289 0.000428651)
(-0.0012787 0.00108342 0.000428651)
(-0.0014474 0.000844915 0.00042865)
(-0.00157213 0.000580739 0.000428648)
(-0.00164909 0.000298919 0.000428647)
(-0.00167595 8.01568e-06 0.000428647)
(-0.00165188 -0.000283131 0.000428648)
(-0.00157762 -0.000565675 0.00042865)
(-0.00145542 -0.000831031 0.000428651)
(-0.001289 -0.00107114 0.000428651)
(-0.00108342 -0.0012787 0.000428651)
(-0.000844915 -0.0014474 0.00042865)
(-0.000580739 -0.00157213 0.000428648)
(-0.000298918 -0.00164909 0.000428647)
(-8.01561e-06 -0.00167595 0.000428647)
(0.000283131 -0.00165188 0.000428648)
(0.000565675 -0.00157762 0.00042865)
(0.000831031 -0.00145542 0.000428651)
(0.00107114 -0.001289 0.000428651)
(0.0012787 -0.00108342 0.000428651)
(0.0014474 -0.000844915 0.00042865)
(0.00157213 -0.000580739 0.000428648)
(0.00164909 -0.000298919 0.000428647)
(0.00167595 -8.01568e-06 0.000428647)
(0.00165188 0.000283131 0.000428648)
(0.00157762 0.000565675 0.00042865)
(0.00145542 0.000831031 0.000428651)
(0.001289 0.00107114 0.000428651)
(0.00108342 0.0012787 0.000428651)
(0.000844915 0.0014474 0.00042865)
(0.000580739 0.00157213 0.000428648)
(0.000128933 0.00181365 0.000582292)
(-0.000187963 0.00180849 0.000582293)
(-0.000499148 0.00174838 0.000582293)
(-0.000795166 0.00163514 0.000582293)
(-0.00106702 0.00147222 0.000582294)
(-0.00130646 0.00126456 0.000582294)
(-0.0015062 0.00101849 0.000582294)
(-0.00166018 0.000741464 0.000582294)
(-0.00176371 0.000441912 0.000582293)
(-0.00181365 0.000128933 0.000582292)
(-0.00180849 -0.000187963 0.000582293)
(-0.00174838 -0.000499148 0.000582293)
(-0.00163514 -0.000795166 0.000582293)
(-0.00147222 -0.00106702 0.000582294)
(-0.00126456 -0.00130646 0.000582294)
(-0.00101849 -0.0015062 0.000582294)
(-0.000741464 -0.00166018 0.000582294)
(-0.000441912 -0.00176371 0.000582293)
(-0.000128933 -0.00181365 0.000582292)
(0.000187963 -0.00180849 0.000582293)
(0.000499148 -0.00174838 0.000582293)
(0.000795166 -0.00163514 0.000582293)
(0.00106702 -0.00147222 0.000582294)
(0.00130646 -0.00126456 0.000582294)
(0.0015062 -0.00101849 0.000582294)
(0.00166018 -0.000741464 0.000582294)
(0.00176371 -0.000441912 0.000582293)
(0.00181365 -0.000128933 0.000582292)
(0.00180849 0.000187963 0.000582293)
(0.00174838 0.000499148 0.000582293)
(0.00163514 0.000795166 0.000582293)
(0.00147222 0.00106702 0.000582294)
(0.00126456 0.00130646 0.000582294)
(0.00101849 0.0015062 0.000582294)
(0.000741464 0.00166018 0.000582294)
(0.000441912 0.00176371 0.000582293)
(-8.54078e-05 0.00195398 0.00070883)
(-0.000423415 0.00190947 0.00070883)
(-0.000748557 0.00180693 0.00070883)
(-0.00105096 0.0016495 0.000708831)
(-0.00132142 0.00144194 0.000708831)
(-0.00155174 0.00119057 0.000708831)
(-0.0017349 0.000903027 0.000708831)
(-0.00186535 0.000588045 0.00070883)
(-0.00193913 0.000255196 0.00070883)
(-0.00195398 -8.54079e-05 0.00070883)
(-0.00190947 -0.000423415 0.00070883)
(-0.00180693 -0.000748557 0.00070883)
(-0.0016495 -0.00105096 0.00070883)
(-0.00144194 -0.00132142 0.000708831)
(-0.00119057 -0.00155174 0.000708831)
(-0.000903027 -0.0017349 0.00070883)
(-0.000588045 -0.00186535 0.00070883)
(-0.000255196 -0.00193913 0.00070883)
(8.54079e-05 -0.00195398 0.00070883)
(0.000423416 -0.00190947 0.00070883)
(0.000748558 -0.00180693 0.00070883)
(0.00105096 -0.0016495 0.00070883)
(0.00132142 -0.00144194 0.000708831)
(0.00155174 -0.00119057 0.000708831)
(0.0017349 -0.000903027 0.000708831)
(0.00186535 -0.000588045 0.00070883)
(0.00193913 -0.000255196 0.00070883)
(0.00195398 8.54079e-05 0.00070883)
(0.00190947 0.000423416 0.00070883)
(0.00180693 0.000748558 0.00070883)
(0.0016495 0.00105096 0.000708831)
(0.00144194 0.00132142 0.000708831)
(0.00119057 0.00155174 0.000708831)
(0.000903027 0.0017349 0.000708831)
(0.000588045 0.00186535 0.00070883)
(0.000255196 0.00193913 0.00070883)
(0.000221782 0.00230547 0.000704313)
(-0.000181928 0.00230896 0.000704313)
(-0.00058011 0.00224229 0.000704313)
(-0.000960665 0.00210749 0.000704314)
(-0.00131203 0.00190865 0.000704315)
(-0.00162353 0.00165182 0.000704316)
(-0.0018857 0.0013448 0.000704316)
(-0.00209058 0.000996924 0.000704316)
(-0.00223193 0.000618753 0.000704314)
(-0.00230547 0.000221782 0.000704313)
(-0.00230896 -0.000181928 0.000704312)
(-0.00224229 -0.00058011 0.000704313)
(-0.00210749 -0.000960665 0.000704314)
(-0.00190865 -0.00131203 0.000704315)
(-0.00165182 -0.00162353 0.000704316)
(-0.0013448 -0.0018857 0.000704316)
(-0.000996923 -0.00209058 0.000704315)
(-0.000618753 -0.00223193 0.000704314)
(-0.000221782 -0.00230547 0.000704313)
(0.000181928 -0.00230896 0.000704312)
(0.00058011 -0.00224229 0.000704313)
(0.000960665 -0.00210749 0.000704314)
(0.00131203 -0.00190865 0.000704315)
(0.00162353 -0.00165182 0.000704316)
(0.0018857 -0.0013448 0.000704316)
(0.00209058 -0.000996924 0.000704316)
(0.00223193 -0.000618753 0.000704314)
(0.00230547 -0.000221782 0.000704313)
(0.00230896 0.000181928 0.000704313)
(0.00224229 0.00058011 0.000704313)
(0.00210749 0.000960665 0.000704314)
(0.00190865 0.00131203 0.000704315)
(0.00165182 0.00162353 0.000704316)
(0.0013448 0.0018857 0.000704316)
(0.000996924 0.00209058 0.000704316)
(0.000618753 0.00223193 0.000704314)
(4.3143e-05 0.00246578 0.000871398)
(-0.000385691 0.00243581 0.000871398)
(-0.000802806 0.00233183 0.000871398)
(-0.00119553 0.002157 0.000871398)
(-0.00155192 0.00191663 0.000871399)
(-0.00186117 0.00161802 0.000871399)
(-0.00211386 0.00127025 0.000871399)
(-0.00230232 0.000883889 0.000871399)
(-0.00242083 0.000470666 0.000871399)
(-0.00246578 4.31429e-05 0.000871398)
(-0.00243581 -0.000385691 0.000871397)
(-0.00233183 -0.000802806 0.000871398)
(-0.002157 -0.00119553 0.000871398)
(-0.00191663 -0.00155192 0.000871399)
(-0.00161802 -0.00186117 0.000871399)
(-0.00127025 -0.00211386 0.000871399)
(-0.000883889 -0.00230232 0.000871399)
(-0.000470666 -0.00242083 0.000871399)
(-4.31428e-05 -0.00246578 0.000871398)
(0.000385691 -0.00243581 0.000871397)
(0.000802806 -0.00233183 0.000871398)
(0.00119553 -0.002157 0.000871398)
(0.00155192 -0.00191663 0.000871399)
(0.00186117 -0.00161802 0.000871399)
(0.00211386 -0.00127025 0.000871399)
(0.00230232 -0.000883889 0.000871399)
(0.00242083 -0.000470666 0.000871399)
(0.00246578 -4.31429e-05 0.000871398)
(0.00243581 0.000385691 0.000871398)
(0.00233183 0.000802806 0.000871398)
(0.002157 0.00119553 0.000871398)
(0.00191663 0.00155192 0.000871399)
(0.00161802 0.00186117 0.000871399)
(0.00127025 0.00211386 0.000871399)
(0.000883889 0.00230232 0.000871399)
(0.000470666 0.00242083 0.000871399)
(-0.0001745 0.0026015 0.00101281)
(-0.000623595 0.00253168 0.00101281)
(-0.00105374 0.00238493 0.00101281)
(-0.00145187 0.00216572 0.00101281)
(-0.00180589 0.0018807 0.00101281)
(-0.00210503 0.00153854 0.00101281)
(-0.00234022 0.00114963 0.00101281)
(-0.0025043 0.000725791 0.00101281)
(-0.00259228 0.000279897 0.00101281)
(-0.0026015 -0.0001745 0.00101281)
(-0.00253168 -0.000623596 0.00101281)
(-0.00238493 -0.00105374 0.00101281)
(-0.00216572 -0.00145187 0.00101281)
(-0.0018807 -0.00180589 0.00101281)
(-0.00153854 -0.00210503 0.00101281)
(-0.00114963 -0.00234022 0.00101281)
(-0.000725791 -0.0025043 0.00101281)
(-0.000279897 -0.00259228 0.00101281)
(0.0001745 -0.0026015 0.00101281)
(0.000623596 -0.00253168 0.00101281)
(0.00105374 -0.00238493 0.00101281)
(0.00145187 -0.00216572 0.00101281)
(0.00180589 -0.0018807 0.00101281)
(0.00210503 -0.00153854 0.00101281)
(0.00234022 -0.00114963 0.00101281)
(0.0025043 -0.000725791 0.00101281)
(0.00259228 -0.000279897 0.00101281)
(0.0026015 0.0001745 0.00101281)
(0.00253168 0.000623596 0.00101281)
(0.00238493 0.00105374 0.00101281)
(0.00216572 0.00145187 0.00101281)
(0.0018807 0.00180589 0.00101281)
(0.00153854 0.00210503 0.00101281)
(0.00114963 0.00234022 0.00101281)
(0.000725791 0.0025043 0.00101281)
(0.000279898 0.00259228 0.00101281)
(5.0897e-05 0.0029129 0.000976779)
(-0.000455695 0.00287748 0.000976777)
(-0.000948441 0.00275463 0.000976778)
(-0.00141237 0.00254809 0.000976779)
(-0.00183338 0.00226412 0.000976779)
(-0.00219869 0.00191136 0.00097678)
(-0.00249719 0.00150053 0.00097678)
(-0.00271982 0.0010441 0.00097678)
(-0.0028598 0.000555943 0.000976779)
(-0.00291289 5.08969e-05 0.000976779)
(-0.00287748 -0.000455695 0.000976777)
(-0.00275463 -0.000948442 0.000976777)
(-0.00254809 -0.00141237 0.000976778)
(-0.00226412 -0.00183338 0.000976779)
(-0.00191136 -0.00219869 0.00097678)
(-0.00150053 -0.00249719 0.00097678)
(-0.0010441 -0.00271982 0.00097678)
(-0.000555942 -0.0028598 0.000976779)
(-5.08967e-05 -0.0029129 0.000976779)
(0.000455695 -0.00287748 0.000976777)
(0.000948442 -0.00275463 0.000976777)
(0.00141237 -0.00254809 0.000976779)
(0.00183338 -0.00226412 0.000976779)
(0.00219869 -0.00191136 0.00097678)
(0.00249719 -0.00150053 0.00097678)
(0.00271982 -0.0010441 0.00097678)
(0.0028598 -0.000555943 0.00097678)
(0.0029129 -5.08968e-05 0.000976779)
(0.00287748 0.000455695 0.000976777)
(0.00275463 0.000948442 0.000976778)
(0.00254809 0.00141237 0.000976779)
(0.00226412 0.00183338 0.000976779)
(0.00191136 0.00219869 0.00097678)
(0.00150053 0.00249719 0.00097678)
(0.0010441 0.00271982 0.00097678)
(0.000555943 0.0028598 0.00097678)
(-0.000116832 0.00304479 0.0011445)
(-0.00064378 0.00297825 0.0011445)
(-0.00115117 0.00282121 0.0011445)
(-0.00162358 0.00257845 0.0011445)
(-0.00204665 0.00225735 0.0011445)
(-0.00240754 0.00186766 0.0011445)
(-0.00269528 0.00142122 0.0011445)
(-0.00290113 0.000931596 0.0011445)
(-0.00301882 0.000413667 0.0011445)
(-0.00304479 -0.000116832 0.0011445)
(-0.00297825 -0.00064378 0.0011445)
(-0.00282121 -0.00115117 0.0011445)
(-0.00257845 -0.00162358 0.0011445)
(-0.00225735 -0.00204665 0.0011445)
(-0.00186766 -0.00240754 0.0011445)
(-0.00142122 -0.00269528 0.0011445)
(-0.000931596 -0.00290113 0.0011445)
(-0.000413666 -0.00301882 0.0011445)
(0.000116832 -0.00304479 0.0011445)
(0.00064378 -0.00297825 0.0011445)
(0.00115117 -0.00282121 0.0011445)
(0.00162358 -0.00257845 0.0011445)
(0.00204665 -0.00225735 0.0011445)
(0.00240754 -0.00186766 0.0011445)
(0.00269528 -0.00142122 0.0011445)
(0.00290113 -0.000931596 0.0011445)
(0.00301882 -0.000413667 0.0011445)
(0.00304479 0.000116832 0.0011445)
(0.00297825 0.00064378 0.0011445)
(0.00282121 0.00115117 0.0011445)
(0.00257845 0.00162358 0.0011445)
(0.00225735 0.00204665 0.0011445)
(0.00186766 0.00240754 0.0011445)
(0.00142122 0.00269528 0.0011445)
(0.000931596 0.00290113 0.0011445)
(0.000413667 0.00301882 0.0011445)
(-0.000318741 0.00315326 0.00128784)
(-0.000861457 0.00305001 0.00128784)
(-0.001378 0.00285408 0.00128784)
(-0.00185267 0.00257143 0.00128784)
(-0.00227105 0.00221066 0.00128784)
(-0.00262042 0.00178271 0.00128784)
(-0.00289017 0.00130059 0.00128784)
(-0.00307211 0.000778961 0.00128784)
(-0.0031607 0.00023366 0.00128784)
(-0.00315326 -0.000318741 0.00128784)
(-0.00305001 -0.000861457 0.00128784)
(-0.00285408 -0.001378 0.00128784)
(-0.00257143 -0.00185267 0.00128784)
(-0.00221066 -0.00227105 0.00128784)
(-0.00178271 -0.00262042 0.00128784)
(-0.00130059 -0.00289017 0.00128784)
(-0.00077896 -0.00307211 0.00128784)
(-0.00023366 -0.0031607 0.00128784)
(0.000318741 -0.00315326 0.00128784)
(0.000861457 -0.00305001 0.00128784)
(0.001378 -0.00285408 0.00128784)
(0.00185267 -0.00257143 0.00128784)
(0.00227105 -0.00221066 0.00128784)
(0.00262042 -0.00178271 0.00128784)
(0.00289017 -0.00130059 0.00128784)
(0.00307211 -0.000778961 0.00128784)
(0.0031607 -0.00023366 0.00128784)
(0.00315326 0.000318741 0.00128784)
(0.00305001 0.000861457 0.00128784)
(0.00285408 0.001378 0.00128784)
(0.00257143 0.00185267 0.00128784)
(0.00221066 0.00227105 0.00128784)
(0.00178271 0.00262042 0.00128784)
(0.00130059 0.00289017 0.00128784)
(0.000778961 0.00307211 0.00128784)
(0.00023366 0.0031607 0.00128784)
(-0.000180689 0.00343638 0.00123105)
(-0.000774665 0.0033528 0.00123105)
(-0.0013451 0.00316735 0.00123105)
(-0.00187467 0.00288565 0.00123105)
(-0.00234728 0.00251628 0.00123105)
(-0.00274856 0.00207045 0.00123105)
(-0.00306634 0.00156171 0.00123105)
(-0.00329094 0.00100552 0.00123105)
(-0.00341555 0.000418778 0.00123105)
(-0.00343638 -0.000180689 0.00123105)
(-0.0033528 -0.000774665 0.00123105)
(-0.00316735 -0.0013451 0.00123105)
(-0.00288565 -0.00187467 0.00123105)
(-0.00251628 -0.00234728 0.00123105)
(-0.00207045 -0.00274856 0.00123105)
(-0.00156171 -0.00306634 0.00123105)
(-0.00100552 -0.00329094 0.00123105)
(-0.000418778 -0.00341555 0.00123105)
(0.000180689 -0.00343638 0.00123105)
(0.000774665 -0.0033528 0.00123105)
(0.0013451 -0.00316735 0.00123105)
(0.00187467 -0.00288565 0.00123105)
(0.00234728 -0.00251628 0.00123105)
(0.00274856 -0.00207045 0.00123105)
(0.00306634 -0.00156171 0.00123105)
(0.00329094 -0.00100552 0.00123105)
(0.00341555 -0.000418778 0.00123105)
(0.00343638 0.000180689 0.00123105)
(0.0033528 0.000774665 0.00123105)
(0.00316735 0.0013451 0.00123105)
(0.00288565 0.00187467 0.00123105)
(0.00251628 0.00234728 0.00123105)
(0.00207045 0.00274856 0.00123105)
(0.00156171 0.00306634 0.00123105)
(0.00100552 0.00329094 0.00123105)
(0.000418778 0.00341555 0.00123105)
(-0.000331765 0.00352824 0.0013922)
(-0.000939397 0.00341702 0.0013922)
(-0.00151848 0.00320199 0.00139219)
(-0.00205143 0.00288966 0.0013922)
(-0.00252205 0.00248953 0.0013922)
(-0.00291604 0.00201376 0.0013922)
(-0.00322142 0.0014768 0.0013922)
(-0.00342893 0.000894972 0.0013922)
(-0.00353224 0.000285947 0.0013922)
(-0.00352824 -0.000331765 0.0013922)
(-0.00341702 -0.000939397 0.0013922)
(-0.00320199 -0.00151848 0.00139219)
(-0.00288966 -0.00205143 0.0013922)
(-0.00248953 -0.00252205 0.0013922)
(-0.00201376 -0.00291604 0.0013922)
(-0.0014768 -0.00322142 0.0013922)
(-0.000894971 -0.00342893 0.0013922)
(-0.000285947 -0.00353224 0.0013922)
(0.000331765 -0.00352824 0.0013922)
(0.000939397 -0.00341702 0.0013922)
(0.00151849 -0.00320199 0.00139219)
(0.00205143 -0.00288966 0.0013922)
(0.00252205 -0.00248953 0.0013922)
(0.00291604 -0.00201376 0.0013922)
(0.00322142 -0.0014768 0.0013922)
(0.00342893 -0.000894972 0.0013922)
(0.00353224 -0.000285947 0.0013922)
(0.00352824 0.000331765 0.0013922)
(0.00341702 0.000939397 0.0013922)
(0.00320199 0.00151848 0.00139219)
(0.00288966 0.00205143 0.0013922)
(0.00248953 0.00252205 0.0013922)
(0.00201376 0.00291604 0.0013922)
(0.0014768 0.00322142 0.0013922)
(0.000894972 0.00342893 0.0013922)
(0.000285947 0.00353224 0.0013922)
(-0.000511343 0.00359923 0.00152944)
(-0.00112857 0.00345575 0.00152944)
(-0.00171151 0.00320728 0.00152944)
(-0.00224245 0.00286135 0.00152944)
(-0.00270525 0.00242848 0.00152944)
(-0.00308585 0.00192183 0.00152944)
(-0.00337269 0.00135678 0.00152944)
(-0.00355706 0.000750503 0.00152944)
(-0.00363334 0.000121425 0.00152944)
(-0.00359923 -0.000511343 0.00152944)
(-0.00345575 -0.00112857 0.00152944)
(-0.00320728 -0.00171151 0.00152944)
(-0.00286135 -0.00224245 0.00152944)
(-0.00242848 -0.00270525 0.00152944)
(-0.00192183 -0.00308585 0.00152944)
(-0.00135678 -0.00337269 0.00152944)
(-0.000750503 -0.00355706 0.00152944)
(-0.000121424 -0.00363334 0.00152944)
(0.000511344 -0.00359923 0.00152944)
(0.00112858 -0.00345575 0.00152944)
(0.00171151 -0.00320728 0.00152944)
(0.00224245 -0.00286135 0.00152944)
(0.00270525 -0.00242848 0.00152944)
(0.00308585 -0.00192183 0.00152944)
(0.00337269 -0.00135678 0.00152944)
(0.00355706 -0.000750503 0.00152944)
(0.00363334 -0.000121425 0.00152944)
(0.00359923 0.000511343 0.00152944)
(0.00345575 0.00112857 0.00152944)
(0.00320728 0.00171151 0.00152944)
(0.00286135 0.00224245 0.00152944)
(0.00242848 0.00270525 0.00152944)
(0.00192183 0.00308585 0.00152944)
(0.00135678 0.00337269 0.00152944)
(0.000750504 0.00355706 0.00152944)
(0.000121425 0.00363334 0.00152944)
(-0.000436168 0.00384987 0.00147227)
(-0.00109806 0.00371564 0.00147227)
(-0.0017266 0.00346852 0.00147227)
(-0.00230267 0.003116 0.00147227)
(-0.00280877 0.00266881 0.00147227)
(-0.00322953 0.00214052 0.00147227)
(-0.00355217 0.0015472 0.00147227)
(-0.00376687 0.000906868 0.00147227)
(-0.00386712 0.00023898 0.00147227)
(-0.00384987 -0.000436168 0.00147227)
(-0.00371564 -0.00109806 0.00147227)
(-0.00346852 -0.0017266 0.00147227)
(-0.003116 -0.00230267 0.00147227)
(-0.00266881 -0.00280877 0.00147227)
(-0.00214052 -0.00322953 0.00147227)
(-0.0015472 -0.00355217 0.00147227)
(-0.000906868 -0.00376687 0.00147227)
(-0.00023898 -0.00386712 0.00147227)
(0.000436168 -0.00384987 0.00147227)
(0.00109806 -0.00371564 0.00147227)
(0.0017266 -0.00346852 0.00147227)
(0.00230267 -0.003116 0.00147227)
(0.00280877 -0.00266881 0.00147227)
(0.00322953 -0.00214052 0.00147227)
(0.00355217 -0.0015472 0.00147227)
(0.00376687 -0.000906868 0.00147227)
(0.00386712 -0.00023898 0.00147227)
(0.00384987 0.000436168 0.00147227)
(0.00371564 0.00109806 0.00147227)
(0.00346852 0.0017266 0.00147227)
(0.003116 0.00230267 0.00147227)
(0.00266881 0.00280877 0.00147227)
(0.00214052 0.00322953 0.00147227)
(0.0015472 0.00355217 0.00147227)
(0.000906868 0.00376687 0.00147227)
(0.00023898 0.00386712 0.00147227)
(-0.000574317 0.00389477 0.00162045)
(-0.00124191 0.00373587 0.00162045)
(-0.00187177 0.00346346 0.00162045)
(-0.00244476 0.00308581 0.00162045)
(-0.00294346 0.00261441 0.00162045)
(-0.00335273 0.00206356 0.00162045)
(-0.00366013 0.00145001 0.00162045)
(-0.00385632 0.00079241 0.00162045)
(-0.00393533 0.000110727 0.00162045)
(-0.00389477 -0.000574317 0.00162045)
(-0.00373587 -0.00124191 0.00162045)
(-0.00346346 -0.00187177 0.00162045)
(-0.00308581 -0.00244476 0.00162045)
(-0.00261441 -0.00294346 0.00162045)
(-0.00206356 -0.00335273 0.00162045)
(-0.00145001 -0.00366013 0.00162045)
(-0.00079241 -0.00385632 0.00162045)
(-0.000110727 -0.00393533 0.00162045)
(0.000574317 -0.00389477 0.00162045)
(0.00124191 -0.00373587 0.00162045)
(0.00187177 -0.00346346 0.00162045)
(0.00244476 -0.00308581 0.00162045)
(0.00294346 -0.00261441 0.00162045)
(0.00335273 -0.00206356 0.00162045)
(0.00366013 -0.00145001 0.00162045)
(0.00385632 -0.00079241 0.00162045)
(0.00393533 -0.000110727 0.00162045)
(0.00389477 0.000574317 0.00162045)
(0.00373587 0.00124191 0.00162045)
(0.00346346 0.00187177 0.00162045)
(0.00308581 0.00244476 0.00162045)
(0.00261441 0.00294346 0.00162045)
(0.00206356 0.00335273 0.00162045)
(0.00145001 0.00366013 0.00162045)
(0.00079241 0.00385632 0.00162045)
(0.000110728 0.00393533 0.00162045)
(-0.000733327 0.00392425 0.00174402)
(-0.00140362 0.00373729 0.00174402)
(-0.00203127 0.00343678 0.00174402)
(-0.00259721 0.00303184 0.00174402)
(-0.00308422 0.00253478 0.00174402)
(-0.00347752 0.0019607 0.00174402)
(-0.00376517 0.00132705 0.00174402)
(-0.0039384 0.000653073 0.00174402)
(-0.00399198 -4.07452e-05 0.00174402)
(-0.00392425 -0.000733327 0.00174402)
(-0.00373729 -0.00140363 0.00174402)
(-0.00343678 -0.00203128 0.00174402)
(-0.00303184 -0.00259721 0.00174402)
(-0.00253478 -0.00308422 0.00174402)
(-0.0019607 -0.00347752 0.00174402)
(-0.00132705 -0.00376517 0.00174402)
(-0.000653073 -0.0039384 0.00174402)
(4.07454e-05 -0.00399198 0.00174402)
(0.000733327 -0.00392425 0.00174402)
(0.00140363 -0.00373729 0.00174402)
(0.00203128 -0.00343678 0.00174402)
(0.00259721 -0.00303184 0.00174402)
(0.00308422 -0.00253478 0.00174402)
(0.00347752 -0.0019607 0.00174402)
(0.00376517 -0.00132705 0.00174402)
(0.0039384 -0.000653073 0.00174402)
(0.00399198 4.07453e-05 0.00174402)
(0.00392425 0.000733327 0.00174402)
(0.00373729 0.00140363 0.00174402)
(0.00343678 0.00203128 0.00174402)
(0.00303184 0.00259721 0.00174402)
(0.00253478 0.00308422 0.00174402)
(0.0019607 0.00347752 0.00174402)
(0.00132705 0.00376517 0.00174402)
(0.000653073 0.0039384 0.00174402)
(-4.0745e-05 0.00399198 0.00174402)
(-0.000675951 0.00413332 0.00171974)
(-0.00138343 0.00395315 0.00171974)
(-0.00204887 0.00365286 0.00171974)
(-0.00265205 0.00324159 0.00171973)
(-0.00317466 0.00273181 0.00171973)
(-0.0036008 0.00213904 0.00171973)
(-0.00391754 0.00148127 0.00171974)
(-0.00411524 0.000778491 0.00171974)
(-0.0041879 5.20594e-05 0.00171974)
(-0.00413332 -0.000675952 0.00171974)
(-0.00395315 -0.00138343 0.00171974)
(-0.00365286 -0.00204887 0.00171974)
(-0.00324158 -0.00265205 0.00171973)
(-0.00273181 -0.00317466 0.00171973)
(-0.00213904 -0.0036008 0.00171973)
(-0.00148127 -0.00391754 0.00171974)
(-0.00077849 -0.00411524 0.00171974)
(-5.20591e-05 -0.0041879 0.00171974)
(0.000675952 -0.00413332 0.00171974)
(0.00138343 -0.00395315 0.00171974)
(0.00204887 -0.00365286 0.00171974)
(0.00265205 -0.00324158 0.00171973)
(0.00317466 -0.00273181 0.00171973)
(0.0036008 -0.00213904 0.00171973)
(0.00391754 -0.00148127 0.00171974)
(0.00411524 -0.000778491 0.00171974)
(0.0041879 -5.20593e-05 0.00171974)
(0.00413332 0.000675952 0.00171974)
(0.00395315 0.00138343 0.00171974)
(0.00365286 0.00204887 0.00171974)
(0.00324159 0.00265205 0.00171973)
(0.00273181 0.00317466 0.00171973)