/*--------------------------------*- C++ -*----------------------------------*\
| =========                 |                                                 |
| \\      /  F ield         | OpenFOAM: The Open Source CFD Toolbox           |
|  \\    /   O peration     | Version:  2312                                  |
|   \\  /    A nd           | Website:  www.openfoam.com                      |
|    \\/     M anipulation  |                                                 |
\*---------------------------------------------------------------------------*/
FoamFile
{
    version     2.0;
    format      ascii;
    arch        "LSB;label=32;scalar=64";
    class       volTensorField;
    location    "1";
    object      F;
}
// * * * * * * * * * * * * * * * * * * * * * * * * * * * * * * * * * * * * * //

dimensions      [0 0 0 0 0 0 0];

internalField   nonuniform List<tensor> 
1620
(
(1.07437 -0.0291747 -0.0584894 -0.0510229 1.01048 -0.341531 -0.0456196 -0.00399136 0.922676)
(1.08616 -0.0158303 0.00170515 -0.0376787 0.998695 -0.346499 -0.0442338 -0.0118525 0.922677)
(1.09268 0.000741113 0.0618482 -0.0211075 0.992182 -0.340939 -0.0415037 -0.0193532 0.922676)
(1.09313 0.0185408 0.120112 -0.0033077 0.99173 -0.325019 -0.0375123 -0.0262662 0.922676)
(1.08747 0.0354218 0.174726 0.0135734 0.997393 -0.299224 -0.0323812 -0.0323813 0.922675)
(1.07637 0.0493476 0.224031 0.0274998 1.00849 -0.264337 -0.0262665 -0.0375123 0.922675)
(1.06118 0.0586391 0.26653 0.0367914 1.02368 -0.221419 -0.0193533 -0.0415031 0.922676)
(1.04373 0.0621756 0.300929 0.0403279 1.04113 -0.171773 -0.0118521 -0.0442331 0.922676)
(1.02612 0.0595305 0.326186 0.0376826 1.05873 -0.116907 -0.003991 -0.0456195 0.922676)
(1.01048 0.0510229 0.341531 0.0291747 1.07437 -0.0584894 0.00399136 -0.0456196 0.922676)
(0.998695 0.0376787 0.346499 0.0158303 1.08616 0.00170517 0.0118525 -0.0442338 0.922677)
(0.992182 0.0211075 0.340939 -0.00074111 1.09268 0.0618482 0.0193532 -0.0415037 0.922676)
(0.99173 0.00330771 0.325019 -0.0185408 1.09313 0.120112 0.0262662 -0.0375123 0.922676)
(0.997393 -0.0135734 0.299224 -0.0354217 1.08747 0.174726 0.0323813 -0.0323812 0.922675)
(1.00849 -0.0274998 0.264337 -0.0493476 1.07637 0.224031 0.0375123 -0.0262665 0.922675)
(1.02368 -0.0367914 0.221419 -0.0586391 1.06118 0.26653 0.041503 -0.0193533 0.922676)
(1.04113 -0.0403279 0.171773 -0.0621756 1.04373 0.300929 0.0442331 -0.0118521 0.922676)
(1.05873 -0.0376826 0.116907 -0.0595305 1.02612 0.326186 0.0456195 -0.003991 0.922676)
(1.07437 -0.0291747 0.0584894 -0.0510229 1.01048 0.341531 0.0456196 0.00399136 0.922676)
(1.08616 -0.0158303 -0.00170518 -0.0376787 0.998695 0.346499 0.0442338 0.0118525 0.922677)
(1.09268 0.000741111 -0.0618482 -0.0211075 0.992182 0.340939 0.0415037 0.0193532 0.922676)
(1.09313 0.0185408 -0.120112 -0.0033077 0.99173 0.325019 0.0375123 0.0262662 0.922676)
(1.08747 0.0354217 -0.174726 0.0135734 0.997393 0.299224 0.0323812 0.0323813 0.922675)
(1.07637 0.0493476 -0.224031 0.0274998 1.00849 0.264337 0.0262665 0.0375123 0.922675)
(1.06118 0.0586391 -0.26653 0.0367914 1.02368 0.221419 0.0193533 0.041503 0.922676)
(1.04373 0.0621756 -0.300929 0.0403279 1.04113 0.171773 0.0118521 0.0442331 0.922676)
(1.02612 0.0595305 -0.326186 0.0376826 1.05873 0.116907 0.003991 0.0456195 0.922676)
(1.01048 0.0510228 -0.341531 0.0291746 1.07437 0.0584894 -0.00399136 0.0456196 0.922676)
(0.998695 0.0376787 -0.346499 0.0158303 1.08616 -0.00170517 -0.0118525 0.0442338 0.922677)
(0.992182 0.0211075 -0.340939 -0.000741113 1.09268 -0.0618482 -0.0193532 0.0415037 0.922676)
(0.99173 0.0033077 -0.325019 -0.0185408 1.09313 -0.120112 -0.0262662 0.0375123 0.922676)
(0.997393 -0.0135734 -0.299224 -0.0354218 1.08747 -0.174726 -0.0323813 0.0323812 0.922675)
(1.00849 -0.0274998 -0.264338 -0.0493476 1.07637 -0.224031 -0.0375123 0.0262665 0.922675)
(1.02368 -0.0367914 -0.221419 -0.0586391 1.06118 -0.26653 -0.0415031 0.0193533 0.922676)
(1.04113 -0.0403279 -0.171773 -0.0621756 1.04373 -0.300929 -0.0442331 0.0118521 0.922676)
(1.05873 -0.0376826 -0.116907 -0.0595305 1.02612 -0.326186 -0.0456195 0.003991 0.922676)
(1.0963 -0.037746 -0.0276463 -0.0424602 1.00434 -0.382511 -0.0362073 -0.00316775 0.885496)
(1.10724 -0.0196006 0.0391959 -0.0243153 0.993395 -0.3815 -0.0351074 -0.00940694 0.885497)
(1.11132 0.00119309 0.104847 -0.00352155 0.989318 -0.368898 -0.0329404 -0.0153602 0.885497)
(1.10804 0.022127 0.167313 0.0174126 0.992599 -0.345088 -0.0297725 -0.0208468 0.885496)
(1.0978 0.0406767 0.224695 0.0359622 1.00284 -0.310791 -0.0257001 -0.0257002 0.885496)
(1.08183 0.0546044 0.275249 0.0498901 1.01881 -0.267052 -0.020847 -0.0297726 0.885496)
(1.06206 0.0622301 0.317441 0.057516 1.03858 -0.215198 -0.0153601 -0.0329401 0.885496)
(1.04087 0.0626342 0.349987 0.0579202 1.05977 -0.156805 -0.00940666 -0.0351068 0.885496)
(1.02083 0.0557683 0.371899 0.0510541 1.07981 -0.0936485 -0.00316765 -0.0362072 0.885496)
(1.00434 0.0424602 0.382511 0.037746 1.0963 -0.0276462 0.00316775 -0.0362073 0.885496)
(0.993395 0.0243153 0.3815 0.0196006 1.10724 0.0391959 0.00940694 -0.0351074 0.885497)
(0.989318 0.00352156 0.368898 -0.00119308 1.11132 0.104847 0.0153602 -0.0329404 0.885497)
(0.992599 -0.0174126 0.345088 -0.022127 1.10804 0.167313 0.0208468 -0.0297725 0.885496)
(1.00284 -0.0359622 0.310791 -0.0406767 1.0978 0.224695 0.0257002 -0.0257001 0.885496)
(1.01881 -0.0498901 0.267051 -0.0546044 1.08183 0.275249 0.0297726 -0.020847 0.885496)
(1.03858 -0.057516 0.215198 -0.0622301 1.06206 0.317441 0.0329401 -0.0153601 0.885496)
(1.05977 -0.0579202 0.156805 -0.0626342 1.04087 0.349987 0.0351068 -0.00940666 0.885496)
(1.07981 -0.0510541 0.0936485 -0.0557683 1.02083 0.371899 0.0362072 -0.00316765 0.885496)
(1.0963 -0.037746 0.0276462 -0.0424602 1.00434 0.382511 0.0362073 0.00316775 0.885496)
(1.10724 -0.0196006 -0.0391959 -0.0243153 0.993395 0.3815 0.0351074 0.00940694 0.885497)
(1.11132 0.00119308 -0.104847 -0.00352155 0.989318 0.368898 0.0329404 0.0153602 0.885497)
(1.10804 0.022127 -0.167313 0.0174126 0.992599 0.345088 0.0297725 0.0208468 0.885496)
(1.0978 0.0406767 -0.224695 0.0359622 1.00284 0.310791 0.0257001 0.0257002 0.885496)
(1.08183 0.0546044 -0.275249 0.0498901 1.01881 0.267051 0.020847 0.0297726 0.885496)
(1.06206 0.0622301 -0.317441 0.057516 1.03858 0.215198 0.0153601 0.0329401 0.885496)
(1.04087 0.0626342 -0.349987 0.0579202 1.05977 0.156805 0.00940666 0.0351068 0.885496)
(1.02083 0.0557683 -0.371899 0.0510541 1.07981 0.0936485 0.00316765 0.0362072 0.885496)
(1.00434 0.0424602 -0.382511 0.037746 1.0963 0.0276462 -0.00316775 0.0362073 0.885496)
(0.993395 0.0243153 -0.3815 0.0196006 1.10724 -0.0391959 -0.00940694 0.0351074 0.885497)
(0.989318 0.00352154 -0.368898 -0.00119309 1.11132 -0.104847 -0.0153602 0.0329404 0.885497)
(0.992599 -0.0174126 -0.345088 -0.022127 1.10804 -0.167313 -0.0208468 0.0297725 0.885496)
(1.00284 -0.0359622 -0.310791 -0.0406767 1.0978 -0.224695 -0.0257002 0.0257001 0.885496)
(1.01881 -0.0498901 -0.267052 -0.0546044 1.08183 -0.275249 -0.0297726 0.020847 0.885496)
(1.03858 -0.057516 -0.215198 -0.0622301 1.06206 -0.317441 -0.0329401 0.0153601 0.885496)
(1.05977 -0.0579202 -0.156805 -0.0626342 1.04087 -0.349987 -0.0351068 0.00940666 0.885496)
(1.07981 -0.0510541 -0.0936485 -0.0557683 1.02083 -0.371899 -0.0362072 0.00316765 0.885496)
(1.11897 -0.0466668 0.00736258 -0.0316781 0.990516 -0.422468 -0.0257096 -0.00224922 0.852516)
(1.12849 -0.022338 0.0806114 -0.00734949 0.980991 -0.414772 -0.0249286 -0.00667961 0.852516)
(1.12912 0.00378141 0.151411 0.0187699 0.980362 -0.394473 -0.0233896 -0.0109068 0.852516)
(1.12078 0.0285406 0.21761 0.0435289 0.988704 -0.362187 -0.0211402 -0.0148025 0.852516)
(1.10447 0.0489534 0.277197 0.0639421 1.00501 -0.318897 -0.0182487 -0.0182486 0.852516)
(1.08217 0.0625578 0.328362 0.0775469 1.02732 -0.265917 -0.0148027 -0.0211404 0.852516)
(1.05655 0.067713 0.369549 0.0827018 1.05293 -0.204858 -0.0109065 -0.0233896 0.852516)
(1.03072 0.0637968 0.399508 0.0787855 1.07876 -0.137574 -0.00667936 -0.0249281 0.852516)
(1.00779 0.0512821 0.417329 0.0662707 1.1017 -0.0661102 -0.00224937 -0.0257096 0.852516)
(0.990516 0.0316781 0.422468 0.0466668 1.11897 0.00736259 0.00224923 -0.0257096 0.852516)
(0.980991 0.00734949 0.414772 0.022338 1.12849 0.0806114 0.00667961 -0.0249286 0.852516)
(0.980362 -0.0187699 0.394473 -0.00378141 1.12912 0.151411 0.0109068 -0.0233896 0.852516)
(0.988704 -0.0435289 0.362187 -0.0285405 1.12078 0.21761 0.0148025 -0.0211402 0.852516)
(1.00501 -0.0639421 0.318897 -0.0489534 1.10447 0.277197 0.0182486 -0.0182487 0.852516)
(1.02732 -0.0775469 0.265917 -0.0625578 1.08217 0.328362 0.0211404 -0.0148027 0.852516)
(1.05293 -0.0827018 0.204858 -0.067713 1.05655 0.369549 0.0233896 -0.0109065 0.852516)
(1.07876 -0.0787855 0.137574 -0.0637968 1.03072 0.399508 0.0249281 -0.00667936 0.852516)
(1.1017 -0.0662707 0.0661102 -0.0512821 1.00779 0.417329 0.0257096 -0.00224937 0.852516)
(1.11897 -0.0466668 -0.0073626 -0.0316781 0.990516 0.422468 0.0257096 0.00224922 0.852516)
(1.12849 -0.022338 -0.0806114 -0.00734949 0.980991 0.414772 0.0249286 0.00667961 0.852516)
(1.12912 0.00378141 -0.151411 0.0187699 0.980362 0.394473 0.0233896 0.0109068 0.852516)
(1.12078 0.0285405 -0.21761 0.0435289 0.988704 0.362187 0.0211402 0.0148025 0.852516)
(1.10447 0.0489534 -0.277197 0.0639421 1.00501 0.318897 0.0182487 0.0182486 0.852516)
(1.08217 0.0625578 -0.328362 0.0775469 1.02732 0.265917 0.0148027 0.0211404 0.852516)
(1.05655 0.067713 -0.369549 0.0827018 1.05293 0.204858 0.0109065 0.0233896 0.852516)
(1.03072 0.0637968 -0.399508 0.0787855 1.07876 0.137574 0.00667936 0.024928 0.852516)
(1.00779 0.0512821 -0.417329 0.0662707 1.1017 0.0661102 0.00224937 0.0257096 0.852516)
(0.990516 0.0316781 -0.422468 0.0466668 1.11897 -0.0073626 -0.00224922 0.0257096 0.852516)
(0.980991 0.00734948 -0.414772 0.022338 1.12849 -0.0806114 -0.0066796 0.0249286 0.852516)
(0.980362 -0.0187699 -0.394473 -0.00378141 1.12912 -0.151411 -0.0109068 0.0233896 0.852516)
(0.988704 -0.0435289 -0.362187 -0.0285406 1.12078 -0.21761 -0.0148025 0.0211402 0.852516)
(1.00501 -0.0639421 -0.318897 -0.0489534 1.10447 -0.277197 -0.0182486 0.0182487 0.852516)
(1.02732 -0.0775469 -0.265917 -0.0625578 1.08217 -0.328362 -0.0211404 0.0148027 0.852516)
(1.05293 -0.0827018 -0.204858 -0.067713 1.05655 -0.369549 -0.0233896 0.0109065 0.852516)
(1.07876 -0.0787855 -0.137574 -0.0637968 1.03072 -0.399508 -0.024928 0.00667936 0.852516)
(1.1017 -0.0662707 -0.0661102 -0.0512821 1.00779 -0.417329 -0.0257096 0.00224937 0.852516)
(1.13719 -0.0929888 -0.0349272 -0.131129 1.01648 -0.348341 -0.118812 -0.010395 0.893962)
(1.17188 -0.0655878 0.0260923 -0.103729 0.981791 -0.349114 -0.115202 -0.0308684 0.893961)
(1.1951 -0.0279761 0.0863189 -0.066117 0.958568 -0.339279 -0.108092 -0.0504033 0.893961)
(1.20406 0.0153103 0.143923 -0.0228304 0.949609 -0.319136 -0.0976966 -0.0684067 0.893961)
(1.19767 0.0590503 0.197154 0.0209098 0.955996 -0.289295 -0.0843327 -0.0843326 0.893961)
(1.17671 0.0979679 0.244394 0.059828 0.976958 -0.250665 -0.0684074 -0.0976964 0.893961)
(1.1437 0.127369 0.284209 0.0892295 1.00997 -0.204418 -0.0504033 -0.108091 0.893961)
(1.10263 0.143708 0.315388 0.105569 1.05104 -0.15196 -0.0308675 -0.115201 0.893961)
(1.05844 0.145014 0.336984 0.106874 1.09522 -0.0948854 -0.0103943 -0.118811 0.893962)
(1.01648 0.131129 0.348341 0.0929888 1.13719 -0.0349272 0.010395 -0.118812 0.893962)
(0.981791 0.103729 0.349114 0.0655878 1.17188 0.0260923 0.0308684 -0.115202 0.893961)
(0.958568 0.0661171 0.339279 0.0279761 1.1951 0.0863189 0.0504033 -0.108092 0.893961)
(0.949609 0.0228305 0.319136 -0.0153102 1.20406 0.143923 0.0684067 -0.0976966 0.893961)
(0.955996 -0.0209098 0.289295 -0.0590503 1.19767 0.197154 0.0843326 -0.0843327 0.893961)
(0.976958 -0.059828 0.250665 -0.0979679 1.17671 0.244394 0.0976964 -0.0684074 0.893961)
(1.00997 -0.0892295 0.204418 -0.127369 1.1437 0.284209 0.108091 -0.0504033 0.893961)
(1.05104 -0.105569 0.15196 -0.143708 1.10263 0.315388 0.115201 -0.0308675 0.893961)
(1.09522 -0.106874 0.0948854 -0.145014 1.05844 0.336984 0.118811 -0.0103943 0.893962)
(1.13719 -0.0929888 0.0349272 -0.131129 1.01648 0.348341 0.118812 0.010395 0.893962)
(1.17188 -0.0655878 -0.0260923 -0.103729 0.981791 0.349114 0.115202 0.0308684 0.893961)
(1.1951 -0.0279761 -0.086319 -0.066117 0.958568 0.339279 0.108092 0.0504033 0.893961)
(1.20406 0.0153102 -0.143923 -0.0228304 0.949609 0.319136 0.0976966 0.0684067 0.893961)
(1.19767 0.0590503 -0.197154 0.0209098 0.955996 0.289295 0.0843327 0.0843326 0.893961)
(1.17671 0.0979679 -0.244394 0.059828 0.976958 0.250665 0.0684074 0.0976964 0.893961)
(1.1437 0.127369 -0.284209 0.0892295 1.00997 0.204418 0.0504033 0.108091 0.893961)
(1.10263 0.143708 -0.315388 0.105569 1.05104 0.15196 0.0308675 0.115201 0.893961)
(1.05844 0.145014 -0.336984 0.106874 1.09522 0.0948854 0.0103943 0.118811 0.893962)
(1.01648 0.131129 -0.348341 0.0929888 1.13719 0.0349272 -0.010395 0.118812 0.893962)
(0.981791 0.103729 -0.349114 0.0655878 1.17188 -0.0260923 -0.0308684 0.115202 0.893961)
(0.958568 0.066117 -0.339279 0.0279761 1.1951 -0.086319 -0.0504033 0.108092 0.893961)
(0.949609 0.0228304 -0.319136 -0.0153103 1.20406 -0.143923 -0.0684067 0.0976966 0.893961)
(0.955996 -0.0209099 -0.289295 -0.0590503 1.19767 -0.197154 -0.0843326 0.0843327 0.893961)
(0.976958 -0.059828 -0.250665 -0.0979679 1.17671 -0.244394 -0.0976964 0.0684074 0.893961)
(1.00997 -0.0892296 -0.204418 -0.127369 1.1437 -0.284209 -0.108091 0.0504033 0.893961)
(1.05104 -0.105569 -0.15196 -0.143708 1.10263 -0.315388 -0.115201 0.0308675 0.893961)
(1.09522 -0.106874 -0.0948854 -0.145014 1.05844 -0.336984 -0.118812 0.0103943 0.893962)
(1.16427 -0.118571 -0.00837037 -0.121858 1.00524 -0.379996 -0.105679 -0.00924584 0.865576)
(1.20059 -0.0841245 0.0577424 -0.0874122 0.968918 -0.375677 -0.102468 -0.0274562 0.865576)
(1.22294 -0.039333 0.122101 -0.0426209 0.946569 -0.359943 -0.0961441 -0.0448322 0.865575)
(1.22862 0.0104003 0.182749 0.00711326 0.940888 -0.333272 -0.0868975 -0.0608456 0.865575)
(1.21695 0.059078 0.237844 0.0557912 0.952559 -0.296475 -0.075011 -0.0750108 0.865575)
(1.18934 0.100828 0.285713 0.0975417 0.980176 -0.250669 -0.0608459 -0.0868973 0.865575)
(1.14911 0.130615 0.324901 0.127329 1.02041 -0.197247 -0.0448318 -0.096143 0.865575)
(1.10111 0.144846 0.354217 0.14156 1.0684 -0.137832 -0.0274557 -0.102468 0.865575)
(1.05115 0.141805 0.37277 0.138518 1.11836 -0.0742288 -0.00924549 -0.105679 0.865575)
(1.00524 0.121858 0.379996 0.118571 1.16427 -0.00837035 0.00924584 -0.105679 0.865576)
(0.968918 0.0874122 0.375677 0.0841245 1.20059 0.0577424 0.0274562 -0.102468 0.865576)
(0.946569 0.0426209 0.359943 0.039333 1.22294 0.122101 0.0448322 -0.0961441 0.865575)
(0.940888 -0.00711325 0.333272 -0.0104003 1.22862 0.182749 0.0608456 -0.0868975 0.865575)
(0.952559 -0.0557912 0.296475 -0.059078 1.21695 0.237844 0.0750108 -0.075011 0.865575)
(0.980176 -0.0975416 0.250669 -0.100828 1.18934 0.285713 0.0868973 -0.0608459 0.865575)
(1.02041 -0.127329 0.197247 -0.130615 1.14911 0.324901 0.096143 -0.0448318 0.865575)
(1.0684 -0.14156 0.137832 -0.144846 1.10111 0.354217 0.102468 -0.0274557 0.865575)
(1.11836 -0.138518 0.0742288 -0.141805 1.05115 0.37277 0.105679 -0.00924549 0.865575)
(1.16427 -0.118571 0.00837034 -0.121858 1.00524 0.379996 0.105679 0.00924584 0.865576)
(1.20059 -0.0841245 -0.0577424 -0.0874122 0.968918 0.375677 0.102468 0.0274562 0.865576)
(1.22294 -0.039333 -0.122101 -0.0426209 0.946569 0.359943 0.0961441 0.0448321 0.865575)
(1.22862 0.0104003 -0.182749 0.00711326 0.940888 0.333272 0.0868975 0.0608456 0.865575)
(1.21695 0.059078 -0.237844 0.0557912 0.952559 0.296475 0.075011 0.0750108 0.865575)
(1.18934 0.100828 -0.285713 0.0975417 0.980176 0.250669 0.0608459 0.0868973 0.865575)
(1.14911 0.130615 -0.324901 0.127329 1.02041 0.197247 0.0448318 0.096143 0.865575)
(1.10111 0.144846 -0.354217 0.14156 1.0684 0.137832 0.0274557 0.102468 0.865575)
(1.05115 0.141805 -0.37277 0.138518 1.11836 0.0742288 0.00924549 0.105679 0.865575)
(1.00524 0.121858 -0.379996 0.118571 1.16427 0.00837035 -0.00924584 0.105679 0.865576)
(0.968918 0.0874122 -0.375677 0.0841245 1.20059 -0.0577424 -0.0274562 0.102468 0.865576)
(0.946569 0.0426209 -0.359943 0.039333 1.22294 -0.122101 -0.0448321 0.0961441 0.865575)
(0.940888 -0.00711327 -0.333272 -0.0104003 1.22862 -0.182749 -0.0608456 0.0868975 0.865575)
(0.952559 -0.0557913 -0.296475 -0.059078 1.21695 -0.237844 -0.0750108 0.075011 0.865575)
(0.980176 -0.0975417 -0.250669 -0.100828 1.18934 -0.285713 -0.0868973 0.0608459 0.865575)
(1.02041 -0.127329 -0.197247 -0.130615 1.14911 -0.324901 -0.096143 0.0448318 0.865575)
(1.0684 -0.14156 -0.137832 -0.144846 1.10111 -0.354217 -0.102468 0.0274557 0.865575)
(1.11836 -0.138518 -0.0742288 -0.141805 1.05115 -0.37277 -0.105679 0.00924549 0.865575)
(1.1926 -0.148627 0.0191725 -0.10821 0.98429 -0.410565 -0.0909117 -0.00795372 0.838627)
(1.23024 -0.105259 0.0901748 -0.0648422 0.94665 -0.400998 -0.0881498 -0.0236195 0.838627)
(1.25078 -0.0516327 0.158437 -0.0112155 0.926112 -0.379248 -0.0827089 -0.0385676 0.838627)
(1.25174 0.005784 0.221886 0.0462013 0.925155 -0.345974 -0.0747544 -0.0523435 0.838627)
(1.233 0.0600654 0.278592 0.100483 0.943892 -0.302187 -0.0645292 -0.064529 0.838627)
(1.19683 0.104665 0.326834 0.145083 0.980066 -0.249219 -0.0523434 -0.0747543 0.838627)
(1.14758 0.134202 0.365145 0.17462 1.02931 -0.188679 -0.0385671 -0.0827081 0.838627)
(1.0912 0.145116 0.392362 0.185534 1.08569 -0.122405 -0.0236193 -0.0881489 0.838627)
(1.03449 0.136089 0.407656 0.176506 1.1424 -0.0524125 -0.0079537 -0.0909117 0.838627)
(0.98429 0.10821 0.410565 0.148627 1.1926 0.0191725 0.00795372 -0.0909117 0.838627)
(0.94665 0.0648422 0.400998 0.105259 1.23024 0.0901748 0.0236195 -0.0881498 0.838627)
(0.926112 0.0112155 0.379248 0.0516327 1.25078 0.158437 0.0385676 -0.0827089 0.838627)
(0.925155 -0.0462013 0.345974 -0.005784 1.25174 0.221886 0.0523435 -0.0747544 0.838627)
(0.943892 -0.100483 0.302187 -0.0600654 1.233 0.278592 0.064529 -0.0645292 0.838627)
(0.980066 -0.145083 0.249219 -0.104665 1.19683 0.326834 0.0747543 -0.0523434 0.838627)
(1.02931 -0.17462 0.188679 -0.134202 1.14758 0.365145 0.0827081 -0.0385671 0.838627)
(1.08569 -0.185534 0.122405 -0.145116 1.0912 0.392362 0.0881489 -0.0236193 0.838627)
(1.1424 -0.176506 0.0524125 -0.136089 1.03449 0.407656 0.0909117 -0.0079537 0.838627)
(1.1926 -0.148627 -0.0191725 -0.10821 0.98429 0.410565 0.0909117 0.00795372 0.838627)
(1.23024 -0.105259 -0.0901749 -0.0648422 0.94665 0.400998 0.0881498 0.0236195 0.838627)
(1.25078 -0.0516327 -0.158437 -0.0112155 0.926112 0.379248 0.0827089 0.0385676 0.838627)
(1.25174 0.005784 -0.221886 0.0462013 0.925155 0.345974 0.0747544 0.0523434 0.838627)
(1.233 0.0600654 -0.278593 0.100483 0.943892 0.302187 0.0645292 0.064529 0.838627)
(1.19683 0.104665 -0.326834 0.145083 0.980066 0.249219 0.0523434 0.0747543 0.838627)
(1.14758 0.134202 -0.365145 0.17462 1.02931 0.188679 0.0385671 0.0827081 0.838627)
(1.0912 0.145116 -0.392362 0.185534 1.08569 0.122405 0.0236193 0.0881489 0.838627)
(1.03449 0.136089 -0.407656 0.176506 1.1424 0.0524125 0.00795371 0.0909117 0.838627)
(0.98429 0.10821 -0.410565 0.148627 1.1926 -0.0191725 -0.00795371 0.0909117 0.838627)
(0.94665 0.0648421 -0.400998 0.105259 1.23024 -0.0901748 -0.0236195 0.0881498 0.838627)
(0.926112 0.0112155 -0.379248 0.0516327 1.25078 -0.158437 -0.0385676 0.0827089 0.838627)
(0.925155 -0.0462014 -0.345974 -0.005784 1.25174 -0.221886 -0.0523434 0.0747544 0.838627)
(0.943892 -0.100483 -0.302187 -0.0600654 1.233 -0.278593 -0.064529 0.0645292 0.838627)
(0.980066 -0.145083 -0.249219 -0.104665 1.19683 -0.326834 -0.0747543 0.0523434 0.838627)
(1.02931 -0.17462 -0.188679 -0.134202 1.14758 -0.365145 -0.0827081 0.0385671 0.838627)
(1.08569 -0.185534 -0.122405 -0.145116 1.0912 -0.392362 -0.0881489 0.0236193 0.838627)
(1.1424 -0.176506 -0.0524125 -0.136089 1.03449 -0.407656 -0.0909117 0.0079537 0.838627)
(1.18492 -0.159182 0.0112315 -0.173754 1.01662 -0.343918 -0.156949 -0.0137315 0.865367)
(1.23678 -0.120361 0.0707817 -0.134934 0.964759 -0.336743 -0.152181 -0.0407765 0.865367)
(1.27224 -0.0661439 0.128181 -0.080717 0.929304 -0.319336 -0.142788 -0.0665822 0.865367)
(1.28701 -0.00306992 0.181685 -0.0176432 0.91453 -0.292226 -0.129056 -0.0903648 0.865368)
(1.27932 0.0612529 0.22967 0.04668 0.92222 -0.256237 -0.111403 -0.111402 0.865368)
(1.2501 0.119067 0.270675 0.104494 0.951446 -0.212462 -0.0903653 -0.129055 0.865367)
(1.20286 0.163398 0.303457 0.148826 0.998683 -0.162232 -0.0665819 -0.142786 0.865367)
(1.14331 0.1889 0.327018 0.174328 1.05823 -0.107073 -0.0407754 -0.152179 0.865367)
(1.07863 0.192497 0.340643 0.177925 1.12291 -0.0486599 -0.0137304 -0.156949 0.865367)
(1.01662 0.173755 0.343918 0.159182 1.18492 0.0112315 0.0137315 -0.156949 0.865367)
(0.964759 0.134934 0.336743 0.120361 1.23678 0.0707817 0.0407765 -0.152181 0.865367)
(0.929304 0.080717 0.319336 0.0661439 1.27224 0.128181 0.0665822 -0.142788 0.865367)
(0.91453 0.0176432 0.292226 0.00306993 1.28701 0.181685 0.0903648 -0.129056 0.865368)
(0.92222 -0.04668 0.256237 -0.0612529 1.27932 0.22967 0.111402 -0.111403 0.865368)
(0.951446 -0.104494 0.212462 -0.119067 1.2501 0.270675 0.129055 -0.0903653 0.865367)
(0.998683 -0.148826 0.162232 -0.163398 1.20286 0.303457 0.142786 -0.0665819 0.865367)
(1.05823 -0.174328 0.107072 -0.1889 1.14331 0.327018 0.152179 -0.0407754 0.865367)
(1.12291 -0.177925 0.0486598 -0.192497 1.07863 0.340643 0.156949 -0.0137304 0.865367)
(1.18492 -0.159182 -0.0112315 -0.173754 1.01662 0.343918 0.156949 0.0137315 0.865367)
(1.23678 -0.120361 -0.0707817 -0.134934 0.964759 0.336743 0.152181 0.0407765 0.865367)
(1.27224 -0.0661439 -0.128181 -0.080717 0.929304 0.319336 0.142788 0.0665822 0.865367)
(1.28701 -0.00306993 -0.181685 -0.0176432 0.91453 0.292226 0.129056 0.0903648 0.865368)
(1.27932 0.0612529 -0.22967 0.04668 0.92222 0.256237 0.111403 0.111402 0.865368)
(1.2501 0.119067 -0.270675 0.104494 0.951446 0.212462 0.0903653 0.129055 0.865367)
(1.20286 0.163398 -0.303457 0.148826 0.998683 0.162232 0.0665819 0.142786 0.865367)
(1.14331 0.1889 -0.327018 0.174328 1.05823 0.107073 0.0407754 0.152179 0.865367)
(1.07863 0.192497 -0.340643 0.177925 1.12291 0.0486599 0.0137304 0.156949 0.865367)
(1.01662 0.173754 -0.343918 0.159182 1.18492 -0.0112315 -0.0137315 0.156949 0.865367)
(0.964759 0.134934 -0.336743 0.120361 1.23678 -0.0707817 -0.0407765 0.152181 0.865367)
(0.929304 0.080717 -0.319336 0.0661439 1.27224 -0.128181 -0.0665822 0.142788 0.865367)
(0.91453 0.0176432 -0.292226 0.00306993 1.28701 -0.181685 -0.0903648 0.129056 0.865368)
(0.92222 -0.04668 -0.256237 -0.0612529 1.27932 -0.22967 -0.111402 0.111403 0.865368)
(0.951446 -0.104494 -0.212462 -0.119067 1.2501 -0.270675 -0.129055 0.0903653 0.865367)
(0.998683 -0.148826 -0.162232 -0.163398 1.20286 -0.303457 -0.142786 0.0665819 0.865367)
(1.05823 -0.174328 -0.107073 -0.1889 1.14331 -0.327018 -0.152179 0.0407754 0.865367)
(1.12291 -0.177925 -0.0486599 -0.192497 1.07863 -0.340643 -0.156949 0.0137304 0.865367)
(1.21084 -0.197344 0.0246193 -0.163794 1.00103 -0.357606 -0.145673 -0.0127449 0.850151)
(1.26627 -0.150575 0.0863431 -0.117025 0.945601 -0.347899 -0.141247 -0.0378469 0.850151)
(1.30236 -0.0876675 0.145443 -0.0541186 0.909508 -0.32762 -0.132529 -0.061799 0.850151)
(1.31477 -0.01621 0.200124 0.0173392 0.897107 -0.297387 -0.119784 -0.0838728 0.850151)
(1.30198 0.0551797 0.248724 0.0887292 0.909894 -0.258117 -0.103399 -0.103399 0.850151)
(1.26555 0.117891 0.289767 0.15144 0.946327 -0.211005 -0.083873 -0.119783 0.850151)
(1.20986 0.164359 0.322006 0.197909 1.00201 -0.157482 -0.0617985 -0.132528 0.850151)
(1.14164 0.188979 0.34446 0.22253 1.07023 -0.099174 -0.0378462 -0.141246 0.850151)
(1.06912 0.188783 0.356448 0.222334 1.14276 -0.0378524 -0.0127443 -0.145673 0.850151)
(1.00103 0.163794 0.357606 0.197344 1.21084 0.0246193 0.0127449 -0.145673 0.850151)
(0.945601 0.117025 0.347899 0.150575 1.26627 0.0863431 0.0378469 -0.141247 0.850151)
(0.909508 0.0541186 0.32762 0.0876675 1.30236 0.145443 0.0617989 -0.132529 0.850151)
(0.897107 -0.0173392 0.297387 0.01621 1.31477 0.200124 0.0838728 -0.119784 0.850151)
(0.909894 -0.0887292 0.258117 -0.0551797 1.30198 0.248724 0.103399 -0.103399 0.850151)
(0.946327 -0.15144 0.211005 -0.117891 1.26555 0.289767 0.119783 -0.083873 0.850151)
(1.00201 -0.197909 0.157482 -0.164359 1.20986 0.322006 0.132528 -0.0617985 0.850151)
(1.07023 -0.22253 0.099174 -0.188979 1.14164 0.34446 0.141246 -0.0378462 0.850151)
(1.14276 -0.222334 0.0378524 -0.188783 1.06912 0.356448 0.145673 -0.0127443 0.850151)
(1.21084 -0.197344 -0.0246194 -0.163794 1.00103 0.357606 0.145673 0.0127449 0.850151)
(1.26627 -0.150575 -0.0863431 -0.117025 0.945601 0.347899 0.141247 0.0378469 0.850151)
(1.30236 -0.0876676 -0.145443 -0.0541186 0.909508 0.32762 0.132529 0.0617989 0.850151)
(1.31477 -0.01621 -0.200124 0.0173392 0.897107 0.297387 0.119784 0.0838728 0.850151)
(1.30198 0.0551797 -0.248724 0.0887292 0.909894 0.258117 0.103399 0.103399 0.850151)
(1.26555 0.117891 -0.289767 0.15144 0.946327 0.211005 0.083873 0.119783 0.850151)
(1.20986 0.164359 -0.322006 0.197909 1.00201 0.157482 0.0617985 0.132528 0.850151)
(1.14164 0.188979 -0.34446 0.22253 1.07023 0.099174 0.0378462 0.141246 0.850151)
(1.06912 0.188783 -0.356448 0.222334 1.14276 0.0378524 0.0127443 0.145673 0.850151)
(1.00103 0.163794 -0.357606 0.197344 1.21084 -0.0246193 -0.0127449 0.145673 0.850151)
(0.945601 0.117025 -0.347899 0.150575 1.26627 -0.0863431 -0.0378469 0.141247 0.850151)
(0.909508 0.0541185 -0.32762 0.0876675 1.30236 -0.145443 -0.0617989 0.132529 0.850151)
(0.897107 -0.0173392 -0.297387 0.01621 1.31477 -0.200124 -0.0838728 0.119784 0.850151)
(0.909894 -0.0887292 -0.258117 -0.0551797 1.30198 -0.248724 -0.103399 0.103399 0.850151)
(0.946327 -0.15144 -0.211005 -0.117891 1.26555 -0.289767 -0.119783 0.083873 0.850151)
(1.00201 -0.197909 -0.157482 -0.164359 1.20986 -0.322006 -0.132528 0.0617985 0.850151)
(1.07023 -0.22253 -0.099174 -0.188979 1.14164 -0.34446 -0.141246 0.0378462 0.850151)
(1.14276 -0.222334 -0.0378524 -0.188783 1.06912 -0.356448 -0.145673 0.0127443 0.850151)
(1.23777 -0.242713 0.0358262 -0.147808 0.975565 -0.370927 -0.132009 -0.0115494 0.833632)
(1.29664 -0.186099 0.0996928 -0.0911936 0.916688 -0.359071 -0.127998 -0.034297 0.833632)
(1.3326 -0.112761 0.16053 -0.0178562 0.880725 -0.336304 -0.120098 -0.0560025 0.833632)
(1.34132 -0.0315469 0.21649 0.0633583 0.872014 -0.303319 -0.108548 -0.076006 0.833632)
(1.32172 0.0477492 0.265872 0.142655 0.891605 -0.261118 -0.0937002 -0.0937001 0.833633)
(1.27619 0.115563 0.307175 0.210469 0.937136 -0.210983 -0.0760057 -0.108547 0.833633)
(1.21022 0.163714 0.339145 0.25862 1.00311 -0.154437 -0.0560019 -0.120097 0.833632)
(1.13175 0.186395 0.360811 0.281301 1.08158 -0.0931992 -0.0342967 -0.127997 0.833632)
(1.05025 0.180871 0.371513 0.275777 1.16308 -0.029129 -0.0115492 -0.132009 0.833632)
(0.975565 0.147808 0.370927 0.242713 1.23777 0.0358262 0.0115494 -0.132009 0.833632)
(0.916688 0.0911936 0.359071 0.186099 1.29664 0.0996928 0.034297 -0.127998 0.833632)
(0.880725 0.0178563 0.336304 0.112761 1.3326 0.16053 0.0560025 -0.120098 0.833632)
(0.872014 -0.0633583 0.303319 0.0315469 1.34132 0.21649 0.076006 -0.108548 0.833632)
(0.891605 -0.142655 0.261118 -0.0477492 1.32172 0.265872 0.0937001 -0.0937002 0.833633)
(0.937136 -0.210469 0.210983 -0.115563 1.27619 0.307175 0.108547 -0.0760057 0.833633)
(1.00311 -0.25862 0.154437 -0.163714 1.21022 0.339145 0.120097 -0.056002 0.833632)
(1.08158 -0.281301 0.0931992 -0.186395 1.13175 0.360811 0.127997 -0.0342967 0.833632)
(1.16308 -0.275777 0.029129 -0.180871 1.05025 0.371513 0.132009 -0.0115492 0.833632)
(1.23777 -0.242713 -0.0358262 -0.147808 0.975565 0.370927 0.132009 0.0115494 0.833632)
(1.29664 -0.186099 -0.0996928 -0.0911936 0.916688 0.359071 0.127998 0.034297 0.833632)
(1.3326 -0.112761 -0.16053 -0.0178563 0.880725 0.336304 0.120098 0.0560025 0.833632)
(1.34132 -0.0315469 -0.21649 0.0633583 0.872014 0.303319 0.108548 0.076006 0.833632)
(1.32172 0.0477492 -0.265872 0.142655 0.891605 0.261118 0.0937002 0.0937001 0.833633)
(1.27619 0.115563 -0.307175 0.210469 0.937136 0.210983 0.0760058 0.108547 0.833633)
(1.21022 0.163714 -0.339145 0.25862 1.00311 0.154437 0.056002 0.120097 0.833632)
(1.13175 0.186395 -0.360811 0.281301 1.08158 0.0931992 0.0342967 0.127997 0.833632)
(1.05025 0.180871 -0.371513 0.275777 1.16308 0.029129 0.0115492 0.132009 0.833632)
(0.975565 0.147808 -0.370927 0.242713 1.23777 -0.0358262 -0.0115494 0.132009 0.833632)
(0.916688 0.0911936 -0.359071 0.186099 1.29664 -0.0996928 -0.034297 0.127998 0.833632)
(0.880725 0.0178562 -0.336304 0.112761 1.3326 -0.16053 -0.0560025 0.120098 0.833632)
(0.872014 -0.0633583 -0.303319 0.0315469 1.34132 -0.21649 -0.076006 0.108548 0.833632)
(0.891605 -0.142655 -0.261118 -0.0477492 1.32172 -0.265872 -0.0937001 0.0937002 0.833633)
(0.937136 -0.210469 -0.210983 -0.115563 1.27619 -0.307175 -0.108547 0.0760058 0.833633)
(1.00311 -0.25862 -0.154437 -0.163714 1.21022 -0.339145 -0.120097 0.056002 0.833632)
(1.08158 -0.281301 -0.0931992 -0.186395 1.13175 -0.360811 -0.127997 0.0342967 0.833632)
(1.16308 -0.275777 -0.029129 -0.180871 1.05025 -0.371513 -0.132009 0.0115492 0.833632)
(1.2027 -0.228464 0.0572429 -0.179772 1.00786 -0.32134 -0.175504 -0.0153551 0.865847)
(1.26663 -0.182835 0.112174 -0.134144 0.943927 -0.306519 -0.170172 -0.0455974 0.865847)
(1.31111 -0.118091 0.163696 -0.0694004 0.89945 -0.282383 -0.159669 -0.0744543 0.865847)
(1.33076 -0.0420393 0.210244 0.00665081 0.8798 -0.249667 -0.144314 -0.101049 0.865847)
(1.32321 0.0361461 0.250404 0.0848365 0.887346 -0.209366 -0.124574 -0.124573 0.865848)
(1.28938 0.107036 0.282956 0.155726 0.921179 -0.162703 -0.101049 -0.144312 0.865847)
(1.23334 0.162078 0.30691 0.210769 0.977216 -0.111096 -0.074454 -0.159667 0.865847)
(1.16186 0.194636 0.321539 0.243327 1.0487 -0.0561137 -0.0455964 -0.17017 0.865847)
(1.08355 0.200781 0.326398 0.249472 1.12701 0.000573237 -0.0153538 -0.175504 0.865847)
(1.00786 0.179772 0.32134 0.228464 1.2027 0.0572429 0.0153551 -0.175504 0.865847)