/*--------------------------------*- C++ -*----------------------------------*\
| =========                 |                                                 |
| \\      /  F ield         | OpenFOAM: The Open Source CFD Toolbox           |
|  \\    /   O peration     | Version:  2312                                  |
|   \\  /    A nd           | Website:  www.openfoam.com                      |
|    \\/     M anipulation  |                                                 |
\*---------------------------------------------------------------------------*/
FoamFile
{
    version     2.0;
    format      ascii;
    arch        "LSB;label=32;scalar=64";
    class       volVectorField;
    location    "1";
    object      traction;
}
// * * * * * * * * * * * * * * * * * * * * * * * * * * * * * * * * * * * * * //

dimensions      [1 -1 -2 0 0 0 0];

internalField   uniform (0 0 0);

boundaryField
{
    fixed
    {
        type            calculated;
        value           nonuniform List<vector> 
108
(
(-2672.48 23045.4 41421.4)
(-6633.68 22231.2 41421.4)
(-10393.3 20741.6 41421.4)
(-13837.1 18621.5 41421.3)
(-16860.4 15935.8 41421.3)
(-19371.5 12766 41421.4)
(-21294.2 9208.31 41421.2)
(-22569.6 5370.71 41421.3)
(-23159.3 1369.94 41421.3)
(-23045.4 -2672.48 41421.4)
(-22231.2 -6633.68 41421.4)
(-20741.6 -10393.3 41421.4)
(-18621.5 -13837.1 41421.3)
(-15935.8 -16860.4 41421.3)
(-12766 -19371.5 41421.4)
(-9208.31 -21294.2 41421.2)
(-5370.71 -22569.6 41421.3)
(-1369.94 -23159.3 41421.3)
(2672.48 -23045.4 41421.4)
(6633.68 -22231.2 41421.4)
(10393.3 -20741.6 41421.4)
(13837.1 -18621.5 41421.3)
(16860.4 -15935.8 41421.3)
(19371.5 -12766 41421.4)
(21294.2 -9208.31 41421.2)
(22569.6 -5370.71 41421.3)
(23159.3 -1369.94 41421.3)
(23045.4 2672.48 41421.4)
(22231.2 6633.68 41421.4)
(20741.6 10393.3 41421.4)
(18621.5 13837.1 41421.3)
(15935.8 16860.4 41421.3)
(12766 19371.5 41421.4)
(9208.31 21294.2 41421.2)
(5370.71 22569.6 41421.3)
(1369.94 23159.3 41421.3)
(-1718.41 6429.18 -29474.8)
(-2808.72 6033.1 -29474.7)
(-3813.66 5453.66 -29474.7)
(-4702.88 4708.76 -29474.7)
(-5449.27 3820.75 -29474.8)
(-6029.75 2816.32 -29474.9)
(-6426.98 1726.39 -29474.8)
(-6629.18 584.136 -29474.8)
(-6629.9 -575.891 -29474.9)
(-6429.18 -1718.41 -29474.8)
(-6033.1 -2808.72 -29474.7)
(-5453.66 -3813.66 -29474.7)
(-4708.76 -4702.88 -29474.7)
(-3820.75 -5449.27 -29474.8)
(-2816.32 -6029.75 -29474.9)
(-1726.39 -6426.98 -29474.8)
(-584.136 -6629.18 -29474.8)
(575.891 -6629.9 -29474.9)
(1718.41 -6429.18 -29474.8)
(2808.72 -6033.1 -29474.7)
(3813.66 -5453.66 -29474.7)
(4702.88 -4708.76 -29474.7)
(5449.27 -3820.75 -29474.8)
(6029.75 -2816.32 -29474.9)
(6426.98 -1726.39 -29474.8)
(6629.18 -584.136 -29474.8)
(6629.9 575.891 -29474.9)
(6429.18 1718.41 -29474.8)
(6033.1 2808.72 -29474.7)
(5453.66 3813.66 -29474.7)
(4708.76 4702.88 -29474.7)
(3820.75 5449.27 -29474.8)
(2816.32 6029.75 -29474.9)
(1726.39 6426.98 -29474.8)
(584.136 6629.18 -29474.8)
(-575.891 6629.9 -29474.9)
(1390.56 -31425.5 -21689.3)
(6826.38 -30706.6 -21689.4)
(12054.9 -29054.7 -21689.5)
(16917.1 -26519.9 -21689.4)
(21265.2 -23179.5 -21689.7)
(24967.1 -19134.7 -21689.3)
(27910.5 -14508.5 -21689.3)
(30005.9 -9441.39 -21689.5)
(31189.5 -4087.52 -21689.4)
(31425.5 1390.56 -21689.3)
(30706.6 6826.38 -21689.4)
(29054.7 12054.9 -21689.5)
(26519.9 16917.1 -21689.4)
(23179.5 21265.2 -21689.7)
(19134.7 24967.1 -21689.3)
(14508.5 27910.5 -21689.3)
(9441.39 30005.9 -21689.5)
(4087.52 31189.5 -21689.4)
(-1390.56 31425.5 -21689.3)
(-6826.38 30706.6 -21689.4)
(-12054.9 29054.7 -21689.5)
(-16917.1 26519.9 -21689.4)
(-21265.2 23179.5 -21689.7)
(-24967.1 19134.7 -21689.3)
(-27910.5 14508.5 -21689.3)
(-30005.9 9441.39 -21689.5)
(-31189.5 4087.52 -21689.4)
(-31425.5 -1390.56 -21689.3)
(-30706.6 -6826.38 -21689.4)
(-29054.7 -12054.9 -21689.5)
(-26519.9 -16917.1 -21689.4)
(-23179.5 -21265.2 -21689.7)
(-19134.7 -24967.1 -21689.3)
(-14508.5 -27910.5 -21689.4)
(-9441.39 -30005.9 -21689.6)
(-4087.52 -31189.5 -21689.4)
)
;
    }
    inside
    {
        type            calculated;
        value           nonuniform List<vector> 
540
(
(57917.3 8883.73 2352)
(55495 18805.6 2351.95)
(51386.1 28157.2 2352.03)
(45716.2 36652.1 2351.98)
(38657 44033.9 2352.01)
(30423.2 50077.6 2351.97)
(21265.5 54599.6 2351.98)
(11460.7 57463.1 2352)
(1308.67 58580.1 2352.01)
(-8883.73 57917.3 2351.99)
(-18805.6 55495 2351.95)
(-28157.2 51386.1 2352.03)
(-36652.1 45716.2 2351.98)
(-44033.9 38657 2352.01)
(-50077.6 30423.2 2351.97)
(-54599.6 21265.5 2351.97)
(-57463.1 11460.7 2352)
(-58580.1 1308.67 2352.01)
(-57917.3 -8883.73 2351.99)
(-55495 -18805.6 2351.95)
(-51386.1 -28157.2 2352.03)
(-45716.2 -36652.1 2351.98)
(-38657 -44033.9 2352.01)
(-30423.2 -50077.6 2351.97)
(-21265.5 -54599.6 2351.98)
(-11460.7 -57463.1 2352)
(-1308.67 -58580.1 2352.01)
(8883.73 -57917.3 2352)
(18805.6 -55495 2351.95)
(28157.2 -51386.1 2352.03)
(36652.1 -45716.2 2351.98)
(44033.9 -38657 2352.01)
(50077.6 -30423.2 2351.97)
(54599.6 -21265.5 2351.98)
(57463.1 -11460.7 2352)
(58580.1 -1308.67 2352.01)
(35259 10490 42.4402)
(32902 16453 42.5131)
(29545.1 21916.5 42.4851)
(25290.4 26714 42.4255)
(20267.2 30699.7 42.4155)
(14628.3 33752.4 42.3647)
(8545.01 35780.1 42.4254)
(2201.99 36720.3 42.4344)
(-4207.56 36545 42.536)
(-10490 35259 42.4403)
(-16453 32902 42.5131)
(-21916.5 29545.1 42.4851)
(-26714 25290.4 42.4255)
(-30699.7 20267.2 42.4155)
(-33752.4 14628.3 42.3648)
(-35780.1 8545.01 42.4254)
(-36720.3 2201.99 42.4344)
(-36545 -4207.56 42.536)
(-35259 -10490 42.4403)
(-32902 -16453 42.5132)
(-29545.1 -21916.5 42.4851)
(-25290.4 -26714 42.4256)
(-20267.2 -30699.7 42.4156)
(-14628.3 -33752.4 42.3648)
(-8545.01 -35780.1 42.4255)
(-2201.99 -36720.3 42.4345)
(4207.56 -36545 42.5361)
(10490 -35259 42.4403)
(16453 -32902 42.5132)
(21916.5 -29545.1 42.4851)
(26714 -25290.4 42.4256)
(30699.7 -20267.2 42.4156)
(33752.4 -14628.3 42.3648)
(35780.1 -8545.01 42.4255)
(36720.3 -2201.99 42.4344)
(36545 4207.56 42.536)
(32517.7 14725.7 -1563.51)
(29466.7 20148.5 -1563.51)
(25520.1 24959.2 -1563.53)
(20798.4 29011.6 -1563.48)
(15444.6 32182.6 -1563.49)
(9621.47 34375.6 -1563.5)
(3506.09 35524.1 -1563.52)
(-2715.92 35593 -1563.57)
(-8855.21 34580.7 -1563.5)
(-14725.7 32517.7 -1563.51)
(-20148.5 29466.7 -1563.51)
(-24959.2 25520.1 -1563.53)
(-29011.6 20798.4 -1563.48)
(-32182.6 15444.6 -1563.49)
(-34375.6 9621.47 -1563.5)
(-35524.1 3506.09 -1563.52)
(-35593 -2715.92 -1563.57)
(-34580.7 -8855.21 -1563.5)
(-32517.7 -14725.7 -1563.51)
(-29466.7 -20148.5 -1563.51)
(-25520.1 -24959.2 -1563.53)
(-20798.4 -29011.6 -1563.48)
(-15444.6 -32182.6 -1563.49)
(-9621.47 -34375.6 -1563.5)
(-3506.09 -35524.1 -1563.52)
(2715.92 -35593 -1563.57)
(8855.21 -34580.7 -1563.5)
(14725.7 -32517.7 -1563.51)
(20148.5 -29466.7 -1563.51)
(24959.2 -25520.1 -1563.53)
(29011.6 -20798.4 -1563.48)
(32182.6 -15444.6 -1563.49)
(34375.6 -9621.47 -1563.5)
(35524.1 -3506.09 -1563.52)
(35593 2715.92 -1563.57)
(34580.7 8855.21 -1563.5)
(28417.9 17480.2 -2820.74)
(24950.8 22149.5 -2820.68)
(20725.5 26145.6 -2820.74)
(15870.5 29347.4 -2820.77)
(10533.4 31657.5 -2820.75)
(4876.04 33005.5 -2820.78)
(-929.391 33350.9 -2820.75)
(-6706.53 32682.7 -2820.68)
(-12280.1 31021.5 -2820.79)
(-17480.2 28417.9 -2820.74)
(-22149.5 24950.8 -2820.68)
(-26145.6 20725.5 -2820.74)
(-29347.4 15870.5 -2820.77)
(-31657.5 10533.4 -2820.75)
(-33005.5 4876.04 -2820.78)
(-33350.9 -929.391 -2820.75)
(-32682.7 -6706.53 -2820.68)
(-31021.5 -12280.1 -2820.79)
(-28417.9 -17480.2 -2820.74)
(-24950.8 -22149.5 -2820.68)
(-20725.5 -26145.6 -2820.74)
(-15870.5 -29347.4 -2820.77)
(-10533.4 -31657.5 -2820.75)
(-4876.05 -33005.5 -2820.78)
(929.391 -33350.9 -2820.75)
(6706.53 -32682.7 -2820.68)
(12280.1 -31021.6 -2820.79)
(17480.2 -28417.9 -2820.74)
(22149.5 -24950.8 -2820.68)
(26145.6 -20725.5 -2820.74)
(29347.4 -15870.5 -2820.77)
(31657.5 -10533.4 -2820.75)
(33005.5 -4876.05 -2820.78)
(33350.9 929.391 -2820.75)
(32682.7 6706.53 -2820.68)
(31021.6 12280.1 -2820.79)
(25407.7 19504.9 -3500.97)
(21634.4 23620.6 -3501.02)
(17204.2 27018.6 -3501)
(12251.1 29595.6 -3501.01)
(6925.71 31273.3 -3501)
(1389.97 32000.9 -3501.01)
(-4188.07 31756.1 -3501.02)
(-9638.77 30546.5 -3501.01)
(-14796.8 28408.5 -3501.01)
(-19504.9 25407.7 -3500.96)
(-23620.6 21634.4 -3501.02)
(-27018.6 17204.2 -3501)
(-29595.6 12251.1 -3501.01)
(-31273.3 6925.71 -3501)
(-32000.9 1389.97 -3501.01)
(-31756.1 -4188.07 -3501.02)
(-30546.5 -9638.77 -3501.01)
(-28408.5 -14796.8 -3501.01)
(-25407.7 -19504.9 -3500.96)
(-21634.4 -23620.6 -3501.02)
(-17204.2 -27018.6 -3501)
(-12251.1 -29595.6 -3501.01)
(-6925.71 -31273.3 -3501)
(-1389.97 -32000.9 -3501.01)
(4188.07 -31756.1 -3501.02)
(9638.77 -30546.5 -3501.01)
(14796.8 -28408.5 -3501.01)
(19504.9 -25407.7 -3500.97)
(23620.6 -21634.4 -3501.02)
(27018.6 -17204.2 -3501)
(29595.6 -12251.1 -3501.01)
(31273.3 -6925.71 -3501)
(32000.9 -1389.97 -3501.01)
(31756.1 4188.07 -3501.02)
(30546.5 9638.77 -3501.01)
(28408.5 14796.8 -3501.01)
(22617.1 20714.7 -3737.83)
(18676.3 24327.4 -3737.84)
(14168.3 27201.2 -3737.88)
(9229.66 29248 -3737.79)
(4010.59 30406.5 -3737.79)
(-1330.38 30641.1 -3737.83)
(-6630.85 29944.5 -3737.85)
(-11730 28338.2 -3737.87)
(-16472.7 25870.7 -3737.87)
(-20714.7 22617.1 -3737.83)
(-24327.4 18676.3 -3737.84)
(-27201.2 14168.3 -3737.88)
(-29248 9229.66 -3737.79)
(-30406.5 4010.59 -3737.79)
(-30641.1 -1330.38 -3737.83)
(-29944.5 -6630.85 -3737.85)
(-28338.2 -11730 -3737.87)
(-25870.7 -16472.7 -3737.87)
(-22617.1 -20714.7 -3737.83)
(-18676.3 -24327.4 -3737.84)
(-14168.3 -27201.2 -3737.88)
(-9229.66 -29248 -3737.79)
(-4010.59 -30406.5 -3737.79)
(1330.38 -30641.1 -3737.83)
(6630.85 -29944.5 -3737.85)
(11730 -28338.2 -3737.87)
(16472.7 -25870.7 -3737.87)
(20714.7 -22617.1 -3737.83)
(24327.4 -18676.3 -3737.84)
(27201.2 -14168.3 -3737.88)
(29248 -9229.66 -3737.79)
(30406.5 -4010.59 -3737.79)
(30641.1 1330.38 -3737.83)
(29944.5 6630.85 -3737.85)
(28338.2 11730 -3737.87)
(25870.7 16472.7 -3737.87)
(19659 21000.3 -3507.57)
(15713.5 24094.8 -3507.53)
(11290.9 26457.5 -3507.56)
(6524.98 28016.2 -3507.56)
(1560.94 28723.6 -3507.6)
(-3450.54 28558.3 -3507.58)
(-8357.24 27525.2 -3507.52)
(-13010 25656 -3507.59)
(-17267.3 23006.7 -3507.49)
(-21000.3 19659 -3507.57)
(-24094.8 15713.5 -3507.53)
(-26457.5 11290.9 -3507.55)
(-28016.2 6524.98 -3507.56)
(-28723.6 1560.94 -3507.6)
(-28558.3 -3450.54 -3507.58)
(-27525.2 -8357.24 -3507.52)
(-25656 -13010 -3507.59)
(-23006.7 -17267.3 -3507.49)
(-19659 -21000.3 -3507.57)
(-15713.5 -24094.8 -3507.53)
(-11290.9 -26457.5 -3507.55)
(-6524.99 -28016.2 -3507.56)
(-1560.94 -28723.6 -3507.6)
(3450.54 -28558.3 -3507.58)
(8357.24 -27525.2 -3507.52)
(13010 -25656 -3507.59)
(17267.3 -23006.7 -3507.49)
(21000.3 -19659 -3507.57)
(24094.8 -15713.5 -3507.53)
(26457.5 -11290.9 -3507.56)
(28016.2 -6524.99 -3507.56)
(28723.6 -1560.94 -3507.6)
(28558.3 3450.54 -3507.58)
(27525.2 8357.24 -3507.52)
(25656 13010 -3507.59)
(23006.7 17267.3 -3507.49)
(16302.3 20028.4 -2644.3)
(12576.6 22554.9 -2644.26)
(8469.03 24396.1 -2644.17)
(4103.93 25496.1 -2644.21)
(-385.723 25821.5 -2644.24)
(-4863.68 25362.3 -2644.24)
(-9194 24132.4 -2644.22)
(-13244.8 22169.2 -2644.28)
(-16893.2 19532.5 -2644.28)
(-20028.4 16302.3 -2644.3)
(-22554.9 12576.6 -2644.26)
(-24396.1 8469.03 -2644.16)
(-25496.1 4103.93 -2644.21)
(-25821.5 -385.722 -2644.24)
(-25362.3 -4863.68 -2644.24)
(-24132.4 -9194 -2644.22)
(-22169.2 -13244.8 -2644.28)
(-19532.5 -16893.2 -2644.28)
(-16302.3 -20028.4 -2644.3)
(-12576.6 -22554.9 -2644.26)
(-8469.03 -24396.1 -2644.16)
(-4103.93 -25496.1 -2644.21)
(385.721 -25821.5 -2644.24)
(4863.68 -25362.3 -2644.24)
(9194 -24132.4 -2644.22)
(13244.8 -22169.2 -2644.28)
(16893.2 -19532.5 -2644.28)
(20028.4 -16302.3 -2644.3)
(22554.9 -12576.6 -2644.26)
(24396.1 -8469.03 -2644.17)
(25496.1 -4103.93 -2644.21)
(25821.5 385.722 -2644.24)
(25362.3 4863.68 -2644.24)
(24132.4 9194 -2644.22)
(22169.2 13244.8 -2644.28)
(19532.5 16893.2 -2644.28)
(12649.3 17516.6 -888.555)
(9415.4 19447.3 -888.636)
(5895.35 20786.7 -888.629)
(2196.27 21494.8 -888.67)
(-1569.57 21549.6 -888.598)
(-5287.76 20949.5 -888.645)
(-8845.3 19713 -888.644)
(-12134 17877.6 -888.615)
(-15054.3 15499.1 -888.652)
(-17516.6 12649.3 -888.553)
(-19447.3 9415.4 -888.635)
(-20786.7 5895.35 -888.627)
(-21494.8 2196.27 -888.668)
(-21549.6 -1569.57 -888.596)
(-20949.5 -5287.75 -888.644)
(-19713 -8845.3 -888.643)
(-17877.6 -12134 -888.614)
(-15499.1 -15054.3 -888.652)
(-12649.3 -17516.6 -888.553)
(-9415.4 -19447.3 -888.635)
(-5895.36 -20786.7 -888.628)
(-2196.27 -21494.8 -888.67)
(1569.57 -21549.6 -888.598)
(5287.76 -20949.5 -888.646)
(8845.3 -19713 -888.646)
(12134 -17877.6 -888.617)
(15054.3 -15499.1 -888.654)
(17516.6 -12649.3 -888.556)
(19447.3 -9415.4 -888.638)
(20786.7 -5895.36 -888.63)
(21494.8 -2196.27 -888.672)
(21549.6 1569.57 -888.599)
(20949.5 5287.76 -888.647)
(19713 8845.3 -888.646)
(17877.6 12134 -888.617)
(15499.1 15054.3 -888.654)
(9202.45 13547.1 1923.81)
(6710.29 14939.4 1923.87)
(4014.06 15877.7 1923.8)
(1195.96 16333.6 1923.71)
(-1658.54 16292.9 1923.7)
(-4462.54 15757.4 1923.85)
(-7130.91 14743.1 1923.86)
(-9582.73 13280.9 1923.91)
(-11743.5 11415.2 1923.75)
(-13547.1 9202.45 1923.81)
(-14939.4 6710.29 1923.87)
(-15877.7 4014.06 1923.8)
(-16333.6 1195.97 1923.71)
(-16292.9 -1658.54 1923.7)
(-15757.4 -4462.54 1923.85)
(-14743.1 -7130.91 1923.86)
(-13280.9 -9582.73 1923.91)
(-11415.2 -11743.5 1923.75)
(-9202.46 -13547.1 1923.81)
(-6710.29 -14939.4 1923.87)
(-4014.07 -15877.7 1923.8)
(-1195.97 -16333.6 1923.71)
(1658.54 -16292.9 1923.7)
(4462.54 -15757.4 1923.84)
(7130.91 -14743.1 1923.86)
(9582.73 -13280.9 1923.91)
(11743.5 -11415.2 1923.75)
(13547.1 -9202.46 1923.81)
(14939.4 -6710.29 1923.87)
(15877.7 -4014.07 1923.79)
(16333.6 -1195.97 1923.71)
(16292.9 1658.54 1923.7)
(15757.4 4462.54 1923.84)
(14743.1 7130.91 1923.86)
(13280.9 9582.73 1923.91)
(11415.2 11743.5 1923.75)
(6911.98 8922.07 5426.45)
(5257.8 9986.96 5426.39)
(3443.65 10748.1 5426.5)
(1524.99 11182.9 5426.42)
(-440.068 11277.8 5426.49)
(-2391.79 11030.1 5426.48)
(-4270.84 10447.2 5426.33)
(-6020 9546.69 5426.45)
(-7586.4 8356.39 5426.39)
(-8922.07 6911.98 5426.46)
(-9986.97 5257.8 5426.39)
(-10748.1 3443.65 5426.5)
(-11182.9 1524.99 5426.42)
(-11277.8 -440.067 5426.49)
(-11030.1 -2391.79 5426.48)
(-10447.2 -4270.84 5426.33)
(-9546.69 -6020 5426.45)
(-8356.39 -7586.4 5426.39)
(-6911.99 -8922.08 5426.45)
(-5257.81 -9986.97 5426.39)
(-3443.65 -10748.1 5426.5)
(-1524.99 -11182.9 5426.42)
(440.068 -11277.8 5426.49)
(2391.79 -11030.1 5426.48)
(4270.85 -10447.2 5426.33)
(6020.01 -9546.69 5426.45)
(7586.41 -8356.39 5426.38)
(8922.08 -6911.98 5426.45)
(9986.98 -5257.8 5426.39)
(10748.1 -3443.65 5426.49)
(11182.9 -1524.99 5426.41)
(11277.8 440.069 5426.48)
(11030.1 2391.79 5426.48)
(10447.2 4270.84 5426.33)
(9546.69 6020 5426.45)
(8356.39 7586.41 5426.38)
(6822.79 5108.07 8055.7)
(5832.18 6215.33 8055.49)
(4664.27 7133.61 8055.61)
(3354.69 7835.17 8055.59)
(1943.15 8298.63 8055.62)
(472.57 8510.05 8055.56)
(-1012.34 8462.63 8055.56)
(-2466.46 8158.24 8055.74)
(-3845.62 7605.98 8055.68)
(-5108.07 6822.78 8055.71)
(-6215.33 5832.19 8055.49)
(-7133.62 4664.28 8055.61)
(-7835.17 3354.69 8055.59)
(-8298.63 1943.15 8055.62)
(-8510.06 472.57 8055.56)
(-8462.63 -1012.34 8055.56)
(-8158.24 -2466.46 8055.74)
(-7605.98 -3845.62 8055.68)
(-6822.79 -5108.07 8055.71)
(-5832.19 -6215.33 8055.48)
(-4664.28 -7133.62 8055.6)
(-3354.69 -7835.17 8055.58)
(-1943.15 -8298.63 8055.61)
(-472.568 -8510.06 8055.55)
(1012.34 -8462.63 8055.56)
(2466.46 -8158.24 8055.74)
(3845.62 -7605.98 8055.67)
(5108.07 -6822.79 8055.7)
(6215.33 -5832.18 8055.48)
(7133.62 -4664.28 8055.6)
(7835.17 -3354.69 8055.58)
(8298.63 -1943.15 8055.61)
(8510.06 -472.568 8055.55)
(8462.63 1012.34 8055.56)
(8158.24 2466.46 8055.74)
(7605.98 3845.62 8055.67)
(9649.77 4062.7 5462.42)
(8797.82 5676.87 5462.07)
(7678.39 7118.3 5462.23)
(6325.64 8343.52 5462.25)
(4780.73 9315.11 5462.35)
(3090.55 10003.7 5462.37)
(1306.42 10388.4 5462.17)
(-517.238 10457.2 5462.55)
(-2325.31 10208.6 5462.4)
(-4062.7 9649.77 5462.42)
(-5676.87 8797.82 5462.08)
(-7118.3 7678.39 5462.23)
(-8343.52 6325.64 5462.24)
(-9315.11 4780.73 5462.35)
(-10003.8 3090.55 5462.37)
(-10388.4 1306.42 5462.17)
(-10457.2 -517.24 5462.55)
(-10208.6 -2325.32 5462.4)
(-9649.77 -4062.71 5462.41)
(-8797.83 -5676.87 5462.07)
(-7678.39 -7118.3 5462.23)
(-6325.64 -8343.52 5462.24)
(-4780.73 -9315.11 5462.35)
(-3090.55 -10003.8 5462.36)
(-1306.42 -10388.4 5462.16)
(517.242 -10457.2 5462.55)
(2325.31 -10208.5 5462.4)
(4062.7 -9649.76 5462.42)
(5676.87 -8797.82 5462.07)
(7118.3 -7678.39 5462.23)
(8343.52 -6325.64 5462.24)
(9315.11 -4780.73 5462.35)
(10003.8 -3090.55 5462.37)
(10388.4 -1306.42 5462.16)
(10457.2 517.241 5462.55)
(10208.6 2325.31 5462.4)
(11731.5 3916.02 -4702.6)
(10873.6 5894.09 -4702.82)
(9684.82 7692.54 -4702.89)
(8201.9 9257.46 -4702.53)
(6469.81 10541.2 -4702.69)
(4541.08 11504.4 -4702.79)
(2474.3 12118.2 -4702.62)
(332.596 12363.3 -4702.33)
(-1819.5 12233.6 -4702.24)
(-3916.02 11731.5 -4702.6)
(-5894.09 10873.6 -4702.82)
(-7692.54 9684.82 -4702.89)
(-9257.47 8201.89 -4702.53)
(-10541.2 6469.81 -4702.7)
(-11504.4 4541.08 -4702.79)
(-12118.2 2474.3 -4702.62)
(-12363.3 332.595 -4702.33)
(-12233.6 -1819.5 -4702.24)
(-11731.5 -3916.02 -4702.6)
(-10873.6 -5894.09 -4702.82)
(-9684.82 -7692.54 -4702.88)
(-8201.89 -9257.47 -4702.53)
(-6469.81 -10541.2 -4702.69)
(-4541.08 -11504.4 -4702.78)
(-2474.32 -12118.2 -4702.59)
(-332.595 -12363.3 -4702.33)
(1819.49 -12233.6 -4702.23)
(3916.01 -11731.5 -4702.59)
(5894.09 -10873.6 -4702.81)
(7692.53 -9684.81 -4702.87)
(9257.46 -8201.89 -4702.52)
(10541.2 -6469.81 -4702.68)
(11504.4 -4541.08 -4702.78)
(12118.2 -2474.3 -4702.62)
(12363.3 -332.593 -4702.34)
(12233.6 1819.5 -4702.24)
(20214.7 13275.1 -68484.8)
(17602.3 16584 -68483.9)
(14455.8 19389 -68486.6)
(10868 21603.4 -68484.4)
(6953.17 23164.5 -68485)
(2824.14 24017.6 -68484.7)
(-1389.57 24144.7 -68485.7)
(-5560.34 23535.8 -68483)
(-9563.54 22212.7 -68484.5)
(-13275.1 20214.7 -68484.9)
(-16584 17602.3 -68484)
(-19389 14455.8 -68486.7)
(-21603.4 10868 -68484.5)
(-23164.5 6953.17 -68485)
(-24017.6 2824.14 -68484.8)
(-24144.7 -1389.58 -68485.7)
(-23535.8 -5560.35 -68483)
(-22212.7 -9563.55 -68484.5)
(-20214.7 -13275.1 -68484.9)
(-17602.3 -16584 -68484)
(-14455.8 -19389 -68486.7)
(-10867.9 -21603.4 -68484.5)
(-6953.16 -23164.5 -68485)
(-2824.13 -24017.6 -68484.8)
(1389.59 -24144.7 -68485.7)
(5560.36 -23535.8 -68483)
(9563.55 -22212.7 -68484.5)
(13275.1 -20214.7 -68484.9)
(16584 -17602.3 -68484)
(19389 -14455.8 -68486.7)
(21603.4 -10867.9 -68484.5)
(23164.5 -6953.16 -68485)
(24017.6 -2824.13 -68484.8)
(24144.7 1389.58 -68485.7)
(23535.8 5560.35 -68483)
(22212.7 9563.55 -68484.5)
)
;
    }
    outside
    {
        type            calculated;
        value           nonuniform List<vector> 
540
(
(-4465.65 -778.463 10520.6)
(-4262.57 -1542.08 10520.7)
(-3930.01 -2258.82 10520.6)
(-3478.25 -2907.07 10520.7)
(-2920.63 -3466.96 10520.8)
(-2274.17 -3921.35 10520.8)
(-1558.69 -4256.66 10520.5)
(-795.848 -4462.64 10520.6)
(-8.8163 -4533.01 10520.6)
(778.462 -4465.65 10520.6)
(1542.08 -4262.57 10520.7)
(2258.82 -3930.01 10520.6)
(2907.07 -3478.25 10520.7)
(3466.95 -2920.63 10520.8)
(3921.35 -2274.17 10520.8)
(4256.66 -1558.69 10520.5)
(4462.64 -795.848 10520.6)
(4533.01 -8.81631 10520.6)
(4465.65 778.463 10520.6)
(4262.57 1542.08 10520.7)
(3930.01 2258.82 10520.6)
(3478.25 2907.07 10520.7)
(2920.63 3466.96 10520.8)
(2274.17 3921.36 10520.8)
(1558.69 4256.66 10520.5)
(795.849 4462.64 10520.6)
(8.81646 4533.01 10520.6)
(-778.463 4465.66 10520.6)
(-1542.08 4262.57 10520.7)
(-2258.82 3930.01 10520.6)
(-2907.07 3478.25 10520.7)
(-3466.96 2920.63 10520.8)
(-3921.36 2274.17 10520.8)
(-4256.66 1558.69 10520.5)
(-4462.64 795.849 10520.6)
(-4533.01 8.81644 10520.6)
(10004 1004.42 9663.07)
(9677.47 2726.33 9663.4)
(9057.16 4365.45 9663.43)
(8161.56 5871.89 9663.23)
(7017.92 7199.96 9663.02)
(5661.01 8309.2 9663.34)
(4132.08 9165.76 9663.37)
(2477.72 9744.18 9663.34)
(747.962 10026.4 9663.2)
(-1004.42 10004 9663.07)
(-2726.33 9677.47 9663.4)
(-4365.45 9057.16 9663.43)
(-5871.89 8161.56 9663.22)
(-7199.96 7017.92 9663.02)
(-8309.2 5661.01 9663.34)
(-9165.76 4132.08 9663.37)
(-9744.18 2477.72 9663.34)
(-10026.4 747.962 9663.2)
(-10004 -1004.42 9663.07)
(-9677.47 -2726.33 9663.4)
(-9057.16 -4365.45 9663.43)
(-8161.56 -5871.89 9663.22)
(-7017.92 -7199.96 9663.02)
(-5661.01 -8309.2 9663.34)
(-4132.08 -9165.76 9663.37)
(-2477.72 -9744.18 9663.34)
(-747.962 -10026.4 9663.2)
(1004.42 -10004 9663.07)
(2726.33 -9677.47 9663.4)
(4365.45 -9057.16 9663.43)
(5871.89 -8161.56 9663.23)
(7199.96 -7017.92 9663.02)
(8309.2 -5661.01 9663.34)
(9165.76 -4132.08 9663.37)
(9744.18 -2477.72 9663.34)
(10026.4 -747.962 9663.2)
(6800.32 -215.801 4807.32)
(6734.32 968.295 4807.03)
(6463.97 2123.08 4807.13)
(5997.09 3213.25 4806.96)
(5348.1 4205.95 4806.85)
(4536.49 5070.71 4806.94)
(3587 5781.2 4806.99)
(2528.61 6316.35 4807.04)
(1393.38 6659.33 4807.4)
(215.801 6800.32 4807.32)
(-968.295 6734.32 4807.03)
(-2123.07 6463.97 4807.12)
(-3213.25 5997.09 4806.96)
(-4205.95 5348.1 4806.85)
(-5070.71 4536.49 4806.94)
(-5781.2 3587 4806.99)
(-6316.34 2528.61 4807.04)
(-6659.33 1393.38 4807.4)
(-6800.32 215.801 4807.32)
(-6734.32 -968.295 4807.03)
(-6463.97 -2123.07 4807.12)
(-5997.09 -3213.25 4806.96)
(-5348.09 -4205.95 4806.85)
(-4536.49 -5070.71 4806.94)
(-3587 -5781.2 4806.99)
(-2528.61 -6316.34 4807.04)
(-1393.38 -6659.33 4807.4)
(-215.801 -6800.32 4807.32)
(968.295 -6734.32 4807.03)
(2123.07 -6463.97 4807.13)
(3213.25 -5997.09 4806.96)
(4205.95 -5348.1 4806.85)
(5070.71 -4536.49 4806.94)
(5781.2 -3587 4806.99)
(6316.35 -2528.61 4807.04)
(6659.33 -1393.38 4807.4)
(6451.49 -853.878 1551.88)
(6501.77 279.434 1551.9)
(6354.39 1404.15 1551.97)
(6014.16 2486.37 1552.03)
(5491.08 3492.98 1552.32)
(4801.09 4393.4 1552.01)
(3965.27 5160.43 1551.9)
(3008.92 5770.38 1551.8)
(1961.16 6205.26 1551.97)
(853.878 6451.49 1551.88)
(-279.434 6501.76 1551.9)
(-1404.15 6354.39 1551.97)
(-2486.37 6014.16 1552.03)
(-3492.98 5491.08 1552.32)
(-4393.4 4801.09 1552.01)
(-5160.43 3965.26 1551.9)
(-5770.38 3008.92 1551.8)
(-6205.26 1961.16 1551.96)
(-6451.49 853.878 1551.87)
(-6501.76 -279.434 1551.9)
(-6354.39 -1404.15 1551.97)
(-6014.16 -2486.37 1552.03)
(-5491.08 -3492.98 1552.32)
(-4801.09 -4393.4 1552.01)
(-3965.27 -5160.43 1551.9)
(-3008.92 -5770.38 1551.8)
(-1961.16 -6205.26 1551.97)
(-853.878 -6451.49 1551.88)
(279.434 -6501.76 1551.9)
(1404.15 -6354.39 1551.97)
(2486.37 -6014.16 1552.03)
(3492.98 -5491.08 1552.32)
(4393.4 -4801.09 1552.01)
(5160.43 -3965.27 1551.9)
(5770.38 -3008.92 1551.8)
(6205.26 -1961.16 1551.97)
(5464.69 -1329.57 -825.172)
(5612.61 -360.353 -825.046)
(5589.78 619.586 -824.974)
(5397.35 1580.95 -825.151)
(5040.78 2494.07 -825.012)
(4531.11 3331.54 -825.09)
(3883.81 4067.98 -824.972)
(3118.42 4680.29 -825.138)
(2258.27 5150.82 -825.079)
(1329.57 5464.69 -825.173)
(360.354 5612.61 -825.047)
(-619.586 5589.78 -824.976)
(-1580.95 5397.35 -825.152)
(-2494.07 5040.78 -825.014)
(-3331.54 4531.11 -825.091)
(-4067.98 3883.81 -824.974)
(-4680.29 3118.42 -825.14)
(-5150.82 2258.27 -825.08)
(-5464.69 1329.57 -825.174)
(-5612.61 360.353 -825.048)
(-5589.78 -619.586 -824.976)
(-5397.35 -1580.95 -825.153)
(-5040.78 -2494.07 -825.014)
(-4531.11 -3331.54 -825.091)
(-3883.81 -4067.98 -824.973)
(-3118.42 -4680.29 -825.139)
(-2258.27 -5150.82 -825.079)
(-1329.57 -5464.69 -825.173)
(-360.353 -5612.61 -825.047)
(619.586 -5589.78 -824.975)
(1580.95 -5397.35 -825.151)
(2494.07 -5040.78 -825.012)
(3331.54 -4531.11 -825.089)
(4067.98 -3883.81 -824.972)
(4680.29 -3118.42 -825.137)
(5150.82 -2258.27 -825.078)
(3953.98 -1823.27 -2380.76)
(4210.63 -1108.89 -2380.54)
(4339.11 -360.972 -2380.55)
(4335.92 398.08 -2380.78)
(4200.87 1144.86 -2380.86)
(3938.26 1856.96 -2380.71)
(3556.01 2512.7 -2380.57)
(3065.66 3091.89 -2380.52)
(2482.13 3577.38 -2380.71)
(1823.27 3953.98 -2380.76)
(1108.89 4210.63 -2380.54)
(360.973 4339.1 -2380.55)
(-398.08 4335.92 -2380.79)
(-1144.86 4200.87 -2380.87)
(-1856.96 3938.26 -2380.71)
(-2512.7 3556.01 -2380.58)
(-3091.89 3065.66 -2380.52)
(-3577.38 2482.13 -2380.71)
(-3953.98 1823.27 -2380.76)
(-4210.63 1108.89 -2380.54)
(-4339.11 360.972 -2380.55)
(-4335.92 -398.081 -2380.79)
(-4200.87 -1144.86 -2380.87)
(-3938.26 -1856.96 -2380.71)
(-3556.01 -2512.7 -2380.58)
(-3065.66 -3091.9 -2380.52)
(-2482.13 -3577.38 -2380.71)
(-1823.27 -3953.98 -2380.76)
(-1108.89 -4210.63 -2380.54)
(-360.972 -4339.11 -2380.55)
(398.08 -4335.92 -2380.79)
(1144.86 -4200.87 -2380.86)
(1856.96 -3938.26 -2380.71)
(2512.7 -3556.01 -2380.57)
(3091.89 -3065.66 -2380.52)
(3577.38 -2482.13 -2380.71)
(1703.87 -2759.97 -3148.61)
(2157.3 -2422.11 -3148.7)
(2544.93 -2010.91 -3148.6)
(2855.66 -1538.09 -3148.73)
(3079.26 -1019.08 -3148.82)
(3209.44 -469.012 -3148.64)
(3242.14 95.6815 -3148.69)
(3176.29 656.952 -3148.61)
(3013.92 1198.69 -3148.58)
(2759.97 1703.87 -3148.61)
(2422.11 2157.3 -3148.71)
(2010.91 2544.93 -3148.6)
(1538.09 2855.66 -3148.73)
(1019.08 3079.26 -3148.82)
(469.012 3209.44 -3148.64)
(-95.6816 3242.14 -3148.69)
(-656.952 3176.29 -3148.61)
(-1198.69 3013.92 -3148.59)
(-1703.87 2759.97 -3148.61)
(-2157.3 2422.11 -3148.71)
(-2544.93 2010.91 -3148.6)
(-2855.66 1538.09 -3148.73)
(-3079.26 1019.08 -3148.83)
(-3209.44 469.011 -3148.64)
(-3242.14 -95.6828 -3148.69)
(-3176.29 -656.953 -3148.61)
(-3013.92 -1198.69 -3148.59)
(-2759.97 -1703.87 -3148.61)
(-2422.11 -2157.3 -3148.71)
(-2010.91 -2544.93 -3148.6)
(-1538.09 -2855.66 -3148.73)
(-1019.08 -3079.26 -3148.82)
(-469.011 -3209.44 -3148.64)
(95.6825 -3242.14 -3148.68)
(656.953 -3176.29 -3148.61)
(1198.69 -3013.92 -3148.58)
(-1261.86 -4389.34 -3159.18)
(-480.509 -4541.84 -3158.91)
(315.404 -4556.34 -3159)
(1101.95 -4432.17 -3158.86)
(1854.79 -4173.67 -3158.77)
(2551.35 -3788.18 -3158.8)
(3170.38 -3287.57 -3159.01)
(3693.12 -2687.14 -3158.85)
(4103.61 -2005.1 -3159.12)
(4389.34 -1261.86 -3159.19)
(4541.84 -480.51 -3158.91)
(4556.35 315.403 -3159)
(4432.17 1101.95 -3158.86)
(4173.67 1854.79 -3158.77)
(3788.18 2551.35 -3158.8)
(3287.57 3170.38 -3159.01)
(2687.14 3693.12 -3158.85)
(2005.09 4103.61 -3159.12)
(1261.86 4389.34 -3159.19)
(480.51 4541.84 -3158.91)
(-315.404 4556.34 -3159)
(-1101.95 4432.17 -3158.86)
(-1854.79 4173.67 -3158.77)
(-2551.35 3788.18 -3158.8)
(-3170.38 3287.57 -3159.01)
(-3693.12 2687.14 -3158.85)
(-4103.61 2005.09 -3159.12)
(-4389.34 1261.86 -3159.19)
(-4541.84 480.509 -3158.91)
(-4556.34 -315.404 -3159)
(-4432.17 -1101.95 -3158.86)
(-4173.67 -1854.79 -3158.77)
(-3788.18 -2551.35 -3158.8)
(-3287.57 -3170.38 -3159.01)
(-2687.14 -3693.12 -3158.85)
(-2005.09 -4103.61 -3159.12)
(-4715.55 -6667.82 -2444.4)
(-3486.02 -7385.32 -2444.42)
(-2150.59 -7878.41 -2444.6)
(-749.882 -8132.21 -2444.58)
(673.634 -8138.97 -2444.53)
(2076.71 -7898.39 -2444.52)
(3416.7 -7417.78 -2444.53)
(4652.89 -6711.65 -2444.4)
(5747.61 -5801.65 -2444.49)
(6667.82 -4715.55 -2444.4)
(7385.32 -3486.02 -2444.43)
(7878.41 -2150.59 -2444.6)
(8132.21 -749.883 -2444.58)
(8138.97 673.633 -2444.53)
(7898.39 2076.71 -2444.53)
(7417.78 3416.7 -2444.53)
(6711.65 4652.89 -2444.4)
(5801.65 5747.61 -2444.49)
(4715.55 6667.82 -2444.4)
(3486.02 7385.32 -2444.43)
(2150.59 7878.4 -2444.6)
(749.883 8132.21 -2444.58)
(-673.633 8138.97 -2444.54)
(-2076.71 7898.38 -2444.53)
(-3416.7 7417.77 -2444.53)
(-4652.89 6711.65 -2444.4)
(-5747.61 5801.65 -2444.49)
(-6667.81 4715.55 -2444.4)
(-7385.32 3486.02 -2444.43)
(-7878.4 2150.59 -2444.6)
(-8132.21 749.882 -2444.58)
(-8138.97 -673.634 -2444.53)
(-7898.38 -2076.71 -2444.52)
(-7417.77 -3416.7 -2444.53)
(-6711.65 -4652.89 -2444.4)
(-5801.65 -5747.61 -2444.49)
(-8189.81 -9036.24 -1014.37)
(-6496.37 -10321.1 -1014.52)
(-4605.31 -11292.3 -1014.51)
(-2574.36 -11920.4 -1014.49)
(-465.357 -12186.4 -1014.45)
(1657.86 -12082.1 -1014.38)
(3730.71 -11610.8 -1014.43)
(5690.16 -10786.4 -1014.61)
(7476.76 -9634.4 -1014.43)
(9036.24 -8189.82 -1014.37)
(10321.1 -6496.37 -1014.52)
(11292.3 -4605.31 -1014.51)
(11920.4 -2574.37 -1014.49)
(12186.4 -465.358 -1014.46)
(12082.1 1657.86 -1014.39)
(11610.8 3730.71 -1014.43)
(10786.4 5690.16 -1014.61)
(9634.39 7476.75 -1014.43)
(8189.82 9036.24 -1014.38)
(6496.37 10321.1 -1014.52)
(4605.31 11292.3 -1014.51)
(2574.36 11920.4 -1014.5)
(465.357 12186.4 -1014.46)
(-1657.86 12082.1 -1014.39)
(-3730.71 11610.8 -1014.43)
(-5690.16 10786.4 -1014.61)
(-7476.75 9634.39 -1014.43)
(-9036.24 8189.81 -1014.37)
(-10321.1 6496.37 -1014.52)
(-11292.3 4605.31 -1014.51)
(-11920.4 2574.36 -1014.49)
(-12186.4 465.357 -1014.46)
(-12082.1 -1657.86 -1014.38)
(-11610.8 -3730.71 -1014.43)
(-10786.4 -5690.16 -1014.61)
(-9634.39 -7476.75 -1014.43)
(-10956.2 -10252.1 1211.03)
(-9009.67 -11998.9 1210.81)
(-6789.06 -13381 1210.91)
(-4362.36 -14356.7 1210.93)
(-1803.09 -14896.1 1210.92)
(810.971 -14982.9 1211)
(3400.4 -14614.4 1210.88)
(5886.6 -13802 1210.94)
(8193.87 -12570 1211.16)
(10252.1 -10956.2 1211.03)
(11998.9 -9009.67 1210.8)
(13381 -6789.06 1210.9)
(14356.7 -4362.36 1210.93)
(14896.1 -1803.1 1210.91)
(14982.9 810.969 1211)
(14614.4 3400.4 1210.88)
(13802 5886.6 1210.94)
(12570 8193.87 1211.16)
(10956.2 10252.1 1211.03)
(9009.67 11998.9 1210.8)
(6789.06 13381 1210.9)
(4362.36 14356.7 1210.93)
(1803.1 14896.1 1210.91)
(-810.97 14982.9 1211)
(-3400.4 14614.4 1210.88)
(-5886.6 13802 1210.94)
(-8193.87 12570 1211.16)
(-10252.1 10956.2 1211.03)
(-11998.9 9009.67 1210.81)
(-13381 6789.06 1210.91)
(-14356.7 4362.36 1210.93)
(-14896.1 1803.09 1210.91)
(-14982.9 -810.971 1211)
(-14614.4 -3400.4 1210.88)
(-13802 -5886.6 1210.94)
(-12570 -8193.87 1211.16)
(-11586.9 -8734.86 4140.17)
(-9893.95 -10614.1 4140.08)
(-7900.38 -12170.8 4140.21)
(-5667.11 -13358 4140.18)
(-3261.4 -14139 4140.18)
(-756.608 -14490.6 4140.22)
(1771.18 -14401.6 4140.33)
(4245.13 -13875.5 4140.19)
(6590.25 -12927.7 4140.56)
(8734.86 -11586.9 4140.18)
(10614.1 -9893.95 4140.07)
(12170.8 -7900.38 4140.21)
(13358 -5667.11 4140.17)
(14139 -3261.4 4140.17)
(14490.6 -756.611 4140.22)
(14401.6 1771.17 4140.33)