/*--------------------------------*- C++ -*----------------------------------*\
| =========                 |                                                 |
| \\      /  F ield         | OpenFOAM: The Open Source CFD Toolbox           |
|  \\    /   O peration     | Version:  2412                                  |
|   \\  /    A nd           | Website:  www.openfoam.com                      |
|    \\/     M anipulation  |                                                 |
\*---------------------------------------------------------------------------*/
FoamFile
{
    version     2.0;
    format      ascii;
    arch        "LSB;label=32;scalar=64";
    class       volScalarField;
    location    "0.0149845";
    object      Jsi;
}
// * * * * * * * * * * * * * * * * * * * * * * * * * * * * * * * * * * * * * //

dimensions      [0 0 0 0 0 0 0];

internalField   nonuniform List<scalar> 
8730
(
0
0
0
0
0
0
0
0
0
0
0
0
0
0
0
0
0
0
0
0
0
0
0
0
0
0
0
0
0
0
0
0
0
0
0
0
0
0
0
0
0
0
0
0
0
0
0
0
0
0
0
0
0
0
0
0
0
0
0
0
0
0
0
0
0
0
0
0
0
0
0
0
0
0
0
0
0
0
0
0
0
0
0
0
0
0
0
0
0
0
0
0
0
0
0
0
0
0
0
0
0
0
0
0
0
0
0
0
0
0
0
0
0
0
0
0
0
0
0
0
0
0
0
0
0
0
0
0
0
0
0
0
0
0
0
0
0
0
0
0
0
0
0
0
0
0
0
0
0
0
0
0
0
0
0
0
0
0
0
0
0
0
0
0
0
0
0
0
0
0
0
0
0
0
0
0
0
0
0
0
0
0
0
0
0
0
0
0
0
0
0
0
0
0
0
0
0
0
0
0
0
0
0
0
0
0
0
0
0
0
0
0
0
0
0
0
0
0
0
0
0
0
0
0
0
0
0
0
0
0
0
0
0
0
0
0
0
0
0
0
0
0
0
0
0
0
0
0
0
0
0
0
0
0
0
0
0
0
0
0
0
0
0
0
0
0
0
0
0
0
0
0
0
0
0
0
0
0
0
0
0
0
0
0
0
0
0
0
0
0
0
0
0
0
0
0
0
0
0
0
0
0
0
0
0
0
0
0
0
0
0
0
0
0
0
0
0
0
0
0
0
0
0
0
0
0
0
0
0
0
0
0
0
0
0
0
0
0
0
0
0
0
0
0
0
0
0
0
0
0
0
0
0
0
0
0
0
0
0
0
0
0
0
0
0
0
0
0
0
0
0
0
0
0
0
0
0
0
0
0
0
0
0
0
0
0
0
0
0
0
0
0
0
0
0
0
0
0
0
0
0
0
0
0
0
0
0
0
0
0
0
0
0
0
0
0
0
0
0
0
0
0
0
0
0
0
0
0
0
0
0
0
0
0
0
0
0
0
0
0
0
0
0
0
0
0
0
0
0
0
0
0
0
0
0
0
0
0
0
0
0
0
0
0
0
0
0
0
0
0
0
0
0
0
0
0
0
0
0
0
0
0
0
0
0
0
0
0
0
0
0
0
0
0
0
0
0
0
0
0
0
0
0
0
0
0
0
0
0
0
0
0
0
0
0
0
0
0
0
0
0
0
0
0
0
0
0
0
0
0
0
0
0
0
0
0
0
0
0
0
0
0
0
0
0
0
0
0
0
0
0
0
0
0
0
0
0
0
0
0
0
0
0
0
0
0
0
0
0
0
0
0
0
0
0
0
0
0
0
0
0
0
0
0
0
0
0
0
0
0
0
0
0
0
0
0
0
0
0
0
0
0
0
0
0
0
0
0
0
0
0
0
0
0
0
0
0
0
0
0
0
0
0
0
0
0
0
0
0
0
0
0
0
0
0
0
0
0
0
0
0
0
0
0
0
0
0
0
0
0
0
0
0
0
0
0
0
0
0
0
0
0
0
0
0
0
0
0
0
0
0
0
0
0
0
0
0
0
0
0
0
0
0
0
0
0
0
0
0
0
0
0
0
0
0
0
0
0
0
0
0
0
0
0
0
0
0
0
0
0
0
0
0
0
0
0
0
0
0
0
0
0
0
0
0
0
0
0
0
0
0
0
0
0
0
0
0
0
0
0
0
0
0
0
0
0
0
0
0
0
0
0
0
0
0
0
0
0
0
0
0
0
0
0
0
0
0
0
0
0
0
0
0
0
0
0
0
0
0
0
0
0
0
0
0
0
0
0
0
0
0
0
0
0
0
0
0
0
0
0
0
0
0
0
0
0
0
0
0
0
0
0
0
0
0
0
0
0
0
0
0
0
0
0
0
0
0
0
0
0
0
0
0
0
0
0
0
0
0
0
0
0
0
0
0
0
0
0
0
0
0
0
0
0
0
0
0
0
0
0
0
0
0
0
0
0
0
0
0
0
0
0
0
0
0
0
0
0
0
0
0
0
0
0
0
0
0
0
0
0
0
0
0
0
0
0
0
0
0
0
0
0
0
0
0
0
0
0
0
0
0
0
0
0
0
0
0
0
0
0
0
0
0
0
0
0
0
0
0
0
0
0
0
0
0
0
0
0
0
0
0
0
0
0
0
0
0
0
0
0
0
0
0
0
0
0
0
0
0
0
0
0
0
0
0
0
0
0
0
0
0
0
0
0
0
0
0
0
0
0
0
0
0
0
0
0
0
0
0
0
0
0
0
0
0
0
0
0
0
0
0
0
0
0
0
0
0
0
0
0
0
0
0
0
0
0
0
0
0
0
0
0
0
0
0
0
0
0
0
0
0
0
0
0
0
0
0
0
0
0
0
0
0
0
0
0
0
0
0
0
0
0
0
0
0
0
0
0
0
0
0
0
0
0
0
0
0
0
0
0
0
0
0
0
0
0
0
0
0
0
0
0
0
0
0
0
0
0
0
0
0
0
0
0
0
0
0
0
0
0
0
0
0
0
0
0
0
0
0
0
0
0
0
0
0
0
0
0
0
0
0
0
0
0
0
0
0
0
0
0
0
0
0
0
0
0
0
0
0
0
0
0
0
0
0
0
0
0
0
0
0
0
0
0
0
0
0
0
0
0
0
0
0
0
0
0
0
0
0
0
0
0
0
0
0
0
0
0
0
0
0
0
0
0
0
0
0
0
0
0
0
0
0
0
0
0
0
0
0
0
0
0
0
0
0
0
0
0
0
0
0
0
0
0
0
0
0
0
0
0
0
0
0
0
0
0
0
0
0
0
0
0
0
0
0
0
0
0
0
0
0
0
0
0
0
0
0
0
0
0
0
0
0
0
0
0
0
0
0
0
0
0
0
0
0
0
0
0
0
0
0
0
0
0
0
0
0
0
0
0
0
0
0
0
0
0
0
0
0
0
0
0
0
0
0
0
0
0
0
0
0
0
0
0
0
0
0
0
0
0
0
0
0
0
0
0
0
0
0
0
0
0
0
0
0
0
0
0
0
0
0
0
0
0
0
0
0
0
0
0
0
0
0
0
0
0
0
0
0
0
0
0
0
0
0
0
0
0
0
0
0
0
0
0
0
0
0
0
0
0
0
0
0
0
0
0
0
0
0
0
0
0
0
0
0
0
0
0
0
0
0
0
0
0
0
0
0
0
0
0
0
0
0
0
0
0
0
0
0
0
0
0
0
0
0
0
0
0
0
0
0
0
0
0
0
0
0
0
0
0
0
0
0
0
0
0
0
0
0
0
0
0
0
0
0
0
0
0
0
0
0
0
0
0
0
0
0
0
0
0
0
0
0
0
0
0
0
0
0
0
0
0
0
0
0
0
0
0
0
0
0
0
0
0
0
0
0
0
0
0
0
0
0
0
0
0
0
0
0
0
0
0
0
0
0
0
0
0
0
0
0
0
0
0
0
0
0
0
0
0
0
0
0
0
0
0
0
0
0
0
0
0
0
0
0
0
0
0
0
0
0
0
0
0
0
0
0
0
0
0
0
0
0
0
0
0
0
0
0
0
0
0
0
0
0
0
0
0
0
0
0
0
0
0
0
0
0
0
0
0
0
0
0
0
0
0
0
0
0
0
0
0
0
0
0
0
0
0
0
0
0
0
0
0
0
0
0
0
0
0
0
0
0
0
0
0
0
0
0
0
0
0
0
0
0
0
0
0
0
0
0
0
0
0
0
0
0
0
0
0
0
0
0
0
0
0
0
0
0
0
0
0
0
0
0
0
0
0
0
0
0
0
0
0
0
0
0
0
0
0
0
0
0
0
0
0
0
0
0
0
0
0
0
0
0
0
0
0
0
0
0
0
0
0
0
0
0
0
0
0
0
0
0
0
0
0
0
0
0
0
0
0
0
0
0
0
0
0
0
0
0
0
0
0
0
0
0
0
0
0
0
0
0
0
0
0
0
0
0
0
0
0
0
0
0
0
0
0
0
0
0
0
0
0
0
0
0
0
0
0
0
0
0
0
0
0
0
0
0
0
0
0
0
0
0
0
0
0
0
0
0
0
0
0
0
0
0
0
0
0
0
0
0
0
0
0
0
0
0
0
0
0
0
0
0
0
0
0
0
0
0
0
0
0
0
0
0
0
0
0
0
0
0
0
0
0
0
0
0
0
0
0
0
0
0
0
0
0
0
0
0
0
0
0
0
0
0
0
0
0
0
0
0
0
0
0
0
0
0
0
0
0
0
0
0
0
0
0
0
0
0
0
0
0
0
0
0
0
0
0
0
0
0
0
0
0
0
0
0
0
0
0
0
0
0
0
0
0
0
0
0
0
0
0
0
0
0
0
0
0
0
0
0
0
0
0
0
0
0
0
0
0
0
0
0
0
0
0
0
0
0
0
0
0
0
0
0
0
0
0
0
0
0
0
0
0
0
0
0
0
0
0
0
0
0
0
0
0
0
0
0
0
0
0
0
0
0
0
0
0
0
0
0
0
0
0
0
0
0
0
0
0
0
0
0
0
0
0
0
0
0
0
0
0
0
0
0
0
0
0
0
0
0
0
0
0
0
0
0
0
0
0
0
0
0
0
0
0
0
0
0
0
0
0
0
0
0
0
0
0
0
0
0
0
0
0
0
0
0
0
0
0
0
0
0
0
0
0
0
0
0
0
0
0
0
0
0
0
0
0
0
0
0
0
0
0
0
0
0
0
0
0
0
0
0
0
0
0
0
0
0
0
0
0
0
0
0
0
0
0
0
0
0
0
0
0
0
0
0
0
0
0
0
0
0
0
0
0
0
0
0
0
0
0
0
0
0
0
0
0
0
0
0
0
0
0
0
0
0
0
0
0
0
0
0
0
0
0
0
0
0
0
0
0
0
0
0
0
0
0
0
0
0
0
0
0
0
0
0
0
0
0
0
0
0
0
0
0
0
0
0
0
0
0
0
0
0
0
0
0
0
0
0
0
0
0
0
0
0
0
0
0
0
0
0
0
0
0
0
0
0
0
0
0
0
0
0
0
0
0
0
0
0
0
0
0
0
0
0
0
0
0
0
0
0
0
0
0
0
0
0
0
0
0
0
0
0
0
0
0
0
0
0
0
0
0
0
0
0
0
0
0
0
0
0
0
0
0
0
0
0
0
0
0
0
0
0
0
0
0
0
0
0
0
0
0
0
0
0
0
0
0
0
0
0
0
0
0
0
0
0
0
0
0
0
0
0
0
0
0
0
0
0
0
0
0
0
0
0
0
0
0
0
0
0
0
0
0
0
0
0
0
0
0
0
0
0
0
0
0
0
0
0
0
0
0
0
0
0
0
0
0
0
0
0
0
0
0
0
0
0
0
0
0
0
0
0
0
0
0
0
0
0
0
0
0
0
0
0
0
0
0
0
0
0
0
0
0
0
0
0
0
0
0
0
0
0
0
0
0
0
0
0
0
0
0
0
0
0
0
0
0
0
0
0
0
0
0
0
0
0
0
0
0
0
0
0
0
0
0
0
0
0
0
0
0
0
0
0
0
0
0
0
0
0
0
0
0
0
0
0
0
0
0
0
0
0
0
0
0
0
0
0
0
0
0
0
0
0
0
0
0
0
0
0
0
0
0
0
0
0
0
0
0
0
0
0
0
0
0
0
0
0
0
0
0
0
0
0
0
0
0
0
0
0
0
0
0
0
0
0
0
0
0
0
0
0
0
0
0
0
0
0
0
0
0
0
0
0
0
0
0
0
0
0
0
0
0
0
0
0
0
0
0
0
0
0
0
0
0
0
0
0
0
0
0
0
0
0
0
0
0
0
0
0
0
0
0
0
0
0
0
0
0
0
0
0
0
0
0
0
0
0
0
0
0
0
0
0
0
0
0
0
0
0
0
0
0
0
0
0
0
0
0
0
0
0
0
0
0
0
0
0
0
0
0
0
0
0
0
0
0
0
0
0
0
0
0
0
0
0
0
0
0
0
0
0
0
0
0
0
0
0
0
0
0
0
0
0
0
0
0
0
0
0
0
0
0
0
0
0
0
0
0
0
0
0
0
0
0
0
0
0
0
0
0
0
0
0
0
0
0
0
0
0
0
0
0
0
0
0
0
0
0
0
0
0
0
0
0
0
0
0
0
0
0
0
0
0
0
0
0
0
0
0
0
0
0
0
0
0
0
0
0
0
0
0
0
0
0
0
0
0
0
0
0
0
0
0
0
0
0
0
0
0
0
0
0
0
0
0
0
0
0
0
0
0
0
0
0
0
0
0
0
0
0
0
0
0
0
0
0
0
0
0
0
0
0
0
0
0
0
0
0
0
0
0
0
0
0
0
0
0
0
0
0
0
0
0
0
0
0
0
0
0
0
0
0
0
0
0
0
0
0
0
0
0
0
0
0
0
0
0
0
0
0
0
0
0
0
0
0
0
0
0
0
0
0
0
0
0
0
0
0
0
0
0
0
0
0
0
0
0
0
0
0
0
0
0
0
0
0
0
0
0
0
0
0
0
0
0
0
0
0
0
0
0
0
0
0
0
0
0
0
0
0
0
0
0
0
0
0
0
0
0
0
0
0
0
0
0
0
0
0
0
0
0
0
0
0
0
0
0
0
0
0
0
0
0
0
0
0
0
0
0
0
0
0
0
0
0
0
0
0
0
0
0
0
0
0
0
0
0
0
0
0
0
0
0
0
0
0
0
0
0
0
0
0
0
0
0
0
0
0
0
0
0
0
0
0
0
0
0
0
0
0
0
0
0
0
0
0
0
0
0
0
0
0
0
0
0
0
0
0
0
0
0
0
0
0
0
0
0
0
0
0
0
0
0
0
0
0
0
0
0
0
0
0
0
0
0
0
0
0
0
0
0
0
0
0
0
0
0
0
0
0
0
0
0
0
0
0
0
0
0
0
0
0
0
0
0
0
0
0
0
0
0
0
0
0
0
0
0
0
0
0
0
0
0
0
0
0
0
0
0
0
0
0
0
0
0
0
0
0
0
0
0
0
0
0
0
0
0
0
0
0
0
0
0
0
0
0
0
0
0
0
0
0
0
0
0
0
0
0
0
0
0
0
0
0
0
0
0
0
0
0
0
0
0
0
0
0
0
0
0
0
0
0
0
0
0
0
0
0
0
0
0
0
0
0
0
0
0
0
0
0
0
0
0
0
0
0
0
0
0
0
0
0
0
0
0
0
0
0
0
0
0
0
0
0
0
0
0
0
0
0
0
0
0
0
0
0
0
0
0
0
0
0
0
0
0
0
0
0
0
0
0
0
0
0
0
0
0
0
0
0
0
0
0
0
0
0
0
0
0
0
0
0
0
0
0
0
0
0
0
0
0
0
0
0
0
0
0
0
0
0
0
0
0
0
0
0
0
0
0
0
0
0
0
0
0
0
0
0
0
0
0
0
0
0
0
0
0
0
0
0
0
0
0
0
0
0
0
0
0
0
0
0
0
0
0
0
0
0
0
0
0
0
0
0
0
0
0
0
0
0
0
0
0
0
0
0
0
0
0
0
0
0
0
0
0
0
0
0
0
0
0
0
0
0
0
0
0
0
0
0
0
0
0
0
0
0
0
0
0
0
0
0
0
0
0
0
0
0
0
0
0
0
0
0
0
0
0
0
0
0
0
0
0
0
0
0
0
0
0
0
0
0
0
0
0
0
0
0
0
0
0
0
0
0
0
0
0
0
0
0
0
0
0
0
0
0
0
0
0
0
0
0
0
0
0
0
0
0
0
0
0
0
0
0
0
0
0
0
0
0
0
0
0
0
0
0
0
0
0
0
0
0
0
0
0
0
0
0
0
0
0
0
0
0
0
0
0
0
0
0
0
0
0
0
0
0
0
0
0
0
0
0
0
0
0
0
0
0
0
0
0
0
0
0
0
0
0
0
0
0
0
0
0
0
0
0
0
0
0
0
0
0
0
0
0
0
0
0
0
0
0
0
0
0
0
0
0
0
0
0
0
0
0
0
0
0
0
0
0
0
0
0
0
0
0
0
0
0
0
0
0
0
0
0
0
0
0
0
0
0
0
0
0
0
0
0
0
0
0
0
0
0
0
0
0
0
0
0
0
0
0
0
0
0
0
0
0
0
0
0
0
0
0
0
0
0
0
0
0
0
0
0
0
0
0
0
0
0
0
0
0
0
0
0
0
0
0
0
0
0
0
0
0
0
0
0
0
0
0
0
0
0
0
0
0
0
0
0
0
0
0
0
0
0
0
0
0
0
0
0
0
0
0
0
0
0
0
0
0
0
0
0
0
0
0
0
0
0
0
0
0
0
0
0
0
0
0
0
0
0
0
0
0
0
0
0
0
0
0
0
0
0
0
0
0
0
0
0
0
0
0
0
0
0
0
0
0
0
0
0
0
0
0
0
0
0
0
0
0
0
0
0
0
0
0
0
0
0
0
0
0
0
0
0
0
0
0
0
0
0
0
0
0
0
0
0
0
0
0
0
0
0
0
0
0
0
0
0
0
0
0
0
0
0
0
0
0
0
0
0
0
0
0
0
0
0
0
0
0
0
0
0
0
0
0
0
0
0
0
0
0
0
0
0
0
0
0
0
0
0
0
0
0
0
0
0
0
0
0
0
0
0
0
0
0
0
0
0
0
0
0
0
0
0
0
0
0
0
0
0
0
0
0
0
0
0
0
0
0
0
0
0
0
0
0
0
0
0
0
0
0
0
0
0
0
0
0
0
0
0
0
0
0
0
0
0
0
0
0
0
0
0
0
0
0
0
0
0
0
0
0
0
0
0
0
0
0
0
0
0
0
0
0
0
0
0
0
0
0
0
0
0
0
0
0
0
0
0
0
0
0
0
0
0
0
0
0
0
0
0
0
0
0
0
0
0
0
0
0
0
0
0
0
0
0
0
0
0
0
0
0
0
0
0
0
0
0
0
0
0
0
0
0
0
0
0
0
0
0
0
0
0
0
0
0
0
0
0
0
0
0
0
0
0
0
0
0
0
0
0
0
0
0
0
0
0
0
0
0
0
0
0
0
0
0
0
0
0
0
0
0
0
0
0
0
0
0
0
0
0
0
0
0
0
0
0
0
0
0
0
0
0
0
0
0
0
0
0
0
0
0
0
0
0
0
0
0
0
0
0
0
0
0
0
0
0
0
0
0
0
0
0
0
0
0
0
0
0
0
0
0
0
0
0
0
0
0
0
0
0
0
0
0
0
0
0
0
0
0
0
0
0
0
0
0
0
0
0
0
0
0
0
0
0
0
0
0
0
0
0
0
0
0
0
0
0
0
0
0
0
0
0
0
0
0
0
0
0
0
0
0
0
0
0
0
0
0
0
0
0
0
0
0
0
0
0
0
0
0
0
0
0
0
0
0
0
0
0
0
0
0
0
0
0
0
0
0
0
0
0
0
0
0
0
0
0
0
0
0
0
0
0
0
0
0
0
0
0
0
0
0
0
0
0
0
0
0
0
0
0
0
0
0
0
0
0
0
0
0
0
0
0
0
0
0
0
0
0
0
0
0
0
0
0
0
0
0
0
0
0
0
0
0
0
0
0
0
0
0
0
0
0
0
0
0
0
0
0
0
0
0
0
0
0
0
0
0
0
0
0
0
0
0
0
0
0
0
0
0
0
0
0
0
0
0
0
0
0
0
0
0
0
0
0
0
0
0
0
0
0
0
0
0
0
0
0
0
0
0
0
0
0
0
0
0
0
0
0
0
0
0
0
0
0
0
0
0
0
0
0
0
0
0
0
0
0
0
0
0
0
0
0
0
0
0
0
0
0
0
0
0
0
0
0
0
0
0
0
0
0
0
0
0
0
0
0
0
0
0
0
0
0
0
0
0
0
0
0
0
0
0
0
0
0
0
0
0
0
0
0
0
0
0
0
0
0
0
0
0
0
0
0
0
0
0
0
0
0
0
0
0
0
0
0
0
0
0
0
0
0
0
0
0
0
0
0
0
0
0
0
0
0
0
0
0
0
0
0
0
0
0
0
0
0
0
0
0
0
0
0
0
0
0
0
0
0
0
0
0
0
0
0
0
0
0
0
0
0
0
0
0
0
0
0
0
0
0
0
0
0
0
0
0
0
0
0
0
0
0
0
0
0
0
0
0
0
0
0
0
0
0
0
0
0
0
0
0
0
0
0
0
0
0
0
0
0
0
0
0
0
0
0
0
0
0
0
0
0
0
0
0
0
0
0
0
0
0
0
0
0
0
0
0
0
0
0
0
0
0
0
0
0
0
0
0
0
0
0
0
0
0
0
0
0
0
0
0
0
0
0
0
0
0
0
0
0
0
0
0
0
0
0
0
0
0
0
0
0
0
0
0
0
0
0
0
0
0
0
0
0
0
0
0
0
0
0
0
0
0
0
0
0
0
0
0
0
0
0
0
0
0
0
0
0
0
0
0
0
0
0
0
0
0
0
0
0
0
0
0
0
0
0
0
0
0
0
0
0
0
0
0
0
0
0
0
0
0
0
0
0
0
0
0
0
0
0
0
0
0
0
0
0
0
0
0
0
0
0
0
0
0
0
0
0
0
0
0
0
0
0
0
0
0
0
0
0
0
0
0
0
0
0
0
0
0
0
0
0
0
0
0
0
0
0
0
0
0
0
0
0
0
0
0
0
-0.0136812
-0.0126777
-0.0124291
-0.0122102
0
0
0
0
0
0
0
0
0
0
0
0
0
0
-0.0135365
-0.0126328
-0.0123933
-0.0122728
0
0
0
0
0
0
0
0
0
0
0
0
0
0
-0.013413
-0.0126399
-0.0123304
-0.0122151
0
0
0
0
0
0
0
0
0
0
0
0
0
0
-0.0131142
-0.0126026
-0.0123182
0
0
0
0
0
0
0
0
0
0
0
0
0
0
0
-0.0129625
-0.0125121
-0.0123479
0
0
0
0
0
0
0
0
0
0
0
0
0
0
0
-0.0127016
-0.0124518
-0.0122341
0
0
0
0
0
0
0
0
0
0
0
0
0
0
0
-0.0125806
-0.0123206
0
0
0
0
0
0
0
0
0
0
0
0
0
0
0
0
-0.0123968
-0.0122949
0
0
0
0
0
0
0
0
0
0
0
0
0
0
0
0
-0.0122975
0
0
0
0
0
0
0
0
0
0
0
0
0
0
0
0
0
0
0
0
0
0
0
0
0
0
0
0
0
0
0
0
0
0
0
0
0
0
0
0
0
0
0
0
0
0
0
0
0
0
0
0
0
0
0
0
0
0
0
0
0
0
0
0
0
0
0
0
0
0
0
0
0
0
0
0
0
0
0
0
0
0
0
0
0
0
0
0
0
0
0
0
0
0
0
0
0
0
0
0
0
0
0
0
0
0
0
0
0
0
0
0
0
0
0
0
0
0
0
0
0
0
0
0
0
-0.037766
-0.0316676
-0.0254608
-0.0192171
-0.0140835
-0.0124903
-0.0121633
0
0
0
0
0
0
0
0
0
0
0
-0.0374055
-0.0312874
-0.0250929
-0.0189523
-0.0139007
-0.0124455
-0.0122214
0
0
0
0
0
0
0
0
0
0
0
-0.0368308
-0.0307993
-0.0245224
-0.0184205
-0.0136792
-0.0124539
-0.0121638
0
0
0
0
0
0
0
0
0
0
0
-0.0359255
-0.0298128
-0.0235587
-0.0175402
-0.0133497
-0.012419
-0.0121618
0
0
0
0
0
0
0
0
0
0
0
-0.0344632
-0.0284181
-0.0221737
-0.0163515
-0.0129583
-0.0123352
-0.0121184
0
0
0
0
0
0
0
0
0
0
0
-0.032489
-0.0263661
-0.0202187
-0.0148198
-0.0126928
-0.0122895
0
0
0
0
0
0
0
0
0
0
0
0
-0.0296602
-0.0235776
-0.0177134
-0.0134259
-0.0124397
-0.0121792
0
0
0
0
0
0
0
0
0
0
0
0
-0.0259247
-0.0199649
-0.0147533
-0.0126454
-0.0122594
0
0
0
0
0
0
0
0
0
0
0
0
0
-0.0208289
-0.0155438
-0.0128513
-0.0123689
-0.0121884
0
0
0
0
0
0
0
0
0
0
0
0
0
-0.0151226
-0.0127653
-0.0123547
-0.0122
0
0
0
0
0
0
0
0
0
0
0
0
0
0
-0.0125371
-0.0122388
0
0
0
0
0
0
0
0
0
0
0
0
0
0
0
0
0
0
0
0
0
0
0
0
0
0
0
0
0
0
0
0
0
0
0
0
0
0
0
0
0
0
0
0
0
0
0
0
0
0
0
0
0
0
0
0
0
0
0
0
0
0
0
0
0
0
0
0
0
0
0
0
0
0
0
0
0
0
0
0
0
0
0
0
0
0
0
0
-0.0609179
-0.0547304
-0.0481831
-0.0414627
-0.0345323
-0.0274614
-0.0203691
-0.0142075
-0.0122951
0
0
0
0
0
0
0
0
0
-0.0606877
-0.0543759
-0.0479023
-0.0411983
-0.0342916
-0.0271013
-0.0199968
-0.0140688
-0.0122488
0
0
0
0
0
0
0
0
0
-0.0602089
-0.0540039
-0.0474442
-0.0407129
-0.0336612
-0.0266212
-0.0194888
-0.0137059
-0.012255
0
0
0
0
0
0
0
0
0
-0.0593833
-0.0530874
-0.0466021
-0.0397748
-0.0327955
-0.0255689
-0.0186498
-0.0133284
-0.0122284
0
0
0
0
0
0
0
0
0
-0.0580218
-0.0517854
-0.0451908
-0.0384297
-0.0313642
-0.0243379
-0.0174081
-0.0128769
-0.012154
0
0
0
0
0
0
0
0
0
-0.0561526
-0.0498055
-0.0432774
-0.036423
-0.0294482
-0.0222879
-0.0157889
-0.0125492
-0.012128
0
0
0
0
0
0
0
0
0
-0.0533984
-0.0470019
-0.0403528
-0.0335729
-0.0266438
-0.0197759
-0.0139192
-0.0122756
0
0
0
0
0
0
0
0
0
0
-0.0497006
-0.0432988
-0.0367401
-0.0298989
-0.0230404
-0.01646
-0.0127148
-0.0120927
0
0
0
0
0
0
0
0
0
0
-0.0444119
-0.0379901
-0.0314776
-0.0247323
-0.0181399
-0.0133066
-0.0122135
0
0
0
0
0
0
0
0
0
0
0
-0.0375247
-0.0312042
-0.0246437
-0.0182924
-0.0134061
-0.0123017
0
0
0
0
0
0
0
0
0
0
0
0
-0.0280503
-0.0219209
-0.0161431
-0.0127581
-0.0121572
0
0
0
0
0
0
0
0
0
0
0
0
0
-0.016415
-0.0129263
-0.0122482
0
0
0
0
0
0
0
0
0
0
0
0
0
0
0
-0.0121876
0
0
0
0
0
0
0
0
0
0
0
0
0
0
0
0
0
0
0
0
0
0
0
0
0
0
0
0
0
0
0
0
0
0
0
0
0
0
0
0
0
0
0
0
0
0
0
0
0
0
0
0
0
-0.0798455
-0.0735948
-0.066928
-0.0600463
-0.0528873
-0.0454275
-0.0376893
-0.0297547
-0.0218259
-0.0148238
-0.0122328
0
0
0
0
0
0
0
-0.0795793
-0.0733306
-0.0666855
-0.0597039
-0.0525099
-0.0450365
-0.0373034
-0.0293707
-0.0215472
-0.014557
-0.0121861
0
0
0
0
0
0
0
-0.0791334
-0.0727222
-0.0661362
-0.0592597
-0.0520581
-0.0444425
-0.0366354
-0.0286729
-0.0208807
-0.0141202
-0.0121945
0
0
0
0
0
0
0
-0.0783715
-0.0719667
-0.0653618
-0.0584489
-0.0511121
-0.043569
-0.0357832
-0.0278229
-0.0199849
-0.0136155
-0.0120734
0
0
0
0
0
0
0
-0.0771781
-0.0708336
-0.0641063
-0.0571487
-0.0498789
-0.0422071
-0.0343596
-0.0263994
-0.0187608
-0.0130411
-0.0120945
0
0
0
0
0
0
0
-0.075451
-0.0689744
-0.0622928
-0.0553049
-0.0478171
-0.0402951
-0.0324802
-0.0245675
-0.0170605
-0.0125681
-0.0119748
0
0
0
0
0
0
0
-0.0729564
-0.0664371
-0.0595929
-0.0525447
-0.0452211
-0.0376347
-0.0298408
-0.0220348
-0.0149938
-0.012223
0
0
0
0
0
0
0
0
-0.0694007
-0.0627991
-0.0560023
-0.0487149
-0.0413379
-0.0337467
-0.0260311
-0.0185286
-0.0130067
-0.0121007
0
0
0
0
0
0
0
0
-0.064357
-0.0577276
-0.0508999
-0.0436242
-0.0362642
-0.0287219
-0.021117
-0.0145318
-0.0122383
0
0
0
0
0
0
0
0
0
-0.0573124
-0.0506925
-0.0436926
-0.0366069
-0.0291815
-0.021889
-0.015236
-0.0123483
0
0
0
0
0
0
0
0
0
0
-0.0472721
-0.0406741
-0.0338268
-0.0268146
-0.0199406
-0.0140705
-0.0122197
0
0
0
0
0
0
0
0
0
0
0
-0.0334907
-0.0271964
-0.0208895
-0.0151166
-0.0124401
-0.0120281
0
0
0
0
0
0
0
0
0
0
0
0
-0.0165645
-0.0129774
-0.0122624
0
0
0
0
0
0
0
0
0
0
0
0
0
0
0
0
0
0
0
0
0
0
0
0
0
0
0
0
0
0
0
0
0
0
0
0
0
0
0
0
0
0
0
0
0
0
0
0
0
0
0
-0.094206
-0.0877882
-0.0810941
-0.0739824
-0.0666557
-0.0590157
-0.0509384
-0.0427864
-0.0343189
-0.0257433
-0.0176491
-0.0125429
-0.0119829
0
0
0
0
0
-0.0939141
-0.0875595
-0.0807711
-0.0736266
-0.0663831
-0.0586552
-0.0507998
-0.0424897
-0.0340955
-0.0254084
-0.0173543
-0.0124706
-0.0119554
0
0
0
0
0
-0.0933308
-0.0870113
-0.080284
-0.0732687
-0.0658272
-0.0582568
-0.0502171
-0.0420626
-0.033508
-0.025018
-0.0168743
-0.0124466
0
0
0
0
0
0
-0.0926652
-0.0861941
-0.0795141
-0.0725094
-0.0650574
-0.0573801
-0.049409
-0.0410244
-0.0326255
-0.0240763
-0.0161768
-0.0123575
0
0
0
0
0
0
-0.0915276
-0.0851352
-0.0783376
-0.0712586
-0.0637541
-0.0561269
-0.0480363
-0.0398366
-0.0312637
-0.0228351
-0.0151082
-0.0122211
0
0
0
0
0
0
-0.0900073
-0.0834359
-0.0766526
-0.0695501
-0.0619899
-0.054093
-0.0461157
-0.0376963
-0.0292792
-0.0207694
-0.0138464
-0.0121295
0
0
0
0
0
0
-0.0877967
-0.0811693
-0.0742778
-0.0669624
-0.0593121
-0.0515805
-0.0433843
-0.0351216
-0.0265506
-0.0184715
-0.0127792
-0.0120105
0
0
0
0
0
0
-0.084283
-0.0775773
-0.0706761
-0.0633782
-0.0558088
-0.0478398
-0.0397017
-0.0313616
-0.0229706
-0.0154247
-0.0122011
0
0
0
0
0
0
0
-0.0794127
-0.0725875
-0.0654875
-0.0582247
-0.0506665
-0.0427037
-0.0344714
-0.0262111
-0.018313
-0.0127784
-0.0120204
0
0
0
0
0
0
0
-0.0723318
-0.0654345
-0.0583154
-0.050917
-0.0432373
-0.0353071
-0.0273458
-0.0195995
-0.0134035
-0.0120365
0
0
0
0
0
0
0
0
-0.0619582
-0.0550928
-0.048139
-0.0408149
-0.0332235
-0.0255906
-0.0182859
-0.0129922
-0.0120398
0
0
0
0
0
0
0
0
0
-0.0473956
-0.0407899
-0.0339358
-0.0269088
-0.0200261
-0.0141173
-0.0122271
0
0
0
0
0
0
0
0
0
0
0
-0.0283365
-0.0221578
-0.0163907
-0.0128259
-0.0121753
0
0
0
0
0
0
0
0
0
0
0
0
0
-0.0125182
-0.0122777
0
0
0
0
0
0
0
0
0
0
0
0
0
0
0
0
0
0
0
0
0
0
0
0
0
0
0
0
0
0
0
0
0
0
-0.103814
-0.0974651
-0.0905628
-0.0835223
-0.0761991
-0.0685607
-0.060507
-0.0521144
-0.0435269
-0.0347356
-0.025851
-0.0174418
-0.0125229
0
0
0
0
0
-0.103651
-0.0972691
-0.0905581
-0.0833103
-0.0759271
-0.0682607
-0.0602959
-0.0520231
-0.0432504
-0.034416
-0.0255249
-0.017162
-0.0124591
0
0
0
0
0
-0.103388
-0.0968039
-0.0900834
-0.0830604
-0.0756136
-0.0678104
-0.0597918
-0.0515096
-0.0429589
-0.0341757
-0.0251968
-0.0167793
-0.0123699
0
0
0
0
0
-0.102675
-0.0961786
-0.0894476
-0.0822978
-0.0747887
-0.0670574
-0.0590436
-0.0507483
-0.0420814
-0.0331541
-0.0242424
-0.0160641
-0.012296
0
0
0
0
0
-0.10174
-0.0950908
-0.0883033
-0.0812147
-0.0736986
-0.0658388
-0.057763
-0.0494256
-0.040825
-0.0319104
-0.0229489
-0.0150291
-0.0121759
0
0
0
0
0
-0.100051
-0.0935188
-0.0866926
-0.0794523
-0.0718454
-0.064017
-0.0559174
-0.0475424
-0.0388021
-0.0298578
-0.0210918
-0.0138367
-0.0120959
0
0
0
0
0
-0.0980022
-0.0914217
-0.0843161
-0.0770712
-0.0695263
-0.0615762
-0.0533079
-0.0448429
-0.036161
-0.0273441
-0.0187337
-0.0127901
-0.0119875
0
0
0
0
0
-0.0948933
-0.08804
-0.0810466
-0.0736456
-0.0659119
-0.0579635
-0.0497307
-0.0410277
-0.0323016
-0.0235757
-0.0156609
-0.0122046
0
0
0
0
0
0
-0.0900756
-0.083117
-0.0760669
-0.0686276
-0.0608643
-0.0528753
-0.0444227
-0.0359136
-0.0272912
-0.01878
-0.012887
-0.0120261
0
0
0
0
0
0
-0.0830825
-0.0761654
-0.0689116
-0.0613278
-0.0536595
-0.045534
-0.0373274
-0.028782
-0.0205447
-0.0136818
-0.0120861
0
0
0
0
0
0
0
-0.072398
-0.0655024
-0.0583787
-0.050971
-0.0432814
-0.0353374
-0.027357
-0.0195947
-0.0133944
-0.0120339
0
0
0
0
0
0
0
0
-0.0573384
-0.0508182
-0.043826
-0.0366196
-0.0292541
-0.0219566
-0.0152868
-0.0123568
0
0
0
0
0
0
0
0
0
0
-0.0378559
-0.0315038
-0.0250217
-0.0186388
-0.0135651
-0.0122354
0
0
0
0
0
0
0
0
0
0
0
0
-0.0156058
-0.0128971
-0.0124055
-0.0121452
0
0
0
0
0
0
0
0
0
0
0
0
0
0
0
0
0
0
0
0
0
0
0
0
0
0
0
0
0
0
0
0
-0.11011
-0.103756
-0.0970708
-0.0900565
-0.0827113
-0.075038
-0.067052
-0.0587635
-0.0501847
-0.0413416
-0.0322949
-0.0232309
-0.015105
-0.0121756
0
0
0
0
-0.109866
-0.103473
-0.0967562
-0.0897108
-0.0823489
-0.074671
-0.0666949
-0.0585322
-0.0498779
-0.0410122
-0.0320802
-0.0230719
-0.0149772
-0.0121414
0
0
0
0
-0.109768
-0.103397
-0.0966973
-0.0896636
-0.0823031
-0.0746159
-0.0666111
-0.0583047
-0.0497025
-0.0408415
-0.0317858
-0.0227385
-0.0147475
-0.0121769
0
0
0
0
-0.109174
-0.102769
-0.0960189
-0.088821
-0.0815116
-0.0738178
-0.0656771
-0.0574323
-0.0488483
-0.0399805
-0.0309114
-0.021891
-0.0141449
-0.0120645
0
0
0
0
-0.108275
-0.101828
-0.0950519
-0.0878632
-0.0804258
-0.072667
-0.0645939
-0.0562229
-0.0475612
-0.038642
-0.0296456
-0.0207018
-0.0135198
-0.0120905
0
0
0
0
-0.106624
-0.100053
-0.0931849
-0.086124
-0.0785279
-0.0706751
-0.0625451
-0.0542419
-0.0454626
-0.0364909
-0.027517
-0.0187862
-0.0127491
-0.0119661
0
0
0
0
-0.104721
-0.0981251
-0.0911997
-0.0839523
-0.0763821
-0.068497
-0.0603043
-0.0518227
-0.0430655
-0.034082
-0.0250303
-0.0166016
-0.0123848
0
0
0
0
0
-0.101719
-0.0949538
-0.0879295
-0.0804568
-0.0727573
-0.0647838
-0.0565273
-0.0479952
-0.0392169
-0.0302632
-0.0213964
-0.0139688
-0.0121148
0
0
0
0
0
-0.0969454
-0.0902084
-0.0831416
-0.0755272
-0.0677752
-0.0597591
-0.0514677
-0.042917
-0.0341448
-0.0251882
-0.016814
-0.0123856
0
0
0
0
0
0
-0.090057
-0.0830768
-0.0760075
-0.0685534
-0.0607649
-0.0527545
-0.0442716
-0.0357491
-0.0271246
-0.0187092
-0.0128391
-0.01201
0
0
0
0
0
0
-0.0794465
-0.0726289
-0.0655129
-0.0582269
-0.0506391
-0.0426387
-0.0343675
-0.0261702
-0.0181692
-0.0127295
-0.0120038
0
0
0
0
0
0
0
-0.0646701
-0.0580277
-0.0509566
-0.0438117
-0.0364195
-0.0287259
-0.0211468
-0.0145416
-0.0122357
0
0
0
0
0
0
0
0
0
-0.0450333
-0.0386038
-0.0319622
-0.0252572
-0.0185782
-0.0133905
-0.012238
0
0
0
0
0
0
0
0
0
0
0
-0.0216838
-0.016189
-0.012936
-0.0123395
-0.0121404
0
0
0
0
0
0
0
0
0
0
0
0
0
-0.0123237
0
0
0
0
0
0
0
0
0
0
0
0
0
0
0
0
0
-0.114337
-0.108045
-0.101413
-0.0944396
-0.087125
-0.0794885
-0.0716836
-0.0635872
-0.0550871
-0.0462942
-0.037242
-0.0280286
-0.0190856
-0.012828
-0.0119873
0
0
0
-0.114097
-0.107772
-0.101112
-0.0941276
-0.0869612
-0.0794785
-0.0715719
-0.0633423
-0.0547989
-0.0459654
-0.0368747
-0.027629
-0.0187039
-0.0127134
-0.0120482
0
0
0
-0.113803
-0.107583
-0.100946
-0.09397
-0.0866606
-0.0790169
-0.0710426
-0.0627431
-0.0541443
-0.0454099
-0.0364625
-0.0272727
-0.0184241
-0.0126724
-0.0119977
0
0
0
-0.113116
-0.106886
-0.100257
-0.0932734
-0.0860336
-0.0783803
-0.0703968
-0.0620928
-0.0534721
-0.0445567
-0.0354103
-0.026287
-0.0176563
-0.012532
0
0
0
0
-0.112335
-0.105983
-0.0993529
-0.0923092
-0.0849296
-0.0772196
-0.0691836
-0.0608267
-0.0521571
-0.0432146
-0.0341846
-0.0251112
-0.0165451
-0.0123588
0
0
0
0
-0.110992
-0.104503
-0.0976954
-0.0906895
-0.0832837
-0.075619
-0.0675484
-0.0591648
-0.0504747
-0.0415034
-0.0323187
-0.0231169
-0.0149265
-0.0121462
0
0
0
0
-0.10904
-0.102589
-0.0957253
-0.0885282
-0.0810011
-0.0731502
-0.0649808
-0.0565002
-0.0477209
-0.038688
-0.0296279
-0.0206509
-0.0135205
-0.0120906
0
0
0
0
-0.10587
-0.0992339
-0.0924173
-0.0851951
-0.0776221
-0.069721
-0.0615039
-0.052991
-0.0442021
-0.0352687
-0.0261495
-0.0175149
-0.0125161
0
0
0
0
0
-0.101549
-0.0948506
-0.0877519
-0.0803879
-0.0725668
-0.0645245
-0.0562144
-0.0476372
-0.0388185
-0.0298397
-0.0209859
-0.0137305
-0.0120729
0
0
0
0
0
-0.0947425
-0.0878409
-0.0808163
-0.0734751
-0.0655977
-0.0576047
-0.0493557
-0.0408347
-0.0318854
-0.023104
-0.015268
-0.0122293
0
0
0
0
0
0
-0.084351
-0.0775959
-0.0706408
-0.0633701
-0.0556562
-0.047615
-0.039519
-0.0310423
-0.0227254
-0.0151245
-0.0122375
0
0
0
0
0
0
0
-0.0697382
-0.0631197
-0.0562666
-0.0489378
-0.041501
-0.0338377
-0.0260529
-0.0184937
-0.0130638
-0.0120825
0
0
0
0
0
0
0
0
-0.0501709
-0.0437053
-0.0370837
-0.0301731
-0.0232459
-0.0166904
-0.0127646
-0.0121004
0
0
0
0
0
0
0
0
0
0
-0.0266161
-0.0206578
-0.0152116
-0.0127406
-0.0122992
0
0
0
0
0
0
0
0
0
0
0
0
0
-0.0125785
-0.0123032
0
0
0
0
0
0
0
0
0
0
0
0
0
0
0
0
-0.116808
-0.110722
-0.104201
-0.097332
-0.0901158
-0.0825687
-0.0748177
-0.0666929
-0.0583273
-0.0495755
-0.0405443
-0.0312978
-0.02208
-0.0141917
-0.0120754
0
0
0
-0.116695
-0.110487
-0.103935
-0.0970343
-0.089803
-0.0823815
-0.0746506
-0.0664932
-0.0580122
-0.0492247
-0.0401541
-0.0308863
-0.0218025
-0.0140991
-0.0121288
0
0
0
-0.116245
-0.10999
-0.103545
-0.0967745
-0.0895613
-0.0820032
-0.0741036
-0.0658691
-0.057327
-0.0486436
-0.0397245
-0.0305077
-0.0213687
-0.0137661
-0.012065
0
0
0
-0.115757
-0.10948
-0.102874
-0.096052
-0.0888361
-0.0813485
-0.0734429
-0.0652051
-0.0566414
-0.0477833
-0.0387942
-0.0295876
-0.0205995
-0.0133926
-0.0120567
0
0
0
-0.114906
-0.108561
-0.101889
-0.0950282
-0.0878429
-0.0802236
-0.072265
-0.0639762
-0.0553774
-0.046611
-0.0375449
-0.0283924
-0.0193965
-0.0129255
-0.0120113
0
0
0
-0.113736
-0.107359
-0.100636
-0.0935683
-0.086169
-0.0785782
-0.0706889
-0.0623801
-0.0537541
-0.0448309
-0.0356507
-0.0263441
-0.0176052
-0.0125467
0
0
0
0
-0.111735
-0.105252
-0.0985644
-0.0914768
-0.0841159
-0.0763401
-0.0682363
-0.0598141
-0.0510814
-0.0420742
-0.032999
-0.0239197
-0.0155574
-0.0122467
0
0
0
0
-0.108918
-0.102351
-0.0954539
-0.0882203
-0.080654
-0.0727613
-0.0645638
-0.0562154
-0.0475202
-0.0386361
-0.0294924
-0.0205015
-0.0133985
-0.0120629
0
0
0
0
-0.104256
-0.0976107
-0.0906459
-0.0833575
-0.0757497
-0.067829
-0.059602
-0.0510889
-0.0423101
-0.0333219
-0.0242855
-0.0159913
-0.0122743
0
0
0
0
0
-0.0976978
-0.0910503
-0.0840834
-0.076582
-0.0689532
-0.061054
-0.0528648
-0.0442891
-0.0354412
-0.0265574
-0.018101
-0.0126641
-0.0120131
0
0
0
0
0
-0.0877124
-0.0810928
-0.0740455
-0.0666538
-0.0591649
-0.0512067
-0.0430494
-0.0346576
-0.0262095
-0.0179723
-0.0127027
-0.0119544
0
0
0
0
0
0
-0.0731859
-0.0665914
-0.0596747
-0.0525481
-0.0451581
-0.0375039
-0.0296549
-0.0218047
-0.0147936
-0.0122655
0
0
0
0
0
0
0
0
-0.0538599
-0.0474949
-0.0407811
-0.0339227
-0.0268096
-0.0199051
-0.0139633
-0.0122673
0
0
0
0
0
0
0
0
0
0
-0.030441
-0.0243535
-0.0183075
-0.013683
-0.0124844
-0.0122
0
0
0
0
0
0
0
0
0
0
0
0
-0.0128627
-0.012451
-0.0122192
0
0
0
0
0
0
0
0
0
0
0
0
0
0
0
-0.118286
-0.112277
-0.105831
-0.0990365
-0.0918938
-0.0844181
-0.076741
-0.068682
-0.060374
-0.0516736
-0.0426835
-0.0334539
-0.0241522
-0.0157033
-0.0122886
0
0
0
-0.118187
-0.112058
-0.105583
-0.0987585
-0.0915981
-0.0842457
-0.0765799
-0.0684846
-0.0600649
-0.0513328
-0.0423196
-0.0332008
-0.0239776
-0.0156107
-0.0122482
0
0
0
-0.117749
-0.111569
-0.105197
-0.0984951
-0.0913521
-0.0838622
-0.0760302
-0.0678742
-0.0595321
-0.0509239
-0.0419362
-0.0327248
-0.0234752
-0.0151314
-0.012168
0
0
0
-0.117277
-0.111071
-0.10452
-0.0976367
-0.0905658
-0.0831707
-0.0753397
-0.0671691
-0.0586706
-0.0498707
-0.0409426
-0.0318454
-0.0226515
-0.0145567
-0.012136
0
0
0
-0.116427
-0.110168
-0.103578
-0.0967877
-0.0896734
-0.0821206
-0.0742247
-0.0659952
-0.0574517
-0.0487452
-0.0398094
-0.0305769
-0.0214213
-0.0137878
-0.0120682
0
0
0
-0.115246
-0.109023
-0.102377
-0.0953885
-0.0880647
-0.0805365
-0.0726242
-0.0644552
-0.0558839
-0.04701
-0.0378643
-0.0285497
-0.0195938
-0.0130411
-0.0120445
0
0
0
-0.113386
-0.106965
-0.100221
-0.0932788
-0.0860176
-0.0783243
-0.0702966
-0.0619448
-0.0532765
-0.0443234
-0.0352746
-0.0261494
-0.0174018
-0.0124702
0
0
0
0
-0.110654
-0.104172
-0.0973526
-0.0901992
-0.0827111
-0.0748935
-0.066765
-0.0584611
-0.0498066
-0.0409531
-0.031811
-0.022681
-0.0146514
-0.0121585
0
0
0
0
-0.106137
-0.0995847
-0.0927057
-0.0854988
-0.07797
-0.0701227
-0.0619634
-0.0535087
-0.044779
-0.0358134
-0.0267297
-0.0180518
-0.0126015
-0.0119796
0
0
0
0
-0.0996362
-0.0930882
-0.0861152
-0.0787905
-0.0712409
-0.0633959
-0.0551507
-0.0465837
-0.0378504
-0.0289883
-0.0203048
-0.0134303
-0.0120836
0
0
0
0
0
-0.0897151
-0.0831252
-0.0762558
-0.0689548
-0.0614388
-0.0536155
-0.0453615
-0.0370622
-0.0285214
-0.0201481
-0.0135011
-0.0120292
0
0
0
0
0
0
-0.0753301
-0.0687686
-0.0620045
-0.054953
-0.0476101
-0.0399792
-0.032112
-0.0241637
-0.0166661
-0.0125308
-0.012004
0
0
0
0
0
0
0
-0.0563765
-0.0500259
-0.0433279
-0.0363898
-0.02934
-0.0222006
-0.0156029
-0.0124864
-0.0120854
0
0
0
0
0
0
0
0
0
-0.0330427
-0.0268276
-0.0206481
-0.01507
-0.0127125
-0.0122815
0
0
0
0
0
0
0
0
0
0
0
0
-0.0135684
-0.0125216
-0.0123017
0
0
0
0
0
0
0
0
0
0
0
0
0
0
0
-0.118999
-0.113052
-0.106774
-0.100057
-0.0929856
-0.0855686
-0.0778242
-0.0698833
-0.0615739
-0.0530285
-0.044105
-0.0349276
-0.0256283
-0.0168672
-0.0123498
0
0
0
-0.118982
-0.112991
-0.106579
-0.0998241
-0.092722
-0.0852911
-0.0776686
-0.0697419
-0.0613929
-0.0527286
-0.0437677
-0.0345603
-0.0252514
-0.0166278
-0.012388
0
0
0
-0.11863
-0.112506
-0.10606
-0.0994185
-0.0924445
-0.0850297
-0.077271
-0.0691794
-0.0607758
-0.0521895
-0.0432738
-0.0341959
-0.0249329
-0.0163019
-0.012302
0
0
0
-0.118173
-0.112034
-0.105551
-0.0987218
-0.0915636
-0.084222
-0.0765624
-0.0684711
-0.0600462
-0.051307
-0.0422923
-0.0331867
-0.0240721
-0.0156223
-0.0122472
0
0
0
-0.11734
-0.111148
-0.104615
-0.0977504
-0.0906852
-0.0833002
-0.0754816
-0.0673268
-0.0588496
-0.0500737
-0.0411432
-0.0319608
-0.0228491
-0.014694
-0.0121587
0
0
0
-0.116109
-0.109905
-0.103416
-0.0964982
-0.0892387
-0.0816501
-0.0738563
-0.0656905
-0.0572795
-0.0484764
-0.0393953
-0.0301184
-0.0209524
-0.0135432
-0.012022
0
0
0
-0.114322
-0.107978
-0.101296
-0.0942892
-0.0870802
-0.0794762
-0.0716093
-0.0633342
-0.0547429
-0.045855
-0.0367189
-0.0275514
-0.0186568
-0.0127614
-0.012027
0
0
0
-0.111503
-0.10513
-0.0984781
-0.0914046
-0.0839967
-0.0762574
-0.0681936
-0.0598185
-0.0511407
-0.0421986
-0.0331697
-0.0240422
-0.0157539
-0.012279
0
0
0
0
-0.107321
-0.100827
-0.094011
-0.0868699
-0.0794045
-0.0716178
-0.0635198
-0.0551204
-0.0464361
-0.0375016
-0.02842
-0.0195746
-0.0130456
-0.0120492
0
0
0
0
-0.100855
-0.0941418
-0.0872899
-0.0801446
-0.0726684
-0.0646651
-0.056533
-0.0481456
-0.0395113
-0.0306904
-0.0218174
-0.0142015
-0.0120913
0
0
0
0
0
-0.0910108
-0.0844021
-0.0775823
-0.0704437
-0.0628731
-0.055084
-0.0470056
-0.0386535
-0.0301166
-0.0217075
-0.0142936
-0.0121373
0
0
0
0
0
0
-0.0767415
-0.0703237
-0.0636051
-0.0563738
-0.0490114
-0.0414816
-0.0336225
-0.0256395
-0.0179474
-0.0127682
-0.0120754
0
0
0
0
0
0
0
-0.0579059
-0.0514896
-0.0447946
-0.0379235
-0.0309747
-0.0237479
-0.0168901
-0.0127662
-0.0121616
0
0
0
0
0
0
0
0
0
-0.0347367
-0.0285847
-0.0222481
-0.0163379
-0.0129069
-0.0122856
0
0
0
0
0
0
0
0
0
0
0
0
-0.0144599
-0.0127031
-0.0123044
0
0
0
0
0
0
0
0
0
0
0
0
0
0
0
-0.119581
-0.11355
-0.107177
-0.100462
-0.0934197
-0.086186
-0.0786332
-0.07065
-0.0623398
-0.0537146
-0.0447926
-0.0356264
-0.0264475
-0.0176434
-0.012533
0
0
0
-0.119386
-0.113329
-0.106954
-0.100372
-0.0933825
-0.0861139
-0.0784274
-0.0704094
-0.0620665
-0.053409
-0.0444685
-0.0354185
-0.0262827
-0.0174885
-0.0124761
0
0
0
-0.119058
-0.11312
-0.106753
-0.100041
-0.0929827
-0.0855825
-0.0778548
-0.0699241
-0.0616182
-0.0530752
-0.0441561
-0.0349943
-0.0257183
-0.0169642
-0.0123654
0
0
0
-0.118476
-0.112372
-0.106076
-0.0994488
-0.0923766
-0.0849603
-0.0772022
-0.0691138
-0.0607155
-0.052144
-0.0432403
-0.0341731
-0.0249243
-0.016303