/*--------------------------------*- C++ -*----------------------------------*\
| =========                 |                                                 |
| \\      /  F ield         | OpenFOAM: The Open Source CFD Toolbox           |
|  \\    /   O peration     | Version:  2312                                  |
|   \\  /    A nd           | Website:  www.openfoam.com                      |
|    \\/     M anipulation  |                                                 |
\*---------------------------------------------------------------------------*/
FoamFile
{
    version     2.0;
    format      ascii;
    arch        "LSB;label=32;scalar=64";
    class       volVectorField;
    location    "0.1";
    object      D;
}
// * * * * * * * * * * * * * * * * * * * * * * * * * * * * * * * * * * * * * //

dimensions      [0 1 0 0 0 0 0];

internalField   nonuniform List<vector> 
1620
(
(2.45603e-05 2.14875e-06 -5.81789e-06)
(2.3814e-05 6.38096e-06 -5.81789e-06)
(2.23442e-05 1.04193e-05 -5.8179e-06)
(2.01955e-05 1.4141e-05 -5.81791e-06)
(1.74331e-05 1.74331e-05 -5.81792e-06)
(1.4141e-05 2.01955e-05 -5.81791e-06)
(1.04193e-05 2.23442e-05 -5.8179e-06)
(6.38096e-06 2.3814e-05 -5.81789e-06)
(2.14875e-06 2.45603e-05 -5.81789e-06)
(-2.14875e-06 2.45603e-05 -5.81789e-06)
(-6.38096e-06 2.3814e-05 -5.81789e-06)
(-1.04193e-05 2.23442e-05 -5.8179e-06)
(-1.4141e-05 2.01955e-05 -5.81791e-06)
(-1.74331e-05 1.74331e-05 -5.81792e-06)
(-2.01955e-05 1.4141e-05 -5.81791e-06)
(-2.23442e-05 1.04193e-05 -5.8179e-06)
(-2.3814e-05 6.38096e-06 -5.81789e-06)
(-2.45603e-05 2.14875e-06 -5.81789e-06)
(-2.45603e-05 -2.14875e-06 -5.81789e-06)
(-2.3814e-05 -6.38096e-06 -5.81789e-06)
(-2.23442e-05 -1.04193e-05 -5.8179e-06)
(-2.01955e-05 -1.4141e-05 -5.81791e-06)
(-1.74331e-05 -1.74331e-05 -5.81792e-06)
(-1.4141e-05 -2.01955e-05 -5.81791e-06)
(-1.04193e-05 -2.23442e-05 -5.8179e-06)
(-6.38096e-06 -2.3814e-05 -5.81789e-06)
(-2.14875e-06 -2.45603e-05 -5.81789e-06)
(2.14875e-06 -2.45603e-05 -5.81789e-06)
(6.38096e-06 -2.3814e-05 -5.81789e-06)
(1.04193e-05 -2.23442e-05 -5.8179e-06)
(1.4141e-05 -2.01955e-05 -5.81791e-06)
(1.74331e-05 -1.74331e-05 -5.81792e-06)
(2.01955e-05 -1.4141e-05 -5.81791e-06)
(2.23442e-05 -1.04193e-05 -5.8179e-06)
(2.3814e-05 -6.38096e-06 -5.81789e-06)
(2.45603e-05 -2.14875e-06 -5.81789e-06)
(3.58952e-05 3.14041e-06 -9.43824e-06)
(3.48045e-05 9.32582e-06 -9.43826e-06)
(3.26563e-05 1.52279e-05 -9.43826e-06)
(2.95159e-05 2.06672e-05 -9.43825e-06)
(2.54787e-05 2.54787e-05 -9.43826e-06)
(2.06672e-05 2.95159e-05 -9.43825e-06)
(1.52279e-05 3.26563e-05 -9.43826e-06)
(9.32582e-06 3.48045e-05 -9.43826e-06)
(3.14041e-06 3.58952e-05 -9.43824e-06)
(-3.14041e-06 3.58952e-05 -9.43824e-06)
(-9.32582e-06 3.48045e-05 -9.43826e-06)
(-1.52279e-05 3.26563e-05 -9.43826e-06)
(-2.06672e-05 2.95159e-05 -9.43825e-06)
(-2.54787e-05 2.54787e-05 -9.43826e-06)
(-2.95159e-05 2.06672e-05 -9.43825e-06)
(-3.26563e-05 1.52279e-05 -9.43826e-06)
(-3.48045e-05 9.32582e-06 -9.43826e-06)
(-3.58952e-05 3.14041e-06 -9.43824e-06)
(-3.58952e-05 -3.14041e-06 -9.43824e-06)
(-3.48045e-05 -9.32582e-06 -9.43826e-06)
(-3.26563e-05 -1.52279e-05 -9.43826e-06)
(-2.95159e-05 -2.06672e-05 -9.43825e-06)
(-2.54787e-05 -2.54787e-05 -9.43826e-06)
(-2.06672e-05 -2.95159e-05 -9.43825e-06)
(-1.52279e-05 -3.26563e-05 -9.43826e-06)
(-9.32582e-06 -3.48045e-05 -9.43826e-06)
(-3.14041e-06 -3.58952e-05 -9.43824e-06)
(3.14041e-06 -3.58952e-05 -9.43824e-06)
(9.32582e-06 -3.48045e-05 -9.43826e-06)
(1.52279e-05 -3.26563e-05 -9.43826e-06)
(2.06672e-05 -2.95159e-05 -9.43825e-06)
(2.54787e-05 -2.54787e-05 -9.43826e-06)
(2.95159e-05 -2.06672e-05 -9.43825e-06)
(3.26563e-05 -1.52279e-05 -9.43826e-06)
(3.48045e-05 -9.32582e-06 -9.43826e-06)
(3.58952e-05 -3.14041e-06 -9.43824e-06)
(5.43345e-05 4.75363e-06 -1.24047e-05)
(5.26836e-05 1.41165e-05 -1.24048e-05)
(4.94319e-05 2.30505e-05 -1.24048e-05)
(4.46782e-05 3.1284e-05 -1.24047e-05)
(3.8567e-05 3.8567e-05 -1.24048e-05)
(3.1284e-05 4.46782e-05 -1.24047e-05)
(2.30505e-05 4.94319e-05 -1.24048e-05)
(1.41165e-05 5.26836e-05 -1.24048e-05)
(4.75363e-06 5.43345e-05 -1.24047e-05)
(-4.75363e-06 5.43345e-05 -1.24047e-05)
(-1.41165e-05 5.26836e-05 -1.24048e-05)
(-2.30505e-05 4.94319e-05 -1.24048e-05)
(-3.1284e-05 4.46782e-05 -1.24047e-05)
(-3.8567e-05 3.8567e-05 -1.24048e-05)
(-4.46782e-05 3.1284e-05 -1.24047e-05)
(-4.94319e-05 2.30505e-05 -1.24048e-05)
(-5.26836e-05 1.41165e-05 -1.24048e-05)
(-5.43345e-05 4.75363e-06 -1.24047e-05)
(-5.43345e-05 -4.75363e-06 -1.24047e-05)
(-5.26836e-05 -1.41165e-05 -1.24048e-05)
(-4.94319e-05 -2.30505e-05 -1.24048e-05)
(-4.46782e-05 -3.1284e-05 -1.24047e-05)
(-3.8567e-05 -3.8567e-05 -1.24048e-05)
(-3.1284e-05 -4.46782e-05 -1.24047e-05)
(-2.30505e-05 -4.94319e-05 -1.24048e-05)
(-1.41165e-05 -5.26836e-05 -1.24048e-05)
(-4.75363e-06 -5.43345e-05 -1.24047e-05)
(4.75363e-06 -5.43345e-05 -1.24047e-05)
(1.41165e-05 -5.26836e-05 -1.24048e-05)
(2.30505e-05 -4.94319e-05 -1.24048e-05)
(3.1284e-05 -4.46782e-05 -1.24047e-05)
(3.8567e-05 -3.8567e-05 -1.24048e-05)
(4.46782e-05 -3.1284e-05 -1.24047e-05)
(4.94319e-05 -2.30505e-05 -1.24048e-05)
(5.26836e-05 -1.41165e-05 -1.24048e-05)
(5.43345e-05 -4.75363e-06 -1.24047e-05)
(8.49514e-05 7.43229e-06 -2.24832e-05)
(8.23702e-05 2.20711e-05 -2.24833e-05)
(7.72862e-05 3.60391e-05 -2.24833e-05)
(6.98538e-05 4.89121e-05 -2.24833e-05)
(6.0299e-05 6.0299e-05 -2.24833e-05)
(4.89121e-05 6.98538e-05 -2.24833e-05)
(3.60391e-05 7.72862e-05 -2.24833e-05)
(2.20711e-05 8.23702e-05 -2.24833e-05)
(7.43229e-06 8.49514e-05 -2.24832e-05)
(-7.43229e-06 8.49514e-05 -2.24832e-05)
(-2.20711e-05 8.23702e-05 -2.24833e-05)
(-3.60391e-05 7.72862e-05 -2.24833e-05)
(-4.89121e-05 6.98538e-05 -2.24833e-05)
(-6.0299e-05 6.0299e-05 -2.24833e-05)
(-6.98538e-05 4.89121e-05 -2.24833e-05)
(-7.72862e-05 3.60391e-05 -2.24833e-05)
(-8.23702e-05 2.20711e-05 -2.24833e-05)
(-8.49514e-05 7.43229e-06 -2.24832e-05)
(-8.49514e-05 -7.43229e-06 -2.24832e-05)
(-8.23702e-05 -2.20711e-05 -2.24833e-05)
(-7.72862e-05 -3.60391e-05 -2.24833e-05)
(-6.98538e-05 -4.89121e-05 -2.24833e-05)
(-6.0299e-05 -6.0299e-05 -2.24833e-05)
(-4.89121e-05 -6.98538e-05 -2.24833e-05)
(-3.60391e-05 -7.72862e-05 -2.24833e-05)
(-2.20711e-05 -8.23702e-05 -2.24833e-05)
(-7.43229e-06 -8.49514e-05 -2.24832e-05)
(7.43229e-06 -8.49514e-05 -2.24832e-05)
(2.20711e-05 -8.23702e-05 -2.24833e-05)
(3.60391e-05 -7.72862e-05 -2.24833e-05)
(4.89121e-05 -6.98538e-05 -2.24833e-05)
(6.0299e-05 -6.0299e-05 -2.24833e-05)
(6.98538e-05 -4.89121e-05 -2.24833e-05)
(7.72862e-05 -3.60391e-05 -2.24833e-05)
(8.23702e-05 -2.20711e-05 -2.24833e-05)
(8.49514e-05 -7.43229e-06 -2.24832e-05)
(0.000107176 9.37668e-06 -3.26228e-05)
(0.000103919 2.78451e-05 -3.26228e-05)
(9.75054e-05 4.54674e-05 -3.26228e-05)
(8.81287e-05 6.17083e-05 -3.26228e-05)
(7.60742e-05 7.60742e-05 -3.26228e-05)
(6.17083e-05 8.81287e-05 -3.26228e-05)
(4.54674e-05 9.75054e-05 -3.26228e-05)
(2.78451e-05 0.000103919 -3.26228e-05)
(9.37668e-06 0.000107176 -3.26228e-05)
(-9.37668e-06 0.000107176 -3.26228e-05)
(-2.78451e-05 0.000103919 -3.26228e-05)
(-4.54674e-05 9.75054e-05 -3.26228e-05)
(-6.17083e-05 8.81287e-05 -3.26228e-05)
(-7.60742e-05 7.60742e-05 -3.26228e-05)
(-8.81287e-05 6.17083e-05 -3.26228e-05)
(-9.75054e-05 4.54674e-05 -3.26228e-05)
(-0.000103919 2.78451e-05 -3.26228e-05)
(-0.000107176 9.37668e-06 -3.26228e-05)
(-0.000107176 -9.37668e-06 -3.26228e-05)
(-0.000103919 -2.78451e-05 -3.26228e-05)
(-9.75054e-05 -4.54674e-05 -3.26228e-05)
(-8.81287e-05 -6.17083e-05 -3.26228e-05)
(-7.60742e-05 -7.60742e-05 -3.26228e-05)
(-6.17083e-05 -8.81287e-05 -3.26228e-05)
(-4.54674e-05 -9.75054e-05 -3.26228e-05)
(-2.78451e-05 -0.000103919 -3.26228e-05)
(-9.37668e-06 -0.000107176 -3.26228e-05)
(9.37668e-06 -0.000107176 -3.26228e-05)
(2.78451e-05 -0.000103919 -3.26228e-05)
(4.54674e-05 -9.75054e-05 -3.26228e-05)
(6.17083e-05 -8.81287e-05 -3.26228e-05)
(7.60742e-05 -7.60742e-05 -3.26228e-05)
(8.81287e-05 -6.17083e-05 -3.26228e-05)
(9.75054e-05 -4.54674e-05 -3.26228e-05)
(0.000103919 -2.78451e-05 -3.26228e-05)
(0.000107176 -9.37668e-06 -3.26228e-05)
(0.000139067 1.21668e-05 -4.23067e-05)
(0.000134841 3.61305e-05 -4.23067e-05)
(0.000126518 5.89964e-05 -4.23067e-05)
(0.000114352 8.00698e-05 -4.23066e-05)
(9.87103e-05 9.87103e-05 -4.23066e-05)
(8.00698e-05 0.000114352 -4.23066e-05)
(5.89964e-05 0.000126518 -4.23067e-05)
(3.61305e-05 0.000134841 -4.23067e-05)
(1.21668e-05 0.000139067 -4.23067e-05)
(-1.21668e-05 0.000139067 -4.23067e-05)
(-3.61305e-05 0.000134841 -4.23067e-05)
(-5.89964e-05 0.000126518 -4.23067e-05)
(-8.00698e-05 0.000114352 -4.23066e-05)
(-9.87103e-05 9.87103e-05 -4.23066e-05)
(-0.000114352 8.00698e-05 -4.23066e-05)
(-0.000126518 5.89964e-05 -4.23067e-05)
(-0.000134841 3.61305e-05 -4.23067e-05)
(-0.000139067 1.21668e-05 -4.23067e-05)
(-0.000139067 -1.21668e-05 -4.23067e-05)
(-0.000134841 -3.61305e-05 -4.23067e-05)
(-0.000126518 -5.89964e-05 -4.23067e-05)
(-0.000114352 -8.00698e-05 -4.23066e-05)
(-9.87103e-05 -9.87103e-05 -4.23066e-05)
(-8.00698e-05 -0.000114352 -4.23066e-05)
(-5.89964e-05 -0.000126518 -4.23067e-05)
(-3.61305e-05 -0.000134841 -4.23067e-05)
(-1.21668e-05 -0.000139067 -4.23067e-05)
(1.21668e-05 -0.000139067 -4.23067e-05)
(3.61305e-05 -0.000134841 -4.23067e-05)
(5.89964e-05 -0.000126518 -4.23067e-05)
(8.00698e-05 -0.000114352 -4.23066e-05)
(9.87103e-05 -9.87103e-05 -4.23066e-05)
(0.000114352 -8.00698e-05 -4.23066e-05)
(0.000126518 -5.89964e-05 -4.23067e-05)
(0.000134841 -3.61305e-05 -4.23067e-05)
(0.000139067 -1.21668e-05 -4.23067e-05)
(0.000139114 1.21709e-05 -4.8833e-05)
(0.000134887 3.61428e-05 -4.8833e-05)
(0.000126561 5.90165e-05 -4.88331e-05)
(0.00011439 8.0097e-05 -4.88331e-05)
(9.87438e-05 9.87438e-05 -4.88331e-05)
(8.0097e-05 0.00011439 -4.88331e-05)
(5.90165e-05 0.000126561 -4.88331e-05)
(3.61428e-05 0.000134887 -4.8833e-05)
(1.21709e-05 0.000139114 -4.8833e-05)
(-1.21709e-05 0.000139114 -4.8833e-05)
(-3.61428e-05 0.000134887 -4.8833e-05)
(-5.90165e-05 0.000126561 -4.88331e-05)
(-8.0097e-05 0.00011439 -4.88331e-05)
(-9.87438e-05 9.87438e-05 -4.88331e-05)
(-0.00011439 8.0097e-05 -4.88331e-05)
(-0.000126561 5.90165e-05 -4.88331e-05)
(-0.000134887 3.61428e-05 -4.8833e-05)
(-0.000139114 1.21709e-05 -4.8833e-05)
(-0.000139114 -1.21709e-05 -4.8833e-05)
(-0.000134887 -3.61428e-05 -4.8833e-05)
(-0.000126561 -5.90165e-05 -4.88331e-05)
(-0.00011439 -8.0097e-05 -4.88331e-05)
(-9.87438e-05 -9.87438e-05 -4.88331e-05)
(-8.0097e-05 -0.00011439 -4.88331e-05)
(-5.90165e-05 -0.000126561 -4.88331e-05)
(-3.61428e-05 -0.000134887 -4.8833e-05)
(-1.21709e-05 -0.000139114 -4.8833e-05)
(1.21709e-05 -0.000139114 -4.8833e-05)
(3.61428e-05 -0.000134887 -4.8833e-05)
(5.90165e-05 -0.000126561 -4.88331e-05)
(8.0097e-05 -0.00011439 -4.88331e-05)
(9.87438e-05 -9.87438e-05 -4.88331e-05)
(0.00011439 -8.0097e-05 -4.88331e-05)
(0.000126561 -5.90165e-05 -4.88331e-05)
(0.000134887 -3.61428e-05 -4.8833e-05)
(0.000139114 -1.21709e-05 -4.8833e-05)
(0.000169217 1.48046e-05 -6.2245e-05)
(0.000164075 4.39638e-05 -6.2245e-05)
(0.000153948 7.17872e-05 -6.2245e-05)
(0.000139144 9.74293e-05 -6.2245e-05)
(0.000120111 0.000120111 -6.2245e-05)
(9.74293e-05 0.000139144 -6.2245e-05)
(7.17872e-05 0.000153948 -6.2245e-05)
(4.39638e-05 0.000164075 -6.2245e-05)
(1.48046e-05 0.000169217 -6.2245e-05)
(-1.48046e-05 0.000169217 -6.2245e-05)
(-4.39638e-05 0.000164075 -6.2245e-05)
(-7.17872e-05 0.000153948 -6.2245e-05)
(-9.74293e-05 0.000139144 -6.2245e-05)
(-0.000120111 0.000120111 -6.2245e-05)
(-0.000139144 9.74293e-05 -6.2245e-05)
(-0.000153948 7.17872e-05 -6.2245e-05)
(-0.000164075 4.39638e-05 -6.2245e-05)
(-0.000169217 1.48046e-05 -6.2245e-05)
(-0.000169217 -1.48046e-05 -6.2245e-05)
(-0.000164075 -4.39638e-05 -6.2245e-05)
(-0.000153948 -7.17872e-05 -6.2245e-05)
(-0.000139144 -9.74293e-05 -6.2245e-05)
(-0.000120111 -0.000120111 -6.2245e-05)
(-9.74293e-05 -0.000139144 -6.2245e-05)
(-7.17872e-05 -0.000153948 -6.2245e-05)
(-4.39638e-05 -0.000164075 -6.2245e-05)
(-1.48046e-05 -0.000169217 -6.2245e-05)
(1.48046e-05 -0.000169217 -6.2245e-05)
(4.39638e-05 -0.000164075 -6.2245e-05)
(7.17872e-05 -0.000153948 -6.2245e-05)
(9.74293e-05 -0.000139144 -6.2245e-05)
(0.000120111 -0.000120111 -6.2245e-05)
(0.000139144 -9.74293e-05 -6.2245e-05)
(0.000153948 -7.17872e-05 -6.2245e-05)
(0.000164075 -4.39638e-05 -6.2245e-05)
(0.000169217 -1.48046e-05 -6.2245e-05)
(0.000209307 1.8312e-05 -7.54431e-05)
(0.000202947 5.43795e-05 -7.5443e-05)
(0.000190421 8.87946e-05 -7.54431e-05)
(0.000172109 0.000120512 -7.54431e-05)
(0.000148567 0.000148567 -7.54431e-05)
(0.000120512 0.000172109 -7.54431e-05)
(8.87946e-05 0.000190421 -7.54431e-05)
(5.43795e-05 0.000202947 -7.5443e-05)
(1.8312e-05 0.000209307 -7.54431e-05)
(-1.8312e-05 0.000209307 -7.54431e-05)
(-5.43795e-05 0.000202947 -7.5443e-05)
(-8.87946e-05 0.000190421 -7.54431e-05)
(-0.000120512 0.000172109 -7.54431e-05)
(-0.000148567 0.000148567 -7.54431e-05)
(-0.000172109 0.000120512 -7.54431e-05)
(-0.000190421 8.87946e-05 -7.54431e-05)
(-0.000202947 5.43795e-05 -7.5443e-05)
(-0.000209307 1.8312e-05 -7.54431e-05)
(-0.000209307 -1.8312e-05 -7.54431e-05)
(-0.000202947 -5.43795e-05 -7.5443e-05)
(-0.000190421 -8.87946e-05 -7.54431e-05)
(-0.000172109 -0.000120512 -7.54431e-05)
(-0.000148567 -0.000148567 -7.54431e-05)
(-0.000120512 -0.000172109 -7.54431e-05)
(-8.87946e-05 -0.000190421 -7.54431e-05)
(-5.43795e-05 -0.000202947 -7.5443e-05)
(-1.8312e-05 -0.000209307 -7.54431e-05)
(1.8312e-05 -0.000209307 -7.54431e-05)
(5.43795e-05 -0.000202947 -7.5443e-05)
(8.87946e-05 -0.000190421 -7.54431e-05)
(0.000120512 -0.000172109 -7.54431e-05)
(0.000148567 -0.000148567 -7.54431e-05)
(0.000172109 -0.000120512 -7.54431e-05)
(0.000190421 -8.87946e-05 -7.54431e-05)
(0.000202947 -5.43795e-05 -7.5443e-05)
(0.000209307 -1.8312e-05 -7.54431e-05)
(0.000181519 1.58808e-05 -7.89926e-05)
(0.000176004 4.716e-05 -7.89926e-05)
(0.00016514 7.70062e-05 -7.89926e-05)
(0.00014926 0.000104513 -7.89927e-05)
(0.000128843 0.000128843 -7.89927e-05)
(0.000104513 0.00014926 -7.89927e-05)
(7.70062e-05 0.00016514 -7.89926e-05)
(4.716e-05 0.000176004 -7.89926e-05)
(1.58808e-05 0.000181519 -7.89926e-05)
(-1.58808e-05 0.000181519 -7.89926e-05)
(-4.716e-05 0.000176004 -7.89926e-05)
(-7.70062e-05 0.00016514 -7.89926e-05)
(-0.000104513 0.00014926 -7.89927e-05)
(-0.000128843 0.000128843 -7.89927e-05)
(-0.00014926 0.000104513 -7.89927e-05)
(-0.00016514 7.70062e-05 -7.89926e-05)
(-0.000176004 4.716e-05 -7.89926e-05)
(-0.000181519 1.58808e-05 -7.89926e-05)
(-0.000181519 -1.58808e-05 -7.89926e-05)
(-0.000176004 -4.716e-05 -7.89926e-05)
(-0.00016514 -7.70062e-05 -7.89926e-05)
(-0.00014926 -0.000104513 -7.89927e-05)
(-0.000128843 -0.000128843 -7.89927e-05)
(-0.000104513 -0.00014926 -7.89927e-05)
(-7.70062e-05 -0.00016514 -7.89926e-05)
(-4.716e-05 -0.000176004 -7.89926e-05)
(-1.58808e-05 -0.000181519 -7.89926e-05)
(1.58808e-05 -0.000181519 -7.89926e-05)
(4.716e-05 -0.000176004 -7.89926e-05)
(7.70062e-05 -0.00016514 -7.89926e-05)
(0.000104513 -0.00014926 -7.89927e-05)
(0.000128843 -0.000128843 -7.89927e-05)
(0.00014926 -0.000104513 -7.89927e-05)
(0.00016514 -7.70062e-05 -7.89926e-05)
(0.000176004 -4.716e-05 -7.89926e-05)
(0.000181519 -1.58808e-05 -7.89926e-05)
(0.000215524 1.88559e-05 -9.30205e-05)
(0.000208975 5.59948e-05 -9.30205e-05)
(0.000196077 9.14322e-05 -9.30206e-05)
(0.000177221 0.000124092 -9.30206e-05)
(0.00015298 0.00015298 -9.30206e-05)
(0.000124092 0.000177221 -9.30206e-05)
(9.14322e-05 0.000196077 -9.30206e-05)
(5.59948e-05 0.000208975 -9.30205e-05)
(1.88559e-05 0.000215524 -9.30205e-05)
(-1.88559e-05 0.000215524 -9.30205e-05)
(-5.59948e-05 0.000208975 -9.30205e-05)
(-9.14322e-05 0.000196077 -9.30206e-05)
(-0.000124092 0.000177221 -9.30206e-05)
(-0.00015298 0.00015298 -9.30206e-05)
(-0.000177221 0.000124092 -9.30206e-05)
(-0.000196077 9.14322e-05 -9.30206e-05)
(-0.000208975 5.59948e-05 -9.30205e-05)
(-0.000215524 1.88559e-05 -9.30205e-05)
(-0.000215524 -1.88559e-05 -9.30205e-05)
(-0.000208975 -5.59948e-05 -9.30205e-05)
(-0.000196077 -9.14322e-05 -9.30206e-05)
(-0.000177221 -0.000124092 -9.30206e-05)
(-0.00015298 -0.00015298 -9.30206e-05)
(-0.000124092 -0.000177221 -9.30206e-05)
(-9.14322e-05 -0.000196077 -9.30206e-05)
(-5.59948e-05 -0.000208975 -9.30205e-05)
(-1.88559e-05 -0.000215524 -9.30205e-05)
(1.88559e-05 -0.000215524 -9.30205e-05)
(5.59948e-05 -0.000208975 -9.30205e-05)
(9.14322e-05 -0.000196077 -9.30206e-05)
(0.000124092 -0.000177221 -9.30206e-05)
(0.00015298 -0.00015298 -9.30206e-05)
(0.000177221 -0.000124092 -9.30206e-05)
(0.000196077 -9.14322e-05 -9.30206e-05)
(0.000208975 -5.59948e-05 -9.30205e-05)
(0.000215524 -1.88559e-05 -9.30205e-05)
(0.000259562 2.27087e-05 -0.000107228)
(0.000251675 6.74361e-05 -0.000107228)
(0.000236141 0.000110114 -0.000107228)
(0.000213433 0.000149447 -0.000107228)
(0.000184239 0.000184239 -0.000107228)
(0.000149447 0.000213433 -0.000107228)
(0.000110114 0.000236141 -0.000107228)
(6.74361e-05 0.000251675 -0.000107228)
(2.27087e-05 0.000259562 -0.000107228)
(-2.27087e-05 0.000259562 -0.000107228)
(-6.74361e-05 0.000251675 -0.000107228)
(-0.000110114 0.000236141 -0.000107228)
(-0.000149447 0.000213433 -0.000107228)
(-0.000184239 0.000184239 -0.000107228)
(-0.000213433 0.000149447 -0.000107228)
(-0.000236141 0.000110114 -0.000107228)
(-0.000251675 6.74361e-05 -0.000107228)
(-0.000259562 2.27087e-05 -0.000107228)
(-0.000259562 -2.27087e-05 -0.000107228)
(-0.000251675 -6.74361e-05 -0.000107228)
(-0.000236141 -0.000110114 -0.000107228)
(-0.000213433 -0.000149447 -0.000107228)
(-0.000184239 -0.000184239 -0.000107228)
(-0.000149447 -0.000213433 -0.000107228)
(-0.000110114 -0.000236141 -0.000107228)
(-6.74361e-05 -0.000251675 -0.000107228)
(-2.27087e-05 -0.000259562 -0.000107228)
(2.27087e-05 -0.000259562 -0.000107228)
(6.74361e-05 -0.000251675 -0.000107228)
(0.000110114 -0.000236141 -0.000107228)
(0.000149447 -0.000213433 -0.000107228)
(0.000184239 -0.000184239 -0.000107228)
(0.000213433 -0.000149447 -0.000107228)
(0.000236141 -0.000110114 -0.000107228)
(0.000251675 -6.74361e-05 -0.000107228)
(0.000259562 -2.27087e-05 -0.000107228)
(0.000208408 1.82333e-05 -0.000108391)
(0.000202075 5.4146e-05 -0.000108391)
(0.000189603 8.84134e-05 -0.000108391)
(0.00017137 0.000119994 -0.000108391)
(0.000147929 0.000147929 -0.000108391)
(0.000119994 0.00017137 -0.000108391)
(8.84134e-05 0.000189603 -0.000108391)
(5.4146e-05 0.000202075 -0.000108391)
(1.82333e-05 0.000208408 -0.000108391)
(-1.82333e-05 0.000208408 -0.000108391)
(-5.4146e-05 0.000202075 -0.000108391)
(-8.84134e-05 0.000189603 -0.000108391)
(-0.000119994 0.00017137 -0.000108391)
(-0.000147929 0.000147929 -0.000108391)
(-0.00017137 0.000119994 -0.000108391)
(-0.000189603 8.84134e-05 -0.000108391)
(-0.000202075 5.4146e-05 -0.000108391)
(-0.000208408 1.82333e-05 -0.000108391)
(-0.000208408 -1.82333e-05 -0.000108391)
(-0.000202075 -5.4146e-05 -0.000108391)
(-0.000189603 -8.84134e-05 -0.000108391)
(-0.00017137 -0.000119994 -0.000108391)
(-0.000147929 -0.000147929 -0.000108391)
(-0.000119994 -0.00017137 -0.000108391)
(-8.84134e-05 -0.000189603 -0.000108391)
(-5.4146e-05 -0.000202075 -0.000108391)
(-1.82333e-05 -0.000208408 -0.000108391)
(1.82333e-05 -0.000208408 -0.000108391)
(5.4146e-05 -0.000202075 -0.000108391)
(8.84134e-05 -0.000189603 -0.000108391)
(0.000119994 -0.00017137 -0.000108391)
(0.000147929 -0.000147929 -0.000108391)
(0.00017137 -0.000119994 -0.000108391)
(0.000189603 -8.84134e-05 -0.000108391)
(0.000202075 -5.4146e-05 -0.000108391)
(0.000208408 -1.82333e-05 -0.000108391)
(0.000243531 2.13062e-05 -0.000121516)
(0.000236131 6.32711e-05 -0.000121516)
(0.000221557 0.000103314 -0.000121516)
(0.000200251 0.000140217 -0.000121516)
(0.00017286 0.00017286 -0.000121516)
(0.000140217 0.000200251 -0.000121516)
(0.000103314 0.000221557 -0.000121516)
(6.32711e-05 0.000236131 -0.000121516)
(2.13062e-05 0.000243531 -0.000121516)
(-2.13062e-05 0.000243531 -0.000121516)
(-6.32711e-05 0.000236131 -0.000121516)
(-0.000103314 0.000221557 -0.000121516)
(-0.000140217 0.000200251 -0.000121516)
(-0.00017286 0.00017286 -0.000121516)
(-0.000200251 0.000140217 -0.000121516)
(-0.000221557 0.000103314 -0.000121516)
(-0.000236131 6.32711e-05 -0.000121516)
(-0.000243531 2.13062e-05 -0.000121516)
(-0.000243531 -2.13062e-05 -0.000121516)
(-0.000236131 -6.32711e-05 -0.000121516)
(-0.000221557 -0.000103314 -0.000121516)
(-0.000200251 -0.000140217 -0.000121516)
(-0.00017286 -0.00017286 -0.000121516)
(-0.000140217 -0.000200251 -0.000121516)
(-0.000103314 -0.000221557 -0.000121516)
(-6.32711e-05 -0.000236131 -0.000121516)
(-2.13062e-05 -0.000243531 -0.000121516)
(2.13062e-05 -0.000243531 -0.000121516)
(6.32711e-05 -0.000236131 -0.000121516)
(0.000103314 -0.000221557 -0.000121516)
(0.000140217 -0.000200251 -0.000121516)
(0.00017286 -0.00017286 -0.000121516)
(0.000200251 -0.000140217 -0.000121516)
(0.000221557 -0.000103314 -0.000121516)
(0.000236131 -6.32711e-05 -0.000121516)
(0.000243531 -2.13062e-05 -0.000121516)
(0.000288872 2.52731e-05 -0.000135338)
(0.000280095 7.50512e-05 -0.000135338)
(0.000262807 0.000122549 -0.000135338)
(0.000237534 0.000166323 -0.000135338)
(0.000205044 0.000205044 -0.000135338)
(0.000166323 0.000237534 -0.000135338)
(0.000122549 0.000262807 -0.000135338)
(7.50512e-05 0.000280095 -0.000135338)
(2.52731e-05 0.000288872 -0.000135338)
(-2.52731e-05 0.000288872 -0.000135338)
(-7.50512e-05 0.000280095 -0.000135338)
(-0.000122549 0.000262807 -0.000135338)
(-0.000166323 0.000237534 -0.000135338)
(-0.000205044 0.000205044 -0.000135338)
(-0.000237534 0.000166323 -0.000135338)
(-0.000262807 0.000122549 -0.000135338)
(-0.000280095 7.50512e-05 -0.000135338)
(-0.000288872 2.52731e-05 -0.000135338)
(-0.000288872 -2.52731e-05 -0.000135338)
(-0.000280095 -7.50512e-05 -0.000135338)
(-0.000262807 -0.000122549 -0.000135338)
(-0.000237534 -0.000166323 -0.000135338)
(-0.000205044 -0.000205044 -0.000135338)
(-0.000166323 -0.000237534 -0.000135338)
(-0.000122549 -0.000262807 -0.000135338)
(-7.50512e-05 -0.000280095 -0.000135338)
(-2.52731e-05 -0.000288872 -0.000135338)
(2.52731e-05 -0.000288872 -0.000135338)
(7.50512e-05 -0.000280095 -0.000135338)
(0.000122549 -0.000262807 -0.000135338)
(0.000166323 -0.000237534 -0.000135338)
(0.000205044 -0.000205044 -0.000135338)
(0.000237534 -0.000166323 -0.000135338)
(0.000262807 -0.000122549 -0.000135338)
(0.000280095 -7.50512e-05 -0.000135338)
(0.000288872 -2.52731e-05 -0.000135338)
(0.000218565 1.9122e-05 -0.000133907)
(0.000211924 5.67848e-05 -0.000133907)
(0.000198843 9.27223e-05 -0.000133908)
(0.000179722 0.000125842 -0.000133908)
(0.000155139 0.000155139 -0.000133908)
(0.000125842 0.000179722 -0.000133908)
(9.27223e-05 0.000198843 -0.000133908)
(5.67848e-05 0.000211924 -0.000133907)
(1.9122e-05 0.000218565 -0.000133907)
(-1.9122e-05 0.000218565 -0.000133907)
(-5.67848e-05 0.000211924 -0.000133907)
(-9.27223e-05 0.000198843 -0.000133908)
(-0.000125842 0.000179722 -0.000133908)
(-0.000155139 0.000155139 -0.000133908)
(-0.000179722 0.000125842 -0.000133908)
(-0.000198843 9.27223e-05 -0.000133908)
(-0.000211924 5.67848e-05 -0.000133907)
(-0.000218565 1.9122e-05 -0.000133907)
(-0.000218565 -1.9122e-05 -0.000133907)
(-0.000211924 -5.67848e-05 -0.000133907)
(-0.000198843 -9.27223e-05 -0.000133908)
(-0.000179722 -0.000125842 -0.000133908)
(-0.000155139 -0.000155139 -0.000133908)
(-0.000125842 -0.000179722 -0.000133908)
(-9.27223e-05 -0.000198843 -0.000133908)
(-5.67848e-05 -0.000211924 -0.000133907)
(-1.9122e-05 -0.000218565 -0.000133907)
(1.9122e-05 -0.000218565 -0.000133907)
(5.67848e-05 -0.000211924 -0.000133907)
(9.27223e-05 -0.000198843 -0.000133908)
(0.000125842 -0.000179722 -0.000133908)
(0.000155139 -0.000155139 -0.000133908)
(0.000179722 -0.000125842 -0.000133908)
(0.000198843 -9.27223e-05 -0.000133908)
(0.000211924 -5.67848e-05 -0.000133907)
(0.000218565 -1.9122e-05 -0.000133907)
(0.000253175 2.215e-05 -0.000145486)
(0.000245482 6.57769e-05 -0.000145486)
(0.000230331 0.000107405 -0.000145486)
(0.000208181 0.00014577 -0.000145486)
(0.000179705 0.000179705 -0.000145487)
(0.00014577 0.000208181 -0.000145486)
(0.000107405 0.000230331 -0.000145486)
(6.57769e-05 0.000245482 -0.000145486)
(2.215e-05 0.000253175 -0.000145486)
(-2.215e-05 0.000253175 -0.000145486)
(-6.57769e-05 0.000245482 -0.000145486)
(-0.000107405 0.000230331 -0.000145486)
(-0.00014577 0.000208181 -0.000145486)
(-0.000179705 0.000179705 -0.000145487)
(-0.000208181 0.00014577 -0.000145486)
(-0.000230331 0.000107405 -0.000145486)
(-0.000245482 6.57769e-05 -0.000145486)
(-0.000253175 2.215e-05 -0.000145486)
(-0.000253175 -2.215e-05 -0.000145486)
(-0.000245482 -6.57769e-05 -0.000145486)
(-0.000230331 -0.000107405 -0.000145486)
(-0.000208181 -0.00014577 -0.000145486)
(-0.000179705 -0.000179705 -0.000145487)
(-0.00014577 -0.000208181 -0.000145486)
(-0.000107405 -0.000230331 -0.000145486)
(-6.57769e-05 -0.000245482 -0.000145486)
(-2.215e-05 -0.000253175 -0.000145486)
(2.215e-05 -0.000253175 -0.000145486)
(6.57769e-05 -0.000245482 -0.000145486)
(0.000107405 -0.000230331 -0.000145486)
(0.00014577 -0.000208181 -0.000145486)
(0.000179705 -0.000179705 -0.000145487)
(0.000208181 -0.00014577 -0.000145486)
(0.000230331 -0.000107405 -0.000145486)
(0.000245482 -6.57769e-05 -0.000145486)
(0.000253175 -2.215e-05 -0.000145486)
(0.000298303 2.60982e-05 -0.000158393)
(0.00028924 7.75016e-05 -0.000158393)
(0.000271387 0.00012655 -0.000158393)
(0.000245289 0.000171753 -0.000158393)
(0.000211738 0.000211738 -0.000158393)
(0.000171753 0.000245289 -0.000158393)
(0.00012655 0.000271387 -0.000158393)
(7.75016e-05 0.00028924 -0.000158393)
(2.60982e-05 0.000298303 -0.000158393)
(-2.60982e-05 0.000298303 -0.000158393)
(-7.75016e-05 0.00028924 -0.000158393)
(-0.00012655 0.000271387 -0.000158393)
(-0.000171753 0.000245289 -0.000158393)
(-0.000211738 0.000211738 -0.000158393)
(-0.000245289 0.000171753 -0.000158393)
(-0.000271387 0.00012655 -0.000158393)
(-0.00028924 7.75016e-05 -0.000158393)
(-0.000298303 2.60982e-05 -0.000158393)
(-0.000298303 -2.60982e-05 -0.000158393)
(-0.00028924 -7.75016e-05 -0.000158393)
(-0.000271387 -0.00012655 -0.000158393)
(-0.000245289 -0.000171753 -0.000158393)
(-0.000211738 -0.000211738 -0.000158393)
(-0.000171753 -0.000245289 -0.000158393)
(-0.00012655 -0.000271387 -0.000158393)
(-7.75016e-05 -0.00028924 -0.000158393)
(-2.60982e-05 -0.000298303 -0.000158393)
(2.60982e-05 -0.000298303 -0.000158393)
(7.75016e-05 -0.00028924 -0.000158393)
(0.00012655 -0.000271387 -0.000158393)
(0.000171753 -0.000245289 -0.000158393)
(0.000211738 -0.000211738 -0.000158393)
(0.000245289 -0.000171753 -0.000158393)
(0.000271387 -0.00012655 -0.000158393)
(0.00028924 -7.75016e-05 -0.000158393)
(0.000298303 -2.60982e-05 -0.000158393)
(0.000212745 1.86128e-05 -0.000153689)
(0.000206281 5.52728e-05 -0.000153689)
(0.000193549 9.02533e-05 -0.000153689)
(0.000174936 0.000122492 -0.000153689)
(0.000151008 0.000151008 -0.000153689)
(0.000122492 0.000174936 -0.000153689)
(9.02533e-05 0.000193549 -0.000153689)
(5.52728e-05 0.000206281 -0.000153689)
(1.86128e-05 0.000212745 -0.000153689)
(-1.86128e-05 0.000212745 -0.000153689)
(-5.52728e-05 0.000206281 -0.000153689)
(-9.02533e-05 0.000193549 -0.000153689)
(-0.000122492 0.000174936 -0.000153689)
(-0.000151008 0.000151008 -0.000153689)
(-0.000174936 0.000122492 -0.000153689)
(-0.000193549 9.02533e-05 -0.000153689)
(-0.000206281 5.52728e-05 -0.000153689)
(-0.000212745 1.86128e-05 -0.000153689)
(-0.000212745 -1.86128e-05 -0.000153689)
(-0.000206281 -5.52728e-05 -0.000153689)
(-0.000193549 -9.02533e-05 -0.000153689)
(-0.000174936 -0.000122492 -0.000153689)
(-0.000151008 -0.000151008 -0.000153689)
(-0.000122492 -0.000174936 -0.000153689)
(-9.02533e-05 -0.000193549 -0.000153689)
(-5.52728e-05 -0.000206281 -0.000153689)
(-1.86128e-05 -0.000212745 -0.000153689)
(1.86128e-05 -0.000212745 -0.000153689)
(5.52728e-05 -0.000206281 -0.000153689)
(9.02533e-05 -0.000193549 -0.000153689)
(0.000122492 -0.000174936 -0.000153689)
(0.000151008 -0.000151008 -0.000153689)
(0.000174936 -0.000122492 -0.000153689)
(0.000193549 -9.02533e-05 -0.000153689)
(0.000206281 -5.52728e-05 -0.000153689)
(0.000212745 -1.86128e-05 -0.000153689)
(0.000246025 2.15244e-05 -0.000163662)
(0.00023855 6.39194e-05 -0.000163662)
(0.000223826 0.000104372 -0.000163662)
(0.000202302 0.000141654 -0.000163662)
(0.000174631 0.000174631 -0.000163662)
(0.000141654 0.000202302 -0.000163662)
(0.000104372 0.000223826 -0.000163662)
(6.39194e-05 0.00023855 -0.000163662)
(2.15244e-05 0.000246025 -0.000163662)
(-2.15244e-05 0.000246025 -0.000163662)
(-6.39194e-05 0.00023855 -0.000163662)
(-0.000104372 0.000223826 -0.000163662)
(-0.000141654 0.000202302 -0.000163662)
(-0.000174631 0.000174631 -0.000163662)
(-0.000202302 0.000141654 -0.000163662)
(-0.000223826 0.000104372 -0.000163662)
(-0.00023855 6.39194e-05 -0.000163662)
(-0.000246025 2.15244e-05 -0.000163662)
(-0.000246025 -2.15244e-05 -0.000163662)
(-0.00023855 -6.39194e-05 -0.000163662)
(-0.000223826 -0.000104372 -0.000163662)
(-0.000202302 -0.000141654 -0.000163662)
(-0.000174631 -0.000174631 -0.000163662)
(-0.000141654 -0.000202302 -0.000163662)
(-0.000104372 -0.000223826 -0.000163662)
(-6.39194e-05 -0.00023855 -0.000163662)
(-2.15244e-05 -0.000246025 -0.000163662)
(2.15244e-05 -0.000246025 -0.000163662)
(6.39194e-05 -0.00023855 -0.000163662)
(0.000104372 -0.000223826 -0.000163662)
(0.000141654 -0.000202302 -0.000163662)
(0.000174631 -0.000174631 -0.000163662)
(0.000202302 -0.000141654 -0.000163662)
(0.000223826 -0.000104372 -0.000163662)
(0.00023855 -6.39194e-05 -0.000163662)
(0.000246025 -2.15244e-05 -0.000163662)
(0.000290165 2.53863e-05 -0.000175703)
(0.000281349 7.53872e-05 -0.000175703)
(0.000263983 0.000123098 -0.000175703)
(0.000238597 0.000167068 -0.000175703)
(0.000205962 0.000205962 -0.000175703)
(0.000167068 0.000238597 -0.000175703)
(0.000123098 0.000263983 -0.000175703)
(7.53872e-05 0.000281349 -0.000175703)
(2.53863e-05 0.000290165 -0.000175703)
(-2.53863e-05 0.000290165 -0.000175703)
(-7.53872e-05 0.000281349 -0.000175703)
(-0.000123098 0.000263983 -0.000175703)
(-0.000167068 0.000238597 -0.000175703)
(-0.000205962 0.000205962 -0.000175703)