/*--------------------------------*- C++ -*----------------------------------*\
| =========                 |                                                 |
| \\      /  F ield         | OpenFOAM: The Open Source CFD Toolbox           |
|  \\    /   O peration     | Version:  2312                                  |
|   \\  /    A nd           | Website:  www.openfoam.com                      |
|    \\/     M anipulation  |                                                 |
\*---------------------------------------------------------------------------*/
FoamFile
{
    version     2.0;
    format      ascii;
    arch        "LSB;label=32;scalar=64";
    class       volVectorField;
    location    "0.1";
    object      D_0;
}
// * * * * * * * * * * * * * * * * * * * * * * * * * * * * * * * * * * * * * //

dimensions      [0 1 0 0 0 0 0];

internalField   nonuniform List<vector> 
1620
(
(2.19738e-05 1.92246e-06 -5.10587e-06)
(2.13061e-05 5.70897e-06 -5.10588e-06)
(1.99911e-05 9.32198e-06 -5.10589e-06)
(1.80686e-05 1.26518e-05 -5.1059e-06)
(1.55972e-05 1.55972e-05 -5.1059e-06)
(1.26518e-05 1.80686e-05 -5.1059e-06)
(9.32198e-06 1.99911e-05 -5.10589e-06)
(5.70897e-06 2.13061e-05 -5.10588e-06)
(1.92246e-06 2.19738e-05 -5.10587e-06)
(-1.92246e-06 2.19738e-05 -5.10587e-06)
(-5.70897e-06 2.13061e-05 -5.10588e-06)
(-9.32198e-06 1.99911e-05 -5.10589e-06)
(-1.26518e-05 1.80686e-05 -5.1059e-06)
(-1.55972e-05 1.55972e-05 -5.1059e-06)
(-1.80686e-05 1.26518e-05 -5.1059e-06)
(-1.99911e-05 9.32198e-06 -5.10589e-06)
(-2.13061e-05 5.70897e-06 -5.10588e-06)
(-2.19738e-05 1.92246e-06 -5.10587e-06)
(-2.19738e-05 -1.92246e-06 -5.10587e-06)
(-2.13061e-05 -5.70897e-06 -5.10588e-06)
(-1.99911e-05 -9.32198e-06 -5.10589e-06)
(-1.80686e-05 -1.26518e-05 -5.1059e-06)
(-1.55972e-05 -1.55972e-05 -5.1059e-06)
(-1.26518e-05 -1.80686e-05 -5.1059e-06)
(-9.32198e-06 -1.99911e-05 -5.10589e-06)
(-5.70897e-06 -2.13061e-05 -5.10588e-06)
(-1.92246e-06 -2.19738e-05 -5.10587e-06)
(1.92246e-06 -2.19738e-05 -5.10587e-06)
(5.70897e-06 -2.13061e-05 -5.10588e-06)
(9.32198e-06 -1.99911e-05 -5.10589e-06)
(1.26518e-05 -1.80686e-05 -5.1059e-06)
(1.55972e-05 -1.55972e-05 -5.1059e-06)
(1.80686e-05 -1.26518e-05 -5.1059e-06)
(1.99911e-05 -9.32198e-06 -5.10589e-06)
(2.13061e-05 -5.70897e-06 -5.10588e-06)
(2.19738e-05 -1.92246e-06 -5.10587e-06)
(3.20434e-05 2.80342e-06 -8.38809e-06)
(3.10698e-05 8.32509e-06 -8.38811e-06)
(2.9152e-05 1.35938e-05 -8.3881e-06)
(2.63486e-05 1.84495e-05 -8.3881e-06)
(2.27446e-05 2.27446e-05 -8.38811e-06)
(1.84495e-05 2.63486e-05 -8.3881e-06)
(1.35938e-05 2.9152e-05 -8.3881e-06)
(8.32509e-06 3.10698e-05 -8.38811e-06)
(2.80342e-06 3.20434e-05 -8.38809e-06)
(-2.80342e-06 3.20434e-05 -8.38809e-06)
(-8.32509e-06 3.10698e-05 -8.38811e-06)
(-1.35938e-05 2.9152e-05 -8.3881e-06)
(-1.84495e-05 2.63486e-05 -8.3881e-06)
(-2.27446e-05 2.27446e-05 -8.38811e-06)
(-2.63486e-05 1.84495e-05 -8.3881e-06)
(-2.9152e-05 1.35938e-05 -8.3881e-06)
(-3.10698e-05 8.32509e-06 -8.38811e-06)
(-3.20434e-05 2.80342e-06 -8.38809e-06)
(-3.20434e-05 -2.80342e-06 -8.38809e-06)
(-3.10698e-05 -8.32509e-06 -8.38811e-06)
(-2.9152e-05 -1.35938e-05 -8.3881e-06)
(-2.63486e-05 -1.84495e-05 -8.3881e-06)
(-2.27446e-05 -2.27446e-05 -8.38811e-06)
(-1.84495e-05 -2.63486e-05 -8.3881e-06)
(-1.35938e-05 -2.9152e-05 -8.3881e-06)
(-8.32509e-06 -3.10698e-05 -8.38811e-06)
(-2.80342e-06 -3.20434e-05 -8.38809e-06)
(2.80342e-06 -3.20434e-05 -8.38809e-06)
(8.32509e-06 -3.10698e-05 -8.38811e-06)
(1.35938e-05 -2.9152e-05 -8.3881e-06)
(1.84495e-05 -2.63486e-05 -8.3881e-06)
(2.27446e-05 -2.27446e-05 -8.38811e-06)
(2.63486e-05 -1.84495e-05 -8.3881e-06)
(2.9152e-05 -1.35938e-05 -8.3881e-06)
(3.10698e-05 -8.32509e-06 -8.38811e-06)
(3.20434e-05 -2.80342e-06 -8.38809e-06)
(4.84908e-05 4.24238e-06 -1.11118e-05)
(4.70175e-05 1.25982e-05 -1.11118e-05)
(4.41155e-05 2.05714e-05 -1.11118e-05)
(3.98731e-05 2.79194e-05 -1.11118e-05)
(3.44192e-05 3.44192e-05 -1.11118e-05)
(2.79194e-05 3.98731e-05 -1.11118e-05)
(2.05714e-05 4.41155e-05 -1.11118e-05)
(1.25982e-05 4.70175e-05 -1.11118e-05)
(4.24238e-06 4.84908e-05 -1.11118e-05)
(-4.24238e-06 4.84908e-05 -1.11118e-05)
(-1.25982e-05 4.70175e-05 -1.11118e-05)
(-2.05714e-05 4.41155e-05 -1.11118e-05)
(-2.79194e-05 3.98731e-05 -1.11118e-05)
(-3.44192e-05 3.44192e-05 -1.11118e-05)
(-3.98731e-05 2.79194e-05 -1.11118e-05)
(-4.41155e-05 2.05714e-05 -1.11118e-05)
(-4.70175e-05 1.25982e-05 -1.11118e-05)
(-4.84908e-05 4.24238e-06 -1.11118e-05)
(-4.84908e-05 -4.24238e-06 -1.11118e-05)
(-4.70175e-05 -1.25982e-05 -1.11118e-05)
(-4.41155e-05 -2.05714e-05 -1.11118e-05)
(-3.98731e-05 -2.79194e-05 -1.11118e-05)
(-3.44192e-05 -3.44192e-05 -1.11118e-05)
(-2.79194e-05 -3.98731e-05 -1.11118e-05)
(-2.05714e-05 -4.41155e-05 -1.11118e-05)
(-1.25982e-05 -4.70175e-05 -1.11118e-05)
(-4.24238e-06 -4.84908e-05 -1.11118e-05)
(4.24238e-06 -4.84908e-05 -1.11118e-05)
(1.25982e-05 -4.70175e-05 -1.11118e-05)
(2.05714e-05 -4.41155e-05 -1.11118e-05)
(2.79194e-05 -3.98731e-05 -1.11118e-05)
(3.44192e-05 -3.44192e-05 -1.11118e-05)
(3.98731e-05 -2.79194e-05 -1.11118e-05)
(4.41155e-05 -2.05714e-05 -1.11118e-05)
(4.70175e-05 -1.25982e-05 -1.11118e-05)
(4.84908e-05 -4.24238e-06 -1.11118e-05)
(7.59033e-05 6.64069e-06 -1.98422e-05)
(7.35971e-05 1.97203e-05 -1.98422e-05)
(6.90545e-05 3.22006e-05 -1.98423e-05)
(6.24138e-05 4.37025e-05 -1.98423e-05)
(5.38766e-05 5.38766e-05 -1.98423e-05)
(4.37025e-05 6.24138e-05 -1.98423e-05)
(3.22006e-05 6.90545e-05 -1.98423e-05)
(1.97203e-05 7.35971e-05 -1.98422e-05)
(6.64069e-06 7.59033e-05 -1.98422e-05)
(-6.64069e-06 7.59033e-05 -1.98422e-05)
(-1.97203e-05 7.35971e-05 -1.98422e-05)
(-3.22006e-05 6.90545e-05 -1.98423e-05)
(-4.37025e-05 6.24138e-05 -1.98423e-05)
(-5.38766e-05 5.38766e-05 -1.98423e-05)
(-6.24138e-05 4.37025e-05 -1.98423e-05)
(-6.90545e-05 3.22006e-05 -1.98423e-05)
(-7.35971e-05 1.97203e-05 -1.98422e-05)
(-7.59033e-05 6.64069e-06 -1.98422e-05)
(-7.59033e-05 -6.64069e-06 -1.98422e-05)
(-7.35971e-05 -1.97203e-05 -1.98422e-05)
(-6.90545e-05 -3.22006e-05 -1.98423e-05)
(-6.24138e-05 -4.37025e-05 -1.98423e-05)
(-5.38766e-05 -5.38766e-05 -1.98423e-05)
(-4.37025e-05 -6.24138e-05 -1.98423e-05)
(-3.22006e-05 -6.90545e-05 -1.98423e-05)
(-1.97203e-05 -7.35971e-05 -1.98422e-05)
(-6.64069e-06 -7.59033e-05 -1.98422e-05)
(6.64069e-06 -7.59033e-05 -1.98422e-05)
(1.97203e-05 -7.35971e-05 -1.98422e-05)
(3.22006e-05 -6.90545e-05 -1.98423e-05)
(4.37025e-05 -6.24138e-05 -1.98423e-05)
(5.38766e-05 -5.38766e-05 -1.98423e-05)
(6.24138e-05 -4.37025e-05 -1.98423e-05)
(6.90545e-05 -3.22006e-05 -1.98423e-05)
(7.35971e-05 -1.97203e-05 -1.98422e-05)
(7.59033e-05 -6.64069e-06 -1.98422e-05)
(9.56864e-05 8.37146e-06 -2.89846e-05)
(9.27789e-05 2.486e-05 -2.89846e-05)
(8.70525e-05 4.05932e-05 -2.89846e-05)
(7.8681e-05 5.50929e-05 -2.89846e-05)
(6.79188e-05 6.79188e-05 -2.89846e-05)
(5.50929e-05 7.8681e-05 -2.89846e-05)
(4.05932e-05 8.70525e-05 -2.89846e-05)
(2.486e-05 9.27789e-05 -2.89846e-05)
(8.37146e-06 9.56864e-05 -2.89846e-05)
(-8.37146e-06 9.56864e-05 -2.89846e-05)
(-2.486e-05 9.27789e-05 -2.89846e-05)
(-4.05932e-05 8.70525e-05 -2.89846e-05)
(-5.50929e-05 7.8681e-05 -2.89846e-05)
(-6.79188e-05 6.79188e-05 -2.89846e-05)
(-7.8681e-05 5.50929e-05 -2.89846e-05)
(-8.70525e-05 4.05932e-05 -2.89846e-05)
(-9.27789e-05 2.486e-05 -2.89846e-05)
(-9.56864e-05 8.37146e-06 -2.89846e-05)
(-9.56864e-05 -8.37146e-06 -2.89846e-05)
(-9.27789e-05 -2.486e-05 -2.89846e-05)
(-8.70525e-05 -4.05932e-05 -2.89846e-05)
(-7.8681e-05 -5.50929e-05 -2.89846e-05)
(-6.79188e-05 -6.79188e-05 -2.89846e-05)
(-5.50929e-05 -7.8681e-05 -2.89846e-05)
(-4.05932e-05 -8.70525e-05 -2.89846e-05)
(-2.486e-05 -9.27789e-05 -2.89846e-05)
(-8.37146e-06 -9.56864e-05 -2.89846e-05)
(8.37146e-06 -9.56864e-05 -2.89846e-05)
(2.486e-05 -9.27789e-05 -2.89846e-05)
(4.05932e-05 -8.70525e-05 -2.89846e-05)
(5.50929e-05 -7.8681e-05 -2.89846e-05)
(6.79188e-05 -6.79188e-05 -2.89846e-05)
(7.8681e-05 -5.50929e-05 -2.89846e-05)
(8.70525e-05 -4.05932e-05 -2.89846e-05)
(9.27789e-05 -2.486e-05 -2.89846e-05)
(9.56864e-05 -8.37146e-06 -2.89846e-05)
(0.000124138 1.08607e-05 -3.77534e-05)
(0.000120366 3.2252e-05 -3.77534e-05)
(0.000112937 5.26633e-05 -3.77533e-05)
(0.000102076 7.14746e-05 -3.77533e-05)
(8.81141e-05 8.81141e-05 -3.77533e-05)
(7.14746e-05 0.000102076 -3.77533e-05)
(5.26633e-05 0.000112937 -3.77533e-05)
(3.2252e-05 0.000120366 -3.77534e-05)
(1.08607e-05 0.000124138 -3.77534e-05)
(-1.08607e-05 0.000124138 -3.77534e-05)
(-3.2252e-05 0.000120366 -3.77534e-05)
(-5.26633e-05 0.000112937 -3.77533e-05)
(-7.14746e-05 0.000102076 -3.77533e-05)
(-8.81141e-05 8.81141e-05 -3.77533e-05)
(-0.000102076 7.14746e-05 -3.77533e-05)
(-0.000112937 5.26633e-05 -3.77533e-05)
(-0.000120366 3.2252e-05 -3.77534e-05)
(-0.000124138 1.08607e-05 -3.77534e-05)
(-0.000124138 -1.08607e-05 -3.77534e-05)
(-0.000120366 -3.2252e-05 -3.77534e-05)
(-0.000112937 -5.26633e-05 -3.77533e-05)
(-0.000102076 -7.14746e-05 -3.77533e-05)
(-8.81141e-05 -8.81141e-05 -3.77533e-05)
(-7.14746e-05 -0.000102076 -3.77533e-05)
(-5.26633e-05 -0.000112937 -3.77533e-05)
(-3.2252e-05 -0.000120366 -3.77534e-05)
(-1.08607e-05 -0.000124138 -3.77534e-05)
(1.08607e-05 -0.000124138 -3.77534e-05)
(3.2252e-05 -0.000120366 -3.77534e-05)
(5.26633e-05 -0.000112937 -3.77533e-05)
(7.14746e-05 -0.000102076 -3.77533e-05)
(8.81141e-05 -8.81141e-05 -3.77533e-05)
(0.000102076 -7.14746e-05 -3.77533e-05)
(0.000112937 -5.26633e-05 -3.77533e-05)
(0.000120366 -3.2252e-05 -3.77534e-05)
(0.000124138 -1.08607e-05 -3.77534e-05)
(0.000124253 1.08707e-05 -4.31847e-05)
(0.000120478 3.22819e-05 -4.31847e-05)
(0.000113042 5.27121e-05 -4.31847e-05)
(0.000102171 7.15407e-05 -4.31847e-05)
(8.81956e-05 8.81956e-05 -4.31848e-05)
(7.15407e-05 0.000102171 -4.31847e-05)
(5.27121e-05 0.000113042 -4.31847e-05)
(3.22819e-05 0.000120478 -4.31847e-05)
(1.08707e-05 0.000124253 -4.31847e-05)
(-1.08707e-05 0.000124253 -4.31847e-05)
(-3.22819e-05 0.000120478 -4.31847e-05)
(-5.27121e-05 0.000113042 -4.31847e-05)
(-7.15407e-05 0.000102171 -4.31847e-05)
(-8.81956e-05 8.81956e-05 -4.31848e-05)
(-0.000102171 7.15407e-05 -4.31847e-05)
(-0.000113042 5.27121e-05 -4.31847e-05)
(-0.000120478 3.22819e-05 -4.31847e-05)
(-0.000124253 1.08707e-05 -4.31847e-05)
(-0.000124253 -1.08707e-05 -4.31847e-05)
(-0.000120478 -3.22819e-05 -4.31847e-05)
(-0.000113042 -5.27121e-05 -4.31847e-05)
(-0.000102171 -7.15407e-05 -4.31847e-05)
(-8.81956e-05 -8.81956e-05 -4.31848e-05)
(-7.15407e-05 -0.000102171 -4.31847e-05)
(-5.27121e-05 -0.000113042 -4.31847e-05)
(-3.22819e-05 -0.000120478 -4.31847e-05)
(-1.08707e-05 -0.000124253 -4.31847e-05)
(1.08707e-05 -0.000124253 -4.31847e-05)
(3.22819e-05 -0.000120478 -4.31847e-05)
(5.27121e-05 -0.000113042 -4.31847e-05)
(7.15407e-05 -0.000102171 -4.31847e-05)
(8.81956e-05 -8.81956e-05 -4.31848e-05)
(0.000102171 -7.15407e-05 -4.31847e-05)
(0.000113042 -5.27121e-05 -4.31847e-05)
(0.000120478 -3.22819e-05 -4.31847e-05)
(0.000124253 -1.08707e-05 -4.31847e-05)
(0.000151069 1.32168e-05 -5.52613e-05)
(0.000146479 3.92488e-05 -5.52613e-05)
(0.000137438 6.40881e-05 -5.52613e-05)
(0.000124221 8.69802e-05 -5.52613e-05)
(0.00010723 0.00010723 -5.52613e-05)
(8.69802e-05 0.000124221 -5.52613e-05)
(6.40881e-05 0.000137438 -5.52613e-05)
(3.92488e-05 0.000146479 -5.52613e-05)
(1.32168e-05 0.000151069 -5.52613e-05)
(-1.32168e-05 0.000151069 -5.52613e-05)
(-3.92488e-05 0.000146479 -5.52613e-05)
(-6.40881e-05 0.000137438 -5.52613e-05)
(-8.69802e-05 0.000124221 -5.52613e-05)
(-0.00010723 0.00010723 -5.52613e-05)
(-0.000124221 8.69802e-05 -5.52613e-05)
(-0.000137438 6.40881e-05 -5.52613e-05)
(-0.000146479 3.92488e-05 -5.52613e-05)
(-0.000151069 1.32168e-05 -5.52613e-05)
(-0.000151069 -1.32168e-05 -5.52613e-05)
(-0.000146479 -3.92488e-05 -5.52613e-05)
(-0.000137438 -6.40881e-05 -5.52613e-05)
(-0.000124221 -8.69802e-05 -5.52613e-05)
(-0.00010723 -0.00010723 -5.52613e-05)
(-8.69802e-05 -0.000124221 -5.52613e-05)
(-6.40881e-05 -0.000137438 -5.52613e-05)
(-3.92488e-05 -0.000146479 -5.52613e-05)
(-1.32168e-05 -0.000151069 -5.52613e-05)
(1.32168e-05 -0.000151069 -5.52613e-05)
(3.92488e-05 -0.000146479 -5.52613e-05)
(6.40881e-05 -0.000137438 -5.52613e-05)
(8.69802e-05 -0.000124221 -5.52613e-05)
(0.00010723 -0.00010723 -5.52613e-05)
(0.000124221 -8.69802e-05 -5.52613e-05)
(0.000137438 -6.40881e-05 -5.52613e-05)
(0.000146479 -3.92488e-05 -5.52613e-05)
(0.000151069 -1.32168e-05 -5.52613e-05)
(0.000186828 1.63453e-05 -6.71773e-05)
(0.000181151 4.85392e-05 -6.71773e-05)
(0.00016997 7.92582e-05 -6.71773e-05)
(0.000153625 0.000107569 -6.71774e-05)
(0.000132612 0.000132612 -6.71774e-05)
(0.000107569 0.000153625 -6.71774e-05)
(7.92582e-05 0.00016997 -6.71773e-05)
(4.85392e-05 0.000181151 -6.71773e-05)
(1.63453e-05 0.000186828 -6.71773e-05)
(-1.63453e-05 0.000186828 -6.71773e-05)
(-4.85392e-05 0.000181151 -6.71773e-05)
(-7.92582e-05 0.00016997 -6.71773e-05)
(-0.000107569 0.000153625 -6.71774e-05)
(-0.000132612 0.000132612 -6.71774e-05)
(-0.000153625 0.000107569 -6.71774e-05)
(-0.00016997 7.92582e-05 -6.71773e-05)
(-0.000181151 4.85392e-05 -6.71773e-05)
(-0.000186828 1.63453e-05 -6.71773e-05)
(-0.000186828 -1.63453e-05 -6.71773e-05)
(-0.000181151 -4.85392e-05 -6.71773e-05)
(-0.00016997 -7.92582e-05 -6.71773e-05)
(-0.000153625 -0.000107569 -6.71774e-05)
(-0.000132612 -0.000132612 -6.71774e-05)
(-0.000107569 -0.000153625 -6.71774e-05)
(-7.92582e-05 -0.00016997 -6.71773e-05)
(-4.85392e-05 -0.000181151 -6.71773e-05)
(-1.63453e-05 -0.000186828 -6.71773e-05)
(1.63453e-05 -0.000186828 -6.71773e-05)
(4.85392e-05 -0.000181151 -6.71773e-05)
(7.92582e-05 -0.00016997 -6.71773e-05)
(0.000107569 -0.000153625 -6.71774e-05)
(0.000132612 -0.000132612 -6.71774e-05)
(0.000153625 -0.000107569 -6.71774e-05)
(0.00016997 -7.92582e-05 -6.71773e-05)
(0.000181151 -4.85392e-05 -6.71773e-05)
(0.000186828 -1.63453e-05 -6.71773e-05)
(0.000162096 1.41815e-05 -6.98813e-05)
(0.00015717 4.21136e-05 -6.98813e-05)
(0.00014747 6.87662e-05 -6.98813e-05)
(0.000133288 9.33293e-05 -6.98814e-05)
(0.000115057 0.000115057 -6.98814e-05)
(9.33293e-05 0.000133288 -6.98814e-05)
(6.87662e-05 0.00014747 -6.98813e-05)
(4.21136e-05 0.00015717 -6.98813e-05)
(1.41815e-05 0.000162096 -6.98813e-05)
(-1.41815e-05 0.000162096 -6.98813e-05)
(-4.21136e-05 0.00015717 -6.98813e-05)
(-6.87662e-05 0.00014747 -6.98813e-05)
(-9.33293e-05 0.000133288 -6.98814e-05)
(-0.000115057 0.000115057 -6.98814e-05)
(-0.000133288 9.33293e-05 -6.98814e-05)
(-0.00014747 6.87662e-05 -6.98813e-05)
(-0.00015717 4.21136e-05 -6.98813e-05)
(-0.000162096 1.41815e-05 -6.98813e-05)
(-0.000162096 -1.41815e-05 -6.98813e-05)
(-0.00015717 -4.21136e-05 -6.98813e-05)
(-0.00014747 -6.87662e-05 -6.98813e-05)
(-0.000133288 -9.33293e-05 -6.98814e-05)
(-0.000115057 -0.000115057 -6.98814e-05)
(-9.33293e-05 -0.000133288 -6.98814e-05)
(-6.87662e-05 -0.00014747 -6.98813e-05)
(-4.21136e-05 -0.00015717 -6.98813e-05)
(-1.41815e-05 -0.000162096 -6.98813e-05)
(1.41815e-05 -0.000162096 -6.98813e-05)
(4.21136e-05 -0.00015717 -6.98813e-05)
(6.87662e-05 -0.00014747 -6.98813e-05)
(9.33293e-05 -0.000133288 -6.98814e-05)
(0.000115057 -0.000115057 -6.98814e-05)
(0.000133288 -9.33293e-05 -6.98814e-05)
(0.00014747 -6.87662e-05 -6.98813e-05)
(0.00015717 -4.21136e-05 -6.98813e-05)
(0.000162096 -1.41815e-05 -6.98813e-05)
(0.000192394 1.68323e-05 -8.24892e-05)
(0.000186548 4.99854e-05 -8.24892e-05)
(0.000175034 8.16197e-05 -8.24892e-05)
(0.000158202 0.000110774 -8.24892e-05)
(0.000136563 0.000136563 -8.24892e-05)
(0.000110774 0.000158202 -8.24892e-05)
(8.16197e-05 0.000175034 -8.24892e-05)
(4.99854e-05 0.000186548 -8.24892e-05)
(1.68323e-05 0.000192394 -8.24892e-05)
(-1.68323e-05 0.000192394 -8.24892e-05)
(-4.99854e-05 0.000186548 -8.24892e-05)
(-8.16197e-05 0.000175034 -8.24892e-05)
(-0.000110774 0.000158202 -8.24892e-05)
(-0.000136563 0.000136563 -8.24892e-05)
(-0.000158202 0.000110774 -8.24892e-05)
(-0.000175034 8.16197e-05 -8.24892e-05)
(-0.000186548 4.99854e-05 -8.24892e-05)
(-0.000192394 1.68323e-05 -8.24892e-05)
(-0.000192394 -1.68323e-05 -8.24892e-05)
(-0.000186548 -4.99854e-05 -8.24892e-05)
(-0.000175034 -8.16197e-05 -8.24892e-05)
(-0.000158202 -0.000110774 -8.24892e-05)
(-0.000136563 -0.000136563 -8.24892e-05)
(-0.000110774 -0.000158202 -8.24892e-05)
(-8.16197e-05 -0.000175034 -8.24892e-05)
(-4.99854e-05 -0.000186548 -8.24892e-05)
(-1.68323e-05 -0.000192394 -8.24892e-05)
(1.68323e-05 -0.000192394 -8.24892e-05)
(4.99854e-05 -0.000186548 -8.24892e-05)
(8.16197e-05 -0.000175034 -8.24892e-05)
(0.000110774 -0.000158202 -8.24892e-05)
(0.000136563 -0.000136563 -8.24892e-05)
(0.000158202 -0.000110774 -8.24892e-05)
(0.000175034 -8.16197e-05 -8.24892e-05)
(0.000186548 -4.99854e-05 -8.24892e-05)
(0.000192394 -1.68323e-05 -8.24892e-05)
(0.000231665 2.0268e-05 -9.52811e-05)
(0.000224626 6.01882e-05 -9.52811e-05)
(0.000210762 9.82796e-05 -9.52811e-05)
(0.000190493 0.000133385 -9.52811e-05)
(0.000164437 0.000164437 -9.52811e-05)
(0.000133385 0.000190493 -9.52811e-05)
(9.82796e-05 0.000210762 -9.52811e-05)
(6.01882e-05 0.000224626 -9.52811e-05)
(2.0268e-05 0.000231665 -9.52811e-05)
(-2.0268e-05 0.000231665 -9.52811e-05)
(-6.01882e-05 0.000224626 -9.52811e-05)
(-9.82796e-05 0.000210762 -9.52811e-05)
(-0.000133385 0.000190493 -9.52811e-05)
(-0.000164437 0.000164437 -9.52811e-05)
(-0.000190493 0.000133385 -9.52811e-05)
(-0.000210762 9.82796e-05 -9.52811e-05)
(-0.000224626 6.01882e-05 -9.52811e-05)
(-0.000231665 2.0268e-05 -9.52811e-05)
(-0.000231665 -2.0268e-05 -9.52811e-05)
(-0.000224626 -6.01882e-05 -9.52811e-05)
(-0.000210762 -9.82796e-05 -9.52811e-05)
(-0.000190493 -0.000133385 -9.52811e-05)
(-0.000164437 -0.000164437 -9.52811e-05)
(-0.000133385 -0.000190493 -9.52811e-05)
(-9.82796e-05 -0.000210762 -9.52811e-05)
(-6.01882e-05 -0.000224626 -9.52811e-05)
(-2.0268e-05 -0.000231665 -9.52811e-05)
(2.0268e-05 -0.000231665 -9.52811e-05)
(6.01882e-05 -0.000224626 -9.52811e-05)
(9.82796e-05 -0.000210762 -9.52811e-05)
(0.000133385 -0.000190493 -9.52811e-05)
(0.000164437 -0.000164437 -9.52811e-05)
(0.000190493 -0.000133385 -9.52811e-05)
(0.000210762 -9.82796e-05 -9.52811e-05)
(0.000224626 -6.01882e-05 -9.52811e-05)
(0.000231665 -2.0268e-05 -9.52811e-05)
(0.00018608 1.62799e-05 -9.58536e-05)
(0.000180426 4.83449e-05 -9.58535e-05)
(0.00016929 7.89411e-05 -9.58536e-05)
(0.00015301 0.000107139 -9.58536e-05)
(0.000132081 0.000132081 -9.58536e-05)
(0.000107139 0.00015301 -9.58536e-05)
(7.89411e-05 0.00016929 -9.58536e-05)
(4.83449e-05 0.000180426 -9.58535e-05)
(1.62799e-05 0.00018608 -9.58536e-05)
(-1.62799e-05 0.00018608 -9.58536e-05)
(-4.83449e-05 0.000180426 -9.58535e-05)
(-7.89411e-05 0.00016929 -9.58536e-05)
(-0.000107139 0.00015301 -9.58536e-05)
(-0.000132081 0.000132081 -9.58536e-05)
(-0.00015301 0.000107139 -9.58536e-05)
(-0.00016929 7.89411e-05 -9.58536e-05)
(-0.000180426 4.83449e-05 -9.58535e-05)
(-0.00018608 1.62799e-05 -9.58536e-05)
(-0.00018608 -1.62799e-05 -9.58536e-05)
(-0.000180426 -4.83449e-05 -9.58535e-05)
(-0.00016929 -7.89411e-05 -9.58536e-05)
(-0.00015301 -0.000107139 -9.58536e-05)
(-0.000132081 -0.000132081 -9.58536e-05)
(-0.000107139 -0.00015301 -9.58536e-05)
(-7.89411e-05 -0.00016929 -9.58536e-05)
(-4.83449e-05 -0.000180426 -9.58535e-05)
(-1.62799e-05 -0.00018608 -9.58536e-05)
(1.62799e-05 -0.00018608 -9.58536e-05)
(4.83449e-05 -0.000180426 -9.58535e-05)
(7.89411e-05 -0.00016929 -9.58536e-05)
(0.000107139 -0.00015301 -9.58536e-05)
(0.000132081 -0.000132081 -9.58536e-05)
(0.00015301 -0.000107139 -9.58536e-05)
(0.00016929 -7.89411e-05 -9.58536e-05)
(0.000180426 -4.83449e-05 -9.58535e-05)
(0.00018608 -1.62799e-05 -9.58536e-05)
(0.000217374 1.90178e-05 -0.000107615)
(0.000210769 5.64756e-05 -0.000107615)
(0.000197761 9.22173e-05 -0.000107615)
(0.000178743 0.000125157 -0.000107615)
(0.000154294 0.000154294 -0.000107615)
(0.000125157 0.000178743 -0.000107615)
(9.22173e-05 0.000197761 -0.000107615)
(5.64756e-05 0.000210769 -0.000107615)
(1.90178e-05 0.000217374 -0.000107615)
(-1.90178e-05 0.000217374 -0.000107615)
(-5.64756e-05 0.000210769 -0.000107615)
(-9.22173e-05 0.000197761 -0.000107615)
(-0.000125157 0.000178743 -0.000107615)
(-0.000154294 0.000154294 -0.000107615)
(-0.000178743 0.000125157 -0.000107615)
(-0.000197761 9.22173e-05 -0.000107615)
(-0.000210769 5.64756e-05 -0.000107615)
(-0.000217374 1.90178e-05 -0.000107615)
(-0.000217374 -1.90178e-05 -0.000107615)
(-0.000210769 -5.64756e-05 -0.000107615)
(-0.000197761 -9.22173e-05 -0.000107615)
(-0.000178743 -0.000125157 -0.000107615)
(-0.000154294 -0.000154294 -0.000107615)
(-0.000125157 -0.000178743 -0.000107615)
(-9.22173e-05 -0.000197761 -0.000107615)
(-5.64756e-05 -0.000210769 -0.000107615)
(-1.90178e-05 -0.000217374 -0.000107615)
(1.90178e-05 -0.000217374 -0.000107615)
(5.64756e-05 -0.000210769 -0.000107615)
(9.22173e-05 -0.000197761 -0.000107615)
(0.000125157 -0.000178743 -0.000107615)
(0.000154294 -0.000154294 -0.000107615)
(0.000178743 -0.000125157 -0.000107615)
(0.000197761 -9.22173e-05 -0.000107615)
(0.000210769 -5.64756e-05 -0.000107615)
(0.000217374 -1.90178e-05 -0.000107615)
(0.000257801 2.25547e-05 -0.000120013)
(0.000249968 6.69787e-05 -0.000120013)
(0.000234539 0.000109368 -0.000120013)
(0.000211985 0.000148433 -0.000120013)
(0.000182989 0.000182989 -0.000120013)
(0.000148433 0.000211985 -0.000120013)
(0.000109368 0.000234539 -0.000120013)
(6.69787e-05 0.000249968 -0.000120013)
(2.25547e-05 0.000257801 -0.000120013)
(-2.25547e-05 0.000257801 -0.000120013)
(-6.69787e-05 0.000249968 -0.000120013)
(-0.000109368 0.000234539 -0.000120013)
(-0.000148433 0.000211985 -0.000120013)
(-0.000182989 0.000182989 -0.000120013)
(-0.000211985 0.000148433 -0.000120013)
(-0.000234539 0.000109368 -0.000120013)
(-0.000249968 6.69787e-05 -0.000120013)
(-0.000257801 2.25547e-05 -0.000120013)
(-0.000257801 -2.25547e-05 -0.000120013)
(-0.000249968 -6.69787e-05 -0.000120013)
(-0.000234539 -0.000109368 -0.000120013)
(-0.000211985 -0.000148433 -0.000120013)
(-0.000182989 -0.000182989 -0.000120013)
(-0.000148433 -0.000211985 -0.000120013)
(-0.000109368 -0.000234539 -0.000120013)
(-6.69787e-05 -0.000249968 -0.000120013)
(-2.25547e-05 -0.000257801 -0.000120013)
(2.25547e-05 -0.000257801 -0.000120013)
(6.69787e-05 -0.000249968 -0.000120013)
(0.000109368 -0.000234539 -0.000120013)
(0.000148433 -0.000211985 -0.000120013)
(0.000182989 -0.000182989 -0.000120013)
(0.000211985 -0.000148433 -0.000120013)
(0.000234539 -0.000109368 -0.000120013)
(0.000249968 -6.69787e-05 -0.000120013)
(0.000257801 -2.25547e-05 -0.000120013)
(0.00019512 1.70708e-05 -0.000118326)
(0.000189191 5.06936e-05 -0.000118326)
(0.000177514 8.27761e-05 -0.000118326)
(0.000160443 0.000112344 -0.000118326)
(0.000138497 0.000138497 -0.000118326)
(0.000112344 0.000160443 -0.000118326)
(8.27761e-05 0.000177514 -0.000118326)
(5.06936e-05 0.000189191 -0.000118326)
(1.70708e-05 0.00019512 -0.000118326)
(-1.70708e-05 0.00019512 -0.000118326)
(-5.06936e-05 0.000189191 -0.000118326)
(-8.27761e-05 0.000177514 -0.000118326)
(-0.000112344 0.000160443 -0.000118326)
(-0.000138497 0.000138497 -0.000118326)
(-0.000160443 0.000112344 -0.000118326)
(-0.000177514 8.27761e-05 -0.000118326)
(-0.000189191 5.06936e-05 -0.000118326)
(-0.00019512 1.70708e-05 -0.000118326)
(-0.00019512 -1.70708e-05 -0.000118326)
(-0.000189191 -5.06936e-05 -0.000118326)
(-0.000177514 -8.27761e-05 -0.000118326)
(-0.000160443 -0.000112344 -0.000118326)
(-0.000138497 -0.000138497 -0.000118326)
(-0.000112344 -0.000160443 -0.000118326)
(-8.27761e-05 -0.000177514 -0.000118326)
(-5.06936e-05 -0.000189191 -0.000118326)
(-1.70708e-05 -0.00019512 -0.000118326)
(1.70708e-05 -0.00019512 -0.000118326)
(5.06936e-05 -0.000189191 -0.000118326)
(8.27761e-05 -0.000177514 -0.000118326)
(0.000112344 -0.000160443 -0.000118326)
(0.000138497 -0.000138497 -0.000118326)
(0.000160443 -0.000112344 -0.000118326)
(0.000177514 -8.27761e-05 -0.000118326)
(0.000189191 -5.06936e-05 -0.000118326)
(0.00019512 -1.70708e-05 -0.000118326)
(0.000225957 1.97687e-05 -0.000128657)
(0.000219091 5.87055e-05 -0.000128657)
(0.000205569 9.58584e-05 -0.000128657)
(0.0001858 0.000130099 -0.000128657)
(0.000160386 0.000160386 -0.000128657)
(0.000130099 0.0001858 -0.000128657)
(9.58584e-05 0.000205569 -0.000128657)
(5.87055e-05 0.000219091 -0.000128657)
(1.97687e-05 0.000225957 -0.000128657)
(-1.97687e-05 0.000225957 -0.000128657)
(-5.87055e-05 0.000219091 -0.000128657)
(-9.58584e-05 0.000205569 -0.000128657)
(-0.000130099 0.0001858 -0.000128657)
(-0.000160386 0.000160386 -0.000128657)
(-0.0001858 0.000130099 -0.000128657)
(-0.000205569 9.58584e-05 -0.000128657)
(-0.000219091 5.87055e-05 -0.000128657)
(-0.000225957 1.97687e-05 -0.000128657)
(-0.000225957 -1.97687e-05 -0.000128657)
(-0.000219091 -5.87055e-05 -0.000128657)
(-0.000205569 -9.58584e-05 -0.000128657)
(-0.0001858 -0.000130099 -0.000128657)
(-0.000160386 -0.000160386 -0.000128657)
(-0.000130099 -0.0001858 -0.000128657)
(-9.58584e-05 -0.000205569 -0.000128657)
(-5.87055e-05 -0.000219091 -0.000128657)
(-1.97687e-05 -0.000225957 -0.000128657)
(1.97687e-05 -0.000225957 -0.000128657)
(5.87055e-05 -0.000219091 -0.000128657)
(9.58584e-05 -0.000205569 -0.000128657)
(0.000130099 -0.0001858 -0.000128657)
(0.000160386 -0.000160386 -0.000128657)
(0.0001858 -0.000130099 -0.000128657)
(0.000205569 -9.58584e-05 -0.000128657)
(0.000219091 -5.87055e-05 -0.000128657)
(0.000225957 -1.97687e-05 -0.000128657)
(0.000266192 2.32888e-05 -0.00014018)
(0.000258104 6.91588e-05 -0.00014018)
(0.000242173 0.000112927 -0.00014018)
(0.000218885 0.000153265 -0.00014018)
(0.000188945 0.000188945 -0.00014018)
(0.000153265 0.000218885 -0.00014018)
(0.000112927 0.000242173 -0.00014018)
(6.91588e-05 0.000258104 -0.00014018)
(2.32888e-05 0.000266192 -0.00014018)
(-2.32888e-05 0.000266192 -0.00014018)
(-6.91588e-05 0.000258104 -0.00014018)
(-0.000112927 0.000242173 -0.00014018)
(-0.000153265 0.000218885 -0.00014018)
(-0.000188945 0.000188945 -0.00014018)
(-0.000218885 0.000153265 -0.00014018)
(-0.000242173 0.000112927 -0.00014018)
(-0.000258104 6.91588e-05 -0.00014018)
(-0.000266192 2.32888e-05 -0.00014018)
(-0.000266192 -2.32888e-05 -0.00014018)
(-0.000258104 -6.91588e-05 -0.00014018)
(-0.000242173 -0.000112927 -0.00014018)
(-0.000218885 -0.000153265 -0.00014018)
(-0.000188945 -0.000188945 -0.00014018)
(-0.000153265 -0.000218885 -0.00014018)
(-0.000112927 -0.000242173 -0.00014018)
(-6.91588e-05 -0.000258104 -0.00014018)
(-2.32888e-05 -0.000266192 -0.00014018)
(2.32888e-05 -0.000266192 -0.00014018)
(6.91588e-05 -0.000258104 -0.00014018)
(0.000112927 -0.000242173 -0.00014018)
(0.000153265 -0.000218885 -0.00014018)
(0.000188945 -0.000188945 -0.00014018)
(0.000218885 -0.000153265 -0.00014018)
(0.000242173 -0.000112927 -0.00014018)
(0.000258104 -6.91588e-05 -0.00014018)
(0.000266192 -2.32888e-05 -0.00014018)
(0.000189888 1.6613e-05 -0.000135661)
(0.000184118 4.93344e-05 -0.000135661)
(0.000172754 8.05567e-05 -0.000135661)
(0.000156141 0.000109331 -0.000135661)
(0.000134784 0.000134784 -0.000135661)
(0.000109331 0.000156141 -0.000135661)
(8.05567e-05 0.000172754 -0.000135661)
(4.93344e-05 0.000184118 -0.000135661)
(1.6613e-05 0.000189888 -0.000135661)
(-1.6613e-05 0.000189888 -0.000135661)
(-4.93344e-05 0.000184118 -0.000135661)
(-8.05567e-05 0.000172754 -0.000135661)
(-0.000109331 0.000156141 -0.000135661)
(-0.000134784 0.000134784 -0.000135661)
(-0.000156141 0.000109331 -0.000135661)
(-0.000172754 8.05567e-05 -0.000135661)
(-0.000184118 4.93344e-05 -0.000135661)
(-0.000189888 1.6613e-05 -0.000135661)
(-0.000189888 -1.6613e-05 -0.000135661)
(-0.000184118 -4.93344e-05 -0.000135661)
(-0.000172754 -8.05567e-05 -0.000135661)
(-0.000156141 -0.000109331 -0.000135661)
(-0.000134784 -0.000134784 -0.000135661)
(-0.000109331 -0.000156141 -0.000135661)
(-8.05567e-05 -0.000172754 -0.000135661)
(-4.93344e-05 -0.000184118 -0.000135661)
(-1.6613e-05 -0.000189888 -0.000135661)
(1.6613e-05 -0.000189888 -0.000135661)
(4.93344e-05 -0.000184118 -0.000135661)
(8.05567e-05 -0.000172754 -0.000135661)
(0.000109331 -0.000156141 -0.000135661)
(0.000134784 -0.000134784 -0.000135661)
(0.000156141 -0.000109331 -0.000135661)
(0.000172754 -8.05567e-05 -0.000135661)
(0.000184118 -4.93344e-05 -0.000135661)
(0.000189888 -1.6613e-05 -0.000135661)
(0.000219543 1.92075e-05 -0.000144508)
(0.000212872 5.70389e-05 -0.000144508)
(0.000199733 9.31372e-05 -0.000144508)
(0.000180526 0.000126406 -0.000144508)
(0.000155833 0.000155833 -0.000144508)
(0.000126406 0.000180526 -0.000144508)
(9.31372e-05 0.000199733 -0.000144508)
(5.70389e-05 0.000212872 -0.000144508)
(1.92075e-05 0.000219543 -0.000144508)
(-1.92075e-05 0.000219543 -0.000144508)
(-5.70389e-05 0.000212872 -0.000144508)
(-9.31372e-05 0.000199733 -0.000144508)
(-0.000126406 0.000180526 -0.000144508)
(-0.000155833 0.000155833 -0.000144508)
(-0.000180526 0.000126406 -0.000144508)
(-0.000199733 9.31372e-05 -0.000144508)
(-0.000212872 5.70389e-05 -0.000144508)
(-0.000219543 1.92075e-05 -0.000144508)
(-0.000219543 -1.92075e-05 -0.000144508)
(-0.000212872 -5.70389e-05 -0.000144508)
(-0.000199733 -9.31372e-05 -0.000144508)
(-0.000180526 -0.000126406 -0.000144508)
(-0.000155833 -0.000155833 -0.000144508)
(-0.000126406 -0.000180526 -0.000144508)
(-9.31372e-05 -0.000199733 -0.000144508)
(-5.70389e-05 -0.000212872 -0.000144508)
(-1.92075e-05 -0.000219543 -0.000144508)
(1.92075e-05 -0.000219543 -0.000144508)
(5.70389e-05 -0.000212872 -0.000144508)
(9.31372e-05 -0.000199733 -0.000144508)
(0.000126406 -0.000180526 -0.000144508)
(0.000155833 -0.000155833 -0.000144508)
(0.000180526 -0.000126406 -0.000144508)
(0.000199733 -9.31372e-05 -0.000144508)
(0.000212872 -5.70389e-05 -0.000144508)
(0.000219543 -1.92075e-05 -0.000144508)
(0.000258901 2.2651e-05 -0.0001552)
(0.000251034 6.72645e-05 -0.0001552)
(0.00023554 0.000109834 -0.0001552)
(0.000212889 0.000149067 -0.0001552)
(0.00018377 0.00018377 -0.0001552)
(0.000149067 0.000212889 -0.0001552)
(0.000109834 0.00023554 -0.0001552)
(6.72645e-05 0.000251034 -0.0001552)
(2.2651e-05 0.000258901 -0.0001552)
(-2.2651e-05 0.000258901 -0.0001552)
(-6.72645e-05 0.000251034 -0.0001552)
(-0.000109834 0.00023554 -0.0001552)
(-0.000149067 0.000212889 -0.0001552)