/*--------------------------------*- C++ -*----------------------------------*\
| =========                 |                                                 |
| \\      /  F ield         | OpenFOAM: The Open Source CFD Toolbox           |
|  \\    /   O peration     | Version:  2312                                  |
|   \\  /    A nd           | Website:  www.openfoam.com                      |
|    \\/     M anipulation  |                                                 |
\*---------------------------------------------------------------------------*/
FoamFile
{
    version     2.0;
    format      ascii;
    arch        "LSB;label=32;scalar=64";
    class       pointVectorField;
    location    "0.1";
    object      pointD;
}
// * * * * * * * * * * * * * * * * * * * * * * * * * * * * * * * * * * * * * //

dimensions      [0 1 0 0 0 0 0];

internalField   nonuniform List<vector> 
2164
(
(0 0 0)
(0 0 0)
(0 0 0)
(0 0 0)
(0 0 0)
(0 0 0)
(0 0 0)
(0 0 0)
(0 0 0)
(0 0 0)
(0 0 0)
(0 0 0)
(0 0 0)
(0 0 0)
(0 0 0)
(0 0 0)
(0 0 0)
(0 0 0)
(0 0 0)
(0 0 0)
(0 0 0)
(0 0 0)
(0 0 0)
(0 0 0)
(0 0 0)
(0 0 0)
(0 0 0)
(0 0 0)
(0 0 0)
(0 0 0)
(0 0 0)
(0 0 0)
(0 0 0)
(0 0 0)
(0 0 0)
(0 0 0)
(4.67707e-05 8.24698e-06 -9.40669e-06)
(4.46282e-05 1.62434e-05 -9.40675e-06)
(4.11295e-05 2.37461e-05 -9.40678e-06)
(3.6381e-05 3.05273e-05 -9.40676e-06)
(3.05273e-05 3.6381e-05 -9.40676e-06)
(2.37461e-05 4.11295e-05 -9.40678e-06)
(1.62434e-05 4.46282e-05 -9.40675e-06)
(8.24698e-06 4.67707e-05 -9.40669e-06)
(-8.88552e-15 4.74923e-05 -9.4067e-06)
(-8.24698e-06 4.67707e-05 -9.40669e-06)
(-1.62434e-05 4.46282e-05 -9.40675e-06)
(-2.37461e-05 4.11295e-05 -9.40678e-06)
(-3.05273e-05 3.6381e-05 -9.40676e-06)
(-3.6381e-05 3.05273e-05 -9.40676e-06)
(-4.11295e-05 2.37461e-05 -9.40678e-06)
(-4.46282e-05 1.62434e-05 -9.40675e-06)
(-4.67707e-05 8.24698e-06 -9.40669e-06)
(-4.74923e-05 -1.02554e-14 -9.4067e-06)
(-4.67707e-05 -8.24698e-06 -9.40669e-06)
(-4.46282e-05 -1.62434e-05 -9.40675e-06)
(-4.11295e-05 -2.37461e-05 -9.40678e-06)
(-3.6381e-05 -3.05273e-05 -9.40676e-06)
(-3.05273e-05 -3.6381e-05 -9.40676e-06)
(-2.37461e-05 -4.11295e-05 -9.40678e-06)
(-1.62434e-05 -4.46282e-05 -9.40675e-06)
(-8.24698e-06 -4.67707e-05 -9.40669e-06)
(8.23204e-15 -4.74923e-05 -9.4067e-06)
(8.24698e-06 -4.67707e-05 -9.40669e-06)
(1.62434e-05 -4.46282e-05 -9.40675e-06)
(2.37461e-05 -4.11295e-05 -9.40678e-06)
(3.05273e-05 -3.6381e-05 -9.40676e-06)
(3.6381e-05 -3.05273e-05 -9.40676e-06)
(4.11295e-05 -2.37461e-05 -9.40678e-06)
(4.46282e-05 -1.62434e-05 -9.40675e-06)
(4.67707e-05 -8.24698e-06 -9.40669e-06)
(4.74923e-05 7.21967e-15 -9.4067e-06)
(6.25342e-05 1.10264e-05 -1.66028e-05)
(5.96693e-05 2.17179e-05 -1.66028e-05)
(5.49915e-05 3.17493e-05 -1.66028e-05)
(4.86429e-05 4.08161e-05 -1.66029e-05)
(4.08161e-05 4.86429e-05 -1.66029e-05)
(3.17493e-05 5.49915e-05 -1.66028e-05)
(2.17179e-05 5.96693e-05 -1.66028e-05)
(1.10264e-05 6.25342e-05 -1.66028e-05)
(-8.03207e-15 6.34988e-05 -1.66028e-05)
(-1.10264e-05 6.25342e-05 -1.66028e-05)
(-2.17179e-05 5.96693e-05 -1.66028e-05)
(-3.17493e-05 5.49915e-05 -1.66028e-05)
(-4.08161e-05 4.86429e-05 -1.66029e-05)
(-4.86429e-05 4.08161e-05 -1.66029e-05)
(-5.49915e-05 3.17493e-05 -1.66028e-05)
(-5.96693e-05 2.17179e-05 -1.66028e-05)
(-6.25342e-05 1.10264e-05 -1.66028e-05)
(-6.34988e-05 -9.45638e-15 -1.66028e-05)
(-6.25342e-05 -1.10264e-05 -1.66028e-05)
(-5.96693e-05 -2.17179e-05 -1.66028e-05)
(-5.49915e-05 -3.17493e-05 -1.66028e-05)
(-4.86429e-05 -4.08161e-05 -1.66029e-05)
(-4.08161e-05 -4.86429e-05 -1.66029e-05)
(-3.17493e-05 -5.49915e-05 -1.66028e-05)
(-2.17179e-05 -5.96693e-05 -1.66028e-05)
(-1.10264e-05 -6.25342e-05 -1.66028e-05)
(7.5144e-15 -6.34988e-05 -1.66028e-05)
(1.10264e-05 -6.25342e-05 -1.66028e-05)
(2.17179e-05 -5.96693e-05 -1.66028e-05)
(3.17493e-05 -5.49915e-05 -1.66028e-05)
(4.08161e-05 -4.86429e-05 -1.66029e-05)
(4.86429e-05 -4.08161e-05 -1.66029e-05)
(5.49915e-05 -3.17493e-05 -1.66028e-05)
(5.96693e-05 -2.17179e-05 -1.66028e-05)
(6.25342e-05 -1.10264e-05 -1.66028e-05)
(6.34988e-05 6.30224e-15 -1.66028e-05)
(0 0 0)
(0 0 0)
(0 0 0)
(0 0 0)
(0 0 0)
(0 0 0)
(0 0 0)
(0 0 0)
(0 0 0)
(0 0 0)
(0 0 0)
(0 0 0)
(0 0 0)
(0 0 0)
(0 0 0)
(0 0 0)
(0 0 0)
(0 0 0)
(0 0 0)
(0 0 0)
(0 0 0)
(0 0 0)
(0 0 0)
(0 0 0)
(0 0 0)
(0 0 0)
(0 0 0)
(0 0 0)
(0 0 0)
(0 0 0)
(0 0 0)
(0 0 0)
(0 0 0)
(0 0 0)
(0 0 0)
(0 0 0)
(8.39843e-05 1.48087e-05 -2.36553e-05)
(8.01367e-05 2.91674e-05 -2.36552e-05)
(7.38545e-05 4.26399e-05 -2.36553e-05)
(6.5328e-05 5.48167e-05 -2.36552e-05)
(5.48167e-05 6.5328e-05 -2.36552e-05)
(4.26399e-05 7.38545e-05 -2.36553e-05)
(2.91674e-05 8.01367e-05 -2.36552e-05)
(1.48087e-05 8.39843e-05 -2.36553e-05)
(-7.17365e-15 8.52798e-05 -2.36552e-05)
(-1.48087e-05 8.39843e-05 -2.36553e-05)
(-2.91674e-05 8.01367e-05 -2.36552e-05)
(-4.26399e-05 7.38545e-05 -2.36553e-05)
(-5.48167e-05 6.5328e-05 -2.36552e-05)
(-6.5328e-05 5.48167e-05 -2.36552e-05)
(-7.38545e-05 4.26399e-05 -2.36553e-05)
(-8.01367e-05 2.91674e-05 -2.36552e-05)
(-8.39843e-05 1.48087e-05 -2.36553e-05)
(-8.52798e-05 -8.65067e-15 -2.36552e-05)
(-8.39843e-05 -1.48087e-05 -2.36553e-05)
(-8.01367e-05 -2.91674e-05 -2.36552e-05)
(-7.38545e-05 -4.26399e-05 -2.36553e-05)
(-6.5328e-05 -5.48167e-05 -2.36552e-05)
(-5.48167e-05 -6.5328e-05 -2.36552e-05)
(-4.26399e-05 -7.38545e-05 -2.36553e-05)
(-2.91674e-05 -8.01367e-05 -2.36552e-05)
(-1.48087e-05 -8.39843e-05 -2.36553e-05)
(6.79188e-15 -8.52798e-05 -2.36552e-05)
(1.48087e-05 -8.39843e-05 -2.36553e-05)
(2.91674e-05 -8.01367e-05 -2.36552e-05)
(4.26399e-05 -7.38545e-05 -2.36553e-05)
(5.48167e-05 -6.5328e-05 -2.36552e-05)
(6.5328e-05 -5.48167e-05 -2.36552e-05)
(7.38545e-05 -4.26399e-05 -2.36553e-05)
(8.01367e-05 -2.91674e-05 -2.36552e-05)
(8.39843e-05 -1.48087e-05 -2.36553e-05)
(8.52798e-05 5.38025e-15 -2.36552e-05)
(0 0 0)
(0 0 0)
(0 0 0)
(0 0 0)
(0 0 0)
(0 0 0)
(0 0 0)
(0 0 0)
(0 0 0)
(0 0 0)
(0 0 0)
(0 0 0)
(0 0 0)
(0 0 0)
(0 0 0)
(0 0 0)
(0 0 0)
(0 0 0)
(0 0 0)
(0 0 0)
(0 0 0)
(0 0 0)
(0 0 0)
(0 0 0)
(0 0 0)
(0 0 0)
(0 0 0)
(0 0 0)
(0 0 0)
(0 0 0)
(0 0 0)
(0 0 0)
(0 0 0)
(0 0 0)
(0 0 0)
(0 0 0)
(0.000109952 1.93874e-05 -3.0119e-05)
(0.000104915 3.81858e-05 -3.01189e-05)
(9.66903e-05 5.5824e-05 -3.01189e-05)
(8.55275e-05 7.17661e-05 -3.01189e-05)
(7.17661e-05 8.55275e-05 -3.01189e-05)
(5.5824e-05 9.66903e-05 -3.01189e-05)
(3.81858e-05 0.000104915 -3.01189e-05)
(1.93874e-05 0.000109952 -3.0119e-05)
(-6.31085e-15 0.000111648 -3.01189e-05)
(-1.93874e-05 0.000109952 -3.0119e-05)
(-3.81858e-05 0.000104915 -3.01189e-05)
(-5.5824e-05 9.66903e-05 -3.01189e-05)
(-7.17661e-05 8.55275e-05 -3.01189e-05)
(-8.55275e-05 7.17661e-05 -3.01189e-05)
(-9.66903e-05 5.5824e-05 -3.01189e-05)
(-0.000104915 3.81858e-05 -3.01189e-05)
(-0.000109952 1.93874e-05 -3.0119e-05)
(-0.000111648 -7.8381e-15 -3.01189e-05)
(-0.000109952 -1.93874e-05 -3.0119e-05)
(-0.000104915 -3.81858e-05 -3.01189e-05)
(-9.66903e-05 -5.5824e-05 -3.01189e-05)
(-8.55275e-05 -7.17661e-05 -3.01189e-05)
(-7.17661e-05 -8.55275e-05 -3.01189e-05)
(-5.5824e-05 -9.66903e-05 -3.01189e-05)
(-3.81858e-05 -0.000104915 -3.01189e-05)
(-1.93874e-05 -0.000109952 -3.0119e-05)
(6.06496e-15 -0.000111648 -3.01189e-05)
(1.93874e-05 -0.000109952 -3.0119e-05)
(3.81858e-05 -0.000104915 -3.01189e-05)
(5.5824e-05 -9.66903e-05 -3.01189e-05)
(7.17661e-05 -8.55275e-05 -3.01189e-05)
(8.55275e-05 -7.17661e-05 -3.01189e-05)
(9.66903e-05 -5.5824e-05 -3.01189e-05)
(0.000104915 -3.81858e-05 -3.01189e-05)
(0.000109952 -1.93874e-05 -3.0119e-05)
(0.000111648 4.46574e-15 -3.01189e-05)
(0 0 0)
(0 0 0)
(0 0 0)
(0 0 0)
(0 0 0)
(0 0 0)
(0 0 0)
(0 0 0)
(0 0 0)
(0 0 0)
(0 0 0)
(0 0 0)
(0 0 0)
(0 0 0)
(0 0 0)
(0 0 0)
(0 0 0)
(0 0 0)
(0 0 0)
(0 0 0)
(0 0 0)
(0 0 0)
(0 0 0)
(0 0 0)
(0 0 0)
(0 0 0)
(0 0 0)
(0 0 0)
(0 0 0)
(0 0 0)
(0 0 0)
(0 0 0)
(0 0 0)
(0 0 0)
(0 0 0)
(0 0 0)
(0.000100848 1.77823e-05 -2.81513e-05)
(9.62283e-05 3.50243e-05 -2.81514e-05)
(8.86845e-05 5.12021e-05 -2.81514e-05)
(7.8446e-05 6.5824e-05 -2.81515e-05)
(6.5824e-05 7.8446e-05 -2.81515e-05)
(5.12021e-05 8.86845e-05 -2.81514e-05)
(3.50243e-05 9.62283e-05 -2.81514e-05)
(1.77823e-05 0.000100848 -2.81513e-05)
(-1.75569e-14 0.000102404 -2.81514e-05)
(-1.77823e-05 0.000100848 -2.81513e-05)
(-3.50243e-05 9.62283e-05 -2.81514e-05)
(-5.12021e-05 8.86845e-05 -2.81514e-05)
(-6.5824e-05 7.8446e-05 -2.81515e-05)
(-7.8446e-05 6.5824e-05 -2.81515e-05)
(-8.86845e-05 5.12021e-05 -2.81514e-05)
(-9.62283e-05 3.50243e-05 -2.81514e-05)
(-0.000100848 1.77823e-05 -2.81513e-05)
(-0.000102404 -2.03245e-14 -2.81514e-05)
(-0.000100848 -1.77823e-05 -2.81513e-05)
(-9.62283e-05 -3.50243e-05 -2.81514e-05)
(-8.86845e-05 -5.12021e-05 -2.81514e-05)
(-7.8446e-05 -6.5824e-05 -2.81515e-05)
(-6.5824e-05 -7.8446e-05 -2.81515e-05)
(-5.12021e-05 -8.86845e-05 -2.81514e-05)
(-3.50243e-05 -9.62283e-05 -2.81514e-05)
(-1.77823e-05 -0.000100848 -2.81513e-05)
(1.63317e-14 -0.000102404 -2.81514e-05)
(1.77823e-05 -0.000100848 -2.81513e-05)
(3.50243e-05 -9.62283e-05 -2.81514e-05)
(5.12021e-05 -8.86845e-05 -2.81514e-05)
(6.5824e-05 -7.8446e-05 -2.81515e-05)
(7.8446e-05 -6.5824e-05 -2.81515e-05)
(8.86845e-05 -5.12021e-05 -2.81514e-05)
(9.62283e-05 -3.50243e-05 -2.81514e-05)
(0.000100848 -1.77823e-05 -2.81513e-05)
(0.000102404 1.4164e-14 -2.81514e-05)
(0.000125893 2.21982e-05 -4.03868e-05)
(0.000120126 4.37221e-05 -4.03869e-05)
(0.000110708 6.39172e-05 -4.03868e-05)
(9.7927e-05 8.21705e-05 -4.03869e-05)
(8.21705e-05 9.7927e-05 -4.03869e-05)
(6.39172e-05 0.000110708 -4.03868e-05)
(4.37221e-05 0.000120126 -4.03869e-05)
(2.21982e-05 0.000125893 -4.03868e-05)
(-1.5804e-14 0.000127835 -4.03868e-05)
(-2.21982e-05 0.000125893 -4.03868e-05)
(-4.37221e-05 0.000120126 -4.03869e-05)
(-6.39172e-05 0.000110708 -4.03868e-05)
(-8.21705e-05 9.7927e-05 -4.03869e-05)
(-9.7927e-05 8.21705e-05 -4.03869e-05)
(-0.000110708 6.39172e-05 -4.03868e-05)
(-0.000120126 4.37221e-05 -4.03869e-05)
(-0.000125893 2.21982e-05 -4.03868e-05)
(-0.000127835 -1.86763e-14 -4.03868e-05)
(-0.000125893 -2.21982e-05 -4.03868e-05)
(-0.000120126 -4.37221e-05 -4.03869e-05)
(-0.000110708 -6.39172e-05 -4.03868e-05)
(-9.7927e-05 -8.21705e-05 -4.03869e-05)
(-8.21705e-05 -9.7927e-05 -4.03869e-05)
(-6.39172e-05 -0.000110708 -4.03868e-05)
(-4.37221e-05 -0.000120126 -4.03869e-05)
(-2.21982e-05 -0.000125893 -4.03868e-05)
(1.48606e-14 -0.000127835 -4.03868e-05)
(2.21982e-05 -0.000125893 -4.03868e-05)
(4.37221e-05 -0.000120126 -4.03869e-05)
(6.39172e-05 -0.000110708 -4.03868e-05)
(8.21705e-05 -9.7927e-05 -4.03869e-05)
(9.7927e-05 -8.21705e-05 -4.03869e-05)
(0.000110708 -6.39172e-05 -4.03868e-05)
(0.000120126 -4.37221e-05 -4.03869e-05)
(0.000125893 -2.21982e-05 -4.03868e-05)
(0.000127835 1.23423e-14 -4.03868e-05)
(0.000157919 2.78454e-05 -5.27659e-05)
(0.000150684 5.48444e-05 -5.27659e-05)
(0.000138871 8.01772e-05 -5.27659e-05)
(0.000122839 0.000103074 -5.2766e-05)
(0.000103074 0.000122839 -5.2766e-05)
(8.01772e-05 0.000138871 -5.27659e-05)
(5.48444e-05 0.000150684 -5.27659e-05)
(2.78454e-05 0.000157919 -5.27659e-05)
(-1.40473e-14 0.000160355 -5.27659e-05)
(-2.78454e-05 0.000157919 -5.27659e-05)
(-5.48444e-05 0.000150684 -5.27659e-05)
(-8.01772e-05 0.000138871 -5.27659e-05)
(-0.000103074 0.000122839 -5.2766e-05)
(-0.000122839 0.000103074 -5.2766e-05)
(-0.000138871 8.01772e-05 -5.27659e-05)
(-0.000150684 5.48444e-05 -5.27659e-05)
(-0.000157919 2.78454e-05 -5.27659e-05)
(-0.000160355 -1.70193e-14 -5.27659e-05)
(-0.000157919 -2.78454e-05 -5.27659e-05)
(-0.000150684 -5.48444e-05 -5.27659e-05)
(-0.000138871 -8.01772e-05 -5.27659e-05)
(-0.000122839 -0.000103074 -5.2766e-05)
(-0.000103074 -0.000122839 -5.2766e-05)
(-8.01772e-05 -0.000138871 -5.27659e-05)
(-5.48444e-05 -0.000150684 -5.27659e-05)
(-2.78454e-05 -0.000157919 -5.27659e-05)
(1.33859e-14 -0.000160355 -5.27659e-05)
(2.78454e-05 -0.000157919 -5.27659e-05)
(5.48444e-05 -0.000150684 -5.27659e-05)
(8.01772e-05 -0.000138871 -5.27659e-05)
(0.000103074 -0.000122839 -5.2766e-05)
(0.000122839 -0.000103074 -5.2766e-05)
(0.000138871 -8.01772e-05 -5.27659e-05)
(0.000150684 -5.48444e-05 -5.27659e-05)
(0.000157919 -2.78454e-05 -5.27659e-05)
(0.000160355 1.05169e-14 -5.27659e-05)
(0.000194731 3.43364e-05 -6.44368e-05)
(0.00018581 6.76294e-05 -6.44368e-05)
(0.000171244 9.88674e-05 -6.44367e-05)
(0.000151474 0.000127101 -6.44367e-05)
(0.000127101 0.000151474 -6.44367e-05)
(9.88674e-05 0.000171244 -6.44367e-05)
(6.76294e-05 0.00018581 -6.44368e-05)
(3.43364e-05 0.000194731 -6.44368e-05)
(-1.22946e-14 0.000197735 -6.44367e-05)
(-3.43364e-05 0.000194731 -6.44368e-05)
(-6.76294e-05 0.00018581 -6.44368e-05)
(-9.88674e-05 0.000171244 -6.44367e-05)
(-0.000127101 0.000151474 -6.44367e-05)
(-0.000151474 0.000127101 -6.44367e-05)
(-0.000171244 9.88674e-05 -6.44367e-05)
(-0.00018581 6.76294e-05 -6.44368e-05)
(-0.000194731 3.43364e-05 -6.44368e-05)
(-0.000197735 -1.53607e-14 -6.44367e-05)
(-0.000194731 -3.43364e-05 -6.44368e-05)
(-0.00018581 -6.76294e-05 -6.44368e-05)
(-0.000171244 -9.88674e-05 -6.44367e-05)
(-0.000151474 -0.000127101 -6.44367e-05)
(-0.000127101 -0.000151474 -6.44367e-05)
(-9.88674e-05 -0.000171244 -6.44367e-05)
(-6.76294e-05 -0.00018581 -6.44368e-05)
(-3.43364e-05 -0.000194731 -6.44368e-05)
(1.19115e-14 -0.000197735 -6.44367e-05)
(3.43364e-05 -0.000194731 -6.44368e-05)
(6.76294e-05 -0.00018581 -6.44368e-05)
(9.88674e-05 -0.000171244 -6.44367e-05)
(0.000127101 -0.000151474 -6.44367e-05)
(0.000151474 -0.000127101 -6.44367e-05)
(0.000171244 -9.88674e-05 -6.44367e-05)
(0.00018581 -6.76294e-05 -6.44368e-05)
(0.000194731 -3.43364e-05 -6.44368e-05)
(0.000197735 8.71448e-15 -6.44367e-05)
(0.000147232 2.5961e-05 -5.68031e-05)
(0.000140488 5.11332e-05 -5.68032e-05)
(0.000129474 7.47519e-05 -5.68033e-05)
(0.000114527 9.60991e-05 -5.68033e-05)
(9.60991e-05 0.000114527 -5.68033e-05)
(7.47519e-05 0.000129474 -5.68033e-05)
(5.11332e-05 0.000140488 -5.68032e-05)
(2.5961e-05 0.000147232 -5.68031e-05)
(-2.5658e-14 0.000149504 -5.68031e-05)
(-2.5961e-05 0.000147232 -5.68031e-05)
(-5.11332e-05 0.000140488 -5.68032e-05)
(-7.47519e-05 0.000129474 -5.68033e-05)
(-9.60991e-05 0.000114527 -5.68033e-05)
(-0.000114527 9.60991e-05 -5.68033e-05)
(-0.000129474 7.47519e-05 -5.68033e-05)
(-0.000140488 5.11332e-05 -5.68032e-05)
(-0.000147232 2.5961e-05 -5.68031e-05)
(-0.000149504 -2.98777e-14 -5.68031e-05)
(-0.000147232 -2.5961e-05 -5.68031e-05)
(-0.000140488 -5.11332e-05 -5.68032e-05)
(-0.000129474 -7.47519e-05 -5.68033e-05)
(-0.000114527 -9.60991e-05 -5.68033e-05)
(-9.60991e-05 -0.000114527 -5.68033e-05)
(-7.47519e-05 -0.000129474 -5.68033e-05)
(-5.11332e-05 -0.000140488 -5.68032e-05)
(-2.5961e-05 -0.000147232 -5.68031e-05)
(2.40353e-14 -0.000149504 -5.68031e-05)
(2.5961e-05 -0.000147232 -5.68031e-05)
(5.11332e-05 -0.000140488 -5.68032e-05)
(7.47519e-05 -0.000129474 -5.68033e-05)
(9.60991e-05 -0.000114527 -5.68033e-05)
(0.000114527 -9.60991e-05 -5.68033e-05)
(0.000129474 -7.47519e-05 -5.68033e-05)
(0.000140488 -5.11332e-05 -5.68032e-05)
(0.000147232 -2.5961e-05 -5.68031e-05)
(0.000149504 2.0471e-14 -5.68031e-05)
(0.000177987 3.13839e-05 -7.08405e-05)
(0.000169833 6.18142e-05 -7.08405e-05)
(0.000156519 9.03662e-05 -7.08405e-05)
(0.000138449 0.000116173 -7.08405e-05)
(0.000116173 0.000138449 -7.08405e-05)
(9.03662e-05 0.000156519 -7.08405e-05)
(6.18142e-05 0.000169833 -7.08405e-05)
(3.13839e-05 0.000177987 -7.08405e-05)
(-2.30054e-14 0.000180733 -7.08405e-05)
(-3.13839e-05 0.000177987 -7.08405e-05)
(-6.18142e-05 0.000169833 -7.08405e-05)
(-9.03662e-05 0.000156519 -7.08405e-05)
(-0.000116173 0.000138449 -7.08405e-05)
(-0.000138449 0.000116173 -7.08405e-05)
(-0.000156519 9.03662e-05 -7.08405e-05)
(-0.000169833 6.18142e-05 -7.08405e-05)
(-0.000177987 3.13839e-05 -7.08405e-05)
(-0.000180733 -2.73653e-14 -7.08405e-05)
(-0.000177987 -3.13839e-05 -7.08405e-05)
(-0.000169833 -6.18142e-05 -7.08405e-05)
(-0.000156519 -9.03662e-05 -7.08405e-05)
(-0.000138449 -0.000116173 -7.08405e-05)
(-0.000116173 -0.000138449 -7.08405e-05)
(-9.03662e-05 -0.000156519 -7.08405e-05)
(-6.18142e-05 -0.000169833 -7.08405e-05)
(-3.13839e-05 -0.000177987 -7.08405e-05)
(2.18071e-14 -0.000180733 -7.08405e-05)
(3.13839e-05 -0.000177987 -7.08405e-05)
(6.18142e-05 -0.000169833 -7.08405e-05)
(9.03662e-05 -0.000156519 -7.08405e-05)
(0.000116173 -0.000138449 -7.08405e-05)
(0.000138449 -0.000116173 -7.08405e-05)
(0.000156519 -9.03662e-05 -7.08405e-05)
(0.000169833 -6.18142e-05 -7.08405e-05)
(0.000177987 -3.13839e-05 -7.08405e-05)
(0.000180733 1.78176e-14 -7.08405e-05)
(0.000215831 3.80568e-05 -8.51166e-05)
(0.000205944 7.49573e-05 -8.51166e-05)
(0.000189799 0.00010958 -8.51166e-05)
(0.000167887 0.000140873 -8.51166e-05)
(0.000140873 0.000167887 -8.51166e-05)
(0.00010958 0.000189799 -8.51166e-05)
(7.49573e-05 0.000205944 -8.51166e-05)
(3.80568e-05 0.000215831 -8.51166e-05)
(-2.03575e-14 0.000219161 -8.51165e-05)
(-3.80568e-05 0.000215831 -8.51166e-05)
(-7.49573e-05 0.000205944 -8.51166e-05)
(-0.00010958 0.000189799 -8.51166e-05)
(-0.000140873 0.000167887 -8.51166e-05)
(-0.000167887 0.000140873 -8.51166e-05)
(-0.000189799 0.00010958 -8.51166e-05)
(-0.000205944 7.49573e-05 -8.51166e-05)
(-0.000215831 3.80568e-05 -8.51166e-05)
(-0.000219161 -2.48497e-14 -8.51165e-05)
(-0.000215831 -3.80568e-05 -8.51166e-05)
(-0.000205944 -7.49573e-05 -8.51166e-05)
(-0.000189799 -0.00010958 -8.51166e-05)
(-0.000167887 -0.000140873 -8.51166e-05)
(-0.000140873 -0.000167887 -8.51166e-05)
(-0.00010958 -0.000189799 -8.51166e-05)
(-7.49573e-05 -0.000205944 -8.51166e-05)
(-3.80568e-05 -0.000215831 -8.51166e-05)
(1.95819e-14 -0.000219161 -8.51165e-05)
(3.80568e-05 -0.000215831 -8.51166e-05)
(7.49573e-05 -0.000205944 -8.51166e-05)
(0.00010958 -0.000189799 -8.51166e-05)
(0.000140873 -0.000167887 -8.51166e-05)
(0.000167887 -0.000140873 -8.51166e-05)
(0.000189799 -0.00010958 -8.51166e-05)
(0.000205944 -7.49573e-05 -8.51166e-05)
(0.000215831 -3.80568e-05 -8.51166e-05)
(0.000219161 1.51726e-14 -8.51165e-05)
(0.000258292 4.55439e-05 -9.89171e-05)
(0.000246459 8.97037e-05 -9.89171e-05)
(0.000227138 0.000131138 -9.89172e-05)
(0.000200915 0.000168588 -9.89172e-05)
(0.000168588 0.000200915 -9.89172e-05)
(0.000131138 0.000227138 -9.89172e-05)
(8.97037e-05 0.000246459 -9.89171e-05)
(4.55439e-05 0.000258292 -9.89171e-05)
(-1.77269e-14 0.000262277 -9.89171e-05)
(-4.55439e-05 0.000258292 -9.89171e-05)
(-8.97037e-05 0.000246459 -9.89171e-05)
(-0.000131138 0.000227138 -9.89172e-05)
(-0.000168588 0.000200915 -9.89172e-05)
(-0.000200915 0.000168588 -9.89172e-05)
(-0.000227138 0.000131138 -9.89172e-05)
(-0.000246459 8.97037e-05 -9.89171e-05)
(-0.000258292 4.55439e-05 -9.89171e-05)
(-0.000262277 -2.23442e-14 -9.89171e-05)
(-0.000258292 -4.55439e-05 -9.89171e-05)
(-0.000246459 -8.97037e-05 -9.89171e-05)
(-0.000227138 -0.000131138 -9.89172e-05)
(-0.000200915 -0.000168588 -9.89172e-05)
(-0.000168588 -0.000200915 -9.89172e-05)
(-0.000131138 -0.000227138 -9.89172e-05)
(-8.97037e-05 -0.000246459 -9.89171e-05)
(-4.55439e-05 -0.000258292 -9.89171e-05)
(1.73595e-14 -0.000262277 -9.89171e-05)
(4.55439e-05 -0.000258292 -9.89171e-05)
(8.97037e-05 -0.000246459 -9.89171e-05)
(0.000131138 -0.000227138 -9.89172e-05)
(0.000168588 -0.000200915 -9.89172e-05)
(0.000200915 -0.000168588 -9.89172e-05)
(0.000227138 -0.000131138 -9.89172e-05)
(0.000246459 -8.97037e-05 -9.89171e-05)
(0.000258292 -4.55439e-05 -9.89171e-05)
(0.000262277 1.25621e-14 -9.89171e-05)
(0.000181155 3.19425e-05 -8.76721e-05)
(0.000172856 6.29146e-05 -8.76722e-05)
(0.000159305 9.19749e-05 -8.76722e-05)
(0.000140914 0.000118241 -8.76722e-05)
(0.000118241 0.000140914 -8.76722e-05)
(9.19749e-05 0.000159305 -8.76722e-05)
(6.29146e-05 0.000172856 -8.76722e-05)
(3.19425e-05 0.000181155 -8.76721e-05)
(-3.28957e-14 0.00018395 -8.76722e-05)
(-3.19425e-05 0.000181155 -8.76721e-05)
(-6.29146e-05 0.000172856 -8.76722e-05)
(-9.19749e-05 0.000159305 -8.76722e-05)
(-0.000118241 0.000140914 -8.76722e-05)
(-0.000140914 0.000118241 -8.76722e-05)
(-0.000159305 9.19749e-05 -8.76722e-05)
(-0.000172856 6.29146e-05 -8.76722e-05)
(-0.000181155 3.19425e-05 -8.76721e-05)
(-0.00018395 -3.86391e-14 -8.76722e-05)
(-0.000181155 -3.19425e-05 -8.76721e-05)
(-0.000172856 -6.29146e-05 -8.76722e-05)
(-0.000159305 -9.19749e-05 -8.76722e-05)
(-0.000140914 -0.000118241 -8.76722e-05)
(-0.000118241 -0.000140914 -8.76722e-05)
(-9.19749e-05 -0.000159305 -8.76722e-05)
(-6.29146e-05 -0.000172856 -8.76722e-05)
(-3.19425e-05 -0.000181155 -8.76721e-05)
(3.11798e-14 -0.00018395 -8.76722e-05)
(3.19425e-05 -0.000181155 -8.76721e-05)
(6.29146e-05 -0.000172856 -8.76722e-05)
(9.19749e-05 -0.000159305 -8.76722e-05)
(0.000118241 -0.000140914 -8.76722e-05)
(0.000140914 -0.000118241 -8.76722e-05)
(0.000159305 -9.19749e-05 -8.76722e-05)
(0.000172856 -6.29146e-05 -8.76722e-05)
(0.000181155 -3.19425e-05 -8.76721e-05)
(0.00018395 2.59047e-14 -8.76722e-05)
(0.000214146 3.77597e-05 -0.000101369)
(0.000204335 7.4372e-05 -0.000101369)
(0.000188317 0.000108725 -0.000101369)
(0.000166576 0.000139773 -0.000101369)
(0.000139773 0.000166576 -0.000101369)
(0.000108725 0.000188317 -0.000101369)
(7.4372e-05 0.000204335 -0.000101369)
(3.77597e-05 0.000214146 -0.000101369)
(-2.93818e-14 0.000217449 -0.000101369)
(-3.77597e-05 0.000214146 -0.000101369)
(-7.4372e-05 0.000204335 -0.000101369)
(-0.000108725 0.000188317 -0.000101369)
(-0.000139773 0.000166576 -0.000101369)
(-0.000166576 0.000139773 -0.000101369)
(-0.000188317 0.000108725 -0.000101369)
(-0.000204335 7.4372e-05 -0.000101369)
(-0.000214146 3.77597e-05 -0.000101369)
(-0.000217449 -3.52887e-14 -0.000101369)
(-0.000214146 -3.77597e-05 -0.000101369)
(-0.000204335 -7.4372e-05 -0.000101369)
(-0.000188317 -0.000108725 -0.000101369)
(-0.000166576 -0.000139773 -0.000101369)
(-0.000139773 -0.000166576 -0.000101369)
(-0.000108725 -0.000188317 -0.000101369)
(-7.4372e-05 -0.000204335 -0.000101369)
(-3.77597e-05 -0.000214146 -0.000101369)
(2.81966e-14 -0.000217449 -0.000101369)
(3.77597e-05 -0.000214146 -0.000101369)
(7.4372e-05 -0.000204335 -0.000101369)
(0.000108725 -0.000188317 -0.000101369)
(0.000139773 -0.000166576 -0.000101369)
(0.000166576 -0.000139773 -0.000101369)
(0.000188317 -0.000108725 -0.000101369)
(0.000204335 -7.4372e-05 -0.000101369)
(0.000214146 -3.77597e-05 -0.000101369)
(0.000217449 2.25088e-14 -0.000101369)
(0.000254253 4.48318e-05 -0.000115483)
(0.000242606 8.83012e-05 -0.000115483)
(0.000223586 0.000129088 -0.000115483)
(0.000197774 0.000165952 -0.000115483)
(0.000165952 0.000197774 -0.000115483)
(0.000129088 0.000223586 -0.000115483)
(8.83012e-05 0.000242606 -0.000115483)
(4.48318e-05 0.000254253 -0.000115483)
(-2.5887e-14 0.000258176 -0.000115483)
(-4.48318e-05 0.000254253 -0.000115483)
(-8.83012e-05 0.000242606 -0.000115483)
(-0.000129088 0.000223586 -0.000115483)
(-0.000165952 0.000197774 -0.000115483)
(-0.000197774 0.000165952 -0.000115483)
(-0.000223586 0.000129088 -0.000115483)
(-0.000242606 8.83012e-05 -0.000115483)
(-0.000254253 4.48318e-05 -0.000115483)
(-0.000258176 -3.19463e-14 -0.000115483)
(-0.000254253 -4.48318e-05 -0.000115483)
(-0.000242606 -8.83012e-05 -0.000115483)
(-0.000223586 -0.000129088 -0.000115483)
(-0.000197774 -0.000165952 -0.000115483)
(-0.000165952 -0.000197774 -0.000115483)
(-0.000129088 -0.000223586 -0.000115483)
(-8.83012e-05 -0.000242606 -0.000115483)
(-4.48318e-05 -0.000254253 -0.000115483)
(2.52275e-14 -0.000258176 -0.000115483)
(4.48318e-05 -0.000254253 -0.000115483)
(8.83012e-05 -0.000242606 -0.000115483)
(0.000129088 -0.000223586 -0.000115483)
(0.000165952 -0.000197774 -0.000115483)
(0.000197774 -0.000165952 -0.000115483)
(0.000223586 -0.000129088 -0.000115483)
(0.000242606 -8.83012e-05 -0.000115483)
(0.000254253 -4.48318e-05 -0.000115483)
(0.000258176 1.91389e-14 -0.000115483)
(0.000299023 5.27259e-05 -0.00012949)
(0.000285325 0.00010385 -0.00012949)
(0.000262957 0.000151818 -0.00012949)
(0.000232599 0.000195174 -0.00012949)
(0.000195174 0.000232599 -0.00012949)
(0.000151818 0.000262957 -0.00012949)
(0.00010385 0.000285325 -0.00012949)
(5.27259e-05 0.000299023 -0.00012949)
(-2.2425e-14 0.000303636 -0.00012949)
(-5.27259e-05 0.000299023 -0.00012949)
(-0.00010385 0.000285325 -0.00012949)
(-0.000151818 0.000262957 -0.00012949)
(-0.000195174 0.000232599 -0.00012949)
(-0.000232599 0.000195174 -0.00012949)
(-0.000262957 0.000151818 -0.00012949)
(-0.000285325 0.00010385 -0.00012949)
(-0.000299023 5.27259e-05 -0.00012949)
(-0.000303636 -2.86283e-14 -0.00012949)
(-0.000299023 -5.27259e-05 -0.00012949)
(-0.000285325 -0.00010385 -0.00012949)
(-0.000262957 -0.000151818 -0.00012949)
(-0.000232599 -0.000195174 -0.00012949)
(-0.000195174 -0.000232599 -0.00012949)
(-0.000151818 -0.000262957 -0.00012949)
(-0.00010385 -0.000285325 -0.00012949)
(-5.27259e-05 -0.000299023 -0.00012949)
(2.22678e-14 -0.000303636 -0.00012949)
(5.27259e-05 -0.000299023 -0.00012949)
(0.00010385 -0.000285325 -0.00012949)
(0.000151818 -0.000262957 -0.00012949)
(0.000195174 -0.000232599 -0.00012949)
(0.000232599 -0.000195174 -0.00012949)
(0.000262957 -0.000151818 -0.00012949)
(0.000285325 -0.00010385 -0.00012949)
(0.000299023 -5.27259e-05 -0.00012949)
(0.000303636 1.5815e-14 -0.00012949)
(0.000199536 3.51835e-05 -0.000116407)
(0.000190395 6.9298e-05 -0.000116408)
(0.000175469 0.000101307 -0.000116408)
(0.000155211 0.000130238 -0.000116408)
(0.000130238 0.000155211 -0.000116408)
(0.000101307 0.000175469 -0.000116408)
(6.9298e-05 0.000190395 -0.000116408)
(3.51835e-05 0.000199536 -0.000116407)
(-3.90043e-14 0.000202614 -0.000116407)
(-3.51835e-05 0.000199536 -0.000116407)
(-6.9298e-05 0.000190395 -0.000116408)
(-0.000101307 0.000175469 -0.000116408)
(-0.000130238 0.000155211 -0.000116408)
(-0.000155211 0.000130238 -0.000116408)
(-0.000175469 0.000101307 -0.000116408)
(-0.000190395 6.9298e-05 -0.000116408)
(-0.000199536 3.51835e-05 -0.000116407)
(-0.000202614 -4.63255e-14 -0.000116407)
(-0.000199536 -3.51835e-05 -0.000116407)
(-0.000190395 -6.9298e-05 -0.000116408)
(-0.000175469 -0.000101307 -0.000116408)
(-0.000155211 -0.000130238 -0.000116408)
(-0.000130238 -0.000155211 -0.000116408)
(-0.000101307 -0.000175469 -0.000116408)
(-6.9298e-05 -0.000190395 -0.000116408)
(-3.51835e-05 -0.000199536 -0.000116407)
(3.76354e-14 -0.000202614 -0.000116407)
(3.51835e-05 -0.000199536 -0.000116407)
(6.9298e-05 -0.000190395 -0.000116408)
(0.000101307 -0.000175469 -0.000116408)
(0.000130238 -0.000155211 -0.000116408)
(0.000155211 -0.000130238 -0.000116408)
(0.000175469 -0.000101307 -0.000116408)
(0.000190395 -6.9298e-05 -0.000116408)
(0.000199536 -3.51835e-05 -0.000116407)
(0.000202614 3.03334e-14 -0.000116407)
(0.000232597 4.10133e-05 -0.000128691)
(0.000221942 8.07802e-05 -0.000128691)
(0.000204542 0.000118093 -0.000128691)
(0.000180929 0.000151817 -0.000128691)
(0.000151817 0.000180929 -0.000128691)
(0.000118093 0.000204542 -0.000128691)
(8.07802e-05 0.000221942 -0.000128691)
(4.10133e-05 0.000232597 -0.000128691)
(-3.47042e-14 0.000236186 -0.000128691)
(-4.10133e-05 0.000232597 -0.000128691)
(-8.07802e-05 0.000221942 -0.000128691)
(-0.000118093 0.000204542 -0.000128691)
(-0.000151817 0.000180929 -0.000128691)
(-0.000180929 0.000151817 -0.000128691)
(-0.000204542 0.000118093 -0.000128691)
(-0.000221942 8.07802e-05 -0.000128691)
(-0.000232597 4.10133e-05 -0.000128691)
(-0.000236186 -4.22133e-14 -0.000128691)
(-0.000232597 -4.10133e-05 -0.000128691)
(-0.000221942 -8.07802e-05 -0.000128691)
(-0.000204542 -0.000118093 -0.000128691)
(-0.000180929 -0.000151817 -0.000128691)
(-0.000151817 -0.000180929 -0.000128691)
(-0.000118093 -0.000204542 -0.000128691)
(-8.07802e-05 -0.000221942 -0.000128691)
(-4.10133e-05 -0.000232597 -0.000128691)
(3.38996e-14 -0.000236186 -0.000128691)
(4.10133e-05 -0.000232597 -0.000128691)
(8.07802e-05 -0.000221942 -0.000128691)
(0.000118093 -0.000204542 -0.000128691)
(0.000151817 -0.000180929 -0.000128691)
(0.000180929 -0.000151817 -0.000128691)
(0.000204542 -0.000118093 -0.000128691)
(0.000221942 -8.07802e-05 -0.000128691)
(0.000232597 -4.10133e-05 -0.000128691)
(0.000236186 2.62837e-14 -0.000128691)
(0.000272898 4.81194e-05 -0.000141684)
(0.000260396 9.47764e-05 -0.000141684)
(0.000239982 0.000138554 -0.000141684)
(0.000212277 0.000178122 -0.000141684)
(0.000178122 0.000212277 -0.000141684)
(0.000138554 0.000239982 -0.000141684)
(9.47764e-05 0.000260396 -0.000141684)
(4.81194e-05 0.000272898 -0.000141684)
(-3.04409e-14 0.000277108 -0.000141684)
(-4.81194e-05 0.000272898 -0.000141684)
(-9.47764e-05 0.000260396 -0.000141684)
(-0.000138554 0.000239982 -0.000141684)
(-0.000178122 0.000212277 -0.000141684)
(-0.000212277 0.000178122 -0.000141684)
(-0.000239982 0.000138554 -0.000141684)
(-0.000260396 9.47764e-05 -0.000141684)
(-0.000272898 4.81194e-05 -0.000141684)
(-0.000277108 -3.81236e-14 -0.000141684)
(-0.000272898 -4.81194e-05 -0.000141684)
(-0.000260396 -9.47764e-05 -0.000141684)
(-0.000239982 -0.000138554 -0.000141684)
(-0.000212277 -0.000178122 -0.000141684)
(-0.000178122 -0.000212277 -0.000141684)
(-0.000138554 -0.000239982 -0.000141684)
(-9.47764e-05 -0.000260396 -0.000141684)
(-4.81194e-05 -0.000272898 -0.000141684)
(3.01941e-14 -0.000277108 -0.000141684)
(4.81194e-05 -0.000272898 -0.000141684)
(9.47764e-05 -0.000260396 -0.000141684)
(0.000138554 -0.000239982 -0.000141684)
(0.000178122 -0.000212277 -0.000141684)
(0.000212277 -0.000178122 -0.000141684)
(0.000239982 -0.000138554 -0.000141684)
(0.000260396 -9.47764e-05 -0.000141684)
(0.000272898 -4.81194e-05 -0.000141684)
(0.000277108 2.22772e-14 -0.000141684)
(0.000318073 5.60849e-05 -0.000155005)
(0.000303502 0.000110466 -0.000155005)
(0.000279709 0.00016149 -0.000155005)
(0.000247417 0.000207608 -0.000155005)
(0.000207608 0.000247417 -0.000155005)
(0.00016149 0.000279709 -0.000155005)
(0.000110466 0.000303502 -0.000155005)
(5.60849e-05 0.000318073 -0.000155005)
(-2.62254e-14 0.00032298 -0.000155005)
(-5.60849e-05 0.000318073 -0.000155005)
(-0.000110466 0.000303502 -0.000155005)
(-0.00016149 0.000279709 -0.000155005)
(-0.000207608 0.000247417 -0.000155005)
(-0.000247417 0.000207608 -0.000155005)
(-0.000279709 0.00016149 -0.000155005)
(-0.000303502 0.000110466 -0.000155005)
(-0.000318073 5.60849e-05 -0.000155005)
(-0.00032298 -3.40677e-14 -0.000155005)
(-0.000318073 -5.60849e-05 -0.000155005)