/*--------------------------------*- C++ -*----------------------------------*\
| =========                 |                                                 |
| \\      /  F ield         | OpenFOAM: The Open Source CFD Toolbox           |
|  \\    /   O peration     | Version:  2312                                  |
|   \\  /    A nd           | Website:  www.openfoam.com                      |
|    \\/     M anipulation  |                                                 |
\*---------------------------------------------------------------------------*/
FoamFile
{
    version     2.0;
    format      ascii;
    arch        "LSB;label=32;scalar=64";
    class       volVectorField;
    location    "0.1";
    object      U;
}
// * * * * * * * * * * * * * * * * * * * * * * * * * * * * * * * * * * * * * //

dimensions      [0 1 -1 0 0 0 0];

internalField   nonuniform List<vector> 
1620
(
(0.000260516 2.27922e-05 -7.273e-05)
(0.0002526 6.7684e-05 -7.27301e-05)
(0.000237009 0.000110519 -7.27302e-05)
(0.000214217 0.000149996 -7.27304e-05)
(0.000184916 0.000184916 -7.27304e-05)
(0.000149996 0.000214217 -7.27304e-05)
(0.000110519 0.000237009 -7.27302e-05)
(6.7684e-05 0.0002526 -7.27301e-05)
(2.27922e-05 0.000260516 -7.273e-05)
(-2.27922e-05 0.000260516 -7.273e-05)
(-6.7684e-05 0.0002526 -7.27301e-05)
(-0.000110519 0.000237009 -7.27302e-05)
(-0.000149996 0.000214217 -7.27304e-05)
(-0.000184916 0.000184916 -7.27304e-05)
(-0.000214217 0.000149996 -7.27304e-05)
(-0.000237009 0.000110519 -7.27302e-05)
(-0.0002526 6.7684e-05 -7.27301e-05)
(-0.000260516 2.27922e-05 -7.273e-05)
(-0.000260516 -2.27922e-05 -7.273e-05)
(-0.0002526 -6.7684e-05 -7.27301e-05)
(-0.000237009 -0.000110519 -7.27302e-05)
(-0.000214217 -0.000149996 -7.27304e-05)
(-0.000184916 -0.000184916 -7.27304e-05)
(-0.000149996 -0.000214217 -7.27304e-05)
(-0.000110519 -0.000237009 -7.27302e-05)
(-6.7684e-05 -0.0002526 -7.27301e-05)
(-2.27922e-05 -0.000260516 -7.273e-05)
(2.27922e-05 -0.000260516 -7.273e-05)
(6.7684e-05 -0.0002526 -7.27301e-05)
(0.000110519 -0.000237009 -7.27302e-05)
(0.000149996 -0.000214217 -7.27304e-05)
(0.000184916 -0.000184916 -7.27304e-05)
(0.000214217 -0.000149996 -7.27304e-05)
(0.000237009 -0.000110519 -7.27302e-05)
(0.0002526 -6.7684e-05 -7.27301e-05)
(0.000260516 -2.27922e-05 -7.273e-05)
(0.000388578 3.3996e-05 -0.000106241)
(0.000376771 0.000100955 -0.000106242)
(0.000353515 0.000164847 -0.000106242)
(0.000319519 0.00022373 -0.000106241)
(0.000275815 0.000275815 -0.000106242)
(0.00022373 0.000319519 -0.000106241)
(0.000164847 0.000353515 -0.000106242)
(0.000100955 0.000376771 -0.000106242)
(3.3996e-05 0.000388578 -0.000106241)
(-3.3996e-05 0.000388578 -0.000106241)
(-0.000100955 0.000376771 -0.000106242)
(-0.000164847 0.000353515 -0.000106242)
(-0.00022373 0.000319519 -0.000106241)
(-0.000275815 0.000275815 -0.000106242)
(-0.000319519 0.00022373 -0.000106241)
(-0.000353515 0.000164847 -0.000106242)
(-0.000376771 0.000100955 -0.000106242)
(-0.000388578 3.3996e-05 -0.000106241)
(-0.000388578 -3.3996e-05 -0.000106241)
(-0.000376771 -0.000100955 -0.000106242)
(-0.000353515 -0.000164847 -0.000106242)
(-0.000319519 -0.00022373 -0.000106241)
(-0.000275815 -0.000275815 -0.000106242)
(-0.00022373 -0.000319519 -0.000106241)
(-0.000164847 -0.000353515 -0.000106242)
(-0.000100955 -0.000376771 -0.000106242)
(-3.3996e-05 -0.000388578 -0.000106241)
(3.3996e-05 -0.000388578 -0.000106241)
(0.000100955 -0.000376771 -0.000106242)
(0.000164847 -0.000353515 -0.000106242)
(0.00022373 -0.000319519 -0.000106241)
(0.000275815 -0.000275815 -0.000106242)
(0.000319519 -0.00022373 -0.000106241)
(0.000353515 -0.000164847 -0.000106242)
(0.000376771 -0.000100955 -0.000106242)
(0.000388578 -3.3996e-05 -0.000106241)
(0.000589463 5.15711e-05 -0.000129859)
(0.000571553 0.000153146 -0.000129859)
(0.000536276 0.000250069 -0.000129859)
(0.000484704 0.000339393 -0.000129859)
(0.000418406 0.000418406 -0.000129859)
(0.000339393 0.000484704 -0.000129859)
(0.000250069 0.000536276 -0.000129859)
(0.000153146 0.000571553 -0.000129859)
(5.15711e-05 0.000589463 -0.000129859)
(-5.15711e-05 0.000589463 -0.000129859)
(-0.000153146 0.000571553 -0.000129859)
(-0.000250069 0.000536276 -0.000129859)
(-0.000339393 0.000484704 -0.000129859)
(-0.000418406 0.000418406 -0.000129859)
(-0.000484704 0.000339393 -0.000129859)
(-0.000536276 0.000250069 -0.000129859)
(-0.000571553 0.000153146 -0.000129859)
(-0.000589463 5.15711e-05 -0.000129859)
(-0.000589463 -5.15711e-05 -0.000129859)
(-0.000571553 -0.000153146 -0.000129859)
(-0.000536276 -0.000250069 -0.000129859)
(-0.000484704 -0.000339393 -0.000129859)
(-0.000418406 -0.000418406 -0.000129859)
(-0.000339393 -0.000484704 -0.000129859)
(-0.000250069 -0.000536276 -0.000129859)
(-0.000153146 -0.000571553 -0.000129859)
(-5.15711e-05 -0.000589463 -0.000129859)
(5.15711e-05 -0.000589463 -0.000129859)
(0.000153146 -0.000571553 -0.000129859)
(0.000250069 -0.000536276 -0.000129859)
(0.000339393 -0.000484704 -0.000129859)
(0.000418406 -0.000418406 -0.000129859)
(0.000484704 -0.000339393 -0.000129859)
(0.000536276 -0.000250069 -0.000129859)
(0.000571553 -0.000153146 -0.000129859)
(0.000589463 -5.15711e-05 -0.000129859)
(0.000912212 7.98083e-05 -0.00026864)
(0.000884495 0.000237 -0.00026864)
(0.000829903 0.00038699 -0.000268641)
(0.000750093 0.00052522 -0.000268641)
(0.000647493 0.000647493 -0.000268641)
(0.00052522 0.000750093 -0.000268641)
(0.00038699 0.000829903 -0.000268641)
(0.000237 0.000884495 -0.00026864)
(7.98083e-05 0.000912212 -0.00026864)
(-7.98083e-05 0.000912212 -0.00026864)
(-0.000237 0.000884495 -0.00026864)
(-0.00038699 0.000829903 -0.000268641)
(-0.00052522 0.000750093 -0.000268641)
(-0.000647493 0.000647493 -0.000268641)
(-0.000750093 0.00052522 -0.000268641)
(-0.000829903 0.00038699 -0.000268641)
(-0.000884495 0.000237 -0.00026864)
(-0.000912212 7.98083e-05 -0.00026864)
(-0.000912212 -7.98083e-05 -0.00026864)
(-0.000884495 -0.000237 -0.00026864)
(-0.000829903 -0.00038699 -0.000268641)
(-0.000750093 -0.00052522 -0.000268641)
(-0.000647493 -0.000647493 -0.000268641)
(-0.00052522 -0.000750093 -0.000268641)
(-0.00038699 -0.000829903 -0.000268641)
(-0.000237 -0.000884495 -0.00026864)
(-7.98083e-05 -0.000912212 -0.00026864)
(7.98083e-05 -0.000912212 -0.00026864)
(0.000237 -0.000884495 -0.00026864)
(0.00038699 -0.000829903 -0.000268641)
(0.00052522 -0.000750093 -0.000268641)
(0.000647493 -0.000647493 -0.000268641)
(0.000750093 -0.00052522 -0.000268641)
(0.000829903 -0.00038699 -0.000268641)
(0.000884495 -0.000237 -0.00026864)
(0.000912212 -7.98083e-05 -0.00026864)
(0.00115893 0.000101393 -0.000368131)
(0.00112372 0.000301098 -0.000368131)
(0.00105436 0.000491655 -0.000368131)
(0.000952965 0.000667272 -0.000368132)
(0.000822616 0.000822616 -0.000368132)
(0.000667272 0.000952965 -0.000368132)
(0.000491655 0.00105436 -0.000368131)
(0.000301098 0.00112372 -0.000368131)
(0.000101393 0.00115893 -0.000368131)
(-0.000101393 0.00115893 -0.000368131)
(-0.000301098 0.00112372 -0.000368131)
(-0.000491655 0.00105436 -0.000368131)
(-0.000667272 0.000952965 -0.000368132)
(-0.000822616 0.000822616 -0.000368132)
(-0.000952965 0.000667272 -0.000368132)
(-0.00105436 0.000491655 -0.000368131)
(-0.00112372 0.000301098 -0.000368131)
(-0.00115893 0.000101393 -0.000368131)
(-0.00115893 -0.000101393 -0.000368131)
(-0.00112372 -0.000301098 -0.000368131)
(-0.00105436 -0.000491655 -0.000368131)
(-0.000952965 -0.000667272 -0.000368132)
(-0.000822616 -0.000822616 -0.000368132)
(-0.000667272 -0.000952965 -0.000368132)
(-0.000491655 -0.00105436 -0.000368131)
(-0.000301098 -0.00112372 -0.000368131)
(-0.000101393 -0.00115893 -0.000368131)
(0.000101393 -0.00115893 -0.000368131)
(0.000301098 -0.00112372 -0.000368131)
(0.000491655 -0.00105436 -0.000368131)
(0.000667272 -0.000952965 -0.000368132)
(0.000822616 -0.000822616 -0.000368132)
(0.000952965 -0.000667272 -0.000368132)
(0.00105436 -0.000491655 -0.000368131)
(0.00112372 -0.000301098 -0.000368131)
(0.00115893 -0.000101393 -0.000368131)
(0.0015057 0.000131731 -0.000458975)
(0.00145995 0.000391191 -0.000458975)
(0.00136984 0.000638763 -0.000458975)
(0.0012381 0.000866929 -0.000458974)
(0.00106875 0.00106875 -0.000458974)
(0.000866929 0.0012381 -0.000458974)
(0.000638763 0.00136984 -0.000458975)
(0.000391191 0.00145995 -0.000458975)
(0.000131731 0.0015057 -0.000458975)
(-0.000131731 0.0015057 -0.000458975)
(-0.000391191 0.00145995 -0.000458975)
(-0.000638763 0.00136984 -0.000458975)
(-0.000866929 0.0012381 -0.000458974)
(-0.00106875 0.00106875 -0.000458974)
(-0.0012381 0.000866929 -0.000458974)
(-0.00136984 0.000638763 -0.000458975)
(-0.00145995 0.000391191 -0.000458975)
(-0.0015057 0.000131731 -0.000458975)
(-0.0015057 -0.000131731 -0.000458975)
(-0.00145995 -0.000391191 -0.000458975)
(-0.00136984 -0.000638763 -0.000458975)
(-0.0012381 -0.000866929 -0.000458974)
(-0.00106875 -0.00106875 -0.000458974)
(-0.000866929 -0.0012381 -0.000458974)
(-0.000638763 -0.00136984 -0.000458975)
(-0.000391191 -0.00145995 -0.000458975)
(-0.000131731 -0.0015057 -0.000458975)
(0.000131731 -0.0015057 -0.000458975)
(0.000391191 -0.00145995 -0.000458975)
(0.000638763 -0.00136984 -0.000458975)
(0.000866929 -0.0012381 -0.000458974)
(0.00106875 -0.00106875 -0.000458974)
(0.0012381 -0.000866929 -0.000458974)
(0.00136984 -0.000638763 -0.000458975)
(0.00145995 -0.000391191 -0.000458975)
(0.0015057 -0.000131731 -0.000458975)
(0.00149864 0.000131114 -0.000573621)
(0.0014531 0.000389358 -0.000573621)
(0.00136341 0.000635771 -0.000573622)
(0.0012323 0.000862866 -0.000573622)
(0.00106374 0.00106374 -0.000573622)
(0.000862866 0.0012323 -0.000573622)
(0.000635771 0.00136341 -0.000573622)
(0.000389358 0.0014531 -0.000573621)
(0.000131114 0.00149864 -0.000573621)
(-0.000131114 0.00149864 -0.000573621)
(-0.000389358 0.0014531 -0.000573621)
(-0.000635771 0.00136341 -0.000573622)
(-0.000862866 0.0012323 -0.000573622)
(-0.00106374 0.00106374 -0.000573622)
(-0.0012323 0.000862866 -0.000573622)
(-0.00136341 0.000635771 -0.000573622)
(-0.0014531 0.000389358 -0.000573621)
(-0.00149864 0.000131114 -0.000573621)
(-0.00149864 -0.000131114 -0.000573621)
(-0.0014531 -0.000389358 -0.000573621)
(-0.00136341 -0.000635771 -0.000573622)
(-0.0012323 -0.000862866 -0.000573622)
(-0.00106374 -0.00106374 -0.000573622)
(-0.000862866 -0.0012323 -0.000573622)
(-0.000635771 -0.00136341 -0.000573622)
(-0.000389358 -0.0014531 -0.000573621)
(-0.000131114 -0.00149864 -0.000573621)
(0.000131114 -0.00149864 -0.000573621)
(0.000389358 -0.0014531 -0.000573621)
(0.000635771 -0.00136341 -0.000573622)
(0.000862866 -0.0012323 -0.000573622)
(0.00106374 -0.00106374 -0.000573622)
(0.0012323 -0.000862866 -0.000573622)
(0.00136341 -0.000635771 -0.000573622)
(0.0014531 -0.000389358 -0.000573621)
(0.00149864 -0.000131114 -0.000573621)
(0.00183064 0.00016016 -0.000707055)
(0.00177502 0.000475614 -0.000707055)
(0.00166546 0.000776616 -0.000707055)
(0.0015053 0.00105402 -0.000707055)
(0.0012994 0.0012994 -0.000707056)
(0.00105402 0.0015053 -0.000707055)
(0.000776616 0.00166546 -0.000707055)
(0.000475614 0.00177502 -0.000707055)
(0.00016016 0.00183064 -0.000707055)
(-0.00016016 0.00183064 -0.000707055)
(-0.000475614 0.00177502 -0.000707055)
(-0.000776616 0.00166546 -0.000707055)
(-0.00105402 0.0015053 -0.000707055)
(-0.0012994 0.0012994 -0.000707056)
(-0.0015053 0.00105402 -0.000707055)
(-0.00166546 0.000776616 -0.000707055)
(-0.00177502 0.000475614 -0.000707055)
(-0.00183064 0.00016016 -0.000707055)
(-0.00183064 -0.00016016 -0.000707055)
(-0.00177502 -0.000475614 -0.000707055)
(-0.00166546 -0.000776616 -0.000707055)
(-0.0015053 -0.00105402 -0.000707055)
(-0.0012994 -0.0012994 -0.000707056)
(-0.00105402 -0.0015053 -0.000707055)
(-0.000776616 -0.00166546 -0.000707055)
(-0.000475614 -0.00177502 -0.000707055)
(-0.00016016 -0.00183064 -0.000707055)
(0.00016016 -0.00183064 -0.000707055)
(0.000475614 -0.00177502 -0.000707055)
(0.000776616 -0.00166546 -0.000707055)
(0.00105402 -0.0015053 -0.000707055)
(0.0012994 -0.0012994 -0.000707056)
(0.0015053 -0.00105402 -0.000707055)
(0.00166546 -0.000776616 -0.000707055)
(0.00177502 -0.000475614 -0.000707055)
(0.00183064 -0.00016016 -0.000707055)
(0.00226749 0.00019838 -0.000834763)
(0.00219859 0.000589111 -0.000834763)
(0.00206289 0.000961941 -0.000834763)
(0.00186451 0.00130554 -0.000834764)
(0.00160948 0.00160948 -0.000834764)
(0.00130554 0.00186451 -0.000834764)
(0.000961941 0.00206289 -0.000834763)
(0.000589111 0.00219859 -0.000834763)
(0.00019838 0.00226749 -0.000834763)
(-0.00019838 0.00226749 -0.000834763)
(-0.000589111 0.00219859 -0.000834763)
(-0.000961941 0.00206289 -0.000834763)
(-0.00130554 0.00186451 -0.000834764)
(-0.00160948 0.00160948 -0.000834764)
(-0.00186451 0.00130554 -0.000834764)
(-0.00206289 0.000961941 -0.000834763)
(-0.00219859 0.000589111 -0.000834763)
(-0.00226749 0.00019838 -0.000834763)
(-0.00226749 -0.00019838 -0.000834763)
(-0.00219859 -0.000589111 -0.000834763)
(-0.00206289 -0.000961941 -0.000834763)
(-0.00186451 -0.00130554 -0.000834764)
(-0.00160948 -0.00160948 -0.000834764)
(-0.00130554 -0.00186451 -0.000834764)
(-0.000961941 -0.00206289 -0.000834763)
(-0.000589111 -0.00219859 -0.000834763)
(-0.00019838 -0.00226749 -0.000834763)
(0.00019838 -0.00226749 -0.000834763)
(0.000589111 -0.00219859 -0.000834763)
(0.000961941 -0.00206289 -0.000834763)
(0.00130554 -0.00186451 -0.000834764)
(0.00160948 -0.00160948 -0.000834764)
(0.00186451 -0.00130554 -0.000834764)
(0.00206289 -0.000961941 -0.000834763)
(0.00219859 -0.000589111 -0.000834763)
(0.00226749 -0.00019838 -0.000834763)
(0.00195909 0.000171398 -0.000925023)
(0.00189957 0.000508987 -0.000925023)
(0.00178232 0.000831111 -0.000925023)
(0.00161092 0.00112798 -0.000925024)
(0.00139058 0.00139058 -0.000925024)
(0.00112798 0.00161092 -0.000925024)
(0.000831111 0.00178232 -0.000925023)
(0.000508987 0.00189957 -0.000925023)
(0.000171398 0.00195909 -0.000925023)
(-0.000171398 0.00195909 -0.000925023)
(-0.000508987 0.00189957 -0.000925023)
(-0.000831111 0.00178232 -0.000925023)
(-0.00112798 0.00161092 -0.000925024)
(-0.00139058 0.00139058 -0.000925024)
(-0.00161092 0.00112798 -0.000925024)
(-0.00178232 0.000831111 -0.000925023)
(-0.00189957 0.000508987 -0.000925023)
(-0.00195909 0.000171398 -0.000925023)
(-0.00195909 -0.000171398 -0.000925023)
(-0.00189957 -0.000508987 -0.000925023)
(-0.00178232 -0.000831111 -0.000925023)
(-0.00161092 -0.00112798 -0.000925024)
(-0.00139058 -0.00139058 -0.000925024)
(-0.00112798 -0.00161092 -0.000925024)
(-0.000831111 -0.00178232 -0.000925023)
(-0.000508987 -0.00189957 -0.000925023)
(-0.000171398 -0.00195909 -0.000925023)
(0.000171398 -0.00195909 -0.000925023)
(0.000508987 -0.00189957 -0.000925023)
(0.000831111 -0.00178232 -0.000925023)
(0.00112798 -0.00161092 -0.000925024)
(0.00139058 -0.00139058 -0.000925024)
(0.00161092 -0.00112798 -0.000925024)
(0.00178232 -0.000831111 -0.000925023)
(0.00189957 -0.000508987 -0.000925023)
(0.00195909 -0.000171398 -0.000925023)
(0.00233337 0.000204143 -0.00106721)
(0.00226247 0.000606226 -0.00106721)
(0.00212283 0.000989889 -0.00106721)
(0.00191868 0.00134348 -0.00106721)
(0.00165624 0.00165624 -0.00106721)
(0.00134348 0.00191868 -0.00106721)
(0.000989889 0.00212283 -0.00106721)
(0.000606226 0.00226247 -0.00106721)
(0.000204143 0.00233337 -0.00106721)
(-0.000204143 0.00233337 -0.00106721)
(-0.000606226 0.00226247 -0.00106721)
(-0.000989889 0.00212283 -0.00106721)
(-0.00134348 0.00191868 -0.00106721)
(-0.00165624 0.00165624 -0.00106721)
(-0.00191868 0.00134348 -0.00106721)
(-0.00212283 0.000989889 -0.00106721)
(-0.00226247 0.000606226 -0.00106721)
(-0.00233337 0.000204143 -0.00106721)
(-0.00233337 -0.000204143 -0.00106721)
(-0.00226247 -0.000606226 -0.00106721)
(-0.00212283 -0.000989889 -0.00106721)
(-0.00191868 -0.00134348 -0.00106721)
(-0.00165624 -0.00165624 -0.00106721)
(-0.00134348 -0.00191868 -0.00106721)
(-0.000989889 -0.00212283 -0.00106721)
(-0.000606226 -0.00226247 -0.00106721)
(-0.000204143 -0.00233337 -0.00106721)
(0.000204143 -0.00233337 -0.00106721)
(0.000606226 -0.00226247 -0.00106721)
(0.000989889 -0.00212283 -0.00106721)
(0.00134348 -0.00191868 -0.00106721)
(0.00165624 -0.00165624 -0.00106721)
(0.00191868 -0.00134348 -0.00106721)
(0.00212283 -0.000989889 -0.00106721)
(0.00226247 -0.000606226 -0.00106721)
(0.00233337 -0.000204143 -0.00106721)
(0.0028143 0.000246219 -0.00120869)
(0.00272879 0.000731177 -0.00120869)
(0.00256037 0.00119392 -0.00120869)
(0.00231415 0.00162038 -0.00120869)
(0.00199761 0.00199761 -0.00120869)
(0.00162038 0.00231415 -0.00120869)
(0.00119392 0.00256037 -0.00120869)
(0.000731177 0.00272879 -0.00120869)
(0.000246219 0.0028143 -0.00120869)
(-0.000246219 0.0028143 -0.00120869)
(-0.000731177 0.00272879 -0.00120869)
(-0.00119392 0.00256037 -0.00120869)
(-0.00162038 0.00231415 -0.00120869)
(-0.00199761 0.00199761 -0.00120869)
(-0.00231415 0.00162038 -0.00120869)
(-0.00256037 0.00119392 -0.00120869)
(-0.00272879 0.000731177 -0.00120869)
(-0.0028143 0.000246219 -0.00120869)
(-0.0028143 -0.000246219 -0.00120869)
(-0.00272879 -0.000731177 -0.00120869)
(-0.00256037 -0.00119392 -0.00120869)
(-0.00231415 -0.00162038 -0.00120869)
(-0.00199761 -0.00199761 -0.00120869)
(-0.00162038 -0.00231415 -0.00120869)
(-0.00119392 -0.00256037 -0.00120869)
(-0.000731177 -0.00272879 -0.00120869)
(-0.000246219 -0.0028143 -0.00120869)
(0.000246219 -0.0028143 -0.00120869)
(0.000731177 -0.00272879 -0.00120869)
(0.00119392 -0.00256037 -0.00120869)
(0.00162038 -0.00231415 -0.00120869)
(0.00199761 -0.00199761 -0.00120869)
(0.00231415 -0.00162038 -0.00120869)
(0.00256037 -0.00119392 -0.00120869)
(0.00272879 -0.000731177 -0.00120869)
(0.0028143 -0.000246219 -0.00120869)
(0.00225238 0.000197058 -0.00127324)
(0.00218394 0.000585186 -0.00127324)
(0.00204915 0.000955533 -0.00127324)
(0.00185209 0.00129685 -0.00127324)
(0.00159876 0.00159876 -0.00127324)
(0.00129685 0.00185209 -0.00127324)
(0.000955533 0.00204915 -0.00127324)
(0.000585186 0.00218394 -0.00127324)
(0.000197058 0.00225238 -0.00127324)
(-0.000197058 0.00225238 -0.00127324)
(-0.000585186 0.00218394 -0.00127324)
(-0.000955533 0.00204915 -0.00127324)
(-0.00129685 0.00185209 -0.00127324)
(-0.00159876 0.00159876 -0.00127324)
(-0.00185209 0.00129685 -0.00127324)
(-0.00204915 0.000955533 -0.00127324)
(-0.00218394 0.000585186 -0.00127324)
(-0.00225238 0.000197058 -0.00127324)
(-0.00225238 -0.000197058 -0.00127324)
(-0.00218394 -0.000585186 -0.00127324)
(-0.00204915 -0.000955533 -0.00127324)
(-0.00185209 -0.00129685 -0.00127324)
(-0.00159876 -0.00159876 -0.00127324)
(-0.00129685 -0.00185209 -0.00127324)
(-0.000955533 -0.00204915 -0.00127324)
(-0.000585186 -0.00218394 -0.00127324)
(-0.000197058 -0.00225238 -0.00127324)
(0.000197058 -0.00225238 -0.00127324)
(0.000585186 -0.00218394 -0.00127324)
(0.000955533 -0.00204915 -0.00127324)
(0.00129685 -0.00185209 -0.00127324)
(0.00159876 -0.00159876 -0.00127324)
(0.00185209 -0.00129685 -0.00127324)
(0.00204915 -0.000955533 -0.00127324)
(0.00218394 -0.000585186 -0.00127324)
(0.00225238 -0.000197058 -0.00127324)
(0.00263891 0.000230875 -0.00141018)
(0.00255873 0.00068561 -0.00141018)
(0.0024008 0.00111951 -0.00141018)
(0.00216993 0.0015194 -0.00141018)
(0.00187312 0.00187312 -0.00141018)
(0.0015194 0.00216993 -0.00141018)
(0.00111951 0.0024008 -0.00141018)
(0.00068561 0.00255873 -0.00141018)
(0.000230875 0.00263891 -0.00141018)
(-0.000230875 0.00263891 -0.00141018)
(-0.00068561 0.00255873 -0.00141018)
(-0.00111951 0.0024008 -0.00141018)
(-0.0015194 0.00216993 -0.00141018)
(-0.00187312 0.00187312 -0.00141018)
(-0.00216993 0.0015194 -0.00141018)
(-0.0024008 0.00111951 -0.00141018)
(-0.00255873 0.00068561 -0.00141018)
(-0.00263891 0.000230875 -0.00141018)
(-0.00263891 -0.000230875 -0.00141018)
(-0.00255873 -0.00068561 -0.00141018)
(-0.0024008 -0.00111951 -0.00141018)
(-0.00216993 -0.0015194 -0.00141018)
(-0.00187312 -0.00187312 -0.00141018)
(-0.0015194 -0.00216993 -0.00141018)
(-0.00111951 -0.0024008 -0.00141018)
(-0.00068561 -0.00255873 -0.00141018)
(-0.000230875 -0.00263891 -0.00141018)
(0.000230875 -0.00263891 -0.00141018)
(0.00068561 -0.00255873 -0.00141018)
(0.00111951 -0.0024008 -0.00141018)
(0.0015194 -0.00216993 -0.00141018)
(0.00187312 -0.00187312 -0.00141018)
(0.00216993 -0.0015194 -0.00141018)
(0.0024008 -0.00111951 -0.00141018)
(0.00255873 -0.00068561 -0.00141018)
(0.00263891 -0.000230875 -0.00141018)
(0.00313489 0.000274268 -0.00155296)
(0.00303964 0.000814469 -0.00155296)
(0.00285203 0.00132992 -0.00155296)
(0.00257776 0.00180497 -0.00155296)
(0.00222517 0.00222517 -0.00155296)
(0.00180497 0.00257776 -0.00155296)
(0.00132992 0.00285203 -0.00155296)
(0.000814469 0.00303964 -0.00155296)
(0.000274268 0.00313489 -0.00155296)
(-0.000274268 0.00313489 -0.00155296)
(-0.000814469 0.00303964 -0.00155296)
(-0.00132992 0.00285203 -0.00155296)
(-0.00180497 0.00257776 -0.00155296)
(-0.00222517 0.00222517 -0.00155296)
(-0.00257776 0.00180497 -0.00155296)
(-0.00285203 0.00132992 -0.00155296)
(-0.00303964 0.000814469 -0.00155296)
(-0.00313489 0.000274268 -0.00155296)
(-0.00313489 -0.000274268 -0.00155296)
(-0.00303964 -0.000814469 -0.00155296)
(-0.00285203 -0.00132992 -0.00155296)
(-0.00257776 -0.00180497 -0.00155296)
(-0.00222517 -0.00222517 -0.00155296)
(-0.00180497 -0.00257776 -0.00155296)
(-0.00132992 -0.00285203 -0.00155296)
(-0.000814469 -0.00303964 -0.00155296)
(-0.000274268 -0.00313489 -0.00155296)
(0.000274268 -0.00313489 -0.00155296)
(0.000814469 -0.00303964 -0.00155296)
(0.00132992 -0.00285203 -0.00155296)
(0.00180497 -0.00257776 -0.00155296)
(0.00222517 -0.00222517 -0.00155296)
(0.00257776 -0.00180497 -0.00155296)
(0.00285203 -0.00132992 -0.00155296)
(0.00303964 -0.000814469 -0.00155296)
(0.00313489 -0.000274268 -0.00155296)
(0.00236537 0.000206944 -0.00158328)
(0.0022935 0.000614542 -0.00158328)
(0.00215194 0.00100347 -0.00158328)
(0.001945 0.0013619 -0.00158328)
(0.00167896 0.00167896 -0.00158328)
(0.0013619 0.001945 -0.00158328)
(0.00100347 0.00215194 -0.00158328)
(0.000614542 0.0022935 -0.00158328)
(0.000206944 0.00236537 -0.00158328)
(-0.000206944 0.00236537 -0.00158328)
(-0.000614542 0.0022935 -0.00158328)
(-0.00100347 0.00215194 -0.00158328)
(-0.0013619 0.001945 -0.00158328)
(-0.00167896 0.00167896 -0.00158328)
(-0.001945 0.0013619 -0.00158328)
(-0.00215194 0.00100347 -0.00158328)
(-0.0022935 0.000614542 -0.00158328)
(-0.00236537 0.000206944 -0.00158328)
(-0.00236537 -0.000206944 -0.00158328)
(-0.0022935 -0.000614542 -0.00158328)
(-0.00215194 -0.00100347 -0.00158328)
(-0.001945 -0.0013619 -0.00158328)
(-0.00167896 -0.00167896 -0.00158328)
(-0.0013619 -0.001945 -0.00158328)
(-0.00100347 -0.00215194 -0.00158328)
(-0.000614542 -0.0022935 -0.00158328)
(-0.000206944 -0.00236537 -0.00158328)
(0.000206944 -0.00236537 -0.00158328)
(0.000614542 -0.0022935 -0.00158328)
(0.00100347 -0.00215194 -0.00158328)
(0.0013619 -0.001945 -0.00158328)
(0.00167896 -0.00167896 -0.00158328)
(0.001945 -0.0013619 -0.00158328)
(0.00215194 -0.00100347 -0.00158328)
(0.0022935 -0.000614542 -0.00158328)
(0.00236537 -0.000206944 -0.00158328)
(0.00274635 0.000240275 -0.00170915)
(0.0026629 0.000713523 -0.00170915)
(0.00249854 0.00116509 -0.00170915)
(0.00225827 0.00158126 -0.00170915)
(0.00194938 0.00194938 -0.00170915)
(0.00158126 0.00225827 -0.00170915)
(0.00116509 0.00249854 -0.00170915)
(0.000713523 0.0026629 -0.00170915)
(0.000240275 0.00274635 -0.00170915)
(-0.000240275 0.00274635 -0.00170915)
(-0.000713523 0.0026629 -0.00170915)
(-0.00116509 0.00249854 -0.00170915)
(-0.00158126 0.00225827 -0.00170915)
(-0.00194938 0.00194938 -0.00170915)
(-0.00225827 0.00158126 -0.00170915)
(-0.00249854 0.00116509 -0.00170915)
(-0.0026629 0.000713523 -0.00170915)
(-0.00274635 0.000240275 -0.00170915)
(-0.00274635 -0.000240275 -0.00170915)
(-0.0026629 -0.000713523 -0.00170915)
(-0.00249854 -0.00116509 -0.00170915)
(-0.00225827 -0.00158126 -0.00170915)
(-0.00194938 -0.00194938 -0.00170915)
(-0.00158126 -0.00225827 -0.00170915)
(-0.00116509 -0.00249854 -0.00170915)
(-0.000713523 -0.0026629 -0.00170915)
(-0.000240275 -0.00274635 -0.00170915)
(0.000240275 -0.00274635 -0.00170915)
(0.000713523 -0.0026629 -0.00170915)
(0.00116509 -0.00249854 -0.00170915)
(0.00158126 -0.00225827 -0.00170915)
(0.00194938 -0.00194938 -0.00170915)
(0.00225827 -0.00158126 -0.00170915)
(0.00249854 -0.00116509 -0.00170915)
(0.0026629 -0.000713523 -0.00170915)
(0.00274635 -0.000240275 -0.00170915)
(0.00324024 0.000283485 -0.00184865)
(0.00314179 0.00084184 -0.00184865)
(0.00294787 0.00137462 -0.00184865)
(0.00266439 0.00186563 -0.00184865)
(0.00229995 0.00229995 -0.00184865)
(0.00186563 0.00266439 -0.00184865)
(0.00137462 0.00294787 -0.00184865)
(0.00084184 0.00314179 -0.00184865)
(0.000283485 0.00324024 -0.00184865)
(-0.000283485 0.00324024 -0.00184865)
(-0.00084184 0.00314179 -0.00184865)
(-0.00137462 0.00294787 -0.00184865)
(-0.00186563 0.00266439 -0.00184865)
(-0.00229995 0.00229995 -0.00184865)
(-0.00266439 0.00186563 -0.00184865)
(-0.00294787 0.00137462 -0.00184865)
(-0.00314179 0.00084184 -0.00184865)
(-0.00324024 0.000283485 -0.00184865)
(-0.00324024 -0.000283485 -0.00184865)
(-0.00314179 -0.00084184 -0.00184865)
(-0.00294787 -0.00137462 -0.00184865)
(-0.00266439 -0.00186563 -0.00184865)
(-0.00229995 -0.00229995 -0.00184865)
(-0.00186563 -0.00266439 -0.00184865)
(-0.00137462 -0.00294787 -0.00184865)
(-0.00084184 -0.00314179 -0.00184865)
(-0.000283485 -0.00324024 -0.00184865)
(0.000283485 -0.00324024 -0.00184865)
(0.00084184 -0.00314179 -0.00184865)
(0.00137462 -0.00294787 -0.00184865)
(0.00186563 -0.00266439 -0.00184865)
(0.00229995 -0.00229995 -0.00184865)
(0.00266439 -0.00186563 -0.00184865)
(0.00294787 -0.00137462 -0.00184865)
(0.00314179 -0.00084184 -0.00184865)
(0.00324024 -0.000283485 -0.00184865)
(0.00230647 0.00020179 -0.0018333)
(0.00223639 0.00059924 -0.0018333)
(0.00209836 0.000978482 -0.0018333)
(0.00189657 0.00132799 -0.0018333)
(0.00163715 0.00163715 -0.0018333)
(0.00132799 0.00189657 -0.0018333)
(0.000978482 0.00209836 -0.0018333)
(0.00059924 0.00223639 -0.0018333)
(0.00020179 0.00230647 -0.0018333)
(-0.00020179 0.00230647 -0.0018333)
(-0.00059924 0.00223639 -0.0018333)
(-0.000978482 0.00209836 -0.0018333)
(-0.00132799 0.00189657 -0.0018333)
(-0.00163715 0.00163715 -0.0018333)
(-0.00189657 0.00132799 -0.0018333)
(-0.00209836 0.000978482 -0.0018333)
(-0.00223639 0.00059924 -0.0018333)
(-0.00230647 0.00020179 -0.0018333)
(-0.00230647 -0.00020179 -0.0018333)
(-0.00223639 -0.00059924 -0.0018333)
(-0.00209836 -0.000978482 -0.0018333)
(-0.00189657 -0.00132799 -0.0018333)
(-0.00163715 -0.00163715 -0.0018333)
(-0.00132799 -0.00189657 -0.0018333)
(-0.000978482 -0.00209836 -0.0018333)
(-0.00059924 -0.00223639 -0.0018333)
(-0.00020179 -0.00230647 -0.0018333)
(0.00020179 -0.00230647 -0.0018333)
(0.00059924 -0.00223639 -0.0018333)
(0.000978482 -0.00209836 -0.0018333)
(0.00132799 -0.00189657 -0.0018333)
(0.00163715 -0.00163715 -0.0018333)
(0.00189657 -0.00132799 -0.0018333)
(0.00209836 -0.000978482 -0.0018333)
(0.00223639 -0.00059924 -0.0018333)
(0.00230647 -0.00020179 -0.0018333)
(0.00267261 0.000233824 -0.00194743)
(0.00259141 0.000694367 -0.00194743)
(0.00243146 0.00113381 -0.00194743)
(0.00219764 0.00153881 -0.00194743)
(0.00189704 0.00189704 -0.00194743)
(0.00153881 0.00219764 -0.00194743)
(0.00113381 0.00243146 -0.00194743)
(0.000694367 0.00259141 -0.00194743)
(0.000233824 0.00267261 -0.00194743)
(-0.000233824 0.00267261 -0.00194743)
(-0.000694367 0.00259141 -0.00194743)
(-0.00113381 0.00243146 -0.00194743)
(-0.00153881 0.00219764 -0.00194743)
(-0.00189704 0.00189704 -0.00194743)
(-0.00219764 0.00153881 -0.00194743)
(-0.00243146 0.00113381 -0.00194743)
(-0.00259141 0.000694367 -0.00194743)
(-0.00267261 0.000233824 -0.00194743)
(-0.00267261 -0.000233824 -0.00194743)
(-0.00259141 -0.000694367 -0.00194743)
(-0.00243146 -0.00113381 -0.00194743)
(-0.00219764 -0.00153881 -0.00194743)
(-0.00189704 -0.00189704 -0.00194743)
(-0.00153881 -0.00219764 -0.00194743)
(-0.00113381 -0.00243146 -0.00194743)
(-0.000694367 -0.00259141 -0.00194743)
(-0.000233824 -0.00267261 -0.00194743)
(0.000233824 -0.00267261 -0.00194743)
(0.000694367 -0.00259141 -0.00194743)
(0.00113381 -0.00243146 -0.00194743)
(0.00153881 -0.00219764 -0.00194743)
(0.00189704 -0.00189704 -0.00194743)
(0.00219764 -0.00153881 -0.00194743)
(0.00243146 -0.00113381 -0.00194743)
(0.00259141 -0.000694367 -0.00194743)
(0.00267261 -0.000233824 -0.00194743)
(0.00315515 0.000276041 -0.00208408)
(0.00305928 0.000819734 -0.00208408)
(0.00287046 0.00133852 -0.00208408)
(0.00259442 0.00181664 -0.00208408)
(0.00223955 0.00223955 -0.00208408)
(0.00181664 0.00259442 -0.00208408)
(0.00133852 0.00287046 -0.00208408)
(0.000819734 0.00305928 -0.00208408)
(0.000276041 0.00315515 -0.00208408)
(-0.000276041 0.00315515 -0.00208408)
(-0.000819734 0.00305928 -0.00208408)
(-0.00133852 0.00287046 -0.00208408)
(-0.00181664 0.00259442 -0.00208408)
(-0.00223955 0.00223955 -0.00208408)
(-0.00259442 0.00181664 -0.00208408)
(-0.00287046 0.00133852 -0.00208408)
(-0.00305928 0.000819734 -0.00208408)
(-0.00315515 0.000276041 -0.00208408)
(-0.00315515 -0.000276041 -0.00208408)
(-0.00305928 -0.000819734 -0.00208408)
(-0.00287046 -0.00133852 -0.00208408)
(-0.00259442 -0.00181664 -0.00208408)
(-0.00223955 -0.00223955 -0.00208408)
(-0.00181664 -0.00259442 -0.00208408)
(-0.00133852 -0.00287046 -0.00208408)
(-0.000819734 -0.00305928 -0.00208408)
(-0.000276041 -0.00315515 -0.00208408)
(0.000276041 -0.00315515 -0.00208408)
(0.000819734 -0.00305928 -0.00208408)
(0.00133852 -0.00287046 -0.00208408)
(0.00181664 -0.00259442 -0.00208408)
(0.00223955 -0.00223955 -0.00208408)
(0.00259442 -0.00181664 -0.00208408)
(0.00287046 -0.00133852 -0.00208408)
(0.00305928 -0.000819734 -0.00208408)
(0.00315515 -0.000276041 -0.00208408)
(0.00209989 0.000183717 -0.00201112)
(0.00203609 0.000545569 -0.00201112)
(0.00191042 0.000890845 -0.00201112)
(0.0017267 0.00120905 -0.00201112)
(0.00149052 0.00149052 -0.00201112)
(0.00120905 0.0017267 -0.00201112)
(0.000890845 0.00191042 -0.00201112)
(0.000545569 0.00203609 -0.00201112)
(0.000183717 0.00209989 -0.00201112)
(-0.000183717 0.00209989 -0.00201112)
(-0.000545569 0.00203609 -0.00201112)