/*--------------------------------*- C++ -*----------------------------------*\
| =========                 |                                                 |
| \\      /  F ield         | OpenFOAM: The Open Source CFD Toolbox           |
|  \\    /   O peration     | Version:  2312                                  |
|   \\  /    A nd           | Website:  www.openfoam.com                      |
|    \\/     M anipulation  |                                                 |
\*---------------------------------------------------------------------------*/
FoamFile
{
    version     2.0;
    format      ascii;
    arch        "LSB;label=32;scalar=64";
    class       pointVectorField;
    location    "0.4";
    object      pointD;
}
// * * * * * * * * * * * * * * * * * * * * * * * * * * * * * * * * * * * * * //

dimensions      [0 1 0 0 0 0 0];

internalField   nonuniform List<vector> 
112333
(
(0 0 0)
(0 0 0)
(0 0 0)
(0 0 0)
(0 0 0)
(0 0 0)
(0 0 0)
(0 0 0)
(0 0 0)
(0 0 0)
(0 0 0)
(0 0 0)
(0 0 0)
(0 0 0)
(0 0 0)
(0 0 0)
(0 0 0)
(0 0 0)
(0 0 0)
(0 0 0)
(0 0 0)
(0 0 0)
(0 0 0)
(0 0 0)
(0 0 0)
(0 0 0)
(0 0 0)
(0 0 0)
(0 0 0)
(0 0 0)
(0 0 0)
(0 0 0)
(0 0 0)
(0 0 0)
(0 0 0)
(0 0 0)
(0 0 0)
(0 0 0)
(0 0 0)
(0 0 0)
(0 0 0)
(0 0 0)
(0 0 0)
(0 0 0)
(0 0 0)
(0 0 0)
(0 0 0)
(0 0 0)
(0 0 0)
(0 0 0)
(0 0 0)
(0 0 0)
(0 0 0)
(0 0 0)
(0 0 0)
(0 0 0)
(0 0 0)
(0 0 0)
(0 0 0)
(0 0 0)
(0 0 0)
(0 0 0)
(0 0 0)
(0 0 0)
(0 0 0)
(0 0 0)
(0 0 0)
(0 0 0)
(0 0 0)
(0 0 0)
(0 0 0)
(0 0 0)
(0 0 0)
(0 0 0)
(0 0 0)
(0 0 0)
(0 0 0)
(0 0 0)
(0 0 0)
(0 0 0)
(0 0 0)
(0 0 0)
(0 0 0)
(0 0 0)
(0 0 0)
(0 0 0)
(0 0 0)
(0 0 0)
(0 0 0)
(0 0 0)
(0 0 0)
(0 0 0)
(0 0 0)
(0 0 0)
(0 0 0)
(0 0 0)
(0 0 0)
(0 0 0)
(0 0 0)
(0 0 0)
(0 0 0)
(0 0 0)
(0 0 0)
(0 0 0)
(0 0 0)
(0 0 0)
(0 0 0)
(0 0 0)
(0 0 0)
(0 0 0)
(0 0 0)
(0 0 0)
(0 0 0)
(0 0 0)
(0 0 0)
(0 0 0)
(0 0 0)
(0 0 0)
(0 0 0)
(0 0 0)
(0 0 0)
(0 0 0)
(0 0 0)
(0 0 0)
(0 0 0)
(0 0 0)
(0 0 0)
(0 0 0)
(0 0 0)
(0 0 0)
(0 0 0)
(0 0 0)
(0 0 0)
(0 0 0)
(0 0 0)
(0 0 0)
(0 0 0)
(0 0 0)
(0 0 0)
(0 0 0)
(0 0 0)
(0 0 0)
(0 0 0)
(0 0 0)
(0.000123484 -0.000117892 -1.24235e-05)
(0.000128509 -0.000112394 -1.24236e-05)
(0.00013329 -0.000106681 -1.2424e-05)
(0.000137816 -0.000100766 -1.24236e-05)
(0.00014208 -9.46587e-05 -1.24234e-05)
(0.000146074 -8.83711e-05 -1.24237e-05)
(0.00014979 -8.19154e-05 -1.24238e-05)
(0.00015322 -7.53037e-05 -1.24235e-05)
(0.000156359 -6.85484e-05 -1.24232e-05)
(0.0001592 -6.16633e-05 -1.24229e-05)
(0.000161739 -5.46606e-05 -1.24231e-05)
(0.000163969 -4.75535e-05 -1.24237e-05)
(0.000165887 -4.03559e-05 -1.24238e-05)
(0.000167489 -3.30814e-05 -1.24236e-05)
(0.000168773 -2.57443e-05 -1.24233e-05)
(0.000169735 -1.83576e-05 -1.2424e-05)
(0.000170374 -1.09364e-05 -1.24241e-05)
(0.000170689 -3.49425e-06 -1.2424e-05)
(0.00017068 3.95397e-06 -1.24235e-05)
(0.000170345 1.13952e-05 -1.24236e-05)
(0.000169685 1.88145e-05 -1.24235e-05)
(0.000168703 2.61986e-05 -1.24237e-05)
(0.0001674 3.35322e-05 -1.24236e-05)
(0.000165778 4.0802e-05 -1.24236e-05)
(0.00016384 4.7994e-05 -1.24234e-05)
(0.00016159 5.50952e-05 -1.24233e-05)
(0.000159033 6.20915e-05 -1.24235e-05)
(0.000156174 6.89693e-05 -1.24236e-05)
(0.000153017 7.57158e-05 -1.24237e-05)
(0.000149569 8.23183e-05 -1.24236e-05)
(0.000145836 8.87639e-05 -1.24234e-05)
(0.000141825 9.50408e-05 -1.24236e-05)
(0.000137544 0.000101137 -1.24236e-05)
(0.000133002 0.00010704 -1.24233e-05)
(0.000128206 0.00011274 -1.24234e-05)
(0.000123166 0.000118224 -1.24234e-05)
(0.000117892 0.000123484 -1.24235e-05)
(0.000112394 0.000128509 -1.24236e-05)
(0.000106681 0.00013329 -1.2424e-05)
(0.000100766 0.000137816 -1.24236e-05)
(9.46587e-05 0.00014208 -1.24234e-05)
(8.83711e-05 0.000146074 -1.24237e-05)
(8.19154e-05 0.00014979 -1.24238e-05)
(7.53037e-05 0.00015322 -1.24235e-05)
(6.85484e-05 0.000156359 -1.24232e-05)
(6.16633e-05 0.0001592 -1.24229e-05)
(5.46606e-05 0.000161739 -1.24231e-05)
(4.75535e-05 0.000163969 -1.24237e-05)
(4.03559e-05 0.000165887 -1.24238e-05)
(3.30814e-05 0.000167489 -1.24236e-05)
(2.57443e-05 0.000168773 -1.24233e-05)
(1.83576e-05 0.000169735 -1.2424e-05)
(1.09364e-05 0.000170374 -1.24241e-05)
(3.49425e-06 0.000170689 -1.2424e-05)
(-3.95397e-06 0.00017068 -1.24235e-05)
(-1.13952e-05 0.000170345 -1.24236e-05)
(-1.88145e-05 0.000169685 -1.24235e-05)
(-2.61986e-05 0.000168703 -1.24237e-05)
(-3.35322e-05 0.0001674 -1.24236e-05)
(-4.0802e-05 0.000165778 -1.24236e-05)
(-4.7994e-05 0.00016384 -1.24234e-05)
(-5.50952e-05 0.00016159 -1.24233e-05)
(-6.20915e-05 0.000159033 -1.24235e-05)
(-6.89693e-05 0.000156174 -1.24236e-05)
(-7.57158e-05 0.000153017 -1.24237e-05)
(-8.23183e-05 0.000149569 -1.24236e-05)
(-8.87639e-05 0.000145836 -1.24234e-05)
(-9.50408e-05 0.000141825 -1.24236e-05)
(-0.000101137 0.000137544 -1.24236e-05)
(-0.00010704 0.000133002 -1.24233e-05)
(-0.00011274 0.000128206 -1.24234e-05)
(-0.000118224 0.000123166 -1.24234e-05)
(-0.000123484 0.000117892 -1.24235e-05)
(-0.000128509 0.000112394 -1.24236e-05)
(-0.00013329 0.000106681 -1.2424e-05)
(-0.000137816 0.000100766 -1.24236e-05)
(-0.00014208 9.46587e-05 -1.24234e-05)
(-0.000146074 8.83711e-05 -1.24237e-05)
(-0.00014979 8.19154e-05 -1.24238e-05)
(-0.00015322 7.53037e-05 -1.24235e-05)
(-0.000156359 6.85484e-05 -1.24232e-05)
(-0.0001592 6.16633e-05 -1.24229e-05)
(-0.000161739 5.46606e-05 -1.24231e-05)
(-0.000163969 4.75535e-05 -1.24237e-05)
(-0.000165887 4.03559e-05 -1.24238e-05)
(-0.000167489 3.30814e-05 -1.24236e-05)
(-0.000168773 2.57443e-05 -1.24233e-05)
(-0.000169735 1.83576e-05 -1.2424e-05)
(-0.000170374 1.09364e-05 -1.24241e-05)
(-0.000170689 3.49426e-06 -1.2424e-05)
(-0.00017068 -3.95397e-06 -1.24235e-05)
(-0.000170345 -1.13952e-05 -1.24236e-05)
(-0.000169685 -1.88145e-05 -1.24235e-05)
(-0.000168703 -2.61986e-05 -1.24237e-05)
(-0.0001674 -3.35322e-05 -1.24236e-05)
(-0.000165778 -4.0802e-05 -1.24236e-05)
(-0.00016384 -4.7994e-05 -1.24234e-05)
(-0.00016159 -5.50952e-05 -1.24233e-05)
(-0.000159033 -6.20915e-05 -1.24235e-05)
(-0.000156174 -6.89693e-05 -1.24236e-05)
(-0.000153017 -7.57158e-05 -1.24237e-05)
(-0.000149569 -8.23183e-05 -1.24236e-05)
(-0.000145836 -8.87639e-05 -1.24234e-05)
(-0.000141825 -9.50408e-05 -1.24236e-05)
(-0.000137544 -0.000101137 -1.24236e-05)
(-0.000133002 -0.00010704 -1.24233e-05)
(-0.000128206 -0.00011274 -1.24234e-05)
(-0.000123166 -0.000118224 -1.24234e-05)
(-0.000117892 -0.000123484 -1.24235e-05)
(-0.000112394 -0.000128509 -1.24236e-05)
(-0.000106681 -0.00013329 -1.2424e-05)
(-0.000100766 -0.000137816 -1.24236e-05)
(-9.46587e-05 -0.00014208 -1.24234e-05)
(-8.83711e-05 -0.000146074 -1.24237e-05)
(-8.19154e-05 -0.00014979 -1.24238e-05)
(-7.53037e-05 -0.00015322 -1.24235e-05)
(-6.85484e-05 -0.000156359 -1.24232e-05)
(-6.16633e-05 -0.0001592 -1.24229e-05)
(-5.46606e-05 -0.000161739 -1.24231e-05)
(-4.75535e-05 -0.000163969 -1.24237e-05)
(-4.03559e-05 -0.000165887 -1.24238e-05)
(-3.30814e-05 -0.000167489 -1.24236e-05)
(-2.57443e-05 -0.000168773 -1.24233e-05)
(-1.83576e-05 -0.000169735 -1.2424e-05)
(-1.09364e-05 -0.000170374 -1.24241e-05)
(-3.49426e-06 -0.000170689 -1.2424e-05)
(3.95397e-06 -0.00017068 -1.24235e-05)
(1.13952e-05 -0.000170345 -1.24236e-05)
(1.88145e-05 -0.000169685 -1.24235e-05)
(2.61986e-05 -0.000168703 -1.24237e-05)
(3.35322e-05 -0.0001674 -1.24236e-05)
(4.0802e-05 -0.000165778 -1.24236e-05)
(4.7994e-05 -0.00016384 -1.24234e-05)
(5.50952e-05 -0.00016159 -1.24233e-05)
(6.20915e-05 -0.000159033 -1.24235e-05)
(6.89693e-05 -0.000156174 -1.24236e-05)
(7.57158e-05 -0.000153017 -1.24237e-05)
(8.23183e-05 -0.000149569 -1.24236e-05)
(8.87639e-05 -0.000145836 -1.24234e-05)
(9.50408e-05 -0.000141825 -1.24236e-05)
(0.000101137 -0.000137544 -1.24236e-05)
(0.00010704 -0.000133002 -1.24233e-05)
(0.00011274 -0.000128206 -1.24234e-05)
(0.000118224 -0.000123166 -1.24234e-05)
(0.000118791 -0.000129851 4.07828e-07)
(0.000124341 -0.000124546 4.07848e-07)
(0.000129656 -0.000119004 4.07851e-07)
(0.000134723 -0.000113235 4.07568e-07)
(0.000139534 -0.000107251 4.07988e-07)
(0.00014408 -0.000101062 4.07638e-07)
(0.000148351 -9.46816e-05 4.0763e-07)
(0.00015234 -8.81207e-05 4.07957e-07)
(0.000156038 -8.13919e-05 4.08301e-07)
(0.00015944 -7.45083e-05 4.08345e-07)
(0.000162538 -6.74827e-05 4.08158e-07)
(0.000165327 -6.03285e-05 4.07789e-07)
(0.000167801 -5.30594e-05 4.07642e-07)
(0.000169956 -4.56895e-05 4.07846e-07)
(0.000171787 -3.82323e-05 4.07757e-07)
(0.000173291 -3.07029e-05 4.07776e-07)
(0.000174466 -2.31145e-05 4.07448e-07)
(0.000175308 -1.54829e-05 4.0779e-07)
(0.000175817 -7.82132e-06 4.07786e-07)
(0.00017599 -1.44883e-07 4.08004e-07)
(0.000175829 7.53221e-06 4.07698e-07)
(0.000175333 1.51944e-05 4.07802e-07)
(0.000174503 2.28278e-05 4.07754e-07)
(0.000173342 3.04177e-05 4.07811e-07)
(0.00017185 3.79496e-05 4.08004e-07)
(0.000170031 4.54096e-05 4.08117e-07)
(0.000167888 5.27831e-05 4.08102e-07)
(0.000165426 6.00562e-05 4.07879e-07)
(0.000162649 6.72148e-05 4.07662e-07)
(0.000159562 7.42456e-05 4.07688e-07)
(0.000156172 8.11348e-05 4.07969e-07)
(0.000152484 8.78699e-05 4.07612e-07)
(0.000148507 9.44371e-05 4.08086e-07)
(0.000144246 0.000100825 4.08043e-07)
(0.00013971 0.000107021 4.07858e-07)
(0.000134909 0.000113013 4.0803e-07)
(0.000129851 0.000118791 4.07828e-07)
(0.000124546 0.000124341 4.07848e-07)
(0.000119004 0.000129656 4.07851e-07)
(0.000113235 0.000134723 4.07568e-07)
(0.000107251 0.000139534 4.07988e-07)
(0.000101062 0.00014408 4.07638e-07)
(9.46816e-05 0.000148351 4.0763e-07)
(8.81207e-05 0.00015234 4.07957e-07)
(8.13919e-05 0.000156038 4.08301e-07)
(7.45083e-05 0.00015944 4.08345e-07)
(6.74827e-05 0.000162538 4.08158e-07)
(6.03285e-05 0.000165327 4.07789e-07)
(5.30594e-05 0.000167801 4.07642e-07)
(4.56895e-05 0.000169956 4.07846e-07)
(3.82323e-05 0.000171787 4.07757e-07)
(3.07029e-05 0.000173291 4.07776e-07)
(2.31145e-05 0.000174466 4.07448e-07)
(1.54829e-05 0.000175308 4.0779e-07)
(7.82132e-06 0.000175817 4.07786e-07)
(1.44883e-07 0.00017599 4.08004e-07)
(-7.53221e-06 0.000175829 4.07698e-07)
(-1.51944e-05 0.000175333 4.07802e-07)
(-2.28278e-05 0.000174503 4.07754e-07)
(-3.04177e-05 0.000173342 4.07811e-07)
(-3.79496e-05 0.00017185 4.08004e-07)
(-4.54096e-05 0.000170031 4.08117e-07)
(-5.27831e-05 0.000167888 4.08102e-07)
(-6.00562e-05 0.000165426 4.07879e-07)
(-6.72148e-05 0.000162649 4.07662e-07)
(-7.42456e-05 0.000159562 4.07688e-07)
(-8.11348e-05 0.000156172 4.07969e-07)
(-8.78699e-05 0.000152484 4.07612e-07)
(-9.44371e-05 0.000148507 4.08086e-07)
(-0.000100825 0.000144246 4.08043e-07)
(-0.000107021 0.00013971 4.07858e-07)
(-0.000113013 0.000134909 4.0803e-07)
(-0.000118791 0.000129851 4.07828e-07)
(-0.000124341 0.000124546 4.07848e-07)
(-0.000129656 0.000119004 4.07851e-07)
(-0.000134723 0.000113235 4.07568e-07)
(-0.000139534 0.000107251 4.07988e-07)
(-0.00014408 0.000101062 4.07638e-07)
(-0.000148351 9.46816e-05 4.0763e-07)
(-0.00015234 8.81207e-05 4.07957e-07)
(-0.000156038 8.13919e-05 4.08301e-07)
(-0.00015944 7.45083e-05 4.08344e-07)
(-0.000162538 6.74827e-05 4.08158e-07)
(-0.000165327 6.03285e-05 4.07789e-07)
(-0.000167801 5.30594e-05 4.07642e-07)
(-0.000169956 4.56895e-05 4.07846e-07)
(-0.000171787 3.82323e-05 4.07757e-07)
(-0.000173291 3.07029e-05 4.07776e-07)
(-0.000174466 2.31145e-05 4.07448e-07)
(-0.000175308 1.54829e-05 4.0779e-07)
(-0.000175817 7.82132e-06 4.07786e-07)
(-0.00017599 1.44884e-07 4.08004e-07)
(-0.000175829 -7.53221e-06 4.07698e-07)
(-0.000175333 -1.51944e-05 4.07802e-07)
(-0.000174503 -2.28278e-05 4.07754e-07)
(-0.000173342 -3.04177e-05 4.07811e-07)
(-0.00017185 -3.79496e-05 4.08004e-07)
(-0.000170031 -4.54096e-05 4.08117e-07)
(-0.000167888 -5.27831e-05 4.08102e-07)
(-0.000165426 -6.00562e-05 4.07879e-07)
(-0.000162649 -6.72148e-05 4.07662e-07)
(-0.000159562 -7.42456e-05 4.07688e-07)
(-0.000156172 -8.11348e-05 4.07969e-07)
(-0.000152484 -8.78699e-05 4.07612e-07)
(-0.000148507 -9.44371e-05 4.08086e-07)
(-0.000144246 -0.000100825 4.08043e-07)
(-0.00013971 -0.000107021 4.07858e-07)
(-0.000134909 -0.000113013 4.0803e-07)
(-0.000129851 -0.000118791 4.07828e-07)
(-0.000124546 -0.000124341 4.07848e-07)
(-0.000119004 -0.000129656 4.07851e-07)
(-0.000113235 -0.000134723 4.07568e-07)
(-0.000107251 -0.000139534 4.07988e-07)
(-0.000101062 -0.00014408 4.07638e-07)
(-9.46816e-05 -0.000148351 4.0763e-07)
(-8.81207e-05 -0.00015234 4.07957e-07)
(-8.13919e-05 -0.000156038 4.08301e-07)
(-7.45083e-05 -0.00015944 4.08344e-07)
(-6.74827e-05 -0.000162538 4.08158e-07)
(-6.03285e-05 -0.000165327 4.07789e-07)
(-5.30594e-05 -0.000167801 4.07642e-07)
(-4.56895e-05 -0.000169956 4.07846e-07)
(-3.82323e-05 -0.000171787 4.07757e-07)
(-3.07029e-05 -0.000173291 4.07776e-07)
(-2.31145e-05 -0.000174466 4.07448e-07)
(-1.54829e-05 -0.000175308 4.0779e-07)
(-7.82132e-06 -0.000175817 4.07786e-07)
(-1.44883e-07 -0.00017599 4.08004e-07)
(7.53221e-06 -0.000175829 4.07698e-07)
(1.51944e-05 -0.000175333 4.07802e-07)
(2.28278e-05 -0.000174503 4.07754e-07)
(3.04177e-05 -0.000173342 4.07811e-07)
(3.79496e-05 -0.00017185 4.08004e-07)
(4.54096e-05 -0.000170031 4.08117e-07)
(5.27831e-05 -0.000167888 4.08102e-07)
(6.00562e-05 -0.000165426 4.07879e-07)
(6.72148e-05 -0.000162649 4.07662e-07)
(7.42456e-05 -0.000159562 4.07688e-07)
(8.11348e-05 -0.000156172 4.07969e-07)
(8.78699e-05 -0.000152484 4.07612e-07)
(9.44371e-05 -0.000148507 4.08086e-07)
(0.000100825 -0.000144246 4.08043e-07)
(0.000107021 -0.00013971 4.07858e-07)
(0.000113013 -0.000134909 4.0803e-07)
(0 0 0)
(0 0 0)
(0 0 0)
(0 0 0)
(0 0 0)
(0 0 0)
(0 0 0)
(0 0 0)
(0 0 0)
(0 0 0)
(0 0 0)
(0 0 0)
(0 0 0)
(0 0 0)
(0 0 0)
(0 0 0)
(0 0 0)
(0 0 0)
(0 0 0)
(0 0 0)
(0 0 0)
(0 0 0)
(0 0 0)
(0 0 0)
(0 0 0)
(0 0 0)
(0 0 0)
(0 0 0)
(0 0 0)
(0 0 0)
(0 0 0)
(0 0 0)
(0 0 0)
(0 0 0)
(0 0 0)
(0 0 0)
(0 0 0)
(0 0 0)
(0 0 0)
(0 0 0)
(0 0 0)
(0 0 0)
(0 0 0)
(0 0 0)
(0 0 0)
(0 0 0)
(0 0 0)
(0 0 0)
(0 0 0)
(0 0 0)
(0 0 0)
(0 0 0)
(0 0 0)
(0 0 0)
(0 0 0)
(0 0 0)
(0 0 0)
(0 0 0)
(0 0 0)
(0 0 0)
(0 0 0)
(0 0 0)
(0 0 0)
(0 0 0)
(0 0 0)
(0 0 0)
(0 0 0)
(0 0 0)
(0 0 0)
(0 0 0)
(0 0 0)
(0 0 0)
(0 0 0)
(0 0 0)
(0 0 0)
(0 0 0)
(0 0 0)
(0 0 0)
(0 0 0)
(0 0 0)
(0 0 0)
(0 0 0)
(0 0 0)
(0 0 0)
(0 0 0)
(0 0 0)
(0 0 0)
(0 0 0)
(0 0 0)
(0 0 0)
(0 0 0)
(0 0 0)
(0 0 0)
(0 0 0)
(0 0 0)
(0 0 0)
(0 0 0)
(0 0 0)
(0 0 0)
(0 0 0)
(0 0 0)
(0 0 0)
(0 0 0)
(0 0 0)
(0 0 0)
(0 0 0)
(0 0 0)
(0 0 0)
(0 0 0)
(0 0 0)
(0 0 0)
(0 0 0)
(0 0 0)
(0 0 0)
(0 0 0)
(0 0 0)
(0 0 0)
(0 0 0)
(0 0 0)
(0 0 0)
(0 0 0)
(0 0 0)
(0 0 0)
(0 0 0)
(0 0 0)
(0 0 0)
(0 0 0)
(0 0 0)
(0 0 0)
(0 0 0)
(0 0 0)
(0 0 0)
(0 0 0)
(0 0 0)
(0 0 0)
(0 0 0)
(0 0 0)
(0 0 0)
(0 0 0)
(0 0 0)
(0 0 0)
(0 0 0)
(0 0 0)
(0 0 0)
(0.000111955 -0.000141934 1.10361e-05)
(0.000118039 -0.000136915 1.10359e-05)
(0.000123899 -0.000131636 1.10358e-05)
(0.000129523 -0.000126107 1.10361e-05)
(0.000134901 -0.000120337 1.10363e-05)
(0.000140021 -0.000114338 1.10361e-05)
(0.000144876 -0.000108122 1.1036e-05)
(0.000149454 -0.0001017 1.10362e-05)
(0.000153748 -9.50836e-05 1.10361e-05)
(0.000157749 -8.82871e-05 1.10363e-05)
(0.00016145 -8.13221e-05 1.10362e-05)
(0.000164843 -7.42023e-05 1.1036e-05)
(0.000167923 -6.69412e-05 1.10359e-05)
(0.000170683 -5.95524e-05 1.10359e-05)
(0.000173118 -5.2051e-05 1.10363e-05)
(0.000175224 -4.44503e-05 1.10363e-05)
(0.000176996 -3.67644e-05 1.10359e-05)
(0.000178431 -2.9009e-05 1.10359e-05)
(0.000179527 -2.11984e-05 1.1036e-05)
(0.000180281 -1.33479e-05 1.10364e-05)
(0.000180691 -5.47128e-06 1.10363e-05)
(0.000180758 2.41606e-06 1.10359e-05)
(0.00018048 1.02981e-05 1.10359e-05)
(0.000179859 1.81607e-05 1.1036e-05)
(0.000178896 2.59885e-05 1.10361e-05)
(0.000177592 3.3767e-05 1.10362e-05)
(0.00017595 4.14816e-05 1.10361e-05)
(0.000173973 4.91169e-05 1.10361e-05)
(0.000171665 5.66588e-05 1.1036e-05)
(0.00016903 6.40929e-05 1.10361e-05)
(0.000166074 7.14047e-05 1.10363e-05)
(0.000162801 7.85808e-05 1.10362e-05)
(0.000159218 8.56075e-05 1.10359e-05)
(0.000155333 9.2471e-05 1.1036e-05)
(0.000151152 9.91584e-05 1.10361e-05)
(0.000146682 0.000105657 1.1036e-05)
(0.000141934 0.000111955 1.10361e-05)
(0.000136915 0.000118039 1.10359e-05)
(0.000131636 0.000123899 1.10358e-05)
(0.000126107 0.000129523 1.10361e-05)
(0.000120337 0.000134901 1.10363e-05)
(0.000114338 0.000140021 1.10361e-05)
(0.000108122 0.000144876 1.1036e-05)
(0.0001017 0.000149454 1.10362e-05)
(9.50836e-05 0.000153748 1.10361e-05)
(8.82871e-05 0.000157749 1.10363e-05)
(8.13221e-05 0.00016145 1.10362e-05)
(7.42023e-05 0.000164843 1.1036e-05)
(6.69412e-05 0.000167923 1.10359e-05)
(5.95524e-05 0.000170683 1.10359e-05)
(5.2051e-05 0.000173118 1.10363e-05)
(4.44503e-05 0.000175224 1.10363e-05)
(3.67644e-05 0.000176996 1.10359e-05)
(2.9009e-05 0.000178431 1.10359e-05)
(2.11984e-05 0.000179527 1.1036e-05)
(1.33479e-05 0.000180281 1.10364e-05)
(5.47128e-06 0.000180691 1.10363e-05)
(-2.41606e-06 0.000180758 1.10359e-05)
(-1.02981e-05 0.00018048 1.10359e-05)
(-1.81607e-05 0.000179859 1.1036e-05)
(-2.59885e-05 0.000178896 1.10361e-05)
(-3.3767e-05 0.000177592 1.10362e-05)
(-4.14816e-05 0.00017595 1.10361e-05)
(-4.91169e-05 0.000173973 1.10361e-05)
(-5.66588e-05 0.000171665 1.1036e-05)
(-6.40929e-05 0.00016903 1.10361e-05)
(-7.14047e-05 0.000166074 1.10363e-05)
(-7.85808e-05 0.000162801 1.10362e-05)
(-8.56075e-05 0.000159218 1.10359e-05)
(-9.2471e-05 0.000155333 1.1036e-05)
(-9.91584e-05 0.000151152 1.10361e-05)
(-0.000105657 0.000146682 1.1036e-05)
(-0.000111955 0.000141934 1.10361e-05)
(-0.000118039 0.000136915 1.10359e-05)
(-0.000123899 0.000131636 1.10358e-05)
(-0.000129523 0.000126107 1.10361e-05)
(-0.000134901 0.000120337 1.10363e-05)
(-0.000140021 0.000114338 1.10361e-05)
(-0.000144876 0.000108122 1.1036e-05)
(-0.000149454 0.0001017 1.10362e-05)
(-0.000153748 9.50836e-05 1.10361e-05)
(-0.000157749 8.82871e-05 1.10363e-05)
(-0.00016145 8.13221e-05 1.10362e-05)
(-0.000164843 7.42023e-05 1.1036e-05)
(-0.000167923 6.69412e-05 1.10359e-05)
(-0.000170683 5.95524e-05 1.10359e-05)
(-0.000173118 5.2051e-05 1.10363e-05)
(-0.000175224 4.44503e-05 1.10363e-05)
(-0.000176996 3.67644e-05 1.10359e-05)
(-0.000178431 2.9009e-05 1.10359e-05)
(-0.000179527 2.11984e-05 1.1036e-05)
(-0.000180281 1.33479e-05 1.10364e-05)
(-0.000180691 5.47128e-06 1.10363e-05)
(-0.000180758 -2.41606e-06 1.10359e-05)
(-0.00018048 -1.02981e-05 1.10359e-05)
(-0.000179859 -1.81607e-05 1.1036e-05)
(-0.000178896 -2.59885e-05 1.10361e-05)
(-0.000177592 -3.3767e-05 1.10362e-05)
(-0.00017595 -4.14816e-05 1.10361e-05)
(-0.000173973 -4.91169e-05 1.10361e-05)
(-0.000171665 -5.66588e-05 1.1036e-05)
(-0.00016903 -6.40929e-05 1.10361e-05)
(-0.000166074 -7.14047e-05 1.10363e-05)
(-0.000162801 -7.85808e-05 1.10362e-05)
(-0.000159218 -8.56075e-05 1.10359e-05)
(-0.000155333 -9.2471e-05 1.1036e-05)
(-0.000151152 -9.91584e-05 1.10361e-05)
(-0.000146682 -0.000105657 1.1036e-05)
(-0.000141934 -0.000111955 1.10361e-05)
(-0.000136915 -0.000118039 1.10359e-05)
(-0.000131636 -0.000123899 1.10358e-05)
(-0.000126107 -0.000129523 1.10361e-05)
(-0.000120337 -0.000134901 1.10363e-05)
(-0.000114338 -0.000140021 1.10361e-05)
(-0.000108122 -0.000144876 1.1036e-05)
(-0.0001017 -0.000149454 1.10362e-05)
(-9.50836e-05 -0.000153748 1.10361e-05)
(-8.82871e-05 -0.000157749 1.10363e-05)
(-8.13221e-05 -0.00016145 1.10362e-05)
(-7.42023e-05 -0.000164843 1.1036e-05)
(-6.69412e-05 -0.000167923 1.10359e-05)
(-5.95524e-05 -0.000170683 1.10359e-05)
(-5.2051e-05 -0.000173118 1.10363e-05)
(-4.44503e-05 -0.000175224 1.10363e-05)
(-3.67644e-05 -0.000176996 1.10359e-05)
(-2.9009e-05 -0.000178431 1.10359e-05)
(-2.11984e-05 -0.000179527 1.1036e-05)
(-1.33479e-05 -0.000180281 1.10364e-05)
(-5.47128e-06 -0.000180691 1.10363e-05)
(2.41606e-06 -0.000180758 1.10359e-05)
(1.02981e-05 -0.00018048 1.10359e-05)
(1.81607e-05 -0.000179859 1.1036e-05)
(2.59885e-05 -0.000178896 1.10361e-05)
(3.3767e-05 -0.000177592 1.10362e-05)
(4.14816e-05 -0.00017595 1.10361e-05)
(4.91169e-05 -0.000173973 1.10361e-05)
(5.66588e-05 -0.000171665 1.1036e-05)
(6.40929e-05 -0.00016903 1.10361e-05)
(7.14047e-05 -0.000166074 1.10363e-05)
(7.85808e-05 -0.000162801 1.10362e-05)
(8.56075e-05 -0.000159218 1.10359e-05)
(9.2471e-05 -0.000155333 1.1036e-05)
(9.91584e-05 -0.000151152 1.10361e-05)
(0.000105657 -0.000146682 1.1036e-05)
(0 0 0)
(0 0 0)
(0 0 0)
(0 0 0)
(0 0 0)
(0 0 0)
(0 0 0)
(0 0 0)
(0 0 0)
(0 0 0)
(0 0 0)
(0 0 0)
(0 0 0)
(0 0 0)
(0 0 0)
(0 0 0)
(0 0 0)
(0 0 0)
(0 0 0)
(0 0 0)
(0 0 0)
(0 0 0)
(0 0 0)
(0 0 0)
(0 0 0)
(0 0 0)
(0 0 0)
(0 0 0)
(0 0 0)
(0 0 0)
(0 0 0)
(0 0 0)
(0 0 0)
(0 0 0)
(0 0 0)
(0 0 0)
(0 0 0)
(0 0 0)
(0 0 0)
(0 0 0)
(0 0 0)
(0 0 0)
(0 0 0)
(0 0 0)
(0 0 0)
(0 0 0)
(0 0 0)
(0 0 0)
(0 0 0)
(0 0 0)
(0 0 0)
(0 0 0)
(0 0 0)
(0 0 0)
(0 0 0)
(0 0 0)
(0 0 0)
(0 0 0)
(0 0 0)
(0 0 0)
(0 0 0)
(0 0 0)
(0 0 0)
(0 0 0)
(0 0 0)
(0 0 0)
(0 0 0)
(0 0 0)
(0 0 0)
(0 0 0)
(0 0 0)
(0 0 0)
(0 0 0)
(0 0 0)
(0 0 0)
(0 0 0)
(0 0 0)
(0 0 0)
(0 0 0)
(0 0 0)
(0 0 0)
(0 0 0)
(0 0 0)
(0 0 0)
(0 0 0)
(0 0 0)
(0 0 0)
(0 0 0)
(0 0 0)
(0 0 0)
(0 0 0)
(0 0 0)
(0 0 0)
(0 0 0)
(0 0 0)
(0 0 0)
(0 0 0)
(0 0 0)
(0 0 0)
(0 0 0)
(0 0 0)
(0 0 0)
(0 0 0)
(0 0 0)
(0 0 0)
(0 0 0)
(0 0 0)
(0 0 0)
(0 0 0)
(0 0 0)
(0 0 0)
(0 0 0)
(0 0 0)
(0 0 0)
(0 0 0)
(0 0 0)
(0 0 0)
(0 0 0)
(0 0 0)
(0 0 0)
(0 0 0)
(0 0 0)
(0 0 0)
(0 0 0)
(0 0 0)
(0 0 0)
(0 0 0)
(0 0 0)
(0 0 0)
(0 0 0)
(0 0 0)
(0 0 0)
(0 0 0)
(0 0 0)
(0 0 0)
(0 0 0)
(0 0 0)
(0 0 0)
(0 0 0)
(0 0 0)
(0 0 0)
(0 0 0)
(0 0 0)
(0 0 0)
(0.000101202 -0.000153854 1.69066e-05)
(0.000107817 -0.000149294 1.69065e-05)
(0.000114226 -0.000144449 1.69066e-05)
(0.000120418 -0.000139329 1.69068e-05)
(0.000126381 -0.000133944 1.69067e-05)
(0.000132103 -0.000128303 1.69068e-05)
(0.000137574 -0.000122419 1.69068e-05)
(0.000142783 -0.000116302 1.69068e-05)
(0.00014772 -0.000109963 1.69067e-05)
(0.000152376 -0.000103415 1.69066e-05)
(0.000156742 -9.66699e-05 1.69067e-05)
(0.000160809 -8.97409e-05 1.69067e-05)
(0.000164571 -8.26408e-05 1.69066e-05)
(0.000168019 -7.53837e-05 1.69066e-05)
(0.000171147 -6.79831e-05 1.69067e-05)
(0.00017395 -6.04533e-05 1.69068e-05)
(0.000176421 -5.28082e-05 1.69068e-05)
(0.000178557 -4.50619e-05 1.69066e-05)
(0.000180352 -3.72313e-05 1.69068e-05)
(0.000181804 -2.93289e-05 1.69068e-05)
(0.000182911 -2.13703e-05 1.69067e-05)
(0.000183669 -1.33717e-05 1.69066e-05)
(0.000184077 -5.3475e-06 1.69066e-05)
(0.000184135 2.68673e-06 1.69067e-05)
(0.000183843 1.07162e-05 1.69067e-05)
(0.0001832 1.87254e-05 1.69066e-05)
(0.000182209 2.66986e-05 1.69066e-05)
(0.000180871 3.46207e-05 1.69068e-05)
(0.000179189 4.24773e-05 1.69068e-05)
(0.000177166 5.02529e-05 1.69068e-05)
(0.000174805 5.79331e-05 1.69067e-05)
(0.000172112 6.55026e-05 1.69068e-05)
(0.000169091 7.29479e-05 1.69067e-05)
(0.000165748 8.02543e-05 1.69066e-05)
(0.000162089 8.74077e-05 1.69066e-05)
(0.000158122 9.43948e-05 1.69066e-05)
(0.000153854 0.000101202 1.69066e-05)
(0.000149294 0.000107817 1.69065e-05)
(0.000144449 0.000114226 1.69066e-05)
(0.000139329 0.000120418 1.69068e-05)
(0.000133944 0.000126381 1.69067e-05)
(0.000128303 0.000132103 1.69068e-05)
(0.000122419 0.000137574 1.69068e-05)
(0.000116302 0.000142783 1.69068e-05)
(0.000109963 0.00014772 1.69067e-05)
(0.000103415 0.000152376 1.69066e-05)
(9.66699e-05 0.000156742 1.69067e-05)
(8.97409e-05 0.000160809 1.69067e-05)
(8.26408e-05 0.000164571 1.69066e-05)
(7.53837e-05 0.000168019 1.69066e-05)
(6.79831e-05 0.000171147 1.69067e-05)
(6.04533e-05 0.00017395 1.69068e-05)
(5.28082e-05 0.000176421 1.69068e-05)
(4.50619e-05 0.000178557 1.69066e-05)
(3.72313e-05 0.000180352 1.69068e-05)
(2.93289e-05 0.000181804 1.69068e-05)
(2.13703e-05 0.000182911 1.69067e-05)
(1.33717e-05 0.000183669 1.69066e-05)
(5.3475e-06 0.000184077 1.69066e-05)
(-2.68673e-06 0.000184135 1.69067e-05)
(-1.07162e-05 0.000183843 1.69067e-05)
(-1.87254e-05 0.0001832 1.69066e-05)
(-2.66986e-05 0.000182209 1.69066e-05)
(-3.46207e-05 0.000180871 1.69068e-05)
(-4.24773e-05 0.000179189 1.69068e-05)
(-5.02529e-05 0.000177166 1.69068e-05)
(-5.79331e-05 0.000174805 1.69067e-05)
(-6.55026e-05 0.000172112 1.69068e-05)
(-7.29479e-05 0.000169091 1.69067e-05)
(-8.02543e-05 0.000165748 1.69066e-05)
(-8.74077e-05 0.000162089 1.69066e-05)
(-9.43948e-05 0.000158122 1.69066e-05)
(-0.000101202 0.000153854 1.69066e-05)
(-0.000107817 0.000149294 1.69065e-05)
(-0.000114226 0.000144449 1.69066e-05)
(-0.000120418 0.000139329 1.69068e-05)
(-0.000126381 0.000133944 1.69067e-05)
(-0.000132103 0.000128303 1.69068e-05)
(-0.000137574 0.000122419 1.69068e-05)
(-0.000142783 0.000116302 1.69068e-05)
(-0.00014772 0.000109963 1.69067e-05)
(-0.000152376 0.000103415 1.69066e-05)
(-0.000156742 9.66699e-05 1.69067e-05)
(-0.000160809 8.97409e-05 1.69067e-05)
(-0.000164571 8.26408e-05 1.69066e-05)
(-0.000168019 7.53837e-05 1.69066e-05)
(-0.000171147 6.79831e-05 1.69067e-05)
(-0.00017395 6.04533e-05 1.69068e-05)
(-0.000176421 5.28082e-05 1.69068e-05)
(-0.000178557 4.50619e-05 1.69066e-05)
(-0.000180352 3.72313e-05 1.69068e-05)
(-0.000181804 2.93289e-05 1.69068e-05)
(-0.000182911 2.13703e-05 1.69067e-05)
(-0.000183669 1.33717e-05 1.69066e-05)
(-0.000184077 5.3475e-06 1.69066e-05)
(-0.000184135 -2.68673e-06 1.69067e-05)
(-0.000183843 -1.07162e-05 1.69067e-05)
(-0.0001832 -1.87254e-05 1.69066e-05)
(-0.000182209 -2.66986e-05 1.69066e-05)
(-0.000180871 -3.46207e-05 1.69068e-05)
(-0.000179189 -4.24773e-05 1.69068e-05)
(-0.000177166 -5.02529e-05 1.69068e-05)
(-0.000174805 -5.79331e-05 1.69067e-05)
(-0.000172112 -6.55026e-05 1.69068e-05)
(-0.000169091 -7.29479e-05 1.69067e-05)
(-0.000165748 -8.02543e-05 1.69066e-05)
(-0.000162089 -8.74077e-05 1.69066e-05)
(-0.000158122 -9.43948e-05 1.69066e-05)
(-0.000153854 -0.000101202 1.69066e-05)
(-0.000149294 -0.000107817 1.69065e-05)
(-0.000144449 -0.000114226 1.69066e-05)
(-0.000139329 -0.000120418 1.69068e-05)
(-0.000133944 -0.000126381 1.69067e-05)
(-0.000128303 -0.000132103 1.69068e-05)
(-0.000122419 -0.000137574 1.69068e-05)
(-0.000116302 -0.000142783 1.69068e-05)
(-0.000109963 -0.00014772 1.69067e-05)
(-0.000103415 -0.000152376 1.69066e-05)
(-9.66699e-05 -0.000156742 1.69067e-05)
(-8.97409e-05 -0.000160809 1.69067e-05)
(-8.26408e-05 -0.000164571 1.69066e-05)
(-7.53837e-05 -0.000168019 1.69066e-05)
(-6.79831e-05 -0.000171147 1.69067e-05)
(-6.04533e-05 -0.00017395 1.69068e-05)
(-5.28082e-05 -0.000176421 1.69068e-05)
(-4.50619e-05 -0.000178557 1.69066e-05)
(-3.72313e-05 -0.000180352 1.69068e-05)
(-2.93289e-05 -0.000181804 1.69068e-05)
(-2.13703e-05 -0.000182911 1.69067e-05)
(-1.33717e-05 -0.000183669 1.69066e-05)
(-5.3475e-06 -0.000184077 1.69066e-05)
(2.68673e-06 -0.000184135 1.69067e-05)
(1.07162e-05 -0.000183843 1.69067e-05)
(1.87254e-05 -0.0001832 1.69066e-05)
(2.66986e-05 -0.000182209 1.69066e-05)
(3.46207e-05 -0.000180871 1.69068e-05)
(4.24773e-05 -0.000179189 1.69068e-05)
(5.02529e-05 -0.000177166 1.69068e-05)
(5.79331e-05 -0.000174805 1.69067e-05)
(6.55026e-05 -0.000172112 1.69068e-05)
(7.29479e-05 -0.000169091 1.69067e-05)
(8.02543e-05 -0.000165748 1.69066e-05)
(8.74077e-05 -0.000162089 1.69066e-05)
(9.43948e-05 -0.000158122 1.69066e-05)
(0 0 0)
(0 0 0)
(0 0 0)
(0 0 0)
(0 0 0)
(0 0 0)
(0 0 0)
(0 0 0)
(0 0 0)
(0 0 0)
(0 0 0)
(0 0 0)
(0 0 0)
(0 0 0)
(0 0 0)
(0 0 0)
(0 0 0)
(0 0 0)
(0 0 0)
(0 0 0)
(0 0 0)
(0 0 0)
(0 0 0)
(0 0 0)
(0 0 0)
(0 0 0)
(0 0 0)
(0 0 0)
(0 0 0)
(0 0 0)
(0 0 0)
(0 0 0)
(0 0 0)
(0 0 0)
(0 0 0)
(0 0 0)
(0 0 0)
(0 0 0)
(0 0 0)
(0 0 0)
(0 0 0)
(0 0 0)
(0 0 0)
(0 0 0)
(0 0 0)
(0 0 0)
(0 0 0)
(0 0 0)
(0 0 0)
(0 0 0)
(0 0 0)
(0 0 0)
(0 0 0)
(0 0 0)
(0 0 0)
(0 0 0)
(0 0 0)
(0 0 0)
(0 0 0)
(0 0 0)
(0 0 0)
(0 0 0)
(0 0 0)
(0 0 0)
(0 0 0)
(0 0 0)
(0 0 0)
(0 0 0)
(0 0 0)
(0 0 0)
(0 0 0)
(0 0 0)
(0 0 0)
(0 0 0)
(0 0 0)
(0 0 0)
(0 0 0)
(0 0 0)
(0 0 0)
(0 0 0)
(0 0 0)
(0 0 0)
(0 0 0)
(0 0 0)
(0 0 0)
(0 0 0)
(0 0 0)
(0 0 0)
(0 0 0)
(0 0 0)
(0 0 0)
(0 0 0)
(0 0 0)
(0 0 0)
(0 0 0)
(0 0 0)
(0 0 0)
(0 0 0)
(0 0 0)
(0 0 0)
(0 0 0)
(0 0 0)
(0 0 0)
(0 0 0)
(0 0 0)
(0 0 0)
(0 0 0)
(0 0 0)
(0 0 0)
(0 0 0)
(0 0 0)
(0 0 0)
(0 0 0)
(0 0 0)
(0 0 0)
(0 0 0)
(0 0 0)
(0 0 0)
(0 0 0)
(0 0 0)
(0 0 0)
(0 0 0)
(0 0 0)
(0 0 0)
(0 0 0)
(0 0 0)
(0 0 0)
(0 0 0)
(0 0 0)
(0 0 0)
(0 0 0)
(0 0 0)
(0 0 0)
(0 0 0)
(0 0 0)
(0 0 0)
(0 0 0)
(0 0 0)
(0 0 0)
(0 0 0)
(0 0 0)
(0 0 0)
(0 0 0)
(0 0 0)
(8.84247e-05 -0.000165076 1.92549e-05)
(9.5541e-05 -0.000161062 1.92549e-05)
(0.000102475 -0.000156742 1.92549e-05)
(0.000109215 -0.000152122 1.9255e-05)
(0.000115746 -0.000147214 1.9255e-05)
(0.000122057 -0.000142025 1.9255e-05)
(0.000128136 -0.000136566 1.9255e-05)
(0.000133971 -0.000130847 1.92549e-05)
(0.000139551 -0.000124878 1.9255e-05)
(0.000144866 -0.000118672 1.9255e-05)
(0.000149904 -0.00011224 1.92549e-05)
(0.000154657 -0.000105595 1.92549e-05)
(0.000159116 -9.8748e-05 1.92549e-05)
(0.000163272 -9.17133e-05 1.92549e-05)
(0.000167117 -8.45046e-05 1.9255e-05)
(0.000170644 -7.71347e-05 1.92551e-05)
(0.000173846 -6.96181e-05 1.92551e-05)
(0.000176717 -6.19687e-05 1.9255e-05)
(0.000179252 -5.42015e-05 1.9255e-05)
(0.000181446 -4.63309e-05 1.9255e-05)
(0.000183294 -3.83722e-05 1.9255e-05)
(0.000184793 -3.03401e-05 1.92549e-05)
(0.000185941 -2.22509e-05 1.92549e-05)
(0.000186735 -1.41189e-05 1.92549e-05)
(0.000187173 -5.96024e-06 1.92549e-05)
(0.000187254 2.20976e-06 1.92549e-05)
(0.00018698 1.03751e-05 1.9255e-05)
(0.000186349 1.85212e-05 1.9255e-05)
(0.000185364 2.66321e-05 1.9255e-05)
(0.000184026 3.46926e-05 1.9255e-05)
(0.000182337 4.26867e-05 1.9255e-05)
(0.000180302 5.05995e-05 1.9255e-05)
(0.000177923 5.8416e-05 1.92549e-05)
(0.000175206 6.61213e-05 1.92549e-05)
(0.000172155 7.37008e-05 1.92549e-05)
(0.000168776 8.11399e-05 1.92549e-05)
(0.000165076 8.84247e-05 1.92549e-05)
(0.000161062 9.5541e-05 1.92549e-05)
(0.000156742 0.000102475 1.92549e-05)
(0.000152122 0.000109215 1.9255e-05)
(0.000147214 0.000115746 1.9255e-05)
(0.000142025 0.000122057 1.9255e-05)
(0.000136566 0.000128136 1.9255e-05)
(0.000130847 0.000133971 1.92549e-05)
(0.000124878 0.000139551 1.9255e-05)
(0.000118672 0.000144866 1.9255e-05)
(0.00011224 0.000149904 1.92549e-05)
(0.000105595 0.000154657 1.92549e-05)
(9.8748e-05 0.000159116 1.92549e-05)
(9.17133e-05 0.000163272 1.92549e-05)
(8.45046e-05 0.000167117 1.9255e-05)
(7.71347e-05 0.000170644 1.92551e-05)
(6.96181e-05 0.000173846 1.92551e-05)
(6.19687e-05 0.000176717 1.9255e-05)