/*--------------------------------*- C++ -*----------------------------------*\
| =========                 |                                                 |
| \\      /  F ield         | OpenFOAM: The Open Source CFD Toolbox           |
|  \\    /   O peration     | Version:  2312                                  |
|   \\  /    A nd           | Website:  www.openfoam.com                      |
|    \\/     M anipulation  |                                                 |
\*---------------------------------------------------------------------------*/
FoamFile
{
    version     2.0;
    format      ascii;
    arch        "LSB;label=32;scalar=64";
    class       volVectorField;
    location    "0.4";
    object      D;
}
// * * * * * * * * * * * * * * * * * * * * * * * * * * * * * * * * * * * * * //

dimensions      [0 1 0 0 0 0 0];

internalField   nonuniform List<vector> 
1620
(
(-0.000207953 0.000270052 -8.0805e-05)
(-0.000251687 0.000229838 -8.08052e-05)
(-0.000287775 0.000182641 -8.08051e-05)
(-0.000315119 0.000129896 -8.08049e-05)
(-0.000332887 7.32028e-05 -8.08051e-05)
(-0.000340541 1.42852e-05 -8.08052e-05)
(-0.000337848 -4.50664e-05 -8.08049e-05)
(-0.00032489 -0.000103048 -8.08047e-05)
(-0.00030206 -0.0001579 -8.0805e-05)
(-0.000270052 -0.000207953 -8.0805e-05)
(-0.000229838 -0.000251687 -8.08052e-05)
(-0.000182641 -0.000287775 -8.08051e-05)
(-0.000129896 -0.000315119 -8.08049e-05)
(-7.32028e-05 -0.000332887 -8.08051e-05)
(-1.42852e-05 -0.000340542 -8.08052e-05)
(4.50664e-05 -0.000337848 -8.08049e-05)
(0.000103048 -0.00032489 -8.08047e-05)
(0.0001579 -0.00030206 -8.0805e-05)
(0.000207953 -0.000270052 -8.0805e-05)
(0.000251687 -0.000229838 -8.08052e-05)
(0.000287775 -0.000182641 -8.08051e-05)
(0.000315119 -0.000129896 -8.08049e-05)
(0.000332887 -7.32028e-05 -8.0805e-05)
(0.000340542 -1.42852e-05 -8.08052e-05)
(0.000337848 4.50664e-05 -8.08049e-05)
(0.00032489 0.000103048 -8.08047e-05)
(0.00030206 0.0001579 -8.08049e-05)
(0.000270052 0.000207953 -8.0805e-05)
(0.000229838 0.000251687 -8.08052e-05)
(0.000182641 0.000287775 -8.08051e-05)
(0.000129896 0.000315119 -8.08049e-05)
(7.32028e-05 0.000332887 -8.0805e-05)
(1.42852e-05 0.000340542 -8.08052e-05)
(-4.50663e-05 0.000337848 -8.08048e-05)
(-0.000103048 0.00032489 -8.08047e-05)
(-0.0001579 0.00030206 -8.08049e-05)
(-0.000153411 0.000303973 -5.5055e-05)
(-0.000203865 0.000272715 -5.50551e-05)
(-0.000248124 0.000233171 -5.50551e-05)
(-0.000284844 0.000186542 -5.5055e-05)
(-0.00031291 0.000134246 -5.50551e-05)
(-0.000331467 7.787e-05 -5.5055e-05)
(-0.000339954 1.91283e-05 -5.5055e-05)
(-0.000338111 -4.01946e-05 -5.50549e-05)
(-0.000325994 -9.82964e-05 -5.5055e-05)
(-0.000303973 -0.000153411 -5.5055e-05)
(-0.000272715 -0.000203865 -5.50551e-05)
(-0.000233171 -0.000248124 -5.50551e-05)
(-0.000186542 -0.000284844 -5.5055e-05)
(-0.000134246 -0.00031291 -5.50551e-05)
(-7.78699e-05 -0.000331467 -5.5055e-05)
(-1.91283e-05 -0.000339954 -5.5055e-05)
(4.01946e-05 -0.000338111 -5.50549e-05)
(9.82964e-05 -0.000325994 -5.5055e-05)
(0.000153411 -0.000303973 -5.5055e-05)
(0.000203865 -0.000272715 -5.50551e-05)
(0.000248124 -0.000233171 -5.50551e-05)
(0.000284844 -0.000186542 -5.5055e-05)
(0.00031291 -0.000134246 -5.50551e-05)
(0.000331467 -7.78699e-05 -5.5055e-05)
(0.000339954 -1.91283e-05 -5.5055e-05)
(0.000338111 4.01946e-05 -5.50549e-05)
(0.000325994 9.82964e-05 -5.5055e-05)
(0.000303973 0.000153411 -5.5055e-05)
(0.000272715 0.000203865 -5.50551e-05)
(0.000233171 0.000248124 -5.5055e-05)
(0.000186542 0.000284844 -5.5055e-05)
(0.000134246 0.00031291 -5.5055e-05)
(7.787e-05 0.000331467 -5.5055e-05)
(1.91283e-05 0.000339954 -5.5055e-05)
(-4.01946e-05 0.000338111 -5.50549e-05)
(-9.82964e-05 0.000325994 -5.5055e-05)
(-0.000118088 0.000336012 -2.95064e-05)
(-0.000174642 0.000310401 -2.95064e-05)
(-0.00022589 0.00027536 -2.95065e-05)
(-0.000270273 0.000231951 -2.95064e-05)
(-0.000306446 0.000181495 -2.95065e-05)
(-0.000333306 0.000125524 -2.95064e-05)
(-0.000350039 6.57386e-05 -2.95065e-05)
(-0.000356137 3.95621e-06 -2.95066e-05)
(-0.000351413 -5.79463e-05 -2.95064e-05)
(-0.000336012 -0.000118088 -2.95064e-05)
(-0.000310401 -0.000174642 -2.95064e-05)
(-0.00027536 -0.00022589 -2.95065e-05)
(-0.000231951 -0.000270273 -2.95064e-05)
(-0.000181495 -0.000306446 -2.95065e-05)
(-0.000125524 -0.000333306 -2.95064e-05)
(-6.57386e-05 -0.000350039 -2.95065e-05)
(-3.9562e-06 -0.000356137 -2.95066e-05)
(5.79463e-05 -0.000351413 -2.95064e-05)
(0.000118088 -0.000336012 -2.95064e-05)
(0.000174642 -0.000310401 -2.95064e-05)
(0.00022589 -0.00027536 -2.95065e-05)
(0.000270273 -0.000231951 -2.95064e-05)
(0.000306446 -0.000181495 -2.95065e-05)
(0.000333306 -0.000125524 -2.95064e-05)
(0.000350039 -6.57386e-05 -2.95065e-05)
(0.000356137 -3.95619e-06 -2.95066e-05)
(0.000351413 5.79463e-05 -2.95064e-05)
(0.000336012 0.000118088 -2.95064e-05)
(0.000310401 0.000174642 -2.95064e-05)
(0.00027536 0.00022589 -2.95065e-05)
(0.000231951 0.000270273 -2.95064e-05)
(0.000181495 0.000306446 -2.95065e-05)
(0.000125524 0.000333306 -2.95064e-05)
(6.57386e-05 0.000350039 -2.95065e-05)
(3.9562e-06 0.000356137 -2.95066e-05)
(-5.79463e-05 0.000351413 -2.95064e-05)
(-0.000506347 0.00082032 -0.000275793)
(-0.000641102 0.000719932 -0.000275793)
(-0.000756377 0.000597668 -0.000275793)
(-0.00084867 0.000457245 -0.000275792)
(-0.000915176 0.000302929 -0.000275792)
(-0.000953876 0.000139408 -0.000275792)
(-0.000963593 -2.83491e-05 -0.000275793)
(-0.000944031 -0.000195244 -0.000275793)
(-0.000895784 -0.000356208 -0.000275793)
(-0.00082032 -0.000506348 -0.000275793)
(-0.000719931 -0.000641102 -0.000275793)
(-0.000597668 -0.000756377 -0.000275793)
(-0.000457245 -0.00084867 -0.000275792)
(-0.000302929 -0.000915176 -0.000275792)
(-0.000139408 -0.000953876 -0.000275792)
(2.83492e-05 -0.000963593 -0.000275793)
(0.000195245 -0.000944031 -0.000275793)
(0.000356208 -0.000895784 -0.000275793)
(0.000506348 -0.00082032 -0.000275793)
(0.000641102 -0.000719931 -0.000275793)
(0.000756378 -0.000597668 -0.000275793)
(0.00084867 -0.000457245 -0.000275792)
(0.000915176 -0.000302929 -0.000275792)
(0.000953876 -0.000139408 -0.000275792)
(0.000963593 2.83491e-05 -0.000275793)
(0.000944031 0.000195245 -0.000275793)
(0.000895784 0.000356208 -0.000275793)
(0.00082032 0.000506348 -0.000275793)
(0.000719932 0.000641102 -0.000275793)
(0.000597668 0.000756378 -0.000275793)
(0.000457245 0.00084867 -0.000275792)
(0.000302929 0.000915176 -0.000275792)
(0.000139408 0.000953876 -0.000275792)
(-2.83491e-05 0.000963593 -0.000275793)
(-0.000195244 0.000944031 -0.000275793)
(-0.000356208 0.000895784 -0.000275793)
(-0.000461293 0.000904124 -0.000204847)
(-0.000611284 0.000810286 -0.000204847)
(-0.000742702 0.000691828 -0.000204847)
(-0.000851553 0.000552349 -0.000204847)
(-0.000934531 0.000396087 -0.000204847)
(-0.000989113 0.00022779 -0.000204847)
(-0.00101364 5.25714e-05 -0.000204847)
(-0.00100737 -0.000124244 -0.000204847)
(-0.000970491 -0.000297285 -0.000204847)
(-0.000904124 -0.000461293 -0.000204847)
(-0.000810286 -0.000611284 -0.000204847)
(-0.000691828 -0.000742702 -0.000204847)
(-0.000552349 -0.000851553 -0.000204847)
(-0.000396087 -0.000934531 -0.000204847)
(-0.00022779 -0.000989113 -0.000204847)
(-5.25714e-05 -0.00101364 -0.000204847)
(0.000124244 -0.00100737 -0.000204847)
(0.000297285 -0.000970491 -0.000204847)
(0.000461293 -0.000904124 -0.000204847)
(0.000611284 -0.000810286 -0.000204847)
(0.000742702 -0.000691828 -0.000204847)
(0.000851553 -0.000552349 -0.000204847)
(0.000934531 -0.000396087 -0.000204847)
(0.000989113 -0.00022779 -0.000204847)
(0.00101364 -5.25714e-05 -0.000204847)
(0.00100737 0.000124244 -0.000204847)
(0.000970491 0.000297285 -0.000204847)
(0.000904124 0.000461293 -0.000204847)
(0.000810286 0.000611284 -0.000204847)
(0.000691828 0.000742702 -0.000204847)
(0.000552349 0.000851553 -0.000204847)
(0.000396087 0.000934531 -0.000204847)
(0.00022779 0.000989113 -0.000204847)
(5.25714e-05 0.00101364 -0.000204847)
(-0.000124244 0.00100737 -0.000204847)
(-0.000297285 0.000970492 -0.000204847)
(-0.000440511 0.000983722 -0.000135405)
(-0.000604639 0.000892283 -0.000135405)
(-0.000750396 0.000773732 -0.000135405)
(-0.000873353 0.000631673 -0.000135405)
(-0.000969773 0.00047042 -0.000135405)
(-0.00103673 0.000294873 -0.000135405)
(-0.00107218 0.000110367 -0.000135405)
(-0.00107506 -7.74916e-05 -0.000135405)
(-0.00104527 -0.000262997 -0.000135405)
(-0.000983721 -0.000440511 -0.000135405)
(-0.000892282 -0.000604639 -0.000135405)
(-0.000773732 -0.000750396 -0.000135405)
(-0.000631673 -0.000873353 -0.000135405)
(-0.00047042 -0.000969773 -0.000135405)
(-0.000294873 -0.00103673 -0.000135405)
(-0.000110367 -0.00107218 -0.000135405)
(7.74917e-05 -0.00107506 -0.000135405)
(0.000262997 -0.00104527 -0.000135405)
(0.000440511 -0.000983721 -0.000135405)
(0.000604639 -0.000892282 -0.000135405)
(0.000750396 -0.000773732 -0.000135405)
(0.000873353 -0.000631673 -0.000135405)
(0.000969773 -0.00047042 -0.000135405)
(0.00103673 -0.000294873 -0.000135405)
(0.00107218 -0.000110367 -0.000135405)
(0.00107506 7.74917e-05 -0.000135405)
(0.00104527 0.000262997 -0.000135405)
(0.000983722 0.000440511 -0.000135405)
(0.000892282 0.000604639 -0.000135405)
(0.000773732 0.000750396 -0.000135405)
(0.000631673 0.000873353 -0.000135405)
(0.00047042 0.000969773 -0.000135405)
(0.000294873 0.00103673 -0.000135405)
(0.000110367 0.00107218 -0.000135405)
(-7.74916e-05 0.00107506 -0.000135405)
(-0.000262997 0.00104527 -0.000135405)
(-0.000797067 0.00137388 -0.000532652)
(-0.00102353 0.0012146 -0.000532652)
(-0.00121889 0.00101841 -0.000532652)
(-0.00137722 0.00079128 -0.000532652)
(-0.0014937 0.000540107 -0.000532651)
(-0.0015648 0.000272524 -0.000532651)
(-0.00158835 -3.34058e-06 -0.000532651)
(-0.00156364 -0.000279103 -0.000532651)
(-0.00149141 -0.000546386 -0.000532652)
(-0.00137388 -0.000797067 -0.000532652)
(-0.0012146 -0.00102353 -0.000532652)
(-0.00101841 -0.00121889 -0.000532652)
(-0.000791279 -0.00137722 -0.000532652)
(-0.000540107 -0.0014937 -0.000532651)
(-0.000272524 -0.0015648 -0.000532651)
(3.34065e-06 -0.00158835 -0.000532651)
(0.000279104 -0.00156364 -0.000532651)
(0.000546386 -0.00149141 -0.000532652)
(0.000797067 -0.00137388 -0.000532652)
(0.00102353 -0.0012146 -0.000532652)
(0.00121889 -0.00101841 -0.000532652)
(0.00137722 -0.000791279 -0.000532652)
(0.0014937 -0.000540107 -0.000532651)
(0.0015648 -0.000272524 -0.000532651)
(0.00158835 3.34065e-06 -0.000532651)
(0.00156364 0.000279104 -0.000532651)
(0.00149141 0.000546386 -0.000532652)
(0.00137388 0.000797067 -0.000532652)
(0.0012146 0.00102353 -0.000532652)
(0.00101841 0.00121889 -0.000532652)
(0.00079128 0.00137722 -0.000532652)
(0.000540107 0.0014937 -0.000532651)
(0.000272524 0.0015648 -0.000532651)
(-3.34057e-06 0.00158835 -0.000532651)
(-0.000279103 0.00156364 -0.000532651)
(-0.000546386 0.00149141 -0.000532652)
(-0.000763364 0.00149313 -0.000424486)
(-0.00101105 0.00133789 -0.000424486)
(-0.00122801 0.00114199 -0.000424486)
(-0.00140766 0.000911404 -0.000424485)
(-0.00154453 0.000653121 -0.000424485)
(-0.00163448 0.000374993 -0.000424485)
(-0.00167477 8.54709e-05 -0.000424485)
(-0.00166417 -0.000206649 -0.000424485)
(-0.001603 -0.000492488 -0.000424485)
(-0.00149313 -0.000763364 -0.000424486)
(-0.00133789 -0.00101105 -0.000424486)
(-0.00114199 -0.00122801 -0.000424486)
(-0.000911404 -0.00140766 -0.000424485)
(-0.000653121 -0.00154453 -0.000424485)
(-0.000374993 -0.00163448 -0.000424485)
(-8.54708e-05 -0.00167477 -0.000424485)
(0.000206649 -0.00166417 -0.000424485)
(0.000492488 -0.001603 -0.000424485)
(0.000763365 -0.00149313 -0.000424486)
(0.00101105 -0.00133789 -0.000424486)
(0.00122801 -0.00114199 -0.000424486)
(0.00140766 -0.000911404 -0.000424485)
(0.00154453 -0.000653121 -0.000424485)
(0.00163448 -0.000374993 -0.000424485)
(0.00167477 -8.54708e-05 -0.000424485)
(0.00166417 0.000206649 -0.000424485)
(0.001603 0.000492488 -0.000424485)
(0.00149313 0.000763365 -0.000424486)
(0.00133789 0.00101105 -0.000424486)
(0.00114199 0.00122801 -0.000424486)
(0.000911404 0.00140766 -0.000424485)
(0.000653121 0.00154453 -0.000424485)
(0.000374993 0.00163448 -0.000424485)
(8.54709e-05 0.00167477 -0.000424485)
(-0.000206649 0.00166417 -0.000424485)
(-0.000492488 0.001603 -0.000424485)
(-0.000756642 0.00160275 -0.000319334)
(-0.00102346 0.00144701 -0.000319333)
(-0.00125918 0.00124731 -0.000319334)
(-0.00145665 0.0010097 -0.000319334)
(-0.00160985 0.00074142 -0.000319334)
(-0.00171414 0.000450608 -0.000319334)
(-0.00176634 0.000146105 -0.000319334)
(-0.00176488 -0.000162837 -0.000319334)
(-0.00170979 -0.000466831 -0.000319334)
(-0.00160275 -0.000756642 -0.000319334)
(-0.00144701 -0.00102346 -0.000319334)
(-0.00124731 -0.00125918 -0.000319334)
(-0.0010097 -0.00145665 -0.000319334)
(-0.000741419 -0.00160985 -0.000319334)
(-0.000450608 -0.00171414 -0.000319334)
(-0.000146105 -0.00176634 -0.000319334)
(0.000162837 -0.00176488 -0.000319334)
(0.000466832 -0.00170979 -0.000319334)
(0.000756642 -0.00160275 -0.000319334)
(0.00102346 -0.00144701 -0.000319334)
(0.00125918 -0.00124731 -0.000319334)
(0.00145665 -0.0010097 -0.000319334)
(0.00160985 -0.000741419 -0.000319334)
(0.00171414 -0.000450608 -0.000319334)
(0.00176634 -0.000146105 -0.000319334)
(0.00176488 0.000162837 -0.000319334)
(0.00170979 0.000466832 -0.000319334)
(0.00160275 0.000756642 -0.000319334)
(0.00144701 0.00102346 -0.000319333)
(0.00124731 0.00125918 -0.000319334)
(0.0010097 0.00145665 -0.000319334)
(0.00074142 0.00160985 -0.000319334)
(0.000450608 0.00171414 -0.000319334)
(0.000146105 0.00176634 -0.000319334)
(-0.000162837 0.00176488 -0.000319334)
(-0.000466831 0.00170979 -0.000319334)
(-0.00107642 0.00192811 -0.000837516)
(-0.00139488 0.0017119 -0.000837517)
(-0.00167096 0.00144368 -0.000837516)
(-0.00189626 0.00113159 -0.000837516)
(-0.00206395 0.000785114 -0.000837516)
(-0.00216893 0.000414785 -0.000837516)
(-0.00220801 3.18521e-05 -0.000837515)
(-0.00217999 -0.000352049 -0.000837515)
(-0.00208574 -0.000725252 -0.000837516)
(-0.00192811 -0.00107642 -0.000837516)
(-0.0017119 -0.00139488 -0.000837517)
(-0.00144368 -0.00167096 -0.000837516)
(-0.00113159 -0.00189626 -0.000837516)
(-0.000785114 -0.00206395 -0.000837516)
(-0.000414784 -0.00216893 -0.000837516)
(-3.1852e-05 -0.00220801 -0.000837515)
(0.000352049 -0.00217999 -0.000837515)
(0.000725252 -0.00208574 -0.000837516)
(0.00107642 -0.00192811 -0.000837516)
(0.00139488 -0.0017119 -0.000837517)
(0.00167096 -0.00144368 -0.000837516)
(0.00189626 -0.00113159 -0.000837516)
(0.00206395 -0.000785114 -0.000837516)
(0.00216893 -0.000414784 -0.000837516)
(0.00220801 -3.1852e-05 -0.000837515)
(0.00217999 0.000352049 -0.000837515)
(0.00208574 0.000725252 -0.000837516)
(0.00192811 0.00107642 -0.000837516)
(0.0017119 0.00139488 -0.000837517)
(0.00144368 0.00167096 -0.000837516)
(0.00113159 0.00189626 -0.000837516)
(0.000785114 0.00206395 -0.000837516)
(0.000414785 0.00216893 -0.000837516)
(3.18521e-05 0.00220801 -0.000837515)
(-0.000352049 0.00217999 -0.000837515)
(-0.000725252 0.00208574 -0.000837516)
(-0.00105684 0.00205819 -0.00069979)
(-0.00139818 0.0018434 -0.00069979)
(-0.00169705 0.00157261 -0.00069979)
(-0.00194434 0.00125403 -0.000699789)
(-0.00213256 0.000897343 -0.000699789)
(-0.00225599 0.000513395 -0.000699789)
(-0.00231086 0.000113847 -0.000699789)
(-0.00229553 -0.00028916 -0.000699789)
(-0.00221044 -0.000683382 -0.000699789)
(-0.00205819 -0.00105684 -0.00069979)
(-0.0018434 -0.00139818 -0.00069979)
(-0.00157261 -0.00169705 -0.00069979)
(-0.00125403 -0.00194434 -0.000699789)
(-0.000897343 -0.00213256 -0.000699789)
(-0.000513394 -0.00225599 -0.000699789)
(-0.000113847 -0.00231086 -0.000699789)
(0.000289161 -0.00229553 -0.000699789)
(0.000683382 -0.00221044 -0.000699789)
(0.00105684 -0.00205819 -0.00069979)
(0.00139818 -0.0018434 -0.00069979)
(0.00169705 -0.00157261 -0.00069979)
(0.00194434 -0.00125403 -0.000699789)
(0.00213256 -0.000897343 -0.000699789)
(0.00225599 -0.000513395 -0.000699789)
(0.00231086 -0.000113847 -0.000699789)
(0.00229553 0.000289161 -0.000699789)
(0.00221044 0.000683382 -0.000699789)
(0.00205819 0.00105684 -0.00069979)
(0.0018434 0.00139818 -0.00069979)
(0.00157261 0.00169705 -0.000699789)
(0.00125403 0.00194434 -0.000699789)
(0.000897343 0.00213256 -0.000699789)
(0.000513395 0.00225599 -0.000699789)
(0.000113847 0.00231086 -0.000699789)
(-0.00028916 0.00229553 -0.000699789)
(-0.000683382 0.00221044 -0.000699789)
(-0.00106638 0.00217207 -0.000566955)
(-0.00142736 0.00195389 -0.000566955)
(-0.00174496 0.00167635 -0.000566955)
(-0.00200955 0.00134787 -0.000566955)
(-0.00221307 0.000978443 -0.000566955)
(-0.00234936 0.000579283 -0.000566955)
(-0.00241426 0.00016252 -0.000566955)
(-0.0024058 -0.000259181 -0.000566955)
(-0.00232424 -0.000673007 -0.000566955)
(-0.00217207 -0.00106638 -0.000566955)
(-0.00195389 -0.00142736 -0.000566955)
(-0.00167635 -0.00174496 -0.000566955)
(-0.00134787 -0.00200955 -0.000566955)
(-0.000978443 -0.00221307 -0.000566955)
(-0.000579282 -0.00234936 -0.000566955)
(-0.000162519 -0.00241426 -0.000566955)
(0.000259181 -0.0024058 -0.000566955)
(0.000673007 -0.00232424 -0.000566955)
(0.00106638 -0.00217207 -0.000566955)
(0.00142736 -0.00195389 -0.000566955)
(0.00174496 -0.00167635 -0.000566955)
(0.00200955 -0.00134787 -0.000566955)
(0.00221307 -0.000978443 -0.000566955)
(0.00234936 -0.000579282 -0.000566955)
(0.00241426 -0.000162519 -0.000566955)
(0.0024058 0.000259181 -0.000566955)
(0.00232424 0.000673007 -0.000566955)
(0.00217207 0.00106638 -0.000566955)
(0.00195389 0.00142736 -0.000566955)
(0.00167635 0.00174496 -0.000566955)
(0.00134787 0.00200955 -0.000566955)
(0.000978443 0.00221307 -0.000566955)
(0.000579283 0.00234936 -0.000566955)
(0.00016252 0.00241426 -0.000566955)
(-0.000259181 0.0024058 -0.000566955)
(-0.000673007 0.00232424 -0.000566955)
(-0.00135126 0.00247305 -0.00117954)
(-0.00176017 0.00220084 -0.00117954)
(-0.0021156 0.00186175 -0.00117954)
(-0.00240675 0.0014661 -0.00117954)
(-0.00262477 0.0010259 -0.00117954)
(-0.00276304 0.000554524 -0.00117954)
(-0.00281735 6.63034e-05 -0.00117953)
(-0.00278606 -0.000423933 -0.00117953)
(-0.00267012 -0.000901287 -0.00117953)
(-0.00247305 -0.00135126 -0.00117954)
(-0.00220084 -0.00176017 -0.00117954)
(-0.00186175 -0.0021156 -0.00117954)
(-0.0014661 -0.00240675 -0.00117954)
(-0.0010259 -0.00262477 -0.00117954)
(-0.000554524 -0.00276304 -0.00117954)
(-6.63033e-05 -0.00281735 -0.00117953)
(0.000423933 -0.00278606 -0.00117953)
(0.000901287 -0.00267012 -0.00117953)
(0.00135126 -0.00247305 -0.00117954)
(0.00176017 -0.00220084 -0.00117954)
(0.0021156 -0.00186175 -0.00117954)
(0.00240675 -0.0014661 -0.00117954)
(0.00262477 -0.0010259 -0.00117954)
(0.00276304 -0.000554524 -0.00117954)
(0.00281735 -6.63033e-05 -0.00117953)
(0.00278606 0.000423933 -0.00117953)
(0.00267012 0.000901287 -0.00117953)
(0.00247305 0.00135126 -0.00117954)
(0.00220084 0.00176017 -0.00117954)
(0.00186175 0.0021156 -0.00117954)
(0.0014661 0.00240675 -0.00117954)
(0.0010259 0.00262477 -0.00117954)
(0.000554524 0.00276304 -0.00117953)
(6.63034e-05 0.00281735 -0.00117953)
(-0.000423933 0.00278606 -0.00117953)
(-0.000901287 0.00267012 -0.00117953)
(-0.00134383 0.00258656 -0.00101973)
(-0.00177257 0.00231391 -0.00101974)
(-0.00214745 0.00197095 -0.00101974)
(-0.00245707 0.00156811 -0.00101973)
(-0.00269204 0.00111762 -0.00101973)
(-0.00284522 0.00063317 -0.00101973)
(-0.00291194 0.000129484 -0.00101973)
(-0.00289019 -0.000378136 -0.00101973)
(-0.00278061 -0.000874268 -0.00101973)
(-0.00258656 -0.00134383 -0.00101973)
(-0.00231391 -0.00177257 -0.00101974)
(-0.00197095 -0.00214745 -0.00101974)
(-0.00156811 -0.00245707 -0.00101973)
(-0.00111762 -0.00269204 -0.00101973)
(-0.00063317 -0.00284522 -0.00101973)
(-0.000129484 -0.00291194 -0.00101973)
(0.000378136 -0.00289019 -0.00101973)
(0.000874268 -0.00278061 -0.00101973)
(0.00134383 -0.00258656 -0.00101973)
(0.00177257 -0.00231391 -0.00101974)
(0.00214745 -0.00197095 -0.00101974)
(0.00245707 -0.00156811 -0.00101973)
(0.00269204 -0.00111762 -0.00101973)
(0.00284522 -0.00063317 -0.00101973)
(0.00291194 -0.000129484 -0.00101973)
(0.00289019 0.000378136 -0.00101973)
(0.00278061 0.000874268 -0.00101973)
(0.00258656 0.00134383 -0.00101973)
(0.00231391 0.00177257 -0.00101974)
(0.00197095 0.00214745 -0.00101974)
(0.00156811 0.00245707 -0.00101973)
(0.00111762 0.00269204 -0.00101973)
(0.00063317 0.00284522 -0.00101973)
(0.000129484 0.00291194 -0.00101973)
(-0.000378136 0.00289019 -0.00101973)
(-0.000874268 0.00278061 -0.00101973)
(-0.00136627 0.00267787 -0.00086654)
(-0.00181052 0.00239994 -0.00086654)
(-0.00219975 0.00204908 -0.00086654)
(-0.00252215 0.00163597 -0.000866539)
(-0.00276792 0.00117315 -0.00086654)
(-0.00292958 0.000674682 -0.00086654)
(-0.00300223 0.000155715 -0.00086654)
(-0.00298366 -0.000367984 -0.00086654)
(-0.00287444 -0.000880501 -0.00086654)
(-0.00267787 -0.00136627 -0.00086654)
(-0.00239994 -0.00181052 -0.00086654)
(-0.00204908 -0.00219975 -0.00086654)
(-0.00163597 -0.00252215 -0.00086654)
(-0.00117315 -0.00276792 -0.00086654)
(-0.000674682 -0.00292958 -0.00086654)
(-0.000155715 -0.00300223 -0.00086654)
(0.000367984 -0.00298366 -0.00086654)
(0.000880501 -0.00287444 -0.00086654)
(0.00136627 -0.00267787 -0.00086654)
(0.00181052 -0.00239994 -0.00086654)
(0.00219975 -0.00204908 -0.00086654)
(0.00252215 -0.00163597 -0.000866539)
(0.00276792 -0.00117315 -0.00086654)
(0.00292958 -0.000674682 -0.00086654)
(0.00300223 -0.000155715 -0.00086654)
(0.00298366 0.000367984 -0.00086654)
(0.00287444 0.000880501 -0.00086654)
(0.00267787 0.00136627 -0.00086654)
(0.00239994 0.00181052 -0.00086654)
(0.00204908 0.00219975 -0.00086654)
(0.00163597 0.00252215 -0.000866539)
(0.00117315 0.00276792 -0.00086654)
(0.000674682 0.00292958 -0.000866539)
(0.000155715 0.00300223 -0.00086654)
(-0.000367984 0.00298366 -0.00086654)
(-0.000880501 0.00287444 -0.00086654)
(-0.0016283 0.0029918 -0.00154971)
(-0.00212308 0.0026636 -0.00154971)
(-0.00255336 0.00225446 -0.00154971)
(-0.00290605 0.00177683 -0.00154971)
(-0.00317044 0.0012452 -0.00154971)
(-0.0033385 0.000675744 -0.00154971)
(-0.00340513 8.57526e-05 -0.00154971)
(-0.00336829 -0.000506845 -0.00154971)
(-0.0032291 -0.00108404 -0.00154971)
(-0.0029918 -0.0016283 -0.00154971)
(-0.0026636 -0.00212308 -0.00154971)
(-0.00225446 -0.00255336 -0.00154971)
(-0.00177683 -0.00290605 -0.00154971)
(-0.0012452 -0.00317044 -0.00154971)
(-0.000675744 -0.0033385 -0.00154971)
(-8.57525e-05 -0.00340513 -0.00154971)
(0.000506845 -0.00336829 -0.00154971)
(0.00108404 -0.0032291 -0.00154971)
(0.0016283 -0.0029918 -0.00154971)
(0.00212308 -0.0026636 -0.00154971)
(0.00255336 -0.00225446 -0.00154971)
(0.00290605 -0.00177683 -0.00154971)
(0.00317044 -0.0012452 -0.00154971)
(0.0033385 -0.000675744 -0.00154971)
(0.00340513 -8.57525e-05 -0.00154971)
(0.00336829 0.000506845 -0.00154971)
(0.0032291 0.00108404 -0.00154971)
(0.0029918 0.0016283 -0.00154971)
(0.0026636 0.00212308 -0.00154971)
(0.00225446 0.00255336 -0.00154971)
(0.00177683 0.00290605 -0.00154971)
(0.0012452 0.00317044 -0.00154971)
(0.000675744 0.0033385 -0.00154971)
(8.57526e-05 0.00340513 -0.00154971)
(-0.000506845 0.00336829 -0.00154971)
(-0.00108404 0.0032291 -0.00154971)
(-0.00162675 0.00306417 -0.00137294)
(-0.00213412 0.00273514 -0.00137294)
(-0.00257665 0.002323 -0.00137294)
(-0.00294089 0.00184028 -0.00137294)
(-0.00321577 0.00130164 -0.00137294)
(-0.00339294 0.000723454 -0.00137294)
(-0.00346702 0.000123285 -0.00137294)
(-0.00343576 -0.000480631 -0.00137294)
(-0.0033001 -0.00106994 -0.00137294)
(-0.00306417 -0.00162675 -0.00137294)
(-0.00273514 -0.00213412 -0.00137294)
(-0.002323 -0.00257665 -0.00137294)
(-0.00184028 -0.00294089 -0.00137294)
(-0.00130164 -0.00321577 -0.00137294)
(-0.000723454 -0.00339294 -0.00137294)
(-0.000123285 -0.00346702 -0.00137294)
(0.000480631 -0.00343576 -0.00137294)
(0.00106994 -0.0033001 -0.00137294)
(0.00162675 -0.00306417 -0.00137294)
(0.00213412 -0.00273514 -0.00137294)
(0.00257665 -0.002323 -0.00137294)
(0.00294089 -0.00184028 -0.00137294)
(0.00321577 -0.00130164 -0.00137294)
(0.00339294 -0.000723454 -0.00137294)
(0.00346702 -0.000123285 -0.00137294)
(0.00343576 0.000480631 -0.00137294)
(0.0033001 0.00106994 -0.00137294)
(0.00306417 0.00162675 -0.00137294)
(0.00273514 0.00213412 -0.00137294)
(0.002323 0.00257665 -0.00137294)
(0.00184028 0.00294089 -0.00137294)
(0.00130164 0.00321577 -0.00137294)
(0.000723454 0.00339294 -0.00137294)
(0.000123285 0.00346702 -0.00137294)
(-0.000480631 0.00343576 -0.00137294)
(-0.00106994 0.0033001 -0.00137294)
(-0.00165399 0.00311 -0.00120423)
(-0.00216891 0.00277554 -0.00120423)
(-0.00261793 0.00235675 -0.00120423)
(-0.0029874 0.00186635 -0.00120423)
(-0.0032661 0.00131923 -0.00120423)
(-0.00344556 0.00073204 -0.00120423)
(-0.00352033 0.000122604 -0.00120422)
(-0.00348814 -0.000490559 -0.00120423)
(-0.00334996 -0.00108882 -0.00120423)
(-0.00311 -0.00165399 -0.00120423)
(-0.00277554 -0.00216891 -0.00120423)
(-0.00235675 -0.00261793 -0.00120423)
(-0.00186634 -0.0029874 -0.00120423)
(-0.00131923 -0.0032661 -0.00120423)
(-0.00073204 -0.00344556 -0.00120423)
(-0.000122604 -0.00352033 -0.00120423)
(0.000490559 -0.00348814 -0.00120423)
(0.00108882 -0.00334996 -0.00120423)
(0.00165399 -0.00311 -0.00120423)
(0.00216891 -0.00277554 -0.00120423)
(0.00261793 -0.00235675 -0.00120423)
(0.0029874 -0.00186634 -0.00120423)
(0.0032661 -0.00131923 -0.00120423)
(0.00344556 -0.00073204 -0.00120423)
(0.00352033 -0.000122604 -0.00120422)
(0.00348814 0.000490559 -0.00120423)
(0.00334997 0.00108882 -0.00120423)
(0.00311 0.00165399 -0.00120423)
(0.00277554 0.00216891 -0.00120423)
(0.00235675 0.00261793 -0.00120422)
(0.00186635 0.0029874 -0.00120423)
(0.00131923 0.0032661 -0.00120423)
(0.00073204 0.00344556 -0.00120423)
(0.000122604 0.00352033 -0.00120422)
(-0.000490559 0.00348814 -0.00120423)
(-0.00108882 0.00334997 -0.00120423)
(-0.00190926 0.00346148 -0.00194007)
(-0.00248134 0.00307735 -0.00194007)
(-0.00297802 0.00259972 -0.00194008)
(-0.00338421 0.0020431 -0.00194008)
(-0.00368758 0.0014244 -0.00194008)
(-0.0038789 0.000762414 -0.00194007)
(-0.00395236 7.72678e-05 -0.00194007)
(-0.00390573 -0.000610227 -0.00194007)
(-0.00374043 -0.00127918 -0.00194007)
(-0.00346148 -0.00190927 -0.00194007)
(-0.00307735 -0.00248134 -0.00194007)
(-0.00259972 -0.00297802 -0.00194008)
(-0.0020431 -0.00338421 -0.00194008)
(-0.00142439 -0.00368758 -0.00194008)
(-0.000762414 -0.0038789 -0.00194007)
(-7.72675e-05 -0.00395236 -0.00194007)
(0.000610228 -0.00390573 -0.00194007)
(0.00127918 -0.00374043 -0.00194007)
(0.00190927 -0.00346148 -0.00194007)
(0.00248134 -0.00307735 -0.00194007)
(0.00297802 -0.00259972 -0.00194008)
(0.00338421 -0.0020431 -0.00194008)
(0.00368758 -0.00142439 -0.00194008)
(0.0038789 -0.000762414 -0.00194007)
(0.00395236 -7.72676e-05 -0.00194007)
(0.00390573 0.000610228 -0.00194007)
(0.00374043 0.00127918 -0.00194007)
(0.00346148 0.00190927 -0.00194007)
(0.00307735 0.00248134 -0.00194007)
(0.00259972 0.00297802 -0.00194008)
(0.0020431 0.00338421 -0.00194008)
(0.0014244 0.00368758 -0.00194007)
(0.000762414 0.0038789 -0.00194007)
(7.72678e-05 0.00395236 -0.00194007)
(-0.000610227 0.00390573 -0.00194007)
(-0.00127918 0.00374043 -0.00194007)
(-0.00190461 0.00347396 -0.00174856)
(-0.00247892 0.00309046 -0.00174856)
(-0.00297791 0.00261304 -0.00174856)
(-0.00338642 0.00205624 -0.00174856)
(-0.00369203 0.00143695 -0.00174856)
(-0.00388547 0.000774009 -0.00174856)
(-0.00396084 8.75449e-05 -0.00174856)
(-0.00391587 -0.000601578 -0.00174856)
(-0.00375192 -0.00127242 -0.00174856)
(-0.00347396 -0.00190461 -0.00174856)
(-0.00309046 -0.00247892 -0.00174856)
(-0.00261304 -0.00297791 -0.00174856)
(-0.00205624 -0.00338642 -0.00174856)
(-0.00143695 -0.00369203 -0.00174856)
(-0.000774009 -0.00388547 -0.00174856)
(-8.75446e-05 -0.00396084 -0.00174856)
(0.000601579 -0.00391587 -0.00174856)
(0.00127242 -0.00375192 -0.00174856)
(0.00190461 -0.00347396 -0.00174856)
(0.00247892 -0.00309046 -0.00174856)
(0.00297791 -0.00261304 -0.00174856)
(0.00338642 -0.00205624 -0.00174856)
(0.00369203 -0.00143695 -0.00174856)
(0.00388547 -0.000774009 -0.00174856)
(0.00396084 -8.75447e-05 -0.00174856)
(0.00391587 0.000601578 -0.00174856)
(0.00375192 0.00127242 -0.00174856)
(0.00347396 0.00190461 -0.00174856)
(0.00309046 0.00247892 -0.00174856)
(0.00261304 0.00297791 -0.00174856)
(0.00205624 0.00338642 -0.00174856)
(0.00143695 0.00369203 -0.00174856)
(0.000774009 0.00388547 -0.00174856)
(8.75449e-05 0.00396084 -0.00174856)
(-0.000601578 0.00391587 -0.00174856)
(-0.00127242 0.00375192 -0.00174856)
(-0.00192584 0.00345825 -0.00156644)
(-0.0024971 0.00307129 -0.00156644)
(-0.00299249 0.00259101 -0.00156644)
(-0.00339695 0.00203201 -0.00156644)
(-0.0036982 0.00141126 -0.00156644)
(-0.00388708 0.000747638 -0.00156644)
(-0.00395785 6.12949e-05 -0.00156644)
(-0.00390837 -0.00062691 -0.00156644)
(-0.00374013 -0.00129607 -0.00156644)
(-0.00345825 -0.00192584 -0.00156644)
(-0.00307129 -0.0024971 -0.00156644)
(-0.00259101 -0.00299249 -0.00156644)
(-0.00203201 -0.00339695 -0.00156644)
(-0.00141126 -0.0036982 -0.00156644)
(-0.000747638 -0.00388708 -0.00156644)
(-6.12947e-05 -0.00395785 -0.00156644)
(0.00062691 -0.00390837 -0.00156644)
(0.00129607 -0.00374013 -0.00156644)
(0.00192584 -0.00345825 -0.00156644)
(0.0024971 -0.00307129 -0.00156644)
(0.00299249 -0.00259101 -0.00156644)
(0.00339695 -0.00203201 -0.00156644)
(0.0036982 -0.00141126 -0.00156644)
(0.00388708 -0.000747638 -0.00156644)
(0.00395785 -6.12948e-05 -0.00156644)
(0.00390837 0.00062691 -0.00156644)
(0.00374013 0.00129607 -0.00156644)
(0.00345825 0.00192584 -0.00156644)
(0.00307129 0.0024971 -0.00156644)
(0.00259101 0.00299249 -0.00156644)
(0.00203201 0.00339695 -0.00156644)
(0.00141126 0.0036982 -0.00156644)
(0.000747638 0.00388708 -0.00156644)
(6.12949e-05 0.00395785 -0.00156644)
(-0.00062691 0.00390837 -0.00156644)
(-0.00129607 0.00374013 -0.00156644)
(-0.0021865 0.00385417 -0.00234083)
(-0.00282255 0.00341593 -0.00234083)
(-0.00337284 0.0028739 -0.00234083)
(-0.00382065 0.00224455 -0.00234083)
(-0.00415237 0.00154701 -0.00234083)
(-0.00435792 0.000802453 -0.00234083)
(-0.00443106 3.35167e-05 -0.00234083)