/*--------------------------------*- C++ -*----------------------------------*\
| =========                 |                                                 |
| \\      /  F ield         | OpenFOAM: The Open Source CFD Toolbox           |
|  \\    /   O peration     | Version:  2312                                  |
|   \\  /    A nd           | Website:  www.openfoam.com                      |
|    \\/     M anipulation  |                                                 |
\*---------------------------------------------------------------------------*/
FoamFile
{
    version     2.0;
    format      ascii;
    arch        "LSB;label=32;scalar=64";
    class       pointVectorField;
    location    "0.4";
    object      pointD;
}
// * * * * * * * * * * * * * * * * * * * * * * * * * * * * * * * * * * * * * //

dimensions      [0 1 0 0 0 0 0];

internalField   nonuniform List<vector> 
2164
(
(0 0 0)
(0 0 0)
(0 0 0)
(0 0 0)
(0 0 0)
(0 0 0)
(0 0 0)
(0 0 0)
(0 0 0)
(0 0 0)
(0 0 0)
(0 0 0)
(0 0 0)
(0 0 0)
(0 0 0)
(0 0 0)
(0 0 0)
(0 0 0)
(0 0 0)
(0 0 0)
(0 0 0)
(0 0 0)
(0 0 0)
(0 0 0)
(0 0 0)
(0 0 0)
(0 0 0)
(0 0 0)
(0 0 0)
(0 0 0)
(0 0 0)
(0 0 0)
(0 0 0)
(0 0 0)
(0 0 0)
(0 0 0)
(-0.000427239 0.000481008 -0.000193613)
(-0.000504274 0.000399512 -0.000193613)
(-0.000565988 0.000305876 -0.000193612)
(-0.000610504 0.000202947 -0.000193612)
(-0.000636471 9.38509e-05 -0.000193612)
(-0.000643098 -1.80966e-05 -0.000193612)
(-0.000630186 -0.000129495 -0.000193612)
(-0.000598125 -0.000236958 -0.000193612)
(-0.00054789 -0.000337222 -0.000193612)
(-0.000481008 -0.000427239 -0.000193613)
(-0.000399512 -0.000504274 -0.000193613)
(-0.000305876 -0.000565988 -0.000193612)
(-0.000202947 -0.000610504 -0.000193612)
(-9.38508e-05 -0.000636471 -0.000193612)
(1.80966e-05 -0.000643098 -0.000193612)
(0.000129495 -0.000630186 -0.000193612)
(0.000236958 -0.000598125 -0.000193612)
(0.000337222 -0.00054789 -0.000193612)
(0.000427239 -0.000481008 -0.000193613)
(0.000504274 -0.000399512 -0.000193613)
(0.000565988 -0.000305876 -0.000193612)
(0.000610504 -0.000202947 -0.000193612)
(0.000636471 -9.38508e-05 -0.000193612)
(0.000643098 1.80966e-05 -0.000193612)
(0.000630186 0.000129495 -0.000193612)
(0.000598125 0.000236958 -0.000193612)
(0.00054789 0.000337222 -0.000193612)
(0.000481008 0.000427239 -0.000193613)
(0.000399512 0.000504274 -0.000193613)
(0.000305876 0.000565988 -0.000193612)
(0.000202947 0.000610504 -0.000193612)
(9.38509e-05 0.000636471 -0.000193612)
(-1.80966e-05 0.000643098 -0.000193612)
(-0.000129495 0.000630186 -0.000193612)
(-0.000236958 0.000598125 -0.000193612)
(-0.000337222 0.00054789 -0.000193612)
(-0.000380617 0.000545836 -0.000145635)
(-0.000469618 0.00047145 -0.000145635)
(-0.00054435 0.00038274 -0.000145635)
(-0.000602542 0.0002824 -0.000145634)
(-0.000642427 0.000173479 -0.000145634)
(-0.000662791 5.92867e-05 -0.000145635)
(-0.000663017 -5.67058e-05 -0.000145635)
(-0.000643097 -0.000170976 -0.000145634)
(-0.000603637 -0.000280051 -0.000145635)
(-0.000545836 -0.000380617 -0.000145635)
(-0.00047145 -0.000469618 -0.000145635)
(-0.00038274 -0.00054435 -0.000145635)
(-0.0002824 -0.000602542 -0.000145634)
(-0.000173479 -0.000642427 -0.000145634)
(-5.92867e-05 -0.000662791 -0.000145635)
(5.67059e-05 -0.000663017 -0.000145635)
(0.000170976 -0.000643097 -0.000145635)
(0.000280051 -0.000603637 -0.000145635)
(0.000380617 -0.000545836 -0.000145635)
(0.000469618 -0.00047145 -0.000145635)
(0.00054435 -0.00038274 -0.000145635)
(0.000602542 -0.0002824 -0.000145634)
(0.000642427 -0.000173479 -0.000145634)
(0.000662791 -5.92867e-05 -0.000145635)
(0.000663017 5.67059e-05 -0.000145635)
(0.000643097 0.000170976 -0.000145634)
(0.000603637 0.000280051 -0.000145635)
(0.000545836 0.000380617 -0.000145635)
(0.00047145 0.000469618 -0.000145635)
(0.00038274 0.00054435 -0.000145635)
(0.0002824 0.000602542 -0.000145634)
(0.000173479 0.000642427 -0.000145634)
(5.92867e-05 0.000662791 -0.000145635)
(-5.67058e-05 0.000663017 -0.000145635)
(-0.000170976 0.000643097 -0.000145634)
(-0.000280051 0.000603637 -0.000145635)
(0 0 0)
(0 0 0)
(0 0 0)
(0 0 0)
(0 0 0)
(0 0 0)
(0 0 0)
(0 0 0)
(0 0 0)
(0 0 0)
(0 0 0)
(0 0 0)
(0 0 0)
(0 0 0)
(0 0 0)
(0 0 0)
(0 0 0)
(0 0 0)
(0 0 0)
(0 0 0)
(0 0 0)
(0 0 0)
(0 0 0)
(0 0 0)
(0 0 0)
(0 0 0)
(0 0 0)
(0 0 0)
(0 0 0)
(0 0 0)
(0 0 0)
(0 0 0)
(0 0 0)
(0 0 0)
(0 0 0)
(0 0 0)
(-0.000346959 0.000609714 -9.65323e-05)
(-0.000447564 0.000540201 -9.65327e-05)
(-0.000534569 0.000454277 -9.65324e-05)
(-0.000605332 0.000354548 -9.65327e-05)
(-0.000657702 0.000244047 -9.65326e-05)
(-0.000690089 0.000126131 -9.65324e-05)
(-0.000701507 4.38171e-06 -9.65327e-05)
(-0.000691611 -0.0001175 -9.65324e-05)
(-0.000660699 -0.000235812 -9.65326e-05)
(-0.000609714 -0.000346959 -9.65324e-05)
(-0.000540201 -0.000447564 -9.65328e-05)
(-0.000454277 -0.000534569 -9.65324e-05)
(-0.000354548 -0.000605332 -9.65327e-05)
(-0.000244047 -0.000657702 -9.65327e-05)
(-0.000126131 -0.000690089 -9.65324e-05)
(-4.38168e-06 -0.000701507 -9.65328e-05)
(0.0001175 -0.000691611 -9.65324e-05)
(0.000235812 -0.000660699 -9.65326e-05)
(0.000346959 -0.000609714 -9.65324e-05)
(0.000447564 -0.000540201 -9.65328e-05)
(0.000534569 -0.000454277 -9.65324e-05)
(0.000605332 -0.000354548 -9.65327e-05)
(0.000657702 -0.000244047 -9.65327e-05)
(0.000690089 -0.000126131 -9.65324e-05)
(0.000701507 -4.38168e-06 -9.65327e-05)
(0.000691611 0.0001175 -9.65324e-05)
(0.000660699 0.000235812 -9.65326e-05)
(0.000609714 0.000346959 -9.65323e-05)
(0.000540201 0.000447564 -9.65327e-05)
(0.000454277 0.000534569 -9.65324e-05)
(0.000354548 0.000605332 -9.65327e-05)
(0.000244047 0.000657702 -9.65326e-05)
(0.000126131 0.000690089 -9.65324e-05)
(4.3817e-06 0.000701507 -9.65327e-05)
(-0.0001175 0.000691611 -9.65324e-05)
(-0.000235812 0.000660699 -9.65326e-05)
(0 0 0)
(0 0 0)
(0 0 0)
(0 0 0)
(0 0 0)
(0 0 0)
(0 0 0)
(0 0 0)
(0 0 0)
(0 0 0)
(0 0 0)
(0 0 0)
(0 0 0)
(0 0 0)
(0 0 0)
(0 0 0)
(0 0 0)
(0 0 0)
(0 0 0)
(0 0 0)
(0 0 0)
(0 0 0)
(0 0 0)
(0 0 0)
(0 0 0)
(0 0 0)
(0 0 0)
(0 0 0)
(0 0 0)
(0 0 0)
(0 0 0)
(0 0 0)
(0 0 0)
(0 0 0)
(0 0 0)
(0 0 0)
(-0.000326788 0.00066739 -4.9417e-05)
(-0.000437714 0.000600505 -4.94171e-05)
(-0.00053534 0.000515374 -4.94172e-05)
(-0.000616701 0.000414583 -4.94172e-05)
(-0.000679324 0.000301196 -4.94172e-05)
(-0.000721306 0.000178656 -4.94173e-05)
(-0.000741371 5.06878e-05 -4.94175e-05)
(-0.00073891 -7.88195e-05 -4.94172e-05)
(-0.000713997 -0.000205932 -4.94174e-05)
(-0.00066739 -0.000326788 -4.9417e-05)
(-0.000600505 -0.000437714 -4.94171e-05)
(-0.000515374 -0.00053534 -4.94172e-05)
(-0.000414583 -0.000616701 -4.94173e-05)
(-0.000301196 -0.000679324 -4.94172e-05)
(-0.000178656 -0.000721306 -4.94173e-05)
(-5.06878e-05 -0.000741371 -4.94175e-05)
(7.88195e-05 -0.00073891 -4.94172e-05)
(0.000205932 -0.000713997 -4.94174e-05)
(0.000326788 -0.00066739 -4.9417e-05)
(0.000437714 -0.000600505 -4.94171e-05)
(0.00053534 -0.000515374 -4.94172e-05)
(0.000616701 -0.000414583 -4.94173e-05)
(0.000679324 -0.000301196 -4.94172e-05)
(0.000721306 -0.000178656 -4.94173e-05)
(0.000741371 -5.06878e-05 -4.94175e-05)
(0.00073891 7.88195e-05 -4.94172e-05)
(0.000713997 0.000205932 -4.94174e-05)
(0.00066739 0.000326788 -4.9417e-05)
(0.000600505 0.000437714 -4.94171e-05)
(0.000515374 0.00053534 -4.94172e-05)
(0.000414583 0.000616701 -4.94172e-05)
(0.000301196 0.000679324 -4.94172e-05)
(0.000178656 0.000721306 -4.94173e-05)
(5.06878e-05 0.000741371 -4.94174e-05)
(-7.88195e-05 0.00073891 -4.94172e-05)
(-0.000205932 0.000713997 -4.94174e-05)
(0 0 0)
(0 0 0)
(0 0 0)
(0 0 0)
(0 0 0)
(0 0 0)
(0 0 0)
(0 0 0)
(0 0 0)
(0 0 0)
(0 0 0)
(0 0 0)
(0 0 0)
(0 0 0)
(0 0 0)
(0 0 0)
(0 0 0)
(0 0 0)
(0 0 0)
(0 0 0)
(0 0 0)
(0 0 0)
(0 0 0)
(0 0 0)
(0 0 0)
(0 0 0)
(0 0 0)
(0 0 0)
(0 0 0)
(0 0 0)
(0 0 0)
(0 0 0)
(0 0 0)
(0 0 0)
(0 0 0)
(0 0 0)
(-0.000764673 0.000988277 -0.000433389)
(-0.000924668 0.000840479 -0.000433389)
(-0.00105657 0.000667144 -0.000433388)
(-0.00115637 0.000473538 -0.000433387)
(-0.00122103 0.000265544 -0.000433387)
(-0.00124859 4.94812e-05 -0.000433387)
(-0.00123821 -0.000168086 -0.000433387)
(-0.00119021 -0.000380546 -0.000433388)
(-0.00110605 -0.000581443 -0.000433388)
(-0.000988277 -0.000764673 -0.000433389)
(-0.000840479 -0.000924668 -0.000433389)
(-0.000667143 -0.00105657 -0.000433388)
(-0.000473538 -0.00115637 -0.000433387)
(-0.000265544 -0.00122103 -0.000433387)
(-4.94811e-05 -0.00124859 -0.000433387)
(0.000168086 -0.00123821 -0.000433387)
(0.000380546 -0.00119021 -0.000433388)
(0.000581443 -0.00110605 -0.000433388)
(0.000764673 -0.000988277 -0.000433389)
(0.000924669 -0.000840479 -0.000433389)
(0.00105657 -0.000667143 -0.000433388)
(0.00115637 -0.000473538 -0.000433387)
(0.00122103 -0.000265544 -0.000433387)
(0.00124859 -4.94811e-05 -0.000433387)
(0.00123821 0.000168086 -0.000433387)
(0.00119021 0.000380546 -0.000433388)
(0.00110605 0.000581443 -0.000433388)
(0.000988277 0.000764673 -0.000433389)
(0.000840479 0.000924669 -0.000433389)
(0.000667144 0.00105657 -0.000433388)
(0.000473538 0.00115637 -0.000433387)
(0.000265544 0.00122103 -0.000433387)
(4.94812e-05 0.00124859 -0.000433387)
(-0.000168086 0.00123821 -0.000433387)
(-0.000380546 0.00119021 -0.000433388)
(-0.000581443 0.00110605 -0.000433388)
(-0.0007313 0.0010962 -0.000343747)
(-0.000910544 0.000952558 -0.000343747)
(-0.00106212 0.000779972 -0.000343748)
(-0.00118143 0.000583688 -0.000343747)
(-0.00126483 0.000369669 -0.000343747)
(-0.00130981 0.000144416 -0.000343747)
(-0.00131499 -8.52236e-05 -0.000343746)
(-0.00128021 -0.000312275 -0.000343747)
(-0.00120654 -0.000529837 -0.000343747)
(-0.0010962 -0.0007313 -0.000343747)
(-0.000952558 -0.000910544 -0.000343747)
(-0.000779972 -0.00106212 -0.000343748)
(-0.000583688 -0.00118143 -0.000343747)
(-0.000369669 -0.00126483 -0.000343747)
(-0.000144416 -0.00130981 -0.000343747)
(8.52237e-05 -0.00131499 -0.000343746)
(0.000312275 -0.00128021 -0.000343747)
(0.000529837 -0.00120654 -0.000343747)
(0.0007313 -0.0010962 -0.000343747)
(0.000910544 -0.000952558 -0.000343747)
(0.00106212 -0.000779972 -0.000343748)
(0.00118143 -0.000583688 -0.000343747)
(0.00126483 -0.000369669 -0.000343747)
(0.00130981 -0.000144416 -0.000343747)
(0.00131499 8.52237e-05 -0.000343746)
(0.00128021 0.000312275 -0.000343747)
(0.00120654 0.000529837 -0.000343747)
(0.0010962 0.0007313 -0.000343747)
(0.000952558 0.000910544 -0.000343747)
(0.000779972 0.00106212 -0.000343748)
(0.000583688 0.00118143 -0.000343747)
(0.000369669 0.00126483 -0.000343747)
(0.000144416 0.00130981 -0.000343747)
(-8.52236e-05 0.00131499 -0.000343746)
(-0.000312275 0.00128021 -0.000343747)
(-0.000529837 0.00120654 -0.000343747)
(-0.000713507 0.00120266 -0.000252939)
(-0.000911505 0.00106049 -0.000252939)
(-0.00108181 0.000886095 -0.000252939)
(-0.00121924 0.000684779 -0.000252939)
(-0.00131963 0.000462656 -0.000252939)
(-0.00137992 0.000226475 -0.000252939)
(-0.00139828 -1.65873e-05 -0.000252939)
(-0.00137416 -0.000259143 -0.000252939)
(-0.00130828 -0.000493828 -0.000252939)
(-0.00120266 -0.000713507 -0.000252939)
(-0.00106049 -0.000911505 -0.000252939)
(-0.000886095 -0.00108181 -0.000252939)
(-0.000684779 -0.00121924 -0.000252939)
(-0.000462655 -0.00131963 -0.000252939)
(-0.000226475 -0.00137992 -0.000252939)
(1.65873e-05 -0.00139828 -0.000252939)
(0.000259143 -0.00137416 -0.000252939)
(0.000493828 -0.00130828 -0.000252939)
(0.000713507 -0.00120266 -0.000252939)
(0.000911505 -0.00106049 -0.000252939)
(0.00108181 -0.000886095 -0.000252939)
(0.00121924 -0.000684779 -0.000252939)
(0.00131963 -0.000462655 -0.000252939)
(0.00137992 -0.000226475 -0.000252939)
(0.00139828 1.65873e-05 -0.000252939)
(0.00137416 0.000259143 -0.000252939)
(0.00130828 0.000493828 -0.000252939)
(0.00120266 0.000713507 -0.000252939)
(0.00106049 0.000911505 -0.000252939)
(0.000886095 0.00108181 -0.000252939)
(0.000684779 0.00121924 -0.000252939)
(0.000462656 0.00131963 -0.000252939)
(0.000226475 0.00137992 -0.000252939)
(-1.65873e-05 0.00139828 -0.000252939)
(-0.000259143 0.00137416 -0.000252939)
(-0.000493828 0.00130828 -0.000252939)
(-0.00071046 0.00129686 -0.000165952)
(-0.000924865 0.00115379 -0.000165952)
(-0.00111117 0.00097566 -0.000165953)
(-0.00126371 0.000767886 -0.000165953)
(-0.00137785 0.000536779 -0.000165953)
(-0.00145013 0.000289363 -0.000165953)
(-0.00147835 3.31558e-05 -0.000165953)
(-0.00146164 -0.00022406 -0.000165952)
(-0.00140053 -0.000474469 -0.000165953)
(-0.00129686 -0.00071046 -0.000165952)
(-0.00115379 -0.000924865 -0.000165952)
(-0.00097566 -0.00111117 -0.000165953)
(-0.000767886 -0.00126371 -0.000165953)
(-0.000536779 -0.00137785 -0.000165953)
(-0.000289363 -0.00145013 -0.000165953)
(-3.31557e-05 -0.00147835 -0.000165953)
(0.00022406 -0.00146164 -0.000165952)
(0.000474469 -0.00140053 -0.000165953)
(0.00071046 -0.00129686 -0.000165952)
(0.000924865 -0.00115379 -0.000165952)
(0.00111117 -0.00097566 -0.000165953)
(0.00126371 -0.000767886 -0.000165953)
(0.00137785 -0.000536779 -0.000165953)
(0.00145013 -0.000289363 -0.000165953)
(0.00147835 -3.31557e-05 -0.000165953)
(0.00146164 0.00022406 -0.000165952)
(0.00140053 0.000474469 -0.000165953)
(0.00129686 0.00071046 -0.000165952)
(0.00115379 0.000924865 -0.000165952)
(0.00097566 0.00111117 -0.000165953)
(0.000767886 0.00126371 -0.000165953)
(0.000536779 0.00137785 -0.000165953)
(0.000289363 0.00145013 -0.000165953)
(3.31558e-05 0.00147835 -0.000165953)
(-0.00022406 0.00146164 -0.000165952)
(-0.000474469 0.00140053 -0.000165953)
(-0.00109139 0.00150927 -0.000733667)
(-0.00133689 0.00129683 -0.000733668)
(-0.00154177 0.00104497 -0.000733667)
(-0.00169981 0.000761375 -0.000733666)
(-0.0018062 0.000454639 -0.000733665)
(-0.0018577 0.00013409 -0.000733665)
(-0.00185276 -0.000190536 -0.000733666)
(-0.00179153 -0.00050937 -0.000733666)
(-0.00167586 -0.000812727 -0.000733667)
(-0.00150927 -0.00109139 -0.000733668)
(-0.00129683 -0.00133689 -0.000733668)
(-0.00104497 -0.00154177 -0.000733667)
(-0.000761374 -0.00169981 -0.000733666)
(-0.000454638 -0.0018062 -0.000733665)
(-0.00013409 -0.0018577 -0.000733665)
(0.000190536 -0.00185276 -0.000733666)
(0.00050937 -0.00179153 -0.000733666)
(0.000812727 -0.00167586 -0.000733667)
(0.00109139 -0.00150927 -0.000733668)
(0.00133689 -0.00129683 -0.000733668)
(0.00154177 -0.00104497 -0.000733667)
(0.00169981 -0.000761374 -0.000733666)
(0.0018062 -0.000454638 -0.000733665)
(0.0018577 -0.00013409 -0.000733665)
(0.00185276 0.000190536 -0.000733666)
(0.00179153 0.00050937 -0.000733666)
(0.00167586 0.000812727 -0.000733667)
(0.00150927 0.00109139 -0.000733667)
(0.00129683 0.00133689 -0.000733667)
(0.00104497 0.00154177 -0.000733667)
(0.000761375 0.00169981 -0.000733666)
(0.000454639 0.0018062 -0.000733665)
(0.00013409 0.0018577 -0.000733665)
(-0.000190536 0.00185276 -0.000733666)
(-0.00050937 0.00179153 -0.000733666)
(-0.000812727 0.00167586 -0.000733667)
(-0.00107255 0.00164034 -0.00061062)
(-0.0013411 0.00142918 -0.00061062)
(-0.0015689 0.00117458 -0.00061062)
(-0.00174903 0.000884303 -0.000610619)
(-0.00187601 0.000567154 -0.000610619)
(-0.001946 0.000232771 -0.000610619)
(-0.00195685 -0.000108684 -0.000610619)
(-0.00190825 -0.000446838 -0.000610619)
(-0.00180167 -0.000771414 -0.000610619)
(-0.00164034 -0.00107255 -0.00061062)
(-0.00142918 -0.0013411 -0.00061062)
(-0.00117458 -0.0015689 -0.00061062)
(-0.000884303 -0.00174903 -0.000610619)
(-0.000567154 -0.00187601 -0.000610619)
(-0.000232771 -0.001946 -0.000610619)
(0.000108685 -0.00195685 -0.000610619)
(0.000446838 -0.00190825 -0.000610619)
(0.000771414 -0.00180167 -0.000610619)
(0.00107255 -0.00164034 -0.00061062)
(0.0013411 -0.00142918 -0.00061062)
(0.0015689 -0.00117458 -0.00061062)
(0.00174903 -0.000884303 -0.000610619)
(0.00187601 -0.000567154 -0.000610619)
(0.001946 -0.000232771 -0.000610619)
(0.00195685 0.000108685 -0.000610619)
(0.00190825 0.000446838 -0.000610619)
(0.00180167 0.000771414 -0.000610619)
(0.00164034 0.00107255 -0.00061062)
(0.00142918 0.0013411 -0.00061062)
(0.00117458 0.0015689 -0.00061062)
(0.000884303 0.00174903 -0.000610619)
(0.000567154 0.00187601 -0.000610619)
(0.000232771 0.001946 -0.000610619)
(-0.000108684 0.00195685 -0.000610619)
(-0.000446838 0.00190825 -0.000610619)
(-0.000771414 0.00180167 -0.000610619)
(-0.00107126 0.00176735 -0.000487232)
(-0.00136188 0.00155448 -0.000487232)
(-0.00161112 0.00129438 -0.000487232)
(-0.00181141 0.000994945 -0.000487232)
(-0.00195666 0.00066528 -0.000487232)
(-0.00204246 0.000315402 -0.000487232)
(-0.0020662 -4.40585e-05 -0.000487232)
(-0.00202716 -0.000402182 -0.000487232)
(-0.00192652 -0.000748084 -0.000487232)
(-0.00176735 -0.00107126 -0.000487232)
(-0.00155448 -0.00136188 -0.000487232)
(-0.00129438 -0.00161112 -0.000487232)
(-0.000994945 -0.00181141 -0.000487232)
(-0.000665279 -0.00195666 -0.000487232)
(-0.000315402 -0.00204246 -0.000487232)
(4.40586e-05 -0.0020662 -0.000487232)
(0.000402182 -0.00202716 -0.000487232)
(0.000748084 -0.00192652 -0.000487232)
(0.00107126 -0.00176735 -0.000487232)
(0.00136188 -0.00155448 -0.000487232)
(0.00161112 -0.00129438 -0.000487232)
(0.00181141 -0.000994945 -0.000487232)
(0.00195666 -0.000665279 -0.000487232)
(0.00204246 -0.000315402 -0.000487232)
(0.0020662 4.40586e-05 -0.000487232)
(0.00202716 0.000402182 -0.000487232)
(0.00192652 0.000748084 -0.000487232)
(0.00176735 0.00107126 -0.000487232)
(0.00155448 0.00136188 -0.000487232)
(0.00129438 0.00161112 -0.000487232)
(0.000994945 0.00181141 -0.000487232)
(0.00066528 0.00195666 -0.000487232)
(0.000315402 0.00204246 -0.000487232)
(-4.40585e-05 0.0020662 -0.000487232)
(-0.000402182 0.00202716 -0.000487232)
(-0.000748084 0.00192652 -0.000487232)
(-0.00108443 0.00187557 -0.00036901)
(-0.00139364 0.00165877 -0.000369011)
(-0.00166051 0.00139157 -0.00036901)
(-0.00187693 0.00108208 -0.000369011)
(-0.00203631 0.000739718 -0.000369011)
(-0.00213383 0.000374878 -0.00036901)
(-0.00216651 -1.35314e-06 -0.000369011)
(-0.00213336 -0.000377541 -0.000369011)
(-0.00203539 -0.00074226 -0.00036901)
(-0.00187557 -0.00108443 -0.00036901)
(-0.00165877 -0.00139364 -0.000369011)
(-0.00139157 -0.00166051 -0.00036901)
(-0.00108208 -0.00187693 -0.000369011)
(-0.000739718 -0.00203631 -0.000369011)
(-0.000374878 -0.00213383 -0.00036901)
(1.35321e-06 -0.00216651 -0.000369011)
(0.000377541 -0.00213336 -0.000369011)
(0.00074226 -0.00203539 -0.00036901)
(0.00108443 -0.00187557 -0.00036901)
(0.00139364 -0.00165877 -0.000369011)
(0.00166051 -0.00139157 -0.00036901)
(0.00187693 -0.00108208 -0.000369011)
(0.00203631 -0.000739718 -0.000369011)
(0.00213383 -0.000374878 -0.00036901)
(0.00216651 1.35322e-06 -0.000369011)
(0.00213336 0.000377541 -0.000369011)
(0.00203539 0.00074226 -0.00036901)
(0.00187557 0.00108443 -0.00036901)
(0.00165877 0.00139364 -0.000369011)
(0.00139157 0.00166051 -0.00036901)
(0.00108208 0.00187693 -0.00036901)
(0.000739718 0.00203631 -0.000369011)
(0.000374878 0.00213383 -0.00036901)
(-1.35315e-06 0.00216651 -0.000369011)
(-0.000377541 0.00213336 -0.000369011)
(-0.00074226 0.00203539 -0.00036901)
(-0.0014096 0.00204131 -0.00107238)
(-0.00174266 0.00176552 -0.00107238)
(-0.00202276 0.00143609 -0.00107238)
(-0.0022414 0.00106302 -0.00107238)
(-0.00239194 0.000657659 -0.00107237)
(-0.0024698 0.000232312 -0.00107237)
(-0.00247262 -0.000200094 -0.00107237)
(-0.00240031 -0.000626424 -0.00107237)
(-0.00225507 -0.00103372 -0.00107237)
(-0.00204131 -0.0014096 -0.00107238)
(-0.00176552 -0.00174266 -0.00107238)
(-0.00143609 -0.00202276 -0.00107238)
(-0.00106302 -0.0022414 -0.00107238)
(-0.000657659 -0.00239194 -0.00107237)
(-0.000232312 -0.0024698 -0.00107237)
(0.000200094 -0.00247262 -0.00107237)
(0.000626424 -0.00240031 -0.00107237)
(0.00103372 -0.00225507 -0.00107237)
(0.0014096 -0.00204131 -0.00107238)
(0.00174266 -0.00176552 -0.00107238)
(0.00202276 -0.00143609 -0.00107238)
(0.0022414 -0.00106302 -0.00107238)
(0.00239194 -0.000657659 -0.00107237)
(0.0024698 -0.000232312 -0.00107237)
(0.00247262 0.000200094 -0.00107237)
(0.00240031 0.000626424 -0.00107237)
(0.00225507 0.00103372 -0.00107237)
(0.00204131 0.0014096 -0.00107238)
(0.00176552 0.00174266 -0.00107238)
(0.00143609 0.00202276 -0.00107238)
(0.00106302 0.0022414 -0.00107237)
(0.000657659 0.00239194 -0.00107237)
(0.000232312 0.0024698 -0.00107237)
(-0.000200094 0.00247262 -0.00107237)
(-0.000626424 0.00240031 -0.00107237)
(-0.00103372 0.00225507 -0.00107237)
(-0.00140381 0.00216856 -0.000923562)
(-0.00175905 0.00189184 -0.000923563)
(-0.00206084 0.00155764 -0.000923562)
(-0.00230001 0.00117612 -0.000923562)
(-0.0024693 0.000758855 -0.000923562)
(-0.00256356 0.000318537 -0.000923561)
(-0.00257993 -0.00013146 -0.000923562)
(-0.00251791 -0.000577464 -0.000923561)
(-0.00237938 -0.00100592 -0.000923562)
(-0.00216856 -0.00140381 -0.000923562)
(-0.00189184 -0.00175905 -0.000923563)
(-0.00155764 -0.00206084 -0.000923562)
(-0.00117612 -0.00230001 -0.000923562)
(-0.000758855 -0.0024693 -0.000923562)
(-0.000318537 -0.00256356 -0.000923561)
(0.00013146 -0.00257993 -0.000923562)
(0.000577464 -0.00251791 -0.000923561)
(0.00100592 -0.00237938 -0.000923562)
(0.00140381 -0.00216856 -0.000923562)
(0.00175905 -0.00189184 -0.000923563)
(0.00206084 -0.00155764 -0.000923562)
(0.00230001 -0.00117612 -0.000923562)
(0.0024693 -0.000758855 -0.000923562)
(0.00256356 -0.000318537 -0.000923561)
(0.00257993 0.00013146 -0.000923562)
(0.00251791 0.000577464 -0.000923561)
(0.00237938 0.00100592 -0.000923562)
(0.00216856 0.00140381 -0.000923562)
(0.00189184 0.00175905 -0.000923562)
(0.00155764 0.00206084 -0.000923561)
(0.00117612 0.00230001 -0.000923562)
(0.000758855 0.0024693 -0.000923562)
(0.000318537 0.00256356 -0.000923561)
(-0.00013146 0.00257993 -0.000923562)
(-0.000577464 0.00251791 -0.000923561)
(-0.00100592 0.00237938 -0.000923562)
(-0.00141724 0.00228818 -0.000775544)
(-0.00179305 0.00200732 -0.000775544)
(-0.00211438 0.00166546 -0.000775544)
(-0.00237146 0.001273 -0.000775544)
(-0.00255649 0.000841868 -0.000775544)
(-0.00266384 0.000385148 -0.000775544)
(-0.00269025 -8.32753e-05 -0.000775543)
(-0.00263492 -0.000549166 -0.000775544)
(-0.00249952 -0.000998372 -0.000775543)
(-0.00228818 -0.00141724 -0.000775544)
(-0.00200732 -0.00179305 -0.000775544)
(-0.00166546 -0.00211438 -0.000775544)
(-0.001273 -0.00237146 -0.000775544)
(-0.000841867 -0.00255649 -0.000775544)
(-0.000385148 -0.00266384 -0.000775544)
(8.32754e-05 -0.00269025 -0.000775544)
(0.000549166 -0.00263492 -0.000775544)
(0.000998373 -0.00249952 -0.000775543)
(0.00141724 -0.00228818 -0.000775544)
(0.00179305 -0.00200732 -0.000775544)
(0.00211438 -0.00166546 -0.000775544)
(0.00237146 -0.001273 -0.000775544)
(0.00255649 -0.000841867 -0.000775544)
(0.00266384 -0.000385148 -0.000775544)
(0.00269025 8.32754e-05 -0.000775543)
(0.00263492 0.000549166 -0.000775544)
(0.00249952 0.000998373 -0.000775543)
(0.00228818 0.00141724 -0.000775544)
(0.00200732 0.00179305 -0.000775544)
(0.00166546 0.00211438 -0.000775544)
(0.001273 0.00237146 -0.000775543)
(0.000841868 0.00255649 -0.000775543)
(0.000385148 0.00266384 -0.000775543)
(-8.32753e-05 0.00269025 -0.000775543)
(-0.000549166 0.00263492 -0.000775544)
(-0.000998372 0.00249952 -0.000775543)
(-0.00144395 0.00238369 -0.000633765)
(-0.00183594 0.00209674 -0.000633764)
(-0.00217214 0.00174608 -0.000633765)
(-0.00244234 0.00134236 -0.000633765)
(-0.00263834 0.000897861 -0.000633765)
(-0.00275417 0.000426076 -0.000633765)
(-0.00278631 -5.86527e-05 -0.000633765)
(-0.0027338 -0.0005416 -0.000633765)
(-0.00259822 -0.00100809 -0.000633764)
(-0.00238369 -0.00144395 -0.000633765)
(-0.00209674 -0.00183594 -0.000633764)
(-0.00174608 -0.00217214 -0.000633765)
(-0.00134236 -0.00244234 -0.000633765)
(-0.000897861 -0.00263834 -0.000633765)
(-0.000426075 -0.00275417 -0.000633765)
(5.86528e-05 -0.00278631 -0.000633765)
(0.0005416 -0.0027338 -0.000633765)
(0.00100809 -0.00259822 -0.000633764)
(0.00144395 -0.00238369 -0.000633765)
(0.00183594 -0.00209674 -0.000633764)
(0.00217214 -0.00174608 -0.000633765)
(0.00244234 -0.00134236 -0.000633765)
(0.00263834 -0.000897861 -0.000633765)
(0.00275417 -0.000426075 -0.000633765)
(0.00278631 5.86528e-05 -0.000633764)
(0.0027338 0.0005416 -0.000633765)
(0.00259822 0.00100809 -0.000633764)
(0.00238369 0.00144395 -0.000633765)
(0.00209674 0.00183594 -0.000633764)
(0.00174608 0.00217214 -0.000633765)
(0.00134236 0.00244234 -0.000633764)
(0.000897861 0.00263834 -0.000633765)
(0.000426076 0.00275417 -0.000633765)
(-5.86527e-05 0.00278631 -0.000633764)
(-0.0005416 0.0027338 -0.000633765)
(-0.00100809 0.00259822 -0.000633764)
(-0.00172905 0.00256977 -0.00144039)
(-0.00214902 0.00223049 -0.00144039)
(-0.00250369 0.00182343 -0.00144039)
(-0.00278228 0.00136097 -0.00144039)
(-0.00297634 0.000857152 -0.00144039)
(-0.00307997 0.000327291 -0.00144039)
(-0.00309001 -0.000212512 -0.00144039)
(-0.00300617 -0.000745859 -0.00144039)
(-0.00283098 -0.00125654 -0.00144039)
(-0.00256977 -0.00172905 -0.00144039)
(-0.00223049 -0.00214902 -0.00144039)
(-0.00182343 -0.00250369 -0.00144039)
(-0.00136097 -0.00278228 -0.00144039)
(-0.000857152 -0.00297634 -0.00144039)
(-0.00032729 -0.00307997 -0.00144039)
(0.000212512 -0.00309001 -0.00144039)
(0.000745859 -0.00300617 -0.00144039)
(0.00125654 -0.00283098 -0.00144039)
(0.00172905 -0.00256977 -0.00144039)
(0.00214902 -0.00223049 -0.00144039)
(0.00250369 -0.00182343 -0.00144039)
(0.00278228 -0.00136097 -0.00144039)
(0.00297634 -0.000857152 -0.00144039)
(0.00307997 -0.00032729 -0.00144039)
(0.00309001 0.000212512 -0.00144039)
(0.00300617 0.000745859 -0.00144039)
(0.00283098 0.00125654 -0.00144039)
(0.00256977 0.00172905 -0.00144039)
(0.00223049 0.00214902 -0.00144039)
(0.00182343 0.00250369 -0.00144039)
(0.00136097 0.00278228 -0.00144039)
(0.000857152 0.00297634 -0.00144039)
(0.000327291 0.00307997 -0.00144039)
(-0.000212512 0.00309001 -0.00144039)
(-0.000745859 0.00300617 -0.00144039)
(-0.00125654 0.00283098 -0.00144039)
(-0.0017299 0.00266674 -0.00127228)
(-0.00216669 0.00232583 -0.00127228)
(-0.00253765 0.00191426 -0.00127228)
(-0.0028315 0.00144452 -0.00127228)
(-0.00303932 0.000930886 -0.00127228)
(-0.0031548 0.000388972 -0.00127228)
(-0.00317441 -0.000164763 -0.00127228)
(-0.00309758 -0.000713491 -0.00127228)
(-0.00292662 -0.00124054 -0.00127228)
(-0.00266674 -0.0017299 -0.00127228)
(-0.00232583 -0.00216669 -0.00127228)
(-0.00191426 -0.00253765 -0.00127228)
(-0.00144452 -0.0028315 -0.00127228)
(-0.000930886 -0.00303932 -0.00127228)
(-0.000388972 -0.0031548 -0.00127228)
(0.000164763 -0.00317441 -0.00127228)
(0.000713491 -0.00309758 -0.00127228)
(0.00124054 -0.00292662 -0.00127228)
(0.0017299 -0.00266674 -0.00127228)
(0.00216669 -0.00232583 -0.00127228)
(0.00253765 -0.00191426 -0.00127228)
(0.0028315 -0.00144452 -0.00127228)
(0.00303932 -0.000930886 -0.00127228)
(0.0031548 -0.000388972 -0.00127228)
(0.00317441 0.000164763 -0.00127228)
(0.00309758 0.000713491 -0.00127228)
(0.00292662 0.00124054 -0.00127228)
(0.00266674 0.0017299 -0.00127228)
(0.00232583 0.00216669 -0.00127228)
(0.00191426 0.00253765 -0.00127228)
(0.00144452 0.0028315 -0.00127228)
(0.000930886 0.00303932 -0.00127228)
(0.000388972 0.0031548 -0.00127228)
(-0.000164763 0.00317441 -0.00127228)
(-0.000713491 0.00309758 -0.00127228)
(-0.00124054 0.00292662 -0.00127228)
(-0.00175048 0.00275289 -0.00110615)
(-0.00220192 0.0024071 -0.00110615)
(-0.00258646 0.00198817 -0.00110615)
(-0.0028924 0.00150883 -0.00110615)
(-0.00311047 0.000983647 -0.00110615)
(-0.00323402 0.000428578 -0.00110615)
(-0.00325931 -0.000139517 -0.00110615)
(-0.00318557 -0.000703368 -0.00110615)
(-0.00301503 -0.00124585 -0.00110615)
(-0.00275289 -0.00175048 -0.00110615)
(-0.0024071 -0.00220192 -0.00110615)
(-0.00198817 -0.00258646 -0.00110615)
(-0.00150883 -0.0028924 -0.00110615)
(-0.000983647 -0.00311047 -0.00110615)
(-0.000428578 -0.00323402 -0.00110615)
(0.000139517 -0.00325931 -0.00110615)
(0.000703369 -0.00318557 -0.00110615)
(0.00124585 -0.00301503 -0.00110615)
(0.00175048 -0.00275289 -0.00110615)
(0.00220192 -0.0024071 -0.00110615)
(0.00258646 -0.00198817 -0.00110615)
(0.0028924 -0.00150883 -0.00110615)
(0.00311047 -0.000983647 -0.00110615)
(0.00323402 -0.000428578 -0.00110615)
(0.00325931 0.000139517 -0.00110615)
(0.00318557 0.000703368 -0.00110615)
(0.00301503 0.00124585 -0.00110615)
(0.00275289 0.00175048 -0.00110615)
(0.0024071 0.00220192 -0.00110615)
(0.00198817 0.00258646 -0.00110615)
(0.00150883 0.0028924 -0.00110615)
(0.000983647 0.00311047 -0.00110615)
(0.000428578 0.00323402 -0.00110615)
(-0.000139517 0.00325931 -0.00110615)
(-0.000703368 0.00318557 -0.00110615)
(-0.00124585 0.00301503 -0.00110615)
(-0.00178245 0.00281139 -0.00094685)
(-0.00224357 0.00245916 -0.000946849)
(-0.00263651 0.00203221 -0.000946849)
(-0.00294934 0.00154351 -0.000946849)
(-0.00317257 0.00100791 -0.00094685)
(-0.00329939 0.000441692 -0.000946849)
(-0.00332596 -0.000137953 -0.00094685)
(-0.00325148 -0.000713406 -0.00094685)
(-0.0030782 -0.00126718 -0.000946849)
(-0.00281139 -0.00178245 -0.00094685)
(-0.00245916 -0.00224357 -0.00094685)
(-0.00203221 -0.00263651 -0.000946849)
(-0.00154351 -0.00294934 -0.000946849)
(-0.00100791 -0.00317257 -0.00094685)
(-0.000441692 -0.00329939 -0.000946849)
(0.000137953 -0.00332596 -0.00094685)
(0.000713406 -0.00325148 -0.00094685)
(0.00126718 -0.0030782 -0.000946849)
(0.00178245 -0.00281139 -0.00094685)
(0.00224357 -0.00245916 -0.00094685)
(0.00263651 -0.00203221 -0.000946849)
(0.00294934 -0.00154351 -0.000946849)
(0.00317257 -0.00100791 -0.00094685)
(0.00329939 -0.000441692 -0.000946849)
(0.00332596 0.000137953 -0.00094685)
(0.00325148 0.000713406 -0.00094685)
(0.0030782 0.00126718 -0.000946849)
(0.00281139 0.00178245 -0.00094685)
(0.00245916 0.00224357 -0.000946849)
(0.00203221 0.00263651 -0.000946849)
(0.00154351 0.00294934 -0.000946849)
(0.00100791 0.00317257 -0.000946849)
(0.000441692 0.00329939 -0.000946849)
(-0.000137952 0.00332596 -0.00094685)
(-0.000713406 0.00325148 -0.00094685)
(-0.00126718 0.0030782 -0.000946849)
(-0.002055 0.00307187 -0.00183103)
(-0.0025572 0.00266835 -0.00183103)
(-0.00298171 0.00218376 -0.00183103)
(-0.00331561 0.00163282 -0.00183103)
(-0.00354878 0.00103226 -0.00183103)
(-0.00367411 0.000400336 -0.00183103)
(-0.00368781 -0.000243748 -0.00183103)