/*--------------------------------*- C++ -*----------------------------------*\
| =========                 |                                                 |
| \\      /  F ield         | OpenFOAM: The Open Source CFD Toolbox           |
|  \\    /   O peration     | Version:  2312                                  |
|   \\  /    A nd           | Website:  www.openfoam.com                      |
|    \\/     M anipulation  |                                                 |
\*---------------------------------------------------------------------------*/
FoamFile
{
    version     2.0;
    format      ascii;
    arch        "LSB;label=32;scalar=64";
    class       volVectorField;
    location    "0.5";
    object      D_0;
}
// * * * * * * * * * * * * * * * * * * * * * * * * * * * * * * * * * * * * * //

dimensions      [0 1 0 0 0 0 0];

internalField   nonuniform List<vector> 
1620
(
(0.000198424 1.73599e-05 -0.000100044)
(0.000192395 5.15521e-05 -0.000100044)
(0.00018052 8.41777e-05 -0.000100044)
(0.00016316 0.000114246 -0.000100044)
(0.000140843 0.000140843 -0.000100044)
(0.000114246 0.00016316 -0.000100044)
(8.41777e-05 0.00018052 -0.000100044)
(5.15521e-05 0.000192395 -0.000100044)
(1.73599e-05 0.000198424 -0.000100044)
(-1.73599e-05 0.000198424 -0.000100044)
(-5.15521e-05 0.000192395 -0.000100044)
(-8.41777e-05 0.00018052 -0.000100044)
(-0.000114246 0.00016316 -0.000100044)
(-0.000140843 0.000140843 -0.000100044)
(-0.00016316 0.000114246 -0.000100044)
(-0.00018052 8.41777e-05 -0.000100044)
(-0.000192395 5.15521e-05 -0.000100044)
(-0.000198424 1.73599e-05 -0.000100044)
(-0.000198424 -1.73599e-05 -0.000100044)
(-0.000192395 -5.15521e-05 -0.000100044)
(-0.00018052 -8.41777e-05 -0.000100044)
(-0.00016316 -0.000114246 -0.000100044)
(-0.000140843 -0.000140843 -0.000100044)
(-0.000114246 -0.00016316 -0.000100044)
(-8.41777e-05 -0.00018052 -0.000100044)
(-5.15521e-05 -0.000192395 -0.000100044)
(-1.73599e-05 -0.000198424 -0.000100044)
(1.73599e-05 -0.000198424 -0.000100044)
(5.15521e-05 -0.000192395 -0.000100044)
(8.41777e-05 -0.00018052 -0.000100044)
(0.000114246 -0.00016316 -0.000100044)
(0.000140843 -0.000140843 -0.000100044)
(0.00016316 -0.000114246 -0.000100044)
(0.00018052 -8.41777e-05 -0.000100044)
(0.000192395 -5.15521e-05 -0.000100044)
(0.000198424 -1.73599e-05 -0.000100044)
(0.00030783 2.69315e-05 -9.70244e-05)
(0.000298477 7.99763e-05 -9.70246e-05)
(0.000280054 0.000130591 -9.70246e-05)
(0.000253122 0.000177238 -9.70246e-05)
(0.0002185 0.0002185 -9.70247e-05)
(0.000177238 0.000253122 -9.70246e-05)
(0.000130591 0.000280054 -9.70246e-05)
(7.99763e-05 0.000298477 -9.70246e-05)
(2.69315e-05 0.00030783 -9.70244e-05)
(-2.69315e-05 0.00030783 -9.70244e-05)
(-7.99763e-05 0.000298477 -9.70246e-05)
(-0.000130591 0.000280054 -9.70246e-05)
(-0.000177238 0.000253122 -9.70246e-05)
(-0.0002185 0.0002185 -9.70247e-05)
(-0.000253122 0.000177238 -9.70246e-05)
(-0.000280054 0.000130591 -9.70246e-05)
(-0.000298477 7.99763e-05 -9.70246e-05)
(-0.00030783 2.69315e-05 -9.70244e-05)
(-0.00030783 -2.69315e-05 -9.70244e-05)
(-0.000298477 -7.99763e-05 -9.70246e-05)
(-0.000280054 -0.000130591 -9.70246e-05)
(-0.000253122 -0.000177238 -9.70246e-05)
(-0.0002185 -0.0002185 -9.70247e-05)
(-0.000177238 -0.000253122 -9.70246e-05)
(-0.000130591 -0.000280054 -9.70246e-05)
(-7.99763e-05 -0.000298477 -9.70246e-05)
(-2.69315e-05 -0.00030783 -9.70244e-05)
(2.69315e-05 -0.00030783 -9.70244e-05)
(7.99763e-05 -0.000298477 -9.70246e-05)
(0.000130591 -0.000280054 -9.70246e-05)
(0.000177238 -0.000253122 -9.70246e-05)
(0.0002185 -0.0002185 -9.70247e-05)
(0.000253122 -0.000177238 -9.70246e-05)
(0.000280054 -0.000130591 -9.70246e-05)
(0.000298477 -7.99763e-05 -9.70246e-05)
(0.00030783 -2.69315e-05 -9.70244e-05)
(0.000450007 3.93703e-05 -8.16413e-05)
(0.000436334 0.000116915 -8.16415e-05)
(0.000409403 0.000190907 -8.16416e-05)
(0.000370032 0.000259099 -8.16413e-05)
(0.000319418 0.000319418 -8.16416e-05)
(0.000259099 0.000370032 -8.16413e-05)
(0.000190907 0.000409403 -8.16416e-05)
(0.000116915 0.000436334 -8.16415e-05)
(3.93703e-05 0.000450007 -8.16413e-05)
(-3.93703e-05 0.000450007 -8.16413e-05)
(-0.000116915 0.000436334 -8.16415e-05)
(-0.000190907 0.000409403 -8.16416e-05)
(-0.000259099 0.000370032 -8.16413e-05)
(-0.000319418 0.000319418 -8.16416e-05)
(-0.000370032 0.000259099 -8.16413e-05)
(-0.000409403 0.000190907 -8.16416e-05)
(-0.000436334 0.000116915 -8.16415e-05)
(-0.000450007 3.93703e-05 -8.16413e-05)
(-0.000450007 -3.93703e-05 -8.16413e-05)
(-0.000436334 -0.000116915 -8.16415e-05)
(-0.000409403 -0.000190907 -8.16416e-05)
(-0.000370032 -0.000259099 -8.16413e-05)
(-0.000319418 -0.000319418 -8.16416e-05)
(-0.000259099 -0.000370032 -8.16413e-05)
(-0.000190907 -0.000409403 -8.16416e-05)
(-0.000116915 -0.000436334 -8.16415e-05)
(-3.93703e-05 -0.000450007 -8.16413e-05)
(3.93703e-05 -0.000450007 -8.16413e-05)
(0.000116915 -0.000436334 -8.16415e-05)
(0.000190907 -0.000409403 -8.16416e-05)
(0.000259099 -0.000370032 -8.16413e-05)
(0.000319418 -0.000319418 -8.16416e-05)
(0.000370032 -0.000259099 -8.16413e-05)
(0.000409403 -0.000190907 -8.16416e-05)
(0.000436334 -0.000116915 -8.16415e-05)
(0.000450007 -3.93703e-05 -8.16413e-05)
(0.00071634 6.26717e-05 -0.000310883)
(0.000694575 0.000186111 -0.000310884)
(0.000651705 0.000303895 -0.000310884)
(0.000589032 0.000412444 -0.000310884)
(0.000508463 0.000508463 -0.000310884)
(0.000412444 0.000589032 -0.000310884)
(0.000303895 0.000651705 -0.000310884)
(0.000186111 0.000694575 -0.000310884)
(6.26717e-05 0.00071634 -0.000310883)
(-6.26717e-05 0.00071634 -0.000310883)
(-0.000186111 0.000694575 -0.000310884)
(-0.000303895 0.000651705 -0.000310884)
(-0.000412444 0.000589032 -0.000310884)
(-0.000508463 0.000508463 -0.000310884)
(-0.000589032 0.000412444 -0.000310884)
(-0.000651705 0.000303895 -0.000310884)
(-0.000694575 0.000186111 -0.000310884)
(-0.00071634 6.26717e-05 -0.000310883)
(-0.00071634 -6.26717e-05 -0.000310883)
(-0.000694575 -0.000186111 -0.000310884)
(-0.000651705 -0.000303895 -0.000310884)
(-0.000589032 -0.000412444 -0.000310884)
(-0.000508463 -0.000508463 -0.000310884)
(-0.000412444 -0.000589032 -0.000310884)
(-0.000303895 -0.000651705 -0.000310884)
(-0.000186111 -0.000694575 -0.000310884)
(-6.26717e-05 -0.00071634 -0.000310883)
(6.26717e-05 -0.00071634 -0.000310883)
(0.000186111 -0.000694575 -0.000310884)
(0.000303895 -0.000651705 -0.000310884)
(0.000412444 -0.000589032 -0.000310884)
(0.000508463 -0.000508463 -0.000310884)
(0.000589032 -0.000412444 -0.000310884)
(0.000651705 -0.000303895 -0.000310884)
(0.000694575 -0.000186111 -0.000310884)
(0.00071634 -6.26717e-05 -0.000310883)
(0.000908237 7.94604e-05 -0.000334606)
(0.00088064 0.000235966 -0.000334606)
(0.000826286 0.000385303 -0.000334607)
(0.000746826 0.000522932 -0.000334607)
(0.000644673 0.000644673 -0.000334607)
(0.000522932 0.000746826 -0.000334607)
(0.000385303 0.000826286 -0.000334607)
(0.000235966 0.00088064 -0.000334606)
(7.94604e-05 0.000908237 -0.000334606)
(-7.94603e-05 0.000908237 -0.000334606)
(-0.000235966 0.00088064 -0.000334606)
(-0.000385303 0.000826286 -0.000334607)
(-0.000522932 0.000746826 -0.000334607)
(-0.000644673 0.000644673 -0.000334607)
(-0.000746826 0.000522932 -0.000334607)
(-0.000826286 0.000385303 -0.000334607)
(-0.00088064 0.000235966 -0.000334606)
(-0.000908237 7.94604e-05 -0.000334606)
(-0.000908237 -7.94603e-05 -0.000334606)
(-0.00088064 -0.000235966 -0.000334606)
(-0.000826286 -0.000385303 -0.000334607)
(-0.000746826 -0.000522932 -0.000334607)
(-0.000644673 -0.000644673 -0.000334607)
(-0.000522932 -0.000746826 -0.000334607)
(-0.000385303 -0.000826286 -0.000334607)
(-0.000235966 -0.00088064 -0.000334606)
(-7.94604e-05 -0.000908237 -0.000334606)
(7.94603e-05 -0.000908237 -0.000334606)
(0.000235966 -0.00088064 -0.000334606)
(0.000385303 -0.000826286 -0.000334607)
(0.000522932 -0.000746826 -0.000334607)
(0.000644673 -0.000644673 -0.000334607)
(0.000746826 -0.000522932 -0.000334607)
(0.000826286 -0.000385303 -0.000334607)
(0.00088064 -0.000235966 -0.000334606)
(0.000908237 -7.94604e-05 -0.000334606)
(0.00114754 0.000100397 -0.000344038)
(0.00111267 0.000298139 -0.000344038)
(0.001044 0.000486822 -0.000344038)
(0.000943599 0.000660714 -0.000344038)
(0.000814531 0.000814531 -0.000344038)
(0.000660714 0.000943599 -0.000344038)
(0.000486822 0.001044 -0.000344038)
(0.000298139 0.00111267 -0.000344038)
(0.000100397 0.00114754 -0.000344038)
(-0.000100397 0.00114754 -0.000344038)
(-0.000298139 0.00111267 -0.000344038)
(-0.000486822 0.001044 -0.000344038)
(-0.000660714 0.000943599 -0.000344038)
(-0.000814531 0.000814531 -0.000344038)
(-0.000943599 0.000660714 -0.000344038)
(-0.001044 0.000486822 -0.000344038)
(-0.00111267 0.000298139 -0.000344038)
(-0.00114754 0.000100397 -0.000344038)
(-0.00114754 -0.000100397 -0.000344038)
(-0.00111267 -0.000298139 -0.000344038)
(-0.001044 -0.000486822 -0.000344038)
(-0.000943599 -0.000660714 -0.000344038)
(-0.000814531 -0.000814531 -0.000344038)
(-0.000660714 -0.000943599 -0.000344038)
(-0.000486822 -0.001044 -0.000344038)
(-0.000298139 -0.00111267 -0.000344038)
(-0.000100397 -0.00114754 -0.000344038)
(0.000100397 -0.00114754 -0.000344038)
(0.000298139 -0.00111267 -0.000344038)
(0.000486822 -0.001044 -0.000344038)
(0.000660714 -0.000943599 -0.000344038)
(0.000814531 -0.000814531 -0.000344038)
(0.000943599 -0.000660714 -0.000344038)
(0.001044 -0.000486822 -0.000344038)
(0.00111267 -0.000298139 -0.000344038)
(0.00114754 -0.000100397 -0.000344038)
(0.00118668 0.000103821 -0.00061)
(0.00115062 0.000308308 -0.00061)
(0.0010796 0.000503426 -0.000610001)
(0.000975781 0.000683249 -0.000610001)
(0.000842311 0.000842311 -0.000610001)
(0.000683249 0.000975781 -0.000610001)
(0.000503426 0.0010796 -0.000610001)
(0.000308308 0.00115062 -0.00061)
(0.000103821 0.00118668 -0.00061)
(-0.000103821 0.00118668 -0.00061)
(-0.000308308 0.00115062 -0.00061)
(-0.000503426 0.0010796 -0.000610001)
(-0.000683249 0.000975781 -0.000610001)
(-0.000842311 0.000842311 -0.000610001)
(-0.000975781 0.000683249 -0.000610001)
(-0.0010796 0.000503426 -0.000610001)
(-0.00115062 0.000308308 -0.00061)
(-0.00118668 0.000103821 -0.00061)
(-0.00118668 -0.000103821 -0.00061)
(-0.00115062 -0.000308308 -0.00061)
(-0.0010796 -0.000503426 -0.000610001)
(-0.000975781 -0.000683249 -0.000610001)
(-0.000842311 -0.000842311 -0.000610001)
(-0.000683249 -0.000975781 -0.000610001)
(-0.000503426 -0.0010796 -0.000610001)
(-0.000308308 -0.00115062 -0.00061)
(-0.000103821 -0.00118668 -0.00061)
(0.000103821 -0.00118668 -0.00061)
(0.000308308 -0.00115062 -0.00061)
(0.000503426 -0.0010796 -0.000610001)
(0.000683249 -0.000975781 -0.000610001)
(0.000842311 -0.000842311 -0.000610001)
(0.000975781 -0.000683249 -0.000610001)
(0.0010796 -0.000503426 -0.000610001)
(0.00115062 -0.000308308 -0.00061)
(0.00118668 -0.000103821 -0.00061)
(0.00143638 0.000125667 -0.000647941)
(0.00139274 0.000373183 -0.000647941)
(0.00130678 0.00060936 -0.000647941)
(0.00118111 0.000827021 -0.000647941)
(0.00101955 0.00101955 -0.000647941)
(0.000827021 0.00118111 -0.000647941)
(0.00060936 0.00130678 -0.000647941)
(0.000373183 0.00139274 -0.000647941)
(0.000125667 0.00143638 -0.000647941)
(-0.000125667 0.00143638 -0.000647941)
(-0.000373183 0.00139274 -0.000647941)
(-0.00060936 0.00130678 -0.000647941)
(-0.000827021 0.00118111 -0.000647941)
(-0.00101955 0.00101955 -0.000647941)
(-0.00118111 0.000827021 -0.000647941)
(-0.00130678 0.00060936 -0.000647941)
(-0.00139274 0.000373183 -0.000647941)
(-0.00143638 0.000125667 -0.000647941)
(-0.00143638 -0.000125667 -0.000647941)
(-0.00139274 -0.000373183 -0.000647941)
(-0.00130678 -0.00060936 -0.000647941)
(-0.00118111 -0.000827021 -0.000647941)
(-0.00101955 -0.00101955 -0.000647941)
(-0.000827021 -0.00118111 -0.000647941)
(-0.00060936 -0.00130678 -0.000647941)
(-0.000373183 -0.00139274 -0.000647941)
(-0.000125667 -0.00143638 -0.000647941)
(0.000125667 -0.00143638 -0.000647941)
(0.000373183 -0.00139274 -0.000647941)
(0.00060936 -0.00130678 -0.000647941)
(0.000827021 -0.00118111 -0.000647941)
(0.00101955 -0.00101955 -0.000647941)
(0.00118111 -0.000827021 -0.000647941)
(0.00130678 -0.00060936 -0.000647941)
(0.00139274 -0.000373183 -0.000647941)
(0.00143638 -0.000125667 -0.000647941)
(0.00173948 0.000152185 -0.000673055)
(0.00168663 0.00045193 -0.000673055)
(0.00158253 0.000737943 -0.000673055)
(0.00143034 0.00100153 -0.000673056)
(0.00123469 0.00123469 -0.000673056)
(0.00100153 0.00143034 -0.000673056)
(0.000737943 0.00158253 -0.000673055)
(0.00045193 0.00168663 -0.000673055)
(0.000152185 0.00173948 -0.000673055)
(-0.000152185 0.00173948 -0.000673055)
(-0.00045193 0.00168663 -0.000673055)
(-0.000737943 0.00158253 -0.000673055)
(-0.00100153 0.00143034 -0.000673056)
(-0.00123469 0.00123469 -0.000673056)
(-0.00143034 0.00100153 -0.000673056)
(-0.00158253 0.000737943 -0.000673055)
(-0.00168663 0.00045193 -0.000673055)
(-0.00173948 0.000152185 -0.000673055)
(-0.00173948 -0.000152185 -0.000673055)
(-0.00168663 -0.00045193 -0.000673055)
(-0.00158253 -0.000737943 -0.000673055)
(-0.00143034 -0.00100153 -0.000673056)
(-0.00123469 -0.00123469 -0.000673056)
(-0.00100153 -0.00143034 -0.000673056)
(-0.000737943 -0.00158253 -0.000673055)
(-0.00045193 -0.00168663 -0.000673055)
(-0.000152185 -0.00173948 -0.000673055)
(0.000152185 -0.00173948 -0.000673055)
(0.00045193 -0.00168663 -0.000673055)
(0.000737943 -0.00158253 -0.000673055)
(0.00100153 -0.00143034 -0.000673056)
(0.00123469 -0.00123469 -0.000673056)
(0.00143034 -0.00100153 -0.000673056)
(0.00158253 -0.000737943 -0.000673055)
(0.00168663 -0.00045193 -0.000673055)
(0.00173948 -0.000152185 -0.000673055)
(0.00155912 0.000136405 -0.00096019)
(0.00151175 0.000405071 -0.00096019)
(0.00141844 0.000661429 -0.00096019)
(0.00128203 0.00089769 -0.000960191)
(0.00110667 0.00110667 -0.000960191)
(0.00089769 0.00128203 -0.000960191)
(0.000661429 0.00141844 -0.00096019)
(0.000405071 0.00151175 -0.00096019)
(0.000136405 0.00155912 -0.00096019)
(-0.000136405 0.00155912 -0.00096019)
(-0.000405071 0.00151175 -0.00096019)
(-0.000661429 0.00141844 -0.00096019)
(-0.00089769 0.00128203 -0.000960191)
(-0.00110667 0.00110667 -0.000960191)
(-0.00128203 0.00089769 -0.000960191)
(-0.00141844 0.000661429 -0.00096019)
(-0.00151175 0.000405071 -0.00096019)
(-0.00155912 0.000136405 -0.00096019)
(-0.00155912 -0.000136405 -0.00096019)
(-0.00151175 -0.000405071 -0.00096019)
(-0.00141844 -0.000661429 -0.00096019)
(-0.00128203 -0.00089769 -0.000960191)
(-0.00110667 -0.00110667 -0.000960191)
(-0.00089769 -0.00128203 -0.000960191)
(-0.000661429 -0.00141844 -0.00096019)
(-0.000405071 -0.00151175 -0.00096019)
(-0.000136405 -0.00155912 -0.00096019)
(0.000136405 -0.00155912 -0.00096019)
(0.000405071 -0.00151175 -0.00096019)
(0.000661429 -0.00141844 -0.00096019)
(0.00089769 -0.00128203 -0.000960191)
(0.00110667 -0.00110667 -0.000960191)
(0.00128203 -0.00089769 -0.000960191)
(0.00141844 -0.000661429 -0.00096019)
(0.00151175 -0.000405071 -0.00096019)
(0.00155912 -0.000136405 -0.00096019)
(0.00184042 0.000161016 -0.00100737)
(0.0017845 0.000478155 -0.00100737)
(0.00167436 0.000780766 -0.00100737)
(0.00151334 0.00105965 -0.00100737)
(0.00130634 0.00130634 -0.00100737)
(0.00105965 0.00151334 -0.00100737)
(0.000780766 0.00167436 -0.00100737)
(0.000478155 0.0017845 -0.00100737)
(0.000161016 0.00184042 -0.00100737)
(-0.000161016 0.00184042 -0.00100737)
(-0.000478155 0.0017845 -0.00100737)
(-0.000780766 0.00167436 -0.00100737)
(-0.00105965 0.00151334 -0.00100737)
(-0.00130634 0.00130634 -0.00100737)
(-0.00151334 0.00105965 -0.00100737)
(-0.00167436 0.000780766 -0.00100737)
(-0.0017845 0.000478155 -0.00100737)
(-0.00184042 0.000161016 -0.00100737)
(-0.00184042 -0.000161016 -0.00100737)
(-0.0017845 -0.000478155 -0.00100737)
(-0.00167436 -0.000780766 -0.00100737)
(-0.00151334 -0.00105965 -0.00100737)
(-0.00130634 -0.00130634 -0.00100737)
(-0.00105965 -0.00151334 -0.00100737)
(-0.000780766 -0.00167436 -0.00100737)
(-0.000478155 -0.0017845 -0.00100737)
(-0.000161016 -0.00184042 -0.00100737)
(0.000161016 -0.00184042 -0.00100737)
(0.000478155 -0.0017845 -0.00100737)
(0.000780766 -0.00167436 -0.00100737)
(0.00105965 -0.00151334 -0.00100737)
(0.00130634 -0.00130634 -0.00100737)
(0.00151334 -0.00105965 -0.00100737)
(0.00167436 -0.000780766 -0.00100737)
(0.0017845 -0.000478155 -0.00100737)
(0.00184042 -0.000161016 -0.00100737)
(0.00218035 0.000190755 -0.00104574)
(0.0021141 0.00056647 -0.00104574)
(0.00198361 0.000924973 -0.00104574)
(0.00179286 0.00125537 -0.00104574)
(0.00154762 0.00154762 -0.00104574)
(0.00125537 0.00179286 -0.00104574)
(0.000924973 0.00198361 -0.00104574)
(0.00056647 0.0021141 -0.00104574)
(0.000190755 0.00218035 -0.00104574)
(-0.000190755 0.00218035 -0.00104574)
(-0.00056647 0.0021141 -0.00104574)
(-0.000924973 0.00198361 -0.00104574)
(-0.00125537 0.00179286 -0.00104574)
(-0.00154762 0.00154762 -0.00104574)
(-0.00179286 0.00125537 -0.00104574)
(-0.00198361 0.000924973 -0.00104574)
(-0.0021141 0.00056647 -0.00104574)
(-0.00218035 0.000190755 -0.00104574)
(-0.00218035 -0.000190755 -0.00104574)
(-0.0021141 -0.00056647 -0.00104574)
(-0.00198361 -0.000924973 -0.00104574)
(-0.00179286 -0.00125537 -0.00104574)
(-0.00154762 -0.00154762 -0.00104574)
(-0.00125537 -0.00179286 -0.00104574)
(-0.000924973 -0.00198361 -0.00104574)
(-0.00056647 -0.0021141 -0.00104574)
(-0.000190755 -0.00218035 -0.00104574)
(0.000190755 -0.00218035 -0.00104574)
(0.00056647 -0.0021141 -0.00104574)
(0.000924973 -0.00198361 -0.00104574)
(0.00125537 -0.00179286 -0.00104574)
(0.00154762 -0.00154762 -0.00104574)
(0.00179286 -0.00125537 -0.00104574)
(0.00198361 -0.000924973 -0.00104574)
(0.0021141 -0.00056647 -0.00104574)
(0.00218035 -0.000190755 -0.00104574)
(0.00180327 0.000157766 -0.00132888)
(0.00174848 0.000468504 -0.00132888)
(0.00164056 0.000765007 -0.00132888)
(0.0014828 0.00103826 -0.00132888)
(0.00127998 0.00127998 -0.00132888)
(0.00103826 0.0014828 -0.00132888)
(0.000765007 0.00164056 -0.00132888)
(0.000468504 0.00174848 -0.00132888)
(0.000157766 0.00180327 -0.00132888)
(-0.000157766 0.00180327 -0.00132888)
(-0.000468504 0.00174848 -0.00132888)
(-0.000765007 0.00164056 -0.00132888)
(-0.00103826 0.0014828 -0.00132888)
(-0.00127998 0.00127998 -0.00132888)
(-0.0014828 0.00103826 -0.00132888)
(-0.00164056 0.000765007 -0.00132888)
(-0.00174848 0.000468504 -0.00132888)
(-0.00180327 0.000157766 -0.00132888)
(-0.00180327 -0.000157766 -0.00132888)
(-0.00174848 -0.000468504 -0.00132888)
(-0.00164056 -0.000765007 -0.00132888)
(-0.0014828 -0.00103826 -0.00132888)
(-0.00127998 -0.00127998 -0.00132888)
(-0.00103826 -0.0014828 -0.00132888)
(-0.000765007 -0.00164056 -0.00132888)
(-0.000468504 -0.00174848 -0.00132888)
(-0.000157766 -0.00180327 -0.00132888)
(0.000157766 -0.00180327 -0.00132888)
(0.000468504 -0.00174848 -0.00132888)
(0.000765007 -0.00164056 -0.00132888)
(0.00103826 -0.0014828 -0.00132888)
(0.00127998 -0.00127998 -0.00132888)
(0.0014828 -0.00103826 -0.00132888)
(0.00164056 -0.000765007 -0.00132888)
(0.00174848 -0.000468504 -0.00132888)
(0.00180327 -0.000157766 -0.00132888)
(0.00209824 0.000183572 -0.00138555)
(0.00203448 0.000545138 -0.00138555)
(0.00190891 0.00089014 -0.00138555)
(0.00172534 0.0012081 -0.00138555)
(0.00148934 0.00148934 -0.00138555)
(0.0012081 0.00172534 -0.00138555)
(0.00089014 0.00190891 -0.00138555)
(0.000545138 0.00203448 -0.00138555)
(0.000183572 0.00209824 -0.00138555)
(-0.000183572 0.00209824 -0.00138555)
(-0.000545138 0.00203448 -0.00138555)
(-0.00089014 0.00190891 -0.00138555)
(-0.0012081 0.00172534 -0.00138555)
(-0.00148934 0.00148934 -0.00138555)
(-0.00172534 0.0012081 -0.00138555)
(-0.00190891 0.00089014 -0.00138555)
(-0.00203448 0.000545138 -0.00138555)
(-0.00209824 0.000183572 -0.00138555)
(-0.00209824 -0.000183572 -0.00138555)
(-0.00203448 -0.000545138 -0.00138555)
(-0.00190891 -0.00089014 -0.00138555)
(-0.00172534 -0.0012081 -0.00138555)
(-0.00148934 -0.00148934 -0.00138555)
(-0.0012081 -0.00172534 -0.00138555)
(-0.00089014 -0.00190891 -0.00138555)
(-0.000545138 -0.00203448 -0.00138555)
(-0.000183572 -0.00209824 -0.00138555)
(0.000183572 -0.00209824 -0.00138555)
(0.000545138 -0.00203448 -0.00138555)
(0.00089014 -0.00190891 -0.00138555)
(0.0012081 -0.00172534 -0.00138555)
(0.00148934 -0.00148934 -0.00138555)
(0.00172534 -0.0012081 -0.00138555)
(0.00190891 -0.00089014 -0.00138555)
(0.00203448 -0.000545138 -0.00138555)
(0.00209824 -0.000183572 -0.00138555)
(0.00245683 0.000214945 -0.00143923)
(0.00238218 0.000638305 -0.00143923)
(0.00223515 0.00104227 -0.00143923)
(0.00202021 0.00141457 -0.00143923)
(0.00174388 0.00174388 -0.00143923)
(0.00141457 0.00202021 -0.00143923)
(0.00104227 0.00223515 -0.00143923)
(0.000638305 0.00238218 -0.00143923)
(0.000214945 0.00245683 -0.00143923)
(-0.000214945 0.00245683 -0.00143923)
(-0.000638305 0.00238218 -0.00143923)
(-0.00104227 0.00223515 -0.00143923)
(-0.00141457 0.00202021 -0.00143923)
(-0.00174388 0.00174388 -0.00143923)
(-0.00202021 0.00141457 -0.00143923)
(-0.00223515 0.00104227 -0.00143923)
(-0.00238218 0.000638305 -0.00143923)
(-0.00245683 0.000214945 -0.00143923)
(-0.00245683 -0.000214945 -0.00143923)
(-0.00238218 -0.000638305 -0.00143923)
(-0.00223515 -0.00104227 -0.00143923)
(-0.00202021 -0.00141457 -0.00143923)
(-0.00174388 -0.00174388 -0.00143923)
(-0.00141457 -0.00202021 -0.00143923)
(-0.00104227 -0.00223515 -0.00143923)
(-0.000638305 -0.00238218 -0.00143923)
(-0.000214945 -0.00245683 -0.00143923)
(0.000214945 -0.00245683 -0.00143923)
(0.000638305 -0.00238218 -0.00143923)
(0.00104227 -0.00223515 -0.00143923)
(0.00141457 -0.00202021 -0.00143923)
(0.00174388 -0.00174388 -0.00143923)
(0.00202021 -0.00141457 -0.00143923)
(0.00223515 -0.00104227 -0.00143923)
(0.00238218 -0.000638305 -0.00143923)
(0.00245683 -0.000214945 -0.00143923)
(0.00191157 0.000167241 -0.00168951)
(0.00185349 0.000496641 -0.00168951)
(0.00173909 0.000810951 -0.00168951)
(0.00157185 0.00110062 -0.00168951)
(0.00135685 0.00135685 -0.00168951)
(0.00110062 0.00157185 -0.00168951)
(0.000810951 0.00173909 -0.00168951)
(0.000496641 0.00185349 -0.00168951)
(0.000167241 0.00191157 -0.00168951)
(-0.000167241 0.00191157 -0.00168951)
(-0.000496641 0.00185349 -0.00168951)
(-0.000810951 0.00173909 -0.00168951)
(-0.00110062 0.00157185 -0.00168951)
(-0.00135685 0.00135685 -0.00168951)
(-0.00157185 0.00110062 -0.00168951)
(-0.00173909 0.000810951 -0.00168951)
(-0.00185349 0.000496641 -0.00168951)
(-0.00191157 0.000167241 -0.00168951)
(-0.00191157 -0.000167241 -0.00168951)
(-0.00185349 -0.000496641 -0.00168951)
(-0.00173909 -0.000810951 -0.00168951)
(-0.00157185 -0.00110062 -0.00168951)
(-0.00135685 -0.00135685 -0.00168951)
(-0.00110062 -0.00157185 -0.00168951)
(-0.000810951 -0.00173909 -0.00168951)
(-0.000496641 -0.00185349 -0.00168951)
(-0.000167241 -0.00191157 -0.00168951)
(0.000167241 -0.00191157 -0.00168951)
(0.000496641 -0.00185349 -0.00168951)
(0.000810951 -0.00173909 -0.00168951)
(0.00110062 -0.00157185 -0.00168951)
(0.00135685 -0.00135685 -0.00168951)
(0.00157185 -0.00110062 -0.00168951)
(0.00173909 -0.000810951 -0.00168951)
(0.00185349 -0.000496641 -0.00168951)
(0.00191157 -0.000167241 -0.00168951)
(0.00220799 0.000193174 -0.00175757)
(0.0021409 0.000573654 -0.00175757)
(0.00200876 0.000936703 -0.00175757)
(0.00181559 0.00127129 -0.00175757)
(0.00156725 0.00156725 -0.00175757)
(0.00127129 0.00181559 -0.00175757)
(0.000936703 0.00200876 -0.00175757)
(0.000573654 0.0021409 -0.00175757)
(0.000193174 0.00220799 -0.00175757)
(-0.000193174 0.00220799 -0.00175757)
(-0.000573654 0.0021409 -0.00175757)
(-0.000936703 0.00200876 -0.00175757)
(-0.00127129 0.00181559 -0.00175757)
(-0.00156725 0.00156725 -0.00175757)
(-0.00181559 0.00127129 -0.00175757)
(-0.00200876 0.000936703 -0.00175757)
(-0.0021409 0.000573654 -0.00175757)
(-0.00220799 0.000193174 -0.00175757)
(-0.00220799 -0.000193174 -0.00175757)
(-0.0021409 -0.000573654 -0.00175757)
(-0.00200876 -0.000936703 -0.00175757)
(-0.00181559 -0.00127129 -0.00175757)
(-0.00156725 -0.00156725 -0.00175757)
(-0.00127129 -0.00181559 -0.00175757)
(-0.000936703 -0.00200876 -0.00175757)
(-0.000573654 -0.0021409 -0.00175757)
(-0.000193174 -0.00220799 -0.00175757)
(0.000193174 -0.00220799 -0.00175757)
(0.000573654 -0.0021409 -0.00175757)
(0.000936703 -0.00200876 -0.00175757)
(0.00127129 -0.00181559 -0.00175757)
(0.00156725 -0.00156725 -0.00175757)
(0.00181559 -0.00127129 -0.00175757)
(0.00200876 -0.000936703 -0.00175757)
(0.0021409 -0.000573654 -0.00175757)
(0.00220799 -0.000193174 -0.00175757)
(0.00257218 0.000225037 -0.00182977)
(0.00249403 0.000668273 -0.00182977)
(0.00234009 0.0010912 -0.00182977)
(0.00211506 0.00148098 -0.00182977)
(0.00182576 0.00182576 -0.00182977)
(0.00148098 0.00211506 -0.00182977)
(0.0010912 0.00234009 -0.00182977)
(0.000668273 0.00249403 -0.00182977)
(0.000225037 0.00257218 -0.00182977)
(-0.000225037 0.00257218 -0.00182977)
(-0.000668273 0.00249403 -0.00182977)
(-0.0010912 0.00234009 -0.00182977)
(-0.00148098 0.00211506 -0.00182977)
(-0.00182576 0.00182576 -0.00182977)
(-0.00211506 0.00148098 -0.00182977)
(-0.00234009 0.0010912 -0.00182977)
(-0.00249403 0.000668273 -0.00182977)
(-0.00257218 0.000225037 -0.00182977)
(-0.00257218 -0.000225037 -0.00182977)
(-0.00249403 -0.000668273 -0.00182977)
(-0.00234009 -0.0010912 -0.00182977)
(-0.00211506 -0.00148098 -0.00182977)
(-0.00182576 -0.00182576 -0.00182977)
(-0.00148098 -0.00211506 -0.00182977)
(-0.0010912 -0.00234009 -0.00182977)
(-0.000668273 -0.00249403 -0.00182977)
(-0.000225037 -0.00257218 -0.00182977)
(0.000225037 -0.00257218 -0.00182977)
(0.000668273 -0.00249403 -0.00182977)
(0.0010912 -0.00234009 -0.00182977)
(0.00148098 -0.00211506 -0.00182977)
(0.00182576 -0.00182576 -0.00182977)
(0.00211506 -0.00148098 -0.00182977)
(0.00234009 -0.0010912 -0.00182977)
(0.00249403 -0.000668273 -0.00182977)
(0.00257218 -0.000225037 -0.00182977)
(0.00189199 0.000165528 -0.00202118)
(0.0018345 0.000491554 -0.00202118)
(0.00172127 0.000802644 -0.00202118)
(0.00155575 0.00108935 -0.00202118)
(0.00134295 0.00134295 -0.00202118)
(0.00108935 0.00155575 -0.00202118)
(0.000802644 0.00172127 -0.00202118)
(0.000491554 0.0018345 -0.00202118)
(0.000165528 0.00189199 -0.00202118)
(-0.000165528 0.00189199 -0.00202118)
(-0.000491554 0.0018345 -0.00202118)
(-0.000802644 0.00172127 -0.00202118)
(-0.00108935 0.00155575 -0.00202118)
(-0.00134295 0.00134295 -0.00202118)
(-0.00155575 0.00108935 -0.00202118)
(-0.00172127 0.000802644 -0.00202118)
(-0.0018345 0.000491554 -0.00202118)
(-0.00189199 0.000165528 -0.00202118)
(-0.00189199 -0.000165528 -0.00202118)
(-0.0018345 -0.000491554 -0.00202118)
(-0.00172127 -0.000802644 -0.00202118)
(-0.00155575 -0.00108935 -0.00202118)
(-0.00134295 -0.00134295 -0.00202118)
(-0.00108935 -0.00155575 -0.00202118)
(-0.000802644 -0.00172127 -0.00202118)
(-0.000491554 -0.0018345 -0.00202118)
(-0.000165528 -0.00189199 -0.00202118)
(0.000165528 -0.00189199 -0.00202118)
(0.000491554 -0.0018345 -0.00202118)
(0.000802644 -0.00172127 -0.00202118)
(0.00108935 -0.00155575 -0.00202118)
(0.00134295 -0.00134295 -0.00202118)
(0.00155575 -0.00108935 -0.00202118)
(0.00172127 -0.000802644 -0.00202118)
(0.0018345 -0.000491554 -0.00202118)
(0.00189199 -0.000165528 -0.00202118)
(0.00218131 0.00019084 -0.00210206)
(0.00211503 0.000566722 -0.00210206)
(0.00198449 0.000925383 -0.00210206)
(0.00179365 0.00125593 -0.00210206)
(0.00154831 0.00154831 -0.00210206)
(0.00125593 0.00179365 -0.00210206)
(0.000925383 0.00198449 -0.00210206)
(0.000566722 0.00211503 -0.00210206)
(0.00019084 0.00218131 -0.00210206)
(-0.00019084 0.00218131 -0.00210206)
(-0.000566722 0.00211503 -0.00210206)
(-0.000925383 0.00198449 -0.00210206)
(-0.00125593 0.00179365 -0.00210206)
(-0.00154831 0.00154831 -0.00210206)
(-0.00179365 0.00125593 -0.00210206)
(-0.00198449 0.000925383 -0.00210206)
(-0.00211503 0.000566722 -0.00210206)
(-0.00218131 0.00019084 -0.00210206)
(-0.00218131 -0.00019084 -0.00210206)
(-0.00211503 -0.000566722 -0.00210206)
(-0.00198449 -0.000925383 -0.00210206)
(-0.00179365 -0.00125593 -0.00210206)
(-0.00154831 -0.00154831 -0.00210206)
(-0.00125593 -0.00179365 -0.00210206)
(-0.000925383 -0.00198449 -0.00210206)
(-0.000566722 -0.00211503 -0.00210206)
(-0.00019084 -0.00218131 -0.00210206)
(0.00019084 -0.00218131 -0.00210206)
(0.000566722 -0.00211503 -0.00210206)
(0.000925383 -0.00198449 -0.00210206)
(0.00125593 -0.00179365 -0.00210206)
(0.00154831 -0.00154831 -0.00210206)
(0.00179365 -0.00125593 -0.00210206)
(0.00198449 -0.000925383 -0.00210206)
(0.00211503 -0.000566722 -0.00210206)
(0.00218131 -0.00019084 -0.00210206)
(0.00254132 0.000222338 -0.002195)
(0.00246411 0.000660256 -0.002195)
(0.00231202 0.00107811 -0.002195)
(0.00208968 0.00146321 -0.002195)
(0.00180385 0.00180385 -0.002195)
(0.00146321 0.00208968 -0.002195)
(0.00107811 0.00231202 -0.002195)
(0.000660256 0.00246411 -0.002195)
(0.000222338 0.00254132 -0.002195)
(-0.000222338 0.00254132 -0.002195)
(-0.000660256 0.00246411 -0.002195)
(-0.00107811 0.00231202 -0.002195)
(-0.00146321 0.00208968 -0.002195)
(-0.00180385 0.00180385 -0.002195)
(-0.00208968 0.00146321 -0.002195)
(-0.00231202 0.00107811 -0.002195)
(-0.00246411 0.000660256 -0.002195)
(-0.00254132 0.000222338 -0.002195)
(-0.00254132 -0.000222338 -0.002195)
(-0.00246411 -0.000660256 -0.002195)
(-0.00231202 -0.00107811 -0.002195)
(-0.00208968 -0.00146321 -0.002195)
(-0.00180385 -0.00180385 -0.002195)
(-0.00146321 -0.00208968 -0.002195)
(-0.00107811 -0.00231202 -0.002195)
(-0.000660256 -0.00246411 -0.002195)
(-0.000222338 -0.00254132 -0.002195)
(0.000222338 -0.00254132 -0.002195)
(0.000660256 -0.00246411 -0.002195)
(0.00107811 -0.00231202 -0.002195)
(0.00146321 -0.00208968 -0.002195)
(0.00180385 -0.00180385 -0.002195)
(0.00208968 -0.00146321 -0.002195)
(0.00231202 -0.00107811 -0.002195)
(0.00246411 -0.000660256 -0.002195)
(0.00254132 -0.000222338 -0.002195)
(0.00176237 0.000154188 -0.00230757)
(0.00170883 0.000457879 -0.00230757)
(0.00160335 0.000747657 -0.00230757)
(0.00144917 0.00101472 -0.00230757)
(0.00125095 0.00125095 -0.00230757)
(0.00101472 0.00144917 -0.00230757)
(0.000747657 0.00160335 -0.00230757)
(0.000457879 0.00170883 -0.00230757)
(0.000154188 0.00176237 -0.00230757)