/*--------------------------------*- C++ -*----------------------------------*\
| =========                 |                                                 |
| \\      /  F ield         | OpenFOAM: The Open Source CFD Toolbox           |
|  \\    /   O peration     | Version:  2312                                  |
|   \\  /    A nd           | Website:  www.openfoam.com                      |
|    \\/     M anipulation  |                                                 |
\*---------------------------------------------------------------------------*/
FoamFile
{
    version     2.0;
    format      ascii;
    arch        "LSB;label=32;scalar=64";
    class       volVectorField;
    location    "0.5";
    object      D_0_0;
}
// * * * * * * * * * * * * * * * * * * * * * * * * * * * * * * * * * * * * * //

dimensions      [0 1 0 0 0 0 0];

internalField   nonuniform List<vector> 
1620
(
(0.000191007 1.67109e-05 -9.49775e-05)
(0.000185203 4.9625e-05 -9.49775e-05)
(0.000173772 8.10311e-05 -9.49776e-05)
(0.000157061 0.000109975 -9.49778e-05)
(0.000135578 0.000135578 -9.49779e-05)
(0.000109975 0.000157061 -9.49778e-05)
(8.10311e-05 0.000173772 -9.49776e-05)
(4.9625e-05 0.000185203 -9.49775e-05)
(1.67109e-05 0.000191007 -9.49775e-05)
(-1.67109e-05 0.000191007 -9.49775e-05)
(-4.9625e-05 0.000185203 -9.49775e-05)
(-8.10311e-05 0.000173772 -9.49776e-05)
(-0.000109975 0.000157061 -9.49778e-05)
(-0.000135578 0.000135578 -9.49779e-05)
(-0.000157061 0.000109975 -9.49778e-05)
(-0.000173772 8.10311e-05 -9.49776e-05)
(-0.000185203 4.9625e-05 -9.49775e-05)
(-0.000191007 1.67109e-05 -9.49775e-05)
(-0.000191007 -1.67109e-05 -9.49775e-05)
(-0.000185203 -4.9625e-05 -9.49775e-05)
(-0.000173772 -8.10311e-05 -9.49776e-05)
(-0.000157061 -0.000109975 -9.49778e-05)
(-0.000135578 -0.000135578 -9.49779e-05)
(-0.000109975 -0.000157061 -9.49778e-05)
(-8.10311e-05 -0.000173772 -9.49776e-05)
(-4.9625e-05 -0.000185203 -9.49775e-05)
(-1.67109e-05 -0.000191007 -9.49775e-05)
(1.67109e-05 -0.000191007 -9.49775e-05)
(4.9625e-05 -0.000185203 -9.49775e-05)
(8.10311e-05 -0.000173772 -9.49776e-05)
(0.000109975 -0.000157061 -9.49778e-05)
(0.000135578 -0.000135578 -9.49779e-05)
(0.000157061 -0.000109975 -9.49778e-05)
(0.000173772 -8.10311e-05 -9.49776e-05)
(0.000185203 -4.9625e-05 -9.49775e-05)
(0.000191007 -1.67109e-05 -9.49775e-05)
(0.000296601 2.59491e-05 -9.31557e-05)
(0.000287589 7.70589e-05 -9.31558e-05)
(0.000269838 0.000125827 -9.31559e-05)
(0.000243889 0.000170772 -9.31559e-05)
(0.000210529 0.000210529 -9.3156e-05)
(0.000170772 0.000243889 -9.31559e-05)
(0.000125827 0.000269838 -9.31559e-05)
(7.70589e-05 0.000287589 -9.31558e-05)
(2.59491e-05 0.000296601 -9.31557e-05)
(-2.59491e-05 0.000296601 -9.31557e-05)
(-7.70589e-05 0.000287589 -9.31558e-05)
(-0.000125827 0.000269838 -9.31559e-05)
(-0.000170772 0.000243889 -9.31559e-05)
(-0.000210529 0.000210529 -9.3156e-05)
(-0.000243889 0.000170772 -9.31559e-05)
(-0.000269838 0.000125827 -9.31559e-05)
(-0.000287589 7.70589e-05 -9.31558e-05)
(-0.000296601 2.59491e-05 -9.31557e-05)
(-0.000296601 -2.59491e-05 -9.31557e-05)
(-0.000287589 -7.70589e-05 -9.31558e-05)
(-0.000269838 -0.000125827 -9.31559e-05)
(-0.000243889 -0.000170772 -9.31559e-05)
(-0.000210529 -0.000210529 -9.3156e-05)
(-0.000170772 -0.000243889 -9.31559e-05)
(-0.000125827 -0.000269838 -9.31559e-05)
(-7.70589e-05 -0.000287589 -9.31558e-05)
(-2.59491e-05 -0.000296601 -9.31557e-05)
(2.59491e-05 -0.000296601 -9.31557e-05)
(7.70589e-05 -0.000287589 -9.31558e-05)
(0.000125827 -0.000269838 -9.31559e-05)
(0.000170772 -0.000243889 -9.31559e-05)
(0.000210529 -0.000210529 -9.3156e-05)
(0.000243889 -0.000170772 -9.31559e-05)
(0.000269838 -0.000125827 -9.31559e-05)
(0.000287589 -7.70589e-05 -9.31558e-05)
(0.000296601 -2.59491e-05 -9.31557e-05)
(0.000434725 3.80334e-05 -7.94011e-05)
(0.000421516 0.000112944 -7.94013e-05)
(0.0003955 0.000184424 -7.94014e-05)
(0.000357466 0.0002503 -7.94012e-05)
(0.000308571 0.000308571 -7.94014e-05)
(0.0002503 0.000357466 -7.94012e-05)
(0.000184424 0.0003955 -7.94014e-05)
(0.000112944 0.000421516 -7.94013e-05)
(3.80334e-05 0.000434725 -7.94011e-05)
(-3.80334e-05 0.000434725 -7.94011e-05)
(-0.000112944 0.000421516 -7.94013e-05)
(-0.000184424 0.0003955 -7.94014e-05)
(-0.0002503 0.000357466 -7.94012e-05)
(-0.000308571 0.000308571 -7.94014e-05)
(-0.000357466 0.0002503 -7.94012e-05)
(-0.0003955 0.000184424 -7.94014e-05)
(-0.000421516 0.000112944 -7.94013e-05)
(-0.000434725 3.80334e-05 -7.94011e-05)
(-0.000434725 -3.80334e-05 -7.94011e-05)
(-0.000421516 -0.000112944 -7.94013e-05)
(-0.0003955 -0.000184424 -7.94014e-05)
(-0.000357466 -0.0002503 -7.94012e-05)
(-0.000308571 -0.000308571 -7.94014e-05)
(-0.0002503 -0.000357466 -7.94012e-05)
(-0.000184424 -0.0003955 -7.94014e-05)
(-0.000112944 -0.000421516 -7.94013e-05)
(-3.80334e-05 -0.000434725 -7.94011e-05)
(3.80334e-05 -0.000434725 -7.94011e-05)
(0.000112944 -0.000421516 -7.94013e-05)
(0.000184424 -0.0003955 -7.94014e-05)
(0.0002503 -0.000357466 -7.94012e-05)
(0.000308571 -0.000308571 -7.94014e-05)
(0.000357466 -0.0002503 -7.94012e-05)
(0.0003955 -0.000184424 -7.94014e-05)
(0.000421516 -0.000112944 -7.94013e-05)
(0.000434725 -3.80334e-05 -7.94011e-05)
(0.000689734 6.03439e-05 -0.000296585)
(0.000668777 0.000179198 -0.000296585)
(0.000627499 0.000292607 -0.000296585)
(0.000567154 0.000397125 -0.000296586)
(0.000489577 0.000489577 -0.000296586)
(0.000397125 0.000567154 -0.000296586)
(0.000292607 0.000627499 -0.000296585)
(0.000179198 0.000668777 -0.000296585)
(6.03439e-05 0.000689734 -0.000296585)
(-6.03439e-05 0.000689734 -0.000296585)
(-0.000179198 0.000668777 -0.000296585)
(-0.000292607 0.000627499 -0.000296585)
(-0.000397125 0.000567154 -0.000296586)
(-0.000489577 0.000489577 -0.000296586)
(-0.000567154 0.000397125 -0.000296586)
(-0.000627499 0.000292607 -0.000296585)
(-0.000668777 0.000179198 -0.000296585)
(-0.000689734 6.03439e-05 -0.000296585)
(-0.000689734 -6.03439e-05 -0.000296585)
(-0.000668777 -0.000179198 -0.000296585)
(-0.000627499 -0.000292607 -0.000296585)
(-0.000567154 -0.000397125 -0.000296586)
(-0.000489577 -0.000489577 -0.000296586)
(-0.000397125 -0.000567154 -0.000296586)
(-0.000292607 -0.000627499 -0.000296585)
(-0.000179198 -0.000668777 -0.000296585)
(-6.03439e-05 -0.000689734 -0.000296585)
(6.03439e-05 -0.000689734 -0.000296585)
(0.000179198 -0.000668777 -0.000296585)
(0.000292607 -0.000627499 -0.000296585)
(0.000397125 -0.000567154 -0.000296586)
(0.000489577 -0.000489577 -0.000296586)
(0.000567154 -0.000397125 -0.000296586)
(0.000627499 -0.000292607 -0.000296585)
(0.000668777 -0.000179198 -0.000296585)
(0.000689734 -6.03439e-05 -0.000296585)
(0.000875591 7.66042e-05 -0.000321481)
(0.000848987 0.000227485 -0.000321481)
(0.000796586 0.000371454 -0.000321481)
(0.000719982 0.000504136 -0.000321482)
(0.000621501 0.000621501 -0.000321482)
(0.000504136 0.000719982 -0.000321482)
(0.000371454 0.000796586 -0.000321481)
(0.000227485 0.000848987 -0.000321481)
(7.66042e-05 0.000875591 -0.000321481)
(-7.66042e-05 0.000875591 -0.000321481)
(-0.000227485 0.000848987 -0.000321481)
(-0.000371454 0.000796586 -0.000321481)
(-0.000504136 0.000719982 -0.000321482)
(-0.000621501 0.000621501 -0.000321482)
(-0.000719982 0.000504136 -0.000321482)
(-0.000796586 0.000371454 -0.000321481)
(-0.000848987 0.000227485 -0.000321481)
(-0.000875591 7.66042e-05 -0.000321481)
(-0.000875591 -7.66042e-05 -0.000321481)
(-0.000848987 -0.000227485 -0.000321481)
(-0.000796586 -0.000371454 -0.000321481)
(-0.000719982 -0.000504136 -0.000321482)
(-0.000621501 -0.000621501 -0.000321482)
(-0.000504136 -0.000719982 -0.000321482)
(-0.000371454 -0.000796586 -0.000321481)
(-0.000227485 -0.000848987 -0.000321481)
(-7.66042e-05 -0.000875591 -0.000321481)
(7.66042e-05 -0.000875591 -0.000321481)
(0.000227485 -0.000848987 -0.000321481)
(0.000371454 -0.000796586 -0.000321481)
(0.000504136 -0.000719982 -0.000321482)
(0.000621501 -0.000621501 -0.000321482)
(0.000719982 -0.000504136 -0.000321482)
(0.000796586 -0.000371454 -0.000321481)
(0.000848987 -0.000227485 -0.000321481)
(0.000875591 -7.66042e-05 -0.000321481)
(0.00110842 9.69744e-05 -0.000332652)
(0.00107474 0.000287976 -0.000332652)
(0.00100841 0.000470228 -0.000332652)
(0.000911434 0.000638192 -0.000332651)
(0.000786766 0.000786766 -0.000332651)
(0.000638192 0.000911434 -0.000332651)
(0.000470228 0.00100841 -0.000332652)
(0.000287976 0.00107474 -0.000332652)
(9.69744e-05 0.00110842 -0.000332652)
(-9.69744e-05 0.00110842 -0.000332652)
(-0.000287976 0.00107474 -0.000332652)
(-0.000470228 0.00100841 -0.000332652)
(-0.000638192 0.000911434 -0.000332651)
(-0.000786766 0.000786766 -0.000332651)
(-0.000911434 0.000638192 -0.000332651)
(-0.00100841 0.000470228 -0.000332652)
(-0.00107474 0.000287976 -0.000332652)
(-0.00110842 9.69744e-05 -0.000332652)
(-0.00110842 -9.69744e-05 -0.000332652)
(-0.00107474 -0.000287976 -0.000332652)
(-0.00100841 -0.000470228 -0.000332652)
(-0.000911434 -0.000638192 -0.000332651)
(-0.000786766 -0.000786766 -0.000332651)
(-0.000638192 -0.000911434 -0.000332651)
(-0.000470228 -0.00100841 -0.000332652)
(-0.000287976 -0.00107474 -0.000332652)
(-9.69744e-05 -0.00110842 -0.000332652)
(9.69744e-05 -0.00110842 -0.000332652)
(0.000287976 -0.00107474 -0.000332652)
(0.000470228 -0.00100841 -0.000332652)
(0.000638192 -0.000911434 -0.000332651)
(0.000786766 -0.000786766 -0.000332651)
(0.000911434 -0.000638192 -0.000332651)
(0.00100841 -0.000470228 -0.000332652)
(0.00107474 -0.000287976 -0.000332652)
(0.00110842 -9.69744e-05 -0.000332652)
(0.00114273 9.99753e-05 -0.000583644)
(0.001108 0.000296888 -0.000583644)
(0.00103962 0.000484781 -0.000583645)
(0.00093964 0.000657943 -0.000583645)
(0.000811114 0.000811114 -0.000583645)
(0.000657943 0.00093964 -0.000583645)
(0.000484781 0.00103962 -0.000583645)
(0.000296888 0.001108 -0.000583644)
(9.99753e-05 0.00114273 -0.000583644)
(-9.99753e-05 0.00114273 -0.000583644)
(-0.000296888 0.001108 -0.000583644)
(-0.000484781 0.00103962 -0.000583645)
(-0.000657943 0.00093964 -0.000583645)
(-0.000811114 0.000811114 -0.000583645)
(-0.00093964 0.000657943 -0.000583645)
(-0.00103962 0.000484781 -0.000583645)
(-0.001108 0.000296888 -0.000583644)
(-0.00114273 9.99753e-05 -0.000583644)
(-0.00114273 -9.99753e-05 -0.000583644)
(-0.001108 -0.000296888 -0.000583644)
(-0.00103962 -0.000484781 -0.000583645)
(-0.00093964 -0.000657943 -0.000583645)
(-0.000811114 -0.000811114 -0.000583645)
(-0.000657943 -0.00093964 -0.000583645)
(-0.000484781 -0.00103962 -0.000583645)
(-0.000296888 -0.001108 -0.000583644)
(-9.99753e-05 -0.00114273 -0.000583644)
(9.99753e-05 -0.00114273 -0.000583644)
(0.000296888 -0.001108 -0.000583644)
(0.000484781 -0.00103962 -0.000583645)
(0.000657943 -0.00093964 -0.000583645)
(0.000811114 -0.000811114 -0.000583645)
(0.00093964 -0.000657943 -0.000583645)
(0.00103962 -0.000484781 -0.000583645)
(0.001108 -0.000296888 -0.000583644)
(0.00114273 -9.99753e-05 -0.000583644)
(0.00138492 0.000121165 -0.000622809)
(0.00134284 0.000359812 -0.000622809)
(0.00125996 0.000587527 -0.000622809)
(0.00113879 0.000797389 -0.000622809)
(0.000983025 0.000983025 -0.000622809)
(0.000797389 0.00113879 -0.000622809)
(0.000587527 0.00125996 -0.000622809)
(0.000359812 0.00134284 -0.000622809)
(0.000121165 0.00138492 -0.000622809)
(-0.000121165 0.00138492 -0.000622809)
(-0.000359812 0.00134284 -0.000622809)
(-0.000587527 0.00125996 -0.000622809)
(-0.000797389 0.00113879 -0.000622809)
(-0.000983025 0.000983025 -0.000622809)
(-0.00113879 0.000797389 -0.000622809)
(-0.00125996 0.000587527 -0.000622809)
(-0.00134284 0.000359812 -0.000622809)
(-0.00138492 0.000121165 -0.000622809)
(-0.00138492 -0.000121165 -0.000622809)
(-0.00134284 -0.000359812 -0.000622809)
(-0.00125996 -0.000587527 -0.000622809)
(-0.00113879 -0.000797389 -0.000622809)
(-0.000983025 -0.000983025 -0.000622809)
(-0.000797389 -0.00113879 -0.000622809)
(-0.000587527 -0.00125996 -0.000622809)
(-0.000359812 -0.00134284 -0.000622809)
(-0.000121165 -0.00138492 -0.000622809)
(0.000121165 -0.00138492 -0.000622809)
(0.000359812 -0.00134284 -0.000622809)
(0.000587527 -0.00125996 -0.000622809)
(0.000797389 -0.00113879 -0.000622809)
(0.000983025 -0.000983025 -0.000622809)
(0.00113879 -0.000797389 -0.000622809)
(0.00125996 -0.000587527 -0.000622809)
(0.00134284 -0.000359812 -0.000622809)
(0.00138492 -0.000121165 -0.000622809)
(0.0016799 0.000146973 -0.000649713)
(0.00162886 0.000436451 -0.000649712)
(0.00152832 0.000712668 -0.000649713)
(0.00138135 0.000967232 -0.000649713)
(0.00119241 0.00119241 -0.000649713)
(0.000967232 0.00138135 -0.000649713)
(0.000712668 0.00152832 -0.000649713)
(0.000436451 0.00162886 -0.000649712)
(0.000146973 0.0016799 -0.000649713)
(-0.000146973 0.0016799 -0.000649713)
(-0.000436451 0.00162886 -0.000649712)
(-0.000712668 0.00152832 -0.000649713)
(-0.000967232 0.00138135 -0.000649713)
(-0.00119241 0.00119241 -0.000649713)
(-0.00138135 0.000967232 -0.000649713)
(-0.00152832 0.000712668 -0.000649713)
(-0.00162886 0.000436451 -0.000649712)
(-0.0016799 0.000146973 -0.000649713)
(-0.0016799 -0.000146973 -0.000649713)
(-0.00162886 -0.000436451 -0.000649712)
(-0.00152832 -0.000712668 -0.000649713)
(-0.00138135 -0.000967232 -0.000649713)
(-0.00119241 -0.00119241 -0.000649713)
(-0.000967232 -0.00138135 -0.000649713)
(-0.000712668 -0.00152832 -0.000649713)
(-0.000436451 -0.00162886 -0.000649712)
(-0.000146973 -0.0016799 -0.000649713)
(0.000146973 -0.0016799 -0.000649713)
(0.000436451 -0.00162886 -0.000649712)
(0.000712668 -0.00152832 -0.000649713)
(0.000967232 -0.00138135 -0.000649713)
(0.00119241 -0.00119241 -0.000649713)
(0.00138135 -0.000967232 -0.000649713)
(0.00152832 -0.000712668 -0.000649713)
(0.00162886 -0.000436451 -0.000649712)
(0.0016799 -0.000146973 -0.000649713)
(0.00150152 0.000131366 -0.000919678)
(0.00145589 0.000390105 -0.000919678)
(0.00136603 0.000636992 -0.000919679)
(0.00123467 0.000864524 -0.000919679)
(0.00106579 0.00106579 -0.000919679)
(0.000864524 0.00123467 -0.000919679)
(0.000636992 0.00136603 -0.000919679)
(0.000390105 0.00145589 -0.000919678)
(0.000131366 0.00150152 -0.000919678)
(-0.000131366 0.00150152 -0.000919678)
(-0.000390105 0.00145589 -0.000919678)
(-0.000636992 0.00136603 -0.000919679)
(-0.000864524 0.00123467 -0.000919679)
(-0.00106579 0.00106579 -0.000919679)
(-0.00123467 0.000864524 -0.000919679)
(-0.00136603 0.000636992 -0.000919679)
(-0.00145589 0.000390105 -0.000919678)
(-0.00150152 0.000131366 -0.000919678)
(-0.00150152 -0.000131366 -0.000919678)
(-0.00145589 -0.000390105 -0.000919678)
(-0.00136603 -0.000636992 -0.000919679)
(-0.00123467 -0.000864524 -0.000919679)
(-0.00106579 -0.00106579 -0.000919679)
(-0.000864524 -0.00123467 -0.000919679)
(-0.000636992 -0.00136603 -0.000919679)
(-0.000390105 -0.00145589 -0.000919678)
(-0.000131366 -0.00150152 -0.000919678)
(0.000131366 -0.00150152 -0.000919678)
(0.000390105 -0.00145589 -0.000919678)
(0.000636992 -0.00136603 -0.000919679)
(0.000864524 -0.00123467 -0.000919679)
(0.00106579 -0.00106579 -0.000919679)
(0.00123467 -0.000864524 -0.000919679)
(0.00136603 -0.000636992 -0.000919679)
(0.00145589 -0.000390105 -0.000919678)
(0.00150152 -0.000131366 -0.000919678)
(0.00177436 0.000155236 -0.000967886)
(0.00172044 0.000460991 -0.000967886)
(0.00161425 0.000752739 -0.000967887)
(0.00145902 0.00102162 -0.000967887)
(0.00125945 0.00125945 -0.000967887)
(0.00102162 0.00145902 -0.000967887)
(0.000752739 0.00161425 -0.000967887)
(0.000460991 0.00172044 -0.000967886)
(0.000155236 0.00177436 -0.000967886)
(-0.000155236 0.00177436 -0.000967886)
(-0.000460991 0.00172044 -0.000967886)
(-0.000752739 0.00161425 -0.000967887)
(-0.00102162 0.00145902 -0.000967887)
(-0.00125945 0.00125945 -0.000967887)
(-0.00145902 0.00102162 -0.000967887)
(-0.00161425 0.000752739 -0.000967887)
(-0.00172044 0.000460991 -0.000967886)
(-0.00177436 0.000155236 -0.000967886)
(-0.00177436 -0.000155236 -0.000967886)
(-0.00172044 -0.000460991 -0.000967886)
(-0.00161425 -0.000752739 -0.000967887)
(-0.00145902 -0.00102162 -0.000967887)
(-0.00125945 -0.00125945 -0.000967887)
(-0.00102162 -0.00145902 -0.000967887)
(-0.000752739 -0.00161425 -0.000967887)
(-0.000460991 -0.00172044 -0.000967886)
(-0.000155236 -0.00177436 -0.000967886)
(0.000155236 -0.00177436 -0.000967886)
(0.000460991 -0.00172044 -0.000967886)
(0.000752739 -0.00161425 -0.000967887)
(0.00102162 -0.00145902 -0.000967887)
(0.00125945 -0.00125945 -0.000967887)
(0.00145902 -0.00102162 -0.000967887)
(0.00161425 -0.000752739 -0.000967887)
(0.00172044 -0.000460991 -0.000967886)
(0.00177436 -0.000155236 -0.000967886)
(0.00210502 0.000184165 -0.00100776)
(0.00204106 0.0005469 -0.00100776)
(0.00191508 0.000893017 -0.00100776)
(0.00173092 0.001212 -0.00100776)
(0.00149416 0.00149416 -0.00100776)
(0.001212 0.00173092 -0.00100776)
(0.000893017 0.00191508 -0.00100776)
(0.0005469 0.00204106 -0.00100776)
(0.000184165 0.00210502 -0.00100776)
(-0.000184165 0.00210502 -0.00100776)
(-0.0005469 0.00204106 -0.00100776)
(-0.000893017 0.00191508 -0.00100776)
(-0.001212 0.00173092 -0.00100776)
(-0.00149416 0.00149416 -0.00100776)
(-0.00173092 0.001212 -0.00100776)
(-0.00191508 0.000893017 -0.00100776)
(-0.00204106 0.0005469 -0.00100776)
(-0.00210502 0.000184165 -0.00100776)
(-0.00210502 -0.000184165 -0.00100776)
(-0.00204106 -0.0005469 -0.00100776)
(-0.00191508 -0.000893017 -0.00100776)
(-0.00173092 -0.001212 -0.00100776)
(-0.00149416 -0.00149416 -0.00100776)
(-0.001212 -0.00173092 -0.00100776)
(-0.000893017 -0.00191508 -0.00100776)
(-0.0005469 -0.00204106 -0.00100776)
(-0.000184165 -0.00210502 -0.00100776)
(0.000184165 -0.00210502 -0.00100776)
(0.0005469 -0.00204106 -0.00100776)
(0.000893017 -0.00191508 -0.00100776)
(0.001212 -0.00173092 -0.00100776)
(0.00149416 -0.00149416 -0.00100776)
(0.00173092 -0.001212 -0.00100776)
(0.00191508 -0.000893017 -0.00100776)
(0.00204106 -0.0005469 -0.00100776)
(0.00210502 -0.000184165 -0.00100776)
(0.00173654 0.000151927 -0.00127288)
(0.00168377 0.000451165 -0.00127288)
(0.00157985 0.000736695 -0.00127288)
(0.00142792 0.00099984 -0.00127288)
(0.00123261 0.00123261 -0.00127288)
(0.00099984 0.00142792 -0.00127288)
(0.000736695 0.00157985 -0.00127288)
(0.000451165 0.00168377 -0.00127288)
(0.000151927 0.00173654 -0.00127288)
(-0.000151927 0.00173654 -0.00127288)
(-0.000451165 0.00168377 -0.00127288)
(-0.000736695 0.00157985 -0.00127288)
(-0.00099984 0.00142792 -0.00127288)
(-0.00123261 0.00123261 -0.00127288)
(-0.00142792 0.00099984 -0.00127288)
(-0.00157985 0.000736695 -0.00127288)
(-0.00168377 0.000451165 -0.00127288)
(-0.00173654 0.000151927 -0.00127288)
(-0.00173654 -0.000151927 -0.00127288)
(-0.00168377 -0.000451165 -0.00127288)
(-0.00157985 -0.000736695 -0.00127288)
(-0.00142792 -0.00099984 -0.00127288)
(-0.00123261 -0.00123261 -0.00127288)
(-0.00099984 -0.00142792 -0.00127288)
(-0.000736695 -0.00157985 -0.00127288)
(-0.000451165 -0.00168377 -0.00127288)
(-0.000151927 -0.00173654 -0.00127288)
(0.000151927 -0.00173654 -0.00127288)
(0.000451165 -0.00168377 -0.00127288)
(0.000736695 -0.00157985 -0.00127288)
(0.00099984 -0.00142792 -0.00127288)
(0.00123261 -0.00123261 -0.00127288)
(0.00142792 -0.00099984 -0.00127288)
(0.00157985 -0.000736695 -0.00127288)
(0.00168377 -0.000451165 -0.00127288)
(0.00173654 -0.000151927 -0.00127288)
(0.0020224 0.000176937 -0.00133002)
(0.00196095 0.000525436 -0.00133002)
(0.00183992 0.000857968 -0.00133002)
(0.00166298 0.00116443 -0.00133002)
(0.00143552 0.00143552 -0.00133002)
(0.00116443 0.00166298 -0.00133002)
(0.000857968 0.00183992 -0.00133002)
(0.000525436 0.00196095 -0.00133002)
(0.000176937 0.0020224 -0.00133002)
(-0.000176937 0.0020224 -0.00133002)
(-0.000525436 0.00196095 -0.00133002)
(-0.000857968 0.00183992 -0.00133002)
(-0.00116443 0.00166298 -0.00133002)
(-0.00143552 0.00143552 -0.00133002)
(-0.00166298 0.00116443 -0.00133002)
(-0.00183992 0.000857968 -0.00133002)
(-0.00196095 0.000525436 -0.00133002)
(-0.0020224 0.000176937 -0.00133002)
(-0.0020224 -0.000176937 -0.00133002)
(-0.00196095 -0.000525436 -0.00133002)
(-0.00183992 -0.000857968 -0.00133002)
(-0.00166298 -0.00116443 -0.00133002)
(-0.00143552 -0.00143552 -0.00133002)
(-0.00116443 -0.00166298 -0.00133002)
(-0.000857968 -0.00183992 -0.00133002)
(-0.000525436 -0.00196095 -0.00133002)
(-0.000176937 -0.0020224 -0.00133002)
(0.000176937 -0.0020224 -0.00133002)
(0.000525436 -0.00196095 -0.00133002)
(0.000857968 -0.00183992 -0.00133002)
(0.00116443 -0.00166298 -0.00133002)
(0.00143552 -0.00143552 -0.00133002)
(0.00166298 -0.00116443 -0.00133002)
(0.00183992 -0.000857968 -0.00133002)
(0.00196095 -0.000525436 -0.00133002)
(0.0020224 -0.000176937 -0.00133002)
(0.00237092 0.000207429 -0.00138451)
(0.00229888 0.000615983 -0.00138451)
(0.00215699 0.00100582 -0.00138451)
(0.00194956 0.0013651 -0.00138451)
(0.0016829 0.0016829 -0.00138451)
(0.0013651 0.00194956 -0.00138451)
(0.00100582 0.00215699 -0.00138451)
(0.000615983 0.00229888 -0.00138451)
(0.000207429 0.00237092 -0.00138451)
(-0.000207429 0.00237092 -0.00138451)
(-0.000615983 0.00229888 -0.00138451)
(-0.00100582 0.00215699 -0.00138451)
(-0.0013651 0.00194956 -0.00138451)
(-0.0016829 0.0016829 -0.00138451)
(-0.00194956 0.0013651 -0.00138451)
(-0.00215699 0.00100582 -0.00138451)
(-0.00229888 0.000615983 -0.00138451)
(-0.00237092 0.000207429 -0.00138451)
(-0.00237092 -0.000207429 -0.00138451)
(-0.00229888 -0.000615983 -0.00138451)
(-0.00215699 -0.00100582 -0.00138451)
(-0.00194956 -0.0013651 -0.00138451)
(-0.0016829 -0.0016829 -0.00138451)
(-0.0013651 -0.00194956 -0.00138451)
(-0.00100582 -0.00215699 -0.00138451)
(-0.000615983 -0.00229888 -0.00138451)
(-0.000207429 -0.00237092 -0.00138451)
(0.000207429 -0.00237092 -0.00138451)
(0.000615983 -0.00229888 -0.00138451)
(0.00100582 -0.00215699 -0.00138451)
(0.0013651 -0.00194956 -0.00138451)
(0.0016829 -0.0016829 -0.00138451)
(0.00194956 -0.0013651 -0.00138451)
(0.00215699 -0.00100582 -0.00138451)
(0.00229888 -0.000615983 -0.00138451)
(0.00237092 -0.000207429 -0.00138451)
(0.00184021 0.000160998 -0.0016174)
(0.0017843 0.000478102 -0.0016174)
(0.00167417 0.000780678 -0.0016174)
(0.00151317 0.00105953 -0.0016174)
(0.0013062 0.0013062 -0.0016174)
(0.00105953 0.00151317 -0.0016174)
(0.000780678 0.00167417 -0.0016174)
(0.000478102 0.0017843 -0.0016174)
(0.000160998 0.00184021 -0.0016174)
(-0.000160998 0.00184021 -0.0016174)
(-0.000478102 0.0017843 -0.0016174)
(-0.000780678 0.00167417 -0.0016174)
(-0.00105953 0.00151317 -0.0016174)
(-0.0013062 0.0013062 -0.0016174)
(-0.00151317 0.00105953 -0.0016174)
(-0.00167417 0.000780678 -0.0016174)
(-0.0017843 0.000478102 -0.0016174)
(-0.00184021 0.000160998 -0.0016174)
(-0.00184021 -0.000160998 -0.0016174)
(-0.0017843 -0.000478102 -0.0016174)
(-0.00167417 -0.000780678 -0.0016174)
(-0.00151317 -0.00105953 -0.0016174)
(-0.0013062 -0.0013062 -0.0016174)
(-0.00105953 -0.00151317 -0.0016174)
(-0.000780678 -0.00167417 -0.0016174)
(-0.000478102 -0.0017843 -0.0016174)
(-0.000160998 -0.00184021 -0.0016174)
(0.000160998 -0.00184021 -0.0016174)
(0.000478102 -0.0017843 -0.0016174)
(0.000780678 -0.00167417 -0.0016174)
(0.00105953 -0.00151317 -0.0016174)
(0.0013062 -0.0013062 -0.0016174)
(0.00151317 -0.00105953 -0.0016174)
(0.00167417 -0.000780678 -0.0016174)
(0.0017843 -0.000478102 -0.0016174)
(0.00184021 -0.000160998 -0.0016174)
(0.00212717 0.000186103 -0.0016851)
(0.00206253 0.000552655 -0.0016851)
(0.00193523 0.000902414 -0.0016851)
(0.00174913 0.00122475 -0.0016851)
(0.00150988 0.00150988 -0.0016851)
(0.00122475 0.00174913 -0.0016851)
(0.000902414 0.00193523 -0.0016851)
(0.000552655 0.00206253 -0.0016851)
(0.000186103 0.00212717 -0.0016851)
(-0.000186103 0.00212717 -0.0016851)
(-0.000552655 0.00206253 -0.0016851)
(-0.000902414 0.00193523 -0.0016851)
(-0.00122475 0.00174913 -0.0016851)
(-0.00150988 0.00150988 -0.0016851)
(-0.00174913 0.00122475 -0.0016851)
(-0.00193523 0.000902414 -0.0016851)
(-0.00206253 0.000552655 -0.0016851)
(-0.00212717 0.000186103 -0.0016851)
(-0.00212717 -0.000186103 -0.0016851)
(-0.00206253 -0.000552655 -0.0016851)
(-0.00193523 -0.000902414 -0.0016851)
(-0.00174913 -0.00122475 -0.0016851)
(-0.00150988 -0.00150988 -0.0016851)
(-0.00122475 -0.00174913 -0.0016851)
(-0.000902414 -0.00193523 -0.0016851)
(-0.000552655 -0.00206253 -0.0016851)
(-0.000186103 -0.00212717 -0.0016851)
(0.000186103 -0.00212717 -0.0016851)
(0.000552655 -0.00206253 -0.0016851)
(0.000902414 -0.00193523 -0.0016851)
(0.00122475 -0.00174913 -0.0016851)
(0.00150988 -0.00150988 -0.0016851)
(0.00174913 -0.00122475 -0.0016851)
(0.00193523 -0.000902414 -0.0016851)
(0.00206253 -0.000552655 -0.0016851)
(0.00212717 -0.000186103 -0.0016851)
(0.00248076 0.000217039 -0.00175708)
(0.00240538 0.000644521 -0.00175708)
(0.00225692 0.00105242 -0.00175708)
(0.00203988 0.00142834 -0.00175708)
(0.00176086 0.00176086 -0.00175708)
(0.00142834 0.00203988 -0.00175708)
(0.00105242 0.00225692 -0.00175708)
(0.000644521 0.00240538 -0.00175708)
(0.000217039 0.00248076 -0.00175708)
(-0.000217039 0.00248076 -0.00175708)
(-0.000644521 0.00240538 -0.00175708)
(-0.00105242 0.00225692 -0.00175708)
(-0.00142834 0.00203988 -0.00175708)
(-0.00176086 0.00176086 -0.00175708)
(-0.00203988 0.00142834 -0.00175708)
(-0.00225692 0.00105242 -0.00175708)
(-0.00240538 0.000644521 -0.00175708)
(-0.00248076 0.000217039 -0.00175708)
(-0.00248076 -0.000217039 -0.00175708)
(-0.00240538 -0.000644521 -0.00175708)
(-0.00225692 -0.00105242 -0.00175708)
(-0.00203988 -0.00142834 -0.00175708)
(-0.00176086 -0.00176086 -0.00175708)
(-0.00142834 -0.00203988 -0.00175708)
(-0.00105242 -0.00225692 -0.00175708)
(-0.000644521 -0.00240538 -0.00175708)
(-0.000217039 -0.00248076 -0.00175708)
(0.000217039 -0.00248076 -0.00175708)
(0.000644521 -0.00240538 -0.00175708)
(0.00105242 -0.00225692 -0.00175708)
(0.00142834 -0.00203988 -0.00175708)
(0.00176086 -0.00176086 -0.00175708)
(0.00203988 -0.00142834 -0.00175708)
(0.00225692 -0.00105242 -0.00175708)
(0.00240538 -0.000644521 -0.00175708)
(0.00248076 -0.000217039 -0.00175708)
(0.00182009 0.000159237 -0.00193307)
(0.00176479 0.000472874 -0.00193307)
(0.00165586 0.000772143 -0.00193307)
(0.00149663 0.00104795 -0.00193307)
(0.00129192 0.00129192 -0.00193307)
(0.00104795 0.00149663 -0.00193307)
(0.000772143 0.00165586 -0.00193307)
(0.000472874 0.00176479 -0.00193307)
(0.000159237 0.00182009 -0.00193307)
(-0.000159237 0.00182009 -0.00193307)
(-0.000472874 0.00176479 -0.00193307)
(-0.000772143 0.00165586 -0.00193307)
(-0.00104795 0.00149663 -0.00193307)
(-0.00129192 0.00129192 -0.00193307)
(-0.00149663 0.00104795 -0.00193307)
(-0.00165586 0.000772143 -0.00193307)
(-0.00176479 0.000472874 -0.00193307)
(-0.00182009 0.000159237 -0.00193307)
(-0.00182009 -0.000159237 -0.00193307)
(-0.00176479 -0.000472874 -0.00193307)
(-0.00165586 -0.000772143 -0.00193307)
(-0.00149663 -0.00104795 -0.00193307)
(-0.00129192 -0.00129192 -0.00193307)
(-0.00104795 -0.00149663 -0.00193307)
(-0.000772143 -0.00165586 -0.00193307)
(-0.000472874 -0.00176479 -0.00193307)
(-0.000159237 -0.00182009 -0.00193307)
(0.000159237 -0.00182009 -0.00193307)
(0.000472874 -0.00176479 -0.00193307)
(0.000772143 -0.00165586 -0.00193307)
(0.00104795 -0.00149663 -0.00193307)
(0.00129192 -0.00129192 -0.00193307)
(0.00149663 -0.00104795 -0.00193307)
(0.00165586 -0.000772143 -0.00193307)
(0.00176479 -0.000472874 -0.00193307)
(0.00182009 -0.000159237 -0.00193307)
(0.00209984 0.000183713 -0.00201258)
(0.00203604 0.000545556 -0.00201258)
(0.00191037 0.000890823 -0.00201258)
(0.00172666 0.00120902 -0.00201258)
(0.00149049 0.00149049 -0.00201258)
(0.00120902 0.00172666 -0.00201258)
(0.000890823 0.00191037 -0.00201258)
(0.000545556 0.00203604 -0.00201258)
(0.000183713 0.00209984 -0.00201258)
(-0.000183713 0.00209984 -0.00201258)
(-0.000545556 0.00203604 -0.00201258)
(-0.000890823 0.00191037 -0.00201258)
(-0.00120902 0.00172666 -0.00201258)
(-0.00149049 0.00149049 -0.00201258)
(-0.00172666 0.00120902 -0.00201258)
(-0.00191037 0.000890823 -0.00201258)
(-0.00203604 0.000545556 -0.00201258)
(-0.00209984 0.000183713 -0.00201258)
(-0.00209984 -0.000183713 -0.00201258)
(-0.00203604 -0.000545556 -0.00201258)
(-0.00191037 -0.000890823 -0.00201258)
(-0.00172666 -0.00120902 -0.00201258)
(-0.00149049 -0.00149049 -0.00201258)
(-0.00120902 -0.00172666 -0.00201258)
(-0.000890823 -0.00191037 -0.00201258)
(-0.000545556 -0.00203604 -0.00201258)
(-0.000183713 -0.00209984 -0.00201258)
(0.000183713 -0.00209984 -0.00201258)
(0.000545556 -0.00203604 -0.00201258)
(0.000890823 -0.00191037 -0.00201258)
(0.00120902 -0.00172666 -0.00201258)
(0.00149049 -0.00149049 -0.00201258)
(0.00172666 -0.00120902 -0.00201258)
(0.00191037 -0.000890823 -0.00201258)
(0.00203604 -0.000545556 -0.00201258)
(0.00209984 -0.000183713 -0.00201258)
(0.00244905 0.000214265 -0.0021041)
(0.00237464 0.000636283 -0.0021041)
(0.00222807 0.00103897 -0.0021041)
(0.00201381 0.00141008 -0.0021041)
(0.00173836 0.00173836 -0.0021041)
(0.00141008 0.00201381 -0.0021041)
(0.00103897 0.00222807 -0.0021041)
(0.000636283 0.00237464 -0.0021041)
(0.000214265 0.00244905 -0.0021041)
(-0.000214265 0.00244905 -0.0021041)
(-0.000636283 0.00237464 -0.0021041)
(-0.00103897 0.00222807 -0.0021041)
(-0.00141008 0.00201381 -0.0021041)
(-0.00173836 0.00173836 -0.0021041)
(-0.00201381 0.00141008 -0.0021041)
(-0.00222807 0.00103897 -0.0021041)
(-0.00237464 0.000636283 -0.0021041)
(-0.00244905 0.000214265 -0.0021041)
(-0.00244905 -0.000214265 -0.0021041)
(-0.00237464 -0.000636283 -0.0021041)
(-0.00222807 -0.00103897 -0.0021041)
(-0.00201381 -0.00141008 -0.0021041)
(-0.00173836 -0.00173836 -0.0021041)
(-0.00141008 -0.00201381 -0.0021041)
(-0.00103897 -0.00222807 -0.0021041)
(-0.000636283 -0.00237464 -0.0021041)
(-0.000214265 -0.00244905 -0.0021041)
(0.000214265 -0.00244905 -0.0021041)
(0.000636283 -0.00237464 -0.0021041)
(0.00103897 -0.00222807 -0.0021041)
(0.00141008 -0.00201381 -0.0021041)
(0.00173836 -0.00173836 -0.0021041)
(0.00201381 -0.00141008 -0.0021041)
(0.00222807 -0.00103897 -0.0021041)
(0.00237464 -0.000636283 -0.0021041)
(0.00244905 -0.000214265 -0.0021041)
(0.00169343 0.000148156 -0.00220427)
(0.00164198 0.000439966 -0.00220427)
(0.00154063 0.000718409 -0.00220427)
(0.00139248 0.000975023 -0.00220427)
(0.00120201 0.00120201 -0.00220427)