/*--------------------------------*- C++ -*----------------------------------*\
| =========                 |                                                 |
| \\      /  F ield         | OpenFOAM: The Open Source CFD Toolbox           |
|  \\    /   O peration     | Version:  2312                                  |
|   \\  /    A nd           | Website:  www.openfoam.com                      |
|    \\/     M anipulation  |                                                 |
\*---------------------------------------------------------------------------*/
FoamFile
{
    version     2.0;
    format      ascii;
    arch        "LSB;label=32;scalar=64";
    class       volVectorField;
    location    "0.5";
    object      U;
}
// * * * * * * * * * * * * * * * * * * * * * * * * * * * * * * * * * * * * * //

dimensions      [0 1 -1 0 0 0 0];

internalField   nonuniform List<vector> 
1620
(
(0.000739496 6.46974e-05 -0.000512116)
(0.000717026 0.000192126 -0.000512115)
(0.00067277 0.000313717 -0.000512116)
(0.000608073 0.000425777 -0.000512117)
(0.0005249 0.0005249 -0.000512117)
(0.000425777 0.000608073 -0.000512117)
(0.000313717 0.00067277 -0.000512116)
(0.000192126 0.000717026 -0.000512115)
(6.46974e-05 0.000739496 -0.000512116)
(-6.46974e-05 0.000739496 -0.000512116)
(-0.000192126 0.000717026 -0.000512115)
(-0.000313717 0.00067277 -0.000512116)
(-0.000425777 0.000608073 -0.000512117)
(-0.0005249 0.0005249 -0.000512117)
(-0.000608073 0.000425777 -0.000512117)
(-0.00067277 0.000313717 -0.000512116)
(-0.000717026 0.000192126 -0.000512115)
(-0.000739496 6.46974e-05 -0.000512116)
(-0.000739496 -6.46974e-05 -0.000512116)
(-0.000717026 -0.000192126 -0.000512115)
(-0.00067277 -0.000313717 -0.000512116)
(-0.000608073 -0.000425777 -0.000512117)
(-0.0005249 -0.0005249 -0.000512117)
(-0.000425777 -0.000608073 -0.000512117)
(-0.000313717 -0.00067277 -0.000512116)
(-0.000192126 -0.000717026 -0.000512115)
(-6.46974e-05 -0.000739496 -0.000512115)
(6.46974e-05 -0.000739496 -0.000512116)
(0.000192126 -0.000717026 -0.000512115)
(0.000313717 -0.00067277 -0.000512116)
(0.000425777 -0.000608073 -0.000512117)
(0.0005249 -0.0005249 -0.000512117)
(0.000608073 -0.000425777 -0.000512117)
(0.00067277 -0.000313717 -0.000512116)
(0.000717026 -0.000192126 -0.000512115)
(0.000739496 -6.46974e-05 -0.000512116)
(0.00111134 9.72295e-05 -0.000387208)
(0.00107758 0.000288735 -0.000387208)
(0.00101106 0.000471467 -0.000387208)
(0.000913835 0.000639873 -0.000387209)
(0.000788839 0.000788839 -0.000387209)
(0.000639873 0.000913835 -0.000387209)
(0.000471467 0.00101106 -0.000387208)
(0.000288735 0.00107758 -0.000387208)
(9.72295e-05 0.00111134 -0.000387208)
(-9.72295e-05 0.00111134 -0.000387208)
(-0.000288735 0.00107758 -0.000387208)
(-0.000471467 0.00101106 -0.000387208)
(-0.000639873 0.000913835 -0.000387209)
(-0.000788839 0.000788839 -0.000387209)
(-0.000913835 0.000639873 -0.000387209)
(-0.00101106 0.000471467 -0.000387208)
(-0.00107758 0.000288735 -0.000387208)
(-0.00111134 9.72295e-05 -0.000387208)
(-0.00111134 -9.72295e-05 -0.000387208)
(-0.00107758 -0.000288735 -0.000387208)
(-0.00101106 -0.000471467 -0.000387208)
(-0.000913835 -0.000639873 -0.000387209)
(-0.000788839 -0.000788839 -0.000387209)
(-0.000639873 -0.000913835 -0.000387209)
(-0.000471467 -0.00101106 -0.000387208)
(-0.000288735 -0.00107758 -0.000387208)
(-9.72295e-05 -0.00111134 -0.000387208)
(9.72295e-05 -0.00111134 -0.000387208)
(0.000288735 -0.00107758 -0.000387208)
(0.000471467 -0.00101106 -0.000387208)
(0.000639873 -0.000913835 -0.000387209)
(0.000788839 -0.000788839 -0.000387209)
(0.000913835 -0.000639873 -0.000387209)
(0.00101106 -0.000471467 -0.000387208)
(0.00107758 -0.000288735 -0.000387208)
(0.00111134 -9.72295e-05 -0.000387208)
(0.00150193 0.000131402 -0.00022149)
(0.0014563 0.000390213 -0.000221491)
(0.00136641 0.000637169 -0.000221491)
(0.00123501 0.000864763 -0.000221491)
(0.00106608 0.00106608 -0.000221492)
(0.000864764 0.00123501 -0.000221491)
(0.000637169 0.00136641 -0.000221491)
(0.000390213 0.0014563 -0.000221491)
(0.000131402 0.00150193 -0.00022149)
(-0.000131402 0.00150193 -0.00022149)
(-0.000390213 0.0014563 -0.000221491)
(-0.000637169 0.00136641 -0.000221491)
(-0.000864763 0.00123501 -0.000221491)
(-0.00106608 0.00106608 -0.000221492)
(-0.00123501 0.000864764 -0.000221491)
(-0.00136641 0.000637169 -0.000221491)
(-0.0014563 0.000390213 -0.000221491)
(-0.00150193 0.000131402 -0.00022149)
(-0.00150193 -0.000131402 -0.00022149)
(-0.0014563 -0.000390213 -0.000221491)
(-0.00136641 -0.000637169 -0.000221491)
(-0.00123501 -0.000864763 -0.000221491)
(-0.00106608 -0.00106608 -0.000221492)
(-0.000864764 -0.00123501 -0.000221491)
(-0.000637169 -0.00136641 -0.000221491)
(-0.000390213 -0.0014563 -0.000221491)
(-0.000131402 -0.00150193 -0.00022149)
(0.000131402 -0.00150193 -0.00022149)
(0.000390213 -0.0014563 -0.000221491)
(0.000637169 -0.00136641 -0.000221491)
(0.000864763 -0.00123501 -0.000221491)
(0.00106608 -0.00106608 -0.000221492)
(0.00123501 -0.000864764 -0.000221491)
(0.00136641 -0.000637169 -0.000221491)
(0.0014563 -0.000390213 -0.000221491)
(0.00150193 -0.000131402 -0.00022149)
(0.00264189 0.000231135 -0.00143603)
(0.00256162 0.000686383 -0.00143603)
(0.00240351 0.00112077 -0.00143603)
(0.00217237 0.00152111 -0.00143603)
(0.00187523 0.00187523 -0.00143603)
(0.00152111 0.00217237 -0.00143603)
(0.00112077 0.00240351 -0.00143603)
(0.000686383 0.00256162 -0.00143603)
(0.000231135 0.00264189 -0.00143603)
(-0.000231135 0.00264189 -0.00143603)
(-0.000686383 0.00256162 -0.00143603)
(-0.00112077 0.00240351 -0.00143603)
(-0.00152111 0.00217237 -0.00143603)
(-0.00187523 0.00187523 -0.00143603)
(-0.00217237 0.00152111 -0.00143603)
(-0.00240351 0.00112077 -0.00143603)
(-0.00256162 0.000686383 -0.00143603)
(-0.00264189 0.000231135 -0.00143603)
(-0.00264189 -0.000231135 -0.00143603)
(-0.00256162 -0.000686383 -0.00143603)
(-0.00240351 -0.00112077 -0.00143603)
(-0.00217237 -0.00152111 -0.00143603)
(-0.00187523 -0.00187523 -0.00143603)
(-0.00152111 -0.00217237 -0.00143603)
(-0.00112077 -0.00240351 -0.00143603)
(-0.000686383 -0.00256162 -0.00143603)
(-0.000231135 -0.00264189 -0.00143603)
(0.000231135 -0.00264189 -0.00143603)
(0.000686383 -0.00256162 -0.00143603)
(0.00112077 -0.00240351 -0.00143603)
(0.00152111 -0.00217237 -0.00143603)
(0.00187523 -0.00187523 -0.00143603)
(0.00217237 -0.00152111 -0.00143603)
(0.00240351 -0.00112077 -0.00143603)
(0.00256162 -0.000686383 -0.00143603)
(0.00264189 -0.000231135 -0.00143603)
(0.00322495 0.000282146 -0.00130951)
(0.00312696 0.000837865 -0.00130951)
(0.00293396 0.00136813 -0.00130952)
(0.00265182 0.00185682 -0.00130952)
(0.00228909 0.00228909 -0.00130952)
(0.00185682 0.00265182 -0.00130952)
(0.00136813 0.00293396 -0.00130952)
(0.000837865 0.00312696 -0.00130951)
(0.000282146 0.00322495 -0.00130951)
(-0.000282146 0.00322495 -0.00130951)
(-0.000837865 0.00312696 -0.00130951)
(-0.00136813 0.00293396 -0.00130952)
(-0.00185682 0.00265182 -0.00130952)
(-0.00228909 0.00228909 -0.00130952)
(-0.00265182 0.00185682 -0.00130952)
(-0.00293396 0.00136813 -0.00130952)
(-0.00312696 0.000837865 -0.00130951)
(-0.00322495 0.000282146 -0.00130951)
(-0.00322495 -0.000282146 -0.00130951)
(-0.00312696 -0.000837865 -0.00130951)
(-0.00293396 -0.00136813 -0.00130952)
(-0.00265182 -0.00185682 -0.00130952)
(-0.00228909 -0.00228909 -0.00130952)
(-0.00185682 -0.00265182 -0.00130952)
(-0.00136813 -0.00293396 -0.00130952)
(-0.000837865 -0.00312696 -0.00130951)
(-0.000282146 -0.00322495 -0.00130951)
(0.000282146 -0.00322495 -0.00130951)
(0.000837865 -0.00312696 -0.00130951)
(0.00136813 -0.00293396 -0.00130952)
(0.00185682 -0.00265182 -0.00130952)
(0.00228909 -0.00228909 -0.00130952)
(0.00265182 -0.00185682 -0.00130952)
(0.00293396 -0.00136813 -0.00130952)
(0.00312696 -0.000837865 -0.00130951)
(0.00322495 -0.000282146 -0.00130951)
(0.00384254 0.000336179 -0.00112912)
(0.00372579 0.000998321 -0.00112912)
(0.00349583 0.00163013 -0.00112912)
(0.00315965 0.00221241 -0.00112912)
(0.00272746 0.00272746 -0.00112912)
(0.00221241 0.00315965 -0.00112912)
(0.00163013 0.00349583 -0.00112912)
(0.000998321 0.00372579 -0.00112912)
(0.000336179 0.00384254 -0.00112912)
(-0.000336179 0.00384254 -0.00112912)
(-0.000998321 0.00372579 -0.00112912)
(-0.00163013 0.00349583 -0.00112912)
(-0.00221241 0.00315965 -0.00112912)
(-0.00272746 0.00272746 -0.00112912)
(-0.00315965 0.00221241 -0.00112912)
(-0.00349583 0.00163013 -0.00112912)
(-0.00372579 0.000998321 -0.00112912)
(-0.00384254 0.000336179 -0.00112912)
(-0.00384254 -0.000336179 -0.00112912)
(-0.00372579 -0.000998321 -0.00112912)
(-0.00349583 -0.00163013 -0.00112912)
(-0.00315965 -0.00221241 -0.00112912)
(-0.00272746 -0.00272746 -0.00112912)
(-0.00221241 -0.00315965 -0.00112912)
(-0.00163013 -0.00349583 -0.00112912)
(-0.000998321 -0.00372579 -0.00112912)
(-0.000336179 -0.00384254 -0.00112912)
(0.000336179 -0.00384254 -0.00112912)
(0.000998321 -0.00372579 -0.00112912)
(0.00163013 -0.00349583 -0.00112912)
(0.00221241 -0.00315965 -0.00112912)
(0.00272746 -0.00272746 -0.00112912)
(0.00315965 -0.00221241 -0.00112912)
(0.00349583 -0.00163013 -0.00112912)
(0.00372579 -0.000998321 -0.00112912)
(0.00384254 -0.000336179 -0.00112912)
(0.00435412 0.000380935 -0.00263201)
(0.00422182 0.00113123 -0.00263201)
(0.00396125 0.00184716 -0.00263201)
(0.00358031 0.00250696 -0.00263201)
(0.00309059 0.00309059 -0.00263201)
(0.00250696 0.00358031 -0.00263201)
(0.00184716 0.00396125 -0.00263201)
(0.00113123 0.00422182 -0.00263201)
(0.000380936 0.00435412 -0.00263201)
(-0.000380935 0.00435412 -0.00263201)
(-0.00113123 0.00422182 -0.00263201)
(-0.00184716 0.00396125 -0.00263201)
(-0.00250696 0.00358031 -0.00263201)
(-0.00309059 0.00309059 -0.00263201)
(-0.00358031 0.00250696 -0.00263201)
(-0.00396125 0.00184716 -0.00263201)
(-0.00422182 0.00113123 -0.00263201)
(-0.00435412 0.000380936 -0.00263201)
(-0.00435412 -0.000380935 -0.00263201)
(-0.00422182 -0.00113123 -0.00263201)
(-0.00396125 -0.00184716 -0.00263201)
(-0.00358031 -0.00250696 -0.00263201)
(-0.00309059 -0.00309059 -0.00263201)
(-0.00250696 -0.00358031 -0.00263201)
(-0.00184716 -0.00396125 -0.00263201)
(-0.00113123 -0.00422182 -0.00263201)
(-0.000380936 -0.00435412 -0.00263201)
(0.000380935 -0.00435412 -0.00263201)
(0.00113123 -0.00422182 -0.00263201)
(0.00184716 -0.00396125 -0.00263201)
(0.00250696 -0.00358031 -0.00263201)
(0.00309059 -0.00309059 -0.00263201)
(0.00358031 -0.00250696 -0.00263201)
(0.00396125 -0.00184716 -0.00263201)
(0.00422182 -0.00113123 -0.00263201)
(0.00435412 -0.000380936 -0.00263201)
(0.00507477 0.000443985 -0.00249749)
(0.00492057 0.00131846 -0.00249749)
(0.00461687 0.00215288 -0.00249749)
(0.00417288 0.00292188 -0.00249749)
(0.00360211 0.00360211 -0.00249749)
(0.00292188 0.00417288 -0.00249749)
(0.00215288 0.00461687 -0.00249749)
(0.00131846 0.00492057 -0.00249749)
(0.000443985 0.00507477 -0.00249749)
(-0.000443985 0.00507477 -0.00249749)
(-0.00131846 0.00492057 -0.00249749)
(-0.00215288 0.00461687 -0.00249749)
(-0.00292188 0.00417288 -0.00249749)
(-0.00360211 0.00360211 -0.00249749)
(-0.00417288 0.00292188 -0.00249749)
(-0.00461687 0.00215288 -0.00249749)
(-0.00492057 0.00131846 -0.00249749)
(-0.00507477 0.000443985 -0.00249749)
(-0.00507477 -0.000443985 -0.00249749)
(-0.00492057 -0.00131846 -0.00249749)
(-0.00461687 -0.00215288 -0.00249749)
(-0.00417288 -0.00292188 -0.00249749)
(-0.00360211 -0.00360211 -0.00249749)
(-0.00292188 -0.00417288 -0.00249749)
(-0.00215288 -0.00461687 -0.00249749)
(-0.00131846 -0.00492057 -0.00249749)
(-0.000443985 -0.00507477 -0.00249749)
(0.000443985 -0.00507477 -0.00249749)
(0.00131846 -0.00492057 -0.00249749)
(0.00215288 -0.00461687 -0.00249749)
(0.00292188 -0.00417288 -0.00249749)
(0.00360211 -0.00360211 -0.00249749)
(0.00417288 -0.00292188 -0.00249749)
(0.00461687 -0.00215288 -0.00249749)
(0.00492057 -0.00131846 -0.00249749)
(0.00507477 -0.000443985 -0.00249749)
(0.00584419 0.000511301 -0.00230907)
(0.00566662 0.00151837 -0.00230907)
(0.00531687 0.00247929 -0.00230907)
(0.00480557 0.00336489 -0.00230907)
(0.00414825 0.00414825 -0.00230907)
(0.00336489 0.00480557 -0.00230907)
(0.00247929 0.00531687 -0.00230907)
(0.00151837 0.00566662 -0.00230907)
(0.000511301 0.00584419 -0.00230907)
(-0.000511301 0.00584419 -0.00230907)
(-0.00151837 0.00566662 -0.00230907)
(-0.00247929 0.00531687 -0.00230907)
(-0.00336489 0.00480557 -0.00230907)
(-0.00414825 0.00414825 -0.00230907)
(-0.00480557 0.00336489 -0.00230907)
(-0.00531687 0.00247929 -0.00230907)
(-0.00566662 0.00151837 -0.00230907)
(-0.00584419 0.000511301 -0.00230907)
(-0.00584419 -0.000511301 -0.00230907)
(-0.00566662 -0.00151837 -0.00230907)
(-0.00531687 -0.00247929 -0.00230907)
(-0.00480557 -0.00336489 -0.00230907)
(-0.00414825 -0.00414825 -0.00230907)
(-0.00336489 -0.00480557 -0.00230907)
(-0.00247929 -0.00531687 -0.00230907)
(-0.00151837 -0.00566662 -0.00230907)
(-0.000511301 -0.00584419 -0.00230907)
(0.000511301 -0.00584419 -0.00230907)
(0.00151837 -0.00566662 -0.00230907)
(0.00247929 -0.00531687 -0.00230907)
(0.00336489 -0.00480557 -0.00230907)
(0.00414825 -0.00414825 -0.00230907)
(0.00480557 -0.00336489 -0.00230907)
(0.00531687 -0.00247929 -0.00230907)
(0.00566662 -0.00151837 -0.00230907)
(0.00584419 -0.000511301 -0.00230907)
(0.0056929 0.000498064 -0.00403246)
(0.00551993 0.00147906 -0.00403246)
(0.00517923 0.00241511 -0.00403247)
(0.00468117 0.00327779 -0.00403247)
(0.00404087 0.00404087 -0.00403247)
(0.00327779 0.00468117 -0.00403247)
(0.00241511 0.00517923 -0.00403247)
(0.00147906 0.00551993 -0.00403246)
(0.000498064 0.0056929 -0.00403246)
(-0.000498064 0.0056929 -0.00403246)
(-0.00147906 0.00551993 -0.00403246)
(-0.00241511 0.00517923 -0.00403247)
(-0.00327779 0.00468117 -0.00403247)
(-0.00404087 0.00404087 -0.00403247)
(-0.00468117 0.00327779 -0.00403247)
(-0.00517923 0.00241511 -0.00403247)
(-0.00551993 0.00147906 -0.00403246)
(-0.0056929 0.000498064 -0.00403246)
(-0.0056929 -0.000498064 -0.00403246)
(-0.00551993 -0.00147906 -0.00403246)
(-0.00517923 -0.00241511 -0.00403247)
(-0.00468117 -0.00327779 -0.00403247)
(-0.00404087 -0.00404087 -0.00403247)
(-0.00327779 -0.00468117 -0.00403247)
(-0.00241511 -0.00517923 -0.00403247)
(-0.00147906 -0.00551993 -0.00403246)
(-0.000498064 -0.0056929 -0.00403246)
(0.000498064 -0.0056929 -0.00403246)
(0.00147906 -0.00551993 -0.00403246)
(0.00241511 -0.00517923 -0.00403247)
(0.00327779 -0.00468117 -0.00403247)
(0.00404087 -0.00404087 -0.00403247)
(0.00468117 -0.00327779 -0.00403247)
(0.00517923 -0.00241511 -0.00403247)
(0.00551993 -0.00147906 -0.00403246)
(0.0056929 -0.000498064 -0.00403246)
(0.00650264 0.000568907 -0.00391484)
(0.00630506 0.00168944 -0.00391484)
(0.0059159 0.00275863 -0.00391484)
(0.005347 0.00374401 -0.00391484)
(0.00461562 0.00461562 -0.00391484)
(0.00374401 0.005347 -0.00391484)
(0.00275863 0.0059159 -0.00391484)
(0.00168944 0.00630506 -0.00391484)
(0.000568907 0.00650264 -0.00391484)
(-0.000568907 0.00650264 -0.00391484)
(-0.00168944 0.00630506 -0.00391484)
(-0.00275863 0.0059159 -0.00391484)
(-0.00374401 0.005347 -0.00391484)
(-0.00461562 0.00461562 -0.00391484)
(-0.005347 0.00374401 -0.00391484)
(-0.0059159 0.00275863 -0.00391484)
(-0.00630506 0.00168944 -0.00391484)
(-0.00650264 0.000568907 -0.00391484)
(-0.00650264 -0.000568907 -0.00391484)
(-0.00630506 -0.00168944 -0.00391484)
(-0.0059159 -0.00275863 -0.00391484)
(-0.005347 -0.00374401 -0.00391484)
(-0.00461562 -0.00461562 -0.00391484)
(-0.00374401 -0.005347 -0.00391484)
(-0.00275863 -0.0059159 -0.00391484)
(-0.00168944 -0.00630506 -0.00391484)
(-0.000568907 -0.00650264 -0.00391484)
(0.000568907 -0.00650264 -0.00391484)
(0.00168944 -0.00630506 -0.00391484)
(0.00275863 -0.0059159 -0.00391484)
(0.00374401 -0.005347 -0.00391484)
(0.00461562 -0.00461562 -0.00391484)
(0.005347 -0.00374401 -0.00391484)
(0.0059159 -0.00275863 -0.00391484)
(0.00630506 -0.00168944 -0.00391484)
(0.00650264 -0.000568907 -0.00391484)
(0.00737866 0.000645549 -0.00375091)
(0.00715446 0.00191703 -0.00375091)
(0.00671288 0.00313027 -0.00375091)
(0.00606733 0.00424839 -0.00375091)
(0.00523743 0.00523743 -0.00375091)
(0.00424839 0.00606733 -0.00375091)
(0.00313027 0.00671288 -0.00375091)
(0.00191703 0.00715446 -0.00375091)
(0.000645549 0.00737866 -0.00375091)
(-0.000645549 0.00737866 -0.00375091)
(-0.00191703 0.00715446 -0.00375091)
(-0.00313027 0.00671288 -0.00375091)
(-0.00424839 0.00606733 -0.00375091)
(-0.00523743 0.00523743 -0.00375091)
(-0.00606733 0.00424839 -0.00375091)
(-0.00671288 0.00313027 -0.00375091)
(-0.00715446 0.00191703 -0.00375091)
(-0.00737866 0.000645549 -0.00375091)
(-0.00737866 -0.000645549 -0.00375091)
(-0.00715446 -0.00191703 -0.00375091)
(-0.00671288 -0.00313027 -0.00375091)
(-0.00606733 -0.00424839 -0.00375091)
(-0.00523743 -0.00523743 -0.00375091)
(-0.00424839 -0.00606733 -0.00375091)
(-0.00313027 -0.00671288 -0.00375091)
(-0.00191703 -0.00715446 -0.00375091)
(-0.000645549 -0.00737866 -0.00375091)
(0.000645549 -0.00737866 -0.00375091)
(0.00191703 -0.00715446 -0.00375091)
(0.00313027 -0.00671288 -0.00375091)
(0.00424839 -0.00606733 -0.00375091)
(0.00523743 -0.00523743 -0.00375091)
(0.00606733 -0.00424839 -0.00375091)
(0.00671288 -0.00313027 -0.00375091)
(0.00715446 -0.00191703 -0.00375091)
(0.00737866 -0.000645549 -0.00375091)
(0.00658282 0.000575922 -0.00556586)
(0.00638281 0.00171027 -0.00556586)
(0.00598885 0.00279265 -0.00556586)
(0.00541293 0.00379017 -0.00556586)
(0.00467254 0.00467254 -0.00556586)
(0.00379017 0.00541293 -0.00556586)
(0.00279265 0.00598885 -0.00556586)
(0.00171027 0.00638281 -0.00556586)
(0.000575922 0.00658282 -0.00556586)
(-0.000575922 0.00658282 -0.00556586)
(-0.00171027 0.00638281 -0.00556586)
(-0.00279265 0.00598885 -0.00556586)
(-0.00379017 0.00541293 -0.00556586)
(-0.00467254 0.00467254 -0.00556586)
(-0.00541293 0.00379017 -0.00556586)
(-0.00598885 0.00279265 -0.00556586)
(-0.00638281 0.00171027 -0.00556586)
(-0.00658282 0.000575922 -0.00556586)
(-0.00658282 -0.000575922 -0.00556586)
(-0.00638281 -0.00171027 -0.00556586)
(-0.00598885 -0.00279265 -0.00556586)
(-0.00541293 -0.00379017 -0.00556586)
(-0.00467254 -0.00467254 -0.00556586)
(-0.00379017 -0.00541293 -0.00556586)
(-0.00279265 -0.00598885 -0.00556586)
(-0.00171027 -0.00638281 -0.00556586)
(-0.000575922 -0.00658282 -0.00556586)
(0.000575922 -0.00658282 -0.00556586)
(0.00171027 -0.00638281 -0.00556586)
(0.00279265 -0.00598885 -0.00556586)
(0.00379017 -0.00541293 -0.00556586)
(0.00467254 -0.00467254 -0.00556586)
(0.00541293 -0.00379017 -0.00556586)
(0.00598885 -0.00279265 -0.00556586)
(0.00638281 -0.00171027 -0.00556586)
(0.00658282 -0.000575922 -0.00556586)
(0.00745395 0.000652136 -0.0054996)
(0.00722746 0.00193659 -0.0054996)
(0.00678138 0.00316221 -0.0054996)
(0.00612924 0.00429174 -0.0054996)
(0.00529087 0.00529087 -0.00549961)
(0.00429174 0.00612924 -0.0054996)
(0.00316221 0.00678138 -0.0054996)
(0.00193659 0.00722746 -0.0054996)
(0.000652137 0.00745395 -0.0054996)
(-0.000652136 0.00745395 -0.0054996)
(-0.00193659 0.00722746 -0.0054996)
(-0.00316221 0.00678138 -0.0054996)
(-0.00429174 0.00612924 -0.0054996)
(-0.00529087 0.00529087 -0.00549961)
(-0.00612924 0.00429174 -0.0054996)
(-0.00678138 0.00316221 -0.0054996)
(-0.00722746 0.00193659 -0.0054996)
(-0.00745395 0.000652137 -0.0054996)
(-0.00745395 -0.000652136 -0.0054996)
(-0.00722746 -0.00193659 -0.0054996)
(-0.00678138 -0.00316221 -0.0054996)
(-0.00612924 -0.00429174 -0.0054996)
(-0.00529087 -0.00529087 -0.00549961)
(-0.00429174 -0.00612924 -0.0054996)
(-0.00316221 -0.00678138 -0.0054996)
(-0.00193659 -0.00722746 -0.0054996)
(-0.000652137 -0.00745395 -0.0054996)
(0.000652136 -0.00745395 -0.0054996)
(0.00193659 -0.00722746 -0.0054996)
(0.00316221 -0.00678138 -0.0054996)
(0.00429174 -0.00612924 -0.0054996)
(0.00529087 -0.00529087 -0.00549961)
(0.00612924 -0.00429174 -0.0054996)
(0.00678138 -0.00316221 -0.0054996)
(0.00722746 -0.00193659 -0.0054996)
(0.00745395 -0.000652137 -0.0054996)
(0.00840742 0.000735554 -0.00539988)
(0.00815196 0.00218431 -0.00539988)
(0.00764881 0.0035667 -0.00539988)
(0.00691326 0.00484072 -0.00539988)
(0.00596765 0.00596765 -0.00539988)
(0.00484072 0.00691326 -0.00539988)
(0.0035667 0.00764881 -0.00539988)
(0.00218431 0.00815196 -0.00539988)
(0.000735554 0.00840742 -0.00539988)
(-0.000735554 0.00840742 -0.00539988)
(-0.00218431 0.00815196 -0.00539988)
(-0.0035667 0.00764881 -0.00539988)
(-0.00484072 0.00691326 -0.00539988)
(-0.00596765 0.00596765 -0.00539988)
(-0.00691326 0.00484072 -0.00539988)
(-0.00764881 0.0035667 -0.00539988)
(-0.00815196 0.00218431 -0.00539988)
(-0.00840742 0.000735554 -0.00539988)
(-0.00840742 -0.000735554 -0.00539988)
(-0.00815196 -0.00218431 -0.00539988)
(-0.00764881 -0.0035667 -0.00539988)
(-0.00691326 -0.00484072 -0.00539988)
(-0.00596765 -0.00596765 -0.00539988)
(-0.00484072 -0.00691326 -0.00539988)
(-0.0035667 -0.00764881 -0.00539988)
(-0.00218431 -0.00815196 -0.00539988)
(-0.000735554 -0.00840742 -0.00539988)
(0.000735554 -0.00840742 -0.00539988)
(0.00218431 -0.00815196 -0.00539988)
(0.0035667 -0.00764881 -0.00539988)
(0.00484072 -0.00691326 -0.00539988)
(0.00596765 -0.00596765 -0.00539988)
(0.00691326 -0.00484072 -0.00539988)
(0.00764881 -0.0035667 -0.00539988)
(0.00815196 -0.00218431 -0.00539988)
(0.00840742 -0.000735554 -0.00539988)
(0.00703203 0.000615223 -0.00716436)
(0.00681836 0.00182697 -0.00716436)
(0.00639752 0.00298321 -0.00716436)
(0.0057823 0.00404881 -0.00716436)
(0.00499139 0.00499138 -0.00716436)
(0.00404881 0.0057823 -0.00716436)
(0.00298321 0.00639752 -0.00716436)
(0.00182697 0.00681836 -0.00716436)
(0.000615223 0.00703203 -0.00716436)
(-0.000615223 0.00703203 -0.00716436)
(-0.00182697 0.00681836 -0.00716436)
(-0.00298321 0.00639752 -0.00716436)
(-0.00404881 0.0057823 -0.00716436)
(-0.00499138 0.00499139 -0.00716436)
(-0.0057823 0.00404881 -0.00716436)
(-0.00639752 0.00298321 -0.00716436)
(-0.00681836 0.00182697 -0.00716436)
(-0.00703203 0.000615223 -0.00716436)
(-0.00703203 -0.000615223 -0.00716436)
(-0.00681836 -0.00182697 -0.00716436)
(-0.00639752 -0.00298321 -0.00716436)
(-0.0057823 -0.00404881 -0.00716436)
(-0.00499139 -0.00499138 -0.00716436)
(-0.00404881 -0.0057823 -0.00716436)
(-0.00298321 -0.00639752 -0.00716436)
(-0.00182697 -0.00681836 -0.00716436)
(-0.000615223 -0.00703203 -0.00716436)
(0.000615223 -0.00703203 -0.00716436)
(0.00182697 -0.00681836 -0.00716436)
(0.00298321 -0.00639752 -0.00716436)
(0.00404881 -0.0057823 -0.00716436)
(0.00499138 -0.00499139 -0.00716436)
(0.0057823 -0.00404881 -0.00716436)
(0.00639752 -0.00298321 -0.00716436)
(0.00681836 -0.00182697 -0.00716436)
(0.00703203 -0.000615223 -0.00716436)
(0.00794099 0.000694747 -0.00717794)
(0.00769971 0.00206313 -0.00717794)
(0.00722447 0.00336883 -0.00717794)
(0.00652973 0.00457216 -0.00717794)
(0.00563658 0.00563658 -0.00717794)
(0.00457216 0.00652973 -0.00717794)
(0.00336883 0.00722447 -0.00717794)
(0.00206313 0.00769971 -0.00717794)
(0.000694747 0.00794099 -0.00717794)
(-0.000694747 0.00794099 -0.00717794)
(-0.00206313 0.00769971 -0.00717794)
(-0.00336883 0.00722447 -0.00717794)
(-0.00457216 0.00652973 -0.00717794)
(-0.00563658 0.00563658 -0.00717794)
(-0.00652973 0.00457216 -0.00717794)
(-0.00722447 0.00336883 -0.00717794)
(-0.00769971 0.00206313 -0.00717794)
(-0.00794099 0.000694747 -0.00717794)
(-0.00794099 -0.000694747 -0.00717794)
(-0.00769971 -0.00206313 -0.00717794)
(-0.00722447 -0.00336883 -0.00717794)
(-0.00652973 -0.00457216 -0.00717794)
(-0.00563658 -0.00563658 -0.00717794)
(-0.00457216 -0.00652973 -0.00717794)
(-0.00336883 -0.00722447 -0.00717794)
(-0.00206313 -0.00769971 -0.00717794)
(-0.000694747 -0.00794099 -0.00717794)
(0.000694747 -0.00794099 -0.00717794)
(0.00206313 -0.00769971 -0.00717794)
(0.00336883 -0.00722447 -0.00717794)
(0.00457216 -0.00652973 -0.00717794)
(0.00563658 -0.00563658 -0.00717794)
(0.00652973 -0.00457216 -0.00717794)
(0.00722447 -0.00336883 -0.00717794)
(0.00769971 -0.00206313 -0.00717794)
(0.00794099 -0.000694747 -0.00717794)
(0.00894474 0.000782564 -0.00717406)
(0.00867296 0.00232391 -0.00717407)
(0.00813765 0.00379465 -0.00717407)
(0.00735509 0.00515009 -0.00717407)
(0.00634905 0.00634905 -0.00717407)
(0.00515009 0.00735509 -0.00717407)
(0.00379465 0.00813765 -0.00717407)
(0.00232391 0.00867296 -0.00717407)
(0.000782564 0.00894474 -0.00717406)
(-0.000782564 0.00894474 -0.00717406)
(-0.00232391 0.00867296 -0.00717407)
(-0.00379465 0.00813765 -0.00717407)
(-0.00515009 0.00735509 -0.00717407)
(-0.00634905 0.00634905 -0.00717407)
(-0.00735509 0.00515009 -0.00717407)
(-0.00813765 0.00379465 -0.00717407)
(-0.00867296 0.00232391 -0.00717407)
(-0.00894474 0.000782564 -0.00717406)
(-0.00894474 -0.000782564 -0.00717406)
(-0.00867296 -0.00232391 -0.00717407)
(-0.00813765 -0.00379465 -0.00717407)
(-0.00735509 -0.00515009 -0.00717407)
(-0.00634905 -0.00634905 -0.00717407)
(-0.00515009 -0.00735509 -0.00717407)
(-0.00379465 -0.00813765 -0.00717407)
(-0.00232391 -0.00867296 -0.00717407)
(-0.000782564 -0.00894474 -0.00717406)
(0.000782564 -0.00894474 -0.00717406)
(0.00232391 -0.00867296 -0.00717407)
(0.00379465 -0.00813765 -0.00717407)
(0.00515009 -0.00735509 -0.00717407)
(0.00634905 -0.00634905 -0.00717407)
(0.00735509 -0.00515009 -0.00717407)
(0.00813765 -0.00379465 -0.00717407)
(0.00867296 -0.00232391 -0.00717407)
(0.00894474 -0.000782564 -0.00717406)
(0.00708853 0.000620165 -0.00876155)
(0.00687315 0.00184165 -0.00876155)
(0.00644893 0.00300719 -0.00876155)
(0.00582877 0.00408135 -0.00876155)
(0.00503149 0.00503149 -0.00876155)
(0.00408135 0.00582877 -0.00876155)
(0.00300719 0.00644893 -0.00876155)
(0.00184165 0.00687315 -0.00876155)
(0.000620165 0.00708853 -0.00876155)
(-0.000620165 0.00708853 -0.00876155)
(-0.00184165 0.00687315 -0.00876155)
(-0.00300719 0.00644893 -0.00876155)
(-0.00408135 0.00582877 -0.00876155)
(-0.00503149 0.00503149 -0.00876155)
(-0.00582877 0.00408135 -0.00876155)
(-0.00644893 0.00300719 -0.00876155)
(-0.00687315 0.00184165 -0.00876155)
(-0.00708853 0.000620165 -0.00876155)
(-0.00708853 -0.000620165 -0.00876155)
(-0.00687315 -0.00184165 -0.00876155)
(-0.00644893 -0.00300719 -0.00876155)
(-0.00582877 -0.00408135 -0.00876155)
(-0.00503149 -0.00503149 -0.00876155)
(-0.00408135 -0.00582877 -0.00876155)
(-0.00300719 -0.00644893 -0.00876155)
(-0.00184165 -0.00687315 -0.00876155)
(-0.000620165 -0.00708853 -0.00876155)
(0.000620165 -0.00708853 -0.00876155)
(0.00184165 -0.00687315 -0.00876155)
(0.00300719 -0.00644893 -0.00876155)
(0.00408135 -0.00582877 -0.00876155)
(0.00503149 -0.00503149 -0.00876155)
(0.00582877 -0.00408135 -0.00876155)
(0.00644893 -0.00300719 -0.00876155)
(0.00687315 -0.00184165 -0.00876155)
(0.00708853 -0.000620165 -0.00876155)
(0.00801151 0.000700916 -0.00887069)
(0.00776808 0.00208145 -0.00887069)
(0.00728863 0.00339874 -0.00887069)
(0.00658771 0.00461277 -0.0088707)
(0.00568663 0.00568663 -0.00887069)
(0.00461277 0.00658771 -0.0088707)
(0.00339874 0.00728863 -0.00887069)
(0.00208145 0.00776808 -0.00887069)
(0.000700916 0.00801151 -0.00887069)
(-0.000700916 0.00801151 -0.00887069)
(-0.00208145 0.00776808 -0.00887069)
(-0.00339874 0.00728863 -0.00887069)
(-0.00461277 0.00658771 -0.0088707)
(-0.00568663 0.00568663 -0.00887069)
(-0.00658771 0.00461277 -0.0088707)
(-0.00728863 0.00339874 -0.00887069)
(-0.00776808 0.00208145 -0.00887069)
(-0.00801151 0.000700916 -0.00887069)
(-0.00801151 -0.000700916 -0.00887069)
(-0.00776808 -0.00208145 -0.00887069)
(-0.00728863 -0.00339874 -0.00887069)
(-0.00658771 -0.00461277 -0.0088707)
(-0.00568663 -0.00568663 -0.00887069)
(-0.00461277 -0.00658771 -0.0088707)
(-0.00339874 -0.00728863 -0.00887069)
(-0.00208145 -0.00776808 -0.00887069)
(-0.000700916 -0.00801151 -0.00887069)
(0.000700916 -0.00801151 -0.00887069)
(0.00208145 -0.00776808 -0.00887069)
(0.00339874 -0.00728863 -0.00887069)
(0.00461277 -0.00658771 -0.0088707)
(0.00568663 -0.00568663 -0.00887069)
(0.00658771 -0.00461277 -0.0088707)
(0.00728863 -0.00339874 -0.00887069)
(0.00776808 -0.00208145 -0.00887069)
(0.00801151 -0.000700916 -0.00887069)
(0.00903892 0.000790805 -0.00898017)
(0.00876428 0.00234838 -0.00898017)
(0.00822333 0.00383461 -0.00898017)
(0.00743253 0.00520432 -0.00898017)
(0.0064159 0.0064159 -0.00898017)
(0.00520432 0.00743253 -0.00898017)
(0.00383461 0.00822333 -0.00898017)
(0.00234838 0.00876428 -0.00898017)
(0.000790805 0.00903892 -0.00898017)
(-0.000790805 0.00903892 -0.00898017)
(-0.00234838 0.00876428 -0.00898017)
(-0.00383461 0.00822333 -0.00898017)
(-0.00520432 0.00743253 -0.00898017)
(-0.0064159 0.0064159 -0.00898017)
(-0.00743253 0.00520432 -0.00898017)
(-0.00822333 0.00383461 -0.00898017)
(-0.00876428 0.00234838 -0.00898017)
(-0.00903892 0.000790805 -0.00898017)
(-0.00903892 -0.000790805 -0.00898017)
(-0.00876428 -0.00234838 -0.00898017)
(-0.00822333 -0.00383461 -0.00898017)
(-0.00743253 -0.00520432 -0.00898017)
(-0.0064159 -0.0064159 -0.00898017)
(-0.00520432 -0.00743253 -0.00898017)
(-0.00383461 -0.00822333 -0.00898017)
(-0.00234838 -0.00876428 -0.00898017)
(-0.000790805 -0.00903892 -0.00898017)
(0.000790805 -0.00903892 -0.00898017)
(0.00234838 -0.00876428 -0.00898017)
(0.00383461 -0.00822333 -0.00898017)
(0.00520432 -0.00743253 -0.00898017)
(0.0064159 -0.0064159 -0.00898017)
(0.00743253 -0.00520432 -0.00898017)
(0.00822333 -0.00383461 -0.00898017)
(0.00876428 -0.00234838 -0.00898017)
(0.00903892 -0.000790805 -0.00898017)
(0.00681185 0.000595959 -0.0102902)
(0.00660488 0.00176977 -0.0102902)
(0.00619722 0.00288981 -0.0102902)
(0.00560126 0.00392204 -0.0102902)
(0.00483511 0.00483511 -0.0102902)
(0.00392205 0.00560126 -0.0102902)
(0.00288981 0.00619722 -0.0102902)
(0.00176977 0.00660488 -0.0102902)
(0.000595959 0.00681185 -0.0102902)
(-0.000595959 0.00681185 -0.0102902)
(-0.00176977 0.00660488 -0.0102902)
(-0.00288981 0.00619722 -0.0102902)
(-0.00392204 0.00560126 -0.0102902)
(-0.00483511 0.00483511 -0.0102902)
(-0.00560126 0.00392205 -0.0102902)
(-0.00619722 0.00288981 -0.0102902)
(-0.00660488 0.00176977 -0.0102902)
(-0.00681185 0.000595959 -0.0102902)
(-0.00681185 -0.000595959 -0.0102902)
(-0.00660488 -0.00176977 -0.0102902)
(-0.00619722 -0.00288981 -0.0102902)
(-0.00560126 -0.00392204 -0.0102902)
(-0.00483511 -0.00483511 -0.0102902)