/*--------------------------------*- C++ -*----------------------------------*\
| =========                 |                                                 |
| \\      /  F ield         | OpenFOAM: The Open Source CFD Toolbox           |
|  \\    /   O peration     | Version:  2312                                  |
|   \\  /    A nd           | Website:  www.openfoam.com                      |
|    \\/     M anipulation  |                                                 |
\*---------------------------------------------------------------------------*/
FoamFile
{
    version     2.0;
    format      ascii;
    arch        "LSB;label=32;scalar=64";
    class       pointVectorField;
    location    "1";
    object      pointD;
}
// * * * * * * * * * * * * * * * * * * * * * * * * * * * * * * * * * * * * * //

dimensions      [0 1 0 0 0 0 0];

internalField   nonuniform List<vector> 
2164
(
(0 0 0)
(0 0 0)
(0 0 0)
(0 0 0)
(0 0 0)
(0 0 0)
(0 0 0)
(0 0 0)
(0 0 0)
(0 0 0)
(0 0 0)
(0 0 0)
(0 0 0)
(0 0 0)
(0 0 0)
(0 0 0)
(0 0 0)
(0 0 0)
(0 0 0)
(0 0 0)
(0 0 0)
(0 0 0)
(0 0 0)
(0 0 0)
(0 0 0)
(0 0 0)
(0 0 0)
(0 0 0)
(0 0 0)
(0 0 0)
(0 0 0)
(0 0 0)
(0 0 0)
(0 0 0)
(0 0 0)
(0 0 0)
(0.000207094 0.000631178 5.93354e-05)
(9.43448e-05 0.000657551 5.93355e-05)
(-2.1271e-05 0.000663944 5.93369e-05)
(-0.000136239 0.000650165 5.93381e-05)
(-0.000247069 0.00061663 5.93378e-05)
(-0.000350393 0.000564359 5.93379e-05)
(-0.00044307 0.000494939 5.93379e-05)
(-0.000522284 0.000410482 5.93367e-05)
(-0.000585628 0.000313551 5.93363e-05)
(-0.000631178 0.000207094 5.93354e-05)
(-0.000657551 9.43448e-05 5.93355e-05)
(-0.000663944 -2.1271e-05 5.93369e-05)
(-0.000650165 -0.000136239 5.93381e-05)
(-0.00061663 -0.000247069 5.93378e-05)
(-0.000564359 -0.000350393 5.93378e-05)
(-0.000494939 -0.00044307 5.93379e-05)
(-0.000410481 -0.000522284 5.93367e-05)
(-0.000313551 -0.000585628 5.93363e-05)
(-0.000207094 -0.000631178 5.93354e-05)
(-9.43448e-05 -0.000657551 5.93355e-05)
(2.12711e-05 -0.000663944 5.93369e-05)
(0.000136239 -0.000650165 5.93381e-05)
(0.000247069 -0.00061663 5.93378e-05)
(0.000350393 -0.000564359 5.93379e-05)
(0.00044307 -0.000494939 5.93379e-05)
(0.000522284 -0.000410482 5.93367e-05)
(0.000585628 -0.000313551 5.93364e-05)
(0.000631178 -0.000207094 5.93354e-05)
(0.000657551 -9.43448e-05 5.93355e-05)
(0.000663944 2.1271e-05 5.9337e-05)
(0.000650165 0.000136239 5.93381e-05)
(0.00061663 0.000247069 5.93378e-05)
(0.000564359 0.000350393 5.93379e-05)
(0.000494939 0.00044307 5.93379e-05)
(0.000410482 0.000522284 5.93367e-05)
(0.000313551 0.000585628 5.93364e-05)
(0.000103754 0.000718373 0.000147503)
(-2.25664e-05 0.000725476 0.000147503)
(-0.0001482 0.000710536 0.000147503)
(-0.000269332 0.000674007 0.000147505)
(-0.000382281 0.000616998 0.000147505)
(-0.000483614 0.000541242 0.000147504)
(-0.000570252 0.00044904 0.000147504)
(-0.000639564 0.000343194 0.000147504)
(-0.000689443 0.000226921 0.000147503)
(-0.000718373 0.000103753 0.000147503)
(-0.000725476 -2.25664e-05 0.000147503)
(-0.000710536 -0.0001482 0.000147503)
(-0.000674007 -0.000269332 0.000147505)
(-0.000616998 -0.000382281 0.000147505)
(-0.000541242 -0.000483614 0.000147504)
(-0.00044904 -0.000570252 0.000147504)
(-0.000343194 -0.000639565 0.000147504)
(-0.000226921 -0.000689443 0.000147503)
(-0.000103753 -0.000718373 0.000147503)
(2.25664e-05 -0.000725476 0.000147503)
(0.0001482 -0.000710536 0.000147503)
(0.000269332 -0.000674007 0.000147505)
(0.000382282 -0.000616998 0.000147505)
(0.000483614 -0.000541242 0.000147504)
(0.000570252 -0.00044904 0.000147504)
(0.000639565 -0.000343194 0.000147504)
(0.000689443 -0.000226921 0.000147503)
(0.000718373 -0.000103753 0.000147503)
(0.000725476 2.25664e-05 0.000147503)
(0.000710536 0.0001482 0.000147503)
(0.000674007 0.000269332 0.000147505)
(0.000616998 0.000382282 0.000147505)
(0.000541242 0.000483614 0.000147504)
(0.00044904 0.000570252 0.000147504)
(0.000343194 0.000639565 0.000147504)
(0.000226921 0.000689443 0.000147503)
(0 0 0)
(0 0 0)
(0 0 0)
(0 0 0)
(0 0 0)
(0 0 0)
(0 0 0)
(0 0 0)
(0 0 0)
(0 0 0)
(0 0 0)
(0 0 0)
(0 0 0)
(0 0 0)
(0 0 0)
(0 0 0)
(0 0 0)
(0 0 0)
(0 0 0)
(0 0 0)
(0 0 0)
(0 0 0)
(0 0 0)
(0 0 0)
(0 0 0)
(0 0 0)
(0 0 0)
(0 0 0)
(0 0 0)
(0 0 0)
(0 0 0)
(0 0 0)
(0 0 0)
(0 0 0)
(0 0 0)
(0 0 0)
(-3.01052e-05 0.000795082 0.000222446)
(-0.000167711 0.000777775 0.000222445)
(-0.000300223 0.000736837 0.000222446)
(-0.000423611 0.000673509 0.000222446)
(-0.00053413 0.000589718 0.000222446)
(-0.000628419 0.000488007 0.000222446)
(-0.000703613 0.00037147 0.000222445)
(-0.000757429 0.000243644 0.000222446)
(-0.00078823 0.000108417 0.000222445)
(-0.000795082 -3.01052e-05 0.000222446)
(-0.000777775 -0.000167711 0.000222445)
(-0.000736836 -0.000300223 0.000222446)
(-0.000673509 -0.000423611 0.000222446)
(-0.000589718 -0.00053413 0.000222446)
(-0.000488007 -0.000628419 0.000222446)
(-0.00037147 -0.000703613 0.000222445)
(-0.000243644 -0.000757429 0.000222446)
(-0.000108417 -0.00078823 0.000222445)
(3.01052e-05 -0.000795082 0.000222446)
(0.000167711 -0.000777775 0.000222445)
(0.000300223 -0.000736836 0.000222446)
(0.000423611 -0.000673509 0.000222446)
(0.00053413 -0.000589718 0.000222446)
(0.000628419 -0.000488007 0.000222446)
(0.000703613 -0.00037147 0.000222446)
(0.000757429 -0.000243644 0.000222446)
(0.00078823 -0.000108417 0.000222445)
(0.000795082 3.01052e-05 0.000222446)
(0.000777775 0.000167711 0.000222445)
(0.000736837 0.000300223 0.000222446)
(0.000673509 0.000423611 0.000222446)
(0.000589718 0.00053413 0.000222446)
(0.000488007 0.000628419 0.000222446)
(0.00037147 0.000703613 0.000222446)
(0.000243644 0.000757429 0.000222446)
(0.000108417 0.00078823 0.000222445)
(0 0 0)
(0 0 0)
(0 0 0)
(0 0 0)
(0 0 0)
(0 0 0)
(0 0 0)
(0 0 0)
(0 0 0)
(0 0 0)
(0 0 0)
(0 0 0)
(0 0 0)
(0 0 0)
(0 0 0)
(0 0 0)
(0 0 0)
(0 0 0)
(0 0 0)
(0 0 0)
(0 0 0)
(0 0 0)
(0 0 0)
(0 0 0)
(0 0 0)
(0 0 0)
(0 0 0)
(0 0 0)
(0 0 0)
(0 0 0)
(0 0 0)
(0 0 0)
(0 0 0)
(0 0 0)
(0 0 0)
(0 0 0)
(-0.000189629 0.000851528 0.0002792)
(-0.000334613 0.000805663 0.0002792)
(-0.000469432 0.000735318 0.0002792)
(-0.000589987 0.00064263 0.0002792)
(-0.000692615 0.000530417 0.0002792)
(-0.000774199 0.000402086 0.0002792)
(-0.000832258 0.00026154 0.000279199)
(-0.000865031 0.000113046 0.0002792)
(-0.000871519 -3.88812e-05 0.000279199)
(-0.000851528 -0.000189629 0.0002792)
(-0.000805663 -0.000334613 0.0002792)
(-0.000735318 -0.000469432 0.0002792)
(-0.00064263 -0.000589987 0.0002792)
(-0.000530417 -0.000692615 0.0002792)
(-0.000402086 -0.000774199 0.0002792)
(-0.00026154 -0.000832258 0.000279199)
(-0.000113046 -0.000865031 0.0002792)
(3.88812e-05 -0.000871519 0.000279199)
(0.000189629 -0.000851528 0.0002792)
(0.000334613 -0.000805663 0.0002792)
(0.000469432 -0.000735318 0.0002792)
(0.000589987 -0.00064263 0.0002792)
(0.000692615 -0.000530417 0.0002792)
(0.000774199 -0.000402086 0.0002792)
(0.000832258 -0.00026154 0.000279199)
(0.000865031 -0.000113046 0.0002792)
(0.000871519 3.88812e-05 0.000279199)
(0.000851528 0.000189629 0.0002792)
(0.000805663 0.000334613 0.0002792)
(0.000735318 0.000469432 0.0002792)
(0.00064263 0.000589987 0.0002792)
(0.000530417 0.000692615 0.0002792)
(0.000402086 0.000774199 0.0002792)
(0.00026154 0.000832258 0.000279199)
(0.000113046 0.000865031 0.0002792)
(-3.88812e-05 0.000871519 0.000279199)
(0 0 0)
(0 0 0)
(0 0 0)
(0 0 0)
(0 0 0)
(0 0 0)
(0 0 0)
(0 0 0)
(0 0 0)
(0 0 0)
(0 0 0)
(0 0 0)
(0 0 0)
(0 0 0)
(0 0 0)
(0 0 0)
(0 0 0)
(0 0 0)
(0 0 0)
(0 0 0)
(0 0 0)
(0 0 0)
(0 0 0)
(0 0 0)
(0 0 0)
(0 0 0)
(0 0 0)
(0 0 0)
(0 0 0)
(0 0 0)
(0 0 0)
(0 0 0)
(0 0 0)
(0 0 0)
(0 0 0)
(0 0 0)
(0.00027006 0.00127881 0.000222761)
(4.38945e-05 0.00130628 0.000222761)
(-0.000183606 0.00129406 0.000222763)
(-0.000405526 0.00124251 0.000222766)
(-0.000615126 0.00115322 0.000222766)
(-0.000806035 0.00102888 0.000222766)
(-0.000972453 0.000873286 0.000222764)
(-0.00110932 0.000691154 0.000222763)
(-0.00121249 0.00048802 0.000222762)
(-0.00127881 0.00027006 0.000222761)
(-0.00130628 4.38945e-05 0.000222761)
(-0.00129406 -0.000183606 0.000222763)
(-0.00124251 -0.000405526 0.000222766)
(-0.00115322 -0.000615126 0.000222766)
(-0.00102888 -0.000806035 0.000222766)
(-0.000873286 -0.000972453 0.000222764)
(-0.000691154 -0.00110932 0.000222763)
(-0.00048802 -0.00121249 0.000222762)
(-0.00027006 -0.00127881 0.000222761)
(-4.38944e-05 -0.00130628 0.000222761)
(0.000183606 -0.00129406 0.000222763)
(0.000405526 -0.00124251 0.000222766)
(0.000615126 -0.00115322 0.000222766)
(0.000806035 -0.00102888 0.000222766)
(0.000972453 -0.000873286 0.000222765)
(0.00110932 -0.000691154 0.000222763)
(0.00121249 -0.00048802 0.000222762)
(0.00127881 -0.00027006 0.000222761)
(0.00130628 -4.38945e-05 0.000222761)
(0.00129406 0.000183606 0.000222763)
(0.00124251 0.000405526 0.000222766)
(0.00115322 0.000615126 0.000222766)
(0.00102888 0.000806035 0.000222766)
(0.000873286 0.000972453 0.000222765)
(0.000691154 0.00110932 0.000222763)
(0.00048802 0.00121249 0.000222762)
(0.000109627 0.0014211 0.000367346)
(-0.00013881 0.00141854 0.000367346)
(-0.000383026 0.00137289 0.000367346)
(-0.000615608 0.00128552 0.000367349)
(-0.000829483 0.00115909 0.000367349)
(-0.00101815 0.000997442 0.000367348)
(-0.00117589 0.000805487 0.000367349)
(-0.0012979 0.000589058 0.000367347)
(-0.00138047 0.000354731 0.000367346)
(-0.00142109 0.000109627 0.000367346)
(-0.00141854 -0.00013881 0.000367346)
(-0.00137289 -0.000383026 0.000367346)
(-0.00128552 -0.000615608 0.000367349)
(-0.00115909 -0.000829483 0.000367349)
(-0.000997442 -0.00101815 0.000367348)
(-0.000805487 -0.00117589 0.000367349)
(-0.000589058 -0.0012979 0.000367347)
(-0.00035473 -0.00138047 0.000367346)
(-0.000109627 -0.00142109 0.000367346)
(0.00013881 -0.00141854 0.000367346)
(0.000383026 -0.00137289 0.000367346)
(0.000615608 -0.00128552 0.000367349)
(0.000829483 -0.00115909 0.000367349)
(0.00101815 -0.000997442 0.000367348)
(0.00117589 -0.000805487 0.000367349)
(0.0012979 -0.000589058 0.000367347)
(0.00138047 -0.000354731 0.000367347)
(0.0014211 -0.000109627 0.000367346)
(0.00141854 0.00013881 0.000367346)
(0.00137289 0.000383026 0.000367346)
(0.00128552 0.000615608 0.000367349)
(0.00115909 0.000829483 0.000367349)
(0.000997442 0.00101815 0.000367348)
(0.000805487 0.00117589 0.000367349)
(0.000589058 0.0012979 0.000367347)
(0.000354731 0.00138047 0.000367347)
(-8.39419e-05 0.00155344 0.000497845)
(-0.000352416 0.00151526 0.000497845)
(-0.000610185 0.00143105 0.000497846)
(-0.000849415 0.00130335 0.000497847)
(-0.00106284 0.00113605 0.000497847)
(-0.00124396 0.000934229 0.000497846)
(-0.00138729 0.000704024 0.000497846)
(-0.00148847 0.000452429 0.000497846)
(-0.00154442 0.000187086 0.000497845)
(-0.00155344 -8.39419e-05 0.000497845)
(-0.00151526 -0.000352417 0.000497845)
(-0.00143105 -0.000610185 0.000497846)
(-0.00130335 -0.000849415 0.000497847)
(-0.00113605 -0.00106284 0.000497847)
(-0.000934229 -0.00124396 0.000497846)
(-0.000704024 -0.00138729 0.000497846)
(-0.000452429 -0.00148847 0.000497846)
(-0.000187086 -0.00154442 0.000497845)
(8.3942e-05 -0.00155344 0.000497845)
(0.000352417 -0.00151526 0.000497845)
(0.000610185 -0.00143105 0.000497846)
(0.000849415 -0.00130335 0.000497847)
(0.00106284 -0.00113605 0.000497847)
(0.00124396 -0.000934229 0.000497846)
(0.00138729 -0.000704024 0.000497846)
(0.00148847 -0.000452429 0.000497846)
(0.00154442 -0.000187086 0.000497845)
(0.00155344 8.39419e-05 0.000497845)
(0.00151526 0.000352417 0.000497845)
(0.00143105 0.000610185 0.000497846)
(0.00130335 0.000849415 0.000497847)
(0.00113605 0.00106284 0.000497847)
(0.000934229 0.00124396 0.000497847)
(0.000704024 0.00138729 0.000497846)
(0.000452429 0.00148847 0.000497846)
(0.000187086 0.00154442 0.000497845)
(-0.000299815 0.00165875 0.000605545)
(-0.000583298 0.00158149 0.000605545)
(-0.000849056 0.00145617 0.000605544)
(-0.00108902 0.00128661 0.000605544)
(-0.00129589 0.00107796 0.000605544)
(-0.00146339 0.000836552 0.000605544)
(-0.00158642 0.000569728 0.000605544)
(-0.00166126 0.000285592 0.000605545)
(-0.00168561 -7.2199e-06 0.000605544)
(-0.00165875 -0.000299815 0.000605545)
(-0.00158149 -0.000583298 0.000605545)
(-0.00145617 -0.000849056 0.000605544)
(-0.00128661 -0.00108902 0.000605543)
(-0.00107796 -0.00129589 0.000605544)
(-0.000836552 -0.00146339 0.000605544)
(-0.000569728 -0.00158642 0.000605544)
(-0.000285592 -0.00166126 0.000605544)
(7.21994e-06 -0.00168561 0.000605544)
(0.000299815 -0.00165875 0.000605545)
(0.000583298 -0.00158149 0.000605545)
(0.000849056 -0.00145617 0.000605544)
(0.00108902 -0.00128661 0.000605543)
(0.00129589 -0.00107796 0.000605544)
(0.00146339 -0.000836552 0.000605544)
(0.00158642 -0.000569728 0.000605544)
(0.00166126 -0.000285592 0.000605545)
(0.00168561 7.21993e-06 0.000605544)
(0.00165875 0.000299815 0.000605545)
(0.00158149 0.000583298 0.000605545)
(0.00145617 0.000849056 0.000605544)
(0.00128661 0.00108902 0.000605544)
(0.00107796 0.00129589 0.000605544)
(0.000836552 0.00146339 0.000605544)
(0.000569728 0.00158642 0.000605544)
(0.000285592 0.00166126 0.000605545)
(-7.21987e-06 0.00168561 0.000605544)
(0.000204848 0.00194301 0.000482865)
(-0.000135664 0.00194906 0.000482865)
(-0.000472055 0.00189589 0.000482867)
(-0.000794101 0.00178512 0.000482869)
(-0.00109202 0.0016201 0.00048287)
(-0.00135676 0.00140586 0.00048287)
(-0.00158027 0.00114891 0.000482869)
(-0.00175577 0.00085704 0.000482867)
(-0.00187792 0.000539134 0.000482865)
(-0.00194301 0.000204848 0.000482865)
(-0.00194906 -0.000135664 0.000482865)
(-0.00189589 -0.000472056 0.000482867)
(-0.00178512 -0.000794101 0.000482869)
(-0.0016201 -0.00109202 0.00048287)
(-0.00140586 -0.00135676 0.00048287)
(-0.00114891 -0.00158027 0.000482869)
(-0.00085704 -0.00175577 0.000482867)
(-0.000539134 -0.00187792 0.000482865)
(-0.000204847 -0.00194301 0.000482865)
(0.000135664 -0.00194906 0.000482865)
(0.000472056 -0.00189589 0.000482867)
(0.000794101 -0.00178512 0.000482869)
(0.00109202 -0.0016201 0.00048287)
(0.00135676 -0.00140586 0.00048287)
(0.00158027 -0.00114891 0.000482869)
(0.00175577 -0.00085704 0.000482867)
(0.00187792 -0.000539134 0.000482865)
(0.00194301 -0.000204848 0.000482865)
(0.00194906 0.000135664 0.000482865)
(0.00189589 0.000472056 0.000482867)
(0.00178512 0.000794101 0.000482869)
(0.0016201 0.00109202 0.00048287)
(0.00140586 0.00135676 0.00048287)
(0.00114891 0.00158027 0.000482869)
(0.00085704 0.00175577 0.000482867)
(0.000539135 0.00187792 0.000482865)
(1.68937e-05 0.00209776 0.000650765)
(-0.000347635 0.00206883 0.000650766)
(-0.0007016 0.00197703 0.000650766)
(-0.00103425 0.00182516 0.000650767)
(-0.00133547 0.00161784 0.000650768)
(-0.00159612 0.00136136 0.000650768)
(-0.00180827 0.00106351 0.000650768)
(-0.00196547 0.000733352 0.000650767)
(-0.00206296 0.000380909 0.000650766)
(-0.00209776 1.68936e-05 0.000650765)
(-0.00206882 -0.000347636 0.000650766)
(-0.00197703 -0.0007016 0.000650766)
(-0.00182516 -0.00103425 0.000650767)
(-0.00161784 -0.00133547 0.000650768)
(-0.00136136 -0.00159612 0.000650768)
(-0.00106351 -0.00180827 0.000650768)
(-0.000733352 -0.00196547 0.000650767)
(-0.000380909 -0.00206296 0.000650766)
(-1.68935e-05 -0.00209776 0.000650765)
(0.000347636 -0.00206882 0.000650766)
(0.000701601 -0.00197703 0.000650766)
(0.00103425 -0.00182516 0.000650767)
(0.00133547 -0.00161784 0.000650768)
(0.00159612 -0.00136136 0.000650768)
(0.00180827 -0.00106351 0.000650768)
(0.00196547 -0.000733352 0.000650767)
(0.00206296 -0.000380909 0.000650766)
(0.00209776 -1.68936e-05 0.000650765)
(0.00206883 0.000347636 0.000650766)
(0.00197703 0.0007016 0.000650766)
(0.00182516 0.00103425 0.000650767)
(0.00161784 0.00133547 0.000650768)
(0.00136136 0.00159612 0.000650768)
(0.00106351 0.00180827 0.000650768)
(0.000733352 0.00196547 0.000650767)
(0.000380909 0.00206296 0.000650766)
(-0.000199834 0.00224142 0.000804733)
(-0.000586017 0.00217267 0.000804733)
(-0.000954393 0.0020379 0.000804733)
(-0.00129377 0.00184122 0.000804733)
(-0.00159384 0.00158858 0.000804734)
(-0.00184548 0.00128768 0.000804734)
(-0.00204105 0.000947652 0.000804734)
(-0.0021746 0.000578829 0.000804734)
(-0.00224207 0.000192422 0.000804733)
(-0.00224142 -0.000199834 0.000804733)
(-0.00217267 -0.000586017 0.000804733)
(-0.0020379 -0.000954394 0.000804733)
(-0.00184122 -0.00129377 0.000804733)
(-0.00158858 -0.00159384 0.000804734)
(-0.00128768 -0.00184548 0.000804734)
(-0.000947652 -0.00204105 0.000804734)
(-0.000578829 -0.0021746 0.000804734)
(-0.000192422 -0.00224207 0.000804733)
(0.000199834 -0.00224142 0.000804733)
(0.000586017 -0.00217267 0.000804733)
(0.000954394 -0.0020379 0.000804733)
(0.00129377 -0.00184122 0.000804733)
(0.00159384 -0.00158858 0.000804734)
(0.00184548 -0.00128768 0.000804734)
(0.00204105 -0.000947652 0.000804734)
(0.0021746 -0.000578829 0.000804734)
(0.00224207 -0.000192422 0.000804733)
(0.00224142 0.000199834 0.000804733)
(0.00217267 0.000586017 0.000804733)
(0.0020379 0.000954394 0.000804733)
(0.00184122 0.00129377 0.000804733)
(0.00158858 0.00159384 0.000804734)
(0.00128768 0.00184548 0.000804734)
(0.000947652 0.00204105 0.000804734)
(0.000578829 0.0021746 0.000804734)
(0.000192422 0.00224207 0.000804733)
(-0.000434257 0.00235622 0.000937563)
(-0.000836811 0.00224502 0.000937562)
(-0.00121394 0.0020656 0.000937563)
(-0.00155419 0.00182342 0.000937562)
(-0.00184721 0.00152584 0.000937562)
(-0.00208411 0.00118189 0.000937563)
(-0.00225767 0.000802035 0.000937562)
(-0.00236265 0.000397809 0.000937562)
(-0.00239583 -1.85062e-05 0.000937563)
(-0.00235622 -0.000434257 0.000937563)
(-0.00224502 -0.000836811 0.000937562)
(-0.0020656 -0.00121394 0.000937563)
(-0.00182342 -0.00155419 0.000937562)
(-0.00152584 -0.00184721 0.000937562)
(-0.00118189 -0.00208411 0.000937563)
(-0.000802035 -0.00225767 0.000937562)
(-0.000397809 -0.00236265 0.000937562)
(1.85063e-05 -0.00239583 0.000937563)
(0.000434257 -0.00235622 0.000937563)
(0.000836811 -0.00224502 0.000937562)
(0.00121394 -0.0020656 0.000937563)
(0.00155419 -0.00182342 0.000937562)
(0.00184721 -0.00152584 0.000937562)
(0.00208411 -0.00118189 0.000937563)
(0.00225767 -0.000802035 0.000937562)
(0.00236265 -0.000397809 0.000937563)
(0.00239583 1.85063e-05 0.000937563)
(0.00235622 0.000434257 0.000937563)
(0.00224502 0.000836811 0.000937562)
(0.0020656 0.00121394 0.000937563)
(0.00182342 0.00155419 0.000937562)
(0.00152584 0.00184721 0.000937562)
(0.00118189 0.00208411 0.000937563)
(0.000802035 0.00225767 0.000937562)
(0.000397809 0.00236265 0.000937563)
(-1.85062e-05 0.00239583 0.000937563)
(1.42012e-05 0.00258322 0.000759337)
(-0.00043459 0.00254644 0.000759338)
(-0.000870172 0.00243229 0.000759338)
(-0.00127931 0.00224424 0.000759339)
(-0.00164958 0.00198799 0.00075934)
(-0.00196973 0.00167134 0.000759341)
(-0.00223004 0.00130391 0.000759342)
(-0.00242258 0.000896857 0.00075934)
(-0.00254151 0.000462556 0.000759339)
(-0.00258322 1.42011e-05 0.000759337)
(-0.00254644 -0.00043459 0.000759337)
(-0.00243229 -0.000870172 0.000759338)
(-0.00224424 -0.00127931 0.000759339)
(-0.00198799 -0.00164958 0.00075934)
(-0.00167134 -0.00196973 0.000759341)
(-0.00130391 -0.00223004 0.000759342)
(-0.000896857 -0.00242258 0.00075934)
(-0.000462555 -0.00254151 0.000759339)
(-1.4201e-05 -0.00258322 0.000759337)
(0.000434591 -0.00254644 0.000759338)
(0.000870172 -0.00243229 0.000759338)
(0.00127931 -0.00224424 0.000759339)
(0.00164958 -0.00198799 0.00075934)
(0.00196973 -0.00167134 0.000759341)
(0.00223004 -0.00130391 0.000759342)
(0.00242258 -0.000896857 0.00075934)
(0.00254151 -0.000462556 0.00075934)
(0.00258322 -1.42011e-05 0.000759337)
(0.00254644 0.00043459 0.000759338)
(0.00243229 0.000870172 0.000759338)
(0.00224424 0.00127931 0.000759339)
(0.00198799 0.00164958 0.00075934)
(0.00167134 0.00196973 0.000759341)
(0.00130391 0.00223004 0.000759342)
(0.000896857 0.00242258 0.00075934)
(0.000462556 0.00254151 0.00075934)
(-0.000169565 0.00271941 0.000933255)
(-0.00063921 0.00264865 0.000933254)
(-0.00108943 0.00249742 0.000933256)
(-0.00150655 0.0022703 0.000933256)
(-0.0018779 0.0019742 0.000933256)
(-0.00219218 0.00161811 0.000933257)
(-0.00243986 0.00121286 0.000933257)
(-0.0026134 0.000770755 0.000933257)
(-0.00270754 0.000305233 0.000933255)
(-0.00271941 -0.000169565 0.000933255)
(-0.00264865 -0.00063921 0.000933254)
(-0.00249742 -0.00108943 0.000933256)
(-0.0022703 -0.00150655 0.000933256)
(-0.0019742 -0.0018779 0.000933256)
(-0.00161811 -0.00219218 0.000933257)
(-0.00121286 -0.00243986 0.000933256)
(-0.000770754 -0.0026134 0.000933257)
(-0.000305233 -0.00270754 0.000933255)
(0.000169565 -0.00271941 0.000933255)
(0.00063921 -0.00264865 0.000933254)
(0.00108943 -0.00249742 0.000933256)
(0.00150655 -0.0022703 0.000933256)
(0.0018779 -0.0019742 0.000933256)
(0.00219218 -0.00161811 0.000933258)
(0.00243986 -0.00121286 0.000933257)
(0.0026134 -0.000770755 0.000933257)
(0.00270754 -0.000305233 0.000933255)
(0.00271941 0.000169565 0.000933255)
(0.00264865 0.00063921 0.000933254)
(0.00249742 0.00108943 0.000933256)
(0.0022703 0.00150655 0.000933256)
(0.0019742 0.0018779 0.000933256)
(0.00161811 0.00219218 0.000933258)
(0.00121286 0.00243986 0.000933257)
(0.000770755 0.0026134 0.000933257)
(0.000305233 0.00270754 0.000933255)
(-0.000377286 0.00284446 0.00109331)
(-0.000865489 0.00273573 0.00109331)
(-0.0013274 0.00254388 0.00109331)
(-0.00174897 0.00227473 0.00109331)
(-0.0021174 0.00193647 0.00109331)
(-0.00242149 0.00153937 0.00109331)
(-0.00265202 0.00109549 0.00109331)
(-0.00280196 0.000618331 0.00109331)
(-0.00286676 0.000122381 0.00109331)
(-0.00284446 -0.000377286 0.00109331)
(-0.00273573 -0.000865489 0.00109331)
(-0.00254388 -0.0013274 0.00109331)
(-0.00227473 -0.00174897 0.00109331)
(-0.00193647 -0.0021174 0.00109331)
(-0.00153937 -0.00242149 0.00109331)
(-0.00109549 -0.00265202 0.00109331)
(-0.000618331 -0.00280196 0.00109331)
(-0.000122381 -0.00286676 0.00109331)
(0.000377286 -0.00284446 0.00109331)
(0.000865489 -0.00273573 0.00109331)
(0.0013274 -0.00254388 0.00109331)
(0.00174897 -0.00227473 0.00109331)
(0.0021174 -0.00193647 0.00109331)
(0.00242149 -0.00153937 0.00109331)
(0.00265202 -0.00109549 0.00109331)
(0.00280196 -0.000618331 0.00109331)
(0.00286676 -0.000122381 0.00109331)
(0.00284446 0.000377286 0.00109331)
(0.00273573 0.000865489 0.00109331)
(0.00254388 0.0013274 0.00109331)
(0.00227473 0.00174897 0.00109331)
(0.00193647 0.0021174 0.00109331)
(0.00153937 0.00242149 0.00109331)
(0.00109549 0.00265202 0.00109331)
(0.000618331 0.00280196 0.00109331)
(0.000122381 0.00286676 0.00109331)
(-0.000600911 0.00294138 0.00123365)
(-0.00110255 0.00279235 0.00123365)
(-0.00157068 0.00255847 0.00123365)
(-0.0019911 0.00224686 0.00123365)
(-0.00235101 0.00186697 0.00123365)
(-0.00263949 0.00143036 0.00123365)
(-0.00284777 0.000950287 0.00123365)
(-0.00296952 0.000441341 0.00123365)
(-0.00300104 -8.10165e-05 0.00123365)
(-0.00294138 -0.000600911 0.00123365)
(-0.00279235 -0.00110255 0.00123365)
(-0.00255847 -0.00157068 0.00123365)
(-0.00224686 -0.0019911 0.00123365)
(-0.00186697 -0.00235101 0.00123365)
(-0.00143036 -0.00263949 0.00123365)
(-0.000950287 -0.00284777 0.00123365)
(-0.000441341 -0.00296952 0.00123365)
(8.10166e-05 -0.00300104 0.00123365)
(0.000600911 -0.00294138 0.00123365)
(0.00110255 -0.00279235 0.00123365)
(0.00157068 -0.00255847 0.00123365)
(0.0019911 -0.00224686 0.00123365)
(0.00235101 -0.00186697 0.00123365)
(0.00263949 -0.00143036 0.00123365)
(0.00284777 -0.000950287 0.00123365)
(0.00296952 -0.000441341 0.00123365)
(0.00300104 8.10165e-05 0.00123365)
(0.00294138 0.000600911 0.00123365)
(0.00279235 0.00110255 0.00123365)
(0.00255847 0.00157068 0.00123365)
(0.00224686 0.0019911 0.00123365)
(0.00186697 0.00235101 0.00123365)
(0.00143036 0.00263949 0.00123365)
(0.000950287 0.00284777 0.00123365)
(0.000441341 0.00296952 0.00123365)
(-8.10164e-05 0.00300104 0.00123365)
(-0.000257361 0.00315616 0.00102379)
(-0.000801514 0.00306352 0.00102379)
(-0.00132131 0.0028778 0.00102379)
(-0.00180096 0.00260463 0.00102379)
(-0.00222589 0.00225233 0.00102379)
(-0.00258319 0.00183159 0.00102379)
(-0.00286199 0.0013552 0.00102379)
(-0.00305384 0.000837627 0.00102379)
(-0.0031529 0.000294609 0.00102379)
(-0.00315616 -0.000257362 0.00102379)
(-0.00306352 -0.000801514 0.00102379)
(-0.0028778 -0.00132131 0.00102379)
(-0.00260463 -0.00180096 0.00102379)
(-0.00225233 -0.00222589 0.00102379)
(-0.00183159 -0.00258319 0.00102379)
(-0.0013552 -0.00286199 0.00102379)
(-0.000837627 -0.00305384 0.00102379)
(-0.000294609 -0.0031529 0.00102379)
(0.000257362 -0.00315616 0.00102379)
(0.000801514 -0.00306352 0.00102379)
(0.00132131 -0.0028778 0.00102379)
(0.00180096 -0.00260463 0.00102379)
(0.00222589 -0.00225233 0.00102379)
(0.00258319 -0.00183159 0.00102379)
(0.00286199 -0.0013552 0.00102379)
(0.00305384 -0.000837627 0.00102379)
(0.0031529 -0.000294609 0.00102379)
(0.00315616 0.000257362 0.00102379)
(0.00306352 0.000801514 0.00102379)
(0.0028778 0.00132131 0.00102379)
(0.00260463 0.00180096 0.00102379)
(0.00225233 0.00222589 0.00102379)
(0.00183159 0.00258319 0.00102379)
(0.0013552 0.00286199 0.00102379)
(0.000837628 0.00305384 0.00102379)
(0.000294609 0.0031529 0.00102379)
(-0.000422754 0.00325741 0.00119439)
(-0.000981974 0.00313451 0.00119439)
(-0.00151136 0.00291637 0.00119439)
(-0.00199482 0.00260962 0.00119439)
(-0.00241767 0.00222358 0.00119439)
(-0.00276706 0.00176998 0.00119439)
(-0.00303237 0.00126259 0.00119439)
(-0.00320555 0.000716842 0.00119439)
(-0.00328133 0.000149312 0.00119439)
(-0.00325741 -0.000422755 0.00119439)
(-0.00313451 -0.000981974 0.00119439)
(-0.00291637 -0.00151136 0.00119439)
(-0.00260962 -0.00199482 0.00119439)
(-0.00222358 -0.00241767 0.00119439)
(-0.00176998 -0.00276706 0.00119439)
(-0.00126259 -0.00303237 0.00119439)
(-0.000716842 -0.00320555 0.00119439)
(-0.000149312 -0.00328133 0.00119439)
(0.000422755 -0.00325741 0.00119439)
(0.000981974 -0.00313451 0.00119439)
(0.00151136 -0.00291637 0.00119439)
(0.00199482 -0.00260962 0.00119439)
(0.00241767 -0.00222358 0.00119439)
(0.00276706 -0.00176998 0.00119439)
(0.00303237 -0.00126259 0.00119439)
(0.00320555 -0.000716842 0.00119439)
(0.00328133 -0.000149312 0.00119439)
(0.00325741 0.000422755 0.00119439)
(0.00313451 0.000981974 0.00119439)
(0.00291637 0.00151136 0.00119439)
(0.00260962 0.00199482 0.00119439)
(0.00222358 0.00241767 0.00119439)
(0.00176998 0.00276706 0.00119439)
(0.00126259 0.00303237 0.00119439)
(0.000716842 0.00320555 0.00119439)
(0.000149312 0.00328133 0.00119439)
(-0.000607938 0.00334893 0.00135139)
(-0.00118024 0.00319249 0.00135139)
(-0.00171668 0.00293904 0.00135139)
(-0.00220095 0.00259629 0.00135139)
(-0.00261836 0.00217465 0.00135139)
(-0.0029562 0.00168694 0.00135139)
(-0.00320423 0.00114798 0.00135139)
(-0.00335489 0.000574129 0.00135139)
(-0.00340362 -1.71657e-05 0.00135139)
(-0.00334893 -0.000607938 0.00135139)
(-0.00319249 -0.00118024 0.00135139)
(-0.00293904 -0.00171668 0.00135139)
(-0.00259629 -0.00220095 0.00135139)
(-0.00217465 -0.00261836 0.00135139)
(-0.00168694 -0.0029562 0.00135139)
(-0.00114798 -0.00320423 0.00135139)
(-0.000574129 -0.00335489 0.00135139)
(1.71659e-05 -0.00340362 0.00135139)
(0.000607939 -0.00334893 0.00135139)
(0.00118024 -0.00319249 0.00135139)
(0.00171668 -0.00293904 0.00135139)
(0.00220095 -0.00259629 0.00135139)
(0.00261836 -0.00217465 0.00135139)
(0.0029562 -0.00168694 0.00135139)
(0.00320423 -0.00114798 0.00135139)
(0.00335489 -0.000574129 0.00135139)
(0.00340362 1.71658e-05 0.00135139)
(0.00334893 0.000607938 0.00135139)
(0.00319249 0.00118024 0.00135139)
(0.00293904 0.00171668 0.00135139)
(0.00259629 0.00220095 0.00135139)
(0.00217465 0.00261836 0.00135139)
(0.00168695 0.0029562 0.00135139)
(0.00114798 0.00320423 0.00135139)
(0.000574129 0.00335489 0.00135139)
(-1.71656e-05 0.00340362 0.00135139)
(-0.000806891 0.00341371 0.00148949)
(-0.00138742 0.00322174 0.00148949)
(-0.00192579 0.00293187 0.00148949)
(-0.00240564 0.00255292 0.00148949)
(-0.00281241 0.0020964 0.00148949)
(-0.00313372 0.00157618 0.00148949)
(-0.00335981 0.00100807 0.00148949)
(-0.00348382 0.000409328 0.00148949)
(-0.00350197 -0.000201849 0.00148949)
(-0.00341371 -0.000806891 0.00148949)
(-0.00322174 -0.00138742 0.00148949)
(-0.00293187 -0.00192579 0.00148949)
(-0.00255292 -0.00240564 0.00148949)
(-0.0020964 -0.00281241 0.00148949)
(-0.00157618 -0.00313372 0.00148949)
(-0.00100807 -0.00335981 0.00148949)
(-0.000409328 -0.00348382 0.00148949)
(0.000201849 -0.00350197 0.00148949)
(0.000806891 -0.00341371 0.00148949)
(0.00138742 -0.00322174 0.00148949)
(0.00192579 -0.00293187 0.00148949)
(0.00240565 -0.00255292 0.00148949)
(0.00281241 -0.0020964 0.00148949)
(0.00313372 -0.00157618 0.00148949)
(0.00335981 -0.00100807 0.00148949)
(0.00348382 -0.000409328 0.00148949)
(0.00350197 0.000201849 0.00148949)
(0.00341371 0.000806891 0.00148949)
(0.00322174 0.00138742 0.00148949)
(0.00293187 0.00192579 0.00148949)
(0.00255292 0.00240564 0.00148949)
(0.0020964 0.00281241 0.00148949)
(0.00157618 0.00313372 0.00148949)
(0.00100807 0.00335981 0.00148949)
(0.000409329 0.00348382 0.00148949)
(-0.000201849 0.00350197 0.00148949)
(-0.000564739 0.00363025 0.00127058)
(-0.00118655 0.00347704 0.00127058)
(-0.0017723 0.00321817 0.00127058)
(-0.0023042 0.00286152 0.00127058)
(-0.0027661 0.00241793 0.00127058)
(-0.00314394 0.00190087 0.00127058)
(-0.00342626 0.00132605 0.00127058)
(-0.00360447 0.000710938 0.00127058)
(-0.00367317 7.42267e-05 0.00127058)
(-0.00363025 -0.000564739 0.00127058)
(-0.00347704 -0.00118655 0.00127058)
(-0.00321817 -0.0017723 0.00127058)
(-0.00286152 -0.0023042 0.00127058)
(-0.00241793 -0.0027661 0.00127058)
(-0.00190087 -0.00314394 0.00127058)
(-0.00132605 -0.00342626 0.00127058)
(-0.000710938 -0.00360447 0.00127058)
(-7.42264e-05 -0.00367317 0.00127058)
(0.000564739 -0.00363025 0.00127058)
(0.00118655 -0.00347704 0.00127058)
(0.0017723 -0.00321817 0.00127058)
(0.0023042 -0.00286152 0.00127058)
(0.0027661 -0.00241793 0.00127058)
(0.00314394 -0.00190087 0.00127058)
(0.00342626 -0.00132605 0.00127058)
(0.00360447 -0.000710938 0.00127058)
(0.00367317 -7.42266e-05 0.00127058)
(0.00363025 0.000564739 0.00127058)
(0.00347704 0.00118655 0.00127058)
(0.00321817 0.0017723 0.00127058)