/*--------------------------------*- C++ -*----------------------------------*\
| =========                 |                                                 |
| \\      /  F ield         | OpenFOAM: The Open Source CFD Toolbox           |
|  \\    /   O peration     | Version:  2312                                  |
|   \\  /    A nd           | Website:  www.openfoam.com                      |
|    \\/     M anipulation  |                                                 |
\*---------------------------------------------------------------------------*/
FoamFile
{
    version     2.0;
    format      ascii;
    arch        "LSB;label=32;scalar=64";
    class       volScalarField;
    location    "1";
    object      sigmaHyd;
}
// * * * * * * * * * * * * * * * * * * * * * * * * * * * * * * * * * * * * * //

dimensions      [1 -1 -2 0 0 0 0];

internalField   nonuniform List<scalar> 
1620
(
-4317.68
-4317.61
-4317.58
-4317.83
-4317.89
-4317.78
-4317.74
-4317.73
-4317.69
-4317.67
-4317.61
-4317.58
-4317.82
-4317.89
-4317.78
-4317.74
-4317.73
-4317.69
-4317.67
-4317.61
-4317.58
-4317.83
-4317.89
-4317.78
-4317.75
-4317.74
-4317.69
-4317.68
-4317.62
-4317.58
-4317.83
-4317.9
-4317.78
-4317.75
-4317.73
-4317.69
-29738.9
-29738.8
-29738.8
-29738.8
-29738.9
-29739
-29738.8
-29738.8
-29738.9
-29738.9
-29738.8
-29738.7
-29738.8
-29738.9
-29739
-29738.8
-29738.8
-29738.9
-29738.9
-29738.8
-29738.7
-29738.8
-29738.9
-29739
-29738.8
-29738.8
-29738.9
-29738.9
-29738.8
-29738.8
-29738.8
-29738.9
-29739
-29738.8
-29738.8
-29738.9
-59522.7
-59522.8
-59523
-59522.8
-59522.9
-59522.7
-59522.8
-59522.9
-59522.8
-59522.7
-59522.7
-59523
-59522.8
-59522.8
-59522.7
-59522.8
-59522.9
-59522.8
-59522.7
-59522.7
-59523
-59522.8
-59522.8
-59522.7
-59522.8
-59522.9
-59522.8
-59522.7
-59522.8
-59523
-59522.8
-59522.9
-59522.7
-59522.8
-59522.9
-59522.8
10169.9
10169.8
10169.9
10169.9
10170
10169.9
10169.7
10169.8
10169.9
10169.9
10169.8
10169.9
10169.9
10170
10169.9
10169.7
10169.8
10169.9
10169.9
10169.8
10169.9
10169.9
10170
10169.9
10169.7
10169.8
10169.9
10169.9
10169.8
10169.9
10169.9
10170
10169.9
10169.7
10169.8
10169.9
-9255.07
-9254.98
-9255.08
-9255.08
-9255.07
-9255.29
-9255
-9255.03
-9255.05
-9255.07
-9254.98
-9255.08
-9255.08
-9255.07
-9255.29
-9255
-9255.03
-9255.05
-9255.07
-9254.98
-9255.08
-9255.08
-9255.07
-9255.29
-9255
-9255.03
-9255.05
-9255.07
-9254.98
-9255.08
-9255.08
-9255.07
-9255.29
-9255
-9255.03
-9255.05
-37462.1
-37462.1
-37462.1
-37462.1
-37462
-37461.7
-37462
-37462
-37462.1
-37462.1
-37462.1
-37462.1
-37462.1
-37462
-37461.7
-37462
-37462
-37462.1
-37462.1
-37462.1
-37462.1
-37462.1
-37462
-37461.7
-37462
-37462
-37462.1
-37462.1
-37462.1
-37462.1
-37462.1
-37462
-37461.7
-37462
-37462
-37462.1
6114.46
6114.31
6114.44
6114.42
6114.58
6114.55
6114.3
6114.41
6114.26
6114.46
6114.31
6114.44
6114.42
6114.58
6114.55
6114.3
6114.41
6114.26
6114.46
6114.31
6114.44
6114.42
6114.58
6114.55
6114.3
6114.41
6114.26
6114.46
6114.31
6114.44
6114.42
6114.58
6114.55
6114.3
6114.41
6114.26
-9220.4
-9220.3
-9220.37
-9220.18
-9220.21
-9220.41
-9220.28
-9220.51
-9220.29
-9220.4
-9220.3
-9220.36
-9220.18
-9220.21
-9220.41
-9220.28
-9220.51
-9220.29
-9220.4
-9220.3
-9220.36
-9220.18
-9220.21
-9220.41
-9220.28
-9220.51
-9220.29
-9220.4
-9220.3
-9220.37
-9220.18
-9220.21
-9220.41
-9220.28
-9220.51
-9220.29
-36455.2
-36455.2
-36455
-36455.1
-36455.2
-36455.2
-36455.3
-36455
-36455.1
-36455.2
-36455.2
-36455
-36455.1
-36455.2
-36455.2
-36455.3
-36455
-36455.1
-36455.2
-36455.2
-36455
-36455.1
-36455.2
-36455.2
-36455.3
-36455
-36455.1
-36455.2
-36455.2
-36455
-36455.1
-36455.2
-36455.2
-36455.3
-36455
-36455.1
5428.59
5428.64
5428.54
5428.72
5428.76
5428.74
5428.82
5428.6
5428.66
5428.59
5428.64
5428.54
5428.72
5428.76
5428.74
5428.82
5428.6
5428.66
5428.59
5428.64
5428.54
5428.72
5428.76
5428.74
5428.82
5428.6
5428.66
5428.59
5428.64
5428.54
5428.72
5428.76
5428.74
5428.82
5428.6
5428.66
-8567.73
-8567.77
-8567.78
-8567.7
-8567.83
-8567.73
-8567.8
-8567.78
-8567.75
-8567.73
-8567.77
-8567.78
-8567.7
-8567.83
-8567.73
-8567.8
-8567.78
-8567.75
-8567.73
-8567.77
-8567.78
-8567.7
-8567.83
-8567.73
-8567.8
-8567.78
-8567.75
-8567.73
-8567.77
-8567.78
-8567.7
-8567.83
-8567.73
-8567.8
-8567.78
-8567.75
-33665.9
-33666
-33665.9
-33666
-33666.1
-33665.9
-33666.1
-33665.9
-33665.9
-33665.9
-33666
-33665.9
-33666
-33666
-33665.9
-33666.1
-33665.9
-33665.9
-33665.9
-33666
-33665.9
-33666
-33666.1
-33665.9
-33666.1
-33665.9
-33665.9
-33665.9
-33666
-33665.9
-33666
-33666.1
-33665.9
-33666.1
-33665.9
-33665.9
4513.62
4513.72
4513.49
4513.65
4513.54
4513.59
4513.83
4513.52
4513.66
4513.62
4513.72
4513.49
4513.65
4513.54
4513.59
4513.83
4513.52
4513.66
4513.62
4513.72
4513.49
4513.65
4513.54
4513.59
4513.83
4513.52
4513.66
4513.62
4513.72
4513.49
4513.65
4513.54
4513.59
4513.83
4513.52
4513.66
-8630.81
-8631.03
-8630.78
-8630.94
-8630.9
-8630.8
-8630.99
-8630.81
-8630.9
-8630.81
-8631.03
-8630.78
-8630.94
-8630.9
-8630.8
-8630.98
-8630.81
-8630.9
-8630.81
-8631.03
-8630.78
-8630.94
-8630.9
-8630.8
-8630.99
-8630.81
-8630.9
-8630.81
-8631.03
-8630.78
-8630.94
-8630.9
-8630.8
-8630.99
-8630.81
-8630.9
-31702.1
-31701.9
-31702
-31702.1
-31702
-31702.1
-31702.1
-31702.1
-31701.9
-31702.1
-31701.9
-31702
-31702.1
-31702
-31702.1
-31702.1
-31702.1
-31701.9
-31702.1
-31701.9
-31702
-31702.1
-31702
-31702.1
-31702.1
-31702.1
-31701.9
-31702.1
-31701.9
-31702
-31702.1
-31702
-31702.1
-31702.1
-31702.1
-31701.9
3155.56
3155.67
3155.52
3155.65
3155.56
3155.57
3155.63
3155.5
3155.65
3155.56
3155.67
3155.52
3155.65
3155.56
3155.57
3155.63
3155.5
3155.65
3155.56
3155.67
3155.52
3155.65
3155.56
3155.57
3155.63
3155.5
3155.65
3155.56
3155.67
3155.52
3155.65
3155.56
3155.57
3155.63
3155.5
3155.65
-8968.43
-8968.59
-8968.47
-8968.52
-8968.51
-8968.52
-8968.57
-8968.31
-8968.59
-8968.43
-8968.59
-8968.47
-8968.52
-8968.51
-8968.52
-8968.57
-8968.31
-8968.59
-8968.43
-8968.59
-8968.47
-8968.52
-8968.51
-8968.52
-8968.57
-8968.31
-8968.59
-8968.43
-8968.59
-8968.47
-8968.52
-8968.51
-8968.52
-8968.57
-8968.31
-8968.6
-29808.9
-29808.8
-29809.1
-29808.9
-29809
-29809.2
-29809
-29809.1
-29809
-29808.9
-29808.8
-29809.1
-29808.9
-29809
-29809.2
-29809
-29809.1
-29809
-29808.9
-29808.8
-29809.1
-29808.9
-29809
-29809.2
-29809
-29809.1
-29809
-29808.9
-29808.8
-29809.1
-29808.9
-29809
-29809.2
-29809
-29809.1
-29809
796.163
796.251
795.952
796.374
796.137
795.992
796.249
795.985
796.134
796.163
796.252
795.952
796.374
796.138
795.992
796.25
795.986
796.135
796.164
796.253
795.953
796.376
796.139
795.994
796.251
795.987
796.136
796.164
796.253
795.953
796.375
796.138
795.993
796.25
795.986
796.134
-9533.57
-9533.98
-9533.65
-9533.91
-9533.82
-9533.55
-9533.86
-9533.64
-9533.9
-9533.57
-9533.98
-9533.65
-9533.91
-9533.82
-9533.55
-9533.85
-9533.64
-9533.9
-9533.57
-9533.97
-9533.65
-9533.91
-9533.82
-9533.55
-9533.85
-9533.64
-9533.9
-9533.57
-9533.98
-9533.65
-9533.91
-9533.82
-9533.55
-9533.86
-9533.64
-9533.9
-27599.8
-27599.5
-27599.8
-27599.7
-27599.7
-27599.8
-27599.6
-27599.8
-27599.5
-27599.8
-27599.5
-27599.8
-27599.7
-27599.7
-27599.8
-27599.6
-27599.8
-27599.5
-27599.8
-27599.5
-27599.8
-27599.7
-27599.7
-27599.8
-27599.6
-27599.8
-27599.5
-27599.8
-27599.5
-27599.8
-27599.7
-27599.7
-27599.8
-27599.6
-27599.8
-27599.5
-2766.4
-2766.52
-2766.61
-2766.41
-2766.62
-2766.61
-2766.55
-2766.61
-2766.63
-2766.41
-2766.52
-2766.61
-2766.41
-2766.62
-2766.61
-2766.55
-2766.61
-2766.63
-2766.4
-2766.52
-2766.6
-2766.41
-2766.62
-2766.61
-2766.54
-2766.61
-2766.63
-2766.4
-2766.52
-2766.6
-2766.41
-2766.62
-2766.61
-2766.55
-2766.61
-2766.63
-10224.1
-10224.1
-10223.9
-10224.2
-10224
-10223.9
-10224
-10224
-10223.9
-10224.1
-10224.1
-10223.9
-10224.2
-10224
-10223.9
-10224
-10224
-10223.9
-10224.1
-10224.1
-10223.9
-10224.2
-10224
-10223.9
-10224
-10224
-10223.9
-10224.1
-10224.1
-10223.9
-10224.2
-10224
-10223.9
-10224
-10224
-10223.9
-24595.5
-24595.4
-24595.4
-24595.4
-24595.5
-24595.6
-24595.5
-24595.5
-24595.5
-24595.5
-24595.4
-24595.4
-24595.4
-24595.5
-24595.6
-24595.5
-24595.5
-24595.5
-24595.5
-24595.4
-24595.4
-24595.4
-24595.5
-24595.6
-24595.5
-24595.5
-24595.5
-24595.5
-24595.4
-24595.4
-24595.4
-24595.5
-24595.6
-24595.5
-24595.5
-24595.5
-7335.34
-7335.28
-7335.18
-7335.24
-7335.34
-7335.39
-7335.39
-7335.29
-7335.19
-7335.34
-7335.28
-7335.18
-7335.24
-7335.34
-7335.38
-7335.39
-7335.29
-7335.19
-7335.34
-7335.28
-7335.18
-7335.24
-7335.34
-7335.38
-7335.39
-7335.29
-7335.19
-7335.34
-7335.28
-7335.18
-7335.24
-7335.34
-7335.38
-7335.39
-7335.29
-7335.19
-10887.6
-10887.5
-10887.6
-10887.4
-10887.5
-10887.6
-10887.4
-10887.6
-10887.6
-10887.6
-10887.5
-10887.6
-10887.4
-10887.5
-10887.6
-10887.4
-10887.6
-10887.6
-10887.6
-10887.5
-10887.6
-10887.4
-10887.5
-10887.6
-10887.4
-10887.6
-10887.6
-10887.6
-10887.5
-10887.6
-10887.4
-10887.5
-10887.6
-10887.4
-10887.6
-10887.6
-20439.5
-20439.7
-20439.6
-20439.8
-20439.8
-20439.7
-20439.6
-20439.6
-20439.8
-20439.5
-20439.7
-20439.6
-20439.8
-20439.8
-20439.7
-20439.7
-20439.6
-20439.8
-20439.5
-20439.7
-20439.6
-20439.8
-20439.8
-20439.7
-20439.7
-20439.6
-20439.8
-20439.5
-20439.7
-20439.6
-20439.8
-20439.8
-20439.7
-20439.7
-20439.6
-20439.8
-12156.5
-12156.5
-12156.4
-12156.2
-12156.4
-12156.5
-12156.5
-12156.3
-12156.3
-12156.5
-12156.5
-12156.4
-12156.2
-12156.4
-12156.5
-12156.5
-12156.3
-12156.3
-12156.5
-12156.5
-12156.4
-12156.2
-12156.4
-12156.5
-12156.5
-12156.3
-12156.3
-12156.5
-12156.5
-12156.4
-12156.2
-12156.4
-12156.5
-12156.5
-12156.3
-12156.3
-11292.1
-11292
-11292.2
-11292.2
-11292.1
-11292.3
-11292.1
-11292.1
-11292.2
-11292.1
-11292
-11292.2
-11292.2
-11292.1
-11292.3
-11292.1
-11292.1
-11292.2
-11292.1
-11292
-11292.2
-11292.2
-11292.1
-11292.3
-11292.1
-11292.1
-11292.2
-11292.1
-11292
-11292.2
-11292.2
-11292.1
-11292.3
-11292.1
-11292.1
-11292.2
-15117.8
-15117.9
-15117.9
-15118
-15117.8
-15117.8
-15117.8
-15117.8
-15118
-15117.8
-15117.9
-15117.9
-15118
-15117.8
-15117.8
-15117.8
-15117.8
-15118
-15117.8
-15117.9
-15117.9
-15118
-15117.9
-15117.8
-15117.8
-15117.8
-15118
-15117.8
-15117.9
-15117.9
-15118
-15117.9
-15117.8
-15117.8
-15117.8
-15118
-15801.4
-15801.4
-15801.2
-15801.3
-15801.3
-15801.4
-15801.3
-15801.5
-15801.4
-15801.4
-15801.4
-15801.2
-15801.3
-15801.3
-15801.4
-15801.3
-15801.4
-15801.4
-15801.4
-15801.4
-15801.2
-15801.3
-15801.3
-15801.4
-15801.3
-15801.4
-15801.4
-15801.4
-15801.4
-15801.2
-15801.3
-15801.3
-15801.4
-15801.3
-15801.4
-15801.4
-11102.8
-11102.6
-11102.8
-11102.8
-11102.8
-11102.8
-11102.8
-11102.9
-11102.7
-11102.8
-11102.6
-11102.8
-11102.8
-11102.8
-11102.8
-11102.8
-11102.9
-11102.7
-11102.8
-11102.6
-11102.8
-11102.8
-11102.8
-11102.8
-11102.8
-11102.9
-11102.7
-11102.8
-11102.6
-11102.8
-11102.8
-11102.8
-11102.8
-11102.8
-11102.9
-11102.7
-9390.17
-9390.38
-9390.21
-9390.38
-9390.29
-9390.3
-9390.44
-9390.19
-9390.33
-9390.17
-9390.39
-9390.21
-9390.38
-9390.29
-9390.31
-9390.45
-9390.2
-9390.33
-9390.17
-9390.4
-9390.22
-9390.38
-9390.29
-9390.31
-9390.45
-9390.2
-9390.34
-9390.17
-9390.4
-9390.22
-9390.38
-9390.29
-9390.31
-9390.45
-9390.2
-9390.34
-15973.4
-15973.2
-15973.1
-15973.3
-15973.3
-15973.3
-15973.2
-15973.4
-15973.7
-15973.4
-15973.2
-15973.1
-15973.3
-15973.3
-15973.3
-15973.2
-15973.4
-15973.7
-15973.4
-15973.2
-15973.1
-15973.3
-15973.3
-15973.3
-15973.2
-15973.4
-15973.7
-15973.4
-15973.2
-15973.1
-15973.3
-15973.3
-15973.3
-15973.2
-15973.4
-15973.7
-9686.79
-9686.69
-9686.85
-9686.97
-9686.86
-9686.9
-9686.9
-9686.97
-9686.81
-9686.78
-9686.69
-9686.85
-9686.97
-9686.86
-9686.9
-9686.9
-9686.97
-9686.81
-9686.78
-9686.69
-9686.85
-9686.97
-9686.86
-9686.9
-9686.9
-9686.98
-9686.81
-9686.79
-9686.69
-9686.85
-9686.97
-9686.86
-9686.9
-9686.9
-9686.98
-9686.81
-4913.4
-4913.62
-4913.46
-4913.49
-4913.44
-4913.55
-4913.39
-4913.24
-4913.27
-4913.39
-4913.62
-4913.47
-4913.49
-4913.45
-4913.55
-4913.4
-4913.24
-4913.28
-4913.39
-4913.63
-4913.48
-4913.5
-4913.45
-4913.55
-4913.4
-4913.24
-4913.28
-4913.4
-4913.63
-4913.48
-4913.5
-4913.45
-4913.55
-4913.4
-4913.24
-4913.28
-9261.67
-9261.27
-9261.59
-9261.95
-9261.38
-9261.29
-9261.96
-9262.07
-9262.22
-9261.67
-9261.27
-9261.58
-9261.95
-9261.37
-9261.29
-9261.95
-9262.06
-9262.21
-9261.67
-9261.26
-9261.58
-9261.95
-9261.37
-9261.29
-9261.96
-9262.07
-9262.22
-9261.67
-9261.27
-9261.59
-9261.95
-9261.38
-9261.29
-9261.95
-9262.06
-9262.21
-6480.56
-6480.48
-6480.55
-6480.51
-6480.54
-6480.51
-6480.45
-6480.52
-6480.44
-6480.55
-6480.48
-6480.56
-6480.51
-6480.54
-6480.51
-6480.46
-6480.52
-6480.45
-6480.56
-6480.48
-6480.56
-6480.51
-6480.54
-6480.51
-6480.46
-6480.52
-6480.45
-6480.56
-6480.48
-6480.56
-6480.51
-6480.54
-6480.51
-6480.46
-6480.52
-6480.45
-5097.67
-5098.1
-5097.91
-5097.96
-5097.82
-5097.83
-5097.87
-5097.43
-5097.6
-5097.67
-5098.1
-5097.92
-5097.97
-5097.83
-5097.84
-5097.87
-5097.43
-5097.61
-5097.67
-5098.1
-5097.92
-5097.97
-5097.83
-5097.84
-5097.88
-5097.43
-5097.6
-5097.67
-5098.1
-5097.92
-5097.97
-5097.83
-5097.84
-5097.88
-5097.44
-5097.6
52.0287
53.0602
58.4428
56.1699
49.9637
54.6609
58.82
53.2339
50.947
51.9721
53.0009
58.3983
56.1473
49.9608
54.6619
58.8129
53.2169
50.9298
51.9553
52.9883
58.3906
56.1412
49.9479
54.6471
58.7997
53.2098
50.9245
51.9476
52.9783
58.3739
56.1195
49.9334
54.6405
58.8058
53.2476
50.9916
958.382
958.155
957.435
957.83
957.879
958.045
957.325
957.883
958.126
958.384
958.156
957.432
957.826
957.869
958.037
957.321
957.876
958.118
958.376
958.15
957.427
957.822
957.871
958.035
957.317
957.876
958.123
958.383
958.158
957.436
957.833
957.881
958.044
957.324
957.879
958.123
-8471.87
-8472.36
-8472.32
-8472.06
-8472.25
-8472.29
-8472.14
-8471.56
-8471.74
-8471.86
-8472.36
-8472.31
-8472.06
-8472.25
-8472.3
-8472.14
-8471.56
-8471.74
-8471.86
-8472.36
-8472.32
-8472.06
-8472.25
-8472.29
-8472.14
-8471.56
-8471.73
-8471.85
-8472.34
-8472.3
-8472.04
-8472.24
-8472.29
-8472.14
-8471.57
-8471.75
49381
49390.4
49336.6
49350
49401.8
49367.4
49331.1
49372.4
49373
49381.2
49390.8
49336.8
49350.1
49401.9
49367.4
49331.2
49372.5
49373.1
49381.3
49390.8
49336.9
49350.1
49401.9
49367.4
49331.2
49372.4
49373.1
49381.2
49390.7
49336.8
49350.1
49401.9
49367.4
49331.2
49372.4
49372.9
27321.8
27318.4
27316.5
27316.6
27323.1
27315.3
27316.9
27319.2
27321.5
27321.9
27318.5
27316.6
27316.6
27323.1
27315.3
27316.9
27319.3
27321.6
27321.9
27318.5
27316.6
27316.6
27323.1
27315.3
27316.9
27319.3
27321.6
27321.9
27318.5
27316.6
27316.6
27323.1
27315.3
27316.9
27319.2
27321.5
-67383.7
-67382.8
-67385.7
-67382.7
-67384.8
-67382.9
-67385
-67381.7
-67383.5
-67383.7
-67382.8
-67385.7
-67382.8
-67384.8
-67382.9
-67385
-67381.7
-67383.5
-67383.7
-67382.8
-67385.7
-67382.8
-67384.8
-67382.9
-67385
-67381.7
-67383.5
-67383.7
-67382.8
-67385.7
-67382.8
-67384.8
-67382.9
-67385
-67381.8
-67383.5
)
;

boundaryField
{
    fixed
    {
        type            zeroGradient;
    }
    inside
    {
        type            zeroGradient;
    }
    outside
    {
        type            zeroGradient;
    }
}


// ************************************************************************* //
