/*--------------------------------*- C++ -*----------------------------------*\
| =========                 |                                                 |
| \\      /  F ield         | OpenFOAM: The Open Source CFD Toolbox           |
|  \\    /   O peration     | Version:  2312                                  |
|   \\  /    A nd           | Website:  www.openfoam.com                      |
|    \\/     M anipulation  |                                                 |
\*---------------------------------------------------------------------------*/
FoamFile
{
    version     2.0;
    format      ascii;
    arch        "LSB;label=32;scalar=64";
    class       volVectorField;
    location    "1";
    object      U;
}
// * * * * * * * * * * * * * * * * * * * * * * * * * * * * * * * * * * * * * //

dimensions      [0 1 -1 0 0 0 0];

internalField   nonuniform List<vector> 
1620
(
(6.06415e-05 5.31841e-05 -1.97257e-05)
(5.04849e-05 6.29062e-05 -1.97261e-05)
(3.87944e-05 7.0717e-05 -1.9726e-05)
(2.59255e-05 7.63795e-05 -1.97254e-05)
(1.22684e-05 7.97215e-05 -1.97252e-05)
(-1.76184e-06 8.06408e-05 -1.97256e-05)
(-1.57384e-05 7.91095e-05 -1.97251e-05)
(-2.92366e-05 7.51746e-05 -1.97249e-05)
(-4.1846e-05 6.89555e-05 -1.97255e-05)
(-5.31841e-05 6.06415e-05 -1.97257e-05)
(-6.29062e-05 5.04849e-05 -1.97261e-05)
(-7.07169e-05 3.87944e-05 -1.9726e-05)
(-7.63795e-05 2.59255e-05 -1.97254e-05)
(-7.97215e-05 1.22684e-05 -1.97252e-05)
(-8.06408e-05 -1.76183e-06 -1.97256e-05)
(-7.91095e-05 -1.57383e-05 -1.97251e-05)
(-7.51746e-05 -2.92366e-05 -1.97249e-05)
(-6.89555e-05 -4.1846e-05 -1.97255e-05)
(-6.06415e-05 -5.31841e-05 -1.97257e-05)
(-5.04849e-05 -6.29062e-05 -1.97261e-05)
(-3.87944e-05 -7.0717e-05 -1.9726e-05)
(-2.59255e-05 -7.63795e-05 -1.97253e-05)
(-1.22684e-05 -7.97215e-05 -1.97252e-05)
(1.76183e-06 -8.06408e-05 -1.97255e-05)
(1.57383e-05 -7.91095e-05 -1.97251e-05)
(2.92366e-05 -7.51746e-05 -1.97249e-05)
(4.1846e-05 -6.89556e-05 -1.97255e-05)
(5.31841e-05 -6.06415e-05 -1.97257e-05)
(6.29062e-05 -5.04849e-05 -1.97261e-05)
(7.0717e-05 -3.87944e-05 -1.9726e-05)
(7.63795e-05 -2.59255e-05 -1.97253e-05)
(7.97215e-05 -1.22684e-05 -1.97252e-05)
(8.06408e-05 1.76183e-06 -1.97256e-05)
(7.91095e-05 1.57383e-05 -1.97251e-05)
(7.51746e-05 2.92366e-05 -1.97249e-05)
(6.89556e-05 4.1846e-05 -1.97255e-05)
(4.57567e-05 0.000113605 4.02273e-05)
(2.53343e-05 0.000119825 4.02271e-05)
(4.14228e-06 0.000122404 4.02272e-05)
(-1.71757e-05 0.000121263 4.02275e-05)
(-3.79723e-05 0.000116439 4.02276e-05)
(-5.7615e-05 0.000108076 4.02275e-05)
(-7.55068e-05 9.6429e-05 4.02276e-05)
(-9.11046e-05 8.18525e-05 4.02276e-05)
(-0.000103934 6.47888e-05 4.02273e-05)
(-0.000113605 4.57566e-05 4.02273e-05)
(-0.000119825 2.53343e-05 4.02271e-05)
(-0.000122404 4.14228e-06 4.02271e-05)
(-0.000121263 -1.71757e-05 4.02275e-05)
(-0.000116439 -3.79723e-05 4.02276e-05)
(-0.000108076 -5.7615e-05 4.02275e-05)
(-9.64291e-05 -7.55068e-05 4.02276e-05)
(-8.18525e-05 -9.11046e-05 4.02276e-05)
(-6.47888e-05 -0.000103934 4.02273e-05)
(-4.57567e-05 -0.000113605 4.02273e-05)
(-2.53343e-05 -0.000119825 4.02271e-05)
(-4.14228e-06 -0.000122404 4.02272e-05)
(1.71757e-05 -0.000121263 4.02275e-05)
(3.79723e-05 -0.000116439 4.02276e-05)
(5.7615e-05 -0.000108076 4.02275e-05)
(7.55068e-05 -9.64291e-05 4.02276e-05)
(9.11046e-05 -8.18525e-05 4.02276e-05)
(0.000103934 -6.47888e-05 4.02273e-05)
(0.000113605 -4.57567e-05 4.02273e-05)
(0.000119825 -2.53343e-05 4.02271e-05)
(0.000122404 -4.14229e-06 4.02272e-05)
(0.000121263 1.71757e-05 4.02275e-05)
(0.000116439 3.79723e-05 4.02277e-05)
(0.000108076 5.7615e-05 4.02275e-05)
(9.64291e-05 7.55068e-05 4.02276e-05)
(8.18525e-05 9.11046e-05 4.02276e-05)
(6.47888e-05 0.000103934 4.02273e-05)
(-4.4871e-06 0.00015427 7.5188e-05)
(-3.12074e-05 0.000151147 7.51881e-05)
(-5.69797e-05 0.000143432 7.51881e-05)
(-8.10207e-05 0.000131358 7.51881e-05)
(-0.0001026 0.000115294 7.51883e-05)
(-0.000121062 9.57253e-05 7.51884e-05)
(-0.000135846 7.32488e-05 7.51883e-05)
(-0.000146501 4.85467e-05 7.5188e-05)
(-0.000152705 2.23696e-05 7.5188e-05)
(-0.00015427 -4.48709e-06 7.5188e-05)
(-0.000151147 -3.12074e-05 7.51881e-05)
(-0.000143432 -5.69797e-05 7.51881e-05)
(-0.000131358 -8.10207e-05 7.51881e-05)
(-0.000115294 -0.0001026 7.51883e-05)
(-9.57253e-05 -0.000121062 7.51884e-05)
(-7.32488e-05 -0.000135846 7.51883e-05)
(-4.85467e-05 -0.000146501 7.5188e-05)
(-2.23696e-05 -0.000152705 7.5188e-05)
(4.48708e-06 -0.00015427 7.5188e-05)
(3.12074e-05 -0.000151147 7.51881e-05)
(5.69797e-05 -0.000143432 7.51881e-05)
(8.10207e-05 -0.000131358 7.51881e-05)
(0.0001026 -0.000115294 7.51883e-05)
(0.000121062 -9.57253e-05 7.51884e-05)
(0.000135846 -7.32488e-05 7.51883e-05)
(0.000146501 -4.85467e-05 7.5188e-05)
(0.000152705 -2.23696e-05 7.51881e-05)
(0.00015427 4.48709e-06 7.5188e-05)
(0.000151147 3.12074e-05 7.51881e-05)
(0.000143432 5.69797e-05 7.51881e-05)
(0.000131358 8.10207e-05 7.51881e-05)
(0.000115294 0.0001026 7.51883e-05)
(9.57253e-05 0.000121062 7.51884e-05)
(7.32488e-05 0.000135846 7.51883e-05)
(4.85466e-05 0.000146501 7.5188e-05)
(2.23696e-05 0.000152705 7.51881e-05)
(0.000125217 0.000178812 -3.33687e-05)
(9.22651e-05 0.000197839 -3.33696e-05)
(5.65088e-05 0.000210855 -3.33695e-05)
(1.90356e-05 0.000217464 -3.33673e-05)
(-1.90161e-05 0.000217467 -3.33662e-05)
(-5.64902e-05 0.000210861 -3.33669e-05)
(-9.2248e-05 0.000197848 -3.33669e-05)
(-0.000125203 0.000178824 -3.33672e-05)
(-0.000154352 0.000154366 -3.33683e-05)
(-0.000178812 0.000125217 -3.33687e-05)
(-0.000197839 9.2265e-05 -3.33696e-05)
(-0.000210855 5.65088e-05 -3.33695e-05)
(-0.000217464 1.90356e-05 -3.33673e-05)
(-0.000217467 -1.90161e-05 -3.33662e-05)
(-0.000210861 -5.64902e-05 -3.33669e-05)
(-0.000197848 -9.22479e-05 -3.33669e-05)
(-0.000178824 -0.000125203 -3.33672e-05)
(-0.000154366 -0.000154352 -3.33683e-05)
(-0.000125217 -0.000178812 -3.33687e-05)
(-9.22651e-05 -0.000197839 -3.33696e-05)
(-5.65088e-05 -0.000210855 -3.33694e-05)
(-1.90356e-05 -0.000217464 -3.33672e-05)
(1.90161e-05 -0.000217467 -3.33662e-05)
(5.64902e-05 -0.000210861 -3.33668e-05)
(9.22479e-05 -0.000197848 -3.33669e-05)
(0.000125203 -0.000178824 -3.33672e-05)
(0.000154352 -0.000154366 -3.33682e-05)
(0.000178812 -0.000125217 -3.33687e-05)
(0.000197839 -9.22651e-05 -3.33695e-05)
(0.000210855 -5.65088e-05 -3.33694e-05)
(0.000217464 -1.90356e-05 -3.33672e-05)
(0.000217467 1.90161e-05 -3.33662e-05)
(0.000210861 5.64902e-05 -3.33669e-05)
(0.000197848 9.22479e-05 -3.33669e-05)
(0.000178824 0.000125203 -3.33672e-05)
(0.000154366 0.000154352 -3.33683e-05)
(8.30701e-05 0.00032197 0.000101157)
(2.58992e-05 0.000331503 0.000101156)
(-3.20589e-05 0.000330964 0.000101156)
(-8.9043e-05 0.000320369 0.000101157)
(-0.000143322 0.00030004 0.000101158)
(-0.000193247 0.000270594 0.000101158)
(-0.000237299 0.000232926 0.000101158)
(-0.000274141 0.00018818 0.000101157)
(-0.000302654 0.000137717 0.000101157)
(-0.00032197 8.30701e-05 0.000101157)
(-0.000331503 2.58991e-05 0.000101156)
(-0.000330964 -3.20589e-05 0.000101156)
(-0.000320369 -8.9043e-05 0.000101157)
(-0.00030004 -0.000143322 0.000101158)
(-0.000270594 -0.000193247 0.000101158)
(-0.000232926 -0.000237299 0.000101158)
(-0.00018818 -0.000274141 0.000101157)
(-0.000137717 -0.000302654 0.000101157)
(-8.30701e-05 -0.00032197 0.000101157)
(-2.58992e-05 -0.000331503 0.000101156)
(3.20589e-05 -0.000330964 0.000101156)
(8.9043e-05 -0.000320369 0.000101157)
(0.000143322 -0.00030004 0.000101158)
(0.000193247 -0.000270594 0.000101158)
(0.000237299 -0.000232926 0.000101158)
(0.000274141 -0.00018818 0.000101157)
(0.000302654 -0.000137717 0.000101157)
(0.00032197 -8.30701e-05 0.000101157)
(0.000331503 -2.58992e-05 0.000101156)
(0.000330964 3.20589e-05 0.000101156)
(0.000320369 8.9043e-05 0.000101157)
(0.00030004 0.000143322 0.000101158)
(0.000270594 0.000193247 0.000101158)
(0.000232926 0.000237299 0.000101158)
(0.00018818 0.000274141 0.000101157)
(0.000137717 0.000302654 0.000101157)
(-1.12178e-07 0.000442348 0.000201682)
(-7.69229e-05 0.000435608 0.000201682)
(-0.000151396 0.000415633 0.000201682)
(-0.00022127 0.000383028 0.000201682)
(-0.00028442 0.000338786 0.000201682)
(-0.000338929 0.000284249 0.000201683)
(-0.00038314 0.000221076 0.000201682)
(-0.000415709 0.000151186 0.000201682)
(-0.000435647 7.67023e-05 0.000201682)
(-0.000442348 -1.12167e-07 0.000201682)
(-0.000435608 -7.69229e-05 0.000201682)
(-0.000415633 -0.000151396 0.000201682)
(-0.000383028 -0.00022127 0.000201682)
(-0.000338786 -0.00028442 0.000201682)
(-0.000284249 -0.000338929 0.000201683)
(-0.000221076 -0.00038314 0.000201682)
(-0.000151186 -0.000415709 0.000201682)
(-7.67023e-05 -0.000435647 0.000201682)
(1.12141e-07 -0.000442348 0.000201682)
(7.69228e-05 -0.000435608 0.000201682)
(0.000151396 -0.000415633 0.000201682)
(0.00022127 -0.000383028 0.000201682)
(0.00028442 -0.000338786 0.000201682)
(0.000338929 -0.000284249 0.000201683)
(0.00038314 -0.000221076 0.000201682)
(0.000415709 -0.000151186 0.000201682)
(0.000435647 -7.67023e-05 0.000201682)
(0.000442348 1.12153e-07 0.000201682)
(0.000435608 7.69229e-05 0.000201682)
(0.000415633 0.000151396 0.000201682)
(0.000383028 0.00022127 0.000201682)
(0.000338786 0.00028442 0.000201682)
(0.000284249 0.000338929 0.000201683)
(0.000221076 0.00038314 0.000201682)
(0.000151186 0.000415709 0.000201682)
(7.67023e-05 0.000435647 0.000201682)
(9.50989e-05 0.000330408 -3.96608e-05)
(3.62798e-05 0.000341901 -3.9661e-05)
(-2.36419e-05 0.000343007 -3.96608e-05)
(-8.28454e-05 0.00033369 -3.96589e-05)
(-0.000139532 0.000314235 -3.96576e-05)
(-0.000191979 0.000285232 -3.96574e-05)
(-0.000238592 0.000247562 -3.96572e-05)
(-0.000277956 0.00020237 -3.96582e-05)
(-0.000308874 0.000151029 -3.96599e-05)
(-0.000330408 9.50989e-05 -3.96609e-05)
(-0.000341901 3.62798e-05 -3.96611e-05)
(-0.000343007 -2.36419e-05 -3.96609e-05)
(-0.00033369 -8.28454e-05 -3.96589e-05)
(-0.000314235 -0.000139532 -3.96576e-05)
(-0.000285232 -0.000191979 -3.96574e-05)
(-0.000247562 -0.000238592 -3.96572e-05)
(-0.00020237 -0.000277956 -3.96582e-05)
(-0.000151029 -0.000308874 -3.96599e-05)
(-9.50989e-05 -0.000330408 -3.96608e-05)
(-3.62798e-05 -0.000341901 -3.9661e-05)
(2.36418e-05 -0.000343007 -3.96608e-05)
(8.28454e-05 -0.000333691 -3.96588e-05)
(0.000139532 -0.000314235 -3.96575e-05)
(0.000191979 -0.000285232 -3.96573e-05)
(0.000238592 -0.000247562 -3.96571e-05)
(0.000277956 -0.00020237 -3.96581e-05)
(0.000308874 -0.000151029 -3.96598e-05)
(0.000330408 -9.5099e-05 -3.96607e-05)
(0.000341901 -3.62799e-05 -3.96609e-05)
(0.000343007 2.36418e-05 -3.96607e-05)
(0.000333691 8.28453e-05 -3.96588e-05)
(0.000314235 0.000139532 -3.96575e-05)
(0.000285232 0.000191979 -3.96573e-05)
(0.000247562 0.000238592 -3.96571e-05)
(0.00020237 0.000277956 -3.96581e-05)
(0.000151029 0.000308874 -3.96599e-05)
(5.79469e-05 0.000519538 0.000130086)
(-3.31497e-05 0.000521707 0.000130086)
(-0.000123239 0.000508025 0.000130086)
(-0.000209584 0.000478907 0.000130087)
(-0.000289562 0.000435237 0.000130088)
(-0.000360741 0.000378343 0.000130088)
(-0.000420959 0.000309953 0.000130088)
(-0.000468387 0.000232145 0.000130088)
(-0.000501582 0.000147283 0.000130087)
(-0.000519538 5.79469e-05 0.000130086)
(-0.000521707 -3.31497e-05 0.000130086)
(-0.000508025 -0.000123239 0.000130086)
(-0.000478907 -0.000209584 0.000130087)
(-0.000435237 -0.000289562 0.000130088)
(-0.000378343 -0.000360741 0.000130088)
(-0.000309953 -0.000420959 0.000130088)
(-0.000232145 -0.000468387 0.000130088)
(-0.000147283 -0.000501582 0.000130087)
(-5.7947e-05 -0.000519538 0.000130086)
(3.31497e-05 -0.000521707 0.000130086)
(0.000123239 -0.000508025 0.000130086)
(0.000209584 -0.000478907 0.000130087)
(0.000289562 -0.000435237 0.000130088)
(0.000360741 -0.000378343 0.000130088)
(0.000420959 -0.000309953 0.000130088)
(0.000468387 -0.000232145 0.000130088)
(0.000501582 -0.000147283 0.000130087)
(0.000519538 -5.7947e-05 0.000130086)
(0.000521707 3.31497e-05 0.000130086)
(0.000508025 0.000123239 0.000130086)
(0.000478907 0.000209584 0.000130087)
(0.000435237 0.000289562 0.000130088)
(0.000378343 0.000360741 0.000130088)
(0.000309953 0.000420959 0.000130088)
(0.000232145 0.000468387 0.000130088)
(0.000147283 0.000501582 0.000130087)
(-1.64255e-05 0.000684344 0.000270157)
(-0.00013501 0.000671095 0.000270157)
(-0.000249493 0.000637456 0.000270157)
(-0.000356396 0.000584448 0.000270157)
(-0.00045247 0.000513681 0.000270157)
(-0.000534796 0.000427306 0.000270157)
(-0.000600872 0.000327947 0.000270157)
(-0.00064869 0.000218625 0.000270157)
(-0.000676799 0.000102659 0.000270157)
(-0.000684344 -1.64255e-05 0.000270157)
(-0.000671095 -0.00013501 0.000270157)
(-0.000637456 -0.000249493 0.000270157)
(-0.000584448 -0.000356396 0.000270157)
(-0.000513681 -0.00045247 0.000270157)
(-0.000427306 -0.000534796 0.000270157)
(-0.000327947 -0.000600872 0.000270157)
(-0.000218625 -0.00064869 0.000270157)
(-0.000102659 -0.000676799 0.000270157)
(1.64254e-05 -0.000684344 0.000270157)
(0.00013501 -0.000671095 0.000270157)
(0.000249493 -0.000637456 0.000270157)
(0.000356396 -0.000584448 0.000270157)
(0.00045247 -0.000513681 0.000270157)
(0.000534796 -0.000427306 0.000270157)
(0.000600872 -0.000327947 0.000270157)
(0.00064869 -0.000218625 0.000270157)
(0.000676799 -0.000102659 0.000270157)
(0.000684344 1.64254e-05 0.000270157)
(0.000671095 0.00013501 0.000270157)
(0.000637456 0.000249493 0.000270157)
(0.000584448 0.000356396 0.000270157)
(0.000513681 0.00045247 0.000270157)
(0.000427306 0.000534796 0.000270157)
(0.000327947 0.000600872 0.000270157)
(0.000218625 0.00064869 0.000270157)
(0.000102659 0.000676799 0.000270157)
(-3.66887e-05 0.00048468 -9.72454e-05)
(-0.000120295 0.000470945 -9.72463e-05)
(-0.000200246 0.000442901 -9.72458e-05)
(-0.000274113 0.0004014 -9.72449e-05)
(-0.000339651 0.000347703 -9.72442e-05)
(-0.000394869 0.00028344 -9.72431e-05)
(-0.000438089 0.000210566 -9.72426e-05)
(-0.000467998 0.000131294 -9.72431e-05)
(-0.000483687 4.80323e-05 -9.72445e-05)
(-0.00048468 -3.66888e-05 -9.72455e-05)
(-0.000470945 -0.000120295 -9.72464e-05)
(-0.000442901 -0.000200246 -9.72459e-05)
(-0.0004014 -0.000274113 -9.7245e-05)
(-0.000347703 -0.000339651 -9.72443e-05)
(-0.00028344 -0.000394869 -9.72431e-05)
(-0.000210566 -0.000438089 -9.72426e-05)
(-0.000131294 -0.000467998 -9.72431e-05)
(-4.80324e-05 -0.000483687 -9.72444e-05)
(3.66887e-05 -0.00048468 -9.72454e-05)
(0.000120295 -0.000470945 -9.72463e-05)
(0.000200246 -0.000442901 -9.72457e-05)
(0.000274113 -0.0004014 -9.72448e-05)
(0.000339651 -0.000347703 -9.72441e-05)
(0.000394869 -0.00028344 -9.7243e-05)
(0.000438089 -0.000210566 -9.72424e-05)
(0.000467998 -0.000131294 -9.72429e-05)
(0.000483687 -4.80325e-05 -9.72443e-05)
(0.00048468 3.66887e-05 -9.72453e-05)
(0.000470945 0.000120295 -9.72462e-05)
(0.000442901 0.000200246 -9.72457e-05)
(0.0004014 0.000274113 -9.72448e-05)
(0.000347703 0.000339651 -9.72441e-05)
(0.00028344 0.000394869 -9.7243e-05)
(0.000210566 0.000438089 -9.72425e-05)
(0.000131294 0.000467998 -9.7243e-05)
(4.80324e-05 0.000483687 -9.72444e-05)
(-3.74815e-05 0.000696123 9.14935e-05)
(-0.000157792 0.000679038 9.1493e-05)
(-0.000273309 0.000641322 9.14932e-05)
(-0.00038052 0.000584119 9.14936e-05)
(-0.00047617 0.000509169 9.14938e-05)
(-0.000557353 0.000418747 9.14944e-05)
(-0.0006216 0.000315602 9.14948e-05)
(-0.00066696 0.000202867 9.14946e-05)
(-0.000692055 8.39684e-05 9.14941e-05)
(-0.000696123 -3.74815e-05 9.14934e-05)
(-0.000679038 -0.000157792 9.14929e-05)
(-0.000641322 -0.000273309 9.14931e-05)
(-0.000584119 -0.00038052 9.14935e-05)
(-0.000509169 -0.00047617 9.14938e-05)
(-0.000418747 -0.000557353 9.14943e-05)
(-0.000315602 -0.0006216 9.14948e-05)
(-0.000202867 -0.00066696 9.14947e-05)
(-8.39684e-05 -0.000692055 9.14941e-05)
(3.74815e-05 -0.000696123 9.14935e-05)
(0.000157792 -0.000679038 9.1493e-05)
(0.000273309 -0.000641322 9.14932e-05)
(0.00038052 -0.00058412 9.14936e-05)
(0.00047617 -0.000509169 9.14939e-05)
(0.000557353 -0.000418747 9.14945e-05)
(0.0006216 -0.000315602 9.14949e-05)
(0.00066696 -0.000202867 9.14948e-05)
(0.000692055 -8.39685e-05 9.14943e-05)
(0.000696123 3.74814e-05 9.14936e-05)
(0.000679038 0.000157792 9.14931e-05)
(0.000641322 0.000273309 9.14933e-05)
(0.00058412 0.00038052 9.14936e-05)
(0.000509169 0.00047617 9.14939e-05)
(0.000418747 0.000557353 9.14945e-05)
(0.000315602 0.0006216 9.14949e-05)
(0.000202867 0.00066696 9.14948e-05)
(8.39684e-05 0.000692055 9.14942e-05)
(-7.50378e-05 0.000882622 0.00025526)
(-0.000227163 0.000856183 0.000255259)
(-0.000372387 0.00080373 0.000255259)
(-0.000506295 0.000726855 0.000255259)
(-0.00062482 0.000627895 0.000255259)
(-0.000724361 0.000509857 0.00025526)
(-0.000801892 0.000376327 0.00025526)
(-0.000855058 0.000231362 0.00025526)
(-0.000882243 7.93679e-05 0.00025526)
(-0.000882622 -7.50378e-05 0.00025526)
(-0.000856184 -0.000227163 0.000255259)
(-0.00080373 -0.000372387 0.000255259)
(-0.000726855 -0.000506295 0.000255259)
(-0.000627896 -0.00062482 0.000255259)
(-0.000509858 -0.000724361 0.00025526)
(-0.000376327 -0.000801892 0.00025526)
(-0.000231363 -0.000855058 0.00025526)
(-7.9368e-05 -0.000882243 0.00025526)
(7.50377e-05 -0.000882622 0.00025526)
(0.000227163 -0.000856184 0.000255259)
(0.000372387 -0.00080373 0.000255259)
(0.000506295 -0.000726855 0.000255259)
(0.00062482 -0.000627896 0.000255259)
(0.000724361 -0.000509858 0.00025526)
(0.000801892 -0.000376327 0.00025526)
(0.000855058 -0.000231363 0.00025526)
(0.000882243 -7.9368e-05 0.00025526)
(0.000882622 7.50377e-05 0.00025526)
(0.000856184 0.000227163 0.000255259)
(0.00080373 0.000372387 0.00025526)
(0.000726855 0.000506295 0.00025526)
(0.000627895 0.00062482 0.000255259)
(0.000509858 0.000724361 0.00025526)
(0.000376327 0.000801892 0.00025526)
(0.000231362 0.000855058 0.00025526)
(7.93679e-05 0.000882243 0.00025526)
(-0.000237486 0.000609147 -0.000242634)
(-0.000339655 0.000558653 -0.000242635)
(-0.000431504 0.000491186 -0.000242635)
(-0.000510242 0.000408793 -0.000242634)
(-0.000573476 0.00031398 -0.000242633)
(-0.000619286 0.000209627 -0.000242633)
(-0.000646279 9.89043e-05 -0.000242632)
(-0.000653635 -1.48236e-05 -0.000242632)
(-0.000641131 -0.000128101 -0.000242633)
(-0.000609147 -0.000237486 -0.000242634)
(-0.000558653 -0.000339655 -0.000242635)
(-0.000491186 -0.000431504 -0.000242635)
(-0.000408793 -0.000510242 -0.000242634)
(-0.00031398 -0.000573476 -0.000242633)
(-0.000209627 -0.000619285 -0.000242633)
(-9.89043e-05 -0.000646279 -0.000242632)
(1.48236e-05 -0.000653635 -0.000242632)
(0.000128101 -0.000641131 -0.000242633)
(0.000237486 -0.000609147 -0.000242634)
(0.000339655 -0.000558653 -0.000242635)
(0.000431504 -0.000491186 -0.000242634)
(0.000510242 -0.000408793 -0.000242634)
(0.000573476 -0.00031398 -0.000242633)
(0.000619285 -0.000209627 -0.000242632)
(0.000646279 -9.89044e-05 -0.000242632)
(0.000653635 1.48235e-05 -0.000242632)
(0.000641131 0.000128101 -0.000242633)
(0.000609147 0.000237486 -0.000242634)
(0.000558653 0.000339655 -0.000242635)
(0.000491186 0.000431504 -0.000242634)
(0.000408793 0.000510242 -0.000242634)
(0.00031398 0.000573476 -0.000242633)
(0.000209627 0.000619285 -0.000242633)
(9.89044e-05 0.000646279 -0.000242632)
(-1.48236e-05 0.000653635 -0.000242632)
(-0.000128101 0.000641131 -0.000242633)
(-0.000194784 0.000842067 -3.55073e-05)
(-0.000338049 0.00079545 -3.55081e-05)
(-0.000471041 0.000724664 -3.55078e-05)
(-0.000589721 0.000631859 -3.55074e-05)
(-0.000690483 0.000519856 -3.55073e-05)
(-0.000770265 0.000392057 -3.5507e-05)
(-0.000826643 0.000252345 -3.55068e-05)
(-0.000857903 0.000104966 -3.5507e-05)
(-0.000863098 -4.56016e-05 -3.5507e-05)
(-0.000842067 -0.000194784 -3.55075e-05)
(-0.00079545 -0.000338049 -3.55083e-05)
(-0.000724664 -0.000471041 -3.5508e-05)
(-0.000631859 -0.000589721 -3.55075e-05)
(-0.000519856 -0.000690483 -3.55074e-05)
(-0.000392057 -0.000770265 -3.55071e-05)
(-0.000252345 -0.000826643 -3.55069e-05)
(-0.000104966 -0.000857903 -3.5507e-05)
(4.56015e-05 -0.000863098 -3.55069e-05)
(0.000194784 -0.000842067 -3.55074e-05)
(0.000338049 -0.00079545 -3.55082e-05)
(0.000471041 -0.000724664 -3.55078e-05)
(0.000589721 -0.000631859 -3.55073e-05)
(0.000690483 -0.000519856 -3.55072e-05)
(0.000770265 -0.000392057 -3.55069e-05)
(0.000826643 -0.000252345 -3.55067e-05)
(0.000857903 -0.000104967 -3.55068e-05)
(0.000863098 4.56015e-05 -3.55067e-05)
(0.000842067 0.000194784 -3.55072e-05)
(0.00079545 0.000338049 -3.5508e-05)
(0.000724664 0.000471041 -3.55077e-05)
(0.000631859 0.000589721 -3.55073e-05)
(0.000519856 0.000690483 -3.55072e-05)
(0.000392057 0.000770265 -3.55069e-05)
(0.000252345 0.000826643 -3.55067e-05)
(0.000104966 0.000857903 -3.55069e-05)
(-4.56016e-05 0.000863098 -3.55068e-05)
(-0.000189814 0.00104692 0.000150548)
(-0.000368727 0.000998055 0.000150548)
(-0.000536436 0.000918864 0.000150548)
(-0.000687845 0.000811754 0.000150548)
(-0.000818354 0.000679979 0.000150548)
(-0.000923998 0.000527543 0.000150548)
(-0.00100157 0.000359077 0.000150548)
(-0.0010487 0.000179701 0.000150548)
(-0.00106398 -5.1343e-06 0.000150548)
(-0.00104692 -0.000189814 0.000150548)
(-0.000998055 -0.000368727 0.000150548)
(-0.000918864 -0.000536436 0.000150548)
(-0.000811754 -0.000687845 0.000150548)
(-0.000679979 -0.000818354 0.000150548)
(-0.000527543 -0.000923998 0.000150548)
(-0.000359077 -0.00100157 0.000150548)
(-0.000179701 -0.0010487 0.000150548)
(5.13422e-06 -0.00106398 0.000150548)
(0.000189814 -0.00104692 0.000150548)
(0.000368727 -0.000998055 0.000150548)
(0.000536435 -0.000918864 0.000150548)
(0.000687845 -0.000811754 0.000150548)
(0.000818354 -0.000679979 0.000150548)
(0.000923998 -0.000527543 0.000150548)
(0.00100157 -0.000359077 0.000150548)
(0.0010487 -0.000179702 0.000150548)
(0.00106398 5.13419e-06 0.000150548)
(0.00104692 0.000189814 0.000150548)
(0.000998055 0.000368727 0.000150548)
(0.000918864 0.000536435 0.000150548)
(0.000811754 0.000687845 0.000150548)
(0.000679979 0.000818354 0.000150548)
(0.000527543 0.000923998 0.000150548)
(0.000359077 0.00100157 0.000150548)
(0.000179701 0.0010487 0.000150548)
(-5.13428e-06 0.00106398 0.000150548)
(-0.000477514 0.000687061 -0.000487355)
(-0.000589567 0.000593703 -0.000487357)
(-0.000683706 0.000482306 -0.000487357)
(-0.00075707 0.000356254 -0.000487356)
(-0.000807431 0.000219378 -0.000487355)
(-0.000833259 7.58366e-05 -0.000487355)
(-0.000833769 -7.00095e-05 -0.000487356)
(-0.000808945 -0.000213729 -0.000487355)
(-0.000759542 -0.000350953 -0.000487354)
(-0.000687061 -0.000477514 -0.000487355)
(-0.000593703 -0.000589567 -0.000487357)
(-0.000482306 -0.000683706 -0.000487357)
(-0.000356254 -0.00075707 -0.000487356)
(-0.000219378 -0.000807431 -0.000487355)
(-7.58366e-05 -0.000833259 -0.000487355)
(7.00095e-05 -0.000833769 -0.000487356)
(0.000213729 -0.000808945 -0.000487355)
(0.000350953 -0.000759542 -0.000487354)
(0.000477514 -0.000687061 -0.000487355)
(0.000589567 -0.000593703 -0.000487357)
(0.000683706 -0.000482306 -0.000487357)
(0.00075707 -0.000356254 -0.000487356)
(0.000807431 -0.000219378 -0.000487355)
(0.000833259 -7.58367e-05 -0.000487355)
(0.000833769 7.00094e-05 -0.000487355)
(0.000808945 0.000213729 -0.000487355)
(0.000759542 0.000350953 -0.000487354)
(0.000687061 0.000477514 -0.000487355)
(0.000593703 0.000589567 -0.000487356)
(0.000482306 0.000683706 -0.000487356)
(0.000356255 0.00075707 -0.000487356)
(0.000219378 0.000807431 -0.000487355)
(7.58367e-05 0.000833259 -0.000487355)
(-7.00094e-05 0.000833769 -0.000487355)
(-0.000213729 0.000808945 -0.000487355)
(-0.000350953 0.000759542 -0.000487354)
(-0.00040093 0.000947735 -0.000254693)
(-0.000559412 0.000863716 -0.000254694)
(-0.000700896 0.000753453 -0.000254694)
(-0.000821084 0.000620298 -0.000254694)
(-0.000916323 0.000468294 -0.000254694)
(-0.00098372 0.000302062 -0.000254694)
(-0.00102123 0.000126652 -0.000254694)
(-0.00102771 -5.26065e-05 -0.000254694)
(-0.00100296 -0.000230267 -0.000254693)
(-0.000947735 -0.00040093 -0.000254694)
(-0.000863716 -0.000559412 -0.000254694)
(-0.000753453 -0.000700896 -0.000254694)
(-0.000620298 -0.000821084 -0.000254694)
(-0.000468294 -0.000916323 -0.000254694)
(-0.000302062 -0.00098372 -0.000254694)
(-0.000126652 -0.00102123 -0.000254694)
(5.26065e-05 -0.00102771 -0.000254694)
(0.000230266 -0.00100296 -0.000254693)
(0.00040093 -0.000947735 -0.000254693)
(0.000559412 -0.000863716 -0.000254694)
(0.000700896 -0.000753453 -0.000254694)
(0.000821084 -0.000620298 -0.000254694)
(0.000916323 -0.000468294 -0.000254694)
(0.00098372 -0.000302062 -0.000254694)
(0.00102123 -0.000126652 -0.000254694)
(0.00102771 5.26064e-05 -0.000254694)
(0.00100296 0.000230266 -0.000254693)
(0.000947735 0.00040093 -0.000254693)
(0.000863716 0.000559412 -0.000254694)
(0.000753453 0.000700896 -0.000254694)
(0.000620298 0.000821084 -0.000254694)
(0.000468294 0.000916323 -0.000254693)
(0.000302062 0.00098372 -0.000254694)
(0.000126652 0.00102123 -0.000254694)
(-5.26065e-05 0.00102771 -0.000254694)
(-0.000230266 0.00100296 -0.000254693)
(-0.000361252 0.00117559 -4.09842e-05)
(-0.000559903 0.001095 -4.09843e-05)
(-0.000741541 0.000981136 -4.0984e-05)
(-0.000900648 0.000837464 -4.09844e-05)
(-0.00103239 0.000668345 -4.09846e-05)
(-0.00113276 0.000478919 -4.09848e-05)
(-0.00119871 0.000274941 -4.09844e-05)
(-0.00122825 6.26091e-05 -4.09847e-05)
(-0.00122046 -0.000151625 -4.09844e-05)
(-0.00117559 -0.000361252 -4.09844e-05)
(-0.001095 -0.000559903 -4.09845e-05)
(-0.000981136 -0.000741541 -4.09842e-05)
(-0.000837464 -0.000900648 -4.09846e-05)
(-0.000668345 -0.00103239 -4.09847e-05)
(-0.000478919 -0.00113276 -4.09849e-05)
(-0.000274941 -0.00119871 -4.09844e-05)
(-6.26092e-05 -0.00122825 -4.09848e-05)
(0.000151625 -0.00122046 -4.09844e-05)
(0.000361252 -0.00117559 -4.09843e-05)
(0.000559903 -0.001095 -4.09844e-05)
(0.000741541 -0.000981136 -4.09841e-05)
(0.000900648 -0.000837464 -4.09844e-05)
(0.00103239 -0.000668345 -4.09845e-05)
(0.00113276 -0.000478919 -4.09846e-05)
(0.00119871 -0.000274941 -4.09842e-05)
(0.00122825 -6.26093e-05 -4.09845e-05)
(0.00122046 0.000151625 -4.09842e-05)
(0.00117559 0.000361252 -4.09841e-05)
(0.001095 0.000559903 -4.09842e-05)
(0.000981136 0.000741541 -4.09839e-05)
(0.000837464 0.000900648 -4.09843e-05)
(0.000668345 0.00103239 -4.09845e-05)
(0.000478919 0.00113276 -4.09846e-05)
(0.000274941 0.00119871 -4.09842e-05)
(6.26092e-05 0.00122825 -4.09846e-05)
(-0.000151625 0.00122046 -4.09842e-05)
(-0.000732571 0.00071603 -0.000817811)
(-0.000845779 0.000577942 -0.000817811)
(-0.000933289 0.000422294 -0.000817812)
(-0.000992441 0.000253814 -0.000817812)
(-0.00102144 7.76225e-05 -0.000817812)
(-0.0010194 -0.000100927 -0.000817812)
(-0.000986386 -0.00027641 -0.000817812)
(-0.000923402 -0.000443495 -0.000817811)
(-0.000832362 -0.000597105 -0.000817811)
(-0.00071603 -0.000732571 -0.000817811)
(-0.000577942 -0.000845779 -0.000817812)
(-0.000422294 -0.000933289 -0.000817812)
(-0.000253814 -0.000992441 -0.000817813)
(-7.76224e-05 -0.00102144 -0.000817812)
(0.000100927 -0.0010194 -0.000817812)
(0.00027641 -0.000986386 -0.000817812)
(0.000443495 -0.000923402 -0.000817811)
(0.000597105 -0.000832362 -0.000817811)
(0.000732571 -0.00071603 -0.000817811)
(0.000845779 -0.000577942 -0.000817811)
(0.000933289 -0.000422294 -0.000817812)
(0.000992441 -0.000253814 -0.000817812)
(0.00102144 -7.76225e-05 -0.000817812)
(0.0010194 0.000100927 -0.000817812)
(0.000986386 0.00027641 -0.000817812)
(0.000923402 0.000443495 -0.000817811)
(0.000832362 0.000597105 -0.00081781)
(0.00071603 0.000732571 -0.000817811)
(0.000577942 0.000845779 -0.000817811)
(0.000422294 0.000933289 -0.000817812)
(0.000253815 0.000992441 -0.000817812)
(7.76225e-05 0.00102144 -0.000817812)
(-0.000100927 0.0010194 -0.000817812)
(-0.00027641 0.000986386 -0.000817812)
(-0.000443495 0.000923402 -0.000817811)
(-0.000597105 0.000832362 -0.000817811)
(-0.000639121 0.00100635 -0.000553539)
(-0.000804163 0.000880081 -0.00055354)
(-0.000944771 0.000727069 -0.00055354)
(-0.00105667 0.000551965 -0.00055354)
(-0.00113647 0.00036009 -0.00055354)
(-0.00118173 0.000157275 -0.00055354)
(-0.00119109 -5.03193e-05 -0.00055354)
(-0.00116425 -0.000256385 -0.00055354)
(-0.00110205 -0.000454661 -0.000553539)
(-0.00100635 -0.000639122 -0.00055354)
(-0.000880081 -0.000804163 -0.00055354)
(-0.000727069 -0.000944771 -0.00055354)
(-0.000551965 -0.00105667 -0.00055354)
(-0.00036009 -0.00113647 -0.000553541)
(-0.000157275 -0.00118173 -0.00055354)
(5.03193e-05 -0.00119109 -0.00055354)
(0.000256385 -0.00116425 -0.00055354)
(0.000454661 -0.00110205 -0.000553539)
(0.000639121 -0.00100635 -0.000553539)
(0.000804163 -0.000880081 -0.00055354)
(0.000944771 -0.000727069 -0.00055354)
(0.00105667 -0.000551965 -0.00055354)
(0.00113647 -0.00036009 -0.00055354)
(0.00118173 -0.000157275 -0.00055354)
(0.00119109 5.03192e-05 -0.00055354)
(0.00116425 0.000256385 -0.00055354)
(0.00110205 0.000454661 -0.000553539)
(0.00100635 0.000639121 -0.000553539)
(0.000880081 0.000804163 -0.00055354)
(0.000727069 0.000944771 -0.00055354)
(0.000551965 0.00105667 -0.00055354)
(0.00036009 0.00113647 -0.00055354)
(0.000157275 0.00118173 -0.00055354)
(-5.03192e-05 0.00119109 -0.00055354)
(-0.000256385 0.00116425 -0.00055354)
(-0.000454661 0.00110205 -0.000553539)
(-0.000577144 0.00126183 -0.000308283)
(-0.00078749 0.00114244 -0.000308283)
(-0.000973909 0.000988336 -0.000308283)
(-0.00113074 0.000804204 -0.000308283)
(-0.00125321 0.000595636 -0.000308284)
(-0.0013376 0.00036897 -0.000308284)
(-0.00138135 0.000131094 -0.000308284)
(-0.00138313 -0.000110766 -0.000308284)
(-0.00134288 -0.000349261 -0.000308283)
(-0.00126183 -0.000577144 -0.000308284)
(-0.00114244 -0.00078749 -0.000308283)
(-0.000988336 -0.000973909 -0.000308284)
(-0.000804204 -0.00113074 -0.000308284)
(-0.000595636 -0.00125321 -0.000308284)
(-0.00036897 -0.0013376 -0.000308284)
(-0.000131094 -0.00138135 -0.000308284)
(0.000110766 -0.00138313 -0.000308284)
(0.000349261 -0.00134288 -0.000308283)
(0.000577144 -0.00126183 -0.000308284)
(0.00078749 -0.00114244 -0.000308283)
(0.000973909 -0.000988336 -0.000308283)
(0.00113074 -0.000804204 -0.000308283)
(0.00125321 -0.000595636 -0.000308283)
(0.0013376 -0.000368971 -0.000308284)