/*--------------------------------*- C++ -*----------------------------------*\
| =========                 |                                                 |
| \\      /  F ield         | OpenFOAM: The Open Source CFD Toolbox           |
|  \\    /   O peration     | Version:  2312                                  |
|   \\  /    A nd           | Website:  www.openfoam.com                      |
|    \\/     M anipulation  |                                                 |
\*---------------------------------------------------------------------------*/
FoamFile
{
    version     2.0;
    format      ascii;
    arch        "LSB;label=32;scalar=64";
    class       volScalarField;
    location    "0.2";
    object      sigmaHyd;
}
// * * * * * * * * * * * * * * * * * * * * * * * * * * * * * * * * * * * * * //

dimensions      [1 -1 -2 0 0 0 0];

internalField   nonuniform List<scalar> 
1620
(
-5879.2
-5879.19
-5879.19
-5879.23
-5879.23
-5879.21
-5879.22
-5879.22
-5879.21
-5879.2
-5879.18
-5879.18
-5879.23
-5879.23
-5879.21
-5879.21
-5879.22
-5879.21
-5879.2
-5879.18
-5879.18
-5879.23
-5879.23
-5879.21
-5879.22
-5879.22
-5879.21
-5879.2
-5879.19
-5879.19
-5879.23
-5879.23
-5879.21
-5879.22
-5879.22
-5879.21
-10009.2
-10009.2
-10009.2
-10009.2
-10009.2
-10009.2
-10009.2
-10009.2
-10009.2
-10009.2
-10009.2
-10009.2
-10009.2
-10009.2
-10009.2
-10009.2
-10009.2
-10009.2
-10009.2
-10009.2
-10009.2
-10009.2
-10009.2
-10009.2
-10009.2
-10009.2
-10009.2
-10009.2
-10009.2
-10009.2
-10009.2
-10009.2
-10009.2
-10009.2
-10009.2
-10009.2
-15614.7
-15614.7
-15614.7
-15614.7
-15614.7
-15614.7
-15614.7
-15614.7
-15614.7
-15614.7
-15614.7
-15614.7
-15614.7
-15614.7
-15614.7
-15614.7
-15614.7
-15614.7
-15614.7
-15614.7
-15614.7
-15614.7
-15614.7
-15614.7
-15614.7
-15614.7
-15614.7
-15614.7
-15614.7
-15614.7
-15614.7
-15614.7
-15614.7
-15614.7
-15614.7
-15614.7
1720.47
1720.44
1720.48
1720.48
1720.51
1720.51
1720.42
1720.45
1720.48
1720.47
1720.44
1720.48
1720.48
1720.51
1720.51
1720.42
1720.45
1720.48
1720.47
1720.44
1720.48
1720.48
1720.51
1720.51
1720.42
1720.45
1720.48
1720.47
1720.44
1720.48
1720.48
1720.51
1720.51
1720.42
1720.45
1720.48
-1320.15
-1320.11
-1320.18
-1320.18
-1320.18
-1320.22
-1320.14
-1320.13
-1320.15
-1320.15
-1320.11
-1320.18
-1320.18
-1320.18
-1320.22
-1320.14
-1320.13
-1320.15
-1320.15
-1320.11
-1320.18
-1320.18
-1320.18
-1320.22
-1320.14
-1320.13
-1320.15
-1320.15
-1320.11
-1320.18
-1320.18
-1320.18
-1320.22
-1320.14
-1320.13
-1320.15
-6173.77
-6173.77
-6173.75
-6173.73
-6173.7
-6173.64
-6173.74
-6173.75
-6173.76
-6173.77
-6173.77
-6173.75
-6173.73
-6173.7
-6173.64
-6173.74
-6173.75
-6173.76
-6173.77
-6173.77
-6173.75
-6173.73
-6173.7
-6173.64
-6173.74
-6173.75
-6173.76
-6173.77
-6173.77
-6173.75
-6173.73
-6173.7
-6173.64
-6173.74
-6173.75
-6173.76
873.434
873.419
873.428
873.407
873.442
873.445
873.39
873.449
873.394
873.434
873.419
873.428
873.407
873.442
873.445
873.39
873.449
873.394
873.434
873.419
873.428
873.407
873.442
873.445
873.39
873.449
873.394
873.434
873.419
873.428
873.407
873.442
873.445
873.39
873.449
873.394
-1765.99
-1765.98
-1765.98
-1765.93
-1765.94
-1765.98
-1765.95
-1766.03
-1765.95
-1765.99
-1765.98
-1765.98
-1765.93
-1765.94
-1765.98
-1765.95
-1766.03
-1765.95
-1765.99
-1765.98
-1765.98
-1765.93
-1765.94
-1765.98
-1765.95
-1766.03
-1765.95
-1765.99
-1765.98
-1765.98
-1765.93
-1765.94
-1765.98
-1765.95
-1766.03
-1765.95
-6460.39
-6460.38
-6460.35
-6460.39
-6460.42
-6460.41
-6460.42
-6460.34
-6460.37
-6460.39
-6460.38
-6460.35
-6460.39
-6460.42
-6460.41
-6460.42
-6460.34
-6460.37
-6460.39
-6460.38
-6460.35
-6460.39
-6460.42
-6460.41
-6460.42
-6460.34
-6460.37
-6460.39
-6460.38
-6460.35
-6460.39
-6460.42
-6460.41
-6460.42
-6460.34
-6460.37
792.23
792.216
792.206
792.22
792.233
792.221
792.255
792.194
792.241
792.229
792.216
792.206
792.22
792.233
792.221
792.255
792.194
792.242
792.229
792.216
792.206
792.22
792.233
792.221
792.255
792.194
792.242
792.229
792.216
792.206
792.22
792.233
792.221
792.255
792.194
792.242
-1682.48
-1682.47
-1682.49
-1682.46
-1682.49
-1682.46
-1682.49
-1682.47
-1682.48
-1682.48
-1682.47
-1682.49
-1682.46
-1682.49
-1682.46
-1682.49
-1682.47
-1682.48
-1682.48
-1682.47
-1682.49
-1682.46
-1682.49
-1682.46
-1682.49
-1682.47
-1682.48
-1682.48
-1682.47
-1682.49
-1682.46
-1682.49
-1682.46
-1682.49
-1682.47
-1682.48
-6073.72
-6073.76
-6073.72
-6073.75
-6073.72
-6073.72
-6073.75
-6073.74
-6073.72
-6073.72
-6073.76
-6073.72
-6073.75
-6073.72
-6073.72
-6073.75
-6073.74
-6073.72
-6073.72
-6073.76
-6073.72
-6073.75
-6073.72
-6073.72
-6073.75
-6073.74
-6073.72
-6073.72
-6073.76
-6073.72
-6073.75
-6073.73
-6073.72
-6073.75
-6073.74
-6073.72
556.669
556.721
556.652
556.683
556.665
556.67
556.724
556.65
556.673
556.669
556.721
556.652
556.683
556.665
556.67
556.724
556.65
556.673
556.669
556.721
556.652
556.683
556.665
556.67
556.724
556.65
556.673
556.669
556.721
556.652
556.683
556.665
556.67
556.724
556.65
556.673
-1768.99
-1769.05
-1769
-1769.04
-1769.03
-1769
-1769.05
-1768.99
-1769.01
-1768.99
-1769.05
-1769
-1769.04
-1769.03
-1769
-1769.05
-1768.99
-1769.01
-1768.99
-1769.05
-1769
-1769.04
-1769.03
-1769
-1769.05
-1768.99
-1769.01
-1768.99
-1769.05
-1769
-1769.04
-1769.03
-1769
-1769.05
-1768.99
-1769.01
-5903.88
-5903.83
-5903.87
-5903.84
-5903.85
-5903.84
-5903.87
-5903.88
-5903.86
-5903.88
-5903.83
-5903.87
-5903.84
-5903.85
-5903.84
-5903.87
-5903.88
-5903.86
-5903.88
-5903.83
-5903.87
-5903.84
-5903.85
-5903.84
-5903.87
-5903.88
-5903.86
-5903.88
-5903.83
-5903.87
-5903.84
-5903.85
-5903.84
-5903.87
-5903.88
-5903.86
311.424
311.452
311.415
311.445
311.423
311.423
311.436
311.392
311.439
311.424
311.452
311.415
311.445
311.423
311.423
311.436
311.392
311.439
311.424
311.452
311.415
311.445
311.424
311.423
311.436
311.392
311.439
311.424
311.452
311.415
311.445
311.424
311.423
311.436
311.393
311.439
-1852.11
-1852.17
-1852.12
-1852.14
-1852.13
-1852.14
-1852.13
-1852.1
-1852.15
-1852.11
-1852.17
-1852.12
-1852.14
-1852.13
-1852.14
-1852.13
-1852.1
-1852.15
-1852.11
-1852.17
-1852.12
-1852.14
-1852.13
-1852.14
-1852.13
-1852.1
-1852.15
-1852.11
-1852.17
-1852.12
-1852.14
-1852.13
-1852.14
-1852.13
-1852.1
-1852.15
-5704.3
-5704.29
-5704.33
-5704.31
-5704.32
-5704.37
-5704.31
-5704.36
-5704.33
-5704.3
-5704.29
-5704.33
-5704.31
-5704.32
-5704.37
-5704.31
-5704.36
-5704.33
-5704.3
-5704.29
-5704.33
-5704.31
-5704.32
-5704.37
-5704.31
-5704.36
-5704.33
-5704.3
-5704.29
-5704.33
-5704.31
-5704.32
-5704.37
-5704.31
-5704.36
-5704.33
9.34938
9.37516
9.30484
9.38916
9.34791
9.29569
9.36943
9.30629
9.3446
9.34918
9.37506
9.30477
9.38917
9.34794
9.29573
9.36949
9.30635
9.34466
9.34924
9.37511
9.30482
9.38922
9.348
9.29579
9.36954
9.3064
9.34469
9.34925
9.37512
9.30483
9.38925
9.34805
9.29587
9.36966
9.30654
9.3448
-1939.09
-1939.17
-1939.11
-1939.16
-1939.13
-1939.08
-1939.15
-1939.09
-1939.17
-1939.09
-1939.17
-1939.11
-1939.16
-1939.13
-1939.08
-1939.15
-1939.09
-1939.17
-1939.09
-1939.17
-1939.11
-1939.16
-1939.13
-1939.08
-1939.15
-1939.09
-1939.17
-1939.09
-1939.17
-1939.11
-1939.16
-1939.13
-1939.08
-1939.15
-1939.09
-1939.17
-5443.21
-5443.14
-5443.19
-5443.16
-5443.17
-5443.18
-5443.17
-5443.2
-5443.14
-5443.21
-5443.14
-5443.19
-5443.16
-5443.17
-5443.18
-5443.17
-5443.2
-5443.14
-5443.21
-5443.14
-5443.19
-5443.16
-5443.17
-5443.18
-5443.17
-5443.2
-5443.14
-5443.21
-5443.14
-5443.19
-5443.16
-5443.17
-5443.18
-5443.17
-5443.2
-5443.14
-374.676
-374.699
-374.712
-374.669
-374.714
-374.709
-374.708
-374.721
-374.728
-374.676
-374.699
-374.712
-374.669
-374.714
-374.709
-374.708
-374.721
-374.728
-374.676
-374.699
-374.712
-374.669
-374.714
-374.709
-374.708
-374.721
-374.727
-374.676
-374.699
-374.712
-374.669
-374.714
-374.709
-374.708
-374.721
-374.727
-2019.44
-2019.44
-2019.39
-2019.46
-2019.43
-2019.39
-2019.43
-2019.43
-2019.38
-2019.44
-2019.44
-2019.39
-2019.46
-2019.43
-2019.39
-2019.43
-2019.43
-2019.38
-2019.44
-2019.44
-2019.39
-2019.46
-2019.43
-2019.39
-2019.43
-2019.43
-2019.38
-2019.44
-2019.44
-2019.39
-2019.46
-2019.43
-2019.39
-2019.43
-2019.43
-2019.38
-5056.55
-5056.52
-5056.52
-5056.51
-5056.54
-5056.56
-5056.56
-5056.55
-5056.53
-5056.55
-5056.52
-5056.52
-5056.51
-5056.54
-5056.56
-5056.56
-5056.55
-5056.53
-5056.55
-5056.52
-5056.52
-5056.51
-5056.54
-5056.56
-5056.56
-5056.55
-5056.53
-5056.55
-5056.52
-5056.52
-5056.51
-5056.54
-5056.56
-5056.56
-5056.55
-5056.53
-859.911
-859.893
-859.879
-859.88
-859.899
-859.907
-859.911
-859.894
-859.876
-859.911
-859.893
-859.879
-859.881
-859.899
-859.907
-859.911
-859.893
-859.876
-859.911
-859.893
-859.879
-859.88
-859.899
-859.907
-859.911
-859.893
-859.876
-859.911
-859.893
-859.879
-859.881
-859.899
-859.907
-859.91
-859.893
-859.875
-2079.36
-2079.36
-2079.37
-2079.32
-2079.35
-2079.37
-2079.33
-2079.36
-2079.36
-2079.36
-2079.36
-2079.37
-2079.32
-2079.35
-2079.37
-2079.33
-2079.36
-2079.36
-2079.36
-2079.36
-2079.37
-2079.32
-2079.35
-2079.37
-2079.33
-2079.36
-2079.36
-2079.36
-2079.36
-2079.37
-2079.32
-2079.35
-2079.37
-2079.33
-2079.36
-2079.36
-4476.98
-4477.01
-4477
-4477.02
-4477.03
-4477.01
-4477
-4476.99
-4477.04
-4476.98
-4477.01
-4477
-4477.02
-4477.03
-4477.01
-4477
-4476.99
-4477.04
-4476.98
-4477.01
-4477
-4477.02
-4477.03
-4477.01
-4477
-4476.99
-4477.04
-4476.98
-4477.01
-4477
-4477.02
-4477.03
-4477.01
-4477
-4476.99
-4477.04
-1436.43
-1436.46
-1436.43
-1436.39
-1436.42
-1436.43
-1436.44
-1436.41
-1436.42
-1436.44
-1436.46
-1436.43
-1436.39
-1436.42
-1436.43
-1436.44
-1436.41
-1436.42
-1436.44
-1436.46
-1436.43
-1436.39
-1436.41
-1436.43
-1436.44
-1436.41
-1436.42
-1436.44
-1436.46
-1436.43
-1436.39
-1436.42
-1436.43
-1436.44
-1436.41
-1436.42
-2096.99
-2096.98
-2097.01
-2097.03
-2096.99
-2097.03
-2096.99
-2097
-2097.03
-2096.99
-2096.98
-2097.01
-2097.03
-2096.99
-2097.03
-2096.99
-2097
-2097.03
-2096.99
-2096.98
-2097.01
-2097.03
-2096.99
-2097.03
-2096.99
-2097
-2097.03
-2096.99
-2096.98
-2097.01
-2097.03
-2096.99
-2097.03
-2096.99
-2097
-2097.03
-3654.76
-3654.8
-3654.77
-3654.81
-3654.77
-3654.77
-3654.74
-3654.78
-3654.79
-3654.76
-3654.8
-3654.77
-3654.81
-3654.77
-3654.77
-3654.74
-3654.78
-3654.79
-3654.76
-3654.8
-3654.77
-3654.81
-3654.77
-3654.77
-3654.74
-3654.78
-3654.79
-3654.76
-3654.8
-3654.77
-3654.81
-3654.77
-3654.77
-3654.74
-3654.78
-3654.79
-2020.09
-2020.09
-2020.05
-2020.05
-2020.06
-2020.06
-2020.05
-2020.1
-2020.09
-2020.09
-2020.1
-2020.05
-2020.05
-2020.05
-2020.06
-2020.05
-2020.1
-2020.09
-2020.09
-2020.1
-2020.05
-2020.05
-2020.05
-2020.06
-2020.05
-2020.1
-2020.09
-2020.09
-2020.1
-2020.05
-2020.05
-2020.06
-2020.06
-2020.05
-2020.1
-2020.09
-2032.03
-2031.99
-2032.02
-2032.01
-2032.03
-2032
-2032.02
-2032.05
-2032.02
-2032.04
-2031.99
-2032.02
-2032.01
-2032.03
-2032
-2032.02
-2032.05
-2032.02
-2032.04
-2031.99
-2032.02
-2032.01
-2032.03
-2032
-2032.02
-2032.05
-2032.02
-2032.04
-2031.99
-2032.02
-2032.01
-2032.03
-2032
-2032.02
-2032.05
-2032.02
-2621.53
-2621.56
-2621.56
-2621.6
-2621.59
-2621.57
-2621.58
-2621.54
-2621.54
-2621.53
-2621.56
-2621.56
-2621.6
-2621.59
-2621.57
-2621.57
-2621.54
-2621.54
-2621.53
-2621.56
-2621.56
-2621.6
-2621.59
-2621.57
-2621.58
-2621.54
-2621.54
-2621.53
-2621.56
-2621.56
-2621.6
-2621.59
-2621.57
-2621.58
-2621.55
-2621.54
-2353.22
-2353.15
-2353.1
-2353.14
-2353.11
-2353.13
-2353.13
-2353.18
-2353.26
-2353.22
-2353.15
-2353.11
-2353.14
-2353.11
-2353.13
-2353.13
-2353.18
-2353.26
-2353.22
-2353.15
-2353.11
-2353.14
-2353.11
-2353.13
-2353.13
-2353.18
-2353.26
-2353.22
-2353.15
-2353.11
-2353.15
-2353.11
-2353.13
-2353.13
-2353.18
-2353.26
-1788.76
-1788.74
-1788.76
-1788.78
-1788.74
-1788.78
-1788.77
-1788.77
-1788.77
-1788.76
-1788.74
-1788.76
-1788.78
-1788.74
-1788.78
-1788.77
-1788.77
-1788.77
-1788.76
-1788.74
-1788.76
-1788.78
-1788.74
-1788.78
-1788.77
-1788.77
-1788.77
-1788.76
-1788.74
-1788.76
-1788.78
-1788.74
-1788.78
-1788.77
-1788.77
-1788.77
-1562.76
-1562.82
-1562.84
-1562.88
-1562.85
-1562.87
-1562.8
-1562.76
-1562.74
-1562.75
-1562.82
-1562.84
-1562.88
-1562.85
-1562.87
-1562.8
-1562.76
-1562.74
-1562.75
-1562.82
-1562.84
-1562.88
-1562.85
-1562.87
-1562.8
-1562.76
-1562.74
-1562.75
-1562.82
-1562.84
-1562.88
-1562.85
-1562.87
-1562.8
-1562.77
-1562.74
-1699.04
-1698.95
-1698.86
-1698.91
-1698.86
-1698.85
-1698.9
-1699.03
-1699.1
-1699.04
-1698.95
-1698.86
-1698.91
-1698.86
-1698.85
-1698.9
-1699.03
-1699.1
-1699.04
-1698.95
-1698.86
-1698.91
-1698.86
-1698.85
-1698.9
-1699.03
-1699.1
-1699.04
-1698.95
-1698.86
-1698.91
-1698.86
-1698.85
-1698.9
-1699.03
-1699.09
-916.247
-916.247
-916.26
-916.214
-916.278
-916.196
-916.229
-916.213
-916.228
-916.246
-916.247
-916.261
-916.215
-916.278
-916.197
-916.229
-916.213
-916.227
-916.246
-916.247
-916.26
-916.214
-916.277
-916.196
-916.229
-916.212
-916.227
-916.247
-916.247
-916.261
-916.215
-916.278
-916.196
-916.23
-916.213
-916.228
-1256.41
-1256.53
-1256.57
-1256.62
-1256.6
-1256.58
-1256.48
-1256.4
-1256.35
-1256.41
-1256.53
-1256.57
-1256.62
-1256.6
-1256.58
-1256.48
-1256.4
-1256.35
-1256.41
-1256.53
-1256.56
-1256.62
-1256.6
-1256.58
-1256.48
-1256.4
-1256.35
-1256.41
-1256.53
-1256.56
-1256.62
-1256.6
-1256.58
-1256.48
-1256.41
-1256.35
-555.768
-555.341
-554.601
-555.055
-555.843
-555.121
-554.59
-555.445
-555.919
-555.776
-555.349
-554.607
-555.058
-555.843
-555.122
-554.592
-555.449
-555.924
-555.781
-555.353
-554.61
-555.061
-555.846
-555.124
-554.595
-555.451
-555.925
-555.781
-555.354
-554.613
-555.064
-555.849
-555.127
-554.595
-555.445
-555.914
647.621
647.505
647.385
647.632
647.52
647.472
647.406
647.612
647.607
647.624
647.508
647.387
647.634
647.52
647.473
647.408
647.613
647.607
647.624
647.509
647.388
647.635
647.522
647.474
647.409
647.614
647.609
647.626
647.51
647.389
647.636
647.522
647.473
647.406
647.61
647.604
-3069.91
-3070.02
-3070.09
-3070.1
-3070
-3070.09
-3070
-3069.87
-3069.86
-3069.91
-3070.02
-3070.09
-3070.1
-3070
-3070.09
-3070
-3069.87
-3069.86
-3069.91
-3070.02
-3070.09
-3070.1
-3070
-3070.09
-3070
-3069.87
-3069.85
-3069.91
-3070.01
-3070.09
-3070.1
-3070
-3070.09
-3070
-3069.88
-3069.86
11719.2
11721.2
11713.4
11714.4
11722
11717.3
11712.6
11717.5
11716.7
11719.2
11721.3
11713.4
11714.5
11722.1
11717.3
11712.7
11717.5
11716.7
11719.2
11721.3
11713.4
11714.5
11722.1
11717.3
11712.7
11717.5
11716.7
11719.2
11721.3
11713.4
11714.5
11722.1
11717.3
11712.7
11717.5
11716.7
5515.68
5515.4
5515.11
5515.04
5516.09
5515.04
5515.22
5515.59
5515.7
5515.68
5515.4
5515.11
5515.04
5516.09
5515.04
5515.23
5515.6
5515.7
5515.69
5515.4
5515.11
5515.04
5516.09
5515.04
5515.23
5515.6
5515.7
5515.69
5515.4
5515.11
5515.04
5516.09
5515.04
5515.23
5515.59
5515.69
-21142.6
-21142.2
-21143.1
-21142.3
-21143
-21142.4
-21143.1
-21142.3
-21142.7
-21142.6
-21142.2
-21143.1
-21142.3
-21143
-21142.4
-21143.1
-21142.3
-21142.7
-21142.6
-21142.2
-21143.1
-21142.3
-21143
-21142.4
-21143.1
-21142.3
-21142.7
-21142.6
-21142.2
-21143.1
-21142.3
-21143
-21142.4
-21143.1
-21142.3
-21142.7
)
;

boundaryField
{
    fixed
    {
        type            zeroGradient;
    }
    inside
    {
        type            zeroGradient;
    }
    outside
    {
        type            zeroGradient;
    }
}


// ************************************************************************* //
