/*--------------------------------*- C++ -*----------------------------------*\
| =========                 |                                                 |
| \\      /  F ield         | OpenFOAM: The Open Source CFD Toolbox           |
|  \\    /   O peration     | Version:  2312                                  |
|   \\  /    A nd           | Website:  www.openfoam.com                      |
|    \\/     M anipulation  |                                                 |
\*---------------------------------------------------------------------------*/
FoamFile
{
    version     2.0;
    format      ascii;
    arch        "LSB;label=32;scalar=64";
    class       volVectorField;
    location    "0.2";
    object      U;
}
// * * * * * * * * * * * * * * * * * * * * * * * * * * * * * * * * * * * * * //

dimensions      [0 1 -1 0 0 0 0];

internalField   nonuniform List<vector> 
1620
(
(0.000203701 0.000530011 9.09002e-05)
(0.00010857 0.000557331 9.08999e-05)
(1.01419e-05 0.000567717 9.09001e-05)
(-8.85949e-05 0.000560854 9.09009e-05)
(-0.00018464 0.00053695 9.0901e-05)
(-0.000275075 0.00049673 9.09007e-05)
(-0.000357152 0.000441416 9.09009e-05)
(-0.000428378 0.00037269 9.09008e-05)
(-0.000486587 0.000292641 9.09003e-05)
(-0.000530011 0.000203701 9.09001e-05)
(-0.000557331 0.00010857 9.08999e-05)
(-0.000567717 1.01419e-05 9.09001e-05)
(-0.000560854 -8.85949e-05 9.09009e-05)
(-0.00053695 -0.00018464 9.0901e-05)
(-0.00049673 -0.000275075 9.09007e-05)
(-0.000441416 -0.000357152 9.09009e-05)
(-0.00037269 -0.000428378 9.09008e-05)
(-0.000292641 -0.000486587 9.09002e-05)
(-0.0002037 -0.000530011 9.09001e-05)
(-0.00010857 -0.000557331 9.08999e-05)
(-1.01419e-05 -0.000567717 9.09001e-05)
(8.85949e-05 -0.000560854 9.09009e-05)
(0.00018464 -0.00053695 9.0901e-05)
(0.000275076 -0.00049673 9.09007e-05)
(0.000357152 -0.000441416 9.09009e-05)
(0.000428378 -0.00037269 9.09008e-05)
(0.000486587 -0.000292641 9.09003e-05)
(0.000530011 -0.0002037 9.09001e-05)
(0.000557331 -0.00010857 9.08999e-05)
(0.000567717 -1.01418e-05 9.09001e-05)
(0.000560854 8.85949e-05 9.09009e-05)
(0.00053695 0.00018464 9.0901e-05)
(0.00049673 0.000275076 9.09007e-05)
(0.000441416 0.000357152 9.09009e-05)
(0.00037269 0.000428378 9.09008e-05)
(0.000292641 0.000486587 9.09003e-05)
(8.5931e-05 0.000590658 0.000126914)
(-1.79412e-05 0.000596607 0.000126914)
(-0.000121268 0.000584427 0.000126914)
(-0.00022091 0.00055449 0.000126914)
(-0.000313841 0.000507707 0.000126915)
(-0.000397235 0.000445495 0.000126914)
(-0.000468559 0.000369748 0.000126914)
(-0.000525647 0.000282766 0.000126914)
(-0.000566763 0.000187192 0.000126914)
(-0.000590658 8.5931e-05 0.000126914)
(-0.000596607 -1.79412e-05 0.000126914)
(-0.000584427 -0.000121268 0.000126914)
(-0.00055449 -0.00022091 0.000126914)
(-0.000507707 -0.000313841 0.000126915)
(-0.000445495 -0.000397235 0.000126914)
(-0.000369748 -0.000468559 0.000126914)
(-0.000282766 -0.000525647 0.000126914)
(-0.000187192 -0.000566763 0.000126914)
(-8.5931e-05 -0.000590658 0.000126914)
(1.79412e-05 -0.000596607 0.000126914)
(0.000121268 -0.000584427 0.000126914)
(0.00022091 -0.00055449 0.000126914)
(0.000313841 -0.000507707 0.000126915)
(0.000397235 -0.000445495 0.000126914)
(0.000468559 -0.000369748 0.000126914)
(0.000525647 -0.000282766 0.000126914)
(0.000566763 -0.000187192 0.000126914)
(0.000590658 -8.5931e-05 0.000126914)
(0.000596607 1.79413e-05 0.000126914)
(0.000584427 0.000121268 0.000126914)
(0.00055449 0.00022091 0.000126914)
(0.000507707 0.000313841 0.000126915)
(0.000445495 0.000397235 0.000126914)
(0.000369748 0.000468559 0.000126914)
(0.000282766 0.000525647 0.000126914)
(0.000187192 0.000566763 0.000126914)
(-8.26552e-05 0.000633833 0.000145248)
(-0.000191463 0.000609851 0.000145249)
(-0.000294454 0.000567339 0.000145248)
(-0.000388498 0.000507588 0.000145248)
(-0.000470738 0.000432416 0.000145249)
(-0.000538674 0.000344102 0.000145249)
(-0.000590243 0.000245335 0.000145249)
(-0.000623878 0.000139113 0.000145248)
(-0.000638556 2.86643e-05 0.000145248)
(-0.000633832 -8.26552e-05 0.000145248)
(-0.000609851 -0.000191463 0.000145249)
(-0.000567339 -0.000294454 0.000145248)
(-0.000507588 -0.000388498 0.000145248)
(-0.000432416 -0.000470738 0.000145249)
(-0.000344102 -0.000538674 0.000145249)
(-0.000245335 -0.000590243 0.000145249)
(-0.000139113 -0.000623878 0.000145248)
(-2.86643e-05 -0.000638556 0.000145248)
(8.26552e-05 -0.000633832 0.000145248)
(0.000191463 -0.000609851 0.000145249)
(0.000294454 -0.000567339 0.000145248)
(0.000388498 -0.000507588 0.000145248)
(0.000470738 -0.000432416 0.000145249)
(0.000538674 -0.000344102 0.000145249)
(0.000590243 -0.000245335 0.000145249)
(0.000623878 -0.000139113 0.000145248)
(0.000638556 -2.86642e-05 0.000145248)
(0.000633832 8.26552e-05 0.000145248)
(0.000609851 0.000191463 0.000145249)
(0.000567339 0.000294454 0.000145248)
(0.000507588 0.000388498 0.000145248)
(0.000432416 0.000470738 0.000145249)
(0.000344102 0.000538674 0.000145249)
(0.000245335 0.000590243 0.000145249)
(0.000139113 0.000623878 0.000145248)
(2.86643e-05 0.000638556 0.000145248)
(0.000382918 0.00156669 0.000356835)
(0.000105048 0.00160939 0.000356835)
(-0.000176015 0.00160318 0.000356835)
(-0.000451729 0.00154826 0.000356837)
(-0.000713717 0.00144629 0.000356838)
(-0.00095402 0.00130039 0.000356837)
(-0.00116534 0.00111497 0.000356837)
(-0.00134125 0.000895667 0.000356837)
(-0.0014764 0.000649154 0.000356835)
(-0.00156669 0.000382918 0.000356835)
(-0.00160939 0.000105048 0.000356835)
(-0.00160318 -0.000176015 0.000356835)
(-0.00154826 -0.000451729 0.000356837)
(-0.00144629 -0.000713717 0.000356838)
(-0.00130039 -0.00095402 0.000356837)
(-0.00111497 -0.00116534 0.000356837)
(-0.000895667 -0.00134125 0.000356836)
(-0.000649154 -0.0014764 0.000356835)
(-0.000382918 -0.00156669 0.000356835)
(-0.000105047 -0.00160939 0.000356834)
(0.000176015 -0.00160318 0.000356835)
(0.000451729 -0.00154826 0.000356837)
(0.000713717 -0.00144629 0.000356838)
(0.00095402 -0.00130039 0.000356837)
(0.00116534 -0.00111497 0.000356837)
(0.00134125 -0.000895667 0.000356836)
(0.0014764 -0.000649154 0.000356835)
(0.00156669 -0.000382918 0.000356835)
(0.00160939 -0.000105047 0.000356835)
(0.00160318 0.000176015 0.000356835)
(0.00154826 0.000451729 0.000356837)
(0.00144629 0.000713717 0.000356838)
(0.00130039 0.00095402 0.000356837)
(0.00111497 0.00116534 0.000356837)
(0.000895667 0.00134125 0.000356837)
(0.000649154 0.0014764 0.000356835)
(0.000181226 0.00173658 0.000467699)
(-0.000123081 0.00174167 0.000467698)
(-0.000423648 0.00169384 0.000467699)
(-0.000711343 0.00159454 0.000467701)
(-0.000977426 0.00144679 0.000467701)
(-0.00121381 0.00125508 0.000467701)
(-0.00141331 0.00102524 0.0004677)
(-0.00156987 0.000764243 0.000467699)
(-0.00167873 0.000480028 0.000467699)
(-0.00173658 0.000181226 0.000467699)
(-0.00174167 -0.000123081 0.000467698)
(-0.00169384 -0.000423648 0.000467699)
(-0.00159454 -0.000711343 0.0004677)
(-0.00144679 -0.000977426 0.000467701)
(-0.00125508 -0.00121381 0.000467701)
(-0.00102524 -0.00141331 0.0004677)
(-0.000764243 -0.00156987 0.000467699)
(-0.000480027 -0.00167873 0.000467699)
(-0.000181226 -0.00173658 0.000467699)
(0.000123081 -0.00174167 0.000467698)
(0.000423648 -0.00169384 0.000467699)
(0.000711343 -0.00159454 0.0004677)
(0.000977426 -0.00144679 0.000467701)
(0.00121381 -0.00125508 0.000467701)
(0.00141331 -0.00102524 0.0004677)
(0.00156987 -0.000764243 0.000467699)
(0.00167873 -0.000480027 0.000467699)
(0.00173658 -0.000181226 0.000467699)
(0.00174167 0.000123081 0.000467698)
(0.00169384 0.000423649 0.000467699)
(0.00159454 0.000711343 0.000467701)
(0.00144679 0.000977426 0.000467701)
(0.00125508 0.00121381 0.000467701)
(0.00102524 0.00141331 0.0004677)
(0.000764243 0.00156987 0.000467699)
(0.000480027 0.00167873 0.000467699)
(-7.88977e-05 0.00188559 0.000552956)
(-0.000405129 0.00184325 0.000552957)
(-0.000719049 0.0017449 0.000552957)
(-0.00101112 0.00159352 0.000552956)
(-0.00127247 0.00139373 0.000552957)
(-0.00149516 0.0011516 0.000552957)
(-0.00167242 0.000874469 0.000552956)
(-0.00179886 0.000570772 0.000552956)
(-0.00187065 0.000249731 0.000552956)
(-0.00188559 -7.88976e-05 0.000552956)
(-0.00184325 -0.000405129 0.000552957)
(-0.0017449 -0.000719049 0.000552956)
(-0.00159352 -0.00101112 0.000552956)
(-0.00139373 -0.00127247 0.000552956)
(-0.0011516 -0.00149516 0.000552957)
(-0.000874469 -0.00167242 0.000552956)
(-0.000570772 -0.00179886 0.000552956)
(-0.000249731 -0.00187065 0.000552956)
(7.88977e-05 -0.00188559 0.000552956)
(0.000405129 -0.00184325 0.000552956)
(0.000719049 -0.00174489 0.000552956)
(0.00101112 -0.00159352 0.000552956)
(0.00127247 -0.00139373 0.000552956)
(0.00149516 -0.0011516 0.000552957)
(0.00167242 -0.000874469 0.000552956)
(0.00179886 -0.000570772 0.000552956)
(0.00187065 -0.000249731 0.000552956)
(0.00188559 7.88979e-05 0.000552956)
(0.00184325 0.000405129 0.000552957)
(0.0017449 0.000719049 0.000552957)
(0.00159352 0.00101112 0.000552956)
(0.00139373 0.00127247 0.000552956)
(0.0011516 0.00149516 0.000552957)
(0.000874469 0.00167242 0.000552956)
(0.000570772 0.00179886 0.000552956)
(0.000249731 0.00187065 0.000552956)
(0.000483726 0.00260331 0.000804114)
(2.43176e-05 0.00264776 0.000804114)
(-0.00043583 0.00261176 0.000804115)
(-0.000882736 0.0024964 0.000804117)
(-0.00130282 0.00230519 0.000804118)
(-0.00168332 0.00204393 0.000804118)
(-0.00201267 0.00172058 0.000804118)
(-0.00228087 0.00134494 0.000804116)
(-0.00247976 0.000928438 0.000804115)
(-0.00260331 0.000483726 0.000804114)
(-0.00264776 2.43176e-05 0.000804114)
(-0.00261176 -0.00043583 0.000804115)
(-0.0024964 -0.000882736 0.000804117)
(-0.00230519 -0.00130282 0.000804118)
(-0.00204393 -0.00168332 0.000804118)
(-0.00172058 -0.00201267 0.000804118)
(-0.00134494 -0.00228087 0.000804116)
(-0.000928437 -0.00247976 0.000804114)
(-0.000483726 -0.00260331 0.000804114)
(-2.43174e-05 -0.00264776 0.000804114)
(0.00043583 -0.00261176 0.000804115)
(0.000882736 -0.0024964 0.000804117)
(0.00130282 -0.00230519 0.000804118)
(0.00168332 -0.00204393 0.000804118)
(0.00201267 -0.00172058 0.000804118)
(0.00228087 -0.00134494 0.000804116)
(0.00247976 -0.000928437 0.000804115)
(0.00260331 -0.000483726 0.000804114)
(0.00264776 -2.43172e-05 0.000804114)
(0.00261176 0.00043583 0.000804115)
(0.0024964 0.000882736 0.000804117)
(0.00230519 0.00130282 0.000804118)
(0.00204393 0.00168332 0.000804118)
(0.00172058 0.00201267 0.000804118)
(0.00134494 0.00228087 0.000804116)
(0.000928438 0.00247976 0.000804115)
(0.000197923 0.00283593 0.00095456)
(-0.000297537 0.00282721 0.00095456)
(-0.000783957 0.0027326 0.00095456)
(-0.00124656 0.00255495 0.000954561)
(-0.00167128 0.00229967 0.000954561)
(-0.00204522 0.00197452 0.000954561)
(-0.00235702 0.00158937 0.000954561)
(-0.00259721 0.00115593 0.000954561)
(-0.00275847 0.00068737 0.00095456)
(-0.00283593 0.000197923 0.000954559)
(-0.00282721 -0.000297537 0.00095456)
(-0.0027326 -0.000783956 0.00095456)
(-0.00255495 -0.00124656 0.00095456)
(-0.00229967 -0.00167128 0.000954561)
(-0.00197452 -0.00204522 0.000954561)
(-0.00158937 -0.00235702 0.000954561)
(-0.00115593 -0.00259721 0.000954561)
(-0.00068737 -0.00275847 0.00095456)
(-0.000197923 -0.00283593 0.000954559)
(0.000297537 -0.00282721 0.00095456)
(0.000783957 -0.0027326 0.00095456)
(0.00124656 -0.00255495 0.00095456)
(0.00167128 -0.00229967 0.000954561)
(0.00204522 -0.00197452 0.000954561)
(0.00235702 -0.00158937 0.000954561)
(0.00259721 -0.00115593 0.000954561)
(0.00275847 -0.00068737 0.00095456)
(0.00283593 -0.000197922 0.000954559)
(0.00282721 0.000297537 0.00095456)
(0.0027326 0.000783957 0.00095456)
(0.00255495 0.00124656 0.000954561)
(0.00229967 0.00167128 0.000954561)
(0.00197452 0.00204522 0.000954561)
(0.00158937 0.00235702 0.000954561)
(0.00115593 0.00259721 0.000954561)
(0.00068737 0.00275847 0.00095456)
(-0.000138669 0.00304299 0.00107939)
(-0.000664971 0.00297268 0.00107939)
(-0.00117107 0.00281205 0.00107939)
(-0.00164158 0.00256597 0.00107939)
(-0.00206222 0.00224193 0.00107939)
(-0.0024202 0.00184977 0.00107939)
(-0.00270464 0.0014014 0.00107939)
(-0.0029069 0.000910458 0.00107939)
(-0.00302084 0.000391848 0.00107939)
(-0.00304299 -0.000138669 0.00107939)
(-0.00297268 -0.000664971 0.00107939)
(-0.00281205 -0.00117107 0.00107939)
(-0.00256597 -0.00164158 0.00107939)
(-0.00224193 -0.00206222 0.00107939)
(-0.00184977 -0.0024202 0.00107939)
(-0.0014014 -0.00270464 0.00107939)
(-0.000910458 -0.0029069 0.00107939)
(-0.000391848 -0.00302084 0.00107939)
(0.000138669 -0.00304299 0.00107939)
(0.000664972 -0.00297268 0.00107939)
(0.00117107 -0.00281205 0.00107939)
(0.00164158 -0.00256597 0.00107939)
(0.00206222 -0.00224193 0.00107939)
(0.0024202 -0.00184977 0.00107939)
(0.00270464 -0.0014014 0.00107939)
(0.0029069 -0.000910458 0.00107939)
(0.00302084 -0.000391847 0.00107939)
(0.00304299 0.000138669 0.00107939)
(0.00297268 0.000664972 0.00107939)
(0.00281205 0.00117107 0.00107939)
(0.00256597 0.00164158 0.00107939)
(0.00224193 0.00206222 0.00107939)
(0.00184977 0.0024202 0.00107939)
(0.0014014 0.00270464 0.00107939)
(0.000910458 0.0029069 0.00107939)
(0.000391848 0.00302084 0.00107939)
(0.000460238 0.00360991 0.00136209)
(-0.000173608 0.00363499 0.00136209)
(-0.00080218 0.00354962 0.00136209)
(-0.00140638 0.00335639 0.00136209)
(-0.00196784 0.00306119 0.00136209)
(-0.00246951 0.00267297 0.00136209)
(-0.00289615 0.00220353 0.00136209)
(-0.00323479 0.00166714 0.00136209)
(-0.00347515 0.0010801 0.00136209)
(-0.00360991 0.000460238 0.00136209)
(-0.00363499 -0.000173608 0.00136209)
(-0.00354962 -0.00080218 0.00136209)
(-0.00335639 -0.00140638 0.00136209)
(-0.00306119 -0.00196784 0.00136209)
(-0.00267297 -0.00246951 0.00136209)
(-0.00220353 -0.00289615 0.00136209)
(-0.00166714 -0.00323479 0.00136209)
(-0.0010801 -0.00347515 0.00136209)
(-0.000460238 -0.00360991 0.00136209)
(0.000173609 -0.00363499 0.00136209)
(0.00080218 -0.00354962 0.00136209)
(0.00140638 -0.00335639 0.00136209)
(0.00196784 -0.00306119 0.00136209)
(0.00246951 -0.00267297 0.00136209)
(0.00289615 -0.00220353 0.00136209)
(0.00323479 -0.00166714 0.00136209)
(0.00347515 -0.0010801 0.00136209)
(0.00360991 -0.000460237 0.00136209)
(0.00363499 0.000173609 0.00136209)
(0.00354962 0.00080218 0.00136209)
(0.00335639 0.00140638 0.00136209)
(0.00306119 0.00196784 0.00136209)
(0.00267297 0.00246951 0.00136209)
(0.00220353 0.00289615 0.00136209)
(0.00166714 0.00323479 0.00136209)
(0.0010801 0.00347515 0.00136209)
(0.000120698 0.00385112 0.00152418)
(-0.000549876 0.00381358 0.00152418)
(-0.00120374 0.00366015 0.00152418)
(-0.00182103 0.00339552 0.00152418)
(-0.00238299 0.00302772 0.00152418)
(-0.00287254 0.00256792 0.00152418)
(-0.00327482 0.00203009 0.00152419)
(-0.00357759 0.00143058 0.00152418)
(-0.00377166 0.000787606 0.00152418)
(-0.00385112 0.000120698 0.00152418)
(-0.00381357 -0.000549876 0.00152418)
(-0.00366015 -0.00120374 0.00152418)
(-0.00339552 -0.00182103 0.00152418)
(-0.00302772 -0.00238299 0.00152418)
(-0.00256792 -0.00287254 0.00152418)
(-0.00203009 -0.00327482 0.00152418)
(-0.00143058 -0.00357759 0.00152418)
(-0.000787605 -0.00377166 0.00152418)
(-0.000120698 -0.00385112 0.00152418)
(0.000549876 -0.00381357 0.00152418)
(0.00120374 -0.00366015 0.00152418)
(0.00182103 -0.00339552 0.00152418)
(0.00238299 -0.00302772 0.00152418)
(0.00287254 -0.00256791 0.00152418)
(0.00327482 -0.00203009 0.00152419)
(0.00357759 -0.00143058 0.00152418)
(0.00377166 -0.000787605 0.00152418)
(0.00385112 -0.000120698 0.00152418)
(0.00381357 0.000549876 0.00152418)
(0.00366015 0.00120374 0.00152418)
(0.00339552 0.00182103 0.00152418)
(0.00302772 0.00238299 0.00152418)
(0.00256792 0.00287254 0.00152418)
(0.00203009 0.00327482 0.00152419)
(0.00143058 0.00357759 0.00152418)
(0.000787605 0.00377166 0.00152418)
(-0.000260959 0.00406608 0.00166022)
(-0.000963062 0.003959 0.00166022)
(-0.0016359 0.00373162 0.00166022)
(-0.00225904 0.00339085 0.00166022)
(-0.00281353 0.00294706 0.00166022)
(-0.00328254 0.00241373 0.00166022)
(-0.00365181 0.00180705 0.00166022)
(-0.00391012 0.00114546 0.00166022)
(-0.00404963 0.000449075 0.00166022)
(-0.00406608 -0.000260959 0.00166022)
(-0.003959 -0.000963062 0.00166022)
(-0.00373162 -0.0016359 0.00166022)
(-0.00339085 -0.00225904 0.00166022)
(-0.00294706 -0.00281353 0.00166022)
(-0.00241372 -0.00328254 0.00166022)
(-0.00180705 -0.00365181 0.00166022)
(-0.00114546 -0.00391012 0.00166022)
(-0.000449074 -0.00404963 0.00166022)
(0.000260959 -0.00406608 0.00166022)
(0.000963062 -0.003959 0.00166022)
(0.0016359 -0.00373162 0.00166022)
(0.00225904 -0.00339085 0.00166022)
(0.00281353 -0.00294706 0.00166022)
(0.00328254 -0.00241372 0.00166022)
(0.00365181 -0.00180705 0.00166022)
(0.00391012 -0.00114546 0.00166022)
(0.00404963 -0.000449074 0.00166022)
(0.00406608 0.000260959 0.00166022)
(0.003959 0.000963063 0.00166022)
(0.00373162 0.0016359 0.00166022)
(0.00339085 0.00225904 0.00166022)
(0.00294706 0.00281353 0.00166022)
(0.00241372 0.00328254 0.00166022)
(0.00180705 0.00365181 0.00166022)
(0.00114546 0.00391012 0.00166022)
(0.000449075 0.00404963 0.00166022)
(0.00032387 0.0045447 0.00199503)
(-0.000470228 0.00453189 0.00199503)
(-0.00125004 0.00438139 0.00199503)
(-0.00199187 0.00409776 0.00199503)
(-0.00267317 0.00368962 0.00199503)
(-0.00327326 0.00316937 0.00199503)
(-0.00377388 0.00255283 0.00199503)
(-0.00415984 0.00185872 0.00199503)
(-0.00441941 0.00110813 0.00199503)
(-0.0045447 0.00032387 0.00199503)
(-0.00453189 -0.000470228 0.00199503)
(-0.00438139 -0.00125004 0.00199503)
(-0.00409776 -0.00199187 0.00199503)
(-0.00368962 -0.00267317 0.00199503)
(-0.00316937 -0.00327326 0.00199503)
(-0.00255283 -0.00377388 0.00199503)
(-0.00185872 -0.00415984 0.00199503)
(-0.00110813 -0.00441941 0.00199503)
(-0.00032387 -0.0045447 0.00199503)
(0.000470228 -0.00453189 0.00199503)
(0.00125004 -0.00438139 0.00199503)
(0.00199187 -0.00409776 0.00199503)
(0.00267317 -0.00368962 0.00199503)
(0.00327326 -0.00316937 0.00199503)
(0.00377388 -0.00255283 0.00199503)
(0.00415984 -0.00185872 0.00199503)
(0.00441941 -0.00110813 0.00199503)
(0.0045447 -0.000323869 0.00199503)
(0.00453189 0.000470228 0.00199503)
(0.00438139 0.00125004 0.00199503)
(0.00409776 0.00199187 0.00199503)
(0.00368962 0.00267317 0.00199503)
(0.00316937 0.00327326 0.00199503)
(0.00255283 0.00377388 0.00199503)
(0.00185872 0.00415984 0.00199503)
(0.00110813 0.00441941 0.00199503)
(-4.29746e-05 0.00474721 0.00214619)
(-0.000866666 0.00466763 0.00214619)
(-0.00166402 0.00444622 0.00214619)
(-0.00241082 0.00408972 0.00214619)
(-0.00308437 0.00360895 0.00214619)
(-0.00366419 0.00301853 0.00214619)
(-0.00413269 0.00233639 0.00214619)
(-0.00447561 0.00158326 0.00214619)
(-0.00468255 0.000782023 0.00214619)
(-0.00474721 -4.29745e-05 0.00214619)
(-0.00466763 -0.000866666 0.00214619)
(-0.00444622 -0.00166402 0.00214619)
(-0.00408972 -0.00241082 0.00214619)
(-0.00360895 -0.00308437 0.00214619)
(-0.00301853 -0.00366419 0.00214619)
(-0.00233639 -0.00413269 0.00214619)
(-0.00158326 -0.00447561 0.00214619)
(-0.000782023 -0.00468255 0.00214619)
(4.29749e-05 -0.00474721 0.00214619)
(0.000866666 -0.00466763 0.00214619)
(0.00166402 -0.00444622 0.00214619)
(0.00241082 -0.00408972 0.00214619)
(0.00308437 -0.00360895 0.00214619)
(0.00366419 -0.00301853 0.00214619)
(0.00413269 -0.00233639 0.00214619)
(0.00447561 -0.00158326 0.00214619)
(0.00468255 -0.000782023 0.00214619)
(0.00474721 4.29752e-05 0.00214619)
(0.00466763 0.000866667 0.00214619)
(0.00444622 0.00166402 0.00214619)
(0.00408972 0.00241082 0.00214619)
(0.00360895 0.00308437 0.00214619)
(0.00301853 0.00366419 0.00214619)
(0.00233639 0.00413269 0.00214619)
(0.00158326 0.00447561 0.00214619)
(0.000782023 0.00468255 0.00214619)
(-0.000443722 0.0049261 0.00227089)
(-0.00129239 0.00477421 0.00227089)
(-0.00210179 0.00447726 0.00227089)
(-0.00284732 0.00404427 0.00227089)
(-0.00350634 0.00348839 0.00227089)
(-0.00405883 0.00282653 0.00227089)
(-0.00448799 0.00207878 0.00227089)
(-0.00478078 0.00126786 0.00227089)
(-0.00492831 0.000418429 0.00227089)
(-0.0049261 -0.000443721 0.00227089)
(-0.00477421 -0.00129239 0.00227089)
(-0.00447726 -0.00210179 0.00227089)
(-0.00404427 -0.00284732 0.00227089)
(-0.00348839 -0.00350634 0.00227089)
(-0.00282653 -0.00405883 0.00227089)
(-0.00207878 -0.00448799 0.00227089)
(-0.00126786 -0.00478078 0.00227089)
(-0.000418429 -0.00492831 0.00227089)
(0.000443722 -0.0049261 0.00227089)
(0.00129239 -0.00477421 0.00227089)
(0.00210179 -0.00447726 0.00227089)
(0.00284732 -0.00404427 0.00227089)
(0.00350634 -0.00348839 0.00227089)
(0.00405883 -0.00282653 0.00227089)
(0.00448799 -0.00207878 0.00227089)
(0.00478078 -0.00126786 0.00227089)
(0.00492831 -0.000418428 0.00227089)
(0.0049261 0.000443722 0.00227089)
(0.00477421 0.00129239 0.00227089)
(0.00447726 0.00210179 0.00227089)
(0.00404427 0.00284732 0.00227089)
(0.00348839 0.00350634 0.00227089)
(0.00282653 0.00405883 0.00227089)
(0.00207878 0.00448799 0.00227089)
(0.00126786 0.00478078 0.00227089)
(0.000418429 0.00492831 0.00227089)
(0.000104559 0.00536237 0.00268377)
(-0.000828195 0.00529907 0.00268377)
(-0.00173579 0.00507475 0.00268377)
(-0.00259063 0.00469623 0.00268377)
(-0.00336677 0.00417503 0.00268377)
(-0.0040406 0.00352697 0.00268377)
(-0.00459167 0.00277174 0.00268377)
(-0.00500322 0.00193229 0.00268377)
(-0.00526275 0.00103414 0.00268377)
(-0.00536237 0.00010456 0.00268377)
(-0.00529907 -0.000828195 0.00268377)
(-0.00507475 -0.00173579 0.00268377)
(-0.00469623 -0.00259063 0.00268377)
(-0.00417503 -0.00336677 0.00268377)
(-0.00352697 -0.0040406 0.00268377)
(-0.00277174 -0.00459167 0.00268377)
(-0.00193229 -0.00500322 0.00268377)
(-0.00103414 -0.00526275 0.00268377)
(-0.000104559 -0.00536237 0.00268377)
(0.000828195 -0.00529907 0.00268377)
(0.00173579 -0.00507475 0.00268377)
(0.00259063 -0.00469623 0.00268377)
(0.00336677 -0.00417503 0.00268377)
(0.0040406 -0.00352696 0.00268377)
(0.00459167 -0.00277174 0.00268377)
(0.00500322 -0.00193229 0.00268377)
(0.00526275 -0.00103414 0.00268377)
(0.00536237 -0.000104559 0.00268377)
(0.00529907 0.000828195 0.00268377)
(0.00507475 0.00173579 0.00268377)
(0.00469623 0.00259063 0.00268377)
(0.00417503 0.00336677 0.00268377)
(0.00352697 0.0040406 0.00268377)
(0.00277174 0.00459167 0.00268377)
(0.00193229 0.00500322 0.00268377)
(0.00103414 0.00526275 0.00268377)
(-0.000270787 0.00549056 0.00280603)
(-0.0012201 0.00536012 0.00280603)
(-0.00213234 0.00506682 0.00280603)
(-0.00297978 0.00461957 0.00280603)
(-0.00373669 0.00403195 0.00280603)
(-0.00438006 0.00332183 0.00280603)
(-0.00489035 0.00251077 0.00280603)
(-0.00525205 0.00162343 0.00280603)
(-0.00545416 0.000686752 0.00280603)
(-0.00549055 -0.000270787 0.00280603)
(-0.00536012 -0.0012201 0.00280603)
(-0.00506682 -0.00213234 0.00280603)
(-0.00461957 -0.00297978 0.00280603)
(-0.00403195 -0.00373669 0.00280603)
(-0.00332183 -0.00438006 0.00280603)
(-0.00251077 -0.00489035 0.00280603)
(-0.00162343 -0.00525204 0.00280603)
(-0.000686751 -0.00545416 0.00280603)
(0.000270787 -0.00549055 0.00280603)
(0.0012201 -0.00536012 0.00280603)
(0.00213234 -0.00506682 0.00280603)
(0.00297978 -0.00461957 0.00280603)
(0.00373669 -0.00403195 0.00280603)
(0.00438006 -0.00332183 0.00280603)
(0.00489035 -0.00251077 0.00280603)
(0.00525205 -0.00162342 0.00280603)
(0.00545416 -0.000686751 0.00280603)
(0.00549055 0.000270788 0.00280603)
(0.00536012 0.0012201 0.00280603)
(0.00506682 0.00213234 0.00280603)
(0.00461957 0.00297978 0.00280603)
(0.00403195 0.00373669 0.00280603)
(0.00332183 0.00438006 0.00280603)
(0.00251077 0.00489035 0.00280603)
(0.00162343 0.00525205 0.00280603)
(0.000686752 0.00545416 0.00280603)
(-0.000671775 0.00560054 0.00290108)
(-0.00163409 0.0053988 0.00290108)
(-0.00254676 0.00503302 0.00290108)
(-0.00338204 0.00451432 0.00290108)
(-0.00411456 0.00385845 0.00290108)
(-0.00472207 0.00308535 0.00290108)
(-0.00518609 0.0022185 0.00290108)
(-0.00549254 0.00128424 0.00290108)
(-0.0056321 0.000310954 0.00290108)
(-0.00560054 -0.000671775 0.00290108)
(-0.0053988 -0.00163409 0.00290108)
(-0.00503302 -0.00254676 0.00290108)
(-0.00451432 -0.00338204 0.00290108)
(-0.00385845 -0.00411456 0.00290108)
(-0.00308535 -0.00472207 0.00290108)
(-0.0022185 -0.00518609 0.00290108)
(-0.00128424 -0.00549254 0.00290108)
(-0.000310954 -0.0056321 0.00290108)
(0.000671775 -0.00560054 0.00290108)
(0.00163409 -0.0053988 0.00290108)
(0.00254676 -0.00503302 0.00290108)
(0.00338204 -0.00451432 0.00290108)
(0.00411456 -0.00385845 0.00290108)
(0.00472207 -0.00308535 0.00290108)
(0.00518609 -0.0022185 0.00290108)
(0.00549254 -0.00128424 0.00290108)
(0.0056321 -0.000310954 0.00290108)
(0.00560054 0.000671775 0.00290108)
(0.0053988 0.00163409 0.00290108)
(0.00503302 0.00254676 0.00290108)
(0.00451432 0.00338204 0.00290108)
(0.00385845 0.00411456 0.00290108)
(0.00308535 0.00472207 0.00290108)
(0.0022185 0.00518609 0.00290108)
(0.00128424 0.00549254 0.00290108)
(0.000310954 0.0056321 0.00290108)
(-0.000156651 0.00602133 0.00342686)
(-0.00119986 0.00590266 0.00342686)
(-0.00220662 0.00560463 0.00342686)
(-0.00314633 0.0051363 0.00342686)
(-0.00399044 0.00451192 0.00342686)
(-0.0047133 0.00375044 0.00342686)
(-0.00529295 0.002875 0.00342686)
(-0.00571178 0.00191221 0.00342686)
(-0.00595706 0.000891321 0.00342686)
(-0.00602133 -0.000156651 0.00342686)
(-0.00590265 -0.00119986 0.00342686)
(-0.00560463 -0.00220662 0.00342686)
(-0.0051363 -0.00314633 0.00342686)
(-0.00451192 -0.00399044 0.00342686)
(-0.00375044 -0.0047133 0.00342686)
(-0.002875 -0.00529295 0.00342686)
(-0.00191221 -0.00571178 0.00342686)
(-0.00089132 -0.00595706 0.00342686)
(0.000156651 -0.00602133 0.00342686)
(0.00119986 -0.00590265 0.00342686)
(0.00220662 -0.00560463 0.00342686)
(0.00314633 -0.0051363 0.00342686)
(0.00399044 -0.00451192 0.00342686)
(0.0047133 -0.00375043 0.00342686)
(0.00529295 -0.002875 0.00342686)
(0.00571178 -0.00191221 0.00342686)
(0.00595706 -0.00089132 0.00342686)
(0.00602133 0.000156652 0.00342686)
(0.00590265 0.00119986 0.00342686)
(0.00560463 0.00220662 0.00342686)
(0.0051363 0.00314633 0.00342686)
(0.00451192 0.00399044 0.00342686)
(0.00375044 0.0047133 0.00342686)
(0.002875 0.00529295 0.00342686)
(0.00191221 0.00571178 0.00342686)
(0.000891321 0.00595706 0.00342686)
(-0.000529184 0.00605026 0.00350478)
(-0.00157176 0.00586645 0.00350477)
(-0.00256658 0.00550439 0.00350477)
(-0.00348342 0.00497509 0.00350477)
(-0.00429441 0.00429461 0.00350477)
(-0.00497492 0.00348365 0.00350477)
(-0.00550427 0.00256684 0.00350477)
(-0.00586637 0.00157204 0.00350477)
(-0.00605023 0.00052947 0.00350478)
(-0.00605026 -0.000529184 0.00350477)
(-0.00586645 -0.00157176 0.00350477)
(-0.00550439 -0.00256658 0.00350477)
(-0.00497508 -0.00348342 0.00350477)
(-0.00429461 -0.00429441 0.00350477)
(-0.00348365 -0.00497492 0.00350477)
(-0.00256684 -0.00550427 0.00350477)
(-0.00157204 -0.00586637 0.00350477)
(-0.000529469 -0.00605023 0.00350477)
(0.000529185 -0.00605026 0.00350477)
(0.00157176 -0.00586645 0.00350477)
(0.00256658 -0.00550439 0.00350477)
(0.00348342 -0.00497508 0.00350477)
(0.00429441 -0.00429461 0.00350477)
(0.00497492 -0.00348365 0.00350477)
(0.00550427 -0.00256684 0.00350477)
(0.00586637 -0.00157204 0.00350477)
(0.00605023 -0.000529469 0.00350478)
(0.00605026 0.000529185 0.00350477)
(0.00586645 0.00157176 0.00350477)
(0.00550439 0.00256658 0.00350477)
(0.00497509 0.00348342 0.00350477)
(0.00429461 0.00429441 0.00350477)
(0.00348365 0.00497492 0.00350477)
(0.00256684 0.00550427 0.00350477)
(0.00157204 0.00586637 0.00350477)
(0.00052947 0.00605023 0.00350478)
(-0.000918384 0.00606925 0.00355401)
(-0.00195835 0.00581757 0.00355401)
(-0.0029388 0.00538913 0.00355401)
(-0.00382997 0.00479694 0.00355401)
(-0.00460476 0.00405899 0.00355401)
(-0.00523964 0.00319772 0.00355401)
(-0.00571532 0.00223929 0.00355401)
(-0.00601734 0.00121281 0.00355401)
(-0.00613652 0.000149486 0.00355401)
(-0.00606925 -0.000918383 0.00355401)
(-0.00581757 -0.00195835 0.00355401)
(-0.00538913 -0.0029388 0.00355401)
(-0.00479694 -0.00382997 0.00355401)
(-0.00405899 -0.00460476 0.00355401)
(-0.00319772 -0.00523964 0.00355401)
(-0.00223928 -0.00571532 0.00355401)
(-0.00121281 -0.00601734 0.00355401)
(-0.000149485 -0.00613652 0.00355401)
(0.000918384 -0.00606925 0.00355401)
(0.00195835 -0.00581757 0.00355401)
(0.0029388 -0.00538913 0.00355401)
(0.00382997 -0.00479694 0.00355401)
(0.00460476 -0.00405899 0.00355401)
(0.00523964 -0.00319772 0.00355401)
(0.00571532 -0.00223928 0.00355401)
(0.00601734 -0.00121281 0.00355401)
(0.00613652 -0.000149485 0.00355401)
(0.00606925 0.000918384 0.00355401)
(0.00581757 0.00195835 0.00355401)
(0.00538913 0.00293881 0.00355401)
(0.00479694 0.00382997 0.00355401)
(0.00405899 0.00460476 0.00355401)
(0.00319772 0.00523964 0.00355401)
(0.00223929 0.00571532 0.00355401)
(0.00121281 0.00601734 0.00355401)
(0.000149486 0.00613652 0.00355401)
(-0.000412942 0.00648476 0.00423466)
(-0.00153274 0.00631454 0.00423466)
(-0.00260596 0.00595245 0.00423466)
(-0.0036 0.0054095 0.00423466)
(-0.00448466 0.00470218 0.00423466)
(-0.00523305 0.00385199 0.00423466)
(-0.00582244 0.00288476 0.00423466)
(-0.00623492 0.00182988 0.00423466)
(-0.00645795 0.000719396 0.00423466)
(-0.00648476 -0.000412942 0.00423466)
(-0.00631454 -0.00153274 0.00423466)
(-0.00595245 -0.00260596 0.00423466)
(-0.0054095 -0.0036 0.00423466)
(-0.00470218 -0.00448466 0.00423466)
(-0.00385199 -0.00523305 0.00423466)
(-0.00288476 -0.00582244 0.00423466)
(-0.00182988 -0.00623492 0.00423466)
(-0.000719395 -0.00645795 0.00423466)
(0.000412943 -0.00648476 0.00423466)
(0.00153274 -0.00631454 0.00423466)
(0.00260596 -0.00595245 0.00423466)
(0.0036 -0.0054095 0.00423466)
(0.00448466 -0.00470218 0.00423466)
(0.00523305 -0.00385199 0.00423466)
(0.00582244 -0.00288476 0.00423466)
(0.00623492 -0.00182988 0.00423466)
(0.00645795 -0.000719395 0.00423466)
(0.00648476 0.000412943 0.00423466)
(0.00631454 0.00153274 0.00423466)
(0.00595245 0.00260596 0.00423466)
(0.0054095 0.0036 0.00423466)
(0.00470218 0.00448466 0.00423466)
(0.00385199 0.00523305 0.00423466)
(0.00288476 0.00582244 0.00423466)
(0.00182988 0.00623492 0.00423466)
(0.000719396 0.00645795 0.00423466)