/*--------------------------------*- C++ -*----------------------------------*\
| =========                 |                                                 |
| \\      /  F ield         | OpenFOAM: The Open Source CFD Toolbox           |
|  \\    /   O peration     | Version:  2312                                  |
|   \\  /    A nd           | Website:  www.openfoam.com                      |
|    \\/     M anipulation  |                                                 |
\*---------------------------------------------------------------------------*/
FoamFile
{
    version     2.0;
    format      ascii;
    arch        "LSB;label=32;scalar=64";
    class       volVectorField;
    location    "1";
    object      D_0_0_0;
}
// * * * * * * * * * * * * * * * * * * * * * * * * * * * * * * * * * * * * * //

dimensions      [0 1 0 0 0 0 0];

internalField   nonuniform List<vector> 
12960
(
(0.000126255 -0.000161782 -5.1524e-06)
(0.000139874 -0.000150163 -5.15242e-06)
(0.00015243 -0.0001374 -5.15236e-06)
(0.000163825 -0.000123592 -5.15246e-06)
(0.000173973 -0.000108844 -5.15248e-06)
(0.000182797 -9.32665e-05 -5.15237e-06)
(0.00019023 -7.69798e-05 -5.1525e-06)
(0.000196216 -6.01073e-05 -5.15268e-06)
(0.000200708 -4.27772e-05 -5.1528e-06)
(0.000203672 -2.51217e-05 -5.15261e-06)
(0.000205087 -7.27479e-06 -5.15238e-06)
(0.00020494 1.06276e-05 -5.15218e-06)
(0.000203234 2.84487e-05 -5.15219e-06)
(0.000199982 4.60535e-05 -5.15225e-06)
(0.000195206 6.33078e-05 -5.15243e-06)
(0.000188946 8.00804e-05 -5.15236e-06)
(0.000181248 9.62433e-05 -5.1524e-06)
(0.00017217 0.000111674 -5.15264e-06)
(0.000161782 0.000126255 -5.1524e-06)
(0.000150163 0.000139874 -5.15242e-06)
(0.0001374 0.00015243 -5.15236e-06)
(0.000123592 0.000163825 -5.15246e-06)
(0.000108844 0.000173973 -5.15248e-06)
(9.32665e-05 0.000182797 -5.15237e-06)
(7.69798e-05 0.00019023 -5.1525e-06)
(6.01073e-05 0.000196216 -5.15268e-06)
(4.27772e-05 0.000200708 -5.1528e-06)
(2.51217e-05 0.000203672 -5.15261e-06)
(7.27479e-06 0.000205087 -5.15238e-06)
(-1.06276e-05 0.00020494 -5.15218e-06)
(-2.84487e-05 0.000203234 -5.15219e-06)
(-4.60535e-05 0.000199982 -5.15225e-06)
(-6.33078e-05 0.000195206 -5.15243e-06)
(-8.00804e-05 0.000188946 -5.15236e-06)
(-9.62433e-05 0.000181248 -5.1524e-06)
(-0.000111674 0.00017217 -5.15264e-06)
(-0.000126255 0.000161782 -5.1524e-06)
(-0.000139874 0.000150163 -5.15242e-06)
(-0.00015243 0.0001374 -5.15236e-06)
(-0.000163825 0.000123592 -5.15246e-06)
(-0.000173973 0.000108844 -5.15248e-06)
(-0.000182797 9.32665e-05 -5.15237e-06)
(-0.00019023 7.69798e-05 -5.1525e-06)
(-0.000196216 6.01073e-05 -5.15268e-06)
(-0.000200708 4.27772e-05 -5.1528e-06)
(-0.000203672 2.51217e-05 -5.15261e-06)
(-0.000205087 7.27479e-06 -5.15238e-06)
(-0.00020494 -1.06276e-05 -5.15218e-06)
(-0.000203234 -2.84487e-05 -5.15219e-06)
(-0.000199982 -4.60535e-05 -5.15225e-06)
(-0.000195206 -6.33078e-05 -5.15243e-06)
(-0.000188946 -8.00804e-05 -5.15236e-06)
(-0.000181248 -9.62433e-05 -5.1524e-06)
(-0.00017217 -0.000111674 -5.15264e-06)
(-0.000161782 -0.000126255 -5.1524e-06)
(-0.000150163 -0.000139874 -5.15242e-06)
(-0.0001374 -0.00015243 -5.15236e-06)
(-0.000123592 -0.000163825 -5.15246e-06)
(-0.000108844 -0.000173973 -5.15248e-06)
(-9.32665e-05 -0.000182797 -5.15237e-06)
(-7.69798e-05 -0.00019023 -5.1525e-06)
(-6.01073e-05 -0.000196216 -5.15268e-06)
(-4.27772e-05 -0.000200708 -5.1528e-06)
(-2.51217e-05 -0.000203672 -5.15261e-06)
(-7.27479e-06 -0.000205087 -5.15238e-06)
(1.06276e-05 -0.00020494 -5.15218e-06)
(2.84487e-05 -0.000203234 -5.15219e-06)
(4.60535e-05 -0.000199982 -5.15225e-06)
(6.33078e-05 -0.000195206 -5.15243e-06)
(8.00804e-05 -0.000188946 -5.15236e-06)
(9.62433e-05 -0.000181248 -5.1524e-06)
(0.000111674 -0.00017217 -5.15264e-06)
(0.00011087 -0.00018914 2.16354e-05)
(0.000126932 -0.000178757 2.16354e-05)
(0.000142029 -0.000167014 2.16355e-05)
(0.000156045 -0.000154 2.16356e-05)
(0.000168873 -0.000139814 2.16355e-05)
(0.000180417 -0.000124564 2.16355e-05)
(0.000190587 -0.000108366 2.16355e-05)
(0.000199306 -9.13423e-05 2.16353e-05)
(0.000206508 -7.3624e-05 2.16354e-05)
(0.000212139 -5.53457e-05 2.16354e-05)
(0.000216156 -3.66459e-05 2.16356e-05)
(0.000218527 -1.7667e-05 2.16356e-05)
(0.000219235 1.44608e-06 2.16356e-05)
(0.000218275 2.05482e-05 2.16356e-05)
(0.000215653 3.94939e-05 2.16356e-05)
(0.00021139 5.8139e-05 2.16356e-05)
(0.000205518 7.63415e-05 2.16355e-05)
(0.000198083 9.39633e-05 2.16354e-05)
(0.00018914 0.00011087 2.16354e-05)
(0.000178757 0.000126932 2.16354e-05)
(0.000167014 0.000142029 2.16355e-05)
(0.000154 0.000156045 2.16356e-05)
(0.000139814 0.000168873 2.16355e-05)
(0.000124564 0.000180417 2.16355e-05)
(0.000108366 0.000190587 2.16355e-05)
(9.13423e-05 0.000199306 2.16353e-05)
(7.3624e-05 0.000206508 2.16354e-05)
(5.53457e-05 0.000212139 2.16354e-05)
(3.66459e-05 0.000216156 2.16356e-05)
(1.7667e-05 0.000218527 2.16356e-05)
(-1.44608e-06 0.000219235 2.16356e-05)
(-2.05482e-05 0.000218275 2.16356e-05)
(-3.94939e-05 0.000215653 2.16356e-05)
(-5.8139e-05 0.00021139 2.16356e-05)
(-7.63415e-05 0.000205518 2.16355e-05)
(-9.39633e-05 0.000198083 2.16354e-05)
(-0.00011087 0.00018914 2.16354e-05)
(-0.000126932 0.000178757 2.16354e-05)
(-0.000142029 0.000167014 2.16355e-05)
(-0.000156045 0.000154 2.16356e-05)
(-0.000168873 0.000139814 2.16355e-05)
(-0.000180417 0.000124564 2.16355e-05)
(-0.000190587 0.000108366 2.16355e-05)
(-0.000199306 9.13423e-05 2.16353e-05)
(-0.000206508 7.3624e-05 2.16354e-05)
(-0.000212139 5.53457e-05 2.16354e-05)
(-0.000216156 3.66459e-05 2.16356e-05)
(-0.000218527 1.7667e-05 2.16356e-05)
(-0.000219235 -1.44608e-06 2.16356e-05)
(-0.000218275 -2.05482e-05 2.16356e-05)
(-0.000215653 -3.94939e-05 2.16356e-05)
(-0.00021139 -5.8139e-05 2.16356e-05)
(-0.000205518 -7.63415e-05 2.16355e-05)
(-0.000198083 -9.39633e-05 2.16354e-05)
(-0.00018914 -0.00011087 2.16354e-05)
(-0.000178757 -0.000126932 2.16354e-05)
(-0.000167014 -0.000142029 2.16355e-05)
(-0.000154 -0.000156045 2.16356e-05)
(-0.000139814 -0.000168873 2.16355e-05)
(-0.000124564 -0.000180417 2.16355e-05)
(-0.000108366 -0.000190587 2.16355e-05)
(-9.13423e-05 -0.000199306 2.16353e-05)
(-7.3624e-05 -0.000206508 2.16354e-05)
(-5.53457e-05 -0.000212139 2.16354e-05)
(-3.66459e-05 -0.000216156 2.16356e-05)
(-1.7667e-05 -0.000218527 2.16356e-05)
(1.44608e-06 -0.000219235 2.16356e-05)
(2.05482e-05 -0.000218275 2.16356e-05)
(3.94939e-05 -0.000215653 2.16356e-05)
(5.8139e-05 -0.00021139 2.16356e-05)
(7.63415e-05 -0.000205518 2.16355e-05)
(9.39633e-05 -0.000198083 2.16354e-05)
(8.25262e-05 -0.000214354 3.35616e-05)
(0.000100894 -0.000206346 3.35616e-05)
(0.000118495 -0.000196767 3.35616e-05)
(0.000135193 -0.000185691 3.35616e-05)
(0.000150863 -0.000173202 3.35618e-05)
(0.000165384 -0.000159394 3.35615e-05)
(0.000178646 -0.000144373 3.35615e-05)
(0.00019055 -0.000128254 3.35615e-05)
(0.000201003 -0.000111158 3.35615e-05)
(0.000209926 -9.32167e-05 3.35615e-05)
(0.000217251 -7.45657e-05 3.35617e-05)
(0.000222923 -5.53471e-05 3.35615e-05)
(0.000226899 -3.57075e-05 3.35616e-05)
(0.000229148 -1.5796e-05 3.35617e-05)
(0.000229652 4.23562e-06 3.35616e-05)
(0.00022841 2.42352e-05 3.35616e-05)
(0.000225428 4.40502e-05 3.35617e-05)
(0.000220731 6.35299e-05 3.35616e-05)
(0.000214354 8.25262e-05 3.35616e-05)
(0.000206346 0.000100894 3.35616e-05)
(0.000196767 0.000118495 3.35616e-05)
(0.000185691 0.000135193 3.35616e-05)
(0.000173202 0.000150863 3.35618e-05)
(0.000159394 0.000165384 3.35615e-05)
(0.000144373 0.000178646 3.35615e-05)
(0.000128254 0.00019055 3.35615e-05)
(0.000111158 0.000201003 3.35615e-05)
(9.32167e-05 0.000209926 3.35615e-05)
(7.45657e-05 0.000217251 3.35617e-05)
(5.53471e-05 0.000222923 3.35615e-05)
(3.57075e-05 0.000226899 3.35616e-05)
(1.5796e-05 0.000229148 3.35617e-05)
(-4.23562e-06 0.000229652 3.35616e-05)
(-2.42352e-05 0.00022841 3.35616e-05)
(-4.40502e-05 0.000225428 3.35617e-05)
(-6.35299e-05 0.000220731 3.35616e-05)
(-8.25262e-05 0.000214354 3.35616e-05)
(-0.000100894 0.000206346 3.35616e-05)
(-0.000118495 0.000196767 3.35616e-05)
(-0.000135193 0.000185691 3.35616e-05)
(-0.000150863 0.000173202 3.35618e-05)
(-0.000165384 0.000159394 3.35615e-05)
(-0.000178646 0.000144373 3.35615e-05)
(-0.00019055 0.000128254 3.35615e-05)
(-0.000201003 0.000111158 3.35615e-05)
(-0.000209926 9.32167e-05 3.35615e-05)
(-0.000217251 7.45657e-05 3.35617e-05)
(-0.000222923 5.53471e-05 3.35615e-05)
(-0.000226899 3.57075e-05 3.35616e-05)
(-0.000229148 1.5796e-05 3.35617e-05)
(-0.000229652 -4.23562e-06 3.35616e-05)
(-0.00022841 -2.42352e-05 3.35616e-05)
(-0.000225428 -4.40502e-05 3.35617e-05)
(-0.000220731 -6.35299e-05 3.35616e-05)
(-0.000214354 -8.25262e-05 3.35616e-05)
(-0.000206346 -0.000100894 3.35616e-05)
(-0.000196767 -0.000118495 3.35616e-05)
(-0.000185691 -0.000135193 3.35616e-05)
(-0.000173202 -0.000150863 3.35618e-05)
(-0.000159394 -0.000165384 3.35615e-05)
(-0.000144373 -0.000178646 3.35615e-05)
(-0.000128254 -0.00019055 3.35615e-05)
(-0.000111158 -0.000201003 3.35615e-05)
(-9.32167e-05 -0.000209926 3.35615e-05)
(-7.45657e-05 -0.000217251 3.35617e-05)
(-5.53471e-05 -0.000222923 3.35615e-05)
(-3.57075e-05 -0.000226899 3.35616e-05)
(-1.5796e-05 -0.000229148 3.35617e-05)
(4.23562e-06 -0.000229652 3.35616e-05)
(2.42352e-05 -0.00022841 3.35616e-05)
(4.40502e-05 -0.000225428 3.35617e-05)
(6.35299e-05 -0.000220731 3.35616e-05)
(4.57438e-05 -0.000233953 3.65344e-05)
(6.59601e-05 -0.000229076 3.65344e-05)
(8.56746e-05 -0.000222456 3.65346e-05)
(0.000104736 -0.000214142 3.65344e-05)
(0.000123001 -0.000204198 3.65345e-05)
(0.000140331 -0.000192702 3.65345e-05)
(0.000156592 -0.000179738 3.65345e-05)
(0.000171661 -0.000165406 3.65345e-05)
(0.000185424 -0.000149816 3.65344e-05)
(0.000197776 -0.000133085 3.65345e-05)
(0.000208622 -0.000115341 3.65346e-05)
(0.00021788 -9.67193e-05 3.65345e-05)
(0.000225481 -7.73617e-05 3.65345e-05)
(0.000231365 -5.7415e-05 3.65343e-05)
(0.000235489 -3.70317e-05 3.65344e-05)
(0.000237821 -1.63667e-05 3.65345e-05)
(0.000238342 4.4231e-06 3.65344e-05)
(0.00023705 2.51793e-05 3.65344e-05)
(0.000233953 4.57438e-05 3.65344e-05)
(0.000229076 6.59601e-05 3.65344e-05)
(0.000222456 8.56746e-05 3.65346e-05)
(0.000214142 0.000104736 3.65344e-05)
(0.000204198 0.000123001 3.65345e-05)
(0.000192702 0.000140331 3.65345e-05)
(0.000179738 0.000156592 3.65345e-05)
(0.000165406 0.000171661 3.65345e-05)
(0.000149816 0.000185424 3.65344e-05)
(0.000133085 0.000197776 3.65345e-05)
(0.000115341 0.000208622 3.65346e-05)
(9.67193e-05 0.00021788 3.65345e-05)
(7.73617e-05 0.000225481 3.65345e-05)
(5.7415e-05 0.000231365 3.65343e-05)
(3.70317e-05 0.000235489 3.65344e-05)
(1.63667e-05 0.000237821 3.65345e-05)
(-4.4231e-06 0.000238342 3.65344e-05)
(-2.51793e-05 0.00023705 3.65344e-05)
(-4.57438e-05 0.000233953 3.65344e-05)
(-6.59601e-05 0.000229076 3.65344e-05)
(-8.56746e-05 0.000222456 3.65346e-05)
(-0.000104736 0.000214142 3.65344e-05)
(-0.000123001 0.000204198 3.65345e-05)
(-0.000140331 0.000192702 3.65345e-05)
(-0.000156592 0.000179738 3.65345e-05)
(-0.000171661 0.000165406 3.65345e-05)
(-0.000185424 0.000149816 3.65344e-05)
(-0.000197776 0.000133085 3.65345e-05)
(-0.000208622 0.000115341 3.65346e-05)
(-0.00021788 9.67193e-05 3.65345e-05)
(-0.000225481 7.73617e-05 3.65345e-05)
(-0.000231365 5.7415e-05 3.65343e-05)
(-0.000235489 3.70317e-05 3.65344e-05)
(-0.000237821 1.63667e-05 3.65345e-05)
(-0.000238342 -4.4231e-06 3.65344e-05)
(-0.00023705 -2.51793e-05 3.65344e-05)
(-0.000233953 -4.57438e-05 3.65344e-05)
(-0.000229076 -6.59601e-05 3.65344e-05)
(-0.000222456 -8.56746e-05 3.65346e-05)
(-0.000214142 -0.000104736 3.65344e-05)
(-0.000204198 -0.000123001 3.65345e-05)
(-0.000192702 -0.000140331 3.65345e-05)
(-0.000179738 -0.000156592 3.65345e-05)
(-0.000165406 -0.000171661 3.65345e-05)
(-0.000149816 -0.000185424 3.65344e-05)
(-0.000133085 -0.000197776 3.65345e-05)
(-0.000115341 -0.000208622 3.65346e-05)
(-9.67193e-05 -0.00021788 3.65345e-05)
(-7.73617e-05 -0.000225481 3.65345e-05)
(-5.7415e-05 -0.000231365 3.65343e-05)
(-3.70317e-05 -0.000235489 3.65344e-05)
(-1.63667e-05 -0.000237821 3.65345e-05)
(4.4231e-06 -0.000238342 3.65344e-05)
(2.51793e-05 -0.00023705 3.65344e-05)
(1.22614e-07 -0.000246856 3.89825e-05)
(2.1637e-05 -0.000245906 3.89826e-05)
(4.29865e-05 -0.000243084 3.89825e-05)
(6.40092e-05 -0.000238413 3.89825e-05)
(8.45445e-05 -0.000231926 3.89825e-05)
(0.000104436 -0.000223675 3.89825e-05)
(0.000123533 -0.000213721 3.89824e-05)
(0.00014169 -0.000202141 3.89824e-05)
(0.00015877 -0.000189024 3.89825e-05)
(0.00017464 -0.000174467 3.89826e-05)
(0.000189181 -0.000158581 3.89824e-05)
(0.000202282 -0.00014149 3.89825e-05)
(0.000213844 -0.000123322 3.89824e-05)
(0.000223778 -0.000104215 3.89823e-05)
(0.00023201 -8.43146e-05 3.89825e-05)
(0.000238475 -6.37727e-05 3.89825e-05)
(0.000243127 -4.27455e-05 3.89826e-05)
(0.000245927 -2.13928e-05 3.89825e-05)
(0.000246856 1.22615e-07 3.89825e-05)
(0.000245906 2.1637e-05 3.89826e-05)
(0.000243084 4.29865e-05 3.89825e-05)
(0.000238413 6.40092e-05 3.89825e-05)
(0.000231926 8.45445e-05 3.89825e-05)
(0.000223675 0.000104436 3.89825e-05)
(0.000213721 0.000123533 3.89824e-05)
(0.000202141 0.00014169 3.89824e-05)
(0.000189024 0.00015877 3.89825e-05)
(0.000174467 0.00017464 3.89826e-05)
(0.000158581 0.000189181 3.89824e-05)
(0.00014149 0.000202282 3.89825e-05)
(0.000123322 0.000213844 3.89824e-05)
(0.000104215 0.000223778 3.89823e-05)
(8.43146e-05 0.00023201 3.89825e-05)
(6.37727e-05 0.000238475 3.89825e-05)
(4.27455e-05 0.000243127 3.89826e-05)
(2.13928e-05 0.000245927 3.89825e-05)
(-1.22614e-07 0.000246856 3.89825e-05)
(-2.1637e-05 0.000245906 3.89826e-05)
(-4.29865e-05 0.000243084 3.89825e-05)
(-6.40092e-05 0.000238413 3.89825e-05)
(-8.45445e-05 0.000231926 3.89825e-05)
(-0.000104436 0.000223675 3.89825e-05)
(-0.000123533 0.000213721 3.89824e-05)
(-0.00014169 0.000202141 3.89824e-05)
(-0.00015877 0.000189024 3.89825e-05)
(-0.00017464 0.000174467 3.89826e-05)
(-0.000189181 0.000158581 3.89824e-05)
(-0.000202282 0.00014149 3.89825e-05)
(-0.000213844 0.000123322 3.89824e-05)
(-0.000223778 0.000104215 3.89823e-05)
(-0.00023201 8.43146e-05 3.89825e-05)
(-0.000238475 6.37727e-05 3.89825e-05)
(-0.000243127 4.27455e-05 3.89826e-05)
(-0.000245927 2.13928e-05 3.89825e-05)
(-0.000246856 -1.22614e-07 3.89825e-05)
(-0.000245906 -2.1637e-05 3.89826e-05)
(-0.000243084 -4.29865e-05 3.89825e-05)
(-0.000238413 -6.40092e-05 3.89825e-05)
(-0.000231926 -8.45445e-05 3.89825e-05)
(-0.000223675 -0.000104436 3.89825e-05)
(-0.000213721 -0.000123533 3.89824e-05)
(-0.000202141 -0.00014169 3.89824e-05)
(-0.000189024 -0.00015877 3.89825e-05)
(-0.000174467 -0.00017464 3.89826e-05)
(-0.000158581 -0.000189181 3.89824e-05)
(-0.00014149 -0.000202282 3.89825e-05)
(-0.000123322 -0.000213844 3.89824e-05)
(-0.000104215 -0.000223778 3.89823e-05)
(-8.43146e-05 -0.00023201 3.89825e-05)
(-6.37727e-05 -0.000238475 3.89825e-05)
(-4.27455e-05 -0.000243127 3.89826e-05)
(-2.13928e-05 -0.000245927 3.89825e-05)
(-6.37584e-05 -0.000255847 4.205e-05)
(-4.12171e-05 -0.000260429 4.205e-05)
(-1.83624e-05 -0.000263031 4.20499e-05)
(4.6324e-06 -0.000263632 4.20501e-05)
(2.75919e-05 -0.000262225 4.20499e-05)
(5.03412e-05 -0.000258822 4.20499e-05)
(7.27072e-05 -0.000253449 4.20499e-05)
(9.45196e-05 -0.000246147 4.20498e-05)
(0.000115613 -0.000236973 4.205e-05)
(0.000135827 -0.000225995 4.205e-05)
(0.000155007 -0.000213296 4.20499e-05)
(0.000173007 -0.000198975 4.205e-05)
(0.000189691 -0.00018314 4.20497e-05)
(0.000204931 -0.00016591 4.20496e-05)
(0.000218611 -0.000147419 4.20498e-05)
(0.000230627 -0.000127804 4.20499e-05)
(0.000240887 -0.000107217 4.205e-05)
(0.000249316 -8.58142e-05 4.20501e-05)
(0.000255847 -6.37584e-05 4.205e-05)
(0.000260429 -4.12171e-05 4.205e-05)
(0.000263031 -1.83624e-05 4.20499e-05)
(0.000263632 4.6324e-06 4.20501e-05)
(0.000262225 2.75919e-05 4.20499e-05)
(0.000258822 5.03412e-05 4.20499e-05)
(0.000253449 7.27072e-05 4.20499e-05)
(0.000246147 9.45196e-05 4.20498e-05)
(0.000236973 0.000115613 4.205e-05)
(0.000225995 0.000135827 4.205e-05)
(0.000213296 0.000155007 4.20499e-05)
(0.000198975 0.000173007 4.205e-05)
(0.00018314 0.000189691 4.20497e-05)
(0.00016591 0.000204931 4.20496e-05)
(0.000147419 0.000218611 4.20498e-05)
(0.000127804 0.000230627 4.20499e-05)
(0.000107217 0.000240887 4.205e-05)
(8.58142e-05 0.000249316 4.20501e-05)
(6.37584e-05 0.000255847 4.205e-05)
(4.12171e-05 0.000260429 4.205e-05)
(1.83624e-05 0.000263031 4.20499e-05)
(-4.6324e-06 0.000263632 4.20501e-05)
(-2.75919e-05 0.000262225 4.20499e-05)
(-5.03412e-05 0.000258822 4.20499e-05)
(-7.27072e-05 0.000253449 4.20499e-05)
(-9.45196e-05 0.000246147 4.20498e-05)
(-0.000115613 0.000236973 4.205e-05)
(-0.000135827 0.000225995 4.205e-05)
(-0.000155007 0.000213296 4.20499e-05)
(-0.000173007 0.000198975 4.205e-05)
(-0.000189691 0.00018314 4.20497e-05)
(-0.000204931 0.00016591 4.20496e-05)
(-0.000218611 0.000147419 4.20498e-05)
(-0.000230627 0.000127804 4.20499e-05)
(-0.000240887 0.000107217 4.205e-05)
(-0.000249316 8.58142e-05 4.20501e-05)
(-0.000255847 6.37584e-05 4.205e-05)
(-0.000260429 4.12171e-05 4.205e-05)
(-0.000263031 1.83624e-05 4.20499e-05)
(-0.000263632 -4.6324e-06 4.20501e-05)
(-0.000262225 -2.75919e-05 4.20499e-05)
(-0.000258822 -5.03412e-05 4.20499e-05)
(-0.000253449 -7.27072e-05 4.20499e-05)
(-0.000246147 -9.45196e-05 4.20498e-05)
(-0.000236973 -0.000115613 4.205e-05)
(-0.000225995 -0.000135827 4.205e-05)
(-0.000213296 -0.000155007 4.20499e-05)
(-0.000198975 -0.000173007 4.205e-05)
(-0.00018314 -0.000189691 4.20497e-05)
(-0.00016591 -0.000204931 4.20496e-05)
(-0.000147419 -0.000218611 4.20498e-05)
(-0.000127804 -0.000230627 4.20499e-05)
(-0.000107217 -0.000240887 4.205e-05)
(-8.58142e-05 -0.000249316 4.20501e-05)
(0.0003186 -0.000503506 1.92799e-05)
(0.000361272 -0.000473822 1.92796e-05)
(0.000401193 -0.000440532 1.92801e-05)
(0.000438061 -0.000403889 1.92801e-05)
(0.000471596 -0.000364173 1.92799e-05)
(0.000501541 -0.000321686 1.92796e-05)
(0.000527669 -0.000276749 1.92796e-05)
(0.000549781 -0.000229706 1.92791e-05)
(0.000567711 -0.000180916 1.92788e-05)
(0.000581318 -0.000130748 1.92792e-05)
(0.0005905 -7.95849e-05 1.928e-05)
(0.000595189 -2.78166e-05 1.92801e-05)
(0.000595349 2.41632e-05 1.92801e-05)
(0.000590977 7.59593e-05 1.92803e-05)
(0.000582107 0.000127177 1.92803e-05)
(0.000568808 0.000177428 1.928e-05)
(0.00055118 0.000226327 1.92798e-05)
(0.000529357 0.000273505 1.92797e-05)
(0.000503506 0.0003186 1.92799e-05)
(0.000473822 0.000361272 1.92796e-05)
(0.000440532 0.000401193 1.92801e-05)
(0.000403889 0.000438061 1.92801e-05)
(0.000364173 0.000471596 1.92799e-05)
(0.000321686 0.000501541 1.92796e-05)
(0.000276749 0.000527669 1.92796e-05)
(0.000229706 0.000549781 1.92791e-05)
(0.000180916 0.000567711 1.92788e-05)
(0.000130748 0.000581318 1.92792e-05)
(7.95849e-05 0.0005905 1.928e-05)
(2.78166e-05 0.000595189 1.92801e-05)
(-2.41632e-05 0.000595349 1.92801e-05)
(-7.59593e-05 0.000590977 1.92803e-05)
(-0.000127177 0.000582107 1.92803e-05)
(-0.000177428 0.000568808 1.928e-05)
(-0.000226327 0.00055118 1.92798e-05)
(-0.000273505 0.000529357 1.92797e-05)
(-0.0003186 0.000503506 1.92799e-05)
(-0.000361272 0.000473822 1.92796e-05)
(-0.000401193 0.000440532 1.92801e-05)
(-0.000438061 0.000403889 1.92801e-05)
(-0.000471596 0.000364173 1.92799e-05)
(-0.000501541 0.000321686 1.92796e-05)
(-0.000527669 0.000276749 1.92796e-05)
(-0.000549781 0.000229706 1.92791e-05)
(-0.000567711 0.000180916 1.92788e-05)
(-0.000581318 0.000130748 1.92792e-05)
(-0.0005905 7.95849e-05 1.928e-05)
(-0.000595189 2.78166e-05 1.92801e-05)
(-0.000595349 -2.41632e-05 1.92801e-05)
(-0.000590977 -7.59593e-05 1.92803e-05)
(-0.000582107 -0.000127177 1.92803e-05)
(-0.000568808 -0.000177428 1.928e-05)
(-0.00055118 -0.000226327 1.92798e-05)
(-0.000529357 -0.000273505 1.92797e-05)
(-0.000503506 -0.0003186 1.92799e-05)
(-0.000473822 -0.000361272 1.92796e-05)
(-0.000440532 -0.000401193 1.92801e-05)
(-0.000403889 -0.000438061 1.92801e-05)
(-0.000364173 -0.000471596 1.92799e-05)
(-0.000321686 -0.000501541 1.92796e-05)
(-0.000276749 -0.000527669 1.92796e-05)
(-0.000229706 -0.000549781 1.92791e-05)
(-0.000180916 -0.000567711 1.92788e-05)
(-0.000130748 -0.000581318 1.92792e-05)
(-7.95849e-05 -0.0005905 1.928e-05)
(-2.78166e-05 -0.000595189 1.92801e-05)
(2.41632e-05 -0.000595349 1.92801e-05)
(7.59593e-05 -0.000590977 1.92803e-05)
(0.000127177 -0.000582107 1.92803e-05)
(0.000177428 -0.000568808 1.928e-05)
(0.000226327 -0.00055118 1.92798e-05)
(0.000273505 -0.000529357 1.92797e-05)
(0.000272608 -0.00057254 9.04807e-05)
(0.00032147 -0.000546602 9.04806e-05)
(0.000367887 -0.000516504 9.04809e-05)
(0.000411503 -0.000482475 9.04811e-05)
(0.000451987 -0.000444774 9.04807e-05)
(0.000489032 -0.000403688 9.04806e-05)
(0.000522355 -0.000359531 9.04809e-05)
(0.000551702 -0.000312636 9.04807e-05)
(0.000576851 -0.000263362 9.04807e-05)
(0.000597609 -0.000212084 9.04809e-05)
(0.000613819 -0.000159192 9.04811e-05)
(0.000625358 -0.000105088 9.04813e-05)
(0.000632137 -5.01847e-05 9.0481e-05)
(0.000634105 5.10087e-06 9.04809e-05)
(0.000631248 6.03473e-05 9.04812e-05)
(0.000623586 0.000115135 9.04812e-05)
(0.000611179 0.000169046 9.04808e-05)
(0.00059412 0.00022167 9.04807e-05)
(0.00057254 0.000272608 9.04807e-05)
(0.000546602 0.00032147 9.04806e-05)
(0.000516504 0.000367887 9.04809e-05)
(0.000482475 0.000411503 9.04811e-05)
(0.000444774 0.000451987 9.04807e-05)
(0.000403688 0.000489032 9.04806e-05)
(0.000359531 0.000522355 9.04809e-05)
(0.000312636 0.000551702 9.04807e-05)
(0.000263362 0.000576851 9.04807e-05)
(0.000212084 0.000597609 9.04809e-05)
(0.000159192 0.000613819 9.04811e-05)
(0.000105088 0.000625358 9.04813e-05)
(5.01847e-05 0.000632137 9.0481e-05)
(-5.10087e-06 0.000634105 9.04809e-05)
(-6.03473e-05 0.000631248 9.04812e-05)
(-0.000115135 0.000623586 9.04812e-05)
(-0.000169046 0.000611179 9.04808e-05)
(-0.00022167 0.00059412 9.04807e-05)
(-0.000272608 0.00057254 9.04807e-05)
(-0.00032147 0.000546602 9.04806e-05)
(-0.000367887 0.000516504 9.04809e-05)
(-0.000411503 0.000482475 9.04811e-05)
(-0.000451987 0.000444774 9.04807e-05)
(-0.000489032 0.000403688 9.04806e-05)
(-0.000522355 0.000359531 9.04809e-05)
(-0.000551702 0.000312636 9.04807e-05)
(-0.000576851 0.000263362 9.04807e-05)
(-0.000597609 0.000212084 9.04809e-05)
(-0.000613819 0.000159192 9.04811e-05)
(-0.000625358 0.000105088 9.04813e-05)
(-0.000632137 5.01847e-05 9.0481e-05)
(-0.000634105 -5.10087e-06 9.04809e-05)
(-0.000631248 -6.03473e-05 9.04812e-05)
(-0.000623586 -0.000115135 9.04812e-05)
(-0.000611179 -0.000169046 9.04808e-05)
(-0.00059412 -0.00022167 9.04807e-05)
(-0.00057254 -0.000272608 9.04807e-05)
(-0.000546602 -0.00032147 9.04806e-05)
(-0.000516504 -0.000367887 9.04809e-05)
(-0.000482475 -0.000411503 9.04811e-05)
(-0.000444774 -0.000451987 9.04807e-05)
(-0.000403688 -0.000489032 9.04806e-05)
(-0.000359531 -0.000522355 9.04809e-05)
(-0.000312636 -0.000551702 9.04807e-05)
(-0.000263362 -0.000576851 9.04807e-05)
(-0.000212084 -0.000597609 9.04809e-05)
(-0.000159192 -0.000613819 9.04811e-05)
(-0.000105088 -0.000625358 9.04813e-05)
(-5.01847e-05 -0.000632137 9.0481e-05)
(5.10087e-06 -0.000634105 9.04809e-05)
(6.03473e-05 -0.000631248 9.04812e-05)
(0.000115135 -0.000623586 9.04812e-05)
(0.000169046 -0.000611179 9.04808e-05)
(0.00022167 -0.00059412 9.04807e-05)
(0.000205593 -0.000638008 0.000137902)
(0.000260417 -0.000617662 0.000137902)
(0.000313258 -0.000592615 0.000137903)
(0.000363716 -0.000563058 0.000137903)
(0.000411406 -0.000529215 0.000137903)
(0.000455964 -0.000491346 0.000137903)
(0.000497053 -0.000449736 0.000137903)
(0.000534358 -0.000404703 0.000137903)
(0.000567597 -0.000356591 0.000137903)
(0.000596516 -0.000305764 0.000137903)
(0.000620895 -0.000252611 0.000137903)
(0.000640549 -0.000197536 0.000137903)
(0.000655328 -0.000140956 0.000137903)
(0.000665119 -8.33038e-05 0.000137903)
(0.000669848 -2.50183e-05 0.000137903)
(0.00066948 3.34587e-05 0.000137903)
(0.000664016 9.16805e-05 0.000137903)
(0.000653499 0.000149204 0.000137902)
(0.000638008 0.000205593 0.000137902)
(0.000617662 0.000260417 0.000137902)
(0.000592615 0.000313258 0.000137903)
(0.000563058 0.000363716 0.000137903)
(0.000529215 0.000411406 0.000137903)
(0.000491346 0.000455964 0.000137903)
(0.000449736 0.000497053 0.000137903)
(0.000404703 0.000534358 0.000137903)
(0.000356591 0.000567597 0.000137903)
(0.000305764 0.000596516 0.000137903)
(0.000252611 0.000620895 0.000137903)
(0.000197536 0.000640549 0.000137903)
(0.000140956 0.000655328 0.000137903)
(8.33037e-05 0.000665119 0.000137903)
(2.50183e-05 0.000669848 0.000137903)
(-3.34587e-05 0.00066948 0.000137903)
(-9.16805e-05 0.000664016 0.000137903)
(-0.000149204 0.000653499 0.000137902)
(-0.000205593 0.000638008 0.000137902)
(-0.000260417 0.000617662 0.000137902)
(-0.000313258 0.000592615 0.000137903)
(-0.000363716 0.000563058 0.000137903)
(-0.000411406 0.000529215 0.000137903)
(-0.000455964 0.000491346 0.000137903)
(-0.000497053 0.000449736 0.000137903)
(-0.000534358 0.000404703 0.000137903)
(-0.000567597 0.000356591 0.000137903)
(-0.000596516 0.000305764 0.000137903)
(-0.000620895 0.000252611 0.000137903)
(-0.000640549 0.000197536 0.000137903)
(-0.000655328 0.000140956 0.000137903)
(-0.000665119 8.33038e-05 0.000137903)
(-0.000669848 2.50183e-05 0.000137903)
(-0.00066948 -3.34587e-05 0.000137903)
(-0.000664016 -9.16805e-05 0.000137903)
(-0.000653499 -0.000149204 0.000137902)
(-0.000638008 -0.000205593 0.000137902)
(-0.000617662 -0.000260417 0.000137902)
(-0.000592615 -0.000313258 0.000137903)
(-0.000563058 -0.000363716 0.000137903)
(-0.000529215 -0.000411406 0.000137903)
(-0.000491346 -0.000455964 0.000137903)
(-0.000449736 -0.000497053 0.000137903)
(-0.000404703 -0.000534358 0.000137903)
(-0.000356591 -0.000567597 0.000137903)
(-0.000305764 -0.000596516 0.000137903)
(-0.000252611 -0.000620895 0.000137903)
(-0.000197536 -0.000640549 0.000137903)
(-0.000140956 -0.000655328 0.000137903)
(-8.33038e-05 -0.000665119 0.000137903)
(-2.50183e-05 -0.000669848 0.000137903)
(3.34587e-05 -0.00066948 0.000137903)
(9.16805e-05 -0.000664016 0.000137903)
(0.000149204 -0.000653499 0.000137902)
(0.000123523 -0.000692161 0.000163241)
(0.000183379 -0.000678762 0.000163241)
(0.000241839 -0.000660197 0.000163241)
(0.000298458 -0.000636607 0.000163241)
(0.000352806 -0.000608172 0.000163241)
(0.000404469 -0.000575109 0.000163241)
(0.000453054 -0.000537668 0.000163241)
(0.000498191 -0.000496137 0.000163241)
(0.000539536 -0.000450828 0.000163241)
(0.000576776 -0.000402088 0.000163241)
(0.000609625 -0.000350289 0.000163241)
(0.000637834 -0.000295824 0.000163241)
(0.00066119 -0.000239107 0.000163241)
(0.000679514 -0.000180571 0.000163241)
(0.000692666 -0.00012066 0.000163241)
(0.000700547 -5.98311e-05 0.000163241)
(0.000703096 1.45343e-06 0.000163241)
(0.000700293 6.2727e-05 0.000163241)
(0.000692161 0.000123523 0.000163241)
(0.000678762 0.000183379 0.000163241)
(0.000660197 0.000241839 0.000163241)
(0.000636607 0.000298458 0.000163241)
(0.000608172 0.000352806 0.000163241)
(0.000575109 0.000404469 0.000163241)
(0.000537668 0.000453054 0.000163241)
(0.000496137 0.000498191 0.000163241)
(0.000450828 0.000539536 0.000163241)
(0.000402088 0.000576776 0.000163241)
(0.000350289 0.000609625 0.000163241)
(0.000295824 0.000637834 0.000163241)
(0.000239107 0.00066119 0.000163241)
(0.000180571 0.000679514 0.000163241)
(0.00012066 0.000692666 0.000163241)
(5.98311e-05 0.000700547 0.000163241)
(-1.45343e-06 0.000703096 0.000163241)
(-6.2727e-05 0.000700293 0.000163241)
(-0.000123523 0.000692161 0.000163241)
(-0.000183379 0.000678762 0.000163241)
(-0.000241839 0.000660197 0.000163241)
(-0.000298458 0.000636607 0.000163241)
(-0.000352806 0.000608172 0.000163241)
(-0.000404469 0.000575109 0.000163241)
(-0.000453054 0.000537668 0.000163241)
(-0.000498191 0.000496137 0.000163241)
(-0.000539536 0.000450828 0.000163241)
(-0.000576776 0.000402088 0.000163241)
(-0.000609625 0.000350289 0.000163241)
(-0.000637834 0.000295824 0.000163241)
(-0.00066119 0.000239107 0.000163241)
(-0.000679514 0.000180571 0.000163241)
(-0.000692666 0.00012066 0.000163241)
(-0.000700547 5.98311e-05 0.000163241)
(-0.000703096 -1.45343e-06 0.000163241)
(-0.000700293 -6.2727e-05 0.000163241)
(-0.000692161 -0.000123523 0.000163241)
(-0.000678762 -0.000183379 0.000163241)
(-0.000660197 -0.000241839 0.000163241)
(-0.000636607 -0.000298458 0.000163241)
(-0.000608172 -0.000352806 0.000163241)
(-0.000575109 -0.000404469 0.000163241)
(-0.000537668 -0.000453054 0.000163241)
(-0.000496137 -0.000498191 0.000163241)
(-0.000450828 -0.000539536 0.000163241)
(-0.000402088 -0.000576776 0.000163241)
(-0.000350289 -0.000609625 0.000163241)
(-0.000295824 -0.000637834 0.000163241)
(-0.000239107 -0.00066119 0.000163241)
(-0.000180571 -0.000679514 0.000163241)
(-0.00012066 -0.000692666 0.000163241)
(-5.98311e-05 -0.000700547 0.000163241)
(1.45343e-06 -0.000703096 0.000163241)
(6.2727e-05 -0.000700293 0.000163241)
(2.78171e-05 -0.0007296 0.000178014)
(9.12995e-05 -0.000724399 0.000178014)
(0.000154088 -0.000713686 0.000178014)
(0.000215704 -0.00069754 0.000178014)
(0.000275677 -0.000676085 0.000178014)
(0.000333553 -0.000649486 0.000178014)
(0.00038889 -0.000617944 0.000178014)
(0.000441267 -0.000581698 0.000178014)
(0.000490286 -0.000541025 0.000178013)
(0.000535573 -0.000496235 0.000178013)
(0.000576786 -0.000447669 0.000178014)
(0.000613608 -0.000395696 0.000178014)
(0.00064576 -0.00034071 0.000178014)
(0.000672997 -0.000283131 0.000178013)
(0.000695113 -0.000223398 0.000178014)
(0.000711939 -0.000161966 0.000178014)
(0.000723346 -9.92998e-05 0.000178014)
(0.000729248 -3.58778e-05 0.000178014)
(0.0007296 2.78171e-05 0.000178014)
(0.000724399 9.12995e-05 0.000178014)
(0.000713686 0.000154088 0.000178014)
(0.00069754 0.000215704 0.000178014)
(0.000676085 0.000275677 0.000178014)
(0.000649486 0.000333553 0.000178014)
(0.000617944 0.00038889 0.000178014)
(0.000581698 0.000441267 0.000178014)
(0.000541025 0.000490286 0.000178013)
(0.000496235 0.000535573 0.000178013)
(0.000447669 0.000576786 0.000178014)
(0.000395696 0.000613608 0.000178014)
(0.00034071 0.00064576 0.000178014)