/*--------------------------------*- C++ -*----------------------------------*\
| =========                 |                                                 |
| \\      /  F ield         | OpenFOAM: The Open Source CFD Toolbox           |
|  \\    /   O peration     | Version:  2312                                  |
|   \\  /    A nd           | Website:  www.openfoam.com                      |
|    \\/     M anipulation  |                                                 |
\*---------------------------------------------------------------------------*/
FoamFile
{
    version     2.0;
    format      ascii;
    arch        "LSB;label=32;scalar=64";
    class       volTensorField;
    location    "1";
    object      F;
}
// * * * * * * * * * * * * * * * * * * * * * * * * * * * * * * * * * * * * * //

dimensions      [0 0 0 0 0 0 0];

internalField   nonuniform List<tensor> 
12960
(
(1.03104 0.0186524 -0.196457 0.0547678 1.01584 0.363187 -0.0553266 -0.00241549 0.969056)
(1.02455 0.0194144 -0.227363 0.0555297 1.02233 0.344683 -0.0549056 -0.00722842 0.969056)
(1.01803 0.0190379 -0.256539 0.055153 1.02886 0.323555 -0.0540665 -0.0119862 0.969056)
(1.01167 0.0175341 -0.283763 0.0536493 1.03522 0.299965 -0.0528163 -0.016653 0.969056)
(1.00567 0.0149489 -0.308827 0.0510643 1.04122 0.274092 -0.0511641 -0.0211929 0.969056)
(1.00021 0.0113608 -0.33154 0.0474764 1.04668 0.246133 -0.049122 -0.0255712 0.969056)
(0.995452 0.00687897 -0.35173 0.0429943 1.05144 0.216301 -0.0467064 -0.0297555 0.969056)
(0.991547 0.00163947 -0.369244 0.0377547 1.05534 0.184823 -0.0439354 -0.0337132 0.969056)
(0.988612 -0.00419847 -0.383948 0.0319167 1.05828 0.151937 -0.0408303 -0.0374141 0.969056)
(0.986734 -0.0104575 -0.395728 0.0256575 1.06015 0.117896 -0.0374141 -0.0408299 0.969056)
(0.985973 -0.0169478 -0.404497 0.0191675 1.06092 0.0829573 -0.0337132 -0.0439353 0.969056)
(0.986349 -0.023472 -0.410188 0.0126438 1.06054 0.0473874 -0.0297553 -0.0467061 0.969056)
(0.987852 -0.029831 -0.412758 0.0062843 1.05904 0.0114569 -0.0255711 -0.0491218 0.969056)
(0.990438 -0.0358325 -0.412185 0.000282718 1.05645 -0.0245609 -0.0211926 -0.0511638 0.969056)
(0.994026 -0.0412943 -0.408476 -0.00517879 1.05286 -0.0603918 -0.0166528 -0.0528163 0.969055)
(0.998508 -0.0460496 -0.401658 -0.00993422 1.04838 -0.0957632 -0.0119862 -0.0540666 0.969056)
(1.00375 -0.0499546 -0.391784 -0.0138393 1.04314 -0.130406 -0.00722829 -0.0549058 0.969056)
(1.00959 -0.0528906 -0.378927 -0.016775 1.0373 -0.164056 -0.00241565 -0.0553271 0.969056)
(1.01584 -0.0547678 -0.363187 -0.0186524 1.03104 -0.196457 0.00241549 -0.0553265 0.969056)
(1.02233 -0.0555297 -0.344683 -0.0194144 1.02455 -0.227363 0.00722842 -0.0549056 0.969056)
(1.02886 -0.055153 -0.323555 -0.0190379 1.01803 -0.256539 0.0119862 -0.0540665 0.969056)
(1.03522 -0.0536493 -0.299965 -0.0175341 1.01167 -0.283763 0.016653 -0.0528163 0.969056)
(1.04122 -0.0510643 -0.274092 -0.0149489 1.00567 -0.308827 0.0211929 -0.0511641 0.969056)
(1.04668 -0.0474764 -0.246133 -0.0113608 1.00021 -0.33154 0.0255712 -0.049122 0.969056)
(1.05144 -0.0429943 -0.216301 -0.00687897 0.995452 -0.35173 0.0297555 -0.0467064 0.969056)
(1.05534 -0.0377547 -0.184823 -0.00163947 0.991547 -0.369244 0.0337132 -0.0439354 0.969056)
(1.05828 -0.0319167 -0.151937 0.00419847 0.988612 -0.383948 0.0374141 -0.0408303 0.969056)
(1.06015 -0.0256575 -0.117896 0.0104575 0.986734 -0.395728 0.0408299 -0.0374141 0.969056)
(1.06092 -0.0191675 -0.0829573 0.0169478 0.985973 -0.404497 0.0439353 -0.0337132 0.969056)
(1.06054 -0.0126438 -0.0473874 0.023472 0.986349 -0.410188 0.0467061 -0.0297553 0.969056)
(1.05904 -0.0062843 -0.0114569 0.029831 0.987852 -0.412758 0.0491218 -0.0255711 0.969056)
(1.05645 -0.000282718 0.0245609 0.0358325 0.990438 -0.412185 0.0511638 -0.0211926 0.969056)
(1.05286 0.00517879 0.0603918 0.0412943 0.994026 -0.408476 0.0528163 -0.0166528 0.969055)
(1.04838 0.00993422 0.0957632 0.0460496 0.998508 -0.401658 0.0540666 -0.0119862 0.969056)
(1.04314 0.0138393 0.130406 0.0499546 1.00375 -0.391784 0.0549058 -0.00722829 0.969056)
(1.0373 0.016775 0.164056 0.0528906 1.00959 -0.378927 0.0553271 -0.00241565 0.969056)
(1.03104 0.0186524 0.196457 0.0547678 1.01584 -0.363187 0.0553266 0.00241549 0.969056)
(1.02455 0.0194144 0.227363 0.0555297 1.02233 -0.344683 0.0549056 0.00722842 0.969056)
(1.01803 0.0190379 0.256539 0.055153 1.02886 -0.323555 0.0540665 0.0119862 0.969056)
(1.01167 0.0175341 0.283763 0.0536493 1.03522 -0.299965 0.0528163 0.016653 0.969056)
(1.00567 0.0149489 0.308827 0.0510643 1.04122 -0.274092 0.0511641 0.0211929 0.969056)
(1.00021 0.0113608 0.33154 0.0474764 1.04668 -0.246133 0.049122 0.0255712 0.969056)
(0.995452 0.00687897 0.35173 0.0429943 1.05144 -0.216301 0.0467064 0.0297555 0.969056)
(0.991547 0.00163947 0.369244 0.0377547 1.05534 -0.184823 0.0439354 0.0337132 0.969056)
(0.988612 -0.00419847 0.383948 0.0319167 1.05828 -0.151937 0.0408303 0.0374141 0.969056)
(0.986734 -0.0104575 0.395728 0.0256575 1.06015 -0.117896 0.0374141 0.0408299 0.969056)
(0.985973 -0.0169478 0.404497 0.0191675 1.06092 -0.0829573 0.0337132 0.0439353 0.969056)
(0.986349 -0.023472 0.410188 0.0126438 1.06054 -0.0473874 0.0297553 0.0467061 0.969056)
(0.987852 -0.029831 0.412758 0.0062843 1.05904 -0.0114569 0.0255711 0.0491218 0.969056)
(0.990438 -0.0358325 0.412185 0.000282718 1.05645 0.0245609 0.0211926 0.0511638 0.969056)
(0.994026 -0.0412943 0.408476 -0.00517879 1.05286 0.0603918 0.0166528 0.0528163 0.969055)
(0.998508 -0.0460496 0.401658 -0.00993422 1.04838 0.0957632 0.0119862 0.0540666 0.969056)
(1.00375 -0.0499546 0.391784 -0.0138393 1.04314 0.130406 0.00722829 0.0549058 0.969056)
(1.00959 -0.0528906 0.378927 -0.016775 1.0373 0.164056 0.00241565 0.0553271 0.969056)
(1.01584 -0.0547678 0.363187 -0.0186524 1.03104 0.196457 -0.00241549 0.0553266 0.969056)
(1.02233 -0.0555297 0.344683 -0.0194144 1.02455 0.227363 -0.00722842 0.0549056 0.969056)
(1.02886 -0.055153 0.323555 -0.0190379 1.01803 0.256539 -0.0119862 0.0540665 0.969056)
(1.03522 -0.0536493 0.299965 -0.0175341 1.01167 0.283763 -0.016653 0.0528163 0.969056)
(1.04122 -0.0510643 0.274092 -0.0149489 1.00567 0.308827 -0.0211929 0.0511641 0.969056)
(1.04668 -0.0474764 0.246133 -0.0113608 1.00021 0.33154 -0.0255712 0.049122 0.969056)
(1.05144 -0.0429943 0.216301 -0.00687897 0.995452 0.35173 -0.0297555 0.0467064 0.969056)
(1.05534 -0.0377547 0.184823 -0.00163947 0.991547 0.369244 -0.0337132 0.0439354 0.969056)
(1.05828 -0.0319167 0.151937 0.00419847 0.988612 0.383948 -0.0374141 0.0408303 0.969056)
(1.06015 -0.0256575 0.117896 0.0104575 0.986734 0.395728 -0.0408299 0.0374141 0.969056)
(1.06092 -0.0191675 0.0829573 0.0169478 0.985973 0.404497 -0.0439353 0.0337132 0.969056)
(1.06054 -0.0126438 0.0473874 0.023472 0.986349 0.410188 -0.0467061 0.0297553 0.969056)
(1.05904 -0.0062843 0.0114569 0.029831 0.987852 0.412758 -0.0491218 0.0255711 0.969056)
(1.05645 -0.000282718 -0.0245609 0.0358325 0.990438 0.412185 -0.0511638 0.0211926 0.969056)
(1.05286 0.00517879 -0.0603918 0.0412943 0.994026 0.408476 -0.0528163 0.0166528 0.969055)
(1.04838 0.00993422 -0.0957632 0.0460496 0.998508 0.401658 -0.0540666 0.0119862 0.969056)
(1.04314 0.0138393 -0.130406 0.0499546 1.00375 0.391784 -0.0549058 0.00722829 0.969056)
(1.0373 0.016775 -0.164056 0.0528906 1.00959 0.378927 -0.0553271 0.00241565 0.969056)
(1.04388 0.0232868 -0.162691 0.052708 1.01474 0.406506 -0.0401947 -0.0017549 0.92363)
(1.03707 0.0252396 -0.197501 0.0546607 1.02156 0.39078 -0.0398889 -0.00525143 0.92363)
(1.03001 0.0259786 -0.230808 0.0553994 1.02862 0.37208 -0.0392792 -0.0087079 0.92363)
(1.02293 0.0254811 -0.262359 0.054902 1.0357 0.350548 -0.0383708 -0.0120983 0.923629)
(1.01605 0.0237626 -0.291912 0.0531837 1.04258 0.326348 -0.0371706 -0.0153966 0.92363)
(1.00957 0.020875 -0.319245 0.0502959 1.04906 0.299664 -0.035687 -0.0185775 0.92363)
(1.00369 0.016906 -0.344148 0.0463269 1.05494 0.2707 -0.033932 -0.0216174 0.923629)
(0.998592 0.0119767 -0.366431 0.0413975 1.06004 0.239675 -0.0319191 -0.0244925 0.923629)
(0.994425 0.00623641 -0.385926 0.0356573 1.0642 0.206827 -0.0296631 -0.0271811 0.92363)
(0.991318 -0.000140348 -0.402483 0.0292804 1.06731 0.172404 -0.0271812 -0.0296628 0.92363)
(0.989365 -0.00696001 -0.415977 0.022461 1.06927 0.136669 -0.0244924 -0.031919 0.923629)
(0.988626 -0.0140152 -0.426306 0.0154058 1.07 0.0998939 -0.0216171 -0.0339319 0.923629)
(0.989123 -0.0210913 -0.43339 0.0083298 1.06951 0.062359 -0.0185774 -0.0356869 0.923629)
(0.990842 -0.0279735 -0.437175 0.00144752 1.06779 0.0243493 -0.0153964 -0.0371703 0.92363)
(0.99373 -0.0344529 -0.437634 -0.00503176 1.0649 -0.0138459 -0.0120982 -0.0383708 0.923629)
(0.997698 -0.0403324 -0.434762 -0.0109111 1.06093 -0.0519353 -0.00870798 -0.0392792 0.92363)
(1.00263 -0.0454334 -0.428581 -0.0160121 1.056 -0.0896299 -0.00525142 -0.039889 0.92363)
(1.00837 -0.0496008 -0.419139 -0.0201795 1.05026 -0.126642 -0.00175484 -0.040195 0.92363)
(1.01474 -0.052708 -0.406506 -0.0232868 1.04388 -0.162691 0.0017549 -0.0401947 0.92363)
(1.02156 -0.0546607 -0.39078 -0.0252396 1.03707 -0.197501 0.00525143 -0.0398889 0.92363)
(1.02862 -0.0553994 -0.37208 -0.0259786 1.03001 -0.230808 0.0087079 -0.0392792 0.92363)
(1.0357 -0.054902 -0.350548 -0.0254811 1.02293 -0.262359 0.0120983 -0.0383708 0.923629)
(1.04258 -0.0531837 -0.326348 -0.0237626 1.01605 -0.291912 0.0153966 -0.0371706 0.92363)
(1.04906 -0.0502959 -0.299664 -0.020875 1.00957 -0.319245 0.0185775 -0.035687 0.92363)
(1.05494 -0.0463269 -0.2707 -0.016906 1.00369 -0.344148 0.0216174 -0.033932 0.923629)
(1.06004 -0.0413975 -0.239675 -0.0119767 0.998592 -0.366431 0.0244925 -0.0319191 0.923629)
(1.0642 -0.0356573 -0.206827 -0.00623641 0.994425 -0.385926 0.0271811 -0.0296631 0.92363)
(1.06731 -0.0292804 -0.172404 0.000140348 0.991318 -0.402483 0.0296628 -0.0271812 0.92363)
(1.06927 -0.022461 -0.136669 0.00696001 0.989365 -0.415977 0.031919 -0.0244924 0.923629)
(1.07 -0.0154058 -0.0998939 0.0140152 0.988626 -0.426306 0.0339319 -0.0216171 0.923629)
(1.06951 -0.0083298 -0.062359 0.0210913 0.989123 -0.43339 0.0356869 -0.0185774 0.923629)
(1.06779 -0.00144752 -0.0243493 0.0279735 0.990842 -0.437175 0.0371703 -0.0153964 0.92363)
(1.0649 0.00503176 0.0138459 0.0344529 0.99373 -0.437634 0.0383708 -0.0120982 0.923629)
(1.06093 0.0109111 0.0519353 0.0403324 0.997698 -0.434762 0.0392792 -0.00870798 0.92363)
(1.056 0.0160121 0.0896299 0.0454334 1.00263 -0.428581 0.039889 -0.00525142 0.92363)
(1.05026 0.0201795 0.126642 0.0496008 1.00837 -0.419139 0.040195 -0.00175484 0.92363)
(1.04388 0.0232868 0.162691 0.052708 1.01474 -0.406506 0.0401947 0.0017549 0.92363)
(1.03707 0.0252396 0.197501 0.0546607 1.02156 -0.39078 0.0398889 0.00525143 0.92363)
(1.03001 0.0259786 0.230808 0.0553994 1.02862 -0.37208 0.0392792 0.0087079 0.92363)
(1.02293 0.0254811 0.262359 0.054902 1.0357 -0.350548 0.0383708 0.0120983 0.923629)
(1.01605 0.0237626 0.291912 0.0531837 1.04258 -0.326348 0.0371706 0.0153966 0.92363)
(1.00957 0.020875 0.319245 0.0502959 1.04906 -0.299664 0.035687 0.0185775 0.92363)
(1.00369 0.016906 0.344148 0.0463269 1.05494 -0.2707 0.033932 0.0216174 0.923629)
(0.998592 0.0119767 0.366431 0.0413975 1.06004 -0.239675 0.0319191 0.0244925 0.923629)
(0.994425 0.00623641 0.385926 0.0356573 1.0642 -0.206827 0.0296631 0.0271811 0.92363)
(0.991318 -0.000140348 0.402483 0.0292804 1.06731 -0.172404 0.0271812 0.0296628 0.92363)
(0.989365 -0.00696001 0.415977 0.022461 1.06927 -0.136669 0.0244924 0.031919 0.923629)
(0.988626 -0.0140152 0.426306 0.0154058 1.07 -0.0998939 0.0216171 0.0339319 0.923629)
(0.989123 -0.0210913 0.43339 0.0083298 1.06951 -0.062359 0.0185774 0.0356869 0.923629)
(0.990842 -0.0279735 0.437175 0.00144752 1.06779 -0.0243493 0.0153964 0.0371703 0.92363)
(0.99373 -0.0344529 0.437634 -0.00503176 1.0649 0.0138459 0.0120982 0.0383708 0.923629)
(0.997698 -0.0403324 0.434762 -0.0109111 1.06093 0.0519353 0.00870798 0.0392792 0.92363)
(1.00263 -0.0454334 0.428581 -0.0160121 1.056 0.0896299 0.00525142 0.039889 0.92363)
(1.00837 -0.0496008 0.419139 -0.0201795 1.05026 0.126642 0.00175484 0.040195 0.92363)
(1.01474 -0.052708 0.406506 -0.0232868 1.04388 0.162691 -0.0017549 0.0401947 0.92363)
(1.02156 -0.0546607 0.39078 -0.0252396 1.03707 0.197501 -0.00525143 0.0398889 0.92363)
(1.02862 -0.0553994 0.37208 -0.0259786 1.03001 0.230808 -0.0087079 0.0392792 0.92363)
(1.0357 -0.054902 0.350548 -0.0254811 1.02293 0.262359 -0.0120983 0.0383708 0.923629)
(1.04258 -0.0531837 0.326348 -0.0237626 1.01605 0.291912 -0.0153966 0.0371706 0.92363)
(1.04906 -0.0502959 0.299664 -0.020875 1.00957 0.319245 -0.0185775 0.035687 0.92363)
(1.05494 -0.0463269 0.2707 -0.016906 1.00369 0.344148 -0.0216174 0.033932 0.923629)
(1.06004 -0.0413975 0.239675 -0.0119767 0.998592 0.366431 -0.0244925 0.0319191 0.923629)
(1.0642 -0.0356573 0.206827 -0.00623641 0.994425 0.385926 -0.0271811 0.0296631 0.92363)
(1.06731 -0.0292804 0.172404 0.000140348 0.991318 0.402483 -0.0296628 0.0271812 0.92363)
(1.06927 -0.022461 0.136669 0.00696001 0.989365 0.415977 -0.031919 0.0244924 0.923629)
(1.07 -0.0154058 0.0998939 0.0140152 0.988626 0.426306 -0.0339319 0.0216171 0.923629)
(1.06951 -0.0083298 0.062359 0.0210913 0.989123 0.43339 -0.0356869 0.0185774 0.923629)
(1.06779 -0.00144752 0.0243493 0.0279735 0.990842 0.437175 -0.0371703 0.0153964 0.92363)
(1.0649 0.00503176 -0.0138459 0.0344529 0.99373 0.437634 -0.0383708 0.0120982 0.923629)
(1.06093 0.0109111 -0.0519353 0.0403324 0.997698 0.434762 -0.0392792 0.00870798 0.92363)
(1.056 0.0160121 -0.0896299 0.0454334 1.00263 0.428581 -0.039889 0.00525142 0.92363)
(1.05026 0.0201795 -0.126642 0.0496008 1.00837 0.419139 -0.040195 0.00175484 0.92363)
(1.06558 0.0285225 -0.119705 0.0449493 1.01171 0.447907 -0.015337 -0.000669659 0.888648)
(1.0588 0.032642 -0.158287 0.0490685 1.0185 0.43577 -0.0152202 -0.00200378 0.888648)
(1.0514 0.03552 -0.195665 0.0519467 1.0259 0.420316 -0.0149877 -0.00332269 0.888648)
(1.04361 0.0370696 -0.231553 0.0534961 1.03369 0.401663 -0.0146411 -0.00461622 0.888648)
(1.03567 0.0372429 -0.265679 0.0536696 1.04163 0.379954 -0.0141831 -0.00587491 0.888648)
(1.02782 0.0360352 -0.297783 0.0524619 1.04947 0.355353 -0.0136171 -0.00708864 0.888648)
(1.0203 0.0334832 -0.327621 0.0499097 1.05699 0.328047 -0.0129476 -0.00824851 0.888648)
(1.01334 0.0296641 -0.354966 0.0460907 1.06396 0.298245 -0.0121794 -0.00934568 0.888648)
(1.00715 0.0246941 -0.379608 0.0411207 1.07015 0.266173 -0.0113184 -0.0103714 0.888648)
(1.00191 0.0187243 -0.401362 0.0351509 1.07538 0.232074 -0.0103715 -0.0113183 0.888648)
(0.997792 0.0119358 -0.420062 0.0283626 1.0795 0.19621 -0.00934556 -0.0121792 0.888648)
(0.994914 0.00453521 -0.435564 0.020962 1.08238 0.158853 -0.00824839 -0.0129475 0.888647)
(0.993365 -0.00325268 -0.447752 0.0131739 1.08393 0.120286 -0.00708855 -0.0136171 0.888647)
(0.993191 -0.0111913 -0.456531 0.0052352 1.0841 0.0808043 -0.00587473 -0.0141829 0.888648)
(0.994399 -0.0190396 -0.461837 -0.00261284 1.0829 0.0407077 -0.00461629 -0.0146412 0.888648)
(0.996951 -0.026559 -0.463627 -0.0101322 1.08034 0.000300694 -0.00332275 -0.0149876 0.888648)
(1.00077 -0.0335207 -0.461889 -0.0170939 1.07652 -0.0401083 -0.00200379 -0.0152201 0.888648)
(1.00574 -0.0397135 -0.456636 -0.0232868 1.07155 -0.0802119 -0.000669562 -0.015337 0.888648)
(1.01171 -0.0449493 -0.447907 -0.0285225 1.06558 -0.119705 0.000669659 -0.015337 0.888648)
(1.0185 -0.0490685 -0.43577 -0.032642 1.0588 -0.158287 0.00200378 -0.0152202 0.888648)
(1.0259 -0.0519467 -0.420316 -0.03552 1.0514 -0.195665 0.00332269 -0.0149877 0.888648)
(1.03369 -0.0534961 -0.401663 -0.0370696 1.04361 -0.231553 0.00461622 -0.0146411 0.888648)
(1.04163 -0.0536696 -0.379954 -0.0372429 1.03567 -0.265679 0.00587491 -0.0141831 0.888648)
(1.04947 -0.0524619 -0.355353 -0.0360352 1.02782 -0.297783 0.00708864 -0.0136171 0.888648)
(1.05699 -0.0499097 -0.328047 -0.0334832 1.0203 -0.327621 0.00824851 -0.0129476 0.888648)
(1.06396 -0.0460907 -0.298245 -0.0296641 1.01334 -0.354966 0.00934568 -0.0121794 0.888648)
(1.07015 -0.0411207 -0.266173 -0.0246941 1.00715 -0.379608 0.0103714 -0.0113184 0.888648)
(1.07538 -0.0351509 -0.232074 -0.0187243 1.00191 -0.401362 0.0113183 -0.0103715 0.888648)
(1.0795 -0.0283626 -0.19621 -0.0119358 0.997792 -0.420062 0.0121792 -0.00934556 0.888648)
(1.08238 -0.020962 -0.158853 -0.00453521 0.994914 -0.435564 0.0129475 -0.00824839 0.888647)
(1.08393 -0.0131739 -0.120286 0.00325268 0.993365 -0.447752 0.0136171 -0.00708855 0.888647)
(1.0841 -0.0052352 -0.0808043 0.0111913 0.993191 -0.456531 0.0141829 -0.00587473 0.888648)
(1.0829 0.00261284 -0.0407077 0.0190396 0.994399 -0.461837 0.0146412 -0.00461629 0.888648)
(1.08034 0.0101322 -0.000300694 0.026559 0.996951 -0.463627 0.0149876 -0.00332275 0.888648)
(1.07652 0.0170939 0.0401083 0.0335207 1.00077 -0.461889 0.0152201 -0.00200379 0.888648)
(1.07155 0.0232868 0.0802119 0.0397135 1.00574 -0.456636 0.015337 -0.000669562 0.888648)
(1.06558 0.0285225 0.119705 0.0449493 1.01171 -0.447907 0.015337 0.000669659 0.888648)
(1.0588 0.032642 0.158287 0.0490685 1.0185 -0.43577 0.0152202 0.00200378 0.888648)
(1.0514 0.03552 0.195665 0.0519467 1.0259 -0.420316 0.0149877 0.00332269 0.888648)
(1.04361 0.0370696 0.231553 0.0534961 1.03369 -0.401663 0.0146411 0.00461622 0.888648)
(1.03567 0.0372429 0.265679 0.0536696 1.04163 -0.379954 0.0141831 0.00587491 0.888648)
(1.02782 0.0360352 0.297783 0.0524619 1.04947 -0.355353 0.0136171 0.00708864 0.888648)
(1.0203 0.0334832 0.327621 0.0499097 1.05699 -0.328047 0.0129476 0.00824851 0.888648)
(1.01334 0.0296641 0.354966 0.0460907 1.06396 -0.298245 0.0121794 0.00934568 0.888648)
(1.00715 0.0246941 0.379608 0.0411207 1.07015 -0.266173 0.0113184 0.0103714 0.888648)
(1.00191 0.0187243 0.401362 0.0351509 1.07538 -0.232074 0.0103715 0.0113183 0.888648)
(0.997792 0.0119358 0.420062 0.0283626 1.0795 -0.19621 0.00934556 0.0121792 0.888648)
(0.994914 0.00453521 0.435564 0.020962 1.08238 -0.158853 0.00824839 0.0129475 0.888647)
(0.993365 -0.00325268 0.447752 0.0131739 1.08393 -0.120286 0.00708855 0.0136171 0.888647)
(0.993191 -0.0111913 0.456531 0.0052352 1.0841 -0.0808043 0.00587473 0.0141829 0.888648)
(0.994399 -0.0190396 0.461837 -0.00261284 1.0829 -0.0407077 0.00461629 0.0146412 0.888648)
(0.996951 -0.026559 0.463627 -0.0101322 1.08034 -0.000300694 0.00332275 0.0149876 0.888648)
(1.00077 -0.0335207 0.461889 -0.0170939 1.07652 0.0401083 0.00200379 0.0152201 0.888648)
(1.00574 -0.0397135 0.456636 -0.0232868 1.07155 0.0802119 0.000669562 0.015337 0.888648)
(1.01171 -0.0449493 0.447907 -0.0285225 1.06558 0.119705 -0.000669659 0.015337 0.888648)
(1.0185 -0.0490685 0.43577 -0.032642 1.0588 0.158287 -0.00200378 0.0152202 0.888648)
(1.0259 -0.0519467 0.420316 -0.03552 1.0514 0.195665 -0.00332269 0.0149877 0.888648)
(1.03369 -0.0534961 0.401663 -0.0370696 1.04361 0.231553 -0.00461622 0.0146411 0.888648)
(1.04163 -0.0536696 0.379954 -0.0372429 1.03567 0.265679 -0.00587491 0.0141831 0.888648)
(1.04947 -0.0524619 0.355353 -0.0360352 1.02782 0.297783 -0.00708864 0.0136171 0.888648)
(1.05699 -0.0499097 0.328047 -0.0334832 1.0203 0.327621 -0.00824851 0.0129476 0.888648)
(1.06396 -0.0460907 0.298245 -0.0296641 1.01334 0.354966 -0.00934568 0.0121794 0.888648)
(1.07015 -0.0411207 0.266173 -0.0246941 1.00715 0.379608 -0.0103714 0.0113184 0.888648)
(1.07538 -0.0351509 0.232074 -0.0187243 1.00191 0.401362 -0.0113183 0.0103715 0.888648)
(1.0795 -0.0283626 0.19621 -0.0119358 0.997792 0.420062 -0.0121792 0.00934556 0.888648)
(1.08238 -0.020962 0.158853 -0.00453521 0.994914 0.435564 -0.0129475 0.00824839 0.888647)
(1.08393 -0.0131739 0.120286 0.00325268 0.993365 0.447752 -0.0136171 0.00708855 0.888647)
(1.0841 -0.0052352 0.0808043 0.0111913 0.993191 0.456531 -0.0141829 0.00587473 0.888648)
(1.0829 0.00261284 0.0407077 0.0190396 0.994399 0.461837 -0.0146412 0.00461629 0.888648)
(1.08034 0.0101322 0.000300693 0.026559 0.996951 0.463627 -0.0149876 0.00332275 0.888648)
(1.07652 0.0170939 -0.0401083 0.0335207 1.00077 0.461889 -0.0152201 0.00200379 0.888648)
(1.07155 0.0232868 -0.0802119 0.0397135 1.00574 0.456636 -0.015337 0.000669562 0.888648)
(1.08285 0.0333705 -0.0702911 0.0325621 1.00706 0.482971 -0.00525126 -0.000229261 0.866216)
(1.07655 0.0394496 -0.112117 0.0386412 1.01336 0.475007 -0.00521136 -0.000686044 0.866216)
(1.06929 0.0443423 -0.15309 0.0435337 1.02062 0.463428 -0.00513183 -0.00113762 0.866216)
(1.06129 0.0478998 -0.192898 0.0470915 1.02862 0.448322 -0.00501303 -0.00158046 0.866216)
(1.05279 0.0500143 -0.231237 0.049206 1.03712 0.429803 -0.00485622 -0.00201154 0.866216)
(1.04406 0.0506213 -0.267817 0.049813 1.04585 0.408014 -0.00466247 -0.00242721 0.866216)
(1.03535 0.0497028 -0.302359 0.0488941 1.05456 0.38312 -0.00443318 -0.00282427 0.866216)
(1.02694 0.0472863 -0.3346 0.0464776 1.06297 0.35531 -0.00417013 -0.00320007 0.866215)
(1.01907 0.0434454 -0.364294 0.0426367 1.07084 0.324795 -0.00387517 -0.00355103 0.866215)
(1.01199 0.0382964 -0.391215 0.037488 1.07792 0.291809 -0.00355112 -0.00387517 0.866216)
(1.00591 0.031996 -0.415159 0.0311876 1.084 0.256602 -0.00319991 -0.00416998 0.866216)
(1.00102 0.024736 -0.435944 0.0239274 1.08889 0.219442 -0.00282425 -0.00443316 0.866216)
(0.997458 0.0167366 -0.45341 0.015928 1.09245 0.180612 -0.002427 -0.00466234 0.866215)
(0.995344 0.0082409 -0.467426 0.00743242 1.09456 0.140407 -0.00201152 -0.00485609 0.866216)
(0.994737 -0.000492861 -0.477885 -0.00130136 1.09517 0.0991338 -0.00158051 -0.00501298 0.866216)
(0.995655 -0.00919961 -0.484707 -0.0100078 1.09425 0.0571063 -0.00113759 -0.00513185 0.866215)
(0.998072 -0.0176143 -0.487839 -0.0184227 1.09184 0.0146439 -0.000686093 -0.00521126 0.866216)
(1.00191 -0.0254815 -0.487259 -0.0262899 1.08799 -0.0279299 -0.000229249 -0.00525123 0.866216)
(1.00706 -0.0325621 -0.482971 -0.0333705 1.08285 -0.0702911 0.000229261 -0.00525126 0.866216)
(1.01336 -0.0386412 -0.475007 -0.0394496 1.07655 -0.112117 0.000686044 -0.00521136 0.866216)
(1.02062 -0.0435337 -0.463428 -0.0443423 1.06929 -0.15309 0.00113762 -0.00513183 0.866216)
(1.02862 -0.0470915 -0.448322 -0.0478998 1.06129 -0.192898 0.00158046 -0.00501303 0.866216)
(1.03712 -0.049206 -0.429803 -0.0500143 1.05279 -0.231237 0.00201154 -0.00485622 0.866216)
(1.04585 -0.049813 -0.408014 -0.0506213 1.04406 -0.267817 0.00242721 -0.00466247 0.866216)
(1.05456 -0.0488941 -0.38312 -0.0497028 1.03535 -0.302359 0.00282427 -0.00443318 0.866216)
(1.06297 -0.0464776 -0.35531 -0.0472863 1.02694 -0.3346 0.00320007 -0.00417013 0.866215)
(1.07084 -0.0426367 -0.324795 -0.0434454 1.01907 -0.364294 0.00355103 -0.00387517 0.866215)
(1.07792 -0.037488 -0.291809 -0.0382964 1.01199 -0.391215 0.00387517 -0.00355112 0.866216)
(1.084 -0.0311876 -0.256602 -0.031996 1.00591 -0.415159 0.00416998 -0.00319991 0.866216)
(1.08889 -0.0239274 -0.219442 -0.024736 1.00102 -0.435944 0.00443316 -0.00282425 0.866216)
(1.09245 -0.015928 -0.180612 -0.0167366 0.997458 -0.45341 0.00466234 -0.002427 0.866215)
(1.09456 -0.00743242 -0.140407 -0.0082409 0.995344 -0.467426 0.00485609 -0.00201152 0.866216)
(1.09517 0.00130136 -0.0991338 0.000492861 0.994737 -0.477885 0.00501298 -0.00158051 0.866216)
(1.09425 0.0100078 -0.0571063 0.00919961 0.995655 -0.484707 0.00513185 -0.00113759 0.866215)
(1.09184 0.0184227 -0.0146439 0.0176143 0.998072 -0.487839 0.00521126 -0.000686093 0.866216)
(1.08799 0.0262899 0.0279299 0.0254815 1.00191 -0.487259 0.00525123 -0.000229249 0.866216)
(1.08285 0.0333705 0.0702911 0.0325621 1.00706 -0.482971 0.00525126 0.000229261 0.866216)
(1.07655 0.0394496 0.112117 0.0386412 1.01336 -0.475007 0.00521136 0.000686044 0.866216)
(1.06929 0.0443423 0.15309 0.0435337 1.02062 -0.463428 0.00513183 0.00113762 0.866216)
(1.06129 0.0478998 0.192898 0.0470915 1.02862 -0.448322 0.00501303 0.00158046 0.866216)
(1.05279 0.0500143 0.231237 0.049206 1.03712 -0.429803 0.00485622 0.00201154 0.866216)
(1.04406 0.0506213 0.267817 0.049813 1.04585 -0.408014 0.00466247 0.00242721 0.866216)
(1.03535 0.0497028 0.302359 0.0488941 1.05456 -0.38312 0.00443318 0.00282427 0.866216)
(1.02694 0.0472863 0.3346 0.0464776 1.06297 -0.35531 0.00417013 0.00320007 0.866215)
(1.01907 0.0434454 0.364294 0.0426367 1.07084 -0.324795 0.00387517 0.00355103 0.866215)
(1.01199 0.0382964 0.391215 0.037488 1.07792 -0.291809 0.00355112 0.00387517 0.866216)
(1.00591 0.031996 0.415159 0.0311876 1.084 -0.256602 0.00319991 0.00416998 0.866216)
(1.00102 0.024736 0.435944 0.0239274 1.08889 -0.219442 0.00282425 0.00443316 0.866216)
(0.997458 0.0167366 0.45341 0.015928 1.09245 -0.180612 0.002427 0.00466234 0.866215)
(0.995344 0.0082409 0.467426 0.00743242 1.09456 -0.140407 0.00201152 0.00485609 0.866216)
(0.994737 -0.000492861 0.477885 -0.00130136 1.09517 -0.0991338 0.00158051 0.00501298 0.866216)
(0.995655 -0.00919961 0.484707 -0.0100078 1.09425 -0.0571063 0.00113759 0.00513185 0.866215)
(0.998072 -0.0176143 0.487839 -0.0184227 1.09184 -0.0146439 0.000686093 0.00521126 0.866216)
(1.00191 -0.0254815 0.487259 -0.0262899 1.08799 0.0279299 0.000229249 0.00525123 0.866216)
(1.00706 -0.0325621 0.482971 -0.0333705 1.08285 0.0702911 -0.000229261 0.00525126 0.866216)
(1.01336 -0.0386412 0.475007 -0.0394496 1.07655 0.112117 -0.000686044 0.00521136 0.866216)
(1.02062 -0.0435337 0.463428 -0.0443423 1.06929 0.15309 -0.00113762 0.00513183 0.866216)
(1.02862 -0.0470915 0.448322 -0.0478998 1.06129 0.192898 -0.00158046 0.00501303 0.866216)
(1.03712 -0.049206 0.429803 -0.0500143 1.05279 0.231237 -0.00201154 0.00485622 0.866216)
(1.04585 -0.049813 0.408014 -0.0506213 1.04406 0.267817 -0.00242721 0.00466247 0.866216)
(1.05456 -0.0488941 0.38312 -0.0497028 1.03535 0.302359 -0.00282427 0.00443318 0.866216)
(1.06297 -0.0464776 0.35531 -0.0472863 1.02694 0.3346 -0.00320007 0.00417013 0.866215)
(1.07084 -0.0426367 0.324795 -0.0434454 1.01907 0.364294 -0.00355103 0.00387517 0.866215)
(1.07792 -0.037488 0.291809 -0.0382964 1.01199 0.391215 -0.00387517 0.00355112 0.866216)
(1.084 -0.0311876 0.256602 -0.031996 1.00591 0.415159 -0.00416998 0.00319991 0.866216)
(1.08889 -0.0239274 0.219442 -0.024736 1.00102 0.435944 -0.00443316 0.00282425 0.866216)
(1.09245 -0.015928 0.180612 -0.0167366 0.997458 0.45341 -0.00466234 0.002427 0.866215)
(1.09456 -0.00743242 0.140407 -0.0082409 0.995344 0.467426 -0.00485609 0.00201152 0.866216)
(1.09517 0.00130136 0.0991338 0.000492861 0.994737 0.477885 -0.00501298 0.00158051 0.866216)
(1.09425 0.0100078 0.0571063 0.00919961 0.995655 0.484707 -0.00513185 0.00113759 0.866215)
(1.09184 0.0184227 0.0146439 0.0176143 0.998072 0.487839 -0.00521126 0.000686093 0.866216)
(1.08799 0.0262899 -0.0279299 0.0254815 1.00191 0.487259 -0.00525123 0.000229249 0.866216)
(1.10977 0.0382616 -0.0148752 0.0219649 1.00076 0.507707 -0.00526014 -0.000229636 0.853537)
(1.10371 0.0472691 -0.0590682 0.0309729 1.00681 0.504479 -0.00522031 -0.000687144 0.853537)
(1.09618 0.0550882 -0.102811 0.0387918 1.01434 0.497412 -0.00514038 -0.00113956 0.853537)
(1.08741 0.0614811 -0.145773 0.045185 1.02311 0.486558 -0.00502114 -0.00158315 0.853537)
(1.07766 0.0662532 -0.187624 0.049957 1.03286 0.472001 -0.00486386 -0.00201462 0.853537)
(1.06723 0.0692595 -0.228048 0.0529637 1.04329 0.453853 -0.00467001 -0.00243101 0.853537)
(1.05644 0.0704096 -0.266736 0.0541134 1.05409 0.43225 -0.00444029 -0.00282876 0.853537)
(1.04561 0.069668 -0.303394 0.0533713 1.06492 0.407358 -0.00417686 -0.00320539 0.853537)
(1.03507 0.067057 -0.337743 0.0507608 1.07545 0.379365 -0.00388177 -0.00355724 0.853537)
(1.02515 0.0626561 -0.369522 0.0463596 1.08538 0.348485 -0.00355727 -0.00388177 0.853537)
(1.01614 0.0565982 -0.398488 0.0403022 1.09438 0.314953 -0.00320539 -0.00417692 0.853537)
(1.00832 0.0490689 -0.424421 0.0327727 1.1022 0.279024 -0.00282877 -0.0044404 0.853537)
(1.00193 0.0402964 -0.447125 0.0239999 1.1086 0.240972 -0.00243073 -0.00466989 0.853537)
(0.997158 0.0305469 -0.466425 0.0142508 1.11337 0.201085 -0.00201462 -0.00486375 0.853537)
(0.994151 0.020117 -0.482176 0.00382069 1.11638 0.159668 -0.00158319 -0.00502068 0.853537)
(0.993001 0.0093231 -0.494257 -0.00697338 1.11752 0.117036 -0.00113963 -0.0051404 0.853537)
(0.993743 -0.0015063 -0.502577 -0.017803 1.11678 0.0735133 -0.000687129 -0.00522026 0.853537)
(0.996354 -0.0120428 -0.507072 -0.0283391 1.11417 0.0294311 -0.000229624 -0.00526027 0.853537)
(1.00076 -0.0219649 -0.507707 -0.0382616 1.10977 -0.0148752 0.000229636 -0.00526014 0.853537)
(1.00681 -0.0309729 -0.504479 -0.0472691 1.10371 -0.0590682 0.000687144 -0.00522031 0.853537)
(1.01434 -0.0387918 -0.497412 -0.0550882 1.09618 -0.102811 0.00113956 -0.00514038 0.853537)
(1.02311 -0.045185 -0.486558 -0.0614811 1.08741 -0.145773 0.00158315 -0.00502114 0.853537)
(1.03286 -0.049957 -0.472001 -0.0662532 1.07766 -0.187624 0.00201462 -0.00486386 0.853537)
(1.04329 -0.0529637 -0.453853 -0.0692595 1.06723 -0.228048 0.00243101 -0.00467001 0.853537)
(1.05409 -0.0541134 -0.43225 -0.0704096 1.05644 -0.266736 0.00282876 -0.00444029 0.853537)
(1.06492 -0.0533713 -0.407358 -0.069668 1.04561 -0.303394 0.00320539 -0.00417686 0.853537)
(1.07545 -0.0507608 -0.379365 -0.067057 1.03507 -0.337743 0.00355724 -0.00388177 0.853537)
(1.08538 -0.0463596 -0.348485 -0.0626561 1.02515 -0.369522 0.00388177 -0.00355727 0.853537)
(1.09438 -0.0403022 -0.314953 -0.0565982 1.01614 -0.398488 0.00417692 -0.00320539 0.853537)
(1.1022 -0.0327727 -0.279024 -0.0490689 1.00832 -0.424421 0.0044404 -0.00282877 0.853537)
(1.1086 -0.0239999 -0.240972 -0.0402964 1.00193 -0.447125 0.00466989 -0.00243073 0.853537)
(1.11337 -0.0142508 -0.201085 -0.0305469 0.997158 -0.466425 0.00486375 -0.00201462 0.853537)
(1.11638 -0.00382069 -0.159668 -0.020117 0.994151 -0.482176 0.00502068 -0.00158319 0.853537)
(1.11752 0.00697338 -0.117036 -0.0093231 0.993001 -0.494257 0.0051404 -0.00113963 0.853537)
(1.11678 0.017803 -0.0735133 0.0015063 0.993743 -0.502577 0.00522026 -0.000687129 0.853537)
(1.11417 0.0283391 -0.0294311 0.0120428 0.996354 -0.507072 0.00526027 -0.000229624 0.853537)
(1.10977 0.0382616 0.0148752 0.0219649 1.00076 -0.507707 0.00526014 0.000229636 0.853537)
(1.10371 0.0472691 0.0590682 0.0309729 1.00681 -0.504479 0.00522031 0.000687144 0.853537)