/*--------------------------------*- C++ -*----------------------------------*\
| =========                 |                                                 |
| \\      /  F ield         | OpenFOAM: The Open Source CFD Toolbox           |
|  \\    /   O peration     | Version:  2312                                  |
|   \\  /    A nd           | Website:  www.openfoam.com                      |
|    \\/     M anipulation  |                                                 |
\*---------------------------------------------------------------------------*/
FoamFile
{
    version     2.0;
    format      ascii;
    arch        "LSB;label=32;scalar=64";
    class       volVectorField;
    location    "0.8";
    object      traction;
}
// * * * * * * * * * * * * * * * * * * * * * * * * * * * * * * * * * * * * * //

dimensions      [1 -1 -2 0 0 0 0];

internalField   uniform (0 0 0);

boundaryField
{
    fixed
    {
        type            calculated;
        value           nonuniform List<vector> 
108
(
(-2172.11 18225.9 30490)
(-5304.02 17571.8 30490)
(-8274.77 16383.9 30490)
(-10994 14698 30490)
(-13379.2 12565.6 30490)
(-15358 10051.5 30490)
(-16870.2 7231.91 30489.8)
(-17869.7 4192.55 30489.9)
(-18326.2 1025.82 30490)
(-18225.9 -2172.11 30490)
(-17571.8 -5304.02 30490)
(-16383.9 -8274.77 30490)
(-14698 -10994 30490)
(-12565.6 -13379.2 30490)
(-10051.5 -15358 30490)
(-7231.91 -16870.2 30489.8)
(-4192.55 -17869.7 30489.9)
(-1025.82 -18326.2 30490)
(2172.11 -18225.9 30490)
(5304.02 -17571.8 30490)
(8274.77 -16383.9 30490)
(10994 -14698 30490)
(13379.2 -12565.6 30490)
(15358 -10051.5 30490)
(16870.2 -7231.91 30489.8)
(17869.7 -4192.55 30489.9)
(18326.2 -1025.82 30489.9)
(18225.9 2172.11 30490)
(17571.8 5304.02 30490)
(16383.9 8274.77 30490)
(14698 10994 30490)
(12565.6 13379.2 30490)
(10051.5 15358 30490)
(7231.91 16870.2 30489.8)
(4192.55 17869.7 30489.9)
(1025.82 18326.2 30490)
(-1219 4962.17 -26159.8)
(-2062.15 4675.1 -26159.7)
(-2842.62 4245.94 -26159.7)
(-3536.85 3687.97 -26159.7)
(-4123.66 3017.92 -26159.7)
(-4584.91 2255.9 -26159.8)
(-4906.81 1425.39 -26159.7)
(-5079.83 551.685 -26159.8)
(-5098.46 -338.805 -26159.8)
(-4962.17 -1219 -26159.8)
(-4675.1 -2062.15 -26159.7)
(-4245.94 -2842.62 -26159.7)
(-3687.97 -3536.85 -26159.7)
(-3017.92 -4123.66 -26159.7)
(-2255.9 -4584.91 -26159.8)
(-1425.39 -4906.81 -26159.7)
(-551.685 -5079.83 -26159.8)
(338.805 -5098.46 -26159.8)
(1219 -4962.17 -26159.8)
(2062.15 -4675.1 -26159.7)
(2842.62 -4245.94 -26159.7)
(3536.85 -3687.97 -26159.7)
(4123.65 -3017.92 -26159.7)
(4584.91 -2255.9 -26159.8)
(4906.81 -1425.39 -26159.7)
(5079.83 -551.685 -26159.8)
(5098.46 338.805 -26159.8)
(4962.17 1219 -26159.8)
(4675.1 2062.15 -26159.7)
(4245.94 2842.62 -26159.7)
(3687.97 3536.85 -26159.7)
(3017.92 4123.66 -26159.7)
(2255.9 4584.91 -26159.8)
(1425.39 4906.81 -26159.7)
(551.685 5079.83 -26159.8)
(-338.805 5098.46 -26159.8)
(1361.06 -25255.4 -20203.1)
(5725.91 -24635.3 -20203.1)
(9916.85 -23266.7 -20203.3)
(13806.5 -21191.2 -20203.2)
(17276.5 -18471.9 -20203.4)
(20221.6 -15191.2 -20203.1)
(22552.3 -11449 -20203.1)
(24197.8 -7358.82 -20203.3)
(25108 -3045.14 -20203.2)
(25255.4 1361.06 -20203.1)
(24635.3 5725.91 -20203.1)
(23266.7 9916.85 -20203.3)
(21191.2 13806.5 -20203.2)
(18471.9 17276.5 -20203.4)
(15191.2 20221.6 -20203.1)
(11449 22552.3 -20203.1)
(7358.82 24197.8 -20203.3)
(3045.14 25108 -20203.2)
(-1361.06 25255.4 -20203.1)
(-5725.91 24635.3 -20203.1)
(-9916.85 23266.7 -20203.3)
(-13806.5 21191.2 -20203.2)
(-17276.5 18471.9 -20203.4)
(-20221.6 15191.2 -20203.1)
(-22552.3 11449 -20203.1)
(-24197.8 7358.82 -20203.3)
(-25108 3045.14 -20203.2)
(-25255.4 -1361.06 -20203.1)
(-24635.3 -5725.91 -20203.1)
(-23266.7 -9916.85 -20203.3)
(-21191.2 -13806.5 -20203.2)
(-18471.9 -17276.5 -20203.4)
(-15191.2 -20221.6 -20203.1)
(-11449 -22552.3 -20203.1)
(-7358.82 -24197.8 -20203.3)
(-3045.14 -25108 -20203.2)
)
;
    }
    inside
    {
        type            calculated;
        value           nonuniform List<vector> 
540
(
(49143.8 7283.07 2430.12)
(47132.7 15705.8 2430.06)
(43689.2 23652.3 2430.14)
(38918.4 30879.1 2430.09)
(32965 37168.2 2430.11)
(26009.9 42327.8 2430.09)
(18264.9 46201.2 2430.08)
(9964.12 48671.2 2430.12)
(1361.48 49661.9 2430.12)
(-7283.07 49143.8 2430.12)
(-15705.8 47132.7 2430.06)
(-23652.3 43689.2 2430.14)
(-30879.1 38918.4 2430.09)
(-37168.2 32965 2430.11)
(-42327.8 26009.9 2430.09)
(-46201.2 18264.9 2430.08)
(-48671.2 9964.12 2430.12)
(-49661.9 1361.48 2430.12)
(-49143.8 -7283.07 2430.12)
(-47132.7 -15705.8 2430.06)
(-43689.2 -23652.3 2430.14)
(-38918.4 -30879.1 2430.09)
(-32965 -37168.2 2430.11)
(-26009.9 -42327.8 2430.09)
(-18264.9 -46201.2 2430.08)
(-9964.12 -48671.2 2430.12)
(-1361.48 -49661.9 2430.12)
(7283.07 -49143.8 2430.12)
(15705.8 -47132.7 2430.06)
(23652.3 -43689.2 2430.14)
(30879.1 -38918.4 2430.09)
(37168.2 -32965 2430.11)
(42327.8 -26009.9 2430.09)
(46201.2 -18264.9 2430.08)
(48671.2 -9964.12 2430.12)
(49661.9 -1361.48 2430.12)
(28141.6 7923.6 237.7)
(26338.3 12689.7 237.75)
(23734.6 17070.6 237.728)
(20409.6 20932.7 237.683)
(16464.6 24158.7 237.677)
(12019.2 26650.5 237.635)
(7208.85 28333 237.687)
(2179.31 29154.4 237.694)
(-2916.14 29090 237.767)
(-7923.59 28141.6 237.7)
(-12689.7 26338.3 237.75)
(-17070.6 23734.6 237.728)
(-20932.7 20409.6 237.683)
(-24158.7 16464.6 237.677)
(-26650.5 12019.2 237.635)
(-28333 7208.85 237.687)
(-29154.4 2179.31 237.695)
(-29090 -2916.14 237.767)
(-28141.6 -7923.59 237.7)
(-26338.3 -12689.7 237.751)
(-23734.6 -17070.6 237.728)
(-20409.6 -20932.7 237.683)
(-16464.6 -24158.7 237.677)
(-12019.2 -26650.5 237.635)
(-7208.85 -28333 237.687)
(-2179.31 -29154.4 237.695)
(2916.14 -29090 237.767)
(7923.59 -28141.6 237.701)
(12689.7 -26338.3 237.751)
(17070.6 -23734.6 237.728)
(20932.7 -20409.6 237.683)
(24158.7 -16464.6 237.677)
(26650.5 -12019.2 237.635)
(28333 -7208.85 237.687)
(29154.4 -2179.31 237.694)
(29090 2916.14 237.767)
(26460.7 11178.7 -1055.97)
(24117.6 15603.6 -1055.97)
(21041.5 19554.5 -1055.99)
(17326.3 22911.3 -1055.95)
(13084.6 25572 -1055.96)
(8445.24 27455.6 -1055.96)
(3549.36 28505 -1055.98)
(-1454.45 28688.1 -1056.01)
(-6413.9 27999.7 -1055.96)
(-11178.7 26460.6 -1055.97)
(-15603.6 24117.6 -1055.97)
(-19554.5 21041.5 -1055.99)
(-22911.3 17326.3 -1055.95)
(-25572 13084.6 -1055.96)
(-27455.6 8445.24 -1055.96)
(-28505 3549.36 -1055.98)
(-28688.1 -1454.45 -1056.01)
(-27999.7 -6413.9 -1055.96)
(-26460.6 -11178.7 -1055.97)
(-24117.6 -15603.6 -1055.97)
(-21041.5 -19554.5 -1055.99)
(-17326.3 -22911.3 -1055.95)
(-13084.6 -25572 -1055.96)
(-8445.24 -27455.6 -1055.96)
(-3549.36 -28505 -1055.98)
(1454.45 -28688.1 -1056.01)
(6413.9 -27999.7 -1055.96)
(11178.7 -26460.7 -1055.97)
(15603.6 -24117.6 -1055.97)
(19554.5 -21041.5 -1055.99)
(22911.3 -17326.3 -1055.95)
(25572 -13084.6 -1055.96)
(27455.6 -8445.24 -1055.96)
(28505 -3549.36 -1055.98)
(28688.1 1454.45 -1056.01)
(27999.7 6413.9 -1055.96)
(23225.7 13293.1 -2170.59)
(20564.5 17124.4 -2170.55)
(17278.4 20435.2 -2170.59)
(13467.4 23125.2 -2170.62)
(9247.19 25112.5 -2170.6)
(4745.96 26336.6 -2170.62)
(100.546 26760.7 -2170.6)
(-4547.88 26371.5 -2170.55)
(-9058.27 25181.1 -2170.63)
(-13293.1 23225.7 -2170.59)
(-17124.4 20564.5 -2170.55)
(-20435.2 17278.4 -2170.59)
(-23125.2 13467.4 -2170.62)
(-25112.5 9247.19 -2170.6)
(-26336.6 4745.96 -2170.62)
(-26760.7 100.546 -2170.6)
(-26371.5 -4547.88 -2170.55)
(-25181.1 -9058.27 -2170.63)
(-23225.7 -13293.1 -2170.59)
(-20564.5 -17124.4 -2170.55)
(-17278.4 -20435.2 -2170.59)
(-13467.4 -23125.2 -2170.62)
(-9247.19 -25112.5 -2170.6)
(-4745.96 -26336.6 -2170.62)
(-100.546 -26760.7 -2170.6)
(4547.88 -26371.5 -2170.55)
(9058.27 -25181.1 -2170.63)
(13293.1 -23225.7 -2170.59)
(17124.4 -20564.5 -2170.55)
(20435.2 -17278.4 -2170.59)
(23125.2 -13467.4 -2170.62)
(25112.5 -9247.19 -2170.6)
(26336.6 -4745.96 -2170.62)
(26760.7 -100.546 -2170.6)
(26371.5 4547.88 -2170.55)
(25181.1 9058.27 -2170.63)
(20732.2 14861.4 -2848.75)
(17836.4 18235.8 -2848.79)
(14398.9 21056 -2848.77)
(10523.8 23236.5 -2848.78)
(6328.91 24710.8 -2848.78)
(1941.79 25434.5 -2848.78)
(-2504.39 25385.3 -2848.79)
(-6874.39 24564.8 -2848.78)
(-11035.7 22997.7 -2848.78)
(-14861.4 20732.2 -2848.75)
(-18235.8 17836.4 -2848.79)
(-21056 14398.9 -2848.77)
(-23236.5 10523.8 -2848.78)
(-24710.8 6328.91 -2848.78)
(-25434.5 1941.79 -2848.78)
(-25385.3 -2504.39 -2848.79)
(-24564.8 -6874.39 -2848.78)
(-22997.7 -11035.7 -2848.78)
(-20732.2 -14861.4 -2848.75)
(-17836.4 -18235.8 -2848.79)
(-14398.9 -21056 -2848.77)
(-10523.8 -23236.5 -2848.78)
(-6328.91 -24710.8 -2848.78)
(-1941.79 -25434.5 -2848.78)
(2504.39 -25385.3 -2848.79)
(6874.39 -24564.8 -2848.78)
(11035.7 -22997.7 -2848.78)
(14861.4 -20732.2 -2848.75)
(18235.8 -17836.4 -2848.79)
(21056 -14398.9 -2848.77)
(23236.5 -10523.8 -2848.78)
(24710.8 -6328.91 -2848.78)
(25434.5 -1941.79 -2848.78)
(25385.3 2504.39 -2848.79)
(24564.8 6874.39 -2848.78)
(22997.7 11035.7 -2848.78)
(18310.3 15720.4 -3155.04)
(15302.2 18661.1 -3155.05)
(11829.3 21035 -3155.08)
(7996.95 22769.4 -3155.01)
(3921.61 23812.3 -3155.01)
(-272.926 24131.6 -3155.04)
(-4459.1 23717.5 -3155.05)
(-8509.91 22582.9 -3155.07)
(-12302.1 20762 -3155.07)
(-15720.4 18310.3 -3155.04)
(-18661.1 15302.2 -3155.05)
(-21035 11829.3 -3155.07)
(-22769.4 7996.95 -3155.01)
(-23812.3 3921.61 -3155.01)
(-24131.6 -272.925 -3155.04)
(-23717.5 -4459.1 -3155.05)
(-22582.9 -8509.91 -3155.07)
(-20762 -12302.1 -3155.07)
(-18310.3 -15720.4 -3155.04)
(-15302.2 -18661.1 -3155.05)
(-11829.4 -21035 -3155.07)
(-7996.95 -22769.4 -3155.01)
(-3921.61 -23812.3 -3155.01)
(272.925 -24131.6 -3155.04)
(4459.1 -23717.5 -3155.05)
(8509.91 -22582.9 -3155.07)
(12302.1 -20762 -3155.07)
(15720.4 -18310.3 -3155.04)
(18661.1 -15302.2 -3155.05)
(21035 -11829.4 -3155.08)
(22769.4 -7996.95 -3155.01)
(23812.3 -3921.61 -3155.01)
(24131.6 272.925 -3155.04)
(23717.5 4459.1 -3155.05)
(22582.9 8509.91 -3155.07)
(20762 12302.1 -3155.07)
(15742.3 15791.9 -3041.21)
(12760.8 18285.5 -3041.18)
(9391.78 20223.7 -3041.2)
(5737.21 21547.2 -3041.2)
(1908.44 22216.2 -3041.24)
(-1978.32 22210.1 -3041.22)
(-5805.03 21529.1 -3041.17)
(-9455.32 20194.1 -3041.22)
(-12818.2 18245.2 -3041.14)
(-15791.9 15742.3 -3041.21)
(-18285.5 12760.8 -3041.18)
(-20223.7 9391.78 -3041.2)
(-21547.2 5737.21 -3041.2)
(-22216.2 1908.44 -3041.24)
(-22210.1 -1978.32 -3041.22)
(-21529.1 -5805.03 -3041.17)
(-20194.1 -9455.32 -3041.22)
(-18245.2 -12818.2 -3041.14)
(-15742.3 -15791.9 -3041.21)
(-12760.8 -18285.5 -3041.18)
(-9391.78 -20223.7 -3041.2)
(-5737.21 -21547.2 -3041.2)
(-1908.44 -22216.2 -3041.24)
(1978.32 -22210.1 -3041.22)
(5805.03 -21529.1 -3041.17)
(9455.32 -20194.1 -3041.22)
(12818.2 -18245.2 -3041.14)
(15791.9 -15742.3 -3041.21)
(18285.5 -12760.8 -3041.18)
(20223.7 -9391.78 -3041.2)
(21547.2 -5737.21 -3041.2)
(22216.2 -1908.44 -3041.24)
(22210.1 1978.32 -3041.22)
(21529.1 5805.03 -3041.18)
(20194.1 9455.32 -3041.22)
(18245.2 12818.2 -3041.14)
(12871.6 14853.8 -2361.19)
(10096.6 16863.2 -2361.16)
(7015.04 18360.2 -2361.08)
(3720.16 19299.5 -2361.11)
(312.365 19652.4 -2361.14)
(-3104.94 19408.1 -2361.14)
(-6428.03 18574.1 -2361.12)
(-9555.64 17175.6 -2361.18)
(-12393 15255.3 -2361.17)
(-14853.8 12871.6 -2361.19)
(-16863.2 10096.6 -2361.16)
(-18360.2 7015.04 -2361.07)
(-19299.5 3720.16 -2361.11)
(-19652.4 312.365 -2361.14)
(-19408.1 -3104.94 -2361.14)
(-18574.1 -6428.03 -2361.12)
(-17175.6 -9555.64 -2361.18)
(-15255.3 -12393 -2361.17)
(-12871.6 -14853.8 -2361.19)
(-10096.6 -16863.2 -2361.16)
(-7015.04 -18360.2 -2361.08)
(-3720.16 -19299.5 -2361.11)
(-312.365 -19652.4 -2361.14)
(3104.94 -19408.1 -2361.14)
(6428.03 -18574.1 -2361.12)
(9555.64 -17175.6 -2361.18)
(12393 -15255.3 -2361.17)
(14853.8 -12871.6 -2361.19)
(16863.2 -10096.6 -2361.16)
(18360.2 -7015.04 -2361.08)
(19299.5 -3720.16 -2361.11)
(19652.4 -312.365 -2361.14)
(19408.1 3104.94 -2361.14)
(18574.1 6428.03 -2361.12)
(17175.6 9555.64 -2361.18)
(15255.3 12393 -2361.17)
(9780.98 12724.5 -905.28)
(7422.79 14229.8 -905.351)
(4839.02 15302.5 -905.35)
(2108.3 15910.4 -905.376)
(-686.506 16034.8 -905.315)
(-3460.49 15671.9 -905.357)
(-6129.34 14832.9 -905.359)
(-8611.89 13543.2 -905.334)
(-10833 11842.1 -905.359)
(-12724.5 9780.98 -905.278)
(-14229.8 7422.79 -905.35)
(-15302.5 4839.02 -905.348)
(-15910.4 2108.3 -905.375)
(-16034.8 -686.505 -905.314)
(-15671.9 -3460.49 -905.356)
(-14832.9 -6129.34 -905.359)
(-13543.2 -8611.89 -905.333)
(-11842.1 -10833 -905.359)
(-9780.98 -12724.5 -905.279)
(-7422.79 -14229.8 -905.35)
(-4839.03 -15302.5 -905.349)
(-2108.3 -15910.4 -905.376)
(686.505 -16034.8 -905.315)
(3460.49 -15671.9 -905.358)
(6129.34 -14832.9 -905.361)
(8611.89 -13543.2 -905.335)
(10833 -11842.1 -905.361)
(12724.5 -9780.99 -905.281)
(14229.8 -7422.79 -905.352)
(15302.5 -4839.02 -905.351)
(15910.4 -2108.3 -905.377)
(16034.8 686.506 -905.316)
(15671.9 3460.49 -905.358)
(14832.9 6129.34 -905.361)
(13543.2 8611.89 -905.335)
(11842.1 10833 -905.36)
(6887.03 9515.76 1436.43)
(5130.08 10567.2 1436.48)
(3217.08 11297.5 1436.43)
(1206.43 11684.6 1436.34)
(-840.953 11716.4 1436.33)
(-2862.68 11392.4 1436.46)
(-4797.4 10722.2 1436.48)
(-6586.45 9726.33 1436.51)
(-8175.46 8434.9 1436.38)
(-9515.76 6887.03 1436.43)
(-10567.2 5130.08 1436.48)
(-11297.5 3217.08 1436.43)
(-11684.6 1206.43 1436.35)
(-11716.4 -840.952 1436.34)
(-11392.4 -2862.68 1436.46)
(-10722.2 -4797.39 1436.48)
(-9726.33 -6586.45 1436.51)
(-8434.9 -8175.46 1436.38)
(-6887.03 -9515.76 1436.43)
(-5130.08 -10567.2 1436.48)
(-3217.08 -11297.5 1436.43)
(-1206.43 -11684.6 1436.34)
(840.953 -11716.4 1436.33)
(2862.68 -11392.4 1436.45)
(4797.4 -10722.2 1436.48)
(6586.45 -9726.33 1436.51)
(8175.46 -8434.9 1436.38)
(9515.76 -6887.03 1436.43)
(10567.2 -5130.08 1436.48)
(11297.5 -3217.08 1436.43)
(11684.6 -1206.43 1436.34)
(11716.4 840.953 1436.33)
(11392.4 2862.68 1436.45)
(10722.2 4797.4 1436.48)
(9726.33 6586.45 1436.51)
(8434.9 8175.46 1436.38)
(4992.38 5900.87 4323.14)
(3891.97 6678.29 4323.1)
(2673.13 7252.57 4323.18)
(1373.17 7606.67 4323.12)
(31.4267 7729.52 4323.18)
(-1311.29 7617.54 4323.17)
(-2614.17 7274.15 4323.05)
(-3837.54 6709.55 4323.14)
(-4944.4 5941.3 4323.09)
(-5900.87 4992.38 4323.14)
(-6678.29 3891.98 4323.1)
(-7252.58 2673.13 4323.18)
(-7606.67 1373.17 4323.12)
(-7729.52 31.4281 4323.18)
(-7617.54 -1311.29 4323.18)
(-7274.16 -2614.17 4323.05)
(-6709.55 -3837.54 4323.14)
(-5941.3 -4944.4 4323.09)
(-4992.38 -5900.88 4323.14)
(-3891.98 -6678.29 4323.09)
(-2673.13 -7252.58 4323.18)
(-1373.17 -7606.68 4323.12)
(-31.4271 -7729.52 4323.18)
(1311.29 -7617.54 4323.17)
(2614.18 -7274.16 4323.05)
(3837.54 -6709.55 4323.13)
(4944.41 -5941.3 4323.09)
(5900.88 -4992.38 4323.14)
(6678.29 -3891.98 4323.09)
(7252.58 -2673.13 4323.18)
(7606.68 -1373.17 4323.11)
(7729.52 -31.4269 4323.17)
(7617.54 1311.29 4323.17)
(7274.16 2614.18 4323.05)
(6709.55 3837.54 4323.13)
(5941.3 4944.4 4323.09)
(4993.62 3039.38 6444.64)
(4390.02 3860.41 6444.47)
(3652.96 4564.07 6444.55)
(2804.93 5129.06 6444.53)
(1871.66 5538.18 6444.56)
(881.521 5779.1 6444.52)
(-135.386 5844.2 6444.52)
(-1148.15 5731.88 6444.67)
(-2126.01 5445.4 6444.62)
(-3039.38 4993.61 6444.65)
(-3860.41 4390.03 6444.47)
(-4564.08 3652.96 6444.55)
(-5129.07 2804.94 6444.53)
(-5538.18 1871.66 6444.56)
(-5779.1 881.522 6444.52)
(-5844.21 -135.387 6444.52)
(-5731.88 -1148.15 6444.67)
(-5445.41 -2126.02 6444.62)
(-4993.61 -3039.38 6444.65)
(-4390.03 -3860.42 6444.47)
(-3652.96 -4564.08 6444.55)
(-2804.93 -5129.07 6444.53)
(-1871.66 -5538.19 6444.56)
(-881.52 -5779.1 6444.52)
(135.389 -5844.21 6444.52)
(1148.15 -5731.88 6444.67)
(2126.02 -5445.41 6444.62)
(3039.38 -4993.61 6444.64)
(3860.42 -4390.02 6444.46)
(4564.08 -3652.96 6444.55)
(5129.07 -2804.93 6444.53)
(5538.18 -1871.66 6444.55)
(5779.1 -881.521 6444.52)
(5844.21 135.388 6444.52)
(5731.88 1148.15 6444.67)
(5445.41 2126.02 6444.62)
(7572.91 2464.33 4081.45)
(7030.06 3742.1 4081.15)
(6273.46 4905.99 4081.25)
(5326.22 5920.86 4081.26)
(4217.18 6755.73 4081.34)
(2980 7385.39 4081.36)
(1652.24 7790.58 4081.23)
(274.394 7958.94 4081.54)
(-1111.85 7885.7 4081.46)
(-2464.33 7572.91 4081.45)
(-3742.1 7030.06 4081.15)
(-4905.99 6273.46 4081.25)
(-5920.86 5326.23 4081.26)
(-6755.74 4217.18 4081.34)
(-7385.39 2980 4081.36)
(-7790.58 1652.24 4081.23)
(-7958.95 274.393 4081.54)
(-7885.7 -1111.86 4081.46)
(-7572.91 -2464.33 4081.45)
(-7030.06 -3742.1 4081.15)
(-6273.46 -4906 4081.25)
(-5326.22 -5920.87 4081.26)
(-4217.18 -6755.74 4081.34)
(-2979.99 -7385.39 4081.35)
(-1652.24 -7790.58 4081.23)
(-274.392 -7958.95 4081.54)
(1111.85 -7885.7 4081.46)
(2464.33 -7572.91 4081.45)
(3742.1 -7030.06 4081.15)
(4905.99 -6273.46 4081.25)
(5920.86 -5326.22 4081.26)
(6755.74 -4217.18 4081.34)
(7385.39 -2979.99 4081.35)
(7790.58 -1652.24 4081.23)
(7958.95 -274.392 4081.54)
(7885.7 1111.86 4081.46)
(9654.98 2747.51 -5210.54)
(9031.45 4382.68 -5210.76)
(8133.14 5884.27 -5210.85)
(6987.79 7207.22 -5210.58)
(5630.16 8311.2 -5210.67)
(4101.41 9162.56 -5210.78)
(2447.99 9735.53 -5210.61)
(720.404 10012.3 -5210.32)
(-1029.3 9985.57 -5210.24)
(-2747.51 9654.98 -5210.54)
(-4382.67 9031.44 -5210.76)
(-5884.26 8133.14 -5210.85)
(-7207.22 6987.79 -5210.58)
(-8311.2 5630.16 -5210.67)
(-9162.57 4101.41 -5210.78)
(-9735.53 2447.99 -5210.6)
(-10012.3 720.403 -5210.31)
(-9985.57 -1029.31 -5210.24)
(-9654.98 -2747.51 -5210.53)
(-9031.44 -4382.68 -5210.76)
(-8133.14 -5884.27 -5210.85)
(-6987.79 -7207.22 -5210.58)
(-5630.16 -8311.2 -5210.67)
(-4101.41 -9162.57 -5210.77)
(-2448 -9735.55 -5210.58)
(-720.403 -10012.3 -5210.31)
(1029.3 -9985.57 -5210.23)
(2747.5 -9654.98 -5210.52)
(4382.67 -9031.44 -5210.75)
(5884.26 -8133.14 -5210.84)
(7207.22 -6987.78 -5210.57)
(8311.2 -5630.16 -5210.66)
(9162.56 -4101.41 -5210.77)
(9735.53 -2447.99 -5210.6)
(10012.3 -720.401 -5210.32)
(9985.58 1029.31 -5210.24)
(16803.1 9676.32 -59899.8)
(14867.4 12447.4 -59899)
(12480.7 14840.3 -59901.4)
(9712.93 16781.1 -59899.7)
(6652.77 18214.4 -59900)
(3388.01 19091.1 -59899.9)
(21.3139 19390.6 -59900.7)
(-3345.53 19099.1 -59898.4)
(-6611.77 18228 -59899.7)
(-9676.31 16803.1 -59899.9)
(-12447.4 14867.4 -59899)
(-14840.3 12480.7 -59901.5)
(-16781.1 9712.93 -59899.7)
(-18214.5 6652.77 -59900)
(-19091.1 3388.01 -59899.9)
(-19390.7 21.3104 -59900.7)
(-19099.1 -3345.53 -59898.4)
(-18228 -6611.78 -59899.7)
(-16803.1 -9676.32 -59899.9)
(-14867.4 -12447.4 -59899)
(-12480.7 -14840.3 -59901.5)
(-9712.92 -16781.2 -59899.7)
(-6652.76 -18214.5 -59900)
(-3388 -19091.1 -59899.9)
(-21.3022 -19390.7 -59900.7)
(3345.54 -19099.1 -59898.4)
(6611.78 -18228 -59899.7)
(9676.32 -16803.1 -59899.9)
(12447.4 -14867.4 -59899)
(14840.3 -12480.7 -59901.5)
(16781.1 -9712.92 -59899.7)
(18214.5 -6652.76 -59900)
(19091.1 -3388 -59899.9)
(19390.7 -21.3029 -59900.7)
(19099.1 3345.54 -59898.4)
(18228 6611.78 -59899.7)
)
;
    }
    outside
    {
        type            calculated;
        value           nonuniform List<vector> 
540
(
(-5917.35 -917.496 7508.08)
(-5668.07 -1931.09 7508.18)
(-5246.63 -2885.99 7508.06)
(-4665.92 -3753.31 7508.16)
(-3943.3 -4506.56 7508.27)
(-3100.78 -5122.76 7508.22)
(-2164.12 -5583.37 7508.04)
(-1161.71 -5874.33 7508.1)
(-123.98 -5986.79 7508.08)
(917.496 -5917.35 7508.08)
(1931.09 -5668.07 7508.18)
(2885.98 -5246.63 7508.06)
(3753.31 -4665.92 7508.16)
(4506.56 -3943.29 7508.27)
(5122.76 -3100.78 7508.22)
(5583.37 -2164.12 7508.04)
(5874.33 -1161.71 7508.1)
(5986.79 -123.98 7508.08)
(5917.35 917.496 7508.08)
(5668.07 1931.09 7508.18)
(5246.63 2885.98 7508.06)
(4665.92 3753.31 7508.16)
(3943.3 4506.56 7508.27)
(3100.78 5122.77 7508.22)
(2164.12 5583.37 7508.04)
(1161.71 5874.33 7508.1)
(123.98 5986.79 7508.08)
(-917.496 5917.35 7508.08)
(-1931.1 5668.07 7508.18)
(-2885.99 5246.63 7508.06)
(-3753.31 4665.92 7508.16)
(-4506.56 3943.3 7508.27)
(-5122.77 3100.78 7508.22)
(-5583.37 2164.12 7508.04)
(-5874.33 1161.71 7508.1)
(-5986.79 123.98 7508.08)
(8399.46 850.133 7462.09)
(8124.12 2295.77 7462.35)
(7602.15 3671.68 7462.37)
(6849.11 4935.99 7462.21)
(5887.94 6050.39 7462.04)
(4747.83 6980.89 7462.3)
(3463.43 7699.07 7462.32)
(2073.92 8183.64 7462.3)
(621.286 8419.49 7462.18)
(-850.133 8399.46 7462.08)
(-2295.77 8124.12 7462.35)
(-3671.68 7602.15 7462.37)
(-4935.99 6849.11 7462.21)
(-6050.39 5887.94 7462.04)
(-6980.89 4747.83 7462.3)
(-7699.07 3463.43 7462.32)
(-8183.64 2073.92 7462.3)
(-8419.49 621.286 7462.18)
(-8399.46 -850.133 7462.08)
(-8124.12 -2295.77 7462.35)
(-7602.15 -3671.68 7462.37)
(-6849.11 -4935.99 7462.21)
(-5887.94 -6050.39 7462.04)
(-4747.83 -6980.89 7462.3)
(-3463.43 -7699.07 7462.32)
(-2073.92 -8183.64 7462.3)
(-621.286 -8419.49 7462.18)
(850.133 -8399.46 7462.08)
(2295.77 -8124.12 7462.35)
(3671.68 -7602.15 7462.37)
(4935.99 -6849.11 7462.21)
(6050.39 -5887.94 7462.04)
(6980.89 -4747.83 7462.3)
(7699.07 -3463.43 7462.32)
(8183.64 -2073.92 7462.3)
(8419.49 -621.286 7462.19)
(5521.4 -132.292 3973.78)
(5460.36 828.464 3973.54)
(5233.62 1764.13 3973.61)
(4847.76 2646.11 3973.48)
(4314.7 3447.82 3973.39)
(3650.44 4144.66 3973.47)
(2875.23 4715.39 3973.51)
(2012.73 5143.14 3973.55)
(1089.06 5414.37 3973.83)
(132.292 5521.4 3973.78)
(-828.464 5460.36 3973.54)
(-1764.13 5233.62 3973.61)
(-2646.11 4847.76 3973.48)
(-3447.82 4314.7 3973.39)
(-4144.66 3650.44 3973.47)
(-4715.39 2875.23 3973.51)
(-5143.14 2012.72 3973.55)
(-5414.37 1089.06 3973.83)
(-5521.4 132.292 3973.78)
(-5460.36 -828.464 3973.54)
(-5233.62 -1764.13 3973.61)
(-4847.76 -2646.11 3973.48)
(-4314.7 -3447.82 3973.39)
(-3650.44 -4144.66 3973.47)
(-2875.23 -4715.39 3973.51)
(-2012.72 -5143.14 3973.55)
(-1089.06 -5414.37 3973.83)
(-132.292 -5521.4 3973.78)
(828.464 -5460.36 3973.54)
(1764.13 -5233.62 3973.61)
(2646.11 -4847.76 3973.48)
(3447.82 -4314.7 3973.39)
(4144.66 -3650.44 3973.47)
(4715.39 -2875.23 3973.51)
(5143.14 -2012.73 3973.55)
(5414.37 -1089.06 3973.83)
(5110.37 -715.261 1743.46)
(5156.93 183.044 1743.48)
(5046.75 1075.71 1743.53)
(4783.38 1935.82 1743.58)
(4374.59 2737.06 1743.82)
(3832.83 3455.09 1743.57)
(3174.65 4068.24 1743.48)
(2419.97 4557.51 1743.41)
(1591.78 4908.57 1743.53)
(715.261 5110.37 1743.46)
(-183.044 5156.93 1743.48)
(-1075.71 5046.74 1743.53)
(-1935.82 4783.38 1743.58)
(-2737.06 4374.59 1743.82)
(-3455.09 3832.83 1743.57)
(-4068.24 3174.65 1743.48)
(-4557.51 2419.97 1743.41)
(-4908.57 1591.78 1743.53)
(-5110.37 715.261 1743.46)
(-5156.93 -183.044 1743.48)
(-5046.74 -1075.71 1743.53)
(-4783.38 -1935.82 1743.58)
(-4374.59 -2737.06 1743.82)
(-3832.83 -3455.09 1743.57)
(-3174.65 -4068.24 1743.48)
(-2419.97 -4557.51 1743.41)
(-1591.78 -4908.57 1743.53)
(-715.261 -5110.37 1743.46)
(183.044 -5156.93 1743.48)
(1075.71 -5046.74 1743.53)
(1935.82 -4783.38 1743.58)
(2737.06 -4374.59 1743.82)
(3455.09 -3832.83 1743.57)
(4068.24 -3174.65 1743.48)
(4557.51 -2419.97 1743.41)
(4908.57 -1591.78 1743.53)
(4186.33 -1273.22 53.3748)
(4343.9 -526.85 53.4675)
(4369.26 235.329 53.5287)
(4262.09 990.563 53.3903)
(4025.29 1715.54 53.498)
(3666.24 2388.49 53.4332)
(3195.83 2989.04 53.5292)
(2628.24 3498.31 53.399)
(1980.8 3901.66 53.4457)
(1273.22 4186.33 53.3739)
(526.85 4343.9 53.4665)
(-235.328 4369.26 53.5275)
(-990.563 4262.09 53.389)
(-1715.54 4025.29 53.4966)
(-2388.49 3666.24 53.4319)
(-2989.04 3195.83 53.5279)
(-3498.31 2628.24 53.3978)
(-3901.66 1980.8 53.4446)
(-4186.33 1273.22 53.373)
(-4343.9 526.85 53.4658)
(-4369.26 -235.329 53.527)
(-4262.09 -990.563 53.3887)
(-4025.29 -1715.54 53.4965)
(-3666.24 -2388.49 53.432)
(-3195.83 -2989.04 53.5282)
(-2628.24 -3498.31 53.3984)
(-1980.8 -3901.66 53.4454)
(-1273.22 -4186.33 53.3739)
(-526.85 -4343.9 53.4668)
(235.329 -4369.26 53.5281)
(990.563 -4262.09 53.3899)
(1715.54 -4025.29 53.4978)
(2388.49 -3666.24 53.4333)
(2989.04 -3195.83 53.5295)
(3498.31 -2628.24 53.3996)
(3901.66 -1980.8 53.4464)
(2932.91 -1834.79 -1112.83)
(3207.07 -1297.56 -1112.66)
(3383.56 -721.028 -1112.67)
(3457.41 -122.443 -1112.86)
(3426.1 479.708 -1112.92)
(3290.76 1067.37 -1112.8)
(3055.45 1622.65 -1112.69)
(2727.27 2128.46 -1112.64)
(2316.19 2569.81 -1112.8)
(1834.79 2932.91 -1112.83)
(1297.56 3207.07 -1112.66)
(721.029 3383.56 -1112.67)
(122.443 3457.41 -1112.86)
(-479.708 3426.1 -1112.92)
(-1067.37 3290.76 -1112.8)
(-1622.65 3055.45 -1112.69)
(-2128.46 2727.27 -1112.64)
(-2569.81 2316.19 -1112.8)
(-2932.91 1834.79 -1112.84)
(-3207.07 1297.56 -1112.66)
(-3383.56 721.028 -1112.67)
(-3457.41 122.442 -1112.86)
(-3426.1 -479.709 -1112.92)
(-3290.76 -1067.37 -1112.8)
(-3055.45 -1622.65 -1112.69)
(-2727.27 -2128.46 -1112.64)
(-2316.19 -2569.81 -1112.8)
(-1834.79 -2932.91 -1112.83)
(-1297.56 -3207.07 -1112.66)
(-721.028 -3383.56 -1112.67)
(-122.442 -3457.41 -1112.86)
(479.709 -3426.1 -1112.92)
(1067.37 -3290.76 -1112.8)
(1622.65 -3055.45 -1112.69)
(2128.46 -2727.27 -1112.64)
(2569.81 -2316.19 -1112.8)
(1182.64 -2652.64 -1759.55)
(1625.34 -2406.93 -1759.63)
(2018.44 -2088.3 -1759.54)
(2350.58 -1705.79 -1759.65)
(2610.99 -1271.88 -1759.73)
(2792.18 -799.286 -1759.58)
(2888.57 -302.062 -1759.61)
(2897.16 203.9 -1759.56)
(2817.71 704.025 -1759.53)
(2652.64 1182.64 -1759.55)
(2406.93 1625.34 -1759.63)
(2088.3 2018.44 -1759.55)
(1705.79 2350.58 -1759.65)
(1271.88 2610.99 -1759.73)
(799.286 2792.18 -1759.58)
(302.062 2888.57 -1759.62)
(-203.9 2897.16 -1759.56)
(-704.025 2817.71 -1759.53)
(-1182.64 2652.64 -1759.55)
(-1625.34 2406.93 -1759.63)
(-2018.44 2088.3 -1759.55)
(-2350.58 1705.79 -1759.65)
(-2610.99 1271.88 -1759.73)
(-2792.18 799.285 -1759.58)
(-2888.57 302.061 -1759.62)
(-2897.16 -203.901 -1759.56)
(-2817.71 -704.026 -1759.53)
(-2652.64 -1182.64 -1759.55)
(-2406.93 -1625.34 -1759.63)
(-2088.3 -2018.44 -1759.54)
(-1705.79 -2350.58 -1759.65)
(-1271.88 -2610.99 -1759.73)
(-799.285 -2792.18 -1759.58)
(-302.062 -2888.57 -1759.61)
(203.9 -2897.16 -1759.56)
(704.026 -2817.71 -1759.53)
(-1044.48 -3865.21 -1897.26)
(-357.44 -3987.91 -1897.03)
(340.429 -3989.44 -1897.1)
(1028.13 -3869.56 -1896.99)
(1684.41 -3632.39 -1896.91)
(2289.57 -3284.71 -1896.94)
(2825.15 -2837.23 -1897.11)
(3274.93 -2303.57 -1896.99)
(3625.17 -1699.96 -1897.2)
(3865.21 -1044.48 -1897.26)
(3987.91 -357.44 -1897.03)
(3989.44 340.429 -1897.11)
(3869.56 1028.13 -1896.99)
(3632.39 1684.41 -1896.92)
(3284.71 2289.57 -1896.95)
(2837.23 2825.15 -1897.11)
(2303.57 3274.93 -1896.99)
(1699.96 3625.17 -1897.21)
(1044.48 3865.2 -1897.26)
(357.44 3987.91 -1897.03)
(-340.429 3989.44 -1897.11)
(-1028.13 3869.56 -1896.99)
(-1684.41 3632.39 -1896.92)
(-2289.57 3284.71 -1896.95)
(-2825.15 2837.23 -1897.11)
(-3274.93 2303.57 -1896.99)
(-3625.17 1699.96 -1897.2)
(-3865.2 1044.48 -1897.26)
(-3987.91 357.439 -1897.03)
(-3989.44 -340.43 -1897.11)
(-3869.56 -1028.13 -1896.99)
(-3632.39 -1684.41 -1896.91)
(-3284.71 -2289.57 -1896.94)
(-2837.23 -2825.15 -1897.11)
(-2303.57 -3274.93 -1896.99)
(-1699.96 -3625.17 -1897.2)
(-3607.01 -5407.47 -1533.52)
(-2613.19 -5951.63 -1533.54)
(-1539.98 -6314.94 -1533.68)
(-420.033 -6486.46 -1533.67)
(712.691 -6460.92 -1533.63)
(1823.79 -6239.04 -1533.62)
(2879.48 -5827.56 -1533.63)
(3847.69 -5238.9 -1533.52)
(4698.92 -4491.11 -1533.59)
(5407.47 -3607.01 -1533.52)
(5951.63 -2613.19 -1533.54)
(6314.94 -1539.98 -1533.69)
(6486.46 -420.034 -1533.67)
(6460.92 712.69 -1533.63)
(6239.04 1823.78 -1533.63)
(5827.56 2879.48 -1533.63)
(5238.9 3847.69 -1533.52)
(4491.11 4698.92 -1533.6)
(3607.01 5407.47 -1533.52)
(2613.19 5951.63 -1533.54)
(1539.98 6314.94 -1533.69)
(420.034 6486.46 -1533.67)
(-712.691 6460.92 -1533.63)
(-1823.78 6239.04 -1533.63)
(-2879.48 5827.56 -1533.63)
(-3847.69 5238.9 -1533.52)
(-4698.92 4491.11 -1533.59)
(-5407.47 3607.01 -1533.52)
(-5951.63 2613.19 -1533.54)
(-6314.94 1539.98 -1533.68)
(-6486.46 420.033 -1533.67)
(-6460.92 -712.691 -1533.63)
(-6239.04 -1823.79 -1533.62)
(-5827.56 -2879.48 -1533.63)
(-5238.9 -3847.69 -1533.52)
(-4491.11 -4698.92 -1533.59)
(-6214.71 -6870.01 -646.62)
(-4927.42 -7844.84 -646.73)
(-3490.23 -8581.22 -646.719)
(-1947.01 -9056.83 -646.715)
(-344.772 -9257.42 -646.687)
(1268 -9176.69 -646.63)
(2842.25 -8817.16 -646.665)
(4330.11 -8189.53 -646.807)
(5686.42 -7313.17 -646.664)
(6870.01 -6214.71 -646.621)
(7844.84 -4927.43 -646.732)
(8581.22 -3490.23 -646.721)
(9056.83 -1947.01 -646.717)
(9257.42 -344.773 -646.689)
(9176.69 1268 -646.632)
(8817.16 2842.25 -646.667)
(8189.53 4330.11 -646.809)
(7313.17 5686.42 -646.666)
(6214.71 6870.01 -646.623)
(4927.42 7844.84 -646.733)
(3490.23 8581.22 -646.722)
(1947.01 9056.83 -646.718)
(344.772 9257.42 -646.689)
(-1268 9176.69 -646.632)
(-2842.25 8817.16 -646.667)
(-4330.11 8189.53 -646.808)
(-5686.42 7313.17 -646.664)
(-6870.01 6214.71 -646.621)
(-7844.84 4927.42 -646.731)
(-8581.22 3490.23 -646.719)
(-9056.83 1947.01 -646.715)
(-9257.42 344.772 -646.687)
(-9176.69 -1268 -646.631)
(-8817.16 -2842.25 -646.666)
(-8189.53 -4330.11 -646.807)
(-7313.17 -5686.42 -646.663)
(-8356.06 -7399.64 846.37)
(-6944.29 -8738.27 846.19)
(-5321.29 -9811.26 846.265)
(-3536.75 -10586.3 846.284)
(-1644.74 -11039.6 846.266)
(297.251 -11157.5 846.328)
(2230.22 -10936.4 846.242)
(4095.49 -10383 846.293)
(5836.27 -9514.05 846.471)
(7399.64 -8356.06 846.371)
(8738.27 -6944.29 846.189)
(9811.26 -5321.29 846.263)
(10586.3 -3536.75 846.281)
(11039.6 -1644.74 846.263)
(11157.5 297.249 846.325)
(10936.4 2230.22 846.239)
(10383 4095.49 846.29)
(9514.05 5836.27 846.468)
(8356.06 7399.64 846.369)
(6944.29 8738.27 846.187)
(5321.29 9811.26 846.262)
(3536.75 10586.3 846.281)
(1644.74 11039.6 846.263)
(-297.25 11157.5 846.325)
(-2230.22 10936.4 846.24)
(-4095.49 10383 846.292)
(-5836.27 9514.05 846.471)
(-7399.64 8356.06 846.372)
(-8738.27 6944.29 846.191)
(-9811.26 5321.28 846.265)
(-10586.3 3536.75 846.283)
(-11039.6 1644.74 846.265)
(-11157.5 -297.251 846.326)
(-10936.4 -2230.22 846.24)
(-10383 -4095.49 846.291)
(-9514.05 -5836.27 846.47)
(-8891.3 -5934.88 2850.48)
(-7725.56 -7388.57 2850.38)
(-6325.06 -8617.77 2850.48)
(-4732.66 -9585.33 2850.44)
(-2996.26 -10261.5 2850.44)
(-1168.84 -10625.9 2850.47)
(694.101 -10667.2 2850.56)
(2535.95 -10384.9 2850.47)
(4300.86 -9786.85 2850.78)
(5934.88 -8891.3 2850.48)
(7388.57 -7725.56 2850.38)
(8617.77 -6325.06 2850.48)
(9585.33 -4732.66 2850.44)
(10261.5 -2996.27 2850.44)
(10625.9 -1168.85 2850.46)