/*--------------------------------*- C++ -*----------------------------------*\
| =========                 |                                                 |
| \\      /  F ield         | OpenFOAM: The Open Source CFD Toolbox           |
|  \\    /   O peration     | Version:  2312                                  |
|   \\  /    A nd           | Website:  www.openfoam.com                      |
|    \\/     M anipulation  |                                                 |
\*---------------------------------------------------------------------------*/
FoamFile
{
    version     2.0;
    format      ascii;
    arch        "LSB;label=32;scalar=64";
    class       volTensorField;
    location    "0.9";
    object      F;
}
// * * * * * * * * * * * * * * * * * * * * * * * * * * * * * * * * * * * * * //

dimensions      [0 0 0 0 0 0 0];

internalField   nonuniform List<tensor> 
1620
(
(1.07031 -0.0240629 -0.0546085 -0.0771478 1.00738 -0.338314 -0.0675929 -0.00591374 0.927441)
(1.08572 -0.0102495 0.00496863 -0.0633346 0.991972 -0.342657 -0.0655394 -0.0175612 0.927441)
(1.09548 0.00800167 0.064395 -0.0450837 0.982215 -0.336589 -0.0614943 -0.0286751 0.927441)
(1.0984 0.0284891 0.121865 -0.024596 0.979289 -0.320293 -0.0555805 -0.0389179 0.927441)
(1.09415 0.0487417 0.175632 -0.00434323 0.983547 -0.294266 -0.0479781 -0.0479782 0.92744)
(1.08322 0.0663165 0.224062 0.013232 0.994474 -0.259297 -0.0389182 -0.0555806 0.92744)
(1.06694 0.0790941 0.265684 0.0260096 1.01075 -0.21645 -0.0286752 -0.0614937 0.927441)
(1.04727 0.0855332 0.299234 0.0324487 1.03042 -0.167026 -0.0175609 -0.0655388 0.927441)
(1.02659 0.0848573 0.323692 0.0317726 1.05111 -0.112527 -0.00591344 -0.0675928 0.927441)
(1.00738 0.0771478 0.338314 0.0240629 1.07031 -0.0546085 0.00591374 -0.0675929 0.927441)
(0.991972 0.0633346 0.342657 0.0102495 1.08572 0.00496864 0.0175612 -0.0655394 0.927441)
(0.982215 0.0450837 0.336589 -0.00800167 1.09548 0.064395 0.0286751 -0.0614943 0.927441)
(0.979289 0.024596 0.320293 -0.0284891 1.0984 0.121865 0.0389179 -0.0555805 0.927441)
(0.983547 0.00434323 0.294266 -0.0487417 1.09415 0.175632 0.0479782 -0.0479781 0.92744)
(0.994474 -0.013232 0.259297 -0.0663165 1.08322 0.224062 0.0555806 -0.0389182 0.92744)
(1.01075 -0.0260096 0.21645 -0.0790941 1.06694 0.265684 0.0614937 -0.0286752 0.927441)
(1.03042 -0.0324487 0.167026 -0.0855332 1.04727 0.299234 0.0655388 -0.0175609 0.927441)
(1.05111 -0.0317726 0.112527 -0.0848573 1.02659 0.323692 0.0675928 -0.00591344 0.927441)
(1.07031 -0.0240629 0.0546084 -0.0771478 1.00738 0.338314 0.0675929 0.00591374 0.927441)
(1.08572 -0.0102495 -0.00496866 -0.0633346 0.991972 0.342657 0.0655394 0.0175612 0.927441)
(1.09548 0.00800167 -0.064395 -0.0450837 0.982215 0.336589 0.0614943 0.0286751 0.927441)
(1.0984 0.0284891 -0.121865 -0.024596 0.979289 0.320293 0.0555805 0.0389179 0.927441)
(1.09415 0.0487417 -0.175632 -0.00434323 0.983547 0.294266 0.0479781 0.0479782 0.92744)
(1.08322 0.0663165 -0.224062 0.013232 0.994475 0.259297 0.0389182 0.0555806 0.92744)
(1.06694 0.0790941 -0.265684 0.0260096 1.01075 0.21645 0.0286752 0.0614937 0.927441)
(1.04727 0.0855332 -0.299234 0.0324487 1.03042 0.167026 0.0175609 0.0655388 0.927441)
(1.02659 0.0848573 -0.323692 0.0317726 1.05111 0.112527 0.00591344 0.0675928 0.927441)
(1.00738 0.0771478 -0.338314 0.0240629 1.07031 0.0546085 -0.00591374 0.0675929 0.927441)
(0.991972 0.0633346 -0.342657 0.0102495 1.08572 -0.00496865 -0.0175612 0.0655394 0.927441)
(0.982215 0.0450837 -0.336589 -0.00800167 1.09548 -0.064395 -0.0286751 0.0614943 0.927441)
(0.979289 0.024596 -0.320293 -0.0284891 1.0984 -0.121865 -0.0389179 0.0555805 0.927441)
(0.983547 0.00434322 -0.294266 -0.0487417 1.09415 -0.175632 -0.0479782 0.0479781 0.92744)
(0.994475 -0.013232 -0.259297 -0.0663165 1.08322 -0.224062 -0.0555806 0.0389182 0.92744)
(1.01075 -0.0260096 -0.21645 -0.0790941 1.06694 -0.265684 -0.0614937 0.0286752 0.927441)
(1.03042 -0.0324487 -0.167026 -0.0855332 1.04727 -0.299234 -0.0655388 0.0175609 0.927441)
(1.05111 -0.0317726 -0.112527 -0.0848573 1.02659 -0.323692 -0.0675928 0.00591344 0.927441)
(1.08929 -0.0354334 -0.0272792 -0.0741364 1.00109 -0.369498 -0.0421652 -0.003689 0.902427)
(1.10536 -0.0170471 0.0372977 -0.0557505 0.985013 -0.368621 -0.0408842 -0.0109548 0.902427)
(1.11418 0.00572929 0.100742 -0.032974 0.976192 -0.356545 -0.0383607 -0.0178878 0.902427)
(1.11468 0.0301486 0.161124 -0.0085545 0.975694 -0.333634 -0.0346716 -0.0242775 0.902427)
(1.1068 0.0532658 0.216611 0.0145627 0.983578 -0.300587 -0.0299294 -0.0299294 0.902427)
(1.09148 0.0722924 0.265517 0.0335894 0.998893 -0.258406 -0.0242776 -0.0346717 0.902427)
(1.07058 0.0849335 0.306355 0.0462306 1.01979 -0.208373 -0.0178877 -0.0383604 0.902427)
(1.04662 0.0896642 0.337884 0.0509615 1.04375 -0.15201 -0.0109545 -0.0408837 0.902427)
(1.02249 0.0859145 0.359147 0.0472117 1.06789 -0.0910274 -0.00368893 -0.0421651 0.902427)
(1.00109 0.0741364 0.369498 0.0354334 1.08929 -0.0272792 0.003689 -0.0421652 0.902427)
(0.985013 0.0557505 0.368621 0.0170471 1.10536 0.0372978 0.0109548 -0.0408842 0.902427)
(0.976192 0.032974 0.356545 -0.00572929 1.11418 0.100742 0.0178878 -0.0383607 0.902427)
(0.975694 0.0085545 0.333634 -0.0301486 1.11468 0.161124 0.0242775 -0.0346716 0.902427)
(0.983578 -0.0145626 0.300587 -0.0532658 1.1068 0.216611 0.0299294 -0.0299294 0.902427)
(0.998893 -0.0335894 0.258406 -0.0722924 1.09148 0.265517 0.0346717 -0.0242776 0.902427)
(1.01979 -0.0462306 0.208373 -0.0849335 1.07058 0.306355 0.0383604 -0.0178877 0.902427)
(1.04375 -0.0509615 0.15201 -0.0896642 1.04662 0.337884 0.0408837 -0.0109545 0.902427)
(1.06789 -0.0472117 0.0910273 -0.0859145 1.02249 0.359147 0.0421651 -0.00368893 0.902427)
(1.08929 -0.0354334 0.0272792 -0.0741364 1.00109 0.369498 0.0421652 0.003689 0.902427)
(1.10536 -0.0170471 -0.0372978 -0.0557505 0.985013 0.368621 0.0408842 0.0109548 0.902427)
(1.11418 0.00572929 -0.100742 -0.032974 0.976192 0.356545 0.0383607 0.0178878 0.902427)
(1.11468 0.0301486 -0.161124 -0.0085545 0.975694 0.333634 0.0346716 0.0242775 0.902427)
(1.1068 0.0532658 -0.216611 0.0145627 0.983578 0.300587 0.0299294 0.0299294 0.902427)
(1.09148 0.0722924 -0.265517 0.0335894 0.998893 0.258406 0.0242776 0.0346717 0.902427)
(1.07058 0.0849335 -0.306355 0.0462306 1.01979 0.208373 0.0178877 0.0383604 0.902427)
(1.04662 0.0896642 -0.337884 0.0509615 1.04375 0.15201 0.0109545 0.0408837 0.902427)
(1.02249 0.0859145 -0.359147 0.0472117 1.06789 0.0910274 0.00368893 0.0421651 0.902427)
(1.00109 0.0741364 -0.369498 0.0354334 1.08929 0.0272792 -0.003689 0.0421652 0.902427)
(0.985013 0.0557505 -0.368621 0.0170471 1.10536 -0.0372978 -0.0109548 0.0408842 0.902427)
(0.976192 0.032974 -0.356545 -0.00572929 1.11418 -0.100742 -0.0178878 0.0383607 0.902427)
(0.975694 0.00855449 -0.333634 -0.0301486 1.11468 -0.161124 -0.0242775 0.0346716 0.902427)
(0.983578 -0.0145627 -0.300587 -0.0532658 1.1068 -0.216611 -0.0299294 0.0299294 0.902427)
(0.998893 -0.0335894 -0.258406 -0.0722924 1.09148 -0.265517 -0.0346717 0.0242776 0.902427)
(1.01979 -0.0462306 -0.208373 -0.0849335 1.07058 -0.306355 -0.0383604 0.0178877 0.902427)
(1.04375 -0.0509615 -0.15201 -0.0896642 1.04662 -0.337884 -0.0408837 0.0109545 0.902427)
(1.06789 -0.0472117 -0.0910274 -0.0859145 1.02249 -0.359147 -0.0421651 0.00368893 0.902427)
(1.10902 -0.0494033 0.00434417 -0.0690804 0.98811 -0.395679 -0.0142931 -0.0012504 0.866409)
(1.12563 -0.0251544 0.072987 -0.0448317 0.971494 -0.388914 -0.0138589 -0.00371351 0.866409)
(1.13295 0.00331533 0.139412 -0.0163619 0.964173 -0.370331 -0.0130032 -0.00606352 0.866409)
(1.13009 0.0325717 0.201601 0.0128942 0.967031 -0.340496 -0.0117528 -0.00822931 0.866409)
(1.1174 0.0590862 0.257665 0.0394089 0.979724 -0.300316 -0.0101455 -0.0101454 0.866409)
(1.09641 0.0796606 0.3059 0.0599838 1.00072 -0.25101 -0.00822945 -0.0117529 0.866409)
(1.06964 0.0918136 0.34484 0.0721365 1.02748 -0.194077 -0.00606329 -0.0130032 0.866409)
(1.04033 0.0940789 0.373302 0.0744018 1.05679 -0.131248 -0.0037133 -0.0138585 0.866409)
(1.01202 0.0861838 0.390422 0.0665066 1.08511 -0.0644308 -0.00125056 -0.0142931 0.866409)
(0.98811 0.0690804 0.395679 0.0494033 1.10902 0.00434418 0.0012504 -0.0142931 0.866409)
(0.971494 0.0448317 0.388914 0.0251544 1.12563 0.072987 0.00371351 -0.013859 0.866409)
(0.964173 0.0163619 0.370331 -0.00331533 1.13295 0.139412 0.00606352 -0.0130032 0.866409)
(0.967031 -0.0128942 0.340496 -0.0325717 1.13009 0.201601 0.00822931 -0.0117528 0.866409)
(0.979724 -0.0394089 0.300316 -0.0590862 1.1174 0.257665 0.0101454 -0.0101455 0.866409)
(1.00072 -0.0599837 0.25101 -0.0796605 1.09641 0.3059 0.0117529 -0.00822945 0.866409)
(1.02748 -0.0721365 0.194077 -0.0918136 1.06964 0.34484 0.0130032 -0.00606329 0.866409)
(1.05679 -0.0744018 0.131248 -0.0940789 1.04033 0.373302 0.0138585 -0.0037133 0.866409)
(1.08511 -0.0665066 0.0644308 -0.0861838 1.01202 0.390422 0.0142931 -0.00125056 0.866409)
(1.10902 -0.0494033 -0.00434419 -0.0690804 0.98811 0.395679 0.0142931 0.0012504 0.866409)
(1.12563 -0.0251544 -0.072987 -0.0448317 0.971494 0.388914 0.013859 0.00371351 0.866409)
(1.13295 0.00331533 -0.139412 -0.0163619 0.964173 0.370331 0.0130032 0.00606352 0.866409)
(1.13009 0.0325717 -0.201601 0.0128942 0.967031 0.340496 0.0117528 0.0082293 0.866409)
(1.1174 0.0590862 -0.257665 0.0394089 0.979724 0.300316 0.0101455 0.0101454 0.866409)
(1.09641 0.0796605 -0.3059 0.0599838 1.00072 0.25101 0.00822945 0.0117529 0.866409)
(1.06964 0.0918136 -0.34484 0.0721365 1.02748 0.194077 0.00606329 0.0130032 0.866409)
(1.04033 0.0940789 -0.373302 0.0744018 1.05679 0.131248 0.0037133 0.0138585 0.866409)
(1.01202 0.0861838 -0.390422 0.0665066 1.08511 0.0644308 0.00125056 0.0142931 0.866409)
(0.98811 0.0690804 -0.395679 0.0494033 1.10902 -0.00434419 -0.0012504 0.0142931 0.866409)
(0.971494 0.0448317 -0.388914 0.0251544 1.12563 -0.072987 -0.00371351 0.0138589 0.866409)
(0.964173 0.0163619 -0.370331 -0.00331533 1.13295 -0.139412 -0.00606352 0.0130032 0.866409)
(0.967031 -0.0128942 -0.340496 -0.0325717 1.13009 -0.201601 -0.0082293 0.0117528 0.866409)
(0.979724 -0.0394089 -0.300316 -0.0590862 1.1174 -0.257665 -0.0101454 0.0101455 0.866409)
(1.00072 -0.0599838 -0.25101 -0.0796606 1.09641 -0.3059 -0.0117529 0.00822945 0.866409)
(1.02748 -0.0721365 -0.194077 -0.0918136 1.06964 -0.34484 -0.0130032 0.00606329 0.866409)
(1.05679 -0.0744018 -0.131248 -0.0940789 1.04033 -0.373302 -0.0138585 0.0037133 0.866409)
(1.08511 -0.0665066 -0.0644308 -0.0861838 1.01202 -0.390422 -0.0142931 0.00125056 0.866409)
(1.12668 -0.0874445 -0.0339706 -0.137629 1.01425 -0.342816 -0.119713 -0.0104738 0.901011)
(1.16178 -0.0614308 0.0260749 -0.111616 0.979146 -0.343507 -0.116076 -0.0311025 0.901011)
(1.18586 -0.0249813 0.0853282 -0.0751666 0.955061 -0.33376 -0.108912 -0.0507857 0.901011)
(1.19603 0.0175079 0.141989 -0.0326771 0.944894 -0.313873 -0.0984377 -0.0689258 0.901011)
(1.19105 0.060912 0.194335 0.0107272 0.949873 -0.284448 -0.0849725 -0.0849724 0.901011)
(1.17153 0.0999957 0.240776 0.0498113 0.969396 -0.246381 -0.0689264 -0.0984375 0.901011)
(1.13981 0.130045 0.279902 0.0798606 1.00111 -0.200827 -0.0507857 -0.108911 0.901011)
(1.09974 0.147435 0.310523 0.097251 1.04119 -0.149172 -0.0311018 -0.116075 0.901011)
(1.05613 0.150069 0.331709 0.0998849 1.0848 -0.0929839 -0.0104732 -0.119713 0.901011)
(1.01425 0.137629 0.342816 0.0874445 1.12668 -0.0339706 0.0104738 -0.119713 0.901011)
(0.979146 0.111616 0.343507 0.0614308 1.16178 0.026075 0.0311025 -0.116076 0.901011)
(0.955061 0.0751666 0.33376 0.0249813 1.18586 0.0853282 0.0507857 -0.108912 0.901011)
(0.944894 0.0326772 0.313873 -0.0175079 1.19603 0.141989 0.0689258 -0.0984377 0.901011)
(0.949873 -0.0107272 0.284448 -0.060912 1.19105 0.194335 0.0849724 -0.0849725 0.901011)
(0.969396 -0.0498113 0.246381 -0.0999957 1.17153 0.240776 0.0984375 -0.0689264 0.901011)
(1.00111 -0.0798606 0.200827 -0.130045 1.13981 0.279902 0.108911 -0.0507857 0.901011)
(1.04119 -0.097251 0.149172 -0.147435 1.09974 0.310523 0.116075 -0.0311018 0.901011)
(1.0848 -0.0998849 0.0929839 -0.150069 1.05613 0.331709 0.119713 -0.0104732 0.901011)
(1.12668 -0.0874445 0.0339706 -0.137629 1.01425 0.342816 0.119713 0.0104738 0.901011)
(1.16178 -0.0614308 -0.026075 -0.111616 0.979146 0.343507 0.116076 0.0311025 0.901011)
(1.18586 -0.0249813 -0.0853282 -0.0751666 0.955061 0.33376 0.108912 0.0507857 0.901011)
(1.19603 0.0175079 -0.141989 -0.0326771 0.944894 0.313873 0.0984377 0.0689258 0.901011)
(1.19105 0.060912 -0.194335 0.0107272 0.949873 0.284448 0.0849725 0.0849724 0.901011)
(1.17153 0.0999957 -0.240776 0.0498113 0.969396 0.246381 0.0689264 0.0984375 0.901011)
(1.13981 0.130045 -0.279902 0.0798606 1.00111 0.200827 0.0507857 0.108911 0.901011)
(1.09974 0.147435 -0.310523 0.097251 1.04119 0.149172 0.0311018 0.116075 0.901011)
(1.05613 0.150069 -0.331709 0.0998849 1.0848 0.0929839 0.0104732 0.119713 0.901011)
(1.01425 0.137629 -0.342816 0.0874445 1.12668 0.0339706 -0.0104738 0.119713 0.901011)
(0.979146 0.111616 -0.343507 0.0614308 1.16178 -0.026075 -0.0311025 0.116076 0.901011)
(0.955061 0.0751666 -0.33376 0.0249813 1.18586 -0.0853282 -0.0507857 0.108912 0.901011)
(0.944894 0.0326771 -0.313873 -0.0175079 1.19603 -0.141989 -0.0689258 0.0984377 0.901011)
(0.949873 -0.0107273 -0.284448 -0.060912 1.19105 -0.194335 -0.0849724 0.0849725 0.901011)
(0.969396 -0.0498113 -0.246381 -0.0999957 1.17153 -0.240776 -0.0984375 0.0689264 0.901011)
(1.00111 -0.0798606 -0.200827 -0.130045 1.13981 -0.279902 -0.108911 0.0507857 0.901011)
(1.04119 -0.097251 -0.149172 -0.147435 1.09974 -0.310523 -0.116075 0.0311018 0.901011)
(1.0848 -0.0998849 -0.0929839 -0.150069 1.05613 -0.331709 -0.119713 0.0104732 0.901011)
(1.15077 -0.113321 -0.00913279 -0.130174 1.00384 -0.365721 -0.104743 -0.00916396 0.880051)
(1.18798 -0.0808528 0.0545127 -0.0977067 0.966631 -0.361751 -0.101561 -0.0272132 0.880051)
(1.21184 -0.0376162 0.116502 -0.0544703 0.94277 -0.346789 -0.0952928 -0.0444353 0.880051)
(1.21947 0.0111733 0.174951 -0.00568003 0.935136 -0.32129 -0.0861282 -0.0603072 0.880051)
(1.20996 0.0596321 0.228085 0.042779 0.944649 -0.286029 -0.0743471 -0.0743469 0.880051)
(1.18445 0.101915 0.274288 0.0850618 0.970163 -0.242077 -0.0603074 -0.0861281 0.880051)
(1.14601 0.132921 0.312157 0.116068 1.0086 -0.19077 -0.044435 -0.0952919 0.880051)
(1.09929 0.148912 0.340542 0.132059 1.05532 -0.133666 -0.0272127 -0.10156 0.880051)
(1.04991 0.147958 0.358579 0.131105 1.1047 -0.0725008 -0.00916368 -0.104743 0.880051)
(1.00384 0.130174 0.365721 0.113321 1.15077 -0.00913278 0.00916396 -0.104743 0.880051)
(0.966631 0.0977067 0.361751 0.0808528 1.18798 0.0545127 0.0272132 -0.101561 0.880051)
(0.94277 0.0544703 0.346789 0.0376162 1.21184 0.116502 0.0444353 -0.0952928 0.880051)
(0.935136 0.00568005 0.32129 -0.0111733 1.21947 0.174951 0.0603072 -0.0861282 0.880051)
(0.944649 -0.042779 0.286029 -0.0596321 1.20996 0.228085 0.0743469 -0.0743471 0.880051)
(0.970163 -0.0850618 0.242077 -0.101915 1.18445 0.274288 0.0861281 -0.0603074 0.880051)
(1.0086 -0.116068 0.19077 -0.132921 1.14601 0.312157 0.0952919 -0.044435 0.880051)
(1.05532 -0.132059 0.133666 -0.148912 1.09929 0.340542 0.10156 -0.0272127 0.880051)
(1.1047 -0.131105 0.0725008 -0.147958 1.04991 0.358579 0.104743 -0.00916368 0.880051)
(1.15077 -0.113321 0.00913276 -0.130174 1.00384 0.365721 0.104743 0.00916396 0.880051)
(1.18798 -0.0808528 -0.0545127 -0.0977067 0.966631 0.361751 0.101561 0.0272132 0.880051)
(1.21184 -0.0376162 -0.116502 -0.0544703 0.94277 0.346789 0.0952928 0.0444353 0.880051)
(1.21947 0.0111733 -0.174951 -0.00568004 0.935136 0.32129 0.0861282 0.0603071 0.880051)
(1.20996 0.0596321 -0.228085 0.042779 0.944649 0.286029 0.0743471 0.0743469 0.880051)
(1.18445 0.101915 -0.274288 0.0850618 0.970163 0.242077 0.0603074 0.0861281 0.880051)
(1.14601 0.132921 -0.312157 0.116068 1.0086 0.19077 0.044435 0.0952919 0.880051)
(1.09929 0.148912 -0.340542 0.132059 1.05532 0.133666 0.0272127 0.10156 0.880051)
(1.04991 0.147958 -0.358579 0.131105 1.1047 0.0725008 0.00916368 0.104743 0.880051)
(1.00384 0.130174 -0.365721 0.113321 1.15077 0.00913277 -0.00916396 0.104743 0.880051)
(0.966631 0.0977067 -0.361751 0.0808528 1.18798 -0.0545127 -0.0272132 0.101561 0.880051)
(0.94277 0.0544703 -0.346789 0.0376162 1.21184 -0.116502 -0.0444353 0.0952928 0.880051)
(0.935136 0.00568003 -0.32129 -0.0111733 1.21947 -0.174951 -0.0603072 0.0861282 0.880051)
(0.944649 -0.042779 -0.286029 -0.0596321 1.20996 -0.228085 -0.0743469 0.0743471 0.880051)
(0.970163 -0.0850618 -0.242077 -0.101915 1.18445 -0.274288 -0.0861281 0.0603074 0.880051)
(1.0086 -0.116068 -0.19077 -0.132921 1.14601 -0.312157 -0.0952919 0.044435 0.880051)
(1.05532 -0.132059 -0.133666 -0.148912 1.09929 -0.340542 -0.10156 0.0272127 0.880051)
(1.1047 -0.131105 -0.0725008 -0.147958 1.04991 -0.358579 -0.104743 0.00916368 0.880051)
(1.17602 -0.144182 0.0169535 -0.118555 0.984822 -0.385388 -0.0879416 -0.00769385 0.851756)
(1.21518 -0.103563 0.0836177 -0.0779368 0.945656 -0.376589 -0.0852699 -0.0228479 0.851756)
(1.2381 -0.0519982 0.147741 -0.0263716 0.922745 -0.356348 -0.0800068 -0.0373077 0.851756)
(1.24199 0.00429322 0.207376 0.0299199 0.918852 -0.325279 -0.0723123 -0.0506335 0.851756)
(1.22639 0.058521 0.260709 0.0841483 0.934447 -0.284327 -0.0624211 -0.062421 0.851756)
(1.19319 0.104145 0.306122 0.129773 0.967648 -0.234736 -0.0506334 -0.0723122 0.851756)
(1.14639 0.135662 0.342232 0.161289 1.01445 -0.178012 -0.0373072 -0.0800061 0.851756)
(1.09163 0.149271 0.367945 0.174898 1.06921 -0.115879 -0.0228477 -0.0852691 0.851756)
(1.03552 0.14333 0.382477 0.168957 1.12532 -0.0502259 -0.00769387 -0.0879416 0.851756)
(0.984822 0.118555 0.385388 0.144182 1.17602 0.0169535 0.00769385 -0.0879416 0.851756)
(0.945656 0.0779368 0.376589 0.103563 1.21518 0.0836177 0.0228479 -0.0852699 0.851756)
(0.922745 0.0263716 0.356348 0.0519982 1.2381 0.147741 0.0373077 -0.0800068 0.851756)
(0.918852 -0.0299199 0.325279 -0.00429322 1.24199 0.207376 0.0506335 -0.0723123 0.851756)
(0.934447 -0.0841483 0.284327 -0.058521 1.22639 0.260709 0.062421 -0.0624211 0.851756)
(0.967648 -0.129773 0.234736 -0.104145 1.19319 0.306122 0.0723122 -0.0506334 0.851756)
(1.01445 -0.161289 0.178012 -0.135662 1.14639 0.342232 0.0800061 -0.0373072 0.851756)
(1.06921 -0.174898 0.115879 -0.14927 1.09163 0.367945 0.0852691 -0.0228477 0.851756)
(1.12532 -0.168957 0.0502259 -0.14333 1.03552 0.382477 0.0879416 -0.00769388 0.851756)
(1.17602 -0.144182 -0.0169535 -0.118555 0.984822 0.385388 0.0879416 0.00769385 0.851756)
(1.21518 -0.103563 -0.0836177 -0.0779368 0.945656 0.376589 0.0852699 0.0228479 0.851756)
(1.2381 -0.0519982 -0.147741 -0.0263716 0.922745 0.356348 0.0800068 0.0373077 0.851756)
(1.24199 0.00429322 -0.207376 0.0299199 0.918852 0.325279 0.0723123 0.0506335 0.851756)
(1.22639 0.058521 -0.260709 0.0841483 0.934447 0.284327 0.0624211 0.062421 0.851756)
(1.19319 0.104145 -0.306122 0.129773 0.967648 0.234736 0.0506334 0.0723122 0.851756)
(1.14639 0.135662 -0.342232 0.161289 1.01445 0.178012 0.0373072 0.0800061 0.851756)
(1.09163 0.14927 -0.367945 0.174898 1.06921 0.115879 0.0228477 0.0852691 0.851756)
(1.03552 0.14333 -0.382477 0.168957 1.12532 0.0502259 0.00769388 0.0879416 0.851756)
(0.984822 0.118555 -0.385388 0.144182 1.17602 -0.0169535 -0.00769385 0.0879416 0.851756)
(0.945656 0.0779368 -0.376589 0.103563 1.21518 -0.0836177 -0.0228479 0.0852699 0.851756)
(0.922745 0.0263715 -0.356348 0.0519982 1.2381 -0.147741 -0.0373077 0.0800068 0.851756)
(0.918852 -0.0299199 -0.325279 -0.00429322 1.24199 -0.207376 -0.0506335 0.0723123 0.851756)
(0.934447 -0.0841483 -0.284327 -0.058521 1.22639 -0.260709 -0.062421 0.0624211 0.851756)
(0.967648 -0.129773 -0.234736 -0.104145 1.19319 -0.306122 -0.0723122 0.0506334 0.851756)
(1.01445 -0.161289 -0.178012 -0.135662 1.14639 -0.342232 -0.0800061 0.0373072 0.851756)
(1.06921 -0.174898 -0.115879 -0.14927 1.09163 -0.367945 -0.0852691 0.0228477 0.851756)
(1.12532 -0.168957 -0.0502259 -0.14333 1.03552 -0.382477 -0.0879416 0.00769388 0.851756)
(1.17441 -0.15234 0.00726348 -0.166073 1.01588 -0.3372 -0.150813 -0.0131946 0.870541)
(1.22409 -0.115627 0.0657073 -0.12936 0.966206 -0.330816 -0.14623 -0.0391822 0.870541)
(1.2582 -0.0641395 0.122155 -0.0778736 0.932087 -0.31438 -0.137205 -0.063979 0.870541)
(1.27266 -0.00408781 0.17489 -0.017822 0.917634 -0.288392 -0.12401 -0.0868318 0.870541)
(1.2657 0.057285 0.222312 0.043551 0.924593 -0.253641 -0.107047 -0.107047 0.870541)
(1.23817 0.112577 0.262979 0.0988431 0.952123 -0.211183 -0.0868322 -0.124009 0.870541)
(1.19339 0.155118 0.295655 0.141385 0.996903 -0.162309 -0.0639787 -0.137204 0.870541)
(1.13676 0.179778 0.319348 0.166045 1.05353 -0.108504 -0.0391813 -0.146229 0.870541)
(1.07511 0.183583 0.333338 0.16985 1.11518 -0.051401 -0.0131936 -0.150813 0.870541)
(1.01588 0.166073 0.3372 0.15234 1.17441 0.00726349 0.0131946 -0.150813 0.870541)
(0.966206 0.12936 0.330816 0.115627 1.22409 0.0657073 0.0391822 -0.14623 0.870541)
(0.932087 0.0778736 0.31438 0.0641395 1.2582 0.122155 0.063979 -0.137205 0.870541)
(0.917634 0.017822 0.288392 0.00408781 1.27266 0.17489 0.0868318 -0.12401 0.870541)
(0.924593 -0.043551 0.253641 -0.0572849 1.2657 0.222312 0.107047 -0.107047 0.870541)
(0.952123 -0.0988431 0.211183 -0.112577 1.23817 0.262979 0.124009 -0.0868322 0.870541)
(0.996903 -0.141385 0.162309 -0.155118 1.19339 0.295655 0.137204 -0.0639787 0.870541)
(1.05353 -0.166045 0.108504 -0.179778 1.13676 0.319348 0.146229 -0.0391813 0.870541)
(1.11518 -0.16985 0.051401 -0.183583 1.07511 0.333338 0.150813 -0.0131937 0.870541)
(1.17441 -0.15234 -0.00726351 -0.166073 1.01588 0.3372 0.150813 0.0131945 0.870541)
(1.22409 -0.115627 -0.0657074 -0.12936 0.966206 0.330816 0.14623 0.0391822 0.870541)
(1.2582 -0.0641395 -0.122155 -0.0778736 0.932087 0.31438 0.137205 0.063979 0.870541)
(1.27266 -0.00408782 -0.17489 -0.017822 0.917634 0.288392 0.12401 0.0868318 0.870541)
(1.2657 0.0572849 -0.222312 0.043551 0.924593 0.253641 0.107047 0.107047 0.870541)
(1.23817 0.112577 -0.262979 0.0988431 0.952123 0.211183 0.0868322 0.124009 0.870541)
(1.19339 0.155118 -0.295655 0.141385 0.996903 0.162309 0.0639787 0.137204 0.870541)
(1.13676 0.179778 -0.319348 0.166045 1.05353 0.108504 0.0391813 0.146229 0.870541)
(1.07511 0.183583 -0.333338 0.16985 1.11518 0.051401 0.0131937 0.150813 0.870541)
(1.01588 0.166073 -0.3372 0.15234 1.17441 -0.0072635 -0.0131945 0.150813 0.870541)
(0.966206 0.12936 -0.330816 0.115627 1.22409 -0.0657074 -0.0391822 0.14623 0.870541)
(0.932087 0.0778736 -0.31438 0.0641395 1.2582 -0.122155 -0.063979 0.137205 0.870541)
(0.917634 0.017822 -0.288392 0.00408781 1.27266 -0.17489 -0.0868318 0.12401 0.870541)
(0.924593 -0.043551 -0.253641 -0.0572849 1.2657 -0.222312 -0.107047 0.107047 0.870541)
(0.952123 -0.0988431 -0.211183 -0.112577 1.23817 -0.262979 -0.124009 0.0868322 0.870541)
(0.996903 -0.141385 -0.162309 -0.155118 1.19339 -0.295655 -0.137204 0.0639787 0.870541)
(1.05353 -0.166045 -0.108504 -0.179778 1.13676 -0.319348 -0.146229 0.0391813 0.870541)
(1.11518 -0.16985 -0.051401 -0.183583 1.07511 -0.333338 -0.150813 0.0131936 0.870541)
(1.19758 -0.18893 0.022004 -0.157521 1.00116 -0.345031 -0.139779 -0.0122292 0.85819)
(1.2509 -0.144894 0.0815838 -0.113485 0.947835 -0.335968 -0.135532 -0.0363156 0.85819)
(1.28595 -0.0852758 0.138685 -0.0538676 0.912788 -0.316697 -0.127167 -0.0592985 0.85819)
(1.29849 -0.0172665 0.191571 0.014142 0.900245 -0.287804 -0.114937 -0.0804793 0.858191)
(1.28701 0.0509315 0.238637 0.0823402 0.911719 -0.250165 -0.0992153 -0.099215 0.858191)
(1.25291 0.111092 0.278453 0.142501 0.945827 -0.204926 -0.0804794 -0.114936 0.858191)
(1.20028 0.155959 0.309807 0.187369 0.998453 -0.15346 -0.0592981 -0.127166 0.85819)
(1.13548 0.180121 0.331749 0.21153 1.06325 -0.0973306 -0.036315 -0.135531 0.85819)
(1.06633 0.180664 0.34361 0.212073 1.13241 -0.0382444 -0.0122287 -0.139779 0.85819)
(1.00116 0.157521 0.345031 0.18893 1.19758 0.022004 0.0122292 -0.139779 0.85819)
(0.947835 0.113486 0.335968 0.144894 1.2509 0.0815838 0.0363156 -0.135532 0.85819)
(0.912788 0.0538676 0.316697 0.0852758 1.28595 0.138685 0.0592985 -0.127167 0.85819)
(0.900245 -0.014142 0.287804 0.0172665 1.29849 0.191571 0.0804793 -0.114937 0.858191)
(0.911719 -0.0823401 0.250165 -0.0509315 1.28701 0.238637 0.099215 -0.0992153 0.858191)
(0.945827 -0.142501 0.204926 -0.111092 1.25291 0.278453 0.114936 -0.0804794 0.858191)
(0.998453 -0.187369 0.15346 -0.155959 1.20028 0.309807 0.127165 -0.0592981 0.85819)
(1.06325 -0.21153 0.0973306 -0.180121 1.13548 0.331749 0.135531 -0.036315 0.85819)
(1.13241 -0.212073 0.0382443 -0.180664 1.06633 0.34361 0.139779 -0.0122287 0.85819)
(1.19758 -0.18893 -0.022004 -0.157521 1.00116 0.345031 0.139779 0.0122292 0.85819)
(1.2509 -0.144894 -0.0815838 -0.113486 0.947835 0.335968 0.135532 0.0363156 0.85819)
(1.28595 -0.0852758 -0.138685 -0.0538676 0.912788 0.316697 0.127167 0.0592985 0.85819)
(1.29849 -0.0172665 -0.191571 0.014142 0.900245 0.287804 0.114937 0.0804793 0.858191)
(1.28701 0.0509315 -0.238637 0.0823402 0.911719 0.250165 0.0992153 0.099215 0.858191)
(1.25291 0.111092 -0.278453 0.142501 0.945827 0.204926 0.0804794 0.114936 0.858191)
(1.20028 0.155959 -0.309807 0.187369 0.998453 0.15346 0.0592981 0.127165 0.85819)
(1.13548 0.180121 -0.331749 0.21153 1.06325 0.0973306 0.036315 0.135531 0.85819)
(1.06633 0.180664 -0.34361 0.212073 1.13241 0.0382443 0.0122287 0.139779 0.85819)
(1.00116 0.157521 -0.345031 0.18893 1.19758 -0.022004 -0.0122292 0.139779 0.85819)
(0.947835 0.113485 -0.335968 0.144894 1.2509 -0.0815838 -0.0363156 0.135532 0.85819)
(0.912788 0.0538675 -0.316697 0.0852758 1.28595 -0.138685 -0.0592985 0.127167 0.85819)
(0.900245 -0.014142 -0.287804 0.0172665 1.29849 -0.191571 -0.0804793 0.114937 0.858191)
(0.911719 -0.0823402 -0.250165 -0.0509315 1.28701 -0.238637 -0.099215 0.0992153 0.858191)
(0.945827 -0.142501 -0.204926 -0.111092 1.25291 -0.278453 -0.114936 0.0804794 0.858191)
(0.998453 -0.187369 -0.15346 -0.155959 1.20028 -0.309807 -0.127166 0.0592981 0.85819)
(1.06325 -0.21153 -0.0973306 -0.180121 1.13548 -0.331749 -0.135531 0.036315 0.85819)
(1.13241 -0.212073 -0.0382444 -0.180664 1.06633 -0.34361 -0.139779 0.0122287 0.85819)
(1.22164 -0.232702 0.034906 -0.143319 0.977525 -0.352298 -0.126541 -0.011071 0.84303)
(1.27858 -0.179618 0.0955517 -0.0902348 0.920582 -0.340885 -0.122697 -0.0328764 0.84303)
(1.31393 -0.110259 0.153294 -0.0208762 0.88523 -0.319114 -0.115123 -0.0536829 0.84303)
(1.32343 -0.0329922 0.206379 0.0563908 0.875731 -0.287646 -0.104052 -0.0728579 0.84303)
(1.30593 0.0428637 0.253192 0.132247 0.893232 -0.247439 -0.0898192 -0.0898191 0.84303)
(1.26354 0.108159 0.292313 0.197543 0.935622 -0.199714 -0.0728576 -0.104051 0.84303)
(1.20138 0.155018 0.322552 0.244402 0.997788 -0.14592 -0.0536824 -0.115122 0.84303)
(1.12693 0.17779 0.342991 0.267174 1.07223 -0.0876924 -0.0328761 -0.122696 0.84303)
(1.04919 0.173727 0.353007 0.26311 1.14997 -0.0268003 -0.0110708 -0.126541 0.84303)
(0.977525 0.143319 0.352298 0.232702 1.22164 0.034906 0.011071 -0.126541 0.84303)
(0.920582 0.0902349 0.340885 0.179618 1.27858 0.0955517 0.0328764 -0.122697 0.84303)
(0.88523 0.0208762 0.319114 0.110259 1.31393 0.153294 0.0536829 -0.115123 0.84303)
(0.875731 -0.0563908 0.287646 0.0329922 1.32343 0.206379 0.0728578 -0.104052 0.84303)
(0.893232 -0.132247 0.247439 -0.0428637 1.30593 0.253192 0.0898191 -0.0898192 0.84303)
(0.935622 -0.197543 0.199714 -0.108159 1.26354 0.292313 0.104051 -0.0728576 0.84303)
(0.997788 -0.244402 0.14592 -0.155018 1.20138 0.322552 0.115122 -0.0536824 0.84303)
(1.07223 -0.267174 0.0876923 -0.17779 1.12693 0.342991 0.122696 -0.0328761 0.84303)
(1.14997 -0.26311 0.0268003 -0.173727 1.04919 0.353007 0.126541 -0.0110708 0.84303)
(1.22164 -0.232702 -0.034906 -0.143319 0.977525 0.352298 0.126541 0.011071 0.84303)
(1.27858 -0.179618 -0.0955517 -0.0902348 0.920582 0.340885 0.122697 0.0328764 0.84303)
(1.31393 -0.110259 -0.153294 -0.0208762 0.88523 0.319114 0.115123 0.0536829 0.84303)
(1.32343 -0.0329922 -0.206379 0.0563908 0.875731 0.287646 0.104052 0.0728578 0.84303)
(1.30593 0.0428637 -0.253192 0.132247 0.893232 0.247439 0.0898192 0.0898191 0.84303)
(1.26354 0.108159 -0.292313 0.197543 0.935622 0.199714 0.0728576 0.104051 0.84303)
(1.20138 0.155018 -0.322552 0.244402 0.997788 0.14592 0.0536824 0.115122 0.84303)
(1.12693 0.17779 -0.342991 0.267174 1.07223 0.0876924 0.0328762 0.122696 0.84303)
(1.04919 0.173727 -0.353007 0.26311 1.14997 0.0268003 0.0110708 0.126541 0.84303)
(0.977525 0.143319 -0.352298 0.232702 1.22164 -0.034906 -0.011071 0.126541 0.84303)
(0.920582 0.0902348 -0.340885 0.179618 1.27858 -0.0955517 -0.0328764 0.122697 0.84303)
(0.88523 0.0208762 -0.319114 0.110259 1.31393 -0.153294 -0.0536829 0.115123 0.84303)
(0.875731 -0.0563908 -0.287646 0.0329922 1.32343 -0.206379 -0.0728578 0.104052 0.84303)
(0.893232 -0.132247 -0.247439 -0.0428637 1.30593 -0.253192 -0.0898191 0.0898192 0.84303)
(0.935622 -0.197543 -0.199714 -0.108159 1.26354 -0.292313 -0.104051 0.0728576 0.84303)
(0.997788 -0.244402 -0.14592 -0.155018 1.20138 -0.322552 -0.115122 0.0536824 0.84303)
(1.07223 -0.267174 -0.0876924 -0.17779 1.12693 -0.342991 -0.122696 0.0328761 0.84303)
(1.14997 -0.26311 -0.0268003 -0.173727 1.04919 -0.353007 -0.126541 0.0110708 0.84303)
(1.1968 -0.219771 0.049043 -0.16443 1.00916 -0.316059 -0.165989 -0.0145226 0.86459)
(1.25684 -0.176097 0.103181 -0.120757 0.949116 -0.302741 -0.160946 -0.0431254 0.86459)
(1.29833 -0.114521 0.154184 -0.0591816 0.90763 -0.280225 -0.151012 -0.0704178 0.864591)
(1.31625 -0.0424702 0.200502 0.0128694 0.889705 -0.249194 -0.13649 -0.0955707 0.864591)
(1.30845 0.0313658 0.240728 0.0867058 0.897505 -0.210591 -0.11782 -0.11782 0.864591)
(1.27587 0.0980816 0.273639 0.153422 0.930088 -0.165589 -0.0955708 -0.136489 0.864591)
(1.22243 0.14963 0.298236 0.20497 0.983524 -0.115557 -0.0704176 -0.151011 0.864591)
(1.15459 0.179793 0.313772 0.235133 1.05137 -0.0620128 -0.0431245 -0.160945 0.86459)
(1.08052 0.184933 0.319774 0.240273 1.12544 -0.00658501 -0.0145215 -0.165989 0.86459)
(1.00916 0.16443 0.316059 0.219771 1.1968 0.049043 0.0145226 -0.165989 0.86459)