/*--------------------------------*- C++ -*----------------------------------*\
| =========                 |                                                 |
| \\      /  F ield         | OpenFOAM: The Open Source CFD Toolbox           |
|  \\    /   O peration     | Version:  2312                                  |
|   \\  /    A nd           | Website:  www.openfoam.com                      |
|    \\/     M anipulation  |                                                 |
\*---------------------------------------------------------------------------*/
FoamFile
{
    version     2.0;
    format      ascii;
    arch        "LSB;label=32;scalar=64";
    class       pointVectorField;
    location    "0.9";
    object      pointD;
}
// * * * * * * * * * * * * * * * * * * * * * * * * * * * * * * * * * * * * * //

dimensions      [0 1 0 0 0 0 0];

internalField   nonuniform List<vector> 
2164
(
(0 0 0)
(0 0 0)
(0 0 0)
(0 0 0)
(0 0 0)
(0 0 0)
(0 0 0)
(0 0 0)
(0 0 0)
(0 0 0)
(0 0 0)
(0 0 0)
(0 0 0)
(0 0 0)
(0 0 0)
(0 0 0)
(0 0 0)
(0 0 0)
(0 0 0)
(0 0 0)
(0 0 0)
(0 0 0)
(0 0 0)
(0 0 0)
(0 0 0)
(0 0 0)
(0 0 0)
(0 0 0)
(0 0 0)
(0 0 0)
(0 0 0)
(0 0 0)
(0 0 0)
(0 0 0)
(0 0 0)
(0 0 0)
(0.000196419 0.000566344 -2.39222e-05)
(9.50904e-05 0.000591848 -2.3922e-05)
(-9.12744e-06 0.000599369 -2.39209e-05)
(-0.000113067 0.000588679 -2.39203e-05)
(-0.000213572 0.000560102 -2.39206e-05)
(-0.000307589 0.000514506 -2.39201e-05)
(-0.00039226 0.000453277 -2.39199e-05)
(-0.00046501 0.000378275 -2.39211e-05)
(-0.000523633 0.00029178 -2.39214e-05)
(-0.000566344 0.000196419 -2.39222e-05)
(-0.000591848 9.50903e-05 -2.3922e-05)
(-0.000599369 -9.12749e-06 -2.39209e-05)
(-0.000588679 -0.000113067 -2.39203e-05)
(-0.000560102 -0.000213572 -2.39206e-05)
(-0.000514506 -0.000307589 -2.39201e-05)
(-0.000453277 -0.00039226 -2.39199e-05)
(-0.000378275 -0.00046501 -2.39211e-05)
(-0.00029178 -0.000523633 -2.39214e-05)
(-0.000196419 -0.000566344 -2.39222e-05)
(-9.50903e-05 -0.000591848 -2.3922e-05)
(9.12751e-06 -0.000599369 -2.39209e-05)
(0.000113067 -0.000588679 -2.39203e-05)
(0.000213572 -0.000560102 -2.39205e-05)
(0.000307589 -0.000514506 -2.39201e-05)
(0.00039226 -0.000453277 -2.39199e-05)
(0.00046501 -0.000378275 -2.39211e-05)
(0.000523633 -0.00029178 -2.39213e-05)
(0.000566344 -0.000196419 -2.39222e-05)
(0.000591848 -9.50903e-05 -2.3922e-05)
(0.000599369 9.12748e-06 -2.39209e-05)
(0.000588679 0.000113067 -2.39203e-05)
(0.000560102 0.000213572 -2.39205e-05)
(0.000514506 0.000307589 -2.39201e-05)
(0.000453277 0.00039226 -2.39199e-05)
(0.000378275 0.00046501 -2.39211e-05)
(0.00029178 0.000523633 -2.39213e-05)
(9.81738e-05 0.000669314 7.70832e-05)
(-1.95424e-05 0.000676193 7.70828e-05)
(-0.000136664 0.000662527 7.70835e-05)
(-0.000249635 0.00062873 7.70843e-05)
(-0.000355021 0.00057583 7.70843e-05)
(-0.000449619 0.000505433 7.7084e-05)
(-0.000530556 0.000419679 7.70839e-05)
(-0.000595372 0.000321172 7.70837e-05)
(-0.000642098 0.000212907 7.70832e-05)
(-0.000669314 9.81737e-05 7.70832e-05)
(-0.000676193 -1.95424e-05 7.70828e-05)
(-0.000662527 -0.000136664 7.70834e-05)
(-0.00062873 -0.000249635 7.70843e-05)
(-0.00057583 -0.000355021 7.70843e-05)
(-0.000505433 -0.000449619 7.7084e-05)
(-0.000419678 -0.000530556 7.70839e-05)
(-0.000321172 -0.000595372 7.70837e-05)
(-0.000212907 -0.000642098 7.70832e-05)
(-9.81737e-05 -0.000669314 7.70832e-05)
(1.95424e-05 -0.000676193 7.70828e-05)
(0.000136664 -0.000662527 7.70835e-05)
(0.000249635 -0.00062873 7.70843e-05)
(0.000355021 -0.00057583 7.70843e-05)
(0.000449619 -0.000505433 7.7084e-05)
(0.000530556 -0.000419678 7.70839e-05)
(0.000595372 -0.000321172 7.70837e-05)
(0.000642098 -0.000212907 7.70832e-05)
(0.000669314 -9.81737e-05 7.70832e-05)
(0.000676193 1.95424e-05 7.70828e-05)
(0.000662527 0.000136664 7.70835e-05)
(0.00062873 0.000249635 7.70843e-05)
(0.00057583 0.000355021 7.70843e-05)
(0.000505433 0.000449619 7.7084e-05)
(0.000419679 0.000530556 7.70839e-05)
(0.000321172 0.000595372 7.70837e-05)
(0.000212907 0.000642098 7.70832e-05)
(0 0 0)
(0 0 0)
(0 0 0)
(0 0 0)
(0 0 0)
(0 0 0)
(0 0 0)
(0 0 0)
(0 0 0)
(0 0 0)
(0 0 0)
(0 0 0)
(0 0 0)
(0 0 0)
(0 0 0)
(0 0 0)
(0 0 0)
(0 0 0)
(0 0 0)
(0 0 0)
(0 0 0)
(0 0 0)
(0 0 0)
(0 0 0)
(0 0 0)
(0 0 0)
(0 0 0)
(0 0 0)
(0 0 0)
(0 0 0)
(0 0 0)
(0 0 0)
(0 0 0)
(0 0 0)
(0 0 0)
(0 0 0)
(-2.65297e-05 0.000766016 0.000154216)
(-0.000159143 0.000749771 0.000154215)
(-0.000286922 0.000710746 0.000154216)
(-0.000405982 0.000650125 0.000154216)
(-0.000512707 0.00056975 0.000154216)
(-0.000603855 0.000472063 0.000154216)
(-0.000676653 0.000360033 0.000154216)
(-0.000728893 0.000237063 0.000154216)
(-0.000758985 0.000106891 0.000154215)
(-0.000766016 -2.65297e-05 0.000154216)
(-0.000749771 -0.000159143 0.000154215)
(-0.000710746 -0.000286922 0.000154216)
(-0.000650125 -0.000405982 0.000154216)
(-0.000569749 -0.000512707 0.000154216)
(-0.000472063 -0.000603855 0.000154216)
(-0.000360033 -0.000676653 0.000154216)
(-0.000237063 -0.000728893 0.000154216)
(-0.000106891 -0.000758985 0.000154215)
(2.65297e-05 -0.000766016 0.000154216)
(0.000159143 -0.000749771 0.000154215)
(0.000286922 -0.000710746 0.000154216)
(0.000405982 -0.000650125 0.000154216)
(0.000512707 -0.000569749 0.000154216)
(0.000603855 -0.000472063 0.000154216)
(0.000676653 -0.000360033 0.000154216)
(0.000728893 -0.000237063 0.000154216)
(0.000758985 -0.000106891 0.000154215)
(0.000766016 2.65297e-05 0.000154216)
(0.000749771 0.000159143 0.000154215)
(0.000710746 0.000286922 0.000154216)
(0.000650125 0.000405982 0.000154216)
(0.00056975 0.000512707 0.000154216)
(0.000472063 0.000603855 0.000154216)
(0.000360033 0.000676653 0.000154216)
(0.000237063 0.000728893 0.000154216)
(0.000106891 0.000758985 0.000154215)
(0 0 0)
(0 0 0)
(0 0 0)
(0 0 0)
(0 0 0)
(0 0 0)
(0 0 0)
(0 0 0)
(0 0 0)
(0 0 0)
(0 0 0)
(0 0 0)
(0 0 0)
(0 0 0)
(0 0 0)
(0 0 0)
(0 0 0)
(0 0 0)
(0 0 0)
(0 0 0)
(0 0 0)
(0 0 0)
(0 0 0)
(0 0 0)
(0 0 0)
(0 0 0)
(0 0 0)
(0 0 0)
(0 0 0)
(0 0 0)
(0 0 0)
(0 0 0)
(0 0 0)
(0 0 0)
(0 0 0)
(0 0 0)
(-0.000173848 0.000847589 0.000202061)
(-0.000318388 0.000804524 0.000202061)
(-0.000453255 0.000737014 0.000202061)
(-0.000574351 0.000647109 0.000202061)
(-0.000677994 0.000537543 0.000202061)
(-0.000761037 0.000411643 0.000202061)
(-0.000820956 0.000273237 0.000202061)
(-0.000855932 0.000126528 0.000202061)
(-0.000864899 -2.4024e-05 0.000202061)
(-0.000847589 -0.000173848 0.000202061)
(-0.000804524 -0.000318388 0.000202061)
(-0.000737014 -0.000453255 0.000202061)
(-0.000647109 -0.000574351 0.000202061)
(-0.000537543 -0.000677994 0.000202061)
(-0.000411643 -0.000761037 0.000202061)
(-0.000273237 -0.000820956 0.000202061)
(-0.000126528 -0.000855932 0.000202061)
(2.4024e-05 -0.000864899 0.000202061)
(0.000173848 -0.000847589 0.000202061)
(0.000318388 -0.000804524 0.000202061)
(0.000453255 -0.000737014 0.000202061)
(0.000574351 -0.000647109 0.000202061)
(0.000677994 -0.000537543 0.000202061)
(0.000761037 -0.000411643 0.000202061)
(0.000820956 -0.000273237 0.000202061)
(0.000855932 -0.000126528 0.000202061)
(0.000864899 2.4024e-05 0.000202061)
(0.000847589 0.000173848 0.000202061)
(0.000804524 0.000318388 0.000202061)
(0.000737014 0.000453255 0.000202061)
(0.000647109 0.000574351 0.000202061)
(0.000537543 0.000677994 0.000202061)
(0.000411643 0.000761037 0.000202061)
(0.000273237 0.000820956 0.000202061)
(0.000126528 0.000855932 0.000202061)
(-2.4024e-05 0.000864899 0.000202061)
(0 0 0)
(0 0 0)
(0 0 0)
(0 0 0)
(0 0 0)
(0 0 0)
(0 0 0)
(0 0 0)
(0 0 0)
(0 0 0)
(0 0 0)
(0 0 0)
(0 0 0)
(0 0 0)
(0 0 0)
(0 0 0)
(0 0 0)
(0 0 0)
(0 0 0)
(0 0 0)
(0 0 0)
(0 0 0)
(0 0 0)
(0 0 0)
(0 0 0)
(0 0 0)
(0 0 0)
(0 0 0)
(0 0 0)
(0 0 0)
(0 0 0)
(0 0 0)
(0 0 0)
(0 0 0)
(0 0 0)
(0 0 0)
(0.000253965 0.00121064 0.000131544)
(3.98811e-05 0.00123635 0.000131544)
(-0.000175415 0.00122449 0.000131546)
(-0.00038538 0.00117543 0.000131548)
(-0.000583635 0.00109065 0.000131548)
(-0.000764158 0.000972734 0.000131548)
(-0.000921462 0.000825261 0.000131547)
(-0.00105077 0.000652712 0.000131546)
(-0.00114815 0.000460331 0.000131545)
(-0.00121064 0.000253964 0.000131544)
(-0.00123635 3.9881e-05 0.000131544)
(-0.00122449 -0.000175415 0.000131546)
(-0.00117543 -0.00038538 0.000131548)
(-0.00109065 -0.000583636 0.000131548)
(-0.000972734 -0.000764158 0.000131548)
(-0.000825261 -0.000921462 0.000131547)
(-0.000652712 -0.00105077 0.000131546)
(-0.000460331 -0.00114815 0.000131545)
(-0.000253964 -0.00121064 0.000131544)
(-3.9881e-05 -0.00123635 0.000131544)
(0.000175415 -0.00122449 0.000131546)
(0.00038538 -0.00117543 0.000131548)
(0.000583636 -0.00109065 0.000131548)
(0.000764158 -0.000972734 0.000131548)
(0.000921462 -0.000825261 0.000131547)
(0.00105077 -0.000652712 0.000131546)
(0.00114815 -0.000460331 0.000131545)
(0.00121064 -0.000253964 0.000131544)
(0.00123635 -3.9881e-05 0.000131544)
(0.00122449 0.000175415 0.000131546)
(0.00117543 0.00038538 0.000131548)
(0.00109065 0.000583636 0.000131548)
(0.000972734 0.000764158 0.000131548)
(0.000825261 0.000921462 0.000131547)
(0.000652712 0.00105077 0.000131546)
(0.000460331 0.00114815 0.000131545)
(0.000103595 0.00135226 0.000272633)
(-0.000132798 0.00134971 0.000272634)
(-0.000365153 0.00130615 0.000272633)
(-0.000586416 0.00122289 0.000272635)
(-0.00078986 0.00110249 0.000272636)
(-0.000969304 0.000948578 0.000272635)
(-0.0011193 0.000765848 0.000272636)
(-0.00123528 0.000559849 0.000272634)
(-0.00131373 0.000336839 0.000272634)
(-0.00135226 0.000103595 0.000272633)
(-0.00134971 -0.000132798 0.000272634)
(-0.00130614 -0.000365153 0.000272633)
(-0.00122289 -0.000586416 0.000272635)
(-0.00110249 -0.00078986 0.000272636)
(-0.000948578 -0.000969304 0.000272635)
(-0.000765848 -0.0011193 0.000272636)
(-0.000559849 -0.00123528 0.000272634)
(-0.000336839 -0.00131373 0.000272634)
(-0.000103595 -0.00135226 0.000272633)
(0.000132798 -0.00134971 0.000272634)
(0.000365153 -0.00130614 0.000272633)
(0.000586416 -0.00122289 0.000272635)
(0.00078986 -0.00110249 0.000272636)
(0.000969304 -0.000948578 0.000272635)
(0.0011193 -0.000765848 0.000272636)
(0.00123528 -0.000559849 0.000272634)
(0.00131373 -0.000336839 0.000272634)
(0.00135227 -0.000103595 0.000272633)
(0.00134971 0.000132798 0.000272634)
(0.00130615 0.000365153 0.000272633)
(0.00122289 0.000586416 0.000272635)
(0.00110249 0.00078986 0.000272636)
(0.000948578 0.000969304 0.000272635)
(0.000765848 0.0011193 0.000272636)
(0.000559849 0.00123528 0.000272634)
(0.000336839 0.00131373 0.000272634)
(-7.56581e-05 0.00148516 0.000399323)
(-0.000332401 0.00144946 0.000399323)
(-0.000579046 0.00136971 0.000399324)
(-0.000808099 0.00124836 0.000399325)
(-0.0010126 0.00108906 0.000399325)
(-0.00118633 0.000896682 0.000399324)
(-0.00132401 0.000677056 0.000399324)
(-0.00142147 0.000436859 0.000399323)
(-0.00147573 0.000183386 0.000399323)
(-0.00148516 -7.56582e-05 0.000399323)
(-0.00144946 -0.000332401 0.000399323)
(-0.00136971 -0.000579046 0.000399324)
(-0.00124836 -0.000808099 0.000399325)
(-0.00108906 -0.0010126 0.000399325)
(-0.000896682 -0.00118633 0.000399324)
(-0.000677056 -0.00132401 0.000399324)
(-0.000436859 -0.00142147 0.000399323)
(-0.000183386 -0.00147573 0.000399323)
(7.56582e-05 -0.00148516 0.000399323)
(0.000332401 -0.00144946 0.000399323)
(0.000579047 -0.00136971 0.000399324)
(0.000808099 -0.00124836 0.000399325)
(0.0010126 -0.00108906 0.000399325)
(0.00118633 -0.000896682 0.000399324)
(0.00132401 -0.000677056 0.000399324)
(0.00142147 -0.000436859 0.000399323)
(0.00147573 -0.000183386 0.000399323)
(0.00148516 7.56582e-05 0.000399323)
(0.00144946 0.000332401 0.000399323)
(0.00136971 0.000579046 0.000399324)
(0.00124836 0.000808099 0.000399325)
(0.00108906 0.0010126 0.000399325)
(0.000896682 0.00118633 0.000399324)
(0.000677056 0.00132401 0.000399324)
(0.000436859 0.00142147 0.000399323)
(0.000183386 0.00147573 0.000399323)
(-0.000274746 0.00159431 0.00050346)
(-0.000547421 0.00152238 0.00050346)
(-0.00080346 0.00140419 0.00050346)
(-0.00103509 0.00124334 0.000503459)
(-0.00123527 0.00104471 0.000503459)
(-0.00139791 0.000814336 0.000503459)
(-0.00151808 0.000559219 0.00050346)
(-0.00159213 0.00028711 0.00050346)
(-0.0016178 6.27806e-06 0.000503459)
(-0.00159431 -0.000274747 0.00050346)
(-0.00152238 -0.000547421 0.00050346)
(-0.00140419 -0.00080346 0.00050346)
(-0.00124334 -0.00103509 0.000503459)
(-0.00104471 -0.00123527 0.000503459)
(-0.000814336 -0.00139791 0.000503459)
(-0.000559219 -0.00151808 0.00050346)
(-0.00028711 -0.00159213 0.00050346)
(-6.27802e-06 -0.0016178 0.000503459)
(0.000274747 -0.00159431 0.00050346)
(0.000547421 -0.00152238 0.00050346)
(0.00080346 -0.00140419 0.00050346)
(0.00103509 -0.00124334 0.000503459)
(0.00123527 -0.00104471 0.000503459)
(0.00139791 -0.000814336 0.000503459)
(0.00151808 -0.000559219 0.00050346)
(0.00159213 -0.00028711 0.00050346)
(0.0016178 -6.27803e-06 0.000503459)
(0.00159431 0.000274747 0.00050346)
(0.00152238 0.000547421 0.00050346)
(0.00140419 0.00080346 0.00050346)
(0.00124334 0.00103509 0.000503459)
(0.00104471 0.00123527 0.000503459)
(0.000814336 0.00139791 0.000503459)
(0.000559219 0.00151808 0.00050346)
(0.00028711 0.00159213 0.00050346)
(6.27809e-06 0.0016178 0.000503459)
(0.000198825 0.00186723 0.000382273)
(-0.000128436 0.00187339 0.000382273)
(-0.000451796 0.00182262 0.000382275)
(-0.000761426 0.00171648 0.000382277)
(-0.00104792 0.00155818 0.000382278)
(-0.00130258 0.00135254 0.000382278)
(-0.00151765 0.0011058 0.000382277)
(-0.00168662 0.000825463 0.000382275)
(-0.00180433 0.000520045 0.000382273)
(-0.00186723 0.000198825 0.000382273)
(-0.00187338 -0.000128436 0.000382273)
(-0.00182262 -0.000451796 0.000382275)
(-0.00171648 -0.000761426 0.000382277)
(-0.00155818 -0.00104792 0.000382277)
(-0.00135254 -0.00130258 0.000382278)
(-0.0011058 -0.00151765 0.000382277)
(-0.000825463 -0.00168662 0.000382275)
(-0.000520045 -0.00180433 0.000382273)
(-0.000198825 -0.00186723 0.000382273)
(0.000128436 -0.00187339 0.000382273)
(0.000451796 -0.00182262 0.000382275)
(0.000761426 -0.00171648 0.000382277)
(0.00104792 -0.00155818 0.000382278)
(0.00130258 -0.00135254 0.000382278)
(0.00151765 -0.0011058 0.000382277)
(0.00168662 -0.000825463 0.000382275)
(0.00180433 -0.000520045 0.000382273)
(0.00186723 -0.000198825 0.000382273)
(0.00187339 0.000128436 0.000382273)
(0.00182262 0.000451796 0.000382275)
(0.00171648 0.000761426 0.000382277)
(0.00155818 0.00104792 0.000382278)
(0.00135254 0.00130258 0.000382278)
(0.0011058 0.00151765 0.000382277)
(0.000825463 0.00168662 0.000382275)
(0.000520045 0.00180433 0.000382273)
(1.89475e-05 0.00201033 0.000541858)
(-0.00033043 0.00198307 0.000541859)
(-0.000669766 0.00189557 0.000541859)
(-0.000988753 0.00175047 0.00054186)
(-0.0012777 0.00155218 0.000541861)
(-0.00152782 0.00130673 0.000541861)
(-0.00173152 0.00102157 0.000541861)
(-0.00188261 0.000705377 0.00054186)
(-0.00197649 0.000367748 0.000541859)
(-0.00201033 1.89474e-05 0.000541858)
(-0.00198307 -0.00033043 0.000541859)
(-0.00189557 -0.000669766 0.000541859)
(-0.00175047 -0.000988753 0.00054186)
(-0.00155218 -0.0012777 0.000541861)
(-0.00130673 -0.00152782 0.00054186)
(-0.00102157 -0.00173152 0.000541861)
(-0.000705377 -0.00188261 0.00054186)
(-0.000367748 -0.00197649 0.000541859)
(-1.89473e-05 -0.00201033 0.000541858)
(0.00033043 -0.00198307 0.000541859)
(0.000669766 -0.00189557 0.000541859)
(0.000988753 -0.00175047 0.00054186)
(0.0012777 -0.00155218 0.000541861)
(0.00152782 -0.00130673 0.000541861)
(0.00173152 -0.00102157 0.000541861)
(0.00188261 -0.000705377 0.00054186)
(0.00197649 -0.000367748 0.000541859)
(0.00201033 -1.89474e-05 0.000541858)
(0.00198307 0.00033043 0.000541859)
(0.00189557 0.000669766 0.000541859)
(0.00175047 0.000988753 0.00054186)
(0.00155218 0.0012777 0.000541861)
(0.00130673 0.00152782 0.000541861)
(0.00102157 0.00173152 0.000541861)
(0.000705377 0.00188261 0.00054186)
(0.000367748 0.00197649 0.000541859)
(-0.000186305 0.0021439 0.000688348)
(-0.000555759 0.00207897 0.000688347)
(-0.000908325 0.00195088 0.000688348)
(-0.00123329 0.00176352 0.000688348)
(-0.00152079 0.00152257 0.000688348)
(-0.00176207 0.00123535 0.000688349)
(-0.00194982 0.000910603 0.000688348)
(-0.00207832 0.000558185 0.000688348)
(-0.00214368 0.000188809 0.000688347)
(-0.0021439 -0.000186306 0.000688348)
(-0.00207897 -0.000555759 0.000688347)
(-0.00195088 -0.000908325 0.000688348)
(-0.00176352 -0.00123329 0.000688348)
(-0.00152257 -0.00152079 0.000688348)
(-0.00123535 -0.00176207 0.000688348)
(-0.000910603 -0.00194982 0.000688348)
(-0.000558185 -0.00207832 0.000688348)
(-0.000188809 -0.00214368 0.000688347)
(0.000186306 -0.0021439 0.000688348)
(0.000555759 -0.00207897 0.000688347)
(0.000908325 -0.00195088 0.000688348)
(0.00123329 -0.00176352 0.000688348)
(0.00152079 -0.00152257 0.000688348)
(0.00176207 -0.00123535 0.000688349)
(0.00194982 -0.000910603 0.000688348)
(0.00207832 -0.000558185 0.000688348)
(0.00214368 -0.000188809 0.000688347)
(0.0021439 0.000186306 0.000688348)
(0.00207897 0.000555759 0.000688347)
(0.00195088 0.000908325 0.000688348)
(0.00176352 0.00123329 0.000688348)
(0.00152257 0.00152079 0.000688348)
(0.00123535 0.00176207 0.000688349)
(0.000910603 0.00194982 0.000688348)
(0.000558185 0.00207832 0.000688348)
(0.000188809 0.00214368 0.000688347)
(-0.000406783 0.00225195 0.000815102)
(-0.000791648 0.00214711 0.000815101)
(-0.00115246 0.00197702 0.000815102)
(-0.00147826 0.00174686 0.000815102)
(-0.00175914 0.00146362 0.000815102)
(-0.00198657 0.00113592 0.000815102)
(-0.00215364 0.000773694 0.000815101)
(-0.00225527 0.000387965 0.000815102)
(-0.00228838 -9.55525e-06 0.000815102)
(-0.00225195 -0.000406783 0.000815102)
(-0.00214711 -0.000791648 0.000815101)
(-0.00197702 -0.00115246 0.000815102)
(-0.00174686 -0.00147826 0.000815102)
(-0.00146362 -0.00175914 0.000815102)
(-0.00113592 -0.00198657 0.000815102)
(-0.000773694 -0.00215364 0.000815101)
(-0.000387965 -0.00225527 0.000815102)
(9.55532e-06 -0.00228838 0.000815102)
(0.000406783 -0.00225195 0.000815102)
(0.000791649 -0.00214711 0.000815101)
(0.00115246 -0.00197702 0.000815102)
(0.00147826 -0.00174686 0.000815102)
(0.00175914 -0.00146362 0.000815102)
(0.00198657 -0.00113592 0.000815102)
(0.00215364 -0.000773694 0.000815101)
(0.00225527 -0.000387965 0.000815102)
(0.00228838 9.5553e-06 0.000815103)
(0.00225195 0.000406783 0.000815102)
(0.00214711 0.000791648 0.000815102)
(0.00197702 0.00115246 0.000815102)
(0.00174686 0.00147826 0.000815102)
(0.00146362 0.00175914 0.000815102)
(0.00113592 0.00198657 0.000815102)
(0.000773694 0.00215364 0.000815101)
(0.000387965 0.00225527 0.000815102)
(-9.5552e-06 0.00228838 0.000815103)
(2.88564e-05 0.00249983 0.000661537)
(-0.000405677 0.00246686 0.000661538)
(-0.000827878 0.00235894 0.000661539)
(-0.00122492 0.00217934 0.000661539)
(-0.00158475 0.00193353 0.00066154)
(-0.00189643 0.00162896 0.000661541)
(-0.00215049 0.0012749 0.000661541)
(-0.0023392 0.000882106 0.00066154)
(-0.00245684 0.000462507 0.000661539)
(-0.00249983 2.88562e-05 0.000661537)
(-0.00246686 -0.000405677 0.000661538)
(-0.00235894 -0.000827878 0.000661538)
(-0.00217934 -0.00122492 0.000661539)
(-0.00193353 -0.00158475 0.00066154)
(-0.00162896 -0.00189643 0.000661541)
(-0.0012749 -0.00215049 0.000661541)
(-0.000882106 -0.0023392 0.00066154)
(-0.000462507 -0.00245684 0.000661539)
(-2.88561e-05 -0.00249983 0.000661537)
(0.000405677 -0.00246686 0.000661538)
(0.000827879 -0.00235894 0.000661539)
(0.00122492 -0.00217934 0.000661539)
(0.00158475 -0.00193353 0.00066154)
(0.00189643 -0.00162896 0.000661541)
(0.00215049 -0.0012749 0.000661542)
(0.0023392 -0.000882106 0.00066154)
(0.00245684 -0.000462507 0.00066154)
(0.00249983 -2.88562e-05 0.000661537)
(0.00246686 0.000405677 0.000661538)
(0.00235894 0.000827879 0.000661539)
(0.00217934 0.00122492 0.000661539)
(0.00193353 0.00158475 0.00066154)
(0.00162896 0.00189643 0.000661541)
(0.0012749 0.00215049 0.000661542)
(0.000882107 0.0023392 0.00066154)
(0.000462507 0.00245684 0.00066154)
(-0.000152317 0.00261798 0.000824094)
(-0.000604609 0.00255175 0.000824093)
(-0.00103853 0.002408 0.000824095)
(-0.00144089 0.00219108 0.000824095)
(-0.00179948 0.00190758 0.000824095)
(-0.00210339 0.00156612 0.000824096)
(-0.00234339 0.00117708 0.000824096)
(-0.00251219 0.000752269 0.000824096)
(-0.00260465 0.000304604 0.000824094)
(-0.00261797 -0.000152317 0.000824094)
(-0.00255175 -0.000604609 0.000824093)
(-0.002408 -0.00103853 0.000824095)
(-0.00219107 -0.00144089 0.000824095)
(-0.00190758 -0.00179948 0.000824095)
(-0.00156612 -0.00210339 0.000824096)
(-0.00117708 -0.00234339 0.000824095)
(-0.000752269 -0.00251219 0.000824096)
(-0.000304604 -0.00260465 0.000824094)
(0.000152317 -0.00261797 0.000824094)
(0.00060461 -0.00255175 0.000824093)
(0.00103853 -0.002408 0.000824095)
(0.00144089 -0.00219108 0.000824095)
(0.00179948 -0.00190758 0.000824095)
(0.00210339 -0.00156612 0.000824096)
(0.00234339 -0.00117708 0.000824096)
(0.00251219 -0.000752269 0.000824096)
(0.00260465 -0.000304604 0.000824094)
(0.00261798 0.000152317 0.000824094)
(0.00255175 0.000604609 0.000824094)
(0.002408 0.00103853 0.000824095)
(0.00219108 0.00144089 0.000824095)
(0.00190758 0.00179948 0.000824095)
(0.00156612 0.00210339 0.000824097)
(0.00117708 0.00234339 0.000824096)
(0.000752269 0.00251219 0.000824096)
(0.000304604 0.00260465 0.000824094)
(-0.000354698 0.0027269 0.000973997)
(-0.00082283 0.00262388 0.000973997)
(-0.00126596 0.00244113 0.000973997)
(-0.00167063 0.00218421 0.000973997)
(-0.00202453 0.00186093 0.000973998)
(-0.00231692 0.0014811 0.000973998)
(-0.00253891 0.00105627 0.000973998)
(-0.00268376 0.000599349 0.000973997)
(-0.00274706 0.000124211 0.000973998)
(-0.0027269 -0.000354698 0.000973997)
(-0.00262388 -0.00082283 0.000973997)
(-0.00244113 -0.00126596 0.000973997)
(-0.00218421 -0.00167063 0.000973997)
(-0.00186093 -0.00202453 0.000973997)
(-0.0014811 -0.00231692 0.000973998)
(-0.00105627 -0.00253891 0.000973998)
(-0.000599349 -0.00268376 0.000973997)
(-0.000124211 -0.00274706 0.000973998)
(0.000354698 -0.0027269 0.000973997)
(0.00082283 -0.00262388 0.000973997)
(0.00126596 -0.00244113 0.000973997)
(0.00167063 -0.00218421 0.000973997)
(0.00202453 -0.00186093 0.000973998)
(0.00231692 -0.0014811 0.000973998)
(0.00253891 -0.00105627 0.000973998)
(0.00268376 -0.000599349 0.000973997)
(0.00274706 -0.000124211 0.000973998)
(0.0027269 0.000354698 0.000973997)
(0.00262388 0.00082283 0.000973997)
(0.00244113 0.00126596 0.000973997)
(0.00218421 0.00167063 0.000973998)
(0.00186093 0.00202453 0.000973998)
(0.0014811 0.00231692 0.000973998)
(0.00105627 0.00253891 0.000973998)
(0.000599349 0.00268376 0.000973997)
(0.000124211 0.00274706 0.000973998)
(-0.000570233 0.00281097 0.00110579)
(-0.00104969 0.00266925 0.00110579)
(-0.00149725 0.00244642 0.00110579)
(-0.00189932 0.00214926 0.00110579)
(-0.00224368 0.00178679 0.00110579)
(-0.00251987 0.00137003 0.00110579)
(-0.00271949 0.00091165 0.00110579)
(-0.00283648 0.000425566 0.00110579)
(-0.00286729 -7.345e-05 0.00110579)
(-0.00281097 -0.000570233 0.00110579)
(-0.00266925 -0.00104969 0.00110579)
(-0.00244642 -0.00149725 0.00110579)
(-0.00214926 -0.00189932 0.00110579)
(-0.00178679 -0.00224368 0.00110579)
(-0.00137003 -0.00251987 0.00110579)
(-0.00091165 -0.00271949 0.00110579)
(-0.000425566 -0.00283648 0.00110579)
(7.34501e-05 -0.00286729 0.00110579)
(0.000570233 -0.00281097 0.00110579)
(0.00104969 -0.00266925 0.00110579)
(0.00149725 -0.00244642 0.00110579)
(0.00189932 -0.00214926 0.00110579)
(0.00224368 -0.00178679 0.00110579)
(0.00251987 -0.00137003 0.00110579)
(0.00271949 -0.00091165 0.00110579)
(0.00283648 -0.000425566 0.00110579)
(0.00286729 7.34501e-05 0.00110579)
(0.00281097 0.000570233 0.00110579)
(0.00266925 0.00104969 0.00110579)
(0.00244642 0.00149725 0.00110579)
(0.00214926 0.00189932 0.00110579)
(0.00178679 0.00224368 0.00110579)
(0.00137003 0.00251987 0.00110579)
(0.00091165 0.00271949 0.00110579)
(0.000425566 0.00283648 0.00110579)
(-7.345e-05 0.00286729 0.00110579)
(-0.000217703 0.00307005 0.000942529)
(-0.000747505 0.00298561 0.000942528)
(-0.00125459 0.00281045 0.000942529)
(-0.00172356 0.00254989 0.00094253)
(-0.00214016 0.00221186 0.00094253)
(-0.00249173 0.00180662 0.000942531)
(-0.00276759 0.00134649 0.000942531)
(-0.00295936 0.000845444 0.000942531)
(-0.00306121 0.000318713 0.000942531)
(-0.00307005 -0.000217703 0.000942529)
(-0.00298561 -0.000747506 0.000942528)
(-0.00281045 -0.00125459 0.000942529)
(-0.00254989 -0.00172356 0.00094253)
(-0.00221186 -0.00214016 0.00094253)
(-0.00180662 -0.00249173 0.00094253)
(-0.00134649 -0.00276759 0.000942531)
(-0.000845444 -0.00295936 0.000942531)
(-0.000318713 -0.00306121 0.000942531)
(0.000217703 -0.00307005 0.000942529)
(0.000747506 -0.00298561 0.000942528)
(0.00125459 -0.00281045 0.000942529)
(0.00172356 -0.00254989 0.00094253)
(0.00214016 -0.00221186 0.00094253)
(0.00249173 -0.00180662 0.000942531)
(0.00276759 -0.00134649 0.000942531)
(0.00295936 -0.000845444 0.000942531)
(0.00306121 -0.000318713 0.000942531)
(0.00307005 0.000217703 0.000942529)
(0.00298561 0.000747506 0.000942528)
(0.00281045 0.00125459 0.000942529)
(0.00254989 0.00172356 0.00094253)
(0.00221186 0.00214016 0.00094253)
(0.00180662 0.00249173 0.000942531)
(0.00134649 0.00276759 0.000942531)
(0.000845444 0.00295936 0.000942531)
(0.000318713 0.00306121 0.000942531)
(-0.000385671 0.00314843 0.00109872)
(-0.000926529 0.00303363 0.00109872)
(-0.00143924 0.00282665 0.00109872)
(-0.00190821 0.00253378 0.00109872)
(-0.00231921 0.00216393 0.00109872)
(-0.00265974 0.00172833 0.00109872)
(-0.00291945 0.00124021 0.00109872)
(-0.00309046 0.000714415 0.00109872)
(-0.00316757 0.000166907 0.00109873)
(-0.00314843 -0.000385671 0.00109872)
(-0.00303363 -0.000926529 0.00109872)
(-0.00282665 -0.00143924 0.00109872)
(-0.00253378 -0.00190821 0.00109872)
(-0.00216393 -0.00231921 0.00109872)
(-0.00172833 -0.00265974 0.00109872)
(-0.00124021 -0.00291945 0.00109872)
(-0.000714415 -0.00309046 0.00109872)
(-0.000166907 -0.00316757 0.00109873)
(0.000385671 -0.00314843 0.00109872)
(0.000926529 -0.00303363 0.00109872)
(0.00143924 -0.00282665 0.00109872)
(0.00190821 -0.00253378 0.00109872)
(0.00231921 -0.00216393 0.00109872)
(0.00265974 -0.00172833 0.00109872)
(0.00291945 -0.00124021 0.00109872)
(0.00309046 -0.000714415 0.00109873)
(0.00316757 -0.000166907 0.00109873)
(0.00314843 0.000385671 0.00109872)
(0.00303363 0.000926529 0.00109872)
(0.00282665 0.00143924 0.00109872)
(0.00253378 0.00190821 0.00109872)
(0.00216393 0.00231921 0.00109872)
(0.00172833 0.00265974 0.00109872)
(0.00124021 0.00291945 0.00109872)
(0.000714415 0.00309046 0.00109873)
(0.000166907 0.00316757 0.00109873)
(-0.000571096 0.00321913 0.00124238)
(-0.00112141 0.00307106 0.00124238)
(-0.00163766 0.00282967 0.00124238)
(-0.00210415 0.00250231 0.00124238)
(-0.0025067 0.00209891 0.00124238)
(-0.00283309 0.00163174 0.00124238)
(-0.0030734 0.00111498 0.00124238)
(-0.00322032 0.000564356 0.00124238)
(-0.0032694 -3.42225e-06 0.00124238)
(-0.00321913 -0.000571096 0.00124238)
(-0.00307106 -0.00112142 0.00124238)
(-0.00282967 -0.00163766 0.00124238)
(-0.00250231 -0.00210415 0.00124238)
(-0.00209891 -0.0025067 0.00124238)
(-0.00163174 -0.00283309 0.00124238)
(-0.00111498 -0.0030734 0.00124238)
(-0.000564356 -0.00322032 0.00124238)
(3.4224e-06 -0.0032694 0.00124238)
(0.000571096 -0.00321913 0.00124238)
(0.00112142 -0.00307106 0.00124238)
(0.00163766 -0.00282967 0.00124238)
(0.00210415 -0.00250231 0.00124238)
(0.0025067 -0.00209891 0.00124238)
(0.00283309 -0.00163174 0.00124238)
(0.0030734 -0.00111498 0.00124238)
(0.00322032 -0.000564356 0.00124238)
(0.0032694 3.4223e-06 0.00124238)
(0.00321913 0.000571096 0.00124238)
(0.00307106 0.00112142 0.00124238)
(0.00282967 0.00163766 0.00124238)
(0.00250231 0.00210415 0.00124238)
(0.00209891 0.0025067 0.00124238)
(0.00163174 0.00283309 0.00124238)
(0.00111498 0.0030734 0.00124238)
(0.000564357 0.00322032 0.00124238)
(-3.42212e-06 0.0032694 0.00124238)
(-0.000767504 0.00326641 0.00136862)
(-0.00132305 0.00308351 0.00136862)
(-0.0018384 0.00280692 0.00136862)
(-0.00229788 0.00244504 0.00136862)
(-0.00268755 0.00200887 0.00136862)
(-0.00299556 0.00151167 0.00136862)
(-0.00321255 0.000968529 0.00136862)
(-0.00333192 0.00039596 0.00136862)
(-0.00335006 -0.000188639 0.00136862)
(-0.00326641 -0.000767504 0.00136862)
(-0.00308351 -0.00132305 0.00136862)
(-0.00280692 -0.0018384 0.00136862)
(-0.00244504 -0.00229788 0.00136862)
(-0.00200887 -0.00268755 0.00136862)
(-0.00151167 -0.00299556 0.00136862)
(-0.000968529 -0.00321255 0.00136862)
(-0.00039596 -0.00333192 0.00136862)
(0.000188639 -0.00335006 0.00136862)
(0.000767504 -0.00326641 0.00136862)
(0.00132305 -0.00308351 0.00136862)
(0.0018384 -0.00280692 0.00136862)
(0.00229788 -0.00244504 0.00136862)
(0.00268755 -0.00200887 0.00136862)
(0.00299556 -0.00151167 0.00136862)
(0.00321255 -0.000968529 0.00136862)
(0.00333192 -0.00039596 0.00136862)
(0.00335006 0.000188639 0.00136862)
(0.00326641 0.000767504 0.00136862)
(0.00308351 0.00132305 0.00136862)
(0.00280692 0.0018384 0.00136862)
(0.00244504 0.00229788 0.00136862)
(0.00200887 0.00268755 0.00136862)
(0.00151167 0.00299556 0.00136862)
(0.000968529 0.00321255 0.00136862)
(0.00039596 0.00333192 0.00136862)
(-0.000188639 0.00335006 0.00136862)
(-0.000499356 0.00354792 0.0012179)
(-0.00110786 0.00340731 0.0012179)
(-0.0016827 0.00316317 0.0012179)
(-0.00220641 0.00282291 0.0012179)
(-0.00266309 0.00239688 0.0012179)
(-0.00303884 0.00189803 0.0012179)
(-0.00332227 0.00134151 0.0012179)
(-0.00350474 0.000744218 0.0012179)
(-0.00358073 0.000124319 0.0012179)
(-0.00354792 -0.000499356 0.0012179)
(-0.00340731 -0.00110786 0.0012179)
(-0.00316317 -0.0016827 0.0012179)
(-0.00282291 -0.00220642 0.0012179)
(-0.00239688 -0.00266309 0.0012179)
(-0.00189803 -0.00303884 0.0012179)
(-0.00134151 -0.00332227 0.0012179)
(-0.000744218 -0.00350474 0.0012179)
(-0.000124319 -0.00358073 0.0012179)
(0.000499357 -0.00354792 0.0012179)
(0.00110786 -0.00340731 0.0012179)
(0.0016827 -0.00316317 0.0012179)
(0.00220642 -0.00282291 0.0012179)
(0.00266309 -0.00239688 0.0012179)
(0.00303884 -0.00189803 0.0012179)
(0.00332227 -0.00134151 0.0012179)
(0.00350474 -0.000744218 0.0012179)