/*--------------------------------*- C++ -*----------------------------------*\
| =========                 |                                                 |
| \\      /  F ield         | OpenFOAM: The Open Source CFD Toolbox           |
|  \\    /   O peration     | Version:  2312                                  |
|   \\  /    A nd           | Website:  www.openfoam.com                      |
|    \\/     M anipulation  |                                                 |
\*---------------------------------------------------------------------------*/
FoamFile
{
    version     2.0;
    format      ascii;
    arch        "LSB;label=32;scalar=64";
    class       volVectorField;
    location    "0.1";
    object      D;
}
// * * * * * * * * * * * * * * * * * * * * * * * * * * * * * * * * * * * * * //

dimensions      [0 1 0 0 0 0 0];

internalField   nonuniform List<vector> 
3240
(
(-0.000107094 0.000158866 -4.1921e-05)
(-0.000120533 0.000148928 -4.19209e-05)
(-0.000133054 0.000137856 -4.19211e-05)
(-0.000144562 0.000125735 -4.19211e-05)
(-0.000154971 0.000112657 -4.1921e-05)
(-0.0001642 9.87217e-05 -4.19209e-05)
(-0.00017218 8.40354e-05 -4.19206e-05)
(-0.000178848 6.87093e-05 -4.19207e-05)
(-0.000184156 5.28604e-05 -4.19208e-05)
(-0.000188063 3.66091e-05 -4.1921e-05)
(-0.000190537 2.00789e-05 -4.19211e-05)
(-0.000191563 3.39584e-06 -4.19211e-05)
(-0.00019113 -1.33131e-05 -4.1921e-05)
(-0.000189242 -2.99204e-05 -4.19208e-05)
(-0.000185914 -4.62998e-05 -4.19206e-05)
(-0.000181171 -6.2327e-05 -4.19209e-05)
(-0.00017505 -7.78802e-05 -4.19212e-05)
(-0.000167596 -9.28406e-05 -4.1921e-05)
(-0.000158866 -0.000107094 -4.1921e-05)
(-0.000148928 -0.000120533 -4.19209e-05)
(-0.000137856 -0.000133054 -4.19211e-05)
(-0.000125735 -0.000144562 -4.19211e-05)
(-0.000112657 -0.000154971 -4.1921e-05)
(-9.87217e-05 -0.0001642 -4.19209e-05)
(-8.40354e-05 -0.00017218 -4.19206e-05)
(-6.87093e-05 -0.000178848 -4.19207e-05)
(-5.28604e-05 -0.000184156 -4.19209e-05)
(-3.66091e-05 -0.000188063 -4.1921e-05)
(-2.00789e-05 -0.000190537 -4.19211e-05)
(-3.39584e-06 -0.000191563 -4.19211e-05)
(1.33131e-05 -0.00019113 -4.1921e-05)
(2.99204e-05 -0.000189242 -4.19208e-05)
(4.62997e-05 -0.000185914 -4.19206e-05)
(6.2327e-05 -0.000181171 -4.19209e-05)
(7.78802e-05 -0.00017505 -4.19212e-05)
(9.28406e-05 -0.000167596 -4.1921e-05)
(0.000107094 -0.000158866 -4.1921e-05)
(0.000120533 -0.000148928 -4.19209e-05)
(0.000133054 -0.000137856 -4.19211e-05)
(0.000144562 -0.000125735 -4.19211e-05)
(0.000154971 -0.000112657 -4.1921e-05)
(0.0001642 -9.87217e-05 -4.19209e-05)
(0.00017218 -8.40354e-05 -4.19206e-05)
(0.000178848 -6.87093e-05 -4.19207e-05)
(0.000184156 -5.28604e-05 -4.19209e-05)
(0.000188063 -3.66091e-05 -4.1921e-05)
(0.000190537 -2.00789e-05 -4.19211e-05)
(0.000191563 -3.39584e-06 -4.19211e-05)
(0.00019113 1.33131e-05 -4.1921e-05)
(0.000189242 2.99204e-05 -4.19208e-05)
(0.000185914 4.62998e-05 -4.19206e-05)
(0.000181171 6.2327e-05 -4.19209e-05)
(0.00017505 7.78802e-05 -4.19212e-05)
(0.000167596 9.28406e-05 -4.1921e-05)
(0.000158866 0.000107094 -4.1921e-05)
(0.000148928 0.000120533 -4.19209e-05)
(0.000137856 0.000133054 -4.19211e-05)
(0.000125735 0.000144562 -4.19211e-05)
(0.000112657 0.000154971 -4.1921e-05)
(9.87217e-05 0.0001642 -4.19209e-05)
(8.40354e-05 0.00017218 -4.19206e-05)
(6.87093e-05 0.000178848 -4.19207e-05)
(5.28604e-05 0.000184156 -4.19209e-05)
(3.66091e-05 0.000188063 -4.19211e-05)
(2.00789e-05 0.000190537 -4.19211e-05)
(3.39583e-06 0.000191563 -4.19212e-05)
(-1.33131e-05 0.00019113 -4.1921e-05)
(-2.99204e-05 0.000189242 -4.19208e-05)
(-4.62998e-05 0.000185914 -4.19206e-05)
(-6.2327e-05 0.000181171 -4.19209e-05)
(-7.78802e-05 0.00017505 -4.19212e-05)
(-9.28406e-05 0.000167596 -4.1921e-05)
(-8.58488e-05 0.000160332 -1.99392e-05)
(-9.9496e-05 0.00015224 -1.99391e-05)
(-0.000112386 0.000142989 -1.99392e-05)
(-0.00012442 0.000132649 -1.99392e-05)
(-0.000135508 0.0001213 -1.99392e-05)
(-0.000145565 0.000109029 -1.99391e-05)
(-0.000154513 9.59269e-05 -1.9939e-05)
(-0.000162286 8.20952e-05 -1.99389e-05)
(-0.000168823 6.76391e-05 -1.9939e-05)
(-0.000174076 5.26678e-05 -1.99392e-05)
(-0.000178004 3.72954e-05 -1.99392e-05)
(-0.000180577 2.16394e-05 -1.99392e-05)
(-0.000181776 5.81858e-06 -1.99391e-05)
(-0.000181591 -1.00463e-05 -1.99391e-05)
(-0.000180025 -2.58347e-05 -1.99391e-05)
(-0.000177088 -4.14265e-05 -1.99391e-05)
(-0.000172804 -5.67032e-05 -1.99393e-05)
(-0.000167204 -7.15483e-05 -1.99392e-05)
(-0.000160332 -8.58488e-05 -1.99392e-05)
(-0.00015224 -9.9496e-05 -1.99391e-05)
(-0.000142989 -0.000112386 -1.99392e-05)
(-0.000132649 -0.00012442 -1.99392e-05)
(-0.0001213 -0.000135508 -1.99392e-05)
(-0.000109029 -0.000145565 -1.99391e-05)
(-9.59269e-05 -0.000154513 -1.9939e-05)
(-8.20953e-05 -0.000162286 -1.99389e-05)
(-6.76391e-05 -0.000168823 -1.9939e-05)
(-5.26678e-05 -0.000174076 -1.99392e-05)
(-3.72954e-05 -0.000178004 -1.99392e-05)
(-2.16394e-05 -0.000180577 -1.99392e-05)
(-5.81857e-06 -0.000181776 -1.99391e-05)
(1.00463e-05 -0.000181591 -1.99391e-05)
(2.58347e-05 -0.000180025 -1.99391e-05)
(4.14265e-05 -0.000177088 -1.99391e-05)
(5.67032e-05 -0.000172804 -1.99393e-05)
(7.15483e-05 -0.000167204 -1.99392e-05)
(8.58488e-05 -0.000160332 -1.99392e-05)
(9.9496e-05 -0.00015224 -1.99391e-05)
(0.000112386 -0.000142989 -1.99392e-05)
(0.00012442 -0.000132649 -1.99392e-05)
(0.000135508 -0.0001213 -1.99392e-05)
(0.000145565 -0.000109029 -1.99391e-05)
(0.000154513 -9.59269e-05 -1.9939e-05)
(0.000162286 -8.20952e-05 -1.99389e-05)
(0.000168823 -6.76391e-05 -1.9939e-05)
(0.000174076 -5.26678e-05 -1.99392e-05)
(0.000178004 -3.72954e-05 -1.99392e-05)
(0.000180577 -2.16394e-05 -1.99392e-05)
(0.000181776 -5.81857e-06 -1.99391e-05)
(0.000181591 1.00463e-05 -1.99391e-05)
(0.000180025 2.58347e-05 -1.99391e-05)
(0.000177088 4.14265e-05 -1.99391e-05)
(0.000172804 5.67032e-05 -1.99393e-05)
(0.000167204 7.15483e-05 -1.99392e-05)
(0.000160332 8.58488e-05 -1.99392e-05)
(0.00015224 9.9496e-05 -1.99391e-05)
(0.000142989 0.000112386 -1.99392e-05)
(0.000132649 0.00012442 -1.99392e-05)
(0.0001213 0.000135508 -1.99392e-05)
(0.000109029 0.000145565 -1.99391e-05)
(9.59269e-05 0.000154513 -1.9939e-05)
(8.20952e-05 0.000162286 -1.99389e-05)
(6.76391e-05 0.000168823 -1.9939e-05)
(5.26678e-05 0.000174076 -1.99392e-05)
(3.72954e-05 0.000178004 -1.99392e-05)
(2.16394e-05 0.000180577 -1.99392e-05)
(5.81857e-06 0.000181776 -1.99391e-05)
(-1.00463e-05 0.000181591 -1.99391e-05)
(-2.58347e-05 0.000180025 -1.99391e-05)
(-4.14265e-05 0.000177088 -1.99391e-05)
(-5.67032e-05 0.000172804 -1.99393e-05)
(-7.15483e-05 0.000167204 -1.99392e-05)
(-7.23433e-05 0.000160512 4.51284e-07)
(-8.60575e-05 0.000153596 4.51351e-07)
(-9.91169e-05 0.000145512 4.51484e-07)
(-0.000111422 0.000136319 4.51392e-07)
(-0.000122879 0.000126089 4.51294e-07)
(-0.000133401 0.0001149 4.51307e-07)
(-0.000142907 0.000102836 4.51437e-07)
(-0.000151326 8.99896e-05 4.51345e-07)
(-0.000158594 7.64586e-05 4.51353e-07)
(-0.000164654 6.23453e-05 4.51252e-07)
(-0.000169461 4.77573e-05 4.51323e-07)
(-0.000172978 3.2806e-05 4.51388e-07)
(-0.000175179 1.76049e-05 4.51452e-07)
(-0.000176048 2.27009e-06 4.51298e-07)
(-0.000175575 -1.3082e-05 4.51141e-07)
(-0.000173767 -2.83344e-05 4.51173e-07)
(-0.000170636 -4.33714e-05 4.51274e-07)
(-0.000166207 -5.80783e-05 4.51295e-07)
(-0.000160512 -7.23433e-05 4.51285e-07)
(-0.000153596 -8.60575e-05 4.51352e-07)
(-0.000145512 -9.91169e-05 4.51484e-07)
(-0.000136319 -0.000111422 4.51392e-07)
(-0.000126089 -0.000122879 4.51294e-07)
(-0.0001149 -0.000133401 4.51305e-07)
(-0.000102836 -0.000142907 4.51435e-07)
(-8.99896e-05 -0.000151326 4.51342e-07)
(-7.64586e-05 -0.000158594 4.5135e-07)
(-6.23453e-05 -0.000164654 4.5125e-07)
(-4.77573e-05 -0.000169461 4.51321e-07)
(-3.28059e-05 -0.000172978 4.51387e-07)
(-1.76049e-05 -0.000175179 4.51451e-07)
(-2.27009e-06 -0.000176048 4.51298e-07)
(1.3082e-05 -0.000175575 4.51141e-07)
(2.83345e-05 -0.000173767 4.51173e-07)
(4.33714e-05 -0.000170636 4.51275e-07)
(5.80783e-05 -0.000166207 4.51296e-07)
(7.23433e-05 -0.000160512 4.51285e-07)
(8.60575e-05 -0.000153596 4.51352e-07)
(9.91169e-05 -0.000145512 4.51483e-07)
(0.000111422 -0.000136319 4.51392e-07)
(0.000122879 -0.000126089 4.51293e-07)
(0.000133401 -0.0001149 4.51305e-07)
(0.000142907 -0.000102836 4.51434e-07)
(0.000151326 -8.99896e-05 4.51341e-07)
(0.000158594 -7.64586e-05 4.51349e-07)
(0.000164654 -6.23453e-05 4.51249e-07)
(0.000169461 -4.77573e-05 4.5132e-07)
(0.000172978 -3.28059e-05 4.51386e-07)
(0.000175179 -1.76049e-05 4.51451e-07)
(0.000176048 -2.27009e-06 4.51297e-07)
(0.000175575 1.3082e-05 4.5114e-07)
(0.000173767 2.83345e-05 4.51173e-07)
(0.000170636 4.33714e-05 4.51274e-07)
(0.000166207 5.80783e-05 4.51296e-07)
(0.000160512 7.23433e-05 4.51286e-07)
(0.000153596 8.60575e-05 4.51353e-07)
(0.000145512 9.91169e-05 4.51485e-07)
(0.000136319 0.000111422 4.51392e-07)
(0.000126089 0.000122879 4.51293e-07)
(0.0001149 0.000133401 4.51304e-07)
(0.000102836 0.000142907 4.51433e-07)
(8.99896e-05 0.000151326 4.5134e-07)
(7.64586e-05 0.000158594 4.51347e-07)
(6.23453e-05 0.000164654 4.51247e-07)
(4.77573e-05 0.000169461 4.51318e-07)
(3.2806e-05 0.000172978 4.51384e-07)
(1.76049e-05 0.000175179 4.51449e-07)
(2.27009e-06 0.000176048 4.51296e-07)
(-1.3082e-05 0.000175575 4.5114e-07)
(-2.83345e-05 0.000173767 4.51172e-07)
(-4.33714e-05 0.000170636 4.51273e-07)
(-5.80783e-05 0.000166207 4.51294e-07)
(-0.000271741 0.000477304 -0.000120306)
(-0.000312306 0.000451803 -0.000120306)
(-0.000350495 0.000422865 -0.000120306)
(-0.000386017 0.000390708 -0.000120306)
(-0.0004186 0.000355578 -0.000120306)
(-0.000447998 0.000317741 -0.000120306)
(-0.000473986 0.000277487 -0.000120305)
(-0.000496367 0.00023512 -0.000120305)
(-0.00051497 0.000190965 -0.000120305)
(-0.000529654 0.000145356 -0.000120305)
(-0.000540307 9.86401e-05 -0.000120306)
(-0.000546848 5.11737e-05 -0.000120306)
(-0.000549227 3.3175e-06 -0.000120306)
(-0.000547427 -4.45635e-05 -0.000120306)
(-0.00054146 -9.21048e-05 -0.000120306)
(-0.000531371 -0.000138945 -0.000120306)
(-0.000517239 -0.000184729 -0.000120306)
(-0.000499171 -0.000229107 -0.000120306)
(-0.000477304 -0.000271741 -0.000120306)
(-0.000451803 -0.000312306 -0.000120306)
(-0.000422865 -0.000350495 -0.000120306)
(-0.000390708 -0.000386017 -0.000120306)
(-0.000355578 -0.0004186 -0.000120306)
(-0.000317741 -0.000447998 -0.000120306)
(-0.000277487 -0.000473986 -0.000120305)
(-0.00023512 -0.000496367 -0.000120305)
(-0.000190965 -0.00051497 -0.000120305)
(-0.000145356 -0.000529654 -0.000120305)
(-9.86401e-05 -0.000540307 -0.000120306)
(-5.11737e-05 -0.000546848 -0.000120306)
(-3.31751e-06 -0.000549227 -0.000120306)
(4.45635e-05 -0.000547427 -0.000120306)
(9.21048e-05 -0.00054146 -0.000120306)
(0.000138945 -0.000531371 -0.000120306)
(0.000184729 -0.000517239 -0.000120306)
(0.000229107 -0.000499171 -0.000120306)
(0.000271741 -0.000477304 -0.000120306)
(0.000312306 -0.000451803 -0.000120306)
(0.000350495 -0.000422865 -0.000120306)
(0.000386017 -0.000390708 -0.000120306)
(0.0004186 -0.000355578 -0.000120306)
(0.000447998 -0.000317741 -0.000120306)
(0.000473986 -0.000277487 -0.000120305)
(0.000496367 -0.00023512 -0.000120305)
(0.00051497 -0.000190965 -0.000120305)
(0.000529654 -0.000145356 -0.000120305)
(0.000540307 -9.86401e-05 -0.000120306)
(0.000546848 -5.11737e-05 -0.000120306)
(0.000549227 -3.3175e-06 -0.000120306)
(0.000547427 4.45635e-05 -0.000120306)
(0.00054146 9.21048e-05 -0.000120306)
(0.000531371 0.000138945 -0.000120306)
(0.000517239 0.000184729 -0.000120306)
(0.000499171 0.000229107 -0.000120306)
(0.000477304 0.000271741 -0.000120306)
(0.000451803 0.000312306 -0.000120306)
(0.000422865 0.000350495 -0.000120306)
(0.000390708 0.000386017 -0.000120306)
(0.000355578 0.0004186 -0.000120306)
(0.000317741 0.000447998 -0.000120306)
(0.000277487 0.000473986 -0.000120305)
(0.00023512 0.000496367 -0.000120305)
(0.000190965 0.00051497 -0.000120305)
(0.000145356 0.000529654 -0.000120305)
(9.86401e-05 0.000540307 -0.000120306)
(5.11737e-05 0.000546848 -0.000120306)
(3.3175e-06 0.000549227 -0.000120306)
(-4.45635e-05 0.000547427 -0.000120306)
(-9.21048e-05 0.00054146 -0.000120306)
(-0.000138945 0.000531371 -0.000120306)
(-0.000184729 0.000517239 -0.000120306)
(-0.000229107 0.000499171 -0.000120306)
(-0.000256212 0.000478655 -7.44762e-05)
(-0.000296955 0.000454503 -7.4476e-05)
(-0.000335437 0.000426892 -7.44761e-05)
(-0.000371367 0.000396032 -7.44761e-05)
(-0.000404471 0.000362159 -7.4476e-05)
(-0.000434496 0.000325529 -7.44758e-05)
(-0.000461214 0.000286421 -7.44755e-05)
(-0.000484422 0.000245134 -7.44755e-05)
(-0.000503943 0.000201981 -7.44754e-05)
(-0.00051963 0.000157291 -7.44754e-05)
(-0.000531361 0.000111404 -7.44756e-05)
(-0.000539049 6.46687e-05 -7.44758e-05)
(-0.000542634 1.74412e-05 -7.44759e-05)
(-0.000542089 -2.99187e-05 -7.44759e-05)
(-0.000537418 -7.70507e-05 -7.44759e-05)
(-0.000528658 -0.000123596 -7.44759e-05)
(-0.000515874 -0.000169202 -7.44762e-05)
(-0.000499164 -0.00021352 -7.44761e-05)
(-0.000478655 -0.000256212 -7.44762e-05)
(-0.000454503 -0.000296955 -7.4476e-05)
(-0.000426892 -0.000335437 -7.44761e-05)
(-0.000396032 -0.000371367 -7.44761e-05)
(-0.000362159 -0.000404471 -7.4476e-05)
(-0.000325529 -0.000434496 -7.44758e-05)
(-0.000286422 -0.000461214 -7.44756e-05)
(-0.000245134 -0.000484422 -7.44755e-05)
(-0.000201981 -0.000503943 -7.44754e-05)
(-0.000157291 -0.00051963 -7.44754e-05)
(-0.000111404 -0.000531361 -7.44756e-05)
(-6.46687e-05 -0.000539049 -7.44758e-05)
(-1.74412e-05 -0.000542634 -7.44759e-05)
(2.99187e-05 -0.000542089 -7.44759e-05)
(7.70507e-05 -0.000537418 -7.44759e-05)
(0.000123596 -0.000528658 -7.44759e-05)
(0.000169202 -0.000515874 -7.44762e-05)
(0.00021352 -0.000499164 -7.44761e-05)
(0.000256212 -0.000478655 -7.44762e-05)
(0.000296955 -0.000454503 -7.4476e-05)
(0.000335437 -0.000426892 -7.44761e-05)
(0.000371367 -0.000396032 -7.44761e-05)
(0.000404471 -0.000362159 -7.4476e-05)
(0.000434496 -0.000325529 -7.44758e-05)
(0.000461214 -0.000286421 -7.44756e-05)
(0.000484422 -0.000245134 -7.44755e-05)
(0.000503943 -0.000201981 -7.44754e-05)
(0.00051963 -0.000157291 -7.44754e-05)
(0.000531361 -0.000111404 -7.44756e-05)
(0.000539049 -6.46687e-05 -7.44758e-05)
(0.000542634 -1.74412e-05 -7.44759e-05)
(0.000542089 2.99187e-05 -7.44759e-05)
(0.000537418 7.70508e-05 -7.44759e-05)
(0.000528658 0.000123596 -7.44759e-05)
(0.000515874 0.000169202 -7.44762e-05)
(0.000499164 0.00021352 -7.44761e-05)
(0.000478655 0.000256212 -7.44762e-05)
(0.000454503 0.000296955 -7.4476e-05)
(0.000426892 0.000335437 -7.44761e-05)
(0.000396032 0.000371367 -7.44761e-05)
(0.000362159 0.000404471 -7.4476e-05)
(0.000325529 0.000434496 -7.44758e-05)
(0.000286421 0.000461214 -7.44756e-05)
(0.000245134 0.000484422 -7.44755e-05)
(0.000201981 0.000503943 -7.44755e-05)
(0.000157291 0.00051963 -7.44754e-05)
(0.000111404 0.000531361 -7.44756e-05)
(6.46687e-05 0.000539049 -7.44758e-05)
(1.74412e-05 0.000542634 -7.44759e-05)
(-2.99187e-05 0.000542089 -7.44759e-05)
(-7.70508e-05 0.000537418 -7.44759e-05)
(-0.000123596 0.000528658 -7.44759e-05)
(-0.000169202 0.000515874 -7.44762e-05)
(-0.00021352 0.000499164 -7.44761e-05)
(-0.00024918 0.000482805 -3.16555e-05)
(-0.000290311 0.00045925 -3.16553e-05)
(-0.000329232 0.0004322 -3.1655e-05)
(-0.000365648 0.000401861 -3.16552e-05)
(-0.000399281 0.000368463 -3.16552e-05)
(-0.000429876 0.000332262 -3.16552e-05)
(-0.000457198 0.000293531 -3.16552e-05)
(-0.000481041 0.000252567 -3.16552e-05)
(-0.000501223 0.000209681 -3.16551e-05)
(-0.000517591 0.000165198 -3.16549e-05)
(-0.000530019 0.000119458 -3.16549e-05)
(-0.000538414 7.28093e-05 -3.16551e-05)
(-0.000542711 2.56063e-05 -3.16553e-05)
(-0.000542878 -2.17914e-05 -3.16555e-05)
(-0.000538913 -6.90231e-05 -3.16555e-05)
(-0.000530846 -0.00011573 -3.16554e-05)
(-0.00051874 -0.000161556 -3.16555e-05)
(-0.000502685 -0.000206152 -3.16554e-05)
(-0.000482805 -0.00024918 -3.16555e-05)
(-0.00045925 -0.000290311 -3.16553e-05)
(-0.0004322 -0.000329232 -3.1655e-05)
(-0.000401861 -0.000365648 -3.16552e-05)
(-0.000368463 -0.000399281 -3.16552e-05)
(-0.000332262 -0.000429876 -3.16552e-05)
(-0.000293531 -0.000457198 -3.16552e-05)
(-0.000252567 -0.000481041 -3.16552e-05)
(-0.000209681 -0.000501223 -3.16552e-05)
(-0.000165198 -0.000517591 -3.16549e-05)
(-0.000119458 -0.000530019 -3.16549e-05)
(-7.28093e-05 -0.000538414 -3.16551e-05)
(-2.56063e-05 -0.000542711 -3.16553e-05)
(2.17914e-05 -0.000542878 -3.16555e-05)
(6.90232e-05 -0.000538913 -3.16555e-05)
(0.00011573 -0.000530846 -3.16554e-05)
(0.000161556 -0.00051874 -3.16555e-05)
(0.000206152 -0.000502685 -3.16554e-05)
(0.00024918 -0.000482805 -3.16555e-05)
(0.000290311 -0.00045925 -3.16553e-05)
(0.000329232 -0.0004322 -3.1655e-05)
(0.000365648 -0.000401861 -3.16552e-05)
(0.000399281 -0.000368463 -3.16552e-05)
(0.000429876 -0.000332262 -3.16552e-05)
(0.000457198 -0.000293531 -3.16552e-05)
(0.000481041 -0.000252567 -3.16552e-05)
(0.000501223 -0.000209681 -3.16552e-05)
(0.000517591 -0.000165198 -3.16549e-05)
(0.000530019 -0.000119458 -3.16549e-05)
(0.000538414 -7.28093e-05 -3.16551e-05)
(0.000542711 -2.56063e-05 -3.16553e-05)
(0.000542878 2.17914e-05 -3.16555e-05)
(0.000538913 6.90232e-05 -3.16555e-05)
(0.000530846 0.00011573 -3.16554e-05)
(0.00051874 0.000161556 -3.16555e-05)
(0.000502685 0.000206152 -3.16554e-05)
(0.000482805 0.00024918 -3.16555e-05)
(0.00045925 0.000290311 -3.16553e-05)
(0.0004322 0.000329232 -3.1655e-05)
(0.000401861 0.000365648 -3.16552e-05)
(0.000368463 0.000399281 -3.16552e-05)
(0.000332262 0.000429876 -3.16552e-05)
(0.000293531 0.000457198 -3.16552e-05)
(0.000252567 0.000481041 -3.16552e-05)
(0.000209681 0.000501223 -3.16552e-05)
(0.000165198 0.000517591 -3.16549e-05)
(0.000119458 0.000530019 -3.16549e-05)
(7.28093e-05 0.000538414 -3.16551e-05)
(2.56063e-05 0.000542711 -3.16553e-05)
(-2.17914e-05 0.000542878 -3.16555e-05)
(-6.90232e-05 0.000538913 -3.16555e-05)
(-0.00011573 0.000530846 -3.16554e-05)
(-0.000161556 0.00051874 -3.16555e-05)
(-0.000206152 0.000502685 -3.16554e-05)
(-0.000429017 0.000796578 -0.000208633)
(-0.000496811 0.000756155 -0.000208633)
(-0.000560823 0.000709978 -0.000208633)
(-0.000620568 0.000658397 -0.000208633)
(-0.00067559 0.000601806 -0.000208633)
(-0.00072547 0.000540634 -0.000208633)
(-0.000769828 0.000475348 -0.000208632)
(-0.000808328 0.000406444 -0.000208632)
(-0.000840676 0.000334447 -0.000208632)
(-0.000866626 0.000259905 -0.000208632)
(-0.00088598 0.000183385 -0.000208632)
(-0.000898592 0.000105469 -0.000208632)
(-0.000904364 2.67497e-05 -0.000208632)
(-0.000903255 -5.21729e-05 -0.000208632)
(-0.00089527 -0.000130698 -0.000208632)
(-0.000880472 -0.000208229 -0.000208632)
(-0.000858973 -0.000284175 -0.000208633)
(-0.000830937 -0.000357958 -0.000208633)
(-0.000796578 -0.000429017 -0.000208633)
(-0.000756155 -0.000496811 -0.000208633)
(-0.000709978 -0.000560823 -0.000208633)
(-0.000658397 -0.000620568 -0.000208633)
(-0.000601806 -0.00067559 -0.000208633)
(-0.000540634 -0.00072547 -0.000208633)
(-0.000475348 -0.000769828 -0.000208632)
(-0.000406444 -0.000808328 -0.000208632)
(-0.000334447 -0.000840676 -0.000208632)
(-0.000259905 -0.000866626 -0.000208632)
(-0.000183385 -0.00088598 -0.000208632)
(-0.000105469 -0.000898592 -0.000208632)
(-2.67497e-05 -0.000904365 -0.000208632)
(5.21729e-05 -0.000903255 -0.000208632)
(0.000130698 -0.00089527 -0.000208632)
(0.000208229 -0.000880472 -0.000208632)
(0.000284175 -0.000858973 -0.000208633)
(0.000357958 -0.000830937 -0.000208633)
(0.000429017 -0.000796578 -0.000208633)
(0.000496811 -0.000756155 -0.000208633)
(0.000560823 -0.000709978 -0.000208633)
(0.000620568 -0.000658397 -0.000208633)
(0.00067559 -0.000601806 -0.000208633)
(0.00072547 -0.000540634 -0.000208633)
(0.000769828 -0.000475348 -0.000208632)
(0.000808328 -0.000406444 -0.000208632)
(0.000840676 -0.000334447 -0.000208632)
(0.000866626 -0.000259905 -0.000208632)
(0.00088598 -0.000183385 -0.000208632)
(0.000898592 -0.000105469 -0.000208632)
(0.000904365 -2.67497e-05 -0.000208632)
(0.000903255 5.21729e-05 -0.000208632)
(0.00089527 0.000130698 -0.000208632)
(0.000880472 0.000208229 -0.000208632)
(0.000858973 0.000284175 -0.000208633)
(0.000830937 0.000357958 -0.000208633)
(0.000796578 0.000429017 -0.000208633)
(0.000756155 0.000496811 -0.000208633)
(0.000709978 0.000560823 -0.000208633)
(0.000658397 0.000620568 -0.000208633)
(0.000601806 0.00067559 -0.000208633)
(0.000540634 0.00072547 -0.000208633)
(0.000475348 0.000769828 -0.000208632)
(0.000406444 0.000808328 -0.000208632)
(0.000334447 0.000840676 -0.000208632)
(0.000259905 0.000866626 -0.000208632)
(0.000183385 0.000885981 -0.000208632)
(0.000105469 0.000898592 -0.000208632)
(2.67497e-05 0.000904365 -0.000208632)
(-5.21729e-05 0.000903255 -0.000208632)
(-0.000130698 0.00089527 -0.000208632)
(-0.000208229 0.000880472 -0.000208632)
(-0.000284175 0.000858973 -0.000208633)
(-0.000357958 0.000830937 -0.000208633)
(-0.000419354 0.00079893 -0.000149607)
(-0.00048739 0.000759341 -0.000149607)
(-0.000551716 0.000713972 -0.000149607)
(-0.000611843 0.000663171 -0.000149607)
(-0.000667314 0.000607321 -0.000149606)
(-0.000717706 0.00054685 -0.000149606)
(-0.000762636 0.000482217 -0.000149606)
(-0.000801762 0.000413914 -0.000149606)
(-0.000834786 0.000342461 -0.000149606)
(-0.000861457 0.000268401 -0.000149606)
(-0.000881571 0.000192299 -0.000149606)
(-0.000894976 0.000114733 -0.000149606)
(-0.00090157 3.62943e-05 -0.000149606)
(-0.000901303 -4.24209e-05 -0.000149606)
(-0.000894176 -0.000120813 -0.000149606)
(-0.000880244 -0.000198286 -0.000149606)
(-0.000859612 -0.00027425 -0.000149607)
(-0.000832439 -0.000348127 -0.000149607)
(-0.00079893 -0.000419354 -0.000149607)
(-0.000759341 -0.00048739 -0.000149607)
(-0.000713972 -0.000551716 -0.000149607)
(-0.000663171 -0.000611843 -0.000149607)
(-0.000607321 -0.000667314 -0.000149606)
(-0.00054685 -0.000717706 -0.000149606)
(-0.000482217 -0.000762636 -0.000149606)
(-0.000413914 -0.000801762 -0.000149606)
(-0.000342461 -0.000834786 -0.000149606)
(-0.000268401 -0.000861457 -0.000149606)
(-0.000192299 -0.000881571 -0.000149606)
(-0.000114733 -0.000894976 -0.000149606)
(-3.62942e-05 -0.000901571 -0.000149606)
(4.24209e-05 -0.000901303 -0.000149606)
(0.000120813 -0.000894176 -0.000149606)
(0.000198286 -0.000880244 -0.000149606)
(0.00027425 -0.000859612 -0.000149607)
(0.000348127 -0.000832439 -0.000149607)
(0.000419354 -0.00079893 -0.000149607)
(0.00048739 -0.000759341 -0.000149607)
(0.000551716 -0.000713972 -0.000149607)
(0.000611843 -0.000663171 -0.000149607)
(0.000667314 -0.000607321 -0.000149606)
(0.000717706 -0.00054685 -0.000149606)
(0.000762636 -0.000482217 -0.000149606)
(0.000801762 -0.000413914 -0.000149606)
(0.000834786 -0.000342461 -0.000149606)
(0.000861457 -0.000268401 -0.000149606)
(0.000881571 -0.000192299 -0.000149606)
(0.000894976 -0.000114733 -0.000149606)
(0.000901571 -3.62942e-05 -0.000149606)
(0.000901303 4.2421e-05 -0.000149606)
(0.000894176 0.000120813 -0.000149606)
(0.000880244 0.000198286 -0.000149606)
(0.000859612 0.00027425 -0.000149607)
(0.000832439 0.000348127 -0.000149607)
(0.00079893 0.000419354 -0.000149607)
(0.000759341 0.00048739 -0.000149607)
(0.000713972 0.000551716 -0.000149607)
(0.000663171 0.000611843 -0.000149607)
(0.000607321 0.000667314 -0.000149606)
(0.00054685 0.000717706 -0.000149606)
(0.000482217 0.000762636 -0.000149606)
(0.000413914 0.000801762 -0.000149606)
(0.000342461 0.000834786 -0.000149606)
(0.000268401 0.000861457 -0.000149606)
(0.000192299 0.000881571 -0.000149606)
(0.000114733 0.000894976 -0.000149606)
(3.62942e-05 0.000901571 -0.000149606)
(-4.24209e-05 0.000901303 -0.000149606)
(-0.000120813 0.000894176 -0.000149606)
(-0.000198286 0.000880244 -0.000149606)
(-0.00027425 0.000859612 -0.000149607)
(-0.000348127 0.000832439 -0.000149607)
(-0.000417582 0.000803575 -9.3919e-05)
(-0.000486029 0.000764123 -9.39187e-05)
(-0.000550777 0.000718855 -9.39186e-05)
(-0.000611333 0.000668116 -9.39187e-05)
(-0.000667237 0.000612293 -9.39188e-05)
(-0.000718063 0.000551809 -9.39188e-05)
(-0.000763424 0.000487127 -9.39189e-05)
(-0.000802975 0.000418736 -9.39188e-05)
(-0.000836414 0.000347159 -9.39189e-05)
(-0.000863489 0.00027294 -9.39187e-05)
(-0.000883991 0.000196643 -9.39187e-05)
(-0.000897766 0.00011885 -9.39188e-05)
(-0.000904708 4.01519e-05 -9.39189e-05)
(-0.000904764 -3.88512e-05 -9.3919e-05)
(-0.000897935 -0.000117559 -9.39189e-05)
(-0.000884272 -0.000195372 -9.39189e-05)
(-0.000863879 -0.000271698 -9.3919e-05)
(-0.000836912 -0.000345956 -9.3919e-05)
(-0.000803575 -0.000417582 -9.3919e-05)
(-0.000764123 -0.000486029 -9.39187e-05)
(-0.000718855 -0.000550777 -9.39186e-05)
(-0.000668116 -0.000611333 -9.39187e-05)
(-0.000612293 -0.000667237 -9.39188e-05)
(-0.000551809 -0.000718063 -9.39188e-05)
(-0.000487127 -0.000763424 -9.39189e-05)
(-0.000418736 -0.000802975 -9.39189e-05)
(-0.000347159 -0.000836414 -9.39189e-05)
(-0.00027294 -0.000863488 -9.39187e-05)
(-0.000196643 -0.000883991 -9.39187e-05)
(-0.00011885 -0.000897766 -9.39188e-05)
(-4.01519e-05 -0.000904708 -9.39189e-05)
(3.88512e-05 -0.000904764 -9.3919e-05)
(0.000117559 -0.000897935 -9.39189e-05)
(0.000195372 -0.000884272 -9.39189e-05)
(0.000271698 -0.000863879 -9.3919e-05)
(0.000345956 -0.000836912 -9.3919e-05)
(0.000417582 -0.000803575 -9.3919e-05)
(0.000486029 -0.000764123 -9.39187e-05)
(0.000550777 -0.000718855 -9.39186e-05)
(0.000611333 -0.000668116 -9.39187e-05)
(0.000667237 -0.000612293 -9.39189e-05)
(0.000718063 -0.000551809 -9.39188e-05)
(0.000763424 -0.000487127 -9.39189e-05)
(0.000802975 -0.000418736 -9.39189e-05)
(0.000836414 -0.000347159 -9.39189e-05)
(0.000863489 -0.00027294 -9.39187e-05)
(0.000883991 -0.000196643 -9.39187e-05)
(0.000897766 -0.00011885 -9.39188e-05)
(0.000904708 -4.01519e-05 -9.39189e-05)
(0.000904764 3.88512e-05 -9.3919e-05)
(0.000897935 0.000117559 -9.39189e-05)
(0.000884272 0.000195372 -9.39189e-05)
(0.000863879 0.000271698 -9.3919e-05)
(0.000836912 0.000345956 -9.3919e-05)
(0.000803575 0.000417582 -9.3919e-05)
(0.000764123 0.000486029 -9.39187e-05)
(0.000718855 0.000550777 -9.39186e-05)
(0.000668116 0.000611333 -9.39187e-05)
(0.000612293 0.000667237 -9.39188e-05)
(0.000551809 0.000718063 -9.39188e-05)
(0.000487127 0.000763424 -9.39189e-05)
(0.000418736 0.000802975 -9.39189e-05)
(0.000347159 0.000836414 -9.3919e-05)
(0.00027294 0.000863489 -9.39187e-05)
(0.000196643 0.000883991 -9.39187e-05)
(0.00011885 0.000897766 -9.39188e-05)
(4.01519e-05 0.000904708 -9.39189e-05)
(-3.88512e-05 0.000904764 -9.3919e-05)
(-0.000117559 0.000897935 -9.3919e-05)
(-0.000195372 0.000884272 -9.39189e-05)
(-0.000271698 0.000863879 -9.3919e-05)
(-0.000345956 0.000836912 -9.3919e-05)
(-0.00057433 0.00111572 -0.000307688)
(-0.000669386 0.00106142 -0.000307688)
(-0.000759348 0.000999037 -0.000307689)
(-0.00084353 0.000929054 -0.000307688)
(-0.000921293 0.000852 -0.000307688)
(-0.000992044 0.000768462 -0.000307688)
(-0.00105524 0.000679076 -0.000307687)
(-0.00111041 0.000584521 -0.000307687)
(-0.00115713 0.000485518 -0.000307687)
(-0.00119505 0.00038282 -0.000307688)
(-0.00122386 0.000277208 -0.000307687)
(-0.00124337 0.000169487 -0.000307687)
(-0.00125341 6.04752e-05 -0.000307687)
(-0.00125391 -4.89964e-05 -0.000307687)
(-0.00124486 -0.000158096 -0.000307687)
(-0.00122635 -0.000265991 -0.000307688)
(-0.0011985 -0.000371862 -0.000307688)
(-0.00116153 -0.000474904 -0.000307688)
(-0.00111572 -0.00057433 -0.000307688)
(-0.00106142 -0.000669386 -0.000307688)
(-0.000999037 -0.000759348 -0.000307689)
(-0.000929054 -0.00084353 -0.000307688)
(-0.000852 -0.000921293 -0.000307688)
(-0.000768462 -0.000992044 -0.000307688)
(-0.000679076 -0.00105524 -0.000307687)
(-0.000584521 -0.00111041 -0.000307687)
(-0.000485518 -0.00115713 -0.000307687)
(-0.00038282 -0.00119505 -0.000307688)
(-0.000277208 -0.00122386 -0.000307687)
(-0.000169487 -0.00124337 -0.000307687)
(-6.04752e-05 -0.00125341 -0.000307687)
(4.89965e-05 -0.00125391 -0.000307687)
(0.000158096 -0.00124486 -0.000307687)
(0.000265991 -0.00122635 -0.000307688)
(0.000371862 -0.0011985 -0.000307688)
(0.000474904 -0.00116153 -0.000307688)
(0.00057433 -0.00111572 -0.000307688)
(0.000669386 -0.00106142 -0.000307688)
(0.000759348 -0.000999037 -0.000307689)
(0.00084353 -0.000929054 -0.000307688)
(0.000921293 -0.000852 -0.000307688)
(0.000992044 -0.000768462 -0.000307688)
(0.00105524 -0.000679076 -0.000307687)
(0.00111041 -0.000584521 -0.000307687)
(0.00115713 -0.000485518 -0.000307687)
(0.00119505 -0.00038282 -0.000307688)
(0.00122386 -0.000277208 -0.000307687)
(0.00124337 -0.000169486 -0.000307687)
(0.00125341 -6.04752e-05 -0.000307687)
(0.00125391 4.89965e-05 -0.000307687)
(0.00124486 0.000158096 -0.000307687)
(0.00122635 0.000265991 -0.000307688)
(0.0011985 0.000371862 -0.000307688)
(0.00116153 0.000474904 -0.000307688)
(0.00111572 0.00057433 -0.000307688)
(0.00106142 0.000669386 -0.000307688)
(0.000999037 0.000759348 -0.000307689)
(0.000929054 0.00084353 -0.000307688)
(0.000852 0.000921293 -0.000307688)
(0.000768462 0.000992044 -0.000307688)
(0.000679076 0.00105524 -0.000307687)
(0.000584521 0.00111041 -0.000307687)
(0.000485518 0.00115713 -0.000307687)
(0.00038282 0.00119505 -0.000307688)
(0.000277208 0.00122386 -0.000307687)
(0.000169487 0.00124337 -0.000307687)
(6.04752e-05 0.00125341 -0.000307687)
(-4.89965e-05 0.00125391 -0.000307687)
(-0.000158096 0.00124486 -0.000307687)
(-0.000265991 0.00122635 -0.000307688)
(-0.000371862 0.0011985 -0.000307688)
(-0.000474904 0.00116153 -0.000307688)
(-0.000569219 0.00111646 -0.000238727)
(-0.000664359 0.0010626 -0.000238727)
(-0.000754443 0.00100066 -0.000238727)
(-0.000838785 0.000931094 -0.000238727)
(-0.000916743 0.000854446 -0.000238727)
(-0.000987724 0.000771295 -0.000238727)
(-0.00105119 0.000682274 -0.000238726)
(-0.00110665 0.000588061 -0.000238726)
(-0.00115369 0.000489372 -0.000238726)
(-0.00119196 0.000386959 -0.000238726)
(-0.00122115 0.000281601 -0.000238727)
(-0.00124104 0.000174099 -0.000238726)
(-0.00125149 6.52729e-05 -0.000238726)
(-0.00125242 -4.40503e-05 -0.000238727)
(-0.00124381 -0.000153038 -0.000238726)
(-0.00122574 -0.000260862 -0.000238727)
(-0.00119834 -0.0003667 -0.000238727)