/*--------------------------------*- C++ -*----------------------------------*\
| =========                 |                                                 |
| \\      /  F ield         | OpenFOAM: The Open Source CFD Toolbox           |
|  \\    /   O peration     | Version:  2312                                  |
|   \\  /    A nd           | Website:  www.openfoam.com                      |
|    \\/     M anipulation  |                                                 |
\*---------------------------------------------------------------------------*/
FoamFile
{
    version     2.0;
    format      ascii;
    arch        "LSB;label=32;scalar=64";
    class       volVectorField;
    location    "0.1";
    object      traction;
}
// * * * * * * * * * * * * * * * * * * * * * * * * * * * * * * * * * * * * * //

dimensions      [1 -1 -2 0 0 0 0];

internalField   uniform (0 0 0);

boundaryField
{
    fixed
    {
        type            calculated;
        value           nonuniform List<vector> 
216
(
(78.6774 2206.98 3460.11)
(-113.98 2205.44 3460.1)
(-305.759 2187.11 3460.12)
(-495.206 2152.15 3460.11)
(-680.896 2100.79 3460.1)
(-861.412 2033.45 3460.09)
(-1035.36 1950.64 3460.11)
(-1201.42 1852.98 3460.1)
(-1358.35 1741.22 3460.09)
(-1504.94 1616.2 3460.1)
(-1640.07 1478.89 3460.11)
(-1762.72 1330.33 3460.12)
(-1871.96 1171.63 3460.09)
(-1966.96 1004.01 3460.1)
(-2046.98 828.755 3460.11)
(-2111.42 647.204 3460.11)
(-2159.79 460.723 3460.1)
(-2191.73 270.726 3460.11)
(-2206.98 78.6774 3460.11)
(-2205.44 -113.98 3460.1)
(-2187.11 -305.759 3460.12)
(-2152.15 -495.206 3460.11)
(-2100.79 -680.896 3460.1)
(-2033.45 -861.412 3460.09)
(-1950.64 -1035.36 3460.11)
(-1852.98 -1201.42 3460.1)
(-1741.22 -1358.35 3460.09)
(-1616.2 -1504.94 3460.1)
(-1478.89 -1640.07 3460.11)
(-1330.33 -1762.72 3460.12)
(-1171.63 -1871.96 3460.09)
(-1004.01 -1966.96 3460.1)
(-828.755 -2046.98 3460.11)
(-647.204 -2111.42 3460.11)
(-460.723 -2159.79 3460.1)
(-270.726 -2191.73 3460.11)
(-78.6774 -2206.98 3460.11)
(113.98 -2205.44 3460.1)
(305.759 -2187.11 3460.12)
(495.206 -2152.15 3460.11)
(680.896 -2100.79 3460.1)
(861.412 -2033.45 3460.09)
(1035.36 -1950.64 3460.11)
(1201.42 -1852.98 3460.1)
(1358.35 -1741.22 3460.09)
(1504.94 -1616.2 3460.1)
(1640.07 -1478.89 3460.11)
(1762.72 -1330.33 3460.12)
(1871.96 -1171.63 3460.09)
(1966.96 -1004.01 3460.1)
(2046.98 -828.755 3460.11)
(2111.42 -647.204 3460.11)
(2159.79 -460.723 3460.1)
(2191.73 -270.726 3460.11)
(2206.98 -78.6774 3460.11)
(2205.44 113.98 3460.1)
(2187.11 305.759 3460.12)
(2152.15 495.206 3460.11)
(2100.79 680.896 3460.1)
(2033.45 861.412 3460.09)
(1950.64 1035.36 3460.11)
(1852.98 1201.42 3460.1)
(1741.22 1358.35 3460.09)
(1616.2 1504.94 3460.1)
(1478.89 1640.07 3460.11)
(1330.33 1762.72 3460.12)
(1171.63 1871.96 3460.09)
(1004.01 1966.96 3460.1)
(828.755 2046.98 3460.11)
(647.204 2111.42 3460.11)
(460.723 2159.79 3460.1)
(270.726 2191.73 3460.11)
(152.03 -186.473 213.034)
(167.703 -172.513 213.031)
(182.101 -157.24 213.037)
(195.116 -140.781 213.038)
(206.645 -123.245 213.027)
(216.599 -104.763 213.022)
(224.899 -85.4772 213.028)
(231.493 -65.5506 213.039)
(236.319 -45.1194 213.029)
(239.352 -24.3492 213.024)
(240.569 -3.40022 213.034)
(239.951 17.5785 213.03)
(237.516 38.4193 213.027)
(233.268 58.9727 213.031)
(227.236 79.08 213.034)
(219.468 98.5861 213.035)
(210.039 117.339 213.032)
(199.013 135.199 213.032)
(186.473 152.03 213.034)
(172.513 167.703 213.031)
(157.24 182.101 213.037)
(140.781 195.116 213.037)
(123.245 206.645 213.027)
(104.763 216.599 213.022)
(85.4772 224.899 213.028)
(65.5502 231.492 213.039)
(45.1194 236.319 213.029)
(24.3492 239.352 213.024)
(3.40022 240.569 213.034)
(-17.5785 239.951 213.03)
(-38.4193 237.516 213.027)
(-58.9727 233.268 213.031)
(-79.08 227.236 213.034)
(-98.5861 219.468 213.035)
(-117.339 210.039 213.032)
(-135.199 199.013 213.032)
(-152.03 186.473 213.034)
(-167.703 172.513 213.031)
(-182.101 157.24 213.037)
(-195.116 140.781 213.037)
(-206.645 123.245 213.027)
(-216.599 104.763 213.022)
(-224.899 85.4772 213.028)
(-231.492 65.5502 213.039)
(-236.319 45.1194 213.029)
(-239.352 24.3492 213.024)
(-240.569 3.40022 213.034)
(-239.951 -17.5785 213.03)
(-237.516 -38.4194 213.027)
(-233.268 -58.9727 213.031)
(-227.236 -79.08 213.034)
(-219.468 -98.5861 213.035)
(-210.039 -117.339 213.032)
(-199.013 -135.199 213.032)
(-186.473 -152.03 213.034)
(-172.513 -167.703 213.031)
(-157.24 -182.101 213.037)
(-140.781 -195.116 213.037)
(-123.245 -206.645 213.027)
(-104.763 -216.599 213.022)
(-85.4772 -224.899 213.028)
(-65.5502 -231.492 213.039)
(-45.1194 -236.319 213.029)
(-24.3492 -239.352 213.024)
(-3.40022 -240.569 213.034)
(17.5785 -239.951 213.03)
(38.4194 -237.516 213.027)
(58.9727 -233.268 213.031)
(79.08 -227.236 213.034)
(98.5861 -219.468 213.035)
(117.339 -210.039 213.032)
(135.199 -199.013 213.032)
(435.92 -3942.77 1663.3)
(777.893 -3889.78 1663.3)
(1113.94 -3807.18 1663.31)
(1441.52 -3695.6 1663.31)
(1758.14 -3555.9 1663.3)
(2061.37 -3389.14 1663.3)
(2348.9 -3196.59 1663.31)
(2618.57 -2979.69 1663.31)
(2868.3 -2740.13 1663.3)
(3096.19 -2479.72 1663.28)
(3300.53 -2200.44 1663.3)
(3479.76 -1904.4 1663.31)
(3632.5 -1593.88 1663.31)
(3757.6 -1271.22 1663.32)
(3854.09 -938.871 1663.31)
(3921.26 -599.392 1663.31)
(3958.57 -255.359 1663.3)
(3965.76 90.6225 1663.3)
(3942.77 435.92 1663.3)
(3889.78 777.893 1663.3)
(3807.18 1113.94 1663.31)
(3695.6 1441.52 1663.31)
(3555.9 1758.14 1663.3)
(3389.14 2061.37 1663.3)
(3196.59 2348.9 1663.31)
(2979.69 2618.57 1663.31)
(2740.13 2868.3 1663.3)
(2479.72 3096.19 1663.28)
(2200.44 3300.53 1663.3)
(1904.4 3479.76 1663.31)
(1593.88 3632.5 1663.31)
(1271.22 3757.6 1663.32)
(938.871 3854.09 1663.31)
(599.392 3921.26 1663.31)
(255.359 3958.57 1663.3)
(-90.6225 3965.76 1663.3)
(-435.92 3942.77 1663.3)
(-777.893 3889.78 1663.3)
(-1113.94 3807.18 1663.31)
(-1441.52 3695.6 1663.31)
(-1758.14 3555.9 1663.3)
(-2061.37 3389.14 1663.3)
(-2348.9 3196.59 1663.31)
(-2618.57 2979.69 1663.31)
(-2868.3 2740.13 1663.3)
(-3096.19 2479.72 1663.28)
(-3300.53 2200.44 1663.3)
(-3479.76 1904.4 1663.31)
(-3632.5 1593.88 1663.31)
(-3757.6 1271.22 1663.32)
(-3854.09 938.871 1663.31)
(-3921.26 599.392 1663.31)
(-3958.57 255.359 1663.3)
(-3965.76 -90.6225 1663.3)
(-3942.77 -435.92 1663.3)
(-3889.78 -777.893 1663.3)
(-3807.18 -1113.94 1663.31)
(-3695.6 -1441.52 1663.31)
(-3555.9 -1758.14 1663.3)
(-3389.14 -2061.37 1663.3)
(-3196.59 -2348.9 1663.31)
(-2979.69 -2618.57 1663.31)
(-2740.13 -2868.3 1663.3)
(-2479.72 -3096.19 1663.28)
(-2200.44 -3300.53 1663.3)
(-1904.4 -3479.76 1663.31)
(-1593.88 -3632.5 1663.31)
(-1271.22 -3757.6 1663.32)
(-938.871 -3854.09 1663.31)
(-599.392 -3921.26 1663.31)
(-255.359 -3958.57 1663.3)
(90.6225 -3965.76 1663.3)
)
;
    }
    inside
    {
        type            calculated;
        value           nonuniform List<vector> 
1080
(
(1174.51 260.666 -193.301)
(1147.33 362.032 -193.274)
(1111.4 460.653 -193.313)
(1067.02 555.76 -193.289)
(1014.53 646.653 -193.292)
(954.316 732.622 -193.276)
(886.818 813.005 -193.327)
(812.581 887.194 -193.289)
(732.182 954.637 -193.286)
(646.207 1014.82 -193.273)
(555.278 1067.28 -193.306)
(460.142 1111.62 -193.283)
(361.51 1147.49 -193.32)
(260.127 1174.62 -193.293)
(156.762 1192.83 -193.291)
(52.2026 1201.96 -193.275)
(-52.7503 1201.93 -193.305)
(-157.306 1192.76 -193.287)
(-260.666 1174.51 -193.301)
(-362.032 1147.33 -193.274)
(-460.653 1111.4 -193.313)
(-555.76 1067.02 -193.289)
(-646.653 1014.53 -193.292)
(-732.622 954.316 -193.276)
(-813.005 886.818 -193.327)
(-887.194 812.581 -193.289)
(-954.637 732.182 -193.286)
(-1014.82 646.207 -193.273)
(-1067.28 555.278 -193.306)
(-1111.62 460.142 -193.283)
(-1147.49 361.51 -193.32)
(-1174.62 260.127 -193.293)
(-1192.83 156.762 -193.291)
(-1201.96 52.2025 -193.275)
(-1201.93 -52.7503 -193.305)
(-1192.76 -157.306 -193.287)
(-1174.51 -260.666 -193.301)
(-1147.33 -362.032 -193.274)
(-1111.4 -460.653 -193.313)
(-1067.02 -555.76 -193.289)
(-1014.53 -646.653 -193.292)
(-954.316 -732.622 -193.276)
(-886.818 -813.005 -193.327)
(-812.581 -887.194 -193.289)
(-732.182 -954.637 -193.286)
(-646.207 -1014.82 -193.273)
(-555.278 -1067.28 -193.306)
(-460.142 -1111.62 -193.283)
(-361.51 -1147.49 -193.32)
(-260.127 -1174.62 -193.293)
(-156.762 -1192.83 -193.291)
(-52.2026 -1201.96 -193.275)
(52.7503 -1201.93 -193.305)
(157.306 -1192.76 -193.287)
(260.666 -1174.51 -193.301)
(362.032 -1147.33 -193.274)
(460.653 -1111.4 -193.313)
(555.76 -1067.02 -193.289)
(646.653 -1014.53 -193.292)
(732.622 -954.316 -193.276)
(813.005 -886.818 -193.327)
(887.194 -812.581 -193.289)
(954.637 -732.181 -193.286)
(1014.82 -646.207 -193.273)
(1067.28 -555.278 -193.306)
(1111.62 -460.142 -193.283)
(1147.49 -361.51 -193.32)
(1174.62 -260.127 -193.293)
(1192.83 -156.762 -193.291)
(1201.96 -52.2025 -193.275)
(1201.93 52.7503 -193.305)
(1192.76 157.306 -193.287)
(1818.89 209.262 213.552)
(1793.73 366.985 213.538)
(1754.92 521.913 213.527)
(1702.76 672.875 213.543)
(1637.64 818.722 213.521)
(1560.04 958.351 213.543)
(1470.58 1090.66 213.519)
(1369.92 1214.68 213.538)
(1258.84 1329.47 213.536)
(1138.18 1434.11 213.509)
(1008.85 1527.84 213.525)
(871.854 1609.96 213.548)
(728.225 1679.82 213.521)
(579.046 1736.91 213.549)
(425.466 1780.77 213.531)
(268.643 1811.07 213.546)
(109.78 1827.59 213.537)
(-49.9238 1830.2 213.513)
(-209.262 1818.89 213.552)
(-366.985 1793.73 213.538)
(-521.913 1754.92 213.527)
(-672.875 1702.76 213.543)
(-818.722 1637.64 213.521)
(-958.351 1560.04 213.543)
(-1090.66 1470.58 213.519)
(-1214.68 1369.92 213.538)
(-1329.47 1258.84 213.536)
(-1434.11 1138.18 213.509)
(-1527.84 1008.85 213.525)
(-1609.96 871.854 213.548)
(-1679.82 728.225 213.521)
(-1736.91 579.046 213.549)
(-1780.77 425.466 213.531)
(-1811.07 268.643 213.546)
(-1827.59 109.78 213.537)
(-1830.2 -49.9238 213.513)
(-1818.89 -209.262 213.552)
(-1793.73 -366.985 213.538)
(-1754.92 -521.913 213.527)
(-1702.76 -672.875 213.543)
(-1637.64 -818.722 213.521)
(-1560.04 -958.351 213.543)
(-1470.58 -1090.66 213.519)
(-1369.92 -1214.68 213.538)
(-1258.84 -1329.47 213.536)
(-1138.18 -1434.11 213.509)
(-1008.85 -1527.84 213.525)
(-871.854 -1609.96 213.548)
(-728.225 -1679.82 213.521)
(-579.046 -1736.91 213.549)
(-425.466 -1780.77 213.531)
(-268.643 -1811.07 213.546)
(-109.78 -1827.59 213.537)
(49.9238 -1830.2 213.513)
(209.262 -1818.89 213.552)
(366.985 -1793.73 213.538)
(521.913 -1754.92 213.527)
(672.875 -1702.76 213.543)
(818.722 -1637.64 213.521)
(958.351 -1560.04 213.543)
(1090.66 -1470.58 213.519)
(1214.68 -1369.92 213.538)
(1329.47 -1258.84 213.537)
(1434.11 -1138.18 213.509)
(1527.84 -1008.85 213.525)
(1609.96 -871.854 213.548)
(1679.82 -728.225 213.521)
(1736.91 -579.046 213.549)
(1780.77 -425.466 213.531)
(1811.07 -268.643 213.546)
(1827.59 -109.78 213.537)
(1830.2 49.9238 213.513)
(1897.32 366.383 232.833)
(1858.16 530.361 232.834)
(1804.86 690.292 232.825)
(1737.83 844.966 232.82)
(1657.58 993.206 232.837)
(1564.71 1133.89 232.837)
(1459.93 1265.95 232.837)
(1344.04 1388.37 232.827)
(1217.93 1500.24 232.856)
(1082.54 1600.67 232.82)
(938.904 1688.93 232.845)
(788.138 1764.34 232.835)
(631.366 1826.32 232.836)
(469.784 1874.4 232.825)
(304.62 1908.21 232.828)
(137.154 1927.49 232.83)
(-31.3559 1932.11 232.823)
(-199.626 1922.03 232.836)
(-366.383 1897.32 232.833)
(-530.361 1858.16 232.834)
(-690.292 1804.86 232.825)
(-844.966 1737.83 232.82)
(-993.207 1657.58 232.837)
(-1133.89 1564.71 232.837)
(-1265.95 1459.93 232.837)
(-1388.37 1344.04 232.827)
(-1500.24 1217.93 232.856)
(-1600.67 1082.54 232.82)
(-1688.93 938.904 232.845)
(-1764.34 788.138 232.835)
(-1826.32 631.366 232.836)
(-1874.4 469.784 232.825)
(-1908.21 304.62 232.828)
(-1927.49 137.154 232.83)
(-1932.11 -31.3559 232.823)
(-1922.03 -199.626 232.836)
(-1897.32 -366.383 232.833)
(-1858.16 -530.361 232.834)
(-1804.86 -690.292 232.825)
(-1737.83 -844.966 232.82)
(-1657.58 -993.207 232.837)
(-1564.71 -1133.89 232.837)
(-1459.93 -1265.95 232.837)
(-1344.04 -1388.37 232.827)
(-1217.93 -1500.24 232.856)
(-1082.54 -1600.67 232.82)
(-938.904 -1688.93 232.845)
(-788.138 -1764.34 232.835)
(-631.366 -1826.32 232.836)
(-469.784 -1874.4 232.825)
(-304.62 -1908.21 232.828)
(-137.154 -1927.49 232.83)
(31.3559 -1932.11 232.823)
(199.625 -1922.03 232.836)
(366.383 -1897.32 232.833)
(530.361 -1858.16 232.834)
(690.292 -1804.86 232.825)
(844.966 -1737.83 232.82)
(993.207 -1657.58 232.837)
(1133.89 -1564.71 232.837)
(1265.95 -1459.93 232.837)
(1388.37 -1344.04 232.827)
(1500.24 -1217.93 232.856)
(1600.67 -1082.54 232.82)
(1688.93 -938.904 232.845)
(1764.34 -788.138 232.835)
(1826.32 -631.366 232.836)
(1874.4 -469.784 232.825)
(1908.21 -304.62 232.828)
(1927.49 -137.154 232.83)
(1932.11 31.3559 232.823)
(1922.03 199.626 232.836)
(2071.78 571.069 230.129)
(2014.12 749.467 230.149)
(1941.14 922.165 230.158)
(1853.39 1087.82 230.153)
(1751.53 1245.23 230.172)
(1636.34 1393.15 230.125)
(1508.68 1530.47 230.147)
(1369.55 1656.12 230.146)
(1219.99 1769.2 230.142)
(1061.16 1868.78 230.141)
(894.247 1954.16 230.148)
(720.523 2024.66 230.134)
(541.321 2079.77 230.163)
(358.015 2119.01 230.134)
(171.968 2142.15 230.165)
(-15.3908 2148.99 230.141)
(-202.639 2139.47 230.15)
(-388.346 2113.68 230.16)
(-571.069 2071.78 230.129)
(-749.467 2014.12 230.149)
(-922.165 1941.14 230.158)
(-1087.82 1853.39 230.153)
(-1245.23 1751.53 230.172)
(-1393.15 1636.34 230.125)
(-1530.47 1508.68 230.147)
(-1656.12 1369.55 230.146)
(-1769.2 1219.99 230.142)
(-1868.78 1061.16 230.141)
(-1954.16 894.247 230.148)
(-2024.66 720.522 230.134)
(-2079.77 541.321 230.163)
(-2119.01 358.015 230.134)
(-2142.15 171.968 230.165)
(-2148.99 -15.3908 230.141)
(-2139.47 -202.639 230.15)
(-2113.68 -388.346 230.16)
(-2071.78 -571.069 230.129)
(-2014.12 -749.467 230.149)
(-1941.14 -922.165 230.158)
(-1853.39 -1087.82 230.153)
(-1751.53 -1245.23 230.172)
(-1636.34 -1393.15 230.125)
(-1508.68 -1530.47 230.147)
(-1369.55 -1656.12 230.146)
(-1219.99 -1769.2 230.142)
(-1061.16 -1868.78 230.141)
(-894.247 -1954.16 230.148)
(-720.523 -2024.66 230.134)
(-541.321 -2079.77 230.163)
(-358.015 -2119.01 230.134)
(-171.968 -2142.15 230.165)
(15.3908 -2148.99 230.141)
(202.639 -2139.47 230.15)
(388.346 -2113.68 230.16)
(571.069 -2071.78 230.129)
(749.467 -2014.12 230.149)
(922.165 -1941.14 230.158)
(1087.82 -1853.39 230.153)
(1245.23 -1751.53 230.172)
(1393.15 -1636.34 230.125)
(1530.47 -1508.68 230.147)
(1656.12 -1369.55 230.146)
(1769.2 -1219.99 230.142)
(1868.78 -1061.16 230.141)
(1954.16 -894.247 230.148)
(2024.66 -720.522 230.134)
(2079.77 -541.321 230.163)
(2119.01 -358.015 230.134)
(2142.15 -171.968 230.165)
(2148.99 15.3908 230.141)
(2139.47 202.639 230.15)
(2113.68 388.346 230.16)
(2246.28 802.14 219.282)
(2167.82 994.867 219.273)
(2072.85 1180.04 219.314)
(1962.12 1356.19 219.265)
(1836.45 1522.06 219.291)
(1696.82 1676.31 219.273)
(1544.27 1817.82 219.312)
(1379.95 1945.48 219.276)
(1205.13 2058.36 219.295)
(1021.15 2155.55 219.283)
(829.397 2236.37 219.303)
(631.345 2300.13 219.276)
(428.454 2346.42 219.3)
(222.317 2374.82 219.271)
(14.4862 2385.16 219.3)
(-193.423 2377.34 219.259)
(-399.907 2351.44 219.298)
(-603.328 2307.65 219.292)
(-802.14 2246.28 219.283)
(-994.867 2167.82 219.273)
(-1180.04 2072.85 219.314)
(-1356.19 1962.12 219.265)
(-1522.06 1836.45 219.291)
(-1676.31 1696.82 219.273)
(-1817.83 1544.27 219.312)
(-1945.48 1379.95 219.276)
(-2058.36 1205.13 219.295)
(-2155.55 1021.15 219.283)
(-2236.37 829.397 219.303)
(-2300.13 631.345 219.276)
(-2346.41 428.454 219.3)
(-2374.82 222.317 219.271)
(-2385.16 14.4862 219.3)
(-2377.34 -193.423 219.259)
(-2351.44 -399.907 219.298)
(-2307.65 -603.328 219.292)
(-2246.28 -802.14 219.283)
(-2167.82 -994.867 219.273)
(-2072.85 -1180.04 219.314)
(-1962.12 -1356.19 219.265)
(-1836.45 -1522.06 219.291)
(-1696.82 -1676.31 219.273)
(-1544.27 -1817.83 219.312)
(-1379.95 -1945.48 219.276)
(-1205.13 -2058.36 219.295)
(-1021.15 -2155.55 219.283)
(-829.397 -2236.37 219.303)
(-631.345 -2300.13 219.276)
(-428.454 -2346.41 219.3)
(-222.317 -2374.82 219.271)
(-14.4862 -2385.16 219.3)
(193.423 -2377.34 219.259)
(399.907 -2351.44 219.298)
(603.328 -2307.65 219.292)
(802.14 -2246.28 219.282)
(994.867 -2167.82 219.273)
(1180.04 -2072.85 219.314)
(1356.19 -1962.12 219.265)
(1522.06 -1836.45 219.291)
(1676.31 -1696.82 219.273)
(1817.83 -1544.27 219.312)
(1945.48 -1379.95 219.276)
(2058.36 -1205.13 219.295)
(2155.55 -1021.15 219.283)
(2236.37 -829.397 219.303)
(2300.13 -631.345 219.277)
(2346.41 -428.454 219.3)
(2374.82 -222.317 219.271)
(2385.16 -14.4862 219.3)
(2377.34 193.423 219.259)
(2351.44 399.907 219.298)
(2307.65 603.328 219.292)
(2418.26 1050.78 203.987)
(2317.46 1257.51 203.933)
(2199.04 1454.75 203.997)
(2063.88 1640.84 203.941)
(1913.03 1814.49 203.98)
(1747.61 1974.33 203.98)
(1568.88 2119.12 203.958)
(1378.21 2247.79 203.968)
(1177.07 2359.37 203.986)
(966.964 2452.96 203.948)
(749.487 2527.91 203.966)
(526.302 2583.62 203.966)
(299.141 2619.64 203.96)
(69.6858 2635.75 203.96)
(-160.322 2631.8 203.996)
(-389.062 2607.8 203.93)
(-614.9 2563.99 203.998)
(-836.001 2500.63 203.941)
(-1050.78 2418.26 203.987)
(-1257.51 2317.46 203.933)
(-1454.75 2199.04 203.997)
(-1640.84 2063.88 203.941)
(-1814.49 1913.03 203.98)
(-1974.33 1747.61 203.98)
(-2119.12 1568.88 203.958)
(-2247.79 1378.21 203.968)
(-2359.37 1177.07 203.986)
(-2452.96 966.964 203.948)
(-2527.91 749.487 203.966)
(-2583.62 526.302 203.966)
(-2619.64 299.141 203.96)
(-2635.75 69.6858 203.96)
(-2631.8 -160.322 203.996)
(-2607.8 -389.062 203.93)
(-2563.99 -614.9 203.998)
(-2500.63 -836.001 203.941)
(-2418.26 -1050.78 203.987)
(-2317.46 -1257.51 203.933)
(-2199.04 -1454.75 203.997)
(-2063.88 -1640.84 203.941)
(-1913.03 -1814.49 203.98)
(-1747.61 -1974.33 203.98)
(-1568.88 -2119.12 203.958)
(-1378.21 -2247.79 203.968)
(-1177.07 -2359.37 203.986)
(-966.964 -2452.96 203.948)
(-749.487 -2527.91 203.966)
(-526.302 -2583.62 203.966)
(-299.141 -2619.64 203.96)
(-69.6858 -2635.75 203.96)
(160.322 -2631.8 203.996)
(389.062 -2607.8 203.93)
(614.9 -2563.99 203.998)
(836.001 -2500.63 203.941)
(1050.78 -2418.26 203.987)
(1257.51 -2317.46 203.933)
(1454.75 -2199.04 203.997)
(1640.84 -2063.88 203.941)
(1814.49 -1913.03 203.98)
(1974.33 -1747.61 203.98)
(2119.12 -1568.88 203.958)
(2247.79 -1378.21 203.968)
(2359.37 -1177.07 203.987)
(2452.96 -966.964 203.948)
(2527.91 -749.487 203.966)
(2583.62 -526.302 203.966)
(2619.64 -299.141 203.96)
(2635.75 -69.6858 203.96)
(2631.8 160.322 203.996)
(2607.8 389.062 203.93)
(2563.99 614.9 203.998)
(2500.63 836.001 203.941)
(2575.63 1306.39 185.851)
(2451.96 1525.88 185.812)
(2309.64 1733.78 185.838)
(2149.74 1928.48 185.817)
(1973.49 2108.52 185.839)
(1782.21 2272.48 185.813)
(1577.37 2419.15 185.809)
(1360.51 2547.46 185.863)
(1133.31 2656.33 185.812)
(897.486 2744.99 185.837)
(654.845 2812.74 185.796)
(407.177 2859.14 185.846)
(156.442 2883.75 185.836)
(-95.4643 2886.4 185.814)
(-346.68 2867.11 185.831)
(-595.235 2825.98 185.822)
(-839.288 2763.35 185.84)
(-1076.91 2679.67 185.802)
(-1306.39 2575.63 185.851)
(-1525.88 2451.96 185.812)
(-1733.78 2309.64 185.838)
(-1928.48 2149.74 185.817)
(-2108.52 1973.49 185.839)
(-2272.48 1782.21 185.813)
(-2419.15 1577.37 185.809)
(-2547.46 1360.51 185.863)
(-2656.33 1133.31 185.812)
(-2744.99 897.486 185.836)
(-2812.74 654.845 185.796)
(-2859.14 407.176 185.847)
(-2883.75 156.442 185.836)
(-2886.4 -95.4642 185.813)
(-2867.11 -346.68 185.831)
(-2825.98 -595.235 185.822)
(-2763.35 -839.288 185.84)
(-2679.67 -1076.91 185.802)
(-2575.63 -1306.39 185.851)
(-2451.96 -1525.88 185.812)
(-2309.64 -1733.78 185.838)
(-2149.74 -1928.48 185.817)
(-1973.49 -2108.52 185.839)
(-1782.21 -2272.48 185.813)
(-1577.37 -2419.15 185.809)
(-1360.51 -2547.46 185.863)
(-1133.31 -2656.33 185.812)
(-897.486 -2744.99 185.836)
(-654.845 -2812.74 185.796)
(-407.176 -2859.14 185.847)
(-156.442 -2883.75 185.836)
(95.4642 -2886.4 185.813)
(346.68 -2867.11 185.831)
(595.235 -2825.98 185.822)
(839.288 -2763.35 185.84)
(1076.91 -2679.67 185.802)
(1306.39 -2575.63 185.851)
(1525.88 -2451.96 185.812)
(1733.78 -2309.64 185.838)
(1928.48 -2149.74 185.817)
(2108.52 -1973.49 185.839)
(2272.48 -1782.21 185.813)
(2419.16 -1577.37 185.809)
(2547.47 -1360.51 185.863)
(2656.33 -1133.31 185.812)
(2744.99 -897.486 185.836)
(2812.74 -654.845 185.796)
(2859.14 -407.176 185.847)
(2883.75 -156.442 185.836)
(2886.4 95.4642 185.813)
(2867.11 346.68 185.831)
(2825.98 595.235 185.822)
(2763.35 839.288 185.84)
(2679.67 1076.91 185.802)
(2700.71 1550.93 169.139)
(2555.26 1780.43 169.132)
(2390.35 1996.36 169.134)
(2207.26 2197.09 169.155)
(2007.38 2381.11 169.144)
(1792.22 2546.97 169.124)
(1563.41 2693.5 169.14)
(1322.71 2819.53 169.155)
(1071.94 2924.04 169.108)
(812.993 3006.38 169.171)
(547.907 3065.77 169.126)
(278.611 3101.87 169.145)
(7.18865 3114.37 169.164)
(-264.256 3103.12 169.132)
(-533.695 3068.28 169.129)
(-799.103 3010.09 169.137)
(-1058.41 2928.99 169.141)
(-1309.65 2825.6 169.144)
(-1550.93 2700.71 169.139)
(-1780.43 2555.26 169.132)
(-1996.36 2390.35 169.134)
(-2197.09 2207.26 169.155)
(-2381.11 2007.38 169.144)
(-2546.97 1792.22 169.124)
(-2693.5 1563.41 169.14)
(-2819.53 1322.71 169.155)
(-2924.04 1071.94 169.108)
(-3006.38 812.993 169.171)
(-3065.77 547.907 169.126)
(-3101.87 278.611 169.145)
(-3114.37 7.18865 169.165)
(-3103.12 -264.256 169.132)
(-3068.28 -533.695 169.129)
(-3010.09 -799.103 169.137)
(-2928.99 -1058.41 169.141)
(-2825.6 -1309.65 169.144)
(-2700.71 -1550.93 169.138)
(-2555.26 -1780.43 169.132)
(-2390.35 -1996.36 169.134)
(-2207.26 -2197.09 169.155)
(-2007.38 -2381.11 169.144)
(-1792.22 -2546.97 169.124)
(-1563.42 -2693.5 169.14)
(-1322.71 -2819.53 169.155)
(-1071.94 -2924.04 169.108)
(-812.993 -3006.38 169.171)
(-547.907 -3065.77 169.126)
(-278.611 -3101.87 169.145)
(-7.18866 -3114.37 169.165)
(264.256 -3103.12 169.132)
(533.695 -3068.28 169.129)
(799.103 -3010.09 169.137)
(1058.41 -2928.99 169.141)
(1309.65 -2825.6 169.144)
(1550.93 -2700.71 169.139)
(1780.43 -2555.26 169.132)
(1996.36 -2390.35 169.134)
(2197.09 -2207.26 169.155)
(2381.11 -2007.38 169.144)
(2546.97 -1792.22 169.124)
(2693.5 -1563.42 169.14)
(2819.53 -1322.71 169.155)
(2924.04 -1071.94 169.108)
(3006.38 -812.993 169.171)
(3065.77 -547.907 169.126)
(3101.87 -278.611 169.145)
(3114.37 -7.18865 169.165)
(3103.12 264.256 169.132)
(3068.28 533.695 169.129)
(3010.09 799.103 169.137)
(2928.99 1058.41 169.141)
(2825.6 1309.65 169.144)
(2766.92 1748.77 165.059)
(2603.98 1983.28 165.09)
(2421.22 2202.7 165.106)
(2220.02 2405.35 165.109)
(2001.92 2589.66 165.08)
(1768.61 2754.32 165.104)
(1521.83 2897.96 165.078)
(1263.46 3019.58 165.12)
(995.506 3118.15 165.061)
(719.929 3193.13 165.149)
(438.91 3243.68 165.071)
(154.513 3269.6 165.104)
(-131.032 3270.61 165.075)
(-415.607 3246.75 165.105)
(-696.978 3198.18 165.076)
(-973.062 3125.25 165.09)
(-1241.76 3028.56 165.106)
(-1501.01 2908.83 165.129)
(-1748.77 2766.92 165.059)
(-1983.28 2603.98 165.09)
(-2202.7 2421.22 165.106)
(-2405.35 2220.02 165.109)
(-2589.66 2001.92 165.08)
(-2754.32 1768.61 165.104)
(-2897.96 1521.83 165.078)
(-3019.58 1263.46 165.12)
(-3118.15 995.506 165.061)
(-3193.13 719.929 165.149)
(-3243.68 438.91 165.071)
(-3269.6 154.513 165.104)
(-3270.61 -131.032 165.075)
(-3246.75 -415.607 165.105)
(-3198.18 -696.979 165.075)
(-3125.25 -973.062 165.09)
(-3028.56 -1241.76 165.106)
(-2908.83 -1501.01 165.129)
(-2766.92 -1748.77 165.059)
(-2603.98 -1983.28 165.09)
(-2421.22 -2202.7 165.106)
(-2220.02 -2405.35 165.109)
(-2001.92 -2589.66 165.08)
(-1768.61 -2754.32 165.104)
(-1521.83 -2897.96 165.078)
(-1263.46 -3019.58 165.12)
(-995.506 -3118.15 165.061)
(-719.929 -3193.13 165.149)
(-438.91 -3243.68 165.071)
(-154.513 -3269.6 165.104)
(131.032 -3270.61 165.075)
(415.607 -3246.75 165.105)
(696.979 -3198.18 165.075)
(973.062 -3125.25 165.09)
(1241.76 -3028.56 165.106)
(1501.01 -2908.83 165.129)
(1748.77 -2766.92 165.059)
(1983.28 -2603.98 165.09)
(2202.7 -2421.22 165.106)
(2405.35 -2220.02 165.109)
(2589.66 -2001.92 165.08)
(2754.32 -1768.61 165.104)
(2897.96 -1521.83 165.078)
(3019.58 -1263.46 165.12)
(3118.15 -995.506 165.061)
(3193.13 -719.929 165.149)
(3243.69 -438.91 165.071)
(3269.6 -154.513 165.104)
(3270.61 131.032 165.075)
(3246.75 415.607 165.105)
(3198.18 696.979 165.075)
(3125.25 973.062 165.09)
(3028.56 1241.76 165.106)
(2908.83 1501.01 165.129)
(2741.66 1840.24 189.267)
(2570.85 2072.23 189.345)
(2380.46 2288.4 189.293)
(2171.95 2487.18 189.344)
(1946.91 2666.98 189.311)
(1707.06 2826.56 189.349)
(1454.22 2964.55 189.294)
(1190.3 3080.05 189.343)
(917.328 3172.02 189.291)
(637.355 3239.96 189.347)
(352.572 3283.14 189.292)
(65.0726 3301.39 189.347)
(-222.87 3294.47 189.299)
(-509.174 3262.53 189.342)
(-791.574 3205.72 189.302)
(-1067.99 3124.56 189.336)
(-1336.22 3019.57 189.303)
(-1594.37 2891.65 189.366)
(-1840.24 2741.66 189.267)
(-2072.23 2570.85 189.345)
(-2288.4 2380.46 189.293)
(-2487.18 2171.95 189.344)
(-2666.98 1946.91 189.311)
(-2826.56 1707.06 189.349)
(-2964.55 1454.22 189.294)
(-3080.05 1190.3 189.343)
(-3172.02 917.328 189.291)
(-3239.96 637.355 189.348)
(-3283.14 352.572 189.292)
(-3301.39 65.0726 189.347)
(-3294.47 -222.87 189.299)
(-3262.53 -509.174 189.342)
(-3205.72 -791.574 189.302)
(-3124.56 -1067.99 189.336)
(-3019.57 -1336.22 189.303)
(-2891.65 -1594.37 189.366)
(-2741.66 -1840.24 189.267)
(-2570.85 -2072.23 189.345)
(-2380.46 -2288.4 189.293)
(-2171.95 -2487.18 189.344)
(-1946.91 -2666.98 189.311)
(-1707.06 -2826.56 189.349)
(-1454.22 -2964.55 189.294)
(-1190.3 -3080.05 189.343)
(-917.328 -3172.02 189.291)
(-637.355 -3239.96 189.348)
(-352.572 -3283.14 189.292)
(-65.0726 -3301.39 189.347)
(222.87 -3294.47 189.299)
(509.174 -3262.53 189.342)
(791.574 -3205.72 189.302)
(1067.99 -3124.56 189.336)
(1336.22 -3019.57 189.303)
(1594.37 -2891.65 189.366)
(1840.24 -2741.66 189.267)
(2072.23 -2570.85 189.345)
(2288.4 -2380.46 189.293)
(2487.18 -2171.95 189.344)
(2666.98 -1946.91 189.311)
(2826.56 -1707.06 189.349)
(2964.55 -1454.22 189.294)
(3080.05 -1190.3 189.343)
(3172.02 -917.328 189.291)
(3239.96 -637.355 189.348)
(3283.14 -352.572 189.291)
(3301.39 -65.0727 189.347)
(3294.47 222.87 189.299)
(3262.53 509.174 189.342)
(3205.72 791.574 189.302)
(3124.56 1067.99 189.336)
(3019.57 1336.22 189.303)
(2891.65 1594.37 189.366)
(2596.57 1753.2 242.857)
(2433.9 1972.89 242.928)
(2252.68 2177.47 242.887)
(2054.34 2365.55 242.93)
(1840.34 2535.55 242.879)
(1612.34 2686.36 242.933)
(1372.09 2816.61 242.883)
(1121.4 2925.52 242.919)
(862.16 3012.07 242.859)
(596.32 3075.82 242.946)
(326.001 3116.05 242.893)
(53.1671 3132.62 242.926)
(-220.041 3125.29 242.872)
(-491.623 3094.26 242.938)
(-759.405 3039.62 242.876)
(-1021.46 2961.89 242.92)
(-1275.69 2861.57 242.871)
(-1520.29 2739.52 242.946)
(-1753.2 2596.57 242.856)
(-1972.89 2433.9 242.928)
(-2177.47 2252.68 242.887)
(-2365.55 2054.34 242.93)
(-2535.55 1840.34 242.879)
(-2686.36 1612.34 242.933)
(-2816.61 1372.09 242.883)
(-2925.52 1121.4 242.919)
(-3012.07 862.16 242.859)
(-3075.82 596.32 242.946)
(-3116.05 326 242.893)
(-3132.62 53.1671 242.926)
(-3125.29 -220.041 242.872)
(-3094.26 -491.623 242.938)
(-3039.62 -759.405 242.876)
(-2961.89 -1021.46 242.92)
(-2861.57 -1275.69 242.871)
(-2739.51 -1520.29 242.946)
(-2596.57 -1753.2 242.857)
(-2433.9 -1972.89 242.928)
(-2252.68 -2177.47 242.887)
(-2054.34 -2365.55 242.93)
(-1840.34 -2535.55 242.879)
(-1612.34 -2686.36 242.933)
(-1372.09 -2816.61 242.883)
(-1121.4 -2925.52 242.919)
(-862.16 -3012.07 242.859)
(-596.32 -3075.82 242.946)
(-326.001 -3116.05 242.893)
(-53.1671 -3132.62 242.926)
(220.041 -3125.29 242.872)
(491.623 -3094.26 242.938)
(759.405 -3039.62 242.876)
(1021.46 -2961.89 242.92)
(1275.69 -2861.57 242.871)
(1520.29 -2739.51 242.946)
(1753.2 -2596.57 242.856)
(1972.89 -2433.9 242.928)
(2177.47 -2252.68 242.887)
(2365.55 -2054.34 242.93)
(2535.55 -1840.34 242.879)
(2686.36 -1612.34 242.933)
(2816.61 -1372.09 242.883)
(2925.52 -1121.4 242.919)
(3012.07 -862.16 242.859)
(3075.82 -596.32 242.946)
(3116.05 -326 242.893)
(3132.62 -53.1671 242.926)
(3125.29 220.041 242.872)
(3094.26 491.623 242.938)
(3039.62 759.405 242.876)
(2961.89 1021.46 242.92)
(2861.57 1275.69 242.871)
(2739.52 1520.29 242.946)
(2316.67 1438.84 275.787)
(2182.48 1635.31 275.865)
(2031.64 1819.26 275.807)
(1865.35 1989.42 275.845)
(1684.86 2144.42 275.788)
(1491.55 2283.14 275.88)
(1286.88 2404.42 275.784)
(1072.43 2507.45 275.848)
(849.825 2591.36 275.793)
(620.735 2655.59 275.855)
(386.922 2699.55 275.809)
(150.154 2723.03 275.852)
(-87.7077 2725.71 275.786)
(-324.982 2707.74 275.843)
(-559.741 2669.08 275.808)
(-790.232 2610.17 275.847)
(-1014.66 2531.33 275.787)
(-1231.47 2433.29 275.855)
(-1438.84 2316.67 275.787)
(-1635.31 2182.48 275.865)
(-1819.26 2031.64 275.807)
(-1989.42 1865.35 275.845)
(-2144.42 1684.86 275.788)
(-2283.14 1491.55 275.88)
(-2404.42 1286.88 275.784)
(-2507.45 1072.43 275.848)
(-2591.36 849.825 275.793)
(-2655.59 620.735 275.855)
(-2699.55 386.922 275.809)
(-2723.03 150.154 275.852)
(-2725.71 -87.7077 275.786)
(-2707.74 -324.982 275.843)
(-2669.08 -559.741 275.808)
(-2610.17 -790.231 275.847)
(-2531.33 -1014.66 275.787)
(-2433.29 -1231.47 275.855)
(-2316.67 -1438.84 275.787)
(-2182.48 -1635.31 275.865)
(-2031.64 -1819.26 275.807)
(-1865.35 -1989.42 275.845)
(-1684.86 -2144.42 275.788)
(-1491.55 -2283.14 275.88)
(-1286.88 -2404.42 275.784)
(-1072.43 -2507.45 275.848)
(-849.825 -2591.36 275.793)
(-620.735 -2655.59 275.855)
(-386.922 -2699.55 275.809)
(-150.154 -2723.03 275.852)
(87.7077 -2725.71 275.786)
(324.982 -2707.74 275.843)
(559.741 -2669.08 275.808)
(790.231 -2610.17 275.847)
(1014.66 -2531.33 275.787)
(1231.47 -2433.29 275.855)
(1438.84 -2316.67 275.787)
(1635.31 -2182.48 275.865)
(1819.26 -2031.64 275.807)
(1989.42 -1865.35 275.845)
(2144.42 -1684.86 275.788)
(2283.14 -1491.55 275.88)
(2404.42 -1286.88 275.784)
(2507.45 -1072.43 275.848)
(2591.36 -849.825 275.793)
(2655.59 -620.735 275.855)
(2699.55 -386.922 275.809)
(2723.03 -150.154 275.852)
(2725.71 87.7077 275.786)
(2707.74 324.982 275.843)
(2669.08 559.741 275.808)
(2610.17 790.231 275.847)