/*--------------------------------*- C++ -*----------------------------------*\
| =========                 |                                                 |
| \\      /  F ield         | OpenFOAM: The Open Source CFD Toolbox           |
|  \\    /   O peration     | Version:  2312                                  |
|   \\  /    A nd           | Website:  www.openfoam.com                      |
|    \\/     M anipulation  |                                                 |
\*---------------------------------------------------------------------------*/
FoamFile
{
    version     2.0;
    format      ascii;
    arch        "LSB;label=32;scalar=64";
    class       volVectorField;
    location    "0.1";
    object      U;
}
// * * * * * * * * * * * * * * * * * * * * * * * * * * * * * * * * * * * * * //

dimensions      [0 1 -1 0 0 0 0];

internalField   nonuniform List<vector> 
3240
(
(-0.00117727 0.00138459 -0.000441339)
(-0.00129347 0.00127672 -0.000441337)
(-0.00139981 0.00115913 -0.00044134)
(-0.00149551 0.00103271 -0.00044134)
(-0.00157983 0.000898441 -0.000441339)
(-0.00165212 0.00075733 -0.000441338)
(-0.00171184 0.00061046 -0.000441334)
(-0.00175853 0.000458941 -0.000441335)
(-0.00179184 0.000303931 -0.000441337)
(-0.00181151 0.000146606 -0.000441339)
(-0.00181739 -1.18374e-05 -0.00044134)
(-0.00180945 -0.000170191 -0.000441341)
(-0.00178773 -0.00032725 -0.000441338)
(-0.0017524 -0.000481815 -0.000441337)
(-0.00170374 -0.000632709 -0.000441334)
(-0.00164211 -0.000778793 -0.000441337)
(-0.00156799 -0.000918951 -0.000441341)
(-0.00148193 -0.00105212 -0.000441338)
(-0.00138459 -0.00117727 -0.000441339)
(-0.00127672 -0.00129347 -0.000441337)
(-0.00115913 -0.00139981 -0.00044134)
(-0.00103271 -0.00149551 -0.00044134)
(-0.000898441 -0.00157983 -0.000441339)
(-0.00075733 -0.00165212 -0.000441338)
(-0.00061046 -0.00171184 -0.000441334)
(-0.000458941 -0.00175853 -0.000441335)
(-0.000303931 -0.00179184 -0.000441337)
(-0.000146606 -0.00181151 -0.000441339)
(1.18374e-05 -0.00181739 -0.00044134)
(0.000170191 -0.00180945 -0.000441341)
(0.00032725 -0.00178773 -0.000441338)
(0.000481815 -0.0017524 -0.000441337)
(0.000632709 -0.00170374 -0.000441334)
(0.000778793 -0.00164211 -0.000441337)
(0.000918951 -0.00156799 -0.000441341)
(0.00105212 -0.00148193 -0.000441338)
(0.00117727 -0.00138459 -0.000441339)
(0.00129347 -0.00127672 -0.000441337)
(0.00139981 -0.00115913 -0.00044134)
(0.00149551 -0.00103271 -0.00044134)
(0.00157983 -0.000898441 -0.000441339)
(0.00165212 -0.00075733 -0.000441338)
(0.00171184 -0.00061046 -0.000441334)
(0.00175853 -0.000458941 -0.000441335)
(0.00179184 -0.000303931 -0.000441337)
(0.00181151 -0.000146606 -0.000441339)
(0.00181739 1.18374e-05 -0.00044134)
(0.00180945 0.000170191 -0.000441341)
(0.00178773 0.00032725 -0.000441338)
(0.0017524 0.000481815 -0.000441337)
(0.00170374 0.000632709 -0.000441334)
(0.00164211 0.000778793 -0.000441337)
(0.00156799 0.000918951 -0.000441341)
(0.00148193 0.00105211 -0.000441338)
(0.00138459 0.00117727 -0.000441339)
(0.00127672 0.00129347 -0.000441337)
(0.00115913 0.00139981 -0.00044134)
(0.00103271 0.00149551 -0.00044134)
(0.000898441 0.00157983 -0.000441339)
(0.00075733 0.00165212 -0.000441338)
(0.00061046 0.00171184 -0.000441334)
(0.000458941 0.00175853 -0.000441335)
(0.000303931 0.00179184 -0.000441337)
(0.000146606 0.00181151 -0.000441339)
(-1.18374e-05 0.00181739 -0.00044134)
(-0.000170191 0.00180945 -0.000441341)
(-0.00032725 0.00178773 -0.000441338)
(-0.000481815 0.0017524 -0.000441337)
(-0.000632709 0.00170374 -0.000441334)
(-0.000778793 0.00164211 -0.000441337)
(-0.000918951 0.00156799 -0.000441341)
(-0.00105212 0.00148193 -0.000441338)
(-0.00097215 0.00152998 -0.00019024)
(-0.0011018 0.00143943 -0.000190239)
(-0.00122306 0.00133792 -0.00019024)
(-0.00133501 0.00122623 -0.00019024)
(-0.0014368 0.00110521 -0.00019024)
(-0.00152766 0.000975781 -0.000190239)
(-0.00160689 0.000838923 -0.000190238)
(-0.0016739 0.000695682 -0.000190237)
(-0.00172816 0.000547148 -0.000190238)
(-0.00176927 0.000394447 -0.00019024)
(-0.00179691 0.000238742 -0.00019024)
(-0.00181089 8.12205e-05 -0.00019024)
(-0.00181107 -7.69188e-05 -0.000190239)
(-0.00179748 -0.000234471 -0.000190238)
(-0.0017702 -0.000390238 -0.000190239)
(-0.00172946 -0.000543036 -0.000190239)
(-0.00167555 -0.000691702 -0.000190241)
(-0.00160888 -0.000835104 -0.00019024)
(-0.00152998 -0.00097215 -0.00019024)
(-0.00143943 -0.0011018 -0.000190239)
(-0.00133792 -0.00122306 -0.00019024)
(-0.00122623 -0.00133501 -0.00019024)
(-0.00110521 -0.0014368 -0.00019024)
(-0.000975781 -0.00152766 -0.000190239)
(-0.000838923 -0.00160689 -0.000190238)
(-0.000695682 -0.0016739 -0.000190237)
(-0.000547148 -0.00172816 -0.000190238)
(-0.000394447 -0.00176927 -0.00019024)
(-0.000238742 -0.00179691 -0.00019024)
(-8.12205e-05 -0.00181089 -0.00019024)
(7.69188e-05 -0.00181107 -0.000190239)
(0.000234471 -0.00179748 -0.000190238)
(0.000390238 -0.0017702 -0.000190239)
(0.000543036 -0.00172946 -0.000190239)
(0.000691702 -0.00167555 -0.000190241)
(0.000835104 -0.00160888 -0.00019024)
(0.00097215 -0.00152998 -0.00019024)
(0.0011018 -0.00143943 -0.000190239)
(0.00122306 -0.00133792 -0.00019024)
(0.00133501 -0.00122623 -0.00019024)
(0.0014368 -0.00110521 -0.00019024)
(0.00152766 -0.000975781 -0.000190239)
(0.00160689 -0.000838923 -0.000190238)
(0.0016739 -0.000695682 -0.000190237)
(0.00172816 -0.000547148 -0.000190238)
(0.00176927 -0.000394447 -0.00019024)
(0.00179691 -0.000238742 -0.00019024)
(0.00181089 -8.12206e-05 -0.00019024)
(0.00181107 7.69188e-05 -0.000190239)
(0.00179748 0.000234471 -0.000190238)
(0.0017702 0.000390238 -0.000190239)
(0.00172946 0.000543036 -0.000190239)
(0.00167555 0.000691702 -0.000190241)
(0.00160888 0.000835104 -0.00019024)
(0.00152998 0.00097215 -0.00019024)
(0.00143943 0.0011018 -0.000190239)
(0.00133792 0.00122306 -0.00019024)
(0.00122623 0.00133501 -0.00019024)
(0.00110521 0.0014368 -0.00019024)
(0.000975781 0.00152766 -0.000190239)
(0.000838923 0.00160689 -0.000190238)
(0.000695682 0.0016739 -0.000190237)
(0.000547148 0.00172816 -0.000190238)
(0.000394447 0.00176927 -0.00019024)
(0.000238742 0.00179691 -0.00019024)
(8.12205e-05 0.00181089 -0.00019024)
(-7.69188e-05 0.00181107 -0.000190239)
(-0.000234471 0.00179748 -0.000190238)
(-0.000390238 0.0017702 -0.000190239)
(-0.000543036 0.00172946 -0.000190239)
(-0.000691702 0.00167555 -0.000190241)
(-0.000835104 0.00160888 -0.00019024)
(-0.000921964 0.00170355 5.37941e-05)
(-0.00106693 0.00161671 5.37946e-05)
(-0.00120378 0.00151757 5.37957e-05)
(-0.00133146 0.00140688 5.37945e-05)
(-0.00144901 0.00128548 5.37938e-05)
(-0.00155553 0.0011543 5.3794e-05)
(-0.00165021 0.00101433 5.37951e-05)
(-0.00173234 0.000866646 5.37941e-05)
(-0.00180129 0.000712369 5.37947e-05)
(-0.00185652 0.000552666 5.37938e-05)
(-0.00189762 0.000388754 5.37941e-05)
(-0.00192428 0.000221885 5.37947e-05)
(-0.0019363 5.33277e-05 5.37953e-05)
(-0.00193358 -0.000115635 5.3794e-05)
(-0.00191614 -0.000283716 5.37924e-05)
(-0.00188412 -0.000449638 5.37931e-05)
(-0.00183776 -0.000612138 5.3794e-05)
(-0.00177742 -0.000769981 5.37942e-05)
(-0.00170355 -0.000921964 5.37941e-05)
(-0.00161671 -0.00106693 5.37946e-05)
(-0.00151757 -0.00120378 5.37957e-05)
(-0.00140688 -0.00133146 5.37945e-05)
(-0.00128548 -0.00144901 5.37938e-05)
(-0.0011543 -0.00155553 5.3794e-05)
(-0.00101433 -0.00165021 5.37951e-05)
(-0.000866646 -0.00173234 5.37941e-05)
(-0.000712369 -0.00180129 5.37946e-05)
(-0.000552666 -0.00185652 5.37938e-05)
(-0.000388754 -0.00189762 5.37941e-05)
(-0.000221885 -0.00192428 5.37947e-05)
(-5.33277e-05 -0.0019363 5.37953e-05)
(0.000115635 -0.00193358 5.3794e-05)
(0.000283716 -0.00191614 5.37924e-05)
(0.000449638 -0.00188412 5.37931e-05)
(0.000612138 -0.00183776 5.3794e-05)
(0.000769981 -0.00177742 5.37942e-05)
(0.000921964 -0.00170355 5.37941e-05)
(0.00106693 -0.00161671 5.37946e-05)
(0.00120378 -0.00151757 5.37957e-05)
(0.00133146 -0.00140688 5.37944e-05)
(0.00144901 -0.00128548 5.37937e-05)
(0.00155553 -0.0011543 5.3794e-05)
(0.00165021 -0.00101433 5.37951e-05)
(0.00173234 -0.000866646 5.37941e-05)
(0.00180129 -0.000712369 5.37946e-05)
(0.00185652 -0.000552666 5.37938e-05)
(0.00189762 -0.000388754 5.37941e-05)
(0.00192428 -0.000221885 5.37947e-05)
(0.0019363 -5.33277e-05 5.37953e-05)
(0.00193358 0.000115635 5.3794e-05)
(0.00191614 0.000283716 5.37924e-05)
(0.00188412 0.000449638 5.37931e-05)
(0.00183776 0.000612138 5.3794e-05)
(0.00177742 0.000769981 5.37942e-05)
(0.00170355 0.000921964 5.37941e-05)
(0.00161671 0.00106693 5.37946e-05)
(0.00151757 0.00120378 5.37957e-05)
(0.00140688 0.00133146 5.37945e-05)
(0.00128548 0.00144901 5.37938e-05)
(0.0011543 0.00155553 5.3794e-05)
(0.00101433 0.00165021 5.37951e-05)
(0.000866646 0.00173234 5.37941e-05)
(0.000712369 0.00180129 5.37946e-05)
(0.000552666 0.00185652 5.37937e-05)
(0.000388754 0.00189762 5.37941e-05)
(0.000221885 0.00192428 5.37947e-05)
(5.33277e-05 0.0019363 5.37953e-05)
(-0.000115635 0.00193358 5.3794e-05)
(-0.000283716 0.00191614 5.37924e-05)
(-0.000449638 0.00188412 5.37931e-05)
(-0.000612138 0.00183776 5.3794e-05)
(-0.000769981 0.00177742 5.37942e-05)
(-0.00300616 0.00410774 -0.0012851)
(-0.00335273 0.0038301 -0.0012851)
(-0.00367378 0.00352332 -0.0012851)
(-0.00396688 0.00318972 -0.0012851)
(-0.00422979 0.00283184 -0.0012851)
(-0.00446051 0.00245242 -0.00128509)
(-0.00465728 0.00205433 -0.00128509)
(-0.0048186 0.00164061 -0.00128509)
(-0.00494325 0.0012144 -0.00128508)
(-0.00503028 0.000778946 -0.00128509)
(-0.00507903 0.000337564 -0.00128509)
(-0.00508912 -0.00010639 -0.0012851)
(-0.00506048 -0.000549537 -0.0012851)
(-0.00499333 -0.000988496 -0.00128509)
(-0.00488818 -0.00141993 -0.00128509)
(-0.00474582 -0.00184055 -0.00128509)
(-0.00456734 -0.00224718 -0.0012851)
(-0.00435411 -0.0026367 -0.0012851)
(-0.00410774 -0.00300616 -0.0012851)
(-0.0038301 -0.00335273 -0.0012851)
(-0.00352332 -0.00367378 -0.0012851)
(-0.00318972 -0.00396688 -0.0012851)
(-0.00283184 -0.00422979 -0.0012851)
(-0.00245242 -0.00446051 -0.00128509)
(-0.00205433 -0.00465728 -0.00128509)
(-0.00164061 -0.0048186 -0.00128509)
(-0.0012144 -0.00494325 -0.00128508)
(-0.000778946 -0.00503028 -0.00128509)
(-0.000337564 -0.00507903 -0.00128509)
(0.00010639 -0.00508912 -0.0012851)
(0.000549537 -0.00506048 -0.0012851)
(0.000988496 -0.00499333 -0.00128509)
(0.00141993 -0.00488818 -0.00128509)
(0.00184055 -0.00474582 -0.00128509)
(0.00224718 -0.00456734 -0.0012851)
(0.0026367 -0.00435411 -0.0012851)
(0.00300616 -0.00410774 -0.0012851)
(0.00335273 -0.0038301 -0.0012851)
(0.00367378 -0.00352332 -0.0012851)
(0.00396688 -0.00318972 -0.0012851)
(0.00422979 -0.00283184 -0.0012851)
(0.00446051 -0.00245242 -0.00128509)
(0.00465728 -0.00205433 -0.00128509)
(0.0048186 -0.00164061 -0.00128509)
(0.00494325 -0.0012144 -0.00128508)
(0.00503028 -0.000778946 -0.00128509)
(0.00507903 -0.000337564 -0.00128509)
(0.00508912 0.00010639 -0.0012851)
(0.00506048 0.000549537 -0.0012851)
(0.00499333 0.000988496 -0.00128509)
(0.00488818 0.00141993 -0.00128509)
(0.00474582 0.00184055 -0.00128509)
(0.00456734 0.00224718 -0.0012851)
(0.00435411 0.0026367 -0.0012851)
(0.00410774 0.00300616 -0.0012851)
(0.0038301 0.00335273 -0.0012851)
(0.00352332 0.00367378 -0.0012851)
(0.00318972 0.00396688 -0.0012851)
(0.00283184 0.00422979 -0.0012851)
(0.00245242 0.00446051 -0.00128509)
(0.00205433 0.00465728 -0.00128509)
(0.00164061 0.0048186 -0.00128509)
(0.0012144 0.00494325 -0.00128508)
(0.000778946 0.00503028 -0.00128509)
(0.000337564 0.00507903 -0.00128509)
(-0.00010639 0.00508912 -0.0012851)
(-0.000549537 0.00506048 -0.0012851)
(-0.000988496 0.00499333 -0.00128509)
(-0.00141993 0.00488818 -0.00128509)
(-0.00184055 0.00474582 -0.00128509)
(-0.00224718 0.00456734 -0.0012851)
(-0.0026367 0.00435411 -0.0012851)
(-0.0029194 0.00459852 -0.000673501)
(-0.00330907 0.00432658 -0.000673499)
(-0.00367356 0.00402171 -0.0006735)
(-0.0040101 0.00368623 -0.0006735)
(-0.00431612 0.00332271 -0.000673499)
(-0.00458929 0.00293389 -0.000673497)
(-0.00482753 0.00252274 -0.000673494)
(-0.00502903 0.0020924 -0.000673494)
(-0.00519226 0.00164613 -0.000673493)
(-0.00531597 0.00118733 -0.000673493)
(-0.00539922 0.000719491 -0.000673495)
(-0.00544139 0.000246178 -0.000673497)
(-0.00544213 -0.00022901 -0.000673498)
(-0.00540147 -0.000702451 -0.000673497)
(-0.00531969 -0.00117054 -0.000673497)
(-0.00519742 -0.00162973 -0.000673498)
(-0.00503561 -0.00207652 -0.0006735)
(-0.00483546 -0.0025075 -0.0006735)
(-0.00459852 -0.0029194 -0.000673501)
(-0.00432658 -0.00330907 -0.000673499)
(-0.00402171 -0.00367356 -0.0006735)
(-0.00368623 -0.0040101 -0.0006735)
(-0.00332271 -0.00431612 -0.000673499)
(-0.00293389 -0.00458929 -0.000673497)
(-0.00252274 -0.00482753 -0.000673494)
(-0.0020924 -0.00502903 -0.000673494)
(-0.00164613 -0.00519226 -0.000673493)
(-0.00118733 -0.00531597 -0.000673493)
(-0.000719491 -0.00539922 -0.000673495)
(-0.000246178 -0.00544139 -0.000673497)
(0.00022901 -0.00544213 -0.000673498)
(0.000702451 -0.00540147 -0.000673497)
(0.00117054 -0.00531969 -0.000673497)
(0.00162973 -0.00519742 -0.000673498)
(0.00207652 -0.00503561 -0.0006735)
(0.0025075 -0.00483546 -0.0006735)
(0.0029194 -0.00459852 -0.000673501)
(0.00330907 -0.00432658 -0.000673499)
(0.00367356 -0.00402171 -0.0006735)
(0.0040101 -0.00368623 -0.0006735)
(0.00431612 -0.00332271 -0.000673499)
(0.00458929 -0.00293389 -0.000673497)
(0.00482753 -0.00252274 -0.000673494)
(0.00502903 -0.0020924 -0.000673494)
(0.00519226 -0.00164613 -0.000673493)
(0.00531597 -0.00118733 -0.000673493)
(0.00539922 -0.000719491 -0.000673495)
(0.00544139 -0.000246178 -0.000673497)
(0.00544213 0.00022901 -0.000673498)
(0.00540147 0.000702451 -0.000673497)
(0.00531969 0.00117054 -0.000673497)
(0.00519742 0.00162973 -0.000673498)
(0.00503561 0.00207652 -0.0006735)
(0.00483546 0.0025075 -0.0006735)
(0.00459852 0.0029194 -0.000673501)
(0.00432658 0.00330907 -0.000673499)
(0.00402171 0.00367356 -0.0006735)
(0.00368623 0.0040101 -0.0006735)
(0.00332271 0.00431612 -0.000673499)
(0.00293389 0.00458929 -0.000673497)
(0.00252274 0.00482753 -0.000673494)
(0.0020924 0.00502903 -0.000673494)
(0.00164613 0.00519226 -0.000673493)
(0.00118733 0.00531597 -0.000673493)
(0.000719491 0.00539922 -0.000673495)
(0.000246178 0.00544139 -0.000673497)
(-0.00022901 0.00544213 -0.000673498)
(-0.000702451 0.00540147 -0.000673497)
(-0.00117054 0.00531969 -0.000673497)
(-0.00162973 0.00519742 -0.000673498)
(-0.00207652 0.00503561 -0.0006735)
(-0.0025075 0.00483546 -0.0006735)
(-0.0030165 0.00515234 -9.50166e-05)
(-0.00345408 0.00486983 -9.50143e-05)
(-0.00386536 0.00455025 -9.50121e-05)
(-0.00424723 0.00419605 -9.5014e-05)
(-0.00459678 0.00380991 -9.50139e-05)
(-0.00491135 0.00339478 -9.5014e-05)
(-0.00518853 0.00295381 -9.5014e-05)
(-0.00542623 0.00249036 -9.50143e-05)
(-0.00562263 0.00200796 -9.50136e-05)
(-0.00577624 0.00151027 -9.50112e-05)
(-0.00588588 0.00100109 -9.5011e-05)
(-0.00595074 0.000484291 -9.50134e-05)
(-0.00597031 -3.61943e-05 -9.50147e-05)
(-0.00594443 -0.000556402 -9.50166e-05)
(-0.00587332 -0.00107237 -9.50161e-05)
(-0.0057575 -0.00158018 -9.50141e-05)
(-0.00559788 -0.00207597 -9.50151e-05)
(-0.00539564 -0.00255596 -9.50152e-05)
(-0.00515234 -0.0030165 -9.50166e-05)
(-0.00486983 -0.00345408 -9.50143e-05)
(-0.00455025 -0.00386536 -9.50121e-05)
(-0.00419605 -0.00424723 -9.5014e-05)
(-0.00380991 -0.00459678 -9.5014e-05)
(-0.00339478 -0.00491135 -9.5014e-05)
(-0.00295381 -0.00518853 -9.50141e-05)
(-0.00249036 -0.00542623 -9.50144e-05)
(-0.00200796 -0.00562263 -9.50137e-05)
(-0.00151027 -0.00577624 -9.50113e-05)
(-0.00100109 -0.00588588 -9.50111e-05)
(-0.000484291 -0.00595074 -9.50135e-05)
(3.61943e-05 -0.00597031 -9.50148e-05)
(0.000556402 -0.00594443 -9.50166e-05)
(0.00107237 -0.00587332 -9.50161e-05)
(0.00158018 -0.0057575 -9.50141e-05)
(0.00207597 -0.00559788 -9.50151e-05)
(0.00255596 -0.00539564 -9.50152e-05)
(0.0030165 -0.00515234 -9.50166e-05)
(0.00345408 -0.00486983 -9.50143e-05)
(0.00386536 -0.00455025 -9.50121e-05)
(0.00424723 -0.00419605 -9.5014e-05)
(0.00459678 -0.00380991 -9.5014e-05)
(0.00491135 -0.00339478 -9.5014e-05)
(0.00518853 -0.00295381 -9.50141e-05)
(0.00542623 -0.00249036 -9.50144e-05)
(0.00562263 -0.00200796 -9.50137e-05)
(0.00577624 -0.00151027 -9.50113e-05)
(0.00588588 -0.00100109 -9.50111e-05)
(0.00595074 -0.000484291 -9.50135e-05)
(0.00597031 3.61943e-05 -9.50148e-05)
(0.00594443 0.000556402 -9.50166e-05)
(0.00587332 0.00107237 -9.50161e-05)
(0.0057575 0.00158018 -9.50141e-05)
(0.00559788 0.00207597 -9.50151e-05)
(0.00539564 0.00255596 -9.50151e-05)
(0.00515234 0.0030165 -9.50166e-05)
(0.00486983 0.00345408 -9.50142e-05)
(0.00455025 0.00386536 -9.5012e-05)
(0.00419605 0.00424723 -9.50139e-05)
(0.00380991 0.00459678 -9.50139e-05)
(0.00339478 0.00491135 -9.5014e-05)
(0.00295381 0.00518853 -9.50141e-05)
(0.00249036 0.00542623 -9.50144e-05)
(0.00200796 0.00562263 -9.50137e-05)
(0.00151027 0.00577624 -9.50113e-05)
(0.00100109 0.00588588 -9.50111e-05)
(0.000484291 0.00595074 -9.50135e-05)
(-3.61943e-05 0.00597031 -9.50148e-05)
(-0.000556402 0.00594443 -9.50166e-05)
(-0.00107237 0.00587332 -9.50161e-05)
(-0.00158018 0.0057575 -9.50141e-05)
(-0.00207597 0.00559788 -9.50151e-05)
(-0.00255596 0.00539564 -9.50152e-05)
(-0.00466806 0.00681715 -0.00221806)
(-0.00524444 0.00638436 -0.00221806)
(-0.00578092 0.00590298 -0.00221806)
(-0.0062734 0.00537668 -0.00221806)
(-0.00671814 0.00480945 -0.00221806)
(-0.00711175 0.00420563 -0.00221805)
(-0.00745123 0.0035698 -0.00221805)
(-0.007734 0.0029068 -0.00221805)
(-0.00795792 0.00222167 -0.00221805)
(-0.00812127 0.00151964 -0.00221805)
(-0.00822281 0.000806048 -0.00221805)
(-0.00826176 8.63169e-05 -0.00221805)
(-0.00823785 -0.000634076 -0.00221805)
(-0.00815124 -0.00134964 -0.00221805)
(-0.00800259 -0.00205493 -0.00221805)
(-0.00779304 -0.00274458 -0.00221805)
(-0.00752417 -0.00341335 -0.00221806)
(-0.00719805 -0.00405614 -0.00221806)
(-0.00681715 -0.00466806 -0.00221806)
(-0.00638436 -0.00524444 -0.00221806)
(-0.00590298 -0.00578092 -0.00221806)
(-0.00537668 -0.0062734 -0.00221806)
(-0.00480945 -0.00671814 -0.00221806)
(-0.00420563 -0.00711175 -0.00221805)
(-0.0035698 -0.00745123 -0.00221805)
(-0.0029068 -0.007734 -0.00221805)
(-0.00222167 -0.00795792 -0.00221805)
(-0.00151964 -0.00812127 -0.00221805)
(-0.000806048 -0.00822281 -0.00221805)
(-8.63168e-05 -0.00826176 -0.00221805)
(0.000634076 -0.00823785 -0.00221805)
(0.00134964 -0.00815124 -0.00221805)
(0.00205493 -0.00800259 -0.00221805)
(0.00274458 -0.00779304 -0.00221805)
(0.00341335 -0.00752417 -0.00221806)
(0.00405614 -0.00719805 -0.00221806)
(0.00466806 -0.00681715 -0.00221806)
(0.00524444 -0.00638436 -0.00221806)
(0.00578092 -0.00590298 -0.00221806)
(0.0062734 -0.00537668 -0.00221806)
(0.00671814 -0.00480945 -0.00221806)
(0.00711175 -0.00420563 -0.00221805)
(0.00745123 -0.0035698 -0.00221805)
(0.007734 -0.0029068 -0.00221805)
(0.00795792 -0.00222167 -0.00221805)
(0.00812127 -0.00151964 -0.00221805)
(0.00822281 -0.000806048 -0.00221805)
(0.00826176 -8.63169e-05 -0.00221805)
(0.00823785 0.000634076 -0.00221805)
(0.00815124 0.00134964 -0.00221805)
(0.00800259 0.00205493 -0.00221805)
(0.00779304 0.00274458 -0.00221805)
(0.00752417 0.00341335 -0.00221806)
(0.00719805 0.00405614 -0.00221806)
(0.00681715 0.00466806 -0.00221806)
(0.00638436 0.00524444 -0.00221806)
(0.00590298 0.00578092 -0.00221806)
(0.00537668 0.0062734 -0.00221806)
(0.00480945 0.00671814 -0.00221806)
(0.00420563 0.00711175 -0.00221805)
(0.0035698 0.00745123 -0.00221805)
(0.0029068 0.007734 -0.00221805)
(0.00222167 0.00795792 -0.00221805)
(0.00151964 0.00812127 -0.00221805)
(0.000806048 0.00822281 -0.00221805)
(8.63168e-05 0.00826176 -0.00221805)
(-0.000634076 0.00823785 -0.00221805)
(-0.00134964 0.00815124 -0.00221805)
(-0.00205493 0.00800259 -0.00221805)
(-0.00274458 0.00779304 -0.00221805)
(-0.00341335 0.00752417 -0.00221806)
(-0.00405614 0.00719805 -0.00221806)
(-0.00472033 0.00767868 -0.00135393)
(-0.00537161 0.00723806 -0.00135393)
(-0.00598201 0.00674235 -0.00135393)
(-0.00654688 0.00619533 -0.00135393)
(-0.00706193 0.00560115 -0.00135393)
(-0.00752322 0.00496435 -0.00135393)
(-0.00792727 0.00428977 -0.00135392)
(-0.00827098 0.00358254 -0.00135392)
(-0.00855175 0.00284805 -0.00135392)
(-0.00876743 0.00209188 -0.00135392)
(-0.00891638 0.00131978 -0.00135392)
(-0.00899748 0.000537647 -0.00135392)
(-0.0090101 -0.000248583 -0.00135393)
(-0.00895415 -0.00103292 -0.00135392)
(-0.00883005 -0.00180939 -0.00135392)
(-0.00863875 -0.0025721 -0.00135393)
(-0.0083817 -0.00331523 -0.00135393)
(-0.00806087 -0.00403313 -0.00135393)
(-0.00767868 -0.00472033 -0.00135393)
(-0.00723806 -0.00537161 -0.00135393)
(-0.00674235 -0.00598201 -0.00135393)
(-0.00619533 -0.00654688 -0.00135393)
(-0.00560115 -0.00706193 -0.00135393)
(-0.00496435 -0.00752322 -0.00135393)
(-0.00428977 -0.00792727 -0.00135392)
(-0.00358254 -0.00827098 -0.00135392)
(-0.00284805 -0.00855175 -0.00135392)
(-0.00209188 -0.00876743 -0.00135392)
(-0.00131978 -0.00891638 -0.00135392)
(-0.000537647 -0.00899748 -0.00135392)
(0.000248583 -0.0090101 -0.00135393)
(0.00103292 -0.00895415 -0.00135392)
(0.00180939 -0.00883005 -0.00135392)
(0.0025721 -0.00863875 -0.00135393)
(0.00331523 -0.0083817 -0.00135393)
(0.00403313 -0.00806087 -0.00135393)
(0.00472033 -0.00767868 -0.00135393)
(0.00537161 -0.00723806 -0.00135393)
(0.00598201 -0.00674235 -0.00135393)
(0.00654688 -0.00619533 -0.00135393)
(0.00706193 -0.00560115 -0.00135393)
(0.00752322 -0.00496435 -0.00135393)
(0.00792727 -0.00428977 -0.00135392)
(0.00827098 -0.00358254 -0.00135392)
(0.00855175 -0.00284805 -0.00135392)
(0.00876743 -0.00209188 -0.00135392)
(0.00891638 -0.00131978 -0.00135392)
(0.00899748 -0.000537647 -0.00135392)
(0.0090101 0.000248583 -0.00135393)
(0.00895415 0.00103292 -0.00135392)
(0.00883005 0.00180939 -0.00135392)
(0.00863875 0.0025721 -0.00135393)
(0.0083817 0.00331523 -0.00135393)
(0.00806087 0.00403313 -0.00135393)
(0.00767868 0.00472033 -0.00135393)
(0.00723806 0.00537161 -0.00135393)
(0.00674235 0.00598201 -0.00135393)
(0.00619533 0.00654688 -0.00135393)
(0.00560115 0.00706193 -0.00135393)
(0.00496435 0.00752322 -0.00135393)
(0.00428977 0.00792727 -0.00135392)
(0.00358254 0.00827098 -0.00135392)
(0.00284805 0.00855175 -0.00135392)
(0.00209188 0.00876743 -0.00135392)
(0.00131978 0.00891638 -0.00135392)
(0.000537647 0.00899748 -0.00135392)
(-0.000248583 0.0090101 -0.00135393)
(-0.00103292 0.00895415 -0.00135392)
(-0.00180939 0.00883005 -0.00135392)
(-0.0025721 0.00863875 -0.00135393)
(-0.00331523 0.0083817 -0.00135393)
(-0.00403313 0.00806087 -0.00135393)
(-0.00496818 0.00856837 -0.000548062)
(-0.00569606 0.00810276 -0.000548059)
(-0.00638058 0.00757548 -0.000548058)
(-0.00701655 0.00699055 -0.00054806)
(-0.00759911 0.00635242 -0.000548061)
(-0.00812385 0.00566594 -0.00054806)
(-0.00858675 0.00493634 -0.000548061)
(-0.00898431 0.00416918 -0.00054806)
(-0.00931349 0.00337028 -0.000548061)
(-0.00957179 0.00254573 -0.000548059)
(-0.00975724 0.0017018 -0.000548059)
(-0.00986843 0.000844924 -0.00054806)
(-0.00990452 -1.83817e-05 -0.00054806)
(-0.00986522 -0.000881545 -0.000548061)
(-0.00975085 -0.001738 -0.00054806)
(-0.00956227 -0.00258123 -0.00054806)
(-0.00930091 -0.00340482 -0.00054806)
(-0.00896877 -0.00420249 -0.000548062)
(-0.00856837 -0.00496818 -0.000548062)
(-0.00810276 -0.00569606 -0.000548059)
(-0.00757548 -0.00638058 -0.000548058)
(-0.00699055 -0.00701655 -0.00054806)
(-0.00635242 -0.00759911 -0.000548061)
(-0.00566594 -0.00812385 -0.00054806)
(-0.00493634 -0.00858675 -0.000548061)
(-0.00416918 -0.00898431 -0.00054806)
(-0.00337028 -0.00931349 -0.000548061)
(-0.00254573 -0.00957179 -0.000548059)
(-0.0017018 -0.00975724 -0.000548059)
(-0.000844925 -0.00986843 -0.00054806)
(1.83817e-05 -0.00990452 -0.00054806)
(0.000881545 -0.00986522 -0.000548061)
(0.001738 -0.00975085 -0.00054806)
(0.00258123 -0.00956227 -0.00054806)
(0.00340482 -0.00930091 -0.00054806)
(0.00420249 -0.00896877 -0.000548062)
(0.00496818 -0.00856837 -0.000548062)
(0.00569606 -0.00810276 -0.000548059)
(0.00638058 -0.00757548 -0.000548058)
(0.00701655 -0.00699055 -0.00054806)
(0.00759911 -0.00635242 -0.000548061)
(0.00812385 -0.00566594 -0.00054806)
(0.00858675 -0.00493634 -0.000548061)
(0.00898431 -0.00416918 -0.00054806)
(0.00931349 -0.00337028 -0.000548061)
(0.00957179 -0.00254573 -0.000548059)
(0.00975724 -0.0017018 -0.000548059)
(0.00986843 -0.000844925 -0.00054806)
(0.00990452 1.83816e-05 -0.00054806)
(0.00986522 0.000881545 -0.000548061)
(0.00975085 0.001738 -0.00054806)
(0.00956227 0.00258123 -0.000548059)
(0.00930091 0.00340482 -0.00054806)
(0.00896877 0.00420249 -0.000548062)
(0.00856837 0.00496818 -0.000548062)
(0.00810276 0.00569606 -0.000548059)
(0.00757548 0.00638058 -0.000548058)
(0.00699055 0.00701655 -0.00054806)
(0.00635242 0.00759911 -0.000548061)
(0.00566594 0.00812385 -0.00054806)
(0.00493634 0.00858675 -0.000548061)
(0.00416918 0.00898431 -0.00054806)
(0.00337028 0.00931349 -0.000548061)
(0.00254573 0.00957179 -0.000548059)
(0.0017018 0.00975724 -0.000548059)
(0.000844925 0.00986843 -0.00054806)
(-1.83817e-05 0.00990452 -0.00054806)
(-0.000881545 0.00986522 -0.000548061)
(-0.001738 0.00975085 -0.00054806)
(-0.00258123 0.00956227 -0.00054806)
(-0.00340482 0.00930091 -0.00054806)
(-0.00420249 0.00896877 -0.000548062)
(-0.00609383 0.00952939 -0.00328385)
(-0.00690118 0.00896202 -0.00328385)
(-0.00765602 0.00832644 -0.00328385)
(-0.00835258 0.00762749 -0.00328385)
(-0.00898557 0.00687048 -0.00328385)
(-0.00955019 0.00606119 -0.00328385)
(-0.0100421 0.00520578 -0.00328384)
(-0.0104576 0.00431075 -0.00328384)
(-0.0107935 0.0033829 -0.00328384)
(-0.0110473 0.00242931 -0.00328385)
(-0.011217 0.00145723 -0.00328384)
(-0.0113013 0.000474062 -0.00328384)
(-0.0112996 -0.000512715 -0.00328384)
(-0.0112119 -0.00149559 -0.00328384)
(-0.0110389 -0.00246708 -0.00328384)
(-0.0107819 -0.0034198 -0.00328384)
(-0.0104428 -0.00434649 -0.00328385)
(-0.0100242 -0.0052401 -0.00328385)
(-0.00952939 -0.00609383 -0.00328385)
(-0.00896202 -0.00690118 -0.00328385)
(-0.00832644 -0.00765602 -0.00328385)
(-0.00762749 -0.00835258 -0.00328385)
(-0.00687048 -0.00898557 -0.00328385)
(-0.00606119 -0.00955019 -0.00328385)
(-0.00520578 -0.0100421 -0.00328384)
(-0.00431075 -0.0104576 -0.00328384)
(-0.0033829 -0.0107935 -0.00328384)
(-0.00242931 -0.0110473 -0.00328385)
(-0.00145723 -0.011217 -0.00328384)
(-0.000474062 -0.0113013 -0.00328384)
(0.000512715 -0.0112996 -0.00328384)
(0.00149559 -0.0112119 -0.00328384)
(0.00246708 -0.0110389 -0.00328384)
(0.0034198 -0.0107819 -0.00328384)
(0.00434649 -0.0104428 -0.00328385)
(0.0052401 -0.0100242 -0.00328385)
(0.00609383 -0.00952939 -0.00328385)
(0.00690118 -0.00896202 -0.00328385)
(0.00765602 -0.00832644 -0.00328385)
(0.00835258 -0.00762749 -0.00328385)
(0.00898557 -0.00687048 -0.00328385)
(0.00955019 -0.00606119 -0.00328385)
(0.0100421 -0.00520578 -0.00328384)
(0.0104576 -0.00431075 -0.00328384)
(0.0107935 -0.0033829 -0.00328384)
(0.0110473 -0.00242931 -0.00328385)
(0.011217 -0.00145723 -0.00328384)
(0.0113013 -0.000474062 -0.00328384)
(0.0112996 0.000512715 -0.00328384)
(0.0112119 0.00149559 -0.00328384)
(0.0110389 0.00246708 -0.00328384)
(0.0107819 0.0034198 -0.00328384)
(0.0104428 0.00434649 -0.00328385)
(0.0100242 0.0052401 -0.00328385)
(0.00952939 0.00609383 -0.00328385)
(0.00896202 0.00690118 -0.00328385)
(0.00832644 0.00765602 -0.00328385)
(0.00762749 0.00835258 -0.00328385)
(0.00687048 0.00898557 -0.00328385)
(0.00606119 0.00955019 -0.00328385)
(0.00520578 0.0100421 -0.00328384)
(0.00431075 0.0104576 -0.00328384)
(0.0033829 0.0107935 -0.00328384)
(0.00242931 0.0110473 -0.00328385)
(0.00145723 0.011217 -0.00328384)
(0.000474062 0.0113013 -0.00328384)
(-0.000512715 0.0112996 -0.00328384)
(-0.00149559 0.0112119 -0.00328384)
(-0.00246708 0.0110389 -0.00328384)
(-0.0034198 0.0107819 -0.00328384)
(-0.00434649 0.0104428 -0.00328385)
(-0.0052401 0.0100242 -0.00328385)
(-0.00626874 0.0106769 -0.00222668)
(-0.00717544 0.0100899 -0.00222668)
(-0.00802753 0.00942615 -0.00222668)
(-0.00881852 0.00869063 -0.00222668)
(-0.0095424 0.00788898 -0.00222668)
(-0.0101937 0.00702728 -0.00222668)
(-0.0107673 0.00611211 -0.00222667)
(-0.0112591 0.00515041 -0.00222667)
(-0.0116651 0.00414952 -0.00222667)
(-0.0119824 0.00311705 -0.00222667)
(-0.0122084 0.00206086 -0.00222667)
(-0.0123416 0.000988977 -0.00222667)
(-0.0123808 -9.04275e-05 -0.00222667)
(-0.0123258 -0.00116915 -0.00222667)
(-0.012177 -0.00223897 -0.00222667)
(-0.0119356 -0.00329175 -0.00222667)
(-0.0116033 -0.00431947 -0.00222668)
(-0.0111826 -0.00531433 -0.00222668)
(-0.0106769 -0.00626874 -0.00222668)
(-0.0100899 -0.00717544 -0.00222668)
(-0.00942615 -0.00802753 -0.00222668)
(-0.00869063 -0.00881852 -0.00222668)
(-0.00788898 -0.0095424 -0.00222668)
(-0.00702728 -0.0101937 -0.00222668)
(-0.00611211 -0.0107673 -0.00222667)
(-0.00515041 -0.0112591 -0.00222667)
(-0.00414952 -0.0116651 -0.00222667)
(-0.00311705 -0.0119824 -0.00222667)
(-0.00206086 -0.0122084 -0.00222667)
(-0.000988977 -0.0123416 -0.00222667)
(9.04276e-05 -0.0123808 -0.00222667)
(0.00116915 -0.0123258 -0.00222667)
(0.00223897 -0.012177 -0.00222667)
(0.00329175 -0.0119356 -0.00222667)
(0.00431947 -0.0116033 -0.00222668)
(0.00531433 -0.0111826 -0.00222668)
(0.00626874 -0.0106769 -0.00222668)
(0.00717544 -0.0100899 -0.00222668)
(0.00802753 -0.00942615 -0.00222668)
(0.00881852 -0.00869063 -0.00222668)
(0.0095424 -0.00788898 -0.00222668)
(0.0101937 -0.00702728 -0.00222668)
(0.0107673 -0.00611211 -0.00222667)
(0.0112591 -0.00515041 -0.00222667)
(0.0116651 -0.00414952 -0.00222667)
(0.0119824 -0.00311705 -0.00222667)
(0.0122084 -0.00206086 -0.00222667)
(0.0123416 -0.000988977 -0.00222667)
(0.0123808 9.04275e-05 -0.00222667)
(0.0123258 0.00116914 -0.00222667)
(0.012177 0.00223897 -0.00222667)
(0.0119356 0.00329175 -0.00222667)
(0.0116033 0.00431947 -0.00222668)
(0.0111826 0.00531433 -0.00222668)
(0.0106769 0.00626874 -0.00222668)
(0.0100899 0.00717544 -0.00222668)
(0.00942615 0.00802753 -0.00222668)
(0.00869063 0.00881852 -0.00222668)
(0.00788898 0.0095424 -0.00222668)
(0.00702728 0.0101937 -0.00222667)
(0.00611211 0.0107673 -0.00222667)