/*--------------------------------*- C++ -*----------------------------------*\
| =========                 |                                                 |
| \\      /  F ield         | OpenFOAM: The Open Source CFD Toolbox           |
|  \\    /   O peration     | Version:  2312                                  |
|   \\  /    A nd           | Website:  www.openfoam.com                      |
|    \\/     M anipulation  |                                                 |
\*---------------------------------------------------------------------------*/
FoamFile
{
    version     2.0;
    format      ascii;
    arch        "LSB;label=32;scalar=64";
    class       volVectorField;
    location    "0.9";
    object      D_0;
}
// * * * * * * * * * * * * * * * * * * * * * * * * * * * * * * * * * * * * * //

dimensions      [0 1 0 0 0 0 0];

internalField   nonuniform List<vector> 
1620
(
(0.000541029 -7.12435e-05 0.000120889)
(0.000462931 -0.000132433 -4.8076e-05)
(0.000382146 -0.000211503 -0.000161384)
(0.00030901 -0.000255528 -0.000213019)
(0.000250499 -0.000260563 -0.000222911)
(0.00021088 -0.000242166 -0.000207962)
(0.000189864 -0.000212079 -0.000179074)
(0.000181432 -0.000174085 -0.000144077)
(0.000175456 -0.0001284 -0.000108351)
(0.00016066 -7.51717e-05 -7.44668e-05)
(0.000127126 -1.49406e-05 -4.18508e-05)
(6.76436e-05 5.2374e-05 -6.43561e-06)
(-2.20833e-05 0.000126708 3.95692e-05)
(-0.000143094 0.000201889 0.000106212)
(-0.000289452 0.000256287 0.000198206)
(-0.000439837 0.000254737 0.000296804)
(-0.000553554 0.000181997 0.000343579)
(-0.000586768 9.22267e-05 0.000277024)
(-0.000541029 7.12435e-05 0.000120889)
(-0.000462931 0.000132433 -4.8076e-05)
(-0.000382146 0.000211503 -0.000161384)
(-0.00030901 0.000255528 -0.000213019)
(-0.000250499 0.000260563 -0.000222911)
(-0.00021088 0.000242166 -0.000207962)
(-0.000189864 0.000212079 -0.000179074)
(-0.000181432 0.000174085 -0.000144077)
(-0.000175456 0.0001284 -0.000108351)
(-0.00016066 7.51717e-05 -7.44668e-05)
(-0.000127126 1.49407e-05 -4.18508e-05)
(-6.76436e-05 -5.2374e-05 -6.4356e-06)
(2.20832e-05 -0.000126708 3.95692e-05)
(0.000143094 -0.000201889 0.000106212)
(0.000289452 -0.000256287 0.000198206)
(0.000439837 -0.000254737 0.000296804)
(0.000553554 -0.000181997 0.000343579)
(0.000586768 -9.22267e-05 0.000277024)
(0.000450872 -0.000181617 8.0575e-05)
(0.000465416 -0.000216649 7.5439e-06)
(0.000461036 -0.000226739 -5.16429e-05)
(0.000436296 -0.000201201 -9.46037e-05)
(0.000394485 -0.000153942 -0.000125613)
(0.000344025 -0.00010196 -0.000144678)
(0.000293238 -5.41347e-05 -0.000150972)
(0.000245695 -1.16503e-05 -0.000145449)
(0.000199631 2.74412e-05 -0.000130021)
(0.000150118 6.46798e-05 -0.000106184)
(9.20073e-05 9.99209e-05 -7.4583e-05)
(2.25387e-05 0.000131779 -3.53156e-05)
(-5.73289e-05 0.000158572 1.1458e-05)
(-0.000143551 0.000178085 6.43892e-05)
(-0.000230577 0.000186101 0.000118236)
(-0.000311479 0.000178405 0.000160174)
(-0.000377266 0.000160999 0.000171719)
(-0.000422335 0.000157808 0.000142922)
(-0.000450872 0.000181617 8.0575e-05)
(-0.000465416 0.000216649 7.5439e-06)
(-0.000461036 0.000226739 -5.16429e-05)
(-0.000436296 0.000201201 -9.46037e-05)
(-0.000394485 0.000153942 -0.000125613)
(-0.000344025 0.00010196 -0.000144678)
(-0.000293238 5.41347e-05 -0.000150972)
(-0.000245695 1.16503e-05 -0.000145449)
(-0.000199631 -2.74412e-05 -0.000130021)
(-0.000150118 -6.46798e-05 -0.000106184)
(-9.20073e-05 -9.99209e-05 -7.4583e-05)
(-2.25387e-05 -0.000131779 -3.53156e-05)
(5.73289e-05 -0.000158572 1.1458e-05)
(0.000143551 -0.000178085 6.43892e-05)
(0.000230577 -0.000186101 0.000118236)
(0.000311479 -0.000178405 0.000160174)
(0.000377266 -0.000160999 0.000171719)
(0.000422335 -0.000157808 0.000142922)
(0.000323303 -0.000238484 3.121e-05)
(0.000398737 -0.000266833 1.85699e-05)
(0.000459815 -0.000236668 -1.5358e-06)
(0.000491991 -0.000164068 -3.61707e-05)
(0.000488192 -7.54434e-05 -8.10122e-05)
(0.000452387 9.80843e-06 -0.000123782)
(0.000394479 8.19833e-05 -0.000153817)
(0.000323854 0.000137732 -0.000165835)
(0.000246762 0.000176402 -0.000158608)
(0.000166952 0.000197756 -0.000133135)
(8.75516e-05 0.000201257 -9.23656e-05)
(1.27436e-05 0.000186832 -4.20781e-05)
(-5.20951e-05 0.000156936 8.65009e-06)
(-0.000102608 0.000119008 4.89994e-05)
(-0.000138819 8.65925e-05 7.03054e-05)
(-0.000166836 7.74776e-05 7.05974e-05)
(-0.000198788 0.000106839 5.77227e-05)
(-0.000250376 0.000171783 4.38374e-05)
(-0.000323303 0.000238484 3.121e-05)
(-0.000398737 0.000266833 1.85699e-05)
(-0.000459815 0.000236668 -1.5358e-06)
(-0.000491991 0.000164068 -3.61707e-05)
(-0.000488192 7.54434e-05 -8.10122e-05)
(-0.000452387 -9.80843e-06 -0.000123782)
(-0.000394479 -8.19833e-05 -0.000153817)
(-0.000323854 -0.000137732 -0.000165835)
(-0.000246762 -0.000176402 -0.000158608)
(-0.000166952 -0.000197756 -0.000133135)
(-8.75516e-05 -0.000201257 -9.23656e-05)
(-1.27436e-05 -0.000186832 -4.20781e-05)
(5.20951e-05 -0.000156936 8.65008e-06)
(0.000102608 -0.000119008 4.89994e-05)
(0.000138819 -8.65925e-05 7.03054e-05)
(0.000166836 -7.74776e-05 7.05974e-05)
(0.000198788 -0.000106839 5.77227e-05)
(0.000250376 -0.000171783 4.38374e-05)
(0.00143169 -0.000462655 0.000421277)
(0.00134408 -0.000614545 -5.09173e-05)
(0.00120783 -0.000713537 -0.000407351)
(0.00104982 -0.000696495 -0.000619361)
(0.000890658 -0.000602353 -0.000714205)
(0.0007499 -0.000484761 -0.000723789)
(0.000640304 -0.00037027 -0.000676387)
(0.000559376 -0.000261594 -0.000596179)
(0.000490114 -0.000152761 -0.000500831)
(0.000407937 -3.90848e-05 -0.000399162)
(0.000288854 8.05051e-05 -0.00028974)
(0.000116056 0.000206189 -0.000160481)
(-0.000116841 0.000339431 9.37113e-06)
(-0.0004058 0.000475879 0.000240902)
(-0.000733634 0.000586732 0.000534313)
(-0.00105957 0.000613949 0.000831585)
(-0.00131637 0.000527336 0.00098647)
(-0.00144133 0.000423068 0.000834492)
(-0.00143169 0.000462655 0.000421277)
(-0.00134408 0.000614545 -5.09173e-05)
(-0.00120783 0.000713537 -0.000407351)
(-0.00104982 0.000696495 -0.000619361)
(-0.000890658 0.000602353 -0.000714205)
(-0.0007499 0.000484761 -0.000723789)
(-0.000640304 0.00037027 -0.000676387)
(-0.000559376 0.000261594 -0.000596179)
(-0.000490114 0.000152761 -0.000500831)
(-0.000407937 3.90848e-05 -0.000399162)
(-0.000288854 -8.05051e-05 -0.00028974)
(-0.000116056 -0.000206189 -0.000160481)
(0.000116841 -0.000339431 9.37113e-06)
(0.0004058 -0.000475879 0.000240902)
(0.000733634 -0.000586732 0.000534313)
(0.00105957 -0.000613949 0.000831585)
(0.00131637 -0.000527336 0.00098647)
(0.00144133 -0.000423068 0.000834492)
(0.00127812 -0.000627747 0.000383775)
(0.00131695 -0.000725512 0.000122716)
(0.00130373 -0.000728082 -0.000105186)
(0.00123607 -0.000633357 -0.000285556)
(0.0011232 -0.000486554 -0.000413508)
(0.000987695 -0.000330818 -0.000486437)
(0.000849248 -0.000186523 -0.000508693)
(0.000714927 -5.6955e-05 -0.000489159)
(0.000579411 6.06452e-05 -0.000436131)
(0.000430475 0.000167743 -0.000354147)
(0.000256155 0.000262235 -0.000243484)
(5.13044e-05 0.000340528 -0.000101795)
(-0.000179144 0.000401517 7.24952e-05)
(-0.00042237 0.000447318 0.000274735)
(-0.000662616 0.000477647 0.0004855)
(-0.000882727 0.000488034 0.000659387)
(-0.00106427 0.000488609 0.000722782)
(-0.0011941 0.000527732 0.000615761)
(-0.00127812 0.000627747 0.000383775)
(-0.00131695 0.000725512 0.000122716)
(-0.00130373 0.000728082 -0.000105186)
(-0.00123607 0.000633357 -0.000285556)
(-0.0011232 0.000486554 -0.000413508)
(-0.000987695 0.000330818 -0.000486437)
(-0.000849248 0.000186523 -0.000508693)
(-0.000714927 5.6955e-05 -0.000489159)
(-0.000579411 -6.06451e-05 -0.000436131)
(-0.000430475 -0.000167743 -0.000354147)
(-0.000256155 -0.000262235 -0.000243484)
(-5.13044e-05 -0.000340528 -0.000101795)
(0.000179144 -0.000401517 7.24952e-05)
(0.00042237 -0.000447318 0.000274735)
(0.000662616 -0.000477647 0.0004855)
(0.000882727 -0.000488034 0.000659387)
(0.00106427 -0.000488609 0.000722782)
(0.0011941 -0.000527732 0.000615761)
(0.00102476 -0.000736239 0.000314485)
(0.00117217 -0.000806559 0.000225856)
(0.00128292 -0.000748041 0.000114274)
(0.00132113 -0.000598346 -2.93824e-05)
(0.00128125 -0.000408041 -0.000178159)
(0.0011804 -0.000212986 -0.000300528)
(0.00103875 -3.17588e-05 -0.000378227)
(0.000869935 0.000126961 -0.000404929)
(0.000680469 0.000258173 -0.000379728)
(0.000473033 0.000357181 -0.000303489)
(0.000251038 0.000418654 -0.000179387)
(2.29641e-05 0.000438394 -1.63871e-05)
(-0.000195975 0.000418146 0.000166728)
(-0.000387931 0.000372026 0.000340517)
(-0.000541845 0.000329979 0.000470539)
(-0.0006611 0.000332306 0.000528256)
(-0.000763773 0.000412259 0.000503085)
(-0.000877939 0.000572747 0.000416165)
(-0.00102476 0.000736239 0.000314485)
(-0.00117217 0.000806559 0.000225856)
(-0.00128292 0.000748041 0.000114274)
(-0.00132113 0.000598346 -2.93824e-05)
(-0.00128125 0.000408041 -0.000178159)
(-0.0011804 0.000212986 -0.000300528)
(-0.00103875 3.17588e-05 -0.000378227)
(-0.000869935 -0.000126961 -0.000404929)
(-0.000680469 -0.000258173 -0.000379728)
(-0.000473033 -0.000357181 -0.000303489)
(-0.000251038 -0.000418654 -0.000179387)
(-2.29641e-05 -0.000438394 -1.63871e-05)
(0.000195975 -0.000418146 0.000166728)
(0.000387931 -0.000372026 0.000340517)
(0.000541845 -0.000329978 0.000470539)
(0.0006611 -0.000332306 0.000528255)
(0.000763773 -0.000412259 0.000503085)
(0.000877939 -0.000572747 0.000416165)
(0.00218006 -0.00112545 0.000929255)
(0.00209692 -0.0012836 0.000131797)
(0.00191503 -0.00130914 -0.000529924)
(0.00168512 -0.00119315 -0.000969677)
(0.00144503 -0.000997252 -0.00120773)
(0.0012231 -0.000784886 -0.00129338)
(0.00103642 -0.000586391 -0.00127263)
(0.000884387 -0.000404558 -0.00118203)
(0.000747849 -0.000230643 -0.00104716)
(0.000595567 -5.62013e-05 -0.000880105)
(0.000394924 0.000122548 -0.000676929)
(0.000122792 0.000306954 -0.000417607)
(-0.000227757 0.000499517 -7.20013e-05)
(-0.000646952 0.000698255 0.00038283)
(-0.00110828 0.000877717 0.000929415)
(-0.00156197 0.000983178 0.00146338)
(-0.00193299 0.000989097 0.00176399)
(-0.00214131 0.0010005 0.00158501)
(-0.00218006 0.00112545 0.000929255)
(-0.00209692 0.0012836 0.000131797)
(-0.00191503 0.00130914 -0.000529924)
(-0.00168512 0.00119315 -0.000969677)
(-0.00144503 0.000997252 -0.00120773)
(-0.0012231 0.000784886 -0.00129338)
(-0.00103642 0.000586391 -0.00127263)
(-0.000884387 0.000404558 -0.00118203)
(-0.000747849 0.000230643 -0.00104716)
(-0.000595567 5.62013e-05 -0.000880105)
(-0.000394924 -0.000122548 -0.000676929)
(-0.000122792 -0.000306954 -0.000417607)
(0.000227757 -0.000499517 -7.20013e-05)
(0.000646952 -0.000698255 0.00038283)
(0.00110828 -0.000877717 0.000929415)
(0.00156197 -0.000983178 0.00146338)
(0.00193299 -0.000989097 0.00176399)
(0.00214131 -0.0010005 0.00158501)
(0.00198373 -0.00116863 0.000906073)
(0.00204111 -0.0012747 0.000413054)
(0.00200904 -0.00123931 -5.10984e-05)
(0.00189625 -0.00107991 -0.000418956)
(0.00172509 -0.000852802 -0.00067452)
(0.00152524 -0.000610063 -0.000822761)
(0.00131843 -0.0003785 -0.000878526)
(0.00111147 -0.00016579 -0.000858597)
(0.00089725 2.83666e-05 -0.000775827)
(0.000660595 0.000204232 -0.000635843)
(0.000386752 0.00035902 -0.000436674)
(6.97832e-05 0.000489037 -0.000172004)
(-0.000283032 0.000594413 0.000160994)
(-0.000653364 0.000680319 0.000549422)
(-0.00101753 0.000751535 0.000950639)
(-0.00135019 0.000811574 0.00128237)
(-0.00162831 0.000880193 0.00142992)
(-0.00183976 0.00100059 0.00129498)
(-0.00198373 0.00116863 0.000906073)
(-0.00204111 0.0012747 0.000413054)
(-0.00200904 0.00123931 -5.10984e-05)
(-0.00189625 0.00107991 -0.000418956)
(-0.00172509 0.000852802 -0.00067452)
(-0.00152524 0.000610063 -0.000822761)
(-0.00131843 0.0003785 -0.000878526)
(-0.00111147 0.00016579 -0.000858597)
(-0.000897251 -2.83666e-05 -0.000775827)
(-0.000660595 -0.000204232 -0.000635843)
(-0.000386752 -0.00035902 -0.000436674)
(-6.97832e-05 -0.000489037 -0.000172004)
(0.000283032 -0.000594413 0.000160994)
(0.000653364 -0.000680319 0.000549422)
(0.00101753 -0.000751534 0.000950639)
(0.00135019 -0.000811574 0.00128237)
(0.00162831 -0.000880193 0.00142992)
(0.00183976 -0.00100059 0.00129498)
(0.00163094 -0.00118211 0.000809767)
(0.00182386 -0.00127169 0.00059269)
(0.00195351 -0.00120586 0.000331882)
(0.00198031 -0.0010185 5.1559e-05)
(0.00190725 -0.000765585 -0.000204861)
(0.00175836 -0.000491504 -0.000400898)
(0.00155627 -0.000222714 -0.000519351)
(0.00131422 2.51464e-05 -0.000556153)
(0.00103793 0.000240938 -0.000511335)
(0.000730269 0.000415019 -0.000384908)
(0.000396458 0.00053889 -0.000178369)
(4.82128e-05 0.000607197 9.92433e-05)
(-0.000294849 0.000622355 0.000422659)
(-0.000609051 0.0006017 0.000744431)
(-0.000876445 0.000583244 0.00100151)
(-0.00109425 0.000618773 0.00113888)
(-0.00127565 0.000744147 0.00113335)
(-0.0014427 0.000959634 0.000999823)
(-0.00163094 0.00118211 0.000809767)
(-0.00182386 0.00127169 0.00059269)
(-0.00195351 0.00120586 0.000331882)
(-0.00198031 0.0010185 5.1559e-05)
(-0.00190725 0.000765585 -0.000204861)
(-0.00175836 0.000491504 -0.000400898)
(-0.00155627 0.000222714 -0.000519351)
(-0.00131422 -2.51464e-05 -0.000556153)
(-0.00103793 -0.000240938 -0.000511335)
(-0.000730269 -0.000415019 -0.000384908)
(-0.000396458 -0.00053889 -0.000178369)
(-4.82129e-05 -0.000607197 9.92433e-05)
(0.000294849 -0.000622355 0.000422659)
(0.000609051 -0.0006017 0.000744431)
(0.000876445 -0.000583244 0.00100151)
(0.00109425 -0.000618773 0.00113888)
(0.00127565 -0.000744147 0.00113335)
(0.0014427 -0.000959634 0.000999823)
(0.00274786 -0.00194282 0.00152674)
(0.00266243 -0.00202579 0.000499544)
(0.00244234 -0.00195461 -0.000434992)
(0.00215762 -0.00175474 -0.0011122)
(0.00186461 -0.00148369 -0.00152087)
(0.00159197 -0.001197 -0.00171808)
(0.00135153 -0.000924129 -0.00176283)
(0.00114075 -0.000670264 -0.0016986)
(0.000940944 -0.000428073 -0.00155295)
(0.000721126 -0.000188434 -0.00133704)
(0.000447964 5.40481e-05 -0.00104432)
(9.76736e-05 0.000301632 -0.000652385)
(-0.00033595 0.000556641 -0.000132594)
(-0.000840383 0.000818764 0.00052705)
(-0.00138514 0.00107387 0.00128319)
(-0.00191893 0.00129586 0.00199548)
(-0.00236972 0.00149091 0.00241953)
(-0.00265523 0.00172613 0.00228627)
(-0.00274786 0.00194282 0.00152674)
(-0.00266243 0.00202579 0.000499544)
(-0.00244234 0.00195461 -0.000434992)
(-0.00215762 0.00175474 -0.0011122)
(-0.00186461 0.00148369 -0.00152087)
(-0.00159197 0.001197 -0.00171808)
(-0.00135153 0.000924129 -0.00176283)
(-0.00114075 0.000670264 -0.0016986)
(-0.000940944 0.000428073 -0.00155295)
(-0.000721126 0.000188434 -0.00133704)
(-0.000447964 -5.40481e-05 -0.00104432)
(-9.76736e-05 -0.000301632 -0.000652385)
(0.00033595 -0.000556641 -0.000132594)
(0.000840383 -0.000818764 0.00052705)
(0.00138514 -0.00107387 0.00128319)
(0.00191893 -0.00129586 0.00199548)
(0.00236972 -0.00149091 0.00241953)
(0.00265523 -0.00172613 0.00228627)
(0.00253028 -0.00174436 0.00148361)
(0.00258062 -0.00183 0.000809952)
(0.00251375 -0.00175101 0.000139675)
(0.0023575 -0.00154435 -0.000408762)
(0.00214456 -0.00126477 -0.000798264)
(0.0019035 -0.000961705 -0.00103578)
(0.00165153 -0.000663836 -0.00114298)
(0.00139258 -0.00038267 -0.00114105)
(0.00111878 -0.000121185 -0.00104446)
(0.000815395 0.000119334 -0.000858563)
(0.000468419 0.000336323 -0.000580132)
(7.2194e-05 0.000527298 -0.000202342)
(-0.000366611 0.000693444 0.000274058)
(-0.000829856 0.000840827 0.000823887)
(-0.00129062 0.000977873 0.00138101)
(-0.00171641 0.00111761 0.00183547)
(-0.00207695 0.00128878 0.0020586)
(-0.00235491 0.00151937 0.00194891)
(-0.00253028 0.00174436 0.00148361)
(-0.00258062 0.00183 0.000809952)
(-0.00251375 0.00175101 0.000139675)
(-0.0023575 0.00154435 -0.000408762)
(-0.00214456 0.00126477 -0.000798264)
(-0.0019035 0.000961705 -0.00103578)
(-0.00165153 0.000663836 -0.00114298)
(-0.00139258 0.00038267 -0.00114105)
(-0.00111878 0.000121185 -0.00104446)
(-0.000815395 -0.000119334 -0.000858563)
(-0.000468419 -0.000336323 -0.000580132)
(-7.2194e-05 -0.000527298 -0.000202342)
(0.000366611 -0.000693444 0.000274058)
(0.000829856 -0.000840827 0.000823887)
(0.00129062 -0.000977873 0.00138101)
(0.00171641 -0.00111761 0.00183547)
(0.00207695 -0.00128878 0.0020586)
(0.00235491 -0.00151937 0.00194891)
(0.00218571 -0.00157965 0.0013547)
(0.00234995 -0.00167547 0.00101832)
(0.00244206 -0.00160327 0.000623168)
(0.00243256 -0.00139684 0.000221617)
(0.00232459 -0.00110964 -0.000131697)
(0.00213949 -0.000787623 -0.000395784)
(0.00189677 -0.000460949 -0.000553206)
(0.0016068 -0.000149305 -0.00060117)
(0.00127356 0.000132213 -0.000540745)
(0.000900026 0.000370969 -0.000372367)
(0.000492753 0.000557539 -9.77348e-05)
(6.39395e-05 0.000687724 0.00027286)
(-0.000368718 0.000765307 0.000708848)
(-0.000783777 0.000807471 0.0011489)
(-0.00116076 0.000851316 0.00150733)
(-0.00148733 0.000946513 0.00170901)
(-0.00176243 0.00112263 0.00172868)
(-0.00199301 0.00135816 0.00159548)
(-0.00218571 0.00157965 0.0013547)
(-0.00234995 0.00167547 0.00101832)
(-0.00244206 0.00160327 0.000623168)
(-0.00243256 0.00139684 0.000221617)
(-0.00232459 0.00110964 -0.000131697)
(-0.00213949 0.000787624 -0.000395784)
(-0.00189677 0.000460949 -0.000553206)
(-0.0016068 0.000149305 -0.00060117)
(-0.00127356 -0.000132213 -0.000540745)
(-0.000900026 -0.000370969 -0.000372367)
(-0.000492753 -0.000557539 -9.77348e-05)
(-6.39395e-05 -0.000687724 0.00027286)
(0.000368718 -0.000765307 0.000708848)
(0.000783777 -0.000807471 0.0011489)
(0.00116076 -0.000851316 0.00150733)
(0.00148733 -0.000946513 0.00170901)
(0.00176243 -0.00112263 0.00172868)
(0.00199301 -0.00135816 0.00159548)
(0.0031165 -0.00252719 0.00205902)
(0.00303854 -0.0026234 0.000981837)
(0.00278869 -0.00253482 -0.000125605)
(0.00246433 -0.00231303 -0.000998552)
(0.00213932 -0.00201414 -0.0015723)
(0.00183987 -0.0016864 -0.0018927)
(0.0015681 -0.00135998 -0.00202131)
(0.0013161 -0.00104506 -0.0020036)
(0.00106565 -0.000738926 -0.00186651)
(0.000789719 -0.000434818 -0.00161999)
(0.000459894 -0.00012765 -0.00125844)
(5.61735e-05 0.000185446 -0.000764766)
(-0.000426517 0.00050758 -0.000121047)
(-0.000977238 0.00084127 0.000668929)
(-0.0015676 0.00118316 0.00154068)
(-0.0021468 0.00152835 0.00233204)
(-0.00264133 0.00188549 0.00280171)
(-0.00297751 0.00224762 0.00273188)
(-0.0031165 0.00252719 0.00205902)
(-0.00303854 0.0026234 0.000981837)
(-0.00278869 0.00253482 -0.000125605)
(-0.00246433 0.00231303 -0.000998551)
(-0.00213932 0.00201414 -0.0015723)
(-0.00183987 0.0016864 -0.0018927)
(-0.0015681 0.00135998 -0.00202131)
(-0.0013161 0.00104506 -0.0020036)
(-0.00106565 0.000738926 -0.00186651)
(-0.000789719 0.000434818 -0.00161999)
(-0.000459894 0.00012765 -0.00125844)
(-5.61735e-05 -0.000185446 -0.000764766)
(0.000426517 -0.00050758 -0.000121047)
(0.000977238 -0.00084127 0.000668928)
(0.0015676 -0.00118316 0.00154068)
(0.0021468 -0.00152835 0.00233204)
(0.00264133 -0.00188549 0.00280171)
(0.00297751 -0.00224762 0.00273188)
(0.00288093 -0.00217113 0.00193292)
(0.00291249 -0.00226069 0.00122577)
(0.00281304 -0.00218349 0.000445123)
(0.00262233 -0.00197336 -0.000237503)
(0.00238261 -0.00168028 -0.000744506)
(0.00211915 -0.00134986 -0.00107055)
(0.00184229 -0.00101222 -0.00123612)
(0.00155185 -0.000682665 -0.00126279)
(0.00123948 -0.000367708 -0.00116511)
(0.000892479 -7.0549e-05 -0.000948851)
(0.000499526 0.00020642 -0.000612782)
(5.60101e-05 0.000462205 -0.000154683)
(-0.000433449 0.000699265 0.000416863)
(-0.000954429 0.00092416 0.00106542)
(-0.00148083 0.00114689 0.00171037)
(-0.00197511 0.00138337 0.0022276)
(-0.00239562 0.00165324 0.00248248)
(-0.00270614 0.00194216 0.0023841)
(-0.00288093 0.00217113 0.00193292)
(-0.00291249 0.00226069 0.00122577)
(-0.00281304 0.00218349 0.000445123)
(-0.00262233 0.00197336 -0.000237503)
(-0.00238261 0.00168028 -0.000744506)
(-0.00211915 0.00134986 -0.00107055)
(-0.00184229 0.00101222 -0.00123612)
(-0.00155185 0.000682665 -0.00126279)
(-0.00123948 0.000367708 -0.00116511)
(-0.000892479 7.0549e-05 -0.000948851)
(-0.000499526 -0.00020642 -0.000612782)
(-5.60102e-05 -0.000462205 -0.000154683)
(0.000433449 -0.000699265 0.000416863)
(0.000954429 -0.00092416 0.00106542)
(0.00148083 -0.00114689 0.00171037)
(0.00197511 -0.00138337 0.0022276)
(0.00239562 -0.00165324 0.00248248)
(0.00270614 -0.00194216 0.0023841)
(0.00259711 -0.00189284 0.00176751)
(0.00270121 -0.00196609 0.00139069)
(0.00273386 -0.00189741 0.00093459)
(0.00268007 -0.00169742 0.000457497)
(0.0025401 -0.00140683 3.25622e-05)
(0.00232926 -0.00106888 -0.000287185)
(0.00206217 -0.000714932 -0.000479231)
(0.00174582 -0.000366582 -0.000539551)
(0.00138245 -4.07955e-05 -0.000469855)
(0.000974763 0.000248711 -0.000272458)
(0.000529337 0.000493033 4.8103e-05)
(5.65946e-05 0.000689823 0.000477903)
(-0.000430584 0.000843963 0.000981423)
(-0.000915878 0.000970217 0.0014894)
(-0.00137818 0.00109819 0.00190584)
(-0.00179539 0.00126432 0.00214789)
(-0.00214825 0.00148172 0.00218578)
(-0.00241859 0.00171365 0.00204281)
(-0.00259711 0.00189284 0.00176751)
(-0.00270121 0.00196609 0.00139069)
(-0.00273386 0.00189741 0.00093459)
(-0.00268007 0.00169742 0.000457497)
(-0.0025401 0.00140683 3.25622e-05)
(-0.00232926 0.00106888 -0.000287185)
(-0.00206217 0.000714932 -0.000479231)
(-0.00174582 0.000366582 -0.000539551)
(-0.00138245 4.07955e-05 -0.000469855)
(-0.000974763 -0.000248711 -0.000272458)
(-0.000529337 -0.000493033 4.8103e-05)
(-5.65946e-05 -0.000689823 0.000477903)
(0.000430584 -0.000843963 0.000981423)
(0.000915878 -0.000970216 0.0014894)
(0.00137818 -0.00109819 0.00190584)
(0.00179539 -0.00126432 0.00214789)
(0.00214825 -0.00148172 0.00218578)
(0.00241859 -0.00171365 0.00204281)
(0.00325512 -0.00285753 0.00237245)
(0.00318983 -0.00300714 0.00138971)
(0.00294293 -0.00296859 0.000273572)
(0.00260843 -0.00278595 -0.000694488)
(0.00227101 -0.0025078 -0.00138826)
(0.00196088 -0.00217648 -0.0018156)
(0.00167438 -0.00182397 -0.00202471)
(0.00139801 -0.00146719 -0.00205693)
(0.00111356 -0.00111035 -0.00193767)
(0.000799057 -0.000751489 -0.00167787)
(0.000433249 -0.000387427 -0.00127729)
(1.6931e-06 -1.47582e-05 -0.000729694)
(-0.000499754 0.000371466 -3.19068e-05)
(-0.00106372 0.000776204 0.000797621)
(-0.0016654 0.00120032 0.00168489)
(-0.00225361 0.00164252 0.00247233)
(-0.00275574 0.00209736 0.00294885)
(-0.00310423 0.0025285 0.0029351)
(-0.00325512 0.00285753 0.00237245)
(-0.00318983 0.00300714 0.00138971)
(-0.00294293 0.00296859 0.000273572)
(-0.00260843 0.00278595 -0.000694488)
(-0.00227101 0.0025078 -0.00138826)
(-0.00196088 0.00217648 -0.0018156)
(-0.00167438 0.00182397 -0.00202471)
(-0.00139801 0.00146719 -0.00205693)
(-0.00111356 0.00111035 -0.00193767)
(-0.000799057 0.000751489 -0.00167787)
(-0.000433249 0.000387427 -0.00127729)
(-1.69313e-06 1.47583e-05 -0.000729694)
(0.000499754 -0.000371466 -3.19068e-05)
(0.00106372 -0.000776204 0.000797621)
(0.0016654 -0.00120032 0.00168489)
(0.00225361 -0.00164252 0.00247233)
(0.00275574 -0.00209736 0.00294885)
(0.00310423 -0.0025285 0.0029351)
(0.00303192 -0.00243118 0.00223568)
(0.00304425 -0.00253951 0.00156731)
(0.00292385 -0.00249573 0.000781314)
(0.00271445 -0.00231972 4.368e-05)
(0.00246163 -0.00204945 -0.000538319)
(0.00218948 -0.0017239 -0.000933663)
(0.00190315 -0.00137338 -0.00115108)
(0.00159854 -0.00101689 -0.00120784)
(0.00126686 -0.000664978 -0.00111756)
(0.000897801 -0.000323453 -0.000887788)
(0.000483203 4.75981e-06 -0.000522203)
(1.98625e-05 0.000319725 -2.66435e-05)
(-0.000489513 0.000625075 0.000580753)
(-0.00103428 0.000926983 0.00125537)
(-0.00158934 0.00123247 0.00191298)
(-0.00211187 0.00154959 0.00243484)
(-0.00255129 0.00187966 0.00270246)
(-0.00286614 0.00219313 0.00263879)
(-0.00303192 0.00243118 0.00223568)
(-0.00304425 0.00253951 0.00156731)
(-0.00292385 0.00249573 0.000781314)
(-0.00271445 0.00231972 4.368e-05)
(-0.00246163 0.00204945 -0.000538319)
(-0.00218948 0.0017239 -0.000933663)
(-0.00190315 0.00137338 -0.00115108)
(-0.00159854 0.00101689 -0.00120784)
(-0.00126686 0.000664978 -0.00111756)
(-0.000897801 0.000323453 -0.000887788)
(-0.000483203 -4.75979e-06 -0.000522203)
(-1.98626e-05 -0.000319725 -2.66436e-05)
(0.000489513 -0.000625075 0.000580753)
(0.00103428 -0.000926983 0.00125537)
(0.00158934 -0.00123247 0.00191298)
(0.00211187 -0.00154959 0.00243484)
(0.00255129 -0.00187966 0.00270246)
(0.00286614 -0.00219313 0.00263879)
(0.00280571 -0.0020953 0.00207583)
(0.002868 -0.00215015 0.00169114)
(0.00284912 -0.00208942 0.00122223)
(0.00275426 -0.0019126 0.000721247)
(0.00258793 -0.00164396 0.000262313)
(0.00236112 -0.00131752 -9.13177e-05)
(0.00208322 -0.000962246 -0.00030818)
(0.00175777 -0.000600195 -0.000380159)
(0.00138543 -0.000249274 -0.000308619)
(0.000968278 7.65466e-05 -9.82387e-05)
(0.000511864 0.000369099 0.000242216)
(2.39655e-05 0.000627203 0.000693784)
(-0.000486824 0.000855679 0.00121631)
(-0.00100767 0.00106505 0.00173781)
(-0.00151593 0.00127311 0.00216402)
(-0.0019801 0.00149711 0.00241799)
(-0.0023655 0.00173299 0.00247276)
(-0.00264339 0.00194633 0.00234661)
(-0.00280571 0.0020953 0.00207583)
(-0.002868 0.00215015 0.00169115)
(-0.00284912 0.00208942 0.00122223)
(-0.00275426 0.0019126 0.000721247)
(-0.00258793 0.00164396 0.000262313)
(-0.00236112 0.00131752 -9.13176e-05)
(-0.00208322 0.000962246 -0.00030818)
(-0.00175777 0.000600195 -0.000380159)
(-0.00138543 0.000249274 -0.000308619)
(-0.000968278 -7.65466e-05 -9.82387e-05)
(-0.000511864 -0.000369099 0.000242216)
(-2.39655e-05 -0.000627203 0.000693784)
(0.000486824 -0.000855679 0.00121631)
(0.00100767 -0.00106505 0.00173781)
(0.00151593 -0.00127311 0.00216402)
(0.0019801 -0.00149711 0.00241799)
(0.0023655 -0.00173299 0.00247276)
(0.00264339 -0.00194633 0.00234661)
(0.00318579 -0.00298111 0.00248916)
(0.00312959 -0.00319482 0.00165368)
(0.0029071 -0.00323611 0.000642112)
(0.00259284 -0.00312728 -0.000310342)
(0.00226443 -0.00290319 -0.00105217)
(0.00195685 -0.00259981 -0.00154688)
(0.00166755 -0.00224932 -0.0018164)
(0.00138101 -0.00187432 -0.0018912)
(0.00107976 -0.00148628 -0.00179375)
(0.000746716 -0.00108896 -0.00153745)
(0.000367379 -0.000681869 -0.00112965)
(-6.78329e-05 -0.000261585 -0.000575871)
(-0.000562474 0.00017771 0.000113984)
(-0.00111143 0.000640826 0.000911818)
(-0.0016911 0.00112737 0.00174409)
(-0.00225048 0.00163196 0.00247215)
(-0.00272197 0.00213967 0.00291996)
(-0.00304621 0.00261065 0.00294146)
(-0.00318579 0.00298111 0.00248916)
(-0.00312959 0.00319482 0.00165368)
(-0.0029071 0.00323611 0.000642112)
(-0.00259284 0.00312728 -0.000310342)
(-0.00226443 0.00290319 -0.00105217)
(-0.00195685 0.00259981 -0.00154688)
(-0.00166755 0.00224932 -0.0018164)
(-0.00138101 0.00187432 -0.0018912)
(-0.00107976 0.00148628 -0.00179375)
(-0.000746716 0.00108896 -0.00153745)
(-0.000367379 0.000681869 -0.00112965)
(6.78329e-05 0.000261585 -0.000575871)
(0.000562474 -0.00017771 0.000113984)
(0.00111143 -0.000640826 0.000911818)
(0.0016911 -0.00112737 0.00174409)
(0.00225048 -0.00163196 0.00247215)
(0.00272197 -0.00213967 0.00291996)
(0.00304621 -0.00261065 0.00294146)
(0.00299239 -0.00254153 0.00239125)
(0.00299298 -0.0026808 0.00180457)
(0.0028683 -0.00268565 0.00108251)
(0.0026587 -0.00256396 0.00036413)
(0.00240696 -0.00234003 -0.000237985)
(0.00213713 -0.002044 -0.000669742)
(0.0018527 -0.00170394 -0.000922189)
(0.0015475 -0.00134131 -0.00100409)
(0.00121281 -0.000970428 -0.00092674)
(0.000840547 -0.000599945 -0.000699833)
(0.000425323 -0.000233891 -0.000332943)
(-3.4802e-05 0.000127958 0.000159718)
(-0.000538013 0.000489002 0.000751896)
(-0.00107493 0.000852849 0.00139537)
(-0.00161993 0.00122065 0.00201178)
(-0.00212851 0.00159102 0.00249966)
(-0.00254991 0.00195528 0.00276069)
(-0.00284467 0.00228641 0.0027284)
(-0.00299239 0.00254153 0.00239125)
(-0.00299298 0.0026808 0.00180457)
(-0.0028683 0.00268565 0.00108251)
(-0.0026587 0.00256396 0.00036413)
(-0.00240696 0.00234003 -0.000237985)
(-0.00213713 0.002044 -0.000669742)
(-0.0018527 0.00170394 -0.000922189)
(-0.0015475 0.00134131 -0.00100409)
(-0.00121281 0.000970428 -0.00092674)
(-0.000840547 0.000599945 -0.000699833)
(-0.000425323 0.000233891 -0.000332943)
(3.48019e-05 -0.000127958 0.000159718)
(0.000538013 -0.000489002 0.000751896)
(0.00107493 -0.000852849 0.00139537)
(0.00161993 -0.00122065 0.00201178)
(0.00212851 -0.00159102 0.00249966)
(0.00254991 -0.00195528 0.00276069)
(0.00284467 -0.00228641 0.0027284)
(0.00282939 -0.00219251 0.0022681)
(0.00286502 -0.00224442 0.00190967)
(0.00281374 -0.00219865 0.00146508)
(0.00269103 -0.00205324 0.000981493)
(0.00250784 -0.001821 0.000526237)
(0.00227442 -0.00152429 0.000164885)
(0.00199662 -0.00118651 -6.31363e-05)
(0.00167515 -0.000828678 -0.000144016)
(0.00130935 -0.000468929 -7.75334e-05)
(0.000900517 -0.000121165 0.000129861)
(0.000452795 0.000206815 0.000465376)
(-2.82826e-05 0.000513732 0.000905187)
(-0.000536193 0.000802592 0.00140575)
(-0.00105844 0.00107808 0.00189736)
(-0.00157036 0.0013458 0.00229707)
(-0.00203644 0.00160764 0.00254205)
(-0.00241798 0.00185228 0.00260964)
(-0.00268504 0.00205551 0.0025101)
(-0.00282939 0.00219251 0.0022681)
(-0.00286502 0.00224442 0.00190967)
(-0.00281374 0.00219865 0.00146508)
(-0.00269103 0.00205324 0.000981493)
(-0.00250784 0.001821 0.000526237)
(-0.00227442 0.00152429 0.000164885)
(-0.00199662 0.00118651 -6.31363e-05)
(-0.00167515 0.000828678 -0.000144016)
(-0.00130935 0.000468929 -7.75334e-05)
(-0.000900517 0.000121165 0.000129861)
(-0.000452795 -0.000206815 0.000465376)
(2.82826e-05 -0.000513732 0.000905187)
(0.000536193 -0.000802592 0.00140575)
(0.00105844 -0.00107808 0.00189736)
(0.00157036 -0.0013458 0.00229707)
(0.00203644 -0.00160764 0.00254205)
(0.00241798 -0.00185228 0.00260964)
(0.00268504 -0.00205551 0.0025101)
(0.00294883 -0.00295887 0.00245083)
(0.00289738 -0.00323114 0.00177187)
(0.00270708 -0.00335176 0.000916352)
(0.00243192 -0.00332454 6.04908e-05)
(0.00213139 -0.00316897 -0.000655448)
(0.00183913 -0.00291335 -0.00116687)
(0.00155715 -0.00258783 -0.00146722)
(0.00127246 -0.00221775 -0.00157152)
(0.000970168 -0.00181991 -0.00149712)
(0.000637637 -0.00140295 -0.00125922)
(0.000265398 -0.00096924 -0.000871648)
(-0.000152842 -0.000516452 -0.000348807)
(-0.000619684 -3.99969e-05 0.000290894)