/*--------------------------------*- C++ -*----------------------------------*\
| =========                 |                                                 |
| \\      /  F ield         | OpenFOAM: The Open Source CFD Toolbox           |
|  \\    /   O peration     | Version:  2312                                  |
|   \\  /    A nd           | Website:  www.openfoam.com                      |
|    \\/     M anipulation  |                                                 |
\*---------------------------------------------------------------------------*/
FoamFile
{
    version     2.0;
    format      ascii;
    arch        "LSB;label=32;scalar=64";
    class       volVectorField;
    location    "0.9";
    object      D_0_0;
}
// * * * * * * * * * * * * * * * * * * * * * * * * * * * * * * * * * * * * * //

dimensions      [0 1 0 0 0 0 0];

internalField   nonuniform List<vector> 
1620
(
(-0.000158227 8.01388e-05 -0.0002086)
(-0.000127897 0.000195091 -0.000188415)
(-9.06894e-05 0.000273155 -0.000150634)
(-4.92094e-05 0.000320648 -9.96663e-05)
(-1.07922e-06 0.000350716 -3.39247e-05)
(5.03501e-05 0.000376009 4.98223e-05)
(9.34326e-05 0.00040594 0.000155058)
(0.000111362 0.000442523 0.000280693)
(0.000107831 0.000470761 0.000392316)
(8.43444e-05 0.000483224 0.000379018)
(4.1429e-05 0.000471344 0.000263201)
(2.01077e-05 0.000442747 0.000151646)
(2.55572e-05 0.000415016 6.29581e-05)
(4.21839e-05 0.000389904 -5.99733e-06)
(5.81657e-05 0.000359628 -5.97573e-05)
(6.97421e-05 0.000313061 -0.00010328)
(7.79653e-05 0.000239106 -0.000141285)
(7.75365e-05 0.000131595 -0.000170607)
(6.03244e-05 2.01155e-06 -0.000167021)
(3.03657e-05 -0.000111999 -0.000131378)
(7.94552e-07 -0.000195792 -9.07958e-05)
(-2.31805e-05 -0.000251396 -4.90794e-05)
(-4.48915e-05 -0.000286533 -2.67065e-06)
(-6.67557e-05 -0.00031176 5.36127e-05)
(-8.56092e-05 -0.000338122 0.000128625)
(-9.15761e-05 -0.000371608 0.000232421)
(-9.20081e-05 -0.000399266 0.000343517)
(-8.06657e-05 -0.000413164 0.000347167)
(-5.25332e-05 -0.00040436 0.000255639)
(-4.62959e-05 -0.000381184 0.000159746)
(-6.75345e-05 -0.00035816 7.73426e-05)
(-0.000101086 -0.000335722 8.70379e-06)
(-0.000132629 -0.000305116 -4.80752e-05)
(-0.000155543 -0.000254192 -9.74326e-05)
(-0.000170218 -0.000171887 -0.000145497)
(-0.000173128 -5.44863e-05 -0.000191174)
(2.90711e-05 4.3432e-05 -0.000123234)
(3.83203e-05 0.000155071 -8.64582e-05)
(4.03595e-05 0.0002251 -5.13899e-05)
(4.08281e-05 0.000262309 -1.11329e-05)
(4.44212e-05 0.00027315 3.51335e-05)
(5.1785e-05 0.000266929 8.42392e-05)
(6.08761e-05 0.000252569 0.000131556)
(7.01064e-05 0.00023788 0.000171588)
(8.3649e-05 0.000231788 0.000196641)
(8.77127e-05 0.000241348 0.000193233)
(8.48122e-05 0.000263639 0.000166353)
(7.48986e-05 0.000289837 0.000129052)
(6.41315e-05 0.000314912 8.85456e-05)
(4.99428e-05 0.000332972 4.8873e-05)
(2.884e-05 0.000335444 1.32494e-05)
(-2.83997e-08 0.000312514 -1.68035e-05)
(-3.30182e-05 0.000256718 -4.38061e-05)
(-6.48475e-05 0.000155895 -7.45417e-05)
(-8.29188e-05 2.72317e-05 -6.78264e-05)
(-8.41709e-05 -8.03929e-05 -2.72962e-05)
(-7.73955e-05 -0.000150504 2.98242e-06)
(-6.71023e-05 -0.000190459 3.17433e-05)
(-5.80999e-05 -0.000205288 6.2141e-05)
(-5.27924e-05 -0.000203014 9.38192e-05)
(-5.22341e-05 -0.000191154 0.000126074)
(-5.78693e-05 -0.000176236 0.000157587)
(-7.48634e-05 -0.000167182 0.000181542)
(-8.83846e-05 -0.000172133 0.000180156)
(-9.6985e-05 -0.000192034 0.000156296)
(-0.000101161 -0.000220032 0.000120833)
(-0.000104793 -0.000249982 7.9646e-05)
(-0.000103301 -0.000273913 3.69204e-05)
(-9.10205e-05 -0.000280643 -3.69925e-06)
(-6.5848e-05 -0.000258187 -4.06353e-05)
(-3.17512e-05 -0.000198415 -7.67762e-05)
(4.24671e-06 -9.13692e-05 -0.000119381)
(0.000176937 -3.46833e-07 -1.59963e-05)
(0.000161478 0.00010583 6.93974e-06)
(0.000121881 0.000169589 3.14014e-05)
(7.70542e-05 0.000191716 5.60293e-05)
(3.73504e-05 0.000179988 7.94054e-05)
(8.75969e-06 0.000146276 9.59853e-05)
(-3.59048e-06 0.000103851 9.74558e-05)
(6.69749e-06 6.63019e-05 7.77209e-05)
(4.87373e-05 4.70638e-05 4.62773e-05)
(0.000110153 5.23065e-05 4.5698e-05)
(0.00014858 8.56203e-05 7.9208e-05)
(0.000157399 0.00014099 9.57101e-05)
(0.000141527 0.000204038 9.21519e-05)
(0.000105084 0.000260827 7.78609e-05)
(5.09315e-05 0.000297775 6.17215e-05)
(-1.71687e-05 0.000301509 4.95401e-05)
(-9.0281e-05 0.000261198 4.27462e-05)
(-0.000147393 0.000172271 3.97589e-05)
(-0.000164787 6.09654e-05 4.76912e-05)
(-0.000141653 -3.60469e-05 6.25552e-05)
(-9.93122e-05 -9.3236e-05 7.47008e-05)
(-5.60318e-05 -0.00011305 8.68056e-05)
(-2.01327e-05 -0.000103946 9.97915e-05)
(4.46813e-06 -7.62438e-05 0.000109442)
(1.33659e-05 -3.96182e-05 0.000107586)
(-6.67036e-07 -4.22092e-06 8.64761e-05)
(-4.64853e-05 1.68431e-05 5.26989e-05)
(-0.000110731 1.43217e-05 4.66556e-05)
(-0.000153272 -1.8498e-05 7.33691e-05)
(-0.000171005 -7.62972e-05 8.34133e-05)
(-0.000164422 -0.000145488 7.38274e-05)
(-0.000133379 -0.000210511 5.31947e-05)
(-7.84544e-05 -0.000254515 2.95831e-05)
(-3.67359e-06 -0.000261138 8.06114e-06)
(7.98389e-05 -0.000218306 -9.92489e-06)
(0.000148735 -0.000122366 -2.26824e-05)
(-0.000265679 0.00021279 -0.00055737)
(-0.000218536 0.000563012 -0.000506719)
(-0.00017363 0.0008003 -0.000397743)
(-0.000119614 0.000933714 -0.000246902)
(-4.54941e-05 0.000994763 -5.35915e-05)
(4.51473e-05 0.00101734 0.00018668)
(0.000134436 0.00103113 0.000474092)
(0.00019946 0.0010544 0.000788442)
(0.000244517 0.00108051 0.00104243)
(0.000266888 0.00110288 0.00105174)
(0.000233211 0.00111268 0.000821049)
(0.000206371 0.00111359 0.00054005)
(0.000203379 0.00111304 0.00028638)
(0.000208162 0.0010994 7.67354e-05)
(0.000203617 0.00104879 -9.14613e-05)
(0.000182705 0.000932064 -0.000228394)
(0.000148561 0.000719858 -0.000342656)
(0.000103729 0.000398732 -0.000420272)
(5.74651e-05 1.82112e-05 -0.000412029)
(1.81517e-05 -0.000321203 -0.000319399)
(-1.19241e-05 -0.000558623 -0.000200639)
(-3.58383e-05 -0.000699114 -7.52404e-05)
(-6.21247e-05 -0.000769224 6.18644e-05)
(-9.47438e-05 -0.000799767 0.000224602)
(-0.000130727 -0.000819744 0.000430429)
(-0.000162665 -0.000848923 0.000684163)
(-0.000205963 -0.000880706 0.000923195)
(-0.000251299 -0.000906777 0.000968325)
(-0.000257236 -0.000921193 0.000793551)
(-0.000276667 -0.000932378 0.000552657)
(-0.000323057 -0.000944773 0.000315693)
(-0.000375444 -0.000941965 0.000103998)
(-0.000407612 -0.000894496 -7.82203e-05)
(-0.000405184 -0.000768806 -0.000237707)
(-0.00037224 -0.000535298 -0.000384954)
(-0.000319971 -0.000186729 -0.000509751)
(2.27052e-05 0.000111429 -0.000379468)
(4.71009e-05 0.000432832 -0.000293633)
(4.83885e-05 0.000643306 -0.00017639)
(4.61361e-05 0.000756224 -3.55162e-05)
(5.5127e-05 0.000791891 0.000125471)
(7.96838e-05 0.000778701 0.000298912)
(0.000116647 0.000745204 0.000471844)
(0.00016218 0.000715222 0.00062419)
(0.000218774 0.000706206 0.000723792)
(0.000265445 0.000730372 0.000730332)
(0.000285277 0.000786318 0.000644654)
(0.000279263 0.00085736 0.000508797)
(0.000257231 0.000928001 0.000357287)
(0.000216526 0.00097829 0.000209676)
(0.00015252 0.000981701 7.66221e-05)
(6.65202e-05 0.000909351 -3.79468e-05)
(-2.96476e-05 0.000738133 -0.000135165)
(-0.000117725 0.000448212 -0.00020999)
(-0.000168285 9.43615e-05 -0.000193736)
(-0.000174271 -0.000214699 -9.44859e-05)
(-0.000155561 -0.000420118 1.09586e-05)
(-0.00012887 -0.000534519 0.000116939)
(-0.000107992 -0.000577337 0.000226111)
(-0.000100389 -0.000574244 0.000339862)
(-0.000110187 -0.000549645 0.000457288)
(-0.000141688 -0.000523446 0.000571362)
(-0.000201208 -0.000511424 0.00065765)
(-0.000266752 -0.000528306 0.000672105)
(-0.000316525 -0.000581006 0.000602673)
(-0.000349346 -0.000658456 0.000479221)
(-0.000368505 -0.000743683 0.000329849)
(-0.00036408 -0.000811346 0.000173313)
(-0.00032419 -0.000827274 2.17226e-05)
(-0.000246477 -0.000755832 -0.000119494)
(-0.00014505 -0.000571985 -0.000250254)
(-4.4452e-05 -0.000261598 -0.000363209)
(0.000280606 -7.8987e-08 -0.000172884)
(0.000281091 0.000285562 -8.63833e-05)
(0.000235193 0.000475019 3.05319e-05)
(0.000172451 0.000566958 0.000157059)
(0.000114095 0.00057737 0.000281036)
(7.49915e-05 0.000532918 0.000385658)
(6.68317e-05 0.00046486 0.000448704)
(9.98791e-05 0.000404613 0.000453942)
(0.000186968 0.000379685 0.000421996)
(0.000292635 0.00040448 0.000428342)
(0.000363838 0.000482503 0.000461682)
(0.000382265 0.000600243 0.000455077)
(0.000347842 0.000730084 0.000400872)
(0.000265946 0.000840625 0.000316511)
(0.000143516 0.000898436 0.000223166)
(-7.34747e-06 0.000871158 0.00013687)
(-0.000163892 0.000734954 6.76783e-05)
(-0.000287402 0.000485539 2.90017e-05)
(-0.000340466 0.000180618 5.05792e-05)
(-0.000319276 -8.87594e-05 0.000121195)
(-0.000254512 -0.000266541 0.000203814)
(-0.00017818 -0.000352997 0.000286376)
(-0.000111008 -0.00036594 0.000364401)
(-6.6584e-05 -0.000329747 0.00042755)
(-5.68278e-05 -0.000269345 0.000457972)
(-9.35966e-05 -0.0002101 0.000440934)
(-0.000188911 -0.000179214 0.000396895)
(-0.000303586 -0.000197237 0.000394416)
(-0.000390992 -0.000273868 0.000416599)
(-0.000436399 -0.000399137 0.00039878)
(-0.000431102 -0.000546586 0.000332111)
(-0.00037097 -0.000680059 0.000230574)
(-0.000257457 -0.000757065 0.000112365)
(-0.000102953 -0.000737017 -7.11095e-06)
(6.57841e-05 -0.000593652 -0.000114121)
(0.000206959 -0.00032683 -0.000184624)
(-0.000368887 0.000272446 -0.000789767)
(-0.00030213 0.000798598 -0.000729601)
(-0.000242087 0.00116829 -0.000565457)
(-0.000166371 0.0013875 -0.000317048)
(-6.27719e-05 0.00149431 1.258e-05)
(6.11031e-05 0.00153304 0.000420443)
(0.000184652 0.00154398 0.000891208)
(0.000285673 0.00155597 0.00137727)
(0.000365076 0.00157885 0.00176331)
(0.000417808 0.00161874 0.00184186)
(0.000407438 0.00166523 0.00155738)
(0.000375707 0.00170715 0.00113174)
(0.000356978 0.00173556 0.00070551)
(0.000344101 0.00172718 0.000331764)
(0.000319871 0.00164946 2.54685e-05)
(0.00027155 0.00146464 -0.000217293)
(0.000200366 0.00113654 -0.000403096)
(0.000117246 0.000652914 -0.00051405)
(4.33938e-05 8.96624e-05 -0.000502651)
(-8.18534e-06 -0.00041794 -0.000373876)
(-4.1779e-05 -0.000780637 -0.000191292)
(-7.01791e-05 -0.00100084 1.55857e-05)
(-0.000104612 -0.00111444 0.000248576)
(-0.000147702 -0.00116366 0.000522353)
(-0.000196652 -0.00118675 0.000850948)
(-0.000248463 -0.00121105 0.0012237)
(-0.000317641 -0.0012443 0.00156207)
(-0.000398024 -0.00128958 0.00167741)
(-0.000449407 -0.00134122 0.00147481)
(-0.000488955 -0.00139581 0.00111564)
(-0.000546333 -0.00144373 0.000720351)
(-0.000606083 -0.00145393 0.000344198)
(-0.000637637 -0.00138491 1.14988e-05)
(-0.000617154 -0.00119235 -0.00027457)
(-0.000547801 -0.000839224 -0.000520382)
(-0.000454562 -0.000319965 -0.000710985)
(-5.84752e-05 0.000139986 -0.000573804)
(-7.2091e-06 0.000615476 -0.000455369)
(1.49414e-05 0.000937495 -0.0002597)
(3.42418e-05 0.00112205 -1.15111e-05)
(6.87786e-05 0.00119504 0.000277805)
(0.000122519 0.00119549 0.000592133)
(0.000190478 0.00116387 0.000906219)
(0.000266259 0.00113419 0.00118251)
(0.000348697 0.0011307 0.00136824)
(0.00041886 0.00116942 0.00140254)
(0.000458524 0.0012529 0.00127355)
(0.000457914 0.0013606 0.00104209)
(0.000428283 0.00146469 0.000770166)
(0.000369616 0.00153336 0.000497943)
(0.000278188 0.00152785 0.000249098)
(0.000156144 0.00140762 3.56215e-05)
(1.96244e-05 0.00114285 -0.000136314)
(-0.000106029 0.000712835 -0.000245032)
(-0.000186464 0.000198811 -0.000220672)
(-0.000211255 -0.000256738 -7.77029e-05)
(-0.000200909 -0.000569565 9.9719e-05)
(-0.00017938 -0.000753103 0.000287549)
(-0.000165628 -0.000833451 0.000483002)
(-0.000169672 -0.000846671 0.000686014)
(-0.000196584 -0.000828191 0.00089265)
(-0.000250207 -0.000806866 0.00108808)
(-0.000334456 -0.000803501 0.00123634)
(-0.000430942 -0.000834744 0.00127677)
(-0.000515783 -0.000913335 0.0011765)
(-0.000573225 -0.0010293 0.000971162)
(-0.000605775 -0.00115409 0.000707202)
(-0.000603037 -0.00124864 0.000420379)
(-0.00055038 -0.00126318 0.000136041)
(-0.000443609 -0.00114656 -0.000129556)
(-0.000302041 -0.000865141 -0.000364631)
(-0.000160433 -0.00040496 -0.000541253)
(0.000250714 -3.92507e-06 -0.000328331)
(0.000280989 0.00041331 -0.00018242)
(0.000259303 0.000697725 3.43216e-05)
(0.000216181 0.000849326 0.000279431)
(0.000176021 0.000888616 0.000525485)
(0.000156605 0.000851518 0.000743789)
(0.00017027 0.000780999 0.000901365)
(0.000225146 0.000719296 0.000972372)
(0.000325887 0.000701486 0.000969413)
(0.000445543 0.000747742 0.00097525)
(0.000534041 0.000858555 0.00098335)
(0.000561911 0.00101708 0.000932537)
(0.000522152 0.00118925 0.000812586)
(0.000417329 0.00133239 0.000644312)
(0.000256289 0.00139846 0.000457428)
(5.75161e-05 0.00134113 0.00027902)
(-0.000147032 0.00112936 0.000134003)
(-0.000312065 0.000761933 5.67505e-05)
(-0.000396489 0.000318381 9.02886e-05)
(-0.00039486 -7.54195e-05 0.000216541)
(-0.000339089 -0.000346533 0.000378379)
(-0.00026507 -0.000493079 0.000544499)
(-0.000200175 -0.000536807 0.000700342)
(-0.000163963 -0.000510842 0.000830468)
(-0.000170425 -0.000450963 0.000913451)
(-0.000228601 -0.000392096 0.000930943)
(-0.00034142 -0.00036769 0.000897414)
(-0.000478888 -0.000404599 0.000888452)
(-0.000595419 -0.000511466 0.00088511)
(-0.000663925 -0.000678631 0.000823129)
(-0.0006687 -0.000874651 0.000686584)
(-0.000600166 -0.00105099 0.000488689)
(-0.000458995 -0.00114626 0.000254172)
(-0.000262627 -0.00110041 1.16977e-05)
(-4.70502e-05 -0.00087747 -0.000203725)
(0.00013901 -0.000481691 -0.000339263)
(-0.000482584 0.000246741 -0.000803565)
(-0.000393701 0.000874031 -0.000764672)
(-0.000308641 0.00133788 -0.000582378)
(-0.000204979 0.00163414 -0.000270158)
(-7.43132e-05 0.00179721 0.00016245)
(7.43223e-05 0.00187282 0.000698935)
(0.000223145 0.00190521 0.00130573)
(0.000353666 0.00192972 0.00191618)
(0.000461174 0.00196975 0.00240794)
(0.000547158 0.00203986 0.00257194)
(0.000582317 0.00212489 0.00230103)
(0.000547654 0.00220232 0.00180165)
(0.000504823 0.00225239 0.00125442)
(0.000461907 0.00224019 0.000748079)
(0.000409941 0.00212921 0.000323848)
(0.000335987 0.00188253 -5.9621e-06)
(0.000238672 0.00147032 -0.000240274)
(0.000131317 0.000892517 -0.000365982)
(3.7154e-05 0.000235574 -0.000358841)
(-2.88563e-05 -0.000363248 -0.000228674)
(-7.23958e-05 -0.000809502 -2.22665e-05)
(-0.000110779 -0.00109713 0.000231266)
(-0.000156348 -0.00126003 0.000528371)
(-0.000211399 -0.0013427 0.00087741)
(-0.000274097 -0.00138699 0.0012832)
(-0.000343861 -0.00142551 0.00172453)
(-0.000429125 -0.00147894 0.00212447)
(-0.000536816 -0.00155847 0.00230543)
(-0.000644242 -0.00165272 0.00213279)
(-0.000699524 -0.00174503 0.00172355)
(-0.000752149 -0.00181905 0.00122354)
(-0.000799049 -0.00183172 0.000719182)
(-0.000818154 -0.00173629 0.000259918)
(-0.000785156 -0.00148878 -0.000132701)
(-0.000699392 -0.00105741 -0.000453656)
(-0.000587827 -0.000445924 -0.000689687)
(-0.000207667 0.000117456 -0.000588953)
(-0.000123362 0.000682087 -0.000467426)
(-6.40033e-05 0.00108243 -0.000226628)
(-4.82298e-06 0.00132989 9.89852e-05)
(6.91891e-05 0.00145212 0.000488615)
(0.000159526 0.00149075 0.000916234)
(0.000259995 0.00148976 0.0013448)
(0.000362988 0.00148656 0.00172355)
(0.000465511 0.00150832 0.00198749)
(0.000555666 0.00156947 0.00206221)
(0.00061506 0.0016742 0.00192472)
(0.000618481 0.00180357 0.00163809)
(0.000580868 0.00192027 0.00127958)
(0.000508486 0.00198641 0.000908039)
(0.000401237 0.00195882 0.000562924)
(0.000261893 0.00179425 0.000268589)
(0.000106255 0.00146291 4.24246e-05)
(-4.002e-05 0.000952573 -8.33312e-05)
(-0.000144867 0.000354829 -5.79003e-05)
(-0.000195887 -0.000182083 9.81229e-05)
(-0.000209934 -0.000568298 0.000313098)
(-0.00021223 -0.000811266 0.000552769)
(-0.000222423 -0.000938035 0.000807464)
(-0.000250462 -0.000987637 0.00107301)
(-0.000300359 -0.000999822 0.00134112)
(-0.000374049 -0.00100729 0.00159153)
(-0.000474129 -0.00103322 0.00178406)
(-0.000592249 -0.00108953 0.00185194)
(-0.000705548 -0.00118947 0.00175014)
(-0.000780623 -0.00132805 0.00150353)
(-0.000820341 -0.00146836 0.00116257)
(-0.000818579 -0.00156496 0.000775471)
(-0.000763287 -0.00156298 0.0003812)
(-0.000649584 -0.00140712 1.01352e-05)
(-0.000495335 -0.00106169 -0.000309585)
(-0.000335421 -0.000518908 -0.000533638)
(9.36065e-05 -2.3236e-05 -0.000352605)
(0.000163087 0.000472212 -0.000171279)
(0.000187069 0.000819311 0.000116389)
(0.000193132 0.00101998 0.000453564)
(0.000201574 0.00109918 0.000800044)
(0.000226046 0.0010966 0.0011178)
(0.000274547 0.00105817 0.00136644)
(0.000351154 0.00102695 0.00151188)
(0.000454781 0.00103601 0.00155355)
(0.000580263 0.00110592 0.00155944)
(0.000674361 0.00123451 0.00154352)
(0.000707511 0.00140645 0.00145854)
(0.000669694 0.00158771 0.00128792)
(0.000561483 0.00173318 0.00105311)
(0.000391387 0.0017895 0.000789879)
(0.000178844 0.00170389 0.00053595)
(-4.27677e-05 0.0014416 0.00033172)
(-0.000229189 0.00100525 0.00022708)
(-0.000340128 0.000484432 0.000266553)
(-0.000369257 1.77733e-05 0.000426101)
(-0.000346381 -0.000316318 0.000639685)
(-0.00030574 -0.000514408 0.000864138)
(-0.000274152 -0.000599893 0.00107645)
(-0.000270396 -0.000609322 0.00125765)
(-0.00030531 -0.000582621 0.00138582)
(-0.000383141 -0.000556038 0.00144073)
(-0.000499423 -0.00055967 0.0014263)
(-0.000650851 -0.000619646 0.001404)
(-0.000781954 -0.00074284 0.00137622)
(-0.00086527 -0.000922639 0.00128488)
(-0.000883632 -0.00112863 0.00109889)
(-0.000824644 -0.00131054 0.000826568)
(-0.000686657 -0.00140089 0.000495792)
(-0.000485836 -0.00133056 0.000147511)
(-0.000257817 -0.00105691 -0.00016136)
(-4.97898e-05 -0.000586426 -0.000353693)
(-0.000601282 0.000150269 -0.000573536)
(-0.000496716 0.000813257 -0.000578433)
(-0.000385531 0.0013312 -0.000417083)
(-0.000251786 0.00168845 -8.90413e-05)
(-9.28556e-05 0.0019118 0.00039306)
(8.20543e-05 0.00204351 0.00100132)
(0.000258028 0.00212639 0.00168859)
(0.000418368 0.00219605 0.00237764)
(0.000553419 0.00228026 0.00294484)
(0.000671191 0.00239471 0.00319641)
(0.000747294 0.00251754 0.00299886)
(0.00070993 0.00261574 0.00249132)
(0.000643208 0.00267209 0.0018826)
(0.000566379 0.00264501 0.0012948)
(0.000481915 0.00249815 0.000794922)
(0.000383465 0.00220181 0.000412202)
(0.000269714 0.00174013 0.000153947)
(0.000151619 0.00112951 2.18858e-05)
(4.81995e-05 0.000453997 1.39216e-05)
(-2.95497e-05 -0.000169334 0.000116877)
(-8.89836e-05 -0.000656223 0.00030616)
(-0.000146383 -0.000992828 0.000561808)
(-0.000212296 -0.00120569 0.000877734)
(-0.000288332 -0.00133566 0.00125505)
(-0.000372221 -0.00142366 0.00168966)
(-0.000462575 -0.00150373 0.00215457)
(-0.000563213 -0.00160189 0.00257754)
(-0.000689356 -0.00173078 0.00281138)
(-0.0008291 -0.00187022 0.00271682)
(-0.000896472 -0.00198858 0.00231974)
(-0.000937493 -0.00207218 0.00177729)
(-0.000960325 -0.00207541 0.00120284)
(-0.00095734 -0.00195259 0.000667458)
(-0.000913063 -0.00166698 0.000209814)
(-0.000824761 -0.00119864 -0.000155465)
(-0.000712472 -0.000563174 -0.000421811)
(-0.000402071 4.94486e-05 -0.000381268)
(-0.000286979 0.000647636 -0.000284122)
(-0.000185063 0.00109419 -4.10275e-05)
(-7.76464e-05 0.00139159 0.000314655)
(4.40362e-05 0.00156748 0.000756877)
(0.000177861 0.00166161 0.00125275)
(0.000315866 0.00171517 0.00175683)
(0.000449049 0.00176282 0.00220911)
(0.000573118 0.00182908 0.00253651)
(0.000682542 0.00192361 0.00266017)
(0.000756127 0.00204931 0.00254814)
(0.000762261 0.00218928 0.00224939)
(0.000718116 0.00230218 0.00184765)
(0.00063608 0.00235022 0.00141799)
(0.000520754 0.00229287 0.00101491)
(0.000376471 0.00209155 0.000674387)
(0.000216286 0.00172114 0.000422291)
(6.18527e-05 0.00118196 0.000290851)
(-5.99857e-05 0.000563366 0.000307084)
(-0.000137632 -6.61166e-07 0.000447068)
(-0.00018475 -0.000426687 0.000658051)
(-0.000223764 -0.00071431 0.000906964)
(-0.000271336 -0.000889034 0.00118071)
(-0.000334863 -0.000988349 0.00147139)
(-0.000415504 -0.00105092 0.00176676)
(-0.00051233 -0.00110825 0.00204286)
(-0.000626695 -0.00118117 0.00225853)
(-0.000758244 -0.00127544 0.00235279)
(-0.000886236 -0.00139927 0.00227624)
(-0.000972375 -0.00154892 0.00202966)
(-0.00101555 -0.00168655 0.00165896)
(-0.00101416 -0.00176733 0.00122043)
(-0.000961531 -0.00173987 0.000763747)
(-0.000854548 -0.00155394 0.000330393)
(-0.000706334 -0.00117686 -3.98898e-05)
(-0.000545112 -0.00060955 -0.000296253)
(-0.000158161 -6.26229e-05 -0.000176019)
(-4.49514e-05 0.000464188 8.09349e-06)
(3.50548e-05 0.000846394 0.000322262)
(0.000104895 0.00108532 0.00070437)
(0.00017802 0.00120963 0.00110871)
(0.000260541 0.00125878 0.001493)
(0.000353859 0.00127469 0.00181225)
(0.000457839 0.00129407 0.00202438)
(0.000569697 0.00134323 0.00211256)
(0.000699291 0.00143982 0.00212253)
(0.000794779 0.00158327 0.002096)
(0.000831751 0.00175786 0.00199815)
(0.000800931 0.00192967 0.0018025)
(0.000702561 0.0020575 0.00153153)
(0.000543824 0.00209188 0.00122608)
(0.000341044 0.00198187 0.000931754)
(0.000123214 0.00169246 0.000698498)
(-7.03202e-05 0.00122979 0.000581132)
(-0.000203329 0.000683059 0.000617807)
(-0.000268604 0.000186424 0.000780918)
(-0.000291329 -0.000183187 0.0010055)
(-0.000302034 -0.000420946 0.00124709)
(-0.00032297 -0.000551371 0.00148028)
(-0.000367533 -0.000610872 0.00168515)
(-0.000440803 -0.000637502 0.00184021)
(-0.000542423 -0.000662692 0.0019236)
(-0.00066587 -0.000708465 0.00192681)
(-0.000821802 -0.000794247 0.00188806)
(-0.000957849 -0.000930685 0.00184612)
(-0.00105113 -0.00111125 0.00174846)
(-0.00108542 -0.00130588 0.00154396)
(-0.0010476 -0.00146884 0.00123629)
(-0.000933372 -0.00153773 0.000854052)
(-0.000753944 -0.00144572 0.000444712)
(-0.000538087 -0.00114814 7.79551e-05)
(-0.000326356 -0.000652398 -0.000155906)
(-0.000719692 5.73598e-06 -0.000124664)
(-0.000608276 0.000654146 -0.000183534)
(-0.000475842 0.00118961 -7.31372e-05)
(-0.000312529 0.00158927 0.000224427)
(-0.000122202 0.0018715 0.000699996)
(8.42118e-05 0.00207195 0.00132064)
(0.00029264 0.00222806 0.00203233)
(0.000487027 0.0023708 0.00275452)
(0.000654191 0.00252383 0.00336836)
(0.000796381 0.002696 0.00370829)
(0.000886903 0.00285679 0.00362449)
(0.000852826 0.00296496 0.00316112)
(0.000768621 0.00301407 0.00254652)
(0.000661756 0.00296477 0.00193133)
(0.000546819 0.00278469 0.00140234)
(0.000427668 0.00245515 0.00100123)
(0.000305822 0.00197632 0.000737333)
(0.000188075 0.00137837 0.00059996)
(8.45015e-05 0.000734983 0.00056801)
(-2.88757e-06 0.000134934 0.000626663)
(-8.39582e-05 -0.0003556 0.000768733)
(-0.000170998 -0.000720067 0.000987034)
(-0.000269569 -0.000977424 0.0012777)
(-0.000378282 -0.00116204 0.00163763)
(-0.00049244 -0.00131048 0.00205674)
(-0.000608034 -0.00145407 0.0025063)
(-0.000725285 -0.0016165 0.00292396)
(-0.000854274 -0.00180588 0.00320143)
(-0.000989009 -0.00199372 0.00320219)
(-0.00107017 -0.0021355 0.00286707)
(-0.00109906 -0.00221678 0.00234267)
(-0.00109709 -0.00220379 0.00175952)
(-0.00107045 -0.00205835 0.00120379)
(-0.00101525 -0.00175443 0.000726232)
(-0.000929869 -0.00128486 0.000346121)
(-0.000826246 -0.00067383 6.23575e-05)
(-0.000616612 -5.12465e-05 4.137e-05)
(-0.000478069 0.000538319 9.38337e-05)
(-0.000336917 0.00100189 0.000300927)
(-0.000181115 0.0013345 0.000638947)
(-8.7755e-06 0.00156193 0.00108288)
(0.000173369 0.00171992 0.00159763)
(0.000354356 0.00184344 0.00213373)
(0.000522884 0.00196001 0.00262663)
(0.000671997 0.00208684 0.00300051)
(0.000797436 0.00222754 0.00317902)
(0.000877636 0.00237868 0.00311803)
(0.000888079 0.00252275 0.00284288)
(0.000841364 0.00262284 0.00243978)
(0.00075412 0.00264596 0.00199598)
(0.000635901 0.00255861 0.00157708)
(0.000493653 0.00233115 0.00122691)
(0.00033765 0.00194634 0.000974364)
(0.000183925 0.00141572 0.000843726)
(5.22197e-05 0.000819286 0.000841681)
(-4.96481e-05 0.000267496 0.000944361)
(-0.000133284 -0.000168549 0.00111715)
(-0.000216559 -0.000483479 0.00133588)
(-0.000310931 -0.000700643 0.00158892)
(-0.000419191 -0.000854229 0.00186693)
(-0.000538115 -0.000978553 0.00215531)
(-0.000662765 -0.00109999 0.00242893)
(-0.000791471 -0.00123298 0.0026498)
(-0.000925956 -0.00137814 0.00276847)
(-0.00105418 -0.00153295 0.00273279)
(-0.00114718 -0.00168854 0.00251912)
(-0.00119238 -0.00181542 0.00216423)
(-0.00119156 -0.00187412 0.00172623)
(-0.00114388 -0.00182155 0.00126031)
(-0.0010493 -0.00161727 0.000813872)
(-0.000916374 -0.00123542 0.000430573)
(-0.000764694 -0.000684782 0.000158572)
(-0.000462343 -0.000119212 0.000214957)
(-0.000308883 0.000403341 0.000369521)
(-0.000172505 0.00079751 0.000664849)
(-3.65624e-05 0.00106324 0.00104239)
(0.000105646 0.00123091 0.00145756)
(0.000252443 0.0013378 0.00186824)
(0.000398111 0.00141873 0.00222755)
(0.000537715 0.00150067 0.00248744)
(0.000667579 0.00160037 0.0026174)
(0.000798414 0.00172873 0.00263963)
(0.000896078 0.00188963 0.00261525)
(0.00094006 0.00206547 0.00252295)
(0.000920962 0.00222229 0.00232948)
(0.000839751 0.00232543 0.00205662)
(0.000702497 0.00233446 0.00174771)
(0.000521352 0.00220598 0.00145199)
(0.000318646 0.00190846 0.00122106)
(0.000126723 0.00145039 0.00110458)
(-2.39036e-05 0.000913772 0.00112977)
(-0.000125384 0.000418858 0.00126911)
(-0.000197337 3.73425e-05 0.00146683)
(-0.000265815 -0.000225806 0.0016856)
(-0.000347499 -0.000396347 0.00190323)
(-0.000448848 -0.000509236 0.0021013)
(-0.000568293 -0.000597651 0.0022594)
(-0.000700487 -0.000685171 0.00235485)
(-0.000838895 -0.000783497 0.00237113)
(-0.00098809 -0.000900728 0.00232564)
(-0.00112442 -0.00105285 0.00227795)
(-0.00122733 -0.0012321 0.00218817)
(-0.00127817 -0.00140963 0.00199549)
(-0.00126508 -0.00154606 0.00169595)
(-0.00118244 -0.00158876 0.00131447)
(-0.00103651 -0.00147988 0.000898216)
(-0.000847349 -0.00117835 0.00051804)
(-0.000645805 -0.000692991 0.000264185)
(-0.000838986 -0.00016447 0.000493467)
(-0.000724094 0.000435103 0.000381418)
(-0.000573063 0.000957971 0.000424407)
(-0.000380459 0.0013814 0.000656888)
(-0.000156317 0.0017165 0.00107925)
(8.4788e-05 0.00199018 0.00166095)
(0.000327092 0.00223138 0.00234816)
(0.00055333 0.00246297 0.00306451)
(0.000746793 0.00269963 0.00370459)
(0.000900355 0.00293962 0.00412883)
(0.000990454 0.00314314 0.00416737)
(0.00097218 0.00326213 0.00378565)
(0.000877453 0.00329884 0.00321422)
(0.000747473 0.00322669 0.00262031)
(0.000609273 0.00302117 0.00210252)
(0.000476958 0.00267612 0.00171019)
(0.000355494 0.00220624 0.00145215)
(0.000246138 0.00165007 0.00130858)
(0.000146527 0.0010678 0.00124798)
(4.79808e-05 0.00052091 0.00125458)
(-6.10498e-05 5.46662e-05 0.00133184)
(-0.000187332 -0.000317512 0.00148498)
(-0.00032943 -0.000609399 0.00171625)
(-0.000480374 -0.000848308 0.00202257)
(-0.000630619 -0.00106396 0.00239196)
(-0.000771095 -0.00128131 0.00279821)
(-0.000896804 -0.00151682 0.00319319)
(-0.00101119 -0.00177184 0.00349756)
(-0.00112229 -0.00201377 0.00357974)
(-0.00121327 -0.00218862 0.00334563)
(-0.00123131 -0.00226773 0.00289283)
(-0.00121089 -0.00224075 0.00235414)
(-0.0011673 -0.00208245 0.00182616)
(-0.00110605 -0.00177941 0.0013666)
(-0.00102755 -0.00133556 0.00099602)
(-0.000936815 -0.000778537 0.000707747)
(-0.000829072 -0.000170659 0.000634656)
(-0.000674989 0.000381552 0.000633379)
(-0.000501345 0.000837756 0.000779171)
(-0.00030156 0.00119052 0.00106276)
(-8.00822e-05 0.00146295 0.00146571)
(0.00015111 0.0016856 0.00195543)
(0.000376746 0.0018856 0.00248321)
(0.000581748 0.00208105 0.00298556)
(0.000755209 0.00227923 0.00338941)
(0.000891874 0.00247627 0.00362133)
(0.000976279 0.00265872 0.00362266)
(0.000994498 0.00280699 0.00339697)
(0.000948447 0.00289388 0.00302871)
(0.000859083 0.00289358 0.00261011)
(0.000741328 0.00278224 0.00221191)
(0.00060511 0.00254105 0.00188156)
(0.000458518 0.00216221 0.00164662)
(0.000311397 0.00166484 0.00152036)
(0.000174736 0.00111623 0.00149506)
(5.09663e-05 0.000602685 0.00154877)
(-6.98487e-05 0.000180641 0.00166176)
(-0.000200538 -0.000144332 0.00182208)
(-0.000346493 -0.000394101 0.00202348)
(-0.000504576 -0.000599225 0.00225796)
(-0.000665783 -0.000788167 0.00251103)
(-0.000819624 -0.000979969 0.00275935)
(-0.000959861 -0.00118077 0.00297092)
(-0.00108864 -0.00138494 0.00310587)
(-0.00120783 -0.00157696 0.00311314)
(-0.0013019 -0.00174226 0.00295632)
(-0.00134642 -0.00186169 0.00265518)
(-0.00134594 -0.001903 0.00226202)
(-0.00130441 -0.00183375 0.00183222)
(-0.0012243 -0.00162489 0.00141437)
(-0.00111053 -0.0012592 0.00105029)
(-0.000974512 -0.000750782 0.000779761)
(-0.000769471 -0.000187447 0.000782971)
(-0.000587487 0.000307714 0.000887178)
(-0.000404259 0.000695434 0.00112942)
(-0.000209334 0.000975931 0.00146292)
(-2.1357e-06 0.00118035 0.00184897)
(0.000208494 0.00134317 0.00224858)
(0.000409676 0.00149152 0.00261573)
(0.000590626 0.00164162 0.00289991)
(0.00074565 0.00179913 0.00306182)
(0.000880143 0.00196611 0.00310504)
(0.000983112 0.00214853 0.00309054)
(0.00103498 0.00232737 0.00301434)
(0.0010282 0.00247143 0.00284614)
(0.00096494 0.00255235 0.00260215)
(0.000850663 0.00254029 0.00232342)
(0.000693658 0.00240203 0.00205834)
(0.00050943 0.00211182 0.00185393)
(0.000322938 0.00167872 0.00174834)
(0.000159072 0.00117451 0.0017568)
(2.57957e-05 0.000702956 0.00185449)
(-9.18992e-05 0.000328975 0.00199921)
(-0.00021615 5.53403e-05 0.00216616)
(-0.00035836 -0.000145711 0.00233983)
(-0.000518125 -0.000307615 0.00250507)
(-0.000686916 -0.000457946 0.00264351)
(-0.000853365 -0.000611447 0.00273345)
(-0.00100919 -0.000768651 0.00275585)
(-0.0011521 -0.000925721 0.00271504)
(-0.00128931 -0.00109816 0.00266543)
(-0.00139626 -0.00127844 0.00259048)
(-0.00145734 -0.00144291 0.002434)
(-0.00146396 -0.00155787 0.00217887)
(-0.00141026 -0.00158081 0.00184205)
(-0.00129821 -0.00146452 0.00146523)
(-0.00113999 -0.00117431 0.00111175)
(-0.000956844 -0.000720741 0.000860854)
(-0.000956757 -0.000340643 0.001224)
(-0.000834773 0.000190927 0.00106708)
(-0.000663073 0.00068017 0.00103961)
(-0.000441122 0.00111062 0.00118864)
(-0.000183898 0.0014886 0.00152706)
(9.00632e-05 0.00183181 0.00203284)
(0.000361637 0.00215888 0.00265871)
(0.000610283 0.00248202 0.00333758)
(0.000815911 0.00280458 0.0039793)
(0.000967339 0.00311586 0.00446274)