/*--------------------------------*- C++ -*----------------------------------*\
| =========                 |                                                 |
| \\      /  F ield         | OpenFOAM: The Open Source CFD Toolbox           |
|  \\    /   O peration     | Version:  2312                                  |
|   \\  /    A nd           | Website:  www.openfoam.com                      |
|    \\/     M anipulation  |                                                 |
\*---------------------------------------------------------------------------*/
FoamFile
{
    version     2.0;
    format      ascii;
    arch        "LSB;label=32;scalar=64";
    class       volVectorField;
    location    "0.9";
    object      D_0_0_0;
}
// * * * * * * * * * * * * * * * * * * * * * * * * * * * * * * * * * * * * * //

dimensions      [0 1 0 0 0 0 0];

internalField   nonuniform List<vector> 
1620
(
(-0.000157647 7.90279e-05 -0.000206217)
(-0.000127312 0.000193036 -0.000186264)
(-9.00273e-05 0.000270594 -0.000148842)
(-4.84841e-05 0.000317906 -9.82915e-05)
(-4.29042e-07 0.000347995 -3.30638e-05)
(5.07785e-05 0.000373442 4.99889e-05)
(9.36101e-05 0.000403599 0.000154289)
(0.000111446 0.000440401 0.000278729)
(0.000107949 0.00046886 0.000389227)
(8.46221e-05 0.000481433 0.000376132)
(4.20391e-05 0.000469664 0.000261602)
(2.07154e-05 0.000441206 0.000151201)
(2.5848e-05 0.000413512 6.33594e-05)
(4.21027e-05 0.00038838 -5.01312e-06)
(5.78331e-05 0.000358131 -5.83985e-05)
(6.9308e-05 0.000311756 -0.00010166)
(7.7494e-05 0.000238284 -0.000139407)
(7.70402e-05 0.000131662 -0.000168458)
(5.98095e-05 3.26641e-06 -0.0001649)
(2.98276e-05 -0.000109802 -0.000129595)
(2.07232e-07 -0.000193052 -8.9347e-05)
(-2.38234e-05 -0.00024844 -4.79683e-05)
(-4.5531e-05 -0.000283588 -1.96876e-06)
(-6.73153e-05 -0.00030897 5.37889e-05)
(-8.6057e-05 -0.000335548 0.000128087)
(-9.19823e-05 -0.000369235 0.000230847)
(-9.23517e-05 -0.00039711 0.000340756)
(-8.10146e-05 -0.000411139 0.000344391)
(-5.31013e-05 -0.000402452 0.000253899)
(-4.67825e-05 -0.000379377 0.000159042)
(-6.76076e-05 -0.000356346 7.74723e-05)
(-0.000100671 -0.000333848 9.44348e-06)
(-0.000131888 -0.000303253 -4.69348e-05)
(-0.000154718 -0.000252551 -9.59977e-05)
(-0.000169456 -0.000170807 -0.000143721)
(-0.000172471 -5.43821e-05 -0.000188967)
(2.81157e-05 4.25377e-05 -0.000121583)
(3.75293e-05 0.000153308 -8.51964e-05)
(3.98163e-05 0.000222931 -5.04862e-05)
(4.05275e-05 0.000260046 -1.06221e-05)
(4.42958e-05 0.000271051 3.52048e-05)
(5.17631e-05 0.00026519 8.3853e-05)
(6.09276e-05 0.000251303 0.000130746)
(7.02493e-05 0.000237092 0.000170444)
(8.38674e-05 0.000231357 0.000195307)
(8.8112e-05 0.000241057 0.000191966)
(8.53424e-05 0.00026327 0.000165356)
(7.54789e-05 0.000289257 0.000128413)
(6.46547e-05 0.000314051 8.82959e-05)
(5.04012e-05 0.000331846 4.90008e-05)
(2.93122e-05 0.000334172 1.37013e-05)
(5.62131e-07 0.000311315 -1.60933e-05)
(-3.22496e-05 0.000255888 -4.28593e-05)
(-6.39161e-05 0.000155887 -7.32812e-05)
(-8.20097e-05 2.83345e-05 -6.66165e-05)
(-8.34893e-05 -7.84382e-05 -2.64899e-05)
(-7.70027e-05 -0.00014814 3.48445e-06)
(-6.69933e-05 -0.000188001 3.19476e-05)
(-5.82145e-05 -0.000202989 6.20233e-05)
(-5.30571e-05 -0.000201051 9.33714e-05)
(-5.25864e-05 -0.000189631 0.000125309)
(-5.82592e-05 -0.000175184 0.000156526)
(-7.52057e-05 -0.000166517 0.000180257)
(-8.87621e-05 -0.000171661 0.000178892)
(-9.73926e-05 -0.000191509 0.000155267)
(-0.000101538 -0.000219269 0.000120153)
(-0.000105043 -0.000248869 7.93771e-05)
(-0.000103437 -0.000272449 3.70723e-05)
(-9.117e-05 -0.000278973 -3.17055e-06)
(-6.61773e-05 -0.000256586 -3.97849e-05)
(-3.23632e-05 -0.000197238 -7.56013e-05)
(3.36278e-06 -9.10941e-05 -0.000117774)
(0.000174295 -9.92057e-07 -1.53492e-05)
(0.000159223 0.000104311 7.32679e-06)
(0.000120251 0.000167677 3.15052e-05)
(7.60813e-05 0.000189842 5.58511e-05)
(3.69619e-05 0.000178492 7.89612e-05)
(8.84238e-06 0.000145375 9.53485e-05)
(-3.16351e-06 0.000103608 9.67864e-05)
(7.31132e-06 6.66441e-05 7.72488e-05)
(4.92677e-05 4.78028e-05 4.61423e-05)
(0.000110388 5.32122e-05 4.55881e-05)
(0.00014867 8.64025e-05 7.87521e-05)
(0.000157497 0.000141384 9.50937e-05)
(0.000141742 0.000203905 9.15898e-05)
(0.000105533 0.000260162 7.74703e-05)
(5.17487e-05 0.000296725 6.15259e-05)
(-1.58606e-05 0.000300364 4.94973e-05)
(-8.84356e-05 0.000260364 4.27985e-05)
(-0.000145177 0.000172218 3.98717e-05)
(-0.000162604 6.18741e-05 4.77399e-05)
(-0.000139924 -3.43446e-05 6.24511e-05)
(-9.82352e-05 -9.11981e-05 7.44548e-05)
(-5.55933e-05 -0.000111076 8.64038e-05)
(-2.02269e-05 -0.000102336 9.9217e-05)
(3.97649e-06 -7.51786e-05 0.000108724)
(1.26289e-05 -3.91676e-05 0.000106844)
(-1.45486e-06 -4.35133e-06 8.59161e-05)
(-4.70424e-05 1.62805e-05 5.24681e-05)
(-0.00011089 1.35468e-05 4.64719e-05)
(-0.000153229 -1.91661e-05 7.28804e-05)
(-0.000170908 -7.65458e-05 8.28138e-05)
(-0.000164407 -0.000145114 7.33399e-05)
(-0.000133622 -0.000209475 5.29484e-05)
(-7.91672e-05 -0.00025298 2.96173e-05)
(-5.03753e-06 -0.000259461 8.35757e-06)
(7.77663e-05 -0.000216979 -9.39773e-06)
(0.000146153 -0.000121924 -2.19769e-05)
(-0.000266048 0.000209841 -0.000551566)
(-0.000218489 0.000557419 -0.000501422)
(-0.000172873 0.000793192 -0.000393289)
(-0.000118236 0.000926007 -0.000243523)
(-4.38655e-05 0.000987173 -5.16436e-05)
(4.6647e-05 0.00101045 0.000186722)
(0.000135628 0.00102529 0.000471751)
(0.000200442 0.00104967 0.000783397)
(0.000245362 0.00107669 0.00103513)
(0.000267684 0.00109951 0.00104453)
(0.000234361 0.00110934 0.000816308)
(0.000207441 0.00110999 0.000538087)
(0.000203931 0.00110902 0.000286745)
(0.000208147 0.00109503 7.88341e-05)
(0.000203314 0.00104442 -8.82e-05)
(0.000182493 0.000928294 -0.000224359)
(0.000148656 0.000717561 -0.000337973)
(0.00010407 0.000399021 -0.000415045)
(5.76766e-05 2.17572e-05 -0.000406925)
(1.7842e-05 -0.000314945 -0.00031511)
(-1.28997e-05 -0.000550821 -0.000197269)
(-3.7381e-05 -0.000690772 -7.28358e-05)
(-6.39902e-05 -0.000761074 6.31291e-05)
(-9.66889e-05 -0.00079231 0.000224446)
(-0.000132593 -0.000813254 0.000428459)
(-0.000164405 -0.000843432 0.000679901)
(-0.000207381 -0.000876101 0.000916685)
(-0.00025233 -0.000902699 0.000961476)
(-0.000258286 -0.000917215 0.000788584)
(-0.000277353 -0.000928099 0.000550124)
(-0.000322909 -0.000939927 0.000315425)
(-0.000374425 -0.000936618 0.000105567)
(-0.00040618 -0.000889077 -7.53482e-05)
(-0.000404021 -0.000764051 -0.000233927)
(-0.00037178 -0.000532194 -0.000380332)
(-0.000320173 -0.000186411 -0.000504255)
(2.04629e-05 0.000108978 -0.000374423)
(4.5321e-05 0.000428011 -0.000289499)
(4.7369e-05 0.000637233 -0.000173384)
(4.5892e-05 0.000749787 -3.38045e-05)
(5.54608e-05 0.000785871 0.000125724)
(8.03472e-05 0.000773684 0.000297613)
(0.000117469 0.000741496 0.000469039)
(0.000163099 0.000712809 0.000620105)
(0.000219721 0.000704778 0.000718912)
(0.000266473 0.000729392 0.000725524)
(0.000286373 0.000785185 0.00064078)
(0.000280298 0.000855658 0.000506281)
(0.000258067 0.000925521 0.00035622)
(0.000217229 0.000975092 0.000209965)
(0.00015334 0.000978155 7.80646e-05)
(6.77391e-05 0.000906118 -3.5566e-05)
(-2.79056e-05 0.000736071 -0.00013198)
(-0.000115588 0.00044843 -0.000206105)
(-0.000166252 9.74834e-05 -0.000190011)
(-0.000172879 -0.000209214 -9.17538e-05)
(-0.000155042 -0.000413414 1.26573e-05)
(-0.000129202 -0.00052752 0.000117595)
(-0.000108979 -0.000570782 0.000225682)
(-0.000101784 -0.000568634 0.000338319)
(-0.000111755 -0.000545242 0.00045464)
(-0.000143222 -0.000520277 0.000567669)
(-0.000202487 -0.000509283 0.000653163)
(-0.000267777 -0.000526731 0.000667504)
(-0.000317337 -0.000579355 0.000598772)
(-0.000349847 -0.000656178 0.000476528)
(-0.000368581 -0.000740438 0.0003286)
(-0.00036387 -0.000807137 0.000173545)
(-0.000324109 -0.000822539 2.33211e-05)
(-0.000247009 -0.000751402 -0.000116691)
(-0.000146435 -0.000568893 -0.000246337)
(-4.6546e-05 -0.000261017 -0.000358255)
(0.000276121 -1.9419e-06 -0.000168866)
(0.000277178 0.000281574 -8.3386e-05)
(0.00023229 0.000469929 3.21454e-05)
(0.000170724 0.000561735 0.000157212)
(0.000113485 0.000572863 0.000279805)
(7.52997e-05 0.000529708 0.000383295)
(6.78027e-05 0.000463169 0.000445683)
(0.000101214 0.000404307 0.0004509)
(0.000188192 0.000380356 0.000419358)
(0.000293496 0.000405587 0.000425727)
(0.000364446 0.00048342 0.000458807)
(0.000382782 0.000600407 0.000452343)
(0.000348465 0.000729163 0.000398747)
(0.000266932 0.000838609 0.000315306)
(0.000145165 0.000895696 0.000222998)
(-4.80889e-06 0.000868419 0.000137706)
(-0.00016045 0.00073317 6.93818e-05)
(-0.000283394 0.000485731 3.12572e-05)
(-0.000336545 0.000183242 5.26441e-05)
(-0.000316142 -8.41354e-05 0.000122415)
(-0.000252577 -0.000260917 0.000203992)
(-0.000177527 -0.000347326 0.000285517)
(-0.000111479 -0.000360993 0.000362584)
(-6.78835e-05 -0.000326027 0.000424965)
(-5.85893e-05 -0.000267062 0.000454981)
(-9.54018e-05 -0.000209187 0.000438044)
(-0.000190236 -0.000179342 0.00039439)
(-0.000304273 -0.000197891 0.000391852)
(-0.000391225 -0.000274369 0.000413738)
(-0.000436349 -0.000398798 0.000396063)
(-0.000431026 -0.000544911 0.000330074)
(-0.000371261 -0.000676937 0.000229633)
(-0.000258585 -0.000752931 0.00011277)
(-0.000105268 -0.000732808 -5.27127e-06)
(6.22523e-05 -0.000590558 -0.000110934)
(0.000202595 -0.000325997 -0.00018051)
(-0.000369464 0.000268452 -0.00078227)
(-0.000302057 0.000791006 -0.000722511)
(-0.000240999 0.00115848 -0.000559319)
(-0.000164496 0.00137668 -0.000312473)
(-6.05849e-05 0.00148356 1.48326e-05)
(6.32212e-05 0.00152328 0.000419634)
(0.000186538 0.00153584 0.0008868)
(0.000287392 0.00154966 0.00136914)
(0.000366675 0.00157411 0.00175223)
(0.000419365 0.00161473 0.00183045)
(0.000409255 0.00166108 0.00154891)
(0.000377457 0.00170233 0.00112723)
(0.000358175 0.00172996 0.000704676)
(0.00034461 0.00172107 0.000333856)
(0.000319946 0.00164347 2.95868e-05)
(0.000271674 0.00145968 -0.000211941)
(0.000200875 0.0011338 -0.000396992)
(0.00011803 0.000653783 -0.000507533)
(4.39242e-05 9.48787e-05 -0.00049641)
(-8.47363e-06 -0.000409048 -0.000368602)
(-4.31317e-05 -0.000769554 -0.000187237)
(-7.2405e-05 -0.000988917 1.81939e-05)
(-0.000107343 -0.00110274 0.000249386)
(-0.00015062 -0.00115297 0.000520945)
(-0.000199548 -0.00117754 0.000846879)
(-0.000251216 -0.00120351 0.00121662)
(-0.000320005 -0.00123827 0.00155226)
(-0.00039987 -0.00128443 0.00166679)
(-0.000450963 -0.00133609 0.00146623)
(-0.000490039 -0.00138999 0.00111042)
(-0.000546457 -0.00143692 0.000718622)
(-0.000605133 -0.00144637 0.000345559)
(-0.000636087 -0.00137734 1.51827e-05)
(-0.000615893 -0.00118585 -0.000269357)
(-0.00054747 -0.00083508 -0.0005141)
(-0.000455041 -0.000319601 -0.000703835)
(-6.06391e-05 0.000136409 -0.000566133)
(-8.81903e-06 0.000608655 -0.000448899)
(1.42396e-05 0.000928902 -0.000254978)
(3.44328e-05 0.00111285 -8.93113e-06)
(6.96066e-05 0.00118634 0.000277899)
(0.00012371 0.00118812 0.00058957)
(0.000191862 0.00115829 0.000901086)
(0.000267777 0.0011304 0.00117521)
(0.000350307 0.00112835 0.00135961)
(0.000420588 0.00116779 0.00139389)
(0.00046027 0.00125117 0.00126632)
(0.000459517 0.00135814 0.0010371)
(0.000429565 0.00146123 0.00076766)
(0.000370625 0.001529 0.000497796)
(0.000279208 0.00152313 0.000250983)
(0.000157538 0.00140349 3.91378e-05)
(2.15441e-05 0.00114047 -0.000131513)
(-0.000103766 0.00071363 -0.000239375)
(-0.000184417 0.00020353 -0.000215324)
(-0.000210039 -0.000248819 -7.37473e-05)
(-0.000200831 -0.000559932 0.000102018)
(-0.000180401 -0.000742977 0.000288105)
(-0.000167478 -0.000823866 0.000481746)
(-0.000172016 -0.00083835 0.00068292)
(-0.000199105 -0.000821513 0.000887764)
(-0.000252632 -0.000801882 0.00108155)
(-0.000336541 -0.000799959 0.00122858)
(-0.000432632 -0.00083208 0.00126871)
(-0.000517042 -0.0009107 0.0011694)
(-0.000573969 -0.0010259 0.000965939)
(-0.000605879 -0.00114945 0.000704349)
(-0.000602646 -0.00124277 0.000420066)
(-0.000549995 -0.00125668 0.000138169)
(-0.000443878 -0.0011406 -0.000125256)
(-0.000303293 -0.000861104 -0.000358477)
(-0.000162468 -0.000404395 -0.000533695)
(0.000246155 -6.96511e-06 -0.00032071)
(0.00027705 0.000407344 -0.000176525)
(0.000256399 0.000690266 3.77168e-05)
(0.000214507 0.00084164 0.000280098)
(0.000175533 0.00088184 0.000523528)
(0.000157107 0.000846438 0.00073961)
(0.000171508 0.000777914 0.000895668)
(0.000226839 0.000718022 0.000966092)
(0.000327659 0.000701496 0.000963334)
(0.000447104 0.000748373 0.000969291)
(0.000535345 0.000859114 0.000977499)
(0.000563023 0.00101688 0.000927342)
(0.00052324 0.0011878 0.000808674)
(0.000418692 0.00132962 0.000642139)
(0.000258299 0.00139484 0.000457221)
(6.04504e-05 0.00133765 0.000280788)
(-0.00014319 0.0011273 0.000137499)
(-0.000307693 0.000762656 6.12737e-05)
(-0.000392315 0.000322509 9.44842e-05)
(-0.000391651 -6.85653e-05 0.000219196)
(-0.00033728 -0.00033828 0.000379022)
(-0.000264775 -0.00048467 0.000543127)
(-0.000201213 -0.000529289 0.000697165)
(-0.000165949 -0.000504911 0.000825857)
(-0.000172885 -0.000446901 0.000907945)
(-0.000231052 -0.000389791 0.000925213)
(-0.000343396 -0.00036672 0.000891932)
(-0.000480182 -0.000404349 0.000882903)
(-0.000596094 -0.000511217 0.000879451)
(-0.000664101 -0.000677551 0.000817967)
(-0.00066863 -0.000872038 0.000682696)
(-0.000600317 -0.0010466 0.000486791)
(-0.000459956 -0.00114059 0.000254812)
(-0.000264842 -0.00109475 1.51389e-05)
(-5.05609e-05 -0.00087346 -0.00019768)
(0.000134589 -0.000480898 -0.000331528)
(-0.000482717 0.000242463 -0.000796665)
(-0.000393061 0.000865903 -0.000757744)
(-0.000306988 0.00132718 -0.000576158)
(-0.000202618 0.00162216 -0.000265672)
(-7.1647e-05 0.0017852 0.000164095)
(7.70251e-05 0.00186184 0.000696849)
(0.000225751 0.00189599 0.00129942)
(0.000356169 0.00192256 0.00190568)
(0.000463578 0.00196441 0.00239417)
(0.000549401 0.00203543 0.00255746)
(0.000584455 0.00212033 0.00228942)
(0.000549796 0.002197 0.00179448)
(0.000506585 0.00224623 0.00125165)
(0.000463096 0.00223361 0.000748967)
(0.000410672 0.00212302 0.000327296)
(0.000336629 0.00187779 -1.09507e-06)
(0.000239526 0.00146822 -0.000234866)
(0.000132246 0.000894277 -0.000360576)
(3.76245e-05 0.000241751 -0.000353848)
(-2.94177e-05 -0.000353292 -0.000224457)
(-7.42211e-05 -0.000797141 -1.91629e-05)
(-0.000113629 -0.00108373 0.000232828)
(-0.000159818 -0.00124678 0.000527882)
(-0.000215142 -0.00133048 0.000874374)
(-0.000277862 -0.00137639 0.0012772)
(-0.000347458 -0.00141679 0.00171538)
(-0.000432317 -0.00147196 0.00211247)
(-0.000539335 -0.00155256 0.00229232)
(-0.000645985 -0.00164689 0.00212142)
(-0.000700778 -0.00173848 0.00171571)
(-0.000752606 -0.00181147 0.00121974)
(-0.000798578 -0.00182348 0.000719178)
(-0.000817046 -0.00172827 0.000262874)
(-0.00078413 -0.00148213 -0.000127859)
(-0.000699059 -0.00105336 -0.000447796)
(-0.00058807 -0.000445753 -0.00068322)
(-0.000208603 0.000113262 -0.000580654)
(-0.000123769 0.000674366 -0.00046029)
(-6.36298e-05 0.00107271 -0.000221516)
(-3.74624e-06 0.00131945 0.000101435)
(7.07451e-05 0.00144211 0.000487919)
(0.000161367 0.00148209 0.000912177)
(0.000262008 0.00148293 0.00133752)
(0.000365129 0.00148163 0.00171357)
(0.000467737 0.00150496 0.00197582)
(0.000557939 0.001567 0.00205041)
(0.000617222 0.00167177 0.00191452)
(0.000620453 0.00180052 0.0016306)
(0.00058248 0.00191635 0.00127518)
(0.000509722 0.00198177 0.000906628)
(0.000402296 0.00195405 0.000564106)
(0.000263083 0.00179035 0.000271813)
(0.000107718 0.00146107 4.71119e-05)
(-3.84513e-05 0.000954199 -7.79122e-05)
(-0.000143679 0.000360596 -5.29318e-05)
(-0.000195624 -0.000172943 0.000101617)
(-0.000210857 -0.000557269 0.000314689)
(-0.000214256 -0.000799612 0.000552278)
(-0.000225253 -0.000926856 0.000804807)
(-0.00025374 -0.000977728 0.00106818)
(-0.000303743 -0.000991604 0.00133421)
(-0.000377245 -0.00100084 0.00158275)
(-0.000476885 -0.00102829 0.00177387)
(-0.00059442 -0.00108564 0.00184133)
(-0.000707034 -0.00118581 0.00174045)
(-0.00078145 -0.00132377 0.0014959)
(-0.000820435 -0.00146301 0.00115771)
(-0.000818045 -0.00155857 0.000773731)
(-0.000762527 -0.00155616 0.000382577)
(-0.000649189 -0.00140104 1.4349e-05)
(-0.000495656 -0.00105774 -0.000303042)
(-0.000336324 -0.000518671 -0.000525543)
(9.07928e-05 -2.72087e-05 -0.000342966)
(0.000160763 0.000464999 -0.000163828)
(0.000185529 0.000810504 0.000120562)
(0.000192497 0.00101096 0.000454101)
(0.000201824 0.0010911 0.000797072)
(0.000227066 0.00109025 0.00111182)
(0.00027618 0.00105384 0.00135827)
(0.000353215 0.00102445 0.00150261)
(0.000457046 0.00103482 0.00154422)
(0.000582356 0.00110546 0.00155037)
(0.000676178 0.00123419 0.00153489)
(0.000709042 0.00140563 0.00145093)
(0.000671032 0.0015859 0.00128205)
(0.000562857 0.00173024 0.00104953)
(0.000393124 0.00178585 0.000788921)
(0.000181203 0.00170055 0.000537656)
(-3.97914e-05 0.00143994 0.00033573)
(-0.000225916 0.00100672 0.000232371)
(-0.000337214 0.00048967 0.000271369)
(-0.000367367 2.59734e-05 0.000428903)
(-0.000345838 -0.000306586 0.00063985)
(-0.000306591 -0.000504446 0.000861657)
(-0.000276194 -0.000590795 0.00107165)
(-0.000273234 -0.000601819 0.00125105)
(-0.000308471 -0.000576994 0.00137804)
(-0.000386169 -0.000552155 0.0014325)
(-0.000501982 -0.000557124 0.00141819)
(-0.00065259 -0.0006179 0.00139594)
(-0.000782905 -0.000741328 0.00136817)
(-0.000865518 -0.000920621 0.00127743)
(-0.000883366 -0.0011254 0.00109296)
(-0.000824256 -0.00130577 0.000823133)
(-0.000686685 -0.00139498 0.000495695)
(-0.000486732 -0.00132477 0.000151245)
(-0.000259703 -0.00105298 -0.000154023)
(-5.24429e-05 -0.000586091 -0.00034402)
(-0.000600834 0.000146229 -0.000569339)
(-0.000495347 0.00080566 -0.000573726)
(-0.000383207 0.00132101 -0.000412619)
(-0.000248859 0.00167687 -8.60988e-05)
(-8.96467e-05 0.00190003 0.00039315)
(8.53441e-05 0.00203255 0.000997569)
(0.000261261 0.00211691 0.00168049)
(0.000421483 0.00218838 0.00236527)
(0.000556396 0.00227426 0.0029291)
(0.00067383 0.00238965 0.00317967)
(0.000749479 0.00251251 0.00298457)
(0.000712217 0.00261022 0.00248153)
(0.000645313 0.00266601 0.00187747)
(0.000568113 0.00263888 0.00129358)
(0.000483278 0.00249279 0.000796355)
(0.000384637 0.00219822 0.000414899)
(0.000270844 0.00173928 0.00015678)
(0.00015252 0.00113223 2.4279e-05)
(4.83437e-05 0.000460536 1.58247e-05)
(-3.06644e-05 -0.000159484 0.000118312)
(-9.14562e-05 -0.000644137 0.00030685)
(-0.000149902 -0.000979682 0.000561234)
(-0.000216435 -0.00119255 0.000875293)
(-0.000292723 -0.00132333 0.0012502)
(-0.000376584 -0.0014127 0.001682)
(-0.0004667 -0.00149441 0.00214395)
(-0.000566889 -0.00159413 0.00256428)
(-0.000692227 -0.00172407 0.00279685)
(-0.000830905 -0.00186375 0.00270339)
(-0.000897764 -0.00198175 0.00230956)
(-0.000938198 -0.0020647 0.00177115)
(-0.000960389 -0.00206767 0.00120059)
(-0.000956898 -0.00194541 0.000668233)
(-0.000912518 -0.00166134 0.00021241)
(-0.000824517 -0.00119549 -0.00015211)
(-0.000712422 -0.000563389 -0.000418132)
(-0.000401123 4.50634e-05 -0.000374753)
(-0.000285544 0.000639903 -0.000278496)
(-0.00018308 0.00108448 -3.73092e-05)
(-7.52702e-05 0.00138113 0.000315668)
(4.66234e-05 0.00155735 0.000754607)
(0.000180541 0.00165261 0.00124691)
(0.000318573 0.00170775 0.00174754)
(0.000451758 0.00175707 0.0021969)
(0.000575794 0.00182476 0.00252245)
(0.000685095 0.00192022 0.00264588)
(0.000758433 0.00204613 0.0025354)
(0.000764335 0.00218574 0.00223948)
(0.000719807 0.00229813 0.00184107)
(0.000637309 0.00234585 0.00141463)
(0.000521605 0.00228874 0.00101427)
(0.000377131 0.00208854 0.000675777)
(0.000216854 0.0017203 0.000424978)
(6.22025e-05 0.00118445 0.00029398)
(-6.02341e-05 0.000569645 0.000309671)
(-0.000138882 8.7185e-06 0.000448332)
(-0.000187122 -0.0004155 0.000657545)
(-0.000227085 -0.000702479 0.000904471)
(-0.000275281 -0.000877556 0.00117614)
(-0.000339069 -0.000977942 0.00146472)
(-0.000419634 -0.00104196 0.00175809)
(-0.000516101 -0.00110081 0.0020324)
(-0.000629873 -0.00117509 0.00224672)
(-0.000760632 -0.00127037 0.00234048)
(-0.000887743 -0.00139463 0.00226462)
(-0.000973098 -0.00154401 0.0020199)
(-0.00101548 -0.00168101 0.00165192)
(-0.00101337 -0.00176124 0.00121652)
(-0.000960272 -0.00173374 0.00076302)
(-0.000853237 -0.00154872 0.000332597)
(-0.000705284 -0.00117374 -3.52903e-05)
(-0.000544294 -0.000609873 -0.000290101)
(-0.000157737 -6.72112e-05 -0.000167116)
(-4.43517e-05 0.000456491 1.47744e-05)
(3.59721e-05 0.000837207 0.000325426)
(0.000106167 0.00107599 0.000703586)
(0.00017965 0.00120118 0.0011041)
(0.000262513 0.00125188 0.00148506)
(0.000356138 0.00126957 0.00180178)
(0.000460354 0.00129058 0.00201247)
(0.000572345 0.00134095 0.00210042)
(0.000701683 0.00143826 0.00211083)
(0.000796821 0.00158198 0.00208493)
(0.000833387 0.00175635 0.00198826)
(0.000802166 0.00192758 0.00179454)
(0.000703506 0.00205472 0.00152608)
(0.00054468 0.00208874 0.00122346)
(0.000342003 0.00197923 0.000931968)
(0.000124295 0.00169161 0.000701106)
(-6.93355e-05 0.00123204 0.000584974)
(-0.000202883 0.00068894 0.00062105)
(-0.00026912 0.000195127 0.000782008)
(-0.000292957 -0.000173013 0.00100382)
(-0.000304705 -0.000410527 0.00124266)
(-0.000326448 -0.000541705 0.00147349)
(-0.000371449 -0.000602611 0.00167654)
(-0.000444731 -0.000630885 0.00183043)
(-0.000545974 -0.000657595 0.00191331)
(-0.000668791 -0.000704559 0.00191664)
(-0.000823731 -0.000791143 0.00187815)
(-0.000958813 -0.000927964 0.00183625)
(-0.00105118 -0.00110837 0.00173903)
(-0.00108465 -0.00130231 0.00153592)
(-0.00104625 -0.0014643 0.00123071)
(-0.00093183 -0.00153249 0.000851914)
(-0.000752583 -0.00144079 0.000446691)
(-0.000537116 -0.00114509 8.39371e-05)
(-0.000325778 -0.000652847 -0.000147208)
(-0.00071875 2.1659e-06 -0.00012467)
(-0.000606268 0.000647714 -0.00018271)
(-0.000472892 0.0011809 -7.20507e-05)
(-0.000309038 0.0015792 0.000224501)
(-0.000118471 0.00186102 0.00069766)
(8.79903e-05 0.00206186 0.00131484)
(0.000296302 0.0022189 0.00202252)
(0.000490458 0.00236288 0.0027407)
(0.000657334 0.00251714 0.00335129)
(0.000799035 0.0026901 0.00368991)
(0.000889024 0.00285111 0.00360786)
(0.000855089 0.00295925 0.00314877)
(0.000770851 0.00300833 0.00253881)
(0.000663787 0.00295949 0.00192744)
(0.000548568 0.00278062 0.00140088)
(0.000429131 0.00245307 0.00100067)
(0.000306966 0.00197684 0.000736468)
(0.000188642 0.00138186 0.000598311)
(8.40063e-05 0.000741431 0.000565798)
(-4.80605e-06 0.000143921 0.00062422)
(-8.72199e-05 -0.000344833 0.00076597)
(-0.000175192 -0.000708383 0.000983503)
(-0.00027424 -0.000965604 0.00127281)
(-0.000383059 -0.0011507 0.00163082)
(-0.000497052 -0.00130002 0.00204763)
(-0.000612298 -0.00144473 0.00249472)
(-0.000729042 -0.00160829 0.00291014)
(-0.000857251 -0.00179849 0.00318625)
(-0.000990987 -0.00198674 0.00318739)
(-0.0010715 -0.00212864 0.00285492)
(-0.00109994 -0.0022099 0.00233416)
(-0.00109756 -0.00219722 0.00175451)
(-0.00107054 -0.0020527 0.00120143)
(-0.00101513 -0.00175037 0.000725298)
(-0.00092973 -0.00128295 0.000345567)
(-0.000825964 -0.000674514 6.18534e-05)
(-0.000613618 -5.55255e-05 4.39801e-05)
(-0.00047461 0.000531197 9.59302e-05)
(-0.000333125 0.000993028 0.000301538)
(-0.00017724 0.00132496 0.000637247)
(-4.99475e-06 0.00155256 0.00107824)
(0.000176965 0.00171134 0.00158969)
(0.000357726 0.00183598 0.0021225)
(0.00052602 0.00195378 0.00261257)
(0.000674888 0.00208171 0.00298461)
(0.000800017 0.0022232 0.00316275)
(0.000879881 0.00237467 0.00310311)
(0.00089002 0.00251871 0.0028307)
(0.000842875 0.00261875 0.0024309)
(0.000755079 0.00264205 0.00199021)
(0.000636286 0.00255536 0.0015738)
(0.000493526 0.00232923 0.00122534)
(0.000337049 0.00194656 0.000973675)
(0.000182756 0.00141888 0.000843119)
(5.02236e-05 0.000825608 0.000840463)
(-5.26909e-05 0.000276391 0.000942052)
(-0.000137312 -0.000158131 0.00111343)
(-0.00022128 -0.000472514 0.00133059)
(-0.000315977 -0.000689925 0.00158198)
(-0.0004242 -0.000844299 0.00185832)
(-0.00054277 -0.000969676 0.00214509)
(-0.000666831 -0.0010922 0.00241726)
(-0.000794777 -0.00122617 0.00263703)
(-0.000928355 -0.00137216 0.00275518)
(-0.0010556 -0.00152749 0.00271986)
(-0.00114769 -0.00168322 0.00250764)
(-0.00119202 -0.00181002 0.00215504)
(-0.00119038 -0.00186873 0.00171972)
(-0.001142 -0.00181656 0.00125654)
(-0.00104698 -0.00161334 0.000812602)
(-0.000913854 -0.00123344 0.000431354)
(-0.000762028 -0.000685712 0.000160706)
(-0.000458003 -0.000124066 0.000220197)
(-0.000304682 0.000395802 0.000372935)
(-0.000168519 0.000788724 0.000665084)
(-3.28424e-05 0.00105441 0.00103897)
(0.000109107 0.00122286 0.00145055)
(0.000255694 0.00133102 0.00185805)
(0.000401214 0.00141336 0.00221485)
(0.000540703 0.00149657 0.00247323)
(0.000670448 0.00159725 0.0026029)
(0.000800917 0.00172623 0.00262571)
(0.000898098 0.00188744 0.00260212)
(0.00094149 0.00206327 0.002511)
(0.00092174 0.00221991 0.00231942)
(0.000839877 0.00232283 0.00204894)
(0.000702045 0.00233193 0.00174264)
(0.000520428 0.00220418 0.00144945)
(0.000317281 0.00190846 0.00122054)
(0.000124822 0.00145324 0.00110498)
(-2.65177e-05 0.00091982 0.00112947)
(-0.000128837 0.00042737 0.00126681)
(-0.000201576 4.71222e-05 0.00146205)
(-0.00027064 -0.00021584 0.00167841)
(-0.000352622 -0.00038703 0.00189404)
(-0.000453916 -0.000501072 0.00209065)
(-0.000572935 -0.000590783 0.00224786)
(-0.000704393 -0.000679464 0.00234297)
(-0.00084188 -0.000778706 0.00235946)
(-0.000989977 -0.000896645 0.00231442)
(-0.00112518 -0.0010492 0.00226679)
(-0.00122694 -0.00122856 0.00217718)
(-0.00127664 -0.00140591 0.00198545)
(-0.00126252 -0.00154196 0.00168784)
(-0.00117907 -0.00158449 0.00130927)
(-0.00103258 -0.0014762 0.000896645)
(-0.000843089 -0.0011765 0.000520154)
(-0.00064142 -0.000694266 0.000268955)
(-0.000837505 -0.000167529 0.000488517)
(-0.000721524 0.00043008 0.000377366)
(-0.000569611 0.000951246 0.000421009)
(-0.000376552 0.00137348 0.00065311)
(-0.000152256 0.00170796 0.0010738)
(8.88045e-05 0.00198152 0.00165278)
(0.000330888 0.00222299 0.00233664)
(0.000556771 0.00245512 0.0030495)
(0.000749817 0.00269241 0.00368656)
(0.000902863 0.00293289 0.00410916)
(0.00099252 0.00313672 0.00414869)
(0.000974291 0.00325612 0.00377082)
(0.000879645 0.00329335 0.00320378)
(0.000749603 0.0032222 0.00261342)
(0.00061115 0.0030183 0.00209769)
(0.000478393 0.00267538 0.00170586)
(0.000356288 0.00220785 0.00144716)
(0.000246002 0.001654 0.00130255)
(0.000145103 0.00107378 0.00124128)
(4.51157e-05 0.000528551 0.00124774)
(-6.50998e-05 6.34555e-05 0.00132502)
(-0.000192067 -0.000308092 0.00147796)
(-0.000334379 -0.000599779 0.00170854)
(-0.00048519 -0.00083881 0.00201368)
(-0.000635091 -0.00105482 0.00238148)
(-0.000775136 -0.00127268 0.00278594)
(-0.000900389 -0.00150877 0.00317918)
(-0.00101424 -0.00176431 0.00348223)
(-0.00112459 -0.00200666 0.0035643)
(-0.00121475 -0.00218196 0.00333201)
(-0.0012324 -0.00226167 0.00288209)
(-0.00121164 -0.00223556 0.00234624)
(-0.00116767 -0.00207851 0.00182027)
(-0.00110606 -0.00177701 0.00136159)
(-0.00102726 -0.00133488 0.000990984)
(-0.000936127 -0.000779671 0.000702471)
(-0.000824208 -0.0001746 0.000632132)
(-0.00066968 0.000375432 0.00063064)
(-0.000495885 0.000830287 0.000775474)
(-0.000296288 0.00118249 0.00105739)
(-7.52088e-05 0.00145494 0.00145806)
(0.00015549 0.00167798 0.00194509)
(0.0003806 0.00187856 0.00247006)
(0.000585095 0.00207467 0.00296992)
(0.000758093 0.00227349 0.00337205)
(0.000894309 0.00247105 0.00360348)
(0.000978309 0.00265386 0.00360589)
(0.000996125 0.00280239 0.00338269)
(0.000949597 0.00288966 0.00301748)
(0.000859605 0.00289001 0.00260168)
(0.000741103 0.0027797 0.00220556)
(0.000604079 0.00254001 0.00187642)
(0.00045665 0.00216319 0.00164188)
(0.000308632 0.00166828 0.00151533)
(0.000170961 0.00112214 0.00148933)
(4.61736e-05 0.000610538 0.00154213)
(-7.54179e-05 0.000189593 0.00165414)
(-0.000206478 -0.00013503 0.00181346)
(-0.00035239 -0.000384989 0.00201385)
(-0.000510075 -0.000590615 0.00224732)
(-0.000670618 -0.00078016 0.00249939)
(-0.000823647 -0.000972533 0.0027468)
(-0.000963029 -0.00117384 0.00295764)
(-0.00109091 -0.00137851 0.00309213)
(-0.00120914 -0.00157104 0.0030995)
(-0.0013022 -0.00173681 0.00294358)
(-0.00134579 -0.00185664 0.00264404)
(-0.00134438 -0.00189843 0.00225283)
(-0.00130195 -0.00182993 0.00182501)
(-0.00122104 -0.00162221 0.00140896)
(-0.00110666 -0.00125824 0.00104635)
(-0.000970153 -0.000752157 0.000776801)
(-0.000761596 -0.000192153 0.000782671)
(-0.000579879 0.000300831 0.000885578)
(-0.000397247 0.000687602 0.00112532)
(-0.000203114 0.000968158 0.00145585)
(3.24203e-06 0.00117325 0.00183895)
(0.000213084 0.00133701 0.00223587)
(0.000413589 0.00148632 0.00260085)
(0.000593987 0.00163725 0.00288366)
(0.000748552 0.00179539 0.00304532)
(0.00088253 0.00196281 0.00308923)
(0.000984846 0.00214547 0.00307564)
(0.00103594 0.00232447 0.0030006)
(0.00102827 0.00246866 0.00283405)
(0.000964045 0.00254979 0.00259207)
(0.000848771 0.00253815 0.00231545)
(0.000690801 0.00240082 0.00205229)
(0.000505653 0.00211233 0.00184928)
(0.000318261 0.00168174 0.00174414)
(0.000153544 0.00118021 0.00175182)
(1.95531e-05 0.000710691 0.00184777)
(-9.86078e-05 0.000337689 0.0019905)
(-0.000222984 6.41088e-05 0.00215566)
(-0.000364962 -0.000137532 0.00232799)
(-0.000524138 -0.000300338 0.00249237)
(-0.000692022 -0.000451576 0.00263041)
(-0.000857351 -0.000605796 0.00272038)
(-0.00101197 -0.000763536 0.00274317)
(-0.00115372 -0.000921098 0.00270292)
(-0.00128964 -0.00109393 0.00265343)
(-0.00139527 -0.00127453 0.00257837)
(-0.001455 -0.00143917 0.00242222)
(-0.00146026 -0.00155422 0.00216821)
(-0.00140527 -0.00157739 0.00183337)
(-0.00129207 -0.00146189 0.00145924)
(-0.00113292 -0.0011734 0.00110866)
(-0.000949153 -0.000722511 0.000859984)
(-0.000954623 -0.000343217 0.00121404)
(-0.000831702 0.000187285 0.00105786)
(-0.000659322 0.000675506 0.00103125)
(-0.000437091 0.00110504 0.00118048)
(-0.00017986 0.00148225 0.00151808)
(9.39298e-05 0.00182489 0.00202206)
(0.000365185 0.00215159 0.00264543)
(0.000613421 0.00247457 0.00332147)
(0.000818643 0.00279715 0.0039605)
(0.000969688 0.00310854 0.00444211)
(0.00106139 0.00336532 0.00459115)