/*--------------------------------*- C++ -*----------------------------------*\
| =========                 |                                                 |
| \\      /  F ield         | OpenFOAM: The Open Source CFD Toolbox           |
|  \\    /   O peration     | Version:  2312                                  |
|   \\  /    A nd           | Website:  www.openfoam.com                      |
|    \\/     M anipulation  |                                                 |
\*---------------------------------------------------------------------------*/
FoamFile
{
    version     2.0;
    format      ascii;
    arch        "LSB;label=32;scalar=64";
    class       volVectorField;
    location    "0.9";
    object      D_0_0;
}
// * * * * * * * * * * * * * * * * * * * * * * * * * * * * * * * * * * * * * //

dimensions      [0 1 0 0 0 0 0];

internalField   nonuniform List<vector> 
1620
(
(0.000539054 -7.25721e-05 0.000120639)
(0.000461352 -0.000133065 -4.66963e-05)
(0.000380815 -0.000211388 -0.000159077)
(0.000307935 -0.00025511 -0.000210474)
(0.000249702 -0.000260176 -0.000220588)
(0.0002103 -0.000241894 -0.000206113)
(0.000189392 -0.000211901 -0.000177772)
(0.000180987 -0.000173989 -0.000143265)
(0.000175038 -0.000128389 -0.000107901)
(0.000160342 -7.52414e-05 -7.42347e-05)
(0.000127025 -1.50688e-05 -4.17106e-05)
(6.78727e-05 5.2187e-05 -6.32444e-06)
(-2.14479e-05 0.000126373 3.95934e-05)
(-0.000142001 0.000201243 0.00010591)
(-0.000287836 0.000255319 0.000197171)
(-0.000437657 0.000253923 0.000294734)
(-0.000550984 0.000182142 0.000340907)
(-0.000584308 9.34235e-05 0.000275108)
(-0.000539054 7.25721e-05 0.000120639)
(-0.000461352 0.000133065 -4.66963e-05)
(-0.000380815 0.000211388 -0.000159077)
(-0.000307935 0.00025511 -0.000210474)
(-0.000249702 0.000260176 -0.000220588)
(-0.0002103 0.000241894 -0.000206113)
(-0.000189392 0.000211901 -0.000177772)
(-0.000180987 0.000173989 -0.000143265)
(-0.000175038 0.000128389 -0.000107901)
(-0.000160342 7.52414e-05 -7.42347e-05)
(-0.000127025 1.50688e-05 -4.17106e-05)
(-6.78727e-05 -5.2187e-05 -6.32444e-06)
(2.14479e-05 -0.000126373 3.95934e-05)
(0.000142001 -0.000201243 0.00010591)
(0.000287836 -0.000255319 0.000197171)
(0.000437657 -0.000253923 0.000294734)
(0.000550984 -0.000182142 0.000340907)
(0.000584308 -9.34235e-05 0.000275108)
(0.000448912 -0.000182285 8.03971e-05)
(0.000463219 -0.000216856 8.18754e-06)
(0.000458715 -0.000226637 -5.04361e-05)
(0.000434032 -0.000201114 -9.31119e-05)
(0.000392444 -0.000154061 -0.000124032)
(0.00034229 -0.000102317 -0.000143148)
(0.000291815 -5.46949e-05 -0.000149574)
(0.000244565 -1.23776e-05 -0.000144211)
(0.000198785 2.65666e-05 -0.000128938)
(0.000149578 6.36749e-05 -0.000105254)
(9.18164e-05 9.8817e-05 -7.38294e-05)
(2.27321e-05 0.000130627 -3.47958e-05)
(-5.67618e-05 0.000157434 1.16531e-05)
(-0.000142669 0.000177032 6.41501e-05)
(-0.000229437 0.000185275 0.000117487)
(-0.000310101 0.000178062 0.000158983)
(-0.000375682 0.000161338 0.000170411)
(-0.000420587 0.000158589 0.000141983)
(-0.000448912 0.000182285 8.03971e-05)
(-0.000463219 0.000216856 8.18754e-06)
(-0.000458715 0.000226637 -5.04361e-05)
(-0.000434032 0.000201114 -9.31119e-05)
(-0.000392444 0.000154061 -0.000124032)
(-0.00034229 0.000102317 -0.000143148)
(-0.000291815 5.46949e-05 -0.000149574)
(-0.000244565 1.23776e-05 -0.000144211)
(-0.000198785 -2.65666e-05 -0.000128938)
(-0.000149578 -6.36749e-05 -0.000105254)
(-9.18164e-05 -9.8817e-05 -7.38294e-05)
(-2.27321e-05 -0.000130627 -3.47958e-05)
(5.67618e-05 -0.000157434 1.16531e-05)
(0.000142669 -0.000177032 6.41501e-05)
(0.000229437 -0.000185275 0.000117487)
(0.000310101 -0.000178062 0.000158983)
(0.000375682 -0.000161338 0.000170411)
(0.000420587 -0.000158589 0.000141983)
(0.000321794 -0.000238891 3.13332e-05)
(0.000396538 -0.000266903 1.89615e-05)
(0.00045705 -0.000236753 -8.72568e-07)
(0.000488895 -0.000164439 -3.51764e-05)
(0.000485055 -7.62029e-05 -7.96592e-05)
(0.000449459 8.65415e-06 -0.000122135)
(0.000391928 8.04657e-05 -0.000151996)
(0.000321778 0.000135903 -0.00016397)
(0.00024521 0.000174335 -0.000156832)
(0.000165931 0.000195554 -0.000131591)
(8.70271e-05 0.000199062 -9.12118e-05)
(1.26241e-05 0.000184831 -4.14461e-05)
(-5.19598e-05 0.000155346 8.71877e-06)
(-0.000102382 0.000118039 4.86066e-05)
(-0.000138595 8.63755e-05 6.96762e-05)
(-0.000166583 7.79721e-05 6.99883e-05)
(-0.000198367 0.000107741 5.7313e-05)
(-0.000249534 0.000172597 4.36802e-05)
(-0.000321794 0.000238891 3.13332e-05)
(-0.000396538 0.000266903 1.89615e-05)
(-0.00045705 0.000236753 -8.72567e-07)
(-0.000488895 0.000164439 -3.51764e-05)
(-0.000485055 7.62029e-05 -7.96592e-05)
(-0.000449459 -8.65415e-06 -0.000122135)
(-0.000391928 -8.04657e-05 -0.000151996)
(-0.000321778 -0.000135903 -0.00016397)
(-0.00024521 -0.000174335 -0.000156832)
(-0.000165931 -0.000195554 -0.000131591)
(-8.70272e-05 -0.000199062 -9.12118e-05)
(-1.26241e-05 -0.000184831 -4.14461e-05)
(5.19598e-05 -0.000155346 8.71877e-06)
(0.000102382 -0.000118039 4.86066e-05)
(0.000138595 -8.63755e-05 6.96762e-05)
(0.000166583 -7.79721e-05 6.99883e-05)
(0.000198367 -0.000107741 5.7313e-05)
(0.000249534 -0.000172597 4.36802e-05)
(0.00142644 -0.000464291 0.00042023)
(0.00133879 -0.000614592 -4.76094e-05)
(0.00120267 -0.000712819 -0.000401305)
(0.00104526 -0.000696185 -0.000612293)
(0.000887036 -0.000602812 -0.000707331)
(0.000747217 -0.000485788 -0.0007178)
(0.000638346 -0.000371593 -0.000671544)
(0.000557926 -0.000263064 -0.000592436)
(0.000489091 -0.000154337 -0.000497963)
(0.000407447 -4.07384e-05 -0.00039687)
(0.000289136 7.88557e-05 -0.00028777)
(0.000117356 0.000204648 -0.000158774)
(-0.000114423 0.000337982 1.05138e-05)
(-0.000402347 0.000474301 0.000240729)
(-0.000729305 0.000584929 0.000531803)
(-0.00105453 0.000612629 0.000826168)
(-0.00131087 0.000527831 0.000979388)
(-0.00143584 0.000425207 0.000829207)
(-0.00142644 0.000464291 0.00042023)
(-0.00133879 0.000614592 -4.76094e-05)
(-0.00120267 0.000712819 -0.000401305)
(-0.00104526 0.000696185 -0.000612293)
(-0.000887036 0.000602812 -0.000707331)
(-0.000747217 0.000485788 -0.0007178)
(-0.000638346 0.000371593 -0.000671544)
(-0.000557926 0.000263064 -0.000592436)
(-0.000489091 0.000154337 -0.000497963)
(-0.000407447 4.07384e-05 -0.00039687)
(-0.000289136 -7.88557e-05 -0.00028777)
(-0.000117356 -0.000204648 -0.000158774)
(0.000114423 -0.000337982 1.05138e-05)
(0.000402347 -0.000474301 0.000240729)
(0.000729305 -0.000584929 0.000531803)
(0.00105453 -0.000612629 0.000826168)
(0.00131087 -0.000527831 0.000979388)
(0.00143584 -0.000425207 0.000829207)
(0.00127281 -0.000628458 0.000382415)
(0.00131096 -0.000725105 0.000124127)
(0.00129745 -0.000727326 -0.000101788)
(0.00123 -0.000633016 -0.000281017)
(0.00111774 -0.000486897 -0.00040856)
(0.000982999 -0.000331809 -0.000481613)
(0.000845313 -0.000188071 -0.000504274)
(0.000711731 -5.89967e-05 -0.000485224)
(0.000576985 5.81581e-05 -0.000432668)
(0.000428925 0.00016489 -0.00035115)
(0.000255625 0.000259177 -0.000241042)
(5.18886e-05 0.000337509 -0.000100143)
(-0.00017751 0.000398791 7.29646e-05)
(-0.000419906 0.000445069 0.000273557)
(-0.000659547 0.000476063 0.000482349)
(-0.000879149 0.000487479 0.000654456)
(-0.0010602 0.00048935 0.000717236)
(-0.0011895 0.000529101 0.00061163)
(-0.00127281 0.000628458 0.000382415)
(-0.00131096 0.000725105 0.000124127)
(-0.00129745 0.000727326 -0.000101788)
(-0.00123 0.000633016 -0.000281017)
(-0.00111774 0.000486897 -0.00040856)
(-0.000982999 0.000331809 -0.000481613)
(-0.000845313 0.000188071 -0.000504274)
(-0.000711731 5.89967e-05 -0.000485224)
(-0.000576985 -5.81581e-05 -0.000432668)
(-0.000428925 -0.00016489 -0.00035115)
(-0.000255625 -0.000259177 -0.000241042)
(-5.18886e-05 -0.000337509 -0.000100143)
(0.00017751 -0.000398791 7.29646e-05)
(0.000419906 -0.000445069 0.000273557)
(0.000659547 -0.000476063 0.000482349)
(0.000879149 -0.000487479 0.000654456)
(0.0010602 -0.00048935 0.000717236)
(0.0011895 -0.000529101 0.00061163)
(0.00102045 -0.000736263 0.000313352)
(0.00116665 -0.000805854 0.000226131)
(0.00127646 -0.000747293 0.000115826)
(0.0013142 -0.000598007 -2.66305e-05)
(0.00127433 -0.000408329 -0.000174494)
(0.00117385 -0.000214041 -0.000296339)
(0.00103284 -3.36721e-05 -0.000373829)
(0.000864898 0.000124181 -0.000400547)
(0.000676492 0.00025462 -0.000375574)
(0.000470243 0.000353053 -0.000299857)
(0.000249475 0.000414262 -0.000176691)
(2.25465e-05 0.000434161 -1.51174e-05)
(-0.000195481 0.000414586 0.000166162)
(-0.000386853 0.000369652 0.000338016)
(-0.000540435 0.00032913 0.000466493)
(-0.000659383 0.000332892 0.000523529)
(-0.000761555 0.000413597 0.000498801)
(-0.000874871 0.000573736 0.000413306)
(-0.00102045 0.000736263 0.000313352)
(-0.00116665 0.000805854 0.000226131)
(-0.00127646 0.000747293 0.000115826)
(-0.0013142 0.000598007 -2.66305e-05)
(-0.00127433 0.000408329 -0.000174494)
(-0.00117385 0.000214041 -0.000296339)
(-0.00103284 3.36721e-05 -0.000373829)
(-0.000864898 -0.000124181 -0.000400547)
(-0.000676492 -0.00025462 -0.000375574)
(-0.000470243 -0.000353053 -0.000299857)
(-0.000249475 -0.000414262 -0.000176691)
(-2.25465e-05 -0.000434161 -1.51174e-05)
(0.000195481 -0.000414586 0.000166162)
(0.000386853 -0.000369652 0.000338016)
(0.000540435 -0.00032913 0.000466493)
(0.000659383 -0.000332892 0.000523529)
(0.000761555 -0.000413597 0.000498801)
(0.000874871 -0.000573736 0.000413306)
(0.00217253 -0.00112417 0.000926204)
(0.00208896 -0.00128054 0.000135774)
(0.00190722 -0.00130611 -0.000521342)
(0.00167821 -0.00119141 -0.000959301)
(0.0014394 -0.000996976 -0.00119738)
(0.00121879 -0.000785707 -0.0012839)
(0.00103325 -0.000587914 -0.00126431)
(0.00088217 -0.00040652 -0.00117488)
(0.000746512 -0.000232899 -0.00104101)
(0.000595224 -5.86393e-05 -0.000874728)
(0.000395846 0.000120073 -0.00067219)
(0.000125245 0.000304603 -0.000413665)
(-0.000223716 0.000497315 -6.95295e-05)
(-0.000641555 0.00069599 0.000382609)
(-0.00110191 0.000875249 0.000925084)
(-0.00155495 0.000981123 0.00145435)
(-0.00192553 0.000988597 0.00175217)
(-0.00213381 0.00100074 0.00157538)
(-0.00217253 0.00112417 0.000926204)
(-0.00208896 0.00128054 0.000135775)
(-0.00190722 0.00130611 -0.000521342)
(-0.00167821 0.00119141 -0.000959301)
(-0.0014394 0.000996976 -0.00119738)
(-0.00121879 0.000785707 -0.0012839)
(-0.00103325 0.000587914 -0.00126431)
(-0.00088217 0.00040652 -0.00117488)
(-0.000746512 0.000232899 -0.00104101)
(-0.000595224 5.86393e-05 -0.000874728)
(-0.000395846 -0.000120073 -0.00067219)
(-0.000125245 -0.000304603 -0.000413665)
(0.000223716 -0.000497315 -6.95295e-05)
(0.000641555 -0.00069599 0.000382609)
(0.00110191 -0.000875249 0.000925084)
(0.00155495 -0.000981123 0.00145435)
(0.00192553 -0.000988597 0.00175217)
(0.00213381 -0.00100074 0.00157538)
(0.00197569 -0.00116715 0.000902029)
(0.00203229 -0.00127208 0.00041395)
(0.00200008 -0.00123676 -4.64856e-05)
(0.00188775 -0.00107824 -0.000412274)
(0.00171744 -0.000852251 -0.000667086)
(0.00151858 -0.000610591 -0.000815374)
(0.00131282 -0.00038 -0.000871561)
(0.00110694 -0.000168148 -0.000852185)
(0.000893896 2.52726e-05 -0.000770004)
(0.000658575 0.000200577 -0.000630689)
(0.000386231 0.000355067 -0.000432437)
(7.08253e-05 0.000485124 -0.0001692)
(-0.00028056 0.000590856 0.00016158)
(-0.000649759 0.00067733 0.000546931)
(-0.00101307 0.000749308 0.000944565)
(-0.001345 0.000810398 0.00127315)
(-0.00162237 0.00088005 0.00141944)
(-0.00183287 0.0010004 0.00128639)
(-0.00197569 0.00116715 0.000902029)
(-0.00203229 0.00127208 0.00041395)
(-0.00200008 0.00123676 -4.64856e-05)
(-0.00188775 0.00107824 -0.000412274)
(-0.00171744 0.000852251 -0.000667086)
(-0.00151858 0.000610591 -0.000815374)
(-0.00131282 0.00038 -0.000871561)
(-0.00110694 0.000168148 -0.000852185)
(-0.000893896 -2.52726e-05 -0.000770004)
(-0.000658575 -0.000200577 -0.000630689)
(-0.000386231 -0.000355067 -0.000432437)
(-7.08253e-05 -0.000485124 -0.0001692)
(0.00028056 -0.000590856 0.00016158)
(0.000649759 -0.00067733 0.000546931)
(0.00101307 -0.000749308 0.000944565)
(0.001345 -0.000810398 0.00127315)
(0.00162237 -0.00088005 0.00141944)
(0.00183287 -0.0010004 0.00128639)
(0.00162427 -0.00118052 0.000805674)
(0.00181588 -0.00126942 0.000591523)
(0.00194461 -0.00120362 0.000333418)
(0.00197104 -0.00101678 5.5267e-05)
(0.00189809 -0.000764689 -0.000199759)
(0.00174967 -0.000491683 -0.00039512)
(0.00154839 -0.00022413 -0.000513363)
(0.00130747 2.24674e-05 -0.000550239)
(0.00103259 0.000237123 -0.000505751)
(0.000726522 0.000410344 -0.000380049)
(0.000394357 0.000533761 -0.000174853)
(4.76218e-05 0.000602118 0.000100588)
(-0.000294219 0.000617909 0.000420995)
(-0.000607526 0.000598495 0.000739329)
(-0.000874214 0.000581703 0.000993418)
(-0.00109125 0.000618712 0.00112922)
(-0.00127164 0.00074463 0.00112406)
(-0.00143744 0.000959383 0.000992736)
(-0.00162427 0.00118052 0.000805674)
(-0.00181588 0.00126942 0.000591523)
(-0.00194461 0.00120362 0.000333418)
(-0.00197104 0.00101678 5.5267e-05)
(-0.00189809 0.000764689 -0.000199759)
(-0.00174967 0.000491683 -0.00039512)
(-0.00154839 0.00022413 -0.000513363)
(-0.00130747 -2.24674e-05 -0.000550238)
(-0.00103259 -0.000237123 -0.000505751)
(-0.000726522 -0.000410344 -0.000380049)
(-0.000394357 -0.000533761 -0.000174853)
(-4.76218e-05 -0.000602118 0.000100588)
(0.000294219 -0.000617909 0.000420995)
(0.000607526 -0.000598495 0.000739329)
(0.000874214 -0.000581702 0.000993418)
(0.00109125 -0.000618712 0.00112922)
(0.00127164 -0.00074463 0.00112406)
(0.00143744 -0.000959383 0.000992736)
(0.00273813 -0.00193623 0.00152038)
(0.00265251 -0.00201841 0.000501813)
(0.00243303 -0.00194816 -0.000426668)
(0.00214956 -0.00175013 -0.00110127)
(0.00185797 -0.00148095 -0.0015095)
(0.00158675 -0.00119577 -0.00170717)
(0.00134766 -0.000924018 -0.00175269)
(0.00113814 -0.000670958 -0.00168931)
(0.000939589 -0.000429355 -0.00154453)
(0.000721146 -0.000190135 -0.00132951)
(0.000449574 5.20983e-05 -0.00103785)
(0.000101041 0.0002996 -0.000647417)
(-0.000330874 0.000554587 -0.000129989)
(-0.000833897 0.000816545 0.000526008)
(-0.00137762 0.00107129 0.00127714)
(-0.0019106 0.00129302 0.00198397)
(-0.00236065 0.0014879 0.0024045)
(-0.00264576 0.00172168 0.0022727)
(-0.00273813 0.00193623 0.00152038)
(-0.00265251 0.00201841 0.000501813)
(-0.00243303 0.00194816 -0.000426668)
(-0.00214956 0.00175013 -0.00110127)
(-0.00185797 0.00148095 -0.0015095)
(-0.00158675 0.00119577 -0.00170717)
(-0.00134766 0.000924018 -0.00175269)
(-0.00113814 0.000670958 -0.00168931)
(-0.000939589 0.000429355 -0.00154453)
(-0.000721146 0.000190135 -0.00132951)
(-0.000449574 -5.20983e-05 -0.00103785)
(-0.000101041 -0.0002996 -0.000647417)
(0.000330874 -0.000554587 -0.000129989)
(0.000833897 -0.000816545 0.000526008)
(0.00137762 -0.00107129 0.00127714)
(0.0019106 -0.00129302 0.00198397)
(0.00236065 -0.0014879 0.0024045)
(0.00264576 -0.00172168 0.0022727)
(0.00252033 -0.00173912 0.00147596)
(0.00257016 -0.00182413 0.000808633)
(0.00250352 -0.00174574 0.000143422)
(0.00234799 -0.00154034 -0.000402063)
(0.00213601 -0.00126222 -0.0007903)
(0.00189604 -0.000960571 -0.00102751)
(0.00164527 -0.000663992 -0.00113488)
(0.00138762 -0.000383956 -0.00113335)
(0.00111528 -0.000123411 -0.00103734)
(0.000813511 0.000116402 -0.000852292)
(0.000468262 0.000332974 -0.000575173)
(7.37388e-05 0.000523845 -0.000199444)
(-0.000363552 0.000690151 0.000273901)
(-0.000825534 0.000837854 0.000819682)
(-0.00128521 0.000975318 0.00137227)
(-0.00170992 0.00111549 0.00182288)
(-0.00206935 0.00128661 0.00204434)
(-0.00234608 0.00151589 0.00193625)
(-0.00252033 0.00173912 0.00147596)
(-0.00257016 0.00182413 0.000808633)
(-0.00250352 0.00174574 0.000143422)
(-0.00234799 0.00154034 -0.000402063)
(-0.00213601 0.00126222 -0.0007903)
(-0.00189604 0.000960571 -0.00102751)
(-0.00164527 0.000663992 -0.00113488)
(-0.00138762 0.000383956 -0.00113335)
(-0.00111528 0.000123411 -0.00103734)
(-0.000813511 -0.000116402 -0.000852292)
(-0.000468262 -0.000332974 -0.000575173)
(-7.37389e-05 -0.000523845 -0.000199444)
(0.000363552 -0.000690151 0.000273901)
(0.000825534 -0.000837854 0.000819682)
(0.00128521 -0.000975318 0.00137227)
(0.00170992 -0.00111549 0.00182288)
(0.00206935 -0.00128661 0.00204434)
(0.00234608 -0.00151589 0.00193625)
(0.00217725 -0.00157549 0.00134685)
(0.00234053 -0.00167078 0.00101448)
(0.00243202 -0.00159887 0.000623179)
(0.00242236 -0.00139321 0.000224692)
(0.00231465 -0.0011071 -0.000126664)
(0.00213016 -0.000786425 -0.00038977)
(0.00188839 -0.000461208 -0.000546852)
(0.00159971 -0.000151004 -0.000594878)
(0.00126804 0.000129245 -0.000534887)
(0.000896291 0.000367043 -0.000367454)
(0.000490798 0.000553066 -9.45271e-05)
(6.35605e-05 0.000683147 0.000273348)
(-0.000367815 0.000761089 0.00070554)
(-0.000781793 0.000804101 0.00114116)
(-0.00115769 0.000849102 0.00149564)
(-0.001483 0.000945111 0.00169518)
(-0.00175663 0.00112098 0.00171511)
(-0.00198573 0.00135531 0.00158416)
(-0.00217725 0.00157549 0.00134685)
(-0.00234053 0.00167078 0.00101448)
(-0.00243202 0.00159887 0.000623179)
(-0.00242236 0.00139321 0.000224692)
(-0.00231465 0.0011071 -0.000126664)
(-0.00213016 0.000786425 -0.00038977)
(-0.00188839 0.000461208 -0.000546852)
(-0.00159971 0.000151004 -0.000594878)
(-0.00126804 -0.000129245 -0.000534887)
(-0.000896291 -0.000367043 -0.000367454)
(-0.000490798 -0.000553066 -9.45271e-05)
(-6.35605e-05 -0.000683147 0.000273348)
(0.000367815 -0.000761089 0.00070554)
(0.000781793 -0.000804101 0.00114116)
(0.00115769 -0.000849102 0.00149564)
(0.001483 -0.000945111 0.00169518)
(0.00175663 -0.00112098 0.00171511)
(0.00198573 -0.00135531 0.00158416)
(0.0031047 -0.00251722 0.00204877)
(0.0030271 -0.00261286 0.000979977)
(0.00277858 -0.00252537 -0.000120615)
(0.00245588 -0.0023054 -0.000990065)
(0.0021324 -0.0020084 -0.0015626)
(0.00183438 -0.00168234 -0.00188277)
(0.00156404 -0.0013573 -0.00201159)
(0.00131347 -0.00104349 -0.00199437)
(0.00106451 -0.000738237 -0.00185804)
(0.000790183 -0.000434828 -0.0016126)
(0.00046208 -0.000128188 -0.00125256)
(6.00998e-05 0.000184545 -0.000760981)
(-0.000421016 0.000506388 -0.000120079)
(-0.000970422 0.000839634 0.000666127)
(-0.00155959 0.00118074 0.00153306)
(-0.00213753 0.00152477 0.00231928)
(-0.00263081 0.00188023 0.00278547)
(-0.00296614 0.00223993 0.0027161)
(-0.0031047 0.00251722 0.00204877)
(-0.0030271 0.00261286 0.000979977)
(-0.00277858 0.00252537 -0.000120615)
(-0.00245588 0.0023054 -0.000990065)
(-0.0021324 0.0020084 -0.0015626)
(-0.00183438 0.00168234 -0.00188277)
(-0.00156404 0.0013573 -0.00201159)
(-0.00131347 0.00104349 -0.00199437)
(-0.00106451 0.000738237 -0.00185804)
(-0.000790183 0.000434828 -0.0016126)
(-0.00046208 0.000128188 -0.00125256)
(-6.00998e-05 -0.000184545 -0.000760981)
(0.000421016 -0.000506388 -0.000120079)
(0.000970422 -0.000839634 0.000666127)
(0.00155959 -0.00118074 0.00153306)
(0.00213753 -0.00152477 0.00231928)
(0.00263081 -0.00188023 0.00278547)
(0.00296614 -0.00223993 0.0027161)
(0.00286998 -0.0021634 0.00192194)
(0.00290143 -0.00225244 0.00122083)
(0.00280257 -0.00217586 0.000445805)
(0.00261281 -0.00196699 -0.000233101)
(0.00237412 -0.00167542 -0.000738175)
(0.00211179 -0.00134654 -0.0010634)
(0.00183619 -0.00101035 -0.00122877)
(0.00154717 -0.000682064 -0.00125566)
(0.00123638 -0.000368176 -0.00115857)
(0.000891095 -7.18463e-05 -0.000943376)
(0.0004999 0.000204559 -0.000608998)
(5.80337e-05 0.000460028 -0.000153402)
(-0.000429988 0.000696937 0.000414715)
(-0.00094968 0.000921706 0.00105899)
(-0.00147476 0.0011442 0.00169933)
(-0.00196759 0.00138018 0.00221275)
(-0.00238665 0.00164891 0.00246596)
(-0.00269595 0.00193602 0.00236888)
(-0.00286998 0.0021634 0.00192194)
(-0.00290143 0.00225244 0.00122083)
(-0.00280257 0.00217586 0.000445805)
(-0.00261281 0.00196699 -0.000233101)
(-0.00237412 0.00167542 -0.000738175)
(-0.00211179 0.00134654 -0.0010634)
(-0.00183619 0.00101035 -0.00122877)
(-0.00154717 0.000682064 -0.00125566)
(-0.00123638 0.000368176 -0.00115857)
(-0.000891095 7.18464e-05 -0.000943376)
(-0.0004999 -0.000204559 -0.000608998)
(-5.80338e-05 -0.000460028 -0.000153402)
(0.000429988 -0.000696937 0.000414715)
(0.00094968 -0.000921706 0.00105899)
(0.00147476 -0.0011442 0.00169933)
(0.00196759 -0.00138018 0.00221275)
(0.00238665 -0.00164891 0.00246596)
(0.00269595 -0.00193602 0.00236888)
(0.00258783 -0.00188662 0.00175632)
(0.00269145 -0.00195951 0.00138358)
(0.00272381 -0.00189114 0.000931754)
(0.00267006 -0.00169199 0.000458363)
(0.0025305 -0.00140262 3.59445e-05)
(0.00232039 -0.0010661 -0.000282451)
(0.00205434 -0.000713656 -0.000473971)
(0.00173934 -0.000366761 -0.000534334)
(0.00137758 -4.22448e-05 -0.000465198)
(0.000971672 0.000246293 -0.00026898)
(0.000527978 0.000490004 4.95819e-05)
(5.67374e-05 0.000686511 0.00047636)
(-0.00042919 0.000840646 0.000975772)
(-0.000913296 0.000967152 0.00147897)
(-0.00137426 0.00109546 0.00189116)
(-0.00178992 0.00126148 0.00213088)
(-0.00214115 0.00147791 0.00216892)
(-0.00241012 0.00170845 0.00202816)
(-0.00258783 0.00188662 0.00175632)
(-0.00269145 0.00195951 0.00138358)
(-0.00272381 0.00189114 0.000931754)
(-0.00267006 0.00169199 0.000458363)
(-0.0025305 0.00140262 3.59445e-05)
(-0.00232039 0.0010661 -0.000282451)
(-0.00205434 0.000713656 -0.000473971)
(-0.00173934 0.000366761 -0.000534334)
(-0.00137758 4.22448e-05 -0.000465198)
(-0.000971672 -0.000246293 -0.00026898)
(-0.000527978 -0.000490004 4.95819e-05)
(-5.67374e-05 -0.000686511 0.00047636)
(0.00042919 -0.000840646 0.000975772)
(0.000913296 -0.000967152 0.00147897)
(0.00137426 -0.00109546 0.00189116)
(0.00178992 -0.00126148 0.00213088)
(0.00214115 -0.00147791 0.00216892)
(0.00241012 -0.00170845 0.00202816)
(0.00324241 -0.00284639 0.00235948)
(0.00317788 -0.00299531 0.00138331)
(0.00293271 -0.00295749 0.000273524)
(0.00260012 -0.00277624 -0.00069051)
(0.00226432 -0.00249969 -0.00138228)
(0.00195564 -0.00216997 -0.00180872)
(0.00167058 -0.00181892 -0.00201753)
(0.00139572 -0.00146342 -0.00204997)
(0.00111286 -0.00110767 -0.00193146)
(0.000800038 -0.000749725 -0.00167295)
(0.000435926 -0.000386392 -0.00127423)
(5.94584e-06 -1.42788e-05 -0.000728976)
(-0.000494162 0.000371441 -3.39407e-05)
(-0.00105693 0.000775454 0.000792345)
(-0.00165724 0.00119837 0.00167567)
(-0.00224378 0.00163877 0.00245886)
(-0.00274432 0.00209119 0.00293228)
(-0.00309178 0.00251957 0.00291836)
(-0.00324241 0.00284639 0.00235948)
(-0.00317788 0.00299531 0.00138331)
(-0.00293271 0.00295749 0.000273524)
(-0.00260012 0.00277624 -0.00069051)
(-0.00226432 0.00249969 -0.00138228)
(-0.00195564 0.00216997 -0.00180872)
(-0.00167058 0.00181892 -0.00201753)
(-0.00139572 0.00146342 -0.00204997)
(-0.00111286 0.00110767 -0.00193146)
(-0.000800038 0.000749725 -0.00167295)
(-0.000435926 0.000386392 -0.00127423)
(-5.94588e-06 1.42788e-05 -0.000728976)
(0.000494162 -0.000371441 -3.39408e-05)
(0.00105693 -0.000775454 0.000792345)
(0.00165724 -0.00119837 0.00167567)
(0.00224378 -0.00163877 0.00245886)
(0.00274432 -0.00209119 0.00293228)
(0.00309178 -0.00251957 0.00291836)
(0.00302069 -0.00242239 0.00222178)
(0.00303333 -0.00253014 0.00155845)
(0.00291382 -0.00248673 0.000777712)
(0.00270555 -0.0023117 4.41232e-05)
(0.00245384 -0.00204274 -0.000535395)
(0.00218282 -0.00171863 -0.000929431)
(0.00189774 -0.00136953 -0.00114633)
(0.00159454 -0.00101436 -0.00120317)
(0.00126445 -0.00066359 -0.00111354)
(0.000897077 -0.000322984 -0.00088502)
(0.000484148 4.54361e-06 -0.000521374)
(2.23233e-05 0.000319016 -2.84677e-05)
(-0.000485732 0.000623942 0.000575587)
(-0.00102921 0.000925303 0.0012463)
(-0.0015828 0.00122996 0.00189987)
(-0.00210367 0.00154586 0.00241843)
(-0.00254155 0.00187425 0.00268446)
(-0.00285532 0.00218583 0.0026216)
(-0.00302069 0.00242239 0.00222178)
(-0.00303333 0.00253014 0.00155845)
(-0.00291382 0.00248673 0.000777712)
(-0.00270555 0.0023117 4.41232e-05)
(-0.00245384 0.00204274 -0.000535395)
(-0.00218282 0.00171863 -0.000929431)
(-0.00189774 0.00136953 -0.00114633)
(-0.00159454 0.00101436 -0.00120317)
(-0.00126445 0.00066359 -0.00111354)
(-0.000897077 0.000322984 -0.00088502)
(-0.000484149 -4.54359e-06 -0.000521374)
(-2.23233e-05 -0.000319016 -2.84677e-05)
(0.000485732 -0.000623942 0.000575587)
(0.00102921 -0.000925303 0.0012463)
(0.0015828 -0.00122996 0.00189987)
(0.00210367 -0.00154586 0.00241843)
(0.00254155 -0.00187425 0.00268446)
(0.00285532 -0.00218583 0.0026216)
(0.00279631 -0.00208795 0.00206129)
(0.00285848 -0.00214245 0.00168046)
(0.00283968 -0.00208196 0.00121576)
(0.00274513 -0.00190589 0.000718687)
(0.00257937 -0.00163837 0.000262631)
(0.00235337 -0.00131327 -8.93449e-05)
(0.00207652 -0.000959421 -0.000305521)
(0.00175238 -0.000598756 -0.000377537)
(0.00138157 -0.000249057 -0.000306672)
(0.000966078 7.5801e-05 -9.76504e-05)
(0.000511263 0.00036768 0.00024065)
(2.47649e-05 0.000625332 0.000689147)
(-0.000484794 0.000853472 0.00120766)
(-0.00100437 0.00106254 0.00172461)
(-0.00151119 0.00127017 0.00214683)
(-0.00197377 0.00149334 0.00239855)
(-0.00235768 0.00172791 0.00245329)
(-0.0026345 0.0019399 0.00232898)
(-0.00279631 0.00208795 0.00206129)
(-0.00285848 0.00214245 0.00168046)
(-0.00283968 0.00208196 0.00121576)
(-0.00274513 0.00190589 0.000718687)
(-0.00257937 0.00163837 0.000262631)
(-0.00235337 0.00131327 -8.93449e-05)
(-0.00207652 0.000959421 -0.000305521)
(-0.00175238 0.000598756 -0.000377537)
(-0.00138157 0.000249057 -0.000306672)
(-0.000966078 -7.58009e-05 -9.76504e-05)
(-0.000511263 -0.00036768 0.00024065)
(-2.4765e-05 -0.000625332 0.000689147)
(0.000484794 -0.000853472 0.00120766)
(0.00100437 -0.00106254 0.00172461)
(0.00151119 -0.00127017 0.00214683)
(0.00197377 -0.00149334 0.00239855)
(0.00235768 -0.00172791 0.00245329)
(0.0026345 -0.0019399 0.00232898)
(0.00317332 -0.00297049 0.00247417)
(0.00311817 -0.0031833 0.00164331)
(0.0028975 -0.00322478 0.00063683)
(0.00258519 -0.00311679 -0.000311696)
(0.00225843 -0.00289388 -0.00105109)
(0.00195229 -0.00259183 -0.00154442)
(0.00166441 -0.00224272 -0.00181333)
(0.00137938 -0.00186901 -0.0018882)
(0.00107972 -0.00148215 -0.00179151)
(0.000748308 -0.00108583 -0.00153663)
(0.000370521 -0.000679544 -0.00113077)
(-6.33471e-05 -0.000259897 -0.000579253)
(-0.000556871 0.000178773 0.000108254)
(-0.00110471 0.000640992 0.00090358)
(-0.00168291 0.00112611 0.00173288)
(-0.0022405 0.00162867 0.00245767)
(-0.00271038 0.00213382 0.00290297)
(-0.00303371 0.00260211 0.00292406)
(-0.00317332 0.00297049 0.00247417)
(-0.00311817 0.0031833 0.00164331)
(-0.0028975 0.00322478 0.000636831)
(-0.00258519 0.00311679 -0.000311696)
(-0.00225843 0.00289388 -0.00105109)
(-0.00195229 0.00259183 -0.00154442)
(-0.00166441 0.00224272 -0.00181333)
(-0.00137938 0.00186901 -0.0018882)
(-0.00107972 0.00148215 -0.00179151)
(-0.000748308 0.00108583 -0.00153663)
(-0.000370521 0.000679544 -0.00113077)
(6.3347e-05 0.000259897 -0.000579253)
(0.000556871 -0.000178773 0.000108254)
(0.00110471 -0.000640992 0.00090358)
(0.00168291 -0.00112611 0.00173288)
(0.0022405 -0.00162867 0.00245767)
(0.00271038 -0.00213382 0.00290297)
(0.00303371 -0.00260211 0.00292406)
(0.00298154 -0.00253282 0.00237475)
(0.00298274 -0.0026714 0.00179198)
(0.00285915 -0.00267632 0.00107435)
(0.00265079 -0.00255525 0.000359838)
(0.00240022 -0.0023323 -0.000239558)
(0.00213151 -0.00203748 -0.000669705)
(0.00184828 -0.00169871 -0.000921423)
(0.00154444 -0.00133734 -0.00100333)
(0.00121124 -0.000967587 -0.000926673)
(0.000840543 -0.00059805 -0.000701123)
(0.000426834 -0.00023274 -0.000336222)
(-3.19346e-05 0.000128508 0.000153903)
(-0.000533926 0.000488941 0.000743114)
(-0.00106956 0.000851968 0.00138333)
(-0.00161304 0.0012186 0.00199648)
(-0.00211998 0.00158744 0.00248169)
(-0.00253997 0.00194986 0.00274134)
(-0.00283391 0.00227914 0.00270949)
(-0.00298154 0.00253282 0.00237475)
(-0.00298274 0.0026714 0.00179198)
(-0.00285915 0.00267632 0.00107435)
(-0.00265079 0.00255525 0.000359838)
(-0.00240022 0.0023323 -0.000239558)
(-0.00213151 0.00203748 -0.000669705)
(-0.00184828 0.00169871 -0.000921423)
(-0.00154444 0.00133734 -0.00100333)
(-0.00121124 0.000967587 -0.000926673)
(-0.000840543 0.00059805 -0.000701123)
(-0.000426834 0.00023274 -0.000336222)
(3.19346e-05 -0.000128508 0.000153903)
(0.000533926 -0.000488941 0.000743114)
(0.00106956 -0.000851968 0.00138333)
(0.00161304 -0.0012186 0.00199648)
(0.00211998 -0.00158744 0.00248169)
(0.00253997 -0.00194986 0.00274134)
(0.00283391 -0.00227914 0.00270949)
(0.00282023 -0.00218481 0.00225038)
(0.00285606 -0.00223634 0.00189536)
(0.00280519 -0.00219069 0.00145462)
(0.00268306 -0.00204586 0.000974778)
(0.0025006 -0.00181453 0.00052247)
(0.00226803 -0.00151897 0.000162929)
(0.00199124 -0.00118246 -6.43068e-05)
(0.00167098 -0.000825907 -0.000145217)
(0.00130658 -0.000467312 -7.94733e-05)
(0.000899231 -0.000120495 0.00012649)
(0.000452955 0.00020676 0.000459849)
(-2.68065e-05 0.000513091 0.000896733)
(-0.00053348 0.00080137 0.00139363)
(-0.00105441 0.00107616 0.00188122)
(-0.00156488 0.00134297 0.00227747)
(-0.00202949 0.00160361 0.00252046)
(-0.00240979 0.00184682 0.00258788)
(-0.00267609 0.00204872 0.00248976)
(-0.00282023 0.00218481 0.00225038)
(-0.00285606 0.00223634 0.00189536)
(-0.00280519 0.00219069 0.00145462)
(-0.00268306 0.00204586 0.000974778)
(-0.0025006 0.00181453 0.00052247)
(-0.00226803 0.00151897 0.000162929)
(-0.00199124 0.00118246 -6.43068e-05)
(-0.00167098 0.000825907 -0.000145217)
(-0.00130658 0.000467312 -7.94733e-05)
(-0.000899231 0.000120495 0.00012649)
(-0.000452955 -0.00020676 0.000459849)
(2.68065e-05 -0.000513091 0.000896733)
(0.00053348 -0.00080137 0.00139363)
(0.00105441 -0.00107616 0.00188122)
(0.00156488 -0.00134297 0.00227747)
(0.00202949 -0.00160361 0.00252046)
(0.00240979 -0.00184682 0.00258788)
(0.00267609 -0.00204872 0.00248976)
(0.00293753 -0.00294974 0.00243404)
(0.00288728 -0.00322095 0.00175821)
(0.00269874 -0.00334131 0.000906439)
(0.00242541 -0.00331441 5.39221e-05)
(0.00212648 -0.00315958 -0.000659589)
(0.00183561 -0.00290498 -0.00116949)
(0.00155499 -0.00258064 -0.0014691)
(0.00127175 -0.00221175 -0.00157342)
(0.000970958 -0.00181502 -0.00149978)
(0.0006399 -0.00139903 -0.00126326)
(0.00026899 -0.000966093 -0.000877491)
(-0.000148143 -0.000513946 -0.000356582)