/*--------------------------------*- C++ -*----------------------------------*\
| =========                 |                                                 |
| \\      /  F ield         | OpenFOAM: The Open Source CFD Toolbox           |
|  \\    /   O peration     | Version:  2312                                  |
|   \\  /    A nd           | Website:  www.openfoam.com                      |
|    \\/     M anipulation  |                                                 |
\*---------------------------------------------------------------------------*/
FoamFile
{
    version     2.0;
    format      ascii;
    arch        "LSB;label=32;scalar=64";
    class       volVectorField;
    location    "0.9";
    object      D_0_0_0;
}
// * * * * * * * * * * * * * * * * * * * * * * * * * * * * * * * * * * * * * //

dimensions      [0 1 0 0 0 0 0];

internalField   nonuniform List<vector> 
1620
(
(-0.000263031 0.000210441 -0.000140136)
(-0.000295577 0.000161569 -0.000140137)
(-0.000319143 0.000107788 -0.000140136)
(-0.000333012 5.07328e-05 -0.000140136)
(-0.000336763 -7.86429e-06 -0.000140136)
(-0.000330281 -6.62233e-05 -0.000140137)
(-0.000313763 -0.00012257 -0.000140136)
(-0.000287713 -0.000175192 -0.000140136)
(-0.000252919 -0.000222492 -0.000140136)
(-0.000210441 -0.000263031 -0.000140136)
(-0.000161569 -0.000295577 -0.000140137)
(-0.000107788 -0.000319143 -0.000140136)
(-5.07327e-05 -0.000333012 -0.000140136)
(7.86431e-06 -0.000336763 -0.000140136)
(6.62233e-05 -0.000330281 -0.000140137)
(0.00012257 -0.000313763 -0.000140136)
(0.000175192 -0.000287713 -0.000140136)
(0.000222492 -0.000252919 -0.000140136)
(0.000263031 -0.000210441 -0.000140136)
(0.000295577 -0.000161569 -0.000140137)
(0.000319143 -0.000107788 -0.000140136)
(0.000333012 -5.07327e-05 -0.000140136)
(0.000336763 7.86432e-06 -0.000140136)
(0.000330281 6.62233e-05 -0.000140137)
(0.000313763 0.00012257 -0.000140136)
(0.000287713 0.000175192 -0.000140136)
(0.000252919 0.000222492 -0.000140136)
(0.000210441 0.000263031 -0.000140136)
(0.000161569 0.000295577 -0.000140137)
(0.000107788 0.000319143 -0.000140136)
(5.07328e-05 0.000333012 -0.000140136)
(-7.86429e-06 0.000336763 -0.000140136)
(-6.62233e-05 0.000330281 -0.000140137)
(-0.00012257 0.000313763 -0.000140136)
(-0.000175192 0.000287713 -0.000140136)
(-0.000222492 0.000252919 -0.000140136)
(-0.00017163 0.000295606 -9.54667e-05)
(-0.000220354 0.000261311 -9.54668e-05)
(-0.000262382 0.000219077 -9.54667e-05)
(-0.000296439 0.000170187 -9.54665e-05)
(-0.000321489 0.000116126 -9.54666e-05)
(-0.000336769 5.85354e-05 -9.54666e-05)
(-0.000341817 -8.33219e-07 -9.54665e-05)
(-0.00033648 -6.01764e-05 -9.54665e-05)
(-0.000320918 -0.000117692 -9.54667e-05)
(-0.000295606 -0.00017163 -9.54667e-05)
(-0.000261311 -0.000220354 -9.54668e-05)
(-0.000219077 -0.000262382 -9.54667e-05)
(-0.000170187 -0.000296439 -9.54665e-05)
(-0.000116126 -0.000321489 -9.54666e-05)
(-5.85353e-05 -0.000336769 -9.54666e-05)
(8.33238e-07 -0.000341817 -9.54665e-05)
(6.01764e-05 -0.00033648 -9.54665e-05)
(0.000117692 -0.000320918 -9.54667e-05)
(0.00017163 -0.000295606 -9.54667e-05)
(0.000220354 -0.000261311 -9.54668e-05)
(0.000262383 -0.000219077 -9.54667e-05)
(0.000296439 -0.000170187 -9.54665e-05)
(0.000321489 -0.000116126 -9.54666e-05)
(0.000336769 -5.85353e-05 -9.54666e-05)
(0.000341817 8.33249e-07 -9.54665e-05)
(0.00033648 6.01764e-05 -9.54665e-05)
(0.000320918 0.000117692 -9.54667e-05)
(0.000295606 0.00017163 -9.54667e-05)
(0.000261311 0.000220354 -9.54668e-05)
(0.000219077 0.000262383 -9.54667e-05)
(0.000170187 0.000296439 -9.54665e-05)
(0.000116126 0.000321489 -9.54666e-05)
(5.85353e-05 0.000336769 -9.54666e-05)
(-8.33229e-07 0.000341817 -9.54665e-05)
(-6.01764e-05 0.00033648 -9.54665e-05)
(-0.000117692 0.000320918 -9.54667e-05)
(-0.000111636 0.000381329 -5.05683e-05)
(-0.000176157 0.000356151 -5.05683e-05)
(-0.000235326 0.000320151 -5.05685e-05)
(-0.000287344 0.000274423 -5.05683e-05)
(-0.000330632 0.000220358 -5.05685e-05)
(-0.000363874 0.000159596 -5.05683e-05)
(-0.000386059 9.39853e-05 -5.05685e-05)
(-0.000396515 2.5519e-05 -5.05686e-05)
(-0.000394921 -4.37227e-05 -5.05684e-05)
(-0.000381329 -0.000111636 -5.05683e-05)
(-0.000356151 -0.000176157 -5.05683e-05)
(-0.000320151 -0.000235326 -5.05686e-05)
(-0.000274423 -0.000287344 -5.05684e-05)
(-0.000220358 -0.000330632 -5.05685e-05)
(-0.000159596 -0.000363874 -5.05683e-05)
(-9.39853e-05 -0.000386059 -5.05685e-05)
(-2.5519e-05 -0.000396515 -5.05686e-05)
(4.37227e-05 -0.000394921 -5.05684e-05)
(0.000111636 -0.000381329 -5.05683e-05)
(0.000176157 -0.000356151 -5.05683e-05)
(0.000235326 -0.000320151 -5.05686e-05)
(0.000287344 -0.000274423 -5.05684e-05)
(0.000330632 -0.000220358 -5.05685e-05)
(0.000363874 -0.000159596 -5.05683e-05)
(0.000386059 -9.39853e-05 -5.05685e-05)
(0.000396515 -2.55189e-05 -5.05686e-05)
(0.000394921 4.37227e-05 -5.05684e-05)
(0.000381329 0.000111636 -5.05683e-05)
(0.000356151 0.000176157 -5.05683e-05)
(0.000320151 0.000235326 -5.05686e-05)
(0.000274423 0.000287344 -5.05683e-05)
(0.000220358 0.000330632 -5.05685e-05)
(0.000159596 0.000363874 -5.05683e-05)
(9.39853e-05 0.000386059 -5.05685e-05)
(2.55189e-05 0.000396515 -5.05686e-05)
(-4.37227e-05 0.000394921 -5.05684e-05)
(-0.000588728 0.000662477 -0.000467353)
(-0.000694822 0.000550181 -0.000467354)
(-0.000779804 0.000421168 -0.000467354)
(-0.000841093 0.000279359 -0.000467352)
(-0.000876825 0.000129062 -0.000467351)
(-0.000885915 -2.51578e-05 -0.000467352)
(-0.000868088 -0.000178613 -0.000467352)
(-0.000823883 -0.000326642 -0.000467353)
(-0.000754644 -0.000464745 -0.000467353)
(-0.000662477 -0.000588728 -0.000467353)
(-0.000550181 -0.000694822 -0.000467354)
(-0.000421168 -0.000779804 -0.000467354)
(-0.000279359 -0.000841093 -0.000467352)
(-0.000129062 -0.000876825 -0.000467351)
(2.51579e-05 -0.000885915 -0.000467352)
(0.000178614 -0.000868088 -0.000467352)
(0.000326642 -0.000823883 -0.000467353)
(0.000464746 -0.000754644 -0.000467353)
(0.000588728 -0.000662477 -0.000467353)
(0.000694822 -0.000550181 -0.000467354)
(0.000779804 -0.000421168 -0.000467354)
(0.000841093 -0.000279359 -0.000467352)
(0.000876825 -0.000129062 -0.000467351)
(0.000885915 2.51579e-05 -0.000467352)
(0.000868088 0.000178614 -0.000467352)
(0.000823883 0.000326642 -0.000467353)
(0.000754644 0.000464746 -0.000467353)
(0.000662477 0.000588728 -0.000467353)
(0.000550181 0.000694822 -0.000467354)
(0.000421168 0.000779805 -0.000467354)
(0.000279359 0.000841093 -0.000467352)
(0.000129062 0.000876825 -0.000467351)
(-2.51578e-05 0.000885915 -0.000467352)
(-0.000178613 0.000868088 -0.000467352)
(-0.000326642 0.000823883 -0.000467353)
(-0.000464745 0.000754644 -0.000467353)
(-0.000517764 0.000882558 -0.000340596)
(-0.000663152 0.00077924 -0.000340597)
(-0.000788391 0.000652247 -0.000340597)
(-0.000889675 0.000505436 -0.000340596)
(-0.000963928 0.000343268 -0.000340596)
(-0.00100889 0.000170668 -0.000340596)
(-0.0010232 -7.11733e-06 -0.000340596)
(-0.00100642 -0.000184686 -0.000340596)
(-0.000959058 -0.000356643 -0.000340596)
(-0.000882557 -0.000517764 -0.000340596)
(-0.00077924 -0.000663152 -0.000340597)
(-0.000652247 -0.000788391 -0.000340597)
(-0.000505436 -0.000889675 -0.000340596)
(-0.000343267 -0.000963928 -0.000340596)
(-0.000170668 -0.00100889 -0.000340596)
(7.11738e-06 -0.0010232 -0.000340596)
(0.000184686 -0.00100642 -0.000340596)
(0.000356643 -0.000959058 -0.000340596)
(0.000517764 -0.000882557 -0.000340596)
(0.000663152 -0.00077924 -0.000340597)
(0.000788391 -0.000652247 -0.000340597)
(0.000889675 -0.000505436 -0.000340596)
(0.000963928 -0.000343267 -0.000340596)
(0.00100889 -0.000170668 -0.000340596)
(0.0010232 7.11741e-06 -0.000340596)
(0.00100642 0.000184686 -0.000340596)
(0.000959058 0.000356643 -0.000340596)
(0.000882557 0.000517764 -0.000340596)
(0.00077924 0.000663152 -0.000340597)
(0.000652247 0.000788391 -0.000340597)
(0.000505436 0.000889675 -0.000340596)
(0.000343267 0.000963928 -0.000340596)
(0.000170668 0.00100889 -0.000340596)
(-7.11736e-06 0.0010232 -0.000340596)
(-0.000184686 0.00100642 -0.000340596)
(-0.000356643 0.000959059 -0.000340596)
(-0.00048954 0.00110021 -0.00021596)
(-0.000673151 0.000998484 -0.00021596)
(-0.000836308 0.000866424 -0.00021596)
(-0.000974055 0.000708037 -0.00021596)
(-0.00108221 0.000528138 -0.00021596)
(-0.00115748 0.00033219 -0.00021596)
(-0.00119758 0.00012615 -0.00021596)
(-0.00120129 -8.37236e-05 -0.00021596)
(-0.0011685 -0.000291053 -0.00021596)
(-0.00110021 -0.00048954 -0.00021596)
(-0.000998484 -0.000673151 -0.00021596)
(-0.000866424 -0.000836308 -0.00021596)
(-0.000708037 -0.000974055 -0.00021596)
(-0.000528138 -0.00108221 -0.00021596)
(-0.00033219 -0.00115748 -0.00021596)
(-0.000126149 -0.00119758 -0.00021596)
(8.37236e-05 -0.00120129 -0.00021596)
(0.000291053 -0.0011685 -0.00021596)
(0.00048954 -0.00110021 -0.00021596)
(0.000673151 -0.000998484 -0.00021596)
(0.000836308 -0.000866424 -0.00021596)
(0.000974055 -0.000708037 -0.00021596)
(0.00108221 -0.000528138 -0.00021596)
(0.00115748 -0.00033219 -0.00021596)
(0.00119758 -0.000126149 -0.00021596)
(0.00120129 8.37237e-05 -0.00021596)
(0.0011685 0.000291053 -0.00021596)
(0.00110021 0.00048954 -0.00021596)
(0.000998484 0.000673151 -0.00021596)
(0.000866424 0.000836308 -0.00021596)
(0.000708037 0.000974055 -0.00021596)
(0.000528138 0.00108221 -0.00021596)
(0.00033219 0.00115748 -0.00021596)
(0.000126149 0.00119758 -0.00021596)
(-8.37236e-05 0.00120129 -0.00021596)
(-0.000291053 0.0011685 -0.00021596)
(-0.000893707 0.00116285 -0.000865452)
(-0.00108206 0.000989991 -0.000865452)
(-0.00123753 0.000787054 -0.000865452)
(-0.0013554 0.000560203 -0.00086545)
(-0.00143209 0.000316331 -0.000865449)
(-0.00146526 6.28472e-05 -0.000865449)
(-0.00145391 -0.000192548 -0.000865449)
(-0.00139839 -0.000442091 -0.00086545)
(-0.00130037 -0.000678203 -0.000865451)
(-0.00116285 -0.000893707 -0.000865452)
(-0.000989991 -0.00108206 -0.000865452)
(-0.000787054 -0.00123753 -0.000865452)
(-0.000560203 -0.0013554 -0.00086545)
(-0.000316331 -0.00143209 -0.000865449)
(-6.28471e-05 -0.00146526 -0.000865449)
(0.000192548 -0.00145391 -0.000865449)
(0.000442092 -0.00139839 -0.00086545)
(0.000678203 -0.00130037 -0.000865451)
(0.000893707 -0.00116285 -0.000865452)
(0.00108206 -0.000989991 -0.000865452)
(0.00123753 -0.000787054 -0.000865452)
(0.0013554 -0.000560203 -0.00086545)
(0.00143209 -0.000316331 -0.000865449)
(0.00146526 -6.28471e-05 -0.000865449)
(0.00145391 0.000192548 -0.000865449)
(0.00139839 0.000442092 -0.00086545)
(0.00130037 0.000678203 -0.000865451)
(0.00116285 0.000893707 -0.000865452)
(0.000989991 0.00108206 -0.000865452)
(0.000787054 0.00123753 -0.000865452)
(0.000560203 0.0013554 -0.00086545)
(0.000316331 0.00143209 -0.000865449)
(6.28472e-05 0.00146526 -0.000865449)
(-0.000192548 0.00145391 -0.000865449)
(-0.000442091 0.00139839 -0.00086545)
(-0.000678203 0.00130037 -0.000865451)
(-0.000856491 0.00147344 -0.000675951)
(-0.00109934 0.00130233 -0.000675952)
(-0.00130879 0.00109165 -0.000675952)
(-0.00147846 0.000847795 -0.000675951)
(-0.00160322 0.000578183 -0.00067595)
(-0.00167927 0.000291002 -0.00067595)
(-0.00170429 -5.02051e-06 -0.000675951)
(-0.00167752 -0.000300891 -0.000675951)
(-0.00159979 -0.000587618 -0.000675951)
(-0.00147344 -0.000856491 -0.000675952)
(-0.00130233 -0.00109934 -0.000675952)
(-0.00109165 -0.00130879 -0.000675952)
(-0.000847795 -0.00147846 -0.000675951)
(-0.000578183 -0.00160322 -0.00067595)
(-0.000291002 -0.00167927 -0.000675951)
(5.0206e-06 -0.00170429 -0.000675951)
(0.000300891 -0.00167752 -0.000675951)
(0.000587618 -0.00159979 -0.000675951)
(0.000856491 -0.00147344 -0.000675952)
(0.00109934 -0.00130233 -0.000675952)
(0.00130879 -0.00109165 -0.000675952)
(0.00147846 -0.000847795 -0.000675951)
(0.00160322 -0.000578183 -0.00067595)
(0.00167927 -0.000291002 -0.00067595)
(0.00170429 5.02065e-06 -0.000675951)
(0.00167752 0.000300891 -0.000675951)
(0.00159979 0.000587618 -0.000675951)
(0.00147344 0.000856492 -0.000675952)
(0.00130233 0.00109934 -0.000675952)
(0.00109165 0.00130879 -0.000675952)
(0.000847795 0.00147846 -0.000675951)
(0.000578183 0.00160322 -0.00067595)
(0.000291002 0.00167927 -0.00067595)
(-5.02055e-06 0.00170429 -0.00067595)
(-0.000300891 0.00167752 -0.000675951)
(-0.000587618 0.00159979 -0.000675951)
(-0.000870966 0.0017688 -0.000492196)
(-0.00116488 0.00159068 -0.000492196)
(-0.0014234 0.00136424 -0.000492196)
(-0.00163868 0.00109634 -0.000492197)
(-0.00180416 0.000795134 -0.000492197)
(-0.00191482 0.000469764 -0.000492197)
(-0.00196731 0.000130121 -0.000492197)
(-0.00196001 -0.000213475 -0.000492196)
(-0.00189317 -0.000550585 -0.000492196)
(-0.0017688 -0.000870966 -0.000492196)
(-0.00159068 -0.00116488 -0.000492196)
(-0.00136424 -0.0014234 -0.000492197)
(-0.00109634 -0.00163868 -0.000492197)
(-0.000795134 -0.00180416 -0.000492197)
(-0.000469764 -0.00191482 -0.000492197)
(-0.000130121 -0.00196731 -0.000492197)
(0.000213475 -0.00196001 -0.000492197)
(0.000550585 -0.00189317 -0.000492197)
(0.000870966 -0.0017688 -0.000492196)
(0.00116488 -0.00159068 -0.000492196)
(0.0014234 -0.00136424 -0.000492197)
(0.00163868 -0.00109634 -0.000492197)
(0.00180416 -0.000795134 -0.000492197)
(0.00191482 -0.000469764 -0.000492197)
(0.00196731 -0.000130121 -0.000492197)
(0.00196001 0.000213475 -0.000492196)
(0.00189317 0.000550586 -0.000492196)
(0.0017688 0.000870966 -0.000492196)
(0.00159068 0.00116488 -0.000492196)
(0.00136424 0.0014234 -0.000492196)
(0.00109634 0.00163868 -0.000492197)
(0.000795134 0.00180416 -0.000492197)
(0.000469764 0.00191482 -0.000492197)
(0.000130121 0.00196731 -0.000492197)
(-0.000213475 0.00196001 -0.000492196)
(-0.000550585 0.00189317 -0.000492196)
(-0.00117718 0.00172585 -0.0013006)
(-0.00145899 0.00149521 -0.0013006)
(-0.00169647 0.00121914 -0.0013006)
(-0.0018824 0.000906037 -0.0013006)
(-0.00201113 0.000565398 -0.0013006)
(-0.00207876 0.000207579 -0.0013006)
(-0.00208322 -0.000156547 -0.0013006)
(-0.00202439 -0.000515916 -0.0013006)
(-0.00190404 -0.000859609 -0.0013006)
(-0.00172585 -0.00117718 -0.0013006)
(-0.00149521 -0.00145899 -0.0013006)
(-0.00121914 -0.00169647 -0.0013006)
(-0.000906036 -0.0018824 -0.0013006)
(-0.000565398 -0.00201113 -0.0013006)
(-0.000207579 -0.00207876 -0.0013006)
(0.000156547 -0.00208322 -0.0013006)
(0.000515916 -0.00202439 -0.0013006)
(0.000859609 -0.00190404 -0.0013006)
(0.00117718 -0.00172585 -0.0013006)
(0.00145899 -0.00149521 -0.0013006)
(0.00169647 -0.00121914 -0.0013006)
(0.0018824 -0.000906036 -0.0013006)
(0.00201113 -0.000565398 -0.0013006)
(0.00207876 -0.000207579 -0.0013006)
(0.00208322 0.000156547 -0.0013006)
(0.00202439 0.000515916 -0.0013006)
(0.00190404 0.000859609 -0.0013006)
(0.00172585 0.00117718 -0.0013006)
(0.00149521 0.00145899 -0.0013006)
(0.00121914 0.00169647 -0.0013006)
(0.000906036 0.0018824 -0.0013006)
(0.000565398 0.00201113 -0.0013006)
(0.000207579 0.00207876 -0.0013006)
(-0.000156547 0.00208322 -0.0013006)
(-0.000515916 0.00202439 -0.0013006)
(-0.000859609 0.00190404 -0.0013006)
(-0.00118078 0.00206262 -0.00106907)
(-0.00152101 0.00182624 -0.00106907)
(-0.00181502 0.00153438 -0.00106907)
(-0.00205389 0.00119589 -0.00106907)
(-0.00223035 0.000821071 -0.00106907)
(-0.00233905 0.0004213 -0.00106907)
(-0.00237667 8.72839e-06 -0.00106907)
(-0.00234208 -0.000404109 -0.00106907)
(-0.00223632 -0.000804667 -0.00106907)
(-0.00206262 -0.00118078 -0.00106907)
(-0.00182624 -0.00152101 -0.00106907)
(-0.00153438 -0.00181502 -0.00106907)
(-0.00119589 -0.00205389 -0.00106907)
(-0.00082107 -0.00223035 -0.00106907)
(-0.0004213 -0.00233905 -0.00106907)
(-8.72825e-06 -0.00237667 -0.00106907)
(0.000404109 -0.00234208 -0.00106907)
(0.000804667 -0.00223632 -0.00106907)
(0.00118078 -0.00206262 -0.00106907)
(0.00152101 -0.00182624 -0.00106907)
(0.00181502 -0.00153438 -0.00106907)
(0.00205389 -0.00119589 -0.00106907)
(0.00223035 -0.00082107 -0.00106907)
(0.00233905 -0.0004213 -0.00106907)
(0.00237667 -8.7282e-06 -0.00106907)
(0.00234208 0.000404109 -0.00106907)
(0.00223632 0.000804668 -0.00106907)
(0.00206262 0.00118078 -0.00106907)
(0.00182624 0.00152101 -0.00106907)
(0.00153438 0.00181502 -0.00106907)
(0.00119589 0.00205389 -0.00106907)
(0.000821071 0.00223035 -0.00106907)
(0.0004213 0.00233905 -0.00106907)
(8.72834e-06 0.00237667 -0.00106907)
(-0.000404109 0.00234208 -0.00106907)
(-0.000804667 0.00223632 -0.00106907)
(-0.00124134 0.0023678 -0.000848733)
(-0.00163365 0.00211627 -0.000848733)
(-0.00197632 0.00180044 -0.000848733)
(-0.00225893 0.0014299 -0.000848733)
(-0.00247291 0.00101592 -0.000848733)
(-0.00261176 0.000571066 -0.000848733)
(-0.00267124 0.000108863 -0.000848733)
(-0.00264956 -0.000356648 -0.000848734)
(-0.00254738 -0.000811322 -0.000848733)
(-0.0023678 -0.00124134 -0.000848733)
(-0.00211627 -0.00163365 -0.000848733)
(-0.00180044 -0.00197632 -0.000848733)
(-0.0014299 -0.00225893 -0.000848733)
(-0.00101592 -0.00247291 -0.000848733)
(-0.000571066 -0.00261176 -0.000848733)
(-0.000108862 -0.00267124 -0.000848733)
(0.000356648 -0.00264956 -0.000848734)
(0.000811322 -0.00254738 -0.000848733)
(0.00124134 -0.0023678 -0.000848733)
(0.00163365 -0.00211627 -0.000848733)
(0.00197632 -0.00180044 -0.000848733)
(0.00225893 -0.0014299 -0.000848733)
(0.00247291 -0.00101592 -0.000848733)
(0.00261176 -0.000571066 -0.000848733)
(0.00267124 -0.000108862 -0.000848733)
(0.00264956 0.000356648 -0.000848734)
(0.00254738 0.000811323 -0.000848733)
(0.0023678 0.00124134 -0.000848733)
(0.00211627 0.00163365 -0.000848733)
(0.00180044 0.00197632 -0.000848733)
(0.0014299 0.00225893 -0.000848733)
(0.00101592 0.00247291 -0.000848733)
(0.000571066 0.00261176 -0.000848733)
(0.000108862 0.00267124 -0.000848733)
(-0.000356648 0.00264957 -0.000848733)
(-0.000811322 0.00254738 -0.000848733)
(-0.00145427 0.00233704 -0.00175551)
(-0.001838 0.002049 -0.00175551)
(-0.00216588 0.00169871 -0.00175551)
(-0.00242795 0.0012968 -0.00175551)
(-0.00261625 0.000855489 -0.00175551)
(-0.00272506 0.000388185 -0.00175551)
(-0.00275107 -9.09136e-05 -0.00175551)
(-0.00269348 -0.000567251 -0.00175551)
(-0.00255406 -0.00102635 -0.00175551)
(-0.00233704 -0.00145427 -0.00175551)
(-0.002049 -0.001838 -0.00175551)
(-0.00169871 -0.00216588 -0.00175551)
(-0.0012968 -0.00242795 -0.00175551)
(-0.000855489 -0.00261625 -0.00175551)
(-0.000388185 -0.00272506 -0.00175551)
(9.09138e-05 -0.00275107 -0.00175551)
(0.000567251 -0.00269348 -0.00175551)
(0.00102635 -0.00255406 -0.00175551)
(0.00145427 -0.00233704 -0.00175551)
(0.001838 -0.002049 -0.00175551)
(0.00216588 -0.00169871 -0.00175551)
(0.00242795 -0.0012968 -0.00175551)
(0.00261625 -0.000855489 -0.00175551)
(0.00272506 -0.000388185 -0.00175551)
(0.00275107 9.09139e-05 -0.00175551)
(0.00269348 0.000567251 -0.00175551)
(0.00255406 0.00102635 -0.00175551)
(0.00233704 0.00145427 -0.00175551)
(0.002049 0.001838 -0.00175551)
(0.00169871 0.00216588 -0.00175551)
(0.0012968 0.00242795 -0.00175551)
(0.000855489 0.00261625 -0.00175551)
(0.000388185 0.00272506 -0.00175551)
(-9.09137e-05 0.00275107 -0.00175551)
(-0.000567251 0.00269348 -0.00175551)
(-0.00102635 0.00255406 -0.00175551)
(-0.00149263 0.00264332 -0.00149867)
(-0.00192897 0.00234396 -0.00149867)
(-0.00230669 0.00197339 -0.00149867)
(-0.00261432 0.00154286 -0.00149867)
(-0.00284252 0.00106545 -0.00149867)
(-0.00298434 0.000555668 -0.00149867)
(-0.0030355 2.89996e-05 -0.00149867)
(-0.00299441 -0.000498549 -0.00149867)
(-0.00286235 -0.00101095 -0.00149867)
(-0.00264332 -0.00149263 -0.00149867)
(-0.00234396 -0.00192897 -0.00149867)
(-0.00197339 -0.00230669 -0.00149867)
(-0.00154286 -0.00261432 -0.00149867)
(-0.00106545 -0.00284252 -0.00149867)
(-0.000555668 -0.00298434 -0.00149867)
(-2.89994e-05 -0.0030355 -0.00149867)
(0.00049855 -0.00299441 -0.00149867)
(0.00101095 -0.00286235 -0.00149867)
(0.00149263 -0.00264332 -0.00149867)
(0.00192897 -0.00234396 -0.00149867)
(0.00230669 -0.00197339 -0.00149867)
(0.00261432 -0.00154286 -0.00149867)
(0.00284252 -0.00106545 -0.00149867)
(0.00298434 -0.000555668 -0.00149867)
(0.0030355 -2.89994e-05 -0.00149867)
(0.00299442 0.00049855 -0.00149867)
(0.00286235 0.00101095 -0.00149867)
(0.00264332 0.00149263 -0.00149867)
(0.00234396 0.00192897 -0.00149867)
(0.00197339 0.00230669 -0.00149867)
(0.00154286 0.00261432 -0.00149867)
(0.00106545 0.00284252 -0.00149867)
(0.000555668 0.00298434 -0.00149867)
(2.89996e-05 0.0030355 -0.00149867)
(-0.000498549 0.00299442 -0.00149867)
(-0.00101095 0.00286235 -0.00149867)
(-0.00158844 0.00290291 -0.00125883)
(-0.00206839 0.00258298 -0.00125883)
(-0.0024855 0.00218456 -0.00125883)
(-0.00282708 0.00171977 -0.00125883)
(-0.00308277 0.00120273 -0.00125883)
(-0.00324478 0.000649141 -0.00125883)
(-0.00330821 7.58277e-05 -0.00125883)
(-0.00327112 -0.000499789 -0.00125883)
(-0.00313463 -0.00106022 -0.00125883)
(-0.00290291 -0.00158844 -0.00125883)
(-0.00258298 -0.00206839 -0.00125883)
(-0.00218456 -0.0024855 -0.00125883)
(-0.00171977 -0.00282708 -0.00125883)
(-0.00120273 -0.00308277 -0.00125883)
(-0.000649141 -0.00324478 -0.00125883)
(-7.58275e-05 -0.00330821 -0.00125883)
(0.00049979 -0.00327112 -0.00125883)
(0.00106022 -0.00313463 -0.00125883)
(0.00158844 -0.00290291 -0.00125883)
(0.00206839 -0.00258298 -0.00125883)
(0.0024855 -0.00218456 -0.00125883)
(0.00282708 -0.00171977 -0.00125883)
(0.00308277 -0.00120273 -0.00125883)
(0.00324478 -0.00064914 -0.00125883)
(0.00330821 -7.58275e-05 -0.00125883)
(0.00327112 0.00049979 -0.00125883)
(0.00313463 0.00106022 -0.00125883)
(0.00290291 0.00158844 -0.00125883)
(0.00258298 0.00206839 -0.00125883)
(0.00218456 0.0024855 -0.00125883)
(0.00171977 0.00282708 -0.00125883)
(0.00120273 0.00308277 -0.00125883)
(0.000649141 0.00324478 -0.00125883)
(7.58277e-05 0.00330821 -0.00125883)
(-0.000499789 0.00327112 -0.00125883)
(-0.00106022 0.00313463 -0.00125883)
(-0.00174074 0.00296405 -0.00222736)
(-0.00222899 0.00261675 -0.00222736)
(-0.00264952 0.00218993 -0.00222736)
(-0.00298955 0.00169658 -0.00222736)
(-0.00323874 0.00115167 -0.00222736)
(-0.00338952 0.000571775 -0.00222736)
(-0.00343731 -2.54954e-05 -0.00222736)
(-0.00338066 -0.000621992 -0.00222736)
(-0.0032213 -0.00119959 -0.00222736)
(-0.00296405 -0.00174074 -0.00222736)
(-0.00261675 -0.00222899 -0.00222736)
(-0.00218993 -0.00264952 -0.00222736)
(-0.00169658 -0.00298955 -0.00222736)
(-0.00115167 -0.00323874 -0.00222736)
(-0.000571774 -0.00338952 -0.00222736)
(2.54956e-05 -0.00343731 -0.00222736)
(0.000621992 -0.00338066 -0.00222736)
(0.00119959 -0.0032213 -0.00222736)
(0.00174074 -0.00296405 -0.00222736)
(0.00222899 -0.00261675 -0.00222736)
(0.00264952 -0.00218993 -0.00222736)
(0.00298955 -0.00169658 -0.00222736)
(0.00323874 -0.00115167 -0.00222736)
(0.00338952 -0.000571774 -0.00222736)
(0.00343731 2.54957e-05 -0.00222736)
(0.00338066 0.000621992 -0.00222736)
(0.0032213 0.00119959 -0.00222736)
(0.00296405 0.00174074 -0.00222736)
(0.00261675 0.00222899 -0.00222736)
(0.00218993 0.00264952 -0.00222736)
(0.00169658 0.00298955 -0.00222736)
(0.00115167 0.00323874 -0.00222736)
(0.000571775 0.00338952 -0.00222736)
(-2.54954e-05 0.00343731 -0.00222736)
(-0.000621992 0.00338066 -0.00222736)
(-0.00119959 0.0032213 -0.00222736)
(-0.00179894 0.00320152 -0.0019527)
(-0.00232755 0.00284049 -0.0019527)
(-0.00278543 0.00239317 -0.0019527)
(-0.00315869 0.00187312 -0.0019527)
(-0.00343596 0.00129617 -0.0019527)
(-0.00360884 0.000679828 -0.0019527)
(-0.00367206 4.28313e-05 -0.0019527)
(-0.00362371 -0.000595467 -0.0019527)
(-0.00346526 -0.00121567 -0.0019527)
(-0.00320152 -0.00179894 -0.0019527)
(-0.00284049 -0.00232755 -0.0019527)
(-0.00239317 -0.00278543 -0.0019527)
(-0.00187312 -0.00315869 -0.0019527)
(-0.00129617 -0.00343596 -0.0019527)
(-0.000679827 -0.00360884 -0.0019527)
(-4.28311e-05 -0.00367206 -0.0019527)
(0.000595467 -0.00362371 -0.0019527)
(0.00121567 -0.00346526 -0.0019527)
(0.00179894 -0.00320152 -0.0019527)
(0.00232755 -0.00284049 -0.0019527)
(0.00278543 -0.00239317 -0.0019527)
(0.00315869 -0.00187312 -0.0019527)
(0.00343596 -0.00129617 -0.0019527)
(0.00360884 -0.000679827 -0.0019527)
(0.00367206 -4.28311e-05 -0.0019527)
(0.00362371 0.000595467 -0.0019527)
(0.00346526 0.00121567 -0.0019527)
(0.00320152 0.00179894 -0.0019527)
(0.00284049 0.00232755 -0.0019527)
(0.00239317 0.00278543 -0.0019527)
(0.00187312 0.00315869 -0.0019527)
(0.00129617 0.00343596 -0.0019527)
(0.000679827 0.00360884 -0.0019527)
(4.28313e-05 0.00367206 -0.0019527)
(-0.000595467 0.00362371 -0.0019527)
(-0.00121567 0.00346526 -0.0019527)
(-0.00191136 0.00338057 -0.0017004)
(-0.00246935 0.0029973 -0.0017004)
(-0.00295231 0.00252297 -0.0017004)
(-0.00334557 0.00197198 -0.0017004)
(-0.00363717 0.00136107 -0.0017004)
(-0.00381826 0.000708804 -0.0017004)
(-0.00388333 3.50028e-05 -0.0017004)
(-0.00383042 -0.000639864 -0.0017004)
(-0.00366111 -0.00129529 -0.0017004)
(-0.00338057 -0.00191136 -0.0017004)
(-0.0029973 -0.00246935 -0.0017004)
(-0.00252297 -0.00295231 -0.0017004)
(-0.00197198 -0.00334557 -0.0017004)
(-0.00136107 -0.00363717 -0.0017004)
(-0.000708804 -0.00381826 -0.0017004)
(-3.50026e-05 -0.00388333 -0.0017004)
(0.000639864 -0.00383042 -0.0017004)
(0.00129529 -0.00366111 -0.0017004)
(0.00191136 -0.00338057 -0.0017004)
(0.00246935 -0.0029973 -0.0017004)
(0.00295231 -0.00252297 -0.0017004)
(0.00334557 -0.00197198 -0.0017004)
(0.00363717 -0.00136107 -0.0017004)
(0.00381826 -0.000708803 -0.0017004)
(0.00388333 -3.50025e-05 -0.0017004)
(0.00383042 0.000639864 -0.0017004)
(0.00366111 0.00129529 -0.0017004)
(0.00338057 0.00191136 -0.0017004)
(0.0029973 0.00246935 -0.0017004)
(0.00252297 0.00295231 -0.0017004)
(0.00197198 0.00334557 -0.0017004)
(0.00136107 0.00363717 -0.0017004)
(0.000708804 0.00381826 -0.0017004)
(3.50028e-05 0.00388333 -0.0017004)
(-0.000639864 0.00383042 -0.0017004)
(-0.00129529 0.00366111 -0.0017004)
(-0.00204823 0.00356478 -0.00271873)
(-0.00263613 0.00315495 -0.00271873)
(-0.00314393 0.00264926 -0.00271873)
(-0.00355621 0.00206307 -0.00271873)
(-0.00386043 0.0014142 -0.00271873)
(-0.00404735 0.000722361 -0.00271873)
(-0.0041113 8.57193e-06 -0.00271873)
(-0.00405033 -0.000705479 -0.00271873)
(-0.00386629 -0.00139809 -0.00271873)
(-0.00356478 -0.00204823 -0.00271873)
(-0.00315495 -0.00263613 -0.00271873)
(-0.00264926 -0.00314393 -0.00271873)
(-0.00206307 -0.00355621 -0.00271873)
(-0.0014142 -0.00386043 -0.00271873)
(-0.000722361 -0.00404735 -0.00271873)
(-8.57163e-06 -0.0041113 -0.00271873)
(0.00070548 -0.00405033 -0.00271873)
(0.00139809 -0.00386629 -0.00271873)
(0.00204823 -0.00356478 -0.00271873)
(0.00263613 -0.00315495 -0.00271873)
(0.00314393 -0.00264926 -0.00271873)
(0.00355621 -0.00206307 -0.00271873)
(0.00386043 -0.0014142 -0.00271873)
(0.00404735 -0.000722361 -0.00271873)
(0.0041113 -8.57161e-06 -0.00271873)
(0.00405033 0.00070548 -0.00271873)
(0.00386629 0.00139809 -0.00271873)
(0.00356478 0.00204823 -0.00271873)
(0.00315495 0.00263613 -0.00271873)
(0.00264926 0.00314393 -0.00271873)
(0.00206307 0.00355621 -0.00271873)
(0.0014142 0.00386043 -0.00271873)
(0.000722361 0.00404735 -0.00271873)
(8.57188e-06 0.0041113 -0.00271873)
(-0.000705479 0.00405033 -0.00271873)
(-0.00139809 0.00386629 -0.00271873)
(-0.00210711 0.00371175 -0.00242584)
(-0.00271964 0.00328947 -0.00242584)
(-0.00324953 0.00276723 -0.00242584)
(-0.00368069 0.00216091 -0.00242584)
(-0.00400001 0.00148894 -0.00242584)
(-0.00419779 0.000771728 -0.00242584)
(-0.00426803 3.10631e-05 -0.00242584)
(-0.00420858 -0.000710544 -0.00242584)
(-0.00402126 -0.00143056 -0.00242584)
(-0.00371175 -0.00210711 -0.00242584)
(-0.00328947 -0.00271964 -0.00242584)
(-0.00276723 -0.00324953 -0.00242584)
(-0.00216091 -0.00368069 -0.00242584)
(-0.00148894 -0.00400001 -0.00242584)
(-0.000771727 -0.00419779 -0.00242584)
(-3.10628e-05 -0.00426803 -0.00242584)
(0.000710544 -0.00420858 -0.00242584)
(0.00143056 -0.00402126 -0.00242584)
(0.00210711 -0.00371175 -0.00242584)
(0.00271964 -0.00328947 -0.00242584)
(0.00324953 -0.00276723 -0.00242584)
(0.00368069 -0.00216091 -0.00242584)
(0.00400001 -0.00148894 -0.00242584)
(0.00419779 -0.000771727 -0.00242584)
(0.00426803 -3.10628e-05 -0.00242584)
(0.00420858 0.000710544 -0.00242584)
(0.00402126 0.00143056 -0.00242584)
(0.00371175 0.00210711 -0.00242584)
(0.00328947 0.00271964 -0.00242584)
(0.00276723 0.00324953 -0.00242584)
(0.00216091 0.00368069 -0.00242584)
(0.00148894 0.00400001 -0.00242584)
(0.000771728 0.00419779 -0.00242584)
(3.10631e-05 0.00426803 -0.00242584)
(-0.000710544 0.00420858 -0.00242584)
(-0.00143056 0.00402126 -0.00242584)
(-0.00221423 0.00379372 -0.00215966)
(-0.00283936 0.00335159 -0.00215966)
(-0.00337822 0.00280762 -0.00215966)
(-0.00381443 0.00217835 -0.00215966)
(-0.00413475 0.00148288 -0.00215966)
(-0.00432943 0.000742364 -0.00215966)
(-0.00439257 -2.0713e-05 -0.00215966)
(-0.00432224 -0.00078316 -0.00215966)
(-0.00412058 -0.00152181 -0.00215966)
(-0.00379372 -0.00221423 -0.00215966)
(-0.00335159 -0.00283936 -0.00215966)
(-0.00280762 -0.00337822 -0.00215966)
(-0.00217835 -0.00381443 -0.00215966)
(-0.00148288 -0.00413475 -0.00215966)
(-0.000742364 -0.00432943 -0.00215966)
(2.07133e-05 -0.00439257 -0.00215966)
(0.00078316 -0.00432224 -0.00215966)
(0.00152181 -0.00412058 -0.00215966)
(0.00221423 -0.00379372 -0.00215966)
(0.00283936 -0.00335159 -0.00215966)
(0.00337822 -0.00280762 -0.00215966)
(0.00381444 -0.00217835 -0.00215966)
(0.00413475 -0.00148288 -0.00215966)
(0.00432943 -0.000742364 -0.00215966)
(0.00439257 2.07133e-05 -0.00215966)
(0.00432224 0.00078316 -0.00215966)
(0.00412058 0.00152181 -0.00215966)
(0.00379372 0.00221423 -0.00215966)
(0.00335159 0.00283936 -0.00215966)
(0.00280762 0.00337822 -0.00215966)
(0.00217835 0.00381444 -0.00215966)
(0.00148288 0.00413475 -0.00215966)
(0.000742364 0.00432943 -0.00215966)
(-2.0713e-05 0.00439257 -0.00215966)
(-0.00078316 0.00432224 -0.00215966)
(-0.00152181 0.00412058 -0.00215966)
(-0.00237738 0.00408897 -0.00322923)
(-0.00305131 0.00361402 -0.00322923)
(-0.00363252 0.00302926 -0.00322923)
(-0.00410336 0.00235246 -0.00322924)
(-0.00444952 0.00160418 -0.00322924)
(-0.00466049 0.000807159 -0.00322923)
(-0.00472985 -1.43893e-05 -0.00322923)
(-0.00465549 -0.000835501 -0.00322923)
(-0.00443968 -0.00163123 -0.00322923)
(-0.00408897 -0.00237738 -0.00322923)