/*--------------------------------*- C++ -*----------------------------------*\
| =========                 |                                                 |
| \\      /  F ield         | OpenFOAM: The Open Source CFD Toolbox           |
|  \\    /   O peration     | Version:  2312                                  |
|   \\  /    A nd           | Website:  www.openfoam.com                      |
|    \\/     M anipulation  |                                                 |
\*---------------------------------------------------------------------------*/
FoamFile
{
    version     2.0;
    format      ascii;
    arch        "LSB;label=32;scalar=64";
    class       volTensorField;
    location    "0.9";
    object      F;
}
// * * * * * * * * * * * * * * * * * * * * * * * * * * * * * * * * * * * * * //

dimensions      [0 0 0 0 0 0 0];

internalField   nonuniform List<tensor> 
1620
(
(1.09478 -0.0306505 -0.454046 0.11379 0.997222 0.210388 0.0496908 -0.098193 0.847803)
(1.0107 -0.0485054 -0.456571 0.0930477 0.979297 0.255445 -0.0331708 -0.10061 0.998019)
(0.948595 -0.0769719 -0.433923 0.0285692 0.970712 0.260287 -0.0803885 -0.0944931 1.12015)
(0.918852 -0.107015 -0.393705 -0.0372246 0.955199 0.223079 -0.08801 -0.0849904 1.20265)
(0.919314 -0.124071 -0.342749 -0.0792268 0.92671 0.167582 -0.0712574 -0.0687215 1.24815)
(0.938686 -0.120623 -0.289382 -0.0932465 0.893231 0.113649 -0.0483167 -0.0446728 1.26325)
(0.964396 -0.098124 -0.241074 -0.0862356 0.8653 0.0686639 -0.0303683 -0.0173398 1.25614)
(0.987661 -0.0634275 -0.200404 -0.067383 0.849289 0.0318278 -0.0211489 0.00709202 1.2348)
(1.00439 -0.0244016 -0.164445 -0.0443375 0.846836 -0.000249895 -0.0198359 0.0237706 1.20537)
(1.0141 0.0124284 -0.126778 -0.0229573 0.856965 -0.0302046 -0.0234957 0.0301337 1.171)
(1.01881 0.0422497 -0.0804632 -0.0084443 0.878081 -0.0588801 -0.0289958 0.026313 1.13133)
(1.02284 0.0613911 -0.0208913 -0.00610379 0.908679 -0.086186 -0.0351103 0.0152857 1.08248)
(1.03325 0.0672715 0.0525581 -0.0196335 0.946706 -0.112781 -0.0445515 0.00231407 1.01826)
(1.0584 0.0596423 0.136784 -0.0457995 0.98852 -0.139941 -0.0641052 -0.00614383 0.933741)
(1.10179 0.0418172 0.225943 -0.068677 1.02796 -0.165325 -0.0998833 -0.0031058 0.832018)
(1.15313 0.0195649 0.311112 -0.0619583 1.05478 -0.179452 -0.14556 0.0174199 0.73312)
(1.1858 -0.00238031 0.381145 -0.00801085 1.05513 -0.176241 -0.169453 0.0518272 0.679707)
(1.16703 -0.0187105 0.429444 0.0706184 1.02877 -0.175343 -0.131549 0.0818021 0.721327)
(1.09478 -0.0306505 0.454046 0.11379 0.997222 -0.210389 -0.0496908 0.098193 0.847803)
(1.0107 -0.0485054 0.456571 0.0930477 0.979297 -0.255445 0.0331708 0.10061 0.998019)
(0.948595 -0.0769719 0.433923 0.0285692 0.970712 -0.260287 0.0803885 0.0944931 1.12015)
(0.918852 -0.107015 0.393705 -0.0372246 0.955199 -0.223079 0.08801 0.0849904 1.20265)
(0.919314 -0.124071 0.342749 -0.0792268 0.92671 -0.167582 0.0712574 0.0687215 1.24815)
(0.938686 -0.120623 0.289382 -0.0932465 0.893231 -0.113649 0.0483167 0.0446728 1.26325)
(0.964396 -0.098124 0.241074 -0.0862356 0.8653 -0.0686639 0.0303683 0.0173398 1.25614)
(0.987661 -0.0634275 0.200404 -0.067383 0.849289 -0.0318278 0.0211489 -0.00709202 1.2348)
(1.00439 -0.0244016 0.164445 -0.0443375 0.846836 0.000249893 0.0198359 -0.0237706 1.20537)
(1.0141 0.0124284 0.126778 -0.0229573 0.856965 0.0302046 0.0234957 -0.0301337 1.171)
(1.01881 0.0422497 0.0804632 -0.0084443 0.878081 0.0588801 0.0289958 -0.026313 1.13133)
(1.02284 0.0613911 0.0208913 -0.00610379 0.908679 0.086186 0.0351103 -0.0152857 1.08248)
(1.03325 0.0672715 -0.0525581 -0.0196335 0.946706 0.112781 0.0445515 -0.00231407 1.01826)
(1.0584 0.0596423 -0.136784 -0.0457995 0.98852 0.139941 0.0641052 0.00614383 0.933741)
(1.10179 0.0418172 -0.225943 -0.068677 1.02796 0.165325 0.0998833 0.00310579 0.832018)
(1.15313 0.0195649 -0.311112 -0.0619583 1.05478 0.179452 0.14556 -0.0174199 0.73312)
(1.1858 -0.00238031 -0.381145 -0.00801085 1.05513 0.176241 0.169453 -0.0518272 0.679707)
(1.16703 -0.0187105 -0.429444 0.0706184 1.02877 0.175343 0.131549 -0.0818021 0.721327)
(1.1076 0.0246399 -0.421262 0.0867099 0.986801 0.237139 0.0493127 -0.0435959 0.846036)
(1.02939 0.0116698 -0.439967 0.0692728 1.002 0.268554 -0.0217211 -0.0540195 0.938163)
(0.967811 -0.0261825 -0.440905 0.00825469 1.00967 0.260437 -0.059519 -0.0673545 1.02253)
(0.937009 -0.0725395 -0.422612 -0.0532848 0.993746 0.219993 -0.0595785 -0.073341 1.09338)
(0.937607 -0.108126 -0.387711 -0.0911127 0.958007 0.164727 -0.039264 -0.0639564 1.14503)
(0.958973 -0.120479 -0.343596 -0.101747 0.915589 0.10835 -0.0177895 -0.0406975 1.17507)
(0.987589 -0.10819 -0.296584 -0.0914008 0.878756 0.0567103 -0.00552723 -0.0122468 1.18547)
(1.01316 -0.0776828 -0.249074 -0.0682865 0.855405 0.010859 -0.00439856 0.0122135 1.17989)
(1.03029 -0.0383226 -0.199835 -0.0399963 0.84914 -0.029612 -0.0115267 0.0264636 1.16142)
(1.03782 0.000673765 -0.145644 -0.0132324 0.860527 -0.0646491 -0.0219585 0.0280283 1.13154)
(1.03787 0.0314112 -0.083457 0.00568143 0.888253 -0.0932084 -0.0306805 0.0185376 1.09018)
(1.03547 0.0476973 -0.0124926 0.0104103 0.929282 -0.114099 -0.0351047 0.00387829 1.03638)
(1.03864 0.0461311 0.064769 -0.00394509 0.977559 -0.127693 -0.037802 -0.00704868 0.969819)
(1.05701 0.0286434 0.143521 -0.0357454 1.02233 -0.136768 -0.0472101 -0.00587749 0.892995)
(1.09583 0.00454632 0.218695 -0.0697976 1.04904 -0.144728 -0.0728642 0.0098677 0.813834)
(1.14677 -0.0118696 0.286101 -0.077108 1.04606 -0.15348 -0.112972 0.0319013 0.748746)
(1.18347 -0.00903423 0.342948 -0.0340466 1.01696 -0.166396 -0.140023 0.0438346 0.724015)
(1.17154 0.0108703 0.387692 0.0406106 0.98935 -0.194138 -0.116072 0.0424344 0.76292)
(1.1076 0.0246399 0.421262 0.0867099 0.986801 -0.237139 -0.0493127 0.0435959 0.846036)
(1.02939 0.0116698 0.439967 0.0692728 1.002 -0.268554 0.0217211 0.0540195 0.938163)
(0.967811 -0.0261825 0.440905 0.00825469 1.00967 -0.260437 0.0595189 0.0673545 1.02253)
(0.937009 -0.0725395 0.422612 -0.0532848 0.993746 -0.219993 0.0595785 0.073341 1.09338)
(0.937607 -0.108126 0.387711 -0.0911127 0.958007 -0.164727 0.039264 0.0639564 1.14503)
(0.958973 -0.120479 0.343596 -0.101747 0.915589 -0.10835 0.0177895 0.0406975 1.17507)
(0.987589 -0.10819 0.296584 -0.0914008 0.878756 -0.0567103 0.00552723 0.0122468 1.18547)
(1.01316 -0.0776828 0.249074 -0.0682865 0.855405 -0.0108591 0.00439856 -0.0122135 1.17989)
(1.03029 -0.0383226 0.199835 -0.0399963 0.84914 0.0296119 0.0115267 -0.0264636 1.16142)
(1.03782 0.000673766 0.145644 -0.0132324 0.860527 0.0646491 0.0219585 -0.0280283 1.13154)
(1.03787 0.0314112 0.083457 0.00568143 0.888253 0.0932084 0.0306805 -0.0185376 1.09018)
(1.03547 0.0476973 0.0124926 0.0104103 0.929282 0.114099 0.0351047 -0.0038783 1.03638)
(1.03864 0.0461311 -0.064769 -0.00394509 0.977559 0.127693 0.037802 0.00704867 0.969819)
(1.05701 0.0286434 -0.143521 -0.0357454 1.02233 0.136768 0.0472101 0.00587748 0.892995)
(1.09583 0.00454632 -0.218695 -0.0697976 1.04904 0.144728 0.0728642 -0.0098677 0.813834)
(1.14677 -0.0118696 -0.286101 -0.077108 1.04606 0.15348 0.112972 -0.0319013 0.748746)
(1.18347 -0.00903423 -0.342948 -0.0340466 1.01696 0.166396 0.140023 -0.0438346 0.724015)
(1.17154 0.0108703 -0.387692 0.0406106 0.98935 0.194138 0.116072 -0.0424344 0.76292)
(1.12198 0.0701883 -0.355885 0.0579476 0.966987 0.262689 0.0502694 -0.005867 0.856077)
(1.05096 0.0701376 -0.398067 0.0452624 1.01274 0.28409 -0.00702786 -0.0155328 0.891545)
(0.986475 0.0348308 -0.428952 -0.0105356 1.04011 0.266411 -0.0357855 -0.040872 0.936604)
(0.949006 -0.0218111 -0.43644 -0.0682214 1.03049 0.222872 -0.0294677 -0.0593903 0.992997)
(0.945633 -0.0766446 -0.42059 -0.104614 0.993198 0.16692 -0.00696397 -0.0563956 1.04824)
(0.968724 -0.109777 -0.387898 -0.115308 0.944534 0.107256 0.0114955 -0.0341705 1.09144)
(1.00367 -0.113375 -0.343794 -0.103547 0.898445 0.0485647 0.0161373 -0.00500087 1.11799)
(1.03661 -0.0909321 -0.290894 -0.0749188 0.86571 -0.00617564 0.00696763 0.0187387 1.12692)
(1.05818 -0.0526908 -0.229947 -0.0367915 0.853913 -0.0544589 -0.0105686 0.0292316 1.11814)
(1.06471 -0.0115973 -0.161077 0.0017224 0.86678 -0.0937916 -0.0287014 0.0242411 1.09153)
(1.05832 0.0196831 -0.0850884 0.0304212 0.903481 -0.121621 -0.0397396 0.00758906 1.04731)
(1.04658 0.0315876 -0.00477493 0.0393051 0.957804 -0.135873 -0.0395369 -0.0108904 0.987524)
(1.04121 0.0210231 0.074385 0.0213816 1.017 -0.13647 -0.031743 -0.0182602 0.917877)
(1.05419 -0.00557579 0.145341 -0.0214586 1.06162 -0.127604 -0.0289454 -0.00597792 0.848831)
(1.09067 -0.0324285 0.202775 -0.0710441 1.07054 -0.119182 -0.0451543 0.02107 0.794205)
(1.14166 -0.0397647 0.246315 -0.0933884 1.0352 -0.124675 -0.0800134 0.0429043 0.767179)
(1.18071 -0.0139284 0.280698 -0.060616 0.977714 -0.154287 -0.107977 0.0400883 0.775506)
(1.17502 0.0346194 0.313918 0.00928165 0.94666 -0.209059 -0.0982447 0.0193473 0.812883)
(1.12198 0.0701883 0.355885 0.0579476 0.966987 -0.262689 -0.0502694 0.005867 0.856077)
(1.05096 0.0701376 0.398067 0.0452624 1.01274 -0.28409 0.00702786 0.0155328 0.891545)
(0.986475 0.0348308 0.428952 -0.0105356 1.04011 -0.266411 0.0357855 0.040872 0.936604)
(0.949006 -0.0218111 0.43644 -0.0682214 1.03049 -0.222872 0.0294677 0.0593903 0.992997)
(0.945633 -0.0766446 0.42059 -0.104614 0.993198 -0.16692 0.00696397 0.0563956 1.04824)
(0.968724 -0.109777 0.387898 -0.115308 0.944534 -0.107256 -0.0114955 0.0341705 1.09144)
(1.00367 -0.113375 0.343794 -0.103547 0.898445 -0.0485647 -0.0161373 0.00500087 1.11799)
(1.03661 -0.0909321 0.290894 -0.0749188 0.86571 0.00617564 -0.00696763 -0.0187387 1.12692)
(1.05818 -0.0526908 0.229947 -0.0367915 0.853913 0.0544589 0.0105686 -0.0292316 1.11814)
(1.06471 -0.0115973 0.161077 0.0017224 0.86678 0.0937916 0.0287014 -0.0242411 1.09153)
(1.05832 0.0196831 0.0850884 0.0304212 0.903481 0.121621 0.0397396 -0.00758906 1.04731)
(1.04658 0.0315876 0.00477493 0.0393051 0.957804 0.135873 0.0395369 0.0108904 0.987524)
(1.04121 0.0210231 -0.074385 0.0213816 1.017 0.13647 0.031743 0.0182602 0.917877)
(1.05419 -0.00557579 -0.145341 -0.0214586 1.06162 0.127604 0.0289454 0.00597792 0.848831)
(1.09067 -0.0324285 -0.202775 -0.0710441 1.07054 0.119182 0.0451543 -0.02107 0.794205)
(1.14166 -0.0397647 -0.246315 -0.0933884 1.0352 0.124675 0.0800133 -0.0429043 0.767179)
(1.18071 -0.0139284 -0.280698 -0.060616 0.977714 0.154287 0.107977 -0.0400883 0.775506)
(1.17502 0.0346194 -0.313918 0.00928165 0.94666 0.209059 0.0982447 -0.0193473 0.812883)
(1.15676 -0.0162322 -0.416068 0.175858 0.955897 0.282326 0.0605921 -0.269433 0.792084)
(1.04427 -0.0591204 -0.42164 0.127345 0.953858 0.30428 -0.107326 -0.293622 0.944458)
(0.951115 -0.122443 -0.402018 0.0216085 0.982265 0.284888 -0.205295 -0.289 1.0804)
(0.902919 -0.187089 -0.366143 -0.0722678 0.991374 0.239128 -0.222712 -0.270918 1.17959)
(0.900009 -0.230649 -0.321509 -0.127253 0.964976 0.184271 -0.191667 -0.236399 1.24049)
(0.925757 -0.240533 -0.274527 -0.14557 0.916417 0.132035 -0.146293 -0.187654 1.26986)
(0.964118 -0.215843 -0.230028 -0.138902 0.86409 0.086859 -0.106423 -0.134159 1.27562)
(1.00409 -0.163465 -0.189923 -0.117013 0.820872 0.04852 -0.0796434 -0.0872522 1.26439)
(1.03865 -0.0934469 -0.152502 -0.0864481 0.794124 0.0148799 -0.0659355 -0.0565638 1.24091)
(1.0637 -0.016643 -0.113261 -0.0531673 0.788053 -0.0161164 -0.060937 -0.0480626 1.20742)
(1.07813 0.0557719 -0.0669653 -0.0254262 0.804893 -0.045421 -0.0591831 -0.0621213 1.1631)
(1.08532 0.112459 -0.0101273 -0.0147284 0.84416 -0.0731607 -0.0584159 -0.0919886 1.1043)
(1.09512 0.143825 0.0572981 -0.0315105 0.901036 -0.0998543 -0.0638394 -0.12406 1.02616)
(1.1219 0.145963 0.131994 -0.0737738 0.966556 -0.126919 -0.088296 -0.140555 0.926676)
(1.17381 0.123219 0.20867 -0.115263 1.02921 -0.154888 -0.142937 -0.122626 0.812712)
(1.23809 0.0862055 0.28125 -0.108967 1.07166 -0.181622 -0.217486 -0.0528573 0.705984)
(1.27772 0.0467173 0.343601 -0.0211927 1.06728 -0.206772 -0.26275 0.0695331 0.644887)
(1.25291 0.0132362 0.389098 0.113297 1.01032 -0.241087 -0.208789 0.193818 0.671698)
(1.15676 -0.0162322 0.416068 0.175858 0.955897 -0.282326 -0.0605921 0.269433 0.792084)
(1.04427 -0.0591204 0.42164 0.127344 0.953858 -0.30428 0.107326 0.293622 0.944458)
(0.951115 -0.122443 0.402018 0.0216085 0.982265 -0.284888 0.205295 0.289 1.0804)
(0.902919 -0.187089 0.366143 -0.0722678 0.991374 -0.239128 0.222712 0.270918 1.17959)
(0.900009 -0.230649 0.321509 -0.127253 0.964976 -0.184271 0.191667 0.236399 1.24049)
(0.925757 -0.240533 0.274527 -0.14557 0.916417 -0.132035 0.146293 0.187654 1.26986)
(0.964118 -0.215843 0.230028 -0.138902 0.86409 -0.086859 0.106423 0.134159 1.27562)
(1.00409 -0.163465 0.189923 -0.117013 0.820872 -0.04852 0.0796434 0.0872522 1.26439)
(1.03865 -0.0934469 0.152502 -0.0864481 0.794124 -0.0148799 0.0659355 0.0565638 1.24091)
(1.0637 -0.016643 0.113261 -0.0531673 0.788053 0.0161164 0.060937 0.0480626 1.20742)
(1.07813 0.0557719 0.0669653 -0.0254262 0.804893 0.045421 0.0591831 0.0621213 1.1631)
(1.08532 0.112459 0.0101273 -0.0147284 0.84416 0.0731607 0.0584159 0.0919886 1.1043)
(1.09512 0.143825 -0.0572981 -0.0315105 0.901036 0.0998543 0.0638394 0.12406 1.02616)
(1.1219 0.145963 -0.131994 -0.0737738 0.966556 0.126919 0.088296 0.140555 0.926676)
(1.17381 0.123219 -0.20867 -0.115263 1.02921 0.154888 0.142937 0.122626 0.812712)
(1.23809 0.0862055 -0.28125 -0.108967 1.07166 0.181622 0.217486 0.0528573 0.705984)
(1.27772 0.0467173 -0.343601 -0.0211927 1.06728 0.206772 0.26275 -0.0695331 0.644887)
(1.25291 0.0132362 -0.389098 0.113297 1.01032 0.241087 0.208789 -0.193818 0.671698)
(1.19692 0.0599342 -0.389245 0.145675 0.944148 0.264737 0.0662438 -0.165586 0.786097)
(1.07786 0.0302781 -0.406572 0.10228 0.991308 0.280826 -0.0944288 -0.200325 0.886467)
(0.974646 -0.0423607 -0.405662 0.00165273 1.0356 0.264619 -0.181562 -0.240092 0.986506)
(0.921504 -0.130781 -0.387665 -0.0881673 1.03967 0.226226 -0.184502 -0.25871 1.06991)
(0.919573 -0.201365 -0.356964 -0.14213 1.005 0.176906 -0.143222 -0.240624 1.13002)
(0.95153 -0.233669 -0.319027 -0.162246 0.948108 0.125229 -0.0960356 -0.193653 1.16666)
(0.999432 -0.22343 -0.277494 -0.156834 0.886401 0.0756208 -0.0627811 -0.136118 1.18281)
(1.04886 -0.176631 -0.233601 -0.13246 0.833892 0.0299372 -0.0490092 -0.0856489 1.18184)
(1.08915 -0.105036 -0.186572 -0.0949134 0.801128 -0.0110882 -0.0515745 -0.055418 1.16612)
(1.11381 -0.0234597 -0.134461 -0.0515793 0.795266 -0.0468671 -0.0619775 -0.0524361 1.1365)
(1.12123 0.0520261 -0.0754971 -0.0130118 0.819728 -0.0765374 -0.0697895 -0.0751708 1.09235)
(1.11594 0.105804 -0.00953424 0.00678023 0.87287 -0.0993761 -0.0681457 -0.111471 1.03249)
(1.11046 0.126144 0.0611999 -0.00600544 0.94528 -0.115852 -0.0606397 -0.139871 0.957101)
(1.12356 0.111245 0.132623 -0.0538204 1.01751 -0.128352 -0.0645506 -0.137204 0.870526)
(1.16933 0.0743312 0.200188 -0.112421 1.06241 -0.140743 -0.10179 -0.0910877 0.78354)
(1.23941 0.0404883 0.2603 -0.12866 1.05674 -0.157672 -0.173561 -0.00962094 0.713686)
(1.29516 0.0316518 0.311601 -0.0567963 1.00184 -0.18454 -0.233034 0.0781959 0.682633)
(1.2865 0.0488694 0.35485 0.0747852 0.945624 -0.223881 -0.200124 0.13548 0.708584)
(1.19692 0.0599342 0.389245 0.145675 0.944148 -0.264737 -0.0662438 0.165586 0.786097)
(1.07786 0.0302781 0.406572 0.10228 0.991308 -0.280826 0.0944288 0.200325 0.886467)
(0.974646 -0.0423607 0.405662 0.00165273 1.0356 -0.264619 0.181562 0.240092 0.986506)
(0.921504 -0.130781 0.387665 -0.0881673 1.03967 -0.226226 0.184502 0.25871 1.06991)
(0.919573 -0.201365 0.356964 -0.14213 1.005 -0.176906 0.143222 0.240624 1.13002)
(0.95153 -0.233669 0.319027 -0.162246 0.948108 -0.125229 0.0960356 0.193653 1.16666)
(0.999432 -0.22343 0.277494 -0.156834 0.886401 -0.0756208 0.0627811 0.136118 1.18281)
(1.04886 -0.176631 0.233601 -0.13246 0.833892 -0.0299372 0.0490092 0.0856489 1.18184)
(1.08915 -0.105036 0.186572 -0.0949134 0.801128 0.0110882 0.0515745 0.055418 1.16612)
(1.11381 -0.0234596 0.134461 -0.0515793 0.795266 0.0468671 0.0619775 0.0524361 1.1365)
(1.12123 0.0520261 0.0754971 -0.0130118 0.819728 0.0765374 0.0697895 0.0751708 1.09235)
(1.11594 0.105804 0.00953424 0.00678023 0.87287 0.0993761 0.0681457 0.111471 1.03249)
(1.11046 0.126144 -0.0611999 -0.00600544 0.94528 0.115852 0.0606397 0.139871 0.957101)
(1.12356 0.111245 -0.132623 -0.0538204 1.01751 0.128352 0.0645506 0.137204 0.870526)
(1.16933 0.0743312 -0.200188 -0.112421 1.06241 0.140743 0.10179 0.0910877 0.78354)
(1.23941 0.0404883 -0.2603 -0.12866 1.05674 0.157672 0.173561 0.00962094 0.713686)
(1.29516 0.0316518 -0.311601 -0.0567963 1.00184 0.18454 0.233034 -0.0781959 0.682633)
(1.2865 0.0488694 -0.35485 0.0747852 0.945624 0.223881 0.200124 -0.13548 0.708584)
(1.24056 0.136667 -0.330348 0.113216 0.918119 0.252794 0.0721445 -0.0690847 0.796908)
(1.11354 0.135039 -0.366603 0.0747961 1.01497 0.267245 -0.08087 -0.103226 0.842745)
(0.995537 0.0623178 -0.390733 -0.0189246 1.08051 0.255004 -0.15726 -0.18373 0.900895)
(0.931889 -0.0482768 -0.394656 -0.104911 1.08815 0.222473 -0.145253 -0.2413 0.963999)
(0.92734 -0.150135 -0.380306 -0.160592 1.05174 0.17745 -0.0929461 -0.242596 1.02074)
(0.966544 -0.212601 -0.352571 -0.186437 0.98952 0.126031 -0.0439764 -0.19871 1.06348)
(1.02913 -0.224121 -0.314713 -0.184635 0.917914 0.072541 -0.0191251 -0.137094 1.08947)
(1.09459 -0.187324 -0.268035 -0.156411 0.853628 0.0205421 -0.0217396 -0.0830248 1.0983)
(1.14545 -0.115452 -0.213003 -0.106626 0.81278 -0.0267565 -0.0445654 -0.0542198 1.08981)
(1.17082 -0.0288742 -0.150196 -0.0460133 0.807309 -0.0665337 -0.0734881 -0.0588908 1.06354)
(1.16865 0.0492453 -0.0810054 0.00965555 0.84197 -0.0965294 -0.0914919 -0.0927397 1.01917)
(1.14675 0.0978181 -0.00813953 0.0414637 0.912301 -0.115347 -0.0860457 -0.136426 0.958077)
(1.12284 0.103687 0.0641681 0.031228 1.00158 -0.123134 -0.0597407 -0.158816 0.885516)
(1.12137 0.0690181 0.130676 -0.0273504 1.07725 -0.123073 -0.0372138 -0.131511 0.812423)
(1.16151 0.0166785 0.186987 -0.10903 1.09658 -0.123088 -0.0546419 -0.0517784 0.754024)
(1.23786 -0.015504 0.231843 -0.150231 1.03576 -0.134402 -0.125049 0.0442647 0.723567)
(1.31073 0.00443951 0.267324 -0.0930104 0.928456 -0.163603 -0.20113 0.0996984 0.725998)
(1.32079 0.0744663 0.297009 0.0356043 0.870116 -0.208996 -0.190544 0.0914062 0.756515)
(1.24056 0.136667 0.330348 0.113216 0.918119 -0.252794 -0.0721445 0.0690847 0.796908)
(1.11354 0.135039 0.366603 0.0747961 1.01497 -0.267245 0.08087 0.103226 0.842745)
(0.995537 0.0623178 0.390733 -0.0189246 1.08051 -0.255004 0.15726 0.18373 0.900895)
(0.931889 -0.0482768 0.394656 -0.104911 1.08815 -0.222473 0.145253 0.2413 0.963999)
(0.92734 -0.150135 0.380306 -0.160592 1.05174 -0.17745 0.0929461 0.242596 1.02074)
(0.966544 -0.212601 0.352571 -0.186437 0.98952 -0.126031 0.0439764 0.19871 1.06348)
(1.02913 -0.224121 0.314713 -0.184635 0.917914 -0.072541 0.0191251 0.137094 1.08947)
(1.09459 -0.187324 0.268035 -0.156411 0.853628 -0.0205421 0.0217396 0.0830248 1.0983)
(1.14545 -0.115452 0.213003 -0.106626 0.81278 0.0267564 0.0445654 0.0542198 1.08981)
(1.17082 -0.0288742 0.150196 -0.0460133 0.807309 0.0665337 0.0734881 0.0588908 1.06354)
(1.16865 0.0492453 0.0810054 0.00965555 0.84197 0.0965294 0.0914919 0.0927397 1.01917)
(1.14675 0.0978181 0.00813953 0.0414637 0.912301 0.115347 0.0860457 0.136426 0.958077)
(1.12284 0.103687 -0.0641681 0.031228 1.00158 0.123134 0.0597407 0.158816 0.885516)
(1.12137 0.0690181 -0.130676 -0.0273504 1.07725 0.123073 0.0372138 0.131511 0.812423)
(1.16151 0.0166785 -0.186987 -0.10903 1.09658 0.123088 0.0546419 0.0517784 0.754024)
(1.23786 -0.015504 -0.231843 -0.150231 1.03576 0.134402 0.125049 -0.0442647 0.723567)
(1.31073 0.00443951 -0.267324 -0.0930104 0.928456 0.163603 0.20113 -0.0996984 0.725998)
(1.32079 0.0744663 -0.297009 0.0356043 0.870116 0.208996 0.190544 -0.0914062 0.756515)
(1.19171 0.00334637 -0.340798 0.0618338 0.917893 0.385632 0.0580446 -0.443123 0.712585)
(1.06995 -0.0646919 -0.341903 0.0103558 0.94433 0.367148 -0.16553 -0.507844 0.855909)
(0.963128 -0.155863 -0.320646 -0.0719624 0.997255 0.322413 -0.299465 -0.511713 1.00559)
(0.905108 -0.241911 -0.288146 -0.143387 1.0165 0.27465 -0.336023 -0.48779 1.12618)
(0.898048 -0.301955 -0.25368 -0.185599 0.991223 0.228564 -0.307479 -0.446424 1.20771)
(0.925961 -0.323879 -0.219554 -0.198946 0.934848 0.1845 -0.252319 -0.393709 1.2567)
(0.972626 -0.304161 -0.185489 -0.190343 0.866548 0.143195 -0.195562 -0.33752 1.281)
(1.02553 -0.246235 -0.151491 -0.16528 0.802413 0.10533 -0.148876 -0.287912 1.28552)
(1.07489 -0.159175 -0.117196 -0.12803 0.754941 0.0706053 -0.115123 -0.255192 1.27274)
(1.11346 -0.056399 -0.0810332 -0.0846855 0.733598 0.0378978 -0.0919488 -0.246972 1.2432)
(1.13764 0.0456218 -0.0406793 -0.0458486 0.744081 0.00609746 -0.0752943 -0.264614 1.19556)
(1.14976 0.12957 0.00558535 -0.0268708 0.786291 -0.0253252 -0.0640883 -0.299897 1.1272)
(1.16002 0.181523 0.057643 -0.0422858 0.852768 -0.0565735 -0.0653162 -0.333716 1.03618)
(1.18411 0.195937 0.113256 -0.0929631 0.930043 -0.0886987 -0.0951177 -0.3389 0.925034)
(1.23277 0.177626 0.168995 -0.152509 1.001 -0.125656 -0.168274 -0.286977 0.80523)
(1.2968 0.138948 0.22227 -0.168669 1.04192 -0.176129 -0.272 -0.155973 0.698133)
(1.33911 0.0918576 0.27212 -0.0996113 1.02196 -0.249989 -0.338684 0.0522517 0.628771)
(1.30446 0.0488785 0.313783 0.00978726 0.957242 -0.339283 -0.272427 0.281588 0.623584)
(1.19171 0.00334638 0.340798 0.0618338 0.917893 -0.385632 -0.0580446 0.443123 0.712585)
(1.06995 -0.0646919 0.341903 0.0103558 0.94433 -0.367148 0.16553 0.507844 0.855909)
(0.963128 -0.155863 0.320646 -0.0719624 0.997255 -0.322413 0.299465 0.511713 1.00559)
(0.905108 -0.241911 0.288146 -0.143387 1.0165 -0.27465 0.336023 0.48779 1.12618)
(0.898048 -0.301955 0.25368 -0.185599 0.991223 -0.228564 0.307479 0.446424 1.20771)
(0.925961 -0.323879 0.219554 -0.198946 0.934848 -0.1845 0.252319 0.393709 1.2567)
(0.972626 -0.304161 0.185489 -0.190343 0.866548 -0.143195 0.195562 0.33752 1.281)
(1.02553 -0.246235 0.151491 -0.16528 0.802413 -0.10533 0.148876 0.287912 1.28552)
(1.07489 -0.159175 0.117196 -0.12803 0.754941 -0.0706053 0.115123 0.255192 1.27274)
(1.11346 -0.056399 0.0810332 -0.0846855 0.733598 -0.0378978 0.0919488 0.246972 1.2432)
(1.13764 0.0456218 0.0406793 -0.0458486 0.744081 -0.00609746 0.0752943 0.264614 1.19556)
(1.14976 0.12957 -0.00558535 -0.0268708 0.786291 0.0253252 0.0640883 0.299897 1.1272)
(1.16002 0.181523 -0.057643 -0.0422858 0.852768 0.0565735 0.0653162 0.333716 1.03618)
(1.18411 0.195937 -0.113256 -0.0929631 0.930043 0.0886987 0.0951177 0.3389 0.925034)
(1.23277 0.177626 -0.168995 -0.152509 1.001 0.125656 0.168274 0.286977 0.80523)
(1.2968 0.138948 -0.22227 -0.168669 1.04192 0.176129 0.272 0.155973 0.698133)
(1.33911 0.0918576 -0.27212 -0.0996113 1.02196 0.249989 0.338684 -0.0522517 0.628771)
(1.30446 0.0488785 -0.313783 0.00978726 0.957242 0.339283 0.272427 -0.281588 0.623584)
(1.25815 0.092022 -0.32913 0.0439959 0.909375 0.295261 0.0780334 -0.297681 0.709229)
(1.12009 0.0414095 -0.332533 0.00499466 0.976052 0.291522 -0.147564 -0.379797 0.817125)
(0.994545 -0.0570714 -0.318781 -0.0715435 1.04011 0.269582 -0.278617 -0.444477 0.933296)
(0.926743 -0.16981 -0.295799 -0.14388 1.06063 0.239892 -0.301485 -0.471238 1.03022)
(0.919402 -0.260031 -0.269712 -0.192206 1.03494 0.20483 -0.259787 -0.454439 1.09929)
(0.95505 -0.306655 -0.242033 -0.214487 0.976271 0.165922 -0.199808 -0.406101 1.14297)
(1.01485 -0.303024 -0.212068 -0.213087 0.902222 0.125335 -0.148034 -0.345531 1.16573)
(1.08174 -0.251649 -0.179002 -0.1894 0.830182 0.0852705 -0.114562 -0.291036 1.17074)
(1.1406 -0.163126 -0.142228 -0.146392 0.776526 0.0472862 -0.0990559 -0.257633 1.15953)
(1.18017 -0.0551877 -0.101175 -0.0917747 0.754586 0.0121405 -0.0941145 -0.254598 1.13228)
(1.19582 0.0499878 -0.0554175 -0.0393025 0.77186 -0.0200324 -0.0889051 -0.281128 1.08804)
(1.19184 0.130297 -0.00491168 -0.00774945 0.827385 -0.0495272 -0.0755962 -0.322061 1.02567)
(1.1826 0.16975 0.0498423 -0.015665 0.909429 -0.0769483 -0.0583695 -0.347791 0.945901)
(1.18943 0.164985 0.107462 -0.0688495 0.993876 -0.103346 -0.0595037 -0.323719 0.854295)
(1.22921 0.129633 0.165068 -0.142953 1.04633 -0.131127 -0.10978 -0.230413 0.763342)
(1.29689 0.0914478 0.218726 -0.179657 1.03626 -0.165211 -0.212902 -0.0823288 0.690064)
(1.3561 0.0776602 0.265541 -0.128204 0.968122 -0.210808 -0.304002 0.0772472 0.64851)
(1.35127 0.091392 0.304677 -0.0197087 0.902736 -0.262146 -0.272509 0.204992 0.648829)
(1.25815 0.092022 0.32913 0.0439959 0.909375 -0.295261 -0.0780334 0.297681 0.709229)
(1.12009 0.0414095 0.332533 0.00499466 0.976052 -0.291522 0.147564 0.379797 0.817125)
(0.994545 -0.0570714 0.318781 -0.0715435 1.04011 -0.269582 0.278617 0.444477 0.933296)
(0.926743 -0.16981 0.295799 -0.14388 1.06063 -0.239892 0.301485 0.471238 1.03022)
(0.919402 -0.260031 0.269712 -0.192206 1.03494 -0.20483 0.259787 0.454439 1.09929)
(0.95505 -0.306655 0.242033 -0.214487 0.976271 -0.165922 0.199808 0.406101 1.14297)
(1.01485 -0.303024 0.212068 -0.213087 0.902222 -0.125335 0.148034 0.345531 1.16573)
(1.08174 -0.251649 0.179002 -0.1894 0.830182 -0.0852705 0.114562 0.291036 1.17074)
(1.1406 -0.163126 0.142228 -0.146392 0.776526 -0.0472862 0.0990559 0.257633 1.15953)
(1.18017 -0.0551877 0.101175 -0.0917747 0.754586 -0.0121405 0.0941145 0.254598 1.13228)
(1.19582 0.0499878 0.0554175 -0.0393025 0.77186 0.0200324 0.0889051 0.281128 1.08804)
(1.19184 0.130297 0.00491168 -0.00774945 0.827385 0.0495272 0.0755962 0.322061 1.02567)
(1.1826 0.16975 -0.0498423 -0.015665 0.909429 0.0769483 0.0583695 0.347791 0.945901)
(1.18943 0.164985 -0.107462 -0.0688495 0.993876 0.103346 0.0595037 0.323719 0.854295)
(1.22921 0.129633 -0.165068 -0.142953 1.04633 0.131127 0.10978 0.230413 0.763342)
(1.29689 0.0914478 -0.218726 -0.179657 1.03626 0.165211 0.212902 0.0823288 0.690064)
(1.3561 0.0776602 -0.265541 -0.128204 0.968122 0.210808 0.304002 -0.0772472 0.64851)
(1.35127 0.091392 -0.304677 -0.0197087 0.902736 0.262146 0.272509 -0.204992 0.648829)
(1.32959 0.177371 -0.30933 0.0241601 0.880579 0.226058 0.102014 -0.150914 0.720482)
(1.17212 0.175729 -0.313881 -0.00160704 0.989815 0.232622 -0.131321 -0.22815 0.786024)
(1.02156 0.0771288 -0.309204 -0.0712013 1.07469 0.228798 -0.263243 -0.354976 0.861375)
(0.938518 -0.0647087 -0.296917 -0.145236 1.10609 0.213607 -0.27035 -0.443539 0.930201)
(0.928695 -0.192623 -0.279162 -0.20215 1.08615 0.187701 -0.211659 -0.459418 0.985017)
(0.974478 -0.27319 -0.256933 -0.236856 1.0281 0.153696 -0.14468 -0.418556 1.02318)
(1.05302 -0.293161 -0.23 -0.244946 0.948209 0.114688 -0.0988156 -0.353639 1.04481)
(1.14017 -0.252603 -0.197502 -0.221778 0.866401 0.0736663 -0.0820827 -0.293811 1.05076)
(1.21277 -0.163925 -0.158818 -0.168695 0.804916 0.0333905 -0.0894461 -0.260409 1.0415)
(1.25391 -0.0508825 -0.11414 -0.0967727 0.782526 -0.00397095 -0.106474 -0.264673 1.01688)
(1.25827 0.0565817 -0.0644351 -0.0255627 0.808568 -0.0373169 -0.113533 -0.302561 0.976507)
(1.23427 0.130606 -0.0107901 0.0208772 0.87971 -0.0666812 -0.094778 -0.349659 0.920792)
(1.20257 0.153803 0.0461301 0.0191933 0.977533 -0.0926553 -0.0522365 -0.363327 0.852982)
(1.19119 0.12671 0.105453 -0.0413759 1.06428 -0.1161 -0.0177806 -0.301284 0.781762)
(1.22274 0.0730432 0.164766 -0.135406 1.08827 -0.139026 -0.0430324 -0.157642 0.721023)
(1.2943 0.0333106 0.219942 -0.192384 1.02215 -0.164104 -0.148784 0.0127891 0.683232)
(1.36946 0.0409583 0.26593 -0.155524 0.90558 -0.190377 -0.26924 0.128666 0.671885)
(1.39807 0.103676 0.297118 -0.0485786 0.833987 -0.210783 -0.276708 0.151437 0.684079)
(1.32959 0.177371 0.30933 0.0241601 0.880579 -0.226058 -0.102014 0.150914 0.720482)
(1.17212 0.175729 0.313881 -0.00160704 0.989815 -0.232622 0.131321 0.22815 0.786024)
(1.02156 0.0771288 0.309204 -0.0712013 1.07469 -0.228798 0.263243 0.354976 0.861375)
(0.938518 -0.0647087 0.296917 -0.145236 1.10609 -0.213607 0.27035 0.443539 0.930201)
(0.928695 -0.192623 0.279162 -0.20215 1.08615 -0.187701 0.211659 0.459418 0.985017)
(0.974478 -0.27319 0.256933 -0.236856 1.0281 -0.153696 0.14468 0.418556 1.02318)
(1.05302 -0.293161 0.23 -0.244946 0.948209 -0.114688 0.0988156 0.353639 1.04481)
(1.14017 -0.252603 0.197502 -0.221778 0.866401 -0.0736663 0.0820827 0.293811 1.05076)
(1.21277 -0.163925 0.158818 -0.168695 0.804916 -0.0333905 0.0894461 0.260409 1.0415)
(1.25391 -0.0508825 0.11414 -0.0967727 0.782526 0.00397095 0.106474 0.264673 1.01688)
(1.25827 0.0565818 0.0644351 -0.0255627 0.808568 0.0373169 0.113533 0.302561 0.976507)
(1.23427 0.130606 0.0107901 0.0208772 0.87971 0.0666812 0.094778 0.349659 0.920792)
(1.20257 0.153803 -0.0461301 0.0191933 0.977533 0.0926553 0.0522365 0.363327 0.852982)
(1.19119 0.12671 -0.105453 -0.0413759 1.06428 0.1161 0.0177806 0.301284 0.781762)
(1.22274 0.0730432 -0.164766 -0.135406 1.08827 0.139026 0.0430324 0.157642 0.721023)
(1.2943 0.0333106 -0.219942 -0.192384 1.02215 0.164104 0.148784 -0.0127891 0.683232)
(1.36946 0.0409583 -0.26593 -0.155524 0.90558 0.190377 0.26924 -0.128666 0.671885)
(1.39807 0.103676 -0.297118 -0.0485786 0.833987 0.210783 0.276708 -0.151437 0.684079)
(1.207 0.0204558 -0.253668 -0.173242 0.892 0.374777 0.080854 -0.546004 0.703289)
(1.09327 -0.0718274 -0.248761 -0.173515 0.949816 0.358261 -0.161331 -0.668624 0.791935)
(0.990988 -0.175089 -0.224008 -0.206106 0.996223 0.328712 -0.326374 -0.698649 0.919905)
(0.929249 -0.26611 -0.193588 -0.241998 1.00762 0.301427 -0.392472 -0.6811 1.03845)
(0.917658 -0.328073 -0.167919 -0.26365 0.978872 0.274974 -0.380374 -0.642245 1.1267)
(0.944931 -0.353527 -0.146352 -0.265865 0.919867 0.245623 -0.327798 -0.59643 1.18608)
(0.995288 -0.338317 -0.12471 -0.249905 0.846401 0.21338 -0.263681 -0.550221 1.22228)
(1.055 -0.282558 -0.100787 -0.217909 0.774204 0.179911 -0.203694 -0.510327 1.23858)
(1.11267 -0.192904 -0.0743677 -0.17285 0.717632 0.14633 -0.153879 -0.484681 1.23587)
(1.15939 -0.0826548 -0.045853 -0.120886 0.688537 0.112609 -0.114698 -0.479603 1.21383)
(1.19027 0.0301097 -0.0155055 -0.0731667 0.693894 0.0780381 -0.0846118 -0.495791 1.17187)
(1.20651 0.126584 0.0166459 -0.0451248 0.73318 0.0420051 -0.0643018 -0.524302 1.11012)