/*--------------------------------*- C++ -*----------------------------------*\
| =========                 |                                                 |
| \\      /  F ield         | OpenFOAM: The Open Source CFD Toolbox           |
|  \\    /   O peration     | Version:  2312                                  |
|   \\  /    A nd           | Website:  www.openfoam.com                      |
|    \\/     M anipulation  |                                                 |
\*---------------------------------------------------------------------------*/
FoamFile
{
    version     2.0;
    format      ascii;
    arch        "LSB;label=32;scalar=64";
    class       volTensorField;
    location    "0.9";
    object      F;
}
// * * * * * * * * * * * * * * * * * * * * * * * * * * * * * * * * * * * * * //

dimensions      [0 0 0 0 0 0 0];

internalField   nonuniform List<tensor> 
1620
(
(0.809219 -0.00252638 0.0398262 0.030772 1.08196 -0.0673732 -0.0878908 -0.00678657 1.17664)
(0.831677 -0.0234139 0.0332456 0.0248516 1.06974 -0.190132 -0.105465 -0.00920597 1.1594)
(0.868989 -0.0341916 0.0326536 0.0287916 1.05699 -0.272667 -0.103701 -0.0173644 1.12242)
(0.908606 -0.0299672 0.029923 0.0354333 1.05439 -0.316652 -0.0953434 -0.0217438 1.07106)
(0.944705 -0.0112446 0.0203096 0.0439437 1.06815 -0.331084 -0.0836297 -0.0168197 1.00583)
(0.974497 0.0153416 0.00363381 0.0496414 1.10044 -0.326723 -0.069643 0.00478134 0.926542)
(0.996586 0.0380908 -0.0175598 0.0471252 1.14936 -0.314127 -0.0566046 0.0516622 0.835617)
(1.00652 0.0417673 -0.041282 0.0344648 1.20545 -0.30235 -0.043879 0.126958 0.743511)
(1.01068 0.0242615 -0.0678137 0.0086929 1.24225 -0.297869 -0.0133177 0.205335 0.675971)
(1.02108 -0.000438872 -0.0937764 -0.0214326 1.24441 -0.302386 0.0241472 0.195367 0.663365)
(1.03088 -0.0372459 -0.101712 -0.0422301 1.20682 -0.316321 0.0444022 0.113407 0.716585)
(1.02771 -0.0482167 -0.0998219 -0.0494628 1.14778 -0.336228 0.0484195 0.0464893 0.799788)
(1.01593 -0.0354705 -0.0943572 -0.0447788 1.09262 -0.35482 0.0565494 0.00627946 0.882649)
(0.99713 -0.0120231 -0.0860178 -0.0290656 1.05343 -0.364399 0.0676093 -0.0127868 0.954129)
(0.96947 0.0106472 -0.0725857 -0.00729165 1.03445 -0.356441 0.0789746 -0.0178778 1.01257)
(0.93231 0.0246768 -0.0525094 0.0139602 1.03531 -0.321635 0.0908678 -0.014035 1.06025)
(0.889823 0.0269735 -0.0271067 0.0302399 1.05121 -0.250715 0.101587 -0.00519636 1.09912)
(0.855729 0.0181015 -0.00147786 0.0297913 1.07272 -0.139361 0.0991988 -0.000489539 1.12436)
(0.853292 0.00186181 0.0134424 0.0191377 1.07906 -0.00800842 0.102688 -0.00349198 1.12162)
(0.882665 -0.0123231 0.0154893 0.0159147 1.06891 0.109513 0.108629 0.00412892 1.09143)
(0.92079 -0.0186358 0.0122802 0.0242269 1.05966 0.188708 0.0975191 0.0167698 1.05132)
(0.954853 -0.0143061 0.00907265 0.0351907 1.05925 0.231628 0.0835962 0.0245073 1.00851)
(0.980328 -0.000430194 0.00871841 0.0454923 1.0719 0.247936 0.0700254 0.0240309 0.962214)
(0.997234 0.0183404 0.0119789 0.0503634 1.0995 0.248026 0.0580684 0.0103839 0.908281)
(1.00709 0.0336963 0.0192381 0.0462115 1.14253 0.241018 0.0508255 -0.0251875 0.842989)
(1.00676 0.0331722 0.0326963 0.0331075 1.19602 0.234195 0.0463025 -0.0908092 0.770068)
(1.00488 0.0172201 0.0563133 0.00783181 1.2353 0.232777 0.0216102 -0.17113 0.710102)
(1.01297 -0.0057882 0.0878243 -0.0227319 1.24339 0.237929 -0.0127566 -0.175078 0.688735)
(1.02211 -0.0408651 0.108532 -0.0459772 1.21053 0.252165 -0.0314056 -0.113017 0.727006)
(1.019 -0.0525256 0.122859 -0.0558665 1.15394 0.274307 -0.0349666 -0.0590003 0.798452)
(1.00678 -0.0403756 0.134834 -0.0513651 1.09793 0.297258 -0.0411579 -0.024701 0.876418)
(0.985871 -0.0152238 0.14217 -0.0330628 1.05635 0.311406 -0.048986 -0.0070736 0.949454)
(0.954263 0.0110385 0.139161 -0.00666792 1.0358 0.305654 -0.0566499 -0.00116208 1.01385)
(0.911506 0.0283553 0.122011 0.0198445 1.037 0.268813 -0.065484 -0.00333584 1.07034)
(0.862145 0.0313878 0.0930203 0.0405354 1.05443 0.191454 -0.0752632 -0.0105177 1.12108)
(0.820497 0.0195636 0.0609784 0.0431682 1.07627 0.0712415 -0.0754692 -0.0134771 1.16203)
(0.828128 -0.00318874 -0.011039 0.0333912 1.09054 -0.0336467 -0.099437 0.00306051 1.12857)
(0.85569 -0.0348976 -0.0168199 0.0279068 1.07393 -0.143278 -0.10307 -0.0011594 1.10254)
(0.900385 -0.0458671 -0.012979 0.0323648 1.05671 -0.216219 -0.0959235 -0.0151921 1.05974)
(0.945255 -0.0369612 -0.00773078 0.0445173 1.05156 -0.254694 -0.0832273 -0.020765 1.00779)
(0.98231 -0.0125629 -0.00673181 0.0606962 1.06246 -0.265693 -0.0653474 -0.017468 0.949047)
(1.00664 0.0192619 -0.0122846 0.0734331 1.09137 -0.25917 -0.0419114 -0.000209551 0.88623)
(1.0147 0.0463674 -0.0244283 0.074758 1.13481 -0.245614 -0.0157709 0.0394483 0.824204)
(1.00603 0.0527058 -0.0428598 0.0571475 1.18305 -0.233973 0.00466276 0.106444 0.770847)
(0.996692 0.0304794 -0.0668442 0.0179504 1.21507 -0.229956 0.00791851 0.178053 0.737305)
(1.00089 -0.0123137 -0.0921369 -0.030146 1.21773 -0.236912 -0.00418271 0.171574 0.731641)
(1.01829 -0.050508 -0.107059 -0.0673553 1.18531 -0.256166 -0.00230397 0.0966874 0.756853)
(1.03551 -0.0591194 -0.110318 -0.0813746 1.13142 -0.282998 0.0132431 0.0369827 0.803827)
(1.03986 -0.0419237 -0.103771 -0.0741879 1.07908 -0.310575 0.0324346 0.00332076 0.858993)
(1.02974 -0.0124001 -0.0880534 -0.0518753 1.04135 -0.330842 0.0499285 -0.0121312 0.913692)
(1.00511 0.0177883 -0.0630581 -0.0222233 1.0242 -0.334088 0.0649381 -0.0170362 0.963485)
(0.967127 0.0393384 -0.0301778 0.00556164 1.02801 -0.310194 0.079855 -0.0149188 1.0067)
(0.921299 0.044716 0.00595413 0.0240805 1.0509 -0.250968 0.0962895 -0.00457234 1.04243)
(0.885773 0.0275447 0.0374421 0.0268831 1.07927 -0.152425 0.108255 -0.00088187 1.06464)
(0.883653 -0.00359743 0.0541587 0.0226932 1.08601 -0.034894 0.111131 -0.00711858 1.05943)
(0.91433 -0.0253224 0.0541365 0.0215597 1.0708 0.0701383 0.102259 0.0013469 1.02925)
(0.954846 -0.0280589 0.0446018 0.0313315 1.05731 0.139918 0.0858916 0.0168904 0.990695)
(0.988816 -0.0164693 0.0329543 0.0469689 1.05614 0.177262 0.0694666 0.0229482 0.951123)
(1.01134 0.00392484 0.0241427 0.0628827 1.06859 0.189765 0.0531403 0.0219052 0.910886)
(1.0217 0.0271362 0.0208774 0.0731562 1.09495 0.186689 0.0353757 0.0108909 0.869443)
(1.01924 0.0452298 0.0250381 0.073184 1.13337 0.176873 0.0162057 -0.0188387 0.827579)
(1.00409 0.0457525 0.0387656 0.0570506 1.17833 0.167556 -0.000283127 -0.0771396 0.788999)
(0.991402 0.0237757 0.0626339 0.0202992 1.21097 0.163446 -0.0050662 -0.149785 0.761886)
(0.993658 -0.0153658 0.0926387 -0.027513 1.21625 0.168774 0.00452864 -0.154727 0.753922)
(1.0088 -0.0500392 0.116885 -0.0672056 1.18555 0.187377 0.0038083 -0.0956472 0.773324)
(1.02389 -0.0579227 0.132882 -0.0843026 1.13204 0.216496 -0.00833475 -0.0465783 0.815558)
(1.02673 -0.0397672 0.140103 -0.077977 1.07778 0.249269 -0.0237678 -0.0180473 0.869714)
(1.01365 -0.00696543 0.136244 -0.053222 1.03756 0.275864 -0.0375355 -0.00432394 0.92779)
(0.983338 0.0277615 0.118515 -0.0186811 1.01965 0.283791 -0.0487893 0.000576174 0.984922)
(0.937192 0.0524303 0.0871661 0.0144738 1.02524 0.260411 -0.0600819 -0.00057772 1.0387)
(0.882117 0.0572716 0.0480208 0.0369149 1.05124 0.196836 -0.0740452 -0.009115 1.08732)
(0.837648 0.0357155 0.0114334 0.0410909 1.08244 0.0909014 -0.0874904 -0.0089289 1.12305)
(0.851723 -0.00817193 -0.0669433 0.0367491 1.09549 0.00200273 -0.110385 0.00236957 1.07665)
(0.885719 -0.0540265 -0.0732021 0.0323381 1.07937 -0.0919206 -0.0966571 -0.0060222 1.04399)
(0.939236 -0.066345 -0.0664088 0.0381079 1.05561 -0.157425 -0.0846301 -0.0175209 0.995682)
(0.98889 -0.0498423 -0.0531321 0.0575783 1.04495 -0.192713 -0.0670279 -0.0231968 0.942774)
(1.02393 -0.0154991 -0.0395979 0.0806234 1.05409 -0.202171 -0.0430848 -0.020193 0.891172)
(1.03805 0.0249472 -0.0309326 0.0957287 1.08243 -0.193813 -0.012514 -0.00509628 0.847027)
(1.0281 0.0573356 -0.0311449 0.0930099 1.1222 -0.177529 0.0216523 0.0290131 0.81796)
(0.996246 0.0657223 -0.0428734 0.0670775 1.16046 -0.163234 0.0447227 0.0869682 0.809323)
(0.961896 0.0379093 -0.0684049 0.0221077 1.18398 -0.158706 0.0260558 0.149024 0.813828)
(0.962141 -0.0248535 -0.0956692 -0.0316796 1.18734 -0.168259 -0.0261143 0.145939 0.809997)
(0.998091 -0.0655772 -0.115923 -0.0805419 1.16335 -0.192344 -0.0425295 0.0806441 0.805726)
(1.03721 -0.0729621 -0.122447 -0.106537 1.1158 -0.227259 -0.0192642 0.0289796 0.813903)
(1.06115 -0.050729 -0.112439 -0.104019 1.06436 -0.265346 0.00799043 0.00122128 0.83789)
(1.06389 -0.012486 -0.0870055 -0.0790721 1.02555 -0.296736 0.0297755 -0.0123237 0.873052)
(1.04501 0.0284104 -0.0487352 -0.0420995 1.00935 -0.310499 0.0473567 -0.0191317 0.912485)
(1.00696 0.0593549 -0.00238936 -0.00604046 1.01899 -0.296296 0.0647791 -0.0216978 0.950467)
(0.957152 0.0656138 0.0442862 0.015237 1.0498 -0.247015 0.0862627 -0.0189733 0.98212)
(0.920174 0.0368687 0.080794 0.0221345 1.07905 -0.163486 0.116156 -0.012127 0.999002)
(0.918556 -0.00979495 0.0991924 0.0272575 1.08659 -0.0629449 0.118154 0.0011059 0.991717)
(0.95058 -0.040992 0.0980629 0.0291273 1.07195 0.0268574 0.0909277 0.0130509 0.964075)
(0.993795 -0.0414338 0.0831922 0.0411069 1.05305 0.0891607 0.0702578 0.0219062 0.927946)
(1.02671 -0.0207053 0.0628626 0.0629979 1.04888 0.122357 0.0517872 0.0238137 0.891735)
(1.04378 0.00885605 0.0439589 0.0839064 1.06228 0.131631 0.0335245 0.0204919 0.858513)
(1.04381 0.0385542 0.0317482 0.095393 1.09022 0.124607 0.0114902 0.0107926 0.831816)
(1.02583 0.0596405 0.0304527 0.0914164 1.12632 0.109561 -0.0166186 -0.0138285 0.817313)
(0.991512 0.0604315 0.0429234 0.0671625 1.16117 0.0948571 -0.0401788 -0.0644059 0.819129)
(0.958512 0.0315258 0.0710166 0.0239166 1.18325 0.088251 -0.0272619 -0.127259 0.828791)
(0.959283 -0.0251801 0.101169 -0.0301317 1.18483 0.0958107 0.0200022 -0.132345 0.827165)
(0.991158 -0.0599913 0.127295 -0.0801094 1.15873 0.119553 0.0362961 -0.0779344 0.825817)
(1.02528 -0.0646046 0.142921 -0.107483 1.10956 0.157222 0.0164582 -0.0348613 0.837051)
(1.04605 -0.0393231 0.1429 -0.105115 1.05569 0.201517 -0.00659073 -0.0119358 0.864801)
(1.04461 0.00435243 0.125409 -0.0773074 1.01495 0.240935 -0.0245756 -0.00078668 0.905951)
(1.01791 0.0512443 0.0913528 -0.0350258 0.999432 0.261386 -0.0385561 0.00465262 0.954839)
(0.96849 0.0850448 0.0456543 0.00650135 1.01297 0.249653 -0.0519408 0.00652481 1.00572)
(0.906374 0.0885653 -0.00279997 0.0311586 1.04956 0.197956 -0.0691321 0.00558073 1.0517)
(0.858698 0.0514075 -0.0430576 0.0373587 1.08494 0.108786 -0.0990671 0.0061548 1.08011)
(0.70868 0.00551884 0.0386903 0.0829383 1.24125 -0.0455105 -0.181257 -0.0147904 1.14286)
(0.734716 -0.042638 0.0307879 0.0832315 1.21111 -0.151211 -0.221624 -0.00793571 1.13073)
(0.784234 -0.0681118 0.027595 0.0981541 1.17241 -0.225902 -0.237426 -0.0216714 1.09743)
(0.839687 -0.0650281 0.0220063 0.114319 1.1531 -0.269636 -0.237461 -0.0358085 1.04638)
(0.891394 -0.0373878 0.0112815 0.127888 1.16342 -0.288192 -0.224999 -0.0344271 0.978976)
(0.933961 0.00218055 -0.0038285 0.129983 1.2032 -0.289463 -0.2014 -0.00144422 0.897556)
(0.964342 0.0360564 -0.0217596 0.112536 1.26506 -0.281451 -0.170132 0.0783876 0.807877)
(0.976939 0.0449483 -0.0421825 0.0749212 1.33322 -0.271499 -0.128106 0.205857 0.722272)
(0.981634 0.0281492 -0.0642011 0.0188584 1.37628 -0.267583 -0.0530282 0.333974 0.659009)
(1.00331 0.00404955 -0.0851137 -0.0422121 1.37268 -0.274436 0.0402825 0.335034 0.635032)
(1.03158 -0.0456222 -0.0965009 -0.0883346 1.31643 -0.292094 0.108735 0.211785 0.671232)
(1.03899 -0.0628689 -0.0949538 -0.109451 1.23346 -0.314412 0.139816 0.0948413 0.745887)
(1.02956 -0.0443419 -0.0877663 -0.103971 1.15522 -0.333029 0.162162 0.0200173 0.829088)
(1.00423 -0.00507679 -0.077871 -0.0735001 1.10101 -0.34088 0.180978 -0.0148989 0.905792)
(0.960533 0.0370002 -0.0644628 -0.0278425 1.08248 -0.33134 0.195736 -0.0215872 0.970094)
(0.899641 0.0656654 -0.0455511 0.0190195 1.10363 -0.297487 0.208737 -0.0115354 1.02093)
(0.831841 0.0704391 -0.0216304 0.0566464 1.1564 -0.233182 0.219251 0.00281641 1.05842)
(0.779688 0.0473359 0.00208154 0.0664099 1.21338 -0.136581 0.216274 0.00265866 1.0793)
(0.770941 0.00584824 0.0167833 0.0584671 1.23 -0.0248105 0.22509 -0.011874 1.07675)
(0.806996 -0.0304874 0.0202222 0.0611104 1.20187 0.0763138 0.237333 -0.00449058 1.0522)
(0.861378 -0.0472448 0.0182082 0.0806206 1.16665 0.147401 0.226431 0.0218549 1.01585)
(0.913596 -0.0424077 0.0163141 0.101257 1.14988 0.188876 0.207068 0.0453247 0.973646)
(0.953653 -0.0211922 0.0168829 0.116733 1.15956 0.207672 0.185102 0.0530778 0.926178)
(0.978746 0.00626107 0.0201057 0.119049 1.19522 0.21176 0.16284 0.0323971 0.871681)
(0.989374 0.026703 0.0264222 0.102499 1.25257 0.207998 0.142895 -0.0323979 0.809875)
(0.98262 0.0251631 0.0382859 0.067965 1.32127 0.201974 0.11933 -0.148239 0.746988)
(0.972913 0.00659615 0.056963 0.0156431 1.37202 0.200445 0.0644448 -0.279717 0.695982)
(0.98538 -0.0154427 0.0817991 -0.0452005 1.37881 0.207687 -0.0139302 -0.306942 0.668317)
(1.00785 -0.0600862 0.105003 -0.0963471 1.32879 0.225389 -0.0757587 -0.219119 0.691505)
(1.01223 -0.0756351 0.117716 -0.123588 1.24668 0.249367 -0.10536 -0.127009 0.754249)
(1.00022 -0.0548546 0.125795 -0.119483 1.16437 0.271958 -0.125194 -0.065045 0.831747)
(0.97159 -0.00931218 0.129782 -0.0836099 1.10488 0.28435 -0.13881 -0.0344461 0.909567)
(0.923744 0.0421755 0.126119 -0.0272217 1.08421 0.277692 -0.145531 -0.0274419 0.980285)
(0.858058 0.0787979 0.110829 0.0315981 1.10814 0.243504 -0.149209 -0.0352001 1.04117)
(0.784961 0.0854919 0.0851929 0.0783301 1.16627 0.175354 -0.15354 -0.0461533 1.09173)
(0.726639 0.0571655 0.0575872 0.0933493 1.2254 0.072481 -0.153721 -0.0402465 1.12862)
(0.721731 0.00689513 0.00828569 0.0869026 1.24998 -0.020754 -0.196569 0.00728498 1.10999)
(0.752937 -0.0579718 -0.00131342 0.0893368 1.21503 -0.114557 -0.223989 0.0134164 1.08747)
(0.811602 -0.0893815 -0.00399843 0.103068 1.17147 -0.17938 -0.235264 -0.0103655 1.04478)
(0.876272 -0.0849507 -0.00569027 0.123596 1.14863 -0.216872 -0.229226 -0.0320386 0.990396)
(0.933476 -0.0511544 -0.010173 0.144951 1.15448 -0.231631 -0.203862 -0.0390173 0.927874)
(0.973109 -0.00225698 -0.0187701 0.155078 1.19087 -0.23124 -0.15812 -0.015407 0.86124)
(0.988319 0.0413745 -0.0314584 0.142346 1.24963 -0.224055 -0.0981412 0.0575828 0.796583)
(0.979029 0.0565003 -0.0478396 0.0994214 1.31344 -0.217354 -0.0410696 0.185533 0.742302)
(0.967381 0.0318846 -0.0666465 0.0266753 1.35317 -0.216171 -0.00922604 0.317282 0.707449)
(0.97848 -0.0139836 -0.0857877 -0.0578832 1.34919 -0.223508 7.81656e-05 0.317829 0.697597)
(1.01232 -0.064222 -0.0996124 -0.124888 1.29617 -0.241205 0.0280468 0.194446 0.717643)
(1.04574 -0.0757879 -0.103296 -0.154381 1.2141 -0.265673 0.0740428 0.0785764 0.761832)
(1.0584 -0.0463607 -0.0976906 -0.145769 1.1342 -0.2899 0.120868 0.00929129 0.817879)
(1.04442 0.00625703 -0.0840004 -0.106258 1.07922 -0.306505 0.157572 -0.0192378 0.876171)
(1.00267 0.0612555 -0.0627371 -0.0494271 1.0634 -0.307262 0.182345 -0.0224261 0.930648)
(0.937323 0.0987416 -0.0351432 0.00655241 1.09008 -0.283995 0.20053 -0.0121789 0.977836)
(0.861899 0.102961 -0.0050246 0.0471662 1.15327 -0.231033 0.217283 0.00383651 1.01495)
(0.805603 0.0648541 0.0213763 0.0623838 1.21937 -0.14639 0.229953 0.00039298 1.03448)
(0.796412 0.00110604 0.0376422 0.0627504 1.23695 -0.0471252 0.238302 -0.0196356 1.02942)
(0.834706 -0.0498788 0.0419593 0.0693446 1.20349 0.0423889 0.234765 -0.0110851 1.00292)
(0.893803 -0.0679759 0.0382484 0.0888763 1.16342 0.10447 0.218077 0.0202514 0.964886)
(0.948942 -0.056892 0.0324241 0.113782 1.14527 0.140598 0.194812 0.0446977 0.923848)
(0.988238 -0.0265784 0.0285442 0.135984 1.15389 0.15603 0.165225 0.0551458 0.881647)
(1.00664 0.0101085 0.0288509 0.145663 1.18894 0.157955 0.126676 0.0402508 0.838874)
(1.00227 0.0381002 0.0347649 0.135057 1.24453 0.153623 0.0801806 -0.0191063 0.797334)
(0.978298 0.040161 0.0473939 0.0978228 1.30853 0.149077 0.0359893 -0.135632 0.761139)
(0.957686 0.0115398 0.0661923 0.0303678 1.35365 0.1484 0.0117094 -0.269123 0.735803)
(0.96264 -0.0295205 0.0895487 -0.0546849 1.35558 0.154661 0.00626645 -0.292163 0.726006)
(0.989829 -0.072658 0.111696 -0.128281 1.30472 0.17147 -0.0158559 -0.201037 0.740945)
(1.01748 -0.0807802 0.126437 -0.165525 1.22059 0.197531 -0.0543511 -0.10878 0.779968)
(1.02627 -0.0471709 0.132826 -0.159727 1.13454 0.226053 -0.0939306 -0.0519616 0.834441)
(1.00778 0.0135201 0.129766 -0.115223 1.0733 0.248284 -0.12338 -0.0285831 0.89619)
(0.959344 0.0782414 0.115564 -0.0472025 1.05607 0.253672 -0.139336 -0.0269771 0.959075)
(0.886008 0.121937 0.0903137 0.0212568 1.08777 0.231687 -0.146702 -0.0360948 1.01857)
(0.802956 0.125512 0.0586818 0.0710023 1.15888 0.175773 -0.154335 -0.0465628 1.07012)
(0.739101 0.081064 0.0288219 0.090227 1.23079 0.0850955 -0.168282 -0.0304626 1.10403)
(0.74144 0.00590534 -0.0326151 0.0928287 1.25052 0.0056134 -0.213586 0.0204658 1.07462)
(0.778344 -0.0789223 -0.0434137 0.0992693 1.22014 -0.0746219 -0.223615 0.0237709 1.04173)
(0.847504 -0.119522 -0.0457506 0.111059 1.17339 -0.131713 -0.230652 -0.000838802 0.990183)
(0.922352 -0.113932 -0.0430842 0.136646 1.14365 -0.164661 -0.217075 -0.0305781 0.931757)
(0.984199 -0.0715346 -0.0394483 0.165039 1.14416 -0.176558 -0.175906 -0.0476331 0.873968)
(1.01721 -0.00953794 -0.0385071 0.180214 1.17743 -0.173684 -0.104996 -0.0340397 0.823497)
(1.01198 0.0466667 -0.042911 0.166314 1.23349 -0.16409 -0.0146279 0.0326066 0.787346)
(0.970574 0.0695975 -0.0538208 0.114139 1.29115 -0.155794 0.0545567 0.162403 0.77048)
(0.927783 0.0372339 -0.0703708 0.0295393 1.32447 -0.155027 0.0364142 0.298399 0.769381)
(0.933412 -0.0320822 -0.0882898 -0.0678859 1.32019 -0.165596 -0.04178 0.298635 0.767838)
(0.986087 -0.0835248 -0.103973 -0.152641 1.27324 -0.186887 -0.0576732 0.174761 0.768882)
(1.04854 -0.0893743 -0.110324 -0.197378 1.1925 -0.216292 -0.000552874 0.058409 0.780369)
(1.08825 -0.0466793 -0.103581 -0.192431 1.10918 -0.248058 0.0714244 -0.00615548 0.806493)
(1.09001 0.0232907 -0.0836595 -0.146684 1.05226 -0.273975 0.128045 -0.0283336 0.844414)
(1.05209 0.0945095 -0.0526974 -0.0786865 1.03995 -0.284495 0.164395 -0.0280364 0.888108)
(0.982114 0.141548 -0.0151655 -0.0119636 1.07643 -0.270651 0.188223 -0.0195547 0.931282)
(0.898 0.141064 0.0222411 0.0313661 1.14894 -0.227078 0.211041 -0.0120399 0.966992)
(0.837783 0.0833723 0.0521539 0.0542353 1.21472 -0.155618 0.244281 -0.0144127 0.985033)
(0.828335 -0.00328321 0.0697202 0.069177 1.23332 -0.0704751 0.251691 -0.0147061 0.977958)
(0.868382 -0.071411 0.0738905 0.0820029 1.20411 0.00574308 0.227298 -0.00219696 0.949634)
(0.932562 -0.0940103 0.0679009 0.101089 1.16123 0.0607324 0.205418 0.0232486 0.910568)
(0.990649 -0.0768372 0.0571092 0.131352 1.13845 0.0926108 0.178208 0.0467786 0.87035)
(1.02781 -0.0355976 0.046948 0.160163 1.14526 0.104755 0.139664 0.0602519 0.833604)
(1.03599 0.0129853 0.0419187 0.174738 1.18058 0.103148 0.0819464 0.0520994 0.80394)
(1.01225 0.0501435 0.0449475 0.163627 1.23585 0.0947886 0.00541421 -0.00125456 0.785682)
(0.961762 0.0566878 0.0568345 0.117035 1.29437 0.0865691 -0.0570342 -0.119798 0.781917)
(0.918875 0.0179125 0.0760362 0.035152 1.33052 0.0844323 -0.0408235 -0.256538 0.788263)
(0.924204 -0.0433669 0.0975991 -0.0651187 1.3261 0.0932939 0.0320456 -0.275274 0.78996)
(0.968778 -0.0848687 0.119006 -0.155897 1.27605 0.113748 0.0502006 -0.180318 0.793474)
(1.02202 -0.0846378 0.133129 -0.207445 1.19038 0.144832 0.00370903 -0.0870634 0.80728)
(1.05585 -0.0350153 0.135034 -0.205383 1.09942 0.181451 -0.0568157 -0.0351008 0.836886)
(1.05118 0.0454768 0.12246 -0.154449 1.03619 0.214322 -0.104008 -0.019319 0.881449)
(1.00317 0.126713 0.0960916 -0.0746142 1.02422 0.231117 -0.13069 -0.0237777 0.936297)
(0.921151 0.177279 0.0602668 0.00498794 1.06857 0.21989 -0.14205 -0.0331697 0.994581)
(0.826688 0.172631 0.0222609 0.0574388 1.15218 0.174257 -0.152193 -0.0324061 1.04644)
(0.757471 0.105664 -0.0104325 0.083028 1.22791 0.0972003 -0.184485 -0.00741694 1.07715)
(0.688236 0.0189445 0.0552215 0.10414 1.35569 -0.00881447 -0.217079 -0.0246343 1.0631)
(0.705847 -0.0399267 0.0446447 0.109604 1.31531 -0.080784 -0.284783 -0.00477837 1.06629)
(0.749002 -0.0726682 0.0345047 0.135742 1.26325 -0.139757 -0.333517 -0.0153063 1.04735)
(0.802958 -0.0721598 0.0218722 0.161644 1.23506 -0.182156 -0.356508 -0.0319908 1.0053)
(0.856587 -0.0457033 0.00751096 0.18086 1.24264 -0.208574 -0.353303 -0.0312434 0.942823)
(0.902078 -0.00822821 -0.00713935 0.181797 1.28327 -0.222061 -0.325287 0.00873884 0.865611)
(0.935091 0.0231114 -0.0222103 0.155151 1.3443 -0.226429 -0.277294 0.104984 0.782655)
(0.951645 0.0323769 -0.0390071 0.100029 1.40633 -0.226163 -0.210756 0.254719 0.706165)
(0.961237 0.0194444 -0.0551464 0.0210429 1.44363 -0.229245 -0.10808 0.410016 0.64503)
(0.98731 -0.00127873 -0.0717003 -0.0646228 1.44093 -0.241362 0.0252804 0.448255 0.604771)
(1.02603 -0.0471593 -0.0899976 -0.132139 1.38721 -0.261031 0.140495 0.326943 0.614547)
(1.04926 -0.0701821 -0.0880709 -0.165053 1.3012 -0.281315 0.205576 0.183652 0.671017)
(1.04889 -0.0543767 -0.0776309 -0.159235 1.2154 -0.294865 0.246432 0.0795705 0.747398)
(1.02544 -0.0104384 -0.0650946 -0.11721 1.15394 -0.295495 0.273548 0.0234316 0.824764)
(0.977338 0.0425337 -0.052654 -0.0527572 1.13536 -0.27988 0.287217 0.00531181 0.891524)
(0.909453 0.0826472 -0.0387682 0.0143534 1.16775 -0.246009 0.290507 0.00978224 0.941653)
(0.836462 0.0928562 -0.0222683 0.0691099 1.24092 -0.193903 0.286124 0.0175697 0.972567)
(0.781132 0.0671146 -0.00606851 0.0877841 1.31702 -0.127164 0.276178 0.0063404 0.984654)
(0.767302 0.0172999 0.00615781 0.0836522 1.33939 -0.0554445 0.289961 -0.0182041 0.984761)
(0.79649 -0.0288878 0.0127175 0.0921964 1.30263 0.0118743 0.314717 -0.0151373 0.975128)
(0.846698 -0.0519711 0.0157631 0.120617 1.25405 0.0661396 0.318266 0.0158445 0.952449)
(0.898228 -0.0489348 0.0191185 0.147681 1.22792 0.104364 0.305227 0.0478788 0.919103)
(0.938911 -0.0283078 0.023796 0.165789 1.23485 0.12834 0.281613 0.060015 0.877383)
(0.963413 -0.00358189 0.0293643 0.165501 1.27212 0.141587 0.251286 0.0340293 0.828866)
(0.971385 0.0114354 0.0361458 0.140038 1.32992 0.14745 0.217683 -0.0464631 0.777021)
(0.96305 0.00560818 0.0459722 0.0892706 1.39334 0.149294 0.17867 -0.183004 0.72878)
(0.952457 -0.0148954 0.0569085 0.0158937 1.4391 0.154356 0.111173 -0.338693 0.687722)
(0.962507 -0.0371006 0.0732039 -0.0682797 1.44823 0.167882 0.00812982 -0.406275 0.652519)
(0.990552 -0.0734228 0.10003 -0.14173 1.4024 0.188646 -0.0917554 -0.330912 0.651311)
(1.00946 -0.0921441 0.109454 -0.183144 1.31649 0.210054 -0.154046 -0.222885 0.694703)
(1.00514 -0.0716585 0.110921 -0.18068 1.22536 0.226466 -0.193462 -0.140089 0.763117)
(0.977706 -0.0184598 0.109252 -0.132602 1.15728 0.230795 -0.215116 -0.0946734 0.839485)
(0.925521 0.0478001 0.105656 -0.054461 1.13611 0.218475 -0.21703 -0.0808033 0.911841)
(0.853479 0.0993129 0.0975558 0.0273482 1.17279 0.186831 -0.204017 -0.0852142 0.97259)
(0.775656 0.112439 0.0836959 0.0914875 1.25421 0.135442 -0.186817 -0.0886548 1.01755)
(0.713049 0.080312 0.0682905 0.113375 1.33466 0.0672391 -0.178178 -0.0674383 1.04606)
(0.685917 0.0245532 0.0604035 0.109097 1.36312 -0.00175889 -0.23373 0.00963216 1.05522)
(0.710248 -0.0528158 0.0446994 0.117664 1.31599 -0.0657849 -0.294242 0.0338797 1.04564)
(0.764527 -0.0955962 0.0294895 0.141625 1.25803 -0.115783 -0.340272 0.0108808 1.01272)
(0.830383 -0.0976703 0.0134168 0.171317 1.22707 -0.151205 -0.356049 -0.0222037 0.96357)
(0.892306 -0.0661667 -0.00353371 0.197971 1.23159 -0.173899 -0.334546 -0.0391277 0.902861)
(0.937296 -0.0180004 -0.0206117 0.206065 1.27214 -0.187336 -0.275531 -0.0145078 0.835583)
(0.957933 0.0249979 -0.0370868 0.182238 1.33571 -0.195584 -0.190169 0.0751233 0.768216)
(0.955468 0.0412035 -0.0520595 0.121074 1.39979 -0.202264 -0.102935 0.232486 0.708895)
(0.95001 0.0226273 -0.0640478 0.0276158 1.43642 -0.210031 -0.04102 0.400924 0.666092)
(0.964162 -0.0179315 -0.0754835 -0.0788076 1.42847 -0.21953 -0.00466498 0.433887 0.648226)
(1.00386 -0.0660461 -0.0861486 -0.167318 1.37089 -0.232348 0.0478293 0.305009 0.661401)
(1.04921 -0.0819332 -0.0888199 -0.211374 1.28 -0.247874 0.119692 0.156213 0.70078)
(1.07239 -0.0517148 -0.0847663 -0.204671 1.18756 -0.2602 0.19106 0.0556789 0.755301)
(1.06192 0.0100457 -0.0764132 -0.153816 1.12222 -0.264533 0.245412 0.00955336 0.814517)
(1.0148 0.0786169 -0.065006 -0.0764616 1.10597 -0.256449 0.276141 0.00172853 0.87071)
(0.938684 0.126336 -0.0509504 0.00165236 1.14553 -0.232141 0.287726 0.0127214 0.918361)
(0.853318 0.132265 -0.0353255 0.0597701 1.2322 -0.189913 0.289856 0.022714 0.952464)
(0.790114 0.0888353 -0.0201262 0.0848085 1.31988 -0.131855 0.292281 0.00362921 0.965758)
(0.775408 0.0155701 -0.00601249 0.0887148 1.3438 -0.0676974 0.305706 -0.031556 0.963186)
(0.809369 -0.0473824 0.00562427 0.10172 1.30139 -0.00779388 0.318844 -0.0295654 0.948129)
(0.867281 -0.0755344 0.0139946 0.128757 1.24806 0.0397704 0.317386 0.00832263 0.919042)
(0.924838 -0.06888 0.0213905 0.159534 1.2213 0.0735928 0.299203 0.047337 0.883538)
(0.96681 -0.0391263 0.0293765 0.184679 1.22799 0.095594 0.263587 0.0683193 0.844956)
(0.985346 -0.00335529 0.0386295 0.191646 1.26715 0.109258 0.209745 0.0522061 0.804865)
(0.979538 0.0208256 0.0491433 0.170566 1.32837 0.118639 0.142703 -0.0232334 0.765313)
(0.956181 0.0188403 0.0603101 0.116488 1.39405 0.127143 0.0783771 -0.166904 0.72984)
(0.936974 -0.00920568 0.0710516 0.0303873 1.43804 0.136794 0.0361977 -0.334944 0.702443)
(0.941716 -0.0480028 0.0850089 -0.0752116 1.43797 0.146888 0.013631 -0.394496 0.688578)
(0.972242 -0.0859096 0.102035 -0.17188 1.38374 0.159212 -0.026802 -0.309184 0.696671)
(1.0099 -0.0955396 0.113374 -0.227101 1.28996 0.17541 -0.088217 -0.195502 0.728701)
(1.02761 -0.0584762 0.118815 -0.225736 1.18934 0.190093 -0.151226 -0.116601 0.779085)
(1.01174 0.0144283 0.11945 -0.169504 1.11523 0.197902 -0.196677 -0.0829681 0.840068)
(0.957874 0.0962597 0.115319 -0.0776799 1.09672 0.193344 -0.213894 -0.0825002 0.904486)
(0.874576 0.152944 0.105787 0.0163565 1.14365 0.171205 -0.206363 -0.0947648 0.965593)
(0.782525 0.159259 0.0918593 0.084417 1.2424 0.128708 -0.191081 -0.0961187 1.01576)
(0.711019 0.109085 0.076288 0.111361 1.33875 0.067567 -0.192406 -0.0556443 1.04505)
(0.689764 0.027404 0.0502537 0.116654 1.36172 0.00595539 -0.255145 0.039781 1.04888)
(0.721595 -0.0725009 0.0317697 0.130596 1.31851 -0.0499867 -0.304205 0.0665749 1.02303)
(0.788407 -0.128156 0.0130103 0.150927 1.25729 -0.0920023 -0.347259 0.0389406 0.976531)
(0.867954 -0.133914 -0.00543239 0.185265 1.21892 -0.120913 -0.353921 -0.0116665 0.919294)
(0.938914 -0.0959204 -0.02325 0.219583 1.21796 -0.139131 -0.308847 -0.0504414 0.859093)
(0.981043 -0.0332451 -0.0401225 0.234142 1.25714 -0.150141 -0.211383 -0.0442682 0.801749)
(0.983721 0.0254353 -0.0551133 0.210108 1.32308 -0.157878 -0.0811568 0.0382703 0.752174)
(0.95206 0.051219 -0.0666248 0.138368 1.38882 -0.16549 0.0277867 0.206194 0.715067)
(0.917032 0.0273773 -0.0708569 0.0274873 1.42321 -0.174473 0.03337 0.391378 0.695837)
(0.922136 -0.034551 -0.0761598 -0.0961293 1.40904 -0.186435 -0.0419437 0.419723 0.696229)
(0.975902 -0.0846735 -0.0824085 -0.201625 1.34892 -0.199782 -0.0575279 0.280557 0.709188)
(1.04786 -0.0922006 -0.0865482 -0.260548 1.25351 -0.214153 0.0171781 0.122423 0.729677)
(1.09928 -0.0443018 -0.085795 -0.257992 1.15315 -0.2279 0.121794 0.0237966 0.760522)
(1.10581 0.040106 -0.0788406 -0.200067 1.08367 -0.237348 0.208818 -0.0111855 0.800799)
(1.06098 0.128076 -0.066129 -0.109295 1.07174 -0.237105 0.260671 -0.00692397 0.846588)
(0.975825 0.184349 -0.0496731 -0.0182339 1.12428 -0.221623 0.282025 0.00920554 0.891963)
(0.876318 0.181757 -0.0323691 0.0426497 1.22306 -0.187944 0.291576 0.0127905 0.928535)
(0.804671 0.113858 -0.015704 0.0767813 1.31186 -0.138097 0.311341 -0.00975989 0.946266)
(0.789399 0.0127018 -0.000405565 0.0963734 1.33717 -0.080608 0.323692 -0.0349376 0.941358)
(0.828344 -0.070792 0.0129017 0.116538 1.29985 -0.0281047 0.320026 -0.0320411 0.917279)
(0.894691 -0.106783 0.0239942 0.141162 1.24478 0.0135636 0.313376 0.00321937 0.881716)
(0.958867 -0.0968421 0.0334429 0.176986 1.21278 0.043298 0.289611 0.0476821 0.843213)
(1.00144 -0.0561548 0.0428792 0.210022 1.21701 0.0625495 0.239026 0.0795967 0.806944)
(1.01097 -0.0062291 0.0537287 0.223944 1.25751 0.0745621 0.15575 0.0760774 0.775327)
(0.986747 0.029676 0.065724 0.204142 1.32289 0.083384 0.0470602 0.00722599 0.749478)
(0.940249 0.0330564 0.0768056 0.140541 1.39132 0.0919742 -0.0454424 -0.145663 0.730784)
(0.902073 -0.00237115 0.0824081 0.0345462 1.43202 0.101114 -0.0454393 -0.32993 0.72344)
(0.905876 -0.0587841 0.0923965 -0.0918277 1.42023 0.112247 0.0288436 -0.38243 0.729099)
(0.951325 -0.0971957 0.104276 -0.205785 1.3575 0.124522 0.0500135 -0.28505 0.742243)
(1.01267 -0.0953607 0.114609 -0.275875 1.25611 0.138935 -0.00976737 -0.163322 0.76137)
(1.05627 -0.0375607 0.121058 -0.279831 1.14498 0.15454 -0.0991224 -0.0875517 0.792937)
(1.055 0.0604169 0.121411 -0.216761 1.06539 0.167603 -0.173246 -0.0673952 0.838708)
(0.999494 0.161108 0.11488 -0.110389 1.05286 0.171389 -0.209483 -0.0827969 0.89616)
(0.903251 0.222465 0.102525 -0.00217098 1.11673 0.158142 -0.208531 -0.102115 0.958308)
(0.795183 0.216893 0.0867374 0.0693152 1.2322 0.123394 -0.195196 -0.091191 1.01319)
(0.71446 0.140986 0.0689088 0.104221 1.33432 0.0690435 -0.211144 -0.0309734 1.04614)
(0.726071 0.03503 0.0731572 0.0968208 1.41848 0.0259354 -0.217391 -0.0423058 0.951577)
(0.728836 -0.0187661 0.0633022 0.103241 1.37696 -0.0123227 -0.310336 -0.0127639 0.972726)
(0.755498 -0.0515351 0.0488685 0.135986 1.32235 -0.0538584 -0.393442 -0.0150943 0.976552)
(0.795031 -0.0568382 0.0317312 0.16943 1.29103 -0.0921015 -0.442392 -0.0284888 0.9566)
(0.83757 -0.0419922 0.0148224 0.191898 1.29425 -0.124345 -0.451418 -0.0268989 0.91489)
(0.875906 -0.0186538 -0.000951356 0.191117 1.32758 -0.150257 -0.422809 0.013821 0.857628)
(0.906372 0.00151552 -0.0166294 0.159047 1.37676 -0.1705 -0.364335 0.111113 0.793074)