/*--------------------------------*- C++ -*----------------------------------*\
| =========                 |                                                 |
| \\      /  F ield         | OpenFOAM: The Open Source CFD Toolbox           |
|  \\    /   O peration     | Version:  2312                                  |
|   \\  /    A nd           | Website:  www.openfoam.com                      |
|    \\/     M anipulation  |                                                 |
\*---------------------------------------------------------------------------*/
FoamFile
{
    version     2.0;
    format      ascii;
    arch        "LSB;label=32;scalar=64";
    class       pointVectorField;
    location    "0.9";
    object      pointD;
}
// * * * * * * * * * * * * * * * * * * * * * * * * * * * * * * * * * * * * * //

dimensions      [0 1 0 0 0 0 0];

internalField   nonuniform List<vector> 
2164
(
(0 0 0)
(0 0 0)
(0 0 0)
(0 0 0)
(0 0 0)
(0 0 0)
(0 0 0)
(0 0 0)
(0 0 0)
(0 0 0)
(0 0 0)
(0 0 0)
(0 0 0)
(0 0 0)
(0 0 0)
(0 0 0)
(0 0 0)
(0 0 0)
(0 0 0)
(0 0 0)
(0 0 0)
(0 0 0)
(0 0 0)
(0 0 0)
(0 0 0)
(0 0 0)
(0 0 0)
(0 0 0)
(0 0 0)
(0 0 0)
(0 0 0)
(0 0 0)
(0 0 0)
(0 0 0)
(0 0 0)
(0 0 0)
(0.00100805 -0.000217153 5.71939e-05)
(0.000851571 -0.000382986 -0.000297773)
(0.000691093 -0.000488178 -0.000500114)
(0.000547595 -0.000499353 -0.000574986)
(0.00043538 -0.000457325 -0.000566499)
(0.000363108 -0.000398699 -0.000508324)
(0.000328668 -0.0003353 -0.000425935)
(0.000317085 -0.000264687 -0.000338502)
(0.000305427 -0.000182485 -0.000257783)
(0.000269594 -8.70097e-05 -0.000186927)
(0.00018959 2.23934e-05 -0.000119266)
(5.21556e-05 0.000148183 -3.72555e-05)
(-0.000148921 0.000290437 8.59879e-05)
(-0.000410258 0.000428451 0.000275717)
(-0.000706623 0.000500873 0.000524146)
(-0.000975898 0.000433848 0.000739133)
(-0.00113112 0.000253266 0.000745227)
(-0.00112549 0.000140121 0.000471874)
(-0.00100805 0.000217153 5.71939e-05)
(-0.000851571 0.000382986 -0.000297773)
(-0.000691093 0.000488178 -0.000500114)
(-0.000547595 0.000499353 -0.000574986)
(-0.00043538 0.000457325 -0.000566499)
(-0.000363108 0.000398699 -0.000508324)
(-0.000328668 0.0003353 -0.000425935)
(-0.000317085 0.000264687 -0.000338502)
(-0.000305427 0.000182485 -0.000257783)
(-0.000269594 8.70097e-05 -0.000186927)
(-0.00018959 -2.23934e-05 -0.000119266)
(-5.21556e-05 -0.000148183 -3.72555e-05)
(0.000148921 -0.000290437 8.59879e-05)
(0.000410258 -0.000428451 0.000275717)
(0.000706623 -0.000500873 0.000524146)
(0.000975898 -0.000433848 0.000739133)
(0.00113112 -0.000253266 0.000745227)
(0.00112549 -0.000140121 0.000471874)
(0.00094964 -0.000363439 0.000105416)
(0.000905546 -0.000451049 -0.000115256)
(0.000832628 -0.00046601 -0.000263541)
(0.00073867 -0.000410419 -0.000349211)
(0.000637334 -0.000323998 -0.00038634)
(0.000544335 -0.000235854 -0.000385303)
(0.0004671 -0.000154384 -0.000356921)
(0.000401123 -7.68749e-05 -0.00031151)
(0.000333504 6.45737e-07 -0.000256085)
(0.000248948 7.90976e-05 -0.00019287)
(0.000135455 0.000156896 -0.000119103)
(-1.19078e-05 0.000232799 -2.76433e-05)
(-0.000190614 0.000306103 9.08747e-05)
(-0.000392252 0.000368957 0.00024131)
(-0.000600546 0.000396956 0.000408072)
(-0.000785919 0.000363984 0.000532771)
(-0.000910618 0.0002973 0.000523214)
(-0.000958396 0.000285166 0.0003533)
(-0.00094964 0.000363439 0.000105416)
(-0.000905546 0.000451049 -0.000115256)
(-0.000832628 0.00046601 -0.000263541)
(-0.00073867 0.000410419 -0.000349211)
(-0.000637334 0.000323998 -0.00038634)
(-0.000544335 0.000235854 -0.000385303)
(-0.0004671 0.000154384 -0.000356921)
(-0.000401123 7.68749e-05 -0.00031151)
(-0.000333504 -6.45733e-07 -0.000256085)
(-0.000248948 -7.90976e-05 -0.00019287)
(-0.000135455 -0.000156896 -0.000119103)
(1.19078e-05 -0.000232799 -2.76433e-05)
(0.000190614 -0.000306103 9.08747e-05)
(0.000392252 -0.000368957 0.00024131)
(0.000600546 -0.000396956 0.000408072)
(0.000785919 -0.000363984 0.000532771)
(0.000910618 -0.0002973 0.000523214)
(0.000958396 -0.000285166 0.0003533)
(0 0 0)
(0 0 0)
(0 0 0)
(0 0 0)
(0 0 0)
(0 0 0)
(0 0 0)
(0 0 0)
(0 0 0)
(0 0 0)
(0 0 0)
(0 0 0)
(0 0 0)
(0 0 0)
(0 0 0)
(0 0 0)
(0 0 0)
(0 0 0)
(0 0 0)
(0 0 0)
(0 0 0)
(0 0 0)
(0 0 0)
(0 0 0)
(0 0 0)
(0 0 0)
(0 0 0)
(0 0 0)
(0 0 0)
(0 0 0)
(0 0 0)
(0 0 0)
(0 0 0)
(0 0 0)
(0 0 0)
(0 0 0)
(0.000838407 -0.000495262 0.000128709)
(0.000901568 -0.000518424 3.05581e-05)
(0.000922087 -0.000455159 -6.66359e-05)
(0.000890795 -0.000339081 -0.000161595)
(0.000816756 -0.000208754 -0.00024065)
(0.000718358 -8.70134e-05 -0.000291839)
(0.000609738 1.87351e-05 -0.000311533)
(0.000496086 0.000108513 -0.000301257)
(0.000375537 0.000183318 -0.000263419)
(0.000243698 0.000242033 -0.000199729)
(9.86475e-05 0.000281426 -0.000112164)
(-5.53577e-05 0.000298931 -5.18936e-06)
(-0.000208102 0.000296445 0.000112197)
(-0.000348454 0.000281821 0.000225452)
(-0.00046998 0.000267368 0.000313891)
(-0.000572441 0.000270106 0.000351734)
(-0.000662168 0.000315436 0.000320291)
(-0.000751785 0.000405917 0.000232554)
(-0.000838407 0.000495262 0.000128709)
(-0.000901568 0.000518424 3.05581e-05)
(-0.000922087 0.000455159 -6.66359e-05)
(-0.000890795 0.000339081 -0.000161595)
(-0.000816756 0.000208754 -0.00024065)
(-0.000718358 8.70134e-05 -0.000291839)
(-0.000609738 -1.87351e-05 -0.000311533)
(-0.000496086 -0.000108513 -0.000301257)
(-0.000375537 -0.000183318 -0.000263419)
(-0.000243698 -0.000242033 -0.000199729)
(-9.86475e-05 -0.000281426 -0.000112164)
(5.53577e-05 -0.000298931 -5.18936e-06)
(0.000208102 -0.000296445 0.000112197)
(0.000348454 -0.000281821 0.000225452)
(0.00046998 -0.000267368 0.000313891)
(0.000572441 -0.000270106 0.000351734)
(0.000662168 -0.000315436 0.000320291)
(0.000751785 -0.000405917 0.000232554)
(0 0 0)
(0 0 0)
(0 0 0)
(0 0 0)
(0 0 0)
(0 0 0)
(0 0 0)
(0 0 0)
(0 0 0)
(0 0 0)
(0 0 0)
(0 0 0)
(0 0 0)
(0 0 0)
(0 0 0)
(0 0 0)
(0 0 0)
(0 0 0)
(0 0 0)
(0 0 0)
(0 0 0)
(0 0 0)
(0 0 0)
(0 0 0)
(0 0 0)
(0 0 0)
(0 0 0)
(0 0 0)
(0 0 0)
(0 0 0)
(0 0 0)
(0 0 0)
(0 0 0)
(0 0 0)
(0 0 0)
(0 0 0)
(0.000676647 -0.000573861 0.000125118)
(0.0008299 -0.000560058 0.000124311)
(0.000941168 -0.000446284 7.53742e-05)
(0.000982578 -0.000285535 -1.92147e-05)
(0.000953359 -0.000116867 -0.000127014)
(0.000868405 3.92663e-05 -0.000217583)
(0.00074464 0.000173025 -0.000273632)
(0.000595392 0.000278699 -0.000287992)
(0.000430366 0.000351794 -0.000258787)
(0.000257918 0.000387964 -0.000187981)
(8.79965e-05 0.00038343 -8.3346e-05)
(-6.59515e-05 0.000337925 3.84559e-05)
(-0.000188834 0.000260788 0.000151464)
(-0.000271073 0.000177865 0.000226712)
(-0.000317335 0.000131964 0.000245153)
(-0.000350311 0.000167524 0.000211316)
(-0.000407595 0.000298984 0.000158186)
(-0.000521309 0.000468113 0.000124494)
(-0.000676647 0.000573861 0.000125118)
(-0.0008299 0.000560058 0.000124311)
(-0.000941168 0.000446284 7.53742e-05)
(-0.000982578 0.000285535 -1.92147e-05)
(-0.000953359 0.000116867 -0.000127014)
(-0.000868405 -3.92663e-05 -0.000217583)
(-0.00074464 -0.000173025 -0.000273632)
(-0.000595392 -0.000278699 -0.000287992)
(-0.000430366 -0.000351794 -0.000258787)
(-0.000257918 -0.000387964 -0.000187981)
(-8.79965e-05 -0.00038343 -8.3346e-05)
(6.59515e-05 -0.000337925 3.84559e-05)
(0.000188834 -0.000260788 0.000151464)
(0.000271073 -0.000177865 0.000226712)
(0.000317335 -0.000131964 0.000245153)
(0.000350311 -0.000167524 0.000211316)
(0.000407595 -0.000298984 0.000158186)
(0.000521309 -0.000468113 0.000124494)
(0 0 0)
(0 0 0)
(0 0 0)
(0 0 0)
(0 0 0)
(0 0 0)
(0 0 0)
(0 0 0)
(0 0 0)
(0 0 0)
(0 0 0)
(0 0 0)
(0 0 0)
(0 0 0)
(0 0 0)
(0 0 0)
(0 0 0)
(0 0 0)
(0 0 0)
(0 0 0)
(0 0 0)
(0 0 0)
(0 0 0)
(0 0 0)
(0 0 0)
(0 0 0)
(0 0 0)
(0 0 0)
(0 0 0)
(0 0 0)
(0 0 0)
(0 0 0)
(0 0 0)
(0 0 0)
(0 0 0)
(0 0 0)
(0.00188577 -0.000791939 0.000260783)
(0.00168715 -0.000980665 -0.000461989)
(0.00143899 -0.00101892 -0.000932056)
(0.00118931 -0.000921447 -0.00116511)
(0.000968452 -0.00076868 -0.00122736)
(0.000797996 -0.000616959 -0.00117885)
(0.000683864 -0.000480177 -0.00106639)
(0.000610152 -0.00034927 -0.000925071)
(0.000543662 -0.000211576 -0.000776833)
(0.000444637 -5.96404e-05 -0.00062737)
(0.00027828 0.000109544 -0.000463078)
(2.32527e-05 0.00029966 -0.00025057)
(-0.000325517 0.000513038 5.578e-05)
(-0.000755761 0.000728128 0.000488932)
(-0.00122739 0.000869785 0.00101661)
(-0.00165785 0.000841765 0.00146731)
(-0.00193309 0.000685357 0.00153416)
(-0.00199085 0.000631088 0.00105435)
(-0.00188577 0.000791939 0.000260783)
(-0.00168715 0.000980665 -0.000461989)
(-0.00143899 0.00101892 -0.000932056)
(-0.00118931 0.000921447 -0.00116511)
(-0.000968452 0.00076868 -0.00122736)
(-0.000797996 0.000616959 -0.00117885)
(-0.000683864 0.000480177 -0.00106639)
(-0.000610152 0.00034927 -0.000925071)
(-0.000543662 0.000211576 -0.000776833)
(-0.000444637 5.96404e-05 -0.00062737)
(-0.00027828 -0.000109544 -0.000463078)
(-2.32527e-05 -0.00029966 -0.00025057)
(0.000325517 -0.000513038 5.578e-05)
(0.000755761 -0.000728128 0.000488932)
(0.00122739 -0.000869785 0.00101661)
(0.00165785 -0.000841765 0.00146731)
(0.00193309 -0.000685357 0.00153416)
(0.00199085 -0.000631088 0.00105435)
(0.0017882 -0.000899996 0.000378706)
(0.00173298 -0.0010014 -0.000114241)
(0.00161013 -0.000960199 -0.000479617)
(0.00144165 -0.000810593 -0.00071088)
(0.00125414 -0.000620671 -0.00082919)
(0.0010744 -0.00043572 -0.000858717)
(0.00091565 -0.000268602 -0.000823634)
(0.000772548 -0.000115351 -0.000744623)
(0.000625641 3.05043e-05 -0.000634871)
(0.000450427 0.000171025 -0.000497594)
(0.000227418 0.000304197 -0.000325593)
(-5.03375e-05 0.00042887 -0.000103754)
(-0.00037588 0.000546975 0.000183481)
(-0.000731809 0.000653618 0.000536411)
(-0.00109043 0.000722322 0.000913218)
(-0.00141001 0.000722881 0.00119812)
(-0.00164148 0.000695467 0.00121586)
(-0.00176267 0.00075068 0.000893632)
(-0.0017882 0.000899996 0.000378706)
(-0.00173298 0.0010014 -0.000114241)
(-0.00161013 0.000960199 -0.000479617)
(-0.00144165 0.000810593 -0.00071088)
(-0.00125414 0.000620671 -0.00082919)
(-0.0010744 0.00043572 -0.000858717)
(-0.00091565 0.000268602 -0.000823634)
(-0.000772548 0.000115351 -0.000744623)
(-0.000625641 -3.05043e-05 -0.000634871)
(-0.000450427 -0.000171025 -0.000497594)
(-0.000227418 -0.000304197 -0.000325593)
(5.03375e-05 -0.00042887 -0.000103754)
(0.00037588 -0.000546975 0.000183481)
(0.000731809 -0.000653618 0.000536411)
(0.00109043 -0.000722322 0.000913218)
(0.00141001 -0.000722881 0.00119812)
(0.00164148 -0.000695467 0.00121586)
(0.00176267 -0.00075068 0.000893632)
(0.0015974 -0.00100891 0.000454214)
(0.00169387 -0.00103869 0.000187579)
(0.00171091 -0.000928854 -7.02365e-05)
(0.00164149 -0.000731243 -0.000296041)
(0.00150625 -0.000503325 -0.000466474)
(0.00133382 -0.000280598 -0.000569646)
(0.00114276 -7.70552e-05 -0.000606647)
(0.000938058 0.000103485 -0.000583419)
(0.000715235 0.000259001 -0.00050434)
(0.000467129 0.000385267 -0.000370449)
(0.000191364 0.000476126 -0.000181737)
(-0.000104046 0.000527745 5.73586e-05)
(-0.000400795 0.000544435 0.000330829)
(-0.00067771 0.00054133 0.000605747)
(-0.00092001 0.000542265 0.000832182)
(-0.00112344 0.00057644 0.000949258)
(-0.00129421 0.000680357 0.000903941)
(-0.00145258 0.00085467 0.000711346)
(-0.0015974 0.00100891 0.000454214)
(-0.00169387 0.00103869 0.000187579)
(-0.00171091 0.000928854 -7.02365e-05)
(-0.00164149 0.000731243 -0.000296041)
(-0.00150625 0.000503325 -0.000466474)
(-0.00133382 0.000280598 -0.000569646)
(-0.00114276 7.70552e-05 -0.000606647)
(-0.000938058 -0.000103485 -0.000583419)
(-0.000715235 -0.000259001 -0.00050434)
(-0.00046713 -0.000385267 -0.000370449)
(-0.000191364 -0.000476126 -0.000181737)
(0.000104046 -0.000527744 5.73586e-05)
(0.000400795 -0.000544435 0.000330829)
(0.00067771 -0.00054133 0.000605747)
(0.00092001 -0.000542265 0.000832182)
(0.00112344 -0.00057644 0.000949258)
(0.00129421 -0.000680357 0.000903941)
(0.00145258 -0.00085467 0.000711346)
(0.00132558 -0.00106706 0.000477087)
(0.00156036 -0.00105921 0.000410225)
(0.00171701 -0.000907258 0.000264238)
(0.00175869 -0.000674878 6.12052e-05)
(0.00169422 -0.000413744 -0.000142538)
(0.00154833 -0.00015394 -0.000302755)
(0.00134242 8.66856e-05 -0.000397282)
(0.00109113 0.0002946 -0.000417066)
(0.000805422 0.000457817 -0.000358278)
(0.000496556 0.000565519 -0.000221084)
(0.00017991 0.000609038 -1.4079e-05)
(-0.000122539 0.00058558 0.000238384)
(-0.000384298 0.00050672 0.000491242)
(-0.000584392 0.000410109 0.00068518)
(-0.000721681 0.000361833 0.000770826)
(-0.000821313 0.000427661 0.000739143)
(-0.000926758 0.000630768 0.000631973)
(-0.00109205 0.000896439 0.000529959)
(-0.00132558 0.00106706 0.000477087)
(-0.00156036 0.00105921 0.000410225)
(-0.00171701 0.000907258 0.000264238)
(-0.00175869 0.000674878 6.12052e-05)
(-0.00169422 0.000413744 -0.000142538)
(-0.00154833 0.00015394 -0.000302755)
(-0.00134242 -8.66856e-05 -0.000397282)
(-0.00109113 -0.0002946 -0.000417066)
(-0.000805422 -0.000457817 -0.000358278)
(-0.000496556 -0.000565519 -0.000221084)
(-0.00017991 -0.000609038 -1.4079e-05)
(0.000122539 -0.00058558 0.000238384)
(0.000384298 -0.00050672 0.000491242)
(0.000584392 -0.000410109 0.00068518)
(0.000721681 -0.000361833 0.000770825)
(0.000821313 -0.000427661 0.000739143)
(0.000926758 -0.000630768 0.000631973)
(0.00109205 -0.000896439 0.000529959)
(0.00258268 -0.00167989 0.000698491)
(0.0023551 -0.00175137 -0.000389837)
(0.00204 -0.00165586 -0.00118003)
(0.00171271 -0.00144263 -0.0016384)
(0.00141693 -0.00118929 -0.00183801)
(0.00117424 -0.000948314 -0.0018641)
(0.000990105 -0.000733065 -0.00178019)
(0.000849524 -0.000533326 -0.00162954)
(0.000717537 -0.000332852 -0.00143729)
(0.000548789 -0.000119801 -0.00120769)
(0.000301941 0.000111516 -0.000920822)
(-4.73961e-05 0.000365056 -0.000534319)
(-0.000501295 0.000643186 2.11314e-06)
(-0.00103996 0.000929467 0.00071011)
(-0.00161723 0.00116644 0.00152014)
(-0.00215164 0.00129058 0.00220343)
(-0.00252381 0.00136375 0.00238458)
(-0.00265762 0.00150444 0.00179934)
(-0.00258268 0.00167989 0.000698491)
(-0.0023551 0.00175137 -0.000389837)
(-0.00204 0.00165586 -0.00118003)
(-0.00171271 0.00144263 -0.0016384)
(-0.00141693 0.00118929 -0.00183801)
(-0.00117424 0.000948314 -0.0018641)
(-0.000990105 0.000733065 -0.00178019)
(-0.000849524 0.000533326 -0.00162954)
(-0.000717537 0.000332852 -0.00143729)
(-0.000548789 0.000119801 -0.00120769)
(-0.000301941 -0.000111516 -0.000920822)
(4.7396e-05 -0.000365056 -0.000534319)
(0.000501295 -0.000643186 2.11314e-06)
(0.00103996 -0.000929467 0.00071011)
(0.00161723 -0.00116644 0.00152014)
(0.00215164 -0.00129058 0.00220343)
(0.00252381 -0.00136375 0.00238458)
(0.00265762 -0.00150444 0.00179934)
(0.00245489 -0.00159287 0.000854982)
(0.00238105 -0.00162757 7.08627e-05)
(0.00220905 -0.00150199 -0.000554107)
(0.00198162 -0.00126963 -0.000973262)
(0.00173491 -0.000997143 -0.00121078)
(0.00149492 -0.000729799 -0.00130739)
(0.00127286 -0.0004832 -0.00129911)
(0.00106267 -0.000255816 -0.00121252)
(0.000843725 -4.16648e-05 -0.00106278)
(0.000589179 0.000162253 -0.000851644)
(0.00027713 0.000355085 -0.000567501)
(-0.00010012 0.000536462 -0.000190713)
(-0.000533519 0.000709244 0.00029267)
(-0.00100034 0.000872131 0.000866935)
(-0.00146596 0.00100985 0.0014563)
(-0.00188466 0.00111331 0.00190408)
(-0.00220605 0.00123423 0.00199764)
(-0.00239886 0.00142111 0.00160096)
(-0.00245489 0.00159287 0.000854982)
(-0.00238105 0.00162757 7.08628e-05)
(-0.00220905 0.00150199 -0.000554107)
(-0.00198162 0.00126963 -0.000973262)
(-0.00173491 0.000997143 -0.00121078)
(-0.00149492 0.000729799 -0.00130739)
(-0.00127286 0.0004832 -0.00129911)
(-0.00106267 0.000255816 -0.00121252)
(-0.000843725 4.16648e-05 -0.00106278)
(-0.000589179 -0.000162253 -0.000851644)
(-0.00027713 -0.000355085 -0.000567501)
(0.00010012 -0.000536462 -0.000190713)
(0.000533519 -0.000709244 0.00029267)
(0.00100034 -0.000872131 0.000866935)
(0.00146596 -0.00100985 0.0014563)
(0.00188466 -0.00111331 0.00190408)
(0.00220605 -0.00123423 0.00199764)
(0.00239886 -0.00142111 0.00160096)
(0.00222257 -0.0015204 0.000957635)
(0.00231185 -0.00153433 0.000484396)
(0.00229931 -0.00138856 3.44872e-05)
(0.00218997 -0.00113981 -0.000338277)
(0.00201032 -0.000846878 -0.000608426)
(0.00178842 -0.000549394 -0.000770763)
(0.0015403 -0.000266781 -0.000832725)
(0.00126898 -8.04305e-06 -0.000803779)
(0.000969181 0.000220828 -0.00068912)
(0.000634171 0.000413473 -0.000488358)
(0.00026269 0.00056355 -0.000199)
(-0.000136252 0.000668323 0.000174884)
(-0.000543395 0.000733444 0.000609568)
(-0.000934431 0.000776526 0.00105076)
(-0.00128759 0.000827731 0.00141717)
(-0.00159014 0.000924858 0.00162329)
(-0.0018431 0.00110153 0.00160748)
(-0.00205603 0.00134036 0.00136492)
(-0.00222257 0.0015204 0.000957635)
(-0.00231185 0.00153433 0.000484396)
(-0.00229931 0.00138856 3.44872e-05)
(-0.00218997 0.00113981 -0.000338277)
(-0.00201032 0.000846878 -0.000608426)
(-0.00178842 0.000549394 -0.000770763)
(-0.0015403 0.000266781 -0.000832725)
(-0.00126898 8.04306e-06 -0.000803779)
(-0.000969181 -0.000220828 -0.00068912)
(-0.000634171 -0.000413473 -0.000488358)
(-0.00026269 -0.00056355 -0.000199)
(0.000136252 -0.000668323 0.000174884)
(0.000543395 -0.000733444 0.000609568)
(0.000934431 -0.000776526 0.00105076)
(0.00128759 -0.000827731 0.00141717)
(0.00159014 -0.000924858 0.00162329)
(0.0018431 -0.00110153 0.00160748)
(0.00205603 -0.00134036 0.00136492)
(0.00189953 -0.00144097 0.000986402)
(0.00213847 -0.00145097 0.000803328)
(0.00228607 -0.00129849 0.000537715)
(0.00230668 -0.00103974 0.00023125)
(0.00221101 -0.000728814 -5.19911e-05)
(0.00202401 -0.000402405 -0.0002642)
(0.00176536 -8.52589e-05 -0.000383024)
(0.00144762 0.00020233 -0.000399876)
(0.00108147 0.000442092 -0.000310517)
(0.000680497 0.000618823 -0.000114002)
(0.000263524 0.000722516 0.000181443)
(-0.000145404 0.000751179 0.000547793)
(-0.000519335 0.000717436 0.000926759)
(-0.00083533 0.000660897 0.00123338)
(-0.00108598 0.000651429 0.00139058)
(-0.00128578 0.000753393 0.00137989)
(-0.00146339 0.000975897 0.0012562)
(-0.00165812 0.0012515 0.001116)
(-0.00189953 0.00144097 0.000986402)
(-0.00213847 0.00145097 0.000803328)
(-0.00228607 0.00129849 0.000537715)
(-0.00230668 0.00103974 0.00023125)
(-0.00221101 0.000728814 -5.19911e-05)
(-0.00202401 0.000402405 -0.0002642)
(-0.00176536 8.52589e-05 -0.000383024)
(-0.00144762 -0.00020233 -0.000399876)
(-0.00108147 -0.000442092 -0.000310517)
(-0.000680497 -0.000618823 -0.000114002)
(-0.000263524 -0.000722516 0.000181443)
(0.000145404 -0.000751179 0.000547793)
(0.000519335 -0.000717436 0.000926759)
(0.00083533 -0.000660897 0.00123338)
(0.00108598 -0.000651429 0.00139058)
(0.00128578 -0.000753393 0.00137989)
(0.00146339 -0.000975897 0.0012562)
(0.00165812 -0.0012515 0.001116)
(0.00308634 -0.00252607 0.00128179)
(0.00283878 -0.00250888 -4.424e-05)
(0.00247198 -0.00232967 -0.00112002)
(0.00209286 -0.00204982 -0.00181423)
(0.00175537 -0.00173219 -0.00218151)
(0.0014713 -0.00142109 -0.00232036)
(0.00123737 -0.00113216 -0.00230473)
(0.00103749 -0.000859482 -0.0021803)
(0.000839714 -0.000588705 -0.00197026)
(0.000602223 -0.000307468 -0.00167603)
(0.000286624 -9.08795e-06 -0.00127665)
(-0.000129089 0.000310109 -0.000733474)
(-0.000645228 0.000652409 -7.25854e-06)
(-0.00124115 0.00100974 0.000901109)
(-0.00187219 0.0013557 0.00188647)
(-0.00246153 0.00167516 0.00269489)
(-0.00290241 0.00200934 0.00297164)
(-0.00311759 0.00233846 0.0024521)
(-0.00308634 0.00252607 0.00128179)
(-0.00283878 0.00250888 -4.424e-05)
(-0.00247198 0.00232967 -0.00112002)
(-0.00209286 0.00204982 -0.00181423)
(-0.00175537 0.00173219 -0.00218151)
(-0.0014713 0.00142109 -0.00232036)
(-0.00123737 0.00113216 -0.00230473)
(-0.00103749 0.000859482 -0.0021803)
(-0.000839714 0.000588705 -0.00197026)
(-0.000602223 0.000307468 -0.00167603)
(-0.000286624 9.08797e-06 -0.00127665)
(0.000129089 -0.000310109 -0.000733474)
(0.000645228 -0.000652409 -7.25855e-06)
(0.00124115 -0.00100974 0.000901109)
(0.00187219 -0.0013557 0.00188647)
(0.00246153 -0.00167516 0.00269489)
(0.00290241 -0.00200934 0.00297164)
(0.00311759 -0.00233846 0.0024521)
(0.0029192 -0.00222448 0.0013849)
(0.00282091 -0.00221452 0.000422891)
(0.00260507 -0.00204367 -0.000416038)
(0.00233595 -0.00176956 -0.00101671)
(0.00205542 -0.00144981 -0.00138564)
(0.00178153 -0.00112576 -0.00157007)
(0.00151843 -0.000816062 -0.00161238)
(0.0012583 -0.000523478 -0.00154094)
(0.000982208 -0.00024464 -0.00137015)
(0.000666116 2.32031e-05 -0.00110051)
(0.000290408 0.000280359 -0.000720573)
(-0.000152083 0.000527446 -0.000214443)
(-0.000653602 0.000767702 0.000421995)
(-0.00119231 0.00100345 0.00115417)
(-0.00173184 0.00123408 0.00187874)
(-0.00222234 0.00147252 0.00241869)
(-0.0026091 0.00175343 0.00257009)
(-0.00284995 0.00204616 0.00219787)
(-0.0029192 0.00222448 0.0013849)
(-0.00282091 0.00221452 0.000422891)
(-0.00260507 0.00204367 -0.000416038)
(-0.00233595 0.00176956 -0.00101671)
(-0.00205542 0.00144981 -0.00138564)
(-0.00178153 0.00112576 -0.00157007)
(-0.00151843 0.000816062 -0.00161238)
(-0.0012583 0.000523478 -0.00154094)
(-0.000982208 0.00024464 -0.00137015)
(-0.000666116 -2.32031e-05 -0.00110051)
(-0.000290408 -0.000280359 -0.000720573)
(0.000152083 -0.000527446 -0.000214443)
(0.000653602 -0.000767702 0.000421995)
(0.00119231 -0.00100345 0.00115417)
(0.00173184 -0.00123408 0.00187874)
(0.00222234 -0.00147252 0.00241869)
(0.0026091 -0.00175343 0.00257009)
(0.00284995 -0.00204616 0.00219787)
(0.00268368 -0.00195534 0.00144064)
(0.00272799 -0.00195847 0.000846204)
(0.00266998 -0.00180046 0.000255125)
(0.0025235 -0.00153208 -0.000243498)
(0.00231339 -0.00120742 -0.000608641)
(0.00206145 -0.000866364 -0.00083397)
(0.0017786 -0.000531593 -0.000928818)
(0.00146538 -0.000215754 -0.000903944)
(0.00111659 7.24027e-05 -0.000765111)
(0.000727061 0.000325661 -0.000512474)
(0.000296757 0.000539017 -0.000144785)
(-0.000166968 0.000711805 0.000330493)
(-0.000649329 0.000850287 0.000881318)
(-0.00112866 0.000971121 0.00143731)
(-0.00157874 0.00110381 0.00189642)
(-0.00197492 0.00128426 0.0021593)
(-0.00230036 0.00152726 0.00216751)
(-0.00253964 0.00178585 0.00191424)
(-0.00268368 0.00195534 0.00144064)
(-0.00272799 0.00195847 0.000846204)
(-0.00266998 0.00180046 0.000255125)
(-0.0025235 0.00153208 -0.000243498)
(-0.00231339 0.00120742 -0.000608641)
(-0.00206145 0.000866364 -0.00083397)
(-0.0017786 0.000531593 -0.000928818)
(-0.00146538 0.000215754 -0.000903944)
(-0.00111659 -7.24027e-05 -0.000765111)
(-0.000727061 -0.000325661 -0.000512474)
(-0.000296757 -0.000539017 -0.000144785)
(0.000166968 -0.000711805 0.000330493)
(0.000649329 -0.000850287 0.000881318)
(0.00112866 -0.000971121 0.00143731)
(0.00157874 -0.00110381 0.00189642)
(0.00197492 -0.00128426 0.0021593)
(0.00230036 -0.00152726 0.00216751)
(0.00253964 -0.00178585 0.00191424)
(0.002388 -0.00172454 0.00144118)
(0.00255364 -0.00173525 0.00118407)
(0.00264576 -0.00159057 0.000842639)
(0.00262771 -0.0013287 0.000463429)
(0.00250069 -0.000999055 0.000120286)
(0.00228395 -0.000640851 -0.000131786)
(0.00199358 -0.000281744 -0.000267923)
(0.00163921 5.54038e-05 -0.000279851)
(0.00123002 0.000349884 -0.000164777)
(0.000779673 0.000585325 7.62836e-05)
(0.000306726 0.000752911 0.000432933)
(-0.000168314 0.000852906 0.000874004)
(-0.000624964 0.000897797 0.00133393)
(-0.00104357 0.000921939 0.00171352)
(-0.0014103 0.000983274 0.00192017)
(-0.00172247 0.00112942 0.00192936)
(-0.00198392 0.00134794 0.00180247)
(-0.00219823 0.00157297 0.00163186)
(-0.002388 0.00172454 0.00144118)
(-0.00255364 0.00173525 0.00118407)
(-0.00264576 0.00159057 0.000842639)
(-0.00262771 0.0013287 0.000463429)
(-0.00250069 0.000999055 0.000120287)
(-0.00228395 0.000640851 -0.000131786)
(-0.00199358 0.000281744 -0.000267923)
(-0.00163921 -5.54038e-05 -0.000279851)
(-0.00123002 -0.000349884 -0.000164777)
(-0.000779674 -0.000585325 7.62836e-05)
(-0.000306726 -0.000752911 0.000432933)
(0.000168314 -0.000852906 0.000874004)
(0.000624964 -0.000897797 0.00133393)
(0.00104357 -0.000921939 0.00171352)
(0.0014103 -0.000983274 0.00192017)
(0.00172247 -0.00112942 0.00192936)
(0.00198392 -0.00134794 0.00180247)
(0.00219823 -0.00157297 0.00163186)
(0.00336367 -0.00307106 0.00180032)
(0.00312311 -0.00308991 0.000441879)
(0.00273475 -0.00292579 -0.000794897)
(0.00232856 -0.00264931 -0.00167837)
(0.00197085 -0.00231582 -0.0022075)
(0.0016669 -0.00196605 -0.00246793)
(0.0014027 -0.00162152 -0.00253384)
(0.00115854 -0.00128459 -0.00245038)
(0.000906453 -0.000947121 -0.00223899)
(0.000612775 -0.000599789 -0.00190163)
(0.000247642 -0.000236424 -0.00142383)
(-0.000205797 0.000147634 -0.000780558)
(-0.000748557 0.000557109 4.87629e-05)
(-0.00136502 0.000991773 0.0010427)
(-0.00201463 0.00144469 0.00207789)
(-0.00262196 0.00191484 0.00290511)
(-0.00309283 0.00239568 0.00322777)
(-0.00335533 0.00282112 0.00284487)
(-0.00336367 0.00307106 0.00180032)
(-0.00312311 0.00308991 0.000441879)
(-0.00273475 0.00292579 -0.000794897)
(-0.00232856 0.00264931 -0.00167837)
(-0.00197085 0.00231582 -0.0022075)
(-0.0016669 0.00196605 -0.00246793)
(-0.0014027 0.00162152 -0.00253384)
(-0.00115854 0.00128459 -0.00245038)
(-0.000906453 0.000947121 -0.00223899)
(-0.000612775 0.000599789 -0.00190163)
(-0.000247642 0.000236424 -0.00142383)
(0.000205797 -0.000147634 -0.000780558)
(0.000748557 -0.000557109 4.87629e-05)
(0.00136502 -0.000991773 0.0010427)
(0.00201463 -0.00144469 0.00207789)
(0.00262196 -0.00191484 0.0029051)
(0.00309283 -0.00239568 0.00322777)
(0.00335533 -0.00282112 0.00284487)
(0.00316602 -0.00263585 0.00182364)
(0.00305346 -0.00265194 0.000840269)
(0.00281214 -0.00250225 -0.000107292)
(0.00251925 -0.00223956 -0.000841812)
(0.00222242 -0.00191415 -0.00132824)
(0.00193347 -0.00156499 -0.00160105)
(0.00164863 -0.00121493 -0.00170061)
(0.00135724 -0.000872616 -0.00165456)
(0.00104266 -0.000539009 -0.00147685)
(0.000685914 -0.000213217 -0.0011697)
(0.000272177 0.000105534 -0.000727498)
(-0.000204292 0.000419408 -0.000144682)
(-0.000738791 0.000733167 0.000569754)
(-0.00131394 0.0010518 0.00136755)
(-0.00189363 0.00138087 0.00213429)
(-0.00242206 0.00173204 0.0026948)
(-0.00283809 0.0021027 0.00287247)
(-0.00309525 0.00243507 0.00256884)
(-0.00316602 0.00263585 0.00182364)
(-0.00305346 0.00265194 0.000840269)
(-0.00281214 0.00250225 -0.000107292)
(-0.00251925 0.00223956 -0.000841812)
(-0.00222242 0.00191415 -0.00132824)
(-0.00193347 0.00156499 -0.00160105)
(-0.00164863 0.00121493 -0.00170061)
(-0.00135724 0.000872616 -0.00165456)
(-0.00104266 0.000539009 -0.00147685)
(-0.000685914 0.000213217 -0.0011697)
(-0.000272177 -0.000105534 -0.000727498)
(0.000204292 -0.000419408 -0.000144682)
(0.000738791 -0.000733167 0.000569754)
(0.00131394 -0.0010518 0.00136755)
(0.00189363 -0.00138087 0.00213429)
(0.00242206 -0.00173204 0.0026948)
(0.00283809 -0.0021027 0.00287247)
(0.00309525 -0.00243507 0.00256884)
(0.00294337 -0.00224676 0.00181448)
(0.00294188 -0.00225562 0.00120037)
(0.00284262 -0.00211811 0.000548647)
(0.00266697 -0.00186631 -2.93062e-05)
(0.00243802 -0.00154481 -0.000468044)
(0.00217114 -0.00119156 -0.00074889)
(0.00187176 -0.000831417 -0.000876946)
(0.00153799 -0.000480039 -0.000862067)
(0.0011649 -0.000148386 -0.000710956)
(0.000748974 0.000155838 -0.00042667)
(0.000290891 0.000428977 -1.29905e-05)
(-0.000204423 0.000672315 0.000515921)
(-0.000727543 0.000892429 0.00112035)
(-0.00126057 0.00110274 0.00172244)
(-0.00177367 0.00132459 0.00221565)
(-0.00222935 0.00157814 0.00250103)
(-0.00259082 0.00185416 0.00252246)
(-0.00283061 0.00209843 0.00227983)
(-0.00294337 0.00224676 0.00181448)
(-0.00294188 0.00225562 0.00120037)
(-0.00284262 0.00211811 0.000548647)
(-0.00266697 0.00186631 -2.93062e-05)
(-0.00243802 0.00154481 -0.000468044)
(-0.00217114 0.00119156 -0.00074889)
(-0.00187176 0.000831417 -0.000876946)
(-0.00153799 0.000480039 -0.000862067)
(-0.0011649 0.000148386 -0.000710956)
(-0.000748974 -0.000155838 -0.00042667)
(-0.000290891 -0.000428977 -1.29905e-05)
(0.000204423 -0.000672315 0.000515921)
(0.000727542 -0.000892429 0.00112035)
(0.00126057 -0.00110274 0.00172244)
(0.00177367 -0.00132459 0.00221565)
(0.00222935 -0.00157814 0.00250103)
(0.00259082 -0.00185416 0.00252246)
(0.00283061 -0.00209843 0.00227983)
(0.00270029 -0.00191709 0.00178143)
(0.00278658 -0.00190747 0.00149781)
(0.00281234 -0.00177453 0.00113128)
(0.00275057 -0.00153003 0.000720322)
(0.00259551 -0.00120999 0.000344285)
(0.00235935 -0.000850477 6.74713e-05)
(0.00205388 -0.000478967 -7.98121e-05)
(0.00168603 -0.000118479 -8.82292e-05)
(0.00126308 0.000210287 4.30867e-05)
(0.000796923 0.000491781 0.000309501)
(0.000302999 0.00071904 0.000696653)
(-0.000203816 0.000894007 0.00117004)
(-0.00070979 0.00102742 0.00166097)
(-0.0011979 0.00114394 0.00206768)
(-0.00164722 0.00128074 0.00229766)
(-0.00203689 0.0014603 0.00232589)
(-0.00234621 0.00165942 0.00220329)
(-0.00256213 0.00182476 0.00200837)
(-0.00270029 0.00191709 0.00178143)
(-0.00278658 0.00190747 0.00149781)
(-0.00281234 0.00177453 0.00113128)
(-0.00275057 0.00153003 0.000720322)
(-0.00259551 0.00120999 0.000344285)
(-0.00235935 0.000850477 6.74713e-05)
(-0.00205388 0.000478967 -7.98121e-05)
(-0.00168603 0.000118479 -8.82291e-05)
(-0.00126308 -0.000210287 4.30867e-05)
(-0.000796923 -0.000491781 0.000309501)
(-0.000302999 -0.00071904 0.000696653)
(0.000203816 -0.000894007 0.00117004)
(0.00070979 -0.00102742 0.00166097)
(0.0011979 -0.00114394 0.00206768)
(0.00164722 -0.00128074 0.00229766)
(0.00203689 -0.0014603 0.00232589)
(0.00234621 -0.00165942 0.00220329)
(0.00256213 -0.00182476 0.00200837)
(0.00339075 -0.00334217 0.0020968)
(0.00318004 -0.00344797 0.000874541)
(0.00281464 -0.00336562 -0.000353695)
(0.00241453 -0.00314843 -0.00132654)
(0.00205475 -0.00284363 -0.00197221)
(0.00174446 -0.00249055 -0.00233494)
(0.00146478 -0.00211705 -0.00247493)
(0.0011929 -0.00173538 -0.0024332)
(0.00090459 -0.00134609 -0.00223113)
(0.000575172 -0.000945075 -0.00187547)
(0.000184254 -0.000527404 -0.00136309)
(-0.000280134 -8.67486e-05 -0.0006859)
(-0.000820916 0.000384199 0.000158452)
(-0.00142747 0.00088867 0.00113555)
(-0.00206125 0.00142408 0.00212481)
(-0.00264932 0.00198376 0.00290861)
(-0.00310698 0.00254017 0.00324228)