/*--------------------------------*- C++ -*----------------------------------*\
| =========                 |                                                 |
| \\      /  F ield         | OpenFOAM: The Open Source CFD Toolbox           |
|  \\    /   O peration     | Version:  2312                                  |
|   \\  /    A nd           | Website:  www.openfoam.com                      |
|    \\/     M anipulation  |                                                 |
\*---------------------------------------------------------------------------*/
FoamFile
{
    version     2.0;
    format      ascii;
    arch        "LSB;label=32;scalar=64";
    class       volScalarField;
    location    "0.9";
    object      sigmaHyd;
}
// * * * * * * * * * * * * * * * * * * * * * * * * * * * * * * * * * * * * * //

dimensions      [1 -1 -2 0 0 0 0];

internalField   nonuniform List<scalar> 
1620
(
26373.8
26373.9
26373.9
26373.7
26373.6
26373.8
26373.8
26373.9
26373.9
26373.8
26373.9
26373.9
26373.7
26373.6
26373.8
26373.8
26373.9
26373.9
26373.8
26373.9
26373.9
26373.7
26373.6
26373.8
26373.8
26373.9
26373.9
26373.8
26373.9
26373.9
26373.7
26373.6
26373.8
26373.8
26373.9
26373.9
13732.9
13732.9
13732.8
13732.9
13732.8
13732.7
13732.9
13732.9
13732.8
13732.9
13732.9
13732.8
13732.9
13732.8
13732.7
13732.9
13732.9
13732.8
13732.9
13732.9
13732.8
13732.9
13732.8
13732.7
13732.9
13732.9
13732.8
13732.9
13732.9
13732.8
13732.9
13732.8
13732.7
13732.9
13732.9
13732.8
251.772
251.76
251.574
251.56
251.719
251.716
251.75
251.629
251.72
251.776
251.764
251.578
251.563
251.723
251.719
251.753
251.632
251.723
251.778
251.766
251.579
251.564
251.722
251.718
251.751
251.629
251.72
251.775
251.762
251.575
251.559
251.717
251.713
251.746
251.625
251.716
9345.6
9345.6
9345.76
9345.51
9345.55
9345.62
9345.45
9345.64
9345.61
9345.6
9345.6
9345.76
9345.51
9345.55
9345.62
9345.45
9345.64
9345.61
9345.6
9345.6
9345.76
9345.51
9345.55
9345.62
9345.45
9345.64
9345.61
9345.6
9345.6
9345.76
9345.51
9345.55
9345.62
9345.45
9345.64
9345.61
-3918.25
-3918.23
-3918.34
-3918.06
-3918.12
-3918.33
-3918.08
-3918.34
-3918.24
-3918.24
-3918.23
-3918.35
-3918.06
-3918.12
-3918.33
-3918.08
-3918.34
-3918.24
-3918.24
-3918.23
-3918.35
-3918.06
-3918.12
-3918.33
-3918.08
-3918.34
-3918.24
-3918.24
-3918.23
-3918.35
-3918.06
-3918.12
-3918.33
-3918.09
-3918.34
-3918.24
-22780.4
-22780.5
-22780.4
-22780.6
-22780.4
-22780.2
-22780.3
-22780.3
-22780.3
-22780.4
-22780.5
-22780.4
-22780.6
-22780.4
-22780.2
-22780.3
-22780.3
-22780.3
-22780.4
-22780.5
-22780.4
-22780.6
-22780.4
-22780.2
-22780.3
-22780.3
-22780.3
-22780.4
-22780.5
-22780.4
-22780.6
-22780.4
-22780.2
-22780.3
-22780.3
-22780.3
10607
10606.7
10606.9
10606.7
10606.9
10607
10606.6
10606.8
10606.6
10607
10606.7
10606.9
10606.7
10606.9
10607
10606.6
10606.8
10606.6
10607
10606.7
10606.9
10606.7
10606.9
10607
10606.6
10606.8
10606.6
10607
10606.7
10606.9
10606.7
10606.9
10607
10606.6
10606.8
10606.6
-3123.07
-3122.81
-3123.06
-3122.8
-3122.85
-3123.12
-3122.89
-3123.13
-3122.81
-3123.07
-3122.81
-3123.06
-3122.8
-3122.85
-3123.11
-3122.89
-3123.13
-3122.81
-3123.07
-3122.81
-3123.06
-3122.8
-3122.85
-3123.12
-3122.89
-3123.13
-3122.81
-3123.07
-3122.81
-3123.06
-3122.8
-3122.85
-3123.11
-3122.89
-3123.13
-3122.81
-26707.7
-26707.8
-26707.5
-26707.6
-26707.7
-26707.6
-26707.8
-26707.5
-26707.6
-26707.7
-26707.8
-26707.5
-26707.6
-26707.7
-26707.6
-26707.8
-26707.5
-26707.6
-26707.7
-26707.8
-26707.5
-26707.6
-26707.7
-26707.6
-26707.8
-26707.5
-26707.6
-26707.7
-26707.8
-26707.5
-26707.6
-26707.7
-26707.6
-26707.8
-26707.5
-26707.6
11396.1
11396.1
11396
11396.1
11396.1
11396.2
11396.2
11396
11396.1
11396.1
11396.1
11396
11396.2
11396.1
11396.2
11396.2
11396
11396.1
11396.1
11396.1
11396
11396.2
11396.1
11396.2
11396.2
11396
11396.1
11396.1
11396.1
11396
11396.2
11396.1
11396.2
11396.2
11396
11396.1
-3205.75
-3205.81
-3205.78
-3205.64
-3205.82
-3205.72
-3205.81
-3205.8
-3205.75
-3205.75
-3205.81
-3205.78
-3205.64
-3205.82
-3205.72
-3205.81
-3205.8
-3205.75
-3205.75
-3205.81
-3205.77
-3205.64
-3205.82
-3205.72
-3205.81
-3205.8
-3205.75
-3205.75
-3205.81
-3205.78
-3205.64
-3205.82
-3205.72
-3205.81
-3205.8
-3205.76
-30169.7
-30169.9
-30169.7
-30169.8
-30169.9
-30169.7
-30169.9
-30169.8
-30169.7
-30169.7
-30169.9
-30169.7
-30169.9
-30169.9
-30169.7
-30169.9
-30169.8
-30169.7
-30169.7
-30169.9
-30169.7
-30169.9
-30169.9
-30169.7
-30169.9
-30169.8
-30169.7
-30169.7
-30169.9
-30169.7
-30169.9
-30169.9
-30169.7
-30169.9
-30169.8
-30169.7
11538.9
11539
11538.9
11539.1
11539
11538.9
11539.2
11538.8
11539
11538.9
11539
11538.9
11539.1
11539
11538.9
11539.2
11538.8
11539
11538.9
11539
11538.9
11539.1
11539
11538.9
11539.2
11538.8
11539
11538.9
11539
11538.9
11539.1
11539
11538.9
11539.2
11538.8
11539
-3722.43
-3722.79
-3722.43
-3722.69
-3722.63
-3722.43
-3722.71
-3722.52
-3722.58
-3722.43
-3722.79
-3722.43
-3722.7
-3722.63
-3722.43
-3722.71
-3722.52
-3722.57
-3722.43
-3722.79
-3722.43
-3722.7
-3722.63
-3722.43
-3722.71
-3722.52
-3722.58
-3722.43
-3722.79
-3722.43
-3722.7
-3722.63
-3722.43
-3722.71
-3722.52
-3722.58
-32053.6
-32053.3
-32053.4
-32053.5
-32053.3
-32053.4
-32053.3
-32053.5
-32053.3
-32053.6
-32053.3
-32053.4
-32053.4
-32053.3
-32053.4
-32053.3
-32053.5
-32053.3
-32053.6
-32053.3
-32053.4
-32053.4
-32053.3
-32053.4
-32053.3
-32053.5
-32053.3
-32053.6
-32053.3
-32053.4
-32053.4
-32053.3
-32053.4
-32053.3
-32053.5
-32053.3
10872.4
10872.5
10872.4
10872.5
10872.4
10872.4
10872.5
10872.3
10872.6
10872.4
10872.5
10872.4
10872.5
10872.4
10872.4
10872.5
10872.3
10872.6
10872.4
10872.5
10872.4
10872.5
10872.4
10872.4
10872.5
10872.3
10872.6
10872.4
10872.5
10872.4
10872.5
10872.4
10872.4
10872.5
10872.3
10872.6
-4996.94
-4997.12
-4997.01
-4997.05
-4997.03
-4997.05
-4997.17
-4996.81
-4997.18
-4996.94
-4997.12
-4997.01
-4997.05
-4997.02
-4997.05
-4997.17
-4996.81
-4997.18
-4996.94
-4997.12
-4997.01
-4997.05
-4997.02
-4997.05
-4997.17
-4996.81
-4997.18
-4996.94
-4997.12
-4997.01
-4997.05
-4997.02
-4997.05
-4997.17
-4996.81
-4997.18
-33239.6
-33239.4
-33239.7
-33239.5
-33239.7
-33239.8
-33239.6
-33239.7
-33239.5
-33239.6
-33239.4
-33239.7
-33239.5
-33239.7
-33239.8
-33239.5
-33239.7
-33239.5
-33239.6
-33239.4
-33239.7
-33239.5
-33239.7
-33239.8
-33239.5
-33239.7
-33239.5
-33239.6
-33239.4
-33239.7
-33239.5
-33239.7
-33239.8
-33239.5
-33239.7
-33239.5
9262.46
9262.62
9262.21
9262.7
9262.36
9262.34
9262.62
9262.27
9262.53
9262.46
9262.62
9262.21
9262.7
9262.36
9262.34
9262.62
9262.27
9262.53
9262.46
9262.62
9262.21
9262.7
9262.36
9262.34
9262.62
9262.27
9262.53
9262.46
9262.62
9262.21
9262.7
9262.36
9262.34
9262.62
9262.27
9262.53
-6847.69
-6848.34
-6847.75
-6848.1
-6848.12
-6847.7
-6848.06
-6847.9
-6848.12
-6847.69
-6848.34
-6847.75
-6848.1
-6848.12
-6847.7
-6848.06
-6847.9
-6848.12
-6847.69
-6848.34
-6847.75
-6848.1
-6848.12
-6847.7
-6848.06
-6847.9
-6848.12
-6847.69
-6848.34
-6847.75
-6848.1
-6848.12
-6847.7
-6848.06
-6847.9
-6848.12
-34095.2
-34094.8
-34095.1
-34095
-34095
-34095
-34094.9
-34095.2
-34094.6
-34095.2
-34094.8
-34095.1
-34095
-34095
-34095
-34094.9
-34095.2
-34094.6
-34095.2
-34094.8
-34095.1
-34095
-34095
-34095
-34094.9
-34095.2
-34094.6
-34095.2
-34094.8
-34095.1
-34095
-34095
-34095
-34094.9
-34095.2
-34094.6
6300.4
6300.28
6300.15
6300.28
6300.17
6300.23
6300.32
6300.18
6300.13
6300.4
6300.28
6300.15
6300.28
6300.18
6300.23
6300.32
6300.18
6300.13
6300.4
6300.28
6300.15
6300.28
6300.18
6300.23
6300.32
6300.18
6300.13
6300.39
6300.28
6300.15
6300.28
6300.17
6300.23
6300.32
6300.18
6300.13
-9092.65
-9092.73
-9092.4
-9092.76
-9092.49
-9092.4
-9092.55
-9092.65
-9092.36
-9092.65
-9092.73
-9092.4
-9092.76
-9092.49
-9092.4
-9092.55
-9092.65
-9092.36
-9092.65
-9092.73
-9092.4
-9092.76
-9092.49
-9092.4
-9092.55
-9092.65
-9092.36
-9092.65
-9092.73
-9092.4
-9092.76
-9092.49
-9092.4
-9092.55
-9092.65
-9092.36
-34681.4
-34681.1
-34681.2
-34681.3
-34681.3
-34681.4
-34681.4
-34681.3
-34681.3
-34681.4
-34681.1
-34681.2
-34681.3
-34681.3
-34681.4
-34681.4
-34681.3
-34681.3
-34681.4
-34681.1
-34681.2
-34681.3
-34681.3
-34681.4
-34681.4
-34681.3
-34681.3
-34681.4
-34681.1
-34681.2
-34681.3
-34681.3
-34681.4
-34681.4
-34681.3
-34681.3
1218.01
1218.07
1218.02
1218.03
1218.01
1218.02
1217.95
1218.04
1218.11
1218.01
1218.07
1218.02
1218.03
1218.01
1218.02
1217.95
1218.04
1218.11
1218.01
1218.07
1218.02
1218.03
1218.01
1218.02
1217.95
1218.04
1218.11
1218.01
1218.07
1218.02
1218.03
1218.01
1218.02
1217.95
1218.04
1218.11
-11570.3
-11570.1
-11570.3
-11570.1
-11570.1
-11570.3
-11570
-11570.2
-11570.2
-11570.3
-11570.1
-11570.3
-11570.1
-11570.1
-11570.3
-11570
-11570.2
-11570.2
-11570.3
-11570.1
-11570.3
-11570.1
-11570.1
-11570.3
-11570
-11570.2
-11570.2
-11570.3
-11570.1
-11570.3
-11570.1
-11570.1
-11570.3
-11570
-11570.2
-11570.2
-34645.8
-34646.1
-34645.9
-34646.1
-34646.2
-34646.1
-34646
-34646.1
-34646.3
-34645.8
-34646.1
-34645.9
-34646.1
-34646.2
-34646.1
-34646
-34646.1
-34646.3
-34645.8
-34646.1
-34645.9
-34646.1
-34646.2
-34646.1
-34646
-34646.1
-34646.3
-34645.8
-34646.1
-34645.9
-34646.1
-34646.2
-34646.1
-34646
-34646.1
-34646.3
-6740.48
-6740.57
-6740.51
-6740.37
-6740.41
-6740.57
-6740.51
-6740.32
-6740.47
-6740.48
-6740.57
-6740.51
-6740.37
-6740.41
-6740.57
-6740.51
-6740.32
-6740.47
-6740.48
-6740.57
-6740.51
-6740.37
-6740.41
-6740.57
-6740.51
-6740.32
-6740.47
-6740.48
-6740.58
-6740.51
-6740.37
-6740.41
-6740.57
-6740.51
-6740.32
-6740.47
-13739.8
-13739.7
-13739.9
-13739.9
-13739.9
-13739.9
-13739.7
-13739.9
-13740
-13739.8
-13739.7
-13739.9
-13739.9
-13739.9
-13739.9
-13739.7
-13739.9
-13740
-13739.8
-13739.7
-13739.9
-13739.9
-13739.9
-13739.9
-13739.7
-13739.9
-13740
-13739.8
-13739.7
-13739.9
-13739.9
-13739.9
-13739.9
-13739.7
-13739.9
-13740
-32721.6
-32721.7
-32721.7
-32721.7
-32721.7
-32721.6
-32721.6
-32721.6
-32721.9
-32721.6
-32721.7
-32721.7
-32721.7
-32721.7
-32721.6
-32721.6
-32721.6
-32721.9
-32721.6
-32721.7
-32721.7
-32721.7
-32721.7
-32721.6
-32721.6
-32721.6
-32721.9
-32721.6
-32721.7
-32721.7
-32721.7
-32721.7
-32721.6
-32721.6
-32721.6
-32721.9
-16627.2
-16627.4
-16627.3
-16627.2
-16627.1
-16627.2
-16627.1
-16627.3
-16627.4
-16627.2
-16627.4
-16627.3
-16627.2
-16627.1
-16627.2
-16627.1
-16627.3
-16627.4
-16627.2
-16627.4
-16627.3
-16627.2
-16627.1
-16627.2
-16627.1
-16627.3
-16627.4
-16627.2
-16627.4
-16627.3
-16627.2
-16627.1
-16627.2
-16627.1
-16627.3
-16627.4
-14160.3
-14159.8
-14160.1
-14160.1
-14160.1
-14160.1
-14160.1
-14160.4
-14160
-14160.3
-14159.8
-14160.1
-14160.1
-14160.1
-14160.1
-14160.1
-14160.4
-14160
-14160.3
-14159.8
-14160.1
-14160.1
-14160.1
-14160.1
-14160.1
-14160.4
-14160
-14160.3
-14159.8
-14160.2
-14160.1
-14160.1
-14160.1
-14160.1
-14160.4
-14160
-26613.3
-26613.6
-26613.3
-26613.5
-26613.4
-26613.5
-26613.7
-26613.3
-26613.6
-26613.3
-26613.6
-26613.3
-26613.5
-26613.4
-26613.5
-26613.7
-26613.3
-26613.6
-26613.3
-26613.6
-26613.3
-26613.5
-26613.4
-26613.5
-26613.7
-26613.3
-26613.6
-26613.3
-26613.6
-26613.3
-26613.5
-26613.4
-26613.5
-26613.7
-26613.3
-26613.6
-25136
-25136
-25135.7
-25135.9
-25135.7
-25135.8
-25135.6
-25135.8
-25136.4
-25136
-25136
-25135.7
-25135.9
-25135.7
-25135.8
-25135.6
-25135.8
-25136.4
-25136
-25136
-25135.7
-25135.9
-25135.7
-25135.8
-25135.6
-25135.8
-25136.4
-25136
-25136
-25135.7
-25135.9
-25135.7
-25135.8
-25135.6
-25135.8
-25136.4
-11684.1
-11683.9
-11684
-11684.2
-11684.1
-11684.2
-11684.2
-11684.5
-11684.2
-11684.1
-11683.9
-11684
-11684.2
-11684.1
-11684.2
-11684.2
-11684.5
-11684.2
-11684.1
-11683.9
-11684
-11684.2
-11684.1
-11684.2
-11684.2
-11684.5
-11684.2
-11684.1
-11683.9
-11684
-11684.2
-11684.1
-11684.2
-11684.2
-11684.5
-11684.2
-13178
-13178.3
-13178.1
-13178.3
-13178.3
-13178.5
-13178.2
-13177.9
-13177.9
-13178
-13178.3
-13178.1
-13178.3
-13178.3
-13178.5
-13178.2
-13177.9
-13177.9
-13178
-13178.3
-13178.1
-13178.3
-13178.3
-13178.5
-13178.2
-13177.9
-13177.9
-13178
-13178.3
-13178.1
-13178.3
-13178.3
-13178.5
-13178.2
-13177.9
-13177.9
-29116.7
-29116.6
-29116.5
-29116.4
-29116.4
-29116
-29116.6
-29116.5
-29117.2
-29116.7
-29116.6
-29116.5
-29116.4
-29116.4
-29116
-29116.6
-29116.5
-29117.2
-29116.7
-29116.6
-29116.5
-29116.4
-29116.4
-29116
-29116.6
-29116.5
-29117.2
-29116.7
-29116.6
-29116.5
-29116.4
-29116.4
-29116
-29116.6
-29116.5
-29117.2
-7622.77
-7622.71
-7622.88
-7623.15
-7622.44
-7623.12
-7622.89
-7623.1
-7622.57
-7622.76
-7622.7
-7622.87
-7623.15
-7622.43
-7623.12
-7622.89
-7623.1
-7622.57
-7622.76
-7622.71
-7622.88
-7623.15
-7622.44
-7623.13
-7622.9
-7623.1
-7622.57
-7622.77
-7622.71
-7622.88
-7623.15
-7622.43
-7623.12
-7622.89
-7623.1
-7622.58
11393.4
11393
11393.1
11393.1
11392.9
11393.5
11393.1
11394.1
11393.5
11393.4
11393
11393.1
11393.1
11392.9
11393.5
11393.1
11394.1
11393.5
11393.4
11393
11393.1
11393.1
11392.9
11393.5
11393.1
11394.1
11393.5
11393.4
11393
11393.1
11393.1
11392.9
11393.5
11393.1
11394.1
11393.5
-27683.6
-27682.7
-27679.4
-27680.3
-27684.9
-27681.8
-27679.2
-27682.3
-27684.5
-27683.6
-27682.7
-27679.4
-27680.3
-27684.9
-27681.8
-27679.2
-27682.3
-27684.5
-27683.6
-27682.7
-27679.4
-27680.3
-27685
-27681.8
-27679.2
-27682.3
-27684.5
-27683.6
-27682.7
-27679.4
-27680.4
-27685
-27681.8
-27679.2
-27682.3
-27684.5
-8334.13
-8334.64
-8334.5
-8335.13
-8334.1
-8335.49
-8334.64
-8334.65
-8334.4
-8334.12
-8334.63
-8334.49
-8335.13
-8334.1
-8335.49
-8334.65
-8334.66
-8334.41
-8334.11
-8334.63
-8334.5
-8335.13
-8334.1
-8335.5
-8334.66
-8334.66
-8334.41
-8334.11
-8334.63
-8334.49
-8335.12
-8334.09
-8335.49
-8334.65
-8334.66
-8334.41
50236.5
50236.2
50236.2
50237
50236.6
50237
50237.5
50237.1
50236.9
50236.5
50236.2
50236.2
50236.9
50236.6
50236.9
50237.5
50237.1
50236.9
50236.5
50236.2
50236.2
50237
50236.6
50237
50237.5
50237.1
50236.9
50236.5
50236.2
50236.2
50237
50236.6
50237
50237.5
50237.1
50236.9
6517.08
6523.03
6493.14
6501.67
6529.29
6508.23
6491.08
6514.17
6510.93
6517.19
6523.2
6493.27
6501.72
6529.34
6508.29
6491.11
6514.23
6510.98
6517.2
6523.25
6493.28
6501.7
6529.35
6508.27
6491.09
6514.19
6510.93
6517.16
6523.21
6493.26
6501.7
6529.32
6508.26
6491.1
6514.17
6510.88
10492.6
10489.7
10492
10488.1
10498.6
10485.1
10495.5
10492.8
10494.8
10492.6
10489.7
10492
10488.1
10498.5
10485.1
10495.5
10492.8
10494.8
10492.7
10489.7
10492
10488.1
10498.6
10485.1
10495.5
10492.8
10494.8
10492.7
10489.7
10492
10488.1
10498.5
10485.1
10495.5
10492.7
10494.8
73989.8
73990.8
73985.1
73999.7
73976.9
74003.7
73981.3
73994.9
73989.1
73989.8
73990.8
73985.1
73999.6
73976.8
74003.7
73981.3
73994.9
73989.1
73989.8
73990.8
73985.1
73999.7
73976.9
74003.7
73981.3
73994.9
73989.1
73989.8
73990.8
73985.1
73999.6
73976.8
74003.7
73981.3
73994.9
73989.1
)
;

boundaryField
{
    fixed
    {
        type            zeroGradient;
    }
    inside
    {
        type            zeroGradient;
    }
    outside
    {
        type            zeroGradient;
    }
}


// ************************************************************************* //
