/*--------------------------------*- C++ -*----------------------------------*\
| =========                 |                                                 |
| \\      /  F ield         | OpenFOAM: The Open Source CFD Toolbox           |
|  \\    /   O peration     | Version:  2312                                  |
|   \\  /    A nd           | Website:  www.openfoam.com                      |
|    \\/     M anipulation  |                                                 |
\*---------------------------------------------------------------------------*/
FoamFile
{
    version     2.0;
    format      ascii;
    arch        "LSB;label=32;scalar=64";
    class       volScalarField;
    location    "0.9";
    object      sigmaEq;
}
// * * * * * * * * * * * * * * * * * * * * * * * * * * * * * * * * * * * * * //

dimensions      [1 -1 -2 0 0 0 0];

internalField   nonuniform List<scalar> 
1620
(
61306.9
64158.6
65241.7
62495
58345
55095.9
53042
51798.6
52130.3
52753.9
52726.7
53983.3
55895.9
58476.7
61021.4
61903
60517.3
58545.5
57438.3
57263.5
57297
56712.5
55499.6
54100.6
52812.6
51759.7
52158.2
52916.7
53041.9
54073.3
55660.2
57910.2
60322.8
61384.9
60561.4
59934.3
57244.5
56717.4
55987.5
55204.2
54466.9
53894.6
53512.5
53261.1
53210.7
53493.4
53821.5
54194
54659.8
55315.5
56150.4
57043.4
57982.4
58588.7
54969.3
55540
55225.6
54762
54298.3
53911.2
53606.7
53340.5
53216.7
53415.2
53690.9
54028
54485.2
55140.1
55956.9
56771.6
57513.1
58205
56049.4
54733.6
53495
52789
52440.5
52260.8
52179.7
52243.6
52813.3
51800.8
51356.5
51302.1
51332.6
51381
51509.6
51908.1
52787.6
53946.8
54341.7
53808.9
53203.5
52833.9
52648.7
52554.5
52504.7
52531.2
52913
51746.9
51348.7
51348.6
51467.9
51648.4
51970.8
52685.4
54084.9
55800.7
59914.6
63781.9
65325.7
62222.3
57459.6
53458.9
50480.9
48182.7
48591
49307.9
49523.6
51389.2
53533.3
55973.1
58358
59571.7
58793.5
57055.4
56149.5
56343.8
56591.9
55997.1
54537
52634.7
50606.1
48571.3
48820.3
49666.8
49999.8
51611.7
53428.9
55449.4
57566.9
58935.4
58681.3
58178.1
63527.6
64269.9
59540.6
56516.7
54534.9
53171.8
52191.7
51320.5
50689.7
51232.4
52321.7
53168.6
53970.5
55055.6
56686.8
59342.6
64138.3
64383
57602.6
60423.7
57806.1
55818.8
54422.6
53392.5
52556.7
51654.4
50761.2
50855.9
51744.3
52637
53539
54644.7
56210.7
58800.9
63450
63395.3
56324.2
55467.9
54252.5
53311.2
52590.8
51897.6
51154.6
50456
50583.4
49130.1
49361.4
50159.3
50967.5
51618.7
52093.8
52489
52950.6
53637
54273.6
54256.6
53780.3
53227.3
52688.2
52111.6
51469.5
50813.8
50581.4
48803.7
49127.3
50141.9
51200.4
52061
52741.8
53485.5
54569.6
55841.4
55239.4
58802.1
60977.3
59408.6
55583
51371.2
47561.1
44440.7
44627.5
46629.2
45878
48241.9
50743.3
53021.1
54795.9
55559.7
54849.6
53238.8
52600.1
53438
54259.6
54058.1
52721.3
50564
47986.9
45262.9
44756.7
47307.2
46569.5
48652.4
50990.1
52967.9
54437
55190.1
54796.8
53972
63885.6
75263.3
64466.6
58315.6
54858.8
52579.1
50875
49212.3
47667.6
48235.4
50271.6
51938.8
53197.6
54669.7
56891.4
61239.1
70768.8
63042
56231.8
66273.8
61127.2
57137.9
54649.3
52897.4
51479.2
49879
47899.7
47555.1
49032.2
50941.1
52564.8
54109.8
56091.1
60129
69559.7
62174.7
54850.8
56208.3
55620.8
54278.3
52940
51605.9
50194.8
48655.5
47665.2
45986.4
47121
48958.7
50576.4
51874.2
52772
53168.6
52747.9
51808.3
52775.2
54661.9
54762.5
53900.3
52836
51685.7
50452.4
49074
47890.3
45327.9
46488.6
48756.2
50873.2
52460.8
53608.1
54546.5
54925.6
54189.7
50389.9
53407.1
55846
55795.3
53245
49387.3
45601.2
42796
42854.4
46951.9
44357.7
45896
48268.7
50485
51975.9
52282.7
51143.6
49145.1
48525.3
49962.6
51429.9
51726.8
50713.7
48735.9
46362.3
44004.2
42989.9
47316.2
45352.6
46495.3
48803.2
50874
52106.2
52276.5
51198.7
49659.8
56910.7
75916.5
66689.8
59423.1
55173.7
52353.7
50334.7
48440.4
46443.6
46633.2
48722.6
51066.8
52663.3
54357.6
56841.9
61741.9
70711.7
56643.6
51935.7
66547.3
62894.5
58016.3
54846.5
52681
51048
49309.7
46881.8
45999.3
46983
49494.5
51699.5
53589.2
55711.6
59895.1
68244.5
55388.4
51533.9
56556.9
57508.1
55814
53774.2
51923.4
50275.8
48641.9
47269.2
44884
46277.6
48455.9
50425.2
52112.5
53400.9
53875.6
52385.4
49035
50208.6
55235.5
56352
55009.9
53349.4
51804.6
50402.1
48997.8
47630.9
44122.1
45432.3
47985.4
50661.7
52771.5
54432.4
55721.6
54941.1
50918.2
47011.4
49782.2
52107.9
52605.7
50897.3
47689.1
44484.9
42369.9
42369.6
46359
44593.1
44607.5
46225
48070.2
49375.1
49451.9
47986.3
45804.8
45333.6
47087.7
48930.8
49583.8
48961.6
47489.6
45779.2
44165.9
43124.4
45318
45867.3
45415.3
46939.7
48772.9
49932.1
49860.3
48347.9
46455.2
51114.4
67408.8
64475.5
58875.6
54915.3
52124.1
50198.6
48447.8
46280.5
45935.5
47713
50475
52291.1
54036.3
56505.7
60843.5
65493.2
51178.6
47936.8
61522.8
61537.1
57641.7
54601.4
52490.4
50996.6
49481.1
47091.6
45509.1
45844.5
48318.8
50821.8
52898.4
55001.8
58327.8
61972.8
49804.7
48604.9
56831.2
59297.8
57430.6
54907.8
52775.8
51132.3
49659.1
48192.3
44906.3
46496
48550.5
50527.1
52294.3
53821.8
54430.7
52090.6
46443.4
47847.2
56215
58315.2
56364
54162.3
52424.1
51101.9
49934.8
48694.5
45033.2
45542.9
47767.5
50527.7
52912
55038.7
56775.5
54996.3
47994.9
45026.4
47557.3
49611.2
50127.8
48863.8
46315.7
43796.5
42294.1
42318.3
44771.7
45837.8
44296.6
44816
45849.1
46707
46590.3
45136.5
43385.8
43385.9
45243.5
47131.3
47943.5
47674
46771.3
45747.8
44767.1
43866.2
43964.1
47026.5
45249.5
45586.4
46718
47614
47469.8
45978.1
44357.3
47570.3
58986.8
60003.6
56905.3
53892.5
51533
49911.2
48435.7
46379.5
45491
46970.7
49900.3
51916.6
53586
55758.8
58837.8
59348.6
47146.9
44972.8
55635.3
58078
56025.5
53751.2
52053
50884.2
49709.3
47682.1
45464.7
45391.1
47226.8
49800.7
51892.3
53793.6
55863.7
55668.8
46098.4
46616.7
56928.2
60368.1
58532
55882.2
53683.3
52066.3
50661.6
49078.2
45867.4
46948.6
48830.1
50722.3
52395.2
53986.1
54726.5
51862
44383.6
46109
57415.4
60216.1
57648
55032.9
53196.9
51960.6
50967.8
49917.1
48092.4
45613.8
47738.5
50326.7
52809
55263.9
57390
55005.1
45873.4
43846.1
46204.9
47931.8
48270.5
47197.5
45163.2
43221.5
42186
42321.5
44456.8
47587.4
44858.7
44155.2
44128.6
44199.4
43772.1
42603.6
41702.8
42402.4
44347.3
46087.5
46880.4
46826.8
46354.2
45838.5
45302.9
44625.3
44445
47188.3
45822.2
44882
45039.7
45337.1
45032.3
43808.4
42814.3
45214.5
53375.1
55681.9
54385.4
52344.4
50533.9
49294.7
48186.2
46463.9
45204
46373.4
49167.8
51412.3
52946.4
54568.1
56088.8
53886.8
44094.7
42865.1
50968.8
54324.6
53834.3
52476.6
51324.1
50551.5
49770.9
48249.6
45878.5
45435.1
46200.1
48574.5
50562.7
52069
52876.1
50566.8
43365.8
45104.9
56860.8
60735.6
58980.7
56437.4
54318.8
52740
51361.7
49808.4
47282.8
46942.2
49086.9
50892.4
52443.4
53986
54835.7
51696.5
42702.9
44830.9
58783.8
61911.9
58734.6
55820.6
53917.7
52723.6
51842.3
51018.8
50489.8
44575.6
47621.8
49972.1
52479.5
55113.4
57502
54747.6
44003
43120.6
45321.9
46702.9
46793.7
45758.7
44068.1
42571.3
41925.8
42239.1
44259.4
48035
46268
44276
43265.9
42434.7
41604.8
40852.1
40933.1
42316.3
44256
45704.4
46314.1
46295.8
46050
45850
45633.4
45217.8
45025.4
45246.5
47239.7
44982.4
44126.2
43675.3
43045.8
42079.9
41722.2
43463.7
49782.2
52283.1
51910.8
50555.5
49221.1
48364.9
47683.6
46436.9
45042.5
45890.2
48276.6
50755.2
52161.3
53101.7
53128.2
49586.2
42168.6
41731.4
47840.2
51226.1
51647.5
51016.2
50363.1
49980.1
49601.3
48616.6
46543.4
45532.7
45570.5
47222.4
49032.2
50085.5
49861.9
46646.4
41318.3
43950.7
57153.3
60938.8
59080.2
56659.7
54661.3
53142.2
51817.1
50408.2
48594.2
45730.6
49308.5
51043.7
52554.5
54046.3
55048.3
51984.7
41687.6
44258
60801.6
63619.5
59732.2
56571.5
54594.3
53404.1
52595.8
51934
51841.3
43786.2
47304
49527
52069.9
54824.2
57481.5
54705.6
42307.5
43039.8
44785.6
45690.3
45476.3
44402.7
42951.6
41816.7
41509.8
42052.5
43901.3
45784.1
48901.2
45323.6
43555.4
42040.7
40905.2
40581
41439.4
43148.7
44821.3
45820.5
46108
45968.6
45783
45756.4
45760.7
45559.1
45365.7
45017.3
49007.9
46042.3
44179.4
43148.8
42306.4
41610.6
41670.4
42610
47458.2
49698.6
49665.2
48700.2
47715.7
47179.2
46874.6
46113.1
44919.2
45386.7
47432.5
50010.8
51362.1
51710.8
50709.3
47043.9
41939.1
41949.2
46245.1
49057.4
49767
49548.4
49257.3
49197.4
49170.7
48682.1
47186.2
45569.5
45934
46058.2
47479
48245.5
47537.4
44404.8
40655.7
44065.2
58703.2
61538
59244.5
56820.9
54874.9
53381.5
52089.7
50768.2
49306.2
44116.8
49685.8
51337.5
52931
54476.8
55793.2
53496.4
42284.5
45161.5
64357.9
65569.5
60802.7
57407.5
55313.8
54068
53280.5
52682.4
52609.7
50235.9
46622.7
49257.5
51818.6
54756.6
57937.4
56110.5
41929.7
43613.1
44509.2
44746.3
44188.4
43096.2
41900.6
41124.9
41100.2
41821.5
43672.9
45861.5
53517.7
47759
45107.7
43265.6
42053.9
41999.9
43107.1
44609.7
45749.6
46211.5
46125.6
45798.8
45584.8
45637.5
45781.5
45736
45604
46011.9
47364.6
48203.3
45177.1
43717.6
42939.2
42573.9
42765.1
42965.4
46190.8
47765.3
47704
46939.4
46207.6
45891
45821.9
45433.7
44628.6
44925.6
47020.5
49351.7
50743
50775.3
49450
46595.5
43485.7
43500.3
46048.8
47859.9
48373.9
48268.8
48171.3
48320.6
48550.2
48473.9
47614.5
45983.5
46630.4
45830.5
46176.8
46828.1
46324.7
44121.7
41693.1
46926.5
62816.5
62951.7
59878.2
57254.2
55206.8
53618
52253.3
50886.9
49548.6
45415.8
50259.5
52120.6
53828.7
55595.2
57500.5
57129
45589
48426
71040.6
67689.2
62032.3
58407.8
56131.8
54745.4
53894.2
53279.9
53159.7
55467
44642.3
49343.6
52026
55261.3
59377.9
60697.8
44076.5
44305.4
44282.2
43821.8
42980.8
41984
41128.9
40719
40918
41775.1
43756.4
46827.2
53891.3
52452.1
47897
45851.9
44656.4
44502.8
45219.6
46155
46708.4
46701.2
46320.4
45845.7
45585.5
45658.1
45887.8
46002.3
46034.4
46718.7
46084.5
50855.3
47155.1
45015.3
44282.8
44115.4
44166.1
44210.4
45753.9
46403.6
46150.2
45515.4
44965.9
44742.2
44732.2
44570.9
44196.4
44598.7
46735.6
49117.5
50534.8
50484.9
49308.5
47524
45916.6
45733.5
46775.3
47514
47632.5
47463.8
47395.9
47587.2
47911.4
48096.2
47794.5
46667.5
46159.3
47306.1
45664.7
45908
45894
44924.4
43690.7
57872.5
70867.6
65617.7
61340.8
58235
55887.3
54030.8
52436.9
50921
49672.3
47525.8
49036.3
53658.2
55373.9
57551.4
60541
64000.2
55007
58394.5
80820.2
69301.2
63286.4
59434.7
56948.4
55382.2
54418.6
53758.4
53400.3
54860.5
46803.2
48757.7
52444.2
56191.6
61497.9
70983.5
51946.3
44871.5
44162.3
43233.3
42286.9
41517.4
41039.2
40937.7
41316.7
42381.8
44536.2
47441.9
47174
64435
52979.8
49601.2
48086
47428.1
47402.3
47604.4
47631.6
47325
46806.6
46298.2
46036.3
46112.6
46398.4
46675.6
46928.6
47795.7
49866
46865.3
50141.9
47095.5
45931.1
45597.9
45314.5
45372.8
45706.5
45659.9
45252.9
44705.7
44232.2
43949.1
43825.9
43737.2
43757.2
44410.3
46346.8
49758.8
50913
50861.9
49892.3
48728.9
47905.8
47602
47712.4
47801
47656.6
47395.5
47225
47267.6
47478.9
47713.6
47782.7
47389.5
46491.6
47948.3
46735.4
45807.2
45873.2
45601.9
45226
88445.2
75156.9
67333
62561.1
59279.3
56731.1
54570.4
52627
50801.3
49196.4
47303.8
44980.9
55367.9
57003.5
59440.1
63300.2
69782.1
82972.9
65099.2
74133.5
67486.8
63028.9
59702.2
57355.5
55750.9
54698
53984.8
53421.7
53552.1
57182.3
45352.6
50944.5
55133.9
59756.8
67617.8
62046.8
45914.4
44870.1
43830.6
42993.1
42465.6
42217.3
42224.5
42610.9
43617
45210.1
46376.8
47280.5
81086.2
65630.2
55780.8
52513.4
50822.3
49813.7
49138.5
48602.1
48106
47642.8
47290.3
47153.6
47283.6
47628.6
48079.8
48615.6
49584.9
52029.6
54060.3
48604.8
50293.6
48545.3
47563.1
46806
46155.2
45921
45568.6
45072.1
44544.1
44062.4
43672.1
43419.9
43374.8
43683.4
44566.5
46649.1
50963.5
52179.2
51959.2
51055.5
50029.3
49184.6
48634.9
48387.9
48264.5
48070.9
47802.3
47545.9
47404
47427.4
47605.2
47890.3
48162.6
48081.1
47742.7
48823.5
47447.6
46895.3
46673.8
46401.2
51060.7
57205.1
58657.8
58339.7
57277.9
55753.9
53913.2
51901.1
49830.6
47808.7
45933.6
44891.8
53788.5
56891.9
58112.9
59272.4
58837
53127.4
48344
53090.2
57013.5
57983.4
57432
56357.7
55259.7
54352.2
53675.5
53140
52725.3
53342.3
51002.1
47131.3
49414
50292.7
48635
45898.2
48411.5
47134.1
45993
45042.4
44287.7
43669.2
43232.6
43402.2
44931.2
48075.8
53572.6
70551.8
112352
99396.2
77351.3
62588.8
55705.6
52015.4
49798.7
48477.3
47754.2
47412.7
47303.2
47353.2
47557
47945.3
48547.6
49366.9
50420.4
51970
54850.8
55261.1
52579
52454.6
51207
49781.3
47329.8
46454.8
45665.8
45040
44602.5
44311.7
44110.5
44010.9
44111.3
44560.7
45600.5
47725.4
52093
56201.7
54059.9
52538.8
51102.7
49780.6
48702.1
48004.1
47675.7
47549.9
47478.7
47418.6
47405
47512.6
47814
48354.6
49137.1
50017.1
50596
50785.2
50761.1
49806.4
48967.9
48184.5
49209.1
49926.4
50574.8
51020.3
51201.9
50964.1
50255.1
49203.4
48003.2
46868.3
46108
46230.2
49034.1
54751.2
54346.7
54034.8
52763.9
50501.9
48664.9
48591.6
49945.4
51527.6
52601.8
53032.8
53008
52783.5
52546.3
52366.1
52230.1
52360.1
54568.6
49641.6
48343.7
48312.8
48390.5
48674.1
56479.5
53989.1
54229.6
55371.6
55970.6
55388
53882.7
52231.8
50953.3
49874.6
48946
50314.4
55303.4
59649.1
56571.4
56503.1
56632.2
57276.4
58648.5
60013.5
61397.7
63102.2
64893.3
66414.8
67563.5
68657.4
70434.4
74920.2
85004.7
99511.2
107748
115384
198247
148786
86892.5
64459.7
48552.7
46364.4
44570.1
43772.9
43960.2
44641.4
45403.3
46139.8
46951.8
47997.1
49490.6
52057.9
58654.3
68024.1
58703.8
55237.9
52986.4
50720
48258
46076.6
44717.7
44088.5
43915.9
44118.1
44656
45440
46399.7
47539.3
48908.2
50406.2
51445.7
52350
54291.2
53548.2
52219.2
50552.2
49961.2
48911.8
47863.1
47312.5
47334.3
47560.9
47657.7
47534.1
47274.3
47068.6
47219.9
48103.8
49825.9
52678.1
51781
52075.8
52208.6
51404
49616
47434.1
46016.4
46137.8
47437.2
49008.3
50252.8
51016.2
51385.3
51510.5
51584.2
51910
53774.2
54670.5
50701.4
50609.4
50782.6
50615
)
;

boundaryField
{
    fixed
    {
        type            calculated;
        value           nonuniform List<scalar> 
108
(
61235.7
63880.2
64901.4
62270.8
58207.2
54980.2
52903.8
51554.5
51250.2
52225.5
52630.3
53957.4
55854.6
58414.6
60975.6
61901.6
60514.9
58505.6
57383.2
57218
57254.2
56658.2
55445
54064
52792.2
51674.8
51312
52507.5
52836.3
53929.5
55525.6
57751.8
60114.3
61157.2
60429
59916.7
57420.6
56981.4
56181.2
55313.5
54517.4
53912.1
53514.3
53254.7
53176.2
53508.3
53835
54217.4
54706.4
55407
56319.7
57326
58369.8
58528.6
54887.1
55551.5
55280.3
54803
54319.6
53918.2
53605.2
53332.6
53179.4
53428.1
53703.1
54049.9
54529
55227.2
56120
57044.2
57886.7
58402.4
55940.8
54622.8
53413.9
52754.1
52440.4
52277.2
52195
52228.5
52590.6
51654.8
51270.3
51234.7
51278.4
51333.7
51457.8
51838
52689.7
53823.2
54231.4
53734
53150.3
52791.4
52606.4
52504
52440.2
52442.5
52716.7
51680.9
51359.5
51375.3
51491
51651.4
51934.6
52596.1
53958.6
55682.6
)
;
    }
    inside
    {
        type            calculated;
        value           nonuniform List<scalar> 
540
(
56042.8
54979.5
53819.5
52911.2
52239.9
51735.1
51412
51388.7
51799.5
50880.6
50469.1
50518.9
50823.8
51255.7
51805.9
52538.7
53435
54188.7
54217.4
53651.1
53013.8
52483.9
52079.9
51786.6
51623.6
51669.2
52068
50974.1
50710
50865
51260.7
51791.2
52482.8
53472.6
54804.3
56018.5
56209
55266.6
54102
53070.5
52118
51103.5
50045.9
49250.3
49295.5
48063.3
48170.8
49078.8
50207.2
51200.2
51970
52615
53244
53849.5
53973
53539.8
52979.7
52382
51741.6
51022.4
50258.9
49639.9
49655.7
48031.4
48383.1
49531.9
50835.2
51918.5
52772.2
53638.2
54752.2
55947.3
54465.7
54675.3
54107.5
53095.2
51795.5
50167.3
48332.9
46724.3
46576.6
45220.8
45623.6
47282.4
49208.8
50813.2
51834.7
52278.3
52190.2
51897.5
52162.9
52592.8
52528
51989.8
51120.3
49962.6
48624.3
47340.2
47067.4
45144.3
45796.1
47800.5
50080.8
51796.8
52864.5
53537.8
53915.7
54020.2
50779.8
52953.7
53766.4
53192.5
51757.6
49810.7
47821.7
46388.1
47296.5
46580.3
45475.9
46458.1
48436.7
50309.7
51498.6
51682.5
50617.8
48886.4
49192.6
51033.5
51890.2
51633.8
50736.3
49485.9
48154.5
47046.4
47493.7
46405.6
45981.9
46993.3
49438.9
51525.1
52777.3
53180.1
52343.8
50423.1
47473.8
51145.2
53186.8
53232.8
51990.2
50118.3
48372.2
47351.4
48749.5
49260.8
47276.9
46656.8
48052.6
49723.8
50883.7
50824.5
48925.8
45980.9
46358.9
49425.8
51199.3
51377.3
50701.8
49695.1
48722.3
48026
48725.7
48242.3
48450.5
47303.3
49011.6
51048.1
52390.9
52577.2
50715.3
47178.1
45125.3
49609.1
52442.7
53087.5
52282.3
50741.2
49290.9
48492.3
49616.2
50971.5
50147.4
47562.4
48041.6
49151.1
50000.1
49648.1
47141.2
43524.3
44135.4
48018.4
50541.9
51227.7
50929.6
50286.9
49675.5
49269.1
49816.9
48410.5
51667.8
48654.5
48870.9
50387.9
51594.1
51564.6
49044.5
44711.3
43237.5
48243.3
51601.9
52756.1
52463.6
51351.8
50167.8
49479.8
50334.2
51373.7
53484.8
49079.7
48346.7
48717
49000.4
48206
45208.5
41361.3
42367.5
46869.7
50013.8
51184.5
51278.2
50971.1
50628.6
50407.1
50857.4
47545
53886.7
51105.7
49205.3
49726.5
50468.2
50053.8
47022.9
42464.6
41531.7
47034.7
50787.1
52335.5
52514.6
51843.6
50927.9
50354.9
51133.5
50891.4
56701.3
51469.8
49061
48617.9
48232.2
46900.6
43544.3
39780.9
41240.9
46227.6
49785.5
51300.6
51703.8
51657
51512.3
51429.3
51831.3
46869.2
54664.9
55131.8
50617.1
49512
49467.1
48484.4
44954.1
40320.1
40655.3
46301.5
50183.3
51962.6
52528.5
52276.2
51648.7
51217.2
51934.2
50134.3
59557.8
55576
50615.6
49168.9
48176.9
46451.2
43093.6
39696.3
41412.6
46480.6
50048.5
51679.6
52274
52403.2
52395.4
52420.3
52788.2
46860.9
53805
60505.4
54397.9
50545.5
49293.9
47767.9
44016.9
39370.6
41300.9
46428.2
49977.8
51827.8
52715.9
52852.2
52518.7
52237.2
52851.9
49998.3
62141.7
62269
53863.5
50770.4
49198.1
47346.2
44498.1
41676.6
43231
47806.1
50919.7
52480.1
53171.6
53384.6
53426.6
53492.2
53815.7
47222.5
52000.5
63983.5
61982.8
54215.2
50675.4
48529
45014.4
40433
43236.1
47313.8
50325.6
52318.3
53536.4
54026
53967.4
53845.1
54325.2
51007.3
64275.8
70249.4
59654.5
53870.5
51408.3
49361.3
47071.3
44975.8
46082.9
49803
52403.2
54003.6
54751.1
54930.1
54902.8
54920.7
55157.2
47737.3
51067
63764
72781.9
62587.6
54759.8
50869.5
47389.7
43033.8
45406.3
48765.2
51863.6
54306.9
55966.9
56827.1
57025.8
57026.2
56696.5
53361.2
65029.3
75450.5
67780.2
59086.6
55164.7
52481.6
50034.4
47988.8
48591.3
52104
55035.4
56957.9
57698.4
57695.6
57449.9
57290.1
57363.7
48497.1
51718.4
59857.3
74933
74675.9
64055.2
56378
50901
45759.6
46792.1
51641.5
56269.6
59853.8
62389
63705.3
63850
63137.2
58127.5
57148.1
65499.2
74402.4
73297.5
66570.6
62200.4
58846.3
54513.9
49559
49402
55540.7
61325.6
63948.2
64248.5
63499.3
62539.9
61794.9
61494.2
49427.6
53115.4
58040.7
67353.2
76823
76813
69706.4
58062.8
47611.9
54037.3
67076.7
77145.5
82015.7
82400.1
79477.2
74510.7
67802.6
50756.1
61096.5
64266.9
68547
70405.8
70162.5
71840.9
77311.5
81912.7
62150.9
51555.3
85019.9
103981
97724
87139.4
79049
73813.1
70811.3
70382.7
49482.9
53430.2
56791.6
61130.3
66249.8
72210.5
79163.6
78650.9
50868
52021.5
58100.2
68865.2
78045.3
79124.2
73297.7
64960.2
55876.1
47139.5
62162.8
59545.4
58746.7
57607.8
57039.1
57583.2
58786.5
59799.1
56624
49163.3
51500.5
80230.6
109622
115404
106120
95101.9
88455.9
92240.7
49371.4
50573.4
52131.2
53380.8
53800.2
53434.3
52702.8
51648.5
50665.1
)
;
    }
    outside
    {
        type            calculated;
        value           nonuniform List<scalar> 
540
(
61104.1
62852.6
63431.6
61351
57778.2
54591.9
52281
50564.7
49883
50538.4
51020.7
52564.2
54464.7
56675.5
58685.5
59580.9
59180.1
58286.2
57484.8
56955.2
56563.5
55887.1
54804.2
53483.6
52090.1
50714.1
50012.2
51174.7
51554.3
52848.7
54491.1
56482.6
58418.7
59419.1
59470.5
59806.7
59596.4
61947.3
62876.6
60792.6
56917.9
53068.6
49732.8
46737.1
45515.6
46670.6
47668.8
50128.8
52511.8
54795.2
56750.7
57789.1
57631.4
56798.5
56170.5
55982.5
55802.6
55166.4
53898
52106.9
49948.3
47495.5
45893.3
47734.7
48377.5
50500.2
52586.7
54516.3
56234.5
57349.7
57685.6
58078.5
54957.4
57210.9
58705.1
57899.5
54940
50904.2
46634.3
42869.6
42558.9
44434.2
43861.3
46766.3
49754.6
52147
53756.3
54412.9
54041.5
53042.7
52635.1
53133.8
53533.9
53244.1
52050.4
49967.7
47213.1
44129.4
42630.8
45887.3
44865.3
47309.4
50124.9
52248.6
53581.7
54196.2
54126.8
53919.1
50174.1
52306.9
54142
54413.9
52526.1
48880.3
44746.5
41716.7
42615.2
47582.3
43367.8
44460.2
47204.3
49666.4
51182
51500.2
50588.6
49000.4
48561.9
49709.7
50802.5
50975.1
50054.7
48155
45706.5
43328.8
42716.8
49128.2
44884.5
45207.6
47807.7
50150.1
51444.3
51636.7
50801.7
49653.1
46815.1
48921.6
50830.6
51489.3
50292.7
47334.1
43952.4
41883.5
42757.8
51455.6
45118.1
43575.1
45169.9
47218.5
48631.8
48789.1
47526.2
45689.7
45356.1
46831.2
48376.6
48948.5
48431.5
47084.9
45441.7
44063.2
43750.7
53318.5
47608.3
44696.2
45891.9
47933.5
49264.7
49323.4
48064.2
46485.7
44842.9
46803
48588.6
49275.5
48475.4
46239
43708.1
42378.1
42898.5
54647.8
47944.7
43928.3
43930.7
44978.2
45935.2
45939.9
44714.8
43298.7
43386.8
44982.7
46659.1
47469.4
47354.5
46638.2
45791.6
45172.7
44976.7
57480.1
52129.8
45692.4
44703.4
45751.6
46828.7
46899.1
45722
44413.5
43688.7
45549.5
47087
47624
47007.2
45353.6
43542.3
42727.8
42936.3
58618
51947.3
45273
43577.8
43304.1
43391
43103.9
42212.4
41641
42390.6
44120.4
45727.6
46583.8
46731.7
46495.1
46220.6
46094.6
46075.5
63019.3
58622.6
48278.6
44506.4
44048.8
44406.7
44369.7
43545.8
42883.5
42998.4
44781.4
46006
46286.1
45687.6
44428.7
43183.3
42800
42788.1
64795.3
57572.3
47445.3
44087.5
42585
41642.1
40939.9
40499.5
40890.5
42307.8
44096.6
45474.8
46186.3
46398.4
46422.1
46500.3
46717.3
46960.2
70310.7
67550.1
53596.1
45735.5
43366.4
42699
42321.6
41811.9
41791.6
42954.6
44361.6
45115.8
45045.5
44357.8
43357.7
42588.2
42627.5
42456.3
72155.5
63956.7
50752.8
45566.7
43142.8
41383.6
40324.7
40294.6
41412.8
43154.1
44739.9
45717.6
46127.6
46232.5
46335.7
46612.2
47074.4
47580.8
78979.8
80816.5
64087.5
49137.2
44120.1
42389.9
41671.1
41389.1
41735.9
43559.7
44185.8
44263.8
43782.1
42997.4
42239.8
41932.5
42365.5
41962.8
81511.6
73251.9
56669.7
48294.1
45037.3
42880
41671
41817.9
43096.9
44627.6
45733.1
46212.9
46265.6
46188.3
46271.4
46646.1
47278.7
48057.4
89206.8
101314
81911
56503.7
46716.5
43595.4
42615.5
42479.7
42836.9
44276.9
44035.9
43415.3
42589.3
41821.3
41383.2
41527
42261.3
41448.7
100822
96670.2
69053.7
52328.6
48015.3
45766.1
44520.1
44438.4
45223.4
46172.7
46726.3
46772
46545.5
46321
46365.7
46795.8
47589.5
48779.3
95755.2
128374
115904
75548.1
52605.7
46197
44518.3
44228.1
44267.3
44882.2
44001.1
42958.3
42029
41470.1
41421.3
41927.9
42736.7
41494.8
142539
142479
93079.3
59654.2
52408.2
49612.8
48107.7
47443.6
47411.5
47605.1
47650.7
47424.5
47071.2
46817.1
46892.8
47423.6
48478.7
50475.9
87156.1
169059
184500
124291
69154.9
51412.8
47151.8
46043.4
45503.9
46117.8
44978.3
43949
43229.3
42950.4
43085.1
43474.4
43405.5
54200.1
296440
272324
147476
74468.1
59594.9
55081.2
52473.8
50867.8
49856.5
49171.7
48659.2
48249
47952.3
47864.7
48122.7
48865.6
50387.9
54253.6
52682
171157
266149
246277
127150
66652.6
52325.9
48730.5
47264.2
49547.5
48327.3
47214.9
46192.2
45258.6
44432.7
44431.4
56168.8
568322
1.19542e+06
527384
186376
87967.6
73222.9
66361.6
59039
54665
51854.9
49944.8
48701.9
47967.9
47588.3
47456.7
47572.3
48120.1
49828
57245.5
52054.2
50738
67699.4
99335.7
102349
71345.3
57245.9
53041.4
50989.5
42323.1
43132.8
44776.8
46386.6
47327.5
47495.4
47313.1
47361.1
47841.3
147902
82831.6
54078.9
42580.7
39996
38101.4
37389.8
39044.6
49693.6
67010.3
78760.9
80279.4
73704.5
63037.8
52749.9
46271.5
44251.7
44622.2
55381.8
48063.5
46042.5
45515.8
43910.4
42856.2
42594.2
43007.7
42620.9
)
;
    }
}


// ************************************************************************* //
