/*--------------------------------*- C++ -*----------------------------------*\
| =========                 |                                                 |
| \\      /  F ield         | OpenFOAM: The Open Source CFD Toolbox           |
|  \\    /   O peration     | Version:  2312                                  |
|   \\  /    A nd           | Website:  www.openfoam.com                      |
|    \\/     M anipulation  |                                                 |
\*---------------------------------------------------------------------------*/
FoamFile
{
    version     2.0;
    format      ascii;
    arch        "LSB;label=32;scalar=64";
    class       volSymmTensorField;
    location    "0.9";
    object      sigma;
}
// * * * * * * * * * * * * * * * * * * * * * * * * * * * * * * * * * * * * * //

dimensions      [1 -1 -2 0 0 0 0];

internalField   nonuniform List<symmTensor> 
1620
(
(30041.8 87.3345 -383.388 32324.9 -7561.37 91038.5)
(29652.8 -1182.05 3360.79 37934.1 -20223.6 86706.9)
(27707.4 -4844.7 9227.05 41285.8 -26648.3 75264)
(25287 -9340.18 14745.4 37620.7 -26397.7 59507.7)
(21264.6 -12613 18882.4 26061.8 -22510.2 41548.1)
(12462.1 -13637 21741.9 6543.03 -17523 20089.4)
(-4388.82 -12202.7 23568.9 -21309.8 -12361.8 -7645.85)
(-32879.7 -8735.27 24301.3 -59450.1 -7141.83 -46256.4)
(-51130.9 -4079.39 19170.8 -92627.5 -1621.54 -88180)
(-59302.3 4221.54 -23389.7 -95868.2 -2177.47 -86025.5)
(-41777.9 7960.29 -25682.2 -64260.8 -7677.36 -45580.5)
(-16019.3 10576.8 -24326.1 -29754.8 -12794.9 -9822.33)
(1118.43 11459.8 -21933.2 -3273.85 -17589.3 17484.4)
(11046 10313.9 -18480.9 15247.2 -21715.4 38599.6)
(16649.3 7419.59 -13844.4 26365.4 -24136.6 55638.4)
(21068.2 3749.78 -8201.4 31258.2 -22996.1 70022.9)
(25279.5 930.077 -2678.72 31485 -16881 80864.9)
(28794.7 -9.99273 815.469 30715.9 -6650.16 87115.1)
(29093.2 96.6671 967.884 30473.1 4845.01 86567.5)
(25903.8 -570.781 -2166.26 30480.8 14457.1 79391.1)
(21320.1 -2971.42 -7310.57 29219.4 20174.4 68028.5)
(16872 -6398.63 -12807.8 24549.2 21741.5 54460.9)
(12590.3 -9365.04 -17582.7 15517.8 20183.4 39766)
(6084.82 -10711.2 -21247.6 1079.64 16765.7 22719.7)
(-5877.32 -9995.6 -23781.4 -19843.7 12373.8 819.377)
(-28427 -7518.01 -25167.7 -51126.7 7439.01 -32240.1)
(-40627.2 -4039.97 -20273.3 -81138.7 1774.57 -74960.2)
(-52174.9 4128.98 22447.7 -90690.7 2019.37 -82039.5)
(-39022.5 8904.47 25001.8 -65944.1 7206.55 -51524.9)
(-16970.6 12415.2 24144.9 -34696.3 12199.1 -20313.4)
(-1029.92 13916.2 22325.7 -8169.58 17049 5961.24)
(8787.46 13022.9 19547.4 11819.2 21518.2 27696.4)
(14496.9 9910.88 15545.3 24568.6 24684.9 46273.8)
(19010.6 5479.21 10126.6 30416.9 24474.9 63129.3)
(23695.4 1662.54 4142.22 30768.6 18622.1 77531.5)
(27760.3 154.351 -68.0668 29767.3 6991.88 87435.4)
(16515.2 -1995.55 1536.73 49775.3 -27999.3 41883.2)
(13395.3 -12254.9 3517.56 59584.3 -15391 16033.1)
(12677.4 -20057.9 3950.66 48888.3 -9990.07 6328.94)
(13409.5 -24974.8 4168.38 33638.2 -7144.9 -2246.26)
(11862.2 -26635.8 4278.72 13529.5 -5210.79 -13757.7)
(6972.8 -24947.3 4336.33 -9902.05 -3727.27 -28406.4)
(-1685.52 -20178.3 4363.52 -34704.4 -2477.21 -45560.6)
(-12194 -13011.5 4237.93 -56915.2 -1295.08 -62302.4)
(-15721.7 -4424.92 2571.07 -66733.2 -110.397 -69531.8)
(-17366.5 4701.23 -3652.43 -68410.6 -218.127 -71189.7)
(-15818.7 13223.1 -4773.29 -60756.8 -1436.68 -66271.4)
(-6434.91 20371 -4873.57 -39765.3 -2674.81 -50779.5)
(1498.09 25174.1 -4839.94 -15765.6 -3998.16 -34423.4)
(5875.24 26940.1 -4767.29 7148.99 -5571.58 -20320.1)
(7004.17 25368.9 -4624.53 26942.5 -7616.85 -9213.91)
(5927.74 20504.7 -4339.29 42055.5 -10602.4 -907.939)
(7170.1 12678.7 -3787.63 53544.3 -16212.2 9494.8)
(10348.2 2182.48 -1552.93 43806.3 -28845.8 35754)
(9334.46 -1958.69 -1413.97 40940.8 26972.7 33640.9)
(4455.01 -12163 -3441.68 49501 14764.2 6252.76)
(3008.89 -19943.1 -3862.77 38310.2 9403.34 -4079.68)
(4236.74 -24860.2 -4089.81 23748.6 6681.78 -11990.6)
(4728.33 -26551.4 -4239.15 5868.71 4905.18 -21278)
(3329.38 -24910.9 -4339.33 -13914.8 3552.6 -32262.6)
(-979.833 -20194.1 -4384.9 -34252.7 2391.02 -44913.3)
(-7727.52 -13068.8 -4237.16 -52630 1260.11 -57783.6)
(-10281.2 -4484.27 -2452.45 -61425.2 78.9611 -63993)
(-12590.3 4641 3735.84 -63678.4 159.345 -66225.7)
(-11573.1 13159.9 4764.33 -56561.5 1299.7 -61852.7)
(-3734.66 20298.4 4856.57 -37171.2 2467.92 -47937.8)
(3610.15 25118.1 4841.8 -13868 3734.02 -32232.6)
(8297.34 26938.2 4806.87 9251.78 5260.97 -17878.8)
(10271.1 25447.5 4711.8 29832.9 7266.45 -5956.46)
(10290.3 20665.4 4467.4 46056.3 10196.8 3462.36)
(12246.9 12909.4 3954.23 58347.8 15698.1 14618.3)
(16219.9 2487.66 1881.23 49760.1 28498.3 41848.5)
(-4227.21 -217.649 -2923.43 -2825.64 5662.73 51410.7)
(-8713.1 -1716.81 -6170.16 -4234 14450.1 40762.5)
(-17334.8 -4896.34 -11003.7 -10534.5 18965.1 22298.4)
(-25350.6 -8703.74 -15733.2 -20382.4 19514 2744.35)
(-30953.5 -11526.4 -19547.6 -32431.9 17483.7 -14768.6)
(-33141.3 -12260.3 -22284 -43911.2 14095.1 -28157.9)
(-30145.3 -10628 -24032.2 -50573 10117.3 -34777.6)
(-21830.8 -7114.51 -24834.9 -50563.9 5942.07 -34744.4)
(-6244.53 -2989.57 -19626.1 -49095.3 1548.11 -42587.9)
(-15373.7 2713.69 21918.4 -54016.9 1718.28 -44242.3)
(-26188.4 7844.43 23369.4 -56885.1 5718.49 -44647.4)
(-32991.4 11814.8 22782.8 -55248.1 9736.37 -43888.2)
(-35991.8 13773.5 21395.4 -47862.7 13717.3 -37190.8)
(-35741.1 13179.2 19083.9 -37293.4 17315.5 -25334.2)
(-33297.7 10192.7 15675 -27371.1 19784.2 -10238.1)
(-29036.9 5881.62 11177.7 -20769 19739.9 6650.14)
(-23730 2072.06 6285.82 -18266.4 15246.9 22994)
(-22120.8 230.532 2904.43 -20738 5408.77 31444)
(-23018.5 -383.752 2987.07 -21661.7 -6907.82 30397.7)
(-26083.8 -2192.08 6517.29 -20680.7 -16490.2 20388.6)
(-32818.5 -5980.34 11514.5 -24628.4 -20709.5 2718.69)
(-37669 -10306.3 16085.8 -31816.2 -20539 -14611.6)
(-39426.4 -13357.5 19547 -41079 -17891.1 -28937.1)
(-37540.5 -14043.7 21887.7 -49659.7 -14130.9 -38713.9)
(-30595.3 -12146.4 23259 -53443.1 -9993.58 -41785.4)
(-18758.7 -8186.2 23617.8 -50770.5 -5810.04 -38669)
(-2225.46 -3376.17 17052.1 -47584 -1483.86 -43441.4)
(-13564.3 2476.12 -23259.8 -49919.2 -1882.83 -37605.9)
(-20869.8 7130.09 -24317.7 -49115.9 -6040.78 -33487.7)
(-25051.3 10698.6 -23432.2 -45419 -10141.7 -30097)
(-25728.3 12381 -21687.2 -36595.8 -14054.8 -21318.6)
(-23207.4 11719.9 -18973.6 -24805.2 -17371.1 -7626.01)
(-18309.7 8947.01 -15195.9 -13365.1 -19320.2 9260.8)
(-11655.9 5132.9 -10521.8 -4754.76 -18674.1 27609.5)
(-4831.85 1903.67 -5793.44 -204.879 -14027.9 44462.7)
(-2598.56 356.345 -2766.91 -1122.58 -5106.11 53007.6)
(9107.5 393.159 -1417.23 13910.7 -7538.6 69779.8)
(11058.7 -583.232 1861.92 21821.9 -20046.5 69016.4)
(12501.7 -3663.09 7376.79 28355.3 -26632.5 62232.4)
(15085.8 -7639.83 12921 29836.3 -26623.3 52562.1)
(18757.8 -10711.8 17384.4 26687.3 -23009.7 43099.8)
(21681.3 -11820.4 20667 19960.4 -18129.4 33823.1)
(21729.8 -10664.8 22896.5 10358 -12738 23157.7)
(13867.8 -7730.71 24007.8 -5330.7 -6735.95 5040.17)
(14209.3 -4004.56 18806.5 -20582.5 -9.84946 -21735.8)
(6367.38 4037.98 -24278.6 -21215.6 -809.568 -13859.7)
(12331.4 6682.4 -25037.5 -3565.42 -7113.55 14214.4)
(19234 8684.75 -23173.5 9698.55 -12557.8 30660.4)
(19836.4 9325.94 -20354.7 17775.2 -17098.2 40754)
(17766.7 8248.47 -16568.7 22702.3 -20605.6 48752.3)
(15127.9 5813.66 -11847.5 24546.1 -22391.9 56064.7)
(13757.1 2919.22 -6484.18 23751.8 -21143.5 63263.2)
(13419.4 784.649 -1425.66 20528.6 -15652.6 68702.2)
(13408.7 111.18 1767.55 17194.9 -6386.64 71094.2)
(13514.7 268.106 1989.54 16746.3 4220.49 70622.9)
(14410 -139.849 -791.467 20164.4 13392 68373.5)
(14468.8 -1994 -5575.86 23114.3 19154.4 62845.1)
(15180.1 -4847.63 -10921 23941.4 21118.7 55779.5)
(17414 -7468.53 -15793.6 22473.4 20058.7 48794.8)
(19934.9 -8793.59 -19727.2 18478.7 16986.8 41650.1)
(20893.5 -8374.56 -22618.1 12090.7 12628.8 33203.2)
(14712.3 -6565.67 -24474.9 -907.309 7232.27 16540.6)
(18938.1 -4280.25 -19588.9 -15770 484.086 -14941.4)
(8405.85 3564.78 23757.9 -21320.6 745.586 -14880)
(12799.5 7533.45 24988.7 -7697.65 6638.43 5569.47)
(18173.6 10636.6 23676.2 4534.86 12042.2 19606.8)
(17953.5 11980.6 21422.1 13113.7 16757.4 29219.9)
(15123.1 11097 18209.1 18965 20679.6 37451.8)
(11627.4 8319.04 13930.2 21473.1 23180 45525.1)
(9361.04 4639.79 8616.06 20546.5 22728.3 54228.9)
(8559.41 1584.22 3005.74 16482.1 17261.6 62198.7)
(7972.95 395.081 -956.041 11985.8 6323.87 66983.1)
(-1829.53 -554.76 471.454 35734.8 -30750.8 28743)
(-1885.99 -11893.3 3538.68 52083.9 -18306.4 3218.24)
(2663.94 -19995 4184.35 43352.8 -11720.8 -2276.69)
(10587.2 -24795.2 4478.19 33666.3 -8397.95 -3921.29)
(18465.8 -26301.1 4672.85 22467.5 -6263.65 -6058.68)
(25541.2 -24493.9 4868.79 11067.9 -4614.67 -8811.55)
(30956.4 -19662.4 5109.17 820.898 -3030.31 -11989.3)
(34780.1 -12557.6 5178.48 -6047.75 -1124.25 -14379.1)
(41467.7 -4287.13 2577.6 -4611.38 1191.62 -11532.8)
(42473.2 4421.95 -4995.79 -3850.84 947.627 -10338.2)
(38431.1 12509 -5918.03 -3561.2 -1239.85 -11477.8)
(35425 19597.4 -5678.1 3663.1 -3073.08 -8617.3)
(29623.3 24560.2 -5361 13179.9 -4620.71 -5987.11)
(21827.7 26569.5 -5124.4 23628.5 -6253.75 -4007.07)
(13253.6 25317.1 -4927.58 33915 -8422.31 -2582.62)
(4717.75 20889.4 -4660.63 42734.2 -11889.2 -1557.98)
(349.571 13445.2 -4052.89 51765.3 -18831.3 4249.52)
(-565.464 1882.9 -784.297 36594.1 -31429.3 29575.9)
(-271.734 -649.953 -341.677 32416.4 28082.3 28287.6)
(-1016.83 -11709.6 -3435.74 49171 16931.5 2743.49)
(3202.44 -19810 -4119.04 41828.9 10905.8 -2733.92)
(11254.3 -24684.8 -4462.13 33036.9 7872.88 -4049.4)
(19473.3 -26267.5 -4709.4 22539.4 5935.62 -5688.3)
(27031 -24532.7 -4938.14 11814.5 4430.14 -7771.14)
(32894.8 -19789.2 -5157.68 2144.29 2971.07 -10263.3)
(36620.3 -12783.2 -5104.75 -4744.21 1198.99 -12560.8)
(41355.2 -4537.86 -2124.24 -5051.33 -1066.24 -11560)
(41081.2 4171.58 5310.06 -4917 -1007.12 -11236.9)
(37736.6 12293.6 6046.03 -3785.18 985.564 -11633)
(34585.8 19433.4 5771.71 3123.41 2743.04 -8944)
(28774 24451.3 5441.67 12389.8 4225.45 -6419.95)
(21077.8 26503.4 5195.33 22701.1 5777.15 -4486.18)
(12654.3 25318.7 5001.51 32913 7836.1 -3090.41)
(4255.95 21070.5 4770.67 41755.3 11137.3 -2106.3)
(-543.809 13980.9 4289.86 50538.4 17796.4 3154.03)
(-1560.9 2614.98 1433.84 35415.3 30693.6 28782.6)
(-15291 -155.768 -4335.19 -11612.3 5722.22 41389.7)
(-15243.4 -2075.83 -7557.97 -9313.9 14447.9 35047.9)
(-16163.8 -5311.09 -12254.2 -8943.18 18691.3 23792.3)
(-15028.5 -8913.8 -16817.5 -10260.2 18997 12958.6)
(-10556.7 -11381 -20450.3 -12405.3 16771.3 5137.57)
(-3043.24 -11677.9 -22909.9 -13870.2 13295 1105.98)
(7455.24 -9667.19 -24217.8 -12144.8 9511.45 1826.64)
(17545.3 -6087.99 -24483.2 -9008.14 5977.39 3688.9)
(36449.7 -2961.57 -15232.6 -5961.84 2386.73 -6438.35)
(25698.8 1713.55 21703 -8146.85 2831.6 -1650.19)
(15818.4 6375.12 22883.4 -12720.4 5946.09 -3622.85)
(5644.44 10424.1 22833.3 -16395.1 9300.2 -6825.58)
(-3660.86 12873.2 21975.6 -16552.7 13080.4 -6389.8)
(-11402.9 12884.5 19991 -14426.6 16778.5 -2138.51)
(-16940.4 10408.8 16742.5 -12334.9 19407.5 5410.59)
(-19800.3 6450.19 12357.4 -12242.7 19446 15520.2)
(-20916.7 2766.17 7613.53 -15096.6 14941.9 25716.6)
(-23751.6 682.108 4409.62 -20794.4 5024.22 30023.4)
(-24528.2 -494.7 4552.58 -21182.6 -7288.01 29249.9)
(-21795.3 -2694.16 7920.94 -15126.5 -16617.7 24805.5)
(-20690.7 -6498.13 12678.4 -12198.9 -20534.4 14609.1)
(-18119.8 -10592.3 17035.1 -12576 -20131.6 4326.39)
(-12919.8 -13279.3 20283.7 -15073.5 -17293.4 -3410.22)
(-5144.25 -13559.4 22325.5 -17475.6 -13429.1 -7609.09)
(5619.37 -11374.3 23244.9 -16623.4 -9425.45 -7061.64)
(16480.7 -7461.05 22963.2 -13825.3 -5780.49 -5308.14)
(35161.8 -3594.83 11143.3 -9505.31 -2149.19 -12410.1)
(22682.1 1348.37 -23016.7 -8255.24 -3027.87 755.121)
(16509 5647.2 -23770.2 -9306.3 -6391.48 2995.02)
(9301.7 9450.98 -23397.2 -10698.7 -9863.45 2777.54)
(2669.12 11713.5 -22161 -9024.6 -13602.6 5704.26)
(-2880.01 11622.6 -19781.5 -5677.58 -17033.2 11687.2)
(-6778.43 9272.85 -16202.7 -2876.14 -19178.9 20097.6)
(-8743.12 5755.82 -11680 -2308.46 -18727.9 30094.3)
(-9900.32 2668.22 -7078.46 -4680.43 -14251.3 39361.9)
(-13202.2 947.431 -4120.86 -9861.54 -5289.57 42987)
(2136.11 501.854 -400.538 9736.55 -6782.71 59497.7)
(5812.76 -716.207 2530.09 17909.3 -17903.8 60498.1)
(7607.48 -3527.01 7435.71 23506 -24244.7 55079.6)
(9572.49 -7033.07 12518 24527 -25092.3 46278)
(12397.5 -9725.27 16776.9 21598.7 -22355.5 36961.1)
(14954.1 -10594 20011.9 15832.5 -17784.2 27700.1)
(15712.6 -9389.42 22277.6 8519.81 -12055.5 17937.5)
(11126.7 -6658.77 23430.3 -1464.72 -5006.56 3874.66)
(11650.1 -3457.24 20245.3 -11598.3 2901.15 -17164.8)
(4473.95 2814.56 -23206.2 -17525 2881.98 -18651.7)
(2197.18 4938.7 -24645.3 -8552.11 -4558.38 4597.59)
(9547.14 6916.23 -22692.2 1965.99 -11016 20981.8)
(10955.1 7884.68 -19843.1 8913.46 -15691.6 31505.7)
(10275.5 7248.77 -16142.2 14066.3 -18821.6 40426)
(8758.42 5289.57 -11643.1 16490.1 -20055.2 48127.8)
(7690.71 2923.24 -6682.23 16415.2 -18600.1 54858.5)
(6785.14 1221.36 -2108.36 14254.8 -13701.2 59363.1)
(5213.29 578.45 797.763 11341.7 -5646.73 60312.4)
(4798.78 404.73 1056.38 10917.2 3834.2 59730.5)
(7131.82 -234.401 -1460.93 14751.8 12373.8 59379.2)
(8172.59 -1979.03 -5875.09 17591.8 17974.3 55226.4)
(8986.22 -4511.42 -10858.9 18129.6 20096.2 48674.9)
(10852.4 -6771.25 -15455.1 16634.9 19312.4 41697.6)
(13129 -7825.19 -19227.7 13267.7 16387.5 34604.9)
(14695.9 -7326.18 -22052.9 8828.93 11844.4 27126.4)
(12216.8 -5687.33 -23829.2 1844.84 5747.06 15303.4)
(16338.2 -3913.94 -21623.9 -6353.62 -1757.19 -7616.29)
(10129 1771.49 22284.4 -15216.4 -2754.15 -17848.3)
(4234.77 5566.23 24798.4 -11338.1 4041.06 -3618.48)
(9901.93 8914.08 23457.8 -1677.13 10531.6 10788.2)
(10119.1 10726.6 21166.8 5454.75 15537.7 20830.6)
(8483.9 10274.7 17974.1 11403.4 19219 30072.9)
(6092.06 7848.19 13768.7 14488.5 21213.4 38697.5)
(4169.61 4610.29 8706.03 14241.4 20453.1 46937.7)
(3036.88 2036.77 3575.56 11466.2 15435.5 53983.1)
(1149.53 902.939 9.35817 7621.54 5630.19 57149.3)
(-3491.81 -310.166 1152.17 29107.7 -29774 37719.2)
(-4766.05 -11447.2 4820.5 57824.9 -24942.8 6602.21)
(1205.5 -19854.4 5672.88 46463.9 -15612.8 -848.924)
(9393.46 -24484.5 5856.74 35001.5 -10902.4 -3315.39)
(16322 -25806.1 5841.47 22479.5 -8002.98 -6841.95)
(21785.8 -23878.6 5803.77 9873.44 -5760.94 -11500.8)
(25326.5 -19051.8 5842.24 -1342.54 -3470.21 -16772.7)
(27219.7 -12119.3 5752.9 -8518.83 -498.059 -21034.7)
(32027.1 -4298.31 3822.19 -6321.01 3397.5 -19324.3)
(33902.3 3508.7 -4893.17 -5141.59 3682.89 -17773.7)
(31841 11316.1 -6725.96 -6181.16 -178.354 -17551)
(31246 18456.1 -6596.07 1030.41 -3171.1 -12677.1)
(27379.6 23651.8 -6370.13 11186.6 -5379.34 -8040.09)
(21095.1 25945.1 -6308.96 22463.6 -7543.25 -4255.6)
(13555.4 24994.1 -6309.59 33469.4 -10422.3 -1383.08)
(5382.55 21116.2 -6192.47 43052.6 -15148.4 876.554)
(168.529 14711 -5582.14 53690.1 -24432.8 8868.45)
(-981.032 2891.07 -1591.42 29880.2 -29630.3 38810.2)
(-701.468 -351.526 -795.711 25668.8 25915.1 37452.1)
(-2253.53 -10916.8 -4545.36 51638.4 22243.5 7082.21)
(2242.89 -19438.9 -5586.21 43706.7 14618.2 -1083.26)
(9990.12 -24270.9 -5911.51 33562.4 10393 -3755.91)
(17238.2 -25741.2 -5991.6 21970 7675.24 -6805.95)
(23504.3 -23937.3 -6010.15 10386.9 5575.73 -10412.5)
(27946.4 -19259 -6045.68 151.645 3499.68 -14439.3)
(30235.9 -12517 -5871.68 -6681.51 869.367 -18055.9)
(33202.2 -4884.91 -3742.07 -6050.33 -2766.9 -18082.3)
(32964.3 2780.96 5075.65 -5331.84 -3739.42 -18107.3)
(30646 10723 6853.97 -5936.85 -401.598 -17878.9)
(29591.7 18118.1 6732.46 295.109 2606.59 -13519.2)
(25648.5 23520.3 6508.39 9870.14 4809.53 -9078.46)
(19654.7 25865.7 6412.32 21055.1 6892.33 -5207.34)
(12417.1 24913.2 6348.19 31979.2 9582.37 -2313.8)
(4181.47 21243.9 6196.01 41220.6 13892.1 -504.947)
(-1740.01 15632.4 5798.99 51644.3 22477.7 6206.44)
(-3111.43 3869.27 2468.91 28012.6 28826.3 36598)
(-4311.66 443.479 -1605.56 3683.57 7190.54 52574.8)
(-5259.74 -1804.99 -5692.81 5680.98 17330.6 45614.9)
(-8031.96 -5593.4 -11231.6 3982.17 21239.3 32030.8)
(-8172.23 -9624.51 -16250.9 838.08 20697 19354.2)
(-6418.85 -12295.1 -20063.8 -4566.81 17753.2 8412.95)
(-3585.34 -12615.2 -22517.6 -10940.8 13901.5 -608.831)
(156.348 -10566 -23675.8 -15667.2 10236 -6832.41)
(2991.73 -6922.19 -23776.7 -18388 7506.86 -11664.5)
(10031.9 -3241.39 -20614.1 -18906.9 5458.44 -20190.7)
(10201.9 2217.53 19157.1 -18055.3 6059.26 -20956.5)
(5738.78 6343.32 21759.1 -17829.8 7952.97 -14586.5)
(1909.78 10490.1 22077.7 -17089.1 10254.9 -11872.6)
(-2228.25 13202.4 21478.8 -12884.7 13719 -6440.35)
(-5791.1 13455.4 19556.4 -6578.79 17628.6 2040.82)
(-8299.67 11011.5 16158.4 -1041.42 20781.6 12727.8)
(-9167.45 6875.16 11403.3 1362.32 21427.5 24983.7)
(-8538.89 3034.15 6004.69 227.672 17101.1 37215.5)
(-10739 1084.63 2083.23 -4742.06 6061.82 42562)
(-12322.9 73.635 2195.18 -4956.04 -8438.66 41524.4)
(-11797 -2377.26 6251.56 -228.331 -18919.7 34968.9)
(-12816.7 -6632.66 11625 446.681 -22504.1 22280.8)
(-12441.5 -11061.8 16311.9 -2657.06 -21404 9589.09)
(-10476.9 -13876.8 19727.1 -8866.37 -18029.8 -1347.4)
(-7322.12 -14138.1 21850.4 -15964.1 -13910.5 -9935.55)
(-3064.15 -11932.1 22827.7 -21043.4 -10026.6 -15367)
(459.02 -8045.91 22867.3 -23691.9 -7054.44 -19269.2)
(7931.66 -3921 19537.1 -22693.8 -5020.65 -25358.9)
(7630.25 1743.16 -20058.6 -18005.1 -6422.56 -20081.5)
(5226.61 5514.01 -22414.7 -14930.9 -8878.32 -9489.5)
(4007.83 9566.88 -22492.8 -12546.1 -11241 -3810.97)
(2494.85 12199.2 -21533.1 -6670.8 -14674 4362.48)
(1497.31 12238.6 -19193.2 1210.83 -18326.1 15139.9)
(823.519 9743.38 -15462.9 7472.43 -20958.8 26967.9)
(380.767 6003.14 -10575 9664.41 -21080.9 38695.5)
(513.381 2869.22 -5279.39 8646.76 -16761.8 49480.2)
(-2260.04 1377.47 -1478.32 4384.59 -6446.07 53659.9)
(-3478.89 560.907 1860.5 6446.8 -5619.13 50055.5)
(1846.16 -1024.64 4405.82 13939.3 -14888.2 52795.7)
(4415.6 -3625.61 8610.17 18581.6 -20720.6 49160.2)
(6358.96 -6628.99 13025.6 19631.8 -22392.4 41907.3)
(9501.37 -8853.3 16849.2 18096.9 -20666.8 34082.9)
(13525.5 -9491.76 19890.6 14976.4 -16561.2 26801.6)
(17009.6 -8367.86 22094.4 11224.8 -10727 20000.9)
(17198.5 -5870.97 23179.1 6709.35 -3346.17 11536)
(17410.6 -2715.1 21783.4 1704.01 4944.12 -1952.58)
(20605.2 1217.7 -18787.3 -5829.46 5587.21 -15490)
(2843.48 2938.06 -24788.7 -4950.4 -1329.39 5832.06)
(9374.9 4970.22 -22750.6 2567.63 -8578.08 20939.9)
(8149.72 6252.73 -19919.7 5139.23 -13548.3 28202)
(6159.87 6210.78 -16410 7930.45 -16536.3 35372.7)
(4013.4 4934.35 -12296.2 9431.32 -17425.8 41962.6)
(2440.29 3187.09 -7866.83 9497.43 -15786.9 47589.9)
(884.214 1917.8 -3874.97 8495.59 -11312.3 50866)
(-1908.1 1292.85 -1372.04 6804.43 -4494.82 50271.2)
(-2289.47 630.391 -1139.16 7227.84 3445.4 49861.9)
(1477.22 -462.324 -3325.51 11043.8 10893.4 51402.6)
(4022.26 -2205.37 -7218.62 13689.8 16076.5 49212.7)
(5919.06 -4407.1 -11685.2 14405.3 18240.4 44156.5)
(8744.67 -6258.78 -15880.1 13791.1 17661.8 38524.3)
(12435 -7033.24 -19399.8 12271.5 14858.5 33219.3)
(16194.5 -6469.33 -22058.8 10608.3 10245.3 28429.4)
(18127 -4865.99 -23617.5 8827.74 3982.51 22395.8)
(20873.1 -2954.39 -23175.1 6492.22 -3639.5 9702.33)
(28309.8 53.576 14740.4 -2568.48 -5463.03 -15099.7)
(6593.86 3479.98 24870.6 -7401.86 862.968 -4371.66)
(11024 7083.63 23757.7 -65.5212 8255.55 10094.8)
(8346.88 9341.66 21511.5 2779.24 13726.9 17529)
(5156.71 9491.91 18466.4 6244.7 17395.7 25350.7)
(2242.27 7657.46 14532.6 8526.01 19096.1 33347.7)
(128.349 4926.26 9862.19 8647.03 18051.6 40942.2)
(-1494.27 2726.83 5266.54 7091.92 13281.5 46745.4)
(-4357.07 1536.98 2181.86 4462.54 4757.8 48203.3)
(-3766.03 -597.663 2856.22 22597.2 -24051.9 40343.4)
(-6302.06 -10521.4 6211.28 55163.9 -27529.7 9999.24)
(-524.409 -19189.4 7241.87 46532.1 -18367.8 362.646)
(7434.48 -23916.2 7329.85 34662.9 -12984.7 -3284.87)
(14226.1 -25271.6 7098.45 22176.6 -9542.16 -7419.85)
(19976.6 -23464.7 6818.08 10264.3 -6743.3 -12128.7)
(24405.1 -18941.2 6595.46 311.775 -3790.57 -16767.2)
(27370.4 -12423.9 6174.31 -5454.69 -126.165 -20040.3)
(32024.8 -4907.26 4478.92 -2194.25 4629.94 -17979.6)
(34582.9 2453.44 -3984.36 565.857 6074.28 -16047.3)
(31882.3 10452 -7487.56 -2818.34 1107.89 -16631.9)
(30661.4 17599.7 -7639.97 1729.26 -3048.93 -12921.2)
(26537.6 22826.2 -7553.24 10373.6 -6029.63 -8639.45)
(20484.6 25275.3 -7645.93 20993.3 -8816.55 -4349.84)
(13479 24563.1 -7794.12 31836.8 -12329 -362.622)
(5962.27 21131.8 -7713.41 41512.6 -17722.6 3643.13)
(430.449 15393.1 -6953.65 50354.7 -26701.1 13727.3)
(-731.263 4094.42 -3105.47 24410.7 -23980 42336.8)
(-1270.97 -350.262 -2206.56 21430.6 21206.3 40848.5)
(-3642.63 -9802.26 -5741.24 48709 24870.8 11121.7)
(605.18 -18657.9 -7085.52 43232.8 17609.1 293.213)
(8236.19 -23609.5 -7430.69 32930.3 12677.2 -3676.57)
(15560.4 -25134.1 -7376.32 21591.7 9287.92 -7185.56)
(22142.8 -23482.6 -7193.28 10714.6 6579.69 -10736.3)
(27324.4 -19117.2 -6981.85 1555.29 3912.89 -14183.4)
(30563.2 -12789.6 -6521.52 -4108.51 737.569 -16937.3)
(33425.4 -5576.13 -4779.27 -2542.05 -3553.72 -16620.2)
(33485 1237.53 3819.14 39.257 -6000.76 -16713.1)
(30356.5 9271.06 7573.71 -1962.06 -2120.31 -17117.4)
(28580.8 16905.1 7779.47 1284.7 2176.75 -14011.6)
(24255.9 22550.1 7720.81 8931.84 5259.89 -10040)
(18486.6 25129.4 7787.71 19311.1 7987.81 -5666.9)
(11930.7 24375.7 7826.16 30127 11259.5 -1528.97)
(4402.19 21070.8 7607.39 39370.9 16002 1972.49)
(-1723.62 16114.8 6979.26 47934.1 23957.6 10424.7)
(-3151.31 4799.84 3835.03 22054.2 23020.4 39256.4)
(4578.29 1363.01 1056.42 16454.1 8639.49 58652.7)
(1880.87 -1061.72 -3680 18437.1 20485.2 51270.5)
(-2992.27 -5634.86 -10104.3 14681.8 24114.4 36288.9)
(-4949.43 -10286.6 -15644.8 8910.53 22554.8 21810.9)
(-5308.74 -13309.8 -19631 620.93 18773.6 8627.19)
(-4855.3 -13879.5 -22059.4 -8616 14525.2 -2900.15)
(-3697.02 -12108.3 -23168.3 -16196 10908.7 -11773.4)
(-1980.21 -8667.31 -23356.7 -19792.1 8617.68 -17467.9)
(-1415.54 -4792.57 -22006.7 -22140.9 7878.41 -26068.7)
(8272.1 2623.94 13846.1 -18791.4 8141.62 -31155.5)
(4077.64 6956.06 20680.1 -15263.6 10063.3 -16954.5)
(1494.43 11149.7 21218 -14506.1 11369.9 -13182.5)
(-647.711 13841.1 20759.2 -8775.71 14417.7 -6120.19)
(-1636.74 14083.5 18941.8 90.5857 18372.8 4646.95)
(-1692.01 11582.7 15517.1 8430.38 21966.6 17595.8)
(-646.1 7263.04 10513.3 13135 23280.9 31627.6)
(1663.97 3269.37 4527.37 13697.6 19301.6 45422.1)
(480.706 1570.69 -139.694 9628.36 7270.7 51698.2)
(-2061.25 1058.16 -195.178 9815.1 -9503.42 50144.7)
(-4899.55 -1626.4 4524.79 12942.8 -21447.3 40939)
(-8455.2 -6568.11 10579.7 10800.4 -24647.7 25865.2)
(-9871.27 -11488.1 15572.3 4898.09 -22697.2 11426.9)
(-9747.89 -14595.6 19086.1 -3917.7 -18762.7 -1121.97)
(-8775.18 -15099.7 21266.3 -13600.2 -14438 -11533.5)
(-7297.74 -13178 22380.2 -21618.8 -10637.7 -19303.1)
(-5131.06 -9567.61 22795.1 -25239.4 -7998.21 -23678.4)
(-5826.97 -5564.22 22119.9 -27581.7 -7056.41 -30973.7)
(6226.93 1843.26 -12952.3 -20181.5 -8070.84 -33713.2)
(2324.79 5801.74 -20995 -12829.7 -11509.5 -13684.2)
(1849.37 9998.99 -21451.5 -11080.7 -12790.3 -7064.14)
(1905.64 12775.9 -20723.5 -4400.75 -15749.1 2574.99)
(3286.05 12808.2 -18472.9 5794.56 -19485.9 15726.1)
(5185.78 10142.8 -14692.6 14892.5 -22590.8 30162.3)
(6669.04 6174.68 -9548.41 19309.8 -23436.2 43801.6)
(8384.25 2916.79 -3629.89 19959.1 -19390.2 55705.4)
(6656.99 1690.11 953.967 16313.7 -7611.49 59834.2)
(-7580.11 701.704 4149.33 4067 -4806.1 42807)
(-1879.87 -1157.19 6370.9 10048.7 -12585.3 46162.9)
(1864.97 -3609.19 10025.2 14231.9 -17751.2 44306)
(4554.68 -6233.56 13857.2 15659.1 -19650.9 38808.3)
(8333.7 -8132.76 17242.8 15283.1 -18533.2 32629.1)
(13333.8 -8679.62 20050.7 13790.4 -14874.7 26912.4)
(18226.9 -7671.06 22122.2 11693.8 -9241.3 21741.6)
(21258.3 -5289.35 23078.6 9793.72 -2154.43 16474.7)
(21827.3 -2001.81 22217.2 7548.8 5733.66 7559.27)
(32875.3 1588.71 -4738.63 -592.812 6748.51 -16987.5)
(2625.22 1219.31 -25171.8 -4331.32 1497.61 5487.33)
(9624.91 3295.15 -23017.6 2965.86 -5893.38 21473.6)
(6745.53 4747.56 -20195.5 2591.45 -11101.8 26182.7)
(3578.43 5146.87 -16809.1 3354.46 -14112.3 31504.3)
(427.568 4532.88 -13033.8 3712.96 -14889.9 36615.8)
(-2040.84 3443.28 -9112.34 3617.44 -13248.3 40916.3)
(-4457.03 2630.76 -5652.23 3355.2 -9180.9 42893.7)
(-7626.34 2065.04 -3516.9 3107.91 -3349.32 41651)
(-7554.71 1003.38 -3345.97 4492.53 3283.54 41797.1)
(-2848.96 -504.339 -5280.92 8112.35 9643.89 44628)
(1251.95 -2312.12 -8736.15 10803 14249.1 44390.2)
(4429.49 -4300.77 -12757.6 11813.2 16258.3 40998.5)
(8207.88 -5890.11 -16613.7 11772.2 15720.9 36713.5)
(12890 -6507.85 -19907.4 11201.7 12992.9 32799.3)
(17879.6 -5888.39 -22370.9 10728.7 8481.68 29671.9)
(22302.2 -4183.35 -23696.5 11284.4 2517.45 26966.9)
(25042.3 -1951.7 -23450.3 11789.1 -4615.35 20114.8)
(37131.8 830.194 -3376.5 3848.31 -7092.69 -11692.2)
(11357.8 1938.13 24573 -4697.13 -1635.47 -5597.19)
(12640.9 5525.23 24202 928.169 5928.06 9115.29)
(8219.93 7974.69 22028.3 1441.17 11736.9 15275)
(3498.97 8571.25 19090.2 2746.57 15481.9 21713.2)
(-404.847 7372.4 15436.7 3926.78 17044.2 28773.8)
(-3104.41 5224.57 11201.5 4138.01 15873.4 35623.8)
(-5488.86 3370.93 7107.56 3321.36 11353.6 40231.6)
(-8491.34 2113.9 4416.05 2165.59 3874.56 41063.4)
(-3701.49 -685.328 4755.44 18046.8 -18837.3 40701.1)
(-5531.19 -9325.55 7709.05 44696.2 -27005.7 14608.5)
(-1259.31 -17844.6 8908.03 42265 -20130.6 2412.83)
(5773.54 -22880.4 8929.73 32338 -14633 -2965.74)
(12538.8 -24535.1 8490.32 21029.3 -10759.6 -7550.13)
(18697.7 -23085.9 7971.1 10053.8 -7460.4 -12165)
(23707.3 -18992.4 7458.83 678.581 -4029.68 -16519.6)
(27079.7 -12861 6657.54 -5181.28 -145.247 -19667.1)
(30712.6 -5517.42 4861.35 -3294.19 4518.03 -18711)
(33493.4 1813.21 -1997.2 1183.03 7090.01 -16639.2)
(31572.9 9797.38 -8203.75 -928.062 2216.06 -15977.6)
(29529.2 16951.9 -8819.61 1425.87 -2817.85 -13437.8)
(25426.6 22065 -8918.81 9036.91 -6520.12 -9341.27)
(19533.6 24506.6 -9103.57 18784.2 -9954.73 -4754.7)
(12849.5 23967.4 -9316.87 28872.4 -14002.6 162.981)
(6090.37 20823.6 -9200.6 37767.9 -19538.2 6140.43)
(814.515 15162.6 -8204.45 42401.2 -26388.1 18200.2)
(-1124.34 5161.07 -4779.89 20198.6 -18712.6 42390.1)
(-2351.29 -122.321 -3902.41 18262.4 16930 40721.9)
(-4237.47 -8563.53 -7066.8 40447.9 25223.5 15110.4)
(-670.561 -17322.8 -8632.95 39241.5 19774.8 2105.99)
(6494.53 -22541.6 -9024.59 30509.2 14611.5 -3426.33)
(13966.1 -24338.1 -8882.73 20205.8 10664 -7352.2)
(20947.7 -23036.4 -8528.26 10138.8 7379.18 -10801.4)
(26715.5 -19074.7 -8042.06 1502.87 4246.21 -13895.3)
(30505.1 -13081.9 -7229.47 -4201.14 895.594 -16384)
(32760.5 -6037.03 -5487.57 -3919.56 -3194.48 -16856.6)
(32983.5 457.768 1249.46 308.902 -6697.12 -16976.6)
(30218.7 7955.69 8122.4 464.775 -3592.43 -16458.1)
(27342.1 15750.1 8888.89 1545.92 1604.81 -14653.4)
(22927.6 21457.7 9048.44 7843.49 5545.87 -10939.5)
(17211 24153.3 9251.65 17125.1 8955.81 -6298.55)
(11018.2 23591.4 9371.05 27192.4 12741.1 -1115.3)
(4479.72 20438.7 9080.95 35808.2 17558.7 4636.27)
(-928.557 15222.6 8119.52 40238.2 23518.2 15492.7)
(-2819.37 5369 5340.35 18291.8 17639.3 39997.2)
(9149.22 2591.79 3170.71 24052 9721.75 59751.7)
(4682.12 250.604 -1867.18 26491.3 23035.7 51230.5)
(-1476.47 -5223.34 -8911.32 22035.6 26624.6 35871.1)
(-5334.68 -10728.3 -14891.3 13611.1 24271 19989.8)
(-7485.42 -14322.2 -19041.7 2572.92 19804.9 5234.64)
(-8554.84 -15325.7 -21475.6 -9104.05 15228.1 -7760.73)
(-8907.32 -13936.2 -22624.4 -19176.6 11550 -18161.7)
(-7927.72 -10740.8 -23026.7 -24464 9215.38 -24525.7)
(-10481.6 -6685.64 -22481.5 -28725.6 8691.44 -33600)
(6585 1918.35 1807.97 -23702.5 7629.85 -42220.2)
(544.911 8035.69 19605.1 -15789 11861.1 -21511.9)
(-1493.44 12196.5 20272.8 -14756.4 12498 -16922.1)
(-2404.44 14723.5 19826.6 -7877.83 15112.8 -9102.32)
(-1601.98 14744 18124.6 2897.39 18945.8 2889.21)
(326.543 12071.5 14812.1 13520.9 22818.7 17353.1)
(3244.74 7544.76 9733.63 20466.1 24771.1 32937.2)
(6794.1 3416.94 3326.93 22172.5 21265.7 47817)
(6589.65 2131.48 -1970.96 18578.5 8486.5 55102.8)
(2776.6 2499.68 -2288.93 18731.8 -10271 52557.1)
(-3246.83 -219.432 2894.03 21235 -23665.5 40698.4)
(-8661.54 -6077.69 9546.4 17284.9 -26568.5 24157.8)
(-11385 -11743.2 14778.4 8801.52 -23820.9 8711.1)
(-12346.4 -15355.3 18331.1 -2203.98 -19437.9 -4541.55)
(-12462.2 -16293.9 20559.1 -13879.5 -15013.5 -15635.4)
(-12401.8 -14764.1 21864.8 -24271.8 -11254.4 -24468.2)
(-11203.4 -11427.6 22677.4 -29859.3 -8558.78 -29370.6)
(-15075.4 -7451.19 23084.7 -34589.9 -7579.24 -36995.5)
(3527.27 -64.4822 4489.23 -26860.6 -6726.2 -45419.1)
(-3228.78 6438.25 -19462.6 -15002.2 -13634.5 -21434.5)
(-3321.19 10578.7 -20266 -12662.3 -14363.7 -13422.1)
(-2085.59 13331.8 -19724.1 -5257.1 -16778.6 -2881.65)
(644.991 13252.9 -17618 6254.97 -20453.8 11380.9)
(4382.86 10394.9 -13886.2 17482.4 -23955.8 27554.2)
(7972.88 6164.61 -8582.9 24408.6 -25527.8 43224.8)
(11183.3 2745.07 -2199.29 26472.1 -21719.3 56204)
(11056.2 1942.97 2891.5 23292.8 -8593.29 61143.4)
(-9631.76 779.695 6409.99 2080.13 -4291.21 37987.4)
(-4169.53 -1175.47 8339.71 6836.97 -10896.5 41356.8)
(536.319 -3455.03 11536.3 10782.9 -15385.3 40835.5)
(4133.39 -5752.53 14889 12610.2 -17164.4 36845.1)
(8554.9 -7393.94 17883.1 13103.5 -16296.5 32089.2)
(14174.3 -7865.01 20418.8 12736.9 -12993.6 27623.5)
(19758.4 -6885.87 22278.3 11681.6 -7714.58 23430.9)
(23844 -4468.57 23059.2 10890.6 -1127.22 19379.9)
(24007.4 -969.57 22322.5 9409.06 6097.32 12041.2)
(31393.6 3566.82 11446 3449.15 8724.18 -10134.1)
(7221.15 -410.868 -25735.1 -1019.72 3745.54 7649.83)
(10847.5 1663.62 -23426 4034.73 -3101.66 23057.7)
(7342.86 3352.56 -20658.1 1899.45 -8422.54 26055.7)
(3171.07 4072.23 -17351.1 849.276 -11518.2 29344.3)
(-925.901 4021.32 -13802.9 69.7697 -12345.5 32790.8)
(-4411.01 3583.76 -10304.3 -471.244 -10861.1 35612.3)
(-7663.02 3212.74 -7327.7 -513.351 -7265.25 36514.3)
(-10643.8 2658.58 -5548.11 101.19 -2248.49 35557.9)
(-10014.3 1322.79 -5497.67 2069.29 3395.79 36552.9)
(-4949.79 -432.379 -7290.27 5671.12 8772.8 40002.6)
(256.883 -2283.5 -10413.6 8690.17 12675.5 41148.4)
(4535.4 -4121.2 -14061.2 10144.5 14339.9 39183)
(9125.28 -5518.06 -17603 10596.5 13693.6 36084.9)