/*--------------------------------*- C++ -*----------------------------------*\
| =========                 |                                                 |
| \\      /  F ield         | OpenFOAM: The Open Source CFD Toolbox           |
|  \\    /   O peration     | Version:  2312                                  |
|   \\  /    A nd           | Website:  www.openfoam.com                      |
|    \\/     M anipulation  |                                                 |
\*---------------------------------------------------------------------------*/
FoamFile
{
    version     2.0;
    format      ascii;
    arch        "LSB;label=32;scalar=64";
    class       volScalarField;
    location    "0.9";
    object      sigmaEq;
}
// * * * * * * * * * * * * * * * * * * * * * * * * * * * * * * * * * * * * * //

dimensions      [1 -1 -2 0 0 0 0];

internalField   nonuniform List<scalar> 
1620
(
56095.3
52759.4
49969.8
48975.7
49941.9
51586.4
52868.9
53558
53849.1
53989.1
54138.6
54371.8
54736.4
55369.4
56649.9
59059.8
61256.3
59661.5
56095.3
52759.4
49969.8
48975.7
49941.9
51586.4
52868.9
53558
53849.1
53989.1
54138.6
54371.8
54736.4
55369.4
56649.9
59059.8
61256.3
59661.5
52901.3
51648.6
51228.9
52214.4
54247.5
56215.6
57317.3
57501.2
57096.9
56437.7
55739.7
55119.6
54639.4
54334.7
54222.2
54267.9
54277.1
53926.9
52901.3
51648.6
51228.9
52214.4
54247.5
56215.6
57317.3
57501.2
57096.9
56437.7
55739.7
55119.6
54639.4
54334.7
54222.2
54267.9
54277.1
53926.9
55948.6
56036.9
56078
56688.9
57868.6
59263.7
60387.8
60795.7
60290.5
59027.5
57421.2
55889.5
54632.7
53654.3
52994.6
52911.9
53665.6
55010.3
55948.6
56036.9
56078
56688.9
57868.6
59263.7
60387.8
60795.7
60290.5
59027.5
57421.2
55889.5
54632.7
53654.3
52994.6
52911.9
53665.6
55010.3
55213.4
51907.5
49466.2
48737.6
50048
51954.2
53403.6
54243.2
54670.3
54894
55039.6
55159.6
55303.6
55628.5
56524.8
58748.1
61198.9
58890.8
55213.4
51907.5
49466.2
48737.6
50048
51954.2
53403.6
54243.2
54670.3
54894
55039.6
55159.6
55303.6
55628.5
56524.8
58748.1
61198.9
58890.8
51607
51623
53337.9
56477
59541.3
61133.3
61220.1
60354.7
59044.1
57638.6
56356.4
55295.8
54442.3
53666.2
52707.2
51460.8
50957
51913.8
51607
51623
53337.9
56477
59541.3
61133.3
61220.1
60354.7
59044.1
57638.6
56356.4
55295.8
54442.3
53666.2
52707.2
51460.8
50957
51913.8
62546.3
63245.9
63400.3
63147.8
62867
63196.9
64070.9
64827.5
64759.9
63544.9
61365.5
58759.9
56273.6
54177.4
52627.5
52195.7
53855.8
58317.9
62546.3
63245.9
63400.3
63147.8
62867
63196.9
64070.9
64827.5
64759.9
63544.9
61365.5
58759.9
56273.6
54177.4
52627.5
52195.7
53855.8
58317.9
53173.9
51360.8
49244.3
48990.5
51037.8
53502.4
55313.7
56403.4
56964.7
57168.8
57094.5
56754.6
56199.9
55598.8
55157.1
55550.9
56467.2
50300.7
53173.9
51360.8
49244.3
48990.5
51037.8
53502.4
55313.7
56403.4
56964.7
57168.8
57094.5
56754.6
56199.9
55598.8
55157.1
55550.9
56467.2
50300.7
49494.6
51376.6
54695.4
59646
63666.6
65076.5
64458.4
62800
60750.3
58681.3
56785.8
55097.9
53505.4
51775.2
49575.8
46833.7
45136.2
46809.2
49494.6
51376.6
54695.4
59646
63666.6
65076.5
64458.4
62800
60750.3
58681.3
56785.8
55097.9
53505.4
51775.2
49575.8
46833.7
45136.2
46809.2
54535.4
63278
66665.7
67342
66330.7
65884.1
66605
67745.8
68284.5
67545.4
65278.5
61619.4
57294.6
53590.2
51641.7
52361.8
55930.7
53395.1
54535.4
63278
66665.7
67342
66330.7
65884.1
66605
67745.8
68284.5
67545.4
65278.5
61619.4
57294.6
53590.2
51641.7
52361.8
55930.7
53395.1
50730.6
48692.9
46850.5
47453
50368.3
53285.1
55426.1
56857.6
57719
58102.9
58020.2
57415.6
56300
54982.4
54133.6
54769.9
55909.9
53301.7
50730.6
48692.9
46850.5
47453
50368.3
53285.1
55426.1
56857.6
57719
58102.9
58020.2
57415.6
56300
54982.4
54133.6
54769.9
55909.9
53301.7
50667.7
50019.3
51109.8
54911.4
59155.9
61385.1
61664.5
60788.1
59317.8
57567.7
55654.8
53517.1
51055.9
48589.5
46952.1
46374.1
46933.2
49563.3
50667.7
50019.3
51109.8
54911.4
59155.9
61385.1
61664.5
60788.1
59317.8
57567.7
55654.8
53517.1
51055.9
48589.5
46952.1
46374.1
46933.2
49563.3
57281.4
58350.9
61409.2
64274.2
65693.7
66821.4
68507.9
70246.1
71153.1
70640.5
68273.1
63579.2
57115.8
51996.9
51056.5
54097.4
60370.7
61505.8
57281.4
58350.9
61409.2
64274.2
65693.7
66821.5
68507.9
70246.1
71153.1
70640.5
68273.1
63579.2
57115.8
51996.9
51056.5
54097.4
60370.7
61505.8
50466.4
47023.3
43526.3
44148.4
47746.9
51096.7
53513.4
55194.7
56305.8
56935.3
57093.3
56703.7
55781.6
54907.8
55078.2
55909.8
55232
52880.2
50466.4
47023.3
43526.3
44148.4
47746.9
51096.7
53513.4
55194.7
56305.8
56935.3
57093.3
56703.7
55781.6
54907.8
55078.2
55909.8
55232
52880.2
50805.8
49856.4
48196.8
49196.1
52953.5
55973.3
57308.9
57411.6
56688.1
55339.2
53381.5
50679.7
47366.6
45073
45677
47532.4
49082.9
50375
50805.8
49856.4
48196.8
49196.1
52953.5
55973.3
57308.9
57411.6
56688.1
55339.2
53381.5
50679.7
47366.6
45073
45677
47532.4
49082.9
50375
59667.6
59124.1
60280.1
62562.6
65369.9
68297.5
71001.8
72981.8
73718.6
72876.6
69971.8
64127.8
55853.5
50235.6
50551.2
53575.3
57655.3
60590.7
59667.6
59124.1
60280.1
62562.6
65369.9
68297.5
71001.8
72981.8
73718.6
72876.6
69971.8
64127.8
55853.5
50235.6
50551.2
53575.3
57655.3
60590.7
49812.1
46723.1
42574.5
41543
44621
48112.9
50724.4
52554.3
53821.9
54673.8
55201.8
55469.5
55660
56201.4
56914.9
56520.2
54629.2
52199
49812.1
46723.1
42574.5
41543
44621
48112.9
50724.4
52554.3
53821.9
54673.8
55201.8
55469.5
55660
56201.4
56914.9
56520.2
54629.2
52199
50670.9
49812.2
47495.6
46101.1
48542.3
51831.5
53873.1
54639.2
54373.3
53177.9
51007.4
47752.3
44010.3
42692.6
45232.7
48105.4
49775.4
50574.9
50670.9
49812.2
47495.6
46101.1
48542.3
51831.5
53873.1
54639.2
54373.3
53177.9
51007.4
47752.3
44010.3
42692.6
45232.7
48105.4
49775.4
50574.9
60831
61669.5
62731.3
64918.6
68421
72102.1
74676.4
75907.7
75727.3
73963.9
70092.9
63179.9
54072.4
48864.9
49806.7
52389.3
55248.7
58565
60831
61669.5
62731.3
64918.6
68421
72102.1
74676.4
75907.7
75727.3
73963.9
70092.9
63179.9
54072.4
48864.9
49806.7
52389.3
55248.7
58565
49413
46814.2
43288.4
40916.8
42295.9
45239.1
47794.6
49681.9
51079.1
52196.8
53238.2
54402
55837.6
57274.9
57576.3
56169.2
53934.5
51646.7
49413
46814.2
43288.4
40916.8
42295.9
45239.1
47794.6
49681.9
51079.1
52196.8
53238.2
54402
55837.6
57274.9
57576.3
56169.2
53934.5
51646.7
50321.1
49578
47588.1
45344.9
46111.5
48923.4
51232.9
52368.7
52325.7
51119
48712.3
45190.6
41787.4
41797.6
45212.8
48222
49801.3
50382.3
50321.1
49578
47588.1
45344.9
46111.5
48923.4
51232.9
52368.7
52325.7
51119
48712.3
45190.6
41787.4
41797.6
45212.8
48222
49801.3
50382.3
60367.1
63579.1
66258.8
69268
73050.6
76340.9
77848.6
77743.9
76287.8
73385.9
68528
60998.2
52211.5
48003
49181
51534.2
53919.8
56810.5
60367.1
63579.1
66258.8
69268
73050.6
76340.9
77848.6
77743.9
76287.8
73385.9
68528
60998.2
52211.5
48003
49181
51534.2
53919.8
56810.5
49117.5
46929.5
44092.8
41424.1
41185.7
43050.1
45232.5
47063.4
48580.9
49997.2
51535.5
53343.1
55309.8
56713.9
56569.6
55042.9
53070.6
51090
49117.5
46929.5
44092.8
41424.1
41185.7
43050.1
45232.5
47063.4
48580.9
49997.2
51535.5
53343.1
55309.8
56713.9
56569.6
55042.9
53070.6
51090
49747.3
49049.3
47453.2
45297.8
44866.2
46681.6
48745.1
49905.5
49877
48606.4
46139.8
42888.6
40612.6
41878.2
45353.2
48055.9
49445.3
49899.4
49747.3
49049.3
47453.2
45297.8
44866.2
46681.6
48745.1
49905.5
49877
48606.4
46139.8
42888.6
40612.6
41878.2
45353.2
48055.9
49445.3
49899.4
59075.2
63548.3
68181.5
72387.3
76053.2
78394.6
78725.6
77445.1
74943.4
71168.9
65702.2
58230
50710.5
47728.5
48930.1
51073
53198.5
55623.2
59075.2
63548.3
68181.5
72387.3
76053.2
78394.6
78725.6
77445.1
74943.4
71168.9
65702.2
58230
50710.5
47728.5
48930.1
51073
53198.5
55623.2
48696.4
46816
44449.6
41955.4
40820.7
41593.4
43219.5
44902.4
46503.1
48144.5
49964.9
51978.8
53890.1
54985.7
54757.9
53568.6
52024.8
50386
48696.4
46816
44449.6
41955.4
40820.7
41593.4
43219.5
44902.4
46503.1
48144.5
49964.9
51978.8
53890.1
54985.7
54757.9
53568.6
52024.8
50386
48918.1
48198.2
46822.2
44965.6
43978.8
44752.8
46183.5
47061.1
46902
45620.7
43400.5
41004.3
40248.6
42308.2
45385.4
47627.2
48789.9
49139.6
48918.1
48198.2
46822.2
44965.6
43978.8
44752.8
46183.5
47061.1
46902
45620.7
43400.5
41004.3
40248.6
42308.2
45385.4
47627.2
48789.9
49139.6
57889.5
62306.8
67689.9
72609
76048.7
77564.4
77088.4
75108.6
72032.4
67856
62333.3
55660.9
49974.5
48094.2
49147.5
50990.5
52862.3
54928.8
57889.5
62306.8
67689.9
72609
76048.7
77564.4
77088.4
75108.6
72032.4
67856
62333.3
55660.9
49974.5
48094.2
49147.5
50990.5
52862.3
54928.8
47953.1
46307.6
44292
42129.6
40726.4
40742.1
41790.6
43237.3
44819.7
46533.4
48411.3
50365.8
52046.4
52923.4
52791.3
51946.3
50752.6
49401.5
47953.1
46307.6
44292
42129.6
40726.4
40742.1
41790.6
43237.3
44819.7
46533.4
48411.3
50365.8
52046.4
52923.4
52791.3
51946.3
50752.6
49401.5
47763.7
46982
45689.8
44068.4
42894.2
42856.3
43500.9
43913.9
43586.9
42459.2
40876
39764.7
40352.9
42617.6
45120.6
46896.1
47825.3
48063.5
47763.7
46982
45689.8
44068.4
42894.2
42856.3
43500.9
43913.9
43586.9
42459.2
40876
39764.7
40352.9
42617.6
45120.6
46896.1
47825.3
48063.5
57063.2
60857.2
65787.9
70471.3
73511.6
74480.1
73604.4
71382.6
68201.1
64140.4
59203.7
53984.4
50183.5
49059.9
49834.1
51269.4
52826
54583.5
57063.2
60857.2
65787.9
70471.3
73511.6
74480.1
73604.4
71382.6
68201.1
64140.4
59203.7
53984.4
50183.5
49059.9
49834.1
51269.4
52826
54583.5
46759.5
45357.2
43728.7
42039.8
40801
40482.7
41056.1
42176.7
43591.9
45215.5
46995.4
48765
50173.7
50865.4
50779.1
50126.8
49148.5
48005.2
46759.5
45357.2
43728.7
42039.8
40801
40482.7
41056.1
42176.7
43591.9
45215.5
46995.4
48765
50173.7
50865.4
50779.1
50126.8
49148.5
48005.2
46212.6
45370.3
44135
42702.4
41509.6
40945.6
40881
40824.8
40431.6
39718.5
39088.9
39228.7
40541.1
42566.2
44478.7
45818.3
46504.6
46607.7
46212.6
45370.3
44135
42702.4
41509.6
40945.6
40881
40824.8
40431.6
39718.5
39088.9
39228.7
40541
42566.2
44478.7
45818.3
46504.6
46607.7
56519.3
59538.6
63420.1
67146.8
69528.7
70119.6
69140.2
67037.1
64187.6
60784.5
57031.6
53532.3
51215
50482.7
50901.9
51861.5
53042
54483.8
56519.3
59538.6
63420.1
67146.8
69528.7
70119.6
69140.2
67037.1
64187.6
60784.5
57031.6
53532.3
51215
50482.7
50901.9
51861.5
53042
54483.8
45164.5
44134.3
43053.1
42005.5
41216.2
40922.5
41198.5
41949.5
43054.6
44429.2
45952.4
47384.2
48410.4
48824.4
48640.3
48017.4
47140.9
46163.9
45164.5
44134.3
43053.1
42005.5
41216.2
40922.5
41198.5
41949.5
43054.6
44429.2
45952.4
47384.2
48410.4
48824.4
48640.3
48017.4
47140.9
46163.9
44247.4
43429
42359.1
41193.9
40146.8
39391.7
38934.2
38629.3
38361.2
38199.3
38403.2
39220.7
40591.4
42139.3
43472.2
44372.4
44780
44719.8
44247.4
43429
42359.1
41193.9
40146.8
39391.7
38934.2
38629.3
38361.2
38199.3
38403.2
39220.7
40591.4
42139.3
43472.2
44372.4
44780
44719.8
56182.1
58396.8
61088.6
63622.8
65238.8
65567.1
64710.8
63023.5
60877.2
58523.1
56163.3
54113.1
52724.1
52131.5
52200.4
52702
53494.4
54599.8
56182.1
58396.8
61088.6
63622.8
65238.8
65567.1
64710.8
63023.5
60877.2
58523.1
56163.3
54113.1
52724.1
52131.5
52200.4
52702
53494.4
54599.8
43581.1
43101.2
42695.3
42344.3
42086.1
41991.1
42125.1
42538.5
43264.9
44265.3
45362.2
46281.8
46793.8
46816
46408.9
45718.4
44923.6
44184.5
43581.1
43101.2
42695.3
42344.3
42086.1
41991.1
42125.1
42538.5
43264.9
44265.3
45362.2
46281.8
46793.8
46816
46408.9
45718.4
44923.6
44184.5
42018.4
41400.4
40693.4
39966.3
39286
38714
38290.6
38030.3
37955.1
38135.6
38656.1
39502.3
40513.6
41470.5
42200.6
42614.1
42694.1
42474.4
42018.4
41400.4
40693.4
39966.3
39286
38714
38290.6
38030.3
37955.1
38135.6
38656.1
39502.3
40513.6
41470.5
42200.6
42614.1
42694.1
42474.4
56173
57641.5
59305.3
60819.1
61781.7
61950.2
61352.3
60240.2
58920.7
57588.1
56322.8
55200.1
54331.1
53806.9
53647.6
53817.4
54282.6
55053.5
56173
57641.5
59305.3
60819.1
61781.7
61950.2
61352.3
60240.2
58920.7
57588.1
56322.8
55200.1
54331.1
53806.8
53647.6
53817.4
54282.6
55053.5
42743.3
42812.3
42957.8
43100
43192.3
43229.9
43265.8
43419.6
43810.5
44412
45008.8
45356.9
45341
44985.1
44400.4
43745.2
43187.9
42846.8
42743.3
42812.3
42957.8
43100
43192.3
43229.9
43265.8
43419.6
43810.5
44412
45008.8
45356.9
45341
44985.1
44400.4
43745.2
43187.9
42846.8
40062.3
39770
39534.4
39341.7
39170.5
39008.2
38860.5
38764.7
38795.8
39029.4
39469.8
40020.4
40534.9
40892.3
41033.5
40960.3
40722.4
40397
40062.3
39770
39534.4
39341.7
39170.5
39008.2
38860.5
38764.7
38795.8
39029.4
39469.8
40020.4
40534.9
40892.3
41033.5
40960.3
40722.4
40397
57048.1
57918.1
58829.4
59606.2
60060.1
60075.5
59683.3
59047.4
58351
57689.8
57071.7
56494.2
55996.4
55643.4
55485.9
55545.7
55828.5
56334.1
57048.1
57918.1
58829.4
59606.2
60060.1
60075.5
59683.3
59047.4
58351
57689.8
57071.7
56494.2
55996.4
55643.4
55485.9
55545.7
55828.5
56334.1
44484.4
44860.1
45212.3
45446.9
45517
45452.1
45342.8
45288.8
45339.4
45465.5
45566.9
45525.5
45286.8
44899.6
44485.4
44178.7
44073.6
44191.7
44484.4
44860.1
45212.3
45446.9
45517
45452.1
45342.8
45288.8
45339.4
45465.5
45566.9
45525.5
45286.8
44899.6
44485.4
44178.7
44073.6
44191.7
39036.7
38880.4
38878
39005.6
39223.1
39486.6
39766.2
40046.8
40318.2
40565.4
40770.2
40910.5
40951.8
40853
40594.5
40204.3
39756.6
39342.2
39036.7
38880.4
38878
39005.6
39223.1
39486.6
39766.2
40046.8
40318.2
40565.4
40770.2
40910.5
40951.8
40853
40594.5
40204.3
39756.6
39342.2
58922.1
59409.8
59868
60184.7
60256.6
60056.5
59649.5
59141
58616.8
58128.1
57714.3
57415.6
57267
57281.8
57444.6
57718.8
58066.8
58469
58922.1
59409.8
59868
60184.7
60256.6
60056.5
59649.5
59141
58616.8
58128.1
57714.3
57415.6
57267
57281.8
57444.6
57718.8
58066.8
58469
)
;

boundaryField
{
    fixed
    {
        type            calculated;
        value           nonuniform List<scalar> 
108
(
56142.1
53296.6
50623.2
49362.4
49982.3
51404.9
52604.2
53289.1
53606.5
53781.8
53972
54258
54703.3
55477.7
57022.5
59770.6
61716.2
59476.5
56142.1
53296.6
50623.2
49362.4
49982.3
51404.9
52604.2
53289.1
53606.5
53781.8
53972
54258
54703.3
55477.7
57022.5
59770.6
61716.2
59476.5
53040.9
52004.9
51371.4
51822.1
53272.2
54902
55989.4
56374
56254.8
55883.4
55440
55035.7
54749
54643.2
54726.2
54801.5
54482.2
53858.3
53040.9
52004.9
51371.4
51822.1
53272.2
54902
55989.4
56374
56254.8
55883.4
55440
55035.7
54749
54643.2
54726.2
54801.5
54482.2
53858.3
55966.1
55902.6
55524.4
55609.6
56334.3
57462.7
58572.5
59225
59156.2
58391.3
57208.3
55957.1
54854.8
53947.3
53284.2
53115.2
53753.3
55037.1
55966.1
55902.6
55524.4
55609.6
56334.3
57462.7
58572.5
59225
59156.2
58391.3
57208.3
55957.1
54854.8
53947.3
53284.2
53115.2
53753.3
55037.1
)
;
    }
    inside
    {
        type            calculated;
        value           nonuniform List<scalar> 
540
(
59792.9
58971.3
58150
57989.8
58419
59125.4
59737.9
59918.4
59474.5
58449.2
57116.2
55823.9
54802.3
54158.5
54070
54905.4
56912.5
59168.7
59792.9
58971.3
58150
57989.8
58419
59125.4
59737.9
59918.4
59474.5
58449.2
57116.2
55823.9
54802.3
54158.5
54070
54905.4
56912.5
59168.7
80623.6
70682.1
65105.8
62390.5
61549.1
62302.6
64049.4
65889
66904.1
66408.2
64257.4
61108.6
58076.8
56003.7
55474.6
57873.5
66392.2
81073.9
80623.6
70682.1
65105.8
62390.5
61549.1
62302.6
64049.4
65889
66904.1
66408.2
64257.4
61108.6
58076.8
56003.7
55474.6
57873.5
66392.2
81073.9
66379.1
72201.6
68554.5
65576.8
64212.9
65637.6
69549
74559.7
78722.1
80034.7
77157.5
70620.3
63320.3
58493.7
57759.1
63728.9
80292.3
71577.2
66379.1
72201.6
68554.5
65576.8
64212.9
65637.6
69549
74559.7
78722.1
80034.7
77157.5
70620.3
63320.3
58493.7
57759.1
63728.9
80292.3
71577.2
71263.5
64824.2
64744.3
65367.5
66609.1
70721.5
78219
87446.6
95260
98100.1
93671.9
82696.4
69855.4
61475.2
60177.1
66879.9
85608.9
91215.6
71263.5
64824.2
64744.3
65367.5
66609.1
70721.5
78219
87446.6
95260
98100.1
93671.9
82696.4
69855.4
61475.2
60177.1
66879.9
85608.9
91215.6
72656.9
66028.3
65043.6
67033.4
71730.1
80271.5
92234
105154
114729
116521
108774
93471.8
76134.3
64547.9
61319.3
63840.2
72075.1
79620.9
72656.9
66028.3
65043.6
67033.4
71730.1
80271.5
92234
105154
114729
116521
108774
93471.8
76134.3
64547.9
61319.3
63840.2
72075.1
79620.9
71841.2
70112.6
70049.2
73704.6
82072
94982.9
110154
124209
132418
130826
119208
100711
80739.6
66836
61290.5
60533.5
63320.5
69280.3
71841.2
70112.6
70049.2
73704.6
82072
94982.9
110154
124209
132418
130826
119208
100711
80739.6
66836
61290.5
60533.5
63320.5
69280.3
68669.2
73052.5
77325.8
84323.1
95956.4
111113
126488
138524
143155
137837
123502
103442
82580.9
67716.1
60865.1
58741.4
59575.7
63310.2
68669.2
73052.5
77325.8
84323.1
95956.4
111113
126488
138524
143155
137837
123502
103442
82580.9
67716.1
60865.1
58741.4
59575.7
63310.1
65236.5
72740.2
82368.3
94119.4
108284
123339
136340
144546
145305
137410
122060
102058
81956.3
67625.9
60562.2
57992.3
58036.1
60329.6
65236.5
72740.2
82368.3
94119.4
108284
123339
136340
144546
145305
137410
122060
102058
81956.3
67625.9
60562.2
57992.3
58036.1
60329.6
63058.3
70847.8
83157.2
98502.8
114269
128097
137977
142484
140463
131544
116686
98194.4
80246.5
67452.3
60728.7
57991.9
57601.2
59089.2
63058.3
70847.8
83157.2
98502.8
114269
128097
137977
142484
140463
131544
116686
98194.4
80246.5
67452.3
60728.7
57991.9
57601.2
59089.2
62226.2
69278.6
81420.8
97276.7
112885
125027
132302
134326
131003
122440
109342
93614.3
78689.1
67784.1
61530.5
58645.3
57919.3
58937
62226.2
69278.6
81420.8
97276.7
112885
125027
132302
134326
131003
122440
109342
93614.3
78689
67784.1
61530.5
58645.3
57919.3
58937
62504.2
68626.2
79083.2
92809.1
106282
116330
121732
122518
119124
111969
101618
89450.3
77794
68741.1
62961.1
59933.3
58931.6
59655.9
62504.2
68626.2
79083.2
92809.1
106282
116330
121732
122518
119124
111969
101618
89450.3
77794
68741.1
62961.1
59933.3
58931.6
59655.9
63889.3
69015.2
77216
87630.1
97881.8
105580
109563
109854
107086
101872
94636.3
86079.4
77465.2
70165.1
64981.5
61967
60820.4
61376.9
63889.3
69015.2
77216
87630.1
97881.8
105580
109563
109854
107086
101872
94636.3
86079.4
77465.2
70165.1
64981.5
61967
60820.4
61376.9
66953.3
71039.9
77013.1
84200.8
91211.1
96502
99121
99068.6
97022.1
93615.7
89069.6
83540.5
77588.1
72117.7
67904.8
65279.4
64242
64760.4
66953.3
71039.9
77013.1
84200.8
91211.1
96502
99121
99068.6
97022.1
93615.7
89069.6
83540.5
77588.1
72117.7
67904.8
65279.4
64242
64760.4
73835.5
76924.5
80948.6
85384
89414.4
92171.9
93166
92560
90934.5
88744
86065.3
82854.2
79322.3
75969.6
73313.8
71678.2
71195.1
71909.2
73835.5
76924.5
80948.6
85384
89414.4
92171.9
93166
92560
90934.5
88743.9
86065.3
82854.2
79322.3
75969.6
73313.8
71678.2
71195.1
71909.2
86095.1
88541.6
91251.8
93791.3
95536.4
95998.1
95123.2
93247.9
90818.4
88185.4
85614.9
83358.6
81670.6
80741
80627.4
81244.3
82430.7
84058.2
86095.1
88541.6
91251.8
93791.3
95536.4
95998.1
95123.2
93247.9
90818.4
88185.4
85614.8
83358.6
81670.6
80741
80627.4
81244.3
82430.7
84058.2
)
;
    }
    outside
    {
        type            calculated;
        value           nonuniform List<scalar> 
540
(
59594.7
55750.1
52400.6
50200.9
49809.2
50559.2
51535.4
52315.6
52855.7
53255.1
53629.4
54071.3
54675
55647.5
57550.3
61315.7
65605.8
64373.7
59594.7
55750.1
52400.6
50200.9
49809.2
50559.2
51535.4
52315.6
52855.7
53255.1
53629.4
54071.3
54675
55647.5
57550.3
61315.7
65605.8
64373.7
58246.3
54104.4
50946.1
48930.9
48856.5
50007
51350.8
52451
53283.7
53944
54517.4
55059.5
55665.1
56656.5
58995.9
64864.6
71592.6
65308.3
58246.3
54104.4
50946.1
48930.9
48856.5
50007
51350.8
52451
53283.7
53944
54517.4
55059.5
55665.1
56656.5
58995.9
64864.6
71592.6
65308.3
54462.3
52904.9
49807.3
47635.7
47832
49480.4
51355.6
52967.6
54268.5
55343.2
56246.6
56964.6
57545
58419.4
60948.4
69043
75112.7
53376.4
54462.3
52904.9
49807.3
47635.7
47832
49480.4
51355.6
52967.6
54268.5
55343.2
56246.6
56964.6
57545
58419.4
60948.4
69043
75112.7
53376.4
52960.7
51177.2
48248.9
46462.4
47293.8
49465.5
51769.3
53790.3
55495.1
56986
58328.2
59463.4
60349.5
61460.6
64510.3
73058.3
76892.4
58232.8
52960.7
51177.2
48248.9
46462.4
47293.8
49465.5
51769.3
53790.3
55495.1
56986
58328.2
59463.4
60349.5
61460.6
64510.3
73058.3
76892.4
58232.8
55087.2
50881.9
47000.5
45231
46390.7
48863.6
51507.6
53921
56073
58116.7
60224.5
62445.5
64721.6
67243.7
70667.2
74525.7
72494.6
61928
55087.2
50881.9
47000.5
45231
46390.7
48863.6
51507.6
53921
56073
58116.7
60224.5
62445.5
64721.6
67243.7
70667.2
74525.7
72494.6
61928
56059.2
51789.1
47544.1
44896.2
45419.9
47697.2
50448.7
53185.3
55853.1
58659.3
61924.4
65868.2
70301
74176.8
75589.2
73454.1
68224.5
61539
56059.2
51789.1
47544.1
44896.2
45419.9
47697.2
50448.7
53185.3
55853.1
58659.3
61924.4
65868.2
70301
74176.8
75589.2
73454.1
68224.5
61539
56362.5
52811.4
49024.2
45847.3
45250.3
46845.2
49376.5
52255.5
55398.3
59019.4
63441.5
68747.9
74171.4
77408.1
75970.3
70810.7
65071.7
60275.6
56362.5
52811.4
49024.2
45847.3
45250.3
46845.2
49376.5
52255.5
55398.3
59019.4
63441.5
68747.9
74171.4
77408.1
75970.3
70810.7
65071.7
60275.6
56196.3
53410.6
50295.7
47261.6
45901.6
46708.8
48844.1
51705.2
55153.2
59293.3
64222.7
69648.8
74291.5
75712.5
72675.2
67396.7
62633.2
59072.1
56196.3
53410.6
50295.7
47261.6
45901.6
46708.8
48844.1
51705.2
55153.2
59293.3
64222.7
69648.8
74291.5
75712.5
72675.2
67396.7
62633.2
59072.1
55742.9
53502.2
50975.3
48401.1
46868.1
47139.1
48875.8
51573.4
55008.7
59106.3
63712.4
68269.6
71397.2
71362.4
68213.8
64079.7
60601.7
57967
55742.9
53502.2
50975.3
48401.1
46868.1
47139.1
48875.8
51573.4
55008.7
59106.3
63712.4
68269.6
71397.2
71362.4
68213.8
64079.7
60601.7
57967
55023.5
53158.4
51095.8
49049.1
47731.7
47786.7
49172.6
51527.8
54580
58134.9
61907
65254
67044
66429
63995.5
61166.1
58763.3
56808
55023.5
53158.4
51095.8
49049.1
47731.7
47786.7
49172.6
51527.8
54580
58134.9
61907
65254
67044
66429
63995.5
61166.1
58763.3
56808
53891.7
52358.3
50734.5
49228.5
48284.4
48310.2
49355.5
51201.3
53610.1
56369.2
59156.9
61387.5
62342.3
61772.4
60214
58426.7
56798.1
55333.7
53891.7
52358.3
50734.5
49228.5
48284.4
48310.2
49355.5
51201.3
53610.1
56369.2
59156.9
61387.5
62342.3
61772.4
60214
58426.7
56798.1
55333.7
52118.2
50992.7
49879.2
48929.8
48376
48421.1
49120.8
50388.1
52084.3
54025.9
55900.4
57265.1
57765.7
57402.2
56493.8
55391.1
54284.4
53206.8
52118.2
50992.7
49879.2
48929.8
48376
48421.1
49120.7
50388.1
52084.3
54025.9
55900.4
57265.1
57765.7
57402.2
56493.8
55391.1
54284.4
53206.8
49570.8
48986.2
48458.7
48043
47821.5
47876
48264.2
49010.8
50081.3
51318.7
52433.2
53134.6
53298.2
52991.5
52381.9
51639.9
50891.7
50200.6
49570.8
48986.2
48458.7
48043
47821.5
47876
48264.2
49010.8
50081.3
51318.7
52433.2
53134.6
53298.2
52991.5
52381.9
51639.9
50891.7
50200.6
46625.3
46615.5
46626.4
46631.5
46632.5
46659.4
46780.5
47094
47644.4
48308.1
48831.4
49025.9
48870.7
48456
47911.1
47372.4
46955.8
46715.4
46625.3
46615.5
46626.4
46631.5
46632.5
46659.4
46780.5
47094
47644.4
48308.1
48831.4
49025.9
48870.7
48456
47911.1
47372.4
46955.8
46715.4
44627.7
45003.3
45351.3
45578.3
45640
45567.9
45453.9
45398
45448.8
45576.4
45679.3
45638.7
45400.3
45014.5
44604.3
44303.9
44206.1
44330.9
44627.7
45003.3
45351.3
45578.3
45640
45567.9
45453.9
45398
45448.8
45576.4
45679.3
45638.7
45400.3
45014.5
44604.3
44303.9
44206.1
44330.9
)
;
    }
}


// ************************************************************************* //
