/*--------------------------------*- C++ -*----------------------------------*\
| =========                 |                                                 |
| \\      /  F ield         | OpenFOAM: The Open Source CFD Toolbox           |
|  \\    /   O peration     | Version:  2312                                  |
|   \\  /    A nd           | Website:  www.openfoam.com                      |
|    \\/     M anipulation  |                                                 |
\*---------------------------------------------------------------------------*/
FoamFile
{
    version     2.0;
    format      ascii;
    arch        "LSB;label=32;scalar=64";
    class       volVectorField;
    location    "0.9";
    object      U;
}
// * * * * * * * * * * * * * * * * * * * * * * * * * * * * * * * * * * * * * //

dimensions      [0 1 -1 0 0 0 0];

internalField   nonuniform List<vector> 
1620
(
(0.000192721 0.000136155 2.25756e-05)
(0.000153611 6.62763e-05 -0.00013922)
(0.000129315 -8.39592e-06 -0.000230626)
(0.00010399 -3.89303e-05 -0.000253294)
(7.64949e-05 -3.66984e-05 -0.000230069)
(5.51358e-05 -2.6237e-05 -0.000182035)
(4.48336e-05 -1.76384e-05 -0.00012717)
(4.24454e-05 -1.01167e-05 -7.84303e-05)
(4.02304e-05 -1.91999e-06 -4.25521e-05)
(3.06156e-05 5.94902e-06 -2.13264e-05)
(9.33897e-06 1.1693e-05 -1.27243e-05)
(-2.31963e-05 1.74498e-05 -1.04504e-05)
(-6.3192e-05 3.19764e-05 -2.40389e-06)
(-0.000108039 6.26937e-05 2.95668e-05)
(-0.000159268 9.42553e-05 0.000102188)
(-0.000214561 7.80683e-05 0.000205181)
(-0.000252547 -1.86267e-05 0.000264846)
(-0.000241064 -0.000123665 0.000188649)
(-0.000192721 -0.000136155 2.25756e-05)
(-0.000153611 -6.62763e-05 -0.00013922)
(-0.000129315 8.39591e-06 -0.000230626)
(-0.00010399 3.89303e-05 -0.000253294)
(-7.64949e-05 3.66984e-05 -0.000230069)
(-5.51358e-05 2.6237e-05 -0.000182035)
(-4.48336e-05 1.76384e-05 -0.00012717)
(-4.24454e-05 1.01167e-05 -7.84303e-05)
(-4.02304e-05 1.91999e-06 -4.25521e-05)
(-3.06157e-05 -5.94902e-06 -2.13264e-05)
(-9.33898e-06 -1.1693e-05 -1.27243e-05)
(2.31963e-05 -1.74498e-05 -1.04504e-05)
(6.3192e-05 -3.19764e-05 -2.40389e-06)
(0.000108039 -6.26937e-05 2.95668e-05)
(0.000159268 -9.42553e-05 0.000102188)
(0.000214561 -7.80683e-05 0.000205181)
(0.000252547 1.86267e-05 0.000264846)
(0.000241064 0.000123665 0.000188649)
(0.000192469 7.1187e-05 1.62102e-05)
(0.000215911 2.45381e-05 -6.58079e-05)
(0.000227943 -7.35371e-06 -0.000121797)
(0.000221941 -7.11617e-06 -0.000149717)
(0.000199624 1.21685e-05 -0.000157885)
(0.000169327 3.48837e-05 -0.000152149)
(0.000138534 5.44131e-05 -0.00013854)
(0.000109876 7.06953e-05 -0.000122667)
(8.19997e-05 8.51999e-05 -0.000107415)
(5.19841e-05 9.81761e-05 -9.24771e-05)
(1.76885e-05 0.000108146 -7.53019e-05)
(-1.99978e-05 0.000113041 -5.23521e-05)
(-5.65144e-05 0.000111875 -2.02172e-05)
(-8.71074e-05 0.000103433 2.29637e-05)
(-0.000112048 8.05635e-05 7.38393e-05)
(-0.00013516 3.14102e-05 0.000117789)
(-0.000155391 -3.78117e-05 0.000129432)
(-0.000171513 -8.26321e-05 9.23238e-05)
(-0.000192469 -7.1187e-05 1.62102e-05)
(-0.000215911 -2.45381e-05 -6.58079e-05)
(-0.000227943 7.35371e-06 -0.000121797)
(-0.000221941 7.11617e-06 -0.000149717)
(-0.000199624 -1.21685e-05 -0.000157885)
(-0.000169327 -3.48837e-05 -0.000152149)
(-0.000138534 -5.44131e-05 -0.00013854)
(-0.000109876 -7.06953e-05 -0.000122667)
(-8.19997e-05 -8.51999e-05 -0.000107415)
(-5.19841e-05 -9.81761e-05 -9.24771e-05)
(-1.76885e-05 -0.000108146 -7.53019e-05)
(1.99978e-05 -0.000113041 -5.23521e-05)
(5.65144e-05 -0.000111875 -2.02172e-05)
(8.71074e-05 -0.000103433 2.29637e-05)
(0.000112048 -8.05635e-05 7.38393e-05)
(0.00013516 -3.14102e-05 0.000117789)
(0.000155391 3.78117e-05 0.000129432)
(0.000171513 8.26321e-05 9.23238e-05)
(0.00014915 4.58775e-05 -1.30667e-05)
(0.000217543 1.16124e-05 -4.03647e-05)
(0.000273374 1.16887e-05 -6.79282e-05)
(0.000305656 3.84762e-05 -0.000101097)
(0.000309267 7.56085e-05 -0.000136616)
(0.000288295 0.000113837 -0.000165515)
(0.000250739 0.000149426 -0.000182502)
(0.000203573 0.000180214 -0.000186773)
(0.000151731 0.000203918 -0.00017815)
(9.91463e-05 0.000217536 -0.000155156)
(5.01594e-05 0.000217122 -0.00011646)
(1.04495e-05 0.000198221 -6.44004e-05)
(-1.41103e-05 0.000157559 -8.0251e-06)
(-2.21502e-05 9.58092e-05 3.82368e-05)
(-2.12344e-05 2.04253e-05 6.19763e-05)
(-2.39367e-05 -5.16385e-05 6.00804e-05)
(-4.07919e-05 -9.3818e-05 4.03329e-05)
(-8.28605e-05 -8.61836e-05 1.51859e-05)
(-0.00014915 -4.58775e-05 -1.30667e-05)
(-0.000217543 -1.16124e-05 -4.03647e-05)
(-0.000273374 -1.16887e-05 -6.79282e-05)
(-0.000305656 -3.84762e-05 -0.000101097)
(-0.000309267 -7.56085e-05 -0.000136616)
(-0.000288295 -0.000113837 -0.000165515)
(-0.000250739 -0.000149426 -0.000182502)
(-0.000203573 -0.000180214 -0.000186773)
(-0.000151731 -0.000203918 -0.00017815)
(-9.91463e-05 -0.000217536 -0.000155156)
(-5.01594e-05 -0.000217122 -0.00011646)
(-1.04495e-05 -0.000198221 -6.44004e-05)
(1.41103e-05 -0.000157559 -8.0251e-06)
(2.21503e-05 -9.58092e-05 3.82368e-05)
(2.12344e-05 -2.04253e-05 6.19763e-05)
(2.39367e-05 5.16385e-05 6.00804e-05)
(4.07919e-05 9.3818e-05 4.03329e-05)
(8.28605e-05 8.61836e-05 1.51859e-05)
(0.000513065 0.000174462 9.68515e-05)
(0.000516802 1.56102e-05 -0.000335334)
(0.000503985 -6.13691e-05 -0.000604813)
(0.000443492 -2.32987e-05 -0.000702772)
(0.000350487 4.96234e-05 -0.000680101)
(0.000258219 0.000102584 -0.000590171)
(0.000187556 0.000129519 -0.000475548)
(0.000138596 0.000142919 -0.000366182)
(9.73854e-05 0.000152948 -0.000279928)
(4.55618e-05 0.000160749 -0.000223761)
(-3.03147e-05 0.000160744 -0.000193062)
(-0.000130609 0.000150277 -0.000168419)
(-0.000240702 0.000141078 -0.000113641)
(-0.000341943 0.000153222 1.6383e-05)
(-0.000426594 0.000174051 0.000248433)
(-0.000495176 0.000123424 0.000537327)
(-0.000538415 -6.04797e-05 0.000701659)
(-0.000536426 -0.000225477 0.000519803)
(-0.000513065 -0.000174462 9.68515e-05)
(-0.000516802 -1.56102e-05 -0.000335334)
(-0.000503985 6.13691e-05 -0.000604813)
(-0.000443492 2.32987e-05 -0.000702772)
(-0.000350487 -4.96234e-05 -0.000680101)
(-0.000258219 -0.000102584 -0.000590171)
(-0.000187556 -0.000129519 -0.000475548)
(-0.000138596 -0.000142919 -0.000366182)
(-9.73854e-05 -0.000152948 -0.000279928)
(-4.55618e-05 -0.000160749 -0.000223761)
(3.03147e-05 -0.000160744 -0.000193062)
(0.000130609 -0.000150277 -0.000168419)
(0.000240702 -0.000141078 -0.000113641)
(0.000341943 -0.000153222 1.6383e-05)
(0.000426594 -0.000174051 0.000248433)
(0.000495176 -0.000123424 0.000537327)
(0.000538415 6.04797e-05 0.000701659)
(0.000536426 0.000225477 0.000519803)
(0.000521544 8.36873e-05 0.000129546)
(0.000588383 -2.90934e-05 -0.000146803)
(0.000616037 -6.64123e-05 -0.000343687)
(0.000593191 -2.86579e-05 -0.00045503)
(0.000532153 3.56449e-05 -0.000493048)
(0.00045732 9.71365e-05 -0.000478621)
(0.000382851 0.000150615 -0.000437477)
(0.000310563 0.000198646 -0.000389317)
(0.000235163 0.000242546 -0.000343138)
(0.000149287 0.00027899 -0.000297756)
(4.89935e-05 0.000299846 -0.00024378)
(-6.03621e-05 0.00029648 -0.000166207)
(-0.000163028 0.000267559 -4.92411e-05)
(-0.000243432 0.000219947 0.000114696)
(-0.000301391 0.000152572 0.000311469)
(-0.000350378 4.75683e-05 0.000488871)
(-0.000398337 -8.4751e-05 0.000549399)
(-0.000450004 -0.000149356 0.0004068)
(-0.000521544 -8.36873e-05 0.000129546)
(-0.000588383 2.90934e-05 -0.000146803)
(-0.000616037 6.64123e-05 -0.000343687)
(-0.000593191 2.86579e-05 -0.00045503)
(-0.000532153 -3.56449e-05 -0.000493048)
(-0.00045732 -9.71365e-05 -0.000478621)
(-0.000382851 -0.000150615 -0.000437477)
(-0.000310563 -0.000198646 -0.000389317)
(-0.000235163 -0.000242546 -0.000343138)
(-0.000149287 -0.00027899 -0.000297756)
(-4.89935e-05 -0.000299846 -0.00024378)
(6.03621e-05 -0.00029648 -0.000166207)
(0.000163028 -0.000267559 -4.92411e-05)
(0.000243432 -0.000219947 0.000114696)
(0.000301391 -0.000152572 0.000311469)
(0.000350378 -4.75683e-05 0.000488871)
(0.000398337 8.4751e-05 0.000549399)
(0.000450004 0.000149356 0.0004068)
(0.000425056 1.58729e-05 0.000108013)
(0.0005435 -5.84776e-05 -3.38856e-05)
(0.000635261 -6.61324e-05 -0.000161885)
(0.000679617 -2.96628e-05 -0.000280639)
(0.000678014 2.90198e-05 -0.000369618)
(0.000641885 0.000102718 -0.000419886)
(0.000578608 0.00018654 -0.000439517)
(0.000492437 0.000271929 -0.000437863)
(0.000387841 0.000348537 -0.000415728)
(0.00027085 0.000405751 -0.000364818)
(0.000150119 0.00043248 -0.000272663)
(3.81261e-05 0.000417263 -0.000131316)
(-5.02213e-05 0.000350984 5.15836e-05)
(-0.000105879 0.000233003 0.000245071)
(-0.000137016 8.0053e-05 0.000400006)
(-0.000166714 -6.55905e-05 0.000468646)
(-0.000216415 -0.00014397 0.000424656)
(-0.000301175 -0.000111556 0.000281665)
(-0.000425056 -1.58729e-05 0.000108013)
(-0.0005435 5.84776e-05 -3.38856e-05)
(-0.000635261 6.61324e-05 -0.000161885)
(-0.000679617 2.96628e-05 -0.000280639)
(-0.000678014 -2.90198e-05 -0.000369618)
(-0.000641885 -0.000102718 -0.000419886)
(-0.000578608 -0.00018654 -0.000439517)
(-0.000492437 -0.000271929 -0.000437863)
(-0.000387841 -0.000348537 -0.000415728)
(-0.00027085 -0.000405751 -0.000364818)
(-0.000150119 -0.00043248 -0.000272663)
(-3.81261e-05 -0.000417263 -0.000131316)
(5.02213e-05 -0.000350984 5.15836e-05)
(0.000105879 -0.000233003 0.000245071)
(0.000137016 -8.0053e-05 0.000400006)
(0.000166714 6.55905e-05 0.000468646)
(0.000216415 0.00014397 0.000424656)
(0.000301175 0.000111556 0.000281665)
(0.000733284 -0.000111041 0.000289961)
(0.000776934 -0.000288821 -0.000407583)
(0.000761348 -0.000287531 -0.000859484)
(0.000671179 -0.000162936 -0.00103074)
(0.00054398 -2.31606e-05 -0.00102283)
(0.000415212 8.09073e-05 -0.000933952)
(0.000303529 0.000147376 -0.000818177)
(0.000210842 0.000189195 -0.000703121)
(0.000125409 0.000217533 -0.000604664)
(2.82615e-05 0.000235736 -0.000529038)
(-9.59588e-05 0.000239928 -0.000467463)
(-0.000246568 0.000228214 -0.000389786)
(-0.000402305 0.000213595 -0.000245077)
(-0.000534218 0.000219114 2.15606e-05)
(-0.000627189 0.000237047 0.000429151)
(-0.000687566 0.000192323 0.000895471)
(-0.000728413 3.31805e-05 0.00116906)
(-0.000731457 -4.153e-05 0.000946613)
(-0.000733284 0.000111041 0.000289961)
(-0.000776934 0.000288821 -0.000407583)
(-0.000761348 0.000287531 -0.000859483)
(-0.000671179 0.000162936 -0.00103074)
(-0.00054398 2.31606e-05 -0.00102283)
(-0.000415212 -8.09073e-05 -0.000933952)
(-0.000303529 -0.000147376 -0.000818177)
(-0.000210842 -0.000189195 -0.000703121)
(-0.000125409 -0.000217533 -0.000604664)
(-2.82615e-05 -0.000235736 -0.000529038)
(9.59588e-05 -0.000239928 -0.000467463)
(0.000246568 -0.000228214 -0.000389786)
(0.000402305 -0.000213595 -0.000245077)
(0.000534218 -0.000219114 2.15606e-05)
(0.000627189 -0.000237047 0.000429151)
(0.000687566 -0.000192323 0.000895471)
(0.000728413 -3.31805e-05 0.00116906)
(0.000731457 4.153e-05 0.000946613)
(0.00078902 -0.000131243 0.000391568)
(0.000865283 -0.000245996 -0.000100687)
(0.000877199 -0.000242237 -0.000467982)
(0.00082885 -0.000159414 -0.000669288)
(0.000744408 -5.2713e-05 -0.000739688)
(0.000646761 5.05348e-05 -0.000732251)
(0.000545008 0.000144271 -0.000689213)
(0.00043895 0.00022798 -0.000634676)
(0.000323491 0.00030022 -0.00057726)
(0.000192604 0.000355774 -0.00051239)
(4.54568e-05 0.000385616 -0.000422976)
(-0.000107654 0.000382139 -0.000282026)
(-0.000246804 0.000347125 -6.24537e-05)
(-0.000355962 0.000290407 0.000243424)
(-0.000437084 0.000213122 0.000600321)
(-0.000507091 0.000105328 0.000913794)
(-0.000581241 -1.37746e-06 0.00103731)
(-0.000674691 1.0832e-06 0.000846575)
(-0.00078902 0.000131243 0.000391568)
(-0.000865283 0.000245996 -0.000100687)
(-0.000877199 0.000242237 -0.000467982)
(-0.00082885 0.000159414 -0.000669288)
(-0.000744408 5.2713e-05 -0.000739688)
(-0.000646761 -5.05348e-05 -0.000732251)
(-0.000545008 -0.000144271 -0.000689213)
(-0.00043895 -0.00022798 -0.000634676)
(-0.000323491 -0.00030022 -0.00057726)
(-0.000192604 -0.000355774 -0.00051239)
(-4.54568e-05 -0.000385616 -0.000422976)
(0.000107654 -0.000382139 -0.000282026)
(0.000246804 -0.000347125 -6.24537e-05)
(0.000355962 -0.000290407 0.000243424)
(0.000437084 -0.000213122 0.000600321)
(0.000507091 -0.000105328 0.000913794)
(0.000581241 1.37746e-06 0.00103731)
(0.000674691 -1.0832e-06 0.000846575)
(0.000655754 -0.000141749 0.000399052)
(0.000784453 -0.000211769 0.000105101)
(0.000872978 -0.000212684 -0.000164714)
(0.000907519 -0.000166417 -0.000378905)
(0.000895908 -8.84535e-05 -0.0005142)
(0.000848394 1.52278e-05 -0.000578654)
(0.000768548 0.000135924 -0.000597973)
(0.000657627 0.00025994 -0.000590802)
(0.000519223 0.000371884 -0.000558967)
(0.000361952 0.000456904 -0.000488652)
(0.000200497 0.000502186 -0.000356787)
(5.32319e-05 0.000497727 -0.000142116)
(-6.45e-05 0.000435657 0.000156859)
(-0.000149533 0.000312552 0.000499975)
(-0.00021667 0.000145747 0.000799516)
(-0.000291617 -4.95448e-06 0.00095743)
(-0.000392052 -6.24808e-05 0.000920844)
(-0.000516355 8.88574e-06 0.000700026)
(-0.000655754 0.000141749 0.000399052)
(-0.000784453 0.000211769 0.000105101)
(-0.000872978 0.000212684 -0.000164714)
(-0.000907519 0.000166417 -0.000378905)
(-0.000895908 8.84535e-05 -0.0005142)
(-0.000848394 -1.52278e-05 -0.000578654)
(-0.000768548 -0.000135924 -0.000597973)
(-0.000657627 -0.00025994 -0.000590802)
(-0.000519223 -0.000371884 -0.000558967)
(-0.000361952 -0.000456904 -0.000488652)
(-0.000200497 -0.000502186 -0.000356787)
(-5.32319e-05 -0.000497727 -0.000142116)
(6.45e-05 -0.000435657 0.000156858)
(0.000149533 -0.000312552 0.000499975)
(0.00021667 -0.000145747 0.000799516)
(0.000291617 4.95448e-06 0.00095743)
(0.000392052 6.24808e-05 0.000920844)
(0.000516355 -8.88573e-06 0.000700026)
(0.000948115 -0.000637795 0.000614749)
(0.000967641 -0.000717206 -0.000241463)
(0.00090524 -0.000626211 -0.000835326)
(0.000780862 -0.000448423 -0.00108541)
(0.000640382 -0.000268643 -0.00112293)
(0.000501122 -0.000123645 -0.00107486)
(0.000369549 -1.65305e-05 -0.00099886)
(0.000246186 6.10526e-05 -0.000915061)
(0.000123634 0.000118083 -0.000830181)
(-1.08976e-05 0.000159319 -0.000742602)
(-0.00016678 0.000184388 -0.000638846)
(-0.00033901 0.000193318 -0.00049037)
(-0.000505549 0.000196037 -0.000256219)
(-0.000641408 0.00021201 0.000104674)
(-0.000739387 0.000246343 0.000600027)
(-0.000815167 0.000268556 0.00113932)
(-0.000886082 0.000281551 0.00148523)
(-0.000923484 0.000424598 0.00133605)
(-0.000948115 0.000637795 0.000614749)
(-0.000967641 0.000717206 -0.000241463)
(-0.00090524 0.000626211 -0.000835326)
(-0.000780862 0.000448423 -0.00108541)
(-0.000640382 0.000268643 -0.00112293)
(-0.000501122 0.000123645 -0.00107486)
(-0.000369549 1.65305e-05 -0.00099886)
(-0.000246186 -6.10526e-05 -0.000915061)
(-0.000123634 -0.000118083 -0.000830181)
(1.08976e-05 -0.000159319 -0.000742602)
(0.00016678 -0.000184388 -0.000638846)
(0.00033901 -0.000193318 -0.00049037)
(0.000505549 -0.000196037 -0.000256219)
(0.000641408 -0.00021201 0.000104674)
(0.000739387 -0.000246343 0.000600027)
(0.000815167 -0.000268556 0.00113932)
(0.000886082 -0.000281551 0.00148523)
(0.000923484 -0.000424598 0.00133605)
(0.0009748 -0.000504684 0.000747436)
(0.00102316 -0.000568785 0.000116455)
(0.000998868 -0.000512252 -0.000383834)
(0.00092615 -0.000391731 -0.000671634)
(0.000830555 -0.000251769 -0.000792478)
(0.00072303 -0.0001151 -0.000819514)
(0.000605727 9.81396e-06 -0.000801988)
(0.000477254 0.000119635 -0.000762745)
(0.000334537 0.000211514 -0.000706436)
(0.00017607 0.000280919 -0.000624113)
(6.83677e-06 0.000322217 -0.000495211)
(-0.000159331 0.000332791 -0.000291616)
(-0.000305889 0.000317399 1.11259e-05)
(-0.00042666 0.000285623 0.000413071)
(-0.000530898 0.000242824 0.000863371)
(-0.000633288 0.000197026 0.0012458)
(-0.000742634 0.000200125 0.00141051)
(-0.000864147 0.000328831 0.00124941)
(-0.000974801 0.000504684 0.000747436)
(-0.00102316 0.000568785 0.000116455)
(-0.000998868 0.000512252 -0.000383834)
(-0.00092615 0.000391731 -0.000671634)
(-0.000830555 0.000251769 -0.000792478)
(-0.00072303 0.0001151 -0.000819514)
(-0.000605727 -9.81396e-06 -0.000801988)
(-0.000477254 -0.000119635 -0.000762745)
(-0.000334537 -0.000211514 -0.000706436)
(-0.00017607 -0.000280919 -0.000624113)
(-6.83677e-06 -0.000322217 -0.000495211)
(0.000159331 -0.000332791 -0.000291616)
(0.000305889 -0.000317399 1.11259e-05)
(0.00042666 -0.000285623 0.000413071)
(0.000530898 -0.000242824 0.000863371)
(0.000633288 -0.000197026 0.0012458)
(0.000742634 -0.000200125 0.00141051)
(0.000864147 -0.000328831 0.00124941)
(0.000829288 -0.000399383 0.000770488)
(0.000923399 -0.000452836 0.000368089)
(0.000981781 -0.000428248 -1.53312e-05)
(0.0009966 -0.000356161 -0.000317719)
(0.000970478 -0.000251083 -0.000508681)
(0.000909311 -0.000121869 -0.000603111)
(0.00081526 2.01635e-05 -0.000635571)
(0.000688696 0.000160973 -0.000629417)
(0.000532736 0.000285498 -0.000587601)
(0.000357957 0.000379584 -0.000495437)
(0.000183559 0.000433543 -0.000327653)
(3.03764e-05 0.000443991 -5.89122e-05)
(-9.24651e-05 0.000409056 0.000317669)
(-0.000194948 0.00032522 0.000759422)
(-0.000298397 0.000209192 0.00115412)
(-0.000420904 0.000126021 0.00136887)
(-0.000565331 0.000148532 0.00134405)
(-0.000713762 0.000268163 0.00111792)
(-0.000829288 0.000399383 0.000770488)
(-0.000923399 0.000452836 0.000368089)
(-0.000981781 0.000428248 -1.53312e-05)
(-0.0009966 0.000356161 -0.000317719)
(-0.000970478 0.000251083 -0.000508681)
(-0.000909311 0.000121869 -0.000603111)
(-0.000815261 -2.01635e-05 -0.000635571)
(-0.000688696 -0.000160973 -0.000629417)
(-0.000532736 -0.000285498 -0.000587601)
(-0.000357957 -0.000379584 -0.000495437)
(-0.000183559 -0.000433543 -0.000327653)
(-3.03764e-05 -0.000443991 -5.89122e-05)
(9.24651e-05 -0.000409056 0.000317669)
(0.000194948 -0.00032522 0.000759422)
(0.000298397 -0.000209192 0.00115412)
(0.000420904 -0.000126021 0.00136887)
(0.000565331 -0.000148532 0.00134405)
(0.000713762 -0.000268163 0.00111792)
(0.00115138 -0.000975157 0.00100156)
(0.00111537 -0.00103213 0.000168727)
(0.00098182 -0.000925563 -0.000504106)
(0.000818007 -0.000749798 -0.000842567)
(0.000667181 -0.000567105 -0.000958844)
(0.000525498 -0.000404656 -0.000979217)
(0.000385853 -0.000271061 -0.000958045)
(0.000245224 -0.000164368 -0.000910254)
(9.92524e-05 -7.89058e-05 -0.000836167)
(-5.76266e-05 -1.03262e-05 -0.000729341)
(-0.000226201 4.21173e-05 -0.000578705)
(-0.000396053 7.87065e-05 -0.000370925)
(-0.000548465 0.000108063 -9.10888e-05)
(-0.000674175 0.000151809 0.000281287)
(-0.000787272 0.000229186 0.00075638)
(-0.000908162 0.000341967 0.00126227)
(-0.00102807 0.000507107 0.00160293)
(-0.00110981 0.000748677 0.00155318)
(-0.00115138 0.000975157 0.00100156)
(-0.00111537 0.00103213 0.000168727)
(-0.00098182 0.000925563 -0.000504106)
(-0.000818007 0.000749798 -0.000842567)
(-0.000667181 0.000567105 -0.000958844)
(-0.000525498 0.000404656 -0.000979217)
(-0.000385853 0.000271061 -0.000958045)
(-0.000245224 0.000164368 -0.000910254)
(-9.92525e-05 7.89058e-05 -0.000836167)
(5.76266e-05 1.03262e-05 -0.000729341)
(0.000226201 -4.21173e-05 -0.000578705)
(0.000396053 -7.87065e-05 -0.000370925)
(0.000548465 -0.000108063 -9.10888e-05)
(0.000674174 -0.000151809 0.000281287)
(0.000787272 -0.000229186 0.00075638)
(0.000908162 -0.000341967 0.00126227)
(0.00102807 -0.000507107 0.00160293)
(0.00110981 -0.000748677 0.00155318)
(0.00106936 -0.000753541 0.00107692)
(0.00107891 -0.000807095 0.000476244)
(0.00101923 -0.00074821 -7.95836e-05)
(0.000924876 -0.000627239 -0.000443844)
(0.000821998 -0.0004814 -0.000630989)
(0.000710845 -0.000332431 -0.000710027)
(0.000587063 -0.000192807 -0.000728763)
(0.000448109 -6.89259e-05 -0.000707881)
(0.000292944 3.53215e-05 -0.000649857)
(0.000124461 0.000116446 -0.000545366)
(-4.75859e-05 0.000171975 -0.000378031)
(-0.000208072 0.000203359 -0.000130029)
(-0.000346393 0.000218647 0.000209893)
(-0.000469014 0.000231119 0.000633745)
(-0.000595019 0.000253543 0.00109089)
(-0.000734348 0.000302279 0.00146921)
(-0.000875716 0.000414224 0.00163322)
(-0.000995102 0.000594111 0.00150093)
(-0.00106936 0.000753541 0.00107692)
(-0.00107891 0.000807095 0.000476244)
(-0.00101923 0.00074821 -7.95836e-05)
(-0.000924876 0.000627239 -0.000443844)
(-0.000821998 0.0004814 -0.000630989)
(-0.000710845 0.000332431 -0.000710027)
(-0.000587063 0.000192807 -0.000728763)
(-0.000448109 6.89259e-05 -0.000707881)
(-0.000292945 -3.53215e-05 -0.000649857)
(-0.000124461 -0.000116446 -0.000545366)
(4.75859e-05 -0.000171975 -0.000378031)
(0.000208072 -0.000203359 -0.000130029)
(0.000346393 -0.000218647 0.000209893)
(0.000469014 -0.000231119 0.000633745)
(0.000595019 -0.000253543 0.00109089)
(0.000734348 -0.000302279 0.00146921)
(0.000875716 -0.000414224 0.00163322)
(0.000995102 -0.000594111 0.00150093)
(0.000904797 -0.000604753 0.00110138)
(0.000952094 -0.000643461 0.000693236)
(0.000979906 -0.000615426 0.000266732)
(0.000974842 -0.000535084 -9.9285e-05)
(0.000933784 -0.000418293 -0.000345833)
(0.000861034 -0.000279964 -0.000477145)
(0.000758336 -0.000133358 -0.000528113)
(0.000625855 8.52963e-06 -0.000523805)
(0.000466835 0.000132589 -0.000469152)
(0.000292677 0.000227329 -0.000353132)
(0.000123302 0.00028725 -0.000155946)
(-2.22364e-05 0.000315142 0.000142825)
(-0.000141651 0.000315999 0.000549675)
(-0.000253966 0.000291125 0.00102391)
(-0.000381362 0.000257757 0.00144807)
(-0.000531411 0.000268199 0.00168226)
(-0.00069083 0.000363538 0.00166797)
(-0.0008253 0.000502449 0.00144646)
(-0.000904797 0.000604753 0.00110138)
(-0.000952094 0.000643461 0.000693236)
(-0.000979906 0.000615426 0.000266732)
(-0.000974842 0.000535084 -9.9285e-05)
(-0.000933784 0.000418293 -0.000345833)
(-0.000861034 0.000279964 -0.000477145)
(-0.000758336 0.000133358 -0.000528113)
(-0.000625855 -8.52963e-06 -0.000523805)
(-0.000466835 -0.000132589 -0.000469152)
(-0.000292677 -0.000227329 -0.000353132)
(-0.000123302 -0.00028725 -0.000155946)
(2.22364e-05 -0.000315142 0.000142825)
(0.000141651 -0.000315999 0.000549675)
(0.000253966 -0.000291125 0.00102391)
(0.000381362 -0.000257757 0.00144807)
(0.000531411 -0.000268199 0.00168226)
(0.00069083 -0.000363538 0.00166797)
(0.0008253 -0.000502449 0.00144646)
(0.00124048 -0.00109389 0.00127188)
(0.00116387 -0.00116224 0.000621533)
(0.000992386 -0.00109108 -3.12346e-06)
(0.000803436 -0.000956342 -0.000395345)
(0.000643675 -0.000801847 -0.000589466)
(0.000500936 -0.000647417 -0.000678912)
(0.000358858 -0.000505816 -0.000707412)
(0.000210737 -0.000381991 -0.000685815)
(5.40766e-05 -0.000275677 -0.000612889)
(-0.000110542 -0.000186046 -0.000484353)
(-0.000276418 -0.000114013 -0.000299258)
(-0.000429722 -5.88273e-05 -6.47954e-05)
(-0.000558594 -8.82909e-06 0.000208805)
(-0.000672379 6.27053e-05 0.000528351)
(-0.000803058 0.000182006 0.000915225)
(-0.000963974 0.000359823 0.00133105)
(-0.00111858 0.000599039 0.00163385)
(-0.00121743 0.000873039 0.00164735)
(-0.00124048 0.00109389 0.00127188)
(-0.00116387 0.00116224 0.000621533)
(-0.000992386 0.00109108 -3.12344e-06)
(-0.000803436 0.000956342 -0.000395345)
(-0.000643675 0.000801847 -0.000589466)
(-0.000500936 0.000647417 -0.000678912)
(-0.000358858 0.000505816 -0.000707412)
(-0.000210737 0.000381991 -0.000685815)
(-5.40766e-05 0.000275677 -0.000612889)
(0.000110542 0.000186046 -0.000484353)
(0.000276418 0.000114013 -0.000299258)
(0.000429722 5.88273e-05 -6.47954e-05)
(0.000558594 8.8291e-06 0.000208805)
(0.000672379 -6.27053e-05 0.000528351)
(0.000803058 -0.000182006 0.000915225)
(0.000963974 -0.000359823 0.00133105)
(0.00111858 -0.000599039 0.00163385)
(0.00121743 -0.000873039 0.00164735)
(0.00109466 -0.000861157 0.00136605)
(0.00106275 -0.000920244 0.000865842)
(0.000973901 -0.000885603 0.000346455)
(0.000862097 -0.000791412 -5.09846e-05)
(0.000752475 -0.000665412 -0.000293592)
(0.000640982 -0.000526106 -0.000421437)
(0.00051775 -0.000387774 -0.000472495)
(0.000378423 -0.000260074 -0.000464603)
(0.000223278 -0.000149212 -0.000400811)
(5.81179e-05 -5.94159e-05 -0.000276116)
(-0.000104993 7.78458e-06 -8.37164e-05)
(-0.000251988 5.63021e-05 0.000179668)
(-0.000378547 9.82587e-05 0.000510828)
(-0.000500739 0.000152339 0.000896524)
(-0.000641814 0.000234837 0.00129565)
(-0.000801661 0.000356037 0.00162202)
(-0.000950931 0.000523491 0.00177705)
(-0.00105562 0.000712272 0.00169508)
(-0.00109466 0.000861157 0.00136605)
(-0.00106275 0.000920244 0.000865842)
(-0.000973901 0.000885603 0.000346455)
(-0.000862097 0.000791412 -5.09846e-05)
(-0.000752475 0.000665412 -0.000293592)
(-0.000640982 0.000526106 -0.000421437)
(-0.00051775 0.000387774 -0.000472495)
(-0.000378423 0.000260074 -0.000464603)
(-0.000223278 0.000149212 -0.000400811)
(-5.81179e-05 5.94159e-05 -0.000276116)
(0.000104993 -7.78458e-06 -8.37164e-05)
(0.000251988 -5.63021e-05 0.000179668)
(0.000378547 -9.82587e-05 0.000510828)
(0.000500739 -0.000152339 0.000896524)
(0.000641814 -0.000234837 0.00129565)
(0.000801661 -0.000356037 0.00162202)
(0.000950931 -0.000523491 0.00177705)
(0.00105562 -0.000712272 0.00169508)
(0.000912208 -0.000719434 0.00143242)
(0.000923914 -0.000755793 0.00104774)
(0.000916536 -0.000735188 0.000628047)
(0.000885599 -0.000664103 0.000240672)
(0.000828874 -0.000556161 -4.22061e-05)
(0.000749326 -0.000426596 -0.000203782)
(0.000645886 -0.000288096 -0.000270451)
(0.000517152 -0.000153162 -0.000266542)
(0.000366303 -3.40022e-05 -0.000199824)
(0.000204204 5.98844e-05 -6.54998e-05)
(4.81942e-05 0.000125796 0.000147487)
(-8.7236e-05 0.000170041 0.000451147)
(-0.000204599 0.000203113 0.000848019)
(-0.000324316 0.000233091 0.00129954)
(-0.000462448 0.000275264 0.00169749)
(-0.000615028 0.000358446 0.0019212)
(-0.000759014 0.000489922 0.00192492)
(-0.000862882 0.000626401 0.00174135)
(-0.000912208 0.000719434 0.00143242)
(-0.000923914 0.000755793 0.00104774)
(-0.000916536 0.000735188 0.000628047)
(-0.000885599 0.000664103 0.000240672)
(-0.000828874 0.000556161 -4.22061e-05)
(-0.000749326 0.000426596 -0.000203782)
(-0.000645886 0.000288096 -0.000270451)
(-0.000517152 0.000153162 -0.000266542)
(-0.000366303 3.40022e-05 -0.000199824)
(-0.000204204 -5.98844e-05 -6.54998e-05)
(-4.81942e-05 -0.000125796 0.000147487)
(8.7236e-05 -0.000170041 0.000451147)
(0.000204599 -0.000203113 0.000848019)
(0.000324316 -0.000233091 0.00129954)
(0.000462448 -0.000275264 0.00169749)
(0.000615028 -0.000358446 0.0019212)
(0.000759014 -0.000489922 0.00192492)
(0.000862882 -0.000626401 0.00174135)
(0.00121592 -0.00104428 0.00147304)
(0.00111125 -0.00113386 0.0010169)
(0.000930994 -0.00111489 0.00051724)
(0.000738376 -0.00103365 0.00013332)
(0.000576169 -0.000920585 -0.000104916)
(0.000434485 -0.000790969 -0.0002407)
(0.000293631 -0.000657983 -0.000301483)
(0.00014503 -0.000531536 -0.000293957)
(-1.17891e-05 -0.000417352 -0.000218404)
(-0.00017147 -0.000319324 -7.73737e-05)
(-0.000322994 -0.000240269 0.000117487)
(-0.0004535 -0.00017772 0.000342968)
(-0.000560575 -0.000116366 0.000576374)
(-0.00066689 -2.79609e-05 0.000822748)
(-0.000807262 0.000112946 0.00111238)
(-0.000980564 0.000315326 0.00142975)
(-0.00113648 0.000570267 0.0016738)
(-0.00122249 0.000837575 0.00171246)
(-0.00121592 0.00104428 0.00147304)
(-0.00111125 0.00113386 0.0010169)
(-0.000930994 0.00111489 0.00051724)
(-0.000738376 0.00103365 0.00013332)
(-0.000576169 0.000920585 -0.000104916)
(-0.000434485 0.000790969 -0.0002407)
(-0.000293631 0.000657983 -0.000301483)
(-0.00014503 0.000531536 -0.000293957)
(1.17891e-05 0.000417352 -0.000218404)
(0.00017147 0.000319324 -7.73737e-05)
(0.000322994 0.000240269 0.000117487)
(0.0004535 0.00017772 0.000342968)
(0.000560575 0.000116366 0.000576374)
(0.00066689 2.79609e-05 0.000822748)
(0.000807262 -0.000112946 0.00111238)
(0.000980564 -0.000315326 0.00142975)
(0.00113648 -0.000570267 0.0016738)
(0.00122249 -0.000837575 0.00171246)
(0.00105568 -0.000854921 0.00162582)
(0.000994017 -0.000924753 0.00123811)
(0.000885965 -0.000920211 0.00080011)
(0.000763181 -0.000861523 0.000419044)
(0.000648551 -0.000766886 0.000152148)
(0.000538492 -0.000650305 -5.78207e-06)
(0.000420079 -0.000524944 -7.72432e-05)
(0.000286984 -0.000402595 -7.6122e-05)
(0.000140168 -0.000292282 -7.37369e-06)
(-1.30962e-05 -0.000199959 0.000127562)
(-0.000160819 -0.00012719 0.000325231)
(-0.000292272 -6.83532e-05 0.000577044)
(-0.000409124 -8.56517e-06 0.000870845)
(-0.000530944 7.24109e-05 0.00119264)
(-0.000676148 0.000188554 0.00151354)
(-0.000834352 0.000342066 0.0017758)
(-0.00096994 0.000525539 0.00191094)
(-0.00104907 0.000711294 0.00186559)
(-0.00105568 0.000854921 0.00162582)
(-0.000994017 0.000924753 0.00123811)
(-0.000885965 0.000920211 0.00080011)
(-0.000763181 0.000861523 0.000419044)
(-0.000648551 0.000766886 0.000152148)
(-0.000538492 0.000650305 -5.78205e-06)
(-0.000420079 0.000524944 -7.72431e-05)
(-0.000286984 0.000402595 -7.6122e-05)
(-0.000140168 0.000292282 -7.37368e-06)
(1.30962e-05 0.000199959 0.000127562)
(0.000160819 0.00012719 0.000325231)
(0.000292272 6.83532e-05 0.000577044)
(0.000409124 8.56517e-06 0.000870845)
(0.000530944 -7.24109e-05 0.00119264)
(0.000676148 -0.000188554 0.00151354)
(0.000834352 -0.000342066 0.0017758)
(0.00096994 -0.000525539 0.00191094)
(0.00104907 -0.000711294 0.00186559)
(0.000885675 -0.00075617 0.00174885)
(0.000866727 -0.000797132 0.00140823)
(0.000826645 -0.00078707 0.00102473)
(0.000769256 -0.000732989 0.000653728)
(0.000697699 -0.000644982 0.000363362)
(0.000614688 -0.000533715 0.000186164)
(0.000515665 -0.000409766 0.000109732)
(0.000396593 -0.000285519 0.000113431)
(0.000259742 -0.000173063 0.000186956)
(0.000114247 -8.0807e-05 0.000328885)
(-2.66341e-05 -1.00324e-05 0.000542271)
(-0.000153662 4.70755e-05 0.000831567)
(-0.000271826 0.000104061 0.00119416)
(-0.000396981 0.000172721 0.00159257)
(-0.000535366 0.000262916 0.00193638)
(-0.000675338 0.000384204 0.00213448)
(-0.000793732 0.000528314 0.00215266)
(-0.000866294 0.000662635 0.00201002)
(-0.000885675 0.00075617 0.00174885)
(-0.000866727 0.000797132 0.00140823)
(-0.000826645 0.00078707 0.00102473)
(-0.000769256 0.000732989 0.000653728)
(-0.000697699 0.000644982 0.000363362)
(-0.000614688 0.000533715 0.000186164)
(-0.000515665 0.000409766 0.000109732)