/*--------------------------------*- C++ -*----------------------------------*\
| =========                 |                                                 |
| \\      /  F ield         | OpenFOAM: The Open Source CFD Toolbox           |
|  \\    /   O peration     | Version:  2312                                  |
|   \\  /    A nd           | Website:  www.openfoam.com                      |
|    \\/     M anipulation  |                                                 |
\*---------------------------------------------------------------------------*/
FoamFile
{
    version     2.0;
    format      ascii;
    arch        "LSB;label=32;scalar=64";
    class       volTensorField;
    location    "0.4";
    object      F;
}
// * * * * * * * * * * * * * * * * * * * * * * * * * * * * * * * * * * * * * //

dimensions      [0 0 0 0 0 0 0];

internalField   nonuniform List<tensor> 
1620
(
(1.05156 -0.0240898 -0.0433897 -0.0103808 1.00954 -0.267178 -0.0116077 -0.00101557 0.936085)
(1.05619 -0.0158642 0.00366436 -0.00215529 1.00491 -0.270654 -0.0112551 -0.00301576 0.936085)
(1.05772 -0.00655186 0.0506072 0.00715695 1.00337 -0.265906 -0.0105604 -0.00492429 0.936085)
(1.05598 0.00272394 0.0960125 0.0164328 1.00512 -0.253078 -0.0095448 -0.00668325 0.936085)
(1.05117 0.0108444 0.1385 0.0245534 1.00993 -0.232561 -0.00823917 -0.0082392 0.936085)
(1.04387 0.0168301 0.17678 0.0305392 1.01722 -0.204977 -0.00668335 -0.00954479 0.936085)
(1.03497 0.019959 0.209688 0.0336682 1.02613 -0.171166 -0.0049243 -0.0105602 0.936085)
(1.02553 0.0198539 0.236225 0.0335631 1.03556 -0.132153 -0.00301562 -0.0112548 0.936085)
(1.0167 0.0165274 0.255585 0.0302365 1.0444 -0.0891255 -0.00101545 -0.0116076 0.936085)
(1.00954 0.0103808 0.267178 0.0240898 1.05156 -0.0433897 0.00101557 -0.0116077 0.936085)
(1.00491 0.0021553 0.270654 0.0158642 1.05619 0.00366438 0.00301576 -0.0112551 0.936085)
(1.00337 -0.00715695 0.265906 0.00655186 1.05772 0.0506072 0.00492429 -0.0105604 0.936085)
(1.00512 -0.0164328 0.253078 -0.00272393 1.05598 0.0960125 0.00668325 -0.0095448 0.936085)
(1.00993 -0.0245534 0.232561 -0.0108444 1.05117 0.1385 0.0082392 -0.00823917 0.936085)
(1.01722 -0.0305392 0.204977 -0.0168301 1.04387 0.17678 0.00954479 -0.00668335 0.936085)
(1.02613 -0.0336682 0.171166 -0.019959 1.03497 0.209688 0.0105602 -0.0049243 0.936085)
(1.03556 -0.0335631 0.132153 -0.0198539 1.02553 0.236225 0.0112548 -0.00301562 0.936085)
(1.0444 -0.0302365 0.0891255 -0.0165274 1.0167 0.255585 0.0116076 -0.00101545 0.936085)
(1.05156 -0.0240898 0.0433897 -0.0103808 1.00954 0.267178 0.0116077 0.00101557 0.936085)
(1.05619 -0.0158642 -0.00366439 -0.00215529 1.00491 0.270654 0.0112551 0.00301576 0.936085)
(1.05772 -0.00655186 -0.0506073 0.00715695 1.00337 0.265906 0.0105604 0.00492429 0.936085)
(1.05598 0.00272394 -0.0960125 0.0164328 1.00512 0.253078 0.0095448 0.00668325 0.936085)
(1.05117 0.0108444 -0.1385 0.0245534 1.00993 0.232561 0.00823917 0.0082392 0.936085)
(1.04387 0.0168301 -0.17678 0.0305392 1.01722 0.204977 0.00668335 0.00954479 0.936085)
(1.03497 0.019959 -0.209688 0.0336682 1.02613 0.171166 0.00492431 0.0105602 0.936085)
(1.02553 0.0198539 -0.236225 0.0335631 1.03556 0.132153 0.00301562 0.0112548 0.936085)
(1.0167 0.0165274 -0.255585 0.0302365 1.0444 0.0891255 0.00101545 0.0116076 0.936085)
(1.00954 0.0103808 -0.267178 0.0240898 1.05156 0.0433897 -0.00101557 0.0116077 0.936085)
(1.00491 0.00215529 -0.270654 0.0158642 1.05619 -0.00366438 -0.00301576 0.0112551 0.936085)
(1.00337 -0.00715695 -0.265906 0.00655186 1.05772 -0.0506072 -0.00492429 0.0105604 0.936085)
(1.00512 -0.0164328 -0.253078 -0.00272394 1.05598 -0.0960125 -0.00668325 0.0095448 0.936085)
(1.00993 -0.0245534 -0.232561 -0.0108444 1.05117 -0.1385 -0.0082392 0.00823917 0.936085)
(1.01722 -0.0305392 -0.204977 -0.0168301 1.04387 -0.17678 -0.00954479 0.00668335 0.936085)
(1.02613 -0.0336682 -0.171166 -0.019959 1.03497 -0.209688 -0.0105602 0.0049243 0.936085)
(1.03556 -0.0335631 -0.132153 -0.0198539 1.02553 -0.236225 -0.0112548 0.00301562 0.936085)
(1.0444 -0.0302365 -0.0891256 -0.0165274 1.0167 -0.255585 -0.0116076 0.00101545 0.936085)
(1.06078 -0.0279716 -0.0285101 -0.0072636 1.00508 -0.276495 -0.00858583 -0.000751153 0.922795)
(1.06513 -0.0173838 0.0199358 0.00332399 1.00074 -0.277245 -0.00832503 -0.00223063 0.922795)
(1.06559 -0.00594818 0.067776 0.0147596 1.00027 -0.269571 -0.00781113 -0.00364229 0.922795)
(1.06211 0.00495594 0.113557 0.0256639 1.00375 -0.253707 -0.0070599 -0.00494336 0.922795)
(1.05512 0.0140136 0.155887 0.0347215 1.01075 -0.230133 -0.0060942 -0.00609422 0.922795)
(1.04545 0.0201322 0.193481 0.0408401 1.02042 -0.199567 -0.00494341 -0.00705995 0.922795)
(1.03426 0.0225735 0.225196 0.0432816 1.0316 -0.162938 -0.00364227 -0.00781101 0.922795)
(1.02292 0.0210433 0.250069 0.0417514 1.04294 -0.121357 -0.00223053 -0.00832478 0.922795)
(1.01279 0.0157263 0.267343 0.0364343 1.05308 -0.0760897 -0.000751136 -0.00858579 0.922795)
(1.00508 0.0072636 0.276495 0.0279716 1.06078 -0.0285101 0.000751153 -0.00858583 0.922795)
(1.00074 -0.00332399 0.277245 0.0173838 1.06513 0.0199358 0.00223063 -0.00832503 0.922795)
(1.00027 -0.0147596 0.269571 0.00594818 1.06559 0.067776 0.0036423 -0.00781113 0.922795)
(1.00375 -0.0256639 0.253707 -0.00495594 1.06211 0.113557 0.00494336 -0.0070599 0.922795)
(1.01075 -0.0347215 0.230133 -0.0140136 1.05512 0.155887 0.00609422 -0.0060942 0.922795)
(1.02042 -0.0408401 0.199567 -0.0201321 1.04545 0.193481 0.00705995 -0.00494341 0.922795)
(1.0316 -0.0432816 0.162938 -0.0225735 1.03426 0.225196 0.00781101 -0.00364228 0.922795)
(1.04294 -0.0417514 0.121357 -0.0210433 1.02292 0.250069 0.00832478 -0.00223054 0.922795)
(1.05308 -0.0364343 0.0760897 -0.0157263 1.01279 0.267343 0.00858579 -0.000751136 0.922795)
(1.06078 -0.0279716 0.0285101 -0.0072636 1.00508 0.276495 0.00858583 0.000751153 0.922795)
(1.06513 -0.0173838 -0.0199358 0.00332399 1.00074 0.277245 0.00832503 0.00223063 0.922795)
(1.06559 -0.00594818 -0.067776 0.0147596 1.00027 0.269571 0.00781113 0.00364229 0.922795)
(1.06211 0.00495594 -0.113557 0.0256639 1.00375 0.253707 0.0070599 0.00494336 0.922795)
(1.05512 0.0140136 -0.155887 0.0347215 1.01075 0.230133 0.0060942 0.00609422 0.922795)
(1.04545 0.0201321 -0.193481 0.0408401 1.02042 0.199567 0.00494341 0.00705995 0.922795)
(1.03426 0.0225735 -0.225196 0.0432816 1.0316 0.162938 0.00364228 0.00781101 0.922795)
(1.02292 0.0210433 -0.250069 0.0417514 1.04294 0.121357 0.00223054 0.00832478 0.922795)
(1.01279 0.0157263 -0.267343 0.0364343 1.05308 0.0760897 0.000751137 0.00858579 0.922795)
(1.00508 0.0072636 -0.276495 0.0279716 1.06078 0.0285101 -0.000751152 0.00858583 0.922795)
(1.00074 -0.00332399 -0.277245 0.0173838 1.06513 -0.0199358 -0.00223063 0.00832503 0.922795)
(1.00027 -0.0147596 -0.269571 0.00594818 1.06559 -0.067776 -0.00364229 0.00781113 0.922795)
(1.00375 -0.0256639 -0.253707 -0.00495594 1.06211 -0.113557 -0.00494336 0.0070599 0.922795)
(1.01075 -0.0347215 -0.230133 -0.0140136 1.05512 -0.155887 -0.00609422 0.0060942 0.922795)
(1.02042 -0.0408401 -0.199567 -0.0201322 1.04545 -0.193481 -0.00705995 0.00494341 0.922795)
(1.0316 -0.0432816 -0.162938 -0.0225735 1.03426 -0.225196 -0.00781101 0.00364228 0.922795)
(1.04294 -0.0417514 -0.121357 -0.0210433 1.02292 -0.250069 -0.00832478 0.00223053 0.922795)
(1.05308 -0.0364343 -0.0760898 -0.0157263 1.01279 -0.267343 -0.00858579 0.000751136 0.922795)
(1.07015 -0.0322492 -0.012094 -0.0031767 0.996925 -0.285709 -0.00525021 -0.000459289 0.910782)
(1.074 -0.018659 0.0377025 0.0104134 0.993075 -0.283468 -0.00509072 -0.00136407 0.910782)
(1.07297 -0.00457147 0.0863534 0.0245009 0.994105 -0.272615 -0.00477632 -0.00222725 0.910782)
(1.06718 0.00831403 0.132381 0.0373863 0.999891 -0.253478 -0.00431697 -0.00302275 0.910782)
(1.05734 0.0184435 0.174385 0.0475159 1.00974 -0.22664 -0.00372651 -0.00372647 0.910781)
(1.04462 0.0245951 0.211092 0.0536677 1.02245 -0.192915 -0.00302282 -0.00431703 0.910782)
(1.03057 0.026027 0.241384 0.0550994 1.0365 -0.153328 -0.00222715 -0.00477636 0.910782)
(1.01688 0.0225661 0.264342 0.0516386 1.0502 -0.109083 -0.00136396 -0.0050905 0.910782)
(1.00519 0.0146303 0.279268 0.0437028 1.06188 -0.0615231 -0.000459382 -0.00525018 0.910782)
(0.996925 0.0031767 0.285709 0.0322492 1.07015 -0.012094 0.00045929 -0.00525021 0.910782)
(0.993075 -0.0104134 0.283468 0.018659 1.074 0.0377025 0.00136407 -0.00509072 0.910782)
(0.994105 -0.0245009 0.272615 0.00457147 1.07297 0.0863534 0.00222725 -0.00477632 0.910782)
(0.999891 -0.0373863 0.253478 -0.00831403 1.06718 0.132381 0.00302275 -0.00431697 0.910782)
(1.00974 -0.0475159 0.22664 -0.0184435 1.05734 0.174385 0.00372647 -0.00372651 0.910782)
(1.02245 -0.0536677 0.192915 -0.0245951 1.04462 0.211092 0.00431703 -0.00302282 0.910782)
(1.0365 -0.0550994 0.153328 -0.0260269 1.03057 0.241384 0.00477636 -0.00222715 0.910782)
(1.0502 -0.0516386 0.109083 -0.0225661 1.01688 0.264342 0.0050905 -0.00136397 0.910782)
(1.06188 -0.0437028 0.0615231 -0.0146303 1.00519 0.279268 0.00525018 -0.000459383 0.910782)
(1.07015 -0.0322492 0.0120939 -0.0031767 0.996925 0.285709 0.00525021 0.000459289 0.910782)
(1.074 -0.018659 -0.0377025 0.0104134 0.993075 0.283468 0.00509073 0.00136407 0.910782)
(1.07297 -0.00457147 -0.0863534 0.0245009 0.994105 0.272615 0.00477632 0.00222725 0.910782)
(1.06718 0.00831403 -0.132381 0.0373863 0.999891 0.253478 0.00431697 0.00302275 0.910782)
(1.05734 0.0184435 -0.174385 0.0475159 1.00974 0.22664 0.00372651 0.00372647 0.910781)
(1.04462 0.0245951 -0.211092 0.0536677 1.02245 0.192915 0.00302282 0.00431703 0.910782)
(1.03057 0.0260269 -0.241384 0.0550994 1.0365 0.153328 0.00222715 0.00477636 0.910782)
(1.01688 0.0225661 -0.264342 0.0516386 1.0502 0.109083 0.00136397 0.0050905 0.910782)
(1.00519 0.0146303 -0.279268 0.0437028 1.06188 0.0615231 0.000459383 0.00525018 0.910782)
(0.996925 0.0031767 -0.285709 0.0322492 1.07015 0.012094 -0.000459289 0.00525021 0.910782)
(0.993075 -0.0104134 -0.283469 0.018659 1.074 -0.0377025 -0.00136407 0.00509072 0.910782)
(0.994105 -0.0245009 -0.272615 0.00457147 1.07297 -0.0863534 -0.00222725 0.00477632 0.910782)
(0.999891 -0.0373863 -0.253478 -0.00831403 1.06718 -0.132381 -0.00302275 0.00431697 0.910782)
(1.00974 -0.0475159 -0.22664 -0.0184435 1.05734 -0.174385 -0.00372647 0.00372651 0.910781)
(1.02245 -0.0536677 -0.192915 -0.0245951 1.04462 -0.211092 -0.00431703 0.00302282 0.910782)
(1.0365 -0.0550994 -0.153328 -0.026027 1.03057 -0.241384 -0.00477636 0.00222715 0.910782)
(1.0502 -0.0516386 -0.109083 -0.0225661 1.01688 -0.264342 -0.0050905 0.00136396 0.910782)
(1.06188 -0.0437028 -0.0615231 -0.0146303 1.00519 -0.279268 -0.00525018 0.000459383 0.910782)
(1.08386 -0.0759431 -0.0343661 -0.0288858 1.01751 -0.267228 -0.0380254 -0.00332689 0.915153)
(1.09978 -0.0614367 0.0125597 -0.0143795 1.00159 -0.269136 -0.0368702 -0.00987929 0.915152)
(1.10979 -0.0423581 0.0591039 0.00469903 0.991583 -0.262866 -0.0345946 -0.0161313 0.915152)
(1.11266 -0.0210083 0.103852 0.0260489 0.988707 -0.248609 -0.0312675 -0.0218932 0.915152)
(1.10806 3.75116e-05 0.145445 0.0470949 0.993307 -0.226799 -0.0269903 -0.0269903 0.915152)
(1.09654 0.0182409 0.182618 0.0652984 1.00483 -0.198097 -0.0218935 -0.0312674 0.915152)
(1.07949 0.0314061 0.214243 0.0784637 1.02188 -0.163376 -0.0161313 -0.0345941 0.915152)
(1.05897 0.0379453 0.239358 0.0850031 1.0424 -0.123691 -0.00987898 -0.0368698 0.915152)
(1.03744 0.0370701 0.2572 0.0841277 1.06393 -0.0802476 -0.00332662 -0.0380253 0.915152)
(1.01751 0.0288858 0.267228 0.0759431 1.08386 -0.034366 0.00332689 -0.0380254 0.915153)
(1.00159 0.0143795 0.269136 0.0614367 1.09978 0.0125597 0.00987929 -0.0368702 0.915152)
(0.991583 -0.00469903 0.262866 0.0423581 1.10979 0.0591039 0.0161313 -0.0345946 0.915152)
(0.988707 -0.0260489 0.248609 0.0210083 1.11266 0.103852 0.0218932 -0.0312675 0.915152)
(0.993307 -0.0470948 0.226799 -3.7507e-05 1.10806 0.145445 0.0269903 -0.0269903 0.915152)
(1.00483 -0.0652984 0.198097 -0.0182409 1.09654 0.182618 0.0312674 -0.0218935 0.915152)
(1.02188 -0.0784637 0.163376 -0.0314061 1.07949 0.214243 0.0345941 -0.0161313 0.915152)
(1.0424 -0.0850031 0.123691 -0.0379453 1.05897 0.239358 0.0368698 -0.00987898 0.915152)
(1.06393 -0.0841277 0.0802476 -0.0370701 1.03744 0.257201 0.0380253 -0.00332662 0.915152)
(1.08386 -0.0759431 0.034366 -0.0288858 1.01751 0.267228 0.0380254 0.00332689 0.915153)
(1.09978 -0.0614367 -0.0125598 -0.0143795 1.00159 0.269136 0.0368702 0.00987928 0.915152)
(1.10979 -0.0423581 -0.0591039 0.00469904 0.991583 0.262866 0.0345946 0.0161313 0.915152)
(1.11266 -0.0210083 -0.103852 0.0260489 0.988707 0.248609 0.0312675 0.0218932 0.915152)
(1.10806 3.75075e-05 -0.145445 0.0470949 0.993307 0.226799 0.0269903 0.0269903 0.915152)
(1.09654 0.0182409 -0.182618 0.0652984 1.00483 0.198097 0.0218935 0.0312674 0.915152)
(1.07949 0.0314061 -0.214243 0.0784637 1.02188 0.163376 0.0161313 0.0345941 0.915152)
(1.05897 0.0379453 -0.239358 0.0850031 1.0424 0.123691 0.00987898 0.0368698 0.915152)
(1.03744 0.0370701 -0.257201 0.0841277 1.06393 0.0802476 0.00332662 0.0380253 0.915152)
(1.01751 0.0288858 -0.267228 0.0759431 1.08386 0.034366 -0.00332689 0.0380254 0.915153)
(1.00159 0.0143795 -0.269136 0.0614367 1.09978 -0.0125597 -0.00987929 0.0368702 0.915152)
(0.991583 -0.00469904 -0.262866 0.0423581 1.10979 -0.0591039 -0.0161313 0.0345946 0.915152)
(0.988707 -0.0260489 -0.248609 0.0210083 1.11266 -0.103852 -0.0218932 0.0312675 0.915152)
(0.993307 -0.0470949 -0.226799 -3.7511e-05 1.10806 -0.145445 -0.0269903 0.0269903 0.915152)
(1.00483 -0.0652984 -0.198097 -0.0182409 1.09654 -0.182618 -0.0312674 0.0218935 0.915152)
(1.02188 -0.0784637 -0.163376 -0.0314061 1.07949 -0.214243 -0.0345941 0.0161313 0.915152)
(1.0424 -0.0850031 -0.123691 -0.0379453 1.05897 -0.239358 -0.0368698 0.00987898 0.915152)
(1.06393 -0.0841277 -0.0802476 -0.0370701 1.03744 -0.257201 -0.0380253 0.00332662 0.915152)
(1.0952 -0.0880956 -0.0197394 -0.0258204 1.01095 -0.273451 -0.03376 -0.00295363 0.904486)
(1.11214 -0.0702521 0.0280447 -0.00797705 0.99401 -0.272725 -0.0327344 -0.00877106 0.904486)
(1.12196 -0.0476907 0.0749768 0.0145842 0.984194 -0.263711 -0.030714 -0.0143219 0.904486)
(1.12347 -0.0231331 0.119631 0.0391421 0.982686 -0.246686 -0.02776 -0.0194375 0.904486)
(1.11649 0.00045929 0.16065 0.0627347 0.989669 -0.222164 -0.0239627 -0.0239626 0.904486)
(1.10185 0.0202406 0.196787 0.0825161 1.0043 -0.190892 -0.0194376 -0.0277599 0.904486)
(1.08134 0.0338248 0.226946 0.0961004 1.02481 -0.15382 -0.0143218 -0.0307135 0.904486)
(1.05742 0.0395737 0.250209 0.101849 1.04874 -0.112075 -0.00877085 -0.032734 0.904486)
(1.03297 0.0367938 0.265869 0.0990691 1.07318 -0.0669238 -0.00295353 -0.0337599 0.904486)
(1.01095 0.0258204 0.273451 0.0880956 1.0952 -0.0197394 0.00295363 -0.03376 0.904486)
(0.994009 0.00797705 0.272725 0.0702521 1.11214 0.0280447 0.00877106 -0.0327344 0.904486)
(0.984194 -0.0145842 0.263711 0.0476907 1.12196 0.0749768 0.0143219 -0.030714 0.904486)
(0.982686 -0.0391421 0.246685 0.0231331 1.12347 0.119631 0.0194375 -0.02776 0.904486)
(0.989669 -0.0627347 0.222164 -0.000459285 1.11649 0.16065 0.0239626 -0.0239627 0.904486)
(1.0043 -0.0825161 0.190892 -0.0202406 1.10185 0.196787 0.0277599 -0.0194376 0.904486)
(1.02481 -0.0961004 0.15382 -0.0338248 1.08134 0.226946 0.0307135 -0.0143218 0.904486)
(1.04874 -0.101849 0.112075 -0.0395736 1.05742 0.250209 0.032734 -0.00877085 0.904486)
(1.07318 -0.0990691 0.0669238 -0.0367938 1.03297 0.265869 0.0337599 -0.00295353 0.904486)
(1.0952 -0.0880956 0.0197394 -0.0258203 1.01095 0.273451 0.03376 0.00295363 0.904486)
(1.11214 -0.0702521 -0.0280448 -0.00797705 0.994009 0.272725 0.0327344 0.00877106 0.904486)
(1.12196 -0.0476907 -0.0749768 0.0145842 0.984194 0.263711 0.030714 0.0143219 0.904486)
(1.12347 -0.0231331 -0.119631 0.0391421 0.982686 0.246686 0.02776 0.0194375 0.904486)
(1.11649 0.000459286 -0.16065 0.0627347 0.989669 0.222164 0.0239627 0.0239626 0.904486)
(1.10185 0.0202406 -0.196787 0.0825161 1.0043 0.190892 0.0194376 0.0277599 0.904486)
(1.08134 0.0338248 -0.226946 0.0961004 1.02481 0.15382 0.0143218 0.0307135 0.904486)
(1.05742 0.0395736 -0.250209 0.101849 1.04874 0.112075 0.00877085 0.032734 0.904486)
(1.03297 0.0367938 -0.265869 0.0990691 1.07318 0.0669238 0.00295353 0.0337599 0.904486)
(1.01095 0.0258203 -0.273451 0.0880956 1.0952 0.0197394 -0.00295363 0.03376 0.904486)
(0.99401 0.00797704 -0.272725 0.0702521 1.11214 -0.0280447 -0.00877106 0.0327344 0.904486)
(0.984194 -0.0145842 -0.263711 0.0476907 1.12196 -0.0749768 -0.0143219 0.030714 0.904486)
(0.982686 -0.0391421 -0.246686 0.0231331 1.12347 -0.119631 -0.0194375 0.02776 0.904486)
(0.989669 -0.0627347 -0.222164 -0.000459289 1.11649 -0.16065 -0.0239626 0.0239627 0.904486)
(1.0043 -0.0825161 -0.190892 -0.0202406 1.10185 -0.196787 -0.0277599 0.0194376 0.904486)
(1.02481 -0.0961004 -0.15382 -0.0338248 1.08134 -0.226946 -0.0307135 0.0143218 0.904486)
(1.04874 -0.101849 -0.112075 -0.0395737 1.05742 -0.250209 -0.032734 0.00877085 0.904486)
(1.07318 -0.0990691 -0.0669238 -0.0367938 1.03297 -0.265869 -0.0337599 0.00295353 0.904486)
(1.10695 -0.102709 -0.00471448 -0.0207465 0.99992 -0.279317 -0.0292669 -0.00256048 0.894231)
(1.12484 -0.0806824 0.04386 0.0012797 0.982036 -0.275892 -0.0283778 -0.00760372 0.894231)
(1.13411 -0.0538673 0.0911018 0.0280949 0.972763 -0.264085 -0.0266262 -0.0124159 0.894231)
(1.13365 -0.025498 0.135576 0.0564643 0.973221 -0.244253 -0.0240653 -0.0168507 0.894231)
(1.12352 0.00100382 0.17593 0.0829663 0.983354 -0.217 -0.0207735 -0.0207735 0.894231)
(1.10493 0.0224416 0.210939 0.104404 1.00194 -0.183153 -0.0168506 -0.0240653 0.894231)
(1.08014 0.0362296 0.239538 0.118192 1.02674 -0.143742 -0.0124157 -0.0266259 0.894231)
(1.05212 0.0407048 0.26086 0.122667 1.05476 -0.0999623 -0.00760364 -0.0283774 0.894231)
(1.02426 0.0353277 0.274255 0.11729 1.08261 -0.0531457 -0.00256053 -0.0292669 0.894231)
(0.99992 0.0207465 0.279317 0.102709 1.10695 -0.00471446 0.00256048 -0.0292669 0.894231)
(0.982036 -0.0012797 0.275892 0.0806824 1.12484 0.04386 0.00760372 -0.0283778 0.894231)
(0.972763 -0.0280949 0.264085 0.0538673 1.13411 0.0911018 0.0124159 -0.0266262 0.894231)
(0.973221 -0.0564643 0.244253 0.025498 1.13365 0.135576 0.0168507 -0.0240653 0.894231)
(0.983354 -0.0829663 0.217 -0.00100382 1.12352 0.17593 0.0207735 -0.0207735 0.894231)
(1.00194 -0.104404 0.183153 -0.0224416 1.10493 0.210939 0.0240653 -0.0168506 0.894231)
(1.02674 -0.118192 0.143742 -0.0362296 1.08014 0.239538 0.0266259 -0.0124157 0.894231)
(1.05476 -0.122667 0.0999623 -0.0407048 1.05212 0.26086 0.0283774 -0.00760364 0.894231)
(1.08261 -0.11729 0.0531457 -0.0353277 1.02426 0.274255 0.0292669 -0.00256053 0.894231)
(1.10695 -0.102709 0.00471445 -0.0207465 0.99992 0.279317 0.0292669 0.00256048 0.894231)
(1.12484 -0.0806824 -0.04386 0.0012797 0.982036 0.275892 0.0283778 0.00760371 0.894231)
(1.13411 -0.0538673 -0.0911018 0.0280949 0.972763 0.264085 0.0266262 0.0124159 0.894231)
(1.13365 -0.025498 -0.135576 0.0564643 0.973221 0.244253 0.0240653 0.0168507 0.894231)
(1.12352 0.00100382 -0.17593 0.0829663 0.983354 0.217 0.0207735 0.0207735 0.894231)
(1.10493 0.0224416 -0.210939 0.104404 1.00194 0.183153 0.0168506 0.0240653 0.894231)
(1.08014 0.0362296 -0.239538 0.118192 1.02674 0.143742 0.0124157 0.0266259 0.894231)
(1.05212 0.0407048 -0.26086 0.122667 1.05476 0.0999623 0.00760364 0.0283774 0.894231)
(1.02426 0.0353277 -0.274255 0.11729 1.08261 0.0531457 0.00256053 0.0292669 0.894231)
(0.99992 0.0207465 -0.279317 0.102709 1.10695 0.00471446 -0.00256048 0.0292669 0.894231)
(0.982036 -0.00127971 -0.275892 0.0806824 1.12484 -0.04386 -0.00760371 0.0283778 0.894231)
(0.972763 -0.0280949 -0.264085 0.0538673 1.13411 -0.0911018 -0.0124159 0.0266262 0.894231)
(0.973221 -0.0564643 -0.244253 0.025498 1.13365 -0.135576 -0.0168507 0.0240653 0.894231)
(0.983354 -0.0829663 -0.217 -0.00100382 1.12352 -0.17593 -0.0207735 0.0207735 0.894231)
(1.00194 -0.104404 -0.183153 -0.0224416 1.10493 -0.210939 -0.0240653 0.0168506 0.894231)
(1.02674 -0.118192 -0.143742 -0.0362296 1.08014 -0.239538 -0.0266259 0.0124157 0.894231)
(1.05476 -0.122667 -0.0999623 -0.0407048 1.05212 -0.26086 -0.0283774 0.00760364 0.894231)
(1.08261 -0.11729 -0.0531457 -0.0353277 1.02426 -0.274255 -0.0292669 0.00256053 0.894231)
(1.11561 -0.127165 -0.0153497 -0.0349104 1.02298 -0.261682 -0.0536477 -0.00469359 0.885114)
(1.14053 -0.106436 0.0303241 -0.0141819 0.998052 -0.260372 -0.0520176 -0.0139379 0.885114)
(1.15686 -0.0784337 0.0750765 0.0138207 0.981722 -0.251151 -0.048807 -0.0227587 0.885114)
(1.16263 -0.0465342 0.117548 0.04572 0.975953 -0.234298 -0.0441131 -0.0308879 0.885114)
(1.15714 -0.0145858 0.156447 0.0776686 0.981443 -0.210327 -0.0380789 -0.0380787 0.885114)
(1.14106 0.0135583 0.190593 0.105813 0.997529 -0.179964 -0.030888 -0.0441127 0.885114)
(1.11631 0.0345033 0.218948 0.126758 1.02227 -0.144134 -0.0227585 -0.0488064 0.885114)
(1.0859 0.0457232 0.24065 0.137978 1.05268 -0.103924 -0.0139375 -0.0520171 0.885114)
(1.05349 0.0458647 0.255041 0.138119 1.0851 -0.0605571 -0.00469321 -0.0536476 0.885114)
(1.02298 0.0349104 0.261682 0.127165 1.11561 -0.0153497 0.00469359 -0.0536477 0.885114)
(0.998052 0.0141819 0.260372 0.106436 1.14053 0.0303241 0.0139379 -0.0520176 0.885114)
(0.981722 -0.0138207 0.251151 0.0784337 1.15686 0.0750765 0.0227587 -0.048807 0.885114)
(0.975953 -0.04572 0.234298 0.0465342 1.16263 0.117548 0.0308879 -0.0441131 0.885114)
(0.981443 -0.0776686 0.210327 0.0145858 1.15714 0.156447 0.0380787 -0.0380789 0.885114)
(0.997529 -0.105813 0.179964 -0.0135583 1.14106 0.190593 0.0441127 -0.030888 0.885114)
(1.02227 -0.126758 0.144134 -0.0345033 1.11631 0.218948 0.0488064 -0.0227585 0.885114)
(1.05268 -0.137978 0.103924 -0.0457232 1.0859 0.24065 0.0520171 -0.0139375 0.885114)
(1.0851 -0.138119 0.0605571 -0.0458647 1.05349 0.255041 0.0536476 -0.00469321 0.885114)
(1.11561 -0.127165 0.0153497 -0.0349104 1.02298 0.261682 0.0536477 0.00469358 0.885114)
(1.14053 -0.106436 -0.0303241 -0.0141819 0.998052 0.260372 0.0520176 0.0139379 0.885114)
(1.15686 -0.0784337 -0.0750765 0.0138207 0.981722 0.251151 0.048807 0.0227587 0.885114)
(1.16263 -0.0465342 -0.117548 0.04572 0.975953 0.234298 0.0441131 0.0308879 0.885114)
(1.15714 -0.0145858 -0.156447 0.0776686 0.981443 0.210327 0.038079 0.0380787 0.885114)
(1.14106 0.0135583 -0.190593 0.105813 0.997529 0.179964 0.030888 0.0441127 0.885114)
(1.11631 0.0345033 -0.218948 0.126758 1.02227 0.144134 0.0227585 0.0488064 0.885114)
(1.0859 0.0457232 -0.24065 0.137978 1.05268 0.103924 0.0139375 0.0520171 0.885114)
(1.05349 0.0458647 -0.255041 0.138119 1.0851 0.0605571 0.00469321 0.0536476 0.885114)
(1.02298 0.0349104 -0.261682 0.127165 1.11561 0.0153497 -0.00469358 0.0536477 0.885114)
(0.998052 0.0141819 -0.260372 0.106436 1.14053 -0.0303241 -0.0139379 0.0520176 0.885114)
(0.981722 -0.0138207 -0.251151 0.0784337 1.15686 -0.0750765 -0.0227587 0.048807 0.885114)
(0.975953 -0.04572 -0.234298 0.0465342 1.16263 -0.117548 -0.0308879 0.0441131 0.885114)
(0.981443 -0.0776686 -0.210327 0.0145858 1.15714 -0.156447 -0.0380787 0.038079 0.885114)
(0.997529 -0.105813 -0.179964 -0.0135583 1.14106 -0.190593 -0.0441127 0.030888 0.885114)
(1.02227 -0.126758 -0.144134 -0.0345033 1.11631 -0.218948 -0.0488064 0.0227585 0.885114)
(1.05268 -0.137978 -0.103924 -0.0457232 1.0859 -0.24065 -0.0520171 0.0139375 0.885114)
(1.0851 -0.138119 -0.0605571 -0.0458647 1.05349 -0.255041 -0.0536476 0.00469321 0.885114)
(1.12674 -0.145718 -0.00424642 -0.0313973 1.01393 -0.261142 -0.0500637 -0.00438003 0.878621)
(1.15363 -0.121086 0.041165 -0.00676567 0.987046 -0.257912 -0.0485425 -0.0130068 0.878621)
(1.17047 -0.0887441 0.0853255 0.0255764 0.970205 -0.246846 -0.0455464 -0.0212384 0.878621)
(1.17523 -0.0525925 0.126893 0.0617281 0.965441 -0.228279 -0.0411661 -0.0288246 0.878621)
(1.16734 -0.0169918 0.164606 0.0973289 0.973329 -0.202776 -0.0355351 -0.035535 0.878621)
(1.14775 0.013764 0.197317 0.128085 0.992918 -0.171112 -0.0288246 -0.0411658 0.878621)
(1.11883 0.0359651 0.224032 0.150286 1.02184 -0.134249 -0.0212382 -0.0455458 0.878621)
(1.08405 0.046934 0.243941 0.161255 1.05662 -0.0933062 -0.0130066 -0.0485421 0.878621)
(1.04762 0.0453477 0.256437 0.159669 1.09305 -0.0495288 -0.00437984 -0.0500636 0.878621)
(1.01393 0.0313973 0.261142 0.145718 1.12674 -0.0042464 0.00438004 -0.0500637 0.878621)
(0.987046 0.00676567 0.257912 0.121086 1.15363 0.041165 0.0130068 -0.0485425 0.878621)
(0.970205 -0.0255764 0.246846 0.0887441 1.17047 0.0853256 0.0212384 -0.0455464 0.878621)
(0.965441 -0.061728 0.228279 0.0525925 1.17523 0.126893 0.0288246 -0.0411661 0.878621)
(0.973329 -0.0973288 0.202776 0.0169918 1.16734 0.164606 0.035535 -0.0355351 0.878621)
(0.992918 -0.128085 0.171112 -0.013764 1.14775 0.197317 0.0411658 -0.0288246 0.878621)
(1.02184 -0.150286 0.134249 -0.0359651 1.11883 0.224032 0.0455458 -0.0212382 0.878621)
(1.05662 -0.161255 0.0933062 -0.046934 1.08405 0.243941 0.0485421 -0.0130066 0.878621)
(1.09305 -0.159669 0.0495287 -0.0453477 1.04762 0.256437 0.0500636 -0.00437985 0.878621)
(1.12674 -0.145718 0.00424638 -0.0313973 1.01393 0.261142 0.0500637 0.00438003 0.878621)
(1.15363 -0.121086 -0.041165 -0.00676567 0.987046 0.257912 0.0485425 0.0130068 0.878621)
(1.17047 -0.0887441 -0.0853256 0.0255764 0.970205 0.246846 0.0455464 0.0212384 0.878621)
(1.17523 -0.0525925 -0.126893 0.061728 0.965441 0.228279 0.0411661 0.0288246 0.878621)
(1.16734 -0.0169918 -0.164606 0.0973289 0.973329 0.202776 0.0355351 0.035535 0.878621)
(1.14775 0.013764 -0.197317 0.128085 0.992918 0.171112 0.0288246 0.0411658 0.878621)
(1.11883 0.0359651 -0.224032 0.150286 1.02184 0.134249 0.0212382 0.0455458 0.878621)
(1.08405 0.046934 -0.243941 0.161255 1.05662 0.0933062 0.0130066 0.0485421 0.878621)
(1.04762 0.0453477 -0.256437 0.159669 1.09305 0.0495288 0.00437985 0.0500636 0.878621)
(1.01393 0.0313973 -0.261142 0.145718 1.12674 0.0042464 -0.00438003 0.0500637 0.878621)
(0.987046 0.00676566 -0.257912 0.121086 1.15363 -0.041165 -0.0130068 0.0485425 0.878621)
(0.970205 -0.0255764 -0.246846 0.0887441 1.17047 -0.0853256 -0.0212384 0.0455464 0.878621)
(0.965441 -0.0617281 -0.228279 0.0525925 1.17523 -0.126893 -0.0288246 0.0411661 0.878621)
(0.973329 -0.0973289 -0.202776 0.0169918 1.16734 -0.164606 -0.035535 0.0355351 0.878621)
(0.992918 -0.128085 -0.171112 -0.013764 1.14775 -0.197317 -0.0411658 0.0288246 0.878621)
(1.02184 -0.150286 -0.134249 -0.0359651 1.11883 -0.224032 -0.0455458 0.0212382 0.878621)
(1.05662 -0.161255 -0.0933062 -0.046934 1.08405 -0.243941 -0.0485421 0.0130066 0.878621)
(1.09305 -0.159669 -0.0495288 -0.0453477 1.04762 -0.256437 -0.0500636 0.00437984 0.878621)
(1.13817 -0.168132 0.00604144 -0.0250005 1.00018 -0.260294 -0.0459206 -0.00401752 0.871776)
(1.16703 -0.138712 0.0511493 0.00442016 0.971314 -0.255291 -0.0445253 -0.0119305 0.871776)
(1.1841 -0.101192 0.0947029 0.0419397 0.95425 -0.24253 -0.0417771 -0.0194809 0.871776)
(1.1873 -0.0600992 0.135379 0.0830326 0.951048 -0.222401 -0.0377593 -0.0264393 0.871776)
(1.17625 -0.0203893 0.171942 0.122743 0.962094 -0.195514 -0.0325943 -0.0325943 0.871776)
(1.15229 0.0131479 0.20328 0.15628 0.986055 -0.162686 -0.0264392 -0.0377591 0.871776)
(1.11831 0.0364673 0.228442 0.179599 1.02004 -0.124915 -0.0194807 -0.0417766 0.871776)
(1.07839 0.0467562 0.246663 0.189888 1.05995 -0.0833489 -0.0119304 -0.0445249 0.871776)
(1.03737 0.0427739 0.257389 0.185906 1.10098 -0.03925 -0.0040175 -0.0459205 0.871776)
(1.00018 0.0250005 0.260294 0.168132 1.13817 0.00604146 0.00401752 -0.0459206 0.871776)
(0.971314 -0.00442015 0.255291 0.138712 1.16703 0.0511493 0.0119305 -0.0445253 0.871776)
(0.95425 -0.0419397 0.24253 0.101192 1.1841 0.0947029 0.0194809 -0.0417771 0.871776)
(0.951048 -0.0830326 0.222401 0.0600992 1.1873 0.135379 0.0264393 -0.0377593 0.871776)
(0.962094 -0.122743 0.195514 0.0203893 1.17625 0.171942 0.0325943 -0.0325943 0.871776)
(0.986055 -0.15628 0.162686 -0.0131479 1.15229 0.20328 0.0377591 -0.0264392 0.871776)
(1.02004 -0.179599 0.124915 -0.0364673 1.11831 0.228442 0.0417766 -0.0194807 0.871776)
(1.05995 -0.189888 0.0833489 -0.0467562 1.07839 0.246663 0.0445249 -0.0119304 0.871776)
(1.10098 -0.185906 0.03925 -0.0427739 1.03737 0.257389 0.0459205 -0.00401751 0.871776)
(1.13817 -0.168132 -0.00604147 -0.0250005 1.00018 0.260294 0.0459206 0.00401751 0.871776)
(1.16703 -0.138712 -0.0511493 0.00442016 0.971314 0.255291 0.0445253 0.0119305 0.871776)
(1.1841 -0.101192 -0.0947029 0.0419397 0.95425 0.24253 0.0417771 0.0194809 0.871776)
(1.1873 -0.0600992 -0.135379 0.0830326 0.951048 0.222401 0.0377593 0.0264393 0.871776)
(1.17625 -0.0203893 -0.171942 0.122743 0.962094 0.195514 0.0325943 0.0325943 0.871776)
(1.15229 0.0131479 -0.20328 0.15628 0.986055 0.162686 0.0264392 0.0377591 0.871776)
(1.11831 0.0364673 -0.228442 0.179599 1.02004 0.124915 0.0194807 0.0417766 0.871776)
(1.07839 0.0467562 -0.246663 0.189888 1.05995 0.0833489 0.0119304 0.0445249 0.871776)
(1.03737 0.0427739 -0.257389 0.185906 1.10098 0.03925 0.00401751 0.0459205 0.871776)
(1.00018 0.0250005 -0.260294 0.168132 1.13817 -0.00604145 -0.00401751 0.0459206 0.871776)
(0.971314 -0.00442016 -0.255291 0.138712 1.16703 -0.0511493 -0.0119305 0.0445253 0.871776)
(0.95425 -0.0419397 -0.24253 0.101192 1.1841 -0.0947029 -0.0194809 0.0417771 0.871776)
(0.951048 -0.0830326 -0.222401 0.0600992 1.1873 -0.135379 -0.0264393 0.0377593 0.871776)
(0.962094 -0.122743 -0.195514 0.0203893 1.17625 -0.171942 -0.0325943 0.0325943 0.871776)
(0.986055 -0.15628 -0.162686 -0.0131479 1.15229 -0.20328 -0.0377591 0.0264392 0.871776)
(1.02004 -0.179599 -0.124915 -0.0364673 1.11831 -0.228442 -0.0417766 0.0194807 0.871776)
(1.05995 -0.189888 -0.0833489 -0.0467562 1.07839 -0.246663 -0.0445249 0.0119304 0.871776)
(1.10098 -0.185906 -0.03925 -0.0427739 1.03737 -0.257389 -0.0459205 0.0040175 0.871776)
(1.13647 -0.178922 0.0060219 -0.0257427 1.02426 -0.249203 -0.0630875 -0.0055196 0.86743)
(1.16808 -0.153562 0.0492041 -0.000382723 0.992642 -0.244371 -0.0611708 -0.0163906 0.86743)
(1.18912 -0.118918 0.0908912 0.0342612 0.971605 -0.232115 -0.0573952 -0.0267636 0.86743)