/*--------------------------------*- C++ -*----------------------------------*\
| =========                 |                                                 |
| \\      /  F ield         | OpenFOAM: The Open Source CFD Toolbox           |
|  \\    /   O peration     | Version:  2312                                  |
|   \\  /    A nd           | Website:  www.openfoam.com                      |
|    \\/     M anipulation  |                                                 |
\*---------------------------------------------------------------------------*/
FoamFile
{
    version     2.0;
    format      ascii;
    arch        "LSB;label=32;scalar=64";
    class       volScalarField;
    location    "0.4";
    object      sigmaHyd;
}
// * * * * * * * * * * * * * * * * * * * * * * * * * * * * * * * * * * * * * //

dimensions      [1 -1 -2 0 0 0 0];

internalField   nonuniform List<scalar> 
1620
(
-7394.29
-7394.26
-7394.26
-7394.35
-7394.36
-7394.32
-7394.32
-7394.32
-7394.31
-7394.29
-7394.26
-7394.26
-7394.35
-7394.36
-7394.32
-7394.32
-7394.32
-7394.31
-7394.29
-7394.26
-7394.26
-7394.35
-7394.36
-7394.32
-7394.32
-7394.32
-7394.31
-7394.29
-7394.26
-7394.26
-7394.35
-7394.36
-7394.32
-7394.32
-7394.32
-7394.31
-17005.8
-17005.8
-17005.8
-17005.8
-17005.8
-17005.9
-17005.8
-17005.8
-17005.9
-17005.8
-17005.8
-17005.8
-17005.8
-17005.8
-17005.9
-17005.8
-17005.8
-17005.9
-17005.8
-17005.8
-17005.8
-17005.8
-17005.8
-17005.9
-17005.8
-17005.8
-17005.9
-17005.8
-17005.8
-17005.8
-17005.8
-17005.8
-17005.9
-17005.8
-17005.8
-17005.9
-29093.9
-29093.9
-29094
-29093.9
-29093.9
-29093.9
-29093.9
-29094
-29093.9
-29093.9
-29093.9
-29094
-29093.9
-29093.9
-29093.9
-29093.9
-29094
-29093.9
-29093.9
-29093.9
-29094
-29093.9
-29093.9
-29093.9
-29093.9
-29094
-29093.9
-29093.9
-29093.9
-29094
-29093.9
-29093.9
-29093.9
-29093.9
-29094
-29093.9
4180.75
4180.69
4180.77
4180.77
4180.81
4180.82
4180.66
4180.72
4180.77
4180.75
4180.69
4180.77
4180.77
4180.81
4180.82
4180.66
4180.72
4180.77
4180.75
4180.69
4180.77
4180.77
4180.81
4180.82
4180.66
4180.72
4180.77
4180.75
4180.69
4180.77
4180.77
4180.81
4180.82
4180.66
4180.72
4180.77
-2990.73
-2990.67
-2990.77
-2990.77
-2990.77
-2990.86
-2990.7
-2990.7
-2990.73
-2990.73
-2990.67
-2990.77
-2990.77
-2990.77
-2990.86
-2990.7
-2990.7
-2990.73
-2990.73
-2990.67
-2990.77
-2990.77
-2990.77
-2990.86
-2990.7
-2990.7
-2990.73
-2990.73
-2990.67
-2990.77
-2990.77
-2990.77
-2990.86
-2990.7
-2990.7
-2990.73
-13979.1
-13979.1
-13979.1
-13979.1
-13979
-13978.9
-13979.1
-13979.1
-13979.1
-13979.1
-13979.1
-13979.1
-13979.1
-13979
-13978.9
-13979.1
-13979.1
-13979.1
-13979.1
-13979.1
-13979.1
-13979.1
-13979
-13978.9
-13979.1
-13979.1
-13979.1
-13979.1
-13979.1
-13979.1
-13979.1
-13979
-13978.9
-13979.1
-13979.1
-13979.1
2196.93
2196.88
2196.92
2196.88
2196.95
2196.96
2196.84
2196.94
2196.84
2196.93
2196.88
2196.92
2196.88
2196.95
2196.96
2196.84
2196.94
2196.84
2196.93
2196.88
2196.92
2196.88
2196.95
2196.96
2196.84
2196.94
2196.84
2196.93
2196.88
2196.92
2196.88
2196.95
2196.96
2196.84
2196.94
2196.84
-3666.07
-3666.04
-3666.07
-3665.96
-3665.98
-3666.07
-3666
-3666.14
-3666.01
-3666.07
-3666.04
-3666.07
-3665.96
-3665.98
-3666.07
-3666
-3666.14
-3666.01
-3666.07
-3666.04
-3666.07
-3665.96
-3665.98
-3666.07
-3666
-3666.14
-3666.01
-3666.07
-3666.04
-3666.07
-3665.96
-3665.98
-3666.07
-3666
-3666.14
-3666.01
-14281.7
-14281.7
-14281.6
-14281.7
-14281.8
-14281.7
-14281.8
-14281.6
-14281.7
-14281.7
-14281.7
-14281.6
-14281.7
-14281.8
-14281.7
-14281.8
-14281.6
-14281.7
-14281.7
-14281.7
-14281.6
-14281.7
-14281.8
-14281.7
-14281.8
-14281.6
-14281.7
-14281.7
-14281.7
-14281.6
-14281.7
-14281.8
-14281.7
-14281.8
-14281.6
-14281.7
1734.38
1734.37
1734.34
1734.39
1734.41
1734.39
1734.45
1734.33
1734.4
1734.38
1734.37
1734.34
1734.39
1734.41
1734.39
1734.45
1734.33
1734.4
1734.38
1734.37
1734.34
1734.39
1734.41
1734.39
1734.45
1734.33
1734.4
1734.38
1734.37
1734.34
1734.39
1734.41
1734.39
1734.45
1734.33
1734.41
-3523.54
-3523.53
-3523.55
-3523.5
-3523.57
-3523.51
-3523.55
-3523.52
-3523.54
-3523.54
-3523.53
-3523.55
-3523.5
-3523.57
-3523.51
-3523.55
-3523.52
-3523.54
-3523.54
-3523.53
-3523.55
-3523.5
-3523.57
-3523.51
-3523.55
-3523.52
-3523.54
-3523.54
-3523.53
-3523.55
-3523.5
-3523.57
-3523.51
-3523.55
-3523.52
-3523.54
-13334.8
-13334.9
-13334.8
-13334.9
-13334.8
-13334.8
-13334.9
-13334.8
-13334.8
-13334.8
-13334.9
-13334.8
-13334.9
-13334.8
-13334.8
-13334.9
-13334.8
-13334.8
-13334.8
-13334.9
-13334.8
-13334.9
-13334.8
-13334.8
-13334.9
-13334.8
-13334.8
-13334.8
-13334.9
-13334.8
-13334.9
-13334.8
-13334.8
-13334.9
-13334.8
-13334.8
1060.41
1060.5
1060.37
1060.44
1060.4
1060.41
1060.52
1060.37
1060.43
1060.41
1060.5
1060.37
1060.44
1060.4
1060.41
1060.52
1060.37
1060.43
1060.41
1060.5
1060.37
1060.44
1060.4
1060.41
1060.52
1060.37
1060.43
1060.41
1060.5
1060.37
1060.44
1060.4
1060.41
1060.52
1060.37
1060.43
-3711.84
-3711.96
-3711.85
-3711.93
-3711.91
-3711.86
-3711.95
-3711.84
-3711.89
-3711.84
-3711.96
-3711.85
-3711.93
-3711.91
-3711.86
-3711.95
-3711.84
-3711.89
-3711.84
-3711.96
-3711.85
-3711.93
-3711.91
-3711.86
-3711.95
-3711.84
-3711.89
-3711.84
-3711.96
-3711.85
-3711.93
-3711.91
-3711.86
-3711.95
-3711.84
-3711.89
-12714.9
-12714.8
-12714.8
-12714.8
-12714.8
-12714.8
-12714.8
-12714.9
-12714.8
-12714.9
-12714.8
-12714.8
-12714.8
-12714.8
-12714.8
-12714.8
-12714.9
-12714.8
-12714.9
-12714.8
-12714.8
-12714.8
-12714.8
-12714.8
-12714.8
-12714.9
-12714.8
-12714.9
-12714.8
-12714.8
-12714.8
-12714.8
-12714.8
-12714.8
-12714.9
-12714.8
371.8
371.857
371.782
371.847
371.801
371.801
371.827
371.746
371.834
371.799
371.857
371.782
371.847
371.801
371.801
371.827
371.746
371.834
371.799
371.857
371.782
371.847
371.801
371.802
371.828
371.746
371.834
371.8
371.857
371.782
371.847
371.801
371.802
371.827
371.746
371.834
-3927.31
-3927.42
-3927.33
-3927.36
-3927.35
-3927.36
-3927.36
-3927.27
-3927.39
-3927.31
-3927.42
-3927.33
-3927.36
-3927.35
-3927.36
-3927.36
-3927.27
-3927.39
-3927.31
-3927.42
-3927.33
-3927.36
-3927.35
-3927.36
-3927.36
-3927.27
-3927.39
-3927.31
-3927.42
-3927.33
-3927.36
-3927.35
-3927.36
-3927.36
-3927.27
-3927.39
-11992.1
-11992
-11992.1
-11992.1
-11992.1
-11992.2
-11992.1
-11992.2
-11992.1
-11992.1
-11992
-11992.1
-11992.1
-11992.1
-11992.2
-11992.1
-11992.2
-11992.1
-11992.1
-11992
-11992.1
-11992.1
-11992.1
-11992.2
-11992.1
-11992.2
-11992.1
-11992.1
-11992
-11992.1
-11992.1
-11992.1
-11992.2
-11992.1
-11992.2
-11992.1
-469.161
-469.112
-469.256
-469.073
-469.167
-469.265
-469.123
-469.246
-469.17
-469.161
-469.112
-469.256
-469.073
-469.167
-469.264
-469.123
-469.246
-469.17
-469.161
-469.112
-469.256
-469.072
-469.166
-469.264
-469.123
-469.245
-469.17
-469.161
-469.112
-469.256
-469.072
-469.166
-469.264
-469.123
-469.245
-469.17
-4180.35
-4180.52
-4180.38
-4180.5
-4180.43
-4180.33
-4180.48
-4180.36
-4180.5
-4180.35
-4180.52
-4180.38
-4180.5
-4180.43
-4180.33
-4180.48
-4180.36
-4180.5
-4180.35
-4180.52
-4180.38
-4180.5
-4180.43
-4180.33
-4180.48
-4180.36
-4180.5
-4180.35
-4180.52
-4180.38
-4180.5
-4180.43
-4180.33
-4180.48
-4180.36
-4180.5
-11093.3
-11093.1
-11093.2
-11093.1
-11093.2
-11093.2
-11093.2
-11093.2
-11093.1
-11093.3
-11093.1
-11093.2
-11093.1
-11093.2
-11093.2
-11093.2
-11093.2
-11093.1
-11093.3
-11093.1
-11093.2
-11093.1
-11093.2
-11093.2
-11093.2
-11093.2
-11093.1
-11093.3
-11093.1
-11093.2
-11093.1
-11093.2
-11093.2
-11093.2
-11093.2
-11093.1
-1516.43
-1516.48
-1516.51
-1516.41
-1516.51
-1516.5
-1516.49
-1516.52
-1516.53
-1516.43
-1516.48
-1516.51
-1516.41
-1516.51
-1516.5
-1516.49
-1516.52
-1516.53
-1516.43
-1516.48
-1516.51
-1516.41
-1516.51
-1516.5
-1516.49
-1516.52
-1516.53
-1516.43
-1516.48
-1516.51
-1516.41
-1516.51
-1516.5
-1516.49
-1516.52
-1516.53
-4438.35
-4438.36
-4438.27
-4438.39
-4438.33
-4438.26
-4438.34
-4438.33
-4438.24
-4438.35
-4438.36
-4438.27
-4438.39
-4438.33
-4438.26
-4438.34
-4438.33
-4438.24
-4438.35
-4438.36
-4438.27
-4438.39
-4438.33
-4438.26
-4438.34
-4438.33
-4438.24
-4438.35
-4438.36
-4438.27
-4438.39
-4438.33
-4438.26
-4438.34
-4438.33
-4438.24
-9878.25
-9878.2
-9878.2
-9878.18
-9878.24
-9878.28
-9878.27
-9878.25
-9878.23
-9878.25
-9878.2
-9878.2
-9878.18
-9878.24
-9878.28
-9878.27
-9878.25
-9878.23
-9878.25
-9878.2
-9878.2
-9878.18
-9878.24
-9878.28
-9878.27
-9878.25
-9878.23
-9878.25
-9878.2
-9878.2
-9878.18
-9878.24
-9878.28
-9878.27
-9878.25
-9878.23
-2768.43
-2768.4
-2768.37
-2768.38
-2768.42
-2768.44
-2768.44
-2768.4
-2768.36
-2768.43
-2768.4
-2768.37
-2768.38
-2768.42
-2768.44
-2768.44
-2768.4
-2768.36
-2768.43
-2768.4
-2768.37
-2768.38
-2768.42
-2768.43
-2768.44
-2768.4
-2768.36
-2768.43
-2768.4
-2768.37
-2768.38
-2768.42
-2768.43
-2768.44
-2768.4
-2768.36
-4651
-4650.98
-4651
-4650.9
-4650.96
-4650.99
-4650.92
-4651
-4650.98
-4651
-4650.98
-4651
-4650.9
-4650.96
-4650.99
-4650.92
-4651
-4650.98
-4651
-4650.98
-4651
-4650.9
-4650.96
-4650.99
-4650.92
-4651
-4650.98
-4651
-4650.98
-4651
-4650.9
-4650.96
-4650.99
-4650.92
-4651
-4650.98
-8224.75
-8224.82
-8224.8
-8224.85
-8224.87
-8224.82
-8224.8
-8224.79
-8224.89
-8224.75
-8224.82
-8224.8
-8224.85
-8224.87
-8224.82
-8224.8
-8224.79
-8224.89
-8224.76
-8224.82
-8224.8
-8224.85
-8224.87
-8224.82
-8224.8
-8224.79
-8224.89
-8224.76
-8224.83
-8224.81
-8224.85
-8224.87
-8224.82
-8224.8
-8224.79
-8224.89
-4109.84
-4109.89
-4109.83
-4109.75
-4109.8
-4109.84
-4109.86
-4109.78
-4109.8
-4109.84
-4109.89
-4109.83
-4109.75
-4109.8
-4109.83
-4109.86
-4109.78
-4109.8
-4109.84
-4109.89
-4109.83
-4109.75
-4109.8
-4109.83
-4109.86
-4109.78
-4109.8
-4109.84
-4109.89
-4109.83
-4109.75
-4109.8
-4109.83
-4109.86
-4109.78
-4109.8
-4732.93
-4732.9
-4732.97
-4733
-4732.94
-4733.01
-4732.93
-4732.95
-4733
-4732.93
-4732.9
-4732.97
-4733
-4732.94
-4733.01
-4732.93
-4732.95
-4733
-4732.93
-4732.9
-4732.97
-4733
-4732.94
-4733.01
-4732.93
-4732.95
-4733
-4732.93
-4732.9
-4732.97
-4733
-4732.94
-4733.01
-4732.93
-4732.95
-4733
-6105.4
-6105.48
-6105.43
-6105.5
-6105.42
-6105.4
-6105.37
-6105.44
-6105.48
-6105.4
-6105.48
-6105.43
-6105.5
-6105.42
-6105.4
-6105.37
-6105.44
-6105.48
-6105.4
-6105.48
-6105.43
-6105.5
-6105.42
-6105.4
-6105.37
-6105.44
-6105.48
-6105.4
-6105.48
-6105.43
-6105.5
-6105.42
-6105.4
-6105.37
-6105.44
-6105.48
-5207.34
-5207.36
-5207.27
-5207.28
-5207.29
-5207.3
-5207.27
-5207.37
-5207.36
-5207.34
-5207.36
-5207.27
-5207.28
-5207.29
-5207.3
-5207.27
-5207.37
-5207.36
-5207.34
-5207.36
-5207.27
-5207.28
-5207.29
-5207.3
-5207.27
-5207.37
-5207.36
-5207.34
-5207.36
-5207.27
-5207.28
-5207.29
-5207.3
-5207.27
-5207.37
-5207.36
-4536.73
-4536.62
-4536.71
-4536.69
-4536.71
-4536.67
-4536.7
-4536.77
-4536.69
-4536.73
-4536.62
-4536.7
-4536.69
-4536.71
-4536.67
-4536.7
-4536.77
-4536.69
-4536.73
-4536.62
-4536.7
-4536.69
-4536.71
-4536.67
-4536.7
-4536.77
-4536.69
-4536.73
-4536.63
-4536.7
-4536.69
-4536.71
-4536.67
-4536.7
-4536.77
-4536.69
-3735.6
-3735.68
-3735.64
-3735.71
-3735.68
-3735.67
-3735.7
-3735.62
-3735.64
-3735.6
-3735.68
-3735.64
-3735.71
-3735.68
-3735.67
-3735.7
-3735.62
-3735.64
-3735.6
-3735.68
-3735.64
-3735.71
-3735.68
-3735.67
-3735.7
-3735.62
-3735.64
-3735.6
-3735.68
-3735.64
-3735.72
-3735.69
-3735.67
-3735.7
-3735.62
-3735.64
-5321.06
-5320.94
-5320.86
-5320.94
-5320.9
-5320.91
-5320.88
-5320.99
-5321.17
-5321.06
-5320.94
-5320.86
-5320.94
-5320.9
-5320.91
-5320.88
-5320.99
-5321.16
-5321.06
-5320.94
-5320.86
-5320.94
-5320.9
-5320.91
-5320.88
-5320.99
-5321.17
-5321.06
-5320.94
-5320.86
-5320.95
-5320.9
-5320.91
-5320.88
-5320.99
-5321.16
-3739.23
-3739.17
-3739.21
-3739.26
-3739.2
-3739.25
-3739.25
-3739.27
-3739.24
-3739.23
-3739.17
-3739.21
-3739.26
-3739.2
-3739.25
-3739.25
-3739.27
-3739.24
-3739.23
-3739.17
-3739.21
-3739.26
-3739.2
-3739.25
-3739.25
-3739.27
-3739.24
-3739.23
-3739.17
-3739.21
-3739.26
-3739.2
-3739.25
-3739.25
-3739.27
-3739.24
-1651.68
-1651.8
-1651.79
-1651.84
-1651.81
-1651.83
-1651.73
-1651.66
-1651.64
-1651.68
-1651.8
-1651.79
-1651.84
-1651.81
-1651.84
-1651.73
-1651.66
-1651.64
-1651.68
-1651.8
-1651.79
-1651.85
-1651.81
-1651.84
-1651.73
-1651.66
-1651.64
-1651.68
-1651.8
-1651.79
-1651.85
-1651.81
-1651.84
-1651.74
-1651.66
-1651.64
-3069.67
-3069.47
-3069.4
-3069.49
-3069.37
-3069.35
-3069.48
-3069.65
-3069.81
-3069.67
-3069.47
-3069.4
-3069.49
-3069.37
-3069.34
-3069.48
-3069.65
-3069.81
-3069.67
-3069.47
-3069.4
-3069.49
-3069.37
-3069.34
-3069.48
-3069.65
-3069.81
-3069.67
-3069.47
-3069.4
-3069.49
-3069.37
-3069.34
-3069.48
-3069.65
-3069.81
-1771.46
-1771.41
-1771.43
-1771.39
-1771.46
-1771.38
-1771.41
-1771.42
-1771.43
-1771.46
-1771.41
-1771.43
-1771.4
-1771.46
-1771.38
-1771.41
-1771.42
-1771.43
-1771.46
-1771.41
-1771.43
-1771.4
-1771.46
-1771.38
-1771.41
-1771.42
-1771.43
-1771.46
-1771.41
-1771.43
-1771.4
-1771.46
-1771.38
-1771.41
-1771.42
-1771.43
-1411.37
-1411.62
-1411.63
-1411.7
-1411.65
-1411.63
-1411.53
-1411.33
-1411.29
-1411.37
-1411.61
-1411.63
-1411.7
-1411.66
-1411.64
-1411.53
-1411.33
-1411.29
-1411.36
-1411.61
-1411.63
-1411.7
-1411.66
-1411.64
-1411.53
-1411.33
-1411.29
-1411.36
-1411.61
-1411.63
-1411.7
-1411.66
-1411.64
-1411.53
-1411.33
-1411.29
142.41
143.277
145.172
144.105
142.02
143.853
145.223
143.172
142.084
142.389
143.256
145.157
144.099
142.02
143.852
145.22
143.164
142.075
142.38
143.249
145.152
144.095
142.015
143.847
145.214
143.161
142.073
142.378
143.246
145.146
144.086
142.008
143.842
145.215
143.175
142.099
3037.51
3037.25
3036.82
3037.28
3037.3
3037.1
3036.82
3037.34
3037.45
3037.51
3037.25
3036.83
3037.29
3037.3
3037.1
3036.82
3037.34
3037.45
3037.51
3037.26
3036.83
3037.29
3037.31
3037.1
3036.82
3037.34
3037.45
3037.52
3037.26
3036.83
3037.29
3037.31
3037.1
3036.82
3037.34
3037.44
-4299.27
-4299.51
-4299.65
-4299.59
-4299.47
-4299.58
-4299.47
-4299.15
-4299.16
-4299.26
-4299.51
-4299.65
-4299.6
-4299.48
-4299.59
-4299.47
-4299.15
-4299.16
-4299.26
-4299.51
-4299.65
-4299.59
-4299.47
-4299.59
-4299.47
-4299.14
-4299.16
-4299.25
-4299.5
-4299.64
-4299.59
-4299.47
-4299.59
-4299.47
-4299.15
-4299.17
22019.1
22023.2
22003.1
22007.6
22026.7
22013.9
22001.4
22015.5
22014.4
22019.1
22023.3
22003.2
22007.6
22026.8
22013.9
22001.4
22015.6
22014.5
22019.2
22023.3
22003.2
22007.6
22026.8
22013.9
22001.4
22015.6
22014.4
22019.2
22023.3
22003.2
22007.6
22026.8
22013.9
22001.4
22015.5
22014.4
13480.2
13478.8
13478.5
13478.6
13480.7
13477.8
13478.9
13479.7
13480.4
13480.3
13478.8
13478.5
13478.6
13480.7
13477.8
13478.9
13479.7
13480.4
13480.3
13478.8
13478.6
13478.6
13480.7
13477.8
13478.9
13479.7
13480.4
13480.3
13478.8
13478.6
13478.6
13480.7
13477.8
13478.9
13479.7
13480.4
-36569.1
-36568.5
-36570.3
-36568.7
-36569.9
-36568.8
-36570.1
-36568.5
-36569.2
-36569.1
-36568.5
-36570.3
-36568.7
-36569.9
-36568.8
-36570.2
-36568.6
-36569.3
-36569.1
-36568.5
-36570.3
-36568.7
-36569.9
-36568.8
-36570.2
-36568.6
-36569.3
-36569.1
-36568.5
-36570.3
-36568.7
-36569.9
-36568.8
-36570.1
-36568.5
-36569.3
)
;

boundaryField
{
    fixed
    {
        type            zeroGradient;
    }
    inside
    {
        type            zeroGradient;
    }
    outside
    {
        type            zeroGradient;
    }
}


// ************************************************************************* //
