/*--------------------------------*- C++ -*----------------------------------*\
| =========                 |                                                 |
| \\      /  F ield         | OpenFOAM: The Open Source CFD Toolbox           |
|  \\    /   O peration     | Version:  2412                                  |
|   \\  /    A nd           | Website:  www.openfoam.com                      |
|    \\/     M anipulation  |                                                 |
\*---------------------------------------------------------------------------*/
FoamFile
{
    version     2.0;
    format      ascii;
    arch        "LSB;label=32;scalar=64";
    class       volScalarField;
    location    "0.0199794";
    object      Vm;
}
// * * * * * * * * * * * * * * * * * * * * * * * * * * * * * * * * * * * * * //

dimensions      [0 0 0 0 0 0 0];

internalField   nonuniform List<scalar> 
8835
(
-6.08874e-17
-6.08874e-17
4.24916e-16
1.01047e-16
-6.08874e-17
-6.08874e-17
-6.08874e-17
1.01047e-16
-6.08874e-17
1.01047e-16
1.01047e-16
-6.08874e-17
-6.08874e-17
1.01047e-16
1.01047e-16
-6.08874e-17
-6.08874e-17
-6.08874e-17
-6.08874e-17
-6.08874e-17
-6.08874e-17
1.01047e-16
-6.08874e-17
-6.08874e-17
-6.08874e-17
1.01047e-16
4.24916e-16
-6.08874e-17
-6.08874e-17
-6.08874e-17
-5.46691e-16
-6.08874e-17
-6.08874e-17
-6.08874e-17
-6.08874e-17
-6.08874e-17
1.01047e-16
-6.08874e-17
-6.08874e-17
-6.08874e-17
-6.08874e-17
-6.08874e-17
-6.08874e-17
5.86851e-16
-6.08874e-17
-6.08874e-17
-6.08874e-17
-6.08874e-17
-6.08874e-17
-6.08874e-17
5.86851e-16
-6.08874e-17
-6.08874e-17
-6.08874e-17
4.24916e-16
-6.08874e-17
4.24916e-16
4.24916e-16
4.24916e-16
-6.08874e-17
-6.08874e-17
-6.08874e-17
-2.22822e-16
5.86851e-16
1.01047e-16
1.01047e-16
-7.08625e-16
4.24916e-16
5.86851e-16
4.24916e-16
1.07265e-15
1.01047e-16
-6.08874e-17
1.01047e-16
-6.08874e-17
-6.08874e-17
9.1072e-16
4.24916e-16
9.1072e-16
4.24916e-16
-6.08874e-17
-6.08874e-17
-6.08874e-17
5.86851e-16
-6.08874e-17
1.01047e-16
4.24916e-16
-6.08874e-17
-6.08874e-17
-6.08874e-17
-6.08874e-17
1.01047e-16
-6.08874e-17
1.01047e-16
-6.08874e-17
2.62982e-16
5.86851e-16
4.24916e-16
2.62982e-16
-6.08874e-17
-6.08874e-17
-6.08874e-17
-6.08874e-17
1.01047e-16
1.01047e-16
2.62982e-16
1.01047e-16
-6.08874e-17
1.01047e-16
5.86851e-16
-6.08874e-17
1.01047e-16
4.24916e-16
-6.08874e-17
-6.08874e-17
5.86851e-16
4.24916e-16
-6.08874e-17
-6.08874e-17
-6.08874e-17
-6.08874e-17
4.24916e-16
-6.08874e-17
-6.08874e-17
1.01047e-16
-6.08874e-17
1.07265e-15
5.86851e-16
1.01047e-16
1.39652e-15
1.72039e-15
4.24916e-16
-7.08625e-16
-6.08874e-17
1.07265e-15
-6.08874e-17
-2.22822e-16
-2.22822e-16
4.24916e-16
1.07265e-15
-6.08874e-17
-6.08874e-17
-6.08874e-17
-2.22822e-16
7.48785e-16
1.01047e-16
-6.08874e-17
-6.08874e-17
-6.08874e-17
2.62982e-16
5.86851e-16
-6.08874e-17
2.62982e-16
-6.08874e-17
-6.08874e-17
-6.08874e-17
-6.08874e-17
1.01047e-16
-6.08874e-17
2.62982e-16
1.01047e-16
-6.08874e-17
-6.08874e-17
-6.08874e-17
4.24916e-16
1.07265e-15
-6.08874e-17
-6.08874e-17
-6.08874e-17
-6.08874e-17
-7.08625e-16
-2.22822e-16
-6.08874e-17
-6.08874e-17
-7.08625e-16
-6.08874e-17
-6.08874e-17
4.24916e-16
-6.08874e-17
4.24916e-16
-6.08874e-17
-6.08874e-17
-6.08874e-17
1.01047e-16
-2.22822e-16
-6.08874e-17
-6.08874e-17
-6.08874e-17
-6.08874e-17
5.86851e-16
-6.08874e-17
5.86851e-16
-6.08874e-17
5.86851e-16
1.01047e-16
-6.08874e-17
-2.22822e-16
-2.22822e-16
-6.08874e-17
1.01047e-16
-6.08874e-17
-7.08625e-16
-2.22822e-16
-6.08874e-17
-6.08874e-17
-6.08874e-17
-7.08625e-16
-2.22822e-16
-6.08874e-17
-2.22822e-16
-7.08625e-16
1.01047e-16
-6.08874e-17
-7.08625e-16
-2.22822e-16
-6.08874e-17
-6.08874e-17
5.86851e-16
-6.08874e-17
-6.08874e-17
-6.08874e-17
-8.7056e-16
-7.08625e-16
4.24916e-16
-7.08625e-16
-2.22822e-16
-2.22822e-16
-2.22822e-16
-7.08625e-16
-6.08874e-17
4.24916e-16
-6.08874e-17
-7.08625e-16
-6.08874e-17
4.24916e-16
5.86851e-16
-6.08874e-17
1.01047e-16
7.48785e-16
-6.08874e-17
-6.08874e-17
-6.08874e-17
-6.08874e-17
5.86851e-16
-6.08874e-17
1.01047e-16
-6.08874e-17
-6.08874e-17
1.01047e-16
-6.08874e-17
-6.08874e-17
-6.08874e-17
1.07265e-15
5.86851e-16
-2.22822e-16
-6.08874e-17
-6.08874e-17
4.24916e-16
-7.08625e-16
-6.08874e-17
-6.08874e-17
4.24916e-16
-2.22822e-16
-2.22822e-16
-6.08874e-17
-6.08874e-17
-6.08874e-17
-2.22822e-16
-7.08625e-16
-6.08874e-17
1.01047e-16
-6.08874e-17
-6.08874e-17
-6.08874e-17
-6.08874e-17
-6.08874e-17
5.86851e-16
-6.08874e-17
-6.08874e-17
-6.08874e-17
-6.08874e-17
7.48785e-16
4.24916e-16
1.01047e-16
1.01047e-16
-6.08874e-17
5.86851e-16
-6.08874e-17
-6.08874e-17
-6.08874e-17
-6.08874e-17
1.01047e-16
-6.08874e-17
-6.08874e-17
-6.08874e-17
-6.08874e-17
-6.08874e-17
-6.08874e-17
-6.08874e-17
-6.08874e-17
-5.46691e-16
-6.08874e-17
-6.08874e-17
-6.08874e-17
-6.08874e-17
-6.08874e-17
-6.08874e-17
-6.08874e-17
-6.08874e-17
-6.08874e-17
-6.08874e-17
-6.08874e-17
-6.08874e-17
5.86851e-16
-6.08874e-17
1.01047e-16
-6.08874e-17
-6.08874e-17
-6.08874e-17
-6.08874e-17
5.86851e-16
-6.08874e-17
-6.08874e-17
-6.08874e-17
1.01047e-16
-6.08874e-17
4.24916e-16
1.39652e-15
1.23459e-15
-6.08874e-17
-7.08625e-16
-6.08874e-17
-2.22822e-16
-6.08874e-17
-2.22822e-16
1.01047e-16
-7.08625e-16
5.86851e-16
-6.08874e-17
4.24916e-16
1.07265e-15
1.01047e-16
-6.08874e-17
1.01047e-16
-6.08874e-17
4.24916e-16
-6.08874e-17
1.01047e-16
-6.08874e-17
1.01047e-16
2.62982e-16
4.24916e-16
1.01047e-16
-6.08874e-17
-6.08874e-17
1.01047e-16
1.01047e-16
-6.08874e-17
-6.08874e-17
5.86851e-16
-6.08874e-17
4.24916e-16
-6.08874e-17
-6.08874e-17
-6.08874e-17
-6.08874e-17
-6.08874e-17
-6.08874e-17
-2.22822e-16
-6.08874e-17
-6.08874e-17
-6.08874e-17
-6.08874e-17
-6.08874e-17
-6.08874e-17
-6.08874e-17
-6.08874e-17
5.86851e-16
-6.08874e-17
5.86851e-16
-6.08874e-17
1.01047e-16
1.01047e-16
-6.08874e-17
-6.08874e-17
5.86851e-16
4.24916e-16
5.86851e-16
-6.08874e-17
-6.08874e-17
-6.08874e-17
1.01047e-16
-6.08874e-17
-6.08874e-17
1.01047e-16
-6.08874e-17
-2.22822e-16
5.86851e-16
1.01047e-16
1.07265e-15
4.24916e-16
2.62982e-16
-7.08625e-16
-6.08874e-17
1.07265e-15
-6.08874e-17
-2.22822e-16
-2.22822e-16
4.24916e-16
1.07265e-15
-6.08874e-17
-6.08874e-17
-6.08874e-17
-2.22822e-16
-6.08874e-17
4.24916e-16
2.62982e-16
-6.08874e-17
-6.08874e-17
2.62982e-16
-6.08874e-17
-6.08874e-17
-6.08874e-17
-6.08874e-17
-6.08874e-17
-6.08874e-17
-6.08874e-17
-6.08874e-17
-6.08874e-17
2.62982e-16
1.01047e-16
-6.08874e-17
4.24916e-16
4.24916e-16
-6.08874e-17
-5.46691e-16
1.01047e-16
-6.08874e-17
-6.08874e-17
1.01047e-16
-6.08874e-17
1.01047e-16
-6.08874e-17
-6.08874e-17
-6.08874e-17
-5.46691e-16
1.01047e-16
-6.08874e-17
-6.08874e-17
1.01047e-16
-6.08874e-17
4.24916e-16
-6.08874e-17
5.86851e-16
-2.22822e-16
-2.22822e-16
-7.08625e-16
5.86851e-16
-6.08874e-17
-6.08874e-17
4.24916e-16
-3.84756e-16
4.24916e-16
5.86851e-16
5.86851e-16
-7.08625e-16
-2.22822e-16
-2.22822e-16
-6.08874e-17
1.01047e-16
-6.08874e-17
-6.08874e-17
-2.22822e-16
4.24916e-16
-2.22822e-16
-6.08874e-17
-5.46691e-16
2.62982e-16
-6.08874e-17
1.01047e-16
-5.46691e-16
1.01047e-16
-6.08874e-17
-7.08625e-16
-2.22822e-16
-7.08625e-16
-6.08874e-17
5.86851e-16
-6.08874e-17
1.01047e-16
-6.08874e-17
-6.08874e-17
-6.08874e-17
1.01047e-16
-6.08874e-17
-6.08874e-17
5.86851e-16
-6.08874e-17
-6.08874e-17
1.01047e-16
-6.08874e-17
-6.08874e-17
-6.08874e-17
-6.08874e-17
-6.08874e-17
5.86851e-16
-6.08874e-17
5.86851e-16
-2.22822e-16
-2.22822e-16
-7.08625e-16
5.86851e-16
-6.08874e-17
-6.08874e-17
4.24916e-16
-3.84756e-16
4.24916e-16
5.86851e-16
5.86851e-16
-7.08625e-16
-2.22822e-16
-2.22822e-16
-6.08874e-17
4.24916e-16
-2.22822e-16
-6.08874e-17
-6.08874e-17
2.62982e-16
-7.08625e-16
-6.08874e-17
-2.22822e-16
-6.08874e-17
-2.22822e-16
-2.22822e-16
-6.08874e-17
-6.08874e-17
5.86851e-16
-6.08874e-17
-7.08625e-16
4.24916e-16
1.01047e-16
-6.08874e-17
-6.08874e-17
-6.08874e-17
-6.08874e-17
-6.08874e-17
-6.08874e-17
4.24916e-16
-6.08874e-17
1.01047e-16
-6.08874e-17
-6.08874e-17
-6.08874e-17
-6.08874e-17
5.86851e-16
-6.08874e-17
-6.08874e-17
5.86851e-16
-6.08874e-17
-6.08874e-17
-6.08874e-17
-6.08874e-17
-6.08874e-17
-6.08874e-17
-6.08874e-17
-6.08874e-17
-6.08874e-17
-6.08874e-17
-6.08874e-17
1.01047e-16
-2.22822e-16
-6.08874e-17
4.24916e-16
-5.46691e-16
-6.08874e-17
4.24916e-16
4.24916e-16
1.01047e-16
-3.84756e-16
4.24916e-16
2.62982e-16
4.24916e-16
1.01047e-16
4.24916e-16
-2.22822e-16
4.24916e-16
1.01047e-16
4.24916e-16
-2.22822e-16
1.01047e-16
-6.08874e-17
-2.22822e-16
-6.08874e-17
1.01047e-16
7.48785e-16
5.86851e-16
4.24916e-16
1.01047e-16
-6.08874e-17
-6.08874e-17
-6.08874e-17
4.24916e-16
-6.08874e-17
1.01047e-16
1.01047e-16
-6.08874e-17
-6.08874e-17
1.01047e-16
1.07265e-15
-6.08874e-17
-6.08874e-17
5.86851e-16
-6.08874e-17
4.24916e-16
-5.46691e-16
-6.08874e-17
4.24916e-16
-6.08874e-17
1.01047e-16
1.01047e-16
-6.08874e-17
5.86851e-16
-6.08874e-17
-6.08874e-17
-6.08874e-17
4.24916e-16
5.86851e-16
-6.08874e-17
-6.08874e-17
-6.08874e-17
1.01047e-16
4.24916e-16
2.62982e-16
4.24916e-16
-6.08874e-17
-2.22822e-16
1.01047e-16
4.24916e-16
-6.08874e-17
4.24916e-16
1.01047e-16
-2.22822e-16
-5.46691e-16
1.01047e-16
-6.08874e-17
-2.22822e-16
-6.08874e-17
1.01047e-16
1.01047e-16
5.86851e-16
2.62982e-16
1.01047e-16
-6.08874e-17
-6.08874e-17
-6.08874e-17
4.24916e-16
-6.08874e-17
1.01047e-16
1.01047e-16
-6.08874e-17
-6.08874e-17
1.01047e-16
1.07265e-15
-6.08874e-17
-6.08874e-17
5.86851e-16
4.24916e-16
-6.08874e-17
4.24916e-16
4.24916e-16
-6.08874e-17
-7.08625e-16
1.01047e-16
1.01047e-16
1.01047e-16
-6.08874e-17
4.24916e-16
1.01047e-16
4.24916e-16
1.01047e-16
2.62982e-16
-7.08625e-16
-6.08874e-17
5.86851e-16
1.01047e-16
4.24916e-16
-6.08874e-17
1.01047e-16
-6.08874e-17
-6.08874e-17
1.01047e-16
-6.08874e-17
-6.08874e-17
1.01047e-16
1.01047e-16
-2.22822e-16
-6.08874e-17
4.24916e-16
-6.08874e-17
-6.08874e-17
-6.08874e-17
1.01047e-16
-6.08874e-17
4.24916e-16
-6.08874e-17
-2.22822e-16
4.24916e-16
-6.08874e-17
-2.22822e-16
1.07265e-15
4.24916e-16
1.01047e-16
-6.08874e-17
-2.22822e-16
-6.08874e-17
-5.46691e-16
4.24916e-16
5.86851e-16
-6.08874e-17
-6.08874e-17
-6.08874e-17
-6.08874e-17
-6.08874e-17
4.24916e-16
1.01047e-16
-6.08874e-17
-6.08874e-17
-5.46691e-16
-6.08874e-17
-6.08874e-17
1.01047e-16
-6.08874e-17
-6.08874e-17
-6.08874e-17
-5.46691e-16
-6.08874e-17
-6.08874e-17
-6.08874e-17
-6.08874e-17
-6.08874e-17
-6.08874e-17
-5.46691e-16
-6.08874e-17
-6.08874e-17
-6.08874e-17
-5.46691e-16
-6.08874e-17
-6.08874e-17
-2.22822e-16
-6.08874e-17
-6.08874e-17
-6.08874e-17
-6.08874e-17
-2.22822e-16
-2.22822e-16
-6.08874e-17
-5.46691e-16
-6.08874e-17
4.24916e-16
1.01047e-16
-6.08874e-17
-6.08874e-17
-6.08874e-17
-6.08874e-17
-6.08874e-17
4.24916e-16
-2.22822e-16
-6.08874e-17
4.24916e-16
-2.22822e-16
-2.22822e-16
-5.46691e-16
2.62982e-16
1.01047e-16
-6.08874e-17
-6.08874e-17
-6.08874e-17
4.24916e-16
1.01047e-16
-6.08874e-17
-6.08874e-17
-6.08874e-17
-6.08874e-17
-6.08874e-17
1.01047e-16
4.24916e-16
-6.08874e-17
-6.08874e-17
1.01047e-16
-6.08874e-17
-6.08874e-17
1.01047e-16
-6.08874e-17
1.01047e-16
4.24916e-16
-6.08874e-17
1.01047e-16
-7.08625e-16
-6.08874e-17
1.01047e-16
1.01047e-16
-6.08874e-17
-6.08874e-17
-6.08874e-17
4.24916e-16
-6.08874e-17
-6.08874e-17
-2.22822e-16
-6.08874e-17
-6.08874e-17
5.60682e-15
2.36813e-15
1.39652e-15
5.86851e-16
4.24916e-16
-6.08874e-17
-6.08874e-17
5.86851e-16
-6.08874e-17
5.86851e-16
1.01047e-16
1.01047e-16
-7.08625e-16
4.24916e-16
5.86851e-16
4.24916e-16
1.07265e-15
1.01047e-16
6.57843e-15
2.85393e-15
1.55846e-15
4.24916e-16
-6.08874e-17
-2.22822e-16
-6.08874e-17
-6.08874e-17
4.24916e-16
1.01047e-16
-6.08874e-17
4.24916e-16
4.24916e-16
-6.08874e-17
-6.08874e-17
-7.08625e-16
-6.08874e-17
1.01047e-16
6.57843e-15
2.85393e-15
1.55846e-15
5.86851e-16
-6.08874e-17
-6.08874e-17
-6.08874e-17
1.01047e-16
-6.08874e-17
5.86851e-16
1.01047e-16
1.01047e-16
-6.08874e-17
-6.08874e-17
-6.08874e-17
1.01047e-16
-6.08874e-17
1.01047e-16
6.74036e-15
3.82554e-15
2.62982e-16
-6.08874e-17
-2.22822e-16
-6.08874e-17
1.01047e-16
-6.08874e-17
5.86851e-16
-6.08874e-17
-2.22822e-16
-2.22822e-16
-6.08874e-17
-2.22822e-16
-6.08874e-17
9.1072e-16
1.72039e-15
1.88233e-15
5.60682e-15
2.2062e-15
4.24916e-16
-6.08874e-17
-6.08874e-17
2.62982e-16
-6.08874e-17
5.86851e-16
-6.08874e-17
-6.08874e-17
-6.08874e-17
4.24916e-16
2.62982e-16
1.01047e-16
5.86851e-16
-6.08874e-17
1.01047e-16
-6.08874e-17
4.14941e-15
1.23459e-15
5.86851e-16
1.01047e-16
-6.08874e-17
-6.08874e-17
-6.08874e-17
4.24916e-16
-6.08874e-17
1.01047e-16
-6.08874e-17
-6.08874e-17
-5.46691e-16
2.62982e-16
-6.08874e-17
-6.08874e-17
-6.08874e-17
-6.08874e-17
3.50167e-15
2.2062e-15
4.24916e-16
-6.08874e-17
-2.22822e-16
4.24916e-16
1.01047e-16
1.07265e-15
-6.08874e-17
-6.08874e-17
1.01047e-16
1.01047e-16
-6.08874e-17
-6.08874e-17
-6.08874e-17
9.1072e-16
1.23459e-15
4.24916e-16
1.72039e-15
9.1072e-16
1.01047e-16
5.86851e-16
4.24916e-16
-6.08874e-17
-2.22822e-16
-6.08874e-17
-2.22822e-16
-3.84756e-16
1.01047e-16
1.01047e-16
-6.08874e-17
-2.22822e-16
4.24916e-16
-2.22822e-16
-6.08874e-17
-6.08874e-17
4.24916e-16
1.01047e-16
2.62982e-16
1.01047e-16
4.24916e-16
-6.08874e-17
-6.08874e-17
-6.08874e-17
-6.08874e-17
1.01047e-16
4.24916e-16
-6.08874e-17
-6.08874e-17
1.01047e-16
-6.08874e-17
-6.08874e-17
4.24916e-16
-6.08874e-17
-6.08874e-17
-6.08874e-17
-8.7056e-16
-8.7056e-16
-3.84756e-16
-8.7056e-16
1.01047e-16
4.24916e-16
-6.08874e-17
-5.46691e-16
4.24916e-16
4.24916e-16
-6.08874e-17
-2.22822e-16
-6.08874e-17
-5.46691e-16
2.62982e-16
-2.22822e-16
-6.08874e-17
-2.22822e-16
-6.08874e-17
-2.22822e-16
4.24916e-16
-6.08874e-17
-6.08874e-17
-6.08874e-17
-6.08874e-17
-2.22822e-16
-6.08874e-17
-7.08625e-16
-6.08874e-17
-2.22822e-16
-2.22822e-16
5.86851e-16
-6.08874e-17
-6.08874e-17
4.24916e-16
4.24916e-16
2.62982e-16
1.01047e-16
4.24916e-16
-6.08874e-17
1.01047e-16
-6.08874e-17
2.62982e-16
-6.08874e-17
1.01047e-16
4.24916e-16
-6.08874e-17
4.24916e-16
-6.08874e-17
-6.08874e-17
-5.46691e-16
1.01047e-16
4.24916e-16
-6.08874e-17
-6.08874e-17
-5.46691e-16
4.24916e-16
4.24916e-16
4.24916e-16
4.24916e-16
-6.08874e-17
-5.46691e-16
4.24916e-16
4.24916e-16
-6.08874e-17
-2.22822e-16
-6.08874e-17
-6.08874e-17
4.24916e-16
-2.22822e-16
1.01047e-16
-6.08874e-17
-6.08874e-17
-6.08874e-17
-6.08874e-17
-6.08874e-17
1.01047e-16
1.01047e-16
-6.08874e-17
-6.08874e-17
1.01047e-16
-6.08874e-17
-6.08874e-17
5.86851e-16
-6.08874e-17
7.48785e-16
1.01047e-16
1.01047e-16
4.24916e-16
-6.08874e-17
-6.08874e-17
-5.46691e-16
4.24916e-16
4.24916e-16
4.24916e-16
4.24916e-16
-6.08874e-17
-5.46691e-16
4.24916e-16
4.24916e-16
-6.08874e-17
-2.22822e-16
-6.08874e-17
1.07265e-15
4.24916e-16
-2.22822e-16
5.15962e-14
2.92493e-14
1.64564e-14
7.55003e-15
3.33974e-15
9.1072e-16
9.1072e-16
4.24916e-16
4.24916e-16
5.86851e-16
-6.08874e-17
7.48785e-16
4.24916e-16
4.24916e-16
-6.08874e-17
-6.08874e-17
-6.08874e-17
4.24916e-16
4.99769e-14
2.84396e-14
1.64564e-14
9.16938e-15
4.14941e-15
2.04426e-15
1.23459e-15
9.1072e-16
4.24916e-16
1.01047e-16
-6.08874e-17
7.48785e-16
4.24916e-16
1.01047e-16
-6.08874e-17
-6.08874e-17
7.48785e-16
4.24916e-16
4.75479e-14
2.53628e-14
1.28939e-14
7.55003e-15
4.14941e-15
9.1072e-16
4.24916e-16
5.86851e-16
-3.84756e-16
-6.08874e-17
4.24916e-16
4.24916e-16
-6.08874e-17
7.48785e-16
1.01047e-16
-6.08874e-17
-6.08874e-17
-6.08874e-17
4.38234e-14
2.40674e-14
1.30558e-14
6.9023e-15
2.85393e-15
1.55846e-15
4.24916e-16
4.24916e-16
4.24916e-16
1.07265e-15
4.24916e-16
1.01047e-16
-6.08874e-17
7.48785e-16
-6.08874e-17
-5.46691e-16
-6.08874e-17
-6.08874e-17
3.94511e-14
2.18003e-14
1.15984e-14
6.9023e-15
2.85393e-15
2.2062e-15
4.24916e-16
4.24916e-16
-6.08874e-17
-6.08874e-17
-6.08874e-17
-6.08874e-17
-6.08874e-17
1.01047e-16
-6.08874e-17
-5.46691e-16
-6.08874e-17
5.86851e-16
3.24879e-14
1.7428e-14
9.16938e-15
4.95908e-15
2.36813e-15
1.07265e-15
-3.84756e-16
4.24916e-16
-6.08874e-17
4.24916e-16
1.01047e-16
-6.08874e-17
-2.22822e-16
4.24916e-16
-6.08874e-17
-2.22822e-16
-6.08874e-17
1.01047e-16
2.52009e-14
1.40274e-14
7.8739e-15
4.63521e-15
9.1072e-16
2.62982e-16
-6.08874e-17
1.01047e-16
-6.08874e-17
1.07265e-15
1.01047e-16
1.01047e-16
-6.08874e-17
5.86851e-16
-6.08874e-17
-2.22822e-16
5.86851e-16
-6.08874e-17
2.01809e-14
1.14365e-14
6.57843e-15
4.14941e-15
1.55846e-15
4.24916e-16
-6.08874e-17
4.24916e-16
4.24916e-16
1.72039e-15
1.88233e-15
1.39652e-15
4.24916e-16
-6.08874e-17
-6.08874e-17
-5.46691e-16
-6.08874e-17
-6.08874e-17
1.35416e-14
7.06423e-15
3.33974e-15
4.24916e-16
2.62982e-16
4.24916e-16
1.01047e-16
4.24916e-16
-6.08874e-17
4.24916e-16
-6.08874e-17
-6.08874e-17
-2.22822e-16
1.01047e-16
-6.08874e-17
-2.22822e-16
4.24916e-16
-6.08874e-17
6.09262e-15
2.36813e-15
1.01047e-16
1.01047e-16
7.48785e-16
-6.08874e-17
-6.08874e-17
-6.08874e-17
-6.08874e-17
1.01047e-16
1.01047e-16
1.01047e-16
-6.08874e-17
-6.08874e-17
-6.08874e-17
-2.22822e-16
-6.08874e-17
1.01047e-16
3.66361e-15
5.86851e-16
-3.84756e-16
-6.08874e-17
-6.08874e-17
4.24916e-16
-6.08874e-17
-6.08874e-17
-6.08874e-17
-6.08874e-17
-6.08874e-17
1.01047e-16
1.23459e-15
5.86851e-16
-6.08874e-17
-2.22822e-16
7.48785e-16
4.24916e-16
2.85393e-15
9.1072e-16
-6.08874e-17
-6.08874e-17
-6.08874e-17
-6.08874e-17
-6.08874e-17
5.86851e-16
7.48785e-16
-6.08874e-17
-6.08874e-17
1.01047e-16
-6.08874e-17
1.01047e-16
-5.46691e-16
-6.08874e-17
-6.08874e-17
1.01047e-16
4.24916e-16
-6.08874e-17
-2.22822e-16
-6.08874e-17
5.86851e-16
-7.08625e-16
-6.08874e-17
5.86851e-16
4.24916e-16
1.01047e-16
1.01047e-16
1.01047e-16
-6.08874e-17
-6.08874e-17
5.86851e-16
-2.22822e-16
-6.08874e-17
1.01047e-16
7.48785e-16
1.07265e-15
-3.84756e-16
-6.08874e-17
4.24916e-16
4.24916e-16
1.01047e-16
-6.08874e-17
-6.08874e-17
-6.08874e-17
1.01047e-16
4.24916e-16
1.23459e-15
5.86851e-16
-6.08874e-17
-2.22822e-16
-2.22822e-16
-6.08874e-17
2.62982e-16
5.86851e-16
-2.22822e-16
-6.08874e-17
-2.22822e-16
-6.08874e-17
-6.08874e-17
5.86851e-16
4.24916e-16
4.24916e-16
4.24916e-16
4.24916e-16
4.24916e-16
-6.08874e-17
5.86851e-16
-2.22822e-16
-6.08874e-17
5.86851e-16
3.96031e-13
2.19037e-13
1.19609e-13
6.40652e-14
3.41073e-14
1.82377e-14
9.16938e-15
4.47328e-15
2.2062e-15
9.1072e-16
1.01047e-16
-6.08874e-17
-6.08874e-17
1.01047e-16
1.01047e-16
2.62982e-16
-5.46691e-16
-6.08874e-17
3.85667e-13
2.13207e-13
1.15236e-13
6.11504e-14
3.21641e-14
1.66184e-14
8.19777e-15
4.47328e-15
2.2062e-15
9.1072e-16
7.48785e-16
7.48785e-16
-6.08874e-17
5.86851e-16
1.01047e-16
-6.08874e-17
7.48785e-16
5.86851e-16
3.66073e-13
2.02195e-13
1.08597e-13
5.77497e-14
2.92493e-14
1.41893e-14
7.22617e-15
3.98748e-15
1.88233e-15
9.1072e-16
4.24916e-16
2.62982e-16
-6.08874e-17
-6.08874e-17
4.24916e-16
-2.22822e-16
-2.22822e-16
-6.08874e-17
3.35305e-13
1.8503e-13
9.95288e-14
5.24059e-14
2.61725e-14
1.20842e-14
5.60682e-15
2.85393e-15
2.62982e-16
5.86851e-16
5.86851e-16
-6.08874e-17
-5.46691e-16
4.24916e-16
-6.08874e-17
-6.08874e-17
1.01047e-16
5.86851e-16
2.95793e-13
1.61712e-13
8.73837e-14
4.64143e-14
2.45532e-14
1.30558e-14
6.25456e-15
2.53006e-15
1.23459e-15
4.24916e-16
1.01047e-16
4.24916e-16
-2.22822e-16
-6.08874e-17
-6.08874e-17
-2.22822e-16
-6.08874e-17
1.01047e-16
2.48994e-13
1.35964e-13
7.28096e-14
3.89653e-14
1.93713e-14
1.03029e-14
4.14941e-15
1.72039e-15
5.86851e-16
1.01047e-16
-3.84756e-16
4.24916e-16
-6.08874e-17
-6.08874e-17
1.01047e-16
-6.08874e-17
-6.08874e-17
4.24916e-16
1.98309e-13
1.07464e-13
5.72639e-14
2.9897e-14
1.43513e-14
6.57843e-15
1.88233e-15
1.01047e-16
-6.08874e-17
-6.08874e-17
5.86851e-16
2.62982e-16
1.07265e-15
5.86851e-16
7.48785e-16
-6.08874e-17
-6.08874e-17
5.86851e-16
1.49243e-13
8.13922e-14
4.33376e-14
2.22861e-14
1.07887e-14
3.98748e-15
1.07265e-15
2.62982e-16
-6.08874e-17
1.01047e-16
5.86851e-16
-6.08874e-17
-3.84756e-16
4.24916e-16
-6.08874e-17
-6.08874e-17
1.01047e-16
5.86851e-16
1.03739e-13
5.58065e-14
2.9897e-14
1.5161e-14
7.3881e-15
3.98748e-15
1.88233e-15
7.48785e-16
-6.08874e-17
4.24916e-16
-6.08874e-17
-6.08874e-17
-6.08874e-17
7.48785e-16
4.24916e-16
-6.08874e-17
-6.08874e-17
-6.08874e-17
6.51987e-14
3.50789e-14
1.85616e-14
9.81712e-15
5.44489e-15
1.88233e-15
7.48785e-16
-3.84756e-16
-6.08874e-17
-3.84756e-16
1.01047e-16
-6.08874e-17
-6.08874e-17
1.01047e-16
-6.08874e-17
-6.08874e-17
-5.46691e-16
-6.08874e-17
3.88034e-14
2.18003e-14
1.17603e-14
5.93069e-15
2.04426e-15
9.1072e-16
9.1072e-16
1.07265e-15
4.24916e-16
-6.08874e-17
-6.08874e-17
4.24916e-16
-6.08874e-17
-2.22822e-16
4.24916e-16
-6.08874e-17
-2.22822e-16
-6.08874e-17
2.03429e-14
9.65518e-15
4.47328e-15
2.36813e-15
-2.22822e-16
-6.08874e-17
2.62982e-16
-3.84756e-16
-6.08874e-17
4.24916e-16
4.24916e-16
4.24916e-16
-6.08874e-17
-5.46691e-16
-6.08874e-17
-2.22822e-16
4.24916e-16
4.24916e-16
1.11126e-14
5.44489e-15
2.53006e-15
1.07265e-15
4.24916e-16
4.24916e-16
1.01047e-16
4.24916e-16
-6.08874e-17
-5.46691e-16
1.01047e-16
-6.08874e-17
4.24916e-16
-6.08874e-17
-6.08874e-17
-6.08874e-17
4.24916e-16
4.24916e-16
3.50167e-15
5.86851e-16
4.24916e-16
1.01047e-16
-6.08874e-17
-6.08874e-17
1.01047e-16
1.01047e-16
1.07265e-15
4.24916e-16
-6.08874e-17
1.01047e-16
4.24916e-16
-6.08874e-17
-6.08874e-17
-6.08874e-17
-6.08874e-17
5.86851e-16
4.24916e-16
1.01047e-16
-6.08874e-17
-3.84756e-16
7.48785e-16
4.24916e-16
1.01047e-16
-6.08874e-17
-6.08874e-17
-5.46691e-16
4.24916e-16
-6.08874e-17
4.24916e-16
-6.08874e-17
-2.22822e-16
-6.08874e-17
-6.08874e-17
-6.08874e-17
3.04107e-12
1.67596e-12
9.07096e-13
4.81694e-13
2.49966e-13
1.26896e-13
6.39032e-14
3.18402e-14
1.4999e-14
7.3881e-15
2.53006e-15
4.24916e-16
-6.08874e-17
1.01047e-16
-6.08874e-17
-6.08874e-17
1.01047e-16
-6.08874e-17
2.96285e-12
1.63386e-12
8.84263e-13
4.69711e-13
2.43974e-13
1.24953e-13
6.32555e-14
3.16783e-14
1.54848e-14
6.9023e-15
3.66361e-15
2.2062e-15
9.1072e-16
1.01047e-16
-6.08874e-17
-6.08874e-17
1.01047e-16
-2.22822e-16
2.80659e-12
1.54544e-12
8.34712e-13
4.42992e-13
2.30048e-13
1.17342e-13
5.85594e-14
2.7468e-14
1.28939e-14
6.57843e-15
3.33974e-15
1.39652e-15
1.01047e-16
7.48785e-16
-6.08874e-17
-6.08874e-17
-6.08874e-17
1.01047e-16
2.57648e-12
1.41849e-12
7.64432e-13
4.04128e-13
2.08997e-13
1.05844e-13
5.2244e-14
2.4877e-14
1.22461e-14
6.09262e-15
2.36813e-15
7.48785e-16
-6.08874e-17
-2.22822e-16
-6.08874e-17
9.1072e-16
1.23459e-15
4.24916e-16
2.2748e-12
1.24943e-12
6.72777e-13
3.55223e-13
1.84221e-13
9.36992e-14
4.77098e-14
2.37435e-14
1.12745e-14
5.12102e-15
2.85393e-15
1.07265e-15
2.62982e-16
-6.08874e-17
-6.08874e-17
-6.08874e-17
-6.08874e-17
-6.08874e-17
1.92016e-12
1.05203e-12
5.66386e-13
2.98546e-13
1.54425e-13
7.86393e-14
4.02608e-14
2.0019e-14
1.06268e-14
5.12102e-15
1.88233e-15
4.24916e-16
-3.84756e-16
4.24916e-16
4.24916e-16
-6.08874e-17
-6.08874e-17
4.24916e-16
1.53346e-12
8.39084e-13
4.48822e-13
2.35068e-13
1.20256e-13
6.06646e-14
3.00589e-14
1.62945e-14
8.68358e-15
4.47328e-15
7.48785e-16
-6.08874e-17
-6.08874e-17
-6.08874e-17
-6.08874e-17
-3.84756e-16
1.07265e-15
9.1072e-16
1.14741e-12
6.24844e-13
3.332e-13
1.73533e-13
8.9327e-14
4.34995e-14
2.14764e-14
1.04649e-14
5.28295e-15
2.2062e-15
4.24916e-16
-2.22822e-16
-6.08874e-17
-2.22822e-16
-6.08874e-17
7.48785e-16
5.86851e-16
1.07265e-15
7.93904e-13
4.31333e-13
2.30048e-13
1.20742e-13
6.32555e-14
3.24879e-14
1.69422e-14
8.52164e-15
3.33974e-15
1.72039e-15
5.86851e-16
4.24916e-16
-6.08874e-17
1.01047e-16
4.24916e-16
-6.08874e-17
4.24916e-16
4.24916e-16
5.01936e-13
2.70856e-13
1.43413e-13
7.47529e-14
3.89653e-14
1.95332e-14
9.81712e-15
5.12102e-15
2.36813e-15
7.48785e-16
-2.22822e-16
-2.22822e-16
-6.08874e-17
-2.22822e-16
5.86851e-16
-3.84756e-16
4.24916e-16
5.86851e-16
2.8964e-13
1.55882e-13
8.1716e-14
4.18802e-14
2.18003e-14
1.09507e-14
6.74036e-15
2.692e-15
1.07265e-15
4.24916e-16
5.86851e-16
-7.08625e-16
-6.08874e-17
-2.22822e-16
-6.08874e-17
-6.08874e-17
-6.08874e-17
5.86851e-16
1.49567e-13
7.99348e-14
4.2204e-14
2.18003e-14
1.07887e-14
5.93069e-15
2.85393e-15
9.1072e-16
2.62982e-16
-5.46691e-16
1.01047e-16
-6.08874e-17
-6.08874e-17
-6.08874e-17
-5.46691e-16
-6.08874e-17
1.01047e-16
-6.08874e-17
7.02187e-14
3.7346e-14
2.06667e-14
1.03029e-14
5.76876e-15
2.2062e-15
4.24916e-16
4.24916e-16
-6.08874e-17
-6.08874e-17
-2.22822e-16
-2.22822e-16
-6.08874e-17
1.01047e-16
1.23459e-15
1.23459e-15
4.24916e-16
5.86851e-16
2.87635e-14
1.43513e-14
7.22617e-15
4.14941e-15
7.48785e-16
1.01047e-16
-6.08874e-17
1.01047e-16
-6.08874e-17
4.24916e-16
-6.08874e-17
-6.08874e-17
-6.08874e-17
5.86851e-16
5.86851e-16
-3.84756e-16
1.01047e-16
1.01047e-16
1.46752e-14
7.8739e-15
4.63521e-15
2.2062e-15
1.07265e-15
-6.08874e-17
-2.22822e-16
4.24916e-16
-6.08874e-17
-6.08874e-17
-2.22822e-16
-2.22822e-16
-6.08874e-17
1.01047e-16
1.39652e-15
1.23459e-15
4.24916e-16
5.86851e-16
2.34785e-11
1.29285e-11
6.97656e-12
3.69043e-12
1.91368e-12
9.71708e-13
4.83476e-13
2.36364e-13
1.13455e-13
5.2244e-14
2.27719e-14
9.65518e-15
3.98748e-15
2.04426e-15
5.86851e-16
1.01047e-16
5.86851e-16
-2.22822e-16
2.28703e-11
1.25886e-11
6.79034e-12
3.59003e-12
1.86089e-12
9.45475e-13
4.70683e-13
2.29562e-13
1.09731e-13
5.15962e-14
2.42293e-14
1.15984e-14
5.60682e-15
3.1778e-15
1.39652e-15
4.24916e-16
-6.08874e-17
-6.08874e-17
2.16622e-11
1.19131e-11
6.41967e-12
3.39036e-12
1.75499e-12
8.91065e-13
4.43316e-13
2.16769e-13
1.03901e-13
4.9653e-14
2.37435e-14
1.04649e-14
4.95908e-15
2.36813e-15
4.24916e-16
-6.08874e-17
-6.08874e-17
1.01047e-16
1.98732e-11
1.09168e-11
5.87476e-12
3.09872e-12
1.60147e-12
8.10907e-13
4.02184e-13
1.95556e-13
9.28895e-14
4.20421e-14
1.83996e-14
7.22617e-15
2.692e-15
1.55846e-15
5.86851e-16
5.86851e-16
1.72039e-15
1.23459e-15
1.75523e-11
9.62435e-12
5.17067e-12
2.72287e-12
1.40504e-12
7.10184e-13
3.52309e-13
1.71752e-13
8.15541e-14
3.68602e-14
1.67803e-14
8.35971e-15
2.85393e-15
1.07265e-15
-6.08874e-17
-6.08874e-17
2.62982e-16
-5.46691e-16
1.48054e-11
8.09845e-12
4.3414e-12
2.28046e-12
1.1738e-12
5.91324e-13
2.92717e-13
1.4228e-13
6.74658e-14
3.18402e-14
1.54848e-14
7.22617e-15
2.36813e-15
7.48785e-16
-2.22822e-16
-6.08874e-17
-6.08874e-17
-2.22822e-16
1.18155e-11
6.44509e-12
3.44412e-12
1.80421e-12
9.26366e-13
4.65663e-13
2.30534e-13
1.13131e-13
5.35394e-14
2.43912e-14
1.03029e-14
3.82554e-15
1.88233e-15
4.24916e-16
-6.08874e-17
9.1072e-16
1.88233e-15
2.04426e-15
8.82294e-12
4.79498e-12
2.55413e-12
1.3346e-12
6.8395e-13
3.4324e-13
1.70132e-13
8.23638e-14
3.91273e-14
1.82377e-14
9.33131e-15
4.14941e-15
2.62982e-16
-2.22822e-16
-2.22822e-16
-2.22822e-16
-6.08874e-17
-6.08874e-17
6.09143e-12
3.29725e-12
1.74948e-12
9.11307e-13
4.65825e-13
2.33449e-13
1.14427e-13
5.53207e-14
2.63344e-14
1.33797e-14
7.06423e-15
3.1778e-15
-2.22822e-16
1.01047e-16
1.01047e-16
-6.08874e-17
4.24916e-16
1.01047e-16
3.84507e-12
2.0706e-12
1.093e-12
5.659e-13
2.88344e-13
1.42927e-13
7.05426e-14
3.39454e-14
1.5161e-14
6.57843e-15
3.66361e-15
1.39652e-15
4.24916e-16
-2.22822e-16
-6.08874e-17
-2.22822e-16
4.24916e-16
-2.22822e-16
2.19431e-12
1.17623e-12
6.17719e-13
3.19274e-13
1.61064e-13
7.96109e-14
3.84795e-14
1.82377e-14
8.52164e-15
4.14941e-15
1.88233e-15
7.48785e-16
-6.08874e-17
-2.22822e-16
-2.22822e-16
5.86851e-16
-6.08874e-17
-6.08874e-17
1.12474e-12
5.99906e-13
3.13444e-13
1.60254e-13
8.02586e-14
4.00989e-14
1.82377e-14
8.03584e-15
2.85393e-15
1.23459e-15
-3.84756e-16
4.24916e-16
-6.08874e-17
-6.08874e-17
1.01047e-16
-6.08874e-17
-6.08874e-17
4.24916e-16
5.19587e-13
2.76037e-13
1.44385e-13
7.47529e-14
3.81557e-14
1.90474e-14
9.33131e-15
4.63521e-15
1.55846e-15
5.86851e-16
4.24916e-16
4.24916e-16
-6.08874e-17
-2.22822e-16
-6.08874e-17
-6.08874e-17
4.24916e-16
5.86851e-16
2.19846e-13
1.1556e-13
5.96929e-14
3.03828e-14
1.4999e-14
6.9023e-15
3.50167e-15
1.23459e-15
2.62982e-16
5.86851e-16
1.01047e-16
-6.08874e-17
-6.08874e-17
5.86851e-16
-6.08874e-17
5.86851e-16
1.01047e-16
4.24916e-16
1.0714e-13
5.62923e-14
2.94112e-14
1.62945e-14
8.68358e-15
3.1778e-15
1.88233e-15
4.24916e-16
1.01047e-16
5.86851e-16
4.24916e-16
4.24916e-16
-6.08874e-17
-2.22822e-16
-6.08874e-17
-6.08874e-17
4.24916e-16
-2.22822e-16
1.82112e-10
1.00159e-10
5.39168e-11
2.84101e-11
1.46558e-11
7.40456e-12
3.66565e-12
1.77944e-12
8.46371e-13
3.95545e-13
1.81144e-13
8.1716e-14
3.66982e-14
1.64564e-14
7.22617e-15
2.85393e-15
1.07265e-15
2.62982e-16
1.77375e-10
9.75107e-11
5.2468e-11
2.76344e-11
1.42495e-11
7.19599e-12
3.56039e-12
1.72778e-12
8.21919e-13
3.83886e-13
1.75962e-13
7.91251e-14
3.52408e-14
1.64564e-14
7.06423e-15
2.2062e-15
4.24916e-16
5.86851e-16
1.68001e-10
9.22725e-11
4.9605e-11
2.61036e-11
1.34491e-11
6.7871e-12
3.35506e-12
1.6256e-12
7.72367e-13
3.61053e-13
1.6495e-13
7.42671e-14
3.34596e-14
1.53229e-14
7.22617e-15
3.33974e-15
9.1072e-16
-6.08874e-17
1.54121e-10
8.45293e-11
4.53785e-11
2.38461e-11
1.22697e-11
6.18276e-12
3.05273e-12
1.47759e-12
7.01439e-13
3.27695e-13
1.4989e-13
6.73039e-14
3.00589e-14
1.24081e-14
4.95908e-15
2.04426e-15
5.86851e-16
1.01047e-16
1.36108e-10
7.45065e-11
3.99215e-11
2.09392e-11
1.07543e-11
5.4105e-12
2.66716e-12
1.28878e-12
6.10918e-13
2.85268e-13
1.30458e-13
5.87213e-14
2.4877e-14
1.07887e-14
3.66361e-15
1.72039e-15
4.24916e-16
1.01047e-16
1.14788e-10
6.26751e-11
3.34982e-11
1.75285e-11
8.98115e-12
4.50722e-12
2.21634e-12
1.06822e-12
5.05823e-13
2.3604e-13
1.08435e-13
4.9653e-14
2.18003e-14
8.52164e-15
3.50167e-15
1.07265e-15
-6.08874e-17
-5.46691e-16
9.15705e-11
4.98382e-11
2.65536e-11
1.38523e-11
7.07777e-12
3.54242e-12
1.73814e-12
8.37141e-13
3.95869e-13
1.83573e-13
8.4307e-14
3.88034e-14
1.71042e-14
7.06423e-15
3.1778e-15
1.07265e-15
1.01047e-16
1.01047e-16
6.83289e-11
3.70391e-11
1.96559e-11
1.02151e-11
5.20095e-12
2.59332e-12
1.26837e-12
6.08975e-13
2.86401e-13
1.32402e-13
5.98549e-14
2.61725e-14
1.12745e-14
3.82554e-15
9.1072e-16
1.01047e-16
-6.08874e-17
1.01047e-16
4.71086e-11
2.54133e-11
1.34246e-11
6.94596e-12
3.52153e-12
1.75094e-12
8.53496e-13
4.085e-13
1.91993e-13
8.9165e-14
4.00989e-14
1.83996e-14
7.8739e-15
3.33974e-15
1.23459e-15
2.62982e-16
-6.08874e-17
1.01047e-16
2.96349e-11
1.58995e-11
8.35463e-12
4.30189e-12
2.171e-12
1.07421e-12
5.21692e-13
2.48347e-13
1.1556e-13
5.33775e-14
2.32577e-14
9.49325e-15
3.1778e-15
9.1072e-16
4.24916e-16
-3.84756e-16
-6.08874e-17
-6.08874e-17
1.68159e-11
8.96949e-12
4.68827e-12
2.4024e-12
1.20684e-12
5.95372e-13
2.87859e-13
1.37098e-13
6.4551e-14
3.00589e-14
1.40274e-14
5.93069e-15