/*--------------------------------*- C++ -*----------------------------------*\
| =========                 |                                                 |
| \\      /  F ield         | OpenFOAM: The Open Source CFD Toolbox           |
|  \\    /   O peration     | Version:  2312                                  |
|   \\  /    A nd           | Website:  www.openfoam.com                      |
|    \\/     M anipulation  |                                                 |
\*---------------------------------------------------------------------------*/
FoamFile
{
    version     2.0;
    format      ascii;
    arch        "LSB;label=32;scalar=64";
    class       volVectorField;
    location    "0.9";
    object      D_0;
}
// * * * * * * * * * * * * * * * * * * * * * * * * * * * * * * * * * * * * * //

dimensions      [0 1 0 0 0 0 0];

internalField   nonuniform List<vector> 
1620
(
(0.000131403 0.000322382 4.43821e-05)
(7.34259e-05 0.000340302 4.43818e-05)
(1.32178e-05 0.000347883 4.4382e-05)
(-4.73919e-05 0.000344893 4.43826e-05)
(-0.000106562 0.000331425 4.43827e-05)
(-0.000162495 0.000307885 4.43824e-05)
(-0.00021349 0.00027499 4.43827e-05)
(-0.000257998 0.00023374 4.43826e-05)
(-0.000294667 0.000185388 4.43822e-05)
(-0.000322382 0.000131403 4.43821e-05)
(-0.000340302 7.34259e-05 4.43818e-05)
(-0.000347883 1.32178e-05 4.43819e-05)
(-0.000344893 -4.7392e-05 4.43826e-05)
(-0.000331425 -0.000106562 4.43827e-05)
(-0.000307885 -0.000162495 4.43824e-05)
(-0.00027499 -0.00021349 4.43827e-05)
(-0.00023374 -0.000257998 4.43826e-05)
(-0.000185388 -0.000294667 4.43822e-05)
(-0.000131403 -0.000322382 4.43821e-05)
(-7.34258e-05 -0.000340302 4.43818e-05)
(-1.32178e-05 -0.000347883 4.43819e-05)
(4.7392e-05 -0.000344893 4.43826e-05)
(0.000106562 -0.000331425 4.43827e-05)
(0.000162495 -0.000307885 4.43824e-05)
(0.00021349 -0.00027499 4.43827e-05)
(0.000257998 -0.00023374 4.43826e-05)
(0.000294667 -0.000185388 4.43822e-05)
(0.000322382 -0.000131403 4.43821e-05)
(0.000340302 -7.34259e-05 4.43818e-05)
(0.000347883 -1.32178e-05 4.4382e-05)
(0.000344893 4.7392e-05 4.43826e-05)
(0.000331425 0.000106562 4.43827e-05)
(0.000307885 0.000162495 4.43824e-05)
(0.00027499 0.00021349 4.43827e-05)
(0.00023374 0.000257998 4.43826e-05)
(0.000185388 0.000294667 4.43822e-05)
(6.17577e-05 0.00036667 8.38769e-05)
(-2.85209e-06 0.000371824 8.38768e-05)
(-6.73749e-05 0.00036568 8.38769e-05)
(-0.000129851 0.000348424 8.38772e-05)
(-0.000188382 0.000320583 8.38773e-05)
(-0.000241188 0.000283 8.38771e-05)
(-0.000286667 0.000236819 8.38771e-05)
(-0.000323435 0.000183442 8.3877e-05)
(-0.000350376 0.000124491 8.38768e-05)
(-0.00036667 6.17577e-05 8.38768e-05)
(-0.000371824 -2.85211e-06 8.38768e-05)
(-0.00036568 -6.73749e-05 8.38769e-05)
(-0.000348424 -0.000129851 8.38772e-05)
(-0.000320583 -0.000188382 8.38773e-05)
(-0.000283 -0.000241188 8.38771e-05)
(-0.000236819 -0.000286667 8.38771e-05)
(-0.000183442 -0.000323435 8.3877e-05)
(-0.000124491 -0.000350376 8.38768e-05)
(-6.17577e-05 -0.00036667 8.38768e-05)
(2.85212e-06 -0.000371824 8.38768e-05)
(6.73749e-05 -0.00036568 8.38769e-05)
(0.000129851 -0.000348424 8.38772e-05)
(0.000188382 -0.000320583 8.38773e-05)
(0.000241188 -0.000283 8.38771e-05)
(0.000286667 -0.000236819 8.38771e-05)
(0.000323435 -0.000183442 8.3877e-05)
(0.000350376 -0.000124491 8.38768e-05)
(0.00036667 -6.17577e-05 8.38768e-05)
(0.000371824 2.85211e-06 8.38768e-05)
(0.00036568 6.73749e-05 8.38769e-05)
(0.000348424 0.000129851 8.38772e-05)
(0.000320583 0.000188382 8.38774e-05)
(0.000283 0.000241188 8.38771e-05)
(0.000236819 0.000286667 8.38771e-05)
(0.000183442 0.000323435 8.3877e-05)
(0.000124491 0.000350376 8.38768e-05)
(-4.72015e-05 0.000395426 0.000105952)
(-0.000115149 0.000381223 0.000105953)
(-0.000179599 0.000355436 0.000105952)
(-0.000238591 0.000318848 0.000105952)
(-0.000290334 0.000272574 0.000105953)
(-0.000333255 0.000218017 0.000105953)
(-0.00036605 0.000156835 0.000105953)
(-0.000387723 9.08887e-05 0.000105952)
(-0.000397615 2.21805e-05 0.000105952)
(-0.000395426 -4.72015e-05 0.000105952)
(-0.000381223 -0.000115149 0.000105953)
(-0.000355436 -0.000179599 0.000105952)
(-0.000318848 -0.000238591 0.000105952)
(-0.000272574 -0.000290334 0.000105953)
(-0.000218017 -0.000333255 0.000105953)
(-0.000156835 -0.00036605 0.000105953)
(-9.08886e-05 -0.000387723 0.000105952)
(-2.21805e-05 -0.000397615 0.000105952)
(4.72015e-05 -0.000395426 0.000105952)
(0.000115149 -0.000381223 0.000105953)
(0.000179599 -0.000355436 0.000105952)
(0.000238591 -0.000318848 0.000105952)
(0.000290334 -0.000272574 0.000105953)
(0.000333255 -0.000218017 0.000105953)
(0.00036605 -0.000156835 0.000105953)
(0.000387723 -9.08886e-05 0.000105952)
(0.000397615 -2.21805e-05 0.000105952)
(0.000395426 4.72015e-05 0.000105952)
(0.000381223 0.000115149 0.000105953)
(0.000355436 0.000179599 0.000105952)
(0.000318848 0.000238591 0.000105952)
(0.000272574 0.000290334 0.000105953)
(0.000218017 0.000333255 0.000105953)
(0.000156835 0.00036605 0.000105953)
(9.08887e-05 0.000387723 0.000105952)
(2.21806e-05 0.000397615 0.000105952)
(0.000249098 0.000961757 0.000188475)
(7.83072e-05 0.000990401 0.000188474)
(-9.48636e-05 0.000988953 0.000188475)
(-0.000265152 0.000957455 0.000188476)
(-0.000427384 0.000896866 0.000188477)
(-0.00057663 0.000809027 0.000188477)
(-0.000708356 0.000696605 0.000188476)
(-0.000818559 0.000563017 0.000188476)
(-0.00090389 0.000412321 0.000188475)
(-0.000961757 0.000249098 0.000188475)
(-0.000990401 7.83072e-05 0.000188474)
(-0.000988953 -9.48636e-05 0.000188475)
(-0.000957455 -0.000265152 0.000188476)
(-0.000896866 -0.000427384 0.000188477)
(-0.000809027 -0.00057663 0.000188476)
(-0.000696605 -0.000708356 0.000188476)
(-0.000563017 -0.000818559 0.000188476)
(-0.000412321 -0.00090389 0.000188475)
(-0.000249098 -0.000961757 0.000188475)
(-7.83071e-05 -0.000990401 0.000188474)
(9.48637e-05 -0.000988953 0.000188475)
(0.000265152 -0.000957455 0.000188476)
(0.000427384 -0.000896866 0.000188477)
(0.00057663 -0.000809027 0.000188477)
(0.000708357 -0.000696605 0.000188476)
(0.00081856 -0.000563017 0.000188476)
(0.00090389 -0.000412321 0.000188475)
(0.000961757 -0.000249098 0.000188475)
(0.000990401 -7.83072e-05 0.000188474)
(0.000988953 9.48636e-05 0.000188475)
(0.000957455 0.000265152 0.000188476)
(0.000896867 0.000427384 0.000188477)
(0.000809027 0.00057663 0.000188477)
(0.000696605 0.000708357 0.000188477)
(0.000563017 0.000818559 0.000188476)
(0.000412322 0.00090389 0.000188475)
(0.000125638 0.00107557 0.000292629)
(-6.30408e-05 0.00108105 0.000292628)
(-0.000249805 0.00105368 0.000292629)
(-0.000428978 0.000994291 0.00029263)
(-0.000595118 0.000904694 0.00029263)
(-0.000743175 0.000787608 0.00029263)
(-0.000868651 0.000646591 0.00029263)
(-0.000967734 0.000485928 0.000292629)
(-0.00103741 0.0003105 0.000292629)
(-0.00107557 0.000125638 0.000292629)
(-0.00108105 -6.30409e-05 0.000292628)
(-0.00105368 -0.000249805 0.000292629)
(-0.000994291 -0.000428978 0.00029263)
(-0.000904694 -0.000595118 0.00029263)
(-0.000787608 -0.000743176 0.00029263)
(-0.000646591 -0.000868651 0.00029263)
(-0.000485928 -0.000967734 0.000292629)
(-0.0003105 -0.00103741 0.000292629)
(-0.000125638 -0.00107557 0.000292629)
(6.30409e-05 -0.00108105 0.000292628)
(0.000249805 -0.00105368 0.000292629)
(0.000428978 -0.000994291 0.00029263)
(0.000595118 -0.000904694 0.00029263)
(0.000743176 -0.000787608 0.00029263)
(0.000868651 -0.000646591 0.00029263)
(0.000967734 -0.000485928 0.000292629)
(0.00103741 -0.0003105 0.000292629)
(0.00107557 -0.000125638 0.000292629)
(0.00108105 6.30409e-05 0.000292628)
(0.00105368 0.000249805 0.000292629)
(0.000994291 0.000428978 0.00029263)
(0.000904694 0.000595118 0.00029263)
(0.000787608 0.000743176 0.00029263)
(0.000646591 0.000868651 0.00029263)
(0.000485928 0.000967734 0.000292629)
(0.0003105 0.00103741 0.000292629)
(-4.37076e-05 0.00117092 0.000371671)
(-0.000246371 0.00114554 0.000371671)
(-0.000441549 0.00108536 0.000371671)
(-0.000623311 0.000992193 0.000371671)
(-0.000786133 0.000868882 0.000371671)
(-0.00092507 0.000719171 0.000371671)
(-0.0010359 0.000547608 0.000371671)
(-0.00111525 0.000359407 0.000371671)
(-0.00116072 0.000160285 0.000371671)
(-0.00117092 -4.37077e-05 0.000371671)
(-0.00114554 -0.000246372 0.000371671)
(-0.00108536 -0.000441549 0.000371671)
(-0.000992193 -0.000623311 0.000371671)
(-0.000868882 -0.000786133 0.000371671)
(-0.000719171 -0.00092507 0.000371671)
(-0.000547608 -0.0010359 0.000371671)
(-0.000359407 -0.00111525 0.000371671)
(-0.000160285 -0.00116072 0.000371671)
(4.37077e-05 -0.00117092 0.000371671)
(0.000246372 -0.00114554 0.000371671)
(0.000441549 -0.00108536 0.000371671)
(0.000623311 -0.000992193 0.000371671)
(0.000786134 -0.000868882 0.000371671)
(0.00092507 -0.000719171 0.000371671)
(0.0010359 -0.000547608 0.000371671)
(0.00111525 -0.000359407 0.000371671)
(0.00116072 -0.000160285 0.000371671)
(0.00117092 4.37077e-05 0.000371671)
(0.00114554 0.000246372 0.000371671)
(0.00108536 0.000441549 0.000371671)
(0.000992193 0.000623311 0.000371671)
(0.000868882 0.000786133 0.000371671)
(0.000719171 0.00092507 0.000371671)
(0.000547608 0.0010359 0.000371671)
(0.000359407 0.00111525 0.000371671)
(0.000160285 0.00116072 0.000371671)
(0.000291048 0.00161226 0.000431115)
(6.66023e-06 0.00163831 0.000431115)
(-0.00027793 0.00161457 0.000431116)
(-0.000554075 0.00154178 0.000431117)
(-0.000813385 0.00142215 0.000431119)
(-0.00104798 0.0012593 0.000431119)
(-0.00125073 0.00105819 0.000431118)
(-0.00141548 0.000824921 0.000431117)
(-0.00153723 0.000566592 0.000431116)
(-0.00161226 0.000291048 0.000431115)
(-0.00163831 6.66014e-06 0.000431115)
(-0.00161457 -0.00027793 0.000431116)
(-0.00154178 -0.000554075 0.000431117)
(-0.00142215 -0.000813385 0.000431119)
(-0.0012593 -0.00104798 0.000431119)
(-0.00105819 -0.00125073 0.000431118)
(-0.000824921 -0.00141548 0.000431117)
(-0.000566592 -0.00153723 0.000431116)
(-0.000291047 -0.00161226 0.000431115)
(-6.66006e-06 -0.00163831 0.000431115)
(0.00027793 -0.00161457 0.000431116)
(0.000554075 -0.00154178 0.000431117)
(0.000813385 -0.00142215 0.000431119)
(0.00104798 -0.0012593 0.000431119)
(0.00125073 -0.00105819 0.000431118)
(0.00141548 -0.000824921 0.000431117)
(0.00153723 -0.000566592 0.000431116)
(0.00161226 -0.000291048 0.000431115)
(0.00163831 -6.66013e-06 0.000431115)
(0.00161457 0.00027793 0.000431116)
(0.00154178 0.000554075 0.000431117)
(0.00142215 0.000813385 0.000431119)
(0.0012593 0.00104798 0.000431119)
(0.00105819 0.00125073 0.000431118)
(0.000824921 0.00141548 0.000431117)
(0.000566592 0.00153723 0.000431116)
(0.000125783 0.00175738 0.000567523)
(-0.000181293 0.00175253 0.000567523)
(-0.000482862 0.00169442 0.000567523)
(-0.000769758 0.00158483 0.000567524)
(-0.00103327 0.00142709 0.000567524)
(-0.00126538 0.00122598 0.000567524)
(-0.00145905 0.000987624 0.000567524)
(-0.00160838 0.000719258 0.000567524)
(-0.00170884 0.000429039 0.000567523)
(-0.00175738 0.000125783 0.000567523)
(-0.00175253 -0.000181294 0.000567523)
(-0.00169442 -0.000482862 0.000567523)
(-0.00158483 -0.000769758 0.000567523)
(-0.00142709 -0.00103327 0.000567524)
(-0.00122598 -0.00126538 0.000567524)
(-0.000987624 -0.00145905 0.000567524)
(-0.000719258 -0.00160838 0.000567524)
(-0.000429039 -0.00170884 0.000567523)
(-0.000125783 -0.00175738 0.000567523)
(0.000181294 -0.00175253 0.000567523)
(0.000482862 -0.00169442 0.000567523)
(0.000769758 -0.00158483 0.000567524)
(0.00103327 -0.00142709 0.000567524)
(0.00126538 -0.00122598 0.000567524)
(0.00145905 -0.000987624 0.000567524)
(0.00160838 -0.000719258 0.000567524)
(0.00170884 -0.000429039 0.000567523)
(0.00175738 -0.000125783 0.000567523)
(0.00175253 0.000181294 0.000567523)
(0.00169442 0.000482862 0.000567523)
(0.00158483 0.000769758 0.000567524)
(0.00142709 0.00103327 0.000567524)
(0.00122598 0.00126538 0.000567524)
(0.000987624 0.00145905 0.000567524)
(0.000719259 0.00160838 0.000567524)
(0.000429039 0.00170884 0.000567523)
(-7.99335e-05 0.00188075 0.000679819)
(-0.000405308 0.0018383 0.000679819)
(-0.000718367 0.00173999 0.000679819)
(-0.0010096 0.00158882 0.000679819)
(-0.00127016 0.00138936 0.000679819)
(-0.00149212 0.00114769 0.000679819)
(-0.00166875 0.000871153 0.000679819)
(-0.00179467 0.000568143 0.000679819)
(-0.00186606 0.00024787 0.000679819)
(-0.00188075 -7.99336e-05 0.000679819)
(-0.0018383 -0.000405308 0.000679819)
(-0.00173999 -0.000718367 0.000679819)
(-0.00158882 -0.0010096 0.000679819)
(-0.00138936 -0.00127016 0.000679819)
(-0.00114769 -0.00149212 0.000679819)
(-0.000871152 -0.00166875 0.000679819)
(-0.000568143 -0.00179467 0.000679819)
(-0.00024787 -0.00186606 0.000679819)
(7.99336e-05 -0.00188075 0.000679819)
(0.000405308 -0.0018383 0.000679819)
(0.000718367 -0.00173999 0.000679819)
(0.0010096 -0.00158882 0.000679819)
(0.00127016 -0.00138936 0.000679819)
(0.00149212 -0.00114769 0.000679819)
(0.00166875 -0.000871152 0.000679819)
(0.00179467 -0.000568143 0.000679819)
(0.00186606 -0.00024787 0.000679819)
(0.00188075 7.99336e-05 0.000679819)
(0.0018383 0.000405308 0.000679819)
(0.00173999 0.000718367 0.000679819)
(0.00158882 0.0010096 0.000679819)
(0.00138936 0.00127016 0.000679819)
(0.00114769 0.00149212 0.000679819)
(0.000871153 0.00166875 0.000679819)
(0.000568143 0.00179467 0.000679819)
(0.00024787 0.00186606 0.000679819)
(0.000227825 0.00225159 0.000711423)
(-0.00016662 0.00225694 0.000711423)
(-0.000556003 0.00219372 0.000711423)
(-0.000928491 0.00206384 0.000711424)
(-0.00127277 0.00187126 0.000711425)
(-0.00157837 0.00162182 0.000711426)
(-0.00183602 0.0013231 0.000711426)
(-0.00203788 0.000984173 0.000711425)
(-0.00217782 0.000615347 0.000711424)
(-0.00225159 0.000227825 0.000711423)
(-0.00225694 -0.000166621 0.000711422)
(-0.00219372 -0.000556003 0.000711423)
(-0.00206384 -0.000928491 0.000711424)
(-0.00187126 -0.00127277 0.000711425)
(-0.00162182 -0.00157837 0.000711426)
(-0.0013231 -0.00183602 0.000711426)
(-0.000984173 -0.00203788 0.000711425)
(-0.000615347 -0.00217782 0.000711424)
(-0.000227825 -0.00225159 0.000711423)
(0.000166621 -0.00225694 0.000711422)
(0.000556003 -0.00219372 0.000711423)
(0.000928491 -0.00206384 0.000711424)
(0.00127277 -0.00187126 0.000711425)
(0.00157837 -0.00162182 0.000711426)
(0.00183602 -0.0013231 0.000711426)
(0.00203788 -0.000984173 0.000711425)
(0.00217782 -0.000615347 0.000711424)
(0.00225159 -0.000227825 0.000711423)
(0.00225694 0.000166621 0.000711423)
(0.00219372 0.000556003 0.000711423)
(0.00206384 0.000928491 0.000711424)
(0.00187126 0.00127277 0.000711425)
(0.00162182 0.00157837 0.000711426)
(0.0013231 0.00183602 0.000711426)
(0.000984173 0.00203788 0.000711425)
(0.000615347 0.00217782 0.000711424)
(5.05896e-05 0.00239025 0.000859329)
(-0.000365242 0.00236273 0.000859328)
(-0.000769976 0.00226341 0.000859328)
(-0.00115131 0.00209532 0.000859329)
(-0.00149767 0.00186356 0.000859329)
(-0.00179852 0.00157518 0.000859329)
(-0.00204472 0.00123894 0.00085933)
(-0.0022288 0.000865054 0.000859329)
(-0.00234516 0.000464884 0.000859329)
(-0.00239025 5.05895e-05 0.000859328)
(-0.00236273 -0.000365242 0.000859328)
(-0.00226341 -0.000769976 0.000859328)
(-0.00209532 -0.00115131 0.000859329)
(-0.00186356 -0.00149767 0.000859329)
(-0.00157518 -0.00179852 0.000859329)
(-0.00123894 -0.00204472 0.00085933)
(-0.000865054 -0.0022288 0.000859329)
(-0.000464884 -0.00234516 0.000859329)
(-5.05894e-05 -0.00239025 0.000859328)
(0.000365242 -0.00236273 0.000859328)
(0.000769976 -0.00226341 0.000859328)
(0.00115131 -0.00209532 0.000859329)
(0.00149767 -0.00186356 0.000859329)
(0.00179852 -0.00157518 0.000859329)
(0.00204472 -0.00123894 0.00085933)
(0.0022288 -0.000865054 0.000859329)
(0.00234516 -0.000464884 0.000859329)
(0.00239025 -5.05895e-05 0.000859329)
(0.00236273 0.000365242 0.000859328)
(0.00226341 0.000769976 0.000859328)
(0.00209532 0.00115131 0.000859329)
(0.00186356 0.00149767 0.000859329)
(0.00157518 0.00179852 0.000859329)
(0.00123894 0.00204472 0.00085933)
(0.000865054 0.0022288 0.000859329)
(0.000464885 0.00234516 0.000859329)
(-0.00016187 0.00250687 0.000984133)
(-0.000594725 0.00244068 0.000984132)
(-0.00100951 0.00230033 0.000984133)
(-0.00139362 0.00209008 0.000984133)
(-0.00173539 0.00181633 0.000984132)
(-0.00202442 0.00148739 0.000984133)
(-0.00225195 0.00111325 0.000984133)
(-0.00241105 0.000705294 0.000984133)
(-0.0024969 0.000275903 0.000984133)
(-0.00250687 -0.00016187 0.000984133)
(-0.00244068 -0.000594725 0.000984132)
(-0.00230033 -0.00100951 0.000984132)
(-0.00209008 -0.00139362 0.000984132)
(-0.00181633 -0.00173539 0.000984132)
(-0.00148739 -0.00202442 0.000984133)
(-0.00111325 -0.00225195 0.000984133)
(-0.000705294 -0.00241105 0.000984133)
(-0.000275903 -0.0024969 0.000984133)
(0.00016187 -0.00250687 0.000984133)
(0.000594725 -0.00244068 0.000984132)
(0.00100951 -0.00230033 0.000984132)
(0.00139362 -0.00209008 0.000984132)
(0.00173539 -0.00181633 0.000984132)
(0.00202442 -0.00148739 0.000984133)
(0.00225195 -0.00111325 0.000984133)
(0.00241105 -0.000705294 0.000984133)
(0.0024969 -0.000275903 0.000984133)
(0.00250687 0.00016187 0.000984133)
(0.00244068 0.000594725 0.000984132)
(0.00230033 0.00100951 0.000984133)
(0.00209008 0.00139362 0.000984133)
(0.00181633 0.00173539 0.000984132)
(0.00148739 0.00202442 0.000984133)
(0.00111325 0.00225195 0.000984133)
(0.000705294 0.00241105 0.000984133)
(0.000275903 0.0024969 0.000984133)
(7.78158e-05 0.00284497 0.000996945)
(-0.00041739 0.00281526 0.000996944)
(-0.000899915 0.00270001 0.000996944)
(-0.00135509 0.00250273 0.000996945)
(-0.0017691 0.00222939 0.000996946)
(-0.00212935 0.00188832 0.000996946)
(-0.00242491 0.00148988 0.000996946)
(-0.00264678 0.00104616 0.000996946)
(-0.00278824 0.000570658 0.000996946)
(-0.00284497 7.78157e-05 0.000996945)
(-0.00281526 -0.00041739 0.000996944)
(-0.00270001 -0.000899915 0.000996944)
(-0.00250273 -0.00135509 0.000996945)
(-0.00222939 -0.0017691 0.000996946)
(-0.00188832 -0.00212935 0.000996946)
(-0.00148988 -0.00242491 0.000996946)
(-0.00104616 -0.00264678 0.000996946)
(-0.000570657 -0.00278824 0.000996946)
(-7.78155e-05 -0.00284497 0.000996945)
(0.00041739 -0.00281526 0.000996944)
(0.000899915 -0.00270001 0.000996944)
(0.00135509 -0.00250273 0.000996945)
(0.0017691 -0.00222939 0.000996946)
(0.00212935 -0.00188832 0.000996946)
(0.00242491 -0.00148988 0.000996946)
(0.00264678 -0.00104616 0.000996946)
(0.00278824 -0.000570657 0.000996946)
(0.00284497 -7.78156e-05 0.000996945)
(0.00281526 0.00041739 0.000996944)
(0.00270001 0.000899915 0.000996944)
(0.00250273 0.00135509 0.000996945)
(0.00222939 0.0017691 0.000996946)
(0.00188832 0.00212935 0.000996946)
(0.00148988 0.00242491 0.000996946)
(0.00104616 0.00264678 0.000996946)
(0.000570658 0.00278824 0.000996946)
(-9.26834e-05 0.00295325 0.00114377)
(-0.000604102 0.00289229 0.00114377)
(-0.00109716 0.00274345 0.00114377)
(-0.00155689 0.00251125 0.00114377)
(-0.00196931 0.00220275 0.00114377)
(-0.00232189 0.00182731 0.00114377)
(-0.00260393 0.00139636 0.00114377)
(-0.00280684 0.000922978 0.00114377)
(-0.00292448 0.000421551 0.00114377)
(-0.00295325 -9.26835e-05 0.00114377)
(-0.00289229 -0.000604102 0.00114376)
(-0.00274345 -0.00109716 0.00114377)
(-0.00251125 -0.00155689 0.00114377)
(-0.00220275 -0.00196931 0.00114377)
(-0.00182731 -0.00232189 0.00114377)
(-0.00139636 -0.00260393 0.00114377)
(-0.000922978 -0.00280684 0.00114377)
(-0.000421551 -0.00292448 0.00114377)
(9.26836e-05 -0.00295325 0.00114377)
(0.000604102 -0.00289229 0.00114376)
(0.00109717 -0.00274345 0.00114377)
(0.00155689 -0.00251125 0.00114377)
(0.00196931 -0.00220275 0.00114377)
(0.00232189 -0.00182731 0.00114377)
(0.00260393 -0.00139636 0.00114377)
(0.00280685 -0.000922978 0.00114377)
(0.00292448 -0.000421551 0.00114377)
(0.00295325 9.26835e-05 0.00114377)
(0.00289229 0.000604102 0.00114377)
(0.00274345 0.00109716 0.00114377)
(0.00251125 0.00155689 0.00114377)
(0.00220275 0.00196931 0.00114377)
(0.00182731 0.00232189 0.00114377)
(0.00139636 0.00260393 0.00114377)
(0.000922978 0.00280685 0.00114377)
(0.000421552 0.00292448 0.00114377)
(-0.000293593 0.00304089 0.00126842)
(-0.000817178 0.00294371 0.00126842)
(-0.00131593 0.00275709 0.00126842)
(-0.0017747 0.00248669 0.00126842)
(-0.00217955 0.00214074 0.00126842)
(-0.00251817 0.00172974 0.00126842)
(-0.00278028 0.00126619 0.00126842)
(-0.00295792 0.000764159 0.00126842)
(-0.00304567 0.000238913 0.00126842)
(-0.00304089 -0.000293593 0.00126842)
(-0.00294371 -0.000817178 0.00126842)
(-0.00275709 -0.00131593 0.00126842)
(-0.00248669 -0.0017747 0.00126842)
(-0.00214074 -0.00217955 0.00126842)
(-0.00172974 -0.00251817 0.00126842)
(-0.00126619 -0.00278028 0.00126842)
(-0.000764159 -0.00295792 0.00126842)
(-0.000238913 -0.00304567 0.00126842)
(0.000293593 -0.00304089 0.00126842)
(0.000817178 -0.00294371 0.00126842)
(0.00131593 -0.00275709 0.00126842)
(0.0017747 -0.00248669 0.00126842)
(0.00217955 -0.00214074 0.00126842)
(0.00251817 -0.00172974 0.00126842)
(0.00278028 -0.00126619 0.00126842)
(0.00295792 -0.000764159 0.00126842)
(0.00304567 -0.000238913 0.00126842)
(0.00304089 0.000293593 0.00126842)
(0.00294371 0.000817178 0.00126842)
(0.00275709 0.00131593 0.00126842)
(0.00248669 0.0017747 0.00126842)
(0.00214074 0.00217955 0.00126842)
(0.00172974 0.00251817 0.00126842)
(0.00126619 0.00278028 0.00126842)
(0.000764159 0.00295792 0.00126842)
(0.000238913 0.00304567 0.00126842)
(-0.000129167 0.00335938 0.00127377)
(-0.000710554 0.00328591 0.00127377)
(-0.00127035 0.0031126 0.00127377)
(-0.00179155 0.00284472 0.00127377)
(-0.00225831 0.00249041 0.00127377)
(-0.00265646 0.00206042 0.00127377)
(-0.00297389 0.00156783 0.00127377)
(-0.00320096 0.0010276 0.00127377)
(-0.00333077 0.000456145 0.00127377)
(-0.00335938 -0.000129167 0.00127377)
(-0.00328591 -0.000710554 0.00127377)
(-0.0031126 -0.00127035 0.00127377)
(-0.00284472 -0.00179155 0.00127377)
(-0.0024904 -0.00225831 0.00127377)
(-0.00206042 -0.00265646 0.00127377)
(-0.00156783 -0.00297389 0.00127377)
(-0.0010276 -0.00320096 0.00127377)
(-0.000456145 -0.00333077 0.00127377)
(0.000129167 -0.00335938 0.00127377)
(0.000710554 -0.00328591 0.00127377)
(0.00127035 -0.0031126 0.00127377)
(0.00179155 -0.00284472 0.00127377)
(0.00225831 -0.00249041 0.00127377)
(0.00265646 -0.00206042 0.00127377)
(0.00297389 -0.00156783 0.00127377)
(0.00320096 -0.0010276 0.00127377)
(0.00333077 -0.000456145 0.00127377)
(0.00335938 0.000129167 0.00127377)
(0.00328591 0.000710554 0.00127377)
(0.0031126 0.00127035 0.00127377)
(0.00284472 0.00179155 0.00127377)
(0.00249041 0.00225831 0.00127377)
(0.00206042 0.00265646 0.00127377)
(0.00156783 0.00297389 0.00127377)
(0.0010276 0.00320096 0.00127377)
(0.000456145 0.00333077 0.00127377)
(-0.000286296 0.00342499 0.00141179)
(-0.000876691 0.00332325 0.00141179)
(-0.00144045 0.00312052 0.00141178)
(-0.00196044 0.00282298 0.00141179)
(-0.00242086 0.00243967 0.00141179)
(-0.00280772 0.00198223 0.00141179)
(-0.00310928 0.00146456 0.00141179)
(-0.00331636 0.000902387 0.00141179)
(-0.00342267 0.000312797 0.00141179)
(-0.00342499 -0.000286296 0.00141179)
(-0.00332325 -0.000876691 0.00141179)
(-0.00312052 -0.00144045 0.00141178)
(-0.00282298 -0.00196044 0.00141178)
(-0.00243967 -0.00242086 0.00141179)
(-0.00198223 -0.00280772 0.00141179)
(-0.00146456 -0.00310928 0.00141179)
(-0.000902387 -0.00331636 0.00141179)
(-0.000312797 -0.00342267 0.00141179)
(0.000286297 -0.00342499 0.00141179)
(0.000876692 -0.00332325 0.00141179)
(0.00144045 -0.00312052 0.00141178)
(0.00196044 -0.00282298 0.00141179)
(0.00242086 -0.00243967 0.00141179)
(0.00280772 -0.00198223 0.00141179)
(0.00310928 -0.00146456 0.00141179)
(0.00331636 -0.000902387 0.00141179)
(0.00342267 -0.000312797 0.00141179)
(0.00342499 0.000286296 0.00141179)
(0.00332325 0.000876692 0.00141179)
(0.00312052 0.00144045 0.00141178)
(0.00282298 0.00196044 0.00141179)
(0.00243967 0.00242086 0.00141179)
(0.00198223 0.00280772 0.00141179)
(0.00146456 0.00310928 0.00141179)
(0.000902387 0.00331636 0.00141179)
(0.000312797 0.00342267 0.00141179)
(-0.000468346 0.0034729 0.00152792)
(-0.00106429 0.00333881 0.00152792)
(-0.0016279 0.00310327 0.00152792)
(-0.00214205 0.00277345 0.00152792)
(-0.00259111 0.00235935 0.00152792)
(-0.00296144 0.00187356 0.00152792)
(-0.00324179 0.00133085 0.00152792)
(-0.00342364 0.0007477 0.00152792)
(-0.00350146 0.000141832 0.00152792)
(-0.0034729 -0.000468346 0.00152792)
(-0.00333881 -0.00106429 0.00152792)
(-0.00310327 -0.0016279 0.00152792)
(-0.00277345 -0.00214205 0.00152792)
(-0.00235935 -0.00259111 0.00152792)
(-0.00187356 -0.00296144 0.00152792)
(-0.00133085 -0.00324179 0.00152792)
(-0.0007477 -0.00342364 0.00152792)
(-0.000141832 -0.00350146 0.00152792)
(0.000468346 -0.0034729 0.00152792)
(0.00106429 -0.00333881 0.00152792)
(0.0016279 -0.00310327 0.00152792)
(0.00214205 -0.00277345 0.00152792)
(0.00259111 -0.00235935 0.00152792)
(0.00296144 -0.00187356 0.00152792)
(0.00324179 -0.00133085 0.00152792)
(0.00342364 -0.0007477 0.00152792)
(0.00350146 -0.000141832 0.00152792)
(0.0034729 0.000468346 0.00152792)
(0.00333881 0.00106429 0.00152792)
(0.00310327 0.0016279 0.00152792)
(0.00277345 0.00214205 0.00152792)
(0.00235935 0.00259111 0.00152792)
(0.00187356 0.00296144 0.00152792)
(0.00133085 0.00324179 0.00152792)
(0.000747701 0.00342364 0.00152792)
(0.000141832 0.00350146 0.00152792)
(-0.000359109 0.00376925 0.00154569)
(-0.00100818 0.00364963 0.00154569)
(-0.00162661 0.00341911 0.00154569)
(-0.00219562 0.00308471 0.00154569)
(-0.00269792 0.00265658 0.00154569)
(-0.00311824 0.00214773 0.00154569)
(-0.00344382 0.00157363 0.00154569)
(-0.00366475 0.000951705 0.00154569)
(-0.00377434 0.000300868 0.00154569)
(-0.00376925 -0.000359109 0.00154569)
(-0.00364963 -0.00100818 0.00154569)
(-0.00341911 -0.00162661 0.00154569)
(-0.00308471 -0.00219562 0.00154569)
(-0.00265658 -0.00269792 0.00154569)
(-0.00214773 -0.00311824 0.00154569)
(-0.00157362 -0.00344382 0.00154569)
(-0.000951705 -0.00366475 0.00154569)
(-0.000300868 -0.00377434 0.00154569)
(0.000359109 -0.00376925 0.00154569)
(0.00100818 -0.00364963 0.00154569)
(0.00162661 -0.00341911 0.00154569)
(0.00219562 -0.00308471 0.00154569)
(0.00269792 -0.00265658 0.00154569)
(0.00311824 -0.00214773 0.00154569)
(0.00344382 -0.00157363 0.00154569)
(0.00366475 -0.000951705 0.00154569)
(0.00377434 -0.000300868 0.00154569)
(0.00376925 0.000359109 0.00154569)
(0.00364963 0.00100818 0.00154569)
(0.00341911 0.00162661 0.00154569)
(0.00308471 0.00219562 0.00154569)
(0.00265658 0.00269792 0.00154569)
(0.00214773 0.00311824 0.00154569)
(0.00157363 0.00344382 0.00154569)
(0.000951705 0.00366475 0.00154569)
(0.000300868 0.00377434 0.00154569)
(-0.000504847 0.00378499 0.00166812)
(-0.00115444 0.00363983 0.00166812)
(-0.00176895 0.00338406 0.00166812)
(-0.00232971 0.00302548 0.00166812)
(-0.00281968 0.00257496 0.00166812)
(-0.00322398 0.00204621 0.00166812)
(-0.00353032 0.00145529 0.00166812)
(-0.0037294 0.000820143 0.00166812)
(-0.00381516 0.000160079 0.00166812)
(-0.00378499 -0.000504847 0.00166812)
(-0.00363983 -0.00115444 0.00166812)
(-0.00338406 -0.00176895 0.00166812)
(-0.00302548 -0.00232971 0.00166812)
(-0.00257496 -0.00281968 0.00166812)
(-0.00204621 -0.00322398 0.00166812)
(-0.00145529 -0.00353032 0.00166812)
(-0.000820143 -0.0037294 0.00166812)
(-0.000160078 -0.00381516 0.00166812)
(0.000504848 -0.00378499 0.00166812)
(0.00115444 -0.00363983 0.00166812)
(0.00176895 -0.00338406 0.00166812)
(0.00232971 -0.00302548 0.00166812)
(0.00281968 -0.00257496 0.00166812)
(0.00322398 -0.00204621 0.00166812)
(0.00353032 -0.00145529 0.00166812)
(0.0037294 -0.000820143 0.00166812)
(0.00381516 -0.000160078 0.00166812)
(0.00378499 0.000504847 0.00166812)
(0.00363983 0.00115444 0.00166812)
(0.00338406 0.00176895 0.00166812)
(0.00302548 0.00232971 0.00166812)
(0.00257496 0.00281968 0.00166812)
(0.00204621 0.00322398 0.00166812)
(0.00145529 0.00353032 0.00166812)
(0.000820143 0.0037294 0.00166812)
(0.000160079 0.00381516 0.00166812)
(-0.000668484 0.00378853 0.00176799)
(-0.0013162 0.00361489 0.00176799)
(-0.00192392 0.00333142 0.00176799)
(-0.00247319 0.00294672 0.00176799)
(-0.00294731 0.00247249 0.00176799)
(-0.00333187 0.00192313 0.00176799)
(-0.0036152 0.00131534 0.00176799)
(-0.00378869 0.000667584 0.00176799)
(-0.00384705 -4.56131e-07 0.00176799)
(-0.00378853 -0.000668484 0.00176799)
(-0.00361489 -0.0013162 0.00176799)
(-0.00333142 -0.00192392 0.00176799)
(-0.00294672 -0.00247319 0.00176799)
(-0.00247249 -0.00294731 0.00176799)
(-0.00192313 -0.00333187 0.00176799)
(-0.00131534 -0.0036152 0.00176799)
(-0.000667584 -0.00378869 0.00176799)
(4.5637e-07 -0.00384705 0.00176799)
(0.000668484 -0.00378853 0.00176799)
(0.0013162 -0.00361489 0.00176799)
(0.00192392 -0.00333142 0.00176799)
(0.00247319 -0.00294672 0.00176799)
(0.00294731 -0.00247249 0.00176799)
(0.00333187 -0.00192313 0.00176799)
(0.0036152 -0.00131534 0.00176799)
(0.00378869 -0.000667584 0.00176799)
(0.00384705 4.5621e-07 0.00176799)
(0.00378853 0.000668484 0.00176799)
(0.00361489 0.0013162 0.00176799)
(0.00333142 0.00192392 0.00176799)
(0.00294672 0.00247319 0.00176799)
(0.00247249 0.00294731 0.00176799)
(0.00192313 0.00333187 0.00176799)
(0.00131534 0.0036152 0.00176799)
(0.000667585 0.00378869 0.00176799)
(-4.55954e-07 0.00384705 0.00176799)
(-0.000575593 0.0040546 0.00182866)
(-0.00127092 0.00389305 0.00182866)
(-0.00192763 0.00361321 0.00182865)
(-0.00252578 0.00322359 0.00182865)
(-0.00304717 0.00273602 0.00182865)
(-0.00347598 0.00216531 0.00182865)
(-0.00379918 0.00152882 0.00182865)
(-0.00400694 0.000845871 0.00182865)
(-0.00409295 0.000137222 0.00182866)
(-0.00405459 -0.000575593 0.00182866)
(-0.00389305 -0.00127092 0.00182866)
(-0.00361321 -0.00192763 0.00182865)
(-0.00322359 -0.00252578 0.00182865)
(-0.00273601 -0.00304717 0.00182865)
(-0.00216531 -0.00347598 0.00182865)
(-0.00152882 -0.00379918 0.00182865)
(-0.00084587 -0.00400694 0.00182865)
(-0.000137222 -0.00409295 0.00182866)
(0.000575594 -0.00405459 0.00182866)
(0.00127092 -0.00389305 0.00182866)
(0.00192763 -0.00361321 0.00182865)
(0.00252578 -0.00322359 0.00182865)
(0.00304717 -0.00273601 0.00182865)
(0.00347598 -0.00216531 0.00182865)
(0.00379918 -0.00152882 0.00182865)