/*--------------------------------*- C++ -*----------------------------------*\
| =========                 |                                                 |
| \\      /  F ield         | OpenFOAM: The Open Source CFD Toolbox           |
|  \\    /   O peration     | Version:  2312                                  |
|   \\  /    A nd           | Website:  www.openfoam.com                      |
|    \\/     M anipulation  |                                                 |
\*---------------------------------------------------------------------------*/
FoamFile
{
    version     2.0;
    format      ascii;
    arch        "LSB;label=32;scalar=64";
    class       pointVectorField;
    location    "0.9";
    object      pointD;
}
// * * * * * * * * * * * * * * * * * * * * * * * * * * * * * * * * * * * * * //

dimensions      [0 1 0 0 0 0 0];

internalField   nonuniform List<vector> 
2164
(
(0 0 0)
(0 0 0)
(0 0 0)
(0 0 0)
(0 0 0)
(0 0 0)
(0 0 0)
(0 0 0)
(0 0 0)
(0 0 0)
(0 0 0)
(0 0 0)
(0 0 0)
(0 0 0)
(0 0 0)
(0 0 0)
(0 0 0)
(0 0 0)
(0 0 0)
(0 0 0)
(0 0 0)
(0 0 0)
(0 0 0)
(0 0 0)
(0 0 0)
(0 0 0)
(0 0 0)
(0 0 0)
(0 0 0)
(0 0 0)
(0 0 0)
(0 0 0)
(0 0 0)
(0 0 0)
(0 0 0)
(0 0 0)
(0.000196177 0.000622792 6.6638e-05)
(8.50495e-05 0.000647397 6.66381e-05)
(-2.86618e-05 0.00065233 6.66394e-05)
(-0.000141501 0.000637443 6.66404e-05)
(-0.000250042 0.000603188 6.66402e-05)
(-0.000350987 0.000550605 6.66402e-05)
(-0.000441266 0.000481291 6.66402e-05)
(-0.000518137 0.000397354 6.66391e-05)
(-0.000579265 0.000301343 6.66388e-05)
(-0.000622792 0.000196177 6.6638e-05)
(-0.000647397 8.50495e-05 6.66381e-05)
(-0.00065233 -2.86618e-05 6.66394e-05)
(-0.000637443 -0.000141501 6.66404e-05)
(-0.000603188 -0.000250042 6.66402e-05)
(-0.000550605 -0.000350987 6.66402e-05)
(-0.000481291 -0.000441266 6.66402e-05)
(-0.000397354 -0.000518137 6.66391e-05)
(-0.000301343 -0.000579265 6.66388e-05)
(-0.000196177 -0.000622792 6.6638e-05)
(-8.50495e-05 -0.000647397 6.66381e-05)
(2.86618e-05 -0.00065233 6.66394e-05)
(0.000141501 -0.000637443 6.66404e-05)
(0.000250042 -0.000603188 6.66402e-05)
(0.000350987 -0.000550605 6.66402e-05)
(0.000441267 -0.000481291 6.66402e-05)
(0.000518137 -0.000397354 6.66391e-05)
(0.000579266 -0.000301343 6.66388e-05)
(0.000622792 -0.000196177 6.6638e-05)
(0.000647397 -8.50495e-05 6.66381e-05)
(0.00065233 2.86618e-05 6.66394e-05)
(0.000637443 0.000141501 6.66404e-05)
(0.000603188 0.000250042 6.66402e-05)
(0.000550605 0.000350987 6.66402e-05)
(0.000481291 0.000441266 6.66402e-05)
(0.000397354 0.000518137 6.66391e-05)
(0.000301343 0.000579265 6.66388e-05)
(9.67202e-05 0.000699457 0.000144477)
(-2.62082e-05 0.000705626 0.000144477)
(-0.00014834 0.000690355 0.000144478)
(-0.000265965 0.000654108 0.000144479)
(-0.00037551 0.000597986 0.000144479)
(-0.000473644 0.000523695 0.000144478)
(-0.000557387 0.000433491 0.000144478)
(-0.000624195 0.000330115 0.000144478)
(-0.000672035 0.00021671 0.000144477)
(-0.000699457 9.67201e-05 0.000144477)
(-0.000705626 -2.62082e-05 0.000144477)
(-0.000690355 -0.00014834 0.000144478)
(-0.000654108 -0.000265965 0.000144479)
(-0.000597986 -0.00037551 0.000144479)
(-0.000523695 -0.000473644 0.000144478)
(-0.000433491 -0.000557387 0.000144478)
(-0.000330115 -0.000624195 0.000144478)
(-0.00021671 -0.000672035 0.000144477)
(-9.67201e-05 -0.000699457 0.000144477)
(2.62082e-05 -0.000705626 0.000144477)
(0.00014834 -0.000690355 0.000144478)
(0.000265965 -0.000654108 0.000144479)
(0.00037551 -0.000597986 0.000144479)
(0.000473644 -0.000523695 0.000144478)
(0.000557387 -0.000433491 0.000144478)
(0.000624195 -0.000330115 0.000144478)
(0.000672035 -0.00021671 0.000144478)
(0.000699457 -9.67201e-05 0.000144477)
(0.000705626 2.62082e-05 0.000144477)
(0.000690355 0.00014834 0.000144478)
(0.000654108 0.000265965 0.000144479)
(0.000597986 0.00037551 0.000144479)
(0.000523695 0.000473644 0.000144478)
(0.000433491 0.000557387 0.000144478)
(0.000330115 0.000624195 0.000144478)
(0.00021671 0.000672035 0.000144478)
(0 0 0)
(0 0 0)
(0 0 0)
(0 0 0)
(0 0 0)
(0 0 0)
(0 0 0)
(0 0 0)
(0 0 0)
(0 0 0)
(0 0 0)
(0 0 0)
(0 0 0)
(0 0 0)
(0 0 0)
(0 0 0)
(0 0 0)
(0 0 0)
(0 0 0)
(0 0 0)
(0 0 0)
(0 0 0)
(0 0 0)
(0 0 0)
(0 0 0)
(0 0 0)
(0 0 0)
(0 0 0)
(0 0 0)
(0 0 0)
(0 0 0)
(0 0 0)
(0 0 0)
(0 0 0)
(0 0 0)
(0 0 0)
(-3.066e-05 0.000766801 0.000210616)
(-0.000163347 0.000749828 0.000210616)
(-0.000291072 0.000710071 0.000210617)
(-0.000409951 0.00064874 0.000210617)
(-0.000516376 0.000567696 0.000210617)
(-0.000607111 0.000469404 0.000210617)
(-0.000679398 0.000356849 0.000210616)
(-0.000731044 0.00023345 0.000210616)
(-0.000760475 0.00010296 0.000210616)
(-0.000766801 -3.066e-05 0.000210616)
(-0.000749828 -0.000163347 0.000210616)
(-0.000710071 -0.000291072 0.000210617)
(-0.00064874 -0.000409951 0.000210617)
(-0.000567696 -0.000516376 0.000210617)
(-0.000469404 -0.000607111 0.000210617)
(-0.000356849 -0.000679398 0.000210616)
(-0.00023345 -0.000731044 0.000210616)
(-0.00010296 -0.000760475 0.000210616)
(3.066e-05 -0.000766801 0.000210616)
(0.000163347 -0.000749828 0.000210616)
(0.000291072 -0.000710071 0.000210617)
(0.000409951 -0.00064874 0.000210617)
(0.000516376 -0.000567696 0.000210617)
(0.000607111 -0.000469404 0.000210617)
(0.000679398 -0.000356849 0.000210616)
(0.000731044 -0.00023345 0.000210616)
(0.000760475 -0.00010296 0.000210616)
(0.000766801 3.066e-05 0.000210616)
(0.000749828 0.000163347 0.000210616)
(0.000710071 0.000291072 0.000210617)
(0.00064874 0.000409951 0.000210617)
(0.000567696 0.000516376 0.000210617)
(0.000469404 0.000607111 0.000210617)
(0.000356849 0.000679398 0.000210616)
(0.00023345 0.000731044 0.000210616)
(0.00010296 0.000760475 0.000210616)
(0 0 0)
(0 0 0)
(0 0 0)
(0 0 0)
(0 0 0)
(0 0 0)
(0 0 0)
(0 0 0)
(0 0 0)
(0 0 0)
(0 0 0)
(0 0 0)
(0 0 0)
(0 0 0)
(0 0 0)
(0 0 0)
(0 0 0)
(0 0 0)
(0 0 0)
(0 0 0)
(0 0 0)
(0 0 0)
(0 0 0)
(0 0 0)
(0 0 0)
(0 0 0)
(0 0 0)
(0 0 0)
(0 0 0)
(0 0 0)
(0 0 0)
(0 0 0)
(0 0 0)
(0 0 0)
(0 0 0)
(0 0 0)
(-0.000181607 0.000815858 0.000260776)
(-0.000320519 0.000771928 0.000260776)
(-0.000449693 0.000704543 0.000260776)
(-0.000565205 0.00061575 0.000260776)
(-0.000663542 0.000508249 0.000260776)
(-0.000741718 0.000385304 0.000260776)
(-0.000797356 0.000250652 0.000260776)
(-0.000828769 0.000108385 0.000260776)
(-0.000834998 -3.71748e-05 0.000260776)
(-0.000815858 -0.000181607 0.000260776)
(-0.000771928 -0.000320519 0.000260776)
(-0.000704543 -0.000449693 0.000260776)
(-0.00061575 -0.000565205 0.000260776)
(-0.000508249 -0.000663542 0.000260776)
(-0.000385304 -0.000741718 0.000260776)
(-0.000250652 -0.000797356 0.000260776)
(-0.000108385 -0.000828769 0.000260776)
(3.71748e-05 -0.000834998 0.000260776)
(0.000181607 -0.000815858 0.000260776)
(0.000320519 -0.000771928 0.000260776)
(0.000449693 -0.000704543 0.000260776)
(0.000565205 -0.00061575 0.000260776)
(0.000663542 -0.000508249 0.000260776)
(0.000741718 -0.000385304 0.000260776)
(0.000797356 -0.000250652 0.000260776)
(0.000828769 -0.000108385 0.000260776)
(0.000834998 3.71748e-05 0.000260776)
(0.000815858 0.000181607 0.000260776)
(0.000771928 0.000320519 0.000260776)
(0.000704543 0.000449693 0.000260776)
(0.00061575 0.000565205 0.000260776)
(0.000508249 0.000663542 0.000260776)
(0.000385304 0.000741718 0.000260776)
(0.000250652 0.000797356 0.000260776)
(0.000108385 0.000828769 0.000260776)
(-3.71748e-05 0.000834998 0.000260776)
(0 0 0)
(0 0 0)
(0 0 0)
(0 0 0)
(0 0 0)
(0 0 0)
(0 0 0)
(0 0 0)
(0 0 0)
(0 0 0)
(0 0 0)
(0 0 0)
(0 0 0)
(0 0 0)
(0 0 0)
(0 0 0)
(0 0 0)
(0 0 0)
(0 0 0)
(0 0 0)
(0 0 0)
(0 0 0)
(0 0 0)
(0 0 0)
(0 0 0)
(0 0 0)
(0 0 0)
(0 0 0)
(0 0 0)
(0 0 0)
(0 0 0)
(0 0 0)
(0 0 0)
(0 0 0)
(0 0 0)
(0 0 0)
(0.000257117 0.00125816 0.00023252)
(3.47336e-05 0.00128369 0.00023252)
(-0.000188706 0.00127022 0.000232523)
(-0.00040641 0.00121816 0.000232525)
(-0.000611767 0.00112908 0.000232525)
(-0.000798535 0.00100569 0.000232525)
(-0.00096104 0.000851751 0.000232524)
(-0.00109434 0.000671928 0.000232522)
(-0.0011944 0.000471687 0.000232521)
(-0.00125816 0.000257117 0.00023252)
(-0.00128369 3.47335e-05 0.00023252)
(-0.00127022 -0.000188706 0.000232523)
(-0.00121816 -0.00040641 0.000232525)
(-0.00112908 -0.000611767 0.000232525)
(-0.00100569 -0.000798535 0.000232525)
(-0.000851751 -0.00096104 0.000232524)
(-0.000671928 -0.00109434 0.000232522)
(-0.000471687 -0.0011944 0.000232521)
(-0.000257117 -0.00125816 0.00023252)
(-3.47335e-05 -0.00128369 0.00023252)
(0.000188706 -0.00127022 0.000232523)
(0.00040641 -0.00121816 0.000232525)
(0.000611767 -0.00112908 0.000232525)
(0.000798535 -0.00100569 0.000232525)
(0.00096104 -0.000851751 0.000232524)
(0.00109435 -0.000671928 0.000232522)
(0.0011944 -0.000471687 0.000232522)
(0.00125816 -0.000257117 0.00023252)
(0.00128369 -3.47335e-05 0.00023252)
(0.00127022 0.000188706 0.000232523)
(0.00121816 0.00040641 0.000232525)
(0.00112908 0.000611767 0.000232525)
(0.00100569 0.000798535 0.000232525)
(0.000851751 0.00096104 0.000232524)
(0.000671928 0.00109434 0.000232522)
(0.000471687 0.0011944 0.000232522)
(0.000102809 0.0013833 0.000361069)
(-0.000138962 0.00138014 0.00036107)
(-0.000376507 0.00133504 0.00036107)
(-0.000602616 0.00124938 0.000361072)
(-0.000810413 0.00112576 0.000361072)
(-0.000993585 0.000967926 0.000361071)
(-0.00114657 0.000780686 0.000361072)
(-0.00126472 0.000569725 0.00036107)
(-0.00134443 0.000341453 0.00036107)
(-0.0013833 0.000102809 0.000361069)
(-0.00138014 -0.000138962 0.00036107)
(-0.00133504 -0.000376507 0.00036107)
(-0.00124938 -0.000602616 0.000361072)
(-0.00112576 -0.000810413 0.000361072)
(-0.000967926 -0.000993585 0.000361071)
(-0.000780686 -0.00114657 0.000361072)
(-0.000569725 -0.00126472 0.00036107)
(-0.000341453 -0.00134443 0.00036107)
(-0.000102809 -0.0013833 0.000361069)
(0.000138962 -0.00138014 0.00036107)
(0.000376507 -0.00133504 0.00036107)
(0.000602616 -0.00124938 0.000361072)
(0.000810413 -0.00112576 0.000361072)
(0.000993585 -0.000967926 0.000361071)
(0.00114657 -0.000780686 0.000361072)
(0.00126472 -0.000569725 0.00036107)
(0.00134443 -0.000341453 0.00036107)
(0.0013833 -0.000102809 0.000361069)
(0.00138014 0.000138962 0.00036107)
(0.00133504 0.000376507 0.00036107)
(0.00124938 0.000602616 0.000361072)
(0.00112576 0.000810413 0.000361072)
(0.000967926 0.000993585 0.000361071)
(0.000780686 0.00114657 0.000361072)
(0.000569725 0.00126472 0.00036107)
(0.000341454 0.00134443 0.00036107)
(-8.18087e-05 0.00149966 0.000477092)
(-0.000340978 0.00146268 0.000477092)
(-0.000589788 0.00138124 0.000477093)
(-0.000820679 0.00125784 0.000477093)
(-0.00102663 0.00109622 0.000477094)
(-0.00120139 0.000901296 0.000477093)
(-0.00133965 0.000678983 0.000477093)
(-0.0014372 0.000436041 0.000477092)
(-0.00149109 0.000179848 0.000477092)
(-0.00149966 -8.18088e-05 0.000477092)
(-0.00146268 -0.000340978 0.000477092)
(-0.00138124 -0.000589788 0.000477093)
(-0.00125784 -0.000820679 0.000477093)
(-0.00109622 -0.00102663 0.000477094)
(-0.000901296 -0.00120139 0.000477093)
(-0.000678983 -0.00133965 0.000477093)
(-0.000436041 -0.0014372 0.000477092)
(-0.000179848 -0.00149109 0.000477092)
(8.18088e-05 -0.00149966 0.000477092)
(0.000340978 -0.00146268 0.000477092)
(0.000589788 -0.00138124 0.000477093)
(0.000820679 -0.00125784 0.000477093)
(0.00102663 -0.00109622 0.000477094)
(0.00120139 -0.000901296 0.000477093)
(0.00133965 -0.000678983 0.000477093)
(0.0014372 -0.000436041 0.000477092)
(0.00149109 -0.000179848 0.000477092)
(0.00149966 8.18088e-05 0.000477092)
(0.00146268 0.000340978 0.000477092)
(0.00138124 0.000589788 0.000477093)
(0.00125784 0.000820679 0.000477093)
(0.00109622 0.00102663 0.000477094)
(0.000901296 0.00120139 0.000477093)
(0.000678983 0.00133965 0.000477093)
(0.000436041 0.0014372 0.000477092)
(0.000179848 0.00149109 0.000477092)
(-0.000286848 0.00159142 0.000572879)
(-0.000558837 0.00151743 0.000572879)
(-0.000813844 0.00139734 0.000572878)
(-0.00104412 0.00123479 0.000572878)
(-0.00124268 0.00103472 0.000572878)
(-0.00140348 0.00080321 0.000572878)
(-0.00152163 0.000547295 0.000572878)
(-0.00159355 0.000274751 0.000572879)
(-0.00161705 -6.14067e-06 0.000572878)
(-0.00159142 -0.000286848 0.000572879)
(-0.00151743 -0.000558837 0.000572879)
(-0.00139734 -0.000813844 0.000572878)
(-0.00123479 -0.00104412 0.000572878)
(-0.00103472 -0.00124268 0.000572878)
(-0.000803209 -0.00140348 0.000572878)
(-0.000547295 -0.00152163 0.000572878)
(-0.000274751 -0.00159355 0.000572878)
(6.14071e-06 -0.00161705 0.000572878)
(0.000286848 -0.00159142 0.000572879)
(0.000558837 -0.00151743 0.000572879)
(0.000813844 -0.00139734 0.000572878)
(0.00104413 -0.00123479 0.000572878)
(0.00124268 -0.00103472 0.000572878)
(0.00140348 -0.000803209 0.000572878)
(0.00152163 -0.000547295 0.000572878)
(0.00159355 -0.000274751 0.000572879)
(0.00161705 6.14071e-06 0.000572878)
(0.00159142 0.000286848 0.000572879)
(0.00151743 0.000558837 0.000572879)
(0.00139734 0.000813844 0.000572878)
(0.00123479 0.00104412 0.000572878)
(0.00103472 0.00124268 0.000572878)
(0.00080321 0.00140348 0.000572878)
(0.000547295 0.00152163 0.000572878)
(0.000274751 0.00159355 0.000572879)
(-6.14064e-06 0.00161705 0.000572878)
(0.000203113 0.00190754 0.000495165)
(-0.000131214 0.00191383 0.000495165)
(-0.000461556 0.00186197 0.000495167)
(-0.000777871 0.00175354 0.000495169)
(-0.00107055 0.00159182 0.00049517)
(-0.0013307 0.00138174 0.00049517)
(-0.00155042 0.00112967 0.000495169)
(-0.00172304 0.000843281 0.000495167)
(-0.00184329 0.000531268 0.000495165)
(-0.00190754 0.000203113 0.000495164)
(-0.00191383 -0.000131214 0.000495165)
(-0.00186197 -0.000461556 0.000495167)
(-0.00175354 -0.000777871 0.000495169)
(-0.00159182 -0.00107055 0.000495169)
(-0.00138174 -0.0013307 0.00049517)
(-0.00112967 -0.00155042 0.000495168)
(-0.000843281 -0.00172304 0.000495167)
(-0.000531268 -0.00184329 0.000495165)
(-0.000203113 -0.00190754 0.000495164)
(0.000131215 -0.00191383 0.000495165)
(0.000461556 -0.00186197 0.000495167)
(0.000777871 -0.00175354 0.000495169)
(0.00107055 -0.00159182 0.00049517)
(0.0013307 -0.00138174 0.00049517)
(0.00155042 -0.00112967 0.000495169)
(0.00172304 -0.000843281 0.000495167)
(0.00184329 -0.000531268 0.000495165)
(0.00190754 -0.000203113 0.000495165)
(0.00191383 0.000131214 0.000495165)
(0.00186197 0.000461556 0.000495167)
(0.00175354 0.000777871 0.000495169)
(0.00159182 0.00107055 0.00049517)
(0.00138174 0.0013307 0.00049517)
(0.00112967 0.00155042 0.000495169)
(0.000843281 0.00172304 0.000495167)
(0.000531268 0.00184329 0.000495165)
(1.97181e-05 0.00204175 0.000644553)
(-0.000335128 0.00201416 0.000644554)
(-0.00067979 0.00192536 0.000644554)
(-0.0010038 0.00177807 0.000644555)
(-0.0012973 0.00157675 0.000644556)
(-0.00155139 0.00132752 0.000644556)
(-0.00175835 0.00103795 0.000644556)
(-0.00191187 0.000716849 0.000644555)
(-0.00200731 0.000373964 0.000644554)
(-0.00204175 1.9718e-05 0.000644553)
(-0.00201416 -0.000335128 0.000644554)
(-0.00192536 -0.00067979 0.000644554)
(-0.00177807 -0.0010038 0.000644555)
(-0.00157675 -0.00129731 0.000644556)
(-0.00132752 -0.00155139 0.000644555)
(-0.00103795 -0.00175835 0.000644556)
(-0.000716849 -0.00191187 0.000644555)
(-0.000373964 -0.00200731 0.000644554)
(-1.9718e-05 -0.00204175 0.000644553)
(0.000335128 -0.00201416 0.000644554)
(0.00067979 -0.00192536 0.000644554)
(0.0010038 -0.00177807 0.000644555)
(0.00129731 -0.00157675 0.000644556)
(0.00155139 -0.00132752 0.000644556)
(0.00175835 -0.00103795 0.000644556)
(0.00191187 -0.000716849 0.000644555)
(0.00200731 -0.000373964 0.000644554)
(0.00204175 -1.9718e-05 0.000644553)
(0.00201416 0.000335128 0.000644554)
(0.00192536 0.00067979 0.000644554)
(0.00177807 0.0010038 0.000644555)
(0.00157675 0.00129731 0.000644556)
(0.00132752 0.00155139 0.000644556)
(0.00103795 0.00175835 0.000644556)
(0.000716849 0.00191187 0.000644555)
(0.000373964 0.00200731 0.000644554)
(-0.000190049 0.00216622 0.00078142)
(-0.000563322 0.00210031 0.00078142)
(-0.000919477 0.00197058 0.00078142)
(-0.00124769 0.00178098 0.00078142)
(-0.001538 0.00153726 0.00078142)
(-0.00178158 0.00124683 0.000781421)
(-0.00197102 0.000918522 0.00078142)
(-0.00210058 0.000562301 0.000781421)
(-0.00216631 0.000188998 0.00078142)
(-0.00216622 -0.000190049 0.00078142)
(-0.00210031 -0.000563322 0.00078142)
(-0.00197058 -0.000919477 0.00078142)
(-0.00178098 -0.00124769 0.00078142)
(-0.00153726 -0.001538 0.00078142)
(-0.00124683 -0.00178158 0.000781421)
(-0.000918522 -0.00197102 0.00078142)
(-0.000562301 -0.00210058 0.00078142)
(-0.000188998 -0.00216631 0.00078142)
(0.000190049 -0.00216622 0.00078142)
(0.000563322 -0.00210031 0.00078142)
(0.000919477 -0.00197058 0.00078142)
(0.00124769 -0.00178098 0.00078142)
(0.001538 -0.00153726 0.00078142)
(0.00178158 -0.00124683 0.000781421)
(0.00197102 -0.000918522 0.000781421)
(0.00210058 -0.000562301 0.000781421)
(0.00216631 -0.000188998 0.00078142)
(0.00216622 0.000190049 0.00078142)
(0.00210031 0.000563322 0.00078142)
(0.00197058 0.000919477 0.00078142)
(0.00178098 0.00124769 0.00078142)
(0.00153726 0.001538 0.00078142)
(0.00124683 0.00178158 0.000781421)
(0.000918522 0.00197102 0.000781421)
(0.000562301 0.00210058 0.000781421)
(0.000188998 0.00216631 0.00078142)
(-0.000415628 0.00226423 0.000899282)
(-0.000802492 0.00215766 0.000899282)
(-0.00116498 0.00198553 0.000899283)
(-0.00149206 0.00175307 0.000899282)
(-0.00177381 0.00146734 0.000899282)
(-0.00200166 0.00113703 0.000899282)
(-0.0021687 0.000772173 0.000899282)
(-0.00226983 0.000383852 0.000899282)
(-0.00230201 -1.61342e-05 0.000899283)
(-0.00226423 -0.000415629 0.000899282)
(-0.00215766 -0.000802492 0.000899282)
(-0.00198553 -0.00116498 0.000899283)
(-0.00175307 -0.00149206 0.000899282)
(-0.00146734 -0.00177381 0.000899282)
(-0.00113703 -0.00200166 0.000899282)
(-0.000772173 -0.0021687 0.000899282)
(-0.000383852 -0.00226983 0.000899282)
(1.61343e-05 -0.00230201 0.000899283)
(0.000415629 -0.00226423 0.000899282)
(0.000802492 -0.00215766 0.000899282)
(0.00116498 -0.00198553 0.000899283)
(0.00149206 -0.00175307 0.000899282)
(0.00177381 -0.00146734 0.000899282)
(0.00200166 -0.00113703 0.000899282)
(0.0021687 -0.000772173 0.000899282)
(0.00226983 -0.000383852 0.000899282)
(0.00230201 1.61343e-05 0.000899283)
(0.00226423 0.000415629 0.000899282)
(0.00215766 0.000802492 0.000899282)
(0.00198553 0.00116498 0.000899283)
(0.00175307 0.00149206 0.000899282)
(0.00146734 0.00177381 0.000899282)
(0.00113703 0.00200166 0.000899282)
(0.000772173 0.0021687 0.000899282)
(0.000383853 0.00226983 0.000899282)
(-1.61342e-05 0.00230201 0.000899283)
(3.37267e-05 0.00253454 0.000781009)
(-0.000406908 0.00250189 0.00078101)
(-0.000835174 0.00239323 0.000781011)
(-0.00123806 0.00221184 0.000781011)
(-0.00160333 0.00196325 0.000781012)
(-0.00191989 0.00165501 0.000781013)
(-0.00217811 0.00129648 0.000781013)
(-0.00237015 0.000898555 0.000781012)
(-0.00249018 0.000473331 0.000781011)
(-0.00253454 3.37266e-05 0.000781009)
(-0.00250189 -0.000406908 0.00078101)
(-0.00239323 -0.000835174 0.00078101)
(-0.00221184 -0.00123806 0.000781011)
(-0.00196325 -0.00160334 0.000781012)
(-0.00165501 -0.00191989 0.000781013)
(-0.00129648 -0.00217811 0.000781013)
(-0.000898555 -0.00237015 0.000781012)
(-0.000473331 -0.00249018 0.000781011)
(-3.37265e-05 -0.00253454 0.000781009)
(0.000406908 -0.00250189 0.00078101)
(0.000835174 -0.00239323 0.000781011)
(0.00123806 -0.00221184 0.000781011)
(0.00160334 -0.00196325 0.000781012)
(0.00191989 -0.00165501 0.000781013)
(0.00217811 -0.00129648 0.000781014)
(0.00237015 -0.000898555 0.000781012)
(0.00249018 -0.000473331 0.000781012)
(0.00253454 -3.37266e-05 0.000781009)
(0.00250189 0.000406908 0.00078101)
(0.00239323 0.000835174 0.000781011)
(0.00221184 0.00123806 0.000781011)
(0.00196325 0.00160334 0.000781012)
(0.00165501 0.00191989 0.000781013)
(0.00129648 0.00217811 0.000781014)
(0.000898555 0.00237015 0.000781012)
(0.000473331 0.00249018 0.000781012)
(-0.000149352 0.00264794 0.000934803)
(-0.000606893 0.00258178 0.000934803)
(-0.00104599 0.00243717 0.000934804)
(-0.00145331 0.00221851 0.000934804)
(-0.00181647 0.00193244 0.000934805)
(-0.00212444 0.00158765 0.000934806)
(-0.00236786 0.00119463 0.000934805)
(-0.00253933 0.000765305 0.000934805)
(-0.00263365 0.000312728 0.000934803)
(-0.00264794 -0.000149352 0.000934803)
(-0.00258178 -0.000606893 0.000934803)
(-0.00243717 -0.00104599 0.000934804)
(-0.00221851 -0.00145331 0.000934804)
(-0.00193244 -0.00181647 0.000934804)
(-0.00158765 -0.00212444 0.000934806)
(-0.00119463 -0.00236786 0.000934805)
(-0.000765304 -0.00253933 0.000934805)
(-0.000312728 -0.00263365 0.000934803)
(0.000149352 -0.00264794 0.000934803)
(0.000606893 -0.00258178 0.000934803)
(0.00104599 -0.00243717 0.000934804)
(0.00145331 -0.00221851 0.000934804)
(0.00181647 -0.00193244 0.000934805)
(0.00212444 -0.00158765 0.000934806)
(0.00236786 -0.00119463 0.000934805)
(0.00253933 -0.000765305 0.000934805)
(0.00263365 -0.000312728 0.000934804)
(0.00264794 0.000149352 0.000934803)
(0.00258178 0.000606893 0.000934803)
(0.00243717 0.00104599 0.000934804)
(0.00221851 0.00145331 0.000934804)
(0.00193244 0.00181647 0.000934805)
(0.00158765 0.00212444 0.000934806)
(0.00119463 0.00236786 0.000934805)
(0.000765305 0.00253933 0.000934805)
(0.000312728 0.00263365 0.000934804)
(-0.00035427 0.00275175 0.00107597)
(-0.000826723 0.00264842 0.00107597)
(-0.00127406 0.00246463 0.00107597)
(-0.00168268 0.00220595 0.00107597)
(-0.00204017 0.00188024 0.00107597)
(-0.00233568 0.0014974 0.00107597)
(-0.00256022 0.00106907 0.00107597)
(-0.00270696 0.000608249 0.00107597)
(-0.00277146 0.000128948 0.00107597)
(-0.00275175 -0.00035427 0.00107597)
(-0.00264842 -0.000826723 0.00107597)
(-0.00246463 -0.00127406 0.00107597)
(-0.00220595 -0.00168268 0.00107597)
(-0.00188024 -0.00204017 0.00107597)
(-0.0014974 -0.00233568 0.00107597)
(-0.00106907 -0.00256022 0.00107597)
(-0.000608249 -0.00270696 0.00107597)
(-0.000128947 -0.00277146 0.00107597)
(0.00035427 -0.00275175 0.00107597)
(0.000826723 -0.00264842 0.00107597)
(0.00127406 -0.00246463 0.00107597)
(0.00168268 -0.00220595 0.00107597)
(0.00204017 -0.00188024 0.00107597)
(0.00233568 -0.0014974 0.00107597)
(0.00256022 -0.00106907 0.00107597)
(0.00270696 -0.000608249 0.00107597)
(0.00277146 -0.000128948 0.00107597)
(0.00275175 0.00035427 0.00107597)
(0.00264842 0.000826723 0.00107597)
(0.00246463 0.00127406 0.00107597)
(0.00220595 0.00168268 0.00107597)
(0.00188024 0.00204017 0.00107597)
(0.0014974 0.00233568 0.00107597)
(0.00106907 0.00256022 0.00107597)
(0.00060825 0.00270696 0.00107597)
(0.000128948 0.00277146 0.00107597)
(-0.000572945 0.00282986 0.00119921)
(-0.00105564 0.00268737 0.00119921)
(-0.00150626 0.00246324 0.00119921)
(-0.00191111 0.00216425 0.00119921)
(-0.0022579 0.00179952 0.00119921)
(-0.00253608 0.0013801 0.00119921)
(-0.0027372 0.000918743 0.00119921)
(-0.00285515 0.000429477 0.00119921)
(-0.00288636 -7.28415e-05 0.00119921)
(-0.00282986 -0.000572945 0.00119921)
(-0.00268737 -0.00105564 0.00119921)
(-0.00246324 -0.00150626 0.00119921)
(-0.00216425 -0.00191111 0.00119921)
(-0.00179952 -0.0022579 0.00119921)
(-0.0013801 -0.00253608 0.00119921)
(-0.000918743 -0.0027372 0.00119921)
(-0.000429476 -0.00285515 0.00119921)
(7.28416e-05 -0.00288636 0.00119921)
(0.000572945 -0.00282986 0.00119921)
(0.00105564 -0.00268737 0.00119921)
(0.00150626 -0.00246324 0.00119921)
(0.00191111 -0.00216425 0.00119921)
(0.0022579 -0.00179952 0.00119921)
(0.00253608 -0.0013801 0.00119921)
(0.0027372 -0.000918743 0.00119921)
(0.00285515 -0.000429477 0.00119921)
(0.00288636 7.28416e-05 0.00119921)
(0.00282986 0.000572945 0.00119921)
(0.00268737 0.00105564 0.00119921)
(0.00246324 0.00150626 0.00119921)
(0.00216425 0.00191111 0.00119921)
(0.00179952 0.0022579 0.00119921)
(0.0013801 0.00253608 0.00119921)
(0.000918743 0.0027372 0.00119921)
(0.000429477 0.00285515 0.00119921)
(-7.28415e-05 0.00288636 0.00119921)
(-0.000211668 0.00309915 0.00106459)
(-0.000746616 0.00301531 0.00106459)
(-0.00125887 0.00283986 0.00106459)
(-0.00173289 0.00257811 0.00106459)
(-0.00215424 0.00223803 0.00106459)
(-0.00251014 0.00182995 0.00106459)
(-0.00278978 0.00136626 0.00106459)
(-0.00298464 0.000861068 0.00106459)
(-0.00308882 0.000329709 0.00106459)
(-0.00309915 -0.000211668 0.00106459)
(-0.00301531 -0.000746616 0.00106459)
(-0.00283986 -0.00125887 0.00106459)
(-0.00257811 -0.00173289 0.00106459)
(-0.00223803 -0.00215424 0.00106459)
(-0.00182995 -0.00251014 0.00106459)
(-0.00136626 -0.00278978 0.00106459)
(-0.000861068 -0.00298464 0.00106459)
(-0.000329709 -0.00308882 0.00106459)
(0.000211669 -0.00309915 0.00106459)
(0.000746616 -0.00301531 0.00106459)
(0.00125887 -0.00283986 0.00106459)
(0.00173289 -0.00257811 0.00106459)
(0.00215424 -0.00223803 0.00106459)
(0.00251015 -0.00182995 0.00106459)
(0.00278978 -0.00136626 0.00106459)
(0.00298464 -0.000861068 0.00106459)
(0.00308882 -0.000329709 0.00106459)
(0.00309915 0.000211668 0.00106459)
(0.00301531 0.000746616 0.00106459)
(0.00283986 0.00125887 0.00106459)
(0.00257811 0.00173289 0.00106459)
(0.00223803 0.00215424 0.00106459)
(0.00182995 0.00251015 0.00106459)
(0.00136626 0.00278978 0.00106459)
(0.000861068 0.00298464 0.00106459)
(0.000329709 0.00308882 0.00106459)
(-0.000380096 0.00317498 0.00121316)
(-0.00092565 0.00306074 0.00121316)
(-0.00144308 0.00285351 0.00121316)
(-0.00191666 0.00255957 0.00121316)
(-0.00233201 0.00218786 0.00121316)
(-0.00267649 0.00174967 0.00121316)
(-0.00293966 0.00125832 0.00121316)
(-0.00311351 0.000728736 0.00121316)
(-0.00319275 0.000177009 0.00121316)
(-0.00317498 -0.000380096 0.00121316)
(-0.00306074 -0.00092565 0.00121316)
(-0.00285351 -0.00144308 0.00121316)
(-0.00255957 -0.00191666 0.00121316)
(-0.00218786 -0.00233201 0.00121316)
(-0.00174967 -0.00267649 0.00121316)
(-0.00125832 -0.00293966 0.00121316)
(-0.000728736 -0.00311351 0.00121316)
(-0.000177009 -0.00319275 0.00121316)
(0.000380096 -0.00317498 0.00121316)
(0.00092565 -0.00306074 0.00121316)
(0.00144308 -0.00285351 0.00121316)
(0.00191666 -0.00255957 0.00121316)
(0.00233201 -0.00218786 0.00121316)
(0.00267649 -0.00174967 0.00121316)
(0.00293966 -0.00125832 0.00121316)
(0.00311351 -0.000728736 0.00121316)
(0.00319275 -0.000177009 0.00121316)
(0.00317498 0.000380096 0.00121316)
(0.00306074 0.00092565 0.00121316)
(0.00285351 0.00144308 0.00121316)
(0.00255957 0.00191666 0.00121316)
(0.00218786 0.00233201 0.00121316)
(0.00174967 0.00267649 0.00121316)
(0.00125832 0.00293966 0.00121316)
(0.000728736 0.00311351 0.00121316)
(0.000177009 0.00319275 0.00121316)
(-0.000566373 0.00324281 0.00134918)
(-0.00112087 0.00309519 0.00134918)
(-0.00164132 0.00285353 0.00134918)
(-0.00211189 0.00252517 0.00134918)
(-0.0025183 0.00212008 0.00134918)
(-0.00284819 0.00165057 0.00134918)
(-0.00309154 0.00113091 0.00134918)
(-0.00324095 0.000576891 0.00134918)
(-0.00329189 5.33986e-06 0.00134918)
(-0.00324281 -0.000566373 0.00134918)
(-0.00309519 -0.00112087 0.00134918)
(-0.00285353 -0.00164132 0.00134918)
(-0.00252517 -0.00211189 0.00134918)
(-0.00212008 -0.0025183 0.00134918)
(-0.00165057 -0.00284819 0.00134918)
(-0.00113091 -0.00309154 0.00134918)
(-0.000576891 -0.00324095 0.00134918)
(-5.3397e-06 -0.00329189 0.00134918)
(0.000566373 -0.00324281 0.00134918)
(0.00112087 -0.00309519 0.00134918)
(0.00164132 -0.00285353 0.00134918)
(0.00211189 -0.00252517 0.00134918)
(0.0025183 -0.00212008 0.00134918)
(0.00284819 -0.00165057 0.00134918)
(0.00309154 -0.00113091 0.00134918)
(0.00324095 -0.000576891 0.00134918)
(0.00329189 -5.33981e-06 0.00134918)
(0.00324281 0.000566373 0.00134918)
(0.00309519 0.00112087 0.00134918)
(0.00285353 0.00164132 0.00134918)
(0.00252517 0.00211189 0.00134918)
(0.00212008 0.0025183 0.00134918)
(0.00165057 0.00284819 0.00134918)
(0.00113091 0.00309154 0.00134918)
(0.000576891 0.00324095 0.00134918)
(5.34e-06 0.00329189 0.00134918)
(-0.000764172 0.00328659 0.00146788)
(-0.00132327 0.00310396 0.00146788)
(-0.00184217 0.00282702 0.00146788)
(-0.00230509 0.00246418 0.00146788)
(-0.00269797 0.00202647 0.00146788)
(-0.00300887 0.00152719 0.00146788)
(-0.00322835 0.000981504 0.00146788)
(-0.00334975 0.000405992 0.00146788)
(-0.00336936 -0.000181853 0.00146788)
(-0.00328659 -0.000764172 0.00146788)
(-0.00310396 -0.00132327 0.00146788)
(-0.00282702 -0.00184217 0.00146788)
(-0.00246418 -0.00230509 0.00146788)
(-0.00202647 -0.00269797 0.00146788)
(-0.00152719 -0.00300887 0.00146788)
(-0.000981504 -0.00322835 0.00146788)
(-0.000405992 -0.00334975 0.00146788)
(0.000181854 -0.00336936 0.00146788)
(0.000764172 -0.00328659 0.00146788)
(0.00132327 -0.00310396 0.00146788)
(0.00184217 -0.00282702 0.00146788)
(0.00230509 -0.00246418 0.00146788)
(0.00269797 -0.00202647 0.00146788)
(0.00300887 -0.00152719 0.00146788)
(0.00322835 -0.000981504 0.00146788)
(0.00334975 -0.000405992 0.00146788)
(0.00336936 0.000181853 0.00146788)
(0.00328659 0.000764172 0.00146788)
(0.00310396 0.00132327 0.00146788)
(0.00282702 0.00184217 0.00146788)
(0.00246418 0.00230509 0.00146788)
(0.00202647 0.00269797 0.00146788)
(0.00152719 0.00300887 0.00146788)
(0.000981504 0.00322835 0.00146788)
(0.000405992 0.00334975 0.00146788)
(-0.000181853 0.00336936 0.00146788)
(-0.000491604 0.00357069 0.00134024)
(-0.00110418 0.00343107 0.00134024)
(-0.0016832 0.00318721 0.00134024)
(-0.00221108 0.0028465 0.00134024)
(-0.00267178 0.00241931 0.00134024)
(-0.0030513 0.0019186 0.00134024)
(-0.0033381 0.0013596 0.00134024)
(-0.00352348 0.000759289 0.00134024)
(-0.00360181 0.000135906 0.00134024)
(-0.00357069 -0.000491604 0.00134024)
(-0.00343107 -0.00110418 0.00134024)
(-0.00318721 -0.0016832 0.00134024)
(-0.0028465 -0.00221108 0.00134024)
(-0.00241931 -0.00267178 0.00134024)
(-0.0019186 -0.0030513 0.00134024)
(-0.0013596 -0.0033381 0.00134024)
(-0.000759289 -0.00352348 0.00134024)
(-0.000135906 -0.00360181 0.00134024)
(0.000491605 -0.00357069 0.00134024)
(0.00110418 -0.00343107 0.00134024)
(0.0016832 -0.00318721 0.00134024)
(0.00221108 -0.0028465 0.00134024)
(0.00267178 -0.00241931 0.00134024)
(0.0030513 -0.0019186 0.00134024)
(0.00333811 -0.0013596 0.00134024)
(0.00352349 -0.000759289 0.00134024)
(0.00360181 -0.000135906 0.00134024)
(0.00357069 0.000491604 0.00134024)
(0.00343107 0.00110418 0.00134024)