/*--------------------------------*- C++ -*----------------------------------*\
| =========                 |                                                 |
| \\      /  F ield         | OpenFOAM: The Open Source CFD Toolbox           |
|  \\    /   O peration     | Version:  2312                                  |
|   \\  /    A nd           | Website:  www.openfoam.com                      |
|    \\/     M anipulation  |                                                 |
\*---------------------------------------------------------------------------*/
FoamFile
{
    version     2.0;
    format      ascii;
    arch        "LSB;label=32;scalar=64";
    class       volVectorField;
    location    "0";
    object      f1;
}
// * * * * * * * * * * * * * * * * * * * * * * * * * * * * * * * * * * * * * //

dimensions      [0 0 0 0 0 0 0];

internalField   nonuniform List<vector> 
1620
(
(0.662354 -0.74918 -0.0041672)
(0.662377 -0.748475 0.0322797)
(0.662419 -0.746064 0.0677451)
(0.662478 -0.742226 0.101111)
(0.662543 -0.73742 0.131334)
(0.662608 -0.732222 0.157486)
(0.662662 -0.727266 0.178784)
(0.662705 -0.723153 0.194609)
(0.662727 -0.720392 0.204521)
(0.662727 -0.71932 0.208259)
(0.662705 -0.720065 0.205739)
(0.662662 -0.722531 0.19705)
(0.662608 -0.726406 0.182443)
(0.662543 -0.731221 0.162334)
(0.662478 -0.736392 0.137292)
(0.662419 -0.741303 0.108037)
(0.662377 -0.745364 0.0754289)
(0.662354 -0.748099 0.0404476)
(0.662354 -0.74918 0.0041672)
(0.662377 -0.748475 -0.0322797)
(0.662419 -0.746064 -0.0677451)
(0.662478 -0.742226 -0.101111)
(0.662543 -0.73742 -0.131334)
(0.662608 -0.732222 -0.157486)
(0.662662 -0.727266 -0.178784)
(0.662705 -0.723153 -0.194609)
(0.662727 -0.720392 -0.204521)
(0.662727 -0.71932 -0.208259)
(0.662705 -0.720065 -0.205739)
(0.662662 -0.722531 -0.19705)
(0.662608 -0.726406 -0.182443)
(0.662543 -0.731221 -0.162334)
(0.662478 -0.736392 -0.137292)
(0.662419 -0.741303 -0.108037)
(0.662377 -0.745364 -0.0754289)
(0.662354 -0.748099 -0.0404476)
(0.0926848 -0.995474 0.0209956)
(0.092687 -0.993395 0.0676361)
(0.0926908 -0.989355 0.112182)
(0.0926993 -0.983828 0.153259)
(0.092708 -0.977471 0.189618)
(0.0927123 -0.971046 0.220168)
(0.0927153 -0.965332 0.244005)
(0.0927201 -0.961028 0.260439)
(0.0927223 -0.958667 0.268998)
(0.0927223 -0.958542 0.269443)
(0.0927201 -0.960668 0.261763)
(0.0927153 -0.96478 0.246178)
(0.0927123 -0.970369 0.223135)
(0.092708 -0.976749 0.193303)
(0.0926993 -0.983149 0.157558)
(0.0926908 -0.988801 0.116967)
(0.092687 -0.993033 0.07276)
(0.0926848 -0.995348 0.0262928)
(0.0926848 -0.995474 -0.0209956)
(0.092687 -0.993395 -0.0676361)
(0.0926908 -0.989355 -0.112182)
(0.0926993 -0.983828 -0.153259)
(0.092708 -0.977471 -0.189618)
(0.0927123 -0.971046 -0.220168)
(0.0927153 -0.965332 -0.244005)
(0.0927201 -0.961028 -0.260439)
(0.0927223 -0.958667 -0.268998)
(0.0927223 -0.958542 -0.269443)
(0.0927201 -0.960668 -0.261763)
(0.0927153 -0.96478 -0.246178)
(0.0927123 -0.970369 -0.223135)
(0.092708 -0.976749 -0.193303)
(0.0926993 -0.983149 -0.157558)
(0.0926908 -0.988801 -0.116967)
(0.092687 -0.993033 -0.07276)
(0.0926848 -0.995348 -0.0262928)
(-0.58456 -0.810687 0.0328151)
(-0.584569 -0.808323 0.0699489)
(-0.584588 -0.80452 0.104905)
(-0.584612 -0.799726 0.136626)
(-0.584638 -0.794512 0.164164)
(-0.584668 -0.789496 0.186707)
(-0.584693 -0.785291 0.203598)
(-0.58471 -0.782413 0.214345)
(-0.58472 -0.781219 0.218632)
(-0.58472 -0.781861 0.216324)
(-0.58471 -0.784263 0.207474)
(-0.584693 -0.788128 0.192325)
(-0.584668 -0.792979 0.171313)
(-0.584638 -0.798222 0.145054)
(-0.584612 -0.803216 0.114335)
(-0.584588 -0.807367 0.0800937)
(-0.584569 -0.810183 0.043388)
(-0.58456 -0.811333 0.00535764)
(-0.58456 -0.810687 -0.0328151)
(-0.584569 -0.808323 -0.0699489)
(-0.584588 -0.80452 -0.104905)
(-0.584612 -0.799726 -0.136626)
(-0.584638 -0.794512 -0.164164)
(-0.584668 -0.789496 -0.186707)
(-0.584693 -0.785291 -0.203598)
(-0.58471 -0.782413 -0.214345)
(-0.58472 -0.781219 -0.218632)
(-0.58472 -0.781861 -0.216324)
(-0.58471 -0.784263 -0.207474)
(-0.584693 -0.788128 -0.192325)
(-0.584668 -0.792979 -0.171313)
(-0.584638 -0.798222 -0.145054)
(-0.584612 -0.803216 -0.114335)
(-0.584588 -0.807367 -0.0800937)
(-0.584569 -0.810183 -0.043388)
(-0.58456 -0.811333 -0.00535764)
(0.700606 -0.713518 -0.00664448)
(0.700633 -0.712955 0.0284523)
(0.700678 -0.710718 0.0626886)
(0.700744 -0.707062 0.0949806)
(0.700815 -0.702427 0.124316)
(0.700886 -0.697367 0.14979)
(0.700946 -0.692501 0.170639)
(0.700993 -0.688416 0.186255)
(0.701016 -0.685623 0.196209)
(0.701016 -0.684457 0.200239)
(0.700993 -0.685057 0.198256)
(0.700946 -0.687348 0.190334)
(0.700886 -0.691038 0.176703)
(0.700815 -0.695682 0.157751)
(0.700744 -0.700714 0.134009)
(0.700678 -0.705536 0.106157)
(0.700633 -0.709569 0.0750075)
(0.700606 -0.712341 0.0414941)
(0.700606 -0.713518 0.00664448)
(0.700633 -0.712955 -0.0284523)
(0.700678 -0.710718 -0.0626886)
(0.700744 -0.707062 -0.0949806)
(0.700815 -0.702427 -0.124316)
(0.700886 -0.697367 -0.14979)
(0.700946 -0.692501 -0.170639)
(0.700993 -0.688416 -0.186255)
(0.701016 -0.685623 -0.196209)
(0.701016 -0.684457 -0.200239)
(0.700993 -0.685057 -0.198256)
(0.700946 -0.687348 -0.190334)
(0.700886 -0.691038 -0.176703)
(0.700815 -0.695682 -0.157751)
(0.700744 -0.700714 -0.134009)
(0.700678 -0.705536 -0.106157)
(0.700633 -0.709569 -0.0750075)
(0.700606 -0.712341 -0.0414941)
(0.122427 -0.99227 0.0203054)
(0.122433 -0.990183 0.0674305)
(0.122438 -0.986083 0.112467)
(0.122447 -0.98045 0.154025)
(0.122456 -0.973954 0.190838)
(0.122465 -0.967371 0.2218)
(0.122471 -0.961502 0.245997)
(0.122478 -0.957065 0.262729)
(0.122479 -0.954609 0.271517)
(0.122479 -0.954438 0.272116)
(0.122478 -0.956573 0.264512)
(0.122471 -0.960749 0.248923)
(0.122465 -0.966446 0.225796)
(0.122456 -0.972968 0.195801)
(0.122447 -0.979523 0.159817)
(0.122438 -0.985326 0.118916)
(0.122433 -0.989689 0.0743363)
(0.122427 -0.992098 0.0274452)
(0.122427 -0.99227 -0.0203054)
(0.122433 -0.990183 -0.0674305)
(0.122438 -0.986083 -0.112467)
(0.122447 -0.98045 -0.154025)
(0.122456 -0.973954 -0.190838)
(0.122465 -0.967371 -0.2218)
(0.122471 -0.961502 -0.245997)
(0.122478 -0.957065 -0.262729)
(0.122479 -0.954609 -0.271517)
(0.122479 -0.954438 -0.272116)
(0.122478 -0.956573 -0.264512)
(0.122471 -0.960749 -0.248923)
(0.122465 -0.966446 -0.225796)
(0.122456 -0.972968 -0.195801)
(0.122447 -0.979523 -0.159817)
(0.122438 -0.985326 -0.118916)
(0.122433 -0.989689 -0.0743363)
(0.122427 -0.992098 -0.0274452)
(-0.57569 -0.816986 0.0333941)
(-0.575699 -0.814529 0.0715064)
(-0.575718 -0.810565 0.107391)
(-0.575744 -0.805562 0.139961)
(-0.575771 -0.800113 0.168245)
(-0.575801 -0.794868 0.191409)
(-0.575826 -0.790466 0.208779)
(-0.575844 -0.787445 0.21985)
(-0.575854 -0.786183 0.224296)
(-0.575854 -0.786841 0.221977)
(-0.575844 -0.78934 0.212948)
(-0.575826 -0.79337 0.197455)
(-0.575801 -0.798435 0.175941)
(-0.575771 -0.803913 0.149038)
(-0.575744 -0.809136 0.117551)
(-0.575718 -0.813481 0.0824413)
(-0.575699 -0.816434 0.0447933)
(-0.57569 -0.817648 0.00577686)
(-0.57569 -0.816986 -0.0333941)
(-0.575699 -0.814529 -0.0715064)
(-0.575718 -0.810565 -0.107391)
(-0.575744 -0.805562 -0.139961)
(-0.575771 -0.800113 -0.168245)
(-0.575801 -0.794868 -0.191409)
(-0.575826 -0.790466 -0.208779)
(-0.575844 -0.787445 -0.21985)
(-0.575854 -0.786183 -0.224296)
(-0.575854 -0.786841 -0.221977)
(-0.575844 -0.78934 -0.212948)
(-0.575826 -0.79337 -0.197455)
(-0.575801 -0.798435 -0.175941)
(-0.575771 -0.803913 -0.149038)
(-0.575744 -0.809136 -0.117551)
(-0.575718 -0.813481 -0.0824413)
(-0.575699 -0.816434 -0.0447933)
(-0.57569 -0.817648 -0.00577686)
(0.700771 -0.713355 -0.00669364)
(0.700797 -0.712788 0.0285975)
(0.700844 -0.710525 0.0630236)
(0.700909 -0.706829 0.0954949)
(0.700979 -0.702144 0.124993)
(0.701054 -0.697023 0.150607)
(0.701115 -0.6921 0.171569)
(0.701162 -0.687969 0.187271)
(0.701186 -0.685142 0.197279)
(0.701186 -0.683962 0.201331)
(0.701162 -0.68457 0.199338)
(0.701115 -0.686887 0.191375)
(0.701054 -0.69062 0.177673)
(0.700979 -0.695319 0.158621)
(0.700909 -0.700405 0.134752)
(0.700844 -0.705282 0.10675)
(0.700797 -0.709362 0.0754318)
(0.700771 -0.712165 0.0417351)
(0.700771 -0.713355 0.00669364)
(0.700797 -0.712788 -0.0285975)
(0.700844 -0.710525 -0.0630236)
(0.700909 -0.706829 -0.0954949)
(0.700979 -0.702144 -0.124993)
(0.701054 -0.697023 -0.150607)
(0.701115 -0.6921 -0.171569)
(0.701162 -0.687969 -0.187271)
(0.701186 -0.685142 -0.197279)
(0.701186 -0.683962 -0.201331)
(0.701162 -0.68457 -0.199338)
(0.701115 -0.686887 -0.191375)
(0.701054 -0.69062 -0.177673)
(0.700979 -0.695319 -0.158621)
(0.700909 -0.700405 -0.134752)
(0.700844 -0.705282 -0.10675)
(0.700797 -0.709362 -0.0754318)
(0.700771 -0.712165 -0.0417351)
(0.127751 -0.9916 0.0202389)
(0.127756 -0.9895 0.0675939)
(0.127762 -0.985363 0.112855)
(0.127771 -0.979676 0.154625)
(0.127777 -0.973114 0.19163)
(0.12779 -0.966462 0.222759)
(0.127798 -0.960527 0.247094)
(0.127804 -0.956037 0.263929)
(0.127806 -0.953548 0.272785)
(0.127806 -0.953368 0.273414)
(0.127804 -0.955519 0.265801)
(0.127798 -0.959732 0.250166)
(0.12779 -0.965485 0.226956)
(0.127777 -0.972073 0.196843)
(0.127771 -0.978697 0.160709)
(0.127762 -0.984564 0.119629)
(0.127756 -0.988977 0.0748485)
(0.127751 -0.991418 0.0277395)
(0.127751 -0.9916 -0.0202389)
(0.127756 -0.9895 -0.0675939)
(0.127762 -0.985363 -0.112855)
(0.127771 -0.979676 -0.154625)
(0.127777 -0.973114 -0.19163)
(0.12779 -0.966462 -0.222759)
(0.127798 -0.960527 -0.247094)
(0.127804 -0.956037 -0.263929)
(0.127806 -0.953548 -0.272785)
(0.127806 -0.953368 -0.273414)
(0.127804 -0.955519 -0.265801)
(0.127798 -0.959732 -0.250166)
(0.12779 -0.965485 -0.226956)
(0.127777 -0.972073 -0.196843)
(0.127771 -0.978697 -0.160709)
(0.127762 -0.984564 -0.119629)
(0.127756 -0.988977 -0.0748485)
(0.127751 -0.991418 -0.0277395)
(-0.571992 -0.81957 0.0335993)
(-0.572002 -0.817079 0.0720815)
(-0.572021 -0.813056 0.108317)
(-0.572047 -0.807974 0.141209)
(-0.572075 -0.802438 0.169776)
(-0.572104 -0.797107 0.193177)
(-0.572129 -0.792629 0.210729)
(-0.572148 -0.789555 0.221924)
(-0.572158 -0.788266 0.226432)
(-0.572158 -0.788929 0.224112)
(-0.572148 -0.791463 0.215017)
(-0.572129 -0.795556 0.199396)
(-0.572104 -0.8007 0.177695)
(-0.572075 -0.806266 0.15055)
(-0.572047 -0.811576 0.118775)
(-0.572021 -0.815994 0.0833393)
(-0.572002 -0.818998 0.0453365)
(-0.571992 -0.820237 0.00594834)
(-0.571992 -0.81957 -0.0335993)
(-0.572002 -0.817079 -0.0720815)
(-0.572021 -0.813056 -0.108317)
(-0.572047 -0.807974 -0.141209)
(-0.572075 -0.802438 -0.169776)
(-0.572104 -0.797107 -0.193177)
(-0.572129 -0.792629 -0.210729)
(-0.572148 -0.789555 -0.221924)
(-0.572158 -0.788266 -0.226432)
(-0.572158 -0.788929 -0.224112)
(-0.572148 -0.791463 -0.215017)
(-0.572129 -0.795556 -0.199396)
(-0.572104 -0.8007 -0.177695)
(-0.572075 -0.806266 -0.15055)
(-0.572047 -0.811576 -0.118775)
(-0.572021 -0.815994 -0.0833393)
(-0.572002 -0.818998 -0.0453365)
(-0.571992 -0.820237 -0.00594834)
(0.697552 -0.716505 -0.00645878)
(0.697575 -0.715931 0.0288558)
(0.697621 -0.713665 0.063297)
(0.697685 -0.709973 0.0957752)
(0.697756 -0.705296 0.125272)
(0.697828 -0.700194 0.150878)
(0.697889 -0.69529 0.171825)
(0.697935 -0.691179 0.187504)
(0.697961 -0.688368 0.197482)
(0.697961 -0.687203 0.201499)
(0.697935 -0.687823 0.199465)
(0.697889 -0.690142 0.191456)
(0.697828 -0.693871 0.177705)
(0.697756 -0.698557 0.1586)
(0.697685 -0.703631 0.134681)
(0.697621 -0.708488 0.10663)
(0.697575 -0.712548 0.0752668)
(0.697552 -0.71533 0.0415315)
(0.697552 -0.716505 0.00645878)
(0.697575 -0.715931 -0.0288558)
(0.697621 -0.713665 -0.063297)
(0.697685 -0.709973 -0.0957752)
(0.697756 -0.705296 -0.125272)
(0.697828 -0.700194 -0.150878)
(0.697889 -0.69529 -0.171825)
(0.697935 -0.691179 -0.187504)
(0.697961 -0.688368 -0.197482)
(0.697961 -0.687203 -0.201499)
(0.697935 -0.687823 -0.199465)
(0.697889 -0.690142 -0.191456)
(0.697828 -0.693871 -0.177705)
(0.697756 -0.698557 -0.1586)
(0.697685 -0.703631 -0.134681)
(0.697621 -0.708488 -0.10663)
(0.697575 -0.712548 -0.0752668)
(0.697552 -0.71533 -0.0415315)
(0.129625 -0.99136 0.0200827)
(0.129628 -0.989282 0.0672088)
(0.129634 -0.985187 0.112253)
(0.129643 -0.979556 0.153825)
(0.129653 -0.973057 0.190658)
(0.129662 -0.966468 0.221645)
(0.12967 -0.96059 0.245872)
(0.129676 -0.956142 0.262635)
(0.12968 -0.953674 0.271459)
(0.12968 -0.953492 0.272094)
(0.129676 -0.95562 0.264528)
(0.12967 -0.95979 0.248977)
(0.129662 -0.965486 0.225887)
(0.129653 -0.97201 0.195926)
(0.129643 -0.978571 0.159973)
(0.129634 -0.984383 0.119098)
(0.129628 -0.988757 0.074539)
(0.129625 -0.991177 0.0276615)
(0.129625 -0.99136 -0.0200827)
(0.129628 -0.989282 -0.0672088)
(0.129634 -0.985187 -0.112253)
(0.129643 -0.979556 -0.153825)
(0.129653 -0.973057 -0.190658)
(0.129662 -0.966468 -0.221645)
(0.12967 -0.96059 -0.245872)
(0.129676 -0.956142 -0.262635)
(0.12968 -0.953674 -0.271459)
(0.12968 -0.953492 -0.272094)
(0.129676 -0.95562 -0.264528)
(0.12967 -0.95979 -0.248977)
(0.129662 -0.965486 -0.225887)
(0.129653 -0.97201 -0.195926)
(0.129643 -0.978571 -0.159973)
(0.129634 -0.984383 -0.119098)
(0.129628 -0.988757 -0.074539)
(0.129625 -0.991177 -0.0276615)
(-0.5692 -0.821519 0.0334258)
(-0.569209 -0.819051 0.0718117)
(-0.569228 -0.815061 0.10796)
(-0.569254 -0.81002 0.140777)
(-0.569281 -0.804527 0.169281)
(-0.569311 -0.799235 0.192635)
(-0.569335 -0.79479 0.210156)
(-0.569353 -0.791737 0.221336)
(-0.569364 -0.790455 0.225847)
(-0.569364 -0.791108 0.223546)
(-0.569353 -0.793619 0.214488)
(-0.569335 -0.797677 0.19892)
(-0.569311 -0.80278 0.177286)
(-0.569281 -0.808302 0.150222)
(-0.569254 -0.813572 0.118538)
(-0.569228 -0.817959 0.0832018)
(-0.569209 -0.820944 0.045303)
(-0.5692 -0.822177 0.00601964)
(-0.5692 -0.821519 -0.0334258)
(-0.569209 -0.819051 -0.0718117)
(-0.569228 -0.815061 -0.10796)
(-0.569254 -0.81002 -0.140777)
(-0.569281 -0.804527 -0.169281)
(-0.569311 -0.799235 -0.192635)
(-0.569335 -0.79479 -0.210156)
(-0.569353 -0.791737 -0.221336)
(-0.569364 -0.790455 -0.225847)
(-0.569364 -0.791108 -0.223546)
(-0.569353 -0.793619 -0.214488)
(-0.569335 -0.797677 -0.19892)
(-0.569311 -0.80278 -0.177286)
(-0.569281 -0.808302 -0.150222)
(-0.569254 -0.813572 -0.118538)
(-0.569228 -0.817959 -0.0832018)
(-0.569209 -0.820944 -0.045303)
(-0.5692 -0.822177 -0.00601964)
(0.694544 -0.719424 -0.00617761)
(0.694566 -0.718852 0.0287943)
(0.694612 -0.71663 0.062894)
(0.694672 -0.71302 0.0950449)
(0.694744 -0.708446 0.124238)
(0.69481 -0.703467 0.149577)
(0.694871 -0.69868 0.170298)
(0.694915 -0.694673 0.185801)
(0.69494 -0.691938 0.195655)
(0.69494 -0.690809 0.199601)
(0.694915 -0.691423 0.197553)
(0.694871 -0.693695 0.189583)
(0.69481 -0.697345 0.175925)
(0.694744 -0.701921 0.156965)
(0.694672 -0.706879 0.13324)
(0.694612 -0.711617 0.105428)
(0.694566 -0.715577 0.0743437)
(0.694544 -0.718286 0.0409183)
(0.694544 -0.719424 0.00617761)
(0.694566 -0.718852 -0.0287943)
(0.694612 -0.71663 -0.062894)
(0.694672 -0.71302 -0.0950449)
(0.694744 -0.708446 -0.124238)
(0.69481 -0.703467 -0.149577)
(0.694871 -0.69868 -0.170298)
(0.694915 -0.694673 -0.185801)
(0.69494 -0.691938 -0.195655)
(0.69494 -0.690809 -0.199601)
(0.694915 -0.691423 -0.197553)
(0.694871 -0.693695 -0.189583)
(0.69481 -0.697345 -0.175925)
(0.694744 -0.701921 -0.156965)
(0.694672 -0.706879 -0.13324)
(0.694612 -0.711617 -0.105428)
(0.694566 -0.715577 -0.0743437)
(0.694544 -0.718286 -0.0409183)
(0.132206 -0.991027 0.0196941)
(0.13221 -0.989016 0.0660941)
(0.132215 -0.985048 0.110448)
(0.132223 -0.979591 0.151388)
(0.132235 -0.973291 0.187664)
(0.132242 -0.966905 0.218189)
(0.132251 -0.961206 0.242059)
(0.132258 -0.956893 0.258581)
(0.132261 -0.954498 0.267284)
(0.132261 -0.954318 0.267924)
(0.132258 -0.956376 0.260486)
(0.132251 -0.960414 0.245183)
(0.132242 -0.965932 0.222456)
(0.132235 -0.972255 0.192963)
(0.132223 -0.978616 0.15757)
(0.132215 -0.984252 0.11733)
(0.13221 -0.988496 0.0734625)
(0.132206 -0.990846 0.0273117)
(0.132206 -0.991027 -0.0196941)
(0.13221 -0.989016 -0.0660941)
(0.132215 -0.985048 -0.110448)
(0.132223 -0.979591 -0.151388)
(0.132235 -0.973291 -0.187664)
(0.132242 -0.966905 -0.218189)
(0.132251 -0.961206 -0.242059)
(0.132258 -0.956893 -0.258581)
(0.132261 -0.954498 -0.267284)
(0.132261 -0.954318 -0.267924)
(0.132258 -0.956376 -0.260486)
(0.132251 -0.960414 -0.245183)
(0.132242 -0.965932 -0.222456)
(0.132235 -0.972255 -0.192963)
(0.132223 -0.978616 -0.15757)
(0.132215 -0.984252 -0.11733)
(0.13221 -0.988496 -0.0734625)
(0.132207 -0.990846 -0.0273117)
(-0.56599 -0.823756 0.0328813)
(-0.566 -0.821363 0.0707586)
(-0.566018 -0.817494 0.106433)
(-0.566043 -0.812603 0.138824)
(-0.56607 -0.807272 0.166964)
(-0.566098 -0.802138 0.190024)
(-0.566121 -0.797823 0.207329)
(-0.566139 -0.794857 0.218377)
(-0.566148 -0.793611 0.222843)
(-0.566148 -0.794241 0.220587)
(-0.566139 -0.796672 0.211661)
(-0.566121 -0.800606 0.196311)
(-0.566098 -0.805554 0.174976)
(-0.56607 -0.810911 0.148283)
(-0.566043 -0.816026 0.117033)
(-0.566018 -0.820287 0.0821768)
(-0.566 -0.823187 0.0447911)
(-0.56599 -0.82439 0.00603687)
(-0.56599 -0.823756 -0.0328813)
(-0.566 -0.821363 -0.0707586)
(-0.566018 -0.817494 -0.106433)
(-0.566043 -0.812603 -0.138824)
(-0.56607 -0.807272 -0.166964)
(-0.566098 -0.802138 -0.190024)
(-0.566121 -0.797823 -0.207329)
(-0.566139 -0.794857 -0.218377)
(-0.566148 -0.793611 -0.222843)
(-0.566148 -0.794241 -0.220587)
(-0.566139 -0.796672 -0.211661)
(-0.566121 -0.800606 -0.196311)
(-0.566098 -0.805554 -0.174976)
(-0.56607 -0.810911 -0.148283)
(-0.566043 -0.816026 -0.117033)
(-0.566018 -0.820287 -0.0821768)
(-0.566 -0.823187 -0.0447911)
(-0.56599 -0.82439 -0.00603687)
(0.692222 -0.721661 -0.00588317)
(0.692245 -0.721106 0.0283461)
(0.692289 -0.718977 0.0617165)
(0.692344 -0.715526 0.0931766)
(0.69241 -0.711159 0.121741)
(0.692474 -0.706405 0.146531)
(0.692534 -0.701836 0.166802)
(0.692575 -0.698018 0.181965)
(0.692597 -0.695414 0.191595)
(0.692597 -0.694343 0.19544)
(0.692575 -0.694933 0.19341)
(0.692534 -0.697106 0.185579)
(0.692474 -0.700596 0.172177)
(0.69241 -0.704968 0.153584)
(0.692344 -0.7097 0.130327)
(0.692289 -0.714221 0.103074)
(0.692245 -0.717999 0.0726253)
(0.692222 -0.720582 0.0398938)
(0.692222 -0.721661 0.00588317)
(0.692245 -0.721106 -0.0283461)
(0.692289 -0.718977 -0.0617165)
(0.692344 -0.715526 -0.0931766)
(0.69241 -0.711159 -0.121741)
(0.692474 -0.706405 -0.146531)
(0.692534 -0.701836 -0.166802)
(0.692575 -0.698018 -0.181965)
(0.692597 -0.695414 -0.191595)
(0.692597 -0.694343 -0.19544)
(0.692575 -0.694933 -0.19341)
(0.692534 -0.697106 -0.185579)
(0.692474 -0.700596 -0.172177)
(0.69241 -0.704968 -0.153584)
(0.692344 -0.7097 -0.130327)
(0.692289 -0.714221 -0.103074)
(0.692245 -0.717999 -0.0726253)
(0.692222 -0.720582 -0.0398938)
(0.13654 -0.990452 0.0190409)
(0.136543 -0.988551 0.0642077)
(0.13655 -0.984795 0.107389)
(0.136557 -0.979627 0.147253)
(0.136566 -0.973659 0.182585)
(0.136576 -0.967609 0.212322)
(0.136585 -0.962208 0.235585)
(0.13659 -0.958119 0.251696)
(0.136593 -0.955846 0.260194)
(0.136593 -0.95567 0.260839)
(0.13659 -0.957612 0.253617)
(0.136585 -0.961431 0.238736)
(0.136576 -0.966654 0.216625)
(0.136566 -0.972643 0.187926)
(0.136557 -0.97867 0.153482)
(0.13655 -0.984015 0.114321)
(0.136543 -0.988041 0.0716278)
(0.13654 -0.990274 0.026711)
(0.13654 -0.990452 -0.0190409)
(0.136543 -0.988551 -0.0642077)
(0.13655 -0.984795 -0.107389)
(0.136557 -0.979627 -0.147253)
(0.136566 -0.973659 -0.182585)
(0.136576 -0.967609 -0.212322)
(0.136585 -0.962208 -0.235585)
(0.13659 -0.958119 -0.251696)
(0.136593 -0.955846 -0.260194)
(0.136593 -0.95567 -0.260839)
(0.13659 -0.957612 -0.253617)
(0.136585 -0.961431 -0.238736)
(0.136576 -0.966654 -0.216625)
(0.136566 -0.972643 -0.187926)
(0.136557 -0.97867 -0.153482)
(0.13655 -0.984015 -0.114321)
(0.136543 -0.988041 -0.0716278)
(0.13654 -0.990274 -0.026711)
(-0.561988 -0.826527 0.0319731)
(-0.561998 -0.82426 0.0689461)
(-0.562014 -0.820592 0.103776)
(-0.562037 -0.815953 0.135406)
(-0.562063 -0.810895 0.162892)
(-0.562089 -0.806024 0.185421)
(-0.562111 -0.80193 0.202335)
(-0.562129 -0.799114 0.213139)
(-0.562137 -0.797928 0.217516)
(-0.562137 -0.798521 0.215329)
(-0.562129 -0.800822 0.206629)
(-0.562111 -0.804548 0.191659)
(-0.562089 -0.809239 0.170846)
(-0.562063 -0.81432 0.144805)
(-0.562037 -0.819174 0.114315)
(-0.562014 -0.82322 0.0803067)
(-0.561998 -0.825977 0.0438277)
(-0.561988 -0.827123 0.0060097)
(-0.561988 -0.826527 -0.0319731)
(-0.561998 -0.82426 -0.0689461)
(-0.562014 -0.820592 -0.103776)
(-0.562037 -0.815953 -0.135406)
(-0.562063 -0.810895 -0.162892)
(-0.562089 -0.806024 -0.185421)
(-0.562111 -0.80193 -0.202335)
(-0.562129 -0.799114 -0.213139)
(-0.562137 -0.797928 -0.217516)
(-0.562137 -0.798521 -0.215329)
(-0.562129 -0.800822 -0.206629)
(-0.562111 -0.804548 -0.191659)
(-0.562089 -0.809239 -0.170846)
(-0.562063 -0.81432 -0.144805)
(-0.562037 -0.819174 -0.114315)
(-0.562014 -0.82322 -0.0803067)
(-0.561998 -0.825977 -0.0438277)
(-0.561988 -0.827123 -0.0060097)
(0.690843 -0.722983 -0.00558935)
(0.690865 -0.722462 0.027471)
(0.690905 -0.720476 0.0596987)
(0.690956 -0.717262 0.090081)
(0.691018 -0.713196 0.117668)
(0.691077 -0.708772 0.141613)
(0.691133 -0.704523 0.161194)
(0.691171 -0.700972 0.175842)
(0.691191 -0.698553 0.185145)
(0.691191 -0.697559 0.188854)
(0.691171 -0.69811 0.186882)
(0.691133 -0.700134 0.1793)
(0.691077 -0.703382 0.16633)
(0.691018 -0.707453 0.148342)
(0.690956 -0.711858 0.12585)
(0.690905 -0.716065 0.0995009)
(0.690865 -0.71958 0.0700711)
(0.690843 -0.721982 0.0384442)
(0.690843 -0.722983 0.00558935)
(0.690865 -0.722462 -0.027471)
(0.690905 -0.720476 -0.0596987)
(0.690956 -0.717262 -0.090081)
(0.691018 -0.713196 -0.117668)
(0.691077 -0.708772 -0.141613)
(0.691133 -0.704523 -0.161194)
(0.691171 -0.700972 -0.175842)
(0.691191 -0.698553 -0.185145)
(0.691191 -0.697559 -0.188854)
(0.691171 -0.69811 -0.186882)
(0.691133 -0.700134 -0.1793)
(0.691077 -0.703382 -0.16633)
(0.691018 -0.707453 -0.148342)
(0.690956 -0.711858 -0.12585)
(0.690905 -0.716065 -0.0995009)
(0.690865 -0.71958 -0.0700711)
(0.690843 -0.721982 -0.0384442)
(0.143689 -0.989458 0.0180917)
(0.143693 -0.98771 0.0614974)
(0.1437 -0.984246 0.103004)
(0.143707 -0.979476 0.141333)
(0.143716 -0.973966 0.175315)
(0.143725 -0.968378 0.203929)
(0.143734 -0.963389 0.226325)
(0.143739 -0.959608 0.24185)
(0.143741 -0.957502 0.250057)
(0.143741 -0.95733 0.250713)
(0.143739 -0.959114 0.243804)
(0.143734 -0.96263 0.229529)
(0.143725 -0.967447 0.208301)
(0.143716 -0.972974 0.180739)
(0.143707 -0.978543 0.147655)
(0.1437 -0.983485 0.110036)
(0.143693 -0.987212 0.0690226)
(0.143689 -0.989285 0.0258691)
(0.143689 -0.989458 -0.0180917)
(0.143693 -0.98771 -0.0614974)
(0.1437 -0.984246 -0.103004)
(0.143707 -0.979476 -0.141333)
(0.143716 -0.973966 -0.175315)
(0.143725 -0.968378 -0.203929)
(0.143734 -0.963389 -0.226325)
(0.143739 -0.959608 -0.24185)
(0.143741 -0.957502 -0.250057)
(0.143741 -0.95733 -0.250713)
(0.143739 -0.959114 -0.243804)
(0.143734 -0.96263 -0.229529)
(0.143725 -0.967447 -0.208301)
(0.143716 -0.972974 -0.180739)
(0.143707 -0.978543 -0.147655)
(0.1437 -0.983485 -0.110036)
(0.143693 -0.987212 -0.0690226)
(0.143689 -0.989285 -0.0258691)
(-0.556934 -0.829989 0.0307005)
(-0.556942 -0.827895 0.066374)
(-0.556957 -0.824501 0.0999877)
(-0.556979 -0.820206 0.130523)
(-0.557003 -0.815524 0.157064)
(-0.557026 -0.811013 0.178827)
(-0.557046 -0.807222 0.195172)
(-0.557062 -0.804613 0.205621)
(-0.557071 -0.80351 0.209865)
(-0.557071 -0.804054 0.207773)
(-0.557062 -0.806178 0.199396)
(-0.557046 -0.809622 0.184966)
(-0.557026 -0.813959 0.1649)
(-0.557003 -0.818662 0.13979)
(-0.556979 -0.823158 0.110389)
(-0.556957 -0.826909 0.0775947)
(-0.556942 -0.829468 0.042415)
(-0.556934 -0.830535 0.00593972)
(-0.556934 -0.829989 -0.0307005)
(-0.556942 -0.827895 -0.066374)
(-0.556957 -0.824501 -0.0999877)
(-0.556979 -0.820206 -0.130523)
(-0.557003 -0.815524 -0.157064)
(-0.557026 -0.811013 -0.178827)
(-0.557046 -0.807222 -0.195172)
(-0.557062 -0.804613 -0.205621)
(-0.557071 -0.80351 -0.209865)
(-0.557071 -0.804054 -0.207773)
(-0.557062 -0.806178 -0.199396)
(-0.557046 -0.809622 -0.184966)
(-0.557026 -0.813959 -0.1649)
(-0.557003 -0.818662 -0.13979)
(-0.556979 -0.823158 -0.110389)
(-0.556957 -0.826909 -0.0775947)
(-0.556942 -0.829468 -0.042415)
(-0.556934 -0.830535 -0.00593972)
(0.690654 -0.723166 -0.00530226)
(0.690675 -0.722693 0.0261317)
(0.69071 -0.7209 0.0567736)
(0.690758 -0.717994 0.085663)
(0.690812 -0.714323 0.1119)
(0.690867 -0.710327 0.134679)
(0.690916 -0.706492 0.153314)
(0.690952 -0.703285 0.16726)
(0.690968 -0.701102 0.176123)
(0.690968 -0.700203 0.17966)
(0.690952 -0.700698 0.177788)
(0.690916 -0.702524 0.170573)
(0.690867 -0.705455 0.158227)
(0.690812 -0.709132 0.141104)
(0.690758 -0.713111 0.119696)
(0.69071 -0.716914 0.0946228)
(0.690675 -0.72009 0.066625)
(0.690654 -0.722262 0.0365446)
(0.690654 -0.723166 0.00530226)
(0.690675 -0.722693 -0.0261317)
(0.69071 -0.7209 -0.0567736)
(0.690758 -0.717994 -0.085663)
(0.690812 -0.714323 -0.1119)
(0.690867 -0.710327 -0.134679)
(0.690916 -0.706492 -0.153314)
(0.690952 -0.703285 -0.16726)
(0.690968 -0.701102 -0.176123)
(0.690968 -0.700203 -0.17966)
(0.690952 -0.700698 -0.177788)
(0.690916 -0.702524 -0.170573)
(0.690867 -0.705455 -0.158227)
(0.690812 -0.709132 -0.141104)
(0.690758 -0.713111 -0.119696)
(0.69071 -0.716914 -0.0946228)
(0.690675 -0.72009 -0.066625)
(0.690654 -0.722262 -0.0365446)
(0.155195 -0.987741 0.016805)
(0.1552 -0.986186 0.0578846)
(0.155205 -0.983091 0.0971798)
(0.155213 -0.978821 0.133482)
(0.155221 -0.973887 0.165683)
(0.155231 -0.968879 0.192814)
(0.155238 -0.964404 0.214068)
(0.155245 -0.96101 0.228821)
(0.155246 -0.959112 0.236648)
(0.155246 -0.958945 0.237325)
(0.155245 -0.960528 0.230834)
(0.155238 -0.963666 0.217367)
(0.155231 -0.967973 0.197313)
(0.155221 -0.972921 0.171261)
(0.155213 -0.977913 0.13998)
(0.155205 -0.98235 0.104404)
(0.1552 -0.985702 0.0656118)
(0.155195 -0.987573 0.0247894)
(0.155195 -0.987741 -0.016805)
(0.1552 -0.986186 -0.0578846)
(0.155205 -0.983091 -0.0971798)
(0.155213 -0.978821 -0.133482)
(0.155221 -0.973887 -0.165683)
(0.155231 -0.968879 -0.192814)
(0.155238 -0.964404 -0.214068)
(0.155245 -0.96101 -0.228821)
(0.155246 -0.959112 -0.236648)
(0.155246 -0.958945 -0.237325)
(0.155245 -0.960528 -0.230834)
(0.155238 -0.963666 -0.217367)
(0.155231 -0.967973 -0.197313)
(0.155221 -0.972921 -0.171261)
(0.155213 -0.977913 -0.13998)
(0.155205 -0.98235 -0.104404)
(0.1552 -0.985702 -0.0656118)
(0.155195 -0.987573 -0.0247894)
(-0.550355 -0.834425 0.0290516)
(-0.550362 -0.832544 0.063021)
(-0.550376 -0.82949 0.0950389)
(-0.550395 -0.825624 0.124134)
(-0.550417 -0.821408 0.149435)
(-0.550437 -0.817346 0.170188)
(-0.550456 -0.81393 0.185784)
(-0.550469 -0.811579 0.195764)
(-0.550477 -0.810582 0.199832)
(-0.550477 -0.811064 0.197863)
(-0.550469 -0.81297 0.189905)
(-0.550456 -0.816063 0.176183)
(-0.550437 -0.819963 0.157094)
(-0.550417 -0.824195 0.133204)
(-0.550395 -0.828246 0.10523)
(-0.550376 -0.831629 0.074024)
(-0.550362 -0.833941 0.0405455)
(-0.550355 -0.83491 0.00582903)
(-0.550355 -0.834425 -0.0290516)
(-0.550362 -0.832544 -0.063021)
(-0.550376 -0.82949 -0.0950389)
(-0.550395 -0.825624 -0.124134)
(-0.550417 -0.821408 -0.149435)
(-0.550437 -0.817346 -0.170188)
(-0.550456 -0.81393 -0.185784)
(-0.550469 -0.811579 -0.195764)
(-0.550477 -0.810582 -0.199832)
(-0.550477 -0.811064 -0.197863)
(-0.550469 -0.81297 -0.189905)
(-0.550456 -0.816063 -0.176183)
(-0.550437 -0.819963 -0.157094)
(-0.550417 -0.824195 -0.133204)
(-0.550395 -0.828246 -0.10523)
(-0.550376 -0.831629 -0.074024)
(-0.550362 -0.833941 -0.0405455)
(-0.550355 -0.83491 -0.00582903)
(0.692263 -0.721628 -0.00503787)
(0.692282 -0.721219 0.0242598)
(0.692312 -0.719662 0.0528222)
(0.692356 -0.717135 0.0797568)
(0.692403 -0.713943 0.104228)
(0.692451 -0.710468 0.125485)
(0.692492 -0.707134 0.142887)
(0.692524 -0.704342 0.155922)
(0.692538 -0.702441 0.164219)
(0.692538 -0.701654 0.167548)
(0.692524 -0.702077 0.165825)
(0.692492 -0.703661 0.159112)
(0.692451 -0.706204 0.147607)
(0.692403 -0.7094 0.131642)
(0.692356 -0.712862 0.111679)
(0.692312 -0.716175 0.0882999)
(0.692282 -0.718941 0.0621974)
(0.692263 -0.720836 0.0341576)
(0.692263 -0.721628 0.00503787)
(0.692282 -0.721219 -0.0242598)
(0.692312 -0.719662 -0.0528222)
(0.692356 -0.717135 -0.0797568)
(0.692403 -0.713943 -0.104228)
(0.692451 -0.710468 -0.125485)
(0.692492 -0.707134 -0.142887)
(0.692524 -0.704342 -0.155922)
(0.692538 -0.702441 -0.164219)
(0.692538 -0.701654 -0.167548)
(0.692524 -0.702077 -0.165825)
(0.692492 -0.703661 -0.159112)
(0.692451 -0.706204 -0.147607)
(0.692403 -0.7094 -0.131642)
(0.692356 -0.712862 -0.111679)
(0.692312 -0.716175 -0.0882999)
(0.692282 -0.718941 -0.0621974)
(0.692263 -0.720836 -0.0341576)
(0.172642 -0.984868 0.0151498)
(0.172645 -0.983541 0.0532892)
(0.17265 -0.980882 0.0897892)
(0.17266 -0.977205 0.123528)
(0.172668 -0.972949 0.153478)
(0.172678 -0.968626 0.178734)
(0.172682 -0.96476 0.198544)
(0.172689 -0.96182 0.212324)
(0.172691 -0.960167 0.219673)
(0.172691 -0.960006 0.220379)
(0.172689 -0.961353 0.214426)
(0.172682 -0.964045 0.201987)
(0.172678 -0.967749 0.183426)
(0.172668 -0.972015 0.15929)
(0.17266 -0.976326 0.130294)
(0.17265 -0.980165 0.0973068)
(0.172645 -0.983073 0.0613263)
(0.172642 -0.984705 0.0234524)
(0.172642 -0.984868 -0.0151498)
(0.172645 -0.983541 -0.0532892)
(0.17265 -0.980882 -0.0897892)
(0.17266 -0.977205 -0.123528)
(0.172668 -0.972949 -0.153478)
(0.172678 -0.968626 -0.178734)
(0.172682 -0.96476 -0.198544)
(0.172689 -0.96182 -0.212324)
(0.172691 -0.960167 -0.219673)
(0.172691 -0.960006 -0.220379)
(0.172689 -0.961353 -0.214426)
(0.172682 -0.964045 -0.201987)
(0.172678 -0.967749 -0.183426)
(0.172668 -0.972015 -0.15929)
(0.17266 -0.976326 -0.130294)
(0.17265 -0.980165 -0.0973068)
(0.172645 -0.983073 -0.0613263)
(0.172642 -0.984705 -0.0234524)
(-0.541746 -0.840109 0.0270042)
(-0.541751 -0.838477 0.0588368)
(-0.541764 -0.835821 0.0888522)
(-0.541779 -0.832458 0.11614)
(-0.541796 -0.828789 0.139879)
(-0.541815 -0.825251 0.159363)
(-0.541832 -0.822275 0.174015)
(-0.541843 -0.820225 0.183403)