/*--------------------------------*- C++ -*----------------------------------*\
| =========                 |                                                 |
| \\      /  F ield         | OpenFOAM: The Open Source CFD Toolbox           |
|  \\    /   O peration     | Version:  2312                                  |
|   \\  /    A nd           | Website:  www.openfoam.com                      |
|    \\/     M anipulation  |                                                 |
\*---------------------------------------------------------------------------*/
FoamFile
{
    version     2.0;
    format      ascii;
    arch        "LSB;label=32;scalar=64";
    class       volScalarField;
    location    "0";
    object      u;
}
// * * * * * * * * * * * * * * * * * * * * * * * * * * * * * * * * * * * * * //

dimensions      [0 0 0 0 0 0 0];

internalField   nonuniform List<scalar> 
1620
(
1.47451
1.47745
1.48323
1.49167
1.50251
1.51542
1.53
1.54582
1.56239
1.57921
1.59577
1.61159
1.62617
1.63909
1.64993
1.65837
1.66414
1.66708
1.66708
1.66414
1.65837
1.64993
1.63909
1.62617
1.61159
1.59577
1.57921
1.56239
1.54582
1.53
1.51542
1.50251
1.49167
1.48323
1.47745
1.47451
1.48294
1.48562
1.49089
1.49858
1.50848
1.52026
1.53356
1.548
1.56312
1.57847
1.59359
1.60803
1.62134
1.63312
1.64301
1.65071
1.65598
1.65865
1.65865
1.65598
1.65071
1.64301
1.63312
1.62134
1.60803
1.59359
1.57847
1.56312
1.548
1.53356
1.52026
1.50848
1.49858
1.49089
1.48562
1.48294
1.49148
1.4939
1.49865
1.5056
1.51453
1.52516
1.53718
1.55021
1.56386
1.57773
1.59138
1.60442
1.61643
1.62707
1.63599
1.64294
1.6477
1.65011
1.65011
1.6477
1.64294
1.63599
1.62707
1.61643
1.60442
1.59138
1.57773
1.56386
1.55021
1.53718
1.52516
1.51453
1.5056
1.49865
1.4939
1.49148
1.47314
1.47612
1.48198
1.49054
1.50153
1.51463
1.52942
1.54546
1.56227
1.57933
1.59613
1.61217
1.62696
1.64006
1.65105
1.65962
1.66548
1.66845
1.66845
1.66548
1.65962
1.65105
1.64006
1.62696
1.61217
1.59613
1.57933
1.56227
1.54546
1.52942
1.51463
1.50153
1.49054
1.48198
1.47612
1.47314
1.48148
1.4842
1.48956
1.49738
1.50744
1.51942
1.53295
1.54762
1.56299
1.5786
1.59397
1.60865
1.62218
1.63415
1.64421
1.65204
1.65739
1.66011
1.66011
1.65739
1.65204
1.64421
1.63415
1.62218
1.60865
1.59397
1.5786
1.56299
1.54762
1.53295
1.51942
1.50744
1.49738
1.48956
1.4842
1.48148
1.48992
1.49238
1.49723
1.50432
1.51342
1.52426
1.53652
1.54981
1.56373
1.57786
1.59179
1.60508
1.61733
1.62817
1.63728
1.64436
1.64921
1.65167
1.65167
1.64921
1.64436
1.63728
1.62817
1.61733
1.60508
1.59179
1.57786
1.56373
1.54981
1.53652
1.52426
1.51342
1.50432
1.49723
1.49238
1.48992
1.47258
1.47557
1.48147
1.49008
1.50114
1.51431
1.52919
1.54532
1.56222
1.57938
1.59628
1.61241
1.62728
1.64045
1.65151
1.66012
1.66602
1.66901
1.66901
1.66602
1.66012
1.65151
1.64045
1.62728
1.61241
1.59628
1.57938
1.56222
1.54532
1.52919
1.51431
1.50114
1.49008
1.48147
1.47557
1.47258
1.48094
1.48367
1.48906
1.49694
1.50706
1.5191
1.53272
1.54748
1.56295
1.57865
1.59411
1.60888
1.62249
1.63454
1.64465
1.65253
1.65792
1.66066
1.66066
1.65792
1.65253
1.64465
1.63454
1.62249
1.60888
1.59411
1.57865
1.56295
1.54748
1.53272
1.5191
1.50706
1.49694
1.48906
1.48367
1.48094
1.48935
1.49183
1.49671
1.50385
1.51302
1.52394
1.53628
1.54966
1.56368
1.57791
1.59193
1.60532
1.61766
1.62858
1.63774
1.64488
1.64976
1.65224
1.65224
1.64976
1.64488
1.63774
1.62858
1.61766
1.60532
1.59193
1.57791
1.56368
1.54966
1.53628
1.52394
1.51302
1.50385
1.49671
1.49183
1.48935
1.47297
1.47595
1.48182
1.4904
1.50141
1.51453
1.52935
1.54542
1.56225
1.57934
1.59617
1.61224
1.62706
1.64018
1.65119
1.65977
1.66564
1.66862
1.66862
1.66564
1.65977
1.65119
1.64018
1.62706
1.61224
1.59617
1.57934
1.56225
1.54542
1.52935
1.51453
1.50141
1.4904
1.48182
1.47595
1.47297
1.48133
1.48406
1.48942
1.49726
1.50734
1.51933
1.53288
1.54758
1.56298
1.57861
1.59401
1.60871
1.62226
1.63426
1.64433
1.65217
1.65754
1.66026
1.66026
1.65754
1.65217
1.64433
1.63426
1.62226
1.60871
1.59401
1.57861
1.56298
1.54758
1.53288
1.51933
1.50734
1.49726
1.48942
1.48406
1.48133
1.48971
1.49218
1.49704
1.50415
1.51327
1.52415
1.53643
1.54975
1.56371
1.57788
1.59184
1.60516
1.61745
1.62832
1.63745
1.64455
1.64941
1.65188
1.65188
1.64941
1.64455
1.63745
1.62832
1.61745
1.60516
1.59184
1.57788
1.56371
1.54975
1.53643
1.52415
1.51327
1.50415
1.49704
1.49218
1.48971
1.47433
1.47727
1.48306
1.49151
1.50238
1.51531
1.52992
1.54577
1.56237
1.57922
1.59582
1.61167
1.62628
1.63922
1.65008
1.65854
1.66432
1.66726
1.66726
1.66432
1.65854
1.65008
1.63922
1.62628
1.61167
1.59582
1.57922
1.56237
1.54577
1.52992
1.51531
1.50238
1.49151
1.48306
1.47727
1.47433
1.48265
1.48534
1.49062
1.49835
1.50827
1.52009
1.53344
1.54792
1.56309
1.5785
1.59367
1.60815
1.6215
1.63332
1.64325
1.65097
1.65626
1.65894
1.65894
1.65626
1.65097
1.64325
1.63332
1.6215
1.60815
1.59367
1.5785
1.56309
1.54792
1.53344
1.52009
1.50827
1.49835
1.49062
1.48534
1.48265
1.49096
1.49339
1.49818
1.50517
1.51416
1.52486
1.53696
1.55008
1.56382
1.57777
1.59152
1.60463
1.61673
1.62743
1.63642
1.64341
1.6482
1.65063
1.65063
1.6482
1.64341
1.63642
1.62743
1.61673
1.60463
1.59152
1.57777
1.56382
1.55008
1.53696
1.52486
1.51416
1.50517
1.49818
1.49339
1.49096
1.47667
1.47954
1.48518
1.49343
1.50403
1.51665
1.53091
1.54638
1.56257
1.57902
1.59522
1.61068
1.62494
1.63756
1.64816
1.65641
1.66205
1.66492
1.66492
1.66205
1.65641
1.64816
1.63756
1.62494
1.61068
1.59522
1.57902
1.56257
1.54638
1.53091
1.51665
1.50403
1.49343
1.48518
1.47954
1.47667
1.48489
1.48751
1.49266
1.50019
1.50986
1.52138
1.53439
1.5485
1.56329
1.5783
1.59309
1.6072
1.62022
1.63173
1.6414
1.64893
1.65408
1.6567
1.6567
1.65408
1.64893
1.6414
1.63173
1.62022
1.6072
1.59309
1.5783
1.56329
1.5485
1.53439
1.52138
1.50986
1.50019
1.49266
1.48751
1.48489
1.49308
1.49544
1.5001
1.50691
1.51566
1.52608
1.53785
1.55062
1.564
1.57759
1.59097
1.60374
1.61551
1.62593
1.63468
1.64149
1.64615
1.64851
1.64851
1.64615
1.64149
1.63468
1.62593
1.61551
1.60374
1.59097
1.57759
1.564
1.55062
1.53785
1.52608
1.51566
1.50691
1.5001
1.49544
1.49308
1.48004
1.4828
1.48825
1.4962
1.50642
1.51859
1.53234
1.54725
1.56287
1.57873
1.59435
1.60926
1.623
1.63517
1.64539
1.65335
1.65879
1.66156
1.66156
1.65879
1.65335
1.64539
1.63517
1.623
1.60926
1.59435
1.57873
1.56287
1.54725
1.53234
1.51859
1.50642
1.4962
1.48825
1.4828
1.48004
1.48809
1.4906
1.49556
1.50281
1.51212
1.52321
1.53574
1.54933
1.56357
1.57802
1.59226
1.60585
1.61838
1.62947
1.63878
1.64603
1.65099
1.65351
1.65351
1.65099
1.64603
1.63878
1.62947
1.61838
1.60585
1.59226
1.57802
1.56357
1.54933
1.53574
1.52321
1.51212
1.50281
1.49556
1.4906
1.48809
1.49606
1.49833
1.50281
1.50936
1.51777
1.52779
1.53911
1.5514
1.56426
1.57733
1.5902
1.60248
1.6138
1.62382
1.63223
1.63878
1.64326
1.64553
1.64553
1.64326
1.63878
1.63223
1.62382
1.6138
1.60248
1.5902
1.57733
1.56426
1.5514
1.53911
1.52779
1.51777
1.50936
1.50281
1.49833
1.49606
1.4845
1.48713
1.4923
1.49986
1.50958
1.52115
1.53422
1.5484
1.56326
1.57834
1.59319
1.60737
1.62044
1.63201
1.64173
1.64929
1.65447
1.65709
1.65709
1.65447
1.64929
1.64173
1.63201
1.62044
1.60737
1.59319
1.57834
1.56326
1.5484
1.53422
1.52115
1.50958
1.49986
1.4923
1.48713
1.4845
1.49227
1.49466
1.49937
1.50625
1.51509
1.52562
1.53751
1.55042
1.56393
1.57766
1.59118
1.60408
1.61598
1.6265
1.63534
1.64222
1.64693
1.64932
1.64932
1.64693
1.64222
1.63534
1.6265
1.61598
1.60408
1.59118
1.57766
1.56393
1.55042
1.53751
1.52562
1.51509
1.50625
1.49937
1.49466
1.49227
1.49993
1.50209
1.50633
1.51254
1.52052
1.53002
1.54075
1.5524
1.5646
1.57699
1.58919
1.60084
1.61158
1.62108
1.62905
1.63526
1.63951
1.64166
1.64166
1.63951
1.63526
1.62905
1.62108
1.61158
1.60084
1.58919
1.57699
1.5646
1.5524
1.54075
1.53002
1.52052
1.51254
1.50633
1.50209
1.49993
1.49015
1.4926
1.49744
1.5045
1.51358
1.5244
1.53661
1.54986
1.56375
1.57784
1.59173
1.60498
1.6172
1.62801
1.63709
1.64415
1.64899
1.65144
1.65144
1.64899
1.64415
1.63709
1.62801
1.6172
1.60498
1.59173
1.57784
1.56375
1.54986
1.53661
1.5244
1.51358
1.5045
1.49744
1.4926
1.49015
1.49753
1.49976
1.50415
1.51057
1.51882
1.52864
1.53974
1.55178
1.56439
1.5772
1.58981
1.60185
1.61295
1.62278
1.63102
1.63744
1.64183
1.64406
1.64406
1.64183
1.63744
1.63102
1.62278
1.61295
1.60185
1.58981
1.5772
1.56439
1.55178
1.53974
1.52864
1.51882
1.51057
1.50415
1.49976
1.49753
1.50475
1.50676
1.51071
1.5165
1.52393
1.53278
1.54279
1.55365
1.56502
1.57657
1.58795
1.5988
1.60881
1.61766
1.6251
1.63088
1.63484
1.63685
1.63685
1.63484
1.63088
1.6251
1.61766
1.60881
1.5988
1.58795
1.57657
1.56502
1.55365
1.54279
1.53278
1.52393
1.5165
1.51071
1.50676
1.50475
1.49713
1.49938
1.50379
1.51024
1.51853
1.52841
1.53957
1.55167
1.56436
1.57724
1.58992
1.60202
1.61318
1.62306
1.63135
1.6378
1.64222
1.64446
1.64446
1.64222
1.6378
1.63135
1.62306
1.61318
1.60202
1.58992
1.57724
1.56436
1.55167
1.53957
1.52841
1.51853
1.51024
1.50379
1.49938
1.49713
1.50398
1.50601
1.51001
1.51587
1.52339
1.53234
1.54247
1.55345
1.56495
1.57664
1.58814
1.59913
1.60925
1.61821
1.62573
1.63158
1.63558
1.63762
1.63762
1.63558
1.63158
1.62573
1.61821
1.60925
1.59913
1.58814
1.57664
1.56495
1.55345
1.54247
1.53234
1.52339
1.51587
1.51001
1.50601
1.50398
1.51059
1.51242
1.51603
1.5213
1.52808
1.53615
1.54527
1.55516
1.56553
1.57606
1.58643
1.59632
1.60545
1.61352
1.62029
1.62556
1.62917
1.631
1.631
1.62917
1.62556
1.62029
1.61352
1.60545
1.59632
1.58643
1.57606
1.56553
1.55516
1.54527
1.53615
1.52808
1.5213
1.51603
1.51242
1.51059
1.50565
1.50764
1.51154
1.51724
1.52457
1.53331
1.54318
1.55388
1.5651
1.57649
1.58771
1.59842
1.60829
1.61702
1.62435
1.63005
1.63396
1.63594
1.63594
1.63396
1.63005
1.62435
1.61702
1.60829
1.59842
1.58771
1.57649
1.5651
1.55388
1.54318
1.53331
1.52457
1.51724
1.51154
1.50764
1.50565
1.51177
1.51356
1.5171
1.52227
1.52891
1.53682
1.54577
1.55547
1.56563
1.57596
1.58612
1.59583
1.60477
1.61268
1.61933
1.62449
1.62803
1.62983
1.62983
1.62803
1.62449
1.61933
1.61268
1.60477
1.59583
1.58612
1.57596
1.56563
1.55547
1.54577
1.53682
1.52891
1.52227
1.5171
1.51356
1.51177
1.51761
1.51922
1.52241
1.52707
1.53305
1.54018
1.54824
1.55698
1.56615
1.57545
1.58461
1.59335
1.60141
1.60854
1.61453
1.61918
1.62237
1.62399
1.62399
1.62237
1.61918
1.61453
1.60854
1.60141
1.59335
1.58461
1.57545
1.56615
1.55698
1.54824
1.54018
1.53305
1.52707
1.52241
1.51922
1.51761
1.51598
1.51764
1.52093
1.52573
1.53189
1.53924
1.54755
1.55656
1.566
1.57559
1.58503
1.59404
1.60235
1.6097
1.61587
1.62067
1.62395
1.62562
1.62562
1.62395
1.62067
1.61587
1.6097
1.60235
1.59404
1.58503
1.57559
1.566
1.55656
1.54755
1.53924
1.53189
1.52573
1.52093
1.51764
1.51598
1.52112
1.52263
1.52561
1.52996
1.53554
1.5422
1.54973
1.5579
1.56645
1.57514
1.5837
1.59186
1.59939
1.60605
1.61164
1.61598
1.61896
1.62047
1.62047
1.61896
1.61598
1.61164
1.60605
1.59939
1.59186
1.5837
1.57514
1.56645
1.5579
1.54973
1.5422
1.53554
1.52996
1.52561
1.52263
1.52112
1.526
1.52736
1.53004
1.53396
1.539
1.54501
1.5518
1.55916
1.56688
1.57471
1.58243
1.5898
1.59658
1.60259
1.60763
1.61155
1.61423
1.6156
1.6156
1.61423
1.61155
1.60763
1.60259
1.59658
1.5898
1.58243
1.57471
1.56688
1.55916
1.5518
1.54501
1.539
1.53396
1.53004
1.52736
1.526
1.52842
1.5297
1.53224
1.53595
1.54072
1.5464
1.55282
1.55979
1.56709
1.5745
1.5818
1.58877
1.59519
1.60087
1.60564
1.60935
1.61189
1.61318
1.61318
1.61189
1.60935
1.60564
1.60087
1.59519
1.58877
1.5818
1.5745
1.56709
1.55979
1.55282
1.5464
1.54072
1.53595
1.53224
1.5297
1.52842
1.53234
1.5335
1.53581
1.53917
1.5435
1.54866
1.55448
1.56081
1.56743
1.57416
1.58079
1.58711
1.59294
1.59809
1.60242
1.60579
1.60809
1.60926
1.60926
1.60809
1.60579
1.60242
1.59809
1.59294
1.58711
1.58079
1.57416
1.56743
1.56081
1.55448
1.54866
1.5435
1.53917
1.53581
1.5335
1.53234
1.53604
1.5371
1.53918
1.54222
1.54613
1.55079
1.55605
1.56177
1.56776
1.57384
1.57982
1.58554
1.5908
1.59546
1.59937
1.60242
1.6045
1.60555
1.60555
1.6045
1.60242
1.59937
1.59546
1.5908
1.58554
1.57982
1.57384
1.56776
1.56177
1.55605
1.55079
1.54613
1.54222
1.53918
1.5371
1.53604
1.54312
1.54396
1.54562
1.54804
1.55115
1.55486
1.55906
1.56361
1.56838
1.57322
1.57799
1.58254
1.58673
1.59044
1.59356
1.59598
1.59763
1.59848
1.59848
1.59763
1.59598
1.59356
1.59044
1.58673
1.58254
1.57799
1.57322
1.56838
1.56361
1.55906
1.55486
1.55115
1.54804
1.54562
1.54396
1.54312
1.5456
1.54637
1.54787
1.55008
1.55291
1.55629
1.56011
1.56425
1.56859
1.573
1.57734
1.58148
1.5853
1.58868
1.59151
1.59372
1.59523
1.59599
1.59599
1.59523
1.59372
1.59151
1.58868
1.5853
1.58148
1.57734
1.573
1.56859
1.56425
1.56011
1.55629
1.55291
1.55008
1.54787
1.54637
1.5456
1.54796
1.54866
1.55002
1.55202
1.55459
1.55765
1.56111
1.56486
1.5688
1.57279
1.57673
1.58048
1.58394
1.587
1.58957
1.59157
1.59293
1.59363
1.59363
1.59293
1.59157
1.58957
1.587
1.58394
1.58048
1.57673
1.57279
1.5688
1.56486
1.56111
1.55765
1.55459
1.55202
1.55002
1.54866
1.54796
1.54839
1.54907
1.55042
1.55238
1.55491
1.55791
1.5613
1.56498
1.56884
1.57275
1.57661
1.58029
1.58368
1.58669
1.58921
1.59118
1.59252
1.5932
1.5932
1.59252
1.59118
1.58921
1.58669
1.58368
1.58029
1.57661
1.57275
1.56884
1.56498
1.5613
1.55791
1.55491
1.55238
1.55042
1.54907
1.54839
1.5595
1.55985
1.56052
1.56151
1.56278
1.56429
1.56601
1.56786
1.56981
1.57178
1.57373
1.57559
1.5773
1.57881
1.58008
1.58107
1.58175
1.58209
1.58209
1.58175
1.58107
1.58008
1.57881
1.5773
1.57559
1.57373
1.57178
1.56981
1.56786
1.56601
1.56429
1.56278
1.56151
1.56052
1.55985
1.5595
1.56053
1.56085
1.56146
1.56236
1.56351
1.56489
1.56644
1.56813
1.5699
1.57169
1.57346
1.57515
1.5767
1.57808
1.57923
1.58013
1.58075
1.58106
1.58106
1.58075
1.58013
1.57923
1.57808
1.5767
1.57515
1.57346
1.57169
1.5699
1.56813
1.56644
1.56489
1.56351
1.56236
1.56146
1.56085
1.56053
)
;

boundaryField
{
    fixed
    {
        type            calculated;
        value           uniform 0;
    }
    inside
    {
        type            calculated;
        value           uniform 0;
    }
    outside
    {
        type            calculated;
        value           uniform 0;
    }
}


// ************************************************************************* //
