/*--------------------------------*- C++ -*----------------------------------*\
| =========                 |                                                 |
| \\      /  F ield         | OpenFOAM: The Open Source CFD Toolbox           |
|  \\    /   O peration     | Version:  2312                                  |
|   \\  /    A nd           | Website:  www.openfoam.com                      |
|    \\/     M anipulation  |                                                 |
\*---------------------------------------------------------------------------*/
FoamFile
{
    version     2.0;
    format      ascii;
    arch        "LSB;label=32;scalar=64";
    class       volTensorField;
    location    "0.8";
    object      F;
}
// * * * * * * * * * * * * * * * * * * * * * * * * * * * * * * * * * * * * * //

dimensions      [0 0 0 0 0 0 0];

internalField   nonuniform List<tensor> 
1620
(
(0.916042 -0.0268084 0.159089 -0.109122 0.96295 -0.256835 -0.0530021 -0.00463731 1.15762)
(0.940702 -0.0307314 0.201271 -0.113046 0.93829 -0.225308 -0.0513921 -0.0137705 1.15762)
(0.965216 -0.0259839 0.237338 -0.108298 0.913776 -0.186935 -0.0482199 -0.022485 1.15762)
(0.986628 -0.0131378 0.266193 -0.0954517 0.892364 -0.142882 -0.0435825 -0.0305168 1.15762)
(1.00236 0.00625705 0.28696 -0.0760569 0.876637 -0.0944875 -0.0376214 -0.0376216 1.15762)
(1.0105 0.029861 0.299008 -0.0524528 0.868491 -0.043222 -0.0305171 -0.0435828 1.15762)
(1.01008 0.0548273 0.301971 -0.0274863 0.86891 0.00935695 -0.0224853 -0.0482195 1.15762)
(1.00115 0.078145 0.295758 -0.00416854 0.877842 0.0616516 -0.0137702 -0.0513915 1.15762)
(0.984781 0.0970015 0.280559 0.0146878 0.894211 0.112073 -0.00463696 -0.053002 1.15762)
(0.96295 0.109122 0.256835 0.0268084 0.916042 0.159089 0.0046373 -0.0530021 1.15762)
(0.93829 0.113046 0.225308 0.0307314 0.940702 0.201271 0.0137705 -0.0513921 1.15762)
(0.913776 0.108298 0.186935 0.0259839 0.965216 0.237338 0.022485 -0.0482199 1.15762)
(0.892364 0.0954517 0.142882 0.0131378 0.986628 0.266193 0.0305168 -0.0435825 1.15762)
(0.876637 0.0760569 0.0944875 -0.00625705 1.00236 0.28696 0.0376216 -0.0376214 1.15762)
(0.868491 0.0524528 0.043222 -0.029861 1.0105 0.299008 0.0435828 -0.0305171 1.15762)
(0.868909 0.0274863 -0.00935697 -0.0548272 1.01008 0.301971 0.0482195 -0.0224853 1.15762)
(0.877842 0.00416855 -0.0616516 -0.078145 1.00115 0.295758 0.0513915 -0.0137702 1.15762)
(0.894211 -0.0146878 -0.112073 -0.0970015 0.984781 0.280559 0.053002 -0.00463696 1.15762)
(0.916042 -0.0268084 -0.159089 -0.109122 0.96295 0.256835 0.0530021 0.0046373 1.15762)
(0.940702 -0.0307314 -0.201271 -0.113046 0.93829 0.225308 0.0513921 0.0137705 1.15762)
(0.965216 -0.0259839 -0.237338 -0.108298 0.913776 0.186935 0.0482199 0.022485 1.15762)
(0.986628 -0.0131378 -0.266193 -0.0954517 0.892364 0.142882 0.0435825 0.0305168 1.15762)
(1.00236 0.00625705 -0.28696 -0.0760569 0.876637 0.0944875 0.0376214 0.0376216 1.15762)
(1.0105 0.029861 -0.299008 -0.0524528 0.868491 0.043222 0.0305171 0.0435828 1.15762)
(1.01008 0.0548272 -0.301971 -0.0274863 0.86891 -0.00935698 0.0224853 0.0482194 1.15762)
(1.00115 0.078145 -0.295758 -0.00416855 0.877842 -0.0616516 0.0137702 0.0513915 1.15762)
(0.984781 0.0970015 -0.280559 0.0146878 0.894211 -0.112073 0.00463696 0.053002 1.15762)
(0.96295 0.109122 -0.256835 0.0268084 0.916042 -0.159089 -0.0046373 0.0530021 1.15762)
(0.93829 0.113046 -0.225308 0.0307314 0.940702 -0.201271 -0.0137705 0.0513921 1.15762)
(0.913776 0.108298 -0.186935 0.0259839 0.965216 -0.237338 -0.022485 0.0482199 1.15762)
(0.892364 0.0954517 -0.142882 0.0131378 0.986628 -0.266193 -0.0305168 0.0435825 1.15762)
(0.876637 0.0760569 -0.0944875 -0.00625705 1.00236 -0.28696 -0.0376216 0.0376214 1.15762)
(0.868491 0.0524527 -0.043222 -0.029861 1.0105 -0.299008 -0.0435828 0.0305171 1.15762)
(0.86891 0.0274863 0.00935696 -0.0548272 1.01008 -0.301971 -0.0482195 0.0224853 1.15762)
(0.877842 0.00416854 0.0616516 -0.078145 1.00115 -0.295758 -0.0513915 0.0137702 1.15762)
(0.894211 -0.0146878 0.112073 -0.0970015 0.984781 -0.280559 -0.053002 0.00463696 1.15762)
(0.932059 -0.0414696 0.169994 -0.11252 0.96976 -0.313209 -0.0464017 -0.00405968 1.12257)
(0.959529 -0.0432735 0.2218 -0.114324 0.94229 -0.278932 -0.0449921 -0.0120556 1.12257)
(0.98596 -0.0355733 0.266866 -0.106624 0.915859 -0.236179 -0.0422149 -0.0196851 1.12257)
(1.00816 -0.0192976 0.303824 -0.090348 0.893656 -0.186251 -0.0381552 -0.0267165 1.12257)
(1.02346 0.00359086 0.33155 -0.0674597 0.878358 -0.130663 -0.0329364 -0.0329364 1.12257)
(1.03001 0.030331 0.349202 -0.0407195 0.871811 -0.0711043 -0.0267167 -0.0381553 1.12257)
(1.02701 0.0576973 0.356244 -0.0133529 0.874805 -0.00938564 -0.0196851 -0.0422147 1.12257)
(1.01484 0.0823896 0.352462 0.0113393 0.886978 0.0526182 -0.0120554 -0.0449915 1.12257)
(0.994957 0.101429 0.33797 0.030379 0.906862 0.113023 -0.00405956 -0.0464016 1.12257)
(0.96976 0.11252 0.313209 0.0414696 0.932059 0.169994 0.00405968 -0.0464017 1.12257)
(0.94229 0.114324 0.278932 0.0432735 0.959529 0.2218 0.0120556 -0.0449921 1.12257)
(0.915859 0.106624 0.236179 0.0355733 0.98596 0.266866 0.0196851 -0.0422149 1.12257)
(0.893656 0.090348 0.186251 0.0192976 1.00816 0.303824 0.0267165 -0.0381552 1.12257)
(0.878358 0.0674597 0.130663 -0.00359085 1.02346 0.33155 0.0329364 -0.0329364 1.12257)
(0.871811 0.0407195 0.0711042 -0.030331 1.03001 0.349202 0.0381553 -0.0267167 1.12257)
(0.874805 0.0133529 0.00938562 -0.0576973 1.02701 0.356244 0.0422147 -0.0196851 1.12257)
(0.886978 -0.0113393 -0.0526182 -0.0823896 1.01484 0.352462 0.0449915 -0.0120554 1.12257)
(0.906862 -0.030379 -0.113023 -0.101429 0.994957 0.33797 0.0464016 -0.00405956 1.12257)
(0.932059 -0.0414696 -0.169994 -0.11252 0.96976 0.313209 0.0464017 0.00405967 1.12257)
(0.959529 -0.0432735 -0.2218 -0.114324 0.94229 0.278932 0.0449921 0.0120556 1.12257)
(0.98596 -0.0355733 -0.266866 -0.106624 0.915859 0.236179 0.0422149 0.0196851 1.12257)
(1.00816 -0.0192976 -0.303824 -0.090348 0.893656 0.186251 0.0381552 0.0267165 1.12257)
(1.02346 0.00359085 -0.33155 -0.0674597 0.878358 0.130663 0.0329364 0.0329364 1.12257)
(1.03001 0.030331 -0.349202 -0.0407195 0.871811 0.0711042 0.0267167 0.0381553 1.12257)
(1.02701 0.0576973 -0.356244 -0.0133529 0.874805 0.00938561 0.0196851 0.0422147 1.12257)
(1.01484 0.0823896 -0.352462 0.0113393 0.886978 -0.0526183 0.0120554 0.0449915 1.12257)
(0.994957 0.101429 -0.33797 0.030379 0.906862 -0.113023 0.00405956 0.0464016 1.12257)
(0.96976 0.11252 -0.313209 0.0414696 0.932059 -0.169994 -0.00405967 0.0464017 1.12257)
(0.94229 0.114324 -0.278932 0.0432735 0.959529 -0.2218 -0.0120556 0.0449921 1.12257)
(0.915859 0.106624 -0.236179 0.0355733 0.98596 -0.266866 -0.0196851 0.0422149 1.12257)
(0.893656 0.090348 -0.186251 0.0192976 1.00816 -0.303824 -0.0267165 0.0381552 1.12257)
(0.878358 0.0674597 -0.130663 -0.00359086 1.02346 -0.33155 -0.0329364 0.0329364 1.12257)
(0.871811 0.0407195 -0.0711043 -0.030331 1.03001 -0.349203 -0.0381553 0.0267167 1.12257)
(0.874805 0.0133529 -0.00938563 -0.0576973 1.02701 -0.356244 -0.0422147 0.0196851 1.12257)
(0.886978 -0.0113393 0.0526182 -0.0823896 1.01484 -0.352462 -0.0449915 0.0120554 1.12257)
(0.906862 -0.030379 0.113023 -0.101429 0.994957 -0.33797 -0.0464016 0.00405956 1.12257)
(0.95021 -0.0609286 0.186313 -0.114329 0.974389 -0.366686 -0.0388212 -0.00339633 1.08234)
(0.98091 -0.0597787 0.247157 -0.113179 0.943689 -0.328762 -0.0376419 -0.0100861 1.08234)
(1.00937 -0.0481983 0.300491 -0.101599 0.915234 -0.280849 -0.0353183 -0.0164693 1.08234)
(1.03214 -0.027584 0.344694 -0.0809844 0.892455 -0.224403 -0.0319219 -0.0223519 1.08234)
(1.0465 -0.000422165 0.378425 -0.0538225 0.878101 -0.161138 -0.0275557 -0.0275557 1.08234)
(1.0507 0.0300112 0.400657 -0.023389 0.873902 -0.0929772 -0.0223519 -0.031922 1.08234)
(1.04423 0.0600448 0.410716 0.00664478 0.880366 -0.0219912 -0.0164691 -0.0353182 1.08234)
(1.02789 0.086057 0.408295 0.0326568 0.896712 0.0496629 -0.0100859 -0.0376413 1.08234)
(1.00363 0.10491 0.393468 0.0515094 0.920969 0.119808 -0.00339648 -0.0388211 1.08234)
(0.974389 0.114329 0.366686 0.0609286 0.95021 0.186313 0.00339633 -0.0388212 1.08234)
(0.943689 0.113179 0.328762 0.0597787 0.98091 0.247157 0.0100861 -0.0376419 1.08234)
(0.915234 0.101599 0.280849 0.0481983 1.00937 0.300491 0.0164693 -0.0353183 1.08234)
(0.892455 0.0809844 0.224403 0.027584 1.03214 0.344694 0.0223519 -0.0319219 1.08234)
(0.878101 0.0538225 0.161138 0.000422169 1.0465 0.378425 0.0275557 -0.0275557 1.08234)
(0.873902 0.023389 0.0929772 -0.0300112 1.0507 0.400657 0.031922 -0.0223519 1.08234)
(0.880366 -0.00664477 0.0219912 -0.0600448 1.04423 0.410716 0.0353182 -0.0164691 1.08234)
(0.896712 -0.0326568 -0.0496629 -0.086057 1.02789 0.408295 0.0376413 -0.0100859 1.08234)
(0.920969 -0.0515094 -0.119808 -0.10491 1.00363 0.393468 0.0388211 -0.00339648 1.08234)
(0.95021 -0.0609286 -0.186313 -0.114329 0.974389 0.366686 0.0388212 0.00339633 1.08234)
(0.98091 -0.0597787 -0.247157 -0.113179 0.943689 0.328762 0.0376419 0.0100861 1.08234)
(1.00937 -0.0481983 -0.300491 -0.101599 0.915234 0.280849 0.0353183 0.0164693 1.08234)
(1.03214 -0.027584 -0.344694 -0.0809844 0.892455 0.224403 0.0319219 0.0223519 1.08234)
(1.0465 -0.000422171 -0.378425 -0.0538225 0.878101 0.161138 0.0275557 0.0275557 1.08234)
(1.0507 0.0300112 -0.400657 -0.023389 0.873902 0.0929772 0.0223519 0.031922 1.08234)
(1.04423 0.0600448 -0.410716 0.00664477 0.880366 0.0219912 0.0164691 0.0353182 1.08234)
(1.02789 0.086057 -0.408295 0.0326568 0.896712 -0.0496629 0.0100859 0.0376413 1.08234)
(1.00363 0.10491 -0.393468 0.0515094 0.920969 -0.119808 0.00339648 0.0388211 1.08234)
(0.974389 0.114329 -0.366686 0.0609286 0.95021 -0.186313 -0.00339633 0.0388212 1.08234)
(0.943689 0.113179 -0.328762 0.0597787 0.98091 -0.247157 -0.0100861 0.0376419 1.08234)
(0.915234 0.101599 -0.280849 0.0481983 1.00937 -0.300491 -0.0164693 0.0353183 1.08234)
(0.892455 0.0809844 -0.224403 0.027584 1.03214 -0.344694 -0.0223519 0.0319219 1.08234)
(0.878101 0.0538225 -0.161138 0.000422164 1.0465 -0.378425 -0.0275557 0.0275557 1.08234)
(0.873903 0.023389 -0.0929772 -0.0300112 1.0507 -0.400657 -0.031922 0.0223519 1.08234)
(0.880366 -0.00664478 -0.0219912 -0.0600448 1.04423 -0.410716 -0.0353182 0.0164691 1.08234)
(0.896712 -0.0326568 0.0496629 -0.086057 1.02789 -0.408295 -0.0376413 0.0100859 1.08234)
(0.920969 -0.0515094 0.119808 -0.10491 1.00363 -0.393468 -0.0388211 0.00339648 1.08234)
(0.938909 -0.0758643 0.157739 -0.213421 0.919977 -0.2697 -0.12043 -0.0105366 1.17437)
(0.987809 -0.0639038 0.202175 -0.201461 0.871077 -0.238212 -0.116771 -0.0312888 1.17437)
(1.02967 -0.0359402 0.240469 -0.173498 0.829217 -0.199485 -0.109564 -0.0510899 1.17437)
(1.05944 0.00465419 0.271456 -0.132903 0.799446 -0.154698 -0.099027 -0.0693387 1.17437)
(1.07353 0.0529832 0.294195 -0.0845733 0.785355 -0.10521 -0.0854814 -0.0854814 1.17437)
(1.07024 0.103217 0.307995 -0.0343391 0.788642 -0.052525 -0.0693393 -0.0990269 1.17437)
(1.04997 0.149297 0.312437 0.011741 0.808912 0.00175568 -0.0510899 -0.109563 1.17437)
(1.01517 0.185666 0.307385 0.0481093 0.84372 0.0559832 -0.0312882 -0.11677 1.17437)
(0.970019 0.207936 0.292993 0.070379 0.888868 0.10851 -0.010536 -0.12043 1.17437)
(0.919977 0.213421 0.2697 0.0758643 0.938909 0.157739 0.0105366 -0.12043 1.17437)
(0.871077 0.201461 0.238212 0.0639038 0.987809 0.202175 0.0312888 -0.116771 1.17437)
(0.829217 0.173498 0.199485 0.0359402 1.02967 0.240469 0.0510899 -0.109564 1.17437)
(0.799446 0.132903 0.154698 -0.00465418 1.05944 0.271456 0.0693387 -0.0990269 1.17437)
(0.785355 0.0845733 0.10521 -0.0529832 1.07353 0.294195 0.0854814 -0.0854813 1.17437)
(0.788642 0.0343391 0.052525 -0.103217 1.07024 0.307995 0.0990269 -0.0693393 1.17437)
(0.808912 -0.011741 -0.0017557 -0.149297 1.04997 0.312437 0.109563 -0.0510899 1.17437)
(0.84372 -0.0481093 -0.0559832 -0.185666 1.01517 0.307385 0.11677 -0.0312882 1.17437)
(0.888868 -0.070379 -0.10851 -0.207936 0.970019 0.292993 0.12043 -0.010536 1.17437)
(0.938909 -0.0758643 -0.157739 -0.213421 0.919977 0.2697 0.12043 0.0105365 1.17437)
(0.987809 -0.0639038 -0.202175 -0.201461 0.871077 0.238212 0.116771 0.0312888 1.17437)
(1.02967 -0.0359402 -0.240469 -0.173498 0.829217 0.199485 0.109564 0.0510899 1.17437)
(1.05944 0.00465418 -0.271456 -0.132903 0.799446 0.154698 0.0990269 0.0693387 1.17437)
(1.07353 0.0529832 -0.294195 -0.0845733 0.785355 0.10521 0.0854813 0.0854813 1.17437)
(1.07024 0.103217 -0.307995 -0.0343391 0.788642 0.052525 0.0693393 0.0990269 1.17437)
(1.04997 0.149297 -0.312437 0.011741 0.808912 -0.0017557 0.0510899 0.109563 1.17437)
(1.01517 0.185666 -0.307385 0.0481093 0.84372 -0.0559832 0.0312882 0.11677 1.17437)
(0.970019 0.207936 -0.292993 0.070379 0.888868 -0.10851 0.010536 0.12043 1.17437)
(0.919977 0.213421 -0.2697 0.0758643 0.938909 -0.157739 -0.0105365 0.12043 1.17437)
(0.871077 0.201461 -0.238212 0.0639038 0.987809 -0.202175 -0.0312888 0.116771 1.17437)
(0.829217 0.173498 -0.199485 0.0359402 1.02967 -0.240469 -0.0510899 0.109564 1.17437)
(0.799446 0.132903 -0.154698 -0.00465418 1.05944 -0.271456 -0.0693387 0.0990269 1.17437)
(0.785355 0.0845733 -0.10521 -0.0529832 1.07353 -0.294195 -0.0854813 0.0854813 1.17437)
(0.788642 0.0343391 -0.052525 -0.103217 1.07024 -0.307995 -0.0990269 0.0693393 1.17437)
(0.808912 -0.011741 0.00175568 -0.149297 1.04997 -0.312437 -0.109563 0.0510899 1.17437)
(0.84372 -0.0481093 0.0559832 -0.185666 1.01517 -0.307385 -0.11677 0.0312881 1.17437)
(0.888868 -0.070379 0.10851 -0.207936 0.970019 -0.292994 -0.12043 0.010536 1.17437)
(0.961659 -0.108574 0.17235 -0.214278 0.920713 -0.318299 -0.119331 -0.0104402 1.14276)
(1.01563 -0.0918368 0.225003 -0.197541 0.866737 -0.283535 -0.115705 -0.0310032 1.14276)
(1.06063 -0.0576482 0.27082 -0.163353 0.821741 -0.240156 -0.108564 -0.0506239 1.14276)
(1.09122 -0.0101321 0.308408 -0.115836 0.791151 -0.189481 -0.098123 -0.0687061 1.14276)
(1.10371 0.0449814 0.336626 -0.0607216 0.778658 -0.133047 -0.0847013 -0.0847011 1.14276)
(1.0966 0.101044 0.354615 -0.00465873 0.785768 -0.0725714 -0.0687063 -0.0981229 1.14276)
(1.07075 0.151294 0.36183 0.0455911 0.811624 -0.00989057 -0.0506236 -0.108563 1.14276)
(1.02927 0.189671 0.35805 0.0839672 0.853107 0.053091 -0.0310027 -0.115704 1.14276)
(0.977159 0.211545 0.343391 0.105841 0.905213 0.114459 -0.0104399 -0.119331 1.14276)
(0.920713 0.214278 0.318299 0.108574 0.961659 0.17235 0.0104402 -0.119331 1.14276)
(0.866737 0.197541 0.283535 0.0918368 1.01563 0.225003 0.0310032 -0.115705 1.14276)
(0.821741 0.163353 0.240156 0.0576482 1.06063 0.27082 0.0506239 -0.108564 1.14276)
(0.791151 0.115836 0.18948 0.0101321 1.09122 0.308408 0.0687061 -0.098123 1.14276)
(0.778658 0.0607216 0.133047 -0.0449814 1.10371 0.336626 0.0847011 -0.0847013 1.14276)
(0.785768 0.00465874 0.0725714 -0.101044 1.0966 0.354615 0.0981229 -0.0687063 1.14276)
(0.811624 -0.0455911 0.00989055 -0.151294 1.07075 0.36183 0.108563 -0.0506236 1.14276)
(0.853107 -0.0839672 -0.053091 -0.189671 1.02927 0.35805 0.115704 -0.0310027 1.14276)
(0.905213 -0.105841 -0.114459 -0.211545 0.977159 0.343391 0.119331 -0.01044 1.14276)
(0.961659 -0.108574 -0.17235 -0.214278 0.920713 0.318299 0.119331 0.0104402 1.14276)
(1.01563 -0.0918368 -0.225003 -0.197541 0.866737 0.283535 0.115705 0.0310032 1.14276)
(1.06063 -0.0576482 -0.27082 -0.163353 0.821741 0.240156 0.108564 0.0506239 1.14276)
(1.09122 -0.0101321 -0.308408 -0.115836 0.791151 0.18948 0.098123 0.0687061 1.14276)
(1.10371 0.0449814 -0.336626 -0.0607216 0.778658 0.133047 0.0847013 0.0847011 1.14276)
(1.0966 0.101044 -0.354615 -0.00465873 0.785768 0.0725714 0.0687063 0.0981229 1.14276)
(1.07075 0.151294 -0.36183 0.0455911 0.811624 0.00989054 0.0506236 0.108563 1.14276)
(1.02927 0.189671 -0.35805 0.0839672 0.853107 -0.053091 0.0310027 0.115704 1.14276)
(0.977159 0.211545 -0.343391 0.105841 0.905213 -0.114459 0.01044 0.119331 1.14276)
(0.920713 0.214278 -0.318299 0.108574 0.961659 -0.17235 -0.0104402 0.119331 1.14276)
(0.866737 0.197541 -0.283535 0.0918368 1.01563 -0.225003 -0.0310031 0.115705 1.14276)
(0.821741 0.163353 -0.240156 0.0576482 1.06063 -0.27082 -0.0506239 0.108564 1.14276)
(0.791151 0.115836 -0.189481 0.0101321 1.09122 -0.308408 -0.068706 0.098123 1.14276)
(0.778658 0.0607216 -0.133047 -0.0449814 1.10371 -0.336626 -0.0847011 0.0847013 1.14276)
(0.785768 0.00465872 -0.0725714 -0.101044 1.0966 -0.354615 -0.0981229 0.0687063 1.14276)
(0.811624 -0.0455911 -0.00989056 -0.151294 1.07075 -0.36183 -0.108563 0.0506236 1.14276)
(0.853107 -0.0839673 0.053091 -0.189671 1.02927 -0.35805 -0.115704 0.0310027 1.14276)
(0.905213 -0.105841 0.114459 -0.211545 0.977159 -0.343391 -0.119331 0.0104399 1.14276)
(0.986677 -0.149952 0.192196 -0.211248 0.916549 -0.362972 -0.1163 -0.0101748 1.10879)
(1.04633 -0.127068 0.252306 -0.188365 0.856895 -0.324083 -0.112767 -0.0302157 1.10879)
(1.09456 -0.0851615 0.304749 -0.146458 0.808665 -0.275347 -0.105806 -0.0493384 1.10879)
(1.12555 -0.0292865 0.347933 -0.0905821 0.777677 -0.218245 -0.0956309 -0.0669615 1.10879)
(1.13556 0.0338176 0.380545 -0.0274775 0.767668 -0.154512 -0.0825502 -0.0825502 1.10879)
(1.12338 0.0965396 0.401594 0.0352448 0.779845 -0.0860834 -0.0669613 -0.0956308 1.10879)
(1.09049 0.151314 0.410441 0.090019 0.812741 -0.0150394 -0.0493379 -0.105806 1.10879)
(1.04084 0.191534 0.406817 0.130239 0.862386 0.0564616 -0.0302155 -0.112766 1.10879)
(0.980433 0.212349 0.390832 0.151054 0.922793 0.126247 -0.010175 -0.1163 1.10879)
(0.916549 0.211248 0.362972 0.149952 0.986677 0.192196 0.0101748 -0.1163 1.10879)
(0.856895 0.188365 0.324083 0.127068 1.04633 0.252306 0.0302157 -0.112767 1.10879)
(0.808665 0.146458 0.275347 0.0851615 1.09456 0.304749 0.0493384 -0.105806 1.10879)
(0.777677 0.0905821 0.218245 0.0292865 1.12555 0.347933 0.0669615 -0.0956309 1.10879)
(0.767668 0.0274775 0.154512 -0.0338175 1.13556 0.380545 0.0825502 -0.0825502 1.10879)
(0.779845 -0.0352448 0.0860833 -0.0965396 1.12338 0.401594 0.0956308 -0.0669613 1.10879)
(0.812741 -0.0900189 0.0150394 -0.151314 1.09049 0.410441 0.105806 -0.0493379 1.10879)
(0.862386 -0.130239 -0.0564616 -0.191534 1.04084 0.406817 0.112766 -0.0302155 1.10879)
(0.922793 -0.151054 -0.126247 -0.212349 0.980433 0.390832 0.1163 -0.010175 1.10879)
(0.986677 -0.149952 -0.192196 -0.211248 0.916549 0.362972 0.1163 0.0101748 1.10879)
(1.04633 -0.127068 -0.252306 -0.188365 0.856895 0.324083 0.112767 0.0302157 1.10879)
(1.09456 -0.0851615 -0.304749 -0.146458 0.808665 0.275347 0.105806 0.0493384 1.10879)
(1.12555 -0.0292865 -0.347933 -0.0905821 0.777677 0.218245 0.0956309 0.0669615 1.10879)
(1.13556 0.0338175 -0.380545 -0.0274775 0.767668 0.154512 0.0825502 0.0825501 1.10879)
(1.12338 0.0965396 -0.401594 0.0352448 0.779845 0.0860833 0.0669613 0.0956308 1.10879)
(1.09049 0.151314 -0.410441 0.090019 0.812741 0.0150394 0.0493379 0.105806 1.10879)
(1.04084 0.191534 -0.406817 0.130239 0.862386 -0.0564616 0.0302155 0.112766 1.10879)
(0.980433 0.212349 -0.390832 0.151054 0.922793 -0.126247 0.010175 0.1163 1.10879)
(0.916549 0.211248 -0.362972 0.149952 0.986677 -0.192196 -0.0101748 0.1163 1.10879)
(0.856895 0.188365 -0.324083 0.127068 1.04633 -0.252306 -0.0302157 0.112767 1.10879)
(0.808665 0.146458 -0.275347 0.0851615 1.09456 -0.304749 -0.0493384 0.105806 1.10879)
(0.777677 0.0905821 -0.218245 0.0292865 1.12555 -0.347933 -0.0669615 0.0956309 1.10879)
(0.767668 0.0274775 -0.154512 -0.0338175 1.13556 -0.380545 -0.0825501 0.0825502 1.10879)
(0.779845 -0.0352448 -0.0860834 -0.0965396 1.12338 -0.401594 -0.0956308 0.0669613 1.10879)
(0.812741 -0.090019 -0.0150394 -0.151314 1.09049 -0.410441 -0.105806 0.0493379 1.10879)
(0.862386 -0.130239 0.0564616 -0.191534 1.04084 -0.406817 -0.112766 0.0302155 1.10879)
(0.922793 -0.151054 0.126247 -0.212349 0.980433 -0.390832 -0.1163 0.010175 1.10879)
(0.976317 -0.127271 0.151983 -0.288451 0.881535 -0.282423 -0.173486 -0.0151783 1.20909)
(1.04455 -0.098527 0.198716 -0.259707 0.8133 -0.251741 -0.168215 -0.045073 1.20909)
(1.09884 -0.0481789 0.239411 -0.209359 0.759012 -0.213409 -0.157832 -0.073598 1.20909)
(1.13263 0.0177006 0.272832 -0.143479 0.725218 -0.168594 -0.142654 -0.0998866 1.20909)
(1.14186 0.0911654 0.297963 -0.0700135 0.715994 -0.118655 -0.123141 -0.12314 1.20909)
(1.1254 0.163355 0.31404 0.00217607 0.732453 -0.065112 -0.0998869 -0.142653 1.20909)
(1.08524 0.225562 0.320576 0.0643829 0.772609 -0.00959032 -0.0735976 -0.157831 1.20909)
(1.02623 0.270283 0.317371 0.109104 0.83162 0.0462229 -0.0450721 -0.168214 1.20909)
(0.955485 0.292124 0.304523 0.130945 0.902367 0.100631 -0.0151774 -0.173486 1.20909)
(0.881535 0.288451 0.282423 0.127271 0.976317 0.151983 0.0151783 -0.173486 1.20909)
(0.8133 0.259707 0.25174 0.098527 1.04455 0.198716 0.045073 -0.168215 1.20909)
(0.759012 0.209359 0.213409 0.0481789 1.09884 0.239411 0.073598 -0.157832 1.20909)
(0.725218 0.143479 0.168594 -0.0177005 1.13263 0.272832 0.0998866 -0.142654 1.20909)
(0.715994 0.0700135 0.118655 -0.0911654 1.14186 0.297963 0.12314 -0.123141 1.20909)
(0.732453 -0.00217605 0.065112 -0.163355 1.1254 0.31404 0.142653 -0.0998868 1.20909)
(0.772609 -0.0643829 0.0095903 -0.225562 1.08524 0.320576 0.157831 -0.0735976 1.20909)
(0.83162 -0.109104 -0.0462229 -0.270283 1.02623 0.317371 0.168214 -0.0450721 1.20909)
(0.902367 -0.130945 -0.100631 -0.292124 0.955485 0.304523 0.173486 -0.0151774 1.20909)
(0.976317 -0.127271 -0.151983 -0.288451 0.881535 0.282423 0.173486 0.0151783 1.20909)
(1.04455 -0.098527 -0.198716 -0.259707 0.8133 0.25174 0.168215 0.045073 1.20909)
(1.09884 -0.0481789 -0.239411 -0.209359 0.759012 0.213409 0.157832 0.0735979 1.20909)
(1.13263 0.0177005 -0.272832 -0.143479 0.725218 0.168594 0.142654 0.0998866 1.20909)
(1.14186 0.0911654 -0.297963 -0.0700135 0.715994 0.118655 0.123141 0.12314 1.20909)
(1.1254 0.163355 -0.314041 0.00217606 0.732453 0.065112 0.0998869 0.142653 1.20909)
(1.08524 0.225562 -0.320576 0.0643829 0.772609 0.00959029 0.0735976 0.157831 1.20909)
(1.02623 0.270283 -0.317371 0.109104 0.83162 -0.0462229 0.0450721 0.168214 1.20909)
(0.955485 0.292124 -0.304523 0.130945 0.902367 -0.100631 0.0151774 0.173486 1.20909)
(0.881535 0.288451 -0.282423 0.127271 0.976317 -0.151983 -0.0151783 0.173486 1.20909)
(0.8133 0.259707 -0.251741 0.098527 1.04455 -0.198716 -0.045073 0.168215 1.20909)
(0.759012 0.209359 -0.213409 0.0481789 1.09884 -0.239411 -0.0735979 0.157832 1.20909)
(0.725218 0.143479 -0.168594 -0.0177005 1.13263 -0.272832 -0.0998866 0.142654 1.20909)
(0.715994 0.0700135 -0.118655 -0.0911654 1.14186 -0.297963 -0.12314 0.123141 1.20909)
(0.732453 -0.00217607 -0.065112 -0.163355 1.1254 -0.314041 -0.142653 0.0998868 1.20909)
(0.772609 -0.0643829 -0.00959031 -0.225561 1.08524 -0.320576 -0.157831 0.0735976 1.20909)
(0.83162 -0.109104 0.0462229 -0.270283 1.02623 -0.317371 -0.168214 0.0450721 1.20909)
(0.902367 -0.130945 0.100631 -0.292124 0.955485 -0.304523 -0.173486 0.0151774 1.20909)
(1.00501 -0.174419 0.17193 -0.284775 0.875325 -0.311547 -0.172158 -0.0150621 1.18636)
(1.07963 -0.138394 0.223417 -0.248751 0.800709 -0.276959 -0.166927 -0.044728 1.18636)
(1.13742 -0.0790223 0.268117 -0.189379 0.742914 -0.233956 -0.156624 -0.0730349 1.18636)
(1.17143 -0.00346429 0.304669 -0.11382 0.708911 -0.183843 -0.141562 -0.0991223 1.18636)
(1.17754 0.0791674 0.331964 -0.0311882 0.7028 -0.128145 -0.122198 -0.122198 1.18636)
(1.15502 0.158906 0.349173 0.0485502 0.72532 -0.068553 -0.0991222 -0.141561 1.18636)
(1.10658 0.226132 0.355773 0.115777 0.773755 -0.00687839 -0.0730344 -0.156623 1.18636)
(1.03808 0.27274 0.351562 0.162385 0.842261 0.0550053 -0.0447274 -0.166926 1.18636)
(0.957762 0.293106 0.33667 0.18275 0.922576 0.115218 -0.0150616 -0.172158 1.18636)
(0.875325 0.284775 0.311547 0.174419 1.00501 0.17193 0.0150621 -0.172158 1.18636)
(0.800709 0.248751 0.276959 0.138394 1.07963 0.223417 0.044728 -0.166927 1.18636)
(0.742914 0.189379 0.233955 0.0790223 1.13742 0.268117 0.0730349 -0.156624 1.18636)
(0.708911 0.11382 0.183843 0.0034643 1.17143 0.304669 0.0991223 -0.141562 1.18636)
(0.7028 0.0311883 0.128145 -0.0791674 1.17754 0.331964 0.122198 -0.122198 1.18636)
(0.72532 -0.0485502 0.068553 -0.158906 1.15502 0.349173 0.141561 -0.0991222 1.18636)
(0.773755 -0.115777 0.00687837 -0.226132 1.10658 0.355773 0.156623 -0.0730344 1.18636)
(0.842261 -0.162385 -0.0550054 -0.27274 1.03808 0.351562 0.166926 -0.0447274 1.18636)
(0.922576 -0.18275 -0.115218 -0.293106 0.957762 0.33667 0.172158 -0.0150616 1.18636)
(1.00501 -0.174419 -0.17193 -0.284775 0.875325 0.311547 0.172158 0.015062 1.18636)
(1.07963 -0.138394 -0.223417 -0.248751 0.800709 0.276959 0.166927 0.044728 1.18636)
(1.13742 -0.0790224 -0.268117 -0.189379 0.742914 0.233955 0.156624 0.0730349 1.18636)
(1.17143 -0.00346431 -0.304669 -0.11382 0.708911 0.183843 0.141562 0.0991223 1.18636)
(1.17754 0.0791674 -0.331964 -0.0311883 0.7028 0.128145 0.122198 0.122198 1.18636)
(1.15502 0.158906 -0.349173 0.0485502 0.72532 0.068553 0.0991222 0.141561 1.18636)
(1.10658 0.226132 -0.355773 0.115777 0.773755 0.00687837 0.0730344 0.156623 1.18636)
(1.03808 0.27274 -0.351562 0.162385 0.842261 -0.0550054 0.0447274 0.166926 1.18636)
(0.957762 0.293106 -0.33667 0.18275 0.922576 -0.115218 0.0150616 0.172158 1.18636)
(0.875325 0.284775 -0.311547 0.174419 1.00501 -0.17193 -0.015062 0.172158 1.18636)
(0.800709 0.248751 -0.276959 0.138394 1.07963 -0.223417 -0.044728 0.166927 1.18636)
(0.742914 0.189379 -0.233955 0.0790224 1.13742 -0.268117 -0.0730349 0.156624 1.18636)
(0.708911 0.11382 -0.183843 0.00346431 1.17143 -0.304669 -0.0991223 0.141562 1.18636)
(0.7028 0.0311882 -0.128145 -0.0791674 1.17754 -0.331964 -0.122198 0.122198 1.18636)
(0.72532 -0.0485502 -0.068553 -0.158906 1.15502 -0.349173 -0.141561 0.0991222 1.18636)
(0.773755 -0.115777 -0.00687839 -0.226132 1.10658 -0.355773 -0.156623 0.0730344 1.18636)
(0.842261 -0.162385 0.0550053 -0.27274 1.03808 -0.351562 -0.166926 0.0447274 1.18636)
(0.922576 -0.18275 0.115218 -0.293106 0.957762 -0.33667 -0.172158 0.0150616 1.18636)
(1.03586 -0.23249 0.196463 -0.27483 0.861495 -0.334792 -0.168452 -0.0147376 1.16472)
(1.11736 -0.187374 0.251615 -0.229714 0.779996 -0.29559 -0.163334 -0.0437653 1.16472)
(1.17851 -0.117105 0.299121 -0.159445 0.718843 -0.247407 -0.153253 -0.0714631 1.16472)
(1.21195 -0.030158 0.337538 -0.0724971 0.685411 -0.191707 -0.138515 -0.0969891 1.16472)
(1.21362 0.0629802 0.365699 0.0206417 0.683733 -0.130182 -0.119568 -0.119568 1.16472)
(1.18335 0.151076 0.38275 0.108737 0.714011 -0.0647008 -0.0969886 -0.138514 1.16472)
(1.12476 0.223502 0.38817 0.181164 0.772594 0.00274596 -0.0714624 -0.153252 1.16472)
(1.04494 0.271525 0.381796 0.229186 0.852415 0.0701092 -0.043765 -0.163333 1.16472)
(0.95351 0.289351 0.363821 0.247011 0.943847 0.135342 -0.0147377 -0.168452 1.16472)
(0.861495 0.27483 0.334792 0.23249 1.03586 0.196463 0.0147376 -0.168452 1.16472)
(0.779996 0.229714 0.29559 0.187374 1.11736 0.251615 0.0437653 -0.163334 1.16472)
(0.718843 0.159445 0.247407 0.117105 1.17851 0.299121 0.071463 -0.153253 1.16472)
(0.685411 0.0724971 0.191707 0.030158 1.21195 0.337538 0.096989 -0.138515 1.16472)
(0.683733 -0.0206417 0.130182 -0.0629802 1.21362 0.365699 0.119568 -0.119568 1.16472)
(0.714011 -0.108737 0.0647008 -0.151076 1.18335 0.382749 0.138514 -0.0969886 1.16472)
(0.772594 -0.181164 -0.00274598 -0.223502 1.12476 0.38817 0.153252 -0.0714624 1.16472)
(0.852415 -0.229186 -0.0701092 -0.271525 1.04494 0.381796 0.163333 -0.043765 1.16472)
(0.943847 -0.247011 -0.135342 -0.289351 0.95351 0.363821 0.168452 -0.0147377 1.16472)
(1.03586 -0.23249 -0.196463 -0.27483 0.861495 0.334792 0.168452 0.0147376 1.16472)
(1.11736 -0.187374 -0.251615 -0.229714 0.779996 0.29559 0.163334 0.0437653 1.16472)
(1.17851 -0.117105 -0.299121 -0.159445 0.718843 0.247407 0.153253 0.071463 1.16472)
(1.21195 -0.030158 -0.337538 -0.0724971 0.685411 0.191707 0.138515 0.096989 1.16472)
(1.21362 0.0629802 -0.3657 0.0206417 0.683733 0.130182 0.119568 0.119568 1.16472)
(1.18335 0.151076 -0.38275 0.108737 0.714011 0.0647008 0.0969886 0.138514 1.16472)
(1.12476 0.223502 -0.38817 0.181164 0.772594 -0.00274598 0.0714624 0.153252 1.16472)
(1.04494 0.271525 -0.381796 0.229186 0.852415 -0.0701092 0.043765 0.163333 1.16472)
(0.95351 0.289351 -0.363821 0.247011 0.943847 -0.135342 0.0147377 0.168452 1.16472)
(0.861495 0.27483 -0.334792 0.23249 1.03586 -0.196463 -0.0147376 0.168452 1.16472)
(0.779996 0.229714 -0.29559 0.187374 1.11736 -0.251615 -0.0437652 0.163334 1.16472)
(0.718843 0.159445 -0.247407 0.117105 1.17851 -0.299121 -0.071463 0.153253 1.16472)
(0.685411 0.0724971 -0.191707 0.030158 1.21195 -0.337538 -0.096989 0.138515 1.16472)
(0.683733 -0.0206417 -0.130182 -0.0629802 1.21362 -0.3657 -0.119568 0.119568 1.16472)
(0.714011 -0.108737 -0.0647008 -0.151076 1.18335 -0.38275 -0.138514 0.0969886 1.16472)
(0.772594 -0.181164 0.00274595 -0.223502 1.12476 -0.38817 -0.153252 0.0714624 1.16472)
(0.852416 -0.229186 0.0701092 -0.271525 1.04494 -0.381796 -0.163333 0.043765 1.16472)
(0.943847 -0.247011 0.135342 -0.289351 0.95351 -0.363821 -0.168452 0.0147377 1.16472)
(1.02346 -0.18419 0.146037 -0.317583 0.848318 -0.290439 -0.205317 -0.0179634 1.23558)
(1.10399 -0.139108 0.194253 -0.272502 0.767791 -0.260667 -0.199079 -0.0533433 1.23558)
(1.16424 -0.0692026 0.236566 -0.202597 0.707539 -0.222975 -0.186792 -0.0871023 1.23558)
(1.19695 0.0170938 0.271691 -0.1163 0.67483 -0.178509 -0.168829 -0.118215 1.23558)
(1.19817 0.109373 0.298561 -0.0240203 0.673609 -0.128618 -0.145736 -0.145735 1.23558)
(1.16776 0.196505 0.316359 0.0631118 0.704023 -0.0748191 -0.118215 -0.168828 1.23558)
(1.10938 0.26798 0.324545 0.134587 0.762403 -0.0187471 -0.0871022 -0.186791 1.23558)
(1.03007 0.315178 0.32287 0.181784 0.841709 0.0378944 -0.0533425 -0.199078 1.23558)
(0.939408 0.332405 0.311385 0.199011 0.932375 0.0933844 -0.0179623 -0.205317 1.23558)
(0.848318 0.317583 0.290439 0.18419 1.02346 0.146037 0.0179634 -0.205317 1.23558)
(0.767791 0.272502 0.260667 0.139108 1.10399 0.194253 0.0533433 -0.199079 1.23558)
(0.707539 0.202597 0.222975 0.0692027 1.16424 0.236566 0.0871023 -0.186792 1.23558)
(0.67483 0.1163 0.178509 -0.0170938 1.19695 0.271691 0.118215 -0.168829 1.23558)