/*--------------------------------*- C++ -*----------------------------------*\
| =========                 |                                                 |
| \\      /  F ield         | OpenFOAM: The Open Source CFD Toolbox           |
|  \\    /   O peration     | Version:  2312                                  |
|   \\  /    A nd           | Website:  www.openfoam.com                      |
|    \\/     M anipulation  |                                                 |
\*---------------------------------------------------------------------------*/
FoamFile
{
    version     2.0;
    format      ascii;
    arch        "LSB;label=32;scalar=64";
    class       pointVectorField;
    location    "0.8";
    object      pointD;
}
// * * * * * * * * * * * * * * * * * * * * * * * * * * * * * * * * * * * * * //

dimensions      [0 1 0 0 0 0 0];

internalField   nonuniform List<vector> 
2164
(
(0 0 0)
(0 0 0)
(0 0 0)
(0 0 0)
(0 0 0)
(0 0 0)
(0 0 0)
(0 0 0)
(0 0 0)
(0 0 0)
(0 0 0)
(0 0 0)
(0 0 0)
(0 0 0)
(0 0 0)
(0 0 0)
(0 0 0)
(0 0 0)
(0 0 0)
(0 0 0)
(0 0 0)
(0 0 0)
(0 0 0)
(0 0 0)
(0 0 0)
(0 0 0)
(0 0 0)
(0 0 0)
(0 0 0)
(0 0 0)
(0 0 0)
(0 0 0)
(0 0 0)
(0 0 0)
(0 0 0)
(0 0 0)
(-0.000482925 0.000291899 -0.000356836)
(-0.000526276 0.000203606 -0.000356836)
(-0.000553637 0.000109126 -0.000356835)
(-0.000564175 1.13308e-05 -0.000356835)
(-0.000557572 -8.68087e-05 -0.000356835)
(-0.000534027 -0.00018231 -0.000356834)
(-0.000494257 -0.000272274 -0.000356834)
(-0.000439466 -0.000353965 -0.000356835)
(-0.000371324 -0.0004249 -0.000356835)
(-0.000291899 -0.000482925 -0.000356836)
(-0.000203606 -0.000526276 -0.000356836)
(-0.000109126 -0.000553637 -0.000356835)
(-1.13307e-05 -0.000564175 -0.000356835)
(8.68088e-05 -0.000557572 -0.000356835)
(0.00018231 -0.000534027 -0.000356834)
(0.000272274 -0.000494257 -0.000356834)
(0.000353965 -0.000439466 -0.000356835)
(0.0004249 -0.000371324 -0.000356835)
(0.000482925 -0.000291899 -0.000356836)
(0.000526276 -0.000203606 -0.000356836)
(0.000553637 -0.000109126 -0.000356835)
(0.000564176 -1.13307e-05 -0.000356835)
(0.000557572 8.68088e-05 -0.000356835)
(0.000534027 0.00018231 -0.000356834)
(0.000494257 0.000272274 -0.000356834)
(0.000439466 0.000353965 -0.000356835)
(0.000371324 0.0004249 -0.000356835)
(0.000291899 0.000482925 -0.000356836)
(0.000203606 0.000526276 -0.000356836)
(0.000109126 0.000553637 -0.000356835)
(1.13308e-05 0.000564176 -0.000356834)
(-8.68087e-05 0.000557572 -0.000356835)
(-0.00018231 0.000534027 -0.000356834)
(-0.000272274 0.000494257 -0.000356834)
(-0.000353965 0.000439466 -0.000356835)
(-0.0004249 0.000371324 -0.000356835)
(-0.00041664 0.00046725 -0.000268595)
(-0.000491448 0.000387802 -0.000268596)
(-0.000551323 0.000296572 -0.000268595)
(-0.000594447 0.000196332 -0.000268594)
(-0.000619508 9.01239e-05 -0.000268594)
(-0.000625746 -1.88225e-05 -0.000268595)
(-0.000612971 -0.000127196 -0.000268595)
(-0.000581572 -0.000231705 -0.000268595)
(-0.0005325 -0.000329174 -0.000268595)
(-0.00046725 -0.00041664 -0.000268595)
(-0.000387802 -0.000491448 -0.000268596)
(-0.000296572 -0.000551323 -0.000268595)
(-0.000196332 -0.000594447 -0.000268594)
(-9.01239e-05 -0.000619508 -0.000268594)
(1.88225e-05 -0.000625746 -0.000268595)
(0.000127196 -0.000612971 -0.000268595)
(0.000231705 -0.000581572 -0.000268595)
(0.000329174 -0.0005325 -0.000268595)
(0.00041664 -0.00046725 -0.000268595)
(0.000491448 -0.000387802 -0.000268596)
(0.000551323 -0.000296572 -0.000268595)
(0.000594447 -0.000196332 -0.000268594)
(0.000619508 -9.01239e-05 -0.000268594)
(0.000625746 1.88225e-05 -0.000268595)
(0.000612971 0.000127196 -0.000268595)
(0.000581572 0.000231705 -0.000268595)
(0.0005325 0.000329174 -0.000268595)
(0.00046725 0.00041664 -0.000268595)
(0.000387802 0.000491448 -0.000268596)
(0.000296572 0.000551323 -0.000268595)
(0.000196332 0.000594447 -0.000268594)
(9.01239e-05 0.000619508 -0.000268594)
(-1.88225e-05 0.000625746 -0.000268595)
(-0.000127196 0.000612971 -0.000268595)
(-0.000231705 0.000581572 -0.000268595)
(-0.000329174 0.000532501 -0.000268595)
(0 0 0)
(0 0 0)
(0 0 0)
(0 0 0)
(0 0 0)
(0 0 0)
(0 0 0)
(0 0 0)
(0 0 0)
(0 0 0)
(0 0 0)
(0 0 0)
(0 0 0)
(0 0 0)
(0 0 0)
(0 0 0)
(0 0 0)
(0 0 0)
(0 0 0)
(0 0 0)
(0 0 0)
(0 0 0)
(0 0 0)
(0 0 0)
(0 0 0)
(0 0 0)
(0 0 0)
(0 0 0)
(0 0 0)
(0 0 0)
(0 0 0)
(0 0 0)
(0 0 0)
(0 0 0)
(0 0 0)
(0 0 0)
(-0.000371415 0.000645802 -0.000182696)
(-0.000477915 0.000571494 -0.000182696)
(-0.000569893 0.000479824 -0.000182696)
(-0.000644556 0.000373573 -0.000182696)
(-0.000699634 0.000255971 -0.000182696)
(-0.000733455 0.000130593 -0.000182696)
(-0.000744988 1.24541e-06 -0.000182696)
(-0.000733887 -0.000128139 -0.000182696)
(-0.000700486 -0.000253631 -0.000182696)
(-0.000645802 -0.000371415 -0.000182696)
(-0.000571494 -0.000477915 -0.000182696)
(-0.000479824 -0.000569893 -0.000182696)
(-0.000373573 -0.000644556 -0.000182696)
(-0.000255971 -0.000699634 -0.000182696)
(-0.000130593 -0.000733455 -0.000182696)
(-1.24538e-06 -0.000744988 -0.000182696)
(0.000128139 -0.000733887 -0.000182696)
(0.000253631 -0.000700486 -0.000182696)
(0.000371415 -0.000645802 -0.000182696)
(0.000477915 -0.000571494 -0.000182696)
(0.000569893 -0.000479824 -0.000182696)
(0.000644556 -0.000373573 -0.000182696)
(0.000699634 -0.000255971 -0.000182696)
(0.000733455 -0.000130593 -0.000182696)
(0.000744988 -1.24536e-06 -0.000182696)
(0.000733887 0.000128139 -0.000182696)
(0.000700486 0.000253631 -0.000182696)
(0.000645802 0.000371415 -0.000182696)
(0.000571494 0.000477915 -0.000182696)
(0.000479824 0.000569893 -0.000182696)
(0.000373573 0.000644556 -0.000182696)
(0.000255971 0.000699634 -0.000182696)
(0.000130593 0.000733455 -0.000182695)
(1.24538e-06 0.000744988 -0.000182696)
(-0.000128139 0.000733887 -0.000182696)
(-0.000253631 0.000700486 -0.000182696)
(0 0 0)
(0 0 0)
(0 0 0)
(0 0 0)
(0 0 0)
(0 0 0)
(0 0 0)
(0 0 0)
(0 0 0)
(0 0 0)
(0 0 0)
(0 0 0)
(0 0 0)
(0 0 0)
(0 0 0)
(0 0 0)
(0 0 0)
(0 0 0)
(0 0 0)
(0 0 0)
(0 0 0)
(0 0 0)
(0 0 0)
(0 0 0)
(0 0 0)
(0 0 0)
(0 0 0)
(0 0 0)
(0 0 0)
(0 0 0)
(0 0 0)
(0 0 0)
(0 0 0)
(0 0 0)
(0 0 0)
(0 0 0)
(-0.000349502 0.000816751 -0.000104752)
(-0.000486019 0.000743651 -0.000104752)
(-0.000607769 0.000647958 -0.000104753)
(-0.000711053 0.000532576 -0.000104753)
(-0.000792731 0.000401012 -0.000104752)
(-0.000850323 0.000257262 -0.000104753)
(-0.000882078 0.000105696 -0.000104753)
(-0.000887032 -4.908e-05 -0.000104753)
(-0.000865032 -0.000202366 -0.000104753)
(-0.000816751 -0.000349502 -0.000104752)
(-0.000743651 -0.000486019 -0.000104752)
(-0.000647958 -0.000607769 -0.000104753)
(-0.000532576 -0.000711053 -0.000104753)
(-0.000401012 -0.000792731 -0.000104753)
(-0.000257262 -0.000850323 -0.000104753)
(-0.000105696 -0.000882078 -0.000104753)
(4.908e-05 -0.000887032 -0.000104753)
(0.000202366 -0.000865032 -0.000104753)
(0.000349502 -0.000816751 -0.000104752)
(0.000486019 -0.000743651 -0.000104752)
(0.000607769 -0.000647958 -0.000104753)
(0.000711053 -0.000532576 -0.000104753)
(0.000792731 -0.000401012 -0.000104753)
(0.000850323 -0.000257262 -0.000104753)
(0.000882078 -0.000105696 -0.000104753)
(0.000887032 4.90801e-05 -0.000104753)
(0.000865032 0.000202366 -0.000104753)
(0.000816751 0.000349502 -0.000104752)
(0.000743651 0.000486019 -0.000104752)
(0.000647958 0.000607769 -0.000104753)
(0.000532576 0.000711053 -0.000104753)
(0.000401012 0.000792731 -0.000104752)
(0.000257262 0.000850323 -0.000104753)
(0.000105696 0.000882078 -0.000104753)
(-4.90801e-05 0.000887032 -0.000104753)
(-0.000202366 0.000865032 -0.000104753)
(0 0 0)
(0 0 0)
(0 0 0)
(0 0 0)
(0 0 0)
(0 0 0)
(0 0 0)
(0 0 0)
(0 0 0)
(0 0 0)
(0 0 0)
(0 0 0)
(0 0 0)
(0 0 0)
(0 0 0)
(0 0 0)
(0 0 0)
(0 0 0)
(0 0 0)
(0 0 0)
(0 0 0)
(0 0 0)
(0 0 0)
(0 0 0)
(0 0 0)
(0 0 0)
(0 0 0)
(0 0 0)
(0 0 0)
(0 0 0)
(0 0 0)
(0 0 0)
(0 0 0)
(0 0 0)
(0 0 0)
(0 0 0)
(-0.000825316 0.000718103 -0.000732357)
(-0.000937476 0.000563878 -0.000732358)
(-0.00102115 0.000392522 -0.000732356)
(-0.0010738 0.00020924 -0.000732354)
(-0.00109382 1.9599e-05 -0.000732354)
(-0.0010806 -0.000170638 -0.000732354)
(-0.00103456 -0.000355691 -0.000732355)
(-0.000957072 -0.000529937 -0.000732356)
(-0.00085051 -0.00068808 -0.000732356)
(-0.000718103 -0.000825316 -0.000732357)
(-0.000563878 -0.000937476 -0.000732358)
(-0.000392522 -0.00102115 -0.000732356)
(-0.00020924 -0.0010738 -0.000732354)
(-1.95989e-05 -0.00109382 -0.000732354)
(0.000170638 -0.0010806 -0.000732354)
(0.000355691 -0.00103456 -0.000732355)
(0.000529937 -0.000957072 -0.000732356)
(0.00068808 -0.00085051 -0.000732356)
(0.000825316 -0.000718103 -0.000732357)
(0.000937476 -0.000563878 -0.000732358)
(0.00102115 -0.000392522 -0.000732356)
(0.0010738 -0.00020924 -0.000732354)
(0.00109382 -1.95988e-05 -0.000732354)
(0.0010806 0.000170638 -0.000732354)
(0.00103456 0.000355691 -0.000732355)
(0.000957072 0.000529937 -0.000732356)
(0.00085051 0.00068808 -0.000732356)
(0.000718103 0.000825316 -0.000732357)
(0.000563878 0.000937476 -0.000732358)
(0.000392522 0.00102115 -0.000732356)
(0.00020924 0.0010738 -0.000732354)
(1.95989e-05 0.00109382 -0.000732354)
(-0.000170638 0.0010806 -0.000732354)
(-0.000355691 0.00103456 -0.000732354)
(-0.000529937 0.000957072 -0.000732356)
(-0.00068808 0.00085051 -0.000732356)
(-0.000789383 0.000985825 -0.000579815)
(-0.000948577 0.000833774 -0.000579814)
(-0.00107895 0.000656386 -0.000579815)
(-0.00117654 0.000459059 -0.000579813)
(-0.00123838 0.000247782 -0.000579813)
(-0.00126259 2.89737e-05 -0.000579814)
(-0.00124844 -0.000190712 -0.000579813)
(-0.00119636 -0.000404606 -0.000579814)
(-0.00110792 -0.000606204 -0.000579814)
(-0.000985825 -0.000789383 -0.000579815)
(-0.000833774 -0.000948577 -0.000579814)
(-0.000656386 -0.00107895 -0.000579815)
(-0.000459059 -0.00117654 -0.000579813)
(-0.000247782 -0.00123838 -0.000579813)
(-2.89736e-05 -0.00126259 -0.000579814)
(0.000190712 -0.00124844 -0.000579813)
(0.000404606 -0.00119636 -0.000579814)
(0.000606204 -0.00110792 -0.000579814)
(0.000789383 -0.000985825 -0.000579815)
(0.000948577 -0.000833774 -0.000579814)
(0.00107895 -0.000656386 -0.000579815)
(0.00117654 -0.000459059 -0.000579813)
(0.00123838 -0.000247782 -0.000579813)
(0.00126259 -2.89736e-05 -0.000579814)
(0.00124844 0.000190712 -0.000579813)
(0.00119636 0.000404606 -0.000579814)
(0.00110792 0.000606204 -0.000579814)
(0.000985825 0.000789383 -0.000579815)
(0.000833774 0.000948578 -0.000579814)
(0.000656386 0.00107895 -0.000579815)
(0.000459059 0.00117654 -0.000579813)
(0.000247782 0.00123838 -0.000579813)
(2.89737e-05 0.00126259 -0.000579814)
(-0.000190712 0.00124844 -0.000579813)
(-0.000404606 0.00119636 -0.000579814)
(-0.000606204 0.00110792 -0.000579814)
(-0.000780175 0.00125444 -0.000425399)
(-0.000986152 0.00109991 -0.000425399)
(-0.00116217 0.000911956 -0.000425399)
(-0.00130287 0.000696294 -0.000425398)
(-0.00140399 0.000459473 -0.000425398)
(-0.00146244 0.000208691 -0.000425399)
(-0.00147647 -4.84306e-05 -0.000425399)
(-0.00144563 -0.000304079 -0.000425399)
(-0.00137086 -0.00055049 -0.0004254)
(-0.00125444 -0.000780175 -0.000425399)
(-0.00109991 -0.000986152 -0.000425399)
(-0.000911956 -0.00116217 -0.000425399)
(-0.000696294 -0.00130287 -0.000425399)
(-0.000459473 -0.00140399 -0.000425398)
(-0.000208691 -0.00146244 -0.000425399)
(4.84307e-05 -0.00147647 -0.000425399)
(0.000304079 -0.00144563 -0.000425399)
(0.00055049 -0.00137086 -0.0004254)
(0.000780175 -0.00125444 -0.000425399)
(0.000986152 -0.00109991 -0.0004254)
(0.00116217 -0.000911956 -0.000425399)
(0.00130287 -0.000696294 -0.000425399)
(0.00140399 -0.000459473 -0.000425398)
(0.00146244 -0.000208691 -0.000425399)
(0.00147647 4.84308e-05 -0.000425399)
(0.00144563 0.000304079 -0.000425399)
(0.00137086 0.00055049 -0.000425399)
(0.00125444 0.000780175 -0.000425399)
(0.00109991 0.000986152 -0.000425399)
(0.000911956 0.00116217 -0.000425399)
(0.000696294 0.00130287 -0.000425398)
(0.000459473 0.00140399 -0.000425398)
(0.000208691 0.00146244 -0.000425399)
(-4.84307e-05 0.00147647 -0.000425399)
(-0.000304079 0.00144563 -0.000425399)
(-0.00055049 0.00137086 -0.000425399)
(-0.000797875 0.00150297 -0.000278084)
(-0.00104674 0.00134158 -0.000278084)
(-0.0012638 0.00113944 -0.000278085)
(-0.00144246 0.00090267 -0.000278086)
(-0.00157729 0.000638475 -0.000278086)
(-0.0016642 0.000354881 -0.000278086)
(-0.00170054 6.05049e-05 -0.000278085)
(-0.00168522 -0.000235711 -0.000278084)
(-0.00161868 -0.000524766 -0.000278085)
(-0.00150297 -0.000797875 -0.000278084)
(-0.00134158 -0.00104674 -0.000278084)
(-0.00113944 -0.0012638 -0.000278085)
(-0.00090267 -0.00144246 -0.000278086)
(-0.000638475 -0.00157729 -0.000278086)
(-0.000354881 -0.0016642 -0.000278086)
(-6.05049e-05 -0.00170054 -0.000278085)
(0.000235711 -0.00168522 -0.000278085)
(0.000524766 -0.00161868 -0.000278085)
(0.000797875 -0.00150297 -0.000278084)
(0.00104674 -0.00134158 -0.000278084)
(0.0012638 -0.00113944 -0.000278085)
(0.00144246 -0.00090267 -0.000278086)
(0.00157729 -0.000638475 -0.000278086)
(0.0016642 -0.000354881 -0.000278086)
(0.00170054 -6.05048e-05 -0.000278085)
(0.00168522 0.000235711 -0.000278085)
(0.00161868 0.000524766 -0.000278085)
(0.00150297 0.000797875 -0.000278084)
(0.00134158 0.00104674 -0.000278084)
(0.00113944 0.0012638 -0.000278085)
(0.00090267 0.00144246 -0.000278086)
(0.000638475 0.00157729 -0.000278086)
(0.000354881 0.0016642 -0.000278086)
(6.05049e-05 0.00170054 -0.000278085)
(-0.000235711 0.00168522 -0.000278084)
(-0.000524766 0.00161868 -0.000278085)
(-0.00114765 0.00121565 -0.001168)
(-0.00134131 0.000997897 -0.001168)
(-0.00149421 0.000749823 -0.001168)
(-0.00160172 0.000478966 -0.001168)
(-0.00166056 0.000193554 -0.001168)
(-0.00166894 -9.77389e-05 -0.00116799)
(-0.00162661 -0.000386064 -0.001168)
(-0.00153486 -0.000662657 -0.001168)
(-0.00139647 -0.000919115 -0.001168)
(-0.00121565 -0.00114765 -0.001168)
(-0.000997897 -0.00134131 -0.001168)
(-0.000749823 -0.00149421 -0.001168)
(-0.000478966 -0.00160172 -0.001168)
(-0.000193553 -0.00166056 -0.001168)
(9.7739e-05 -0.00166894 -0.001168)
(0.000386064 -0.00162661 -0.001168)
(0.000662657 -0.00153486 -0.001168)
(0.000919115 -0.00139647 -0.001168)
(0.00114765 -0.00121565 -0.001168)
(0.00134131 -0.000997897 -0.001168)
(0.00149421 -0.000749822 -0.001168)
(0.00160172 -0.000478966 -0.001168)
(0.00166056 -0.000193553 -0.001168)
(0.00166894 9.77391e-05 -0.00116799)
(0.00162661 0.000386064 -0.001168)
(0.00153486 0.000662657 -0.001168)
(0.00139647 0.000919115 -0.001168)
(0.00121565 0.00114765 -0.001168)
(0.000997897 0.00134131 -0.001168)
(0.000749823 0.00149421 -0.001168)
(0.000478966 0.00160172 -0.001168)
(0.000193554 0.00166056 -0.00116799)
(-9.77389e-05 0.00166894 -0.00116799)
(-0.000386064 0.00162661 -0.001168)
(-0.000662657 0.00153486 -0.001168)
(-0.000919115 0.00139647 -0.001168)
(-0.00114966 0.00153001 -0.000965394)
(-0.00139788 0.00130713 -0.000965394)
(-0.00160362 0.00104454 -0.000965394)
(-0.00176064 0.000750203 -0.000965393)
(-0.00186416 0.000433075 -0.000965392)
(-0.00191105 0.000102786 -0.000965393)
(-0.00189986 -0.000230625 -0.000965392)
(-0.00183095 -0.00055703 -0.000965393)
(-0.00170641 -0.000866509 -0.000965393)
(-0.00153001 -0.00114966 -0.000965394)
(-0.00130713 -0.00139788 -0.000965394)
(-0.00104454 -0.00160362 -0.000965394)
(-0.000750203 -0.00176064 -0.000965393)
(-0.000433075 -0.00186416 -0.000965392)
(-0.000102786 -0.00191105 -0.000965393)
(0.000230626 -0.00189986 -0.000965392)
(0.00055703 -0.00183095 -0.000965393)
(0.000866509 -0.00170641 -0.000965393)
(0.00114966 -0.00153001 -0.000965394)
(0.00139788 -0.00130713 -0.000965394)
(0.00160362 -0.00104454 -0.000965394)
(0.00176064 -0.000750203 -0.000965393)
(0.00186416 -0.000433075 -0.000965392)
(0.00191105 -0.000102786 -0.000965393)
(0.00189986 0.000230626 -0.000965392)
(0.00183095 0.00055703 -0.000965393)
(0.00170641 0.000866509 -0.000965393)
(0.00153001 0.00114966 -0.000965394)
(0.00130713 0.00139788 -0.000965394)
(0.00104454 0.00160362 -0.000965394)
(0.000750203 0.00176064 -0.000965393)
(0.000433075 0.00186417 -0.000965392)
(0.000102786 0.00191105 -0.000965393)
(-0.000230625 0.00189986 -0.000965392)
(-0.00055703 0.00183095 -0.000965393)
(-0.000866509 0.00170641 -0.000965393)
(-0.00118369 0.00183777 -0.000763027)
(-0.00148483 0.0016043 -0.000763028)
(-0.00174085 0.0013221 -0.000763027)
(-0.00194399 0.000999713 -0.000763028)
(-0.00208805 0.000646954 -0.000763027)
(-0.00216867 0.000274539 -0.000763027)
(-0.0021834 -0.000106217 -0.000763027)
(-0.00213178 -0.000483747 -0.000763027)
(-0.00201539 -0.000846578 -0.000763028)
(-0.00183777 -0.00118369 -0.000763027)
(-0.0016043 -0.00148483 -0.000763028)
(-0.00132209 -0.00174085 -0.000763027)
(-0.000999713 -0.00194398 -0.000763028)
(-0.000646954 -0.00208805 -0.000763028)
(-0.000274539 -0.00216867 -0.000763027)
(0.000106217 -0.0021834 -0.000763027)
(0.000483748 -0.00213178 -0.000763027)
(0.000846578 -0.00201539 -0.000763028)
(0.00118369 -0.00183777 -0.000763027)
(0.00148483 -0.0016043 -0.000763028)
(0.00174085 -0.00132209 -0.000763027)
(0.00194399 -0.000999713 -0.000763028)
(0.00208805 -0.000646954 -0.000763028)
(0.00216867 -0.000274539 -0.000763027)
(0.0021834 0.000106217 -0.000763027)
(0.00213178 0.000483748 -0.000763027)
(0.00201539 0.000846578 -0.000763028)
(0.00183777 0.00118369 -0.000763027)
(0.0016043 0.00148483 -0.000763028)
(0.00132209 0.00174085 -0.000763027)
(0.000999713 0.00194399 -0.000763027)
(0.000646954 0.00208805 -0.000763027)
(0.000274539 0.00216867 -0.000763027)
(-0.000106217 0.0021834 -0.000763027)
(-0.000483748 0.00213178 -0.000763027)
(-0.000846578 0.00201539 -0.000763028)
(-0.00124497 0.00211355 -0.000570355)
(-0.00159307 0.00186526 -0.000570355)
(-0.00189277 0.00156029 -0.000570354)
(-0.00213495 0.00120791 -0.000570355)
(-0.00231227 0.000818827 -0.000570355)
(-0.00241933 0.000404865 -0.000570355)
(-0.00245288 -2.13987e-05 -0.000570356)
(-0.0024119 -0.00044701 -0.000570355)
(-0.00229763 -0.000859042 -0.000570354)
(-0.00211355 -0.00124497 -0.000570355)
(-0.00186526 -0.00159307 -0.000570355)
(-0.00156029 -0.00189277 -0.000570354)
(-0.00120791 -0.00213495 -0.000570355)
(-0.000818827 -0.00231227 -0.000570355)
(-0.000404865 -0.00241933 -0.000570355)
(2.13988e-05 -0.00245288 -0.000570356)
(0.00044701 -0.0024119 -0.000570356)
(0.000859042 -0.00229763 -0.000570354)
(0.00124497 -0.00211355 -0.000570355)
(0.00159307 -0.00186526 -0.000570355)
(0.00189277 -0.00156029 -0.000570354)
(0.00213495 -0.00120791 -0.000570355)
(0.00231227 -0.000818827 -0.000570355)
(0.00241933 -0.000404865 -0.000570355)
(0.00245288 2.13988e-05 -0.000570356)
(0.0024119 0.00044701 -0.000570355)
(0.00229763 0.000859042 -0.000570354)
(0.00211355 0.00124497 -0.000570355)
(0.00186526 0.00159307 -0.000570355)
(0.00156029 0.00189277 -0.000570354)
(0.00120791 0.00213495 -0.000570355)
(0.000818827 0.00231227 -0.000570355)
(0.000404865 0.00241933 -0.000570355)
(-2.13987e-05 0.00245288 -0.000570356)
(-0.00044701 0.0024119 -0.000570355)
(-0.000859042 0.00229763 -0.000570354)
(-0.0014613 0.00178788 -0.00162213)
(-0.00174957 0.00150697 -0.00162213)
(-0.00198467 0.00118027 -0.00162213)
(-0.00215947 0.000817702 -0.00162213)
(-0.00226865 0.000430292 -0.00162213)
(-0.00230891 2.9808e-05 -0.00162213)
(-0.00227901 -0.000371582 -0.00162213)
(-0.00217985 -0.000761685 -0.00162213)
(-0.00201448 -0.00112864 -0.00162213)
(-0.00178788 -0.0014613 -0.00162213)
(-0.00150697 -0.00174957 -0.00162213)
(-0.00118027 -0.00198467 -0.00162213)
(-0.000817702 -0.00215947 -0.00162213)
(-0.000430292 -0.00226865 -0.00162213)
(-2.98079e-05 -0.00230891 -0.00162213)
(0.000371582 -0.00227901 -0.00162213)
(0.000761685 -0.00217985 -0.00162213)
(0.00112864 -0.00201448 -0.00162213)
(0.0014613 -0.00178788 -0.00162213)
(0.00174957 -0.00150697 -0.00162213)
(0.00198467 -0.00118027 -0.00162213)
(0.00215947 -0.000817702 -0.00162213)
(0.00226865 -0.000430292 -0.00162213)
(0.00230891 -2.98078e-05 -0.00162213)
(0.00227901 0.000371582 -0.00162213)
(0.00217985 0.000761685 -0.00162213)
(0.00201448 0.00112864 -0.00162213)
(0.00178788 0.0014613 -0.00162213)
(0.00150697 0.00174957 -0.00162213)
(0.00118027 0.00198467 -0.00162213)
(0.000817702 0.00215947 -0.00162213)
(0.000430292 0.00226865 -0.00162213)
(2.9808e-05 0.00230891 -0.00162213)
(-0.000371582 0.00227901 -0.00162212)
(-0.000761685 0.00217985 -0.00162213)
(-0.00112864 0.00201448 -0.00162213)
(-0.00149847 0.00209555 -0.00138627)
(-0.00183959 0.00180351 -0.00138627)
(-0.00212482 0.00145667 -0.00138627)
(-0.00234549 0.00106557 -0.00138627)
(-0.00249489 0.00064209 -0.00138627)
(-0.00256849 0.000199103 -0.00138627)
(-0.00256404 -0.000249935 -0.00138627)
(-0.00248168 -0.000691379 -0.00138627)
(-0.00232392 -0.00111181 -0.00138627)
(-0.00209555 -0.00149847 -0.00138627)
(-0.00180351 -0.00183959 -0.00138627)
(-0.00145667 -0.00212482 -0.00138627)
(-0.00106557 -0.00234549 -0.00138627)
(-0.000642089 -0.00249489 -0.00138627)
(-0.000199103 -0.00256849 -0.00138627)
(0.000249935 -0.00256404 -0.00138627)
(0.000691379 -0.00248168 -0.00138627)
(0.00111181 -0.00232392 -0.00138627)
(0.00149847 -0.00209555 -0.00138627)
(0.00183959 -0.00180351 -0.00138627)
(0.00212482 -0.00145667 -0.00138627)
(0.00234549 -0.00106557 -0.00138627)
(0.00249489 -0.000642089 -0.00138627)
(0.00256849 -0.000199103 -0.00138627)
(0.00256404 0.000249935 -0.00138627)
(0.00248168 0.000691379 -0.00138627)
(0.00232392 0.00111182 -0.00138627)
(0.00209555 0.00149847 -0.00138627)
(0.00180351 0.00183959 -0.00138627)
(0.00145667 0.00212482 -0.00138627)
(0.00106557 0.00234549 -0.00138627)
(0.00064209 0.00249489 -0.00138627)
(0.000199103 0.00256849 -0.00138627)
(-0.000249935 0.00256404 -0.00138627)
(-0.000691379 0.00248168 -0.00138627)
(-0.00111181 0.00232392 -0.00138627)
(-0.00157045 0.00238657 -0.00115423)
(-0.00196102 0.0020776 -0.00115423)
(-0.002292 0.00170551 -0.00115423)
(-0.00255333 0.0012816 -0.00115423)
(-0.00273709 0.000818753 -0.00115423)
(-0.00283768 0.000331023 -0.00115423)
(-0.00285205 -0.000166766 -0.00115423)
(-0.00277976 -0.000659486 -0.00115423)
(-0.00262302 -0.00113217 -0.00115423)
(-0.00238657 -0.00157045 -0.00115423)
(-0.0020776 -0.00196102 -0.00115423)
(-0.00170551 -0.002292 -0.00115423)
(-0.0012816 -0.00255333 -0.00115423)
(-0.000818753 -0.00273709 -0.00115423)
(-0.000331023 -0.00283768 -0.00115423)
(0.000166766 -0.00285205 -0.00115423)
(0.000659486 -0.00277976 -0.00115423)
(0.00113217 -0.00262302 -0.00115423)
(0.00157045 -0.00238657 -0.00115423)
(0.00196102 -0.0020776 -0.00115423)
(0.002292 -0.00170551 -0.00115423)
(0.00255333 -0.0012816 -0.00115423)
(0.00273709 -0.000818753 -0.00115423)
(0.00283768 -0.000331023 -0.00115423)
(0.00285205 0.000166766 -0.00115423)
(0.00277976 0.000659486 -0.00115423)
(0.00262302 0.00113217 -0.00115423)
(0.00238657 0.00157045 -0.00115423)
(0.0020776 0.00196102 -0.00115423)
(0.00170551 0.002292 -0.00115423)
(0.0012816 0.00255333 -0.00115423)
(0.000818753 0.00273709 -0.00115423)
(0.000331023 0.00283768 -0.00115423)
(-0.000166766 0.00285205 -0.00115423)
(-0.000659486 0.00277976 -0.00115423)
(-0.00113217 0.00262302 -0.00115423)
(-0.00166773 0.00263628 -0.000934358)
(-0.00210018 0.00230663 -0.000934357)
(-0.00246881 0.0019069 -0.000934358)
(-0.00276243 0.00144922 -0.000934357)
(-0.00297212 0.000947515 -0.000934358)
(-0.0030915 0.000417013 -0.000934359)
(-0.00311695 -0.000126155 -0.000934357)
(-0.00304769 -0.00066549 -0.000934358)
(-0.00288582 -0.00118461 -0.000934357)
(-0.00263628 -0.00166773 -0.000934358)
(-0.00230663 -0.00210018 -0.000934357)
(-0.0019069 -0.00246881 -0.000934358)
(-0.00144922 -0.00276243 -0.000934358)
(-0.000947514 -0.00297212 -0.000934358)
(-0.000417013 -0.0030915 -0.000934359)
(0.000126155 -0.00311695 -0.000934357)
(0.00066549 -0.00304769 -0.000934358)
(0.00118461 -0.00288582 -0.000934357)
(0.00166773 -0.00263628 -0.000934358)
(0.00210018 -0.00230663 -0.000934357)
(0.00246881 -0.00190689 -0.000934358)
(0.00276243 -0.00144922 -0.000934358)
(0.00297212 -0.000947514 -0.000934358)
(0.0030915 -0.000417013 -0.000934359)
(0.00311695 0.000126155 -0.000934357)
(0.00304769 0.00066549 -0.000934358)
(0.00288582 0.00118461 -0.000934357)
(0.00263628 0.00166773 -0.000934358)
(0.00230663 0.00210018 -0.000934357)
(0.0019069 0.00246881 -0.000934358)
(0.00144922 0.00276243 -0.000934357)
(0.000947515 0.00297212 -0.000934358)
(0.000417013 0.0030915 -0.000934358)
(-0.000126155 0.00311695 -0.000934357)
(-0.00066549 0.00304769 -0.000934358)
(-0.00118461 0.00288583 -0.000934357)
(-0.00178625 0.0024078 -0.00208805)
(-0.00217722 0.00206104 -0.00208805)
(-0.00250204 0.00165166 -0.00208805)
(-0.00275084 0.00119209 -0.00208805)
(-0.00291605 0.000696304 -0.00208805)
(-0.00299266 0.000179357 -0.00208805)
(-0.00297834 -0.000343036 -0.00208805)
(-0.00287352 -0.000855009 -0.00208805)
(-0.0026814 -0.001341 -0.00208805)
(-0.0024078 -0.00178625 -0.00208805)
(-0.00206104 -0.00217722 -0.00208805)
(-0.00165166 -0.00250204 -0.00208805)
(-0.00119209 -0.00275084 -0.00208805)
(-0.000696304 -0.00291605 -0.00208805)
(-0.000179357 -0.00299266 -0.00208805)
(0.000343037 -0.00297834 -0.00208805)
(0.000855009 -0.00287352 -0.00208805)
(0.001341 -0.0026814 -0.00208805)
(0.00178625 -0.0024078 -0.00208805)
(0.00217722 -0.00206104 -0.00208805)
(0.00250204 -0.00165166 -0.00208805)
(0.00275084 -0.00119209 -0.00208805)
(0.00291605 -0.000696304 -0.00208805)
(0.00299266 -0.000179357 -0.00208805)
(0.00297834 0.000343037 -0.00208805)
(0.00287352 0.000855009 -0.00208805)
(0.0026814 0.001341 -0.00208805)
(0.0024078 0.00178625 -0.00208805)
(0.00206104 0.00217722 -0.00208805)
(0.00165166 0.00250204 -0.00208805)
(0.00119209 0.00275084 -0.00208805)
(0.000696304 0.00291605 -0.00208805)
(0.000179357 0.00299266 -0.00208805)
(-0.000343037 0.00297834 -0.00208805)
(-0.000855009 0.00287352 -0.00208805)
(-0.001341 0.0026814 -0.00208805)
(-0.00184533 0.00266514 -0.00183067)
(-0.00228009 0.00230421 -0.00183067)
(-0.00264558 0.00187327 -0.00183067)
(-0.00293067 0.00138541 -0.00183067)
(-0.00312672 0.000855459 -0.00183067)
(-0.00322777 0.000299513 -0.00183067)
(-0.00323074 -0.000265535 -0.00183067)
(-0.00313555 -0.000822513 -0.00183067)
(-0.00294509 -0.0013545 -0.00183067)
(-0.00266514 -0.00184533 -0.00183067)
(-0.00230421 -0.00228009 -0.00183067)
(-0.00187327 -0.00264558 -0.00183067)
(-0.00138541 -0.00293067 -0.00183067)
(-0.000855459 -0.00312672 -0.00183067)
(-0.000299513 -0.00322777 -0.00183067)
(0.000265535 -0.00323074 -0.00183067)
(0.000822513 -0.00313555 -0.00183067)
(0.0013545 -0.00294509 -0.00183067)
(0.00184533 -0.00266514 -0.00183067)
(0.00228009 -0.00230421 -0.00183067)
(0.00264558 -0.00187327 -0.00183067)
(0.00293067 -0.00138541 -0.00183067)
(0.00312672 -0.000855459 -0.00183067)
(0.00322777 -0.000299513 -0.00183067)
(0.00323074 0.000265535 -0.00183067)
(0.00313555 0.000822513 -0.00183067)
(0.00294509 0.0013545 -0.00183067)
(0.00266514 0.00184533 -0.00183067)
(0.00230421 0.00228009 -0.00183067)
(0.00187327 0.00264558 -0.00183067)
(0.00138541 0.00293067 -0.00183067)
(0.000855459 0.00312672 -0.00183067)
(0.000299513 0.00322777 -0.00183067)
(-0.000265535 0.00323074 -0.00183067)
(-0.000822513 0.00313555 -0.00183067)
(-0.0013545 0.00294509 -0.00183067)
(-0.00193898 0.00289681 -0.00158095)
(-0.00241255 0.00251611 -0.00158095)
(-0.00281282 0.00205894 -0.00158095)
(-0.00312762 0.00153923 -0.00158095)
(-0.00334738 0.000972735 -0.00158095)
(-0.00346544 0.000376691 -0.00158095)
(-0.00347821 -0.000230802 -0.00158095)
(-0.00338529 -0.000831277 -0.00158095)
(-0.00318951 -0.0014065 -0.00158095)
(-0.00289681 -0.00193898 -0.00158095)
(-0.00251611 -0.00241255 -0.00158095)
(-0.00205894 -0.00281282 -0.00158095)
(-0.00153923 -0.00312762 -0.00158095)
(-0.000972735 -0.00334738 -0.00158095)
(-0.000376691 -0.00346544 -0.00158095)
(0.000230802 -0.00347821 -0.00158095)
(0.000831277 -0.00338529 -0.00158095)
(0.0014065 -0.00318951 -0.00158095)
(0.00193898 -0.00289681 -0.00158095)
(0.00241255 -0.00251611 -0.00158095)
(0.00281282 -0.00205894 -0.00158095)
(0.00312762 -0.00153923 -0.00158095)
(0.00334738 -0.000972735 -0.00158095)
(0.00346544 -0.000376691 -0.00158095)
(0.00347821 0.000230802 -0.00158095)
(0.00338529 0.000831277 -0.00158095)
(0.00318951 0.0014065 -0.00158095)
(0.00289681 0.00193898 -0.00158095)
(0.00251611 0.00241255 -0.00158095)
(0.00205894 0.00281282 -0.00158095)
(0.00153923 0.00312762 -0.00158095)
(0.000972735 0.00334738 -0.00158095)
(0.000376691 0.00346544 -0.00158095)
(-0.000230802 0.00347821 -0.00158095)
(-0.000831277 0.00338529 -0.00158095)
(-0.0014065 0.00318951 -0.00158095)
(-0.00205448 0.00308078 -0.00134537)
(-0.00255825 0.00267722 -0.00134537)
(-0.00298428 0.00219231 -0.00134537)
(-0.00331963 0.0016408 -0.00134537)
(-0.00355412 0.00103942 -0.00134537)
(-0.00368061 0.000406466 -0.00134537)
(-0.00369528 -0.000238842 -0.00134537)
(-0.00359766 -0.000876895 -0.00134537)
(-0.00339074 -0.0014883 -0.00134537)
(-0.00308078 -0.00205448 -0.00134537)
(-0.00267722 -0.00255825 -0.00134537)
(-0.00219231 -0.00298428 -0.00134537)
(-0.0016408 -0.00331963 -0.00134537)
(-0.00103942 -0.00355412 -0.00134537)
(-0.000406466 -0.00368061 -0.00134537)
(0.000238843 -0.00369528 -0.00134537)
(0.000876895 -0.00359766 -0.00134537)
(0.0014883 -0.00339074 -0.00134537)
(0.00205448 -0.00308078 -0.00134537)
(0.00255825 -0.00267722 -0.00134537)
(0.00298428 -0.00219231 -0.00134537)
(0.00331963 -0.0016408 -0.00134537)
(0.00355412 -0.00103942 -0.00134537)
(0.00368061 -0.000406466 -0.00134537)
(0.00369528 0.000238843 -0.00134537)
(0.00359766 0.000876895 -0.00134537)
(0.00339074 0.0014883 -0.00134537)
(0.00308078 0.00205448 -0.00134537)
(0.00267722 0.00255825 -0.00134537)
(0.00219231 0.00298428 -0.00134537)
(0.0016408 0.00331963 -0.00134537)
(0.00103942 0.00355412 -0.00134537)
(0.000406466 0.00368061 -0.00134537)
(-0.000238842 0.00369528 -0.00134537)
(-0.000876895 0.00359766 -0.00134537)
(-0.0014883 0.00339074 -0.00134537)
(-0.00213622 0.00303232 -0.00257027)
(-0.00263032 0.0026153 -0.00257027)
(-0.00304451 0.00211881 -0.00257027)
(-0.00336618 0.00155795 -0.00257027)
(-0.00358558 0.000949751 -0.00257027)
(-0.00369603 0.000312694 -0.00257027)
(-0.00369417 -0.000333864 -0.00257027)
(-0.00358008 -0.000970279 -0.00257027)
(-0.0033572 -0.00157721 -0.00257027)
(-0.00303232 -0.00213622 -0.00257027)
(-0.0026153 -0.00263032 -0.00257027)