/*--------------------------------*- C++ -*----------------------------------*\
| =========                 |                                                 |
| \\      /  F ield         | OpenFOAM: The Open Source CFD Toolbox           |
|  \\    /   O peration     | Version:  2312                                  |
|   \\  /    A nd           | Website:  www.openfoam.com                      |
|    \\/     M anipulation  |                                                 |
\*---------------------------------------------------------------------------*/
FoamFile
{
    version     2.0;
    format      ascii;
    arch        "LSB;label=32;scalar=64";
    class       volVectorField;
    location    "0.8";
    object      U;
}
// * * * * * * * * * * * * * * * * * * * * * * * * * * * * * * * * * * * * * //

dimensions      [0 1 -1 0 0 0 0];

internalField   nonuniform List<vector> 
1620
(
(-9.81746e-05 -0.000197707 -0.000154119)
(-6.23516e-05 -0.000211752 -0.00015412)
(-2.46345e-05 -0.000219362 -0.000154119)
(1.38315e-05 -0.000220306 -0.000154119)
(5.18773e-05 -0.000214557 -0.000154119)
(8.83465e-05 -0.000202289 -0.000154119)
(0.000122131 -0.000183874 -0.000154118)
(0.000152205 -0.000159873 -0.000154118)
(0.000177655 -0.000131014 -0.000154119)
(0.000197707 -9.81743e-05 -0.000154119)
(0.000211751 -6.23513e-05 -0.000154119)
(0.000219362 -2.46342e-05 -0.000154119)
(0.000220306 1.38318e-05 -0.000154118)
(0.000214557 5.18776e-05 -0.000154119)
(0.000202289 8.83467e-05 -0.000154119)
(0.000183874 0.000122131 -0.000154118)
(0.000159873 0.000152205 -0.000154118)
(0.000131014 0.000177655 -0.000154119)
(9.81741e-05 0.000197707 -0.000154119)
(6.23511e-05 0.000211752 -0.000154119)
(2.4634e-05 0.000219362 -0.000154119)
(-1.38319e-05 0.000220306 -0.000154118)
(-5.18777e-05 0.000214557 -0.000154119)
(-8.83468e-05 0.000202289 -0.000154119)
(-0.000122131 0.000183874 -0.000154118)
(-0.000152205 0.000159873 -0.000154118)
(-0.000177655 0.000131014 -0.000154119)
(-0.000197707 9.81744e-05 -0.000154119)
(-0.000211752 6.23514e-05 -0.00015412)
(-0.000219362 2.46343e-05 -0.000154119)
(-0.000220306 -1.38317e-05 -0.000154119)
(-0.000214557 -5.18775e-05 -0.000154119)
(-0.000202289 -8.83466e-05 -0.000154119)
(-0.000183875 -0.000122131 -0.000154118)
(-0.000159873 -0.000152205 -0.000154119)
(-0.000131015 -0.000177655 -0.000154119)
(-3.05465e-05 -6.94599e-05 -0.000113258)
(-1.80207e-05 -7.37092e-05 -0.000113258)
(-4.94749e-06 -7.57186e-05 -0.000113258)
(8.27589e-06 -7.54273e-05 -0.000113258)
(2.12477e-05 -7.28441e-05 -0.000113258)
(3.35739e-05 -6.80475e-05 -0.000113258)
(4.488e-05 -6.11837e-05 -0.000113257)
(5.48226e-05 -5.24607e-05 -0.000113258)
(6.30999e-05 -4.21439e-05 -0.000113258)
(6.94598e-05 -3.05463e-05 -0.000113258)
(7.3709e-05 -1.80205e-05 -0.000113258)
(7.57184e-05 -4.94735e-06 -0.000113258)
(7.54271e-05 8.27603e-06 -0.000113257)
(7.28439e-05 2.12478e-05 -0.000113258)
(6.80473e-05 3.3574e-05 -0.000113257)
(6.11835e-05 4.48801e-05 -0.000113257)
(5.24605e-05 5.48227e-05 -0.000113257)
(4.21437e-05 6.31e-05 -0.000113258)
(3.05462e-05 6.94599e-05 -0.000113258)
(1.80204e-05 7.37091e-05 -0.000113258)
(4.94719e-06 7.57185e-05 -0.000113258)
(-8.27619e-06 7.54272e-05 -0.000113257)
(-2.1248e-05 7.2844e-05 -0.000113258)
(-3.35741e-05 6.80475e-05 -0.000113258)
(-4.48803e-05 6.11837e-05 -0.000113257)
(-5.48229e-05 5.24606e-05 -0.000113258)
(-6.31002e-05 4.21438e-05 -0.000113258)
(-6.94601e-05 3.05463e-05 -0.000113258)
(-7.37093e-05 1.80205e-05 -0.000113258)
(-7.57187e-05 4.94734e-06 -0.000113258)
(-7.54274e-05 -8.27604e-06 -0.000113258)
(-7.28442e-05 -2.12479e-05 -0.000113258)
(-6.80477e-05 -3.3574e-05 -0.000113258)
(-6.11838e-05 -4.48802e-05 -0.000113257)
(-5.24608e-05 -5.48227e-05 -0.000113258)
(-4.2144e-05 -6.31e-05 -0.000113258)
(2.02836e-05 7.24038e-05 -8.67747e-05)
(7.4029e-06 7.48258e-05 -8.67747e-05)
(-5.70307e-06 7.49748e-05 -8.6775e-05)
(-1.86357e-05 7.28456e-05 -8.67748e-05)
(-3.10023e-05 6.85027e-05 -8.67748e-05)
(-4.24272e-05 6.20788e-05 -8.67746e-05)
(-5.25623e-05 5.37679e-05 -8.67748e-05)
(-6.11006e-05 4.38238e-05 -8.67749e-05)
(-6.7782e-05 3.25481e-05 -8.67746e-05)
(-7.24039e-05 2.02836e-05 -8.67746e-05)
(-7.48259e-05 7.40293e-06 -8.67745e-05)
(-7.49749e-05 -5.70304e-06 -8.67748e-05)
(-7.28457e-05 -1.86357e-05 -8.67746e-05)
(-6.85028e-05 -3.10022e-05 -8.67747e-05)
(-6.20788e-05 -4.24271e-05 -8.67745e-05)
(-5.3768e-05 -5.25622e-05 -8.67747e-05)
(-4.38239e-05 -6.11006e-05 -8.67748e-05)
(-3.25482e-05 -6.77819e-05 -8.67745e-05)
(-2.02838e-05 -7.24039e-05 -8.67745e-05)
(-7.40307e-06 -7.48258e-05 -8.67745e-05)
(5.70288e-06 -7.49748e-05 -8.67748e-05)
(1.86355e-05 -7.28456e-05 -8.67746e-05)
(3.10021e-05 -6.85027e-05 -8.67747e-05)
(4.2427e-05 -6.20788e-05 -8.67746e-05)
(5.25621e-05 -5.3768e-05 -8.67748e-05)
(6.11004e-05 -4.38239e-05 -8.67749e-05)
(6.77817e-05 -3.25482e-05 -8.67747e-05)
(7.24037e-05 -2.02837e-05 -8.67747e-05)
(7.48257e-05 -7.40304e-06 -8.67747e-05)
(7.49747e-05 5.70292e-06 -8.6775e-05)
(7.28455e-05 1.86356e-05 -8.67748e-05)
(6.85026e-05 3.10021e-05 -8.67749e-05)
(6.20787e-05 4.2427e-05 -8.67747e-05)
(5.37679e-05 5.25621e-05 -8.67749e-05)
(4.38237e-05 6.11005e-05 -8.6775e-05)
(3.25481e-05 6.77818e-05 -8.67748e-05)
(-0.000144303 -0.000436255 -0.00040137)
(-6.63552e-05 -0.000454686 -0.000401371)
(1.36075e-05 -0.000459301 -0.00040137)
(9.31566e-05 -0.000449959 -0.000401368)
(0.000169875 -0.000426945 -0.000401367)
(0.000241433 -0.00039096 -0.000401367)
(0.000305655 -0.000343096 -0.000401368)
(0.00036059 -0.000284807 -0.000401368)
(0.000404569 -0.000217865 -0.000401369)
(0.000436255 -0.000144302 -0.000401369)
(0.000454686 -6.63547e-05 -0.00040137)
(0.0004593 1.36081e-05 -0.00040137)
(0.000449958 9.31572e-05 -0.000401367)
(0.000426944 0.000169876 -0.000401366)
(0.000390959 0.000241434 -0.000401367)
(0.000343095 0.000305655 -0.000401367)
(0.000284806 0.00036059 -0.000401368)
(0.000217864 0.000404569 -0.000401369)
(0.000144301 0.000436255 -0.000401369)
(6.63541e-05 0.000454686 -0.00040137)
(-1.36086e-05 0.000459301 -0.00040137)
(-9.31577e-05 0.000449958 -0.000401367)
(-0.000169876 0.000426945 -0.000401366)
(-0.000241434 0.00039096 -0.000401367)
(-0.000305656 0.000343096 -0.000401368)
(-0.000360591 0.000284807 -0.000401368)
(-0.00040457 0.000217865 -0.000401369)
(-0.000436256 0.000144302 -0.00040137)
(-0.000454687 6.63547e-05 -0.000401371)
(-0.000459301 -1.3608e-05 -0.00040137)
(-0.000449959 -9.31571e-05 -0.000401368)
(-0.000426945 -0.000169876 -0.000401367)
(-0.00039096 -0.000241434 -0.000401368)
(-0.000343096 -0.000305655 -0.000401368)
(-0.000284807 -0.00036059 -0.000401369)
(-0.000217865 -0.000404569 -0.00040137)
(-9.26004e-05 -0.000185226 -0.00031224)
(-5.90291e-05 -0.000198492 -0.00031224)
(-2.36646e-05 -0.000205727 -0.00031224)
(1.24185e-05 -0.00020671 -0.000312239)
(4.81239e-05 -0.000201412 -0.000312239)
(8.23675e-05 -0.000189996 -0.000312239)
(0.000114109 -0.000172807 -0.000312239)
(0.000142382 -0.000150366 -0.000312239)
(0.000166331 -0.000123357 -0.000312239)
(0.000185225 -9.26e-05 -0.00031224)
(0.000198492 -5.90287e-05 -0.00031224)
(0.000205726 -2.36642e-05 -0.00031224)
(0.000206709 1.24189e-05 -0.000312239)
(0.000201412 4.81243e-05 -0.000312238)
(0.000189995 8.23679e-05 -0.000312238)
(0.000172806 0.000114109 -0.000312239)
(0.000150366 0.000142383 -0.000312239)
(0.000123357 0.000166331 -0.000312239)
(9.25995e-05 0.000185225 -0.000312239)
(5.90282e-05 0.000198492 -0.00031224)
(2.36637e-05 0.000205727 -0.00031224)
(-1.24194e-05 0.00020671 -0.000312239)
(-4.81248e-05 0.000201412 -0.000312238)
(-8.23684e-05 0.000189996 -0.000312239)
(-0.000114109 0.000172806 -0.000312239)
(-0.000142383 0.000150366 -0.000312239)
(-0.000166332 0.000123357 -0.00031224)
(-0.000185226 9.25999e-05 -0.00031224)
(-0.000198492 5.90287e-05 -0.00031224)
(-0.000205727 2.36641e-05 -0.00031224)
(-0.00020671 -1.24189e-05 -0.000312239)
(-0.000201413 -4.81243e-05 -0.000312239)
(-0.000189996 -8.23679e-05 -0.000312239)
(-0.000172807 -0.000114109 -0.000312239)
(-0.000150367 -0.000142383 -0.000312239)
(-0.000123358 -0.000166331 -0.00031224)
(-7.0481e-05 7.62892e-05 -0.000224478)
(-8.26569e-05 6.28912e-05 -0.000224478)
(-9.23216e-05 4.75824e-05 -0.000224478)
(-9.91819e-05 3.08285e-05 -0.000224478)
(-0.000103029 1.31374e-05 -0.000224478)
(-0.000103746 -4.95311e-06 -0.000224478)
(-0.00010131 -2.28936e-05 -0.000224478)
(-9.57955e-05 -4.01377e-05 -0.000224478)
(-8.73697e-05 -5.61626e-05 -0.000224478)
(-7.62896e-05 -7.04807e-05 -0.000224478)
(-6.28916e-05 -8.26567e-05 -0.000224478)
(-4.75828e-05 -9.23214e-05 -0.000224478)
(-3.08289e-05 -9.91816e-05 -0.000224478)
(-1.31378e-05 -0.000103028 -0.000224478)
(4.95269e-06 -0.000103745 -0.000224477)
(2.28931e-05 -0.000101309 -0.000224478)
(4.01373e-05 -9.57952e-05 -0.000224478)
(5.61622e-05 -8.73694e-05 -0.000224478)
(7.04802e-05 -7.62893e-05 -0.000224478)
(8.26562e-05 -6.28913e-05 -0.000224478)
(9.23209e-05 -4.75825e-05 -0.000224478)
(9.91811e-05 -3.08286e-05 -0.000224478)
(0.000103028 -1.31375e-05 -0.000224478)
(0.000103745 4.95297e-06 -0.000224478)
(0.000101309 2.28934e-05 -0.000224478)
(9.57948e-05 4.01376e-05 -0.000224478)
(8.7369e-05 5.61625e-05 -0.000224478)
(7.62889e-05 7.04805e-05 -0.000224478)
(6.28909e-05 8.26565e-05 -0.000224478)
(4.75821e-05 9.23212e-05 -0.000224478)
(3.08282e-05 9.91814e-05 -0.000224478)
(1.31371e-05 0.000103028 -0.000224478)
(-4.95341e-06 0.000103745 -0.000224478)
(-2.28939e-05 0.000101309 -0.000224478)
(-4.0138e-05 9.57951e-05 -0.000224478)
(-5.61629e-05 8.73693e-05 -0.000224478)
(-0.000166677 -0.000584515 -0.000649984)
(-6.26446e-05 -0.000604578 -0.000649984)
(4.32905e-05 -0.000606271 -0.000649984)
(0.00014791 -0.000589542 -0.000649982)
(0.000248035 -0.0005549 -0.00064998)
(0.000340624 -0.000503399 -0.00064998)
(0.000422864 -0.000436602 -0.00064998)
(0.000492256 -0.000356539 -0.000649981)
(0.000546691 -0.000265643 -0.000649983)
(0.000584514 -0.000166676 -0.000649984)
(0.000604578 -6.26438e-05 -0.000649983)
(0.00060627 4.32913e-05 -0.000649983)
(0.000589541 0.000147911 -0.000649981)
(0.000554899 0.000248035 -0.00064998)
(0.000503398 0.000340625 -0.000649979)
(0.000436601 0.000422865 -0.00064998)
(0.000356538 0.000492256 -0.000649981)
(0.000265642 0.000546692 -0.000649983)
(0.000166675 0.000584515 -0.000649983)
(6.26429e-05 0.000604578 -0.000649983)
(-4.32922e-05 0.000606271 -0.000649983)
(-0.000147912 0.000589542 -0.000649981)
(-0.000248036 0.0005549 -0.00064998)
(-0.000340625 0.000503398 -0.00064998)
(-0.000422865 0.000436602 -0.00064998)
(-0.000492257 0.000356539 -0.000649981)
(-0.000546692 0.000265643 -0.000649983)
(-0.000584516 0.000166676 -0.000649984)
(-0.000604579 6.26438e-05 -0.000649984)
(-0.000606272 -4.32914e-05 -0.000649984)
(-0.000589542 -0.000147911 -0.000649982)
(-0.000554901 -0.000248035 -0.000649981)
(-0.000503399 -0.000340625 -0.00064998)
(-0.000436603 -0.000422865 -0.000649981)
(-0.00035654 -0.000492256 -0.000649982)
(-0.000265644 -0.000546692 -0.000649984)
(-0.00015329 -0.000259256 -0.000525623)
(-0.000105942 -0.000281936 -0.000525624)
(-5.53745e-05 -0.000296049 -0.000525623)
(-3.12521e-06 -0.000301166 -0.000525622)
(4.92183e-05 -0.000297132 -0.000525621)
(0.000100067 -0.000284072 -0.000525621)
(0.000147875 -0.00026238 -0.000525621)
(0.000191191 -0.000232716 -0.000525622)
(0.000228697 -0.00019598 -0.000525622)
(0.000259255 -0.000153289 -0.000525623)
(0.000281935 -0.000105941 -0.000525623)
(0.000296048 -5.53738e-05 -0.000525622)
(0.000301165 -3.12453e-06 -0.000525622)
(0.000297131 4.9219e-05 -0.000525621)
(0.000284071 0.000100068 -0.000525621)
(0.000262379 0.000147876 -0.000525621)
(0.000232715 0.000191191 -0.000525621)
(0.000195979 0.000228698 -0.000525622)
(0.000153289 0.000259256 -0.000525622)
(0.00010594 0.000281936 -0.000525623)
(5.5373e-05 0.000296049 -0.000525623)
(3.12375e-06 0.000301166 -0.000525622)
(-4.92197e-05 0.000297132 -0.000525621)
(-0.000100069 0.000284072 -0.000525621)
(-0.000147877 0.00026238 -0.000525621)
(-0.000191192 0.000232715 -0.000525622)
(-0.000228699 0.00019598 -0.000525623)
(-0.000259256 0.000153289 -0.000525623)
(-0.000281937 0.000105941 -0.000525623)
(-0.000296049 5.53737e-05 -0.000525623)
(-0.000301167 3.12444e-06 -0.000525623)
(-0.000297133 -4.92191e-05 -0.000525622)
(-0.000284073 -0.000100068 -0.000525622)
(-0.000262381 -0.000147876 -0.000525622)
(-0.000232716 -0.000191192 -0.000525622)
(-0.000195981 -0.000228698 -0.000525623)
(-0.000182903 6.24746e-05 -0.000404808)
(-0.000190972 2.97646e-05 -0.000404808)
(-0.000193239 -3.84915e-06 -0.000404808)
(-0.000189635 -3.73458e-05 -0.000404808)
(-0.000180269 -6.97081e-05 -0.000404808)
(-0.000165427 -9.99529e-05 -0.000404808)
(-0.000145557 -0.000127161 -0.000404807)
(-0.000121265 -0.000150505 -0.000404807)
(-9.32872e-05 -0.000169276 -0.000404807)
(-6.24753e-05 -0.000182902 -0.000404807)
(-2.97653e-05 -0.000190971 -0.000404807)
(3.84841e-06 -0.000193238 -0.000404807)
(3.7345e-05 -0.000189634 -0.000404807)
(6.97074e-05 -0.000180269 -0.000404807)
(9.99521e-05 -0.000165426 -0.000404807)
(0.00012716 -0.000145556 -0.000404807)
(0.000150504 -0.000121264 -0.000404807)
(0.000169275 -9.32867e-05 -0.000404807)
(0.000182902 -6.24748e-05 -0.000404807)
(0.000190971 -2.97648e-05 -0.000404807)
(0.000193238 3.84896e-06 -0.000404807)
(0.000189634 3.73456e-05 -0.000404807)
(0.000180268 6.97079e-05 -0.000404808)
(0.000165425 9.99527e-05 -0.000404808)
(0.000145556 0.00012716 -0.000404807)
(0.000121263 0.000150504 -0.000404807)
(9.3286e-05 0.000169275 -0.000404808)
(6.24741e-05 0.000182902 -0.000404808)
(2.97641e-05 0.000190971 -0.000404808)
(-3.84969e-06 0.000193238 -0.000404808)
(-3.73463e-05 0.000189634 -0.000404808)
(-6.97087e-05 0.000180269 -0.000404808)
(-9.99534e-05 0.000165426 -0.000404808)
(-0.000127161 0.000145556 -0.000404808)
(-0.000150505 0.000121264 -0.000404808)
(-0.000169276 9.32865e-05 -0.000404808)
(-0.000163624 -0.00060693 -0.000856336)
(-5.57465e-05 -0.000626122 -0.000856336)
(5.38252e-05 -0.000626289 -0.000856336)
(0.000161761 -0.000607427 -0.000856335)
(0.000264782 -0.000570109 -0.000856334)
(0.000359757 -0.000515469 -0.000856333)
(0.000443802 -0.000445166 -0.000856332)
(0.000514363 -0.000361337 -0.000856333)
(0.000569295 -0.000266529 -0.000856334)
(0.000606929 -0.000163623 -0.000856335)
(0.000626121 -5.57454e-05 -0.000856335)
(0.000626288 5.38262e-05 -0.000856334)
(0.000607426 0.000161762 -0.000856333)
(0.000570108 0.000264783 -0.000856333)
(0.000515467 0.000359758 -0.000856332)
(0.000445165 0.000443803 -0.000856332)
(0.000361336 0.000514364 -0.000856332)
(0.000266528 0.000569296 -0.000856333)
(0.000163622 0.000606929 -0.000856334)
(5.57442e-05 0.000626122 -0.000856335)
(-5.38274e-05 0.000626289 -0.000856334)
(-0.000161763 0.000607427 -0.000856334)
(-0.000264784 0.000570109 -0.000856333)
(-0.000359759 0.000515468 -0.000856333)
(-0.000443804 0.000445166 -0.000856333)
(-0.000514365 0.000361337 -0.000856333)
(-0.000569297 0.000266529 -0.000856334)
(-0.000606931 0.000163623 -0.000856335)
(-0.000626123 5.57453e-05 -0.000856336)
(-0.00062629 -5.38263e-05 -0.000856336)
(-0.000607428 -0.000161762 -0.000856335)
(-0.00057011 -0.000264783 -0.000856334)
(-0.00051547 -0.000359758 -0.000856334)
(-0.000445167 -0.000443803 -0.000856333)
(-0.000361339 -0.000514364 -0.000856334)
(-0.00026653 -0.000569296 -0.000856335)
(-0.000198343 -0.000270338 -0.000716788)
(-0.000148386 -0.000300673 -0.000716788)
(-9.39203e-05 -0.000321871 -0.000716788)
(-3.6601e-05 -0.00033329 -0.000716787)
(2.18303e-05 -0.000334582 -0.000716787)
(7.95976e-05 -0.000325708 -0.000716787)
(0.000134947 -0.000306938 -0.000716786)
(0.000186196 -0.000278842 -0.000716786)
(0.000231788 -0.000242273 -0.000716787)
(0.000270337 -0.000198342 -0.000716787)
(0.000300672 -0.000148385 -0.000716787)
(0.00032187 -9.39193e-05 -0.000716787)
(0.000333289 -3.66e-05 -0.000716786)
(0.000334581 2.18312e-05 -0.000716786)
(0.000325707 7.95985e-05 -0.000716786)
(0.000306937 0.000134948 -0.000716786)
(0.000278841 0.000186197 -0.000716786)
(0.000242272 0.000231789 -0.000716786)
(0.000198341 0.000270338 -0.000716787)
(0.000148384 0.000300673 -0.000716787)
(9.39182e-05 0.000321871 -0.000716787)
(3.6599e-05 0.00033329 -0.000716787)
(-2.18322e-05 0.000334582 -0.000716787)
(-7.95996e-05 0.000325708 -0.000716786)
(-0.000134949 0.000306938 -0.000716786)
(-0.000186198 0.000278842 -0.000716787)
(-0.00023179 0.000242273 -0.000716787)
(-0.000270339 0.000198342 -0.000716788)
(-0.000300674 0.000148385 -0.000716788)
(-0.000321872 9.39192e-05 -0.000716788)
(-0.000333291 3.65999e-05 -0.000716788)
(-0.000334583 -2.18313e-05 -0.000716788)
(-0.000325709 -7.95987e-05 -0.000716787)
(-0.000306939 -0.000134948 -0.000716787)
(-0.000278843 -0.000186197 -0.000716787)
(-0.000242274 -0.000231789 -0.000716788)
(-0.000282087 4.31281e-05 -0.000588338)
(-0.00028529 -6.51105e-06 -0.000588338)
(-0.000279825 -5.59517e-05 -0.000588338)
(-0.000265858 -0.000103692 -0.000588338)
(-0.000243813 -0.000148283 -0.000588338)
(-0.000214361 -0.000188368 -0.000588338)
(-0.000178394 -0.00022273 -0.000588338)
(-0.000137007 -0.000250324 -0.000588338)
(-9.1458e-05 -0.000270312 -0.000588337)
(-4.31291e-05 -0.000282086 -0.000588337)
(6.51002e-06 -0.00028529 -0.000588337)
(5.59506e-05 -0.000279825 -0.000588337)
(0.000103691 -0.000265857 -0.000588337)
(0.000148282 -0.000243812 -0.000588337)
(0.000188367 -0.00021436 -0.000588337)
(0.000222729 -0.000178394 -0.000588337)
(0.000250323 -0.000137007 -0.000588337)
(0.000270311 -9.14572e-05 -0.000588337)
(0.000282085 -4.31283e-05 -0.000588337)
(0.000285289 6.51083e-06 -0.000588337)
(0.000279824 5.59514e-05 -0.000588337)
(0.000265856 0.000103692 -0.000588337)
(0.000243811 0.000148283 -0.000588337)
(0.000214359 0.000188368 -0.000588337)
(0.000178393 0.00022273 -0.000588338)
(0.000137006 0.000250324 -0.000588338)
(9.14562e-05 0.000270312 -0.000588338)
(4.31273e-05 0.000282086 -0.000588338)
(-6.51188e-06 0.000285289 -0.000588338)
(-5.59525e-05 0.000279824 -0.000588338)
(-0.000103693 0.000265857 -0.000588338)
(-0.000148284 0.000243812 -0.000588338)
(-0.000188369 0.00021436 -0.000588338)
(-0.000222731 0.000178393 -0.000588338)
(-0.000250325 0.000137007 -0.000588338)
(-0.000270313 9.1457e-05 -0.000588338)
(-0.000143162 -0.000509103 -0.00101352)
(-5.2582e-05 -0.000526228 -0.00101352)
(3.95951e-05 -0.000527363 -0.00101352)
(0.000130569 -0.000512475 -0.00101352)
(0.000217576 -0.000482016 -0.00101352)
(0.000297972 -0.000436911 -0.00101352)
(0.000369314 -0.000378532 -0.00101352)
(0.000429435 -0.00030865 -0.00101351)
(0.000476508 -0.00022939 -0.00101352)
(0.000509101 -0.00014316 -0.00101352)
(0.000526227 -5.25806e-05 -0.00101352)
(0.000527362 3.95965e-05 -0.00101352)
(0.000512474 0.000130571 -0.00101352)
(0.000482014 0.000217578 -0.00101351)
(0.00043691 0.000297974 -0.00101351)
(0.00037853 0.000369315 -0.00101351)
(0.000308648 0.000429436 -0.00101351)
(0.000229389 0.000476509 -0.00101351)
(0.000143159 0.000509102 -0.00101352)
(5.25792e-05 0.000526228 -0.00101352)
(-3.95979e-05 0.000527363 -0.00101352)
(-0.000130572 0.000512475 -0.00101352)
(-0.000217579 0.000482016 -0.00101352)
(-0.000297975 0.000436911 -0.00101352)
(-0.000369317 0.000378531 -0.00101352)
(-0.000429438 0.00030865 -0.00101352)
(-0.00047651 0.00022939 -0.00101352)
(-0.000509104 0.00014316 -0.00101352)
(-0.000526229 5.25805e-05 -0.00101352)
(-0.000527364 -3.95965e-05 -0.00101352)
(-0.000512476 -0.000130571 -0.00101352)
(-0.000482017 -0.000217578 -0.00101352)
(-0.000436913 -0.000297974 -0.00101352)
(-0.000378533 -0.000369316 -0.00101352)
(-0.000308651 -0.000429437 -0.00101352)
(-0.000229391 -0.000476509 -0.00101352)
(-0.000220888 -0.000204177 -0.000872996)
(-0.000182077 -0.000239432 -0.000872997)
(-0.000137734 -0.00026741 -0.000872996)
(-8.92064e-05 -0.000287264 -0.000872996)
(-3.79681e-05 -0.000298391 -0.000872995)
(1.44237e-05 -0.000300451 -0.000872995)
(6.63776e-05 -0.000293381 -0.000872995)
(0.000116315 -0.000277398 -0.000872995)
(0.000162717 -0.000252986 -0.000872995)
(0.000204175 -0.000220887 -0.000872995)
(0.00023943 -0.000182076 -0.000872995)
(0.000267409 -0.000137733 -0.000872995)
(0.000287263 -8.92052e-05 -0.000872994)
(0.000298389 -3.79669e-05 -0.000872994)
(0.000300449 1.44249e-05 -0.000872994)
(0.00029338 6.63787e-05 -0.000872994)
(0.000277397 0.000116316 -0.000872994)
(0.000252984 0.000162718 -0.000872994)
(0.000220885 0.000204177 -0.000872995)
(0.000182074 0.000239431 -0.000872995)
(0.000137732 0.00026741 -0.000872995)
(8.92039e-05 0.000287264 -0.000872995)
(3.79656e-05 0.00029839 -0.000872995)
(-1.44262e-05 0.00030045 -0.000872995)
(-6.638e-05 0.000293381 -0.000872995)
(-0.000116317 0.000277398 -0.000872995)
(-0.000162719 0.000252986 -0.000872995)
(-0.000204178 0.000220887 -0.000872996)
(-0.000239433 0.000182076 -0.000872997)
(-0.000267411 0.000137733 -0.000872996)
(-0.000287266 8.92051e-05 -0.000872996)
(-0.000298392 3.79668e-05 -0.000872996)
(-0.000300452 -1.4425e-05 -0.000872996)
(-0.000293383 -6.63789e-05 -0.000872996)
(-0.000277399 -0.000116316 -0.000872996)
(-0.000252987 -0.000162718 -0.000872996)
(-0.000346611 5.85433e-05 -0.000753648)
(-0.000351511 -2.53401e-06 -0.000753648)
(-0.000345731 -6.35342e-05 -0.000753648)
(-0.000329445 -0.000122604 -0.000753647)
(-0.00030315 -0.000177949 -0.000753647)
(-0.000267644 -0.000227887 -0.000753647)
(-0.000224006 -0.000270901 -0.000753647)
(-0.000173561 -0.000305684 -0.000753647)
(-0.000117844 -0.000331178 -0.000753647)
(-5.85447e-05 -0.00034661 -0.000753647)
(2.53269e-06 -0.00035151 -0.000753647)
(6.35328e-05 -0.000345729 -0.000753646)
(0.000122603 -0.000329444 -0.000753646)
(0.000177948 -0.000303149 -0.000753646)
(0.000227886 -0.000267643 -0.000753646)
(0.0002709 -0.000224005 -0.000753646)
(0.000305682 -0.00017356 -0.000753646)
(0.000331177 -0.000117842 -0.000753646)
(0.000346608 -5.85436e-05 -0.000753646)
(0.000351509 2.53376e-06 -0.000753646)
(0.000345728 6.35339e-05 -0.000753647)
(0.000329443 0.000122604 -0.000753647)
(0.000303148 0.000177949 -0.000753647)
(0.000267642 0.000227887 -0.000753647)
(0.000224004 0.000270901 -0.000753647)
(0.000173559 0.000305684 -0.000753647)
(0.000117841 0.000331178 -0.000753647)
(5.85422e-05 0.00034661 -0.000753648)
(-2.53513e-06 0.00035151 -0.000753648)
(-6.35353e-05 0.000345729 -0.000753648)
(-0.000122605 0.000329444 -0.000753648)
(-0.00017795 0.000303149 -0.000753648)
(-0.000227888 0.000267643 -0.000753648)
(-0.000270902 0.000224005 -0.000753648)
(-0.000305685 0.00017356 -0.000753648)
(-0.000331179 0.000117842 -0.000753648)
(-0.00012032 -0.000318477 -0.00114143)
(-6.31889e-05 -0.000334531 -0.00114143)
(-4.13824e-06 -0.000340421 -0.00114143)
(5.50379e-05 -0.000335967 -0.00114143)
(0.000112542 -0.000321306 -0.00114143)
(0.000166627 -0.000296881 -0.00114143)
(0.000215649 -0.000263436 -0.00114143)
(0.000258118 -0.000221987 -0.00114143)
(0.000292744 -0.000173793 -0.00114143)
(0.000318475 -0.000120318 -0.00114143)
(0.00033453 -6.31872e-05 -0.00114143)
(0.000340419 -4.13662e-06 -0.00114143)
(0.000335966 5.50395e-05 -0.00114143)
(0.000321304 0.000112544 -0.00114143)
(0.000296879 0.000166629 -0.00114143)
(0.000263434 0.00021565 -0.00114143)
(0.000221985 0.000258119 -0.00114143)
(0.000173791 0.000292745 -0.00114143)
(0.000120316 0.000318476 -0.00114143)
(6.31856e-05 0.000334531 -0.00114143)
(4.135e-06 0.000340421 -0.00114143)
(-5.5041e-05 0.000335967 -0.00114143)
(-0.000112546 0.000321305 -0.00114143)
(-0.00016663 0.000296881 -0.00114143)
(-0.000215652 0.000263436 -0.00114143)
(-0.000258121 0.000221987 -0.00114143)
(-0.000292747 0.000173793 -0.00114143)
(-0.000318478 0.000120318 -0.00114143)
(-0.000334533 6.31872e-05 -0.00114143)
(-0.000340422 4.1366e-06 -0.00114143)
(-0.000335969 -5.50395e-05 -0.00114143)
(-0.000321307 -0.000112544 -0.00114143)
(-0.000296883 -0.000166629 -0.00114143)
(-0.000263438 -0.00021565 -0.00114143)
(-0.000221989 -0.00025812 -0.00114143)
(-0.000173795 -0.000292745 -0.00114143)
(-0.000226899 -6.26755e-05 -0.00100305)
(-0.000212569 -0.000101124 -0.00100305)
(-0.000191779 -0.000136499 -0.00100305)
(-0.000165163 -0.000167727 -0.00100305)
(-0.000133528 -0.000193858 -0.00100305)
(-9.78362e-05 -0.0002141 -0.00100305)
(-5.91713e-05 -0.000227836 -0.00100305)
(-1.8709e-05 -0.00023465 -0.00100305)
(2.23214e-05 -0.000234334 -0.00100305)
(6.26738e-05 -0.000226898 -0.00100305)
(0.000101122 -0.000212567 -0.00100305)
(0.000136497 -0.000191778 -0.00100305)
(0.000167725 -0.000165162 -0.00100305)
(0.000193857 -0.000133527 -0.00100305)
(0.000214098 -9.78348e-05 -0.00100305)
(0.000227835 -5.91699e-05 -0.00100305)
(0.000234648 -1.87076e-05 -0.00100305)
(0.000234332 2.23227e-05 -0.00100305)
(0.000226896 6.26751e-05 -0.00100305)
(0.000212565 0.000101123 -0.00100305)
(0.000191776 0.000136498 -0.00100305)
(0.00016516 0.000167726 -0.00100305)
(0.000133525 0.000193858 -0.00100305)
(9.78332e-05 0.0002141 -0.00100305)
(5.91683e-05 0.000227836 -0.00100305)
(1.8706e-05 0.00023465 -0.00100305)
(-2.23243e-05 0.000234334 -0.00100305)
(-6.26768e-05 0.000226898 -0.00100305)
(-0.000101125 0.000212567 -0.00100305)
(-0.0001365 0.000191778 -0.00100305)
(-0.000167728 0.000165162 -0.00100305)
(-0.00019386 0.000133527 -0.00100305)
(-0.000214101 9.78346e-05 -0.00100305)
(-0.000227838 5.91697e-05 -0.00100305)
(-0.000234652 1.87074e-05 -0.00100305)
(-0.000234336 -2.2323e-05 -0.00100305)
(-0.000377085 0.000134753 -0.000896099)
(-0.000394756 6.72264e-05 -0.000896099)
(-0.000400433 -2.34308e-06 -0.000896098)
(-0.000393943 -7.18412e-05 -0.000896098)
(-0.000375483 -0.000139157 -0.000896098)
(-0.000345614 -0.000202245 -0.000896098)
(-0.000305243 -0.000259187 -0.000896098)
(-0.000255598 -0.000308254 -0.000896098)
(-0.000198188 -0.000347955 -0.000896097)
(-0.000134755 -0.000377084 -0.000896097)
(-6.7228e-05 -0.000394755 -0.000896097)
(2.3414e-06 -0.000400431 -0.000896097)
(7.18395e-05 -0.000393941 -0.000896097)
(0.000139155 -0.000375481 -0.000896097)
(0.000202243 -0.000345612 -0.000896097)
(0.000259185 -0.000305242 -0.000896097)
(0.000308253 -0.000255597 -0.000896097)
(0.000347954 -0.000198186 -0.000896097)
(0.000377082 -0.000134754 -0.000896097)
(0.000394753 -6.72267e-05 -0.000896097)
(0.00040043 2.34277e-06 -0.000896097)
(0.00039394 7.18409e-05 -0.000896098)
(0.00037548 0.000139157 -0.000896098)
(0.000345611 0.000202245 -0.000896098)
(0.00030524 0.000259187 -0.000896098)
(0.000255595 0.000308254 -0.000896098)
(0.000198185 0.000347955 -0.000896098)
(0.000134752 0.000377084 -0.000896098)
(6.7225e-05 0.000394755 -0.000896099)
(-2.34447e-06 0.000400431 -0.000896099)
(-7.18426e-05 0.000393941 -0.000896099)
(-0.000139159 0.000375481 -0.000896099)
(-0.000202246 0.000345612 -0.000896099)
(-0.000259189 0.000305242 -0.000896099)
(-0.000308256 0.000255597 -0.000896099)
(-0.000347957 0.000198186 -0.000896099)
(-0.000118738 -7.05643e-05 -0.00126574)
(-0.000104681 -9.01107e-05 -0.00126574)
(-8.7443e-05 -0.000106918 -0.00126574)
(-6.75489e-05 -0.000120478 -0.00126574)
(-4.56013e-05 -0.000130377 -0.00126574)
(-2.22689e-05 -0.000136314 -0.00126574)
(1.74081e-06 -0.00013811 -0.00126574)
(2.56972e-05 -0.000135709 -0.00126574)
(4.8872e-05 -0.000129185 -0.00126574)
(7.05623e-05 -0.000118736 -0.00126574)
(9.01087e-05 -0.000104679 -0.00126574)
(0.000106916 -8.74411e-05 -0.00126574)
(0.000120476 -6.75471e-05 -0.00126574)
(0.000130375 -4.55995e-05 -0.00126574)
(0.000136312 -2.22672e-05 -0.00126574)
(0.000138108 1.74247e-06 -0.00126574)
(0.000135707 2.56989e-05 -0.00126574)
(0.000129183 4.88736e-05 -0.00126574)
(0.000118734 7.05639e-05 -0.00126574)
(0.000104677 9.01103e-05 -0.00126574)
(8.74392e-05 0.000106918 -0.00126574)
(6.75452e-05 0.000120477 -0.00126574)
(4.55977e-05 0.000130377 -0.00126574)
(2.22653e-05 0.000136314 -0.00126574)
(-1.74432e-06 0.00013811 -0.00126574)
(-2.57007e-05 0.000135709 -0.00126574)
(-4.88755e-05 0.000129185 -0.00126574)
(-7.05659e-05 0.000118736 -0.00126574)
(-9.01124e-05 0.000104679 -0.00126574)
(-0.00010692 8.74411e-05 -0.00126574)
(-0.00012048 6.75471e-05 -0.00126574)
(-0.000130379 4.55994e-05 -0.00126574)
(-0.000136316 2.2267e-05 -0.00126574)
(-0.000138112 -1.74266e-06 -0.00126574)
(-0.000135711 -2.56991e-05 -0.00126574)
(-0.000129187 -4.88739e-05 -0.00126574)
(-0.000235403 0.000133328 -0.0011242)
(-0.000254978 9.04254e-05 -0.0011242)
(-0.000266807 4.47759e-05 -0.0011242)
(-0.000270529 -2.23462e-06 -0.0011242)
(-0.00026603 -4.91773e-05 -0.0011242)
(-0.00025345 -9.46252e-05 -0.0011242)
(-0.000233167 -0.000137198 -0.0011242)
(-0.0002058 -0.000175603 -0.0011242)
(-0.000172182 -0.000208672 -0.0011242)
(-0.00013333 -0.000235401 -0.0011242)
(-9.04274e-05 -0.000254977 -0.0011242)
(-4.4778e-05 -0.000266805 -0.0011242)
(2.23255e-06 -0.000270527 -0.0011242)
(4.91752e-05 -0.000266029 -0.0011242)
(9.46232e-05 -0.000253448 -0.0011242)
(0.000137196 -0.000233166 -0.0011242)
(0.000175601 -0.000205799 -0.0011242)
(0.00020867 -0.00017218 -0.0011242)
(0.000235399 -0.000133329 -0.0011242)
(0.000254975 -9.04258e-05 -0.0011242)
(0.000266804 -4.47763e-05 -0.0011242)
(0.000270526 2.23424e-06 -0.0011242)
(0.000266027 4.9177e-05 -0.0011242)
(0.000253446 9.4625e-05 -0.0011242)
(0.000233164 0.000137198 -0.0011242)
(0.000205797 0.000175603 -0.0011242)
(0.000172178 0.000208672 -0.0011242)
(0.000133327 0.000235401 -0.0011242)
(9.04238e-05 0.000254977 -0.0011242)
(4.47743e-05 0.000266805 -0.0011242)
(-2.23631e-06 0.000270527 -0.0011242)
(-4.9179e-05 0.000266029 -0.0011242)
(-9.4627e-05 0.000253448 -0.0011242)
(-0.0001372 0.000233166 -0.0011242)
(-0.000175605 0.000205799 -0.0011242)
(-0.000208674 0.00017218 -0.0011242)
(-0.000390031 0.000267459 -0.0010222)
(-0.000430549 0.000195668 -0.0010222)
(-0.000457986 0.000117932 -0.0010222)
(-0.000471506 3.66124e-05 -0.0010222)
(-0.000470701 -4.58197e-05 -0.0010222)
(-0.000455593 -0.000126859 -0.0010222)
(-0.000426643 -0.000204045 -0.0010222)
(-0.000384729 -0.00027503 -0.0010222)
(-0.000331126 -0.000337659 -0.0010222)
(-0.000267461 -0.000390029 -0.0010222)
(-0.00019567 -0.000430547 -0.0010222)
(-0.000117934 -0.000457984 -0.0010222)
(-3.66144e-05 -0.000471505 -0.0010222)
(4.58177e-05 -0.000470699 -0.0010222)
(0.000126857 -0.000455592 -0.0010222)
(0.000204043 -0.000426641 -0.0010222)
(0.000275029 -0.000384727 -0.0010222)
(0.000337658 -0.000331124 -0.0010222)