/*--------------------------------*- C++ -*----------------------------------*\
| =========                 |                                                 |
| \\      /  F ield         | OpenFOAM: The Open Source CFD Toolbox           |
|  \\    /   O peration     | Version:  2312                                  |
|   \\  /    A nd           | Website:  www.openfoam.com                      |
|    \\/     M anipulation  |                                                 |
\*---------------------------------------------------------------------------*/
FoamFile
{
    version     2.0;
    format      ascii;
    arch        "LSB;label=32;scalar=64";
    class       volVectorField;
    location    "0.6";
    object      D_0;
}
// * * * * * * * * * * * * * * * * * * * * * * * * * * * * * * * * * * * * * //

dimensions      [0 1 0 0 0 0 0];

internalField   nonuniform List<vector> 
1620
(
(0.000113374 0.000294327 4.64574e-05)
(6.05421e-05 0.000309542 4.64572e-05)
(5.87113e-06 0.000315353 4.64574e-05)
(-4.89783e-05 0.000311582 4.64578e-05)
(-0.00010234 0.000298344 4.64578e-05)
(-0.000152592 0.00027604 4.64577e-05)
(-0.000198207 0.000245348 4.64578e-05)
(-0.000237801 0.000207202 4.64577e-05)
(-0.000270168 0.000162761 4.64574e-05)
(-0.000294327 0.000113374 4.64574e-05)
(-0.000309542 6.05421e-05 4.64572e-05)
(-0.000315353 5.8711e-06 4.64573e-05)
(-0.000311582 -4.89783e-05 4.64578e-05)
(-0.000298344 -0.00010234 4.64578e-05)
(-0.00027604 -0.000152592 4.64576e-05)
(-0.000245348 -0.000198207 4.64578e-05)
(-0.000207202 -0.000237801 4.64577e-05)
(-0.000162761 -0.000270168 4.64574e-05)
(-0.000113374 -0.000294327 4.64574e-05)
(-6.0542e-05 -0.000309542 4.64572e-05)
(-5.87109e-06 -0.000315353 4.64573e-05)
(4.89784e-05 -0.000311582 4.64578e-05)
(0.00010234 -0.000298344 4.64578e-05)
(0.000152592 -0.00027604 4.64577e-05)
(0.000198207 -0.000245348 4.64578e-05)
(0.000237801 -0.000207202 4.64577e-05)
(0.000270168 -0.000162761 4.64574e-05)
(0.000294327 -0.000113374 4.64574e-05)
(0.000309542 -6.05421e-05 4.64572e-05)
(0.000315353 -5.87111e-06 4.64574e-05)
(0.000311582 4.89783e-05 4.64578e-05)
(0.000298344 0.00010234 4.64579e-05)
(0.00027604 0.000152592 4.64577e-05)
(0.000245348 0.000198207 4.64578e-05)
(0.000207202 0.000237801 4.64577e-05)
(0.000162761 0.000270168 4.64574e-05)
(5.31959e-05 0.000318874 6.84869e-05)
(-2.98418e-06 0.000323267 6.84869e-05)
(-5.90733e-05 0.000317838 6.84869e-05)
(-0.000113368 0.000302751 6.84871e-05)
(-0.000164218 0.000278466 6.84873e-05)
(-0.000210078 0.000245719 6.84871e-05)
(-0.000249555 0.000205506 6.8487e-05)
(-0.00028145 0.000159049 6.8487e-05)
(-0.000304792 0.00010776 6.84868e-05)
(-0.000318874 5.31959e-05 6.84869e-05)
(-0.000323267 -2.9842e-06 6.84869e-05)
(-0.000317838 -5.90733e-05 6.84869e-05)
(-0.000302751 -0.000113368 6.84871e-05)
(-0.000278466 -0.000164218 6.84873e-05)
(-0.000245719 -0.000210078 6.84871e-05)
(-0.000205506 -0.000249555 6.8487e-05)
(-0.000159049 -0.00028145 6.8487e-05)
(-0.00010776 -0.000304792 6.84868e-05)
(-5.31959e-05 -0.000318874 6.84869e-05)
(2.98422e-06 -0.000323267 6.84869e-05)
(5.90733e-05 -0.000317838 6.84869e-05)
(0.000113368 -0.000302751 6.84871e-05)
(0.000164218 -0.000278466 6.84873e-05)
(0.000210078 -0.000245719 6.84871e-05)
(0.000249555 -0.000205506 6.8487e-05)
(0.00028145 -0.000159049 6.8487e-05)
(0.000304793 -0.00010776 6.84868e-05)
(0.000318874 -5.31959e-05 6.84869e-05)
(0.000323267 2.9842e-06 6.84869e-05)
(0.000317838 5.90733e-05 6.84869e-05)
(0.000302751 0.000113368 6.84871e-05)
(0.000278466 0.000164218 6.84873e-05)
(0.000245719 0.000210078 6.84871e-05)
(0.000205506 0.000249555 6.84871e-05)
(0.000159049 0.00028145 6.8487e-05)
(0.00010776 0.000304793 6.84869e-05)
(-3.38919e-05 0.000333555 7.99671e-05)
(-9.12983e-05 0.000322603 7.99673e-05)
(-0.000145931 0.000301848 7.99672e-05)
(-0.000196129 0.000271921 7.99672e-05)
(-0.000240368 0.000233734 7.99674e-05)
(-0.000277304 0.000188442 7.99673e-05)
(-0.000305814 0.000137426 7.99673e-05)
(-0.000325031 8.22345e-05 7.99671e-05)
(-0.000334373 2.45441e-05 7.99671e-05)
(-0.000333555 -3.38919e-05 7.99671e-05)
(-0.000322603 -9.12983e-05 7.99673e-05)
(-0.000301848 -0.000145931 7.99672e-05)
(-0.000271921 -0.000196129 7.99672e-05)
(-0.000233734 -0.000240368 7.99674e-05)
(-0.000188442 -0.000277304 7.99673e-05)
(-0.000137426 -0.000305814 7.99673e-05)
(-8.22345e-05 -0.000325031 7.99671e-05)
(-2.45441e-05 -0.000334373 7.99671e-05)
(3.3892e-05 -0.000333555 7.99671e-05)
(9.12983e-05 -0.000322603 7.99673e-05)
(0.000145931 -0.000301848 7.99672e-05)
(0.000196129 -0.000271921 7.99672e-05)
(0.000240368 -0.000233734 7.99674e-05)
(0.000277304 -0.000188442 7.99673e-05)
(0.000305814 -0.000137426 7.99673e-05)
(0.000325031 -8.22345e-05 7.99671e-05)
(0.000334373 -2.45441e-05 7.99671e-05)
(0.000333555 3.38919e-05 7.99671e-05)
(0.000322603 9.12983e-05 7.99673e-05)
(0.000301848 0.000145931 7.99672e-05)
(0.000271921 0.000196129 7.99672e-05)
(0.000233734 0.000240368 7.99674e-05)
(0.000188442 0.000277304 7.99673e-05)
(0.000137426 0.000305814 7.99674e-05)
(8.22345e-05 0.000325031 7.99671e-05)
(2.45442e-05 0.000334373 7.99671e-05)
(0.000217709 0.000873319 0.000184297)
(6.27519e-05 0.000897857 0.000184296)
(-9.41124e-05 0.000895113 0.000184297)
(-0.000248117 0.000865172 0.000184298)
(-0.000394583 0.000808943 0.000184299)
(-0.00052906 0.000728135 0.000184298)
(-0.000647462 0.000625203 0.000184298)
(-0.000746191 0.000503273 0.000184298)
(-0.000822247 0.000366052 0.000184297)
(-0.000873319 0.000217709 0.000184297)
(-0.000897857 6.27518e-05 0.000184296)
(-0.000895113 -9.41125e-05 0.000184297)
(-0.000865172 -0.000248117 0.000184298)
(-0.000808943 -0.000394583 0.000184298)
(-0.000728135 -0.00052906 0.000184298)
(-0.000625203 -0.000647462 0.000184298)
(-0.000503273 -0.000746191 0.000184298)
(-0.000366052 -0.000822247 0.000184297)
(-0.000217709 -0.000873319 0.000184297)
(-6.27518e-05 -0.000897857 0.000184296)
(9.41125e-05 -0.000895113 0.000184297)
(0.000248117 -0.000865172 0.000184298)
(0.000394583 -0.000808943 0.000184298)
(0.00052906 -0.000728135 0.000184298)
(0.000647462 -0.000625203 0.000184298)
(0.000746191 -0.000503273 0.000184298)
(0.000822247 -0.000366052 0.000184297)
(0.000873319 -0.000217709 0.000184297)
(0.000897857 -6.27518e-05 0.000184297)
(0.000895113 9.41125e-05 0.000184297)
(0.000865172 0.000248117 0.000184298)
(0.000808943 0.000394583 0.000184299)
(0.000728135 0.00052906 0.000184298)
(0.000625203 0.000647462 0.000184298)
(0.000503273 0.000746191 0.000184298)
(0.000366052 0.000822247 0.000184297)
(0.000117163 0.000938044 0.00024746)
(-4.75058e-05 0.000944138 0.000247459)
(-0.000210732 0.000921545 0.00024746)
(-0.000367554 0.000870952 0.00024746)
(-0.00051321 0.000793895 0.000247461)
(-0.000643272 0.000692716 0.000247461)
(-0.000753787 0.000570489 0.00024746)
(-0.0008414 0.000430927 0.00024746)
(-0.000903447 0.000278273 0.00024746)
(-0.000938044 0.000117163 0.00024746)
(-0.000944137 -4.75059e-05 0.000247459)
(-0.000921545 -0.000210732 0.00024746)
(-0.000870952 -0.000367554 0.00024746)
(-0.000793895 -0.00051321 0.000247461)
(-0.000692716 -0.000643272 0.000247461)
(-0.000570489 -0.000753787 0.00024746)
(-0.000430927 -0.0008414 0.00024746)
(-0.000278273 -0.000903447 0.00024746)
(-0.000117163 -0.000938044 0.00024746)
(4.75059e-05 -0.000944138 0.000247459)
(0.000210732 -0.000921545 0.00024746)
(0.000367555 -0.000870952 0.00024746)
(0.00051321 -0.000793895 0.000247461)
(0.000643272 -0.000692716 0.000247461)
(0.000753788 -0.000570489 0.00024746)
(0.0008414 -0.000430927 0.00024746)
(0.000903447 -0.000278273 0.00024746)
(0.000938044 -0.000117163 0.00024746)
(0.000944138 4.75059e-05 0.000247459)
(0.000921545 0.000210732 0.00024746)
(0.000870952 0.000367554 0.00024746)
(0.000793895 0.00051321 0.000247461)
(0.000692716 0.000643272 0.000247461)
(0.000570489 0.000753787 0.00024746)
(0.000430927 0.0008414 0.00024746)
(0.000278273 0.000903447 0.00024746)
(-1.45707e-05 0.000991155 0.000295366)
(-0.000186461 0.000973567 0.000295366)
(-0.000352686 0.000926398 0.000295366)
(-0.000508195 0.00085108 0.000295366)
(-0.000648263 0.000749903 0.000295367)
(-0.000768633 0.00062594 0.000295367)
(-0.00086565 0.000482959 0.000295366)
(-0.000936364 0.000325303 0.000295366)
(-0.000978627 0.000157763 0.000295366)
(-0.000991155 -1.45707e-05 0.000295366)
(-0.000973567 -0.000186461 0.000295366)
(-0.000926398 -0.000352686 0.000295366)
(-0.00085108 -0.000508195 0.000295366)
(-0.000749903 -0.000648263 0.000295366)
(-0.00062594 -0.000768633 0.000295367)
(-0.000482959 -0.00086565 0.000295366)
(-0.000325303 -0.000936364 0.000295366)
(-0.000157763 -0.000978627 0.000295366)
(1.45707e-05 -0.000991155 0.000295366)
(0.000186461 -0.000973567 0.000295366)
(0.000352686 -0.000926398 0.000295366)
(0.000508195 -0.00085108 0.000295366)
(0.000648263 -0.000749903 0.000295366)
(0.000768633 -0.00062594 0.000295367)
(0.00086565 -0.000482959 0.000295366)
(0.000936364 -0.000325303 0.000295366)
(0.000978627 -0.000157763 0.000295366)
(0.000991155 1.45707e-05 0.000295366)
(0.000973567 0.000186461 0.000295366)
(0.000926398 0.000352686 0.000295366)
(0.00085108 0.000508195 0.000295366)
(0.000749903 0.000648263 0.000295367)
(0.00062594 0.000768633 0.000295367)
(0.000482959 0.00086565 0.000295366)
(0.000325303 0.000936364 0.000295366)
(0.000157763 0.000978627 0.000295366)
(0.000272715 0.00145477 0.000411606)
(1.59545e-05 0.00148002 0.000411606)
(-0.000241291 0.00146031 0.000411606)
(-0.000491205 0.00139622 0.000411607)
(-0.000726194 0.00128971 0.000411608)
(-0.000939117 0.00114402 0.000411608)
(-0.00112351 0.000963562 0.000411608)
(-0.00127376 0.000753828 0.000411607)
(-0.00138531 0.00052119 0.000411606)
(-0.00145477 0.000272715 0.000411606)
(-0.00148002 1.59544e-05 0.000411606)
(-0.00146031 -0.000241291 0.000411606)
(-0.00139622 -0.000491205 0.000411607)
(-0.00128971 -0.000726194 0.000411608)
(-0.00114402 -0.000939117 0.000411608)
(-0.000963562 -0.00112351 0.000411608)
(-0.000753828 -0.00127376 0.000411607)
(-0.00052119 -0.00138531 0.000411606)
(-0.000272715 -0.00145477 0.000411606)
(-1.59543e-05 -0.00148002 0.000411606)
(0.000241291 -0.00146031 0.000411606)
(0.000491205 -0.00139622 0.000411607)
(0.000726194 -0.00128971 0.000411608)
(0.000939117 -0.00114402 0.000411608)
(0.00112351 -0.000963562 0.000411608)
(0.00127376 -0.000753828 0.000411607)
(0.00138531 -0.00052119 0.000411606)
(0.00145477 -0.000272715 0.000411606)
(0.00148002 -1.59544e-05 0.000411606)
(0.00146031 0.000241291 0.000411606)
(0.00139622 0.000491205 0.000411607)
(0.00128971 0.000726194 0.000411608)
(0.00114402 0.000939117 0.000411608)
(0.000963563 0.00112351 0.000411608)
(0.000753829 0.00127376 0.000411607)
(0.00052119 0.00138531 0.000411606)
(0.000135656 0.00153407 0.000495584)
(-0.000132793 0.00153432 0.000495584)
(-0.000397207 0.00148795 0.000495584)
(-0.000649552 0.00139637 0.000495584)
(-0.000882162 0.00126236 0.000495585)
(-0.00108797 0.00109 0.000495585)
(-0.00126071 0.000884517 0.000495585)
(-0.00139516 0.000652158 0.000495585)
(-0.00148721 0.000399984 0.000495584)
(-0.00153407 0.000135656 0.000495584)
(-0.00153432 -0.000132793 0.000495584)
(-0.00148795 -0.000397207 0.000495584)
(-0.00139637 -0.000649552 0.000495584)
(-0.00126236 -0.000882162 0.000495585)
(-0.00109 -0.00108797 0.000495585)
(-0.000884517 -0.00126071 0.000495585)
(-0.000652158 -0.00139516 0.000495584)
(-0.000399984 -0.00148721 0.000495584)
(-0.000135656 -0.00153407 0.000495584)
(0.000132793 -0.00153432 0.000495584)
(0.000397207 -0.00148795 0.000495584)
(0.000649552 -0.00139637 0.000495584)
(0.000882162 -0.00126236 0.000495585)
(0.00108797 -0.00109 0.000495585)
(0.00126071 -0.000884517 0.000495585)
(0.00139516 -0.000652158 0.000495585)
(0.00148721 -0.000399984 0.000495584)
(0.00153407 -0.000135656 0.000495584)
(0.00153432 0.000132793 0.000495584)
(0.00148795 0.000397207 0.000495584)
(0.00139637 0.000649552 0.000495584)
(0.00126236 0.000882162 0.000495585)
(0.00109 0.00108797 0.000495585)
(0.000884517 0.00126071 0.000495585)
(0.000652158 0.00139516 0.000495585)
(0.000399984 0.00148721 0.000495584)
(-2.87928e-05 0.00159942 0.000564675)
(-0.000306091 0.00157012 0.000564675)
(-0.000574089 0.00149311 0.000564675)
(-0.000824643 0.00137074 0.000564676)
(-0.00105014 0.00120672 0.000564676)
(-0.00124373 0.00100603 0.000564676)
(-0.00139953 0.000774774 0.000564675)
(-0.00151281 0.000519977 0.000564675)
(-0.00158012 0.000249381 0.000564675)
(-0.00159942 -2.87928e-05 0.000564675)
(-0.00157012 -0.000306091 0.000564675)
(-0.00149311 -0.000574089 0.000564675)
(-0.00137074 -0.000824643 0.000564676)
(-0.00120672 -0.00105014 0.000564676)
(-0.00100603 -0.00124373 0.000564676)
(-0.000774774 -0.00139953 0.000564675)
(-0.000519977 -0.00151281 0.000564675)
(-0.000249381 -0.00158012 0.000564675)
(2.87929e-05 -0.00159942 0.000564675)
(0.000306091 -0.00157012 0.000564675)
(0.000574089 -0.00149311 0.000564675)
(0.000824643 -0.00137074 0.000564676)
(0.00105014 -0.00120672 0.000564676)
(0.00124373 -0.00100603 0.000564676)
(0.00139953 -0.000774774 0.000564675)
(0.00151281 -0.000519977 0.000564675)
(0.00158012 -0.000249381 0.000564675)
(0.00159942 2.87928e-05 0.000564675)
(0.00157012 0.000306091 0.000564675)
(0.00149311 0.000574089 0.000564675)
(0.00137074 0.000824643 0.000564676)
(0.00120672 0.00105014 0.000564676)
(0.00100603 0.00124373 0.000564676)
(0.000774774 0.00139953 0.000564675)
(0.000519977 0.00151281 0.000564675)
(0.000249381 0.00158012 0.000564675)
(0.000253504 0.00202265 0.000686149)
(-0.000101577 0.00203594 0.000686149)
(-0.000453571 0.00198737 0.000686149)
(-0.000791783 0.00187842 0.00068615)
(-0.00110594 0.00171239 0.00068615)
(-0.00138649 0.00149433 0.000686151)
(-0.00162491 0.00123086 0.000686151)
(-0.00181396 0.000930001 0.00068615)
(-0.0019479 0.000600881 0.000686149)
(-0.00202265 0.000253504 0.000686149)
(-0.00203594 -0.000101577 0.000686149)
(-0.00198737 -0.000453571 0.000686149)
(-0.00187842 -0.000791783 0.00068615)
(-0.00171239 -0.00110594 0.00068615)
(-0.00149433 -0.00138649 0.000686151)
(-0.00123086 -0.00162491 0.000686151)
(-0.000930001 -0.00181396 0.00068615)
(-0.000600881 -0.0019479 0.000686149)
(-0.000253503 -0.00202265 0.000686149)
(0.000101577 -0.00203594 0.000686149)
(0.000453571 -0.00198737 0.000686149)
(0.000791783 -0.00187842 0.00068615)
(0.00110594 -0.00171239 0.00068615)
(0.00138649 -0.00149433 0.000686151)
(0.00162491 -0.00123086 0.000686151)
(0.00181396 -0.000930001 0.00068615)
(0.0019479 -0.000600881 0.000686149)
(0.00202265 -0.000253504 0.000686149)
(0.00203594 0.000101577 0.000686149)
(0.00198737 0.000453571 0.000686149)
(0.00187842 0.000791783 0.00068615)
(0.00171239 0.00110594 0.00068615)
(0.00149433 0.00138649 0.000686151)
(0.00123086 0.00162491 0.000686151)
(0.000930001 0.00181396 0.00068615)
(0.000600881 0.0019479 0.000686149)
(9.91718e-05 0.00208908 0.000776509)
(-0.000265101 0.00207457 0.000776509)
(-0.000621318 0.00199702 0.000776509)
(-0.000958656 0.00185879 0.000776509)
(-0.00126687 0.00166408 0.00077651)
(-0.00153658 0.00141881 0.00077651)
(-0.00175961 0.00113043 0.00077651)
(-0.00192918 0.0008077 0.00077651)
(-0.00204013 0.000460431 0.000776509)
(-0.00208908 9.91717e-05 0.000776509)
(-0.00207457 -0.000265101 0.000776509)
(-0.00199702 -0.000621318 0.000776509)
(-0.00185879 -0.000958656 0.000776509)
(-0.00166408 -0.00126687 0.000776509)
(-0.00141881 -0.00153658 0.00077651)
(-0.00113043 -0.00175961 0.00077651)
(-0.0008077 -0.00192918 0.00077651)
(-0.000460431 -0.00204013 0.000776509)
(-9.91716e-05 -0.00208908 0.000776509)
(0.000265101 -0.00207457 0.000776509)
(0.000621318 -0.00199702 0.000776509)
(0.000958656 -0.00185879 0.000776509)
(0.00126687 -0.00166408 0.00077651)
(0.00153658 -0.00141881 0.00077651)
(0.00175961 -0.00113043 0.00077651)
(0.00192918 -0.0008077 0.00077651)
(0.00204013 -0.000460431 0.000776509)
(0.00208908 -9.91717e-05 0.000776509)
(0.00207457 0.000265101 0.000776509)
(0.00199702 0.000621318 0.000776509)
(0.00185879 0.000958656 0.000776509)
(0.00166408 0.00126687 0.00077651)
(0.00141881 0.00153658 0.00077651)
(0.00113043 0.00175961 0.00077651)
(0.0008077 0.00192918 0.00077651)
(0.000460431 0.00204013 0.000776509)
(-7.85306e-05 0.0021414 0.000852192)
(-0.000449188 0.00209523 0.000852191)
(-0.000806197 0.0019854 0.000852192)
(-0.00113871 0.00181524 0.000852192)
(-0.00143662 0.00158993 0.000852191)
(-0.00169089 0.00131631 0.000852192)
(-0.00189377 0.00100269 0.000852192)
(-0.00203912 0.000658608 0.000852192)
(-0.0021225 0.000294513 0.000852192)
(-0.0021414 -7.85307e-05 0.000852192)
(-0.00209523 -0.000449188 0.000852191)
(-0.0019854 -0.000806197 0.000852192)
(-0.00181524 -0.00113871 0.000852191)
(-0.00158993 -0.00143662 0.000852191)
(-0.00131631 -0.00169089 0.000852191)
(-0.00100269 -0.00189377 0.000852192)
(-0.000658608 -0.00203912 0.000852192)
(-0.000294513 -0.0021225 0.000852192)
(7.85308e-05 -0.0021414 0.000852192)
(0.000449188 -0.00209523 0.000852191)
(0.000806197 -0.0019854 0.000852192)
(0.00113871 -0.00181524 0.000852192)
(0.00143662 -0.00158993 0.000852191)
(0.00169089 -0.00131631 0.000852192)
(0.00189377 -0.00100269 0.000852192)
(0.00203912 -0.000658608 0.000852192)
(0.0021225 -0.000294513 0.000852192)
(0.0021414 7.85307e-05 0.000852192)
(0.00209523 0.000449188 0.000852191)
(0.0019854 0.000806197 0.000852192)
(0.00181524 0.00113871 0.000852192)
(0.00158993 0.00143662 0.000852191)
(0.00131631 0.00169089 0.000852192)
(0.00100269 0.00189377 0.000852192)
(0.000658609 0.00203912 0.000852192)
(0.000294513 0.0021225 0.000852192)
(0.000168615 0.00255314 0.000985714)
(-0.000277294 0.00254363 0.000985713)
(-0.000714779 0.00245683 0.000985714)
(-0.00113054 0.00229539 0.000985714)
(-0.00151196 0.0020642 0.000985715)
(-0.00184743 0.00177029 0.000985715)
(-0.00212677 0.00142259 0.000985715)
(-0.00234149 0.00103167 0.000985715)
(-0.00248507 0.000609401 0.000985715)
(-0.00255314 0.000168614 0.000985714)
(-0.00254363 -0.000277295 0.000985713)
(-0.00245683 -0.000714779 0.000985714)
(-0.00229539 -0.00113054 0.000985714)
(-0.0020642 -0.00151196 0.000985715)
(-0.00177029 -0.00184743 0.000985715)
(-0.00142259 -0.00212677 0.000985715)
(-0.00103167 -0.00234149 0.000985715)
(-0.0006094 -0.00248507 0.000985715)
(-0.000168614 -0.00255314 0.000985714)
(0.000277295 -0.00254363 0.000985713)
(0.000714779 -0.00245683 0.000985714)
(0.00113054 -0.00229539 0.000985714)
(0.00151196 -0.0020642 0.000985715)
(0.00184743 -0.00177029 0.000985715)
(0.00212677 -0.00142259 0.000985715)
(0.00234149 -0.00103167 0.000985715)
(0.00248507 -0.000609401 0.000985715)
(0.00255314 -0.000168614 0.000985714)
(0.00254363 0.000277295 0.000985713)
(0.00245683 0.000714779 0.000985714)
(0.00229539 0.00113054 0.000985714)
(0.0020642 0.00151196 0.000985715)
(0.00177029 0.00184743 0.000985715)
(0.00142259 0.00212677 0.000985715)
(0.00103167 0.00234149 0.000985715)
(0.000609401 0.00248507 0.000985715)
(1.14761e-05 0.00258611 0.00107218)
(-0.000437771 0.00254881 0.00107218)
(-0.000873717 0.00243407 0.00107218)
(-0.00128311 0.00224537 0.00107218)
(-0.00165353 0.00198845 0.00107218)
(-0.0019737 0.00167111 0.00107218)
(-0.0022339 0.00130299 0.00107218)
(-0.00242622 0.000895286 0.00107218)
(-0.00254483 0.000460375 0.00107218)
(-0.00258611 1.14759e-05 0.00107218)
(-0.00254881 -0.000437771 0.00107218)
(-0.00243407 -0.000873717 0.00107218)
(-0.00224537 -0.00128312 0.00107218)
(-0.00198845 -0.00165353 0.00107218)
(-0.00167111 -0.0019737 0.00107218)
(-0.00130299 -0.0022339 0.00107218)
(-0.000895286 -0.00242622 0.00107218)
(-0.000460375 -0.00254483 0.00107218)
(-1.14758e-05 -0.00258611 0.00107218)
(0.000437772 -0.00254881 0.00107218)
(0.000873717 -0.00243407 0.00107218)
(0.00128312 -0.00224537 0.00107218)
(0.00165353 -0.00198845 0.00107218)
(0.0019737 -0.00167111 0.00107218)
(0.0022339 -0.00130299 0.00107218)
(0.00242622 -0.000895286 0.00107218)
(0.00254483 -0.000460375 0.00107218)
(0.00258611 -1.14759e-05 0.00107218)
(0.00254881 0.000437771 0.00107218)
(0.00243407 0.000873717 0.00107218)
(0.00224537 0.00128312 0.00107218)
(0.00198845 0.00165353 0.00107218)
(0.00167111 0.0019737 0.00107218)
(0.00130299 0.0022339 0.00107218)
(0.000895286 0.00242622 0.00107218)
(0.000460375 0.00254483 0.00107218)
(-0.000165263 0.00260638 0.00114418)
(-0.000615346 0.00253809 0.00114418)
(-0.00104673 0.00239268 0.00114418)
(-0.00144631 0.00217456 0.00114418)
(-0.00180195 0.00189038 0.00114418)
(-0.00210283 0.00154875 0.00114418)
(-0.00233982 0.00116007 0.00114418)
(-0.00250572 0.00073614 0.00114418)
(-0.00259548 0.000289842 0.00114418)
(-0.00260638 -0.000165263 0.00114418)
(-0.00253809 -0.000615346 0.00114418)
(-0.00239268 -0.00104673 0.00114418)
(-0.00217456 -0.00144631 0.00114418)
(-0.00189038 -0.00180195 0.00114418)
(-0.00154875 -0.00210283 0.00114418)
(-0.00116007 -0.00233982 0.00114418)
(-0.000736139 -0.00250572 0.00114418)
(-0.000289842 -0.00259548 0.00114418)
(0.000165263 -0.00260638 0.00114418)
(0.000615346 -0.00253809 0.00114418)
(0.00104673 -0.00239268 0.00114418)
(0.00144631 -0.00217456 0.00114418)
(0.00180195 -0.00189038 0.00114418)
(0.00210283 -0.00154875 0.00114418)
(0.00233982 -0.00116007 0.00114418)
(0.00250572 -0.00073614 0.00114418)
(0.00259548 -0.000289842 0.00114418)
(0.00260638 0.000165263 0.00114418)
(0.00253809 0.000615346 0.00114418)
(0.00239268 0.00104673 0.00114418)
(0.00217456 0.00144631 0.00114418)
(0.00189038 0.00180195 0.00114418)
(0.00154875 0.00210283 0.00114418)
(0.00116007 0.00233982 0.00114418)
(0.00073614 0.00250572 0.00114418)
(0.000289842 0.00259548 0.00114418)
(3.62276e-05 0.00302154 0.0012991)
(-0.000489007 0.00298193 0.0012991)
(-0.000999384 0.00285171 0.0012991)
(-0.00147939 0.00263484 0.0012991)
(-0.00191445 0.00233792 0.0012991)
(-0.00229134 0.00196996 0.0012991)
(-0.00259861 0.00154214 0.0012991)
(-0.00282692 0.00106747 0.0012991)
(-0.00296934 0.000560362 0.0012991)
(-0.00302154 3.62274e-05 0.0012991)
(-0.00298193 -0.000489007 0.0012991)
(-0.00285171 -0.000999384 0.0012991)
(-0.00263484 -0.00147939 0.0012991)
(-0.00233792 -0.00191445 0.0012991)
(-0.00196996 -0.00229134 0.0012991)
(-0.00154214 -0.00259861 0.0012991)
(-0.00106747 -0.00282693 0.0012991)
(-0.000560362 -0.00296934 0.0012991)
(-3.62272e-05 -0.00302154 0.0012991)
(0.000489007 -0.00298193 0.0012991)
(0.000999384 -0.00285171 0.0012991)
(0.00147939 -0.00263484 0.0012991)
(0.00191445 -0.00233792 0.0012991)
(0.00229134 -0.00196996 0.0012991)
(0.00259861 -0.00154214 0.0012991)
(0.00282693 -0.00106747 0.0012991)
(0.00296934 -0.000560362 0.0012991)
(0.00302154 -3.62274e-05 0.0012991)
(0.00298193 0.000489007 0.0012991)
(0.00285171 0.000999384 0.0012991)
(0.00263484 0.00147939 0.0012991)
(0.00233792 0.00191445 0.0012991)
(0.00196996 0.00229134 0.0012991)
(0.00154214 0.00259861 0.0012991)
(0.00106747 0.00282693 0.0012991)
(0.000560362 0.00296934 0.0012991)
(-0.00011564 0.00300802 0.00137427)
(-0.00063622 0.00294224 0.00137427)
(-0.00113747 0.00278706 0.00137427)
(-0.00160415 0.0025472 0.00137427)
(-0.0020221 0.00222994 0.00137427)
(-0.0023786 0.00184493 0.00137427)
(-0.00266284 0.00140386 0.00137427)
(-0.00286616 0.000920137 0.00137427)
(-0.0029824 0.000408453 0.00137427)
(-0.00300802 -0.00011564 0.00137427)
(-0.00294224 -0.000636221 0.00137427)
(-0.00278706 -0.00113747 0.00137427)
(-0.0025472 -0.00160416 0.00137427)
(-0.00222994 -0.0020221 0.00137427)
(-0.00184493 -0.0023786 0.00137427)
(-0.00140386 -0.00266284 0.00137427)
(-0.000920137 -0.00286616 0.00137427)
(-0.000408453 -0.0029824 0.00137427)
(0.00011564 -0.00300802 0.00137427)
(0.000636221 -0.00294224 0.00137427)
(0.00113747 -0.00278706 0.00137427)
(0.00160416 -0.0025472 0.00137427)
(0.0020221 -0.00222994 0.00137427)
(0.00237861 -0.00184493 0.00137427)
(0.00266284 -0.00140386 0.00137427)
(0.00286616 -0.000920137 0.00137427)
(0.0029824 -0.000408453 0.00137427)
(0.00300802 0.00011564 0.00137427)
(0.00294224 0.000636221 0.00137427)
(0.00278706 0.00113747 0.00137427)
(0.0025472 0.00160416 0.00137427)
(0.00222994 0.0020221 0.00137427)
(0.00184493 0.0023786 0.00137427)
(0.00140386 0.00266284 0.00137427)
(0.000920137 0.00286616 0.00137427)
(0.000408454 0.0029824 0.00137427)
(-0.000283129 0.00298455 0.00143492)
(-0.00079709 0.00289004 0.00143492)
(-0.00128683 0.00270772 0.00143492)
(-0.00173747 0.00244313 0.00143492)
(-0.00213532 0.00210431 0.00143492)
(-0.00246829 0.00170154 0.00143492)
(-0.00272626 0.00124708 0.00143492)
(-0.0029014 0.000754722 0.00143492)
(-0.00298837 0.000239434 0.00143492)
(-0.00298455 -0.00028313 0.00143492)
(-0.00289004 -0.000797091 0.00143492)
(-0.00270772 -0.00128683 0.00143492)
(-0.00244313 -0.00173747 0.00143492)
(-0.00210431 -0.00213532 0.00143492)
(-0.00170154 -0.00246829 0.00143492)
(-0.00124708 -0.00272626 0.00143492)
(-0.000754722 -0.0029014 0.00143492)
(-0.000239434 -0.00298837 0.00143492)
(0.00028313 -0.00298455 0.00143492)
(0.000797091 -0.00289004 0.00143492)
(0.00128683 -0.00270772 0.00143492)
(0.00173747 -0.00244313 0.00143492)
(0.00213532 -0.00210431 0.00143492)
(0.00246829 -0.00170154 0.00143492)
(0.00272626 -0.00124708 0.00143492)
(0.0029014 -0.000754722 0.00143492)
(0.00298837 -0.000239434 0.00143492)
(0.00298455 0.00028313 0.00143492)
(0.00289004 0.000797091 0.00143492)
(0.00270772 0.00128683 0.00143492)
(0.00244313 0.00173747 0.00143492)
(0.00210431 0.00213532 0.00143492)
(0.00170154 0.00246829 0.00143492)
(0.00124708 0.00272626 0.00143492)
(0.000754723 0.0029014 0.00143492)
(0.000239434 0.00298837 0.00143492)
(-0.000120775 0.00340641 0.001626)
(-0.000710457 0.00333369 0.001626)
(-0.00127855 0.00315968 0.001626)
(-0.0018078 0.00288965 0.001626)
(-0.00228212 0.00253183 0.001626)
(-0.0026871 0.00209708 0.001626)
(-0.00301043 0.00159861 0.001626)
(-0.00324229 0.00105157 0.001626)
(-0.00337563 0.000472576 0.001626)
(-0.00340641 -0.000120775 0.001626)
(-0.00333369 -0.000710457 0.001626)
(-0.00315968 -0.00127855 0.001626)
(-0.00288965 -0.0018078 0.001626)
(-0.00253183 -0.00228212 0.001626)
(-0.00209708 -0.0026871 0.001626)
(-0.00159861 -0.00301043 0.001626)
(-0.00105157 -0.00324229 0.001626)
(-0.000472576 -0.00337563 0.001626)
(0.000120775 -0.00340641 0.001626)
(0.000710458 -0.00333369 0.001626)
(0.00127855 -0.00315968 0.001626)
(0.0018078 -0.00288965 0.001626)
(0.00228212 -0.00253183 0.001626)
(0.0026871 -0.00209708 0.001626)
(0.00301043 -0.00159861 0.001626)
(0.00324229 -0.00105157 0.001626)
(0.00337563 -0.000472576 0.001626)
(0.00340641 0.000120775 0.001626)
(0.00333369 0.000710457 0.001626)
(0.00315968 0.00127855 0.001626)
(0.00288965 0.0018078 0.001626)
(0.00253183 0.00228212 0.001626)
(0.00209708 0.0026871 0.001626)
(0.00159861 0.00301043 0.001626)
(0.00105157 0.00324229 0.001626)
(0.000472577 0.00337563 0.001626)
(-0.00026448 0.00333817 0.00168351)
(-0.00084013 0.00324153 0.00168351)
(-0.00139025 0.0030464 0.00168351)
(-0.00189813 0.0027587 0.00168351)
(-0.00234834 0.00238718 0.00168351)
(-0.00272719 0.00194313 0.00168351)
(-0.00302318 0.00144004 0.00168351)
(-0.00322731 0.000893192 0.00168351)
(-0.00333338 0.000319204 0.00168351)
(-0.00333817 -0.00026448 0.00168351)
(-0.00324153 -0.00084013 0.00168351)
(-0.0030464 -0.00139025 0.00168351)
(-0.0027587 -0.00189813 0.00168351)
(-0.00238718 -0.00234834 0.00168351)
(-0.00194313 -0.00272719 0.00168351)
(-0.00144004 -0.00302318 0.00168351)
(-0.000893192 -0.00322731 0.00168351)
(-0.000319204 -0.00333338 0.00168351)
(0.000264481 -0.00333817 0.00168351)
(0.00084013 -0.00324153 0.00168351)
(0.00139025 -0.0030464 0.00168351)
(0.00189813 -0.0027587 0.00168351)
(0.00234834 -0.00238718 0.00168351)
(0.00272719 -0.00194313 0.00168351)
(0.00302318 -0.00144004 0.00168351)
(0.00322731 -0.000893192 0.00168351)
(0.00333338 -0.000319204 0.00168351)
(0.00333817 0.00026448 0.00168351)
(0.00324153 0.00084013 0.00168351)
(0.0030464 0.00139025 0.00168351)
(0.0027587 0.00189813 0.00168351)
(0.00238718 0.00234834 0.00168351)
(0.00194313 0.00272719 0.00168351)
(0.00144004 0.00302318 0.00168351)
(0.000893192 0.00322731 0.00168351)
(0.000319204 0.00333338 0.00168351)
(-0.000419227 0.00326431 0.001726)
(-0.0009797 0.00314192 0.001726)
(-0.00151041 0.00292407 0.001726)
(-0.00199522 0.00261736 0.001726)
(-0.00241941 0.00223113 0.001726)
(-0.00277008 0.00177711 0.001726)
(-0.00303659 0.0012691 0.001726)
(-0.00321083 0.000722517 0.001726)
(-0.00328752 0.000153985 0.001726)
(-0.00326431 -0.000419228 0.001726)
(-0.00314192 -0.0009797 0.001726)
(-0.00292407 -0.00151041 0.001726)
(-0.00261736 -0.00199522 0.001726)
(-0.00223113 -0.00241941 0.001726)
(-0.00177711 -0.00277008 0.001726)
(-0.0012691 -0.00303659 0.001726)
(-0.000722517 -0.00321083 0.001726)
(-0.000153984 -0.00328752 0.001726)
(0.000419228 -0.00326431 0.001726)
(0.0009797 -0.00314192 0.001726)
(0.00151041 -0.00292407 0.001726)
(0.00199522 -0.00261736 0.001726)
(0.00241941 -0.00223113 0.001726)
(0.00277008 -0.00177711 0.001726)
(0.00303659 -0.0012691 0.001726)
(0.00321083 -0.000722517 0.001726)
(0.00328752 -0.000153984 0.001726)
(0.00326431 0.000419228 0.001726)
(0.00314192 0.0009797 0.001726)
(0.00292407 0.00151041 0.001726)
(0.00261736 0.00199522 0.001726)
(0.00223113 0.00241941 0.001726)
(0.00177711 0.00277008 0.001726)
(0.0012691 0.00303659 0.001726)
(0.000722517 0.00321083 0.001726)
(0.000153985 0.00328752 0.001726)
(-0.000277322 0.00368934 0.00197323)
(-0.000913756 0.00358513 0.00197323)
(-0.00152243 0.003372 0.00197322)
(-0.00208484 0.0030564 0.00197322)
(-0.0025839 0.00264794 0.00197322)
(-0.00300446 0.00215902 0.00197322)
(-0.00333372 0.0016045 0.00197322)
(-0.00356169 0.00100123 0.00197323)
(-0.00368145 0.000367536 0.00197323)
(-0.00368934 -0.000277323 0.00197323)
(-0.00358513 -0.000913756 0.00197323)
(-0.003372 -0.00152243 0.00197322)
(-0.0030564 -0.00208484 0.00197322)
(-0.00264794 -0.0025839 0.00197322)
(-0.00215902 -0.00300446 0.00197322)
(-0.0016045 -0.00333372 0.00197322)
(-0.00100123 -0.00356169 0.00197322)
(-0.000367536 -0.00368145 0.00197323)
(0.000277323 -0.00368934 0.00197323)
(0.000913757 -0.00358513 0.00197323)
(0.00152243 -0.003372 0.00197322)
(0.00208484 -0.0030564 0.00197322)
(0.0025839 -0.00264794 0.00197322)
(0.00300446 -0.00215902 0.00197322)
(0.00333372 -0.0016045 0.00197322)
(0.00356169 -0.00100123 0.00197323)
(0.00368145 -0.000367536 0.00197323)
(0.00368934 0.000277323 0.00197323)
(0.00358513 0.000913756 0.00197323)
(0.003372 0.00152243 0.00197322)