/*--------------------------------*- C++ -*----------------------------------*\
| =========                 |                                                 |
| \\      /  F ield         | OpenFOAM: The Open Source CFD Toolbox           |
|  \\    /   O peration     | Version:  2312                                  |
|   \\  /    A nd           | Website:  www.openfoam.com                      |
|    \\/     M anipulation  |                                                 |
\*---------------------------------------------------------------------------*/
FoamFile
{
    version     2.0;
    format      ascii;
    arch        "LSB;label=32;scalar=64";
    class       volVectorField;
    location    "0.6";
    object      D_0_0_0;
}
// * * * * * * * * * * * * * * * * * * * * * * * * * * * * * * * * * * * * * //

dimensions      [0 1 0 0 0 0 0];

internalField   nonuniform List<vector> 
1620
(
(0.000111922 0.000291757 4.63376e-05)
(5.95584e-05 0.000306759 4.63375e-05)
(5.38565e-06 0.000312441 4.63376e-05)
(-4.89508e-05 0.00030863 4.6338e-05)
(-0.0001018 0.000295441 4.63381e-05)
(-0.000151557 0.000273275 4.63379e-05)
(-0.000196708 0.000242806 4.6338e-05)
(-0.000235882 0.000204959 4.6338e-05)
(-0.000267889 0.000160885 4.63377e-05)
(-0.000291757 0.000111922 4.63376e-05)
(-0.000306759 5.95583e-05 4.63375e-05)
(-0.000312441 5.38562e-06 4.63376e-05)
(-0.00030863 -4.89508e-05 4.6338e-05)
(-0.000295441 -0.0001018 4.63381e-05)
(-0.000273275 -0.000151557 4.63379e-05)
(-0.000242806 -0.000196708 4.6338e-05)
(-0.000204959 -0.000235882 4.6338e-05)
(-0.000160884 -0.000267889 4.63377e-05)
(-0.000111922 -0.000291757 4.63376e-05)
(-5.95583e-05 -0.000306759 4.63375e-05)
(-5.38561e-06 -0.000312441 4.63376e-05)
(4.89508e-05 -0.00030863 4.6338e-05)
(0.0001018 -0.000295441 4.63381e-05)
(0.000151557 -0.000273275 4.63379e-05)
(0.000196708 -0.000242806 4.6338e-05)
(0.000235882 -0.000204959 4.6338e-05)
(0.000267889 -0.000160885 4.63377e-05)
(0.000291757 -0.000111922 4.63376e-05)
(0.000306759 -5.95583e-05 4.63375e-05)
(0.000312441 -5.38563e-06 4.63376e-05)
(0.00030863 4.89508e-05 4.6338e-05)
(0.000295441 0.0001018 4.63381e-05)
(0.000273275 0.000151557 4.63379e-05)
(0.000242806 0.000196708 4.63381e-05)
(0.000204959 0.000235882 4.6338e-05)
(0.000160885 0.000267889 4.63377e-05)
(5.26737e-05 0.000314875 6.72479e-05)
(-2.80405e-06 0.000319238 6.72479e-05)
(-5.81963e-05 0.000313901 6.72479e-05)
(-0.00011182 0.000299027 6.72481e-05)
(-0.000162047 0.000275067 6.72482e-05)
(-0.00020735 0.000242748 6.72481e-05)
(-0.000246353 0.000203054 6.7248e-05)
(-0.000277871 0.000157191 6.7248e-05)
(-0.000300945 0.000106551 6.72478e-05)
(-0.000314875 5.26737e-05 6.72479e-05)
(-0.000319238 -2.80407e-06 6.72479e-05)
(-0.000313901 -5.81963e-05 6.72479e-05)
(-0.000299027 -0.00011182 6.72481e-05)
(-0.000275067 -0.000162047 6.72482e-05)
(-0.000242748 -0.00020735 6.72481e-05)
(-0.000203054 -0.000246353 6.7248e-05)
(-0.000157191 -0.000277871 6.7248e-05)
(-0.000106551 -0.000300945 6.72478e-05)
(-5.26737e-05 -0.000314875 6.72479e-05)
(2.80409e-06 -0.000319238 6.72479e-05)
(5.81963e-05 -0.000313901 6.72479e-05)
(0.00011182 -0.000299027 6.72481e-05)
(0.000162047 -0.000275067 6.72482e-05)
(0.00020735 -0.000242748 6.72481e-05)
(0.000246353 -0.000203054 6.7248e-05)
(0.000277871 -0.000157191 6.7248e-05)
(0.000300945 -0.000106551 6.72478e-05)
(0.000314875 -5.26737e-05 6.72479e-05)
(0.000319238 2.80407e-06 6.72479e-05)
(0.000313901 5.81963e-05 6.72479e-05)
(0.000299027 0.00011182 6.72481e-05)
(0.000275067 0.000162047 6.72482e-05)
(0.000242748 0.00020735 6.72481e-05)
(0.000203054 0.000246353 6.7248e-05)
(0.000157191 0.000277871 6.7248e-05)
(0.000106551 0.000300945 6.72478e-05)
(-3.25911e-05 0.000328505 7.80472e-05)
(-8.91402e-05 0.000317855 7.80474e-05)
(-0.000142981 0.000297547 7.80473e-05)
(-0.000192477 0.000268198 7.80473e-05)
(-0.000236125 0.000230701 7.80475e-05)
(-0.000272598 0.000186192 7.80474e-05)
(-0.000300789 0.000136028 7.80474e-05)
(-0.00031984 8.17294e-05 7.80471e-05)
(-0.000329173 2.49481e-05 7.80472e-05)
(-0.000328505 -3.25912e-05 7.80472e-05)
(-0.000317855 -8.91403e-05 7.80474e-05)
(-0.000297547 -0.000142981 7.80473e-05)
(-0.000268198 -0.000192477 7.80473e-05)
(-0.000230701 -0.000236125 7.80475e-05)
(-0.000186192 -0.000272598 7.80474e-05)
(-0.000136028 -0.000300789 7.80474e-05)
(-8.17294e-05 -0.00031984 7.80471e-05)
(-2.49481e-05 -0.000329173 7.80472e-05)
(3.25912e-05 -0.000328505 7.80472e-05)
(8.91403e-05 -0.000317855 7.80474e-05)
(0.000142981 -0.000297547 7.80473e-05)
(0.000192477 -0.000268198 7.80473e-05)
(0.000236125 -0.000230701 7.80475e-05)
(0.000272598 -0.000186192 7.80474e-05)
(0.000300789 -0.000136028 7.80474e-05)
(0.00031984 -8.17294e-05 7.80471e-05)
(0.000329173 -2.49481e-05 7.80472e-05)
(0.000328505 3.25912e-05 7.80472e-05)
(0.000317855 8.91403e-05 7.80474e-05)
(0.000297547 0.000142981 7.80473e-05)
(0.000268198 0.000192477 7.80473e-05)
(0.000230701 0.000236125 7.80475e-05)
(0.000186192 0.000272598 7.80474e-05)
(0.000136028 0.000300789 7.80474e-05)
(8.17294e-05 0.00031984 7.80472e-05)
(2.49481e-05 0.000329173 7.80472e-05)
(0.000215252 0.000865406 0.000183084)
(6.17057e-05 0.000889637 0.000183084)
(-9.37154e-05 0.000886837 0.000183084)
(-0.000246289 0.00085709 0.000183085)
(-0.000391379 0.000801301 0.000183086)
(-0.000524578 0.000721166 0.000183086)
(-0.000641838 0.000619118 0.000183086)
(-0.000739596 0.000498258 0.000183085)
(-0.000814881 0.000362258 0.000183084)
(-0.000865406 0.000215252 0.000183084)
(-0.000889637 6.17056e-05 0.000183084)
(-0.000886837 -9.37155e-05 0.000183084)
(-0.00085709 -0.000246289 0.000183085)
(-0.000801301 -0.000391379 0.000183086)
(-0.000721166 -0.000524578 0.000183086)
(-0.000619118 -0.000641838 0.000183086)
(-0.000498257 -0.000739596 0.000183085)
(-0.000362258 -0.000814881 0.000183084)
(-0.000215252 -0.000865406 0.000183084)
(-6.17056e-05 -0.000889637 0.000183084)
(9.37155e-05 -0.000886837 0.000183084)
(0.000246289 -0.00085709 0.000183085)
(0.000391379 -0.000801301 0.000183086)
(0.000524578 -0.000721166 0.000183086)
(0.000641838 -0.000619118 0.000183086)
(0.000739596 -0.000498258 0.000183085)
(0.000814881 -0.000362258 0.000183084)
(0.000865406 -0.000215252 0.000183084)
(0.000889637 -6.17056e-05 0.000183084)
(0.000886837 9.37154e-05 0.000183084)
(0.00085709 0.000246289 0.000183086)
(0.000801301 0.000391379 0.000183086)
(0.000721166 0.000524578 0.000183086)
(0.000619118 0.000641838 0.000183086)
(0.000498258 0.000739596 0.000183085)
(0.000362258 0.000814881 0.000183084)
(0.000116797 0.000926466 0.000243532)
(-4.58565e-05 0.000932672 0.000243532)
(-0.000207117 0.00091054 0.000243532)
(-0.000362083 0.000860742 0.000243533)
(-0.000506049 0.00078479 0.000243533)
(-0.000634638 0.000684993 0.000243533)
(-0.000743944 0.000564382 0.000243533)
(-0.000830646 0.000426623 0.000243532)
(-0.000892109 0.000275901 0.000243532)
(-0.000926466 0.000116796 0.000243532)
(-0.000932672 -4.58566e-05 0.000243532)
(-0.00091054 -0.000207117 0.000243532)
(-0.000860742 -0.000362083 0.000243533)
(-0.00078479 -0.000506049 0.000243533)
(-0.000684993 -0.000634638 0.000243533)
(-0.000564382 -0.000743944 0.000243533)
(-0.000426623 -0.000830646 0.000243532)
(-0.000275901 -0.000892109 0.000243532)
(-0.000116796 -0.000926466 0.000243532)
(4.58567e-05 -0.000932672 0.000243532)
(0.000207117 -0.00091054 0.000243532)
(0.000362083 -0.000860742 0.000243533)
(0.000506049 -0.00078479 0.000243533)
(0.000634639 -0.000684993 0.000243533)
(0.000743944 -0.000564382 0.000243533)
(0.000830646 -0.000426623 0.000243532)
(0.000892109 -0.000275901 0.000243532)
(0.000926466 -0.000116796 0.000243532)
(0.000932672 4.58566e-05 0.000243532)
(0.00091054 0.000207117 0.000243532)
(0.000860742 0.000362083 0.000243533)
(0.00078479 0.000506049 0.000243533)
(0.000684993 0.000634638 0.000243533)
(0.000564382 0.000743944 0.000243533)
(0.000426623 0.000830646 0.000243532)
(0.000275901 0.000892109 0.000243532)
(-1.1784e-05 0.000976374 0.000289367)
(-0.00018115 0.000959495 0.000289367)
(-0.000345012 0.000913462 0.000289367)
(-0.000498391 0.000839673 0.000289367)
(-0.000636627 0.000740371 0.000289367)
(-0.00075552 0.000618574 0.000289367)
(-0.000851456 0.000477982 0.000289367)
(-0.000921521 0.000322866 0.000289367)
(-0.000963587 0.000157941 0.000289367)
(-0.000976374 -1.17841e-05 0.000289367)
(-0.000959495 -0.00018115 0.000289367)
(-0.000913462 -0.000345012 0.000289367)
(-0.000839673 -0.000498391 0.000289367)
(-0.000740371 -0.000636627 0.000289367)
(-0.000618574 -0.00075552 0.000289367)
(-0.000477981 -0.000851456 0.000289367)
(-0.000322866 -0.000921521 0.000289367)
(-0.000157941 -0.000963587 0.000289367)
(1.17841e-05 -0.000976374 0.000289367)
(0.000181151 -0.000959495 0.000289367)
(0.000345012 -0.000913462 0.000289367)
(0.000498391 -0.000839673 0.000289367)
(0.000636627 -0.000740371 0.000289367)
(0.00075552 -0.000618574 0.000289367)
(0.000851456 -0.000477982 0.000289367)
(0.000921521 -0.000322866 0.000289367)
(0.000963587 -0.000157941 0.000289367)
(0.000976374 1.17841e-05 0.000289367)
(0.000959495 0.00018115 0.000289367)
(0.000913462 0.000345012 0.000289367)
(0.000839673 0.000498391 0.000289367)
(0.000740371 0.000636627 0.000289367)
(0.000618574 0.00075552 0.000289367)
(0.000477982 0.000851456 0.000289367)
(0.000322866 0.000921521 0.000289367)
(0.000157941 0.000963587 0.000289367)
(0.000270916 0.0014409 0.000408246)
(1.6591e-05 0.00146605 0.000408246)
(-0.000238239 0.00144666 0.000408247)
(-0.00048583 0.00138332 0.000408248)
(-0.000718658 0.00127794 0.000408249)
(-0.000929651 0.00113373 0.000408249)
(-0.0011124 0.000955071 0.000408248)
(-0.00126134 0.000747396 0.000408248)
(-0.00137197 0.00051701 0.000408247)
(-0.0014409 0.000270916 0.000408246)
(-0.00146605 1.65909e-05 0.000408246)
(-0.00144666 -0.000238239 0.000408247)
(-0.00138331 -0.00048583 0.000408248)
(-0.00127794 -0.000718658 0.000408249)
(-0.00113373 -0.000929651 0.000408249)
(-0.000955071 -0.0011124 0.000408248)
(-0.000747395 -0.00126134 0.000408248)
(-0.00051701 -0.00137197 0.000408247)
(-0.000270916 -0.0014409 0.000408246)
(-1.65909e-05 -0.00146605 0.000408246)
(0.000238239 -0.00144666 0.000408247)
(0.00048583 -0.00138332 0.000408248)
(0.000718659 -0.00127794 0.000408249)
(0.000929651 -0.00113373 0.000408249)
(0.0011124 -0.000955071 0.000408248)
(0.00126134 -0.000747396 0.000408248)
(0.00137197 -0.00051701 0.000408247)
(0.0014409 -0.000270916 0.000408246)
(0.00146605 -1.65909e-05 0.000408246)
(0.00144666 0.000238239 0.000408247)
(0.00138332 0.00048583 0.000408248)
(0.00127794 0.000718658 0.000408249)
(0.00113373 0.000929651 0.000408249)
(0.000955072 0.0011124 0.000408248)
(0.000747396 0.00126134 0.000408248)
(0.00051701 0.00137197 0.000408247)
(0.000136659 0.00151523 0.000488746)
(-0.000128533 0.00151594 0.000488746)
(-0.000389819 0.00147059 0.000488746)
(-0.000639261 0.00138055 0.000488746)
(-0.00086928 0.00124857 0.000488747)
(-0.00107289 0.00107866 0.000488746)
(-0.00124389 0.000875963 0.000488746)
(-0.00137711 0.000646655 0.000488746)
(-0.00146847 0.000397699 0.000488746)
(-0.00151522 0.000136659 0.000488745)
(-0.00151594 -0.000128533 0.000488746)
(-0.00147059 -0.000389819 0.000488746)
(-0.00138055 -0.000639261 0.000488746)
(-0.00124857 -0.00086928 0.000488746)
(-0.00107866 -0.00107289 0.000488746)
(-0.000875963 -0.00124389 0.000488746)
(-0.000646655 -0.00137711 0.000488746)
(-0.000397699 -0.00146847 0.000488746)
(-0.000136659 -0.00151523 0.000488745)
(0.000128533 -0.00151594 0.000488746)
(0.000389819 -0.00147059 0.000488746)
(0.000639261 -0.00138055 0.000488746)
(0.00086928 -0.00124857 0.000488747)
(0.00107289 -0.00107866 0.000488746)
(0.00124389 -0.000875963 0.000488746)
(0.00137711 -0.000646655 0.000488746)
(0.00146847 -0.000397699 0.000488746)
(0.00151523 -0.000136659 0.000488746)
(0.00151594 0.000128533 0.000488746)
(0.00147059 0.000389819 0.000488746)
(0.00138055 0.000639261 0.000488746)
(0.00124857 0.00086928 0.000488747)
(0.00107866 0.00107289 0.000488746)
(0.000875963 0.00124389 0.000488747)
(0.000646655 0.00137711 0.000488746)
(0.000397699 0.00146847 0.000488746)
(-2.40591e-05 0.00157613 0.00055498)
(-0.000297386 0.00154801 0.00055498)
(-0.000561676 0.00147285 0.00055498)
(-0.0008089 0.00135294 0.00055498)
(-0.00103155 0.00119192 0.00055498)
(-0.00122285 0.000994688 0.00055498)
(-0.001377 0.00076723 0.00055498)
(-0.00148931 0.000516461 0.00055498)
(-0.00155636 0.000249999 0.00055498)
(-0.00157613 -2.40592e-05 0.00055498)
(-0.00154801 -0.000297386 0.00055498)
(-0.00147285 -0.000561676 0.00055498)
(-0.00135294 -0.0008089 0.00055498)
(-0.00119192 -0.00103155 0.00055498)
(-0.000994688 -0.00122285 0.00055498)
(-0.00076723 -0.001377 0.00055498)
(-0.000516461 -0.00148931 0.00055498)
(-0.000249999 -0.00155636 0.00055498)
(2.40592e-05 -0.00157613 0.00055498)
(0.000297386 -0.00154801 0.00055498)
(0.000561676 -0.00147285 0.00055498)
(0.0008089 -0.00135294 0.00055498)
(0.00103155 -0.00119192 0.00055498)
(0.00122285 -0.000994688 0.00055498)
(0.001377 -0.00076723 0.00055498)
(0.00148931 -0.000516461 0.00055498)
(0.00155636 -0.000249999 0.00055498)
(0.00157613 2.40592e-05 0.00055498)
(0.00154801 0.000297386 0.00055498)
(0.00147285 0.000561676 0.00055498)
(0.00135294 0.0008089 0.00055498)
(0.00119192 0.00103155 0.00055498)
(0.000994688 0.00122285 0.00055498)
(0.00076723 0.001377 0.00055498)
(0.000516461 0.00148931 0.00055498)
(0.000249999 0.00155636 0.00055498)
(0.000254447 0.0020026 0.000680899)
(-9.71655e-05 0.00201636 0.000680899)
(-0.000445826 0.00196885 0.000680899)
(-0.00078094 0.00186152 0.0006809)
(-0.00109232 0.00169763 0.000680901)
(-0.00137052 0.00148216 0.000680901)
(-0.00160707 0.00122166 0.000680901)
(-0.0017948 0.00092403 0.0006809)
(-0.00192799 0.000598328 0.000680899)
(-0.0020026 0.000254447 0.000680899)
(-0.00201636 -9.71656e-05 0.000680899)
(-0.00196885 -0.000445826 0.000680899)
(-0.00186152 -0.00078094 0.0006809)
(-0.00169763 -0.00109233 0.0006809)
(-0.00148216 -0.00137052 0.000680901)
(-0.00122166 -0.00160707 0.000680901)
(-0.00092403 -0.0017948 0.0006809)
(-0.000598328 -0.00192799 0.000680899)
(-0.000254447 -0.0020026 0.000680899)
(9.71657e-05 -0.00201636 0.000680899)
(0.000445826 -0.00196885 0.000680899)
(0.00078094 -0.00186152 0.0006809)
(0.00109233 -0.00169763 0.0006809)
(0.00137052 -0.00148216 0.000680901)
(0.00160707 -0.00122166 0.000680901)
(0.0017948 -0.00092403 0.000680901)
(0.00192799 -0.000598328 0.0006809)
(0.0020026 -0.000254447 0.000680899)
(0.00201636 9.71656e-05 0.000680899)
(0.00196885 0.000445826 0.000680899)
(0.00186152 0.00078094 0.0006809)
(0.00169763 0.00109233 0.000680901)
(0.00148216 0.00137052 0.000680901)
(0.00122166 0.00160707 0.000680901)
(0.00092403 0.0017948 0.000680901)
(0.000598329 0.00192799 0.0006809)
(0.000102886 0.0020636 0.00076751)
(-0.000257017 0.00205012 0.00076751)
(-0.000609111 0.00197434 0.00076751)
(-0.000942697 0.00183857 0.000767511)
(-0.00124764 0.00164694 0.000767511)
(-0.00151467 0.00140527 0.000767511)
(-0.00173569 0.0011209 0.000767511)
(-0.00190396 0.000802475 0.000767511)
(-0.00201438 0.000459664 0.000767511)
(-0.0020636 0.000102886 0.00076751)
(-0.00205012 -0.000257017 0.00076751)
(-0.00197434 -0.000609111 0.00076751)
(-0.00183857 -0.000942697 0.000767511)
(-0.00164694 -0.00124764 0.000767511)
(-0.00140527 -0.00151467 0.000767511)
(-0.0011209 -0.00173569 0.000767511)
(-0.000802474 -0.00190396 0.000767511)
(-0.000459664 -0.00201438 0.000767511)
(-0.000102886 -0.0020636 0.00076751)
(0.000257017 -0.00205012 0.00076751)
(0.000609111 -0.00197434 0.00076751)
(0.000942697 -0.00183857 0.000767511)
(0.00124764 -0.00164694 0.000767511)
(0.00151467 -0.00140527 0.000767511)
(0.00173569 -0.0011209 0.000767511)
(0.00190396 -0.000802474 0.000767511)
(0.00201438 -0.000459664 0.000767511)
(0.0020636 -0.000102886 0.00076751)
(0.00205012 0.000257017 0.00076751)
(0.00197434 0.000609111 0.00076751)
(0.00183857 0.000942697 0.000767511)
(0.00164694 0.00124764 0.000767511)
(0.00140527 0.00151467 0.000767511)
(0.0011209 0.00173569 0.000767511)
(0.000802475 0.00190396 0.000767511)
(0.000459664 0.00201438 0.000767511)
(-7.12392e-05 0.00211102 0.000840033)
(-0.000436732 0.00206658 0.000840033)
(-0.000788954 0.00195935 0.000840033)
(-0.00111721 0.00179258 0.000840033)
(-0.00141151 0.00157134 0.000840033)
(-0.00166293 0.00130237 0.000840033)
(-0.00186382 0.000993816 0.000840033)
(-0.00200808 0.000655069 0.000840033)
(-0.00209132 0.000296418 0.000840033)
(-0.00211102 -7.12393e-05 0.000840033)
(-0.00206658 -0.000436732 0.000840033)
(-0.00195935 -0.000788954 0.000840033)
(-0.00179258 -0.00111721 0.000840033)
(-0.00157134 -0.00141151 0.000840033)
(-0.00130237 -0.00166293 0.000840033)
(-0.000993816 -0.00186382 0.000840033)
(-0.000655069 -0.00200808 0.000840033)
(-0.000296418 -0.00209132 0.000840033)
(7.12394e-05 -0.00211102 0.000840033)
(0.000436732 -0.00206658 0.000840033)
(0.000788954 -0.00195935 0.000840033)
(0.00111721 -0.00179258 0.000840033)
(0.00141151 -0.00157134 0.000840033)
(0.00166293 -0.00130237 0.000840033)
(0.00186382 -0.000993816 0.000840033)
(0.00200808 -0.000655069 0.000840033)
(0.00209132 -0.000296418 0.000840033)
(0.00211102 7.12393e-05 0.000840033)
(0.00206658 0.000436732 0.000840033)
(0.00195935 0.000788954 0.000840033)
(0.00179258 0.00111721 0.000840033)
(0.00157134 0.00141151 0.000840033)
(0.00130237 0.00166293 0.000840033)
(0.000993816 0.00186382 0.000840033)
(0.00065507 0.00200808 0.000840033)
(0.000296418 0.00209132 0.000840033)
(0.000173764 0.00252742 0.000979513)
(-0.000267757 0.0025192 0.000979512)
(-0.000701144 0.00243443 0.000979513)
(-0.00111323 0.00227569 0.000979513)
(-0.00149148 0.00204781 0.000979514)
(-0.00182442 0.00175771 0.000979514)
(-0.00210193 0.00141419 0.000979514)
(-0.00231557 0.00102771 0.000979514)
(-0.00245885 0.000610006 0.000979514)
(-0.00252742 0.000173764 0.000979513)
(-0.0025192 -0.000267758 0.000979512)
(-0.00243443 -0.000701144 0.000979513)
(-0.00227569 -0.00111323 0.000979513)
(-0.00204781 -0.00149148 0.000979514)
(-0.00175771 -0.00182442 0.000979514)
(-0.00141419 -0.00210193 0.000979514)
(-0.00102771 -0.00231557 0.000979514)
(-0.000610006 -0.00245885 0.000979514)
(-0.000173764 -0.00252742 0.000979513)
(0.000267758 -0.0025192 0.000979512)
(0.000701144 -0.00243443 0.000979513)
(0.00111323 -0.00227569 0.000979513)
(0.00149148 -0.00204781 0.000979514)
(0.00182442 -0.00175771 0.000979514)
(0.00210193 -0.00141419 0.000979514)
(0.00231557 -0.00102771 0.000979514)
(0.00245885 -0.000610006 0.000979514)
(0.00252742 -0.000173764 0.000979513)
(0.0025192 0.000267758 0.000979512)
(0.00243443 0.000701144 0.000979513)
(0.00227569 0.00111323 0.000979513)
(0.00204781 0.00149148 0.000979514)
(0.00175771 0.00182442 0.000979514)
(0.00141419 0.00210193 0.000979514)
(0.00102771 0.00231557 0.000979514)
(0.000610006 0.00245885 0.000979514)
(1.89837e-05 0.00255493 0.00106221)
(-0.000424963 0.00251941 0.00106221)
(-0.000855998 0.00240734 0.00106221)
(-0.00126102 0.00222212 0.00106221)
(-0.00162773 0.00196939 0.00106221)
(-0.00194498 0.00165682 0.00106221)
(-0.00220314 0.0012939 0.00106221)
(-0.00239435 0.000891676 0.00106221)
(-0.00251282 0.000462354 0.00106221)
(-0.00255493 1.89835e-05 0.00106221)
(-0.00251941 -0.000424964 0.00106221)
(-0.00240734 -0.000855998 0.00106221)
(-0.00222212 -0.00126102 0.00106221)
(-0.00196939 -0.00162773 0.00106221)
(-0.00165682 -0.00194498 0.00106221)
(-0.0012939 -0.00220314 0.00106221)
(-0.000891676 -0.00239435 0.00106221)
(-0.000462354 -0.00251282 0.00106221)
(-1.89834e-05 -0.00255493 0.00106221)
(0.000424964 -0.00251941 0.00106221)
(0.000855998 -0.00240734 0.00106221)
(0.00126102 -0.00222212 0.00106221)
(0.00162773 -0.00196939 0.00106221)
(0.00194498 -0.00165682 0.00106221)
(0.00220314 -0.0012939 0.00106221)
(0.00239435 -0.000891676 0.00106221)
(0.00251282 -0.000462354 0.00106221)
(0.00255493 -1.89835e-05 0.00106221)
(0.00251941 0.000424964 0.00106221)
(0.00240734 0.000855998 0.00106221)
(0.00222212 0.00126102 0.00106221)
(0.00196939 0.00162773 0.00106221)
(0.00165682 0.00194498 0.00106221)
(0.0012939 0.00220314 0.00106221)
(0.000891677 0.00239435 0.00106221)
(0.000462354 0.00251282 0.00106221)
(-0.000154707 0.00257024 0.00113099)
(-0.000598674 0.00250433 0.00113099)
(-0.00102445 0.00236232 0.00113099)
(-0.0014191 0.00214854 0.00113099)
(-0.00177063 0.00186948 0.00113099)
(-0.00206836 0.00153361 0.00113099)
(-0.00230325 0.00115114 0.00113099)
(-0.00246815 0.000733698 0.00113099)
(-0.00255806 0.000293962 0.00113099)
(-0.00257024 -0.000154707 0.00113099)
(-0.00250433 -0.000598674 0.00113099)
(-0.00236232 -0.00102445 0.00113099)
(-0.00214854 -0.0014191 0.00113099)
(-0.00186948 -0.00177063 0.00113099)
(-0.00153361 -0.00206836 0.00113099)
(-0.00115114 -0.00230325 0.00113099)
(-0.000733698 -0.00246815 0.00113099)
(-0.000293962 -0.00255806 0.00113099)
(0.000154707 -0.00257024 0.00113099)
(0.000598674 -0.00250433 0.00113099)
(0.00102445 -0.00236232 0.00113099)
(0.0014191 -0.00214854 0.00113099)
(0.00177063 -0.00186948 0.00113099)
(0.00206836 -0.00153361 0.00113099)
(0.00230325 -0.00115114 0.00113099)
(0.00246815 -0.000733698 0.00113099)
(0.00255806 -0.000293962 0.00113099)
(0.00257024 0.000154707 0.00113099)
(0.00250433 0.000598674 0.00113099)
(0.00236232 0.00102445 0.00113099)
(0.00214854 0.0014191 0.00113099)
(0.00186948 0.00177063 0.00113099)
(0.00153361 0.00206836 0.00113099)
(0.00115114 0.00230325 0.00113099)
(0.000733698 0.00246815 0.00113099)
(0.000293962 0.00255806 0.00113099)
(4.62173e-05 0.00299135 0.00129307)
(-0.000473926 0.00295393 0.00129307)
(-0.00097967 0.00282675 0.00129307)
(-0.00145565 0.00261369 0.00129307)
(-0.00188739 0.00232121 0.00129307)
(-0.00226179 0.0019582 0.00129307)
(-0.00256747 0.0015357 0.00129307)
(-0.00279514 0.00106653 0.00129307)
(-0.00293787 0.000564957 0.00129307)
(-0.00299135 4.62171e-05 0.00129307)
(-0.00295393 -0.000473926 0.00129307)
(-0.00282675 -0.00097967 0.00129307)
(-0.00261369 -0.00145565 0.00129307)
(-0.00232121 -0.00188739 0.00129307)
(-0.0019582 -0.00226179 0.00129307)
(-0.0015357 -0.00256747 0.00129307)
(-0.00106653 -0.00279514 0.00129307)
(-0.000564957 -0.00293787 0.00129307)
(-4.62169e-05 -0.00299135 0.00129307)
(0.000473927 -0.00295393 0.00129307)
(0.00097967 -0.00282675 0.00129307)
(0.00145565 -0.00261369 0.00129307)
(0.00188739 -0.00232121 0.00129307)
(0.00226179 -0.0019582 0.00129307)
(0.00256747 -0.0015357 0.00129307)
(0.00279514 -0.00106653 0.00129307)
(0.00293787 -0.000564957 0.00129307)
(0.00299135 -4.62171e-05 0.00129307)
(0.00295393 0.000473927 0.00129307)
(0.00282675 0.00097967 0.00129307)
(0.00261369 0.00145565 0.00129307)
(0.00232121 0.00188739 0.00129307)
(0.0019582 0.00226179 0.00129307)
(0.0015357 0.00256747 0.00129307)
(0.00106653 0.00279514 0.00129307)
(0.000564957 0.00293787 0.00129307)
(-0.00010371 0.00297242 0.00136454)
(-0.000618291 0.00290926 0.00136454)
(-0.00111408 0.00275769 0.00136454)
(-0.00157603 0.00252234 0.00136454)
(-0.00199008 0.00221035 0.00136454)
(-0.00234367 0.00183119 0.00136454)
(-0.00262605 0.0013964 0.00136454)
(-0.00282864 0.000919174 0.00136454)
(-0.00294528 0.000414022 0.00136454)
(-0.00297242 -0.00010371 0.00136454)
(-0.00290926 -0.000618291 0.00136454)
(-0.00275769 -0.00111408 0.00136454)
(-0.00252234 -0.00157603 0.00136454)
(-0.00221035 -0.00199008 0.00136454)
(-0.00183119 -0.00234367 0.00136454)
(-0.0013964 -0.00262605 0.00136454)
(-0.000919174 -0.00282864 0.00136454)
(-0.000414021 -0.00294528 0.00136454)
(0.00010371 -0.00297242 0.00136454)
(0.000618291 -0.00290926 0.00136454)
(0.00111408 -0.00275769 0.00136454)
(0.00157603 -0.00252234 0.00136454)
(0.00199008 -0.00221035 0.00136454)
(0.00234367 -0.00183119 0.00136454)
(0.00262605 -0.0013964 0.00136454)
(0.00282864 -0.000919174 0.00136454)
(0.00294528 -0.000414022 0.00136454)
(0.00297242 0.00010371 0.00136454)
(0.00290926 0.000618291 0.00136454)
(0.0027577 0.00111408 0.00136454)
(0.00252234 0.00157603 0.00136454)
(0.00221035 0.00199008 0.00136454)
(0.00183119 0.00234367 0.00136454)
(0.0013964 0.00262605 0.00136454)
(0.000919175 0.00282864 0.00136454)
(0.000414022 0.00294528 0.00136454)
(-0.000268707 0.00294399 0.00142204)
(-0.000775844 0.00285261 0.00142204)
(-0.00125941 0.00267454 0.00142204)
(-0.0017047 0.00241522 0.00142204)
(-0.0020982 0.00208251 0.00142204)
(-0.00242795 0.00168652 0.00142204)
(-0.00268392 0.00123929 0.00142204)
(-0.00285835 0.000754403 0.00142204)
(-0.00294593 0.000246594 0.00142204)
(-0.00294399 -0.000268707 0.00142204)
(-0.00285261 -0.000775844 0.00142204)
(-0.00267454 -0.00125941 0.00142204)
(-0.00241522 -0.0017047 0.00142204)
(-0.00208251 -0.0020982 0.00142204)
(-0.00168652 -0.00242795 0.00142204)
(-0.00123929 -0.00268392 0.00142204)
(-0.000754403 -0.00285835 0.00142204)
(-0.000246594 -0.00294593 0.00142204)
(0.000268707 -0.00294399 0.00142204)
(0.000775844 -0.00285261 0.00142204)
(0.00125941 -0.00267454 0.00142204)
(0.0017047 -0.00241522 0.00142204)
(0.0020982 -0.00208251 0.00142204)
(0.00242795 -0.00168652 0.00142204)
(0.00268392 -0.00123929 0.00142204)
(0.00285835 -0.000754403 0.00142204)
(0.00294593 -0.000246594 0.00142204)
(0.00294399 0.000268707 0.00142204)
(0.00285261 0.000775844 0.00142204)
(0.00267454 0.00125941 0.00142204)
(0.00241522 0.0017047 0.00142204)
(0.00208251 0.0020982 0.00142204)
(0.00168652 0.00242795 0.00142204)
(0.00123929 0.00268392 0.00142204)
(0.000754403 0.00285835 0.00142204)
(0.000246594 0.00294593 0.00142204)
(-0.00010615 0.00337335 0.001621)
(-0.000690313 0.00330367 0.001621)
(-0.0012535 0.00313361 0.001621)
(-0.0017786 0.00286833 0.001621)
(-0.00224966 0.0025159 0.001621)
(-0.00265237 0.00208703 0.001621)
(-0.00297448 0.00159475 0.001621)
(-0.00320622 0.001054 0.001621)
(-0.00334053 0.000481238 0.001621)
(-0.00337335 -0.00010615 0.001621)
(-0.00330367 -0.000690314 0.001621)
(-0.00313361 -0.0012535 0.001621)
(-0.00286833 -0.0017786 0.001621)
(-0.0025159 -0.00224966 0.001621)
(-0.00208703 -0.00265237 0.001621)
(-0.00159475 -0.00297448 0.001621)
(-0.001054 -0.00320622 0.001621)
(-0.000481237 -0.00334053 0.001621)
(0.000106151 -0.00337335 0.001621)
(0.000690314 -0.00330367 0.001621)
(0.0012535 -0.00313361 0.001621)
(0.00177861 -0.00286833 0.001621)
(0.00224966 -0.0025159 0.001621)
(0.00265237 -0.00208703 0.001621)
(0.00297448 -0.00159475 0.001621)
(0.00320622 -0.001054 0.001621)
(0.00334053 -0.000481237 0.001621)
(0.00337335 0.00010615 0.001621)
(0.00330367 0.000690314 0.001621)
(0.00313361 0.0012535 0.001621)
(0.00286833 0.0017786 0.001621)
(0.00251591 0.00224966 0.001621)
(0.00208703 0.00265237 0.001621)
(0.00159475 0.00297448 0.001621)
(0.001054 0.00320622 0.001621)
(0.000481238 0.00334053 0.001621)
(-0.00024808 0.00329977 0.00167499)
(-0.00081731 0.00320656 0.00167498)
(-0.00136171 0.00301592 0.00167498)
(-0.00186473 0.00273364 0.00167498)
(-0.00231109 0.00236831 0.00167498)
(-0.00268723 0.00193101 0.00167498)
(-0.00298172 0.00143504 0.00167498)
(-0.00318561 0.000895469 0.00167498)
(-0.00329272 0.000328687 0.00167499)
(-0.00329977 -0.00024808 0.00167498)
(-0.00320656 -0.00081731 0.00167498)
(-0.00301592 -0.00136171 0.00167498)
(-0.00273364 -0.00186473 0.00167498)
(-0.00236831 -0.00231109 0.00167498)
(-0.00193101 -0.00268723 0.00167498)
(-0.00143504 -0.00298172 0.00167498)
(-0.000895468 -0.00318561 0.00167498)
(-0.000328686 -0.00329272 0.00167499)
(0.00024808 -0.00329977 0.00167498)
(0.00081731 -0.00320656 0.00167498)
(0.00136171 -0.00301592 0.00167498)
(0.00186473 -0.00273364 0.00167498)
(0.00231109 -0.00236831 0.00167498)
(0.00268723 -0.00193101 0.00167498)
(0.00298172 -0.00143504 0.00167498)
(0.00318561 -0.000895469 0.00167498)
(0.00329272 -0.000328687 0.00167499)
(0.00329977 0.00024808 0.00167499)
(0.00320656 0.00081731 0.00167498)
(0.00301592 0.00136171 0.00167498)
(0.00273364 0.00186473 0.00167498)
(0.00236831 0.00231109 0.00167498)
(0.00193101 0.00268723 0.00167498)
(0.00143504 0.00298172 0.00167498)
(0.000895469 0.00318561 0.00167498)
(0.000328687 0.00329272 0.00167499)
(-0.000400679 0.00322086 0.0017145)
(-0.000953889 0.00310235 0.0017145)
(-0.00147811 0.00288958 0.0017145)
(-0.00195743 0.00258901 0.0017145)
(-0.00237727 0.00220977 0.0017145)
(-0.00272487 0.00176339 0.0017145)
(-0.00298969 0.00126343 0.0017145)
(-0.00316366 0.000725086 0.0017145)
(-0.00324151 0.000164706 0.0017145)
(-0.00322086 -0.000400679 0.0017145)
(-0.00310235 -0.000953889 0.0017145)
(-0.00288958 -0.00147811 0.0017145)
(-0.00258901 -0.00195743 0.0017145)
(-0.00220977 -0.00237727 0.0017145)
(-0.00176339 -0.00272487 0.0017145)
(-0.00126343 -0.00298969 0.0017145)
(-0.000725085 -0.00316366 0.0017145)
(-0.000164706 -0.00324151 0.0017145)
(0.00040068 -0.00322086 0.0017145)
(0.000953889 -0.00310235 0.0017145)
(0.00147812 -0.00288958 0.0017145)
(0.00195743 -0.00258901 0.0017145)
(0.00237727 -0.00220977 0.0017145)
(0.00272487 -0.00176339 0.0017145)
(0.00298969 -0.00126343 0.0017145)
(0.00316366 -0.000725085 0.0017145)
(0.00324151 -0.000164706 0.0017145)
(0.00322086 0.000400679 0.0017145)
(0.00310235 0.000953889 0.0017145)
(0.00288958 0.00147811 0.0017145)
(0.00258901 0.00195743 0.0017145)
(0.00220977 0.00237727 0.0017145)
(0.00176339 0.00272487 0.0017145)
(0.00126343 0.00298969 0.0017145)
(0.000725086 0.00316366 0.0017145)
(0.000164706 0.00324151 0.0017145)
(-0.00025908 0.00365522 0.00196959)
(-0.000889867 0.0035547 0.00196959)
(-0.00149362 0.00334617 0.00196959)
(-0.00205198 0.00303597 0.00196958)
(-0.002548 0.00263353 0.00196958)
(-0.00296659 0.00215106 0.00196958)
(-0.00329505 0.00160324 0.00196959)
(-0.00352339 0.0010067 0.00196959)
(-0.00364468 0.000379576 0.00196959)
(-0.00365522 -0.00025908 0.00196959)
(-0.0035547 -0.000889867 0.00196959)
(-0.00334617 -0.00149362 0.00196959)
(-0.00303597 -0.00205198 0.00196958)
(-0.00263353 -0.002548 0.00196958)
(-0.00215106 -0.00296659 0.00196958)
(-0.00160324 -0.00329505 0.00196959)
(-0.0010067 -0.00352339 0.00196959)
(-0.000379576 -0.00364468 0.00196959)
(0.000259081 -0.00365522 0.00196959)
(0.000889867 -0.0035547 0.00196959)
(0.00149362 -0.00334617 0.00196959)
(0.00205198 -0.00303597 0.00196958)
(0.002548 -0.00263353 0.00196958)
(0.00296659 -0.00215106 0.00196958)
(0.00329505 -0.00160324 0.00196959)
(0.00352339 -0.0010067 0.00196959)
(0.00364468 -0.000379576 0.00196959)
(0.00365522 0.00025908 0.00196959)