/*--------------------------------*- C++ -*----------------------------------*\
| =========                 |                                                 |
| \\      /  F ield         | OpenFOAM: The Open Source CFD Toolbox           |
|  \\    /   O peration     | Version:  2312                                  |
|   \\  /    A nd           | Website:  www.openfoam.com                      |
|    \\/     M anipulation  |                                                 |
\*---------------------------------------------------------------------------*/
FoamFile
{
    version     2.0;
    format      ascii;
    arch        "LSB;label=32;scalar=64";
    class       pointVectorField;
    location    "0.6";
    object      pointD;
}
// * * * * * * * * * * * * * * * * * * * * * * * * * * * * * * * * * * * * * //

dimensions      [0 1 0 0 0 0 0];

internalField   nonuniform List<vector> 
2164
(
(0 0 0)
(0 0 0)
(0 0 0)
(0 0 0)
(0 0 0)
(0 0 0)
(0 0 0)
(0 0 0)
(0 0 0)
(0 0 0)
(0 0 0)
(0 0 0)
(0 0 0)
(0 0 0)
(0 0 0)
(0 0 0)
(0 0 0)
(0 0 0)
(0 0 0)
(0 0 0)
(0 0 0)
(0 0 0)
(0 0 0)
(0 0 0)
(0 0 0)
(0 0 0)
(0 0 0)
(0 0 0)
(0 0 0)
(0 0 0)
(0 0 0)
(0 0 0)
(0 0 0)
(0 0 0)
(0 0 0)
(0 0 0)
(0.00016376 0.000580669 8.17834e-05)
(6.04396e-05 0.000600284 8.17835e-05)
(-4.47167e-05 0.00060166 8.17844e-05)
(-0.000148514 0.000584755 8.17851e-05)
(-0.000247799 0.000550082 8.17849e-05)
(-0.000339555 0.000498695 8.17849e-05)
(-0.000420995 0.000432155 8.17848e-05)
(-0.000489641 0.000352485 8.17841e-05)
(-0.000543411 0.000262104 8.17839e-05)
(-0.000580669 0.00016376 8.17834e-05)
(-0.000600284 6.04396e-05 8.17835e-05)
(-0.00060166 -4.47167e-05 8.17844e-05)
(-0.000584755 -0.000148514 8.17851e-05)
(-0.000550082 -0.000247799 8.17849e-05)
(-0.000498695 -0.000339555 8.17849e-05)
(-0.000432155 -0.000420995 8.17848e-05)
(-0.000352485 -0.000489641 8.17841e-05)
(-0.000262104 -0.000543411 8.17839e-05)
(-0.00016376 -0.000580669 8.17834e-05)
(-6.04396e-05 -0.000600284 8.17835e-05)
(4.47168e-05 -0.00060166 8.17844e-05)
(0.000148514 -0.000584755 8.17851e-05)
(0.000247799 -0.000550082 8.17849e-05)
(0.000339555 -0.000498695 8.17849e-05)
(0.000420995 -0.000432155 8.17848e-05)
(0.000489641 -0.000352485 8.17841e-05)
(0.000543411 -0.000262104 8.17839e-05)
(0.000580669 -0.00016376 8.17834e-05)
(0.000600284 -6.04396e-05 8.17835e-05)
(0.00060166 4.47167e-05 8.17844e-05)
(0.000584755 0.000148514 8.17851e-05)
(0.000550082 0.000247799 8.1785e-05)
(0.000498695 0.000339555 8.17849e-05)
(0.000432155 0.000420995 8.17849e-05)
(0.000352485 0.000489641 8.17841e-05)
(0.000262104 0.000543411 8.17839e-05)
(8.21372e-05 0.000623057 0.000128701)
(-2.7303e-05 0.000627854 0.000128701)
(-0.000135913 0.000613575 0.000128701)
(-0.000240395 0.000580652 0.000128702)
(-0.000337573 0.000530087 0.000128702)
(-0.000424492 0.000463414 0.000128702)
(-0.000498514 0.000382662 0.000128701)
(-0.00055739 0.000290282 0.000128701)
(-0.000599328 0.000189082 0.000128701)
(-0.000623057 8.21372e-05 0.000128701)
(-0.000627854 -2.73031e-05 0.000128701)
(-0.000613575 -0.000135913 0.000128701)
(-0.000580652 -0.000240395 0.000128702)
(-0.000530087 -0.000337573 0.000128702)
(-0.000463414 -0.000424492 0.000128702)
(-0.000382662 -0.000498514 0.000128701)
(-0.000290282 -0.00055739 0.000128701)
(-0.000189082 -0.000599329 0.000128701)
(-8.21371e-05 -0.000623057 0.000128701)
(2.73031e-05 -0.000627854 0.000128701)
(0.000135913 -0.000613575 0.000128701)
(0.000240395 -0.000580652 0.000128702)
(0.000337573 -0.000530087 0.000128702)
(0.000424493 -0.000463414 0.000128702)
(0.000498514 -0.000382662 0.000128701)
(0.00055739 -0.000290282 0.000128701)
(0.000599329 -0.000189082 0.000128701)
(0.000623057 -8.21372e-05 0.000128701)
(0.000627854 2.73031e-05 0.000128701)
(0.000613575 0.000135913 0.000128701)
(0.000580652 0.000240395 0.000128702)
(0.000530087 0.000337573 0.000128702)
(0.000463415 0.000424492 0.000128702)
(0.000382662 0.000498514 0.000128701)
(0.000290282 0.00055739 0.000128701)
(0.000189082 0.000599329 0.000128701)
(0 0 0)
(0 0 0)
(0 0 0)
(0 0 0)
(0 0 0)
(0 0 0)
(0 0 0)
(0 0 0)
(0 0 0)
(0 0 0)
(0 0 0)
(0 0 0)
(0 0 0)
(0 0 0)
(0 0 0)
(0 0 0)
(0 0 0)
(0 0 0)
(0 0 0)
(0 0 0)
(0 0 0)
(0 0 0)
(0 0 0)
(0 0 0)
(0 0 0)
(0 0 0)
(0 0 0)
(0 0 0)
(0 0 0)
(0 0 0)
(0 0 0)
(0 0 0)
(0 0 0)
(0 0 0)
(0 0 0)
(0 0 0)
(-1.85891e-05 0.000659523 0.000168273)
(-0.000132831 0.000646275 0.000168273)
(-0.000243038 0.000613391 0.000168274)
(-0.000345859 0.000561869 0.000168274)
(-0.000438172 0.000493275 0.000168274)
(-0.000517172 0.000409693 0.000168274)
(-0.000580457 0.000313663 0.000168273)
(-0.000626106 0.000208102 0.000168273)
(-0.000652731 9.62186e-05 0.000168273)
(-0.000659523 -1.85892e-05 0.000168273)
(-0.000646275 -0.000132831 0.000168273)
(-0.000613391 -0.000243038 0.000168274)
(-0.000561869 -0.000345859 0.000168274)
(-0.000493275 -0.000438172 0.000168274)
(-0.000409693 -0.000517172 0.000168274)
(-0.000313663 -0.000580457 0.000168273)
(-0.000208102 -0.000626106 0.000168273)
(-9.62186e-05 -0.000652731 0.000168273)
(1.85892e-05 -0.000659523 0.000168273)
(0.000132831 -0.000646275 0.000168273)
(0.000243038 -0.000613391 0.000168274)
(0.000345859 -0.000561869 0.000168274)
(0.000438172 -0.000493275 0.000168274)
(0.000517172 -0.000409693 0.000168274)
(0.000580457 -0.000313663 0.000168273)
(0.000626106 -0.000208102 0.000168273)
(0.000652731 -9.62186e-05 0.000168273)
(0.000659523 1.85892e-05 0.000168273)
(0.000646275 0.000132831 0.000168273)
(0.000613391 0.000243038 0.000168274)
(0.000561869 0.000345859 0.000168274)
(0.000493275 0.000438172 0.000168274)
(0.000409693 0.000517172 0.000168274)
(0.000313664 0.000580457 0.000168273)
(0.000208102 0.000626106 0.000168273)
(9.62187e-05 0.000652731 0.000168273)
(0 0 0)
(0 0 0)
(0 0 0)
(0 0 0)
(0 0 0)
(0 0 0)
(0 0 0)
(0 0 0)
(0 0 0)
(0 0 0)
(0 0 0)
(0 0 0)
(0 0 0)
(0 0 0)
(0 0 0)
(0 0 0)
(0 0 0)
(0 0 0)
(0 0 0)
(0 0 0)
(0 0 0)
(0 0 0)
(0 0 0)
(0 0 0)
(0 0 0)
(0 0 0)
(0 0 0)
(0 0 0)
(0 0 0)
(0 0 0)
(0 0 0)
(0 0 0)
(0 0 0)
(0 0 0)
(0 0 0)
(0 0 0)
(-0.000135658 0.000683839 0.000198246)
(-0.000252343 0.000649894 0.000198246)
(-0.000361363 0.000596201 0.000198246)
(-0.000459403 0.000524393 0.000198246)
(-0.000543483 0.000436652 0.000198246)
(-0.00061105 0.000335643 0.000198246)
(-0.00066005 0.000224436 0.000198246)
(-0.000688996 0.00010641 0.000198246)
(-0.000697006 -1.48489e-05 0.000198246)
(-0.000683839 -0.000135658 0.000198246)
(-0.000649894 -0.000252343 0.000198246)
(-0.000596201 -0.000361363 0.000198246)
(-0.000524393 -0.000459403 0.000198246)
(-0.000436652 -0.000543483 0.000198246)
(-0.000335643 -0.00061105 0.000198246)
(-0.000224436 -0.00066005 0.000198246)
(-0.00010641 -0.000688996 0.000198246)
(1.48489e-05 -0.000697006 0.000198246)
(0.000135658 -0.000683839 0.000198246)
(0.000252343 -0.000649894 0.000198246)
(0.000361363 -0.000596201 0.000198246)
(0.000459403 -0.000524393 0.000198246)
(0.000543483 -0.000436652 0.000198246)
(0.00061105 -0.000335643 0.000198246)
(0.00066005 -0.000224436 0.000198246)
(0.000688996 -0.00010641 0.000198246)
(0.000697006 1.48489e-05 0.000198246)
(0.000683839 0.000135658 0.000198246)
(0.000649894 0.000252343 0.000198246)
(0.000596201 0.000361363 0.000198246)
(0.000524393 0.000459403 0.000198246)
(0.000436652 0.000543483 0.000198246)
(0.000335643 0.00061105 0.000198246)
(0.000224436 0.00066005 0.000198246)
(0.00010641 0.000688996 0.000198246)
(-1.48489e-05 0.000697006 0.000198246)
(0 0 0)
(0 0 0)
(0 0 0)
(0 0 0)
(0 0 0)
(0 0 0)
(0 0 0)
(0 0 0)
(0 0 0)
(0 0 0)
(0 0 0)
(0 0 0)
(0 0 0)
(0 0 0)
(0 0 0)
(0 0 0)
(0 0 0)
(0 0 0)
(0 0 0)
(0 0 0)
(0 0 0)
(0 0 0)
(0 0 0)
(0 0 0)
(0 0 0)
(0 0 0)
(0 0 0)
(0 0 0)
(0 0 0)
(0 0 0)
(0 0 0)
(0 0 0)
(0 0 0)
(0 0 0)
(0 0 0)
(0 0 0)
(0.000221041 0.00116257 0.000244509)
(1.5805e-05 0.00118329 0.000244509)
(-0.000189912 0.00116806 0.00024451)
(-0.000389857 0.00111734 0.000244512)
(-0.000577957 0.00103266 0.000244512)
(-0.000748497 0.000916613 0.000244512)
(-0.000896294 0.000772713 0.000244511)
(-0.00101686 0.000605333 0.00024451)
(-0.00110652 0.00041956 0.000244509)
(-0.00116257 0.000221041 0.000244509)
(-0.00118329 1.58049e-05 0.000244509)
(-0.00116806 -0.000189912 0.00024451)
(-0.00111734 -0.000389857 0.000244512)
(-0.00103266 -0.000577957 0.000244512)
(-0.000916613 -0.000748497 0.000244512)
(-0.000772713 -0.000896294 0.000244511)
(-0.000605333 -0.00101686 0.00024451)
(-0.00041956 -0.00110652 0.000244509)
(-0.000221041 -0.00116257 0.000244509)
(-1.58048e-05 -0.00118329 0.000244509)
(0.000189912 -0.00116806 0.00024451)
(0.000389857 -0.00111734 0.000244512)
(0.000577957 -0.00103266 0.000244512)
(0.000748497 -0.000916613 0.000244512)
(0.000896294 -0.000772713 0.000244511)
(0.00101686 -0.000605333 0.00024451)
(0.00110652 -0.00041956 0.000244509)
(0.00116257 -0.000221041 0.000244509)
(0.00118329 -1.58049e-05 0.000244509)
(0.00116806 0.000189912 0.00024451)
(0.00111734 0.000389857 0.000244512)
(0.00103266 0.000577957 0.000244512)
(0.000916614 0.000748497 0.000244512)
(0.000772713 0.000896294 0.000244511)
(0.000605333 0.00101686 0.00024451)
(0.00041956 0.00110652 0.000244509)
(9.64423e-05 0.00123087 0.000324229)
(-0.000118761 0.00122891 0.000324229)
(-0.000330354 0.00118962 0.000324229)
(-0.000531911 0.00111418 0.000324231)
(-0.000717306 0.00100489 0.000324231)
(-0.000880905 0.000865065 0.00032423)
(-0.00101774 0.000698954 0.000324231)
(-0.00112365 0.000511606 0.00032423)
(-0.00119542 0.000308714 0.000324229)
(-0.00123087 9.64422e-05 0.000324229)
(-0.00122891 -0.000118761 0.000324229)
(-0.00118962 -0.000330354 0.000324229)
(-0.00111418 -0.000531912 0.000324231)
(-0.00100489 -0.000717306 0.000324231)
(-0.000865065 -0.000880905 0.00032423)
(-0.000698954 -0.00101774 0.000324231)
(-0.000511606 -0.00112365 0.00032423)
(-0.000308714 -0.00119542 0.000324229)
(-9.64421e-05 -0.00123087 0.000324229)
(0.000118762 -0.00122891 0.000324229)
(0.000330354 -0.00118962 0.000324229)
(0.000531912 -0.00111418 0.000324231)
(0.000717306 -0.00100489 0.000324231)
(0.000880905 -0.000865065 0.00032423)
(0.00101774 -0.000698954 0.000324231)
(0.00112365 -0.000511606 0.00032423)
(0.00119542 -0.000308714 0.000324229)
(0.00123087 -9.64422e-05 0.000324229)
(0.00122891 0.000118761 0.000324229)
(0.00118962 0.000330354 0.000324229)
(0.00111418 0.000531912 0.000324231)
(0.00100489 0.000717306 0.000324231)
(0.000865065 0.000880905 0.00032423)
(0.000698954 0.00101774 0.000324231)
(0.000511606 0.00112365 0.00032423)
(0.000308714 0.00119542 0.000324229)
(-4.881e-05 0.00129378 0.000396049)
(-0.00027273 0.00126565 0.000396049)
(-0.000488365 0.00119907 0.00039605)
(-0.000689161 0.00109605 0.00039605)
(-0.000869019 0.000959722 0.000396051)
(-0.00102247 0.000794238 0.00039605)
(-0.00114485 0.000604621 0.00039605)
(-0.00123245 0.000396635 0.000396049)
(-0.0012826 0.000176595 0.000396049)
(-0.00129378 -4.88101e-05 0.000396049)
(-0.00126565 -0.00027273 0.000396049)
(-0.00119907 -0.000488365 0.00039605)
(-0.00109605 -0.000689162 0.00039605)
(-0.000959722 -0.000869019 0.00039605)
(-0.000794237 -0.00102247 0.00039605)
(-0.000604621 -0.00114485 0.00039605)
(-0.000396634 -0.00123245 0.000396049)
(-0.000176595 -0.0012826 0.000396049)
(4.88101e-05 -0.00129378 0.000396049)
(0.00027273 -0.00126565 0.000396049)
(0.000488365 -0.00119907 0.00039605)
(0.000689162 -0.00109605 0.00039605)
(0.000869019 -0.000959722 0.00039605)
(0.00102247 -0.000794238 0.00039605)
(0.00114485 -0.000604621 0.00039605)
(0.00123245 -0.000396634 0.000396049)
(0.0012826 -0.000176595 0.000396049)
(0.00129378 4.88101e-05 0.000396049)
(0.00126565 0.00027273 0.000396049)
(0.00119907 0.000488365 0.00039605)
(0.00109605 0.000689162 0.00039605)
(0.000959722 0.000869019 0.000396051)
(0.000794238 0.00102247 0.00039605)
(0.000604621 0.00114485 0.00039605)
(0.000396635 0.00123245 0.00039605)
(0.000176595 0.0012826 0.000396049)
(-0.000208112 0.00134003 0.000455396)
(-0.000437643 0.00128353 0.000455396)
(-0.000653875 0.00118804 0.000455395)
(-0.000850241 0.00105644 0.000455395)
(-0.00102077 0.00089275 0.000455395)
(-0.00116029 0.000701932 0.000455395)
(-0.00126455 0.000489785 0.000455395)
(-0.00133039 0.000262756 0.000455395)
(-0.00135581 2.77447e-05 0.000455395)
(-0.00134003 -0.000208112 0.000455396)
(-0.00128353 -0.000437643 0.000455396)
(-0.00118804 -0.000653875 0.000455395)
(-0.00105644 -0.000850241 0.000455395)
(-0.00089275 -0.00102077 0.000455395)
(-0.000701931 -0.00116029 0.000455395)
(-0.000489785 -0.00126455 0.000455395)
(-0.000262756 -0.00133039 0.000455395)
(-2.77447e-05 -0.00135581 0.000455395)
(0.000208112 -0.00134003 0.000455396)
(0.000437643 -0.00128353 0.000455396)
(0.000653875 -0.00118804 0.000455395)
(0.000850241 -0.00105644 0.000455395)
(0.00102077 -0.00089275 0.000455395)
(0.00116029 -0.000701932 0.000455395)
(0.00126455 -0.000489785 0.000455395)
(0.00133039 -0.000262756 0.000455395)
(0.00135581 -2.77447e-05 0.000455395)
(0.00134003 0.000208112 0.000455396)
(0.00128353 0.000437643 0.000455396)
(0.00118804 0.000653875 0.000455395)
(0.00105644 0.000850241 0.000455395)
(0.00089275 0.00102077 0.000455395)
(0.000701932 0.00116029 0.000455395)
(0.000489785 0.00126455 0.000455395)
(0.000262756 0.00133039 0.000455395)
(2.77448e-05 0.00135581 0.000455395)
(0.000202232 0.00174863 0.000498006)
(-0.000104487 0.00175718 0.000498006)
(-0.000408032 0.00171234 0.000498008)
(-0.000699177 0.00161547 0.000498009)
(-0.000969079 0.00146952 0.000498009)
(-0.00120953 0.00127892 0.000498009)
(-0.00141324 0.00104945 0.000498009)
(-0.00157401 0.000788101 0.000498007)
(-0.00168695 0.000502805 0.000498006)
(-0.00174863 0.000202232 0.000498006)
(-0.00175718 -0.000104487 0.000498006)
(-0.00171234 -0.000408032 0.000498008)
(-0.00161547 -0.000699177 0.000498009)
(-0.00146952 -0.000969079 0.000498009)
(-0.00127892 -0.00120953 0.000498009)
(-0.00104945 -0.00141324 0.000498009)
(-0.000788101 -0.00157401 0.000498007)
(-0.000502805 -0.00168695 0.000498006)
(-0.000202232 -0.00174863 0.000498006)
(0.000104487 -0.00175718 0.000498006)
(0.000408032 -0.00171234 0.000498008)
(0.000699177 -0.00161547 0.000498009)
(0.000969079 -0.00146952 0.000498009)
(0.00120953 -0.00127892 0.000498009)
(0.00141324 -0.00104945 0.000498009)
(0.00157401 -0.000788101 0.000498007)
(0.00168695 -0.000502805 0.000498006)
(0.00174863 -0.000202232 0.000498006)
(0.00175718 0.000104487 0.000498006)
(0.00171234 0.000408032 0.000498008)
(0.00161547 0.000699177 0.000498009)
(0.00146952 0.000969079 0.000498009)
(0.00127892 0.00120953 0.000498009)
(0.00104945 0.00141324 0.000498009)
(0.000788101 0.00157401 0.000498007)
(0.000502805 0.00168695 0.000498006)
(4.91836e-05 0.00181509 0.000591037)
(-0.000266751 0.00179606 0.000591037)
(-0.00057458 0.00172245 0.000591038)
(-0.000864951 0.00159651 0.000591038)
(-0.00112904 0.00142206 0.000591039)
(-0.00135882 0.0012044 0.000591039)
(-0.00154732 0.00095014 0.000591039)
(-0.00168881 0.000667016 0.000591038)
(-0.00177898 0.000363623 0.000591038)
(-0.00181509 4.91834e-05 0.000591037)
(-0.00179606 -0.000266751 0.000591037)
(-0.00172245 -0.00057458 0.000591038)
(-0.00159651 -0.000864951 0.000591038)
(-0.00142206 -0.00112904 0.000591039)
(-0.0012044 -0.00135882 0.000591039)
(-0.00095014 -0.00154732 0.000591039)
(-0.000667016 -0.00168881 0.000591038)
(-0.000363623 -0.00177898 0.000591038)
(-4.91834e-05 -0.00181509 0.000591037)
(0.000266751 -0.00179606 0.000591037)
(0.00057458 -0.00172245 0.000591038)
(0.000864951 -0.00159651 0.000591038)
(0.00112904 -0.00142206 0.000591039)
(0.00135882 -0.0012044 0.000591039)
(0.00154732 -0.00095014 0.000591039)
(0.00168881 -0.000667016 0.000591038)
(0.00177898 -0.000363623 0.000591038)
(0.00181509 -4.91834e-05 0.000591037)
(0.00179606 0.000266751 0.000591038)
(0.00172245 0.00057458 0.000591038)
(0.00159651 0.000864951 0.000591039)
(0.00142206 0.00112904 0.000591039)
(0.0012044 0.00135882 0.000591039)
(0.00095014 0.00154732 0.000591039)
(0.000667016 0.00168881 0.000591038)
(0.000363623 0.00177898 0.000591038)
(-0.000122061 0.00187581 0.00067599)
(-0.000445939 0.00182612 0.00067599)
(-0.000756266 0.00172094 0.00067599)
(-0.00104361 0.00156347 0.00067599)
(-0.00129925 0.0013585 0.00067599)
(-0.00151542 0.00111224 0.000675991)
(-0.00168553 0.000832199 0.00067599)
(-0.00180444 0.000526865 0.00067599)
(-0.00186851 0.000205525 0.00067599)
(-0.00187581 -0.000122062 0.00067599)
(-0.00182612 -0.000445939 0.00067599)
(-0.00172094 -0.000756266 0.00067599)
(-0.00156347 -0.00104361 0.00067599)
(-0.0013585 -0.00129925 0.00067599)
(-0.00111224 -0.00151542 0.00067599)
(-0.000832199 -0.00168553 0.00067599)
(-0.000526865 -0.00180444 0.00067599)
(-0.000205524 -0.00186851 0.00067599)
(0.000122062 -0.00187581 0.00067599)
(0.000445939 -0.00182612 0.00067599)
(0.000756266 -0.00172094 0.00067599)
(0.00104361 -0.00156347 0.00067599)
(0.00129925 -0.0013585 0.00067599)
(0.00151542 -0.00111224 0.000675991)
(0.00168553 -0.000832199 0.00067599)
(0.00180444 -0.000526865 0.00067599)
(0.00186851 -0.000205525 0.00067599)
(0.00187581 0.000122062 0.00067599)
(0.00182612 0.000445939 0.00067599)
(0.00172094 0.000756266 0.00067599)
(0.00156347 0.00104361 0.00067599)
(0.0013585 0.00129925 0.00067599)
(0.00111225 0.00151542 0.000675991)
(0.000832199 0.00168553 0.00067599)
(0.000526865 0.00180444 0.00067599)
(0.000205525 0.00186851 0.00067599)
(-0.000303454 0.00191814 0.000748815)
(-0.000631924 0.00183631 0.000748815)
(-0.000941196 0.00169868 0.000748815)
(-0.00122187 0.00150944 0.000748815)
(-0.00146542 0.00127433 0.000748815)
(-0.00166444 0.0010005 0.000748815)
(-0.00181289 0.000696274 0.000748815)
(-0.00190625 0.000370892 0.000748815)
(-0.0019417 3.42387e-05 0.000748815)
(-0.00191814 -0.000303454 0.000748815)
(-0.00183631 -0.000631924 0.000748815)
(-0.00169868 -0.000941196 0.000748815)
(-0.00150943 -0.00122187 0.000748815)
(-0.00127433 -0.00146542 0.000748815)
(-0.0010005 -0.00166444 0.000748815)
(-0.000696274 -0.00181289 0.000748815)
(-0.000370892 -0.00190625 0.000748815)
(-3.42386e-05 -0.0019417 0.000748815)
(0.000303454 -0.00191814 0.000748815)
(0.000631924 -0.00183631 0.000748815)
(0.000941196 -0.00169868 0.000748815)
(0.00122187 -0.00150943 0.000748815)
(0.00146542 -0.00127433 0.000748815)
(0.00166444 -0.0010005 0.000748815)
(0.00181289 -0.000696274 0.000748815)
(0.00190625 -0.000370892 0.000748815)
(0.0019417 -3.42386e-05 0.000748816)
(0.00191814 0.000303454 0.000748815)
(0.00183631 0.000631924 0.000748815)
(0.00169868 0.000941196 0.000748815)
(0.00150944 0.00122187 0.000748815)
(0.00127433 0.00146542 0.000748815)
(0.0010005 0.00166444 0.000748815)
(0.000696274 0.00181289 0.000748815)
(0.000370892 0.00190625 0.000748815)
(3.42387e-05 0.0019417 0.000748816)
(9.97317e-05 0.00231472 0.00078963)
(-0.000303733 0.00229687 0.000789631)
(-0.000697964 0.00220923 0.000789631)
(-0.00107099 0.00205447 0.000789632)
(-0.00141147 0.00183728 0.000789633)
(-0.00170907 0.00156427 0.000789633)
(-0.00195474 0.00124373 0.000789633)
(-0.00214101 0.000885395 0.000789632)
(-0.00226223 0.000500161 0.000789632)
(-0.00231472 9.97315e-05 0.00078963)
(-0.00229687 -0.000303733 0.000789631)
(-0.00220923 -0.000697964 0.000789631)
(-0.00205447 -0.00107099 0.000789632)
(-0.00183728 -0.00141147 0.000789633)
(-0.00156427 -0.00170907 0.000789633)
(-0.00124373 -0.00195474 0.000789633)
(-0.000885395 -0.00214101 0.000789632)
(-0.000500161 -0.00226223 0.000789632)
(-9.97314e-05 -0.00231472 0.00078963)
(0.000303733 -0.00229687 0.000789631)
(0.000697964 -0.00220923 0.000789631)
(0.00107099 -0.00205447 0.000789632)
(0.00141147 -0.00183728 0.000789633)
(0.00170907 -0.00156427 0.000789633)
(0.00195474 -0.00124373 0.000789633)
(0.00214101 -0.000885395 0.000789632)
(0.00226223 -0.000500161 0.000789632)
(0.00231472 -9.97315e-05 0.00078963)
(0.00229687 0.000303733 0.000789631)
(0.00220923 0.000697964 0.000789631)
(0.00205447 0.00107099 0.000789632)
(0.00183728 0.00141147 0.000789633)
(0.00156427 0.00170907 0.000789633)
(0.00124373 0.00195474 0.000789633)
(0.000885395 0.00214101 0.000789632)
(0.000500161 0.00226223 0.000789632)
(-6.09314e-05 0.00235565 0.000883575)
(-0.00046906 0.00230928 0.000883574)
(-0.000862935 0.00219274 0.000883575)
(-0.00123059 0.00200959 0.000883575)
(-0.00156086 0.00176536 0.000883575)
(-0.0018437 0.0014675 0.000883576)
(-0.00207051 0.00112506 0.000883576)
(-0.00223442 0.000748422 0.000883576)
(-0.00233044 0.000349048 0.000883575)
(-0.00235565 -6.09315e-05 0.000883575)
(-0.00230928 -0.00046906 0.000883574)
(-0.00219274 -0.000862935 0.000883575)
(-0.00200959 -0.00123059 0.000883575)
(-0.00176536 -0.00156086 0.000883575)
(-0.0014675 -0.0018437 0.000883576)
(-0.00112506 -0.00207051 0.000883576)
(-0.000748422 -0.00223442 0.000883576)
(-0.000349048 -0.00233044 0.000883575)
(6.09317e-05 -0.00235565 0.000883574)
(0.00046906 -0.00230928 0.000883574)
(0.000862935 -0.00219274 0.000883575)
(0.00123059 -0.00200959 0.000883575)
(0.00156086 -0.00176536 0.000883575)
(0.0018437 -0.0014675 0.000883576)
(0.00207051 -0.00112506 0.000883576)
(0.00223442 -0.000748422 0.000883576)
(0.00233044 -0.000349048 0.000883575)
(0.00235565 6.09315e-05 0.000883575)
(0.00230928 0.00046906 0.000883574)
(0.00219275 0.000862935 0.000883575)
(0.00200959 0.00123059 0.000883575)
(0.00176536 0.00156086 0.000883576)
(0.0014675 0.0018437 0.000883576)
(0.00112506 0.00207051 0.000883576)
(0.000748422 0.00223442 0.000883576)
(0.000349049 0.00233044 0.000883575)
(-0.00023665 0.00239136 0.000969086)
(-0.00064831 0.00231394 0.000969086)
(-0.00104027 0.0021662 0.000969086)
(-0.00140063 0.00195265 0.000969087)
(-0.00171842 0.00167977 0.000969087)
(-0.001984 0.00135585 0.000969087)
(-0.0021893 0.000990735 0.000969087)
(-0.00232808 0.000595516 0.000969086)
(-0.00239612 0.0001822 0.000969087)
(-0.00239136 -0.00023665 0.000969086)
(-0.00231394 -0.00064831 0.000969086)
(-0.0021662 -0.00104027 0.000969086)
(-0.00195265 -0.00140063 0.000969086)
(-0.00167977 -0.00171842 0.000969087)
(-0.00135585 -0.001984 0.000969087)
(-0.000990735 -0.0021893 0.000969087)
(-0.000595516 -0.00232808 0.000969086)
(-0.0001822 -0.00239612 0.000969087)
(0.000236651 -0.00239136 0.000969086)
(0.00064831 -0.00231394 0.000969086)
(0.00104027 -0.0021662 0.000969086)
(0.00140063 -0.00195265 0.000969087)
(0.00171842 -0.00167977 0.000969087)
(0.001984 -0.00135585 0.000969087)
(0.0021893 -0.000990735 0.000969087)
(0.00232808 -0.000595516 0.000969086)
(0.00239612 -0.0001822 0.000969087)
(0.00239136 0.00023665 0.000969086)
(0.00231394 0.00064831 0.000969086)
(0.0021662 0.00104027 0.000969087)
(0.00195265 0.00140063 0.000969087)
(0.00167977 0.00171842 0.000969087)
(0.00135585 0.001984 0.000969087)
(0.000990735 0.0021893 0.000969087)
(0.000595516 0.00232808 0.000969087)
(0.0001822 0.00239612 0.000969087)
(-0.000420343 0.00240912 0.00104275)
(-0.000832296 0.00229952 0.00104276)
(-0.00121896 0.00212006 0.00104275)
(-0.00156859 0.00187618 0.00104275)
(-0.00187055 0.0015753 0.00104275)
(-0.00211568 0.00122655 0.00104275)
(-0.00229653 0.000840529 0.00104275)
(-0.00240759 0.000428973 0.00104275)
(-0.00244551 4.38079e-06 0.00104276)
(-0.00240911 -0.000420343 0.00104275)
(-0.00229952 -0.000832296 0.00104276)
(-0.00212006 -0.00121896 0.00104275)
(-0.00187618 -0.00156859 0.00104275)
(-0.0015753 -0.00187055 0.00104275)
(-0.00122655 -0.00211568 0.00104275)
(-0.000840529 -0.00229653 0.00104275)
(-0.000428973 -0.00240759 0.00104275)
(-4.38067e-06 -0.00244551 0.00104276)
(0.000420343 -0.00240912 0.00104275)
(0.000832296 -0.00229952 0.00104276)
(0.00121896 -0.00212006 0.00104275)
(0.00156859 -0.00187618 0.00104275)
(0.00187055 -0.0015753 0.00104275)
(0.00211568 -0.00122655 0.00104275)
(0.00229653 -0.000840529 0.00104275)
(0.00240759 -0.000428973 0.00104275)
(0.00244551 -4.38076e-06 0.00104276)
(0.00240912 0.000420343 0.00104275)
(0.00229952 0.000832296 0.00104276)
(0.00212006 0.00121896 0.00104275)
(0.00187618 0.00156859 0.00104275)
(0.0015753 0.00187055 0.00104275)
(0.00122655 0.00211568 0.00104275)
(0.00084053 0.00229653 0.00104275)
(0.000428973 0.00240759 0.00104275)
(4.3809e-06 0.00244551 0.00104276)
(-6.37551e-05 0.00283284 0.00110174)
(-0.000554705 0.00277873 0.00110174)
(-0.0010288 0.0026402 0.00110174)
(-0.00147163 0.00242144 0.00110174)
(-0.00186975 0.0021291 0.00110174)
(-0.00221106 0.00177207 0.00110174)
(-0.00248519 0.00136121 0.00110174)
(-0.0026838 0.000908977 0.00110174)
(-0.00280087 0.00042913 0.00110174)
(-0.00283284 -6.37553e-05 0.00110174)
(-0.00277873 -0.000554705 0.00110174)
(-0.0026402 -0.0010288 0.00110174)
(-0.00242144 -0.00147163 0.00110174)
(-0.0021291 -0.00186975 0.00110174)
(-0.00177207 -0.00221106 0.00110174)
(-0.00136121 -0.00248519 0.00110174)
(-0.000908977 -0.0026838 0.00110174)
(-0.00042913 -0.00280087 0.00110174)
(6.37555e-05 -0.00283284 0.00110174)
(0.000554705 -0.00277873 0.00110174)
(0.0010288 -0.0026402 0.00110174)
(0.00147163 -0.00242144 0.00110174)
(0.00186975 -0.0021291 0.00110174)
(0.00221106 -0.00177207 0.00110174)
(0.00248519 -0.00136121 0.00110174)
(0.0026838 -0.000908977 0.00110174)
(0.00280088 -0.00042913 0.00110174)
(0.00283284 6.37553e-05 0.00110174)
(0.00277873 0.000554705 0.00110174)
(0.0026402 0.0010288 0.00110174)
(0.00242144 0.00147163 0.00110174)
(0.0021291 0.00186975 0.00110174)
(0.00177207 0.00221106 0.00110174)
(0.00136121 0.00248519 0.00110174)
(0.000908977 0.0026838 0.00110174)
(0.000429131 0.00280087 0.00110174)
(-0.000218959 0.00283215 0.00118788)
(-0.000707428 0.0027511 0.00118788)
(-0.0011744 0.00258646 0.00118788)
(-0.0016057 0.00234323 0.00118788)
(-0.0019882 0.00202881 0.00118788)
(-0.00231029 0.00165274 0.00118788)
(-0.00256219 0.00122645 0.00118788)
(-0.00273623 0.000762899 0.00118788)
(-0.00282714 0.000276165 0.00118788)
(-0.00283215 -0.000218959 0.00118788)
(-0.0027511 -0.000707429 0.00118788)
(-0.00258646 -0.0011744 0.00118788)
(-0.00234323 -0.0016057 0.00118788)
(-0.00202881 -0.0019882 0.00118788)
(-0.00165274 -0.00231029 0.00118788)
(-0.00122645 -0.00256219 0.00118788)
(-0.000762898 -0.00273623 0.00118788)
(-0.000276165 -0.00282714 0.00118788)
(0.000218959 -0.00283215 0.00118788)
(0.000707429 -0.0027511 0.00118788)
(0.0011744 -0.00258646 0.00118788)
(0.0016057 -0.00234323 0.00118788)
(0.0019882 -0.00202881 0.00118788)
(0.00231029 -0.00165274 0.00118788)
(0.00256219 -0.00122645 0.00118788)
(0.00273623 -0.000762899 0.00118788)
(0.00282714 -0.000276165 0.00118788)
(0.00283215 0.000218959 0.00118788)
(0.0027511 0.000707429 0.00118788)
(0.00258646 0.0011744 0.00118788)
(0.00234323 0.0016057 0.00118788)
(0.00202881 0.0019882 0.00118788)
(0.00165274 0.00231029 0.00118788)
(0.00122645 0.00256219 0.00118788)
(0.000762899 0.00273623 0.00118788)
(0.000276165 0.00282714 0.00118788)
(-0.000386382 0.0028278 0.00126535)
(-0.000871552 0.00271774 0.00126535)
(-0.00133024 0.00252511 0.00126535)
(-0.00174851 0.00225575 0.00126535)
(-0.00211366 0.00191786 0.00126535)
(-0.00241458 0.00152169 0.00126535)
(-0.00264213 0.00107928 0.00126535)
(-0.00278941 0.000604085 0.00126535)
(-0.00285193 0.00011053 0.00126535)
(-0.0028278 -0.000386382 0.00126535)
(-0.00271774 -0.000871552 0.00126535)
(-0.00252511 -0.00133024 0.00126535)
(-0.00225575 -0.00174851 0.00126535)
(-0.00191786 -0.00211366 0.00126535)
(-0.00152169 -0.00241458 0.00126535)
(-0.00107928 -0.00264213 0.00126535)
(-0.000604085 -0.00278941 0.00126535)
(-0.00011053 -0.00285193 0.00126535)
(0.000386382 -0.0028278 0.00126535)
(0.000871552 -0.00271774 0.00126535)
(0.00133024 -0.00252511 0.00126535)
(0.00174851 -0.00225575 0.00126535)
(0.00211366 -0.00191786 0.00126535)
(0.00241458 -0.00152169 0.00126535)
(0.00264213 -0.00107928 0.00126535)
(0.00278941 -0.000604085 0.00126535)
(0.00285193 -0.00011053 0.00126535)
(0.0028278 0.000386382 0.00126535)
(0.00271774 0.000871552 0.00126535)
(0.00252511 0.00133024 0.00126535)
(0.00225575 0.00174851 0.00126535)
(0.00191786 0.00211366 0.00126535)
(0.00152169 0.00241458 0.00126535)
(0.00107928 0.00264213 0.00126535)
(0.000604085 0.00278941 0.00126535)
(0.000110531 0.00285193 0.00126535)
(-0.000559771 0.0028071 0.00133113)
(-0.00103872 0.00266725 0.00133113)
(-0.0014861 0.00244636 0.00133113)
(-0.00188833 0.00215114 0.00133113)
(-0.00223318 0.00179055 0.00133113)
(-0.00251018 0.00137556 0.00133113)
(-0.00271091 0.000918775 0.00133113)
(-0.00282927 0.000434071 0.00133113)
(-0.00286166 -6.38207e-05 0.00133113)
(-0.0028071 -0.000559772 0.00133113)
(-0.00266725 -0.00103872 0.00133113)
(-0.00244636 -0.0014861 0.00133113)
(-0.00215114 -0.00188833 0.00133113)
(-0.00179055 -0.00223318 0.00133113)
(-0.00137556 -0.00251018 0.00133113)
(-0.000918775 -0.00271091 0.00133113)
(-0.000434071 -0.00282927 0.00133113)
(6.38208e-05 -0.00286166 0.00133113)
(0.000559772 -0.0028071 0.00133113)
(0.00103872 -0.00266725 0.00133113)
(0.0014861 -0.00244636 0.00133113)
(0.00188833 -0.00215114 0.00133113)
(0.00223318 -0.00179055 0.00133113)
(0.00251018 -0.00137556 0.00133113)
(0.00271091 -0.000918775 0.00133113)
(0.00282927 -0.000434071 0.00133113)
(0.00286166 6.38207e-05 0.00133113)
(0.0028071 0.000559772 0.00133113)
(0.00266725 0.00103872 0.00133113)
(0.00244636 0.0014861 0.00133113)
(0.00215114 0.00188833 0.00133113)
(0.00179055 0.00223318 0.00133113)
(0.00137556 0.00251018 0.00133113)
(0.000918776 0.00271091 0.00133113)
(0.000434071 0.00282927 0.00133113)
(-6.38205e-05 0.00286166 0.00133113)
(-0.000261079 0.00327826 0.00142814)
(-0.000826377 0.00318312 0.00142814)
(-0.00136656 0.00299126 0.00142814)
(-0.00186523 0.00270851 0.00142814)
(-0.00230722 0.00234347 0.00142814)
(-0.00267911 0.00190722 0.00142814)
(-0.00296959 0.00141303 0.00142814)
(-0.00316985 0.000875895 0.00142814)
(-0.00327379 0.000312149 0.00142814)
(-0.00327826 -0.000261079 0.00142814)
(-0.00318312 -0.000826377 0.00142814)
(-0.00299126 -0.00136656 0.00142814)
(-0.00270851 -0.00186523 0.00142814)
(-0.00234347 -0.00230722 0.00142814)
(-0.00190722 -0.00267911 0.00142814)
(-0.00141303 -0.00296959 0.00142814)
(-0.000875894 -0.00316985 0.00142814)
(-0.000312149 -0.00327379 0.00142814)
(0.00026108 -0.00327826 0.00142814)
(0.000826377 -0.00318312 0.00142814)
(0.00136656 -0.00299126 0.00142814)
(0.00186523 -0.00270851 0.00142814)
(0.00230722 -0.00234347 0.00142814)
(0.00267911 -0.00190722 0.00142814)
(0.00296959 -0.00141303 0.00142814)
(0.00316985 -0.000875894 0.00142814)
(0.00327379 -0.000312149 0.00142814)
(0.00327826 0.000261079 0.00142814)