/*--------------------------------*- C++ -*----------------------------------*\
| =========                 |                                                 |
| \\      /  F ield         | OpenFOAM: The Open Source CFD Toolbox           |
|  \\    /   O peration     | Version:  2312                                  |
|   \\  /    A nd           | Website:  www.openfoam.com                      |
|    \\/     M anipulation  |                                                 |
\*---------------------------------------------------------------------------*/
FoamFile
{
    version     2.0;
    format      ascii;
    arch        "LSB;label=32;scalar=64";
    class       volSymmTensorField;
    location    "0.6";
    object      sigma;
}
// * * * * * * * * * * * * * * * * * * * * * * * * * * * * * * * * * * * * * //

dimensions      [1 -1 -2 0 0 0 0];

internalField   nonuniform List<symmTensor> 
1620
(
(-6361.21 -927.622 -1902.39 1084.64 13414.5 20036.6)
(-5819.39 -2144.99 -4202.88 542.888 12880.3 20036.7)
(-4893.88 -3103.67 -6375.7 -382.549 11954.8 20036.6)
(-3696.53 -3687.91 -8354.72 -1580.33 10666 20036.6)
(-2371.43 -3827.38 -10079.9 -2905.5 9053.21 20036.6)
(-1078.42 -3505.25 -11498.8 -4198.34 7165.36 20036.7)
(26.5015 -2760.36 -12568.5 -5303.11 5059.76 20036.5)
(809.848 -1682.47 -13256.1 -6086.5 2800.4 20036.6)
(1177.38 -401.647 -13541 -6453.97 455.936 20036.6)
(1084.64 927.622 -13414.5 -6361.21 -1902.39 20036.6)
(542.889 2144.99 -12880.3 -5819.39 -4202.88 20036.7)
(-382.549 3103.67 -11954.8 -4893.88 -6375.7 20036.6)
(-1580.33 3687.91 -10666 -3696.53 -8354.72 20036.6)
(-2905.5 3827.38 -9053.21 -2371.43 -10079.9 20036.6)
(-4198.34 3505.25 -7165.36 -1078.42 -11498.8 20036.7)
(-5303.11 2760.36 -5059.76 26.5023 -12568.5 20036.5)
(-6086.5 1682.47 -2800.4 809.848 -13256.1 20036.6)
(-6453.97 401.647 -455.936 1177.38 -13541 20036.6)
(-6361.21 -927.622 1902.39 1084.64 -13414.5 20036.6)
(-5819.39 -2144.99 4202.88 542.889 -12880.3 20036.7)
(-4893.88 -3103.67 6375.7 -382.549 -11954.8 20036.6)
(-3696.53 -3687.91 8354.72 -1580.33 -10666 20036.6)
(-2371.43 -3827.38 10079.9 -2905.5 -9053.21 20036.6)
(-1078.42 -3505.25 11498.8 -4198.34 -7165.36 20036.7)
(26.5008 -2760.36 12568.5 -5303.12 -5059.76 20036.5)
(809.847 -1682.47 13256.1 -6086.51 -2800.4 20036.6)
(1177.38 -401.647 13541 -6453.97 -455.936 20036.6)
(1084.64 927.622 13414.5 -6361.21 1902.39 20036.6)
(542.887 2144.99 12880.3 -5819.39 4202.88 20036.7)
(-382.55 3103.67 11954.8 -4893.88 6375.7 20036.6)
(-1580.33 3687.91 10666 -3696.53 8354.72 20036.6)
(-2905.5 3827.38 9053.21 -2371.43 10079.9 20036.6)
(-4198.34 3505.25 7165.36 -1078.42 11498.8 20036.7)
(-5303.12 2760.36 5059.76 26.5003 12568.5 20036.5)
(-6086.51 1682.47 2800.4 809.847 13256.1 20036.6)
(-6453.97 401.647 455.936 1177.38 13541 20036.6)
(-21680 -3433.5 -438.89 13289.9 3553.24 -22127.1)
(-19451.2 -9206.62 -1049.24 11061.2 3423.05 -22127)
(-15382.2 -13869.4 -1627.7 6992.24 3188.84 -22127)
(-9963.97 -16859.2 -2156.8 1573.89 2857.86 -22127)
(-3850.02 -17815.5 -2620.36 -4540.22 2440 -22127)
(2222.39 -16623.1 -3004.17 -10612.7 1947.85 -22127.1)
(7520.93 -13425.7 -3296.64 -15911 1396.54 -22127)
(11406.2 -8608.9 -3489.06 -19796.3 802.857 -22127.1)
(13409.7 -2753.78 -3575.47 -21799.9 184.791 -22127.1)
(13289.9 3433.5 -3553.24 -21680 -438.89 -22127.1)
(11061.2 9206.62 -3423.05 -19451.2 -1049.24 -22127)
(6992.24 13869.4 -3188.84 -15382.2 -1627.7 -22127)
(1573.89 16859.2 -2857.86 -9963.97 -2156.8 -22127)
(-4540.22 17815.5 -2440 -3850.01 -2620.36 -22127)
(-10612.7 16623.1 -1947.85 2222.39 -3004.17 -22127.1)
(-15911 13425.7 -1396.54 7520.93 -3296.64 -22127)
(-19796.3 8608.9 -802.857 11406.2 -3489.06 -22127.1)
(-21799.9 2753.78 -184.791 13409.7 -3575.47 -22127.1)
(-21680 -3433.5 438.89 13289.9 -3553.24 -22127.1)
(-19451.2 -9206.62 1049.23 11061.2 -3423.05 -22127)
(-15382.2 -13869.4 1627.7 6992.24 -3188.84 -22127)
(-9963.97 -16859.2 2156.8 1573.89 -2857.86 -22127)
(-3850.02 -17815.5 2620.36 -4540.22 -2440 -22127)
(2222.39 -16623.1 3004.17 -10612.7 -1947.85 -22127.1)
(7520.93 -13425.7 3296.64 -15911 -1396.54 -22127)
(11406.2 -8608.9 3489.06 -19796.3 -802.857 -22127.1)
(13409.7 -2753.78 3575.47 -21799.9 -184.791 -22127.1)
(13289.9 3433.5 3553.24 -21680 438.89 -22127.1)
(11061.2 9206.62 3423.05 -19451.2 1049.23 -22127)
(6992.24 13869.4 3188.84 -15382.2 1627.7 -22127)
(1573.89 16859.2 2857.86 -9963.97 2156.8 -22127)
(-4540.22 17815.5 2440 -3850.02 2620.36 -22127)
(-10612.7 16623.1 1947.85 2222.39 3004.17 -22127.1)
(-15911 13425.7 1396.54 7520.93 3296.64 -22127)
(-19796.3 8608.9 802.857 11406.2 3489.06 -22127.1)
(-21799.9 2753.78 184.791 13409.7 3575.47 -22127.1)
(-41013.5 -909 914.782 -26600.2 -19075 -17738.6)
(-40268 -3318.99 4213.22 -27345.7 -18626.4 -17738.6)
(-38743.3 -5328.68 7383.67 -28870.7 -17611.8 -17738.7)
(-36622.9 -6695.65 10329.8 -30990.8 -16062 -17738.7)
(-34163.1 -7255.08 12962 -33450.6 -14024.3 -17738.8)
(-31660.2 -6939.31 15200.3 -35953.4 -11560.4 -17738.6)
(-29416.3 -5786.62 16976.8 -38197.4 -8745.27 -17738.6)
(-27702 -3935.97 18237.5 -39911.9 -5664.36 -17738.7)
(-26724 -1610.63 18944.1 -40889.8 -2411.44 -17738.7)
(-26600.2 909 19075 -41013.5 914.783 -17738.6)
(-27345.7 3319 18626.4 -40268 4213.22 -17738.6)
(-28870.7 5328.68 17611.8 -38743.3 7383.67 -17738.7)
(-30990.8 6695.65 16062 -36622.9 10329.8 -17738.7)
(-33450.6 7255.08 14024.3 -34163.1 12962 -17738.8)
(-35953.4 6939.31 11560.4 -31660.2 15200.3 -17738.6)
(-38197.4 5786.62 8745.27 -29416.3 16976.8 -17738.6)
(-39911.9 3935.97 5664.36 -27702 18237.5 -17738.7)
(-40889.8 1610.63 2411.44 -26724 18944.1 -17738.7)
(-41013.5 -909 -914.783 -26600.2 19075 -17738.6)
(-40268 -3319 -4213.22 -27345.7 18626.4 -17738.6)
(-38743.3 -5328.68 -7383.67 -28870.7 17611.8 -17738.7)
(-36622.9 -6695.65 -10329.8 -30990.8 16062 -17738.7)
(-34163.1 -7255.08 -12962 -33450.6 14024.3 -17738.8)
(-31660.2 -6939.31 -15200.3 -35953.4 11560.4 -17738.6)
(-29416.3 -5786.62 -16976.8 -38197.4 8745.27 -17738.6)
(-27702 -3935.97 -18237.5 -39911.9 5664.36 -17738.7)
(-26724 -1610.63 -18944.1 -40889.8 2411.44 -17738.7)
(-26600.2 909 -19075 -41013.5 -914.783 -17738.6)
(-27345.7 3319 -18626.4 -40268 -4213.22 -17738.6)
(-28870.7 5328.68 -17611.8 -38743.3 -7383.67 -17738.7)
(-30990.8 6695.65 -16062 -36622.9 -10329.8 -17738.7)
(-33450.6 7255.08 -14024.3 -34163.1 -12962 -17738.8)
(-35953.4 6939.31 -11560.4 -31660.2 -15200.3 -17738.6)
(-38197.4 5786.62 -8745.27 -29416.3 -16976.8 -17738.6)
(-39911.9 3935.97 -5664.36 -27702 -18237.5 -17738.7)
(-40889.8 1610.63 -2411.44 -26724 -18944.1 -17738.7)
(7543.01 -1242.07 -2191.7 12489.1 11654.2 35286.6)
(8116.86 -2012.94 -4182.05 11915 11096.5 35286.6)
(8919.99 -2541.1 -6045.46 11112.1 10201.7 35286.6)
(9855.14 -2762.66 -7725.05 10176.8 8996.83 35286.8)
(10809.8 -2651.06 -9170 9222.27 7518.69 35286.8)
(11668.6 -2219.71 -10336.2 8363.46 5812.19 35286.8)
(12328.1 -1520.68 -11188.6 7703.75 3929.06 35286.4)
(12708.8 -638.156 -11700.9 7323.18 1926.47 35286.6)
(12764.8 321.313 -11857.7 7267.37 -134.623 35286.6)
(12489.1 1242.07 -11654.2 7543.01 -2191.7 35286.6)
(11915 2012.94 -11096.5 8116.86 -4182.05 35286.6)
(11112.1 2541.1 -10201.7 8919.99 -6045.46 35286.6)
(10176.8 2762.66 -8996.83 9855.14 -7725.05 35286.8)
(9222.27 2651.06 -7518.69 10809.8 -9170 35286.8)
(8363.46 2219.71 -5812.19 11668.6 -10336.2 35286.8)
(7703.75 1520.68 -3929.06 12328.1 -11188.6 35286.4)
(7323.18 638.156 -1926.47 12708.8 -11700.9 35286.6)
(7267.37 -321.313 134.623 12764.8 -11857.7 35286.6)
(7543.01 -1242.07 2191.7 12489.1 -11654.2 35286.6)
(8116.86 -2012.94 4182.05 11915 -11096.5 35286.6)
(8919.99 -2541.1 6045.46 11112.1 -10201.7 35286.6)
(9855.14 -2762.66 7725.05 10176.8 -8996.83 35286.8)
(10809.8 -2651.06 9170 9222.27 -7518.69 35286.8)
(11668.6 -2219.71 10336.2 8363.46 -5812.19 35286.8)
(12328.1 -1520.68 11188.6 7703.75 -3929.06 35286.4)
(12708.8 -638.156 11700.9 7323.18 -1926.47 35286.6)
(12764.8 321.313 11857.7 7267.37 134.623 35286.6)
(12489.1 1242.07 11654.2 7543.01 2191.7 35286.6)
(11915 2012.94 11096.5 8116.86 4182.05 35286.6)
(11112.1 2541.1 10201.7 8919.99 6045.46 35286.6)
(10176.8 2762.66 8996.83 9855.14 7725.05 35286.8)
(9222.27 2651.06 7518.69 10809.8 9170 35286.8)
(8363.46 2219.71 5812.19 11668.6 10336.2 35286.8)
(7703.75 1520.68 3929.06 12328.1 11188.6 35286.4)
(7323.18 638.156 1926.47 12708.8 11700.9 35286.6)
(7267.37 -321.313 -134.623 12764.8 11857.7 35286.6)
(-3932.64 -4487.04 -640.579 29991.9 5031.77 -4879.4)
(-1374.98 -10017.8 -1504.64 27434.4 4844.23 -4879.26)
(2919.93 -14340.4 -2322.94 23139.3 4509.29 -4879.41)
(8434.3 -16933.2 -3070.74 17624.9 4037.5 -4879.36)
(14503 -17483.7 -3725.17 11556.2 3442.91 -4879.37)
(20393.7 -15925.4 -4266.45 5665.17 2743.75 -4879.5)
(25396.7 -12446.3 -4677.99 662.699 1961.17 -4879.32)
(28907.7 -7465.88 -4947.54 -2848.37 1119.06 -4879.3)
(30503.6 -1585.09 -5066.56 -4444.33 242.926 -4879.39)
(29991.9 4487.04 -5031.77 -3932.64 -640.579 -4879.4)
(27434.4 10017.8 -4844.23 -1374.98 -1504.64 -4879.26)
(23139.3 14340.4 -4509.29 2919.93 -2322.94 -4879.41)
(17624.9 16933.2 -4037.5 8434.3 -3070.74 -4879.36)
(11556.2 17483.7 -3442.91 14503 -3725.17 -4879.37)
(5665.17 15925.4 -2743.75 20393.7 -4266.45 -4879.5)
(662.699 12446.3 -1961.17 25396.7 -4677.99 -4879.32)
(-2848.37 7465.88 -1119.06 28907.7 -4947.54 -4879.3)
(-4444.33 1585.09 -242.926 30503.6 -5066.56 -4879.39)
(-3932.64 -4487.04 640.579 29991.9 -5031.77 -4879.39)
(-1374.98 -10017.8 1504.64 27434.4 -4844.23 -4879.26)
(2919.93 -14340.4 2322.94 23139.3 -4509.29 -4879.41)
(8434.3 -16933.2 3070.74 17624.9 -4037.5 -4879.36)
(14503 -17483.7 3725.17 11556.2 -3442.91 -4879.37)
(20393.7 -15925.4 4266.45 5665.17 -2743.75 -4879.5)
(25396.7 -12446.3 4677.99 662.699 -1961.17 -4879.32)
(28907.7 -7465.88 4947.54 -2848.37 -1119.06 -4879.3)
(30503.6 -1585.09 5066.56 -4444.33 -242.926 -4879.39)
(29991.9 4487.04 5031.77 -3932.64 640.579 -4879.4)
(27434.4 10017.8 4844.23 -1374.98 1504.64 -4879.26)
(23139.3 14340.4 4509.29 2919.93 2322.94 -4879.41)
(17624.9 16933.2 4037.5 8434.3 3070.74 -4879.36)
(11556.2 17483.7 3442.91 14503 3725.17 -4879.37)
(5665.17 15925.4 2743.75 20393.7 4266.45 -4879.5)
(662.699 12446.3 1961.17 25396.7 4677.99 -4879.32)
(-2848.37 7465.88 1119.06 28907.7 4947.54 -4879.3)
(-4444.33 1585.09 242.926 30503.6 5066.56 -4879.39)
(-22060.6 -1444.54 688.784 -7543.33 -19223.5 -305.174)
(-21128.8 -3840.02 4016.43 -8475.11 -18811.9 -305.23)
(-19433.9 -5772.33 7222.04 -10170 -17828.6 -305.191)
(-17180.3 -7008.42 10208.2 -12423.6 -16303.7 -305.136)
(-14639.7 -7399.23 12884.3 -14963.9 -14283.4 -305.119)
(-12118.7 -6897.52 15168.8 -17484.7 -11829 -304.884)
(-9921.55 -5563.9 16992.4 -19682.2 -9015.25 -305.132)
(-8312.87 -3559.18 18299.8 -21290.9 -5927.57 -305.17)
(-7487.01 -1125.2 19051.1 -22116.9 -2659.85 -305.167)
(-7543.33 1444.54 19223.5 -22060.6 688.784 -305.173)
(-8475.11 3840.02 18811.9 -21128.8 4016.43 -305.228)
(-10170 5772.33 17828.6 -19433.9 7222.04 -305.189)
(-12423.6 7008.42 16303.7 -17180.3 10208.2 -305.135)
(-14963.9 7399.23 14283.4 -14639.7 12884.3 -305.117)
(-17484.7 6897.52 11829 -12118.7 15168.8 -304.882)
(-19682.2 5563.9 9015.25 -9921.55 16992.4 -305.131)
(-21290.9 3559.18 5927.57 -8312.87 18299.8 -305.169)
(-22116.9 1125.2 2659.85 -7487 19051.1 -305.167)
(-22060.6 -1444.54 -688.784 -7543.33 19223.5 -305.173)
(-21128.8 -3840.02 -4016.43 -8475.11 18811.9 -305.228)
(-19433.9 -5772.33 -7222.04 -10170 17828.6 -305.189)
(-17180.3 -7008.42 -10208.2 -12423.6 16303.7 -305.135)
(-14639.7 -7399.23 -12884.3 -14963.9 14283.4 -305.118)
(-12118.7 -6897.52 -15168.8 -17484.7 11829 -304.883)
(-9921.55 -5563.9 -16992.4 -19682.2 9015.25 -305.132)
(-8312.87 -3559.18 -18299.8 -21290.9 5927.57 -305.17)
(-7487.01 -1125.2 -19051.1 -22116.9 2659.85 -305.168)
(-7543.33 1444.54 -19223.5 -22060.6 -688.784 -305.174)
(-8475.11 3840.02 -18811.9 -21128.8 -4016.43 -305.229)
(-10170 5772.33 -17828.6 -19433.9 -7222.04 -305.191)
(-12423.6 7008.42 -16303.7 -17180.3 -10208.2 -305.136)
(-14963.9 7399.23 -14283.4 -14639.7 -12884.3 -305.119)
(-17484.7 6897.52 -11829 -12118.7 -15168.8 -304.884)
(-19682.2 5563.9 -9015.25 -9921.55 -16992.4 -305.133)
(-21290.9 3559.18 -5927.57 -8312.87 -18299.8 -305.17)
(-22116.9 1125.2 -2659.85 -7487.01 -19051.1 -305.168)
(5167.47 -1570.48 -1617.51 9643.99 11719.3 31690.5)
(5839.52 -2241.33 -3628.06 8971.75 11260.3 31690.5)
(6700.61 -2641.79 -5528.25 8110.79 10459.3 31690.6)
(7646.59 -2723.58 -7260.44 7164.63 9340.35 31690.6)
(8563.78 -2476.99 -8772.18 6247.82 7937.79 31690.5)
(9341 -1931.48 -10017.2 5470.42 6293.83 31690.7)
(9884.82 -1153.13 -10958 4926.38 4458.8 31690.4)
(10129.8 -235.627 -11565.8 4681.62 2488.2 31690.6)
(10046 710.243 -11822.1 4765.19 442.103 31690.4)
(9643.99 1570.48 -11719.3 5167.47 -1617.51 31690.5)
(8971.75 2241.33 -11260.3 5839.52 -3628.06 31690.5)
(8110.79 2641.79 -10459.3 6700.61 -5528.25 31690.6)
(7164.62 2723.58 -9340.35 7646.59 -7260.44 31690.6)
(6247.82 2476.99 -7937.79 8563.78 -8772.18 31690.5)
(5470.42 1931.48 -6293.83 9341 -10017.2 31690.7)
(4926.38 1153.13 -4458.8 9884.82 -10958 31690.4)
(4681.62 235.627 -2488.2 10129.8 -11565.8 31690.6)
(4765.19 -710.243 -442.103 10046 -11822.1 31690.4)
(5167.47 -1570.48 1617.51 9643.99 -11719.3 31690.5)
(5839.52 -2241.33 3628.06 8971.75 -11260.3 31690.5)
(6700.61 -2641.79 5528.25 8110.79 -10459.3 31690.6)
(7646.59 -2723.58 7260.44 7164.63 -9340.35 31690.6)
(8563.78 -2476.99 8772.18 6247.82 -7937.79 31690.5)
(9341 -1931.48 10017.2 5470.42 -6293.83 31690.7)
(9884.82 -1153.13 10958 4926.38 -4458.8 31690.4)
(10129.8 -235.627 11565.8 4681.62 -2488.2 31690.6)
(10046 710.243 11822.1 4765.19 -442.103 31690.4)
(9643.99 1570.48 11719.3 5167.47 1617.51 31690.5)
(8971.75 2241.33 11260.3 5839.52 3628.06 31690.5)
(8110.79 2641.79 10459.3 6700.61 5528.25 31690.6)
(7164.63 2723.58 9340.35 7646.59 7260.44 31690.6)
(6247.82 2476.99 7937.79 8563.78 8772.18 31690.5)
(5470.42 1931.48 6293.83 9341 10017.2 31690.7)
(4926.38 1153.13 4458.8 9884.82 10958 31690.4)
(4681.62 235.627 2488.2 10129.8 11565.8 31690.6)
(4765.19 -710.243 442.103 10046 11822.1 31690.4)
(-3913.17 -5438.04 -657.161 29239.7 5346.92 -6121.9)
(-1053.54 -10779.5 -1575.67 26380.1 5151.64 -6121.82)
(3460.48 -14820.9 -2446.31 21866 4799.76 -6121.86)
(9084.58 -17074.6 -3242.63 16242.2 4302.08 -6121.7)
(15140.3 -17268.9 -3940.3 10186.4 3673.52 -6121.8)
(20897.1 -15380.2 -4518.48 4429.34 2933.58 -6121.86)
(25661 -11636.6 -4959.21 -334.332 2104.38 -6121.78)
(28856.9 -6489.33 -5249.29 -3530.61 1211.25 -6121.97)
(30100 -559.44 -5379.8 -4773.31 281.318 -6121.82)
(29239.7 5438.04 -5346.92 -3913.17 -657.161 -6121.9)
(26380.1 10779.5 -5151.64 -1053.54 -1575.67 -6121.82)
(21866 14820.9 -4799.76 3460.48 -2446.31 -6121.86)
(16242.2 17074.6 -4302.09 9084.58 -3242.63 -6121.7)
(10186.4 17268.9 -3673.52 15140.3 -3940.3 -6121.8)
(4429.34 15380.2 -2933.58 20897.1 -4518.48 -6121.86)
(-334.332 11636.6 -2104.38 25661 -4959.21 -6121.78)
(-3530.61 6489.33 -1211.25 28856.9 -5249.29 -6121.97)
(-4773.31 559.44 -281.318 30100 -5379.8 -6121.82)
(-3913.17 -5438.04 657.161 29239.7 -5346.92 -6121.9)
(-1053.54 -10779.5 1575.67 26380.1 -5151.64 -6121.82)
(3460.48 -14820.9 2446.31 21866 -4799.76 -6121.86)
(9084.58 -17074.6 3242.63 16242.2 -4302.08 -6121.7)
(15140.3 -17268.9 3940.3 10186.4 -3673.52 -6121.8)
(20897.1 -15380.2 4518.48 4429.34 -2933.58 -6121.86)
(25661 -11636.6 4959.21 -334.332 -2104.38 -6121.78)
(28856.9 -6489.33 5249.29 -3530.61 -1211.25 -6121.97)
(30100 -559.44 5379.8 -4773.31 -281.318 -6121.82)
(29239.7 5438.04 5346.92 -3913.17 657.161 -6121.9)
(26380.1 10779.5 5151.64 -1053.54 1575.67 -6121.82)
(21866 14820.9 4799.76 3460.48 2446.31 -6121.86)
(16242.2 17074.6 4302.08 9084.58 3242.63 -6121.7)
(10186.4 17268.9 3673.52 15140.3 3940.3 -6121.8)
(4429.34 15380.2 2933.58 20897.1 4518.48 -6121.86)
(-334.332 11636.6 2104.38 25661 4959.21 -6121.78)
(-3530.61 6489.33 1211.25 28856.9 5249.29 -6121.97)
(-4773.31 559.44 281.318 30100 5379.8 -6121.82)
(-21206 -3373.92 2050.46 -7760.13 -18999.3 -1263.01)
(-19646.6 -5469.82 5318.48 -9319.5 -18354.6 -1263.07)
(-17464.3 -6906 8424.94 -11501.6 -17152.2 -1262.96)
(-14922.6 -7509.19 11275.4 -14043.5 -15428.7 -1263.01)
(-12327.9 -7206.69 13783.3 -16638.4 -13236.3 -1263.12)
(-9993 -6034.91 15872.4 -18973.2 -10641.8 -1263.06)
(-8199.75 -4135.27 17479.1 -20766.5 -7723.91 -1263.15)
(-7164.15 -1736.87 18554.8 -21801.7 -4571.38 -1262.95)
(-7011.57 871.06 19066.7 -21954.4 -1279.91 -1262.96)
(-7760.13 3373.92 18999.3 -21206 2050.46 -1263.01)
(-9319.5 5469.82 18354.6 -19646.6 5318.48 -1263.07)
(-11501.6 6906 17152.2 -17464.3 8424.94 -1262.96)
(-14043.5 7509.19 15428.7 -14922.6 11275.4 -1263.01)
(-16638.4 7206.69 13236.3 -12327.9 13783.3 -1263.12)
(-18973.2 6034.91 10641.8 -9993 15872.4 -1263.06)
(-20766.5 4135.27 7723.91 -8199.74 17479.1 -1263.15)
(-21801.7 1736.87 4571.38 -7164.15 18554.8 -1262.95)
(-21954.4 -871.06 1279.91 -7011.57 19066.7 -1262.96)
(-21206 -3373.92 -2050.46 -7760.13 18999.3 -1263.01)
(-19646.6 -5469.82 -5318.48 -9319.5 18354.6 -1263.07)
(-17464.3 -6906 -8424.94 -11501.6 17152.2 -1262.96)
(-14922.6 -7509.19 -11275.4 -14043.5 15428.7 -1263.01)
(-12327.9 -7206.69 -13783.3 -16638.4 13236.3 -1263.12)
(-9993 -6034.91 -15872.4 -18973.2 10641.8 -1263.06)
(-8199.75 -4135.27 -17479.1 -20766.5 7723.91 -1263.15)
(-7164.15 -1736.87 -18554.8 -21801.7 4571.38 -1262.95)
(-7011.57 871.06 -19066.7 -21954.4 1279.91 -1262.96)
(-7760.13 3373.92 -18999.3 -21206 -2050.46 -1263.01)
(-9319.5 5469.82 -18354.6 -19646.6 -5318.48 -1263.07)
(-11501.6 6906 -17152.2 -17464.3 -8424.94 -1262.96)
(-14043.5 7509.19 -15428.7 -14922.6 -11275.4 -1263.01)
(-16638.4 7206.69 -13236.3 -12327.9 -13783.3 -1263.12)
(-18973.2 6034.91 -10641.8 -9993 -15872.4 -1263.06)
(-20766.5 4135.27 -7723.91 -8199.75 -17479.1 -1263.15)
(-21801.7 1736.87 -4571.38 -7164.15 -18554.8 -1262.95)
(-21954.4 -871.059 -1279.91 -7011.57 -19066.7 -1262.96)
(4932.42 -1553.83 -299.462 9123.75 11968.8 30202.7)
(5590.26 -2176.91 -2373.32 8465.99 11735 30202.7)
(6421.47 -2537.42 -4375.05 7634.69 11144.6 30202.6)
(7325.98 -2591.84 -6243.81 6730.28 10215.5 30202.8)
(8194.47 -2333.67 -7922.79 5861.87 8976.15 30202.7)
(8922.29 -1794.01 -9361.14 5133.97 7463.93 30202.8)
(9421.76 -1038.02 -10515.1 4634.72 5725.07 30202.8)
(9632.29 -156.762 -11349.5 4423.87 3812.11 30202.6)
(9528.83 743.378 -11838.9 4527.39 1783.41 30202.8)
(9123.75 1553.83 -11968.8 4932.42 -299.462 30202.7)
(8465.99 2176.91 -11735 5590.26 -2373.32 30202.7)
(7634.69 2537.42 -11144.6 6421.47 -4375.05 30202.6)
(6730.28 2591.84 -10215.5 7325.98 -6243.81 30202.8)
(5861.87 2333.67 -8976.15 8194.47 -7922.79 30202.7)
(5133.97 1794.01 -7463.93 8922.29 -9361.14 30202.8)
(4634.72 1038.02 -5725.07 9421.76 -10515.1 30202.8)
(4423.87 156.762 -3812.11 9632.29 -11349.5 30202.6)
(4527.39 -743.378 -1783.41 9528.83 -11838.9 30202.8)
(4932.42 -1553.83 299.462 9123.75 -11968.8 30202.7)
(5590.26 -2176.91 2373.32 8465.99 -11735 30202.7)
(6421.47 -2537.42 4375.05 7634.69 -11144.6 30202.6)
(7325.98 -2591.84 6243.81 6730.28 -10215.5 30202.8)
(8194.47 -2333.67 7922.79 5861.87 -8976.15 30202.7)
(8922.29 -1794.01 9361.14 5133.97 -7463.93 30202.8)
(9421.76 -1038.02 10515.1 4634.72 -5725.07 30202.8)
(9632.29 -156.762 11349.5 4423.87 -3812.11 30202.6)
(9528.84 743.378 11838.9 4527.39 -1783.41 30202.8)
(9123.75 1553.83 11968.8 4932.42 299.462 30202.7)
(8465.99 2176.91 11735 5590.26 2373.32 30202.7)
(7634.69 2537.42 11144.6 6421.47 4375.05 30202.6)
(6730.28 2591.84 10215.5 7325.98 6243.81 30202.8)
(5861.87 2333.67 8976.15 8194.47 7922.79 30202.7)
(5133.97 1794.01 7463.93 8922.29 9361.14 30202.8)
(4634.72 1038.02 5725.07 9421.76 10515.1 30202.8)
(4423.87 156.762 3812.11 9632.29 11349.5 30202.6)
(4527.39 -743.38 1783.41 9528.84 11838.9 30202.8)
(-2899.95 -6284.44 -641.281 29326.6 5520.61 -6513.12)
(221.197 -11416.5 -1590.17 26205.5 5325.35 -6513.14)
(4909.42 -15171.6 -2490.75 21517.2 4968.28 -6513.18)
(10599.3 -17096.7 -3315.68 15827.5 4460.35 -6513.08)
(16604.2 -16959.8 -4039.86 9822.36 3816.85 -6513.16)
(22200.4 -14777.2 -4641.24 4226.37 3057.34 -6513.1)
(26712.5 -10812.3 -5101.57 -285.814 2204.92 -6513.19)
(29596.4 -5543.23 -5406.97 -3169.73 1285.54 -6513.15)
(30504.3 394.401 -5548.1 -4077.61 327.104 -6513.14)
(29326.6 6284.44 -5520.61 -2899.95 -641.281 -6513.12)
(26205.5 11416.5 -5325.35 221.197 -1590.17 -6513.14)
(21517.2 15171.6 -4968.28 4909.42 -2490.75 -6513.18)
(15827.5 17096.7 -4460.35 10599.3 -3315.68 -6513.08)
(9822.36 16959.8 -3816.85 16604.2 -4039.86 -6513.16)
(4226.37 14777.2 -3057.34 22200.4 -4641.24 -6513.1)
(-285.814 10812.3 -2204.92 26712.5 -5101.57 -6513.19)
(-3169.73 5543.23 -1285.54 29596.4 -5406.97 -6513.15)
(-4077.61 -394.401 -327.104 30504.3 -5548.1 -6513.14)
(-2899.95 -6284.44 641.28 29326.6 -5520.61 -6513.12)
(221.197 -11416.5 1590.17 26205.5 -5325.35 -6513.14)
(4909.42 -15171.6 2490.75 21517.2 -4968.28 -6513.18)
(10599.3 -17096.7 3315.68 15827.5 -4460.35 -6513.08)
(16604.2 -16959.8 4039.86 9822.36 -3816.85 -6513.16)
(22200.4 -14777.2 4641.24 4226.37 -3057.34 -6513.1)
(26712.5 -10812.3 5101.57 -285.814 -2204.92 -6513.19)
(29596.4 -5543.23 5406.97 -3169.73 -1285.54 -6513.15)
(30504.3 394.401 5548.1 -4077.61 -327.104 -6513.14)
(29326.6 6284.44 5520.61 -2899.95 641.281 -6513.12)
(26205.5 11416.5 5325.35 221.197 1590.17 -6513.14)
(21517.2 15171.6 4968.28 4909.42 2490.75 -6513.18)
(15827.5 17096.7 4460.35 10599.3 3315.68 -6513.08)
(9822.36 16959.8 3816.85 16604.2 4039.86 -6513.16)
(4226.37 14777.2 3057.34 22200.4 4641.24 -6513.1)
(-285.814 10812.3 2204.92 26712.5 5101.57 -6513.19)
(-3169.73 5543.23 1285.54 29596.4 5406.97 -6513.15)
(-4077.61 -394.401 327.104 30504.3 5548.1 -6513.14)
(-18472.1 -5271.87 3371.95 -6518.37 -18783.5 -669.728)
(-16308.6 -6998.14 6582.45 -8681.94 -17912.6 -669.848)
(-13685 -7880.34 9592.95 -11305.4 -16497.4 -669.74)
(-10918.1 -7812.02 12312 -14072.5 -14581 -669.78)
(-8341.34 -6801.51 14656.9 -16649.2 -12221.5 -669.862)
(-6265.59 -4970.59 16556.4 -18724.9 -9490.74 -669.738)
(-4941.32 -2540.15 17953 -20049.3 -6471.54 -669.838)
(-4527.98 196.634 18804 -20462.5 -3255.75 -669.822)
(-5075.72 2909.75 19083.7 -19914.7 59.0228 -669.73)
(-6518.37 5271.87 18783.5 -18472.1 3371.95 -669.727)
(-8681.94 6998.14 17912.6 -16308.6 6582.45 -669.847)
(-11305.4 7880.34 16497.4 -13685 9592.95 -669.739)
(-14072.5 7812.02 14581 -10918.1 12312 -669.778)
(-16649.2 6801.51 12221.5 -8341.34 14656.9 -669.861)
(-18724.9 4970.59 9490.74 -6265.58 16556.4 -669.737)
(-20049.3 2540.15 6471.54 -4941.32 17953 -669.837)
(-20462.5 -196.634 3255.75 -4527.97 18804 -669.821)
(-19914.7 -2909.75 -59.0229 -5075.72 19083.7 -669.73)
(-18472.1 -5271.87 -3371.95 -6518.37 18783.5 -669.727)
(-16308.6 -6998.14 -6582.45 -8681.94 17912.6 -669.847)
(-13685 -7880.34 -9592.95 -11305.4 16497.4 -669.739)
(-10918.1 -7812.02 -12312 -14072.5 14581 -669.779)
(-8341.34 -6801.51 -14656.9 -16649.2 12221.5 -669.862)
(-6265.59 -4970.59 -16556.4 -18724.9 9490.74 -669.738)
(-4941.32 -2540.15 -17953 -20049.3 6471.54 -669.838)
(-4527.98 196.634 -18804 -20462.5 3255.75 -669.822)
(-5075.72 2909.75 -19083.7 -19914.7 -59.0227 -669.731)
(-6518.37 5271.87 -18783.5 -18472.1 -3371.95 -669.729)
(-8681.94 6998.14 -17912.6 -16308.6 -6582.45 -669.848)
(-11305.4 7880.34 -16497.4 -13685 -9592.95 -669.741)
(-14072.5 7812.02 -14581 -10918.1 -12312 -669.78)
(-16649.2 6801.51 -12221.5 -8341.34 -14656.9 -669.863)
(-18724.9 4970.59 -9490.74 -6265.59 -16556.4 -669.739)
(-20049.3 2540.15 -6471.54 -4941.32 -17953 -669.839)
(-20462.5 -196.634 -3255.75 -4527.98 -18804 -669.823)
(-19914.7 -2909.75 59.0226 -5075.72 -19083.7 -669.731)
(4501.3 -1265.12 1142.83 8257.46 12198.2 28567.8)
(5047.36 -1831.16 -992.739 7711.67 12211.4 28567.9)
(5753.82 -2176.35 -3098.14 7004.86 11853.5 28567.7)
(6536.03 -2259.07 -5109.51 6222.86 11135.4 28567.8)
(7299.11 -2069.21 -6965.4 5459.54 10078.9 28567.8)
(7951.46 -1629.9 -8609.88 4807.35 8716.33 28567.8)
(8414.22 -993.929 -9992.58 4344.88 7088.87 28567.9)
(8631.29 -238.092 -11071.8 4127.42 5245.95 28567.7)
(8576.92 546.502 -11814.5 4181.88 3243.63 28567.9)
(8257.46 1265.12 -12198.2 4501.3 1142.83 28567.8)
(7711.67 1831.16 -12211.4 5047.36 -992.738 28567.9)
(7004.86 2176.35 -11853.5 5753.82 -3098.14 28567.7)
(6222.86 2259.07 -11135.4 6536.03 -5109.51 28567.8)
(5459.54 2069.21 -10078.9 7299.11 -6965.4 28567.8)
(4807.35 1629.9 -8716.33 7951.46 -8609.88 28567.8)
(4344.88 993.929 -7088.87 8414.22 -9992.58 28567.9)
(4127.42 238.092 -5245.95 8631.29 -11071.8 28567.7)
(4181.88 -546.502 -3243.63 8576.92 -11814.5 28567.9)
(4501.3 -1265.12 -1142.84 8257.46 -12198.2 28567.8)
(5047.36 -1831.16 992.738 7711.67 -12211.4 28567.9)
(5753.82 -2176.35 3098.14 7004.86 -11853.5 28567.7)
(6536.03 -2259.07 5109.51 6222.86 -11135.4 28567.8)
(7299.11 -2069.21 6965.4 5459.55 -10078.9 28567.8)
(7951.46 -1629.9 8609.88 4807.35 -8716.33 28567.8)
(8414.23 -993.929 9992.58 4344.89 -7088.87 28567.9)
(8631.29 -238.092 11071.8 4127.42 -5245.95 28567.7)
(8576.92 546.502 11814.5 4181.88 -3243.63 28567.9)
(8257.46 1265.12 12198.2 4501.3 -1142.83 28567.8)
(7711.67 1831.16 12211.4 5047.36 992.738 28567.9)
(7004.86 2176.35 11853.5 5753.82 3098.14 28567.7)
(6222.86 2259.07 11135.4 6536.03 5109.51 28567.8)
(5459.55 2069.21 10078.9 7299.11 6965.4 28567.8)
(4807.35 1629.9 8716.33 7951.46 8609.88 28567.8)
(4344.88 993.929 7088.87 8414.23 9992.58 28567.9)
(4127.42 238.092 5245.95 8631.29 11071.8 28567.7)
(4181.88 -546.502 3243.63 8576.92 11814.5 28567.9)
(-2340.14 -6795.46 -628.356 28771.8 5773.1 -7199.95)
(922.03 -11706.1 -1621.31 25509.3 5576.28 -7200.11)
(5667.33 -15204.8 -2564.96 20764.4 5209.97 -7199.98)
(11322.9 -16869.6 -3430.7 15108.6 4685.41 -7200.1)
(17206.7 -16499.6 -4192.25 9224.78 4018.58 -7200.01)
(22609.3 -14139.7 -4826.29 3822.37 3229.5 -7199.99)
(26878.7 -10074.1 -5313.77 -447.339 2342.35 -7200.12)
(29500.4 -4793.56 -5639.85 -3068.78 1384.06 -7199.95)
(30157.8 1065.23 -5794.5 -3726.26 383.673 -7200.02)
(28771.8 6795.46 -5773.1 -2340.14 -628.356 -7199.95)
(25509.3 11706.1 -5576.28 922.03 -1621.31 -7200.11)
(20764.4 15204.8 -5209.97 5667.33 -2564.96 -7199.98)
(15108.6 16869.6 -4685.41 11322.9 -3430.69 -7200.09)
(9224.78 16499.6 -4018.58 17206.7 -4192.25 -7200.01)
(3822.37 14139.7 -3229.5 22609.3 -4826.29 -7199.99)
(-447.339 10074.1 -2342.35 26878.7 -5313.77 -7200.12)
(-3068.78 4793.56 -1384.06 29500.4 -5639.85 -7199.95)
(-3726.26 -1065.23 -383.673 30157.8 -5794.5 -7200.02)
(-2340.14 -6795.46 628.356 28771.8 -5773.1 -7199.94)
(922.03 -11706.1 1621.31 25509.3 -5576.28 -7200.11)
(5667.33 -15204.8 2564.96 20764.4 -5209.97 -7199.98)
(11322.9 -16869.6 3430.69 15108.6 -4685.41 -7200.09)
(17206.7 -16499.6 4192.25 9224.78 -4018.58 -7200.01)
(22609.3 -14139.7 4826.29 3822.37 -3229.5 -7199.99)
(26878.7 -10074.1 5313.77 -447.339 -2342.35 -7200.12)
(29500.4 -4793.56 5639.85 -3068.78 -1384.06 -7199.95)
(30157.8 1065.23 5794.5 -3726.26 -383.673 -7200.02)
(28771.8 6795.46 5773.1 -2340.14 628.356 -7199.95)
(25509.3 11706.1 5576.28 922.03 1621.31 -7200.11)
(20764.4 15204.8 5209.97 5667.33 2564.96 -7199.98)
(15108.6 16869.6 4685.41 11322.9 3430.69 -7200.1)
(9224.78 16499.6 4018.58 17206.7 4192.25 -7200.01)
(3822.37 14139.7 3229.5 22609.3 4826.29 -7199.99)
(-447.339 10074.1 2342.35 26878.7 5313.77 -7200.12)
(-3068.78 4793.56 1384.06 29500.4 5639.85 -7199.96)
(-3726.26 -1065.23 383.673 30157.8 5794.5 -7200.03)
(-15949.4 -6949.95 4608.46 -5814.76 -18524.4 -565.273)
(-13266.6 -8263.91 7755.19 -8497.34 -17442.6 -565.047)
(-10296.4 -8581.16 10666.3 -11467.6 -15831 -565.179)
(-7396.83 -7863.34 13253.2 -14367.3 -13738.3 -565.122)
(-4917.55 -6197.13 15437.5 -16846.5 -11228.2 -565.123)
(-3157.76 -3783.43 17152.7 -18606.3 -8376.91 -565.127)
(-2329.56 -913.417 18346.8 -19434.5 -5271.11 -565.211)
(-2533.03 2066.8 18983.4 -19231.2 -2005.14 -565.199)
(-3743.23 4797.74 19043.2 -18020.7 1321.77 -565.187)
(-5814.76 6949.95 18524.4 -15949.4 4608.46 -565.272)
(-8497.34 8263.91 17442.6 -13266.6 7755.19 -565.046)
(-11467.6 8581.16 15831 -10296.4 10666.3 -565.178)
(-14367.3 7863.34 13738.3 -7396.83 13253.2 -565.121)
(-16846.5 6197.13 11228.2 -4917.55 15437.5 -565.123)
(-18606.3 3783.43 8376.91 -3157.76 17152.7 -565.126)
(-19434.5 913.417 5271.11 -2329.56 18346.8 -565.21)
(-19231.2 -2066.8 2005.14 -2533.03 18983.4 -565.198)
(-18020.7 -4797.74 -1321.77 -3743.23 19043.2 -565.186)
(-15949.4 -6949.95 -4608.46 -5814.76 18524.4 -565.272)
(-13266.6 -8263.91 -7755.19 -8497.34 17442.6 -565.046)
(-10296.4 -8581.16 -10666.3 -11467.6 15831 -565.179)
(-7396.83 -7863.34 -13253.2 -14367.3 13738.3 -565.122)
(-4917.55 -6197.13 -15437.5 -16846.5 11228.2 -565.124)
(-3157.76 -3783.43 -17152.7 -18606.3 8376.91 -565.127)
(-2329.56 -913.417 -18346.8 -19434.5 5271.11 -565.212)
(-2533.04 2066.8 -18983.4 -19231.2 2005.14 -565.2)
(-3743.23 4797.74 -19043.2 -18020.7 -1321.77 -565.188)
(-5814.76 6949.95 -18524.4 -15949.4 -4608.46 -565.273)
(-8497.34 8263.91 -17442.6 -13266.6 -7755.19 -565.048)
(-11467.6 8581.16 -15831 -10296.4 -10666.3 -565.18)
(-14367.3 7863.34 -13738.3 -7396.83 -13253.2 -565.122)
(-16846.5 6197.13 -11228.2 -4917.55 -15437.5 -565.124)
(-18606.3 3783.43 -8376.91 -3157.76 -17152.7 -565.128)
(-19434.5 913.417 -5271.11 -2329.56 -18346.8 -565.212)
(-19231.2 -2066.8 -2005.14 -2533.04 -18983.4 -565.2)
(-18020.7 -4797.74 1321.77 -3743.23 -19043.2 -565.188)
(4063.88 -706.223 2619.99 7184.04 12383.6 26874)
(4399.59 -1197.19 429.824 6848.47 12650.4 26874.1)
(4882.78 -1543.75 -1773.39 6365.03 12532.9 26874.1)
(5455.59 -1704.19 -3922.87 5792.52 12034.6 26874)
(6048.55 -1659.01 -5953.05 5199.36 11170.5 26874)
(6590.39 -1413.77 -7802.37 4657.59 9967.09 26874)
(7015.59 -997.93 -9414.47 4232.36 8460.81 26874.1)
(7272.92 -461.816 -10740.7 3974.88 6697.48 26874)
(7331.55 130.06 -11740.5 3916.47 4730.57 26874.1)
(7184.04 706.223 -12383.6 4063.88 2619.99 26874)
(6848.47 1197.19 -12650.4 4399.59 429.824 26874.1)
(6365.03 1543.75 -12532.9 4882.78 -1773.39 26874.1)
(5792.52 1704.19 -12034.6 5455.59 -3922.87 26874)
(5199.36 1659.01 -11170.5 6048.55 -5953.05 26874)
(4657.59 1413.77 -9967.09 6590.39 -7802.36 26874)
(4232.36 997.93 -8460.81 7015.59 -9414.47 26874.1)
(3974.88 461.817 -6697.48 7272.92 -10740.7 26874)
(3916.47 -130.059 -4730.57 7331.55 -11740.5 26874.1)