/*--------------------------------*- C++ -*----------------------------------*\
| =========                 |                                                 |
| \\      /  F ield         | OpenFOAM: The Open Source CFD Toolbox           |
|  \\    /   O peration     | Version:  2312                                  |
|   \\  /    A nd           | Website:  www.openfoam.com                      |
|    \\/     M anipulation  |                                                 |
\*---------------------------------------------------------------------------*/
FoamFile
{
    version     2.0;
    format      ascii;
    arch        "LSB;label=32;scalar=64";
    class       volVectorField;
    location    "0.2";
    object      D;
}
// * * * * * * * * * * * * * * * * * * * * * * * * * * * * * * * * * * * * * //

dimensions      [0 1 0 0 0 0 0];

internalField   nonuniform List<vector> 
1620
(
(-0.000153876 0.000261156 -4.54307e-05)
(-0.000196887 0.000230468 -4.54308e-05)
(-0.000233917 0.000192777 -4.54308e-05)
(-0.000263839 0.00014923 -4.54307e-05)
(-0.000285744 0.000101148 -4.54308e-05)
(-0.000298967 4.99919e-05 -4.54309e-05)
(-0.000303106 -2.6827e-06 -4.54307e-05)
(-0.000298035 -5.52756e-05 -4.54306e-05)
(-0.000283909 -0.000106189 -4.54307e-05)
(-0.000261156 -0.000153876 -4.54307e-05)
(-0.000230468 -0.000196887 -4.54308e-05)
(-0.000192777 -0.000233917 -4.54308e-05)
(-0.00014923 -0.000263839 -4.54307e-05)
(-0.000101148 -0.000285744 -4.54308e-05)
(-4.99919e-05 -0.000298967 -4.54309e-05)
(2.68271e-06 -0.000303106 -4.54307e-05)
(5.52756e-05 -0.000298035 -4.54306e-05)
(0.000106189 -0.000283909 -4.54307e-05)
(0.000153876 -0.000261156 -4.54307e-05)
(0.000196887 -0.000230468 -4.54308e-05)
(0.000233917 -0.000192777 -4.54308e-05)
(0.000263839 -0.00014923 -4.54307e-05)
(0.000285744 -0.000101148 -4.54308e-05)
(0.000298967 -4.99919e-05 -4.54309e-05)
(0.000303106 2.6827e-06 -4.54307e-05)
(0.000298035 5.52756e-05 -4.54306e-05)
(0.000283909 0.000106189 -4.54307e-05)
(0.000261156 0.000153876 -4.54307e-05)
(0.000230468 0.000196887 -4.54308e-05)
(0.000192777 0.000233917 -4.54308e-05)
(0.00014923 0.000263839 -4.54307e-05)
(0.000101148 0.000285744 -4.54308e-05)
(4.99919e-05 0.000298967 -4.54309e-05)
(-2.68269e-06 0.000303106 -4.54307e-05)
(-5.52756e-05 0.000298035 -4.54306e-05)
(-0.000106189 0.000283909 -4.54307e-05)
(-0.000122716 0.000264888 -3.24171e-05)
(-0.000166849 0.000239554 -3.24171e-05)
(-0.000205912 0.000206941 -3.24171e-05)
(-0.000238719 0.000168041 -3.24171e-05)
(-0.000264273 0.000124035 -3.24171e-05)
(-0.000281796 7.62605e-05 -3.24171e-05)
(-0.000290757 2.61686e-05 -3.24171e-05)
(-0.000290884 -2.47183e-05 -3.2417e-05)
(-0.000282173 -7.48544e-05 -3.24171e-05)
(-0.000264887 -0.000122716 -3.24171e-05)
(-0.000239554 -0.000166849 -3.24171e-05)
(-0.000206941 -0.000205912 -3.24171e-05)
(-0.000168041 -0.000238719 -3.24171e-05)
(-0.000124035 -0.000264273 -3.24171e-05)
(-7.62605e-05 -0.000281796 -3.24171e-05)
(-2.61686e-05 -0.000290757 -3.24171e-05)
(2.47183e-05 -0.000290884 -3.2417e-05)
(7.48544e-05 -0.000282173 -3.24171e-05)
(0.000122716 -0.000264887 -3.24171e-05)
(0.000166849 -0.000239554 -3.24171e-05)
(0.000205912 -0.000206941 -3.24171e-05)
(0.000238719 -0.000168041 -3.24171e-05)
(0.000264273 -0.000124035 -3.24171e-05)
(0.000281796 -7.62605e-05 -3.24171e-05)
(0.000290757 -2.61686e-05 -3.24171e-05)
(0.000290884 2.47183e-05 -3.2417e-05)
(0.000282173 7.48544e-05 -3.24171e-05)
(0.000264887 0.000122716 -3.24171e-05)
(0.000239554 0.000166849 -3.24171e-05)
(0.000206941 0.000205912 -3.24171e-05)
(0.000168041 0.000238719 -3.24171e-05)
(0.000124035 0.000264273 -3.24171e-05)
(7.62605e-05 0.000281796 -3.24171e-05)
(2.61686e-05 0.000290757 -3.24171e-05)
(-2.47183e-05 0.000290884 -3.2417e-05)
(-7.48544e-05 0.000282173 -3.24171e-05)
(-0.000100263 0.000267186 -1.97259e-05)
(-0.000145136 0.000245717 -1.97259e-05)
(-0.0001856 0.000216782 -1.9726e-05)
(-0.000220424 0.000181259 -1.97259e-05)
(-0.000248551 0.000140229 -1.9726e-05)
(-0.000269125 9.49383e-05 -1.97259e-05)
(-0.000281522 4.67629e-05 -1.9726e-05)
(-0.000285366 -2.83338e-06 -1.9726e-05)
(-0.000280538 -5.23435e-05 -1.97259e-05)
(-0.000267186 -0.000100263 -1.97259e-05)
(-0.000245717 -0.000145136 -1.97259e-05)
(-0.000216782 -0.0001856 -1.9726e-05)
(-0.000181259 -0.000220424 -1.97259e-05)
(-0.000140229 -0.000248551 -1.9726e-05)
(-9.49383e-05 -0.000269125 -1.97259e-05)
(-4.67629e-05 -0.000281522 -1.9726e-05)
(2.83338e-06 -0.000285366 -1.9726e-05)
(5.23435e-05 -0.000280538 -1.97259e-05)
(0.000100263 -0.000267186 -1.97259e-05)
(0.000145136 -0.000245717 -1.97259e-05)
(0.0001856 -0.000216782 -1.9726e-05)
(0.000220424 -0.000181259 -1.97259e-05)
(0.000248551 -0.000140229 -1.9726e-05)
(0.000269125 -9.49383e-05 -1.97259e-05)
(0.000281522 -4.67629e-05 -1.9726e-05)
(0.000285366 2.83338e-06 -1.9726e-05)
(0.000280538 5.23435e-05 -1.97259e-05)
(0.000267186 0.000100263 -1.97259e-05)
(0.000245717 0.000145136 -1.97259e-05)
(0.000216782 0.0001856 -1.9726e-05)
(0.000181259 0.000220424 -1.97259e-05)
(0.000140229 0.000248551 -1.9726e-05)
(9.49383e-05 0.000269125 -1.97259e-05)
(4.67629e-05 0.000281522 -1.9726e-05)
(-2.83338e-06 0.000285366 -1.9726e-05)
(-5.23435e-05 0.000280538 -1.97259e-05)
(-0.000395211 0.000785441 -0.000155965)
(-0.000525598 0.000704881 -0.000155965)
(-0.000640014 0.000602903 -0.000155965)
(-0.000734984 0.000482606 -0.000155965)
(-0.000807621 0.000347646 -0.000155964)
(-0.00085572 0.000202123 -0.000155965)
(-0.000877818 5.04575e-05 -0.000155965)
(-0.000873244 -0.00010274 -0.000155965)
(-0.000842136 -0.000252817 -0.000155965)
(-0.000785441 -0.000395211 -0.000155965)
(-0.000704881 -0.000525598 -0.000155965)
(-0.000602903 -0.000640014 -0.000155965)
(-0.000482606 -0.000734984 -0.000155965)
(-0.000347646 -0.000807621 -0.000155964)
(-0.000202123 -0.00085572 -0.000155965)
(-5.04575e-05 -0.000877818 -0.000155965)
(0.000102741 -0.000873244 -0.000155965)
(0.000252817 -0.000842136 -0.000155965)
(0.000395212 -0.000785441 -0.000155965)
(0.000525598 -0.000704881 -0.000155965)
(0.000640014 -0.000602903 -0.000155965)
(0.000734984 -0.000482606 -0.000155965)
(0.000807621 -0.000347646 -0.000155964)
(0.00085572 -0.000202123 -0.000155965)
(0.000877818 -5.04575e-05 -0.000155965)
(0.000873244 0.00010274 -0.000155965)
(0.000842136 0.000252817 -0.000155965)
(0.000785441 0.000395211 -0.000155965)
(0.000704881 0.000525598 -0.000155965)
(0.000602903 0.000640014 -0.000155965)
(0.000482606 0.000734984 -0.000155965)
(0.000347646 0.000807621 -0.000155964)
(0.000202123 0.00085572 -0.000155965)
(5.04576e-05 0.000877818 -0.000155965)
(-0.00010274 0.000873244 -0.000155965)
(-0.000252817 0.000842136 -0.000155965)
(-0.00036651 0.000787505 -0.000122889)
(-0.000497691 0.000711897 -0.000122889)
(-0.00061375 0.000614659 -0.00012289)
(-0.00071116 0.000498745 -0.00012289)
(-0.000786962 0.000367676 -0.000122889)
(-0.000838853 0.000225435 -0.00012289)
(-0.000865255 7.63455e-05 -0.00012289)
(-0.000865367 -7.50645e-05 -0.000122889)
(-0.000839185 -0.000224193 -0.000122889)
(-0.000787505 -0.00036651 -0.000122889)
(-0.000711897 -0.000497691 -0.000122889)
(-0.000614659 -0.00061375 -0.00012289)
(-0.000498745 -0.00071116 -0.00012289)
(-0.000367676 -0.000786962 -0.000122889)
(-0.000225435 -0.000838853 -0.00012289)
(-7.63454e-05 -0.000865255 -0.00012289)
(7.50645e-05 -0.000865367 -0.000122889)
(0.000224193 -0.000839185 -0.000122889)
(0.00036651 -0.000787505 -0.000122889)
(0.000497691 -0.000711897 -0.00012289)
(0.00061375 -0.000614659 -0.00012289)
(0.00071116 -0.000498745 -0.00012289)
(0.000786962 -0.000367676 -0.000122889)
(0.000838853 -0.000225435 -0.00012289)
(0.000865255 -7.63455e-05 -0.00012289)
(0.000865367 7.50645e-05 -0.000122889)
(0.000839185 0.000224193 -0.000122889)
(0.000787505 0.00036651 -0.000122889)
(0.000711897 0.000497691 -0.000122889)
(0.000614659 0.00061375 -0.00012289)
(0.000498745 0.00071116 -0.00012289)
(0.000367676 0.000786962 -0.000122889)
(0.000225435 0.000838853 -0.00012289)
(7.63455e-05 0.000865255 -0.00012289)
(-7.50644e-05 0.000865367 -0.000122889)
(-0.000224193 0.000839185 -0.000122889)
(-0.000348974 0.0007871 -9.06964e-05)
(-0.000480351 0.000714544 -9.06962e-05)
(-0.000597132 0.000620276 -9.06963e-05)
(-0.00069577 0.000507162 -9.06963e-05)
(-0.000773267 0.000378637 -9.06963e-05)
(-0.000827269 0.000238608 -9.06963e-05)
(-0.000856136 9.13293e-05 -9.06964e-05)
(-0.000858988 -5.87244e-05 -9.06963e-05)
(-0.000835741 -0.000206994 -9.06964e-05)
(-0.0007871 -0.000348974 -9.06964e-05)
(-0.000714544 -0.000480351 -9.06962e-05)
(-0.000620276 -0.000597132 -9.06963e-05)
(-0.000507162 -0.00069577 -9.06963e-05)
(-0.000378637 -0.000773267 -9.06963e-05)
(-0.000238608 -0.000827269 -9.06963e-05)
(-9.13293e-05 -0.000856136 -9.06964e-05)
(5.87244e-05 -0.000858988 -9.06964e-05)
(0.000206994 -0.000835741 -9.06964e-05)
(0.000348975 -0.0007871 -9.06964e-05)
(0.000480351 -0.000714544 -9.06962e-05)
(0.000597132 -0.000620276 -9.06963e-05)
(0.00069577 -0.000507162 -9.06963e-05)
(0.000773267 -0.000378637 -9.06963e-05)
(0.000827269 -0.000238608 -9.06963e-05)
(0.000856136 -9.13293e-05 -9.06963e-05)
(0.000858988 5.87244e-05 -9.06963e-05)
(0.000835741 0.000206994 -9.06964e-05)
(0.0007871 0.000348975 -9.06964e-05)
(0.000714544 0.000480351 -9.06962e-05)
(0.000620276 0.000597132 -9.06963e-05)
(0.000507162 0.00069577 -9.06963e-05)
(0.000378637 0.000773267 -9.06963e-05)
(0.000238608 0.000827269 -9.06962e-05)
(9.13293e-05 0.000856136 -9.06963e-05)
(-5.87244e-05 0.000858988 -9.06963e-05)
(-0.000206994 0.000835741 -9.06964e-05)
(-0.000635209 0.00130047 -0.000307013)
(-0.000851384 0.00117041 -0.000307013)
(-0.00104169 0.00100479 -0.000307013)
(-0.00120034 0.000808639 -0.000307012)
(-0.00132253 0.000587916 -0.000307012)
(-0.00140453 0.000349331 -0.000307012)
(-0.00144385 0.00010013 -0.000307012)
(-0.0014393 -0.000152113 -0.000307012)
(-0.00139102 -0.000399734 -0.000307013)
(-0.00130047 -0.000635209 -0.000307013)
(-0.00117041 -0.000851384 -0.000307013)
(-0.00100479 -0.00104169 -0.000307013)
(-0.000808639 -0.00120034 -0.000307012)
(-0.000587916 -0.00132253 -0.000307012)
(-0.000349331 -0.00140453 -0.000307012)
(-0.00010013 -0.00144385 -0.000307012)
(0.000152113 -0.0014393 -0.000307012)
(0.000399734 -0.00139102 -0.000307013)
(0.00063521 -0.00130047 -0.000307013)
(0.000851384 -0.00117041 -0.000307013)
(0.00104169 -0.00100479 -0.000307013)
(0.00120034 -0.000808639 -0.000307012)
(0.00132253 -0.000587916 -0.000307012)
(0.00140453 -0.000349331 -0.000307012)
(0.00144385 -0.00010013 -0.000307012)
(0.0014393 0.000152113 -0.000307012)
(0.00139102 0.000399734 -0.000307012)
(0.00130047 0.000635209 -0.000307013)
(0.00117041 0.000851384 -0.000307013)
(0.00100479 0.00104169 -0.000307013)
(0.000808639 0.00120034 -0.000307012)
(0.000587916 0.00132253 -0.000307012)
(0.000349331 0.00140453 -0.000307012)
(0.00010013 0.00144385 -0.000307012)
(-0.000152113 0.0014393 -0.000307012)
(-0.000399734 0.00139102 -0.000307012)
(-0.000605682 0.00129691 -0.000257845)
(-0.000821686 0.00117203 -0.000257845)
(-0.00101272 0.00101154 -0.000257845)
(-0.00117299 0.000820312 -0.000257845)
(-0.00129761 0.000604162 -0.000257845)
(-0.00138281 0.000369655 -0.000257845)
(-0.00142599 0.000123917 -0.000257845)
(-0.00142585 -0.000125588 -0.000257845)
(-0.00138238 -0.000371275 -0.000257845)
(-0.0012969 -0.000605682 -0.000257845)
(-0.00117203 -0.000821686 -0.000257845)
(-0.00101154 -0.00101272 -0.000257845)
(-0.000820312 -0.00117299 -0.000257845)
(-0.000604162 -0.00129761 -0.000257845)
(-0.000369655 -0.00138281 -0.000257845)
(-0.000123916 -0.00142599 -0.000257845)
(0.000125588 -0.00142585 -0.000257845)
(0.000371275 -0.00138238 -0.000257845)
(0.000605682 -0.0012969 -0.000257845)
(0.000821686 -0.00117203 -0.000257845)
(0.00101272 -0.00101154 -0.000257845)
(0.00117299 -0.000820312 -0.000257845)
(0.00129761 -0.000604162 -0.000257845)
(0.00138281 -0.000369655 -0.000257845)
(0.00142599 -0.000123917 -0.000257845)
(0.00142585 0.000125588 -0.000257845)
(0.00138238 0.000371275 -0.000257845)
(0.00129691 0.000605682 -0.000257845)
(0.00117203 0.000821686 -0.000257845)
(0.00101154 0.00101272 -0.000257845)
(0.000820312 0.00117299 -0.000257845)
(0.000604162 0.00129761 -0.000257845)
(0.000369655 0.00138281 -0.000257845)
(0.000123917 0.00142599 -0.000257845)
(-0.000125588 0.00142585 -0.000257845)
(-0.000371275 0.00138238 -0.000257845)
(-0.000587798 0.00128898 -0.000210102)
(-0.000802697 0.00116733 -0.000210102)
(-0.000993207 0.00101021 -0.000210102)
(-0.00115354 0.000822394 -0.000210102)
(-0.00127882 0.00060959 -0.000210102)
(-0.00136525 0.000378263 -0.000210102)
(-0.00141019 0.000135444 -0.000210102)
(-0.00141229 -0.000111491 -0.000210102)
(-0.00137147 -0.000355038 -0.000210102)
(-0.00128898 -0.000587798 -0.000210102)
(-0.00116733 -0.000802697 -0.000210102)
(-0.00101021 -0.000993207 -0.000210102)
(-0.000822394 -0.00115354 -0.000210102)
(-0.00060959 -0.00127882 -0.000210102)
(-0.000378263 -0.00136525 -0.000210102)
(-0.000135444 -0.00141019 -0.000210102)
(0.000111491 -0.00141229 -0.000210102)
(0.000355038 -0.00137147 -0.000210102)
(0.000587798 -0.00128898 -0.000210102)
(0.000802697 -0.00116733 -0.000210102)
(0.000993207 -0.00101021 -0.000210102)
(0.00115354 -0.000822394 -0.000210102)
(0.00127882 -0.00060959 -0.000210102)
(0.00136525 -0.000378263 -0.000210102)
(0.00141019 -0.000135444 -0.000210102)
(0.00141229 0.000111491 -0.000210102)
(0.00137147 0.000355038 -0.000210102)
(0.00128898 0.000587798 -0.000210102)
(0.00116733 0.000802697 -0.000210102)
(0.00101021 0.000993207 -0.000210102)
(0.000822394 0.00115354 -0.000210102)
(0.00060959 0.00127882 -0.000210102)
(0.000378263 0.00136525 -0.000210102)
(0.000135444 0.00141019 -0.000210102)
(-0.000111491 0.00141229 -0.000210102)
(-0.000355038 0.00137147 -0.000210102)
(-0.000868706 0.00179838 -0.000492183)
(-0.00116779 0.00162021 -0.000492183)
(-0.0014314 0.00139281 -0.000492183)
(-0.00165151 0.00112309 -0.000492183)
(-0.00182144 0.000819245 -0.000492183)
(-0.00193603 0.000490508 -0.000492182)
(-0.00199179 0.000146868 -0.000492182)
(-0.00198704 -0.000201235 -0.000492182)
(-0.00192191 -0.000543223 -0.000492182)
(-0.00179838 -0.000868706 -0.000492183)
(-0.00162021 -0.00116779 -0.000492183)
(-0.00139281 -0.0014314 -0.000492183)
(-0.00112309 -0.00165151 -0.000492183)
(-0.000819244 -0.00182144 -0.000492183)
(-0.000490508 -0.00193603 -0.000492182)
(-0.000146868 -0.00199179 -0.000492182)
(0.000201235 -0.00198704 -0.000492182)
(0.000543223 -0.00192191 -0.000492182)
(0.000868706 -0.00179838 -0.000492183)
(0.00116779 -0.00162021 -0.000492183)
(0.0014314 -0.00139281 -0.000492183)
(0.00165151 -0.00112309 -0.000492183)
(0.00182144 -0.000819244 -0.000492183)
(0.00193603 -0.000490508 -0.000492182)
(0.00199179 -0.000146868 -0.000492182)
(0.00198704 0.000201235 -0.000492182)
(0.00192191 0.000543223 -0.000492182)
(0.00179838 0.000868706 -0.000492183)
(0.00162021 0.00116779 -0.000492183)
(0.00139281 0.0014314 -0.000492183)
(0.00112309 0.00165151 -0.000492183)
(0.000819245 0.00182144 -0.000492183)
(0.000490508 0.00193603 -0.000492182)
(0.000146868 0.00199179 -0.000492182)
(-0.000201235 0.00198704 -0.000492182)
(-0.000543223 0.00192191 -0.000492182)
(-0.000837835 0.00178198 -0.000429039)
(-0.00113454 0.00160942 -0.000429039)
(-0.00139678 0.00138796 -0.000429039)
(-0.00161658 0.00112433 -0.000429039)
(-0.00178725 0.000826529 -0.000429039)
(-0.00190363 0.000503618 -0.000429039)
(-0.00196216 0.000165406 -0.000429039)
(-0.00196107 -0.000177833 -0.000429039)
(-0.0019004 -0.000515668 -0.000429039)
(-0.00178198 -0.000837835 -0.000429039)
(-0.00160942 -0.00113454 -0.000429039)
(-0.00138796 -0.00139678 -0.000429039)
(-0.00112433 -0.00161658 -0.000429039)
(-0.000826529 -0.00178725 -0.000429039)
(-0.000503618 -0.00190363 -0.000429039)
(-0.000165406 -0.00196216 -0.000429039)
(0.000177833 -0.00196107 -0.000429039)
(0.000515668 -0.0019004 -0.000429039)
(0.000837835 -0.00178198 -0.000429039)
(0.00113454 -0.00160942 -0.000429039)
(0.00139678 -0.00138796 -0.000429039)
(0.00161658 -0.00112433 -0.000429039)
(0.00178725 -0.000826529 -0.000429039)
(0.00190363 -0.000503618 -0.000429039)
(0.00196216 -0.000165406 -0.000429039)
(0.00196107 0.000177833 -0.000429039)
(0.0019004 0.000515668 -0.000429039)
(0.00178198 0.000837835 -0.000429039)
(0.00160942 0.00113454 -0.000429039)
(0.00138796 0.00139678 -0.000429039)
(0.00112433 0.00161658 -0.000429039)
(0.000826529 0.00178725 -0.000429039)
(0.000503618 0.00190363 -0.000429039)
(0.000165406 0.00196216 -0.000429038)
(-0.000177833 0.00196107 -0.000429039)
(-0.000515668 0.0019004 -0.000429039)
(-0.000819064 0.00175911 -0.000367947)
(-0.00111209 0.00159015 -0.000367947)
(-0.00137132 0.00137288 -0.000367947)
(-0.00158888 0.0011139 -0.000367947)
(-0.00175817 0.00082107 -0.000367947)
(-0.00187404 0.000503294 -0.000367947)
(-0.00193296 0.000170224 -0.000367947)
(-0.00193316 -0.000168018 -0.000367947)
(-0.00187461 -0.000501154 -0.000367947)
(-0.00175911 -0.000819064 -0.000367947)
(-0.00159015 -0.00111209 -0.000367947)
(-0.00137288 -0.00137132 -0.000367947)
(-0.0011139 -0.00158888 -0.000367947)
(-0.00082107 -0.00175817 -0.000367947)
(-0.000503294 -0.00187404 -0.000367947)
(-0.000170224 -0.00193296 -0.000367947)
(0.000168018 -0.00193316 -0.000367947)
(0.000501154 -0.00187461 -0.000367947)
(0.000819064 -0.00175911 -0.000367947)
(0.00111209 -0.00159015 -0.000367947)
(0.00137132 -0.00137288 -0.000367947)
(0.00158888 -0.0011139 -0.000367947)
(0.00175817 -0.00082107 -0.000367947)
(0.00187404 -0.000503294 -0.000367947)
(0.00193296 -0.000170224 -0.000367947)
(0.00193316 0.000168018 -0.000367947)
(0.00187461 0.000501154 -0.000367947)
(0.00175911 0.000819064 -0.000367947)
(0.00159015 0.00111209 -0.000367947)
(0.00137288 0.00137132 -0.000367947)
(0.0011139 0.00158888 -0.000367947)
(0.00082107 0.00175817 -0.000367947)
(0.000503294 0.00187404 -0.000367947)
(0.000170224 0.00193296 -0.000367947)
(-0.000168018 0.00193316 -0.000367947)
(-0.000501154 0.00187461 -0.000367947)
(-0.00109592 0.00227017 -0.000706168)
(-0.00147348 0.00204537 -0.000706168)
(-0.00180627 0.00175843 -0.000706168)
(-0.00208418 0.00141806 -0.000706168)
(-0.00229876 0.00103461 -0.000706168)
(-0.00244349 0.000619712 -0.000706168)
(-0.00251398 0.000185989 -0.000706168)
(-0.00250809 -0.000253385 -0.000706167)
(-0.00242598 -0.00068506 -0.000706168)
(-0.00227017 -0.00109592 -0.000706168)
(-0.00204537 -0.00147348 -0.000706168)
(-0.00175843 -0.00180627 -0.000706168)
(-0.00141806 -0.00208418 -0.000706168)
(-0.0010346 -0.00229876 -0.000706168)
(-0.000619712 -0.00244349 -0.000706168)
(-0.000185989 -0.00251398 -0.000706168)
(0.000253385 -0.00250809 -0.000706167)
(0.00068506 -0.00242598 -0.000706168)
(0.00109592 -0.00227017 -0.000706168)
(0.00147348 -0.00204537 -0.000706168)
(0.00180627 -0.00175843 -0.000706168)
(0.00208418 -0.00141806 -0.000706168)
(0.00229876 -0.00103461 -0.000706168)
(0.00244349 -0.000619712 -0.000706168)
(0.00251398 -0.000185989 -0.000706168)
(0.00250809 0.000253385 -0.000706167)
(0.00242598 0.00068506 -0.000706168)
(0.00227017 0.00109592 -0.000706168)
(0.00204537 0.00147348 -0.000706168)
(0.00175843 0.00180627 -0.000706168)
(0.00141806 0.00208418 -0.000706168)
(0.00103461 0.00229876 -0.000706168)
(0.000619712 0.00244349 -0.000706168)
(0.000185989 0.00251398 -0.000706168)
(-0.000253385 0.00250809 -0.000706167)
(-0.00068506 0.00242598 -0.000706168)
(-0.00106264 0.0022315 -0.000630732)
(-0.00143399 0.00201308 -0.000630732)
(-0.00176178 0.00173348 -0.000630732)
(-0.00203603 0.00140122 -0.000630732)
(-0.00224841 0.00102638 -0.000630732)
(-0.00239248 0.000620352 -0.000630732)
(-0.00246386 0.000195477 -0.000630732)
(-0.00246037 -0.000235337 -0.000630732)
(-0.00238213 -0.000659001 -0.000630732)
(-0.0022315 -0.00106264 -0.000630732)
(-0.00201308 -0.00143399 -0.000630732)
(-0.00173348 -0.00176178 -0.000630732)
(-0.00140122 -0.00203603 -0.000630732)
(-0.00102638 -0.00224841 -0.000630732)
(-0.000620352 -0.00239248 -0.000630732)
(-0.000195477 -0.00246386 -0.000630732)
(0.000235337 -0.00246037 -0.000630732)
(0.000659001 -0.00238213 -0.000630732)
(0.00106264 -0.0022315 -0.000630732)
(0.00143399 -0.00201308 -0.000630732)
(0.00176178 -0.00173348 -0.000630732)
(0.00203603 -0.00140122 -0.000630732)
(0.00224841 -0.00102638 -0.000630732)
(0.00239248 -0.000620352 -0.000630732)
(0.00246386 -0.000195477 -0.000630732)
(0.00246037 0.000235337 -0.000630732)
(0.00238213 0.000659001 -0.000630732)
(0.0022315 0.00106264 -0.000630732)
(0.00201308 0.00143399 -0.000630732)
(0.00173348 0.00176178 -0.000630732)
(0.00140122 0.00203603 -0.000630732)
(0.00102638 0.00224841 -0.000630732)
(0.000620352 0.00239248 -0.000630732)
(0.000195477 0.00246386 -0.000630732)
(-0.000235337 0.00246037 -0.000630732)
(-0.000659001 0.00238213 -0.000630732)
(-0.00104163 0.00218457 -0.000557919)
(-0.00140515 0.00197051 -0.000557919)
(-0.00172598 0.00169657 -0.000557919)
(-0.00199437 0.00137108 -0.000557919)
(-0.00220215 0.00100393 -0.000557919)
(-0.00234303 0.000606282 -0.000557919)
(-0.00241271 0.000190208 -0.000557919)
(-0.00240909 -0.000231645 -0.000557919)
(-0.00233226 -0.000646459 -0.000557919)
(-0.00218457 -0.00104163 -0.000557919)
(-0.00197051 -0.00140515 -0.000557919)
(-0.00169657 -0.00172598 -0.000557919)
(-0.00137108 -0.00199437 -0.000557919)
(-0.00100393 -0.00220215 -0.000557919)
(-0.000606282 -0.00234303 -0.000557919)
(-0.000190208 -0.00241271 -0.000557919)
(0.000231645 -0.00240909 -0.000557919)
(0.00064646 -0.00233226 -0.000557919)
(0.00104163 -0.00218457 -0.000557919)
(0.00140515 -0.00197051 -0.000557919)
(0.00172598 -0.00169657 -0.000557919)
(0.00199437 -0.00137108 -0.000557919)
(0.00220215 -0.00100393 -0.000557919)
(0.00234303 -0.000606282 -0.000557919)
(0.00241271 -0.000190208 -0.000557919)
(0.00240909 0.000231645 -0.000557919)
(0.00233226 0.00064646 -0.000557919)
(0.00218457 0.00104163 -0.000557919)
(0.00197051 0.00140515 -0.000557919)
(0.00169657 0.00172598 -0.000557919)
(0.00137108 0.00199437 -0.000557919)
(0.00100393 0.00220215 -0.000557919)
(0.000606282 0.00234303 -0.000557919)
(0.000190208 0.00241271 -0.000557919)
(-0.000231645 0.00240909 -0.000557919)
(-0.000646459 0.00233226 -0.000557919)
(-0.0013173 0.00270542 -0.000942422)
(-0.00176708 0.00243557 -0.000942423)
(-0.00216317 0.00209172 -0.000942423)
(-0.00249353 0.00168431 -0.000942423)
(-0.00274812 0.00122573 -0.000942423)
(-0.00291922 0.000729898 -0.000942422)
(-0.00300161 0.000211892 -0.000942422)
(-0.00299281 -0.000312552 -0.000942422)
(-0.00289307 -0.000827499 -0.000942422)
(-0.00270542 -0.0013173 -0.000942422)
(-0.00243557 -0.00176708 -0.000942423)
(-0.00209172 -0.00216317 -0.000942423)
(-0.00168431 -0.00249353 -0.000942423)
(-0.00122573 -0.00274812 -0.000942423)
(-0.000729898 -0.00291922 -0.000942422)
(-0.000211892 -0.00300161 -0.000942423)
(0.000312552 -0.00299281 -0.000942422)
(0.000827499 -0.00289307 -0.000942422)
(0.0013173 -0.00270542 -0.000942422)
(0.00176708 -0.00243557 -0.000942423)
(0.00216317 -0.00209172 -0.000942423)
(0.00249353 -0.00168431 -0.000942423)
(0.00274812 -0.00122573 -0.000942423)
(0.00291922 -0.000729898 -0.000942422)
(0.00300161 -0.000211892 -0.000942422)
(0.00299281 0.000312552 -0.000942422)
(0.00289307 0.000827499 -0.000942422)
(0.00270542 0.0013173 -0.000942422)
(0.00243557 0.00176708 -0.000942423)
(0.00209172 0.00216317 -0.000942423)
(0.00168431 0.00249353 -0.000942423)
(0.00122573 0.00274812 -0.000942422)
(0.000729898 0.00291922 -0.000942422)
(0.000211892 0.00300161 -0.000942422)
(-0.000312552 0.00299281 -0.000942422)
(-0.000827499 0.00289307 -0.000942422)
(-0.00127929 0.0026337 -0.000855826)
(-0.00171719 0.00237154 -0.000855826)
(-0.00210292 0.00203732 -0.000855826)
(-0.00242475 0.0016412 -0.000855826)
(-0.0026729 0.00119522 -0.000855826)
(-0.00283984 0.000712916 -0.000855826)
(-0.00292049 0.000208952 -0.000855826)
(-0.00291241 -0.000301361 -0.000855826)
(-0.00281583 -0.000802518 -0.000855826)
(-0.0026337 -0.00127929 -0.000855826)
(-0.00237154 -0.00171719 -0.000855826)
(-0.00203732 -0.00210292 -0.000855826)
(-0.0016412 -0.00242475 -0.000855826)
(-0.00119522 -0.0026729 -0.000855826)
(-0.000712916 -0.00283984 -0.000855826)
(-0.000208952 -0.00292049 -0.000855826)
(0.000301361 -0.00291241 -0.000855826)
(0.000802518 -0.00281583 -0.000855826)
(0.00127929 -0.0026337 -0.000855826)
(0.00171719 -0.00237154 -0.000855826)
(0.00210292 -0.00203732 -0.000855826)
(0.00242475 -0.0016412 -0.000855826)
(0.0026729 -0.00119522 -0.000855826)
(0.00283984 -0.000712916 -0.000855826)
(0.00292049 -0.000208952 -0.000855826)
(0.00291241 0.000301361 -0.000855826)
(0.00281583 0.000802518 -0.000855826)
(0.0026337 0.00127929 -0.000855826)
(0.00237154 0.00171719 -0.000855826)
(0.00203732 0.00210292 -0.000855826)
(0.0016412 0.00242475 -0.000855826)
(0.00119522 0.0026729 -0.000855826)
(0.000712916 0.00283984 -0.000855826)
(0.000208952 0.00292049 -0.000855826)
(-0.000301361 0.00291241 -0.000855826)
(-0.000802518 0.00281583 -0.000855826)
(-0.00125318 0.00255264 -0.000772394)
(-0.00167741 0.00229624 -0.000772394)
(-0.00205066 0.00197008 -0.000772394)
(-0.00236161 0.00158406 -0.000772394)
(-0.0026008 0.0011499 -0.000772394)
(-0.00276097 0.000680809 -0.000772394)
(-0.00283724 0.000191031 -0.000772394)
(-0.00282731 -0.000304554 -0.000772394)
(-0.00273147 -0.000790885 -0.000772394)
(-0.00255264 -0.00125318 -0.000772394)
(-0.00229624 -0.00167741 -0.000772394)
(-0.00197008 -0.00205066 -0.000772394)
(-0.00158406 -0.00236161 -0.000772394)
(-0.0011499 -0.0026008 -0.000772394)
(-0.000680809 -0.00276097 -0.000772394)
(-0.000191031 -0.00283724 -0.000772394)
(0.000304554 -0.00282731 -0.000772394)
(0.000790885 -0.00273147 -0.000772394)
(0.00125318 -0.00255264 -0.000772394)
(0.00167741 -0.00229624 -0.000772394)
(0.00205066 -0.00197008 -0.000772394)
(0.00236161 -0.00158406 -0.000772394)
(0.0026008 -0.0011499 -0.000772394)
(0.00276097 -0.000680809 -0.000772394)
(0.00283724 -0.000191031 -0.000772394)
(0.00282731 0.000304554 -0.000772394)
(0.00273147 0.000790885 -0.000772394)
(0.00255264 0.00125318 -0.000772394)
(0.00229624 0.00167741 -0.000772394)
(0.00197008 0.00205066 -0.000772394)
(0.00158406 0.00236161 -0.000772394)
(0.0011499 0.0026008 -0.000772394)
(0.000680809 0.00276097 -0.000772394)
(0.000191031 0.00283724 -0.000772394)
(-0.000304554 0.00282731 -0.000772394)
(-0.000790885 0.00273147 -0.000772394)
(-0.00153145 0.00309134 -0.00119341)
(-0.00204498 0.00277844 -0.00119341)
(-0.00249639 0.00238112 -0.00119341)
(-0.00287194 0.00191145 -0.00119341)
(-0.00316023 0.00138371 -0.00119341)
(-0.00335249 0.000813916 -0.00119341)
(-0.0034429 0.000219396 -0.00119341)
(-0.00342869 -0.00038179 -0.00119341)
(-0.0033103 -0.000971376 -0.00119341)
(-0.00309134 -0.00153145 -0.00119341)
(-0.00277844 -0.00204498 -0.00119341)
(-0.00238112 -0.00249639 -0.00119341)
(-0.00191145 -0.00287194 -0.00119341)
(-0.00138371 -0.00316023 -0.00119341)
(-0.000813916 -0.00335249 -0.00119341)
(-0.000219396 -0.0034429 -0.00119341)
(0.000381791 -0.00342869 -0.00119341)
(0.000971376 -0.0033103 -0.00119341)
(0.00153145 -0.00309134 -0.00119341)
(0.00204498 -0.00277844 -0.00119341)
(0.00249639 -0.00238112 -0.00119341)
(0.00287194 -0.00191145 -0.00119341)
(0.00316023 -0.00138371 -0.00119341)
(0.00335249 -0.000813916 -0.00119341)
(0.0034429 -0.000219396 -0.00119341)
(0.00342869 0.00038179 -0.00119341)
(0.0033103 0.000971376 -0.00119341)
(0.00309134 0.00153145 -0.00119341)
(0.00277844 0.00204498 -0.00119341)
(0.00238112 0.00249639 -0.00119341)
(0.00191145 0.00287194 -0.00119341)
(0.00138371 0.00316023 -0.00119341)
(0.000813916 0.00335249 -0.00119341)
(0.000219396 0.0034429 -0.00119341)
(-0.00038179 0.00342869 -0.00119341)
(-0.000971376 0.0033103 -0.00119341)
(-0.0014847 0.0029755 -0.00109616)
(-0.00197884 0.00267248 -0.00109616)
(-0.00241284 0.00228826 -0.00109616)
(-0.00277354 0.00183451 -0.00109616)
(-0.00304996 0.00132502 -0.00109616)
(-0.00323371 0.000775269 -0.00109616)
(-0.00331921 0.000201961 -0.00109616)
(-0.00330385 -0.000377481 -0.00109616)
(-0.00318811 -0.000945456 -0.00109616)
(-0.0029755 -0.0014847 -0.00109616)
(-0.00267248 -0.00197884 -0.00109616)
(-0.00228826 -0.00241284 -0.00109616)
(-0.00183451 -0.00277354 -0.00109616)
(-0.00132502 -0.00304996 -0.00109616)
(-0.000775269 -0.00323371 -0.00109616)
(-0.000201961 -0.00331921 -0.00109616)
(0.000377482 -0.00330385 -0.00109616)
(0.000945456 -0.00318811 -0.00109616)
(0.0014847 -0.0029755 -0.00109616)
(0.00197884 -0.00267248 -0.00109616)
(0.00241284 -0.00228826 -0.00109616)
(0.00277354 -0.00183451 -0.00109616)
(0.00304996 -0.00132502 -0.00109616)
(0.00323371 -0.000775269 -0.00109616)
(0.00331921 -0.000201961 -0.00109616)
(0.00330385 0.000377482 -0.00109616)
(0.00318811 0.000945456 -0.00109616)
(0.0029755 0.0014847 -0.00109616)
(0.00267248 0.00197884 -0.00109616)
(0.00228826 0.00241284 -0.00109616)
(0.00183451 0.00277354 -0.00109616)
(0.00132502 0.00304996 -0.00109616)
(0.000775269 0.00323371 -0.00109616)
(0.000201961 0.00331921 -0.00109616)
(-0.000377481 0.00330385 -0.00109616)
(-0.000945456 0.00318811 -0.00109616)
(-0.00144881 0.00285037 -0.00100271)
(-0.00192176 0.00255548 -0.00100271)
(-0.00233632 0.00218295 -0.00100271)
(-0.00267989 0.00174409 -0.00100271)
(-0.00294203 0.00125224 -0.00100271)
(-0.00311479 0.000722333 -0.00100271)
(-0.0031929 0.000170483 -0.00100271)
(-0.00317399 -0.000386548 -0.00100271)
(-0.00305865 -0.000931834 -0.00100271)
(-0.00285037 -0.00144881 -0.00100271)
(-0.00255548 -0.00192176 -0.00100271)
(-0.00218295 -0.00233632 -0.00100271)
(-0.00174409 -0.00267989 -0.00100271)
(-0.00125224 -0.00294203 -0.00100271)
(-0.000722333 -0.00311479 -0.00100271)
(-0.000170482 -0.0031929 -0.00100271)
(0.000386548 -0.00317399 -0.00100271)
(0.000931834 -0.00305865 -0.00100271)
(0.00144881 -0.00285037 -0.00100271)
(0.00192176 -0.00255548 -0.00100271)
(0.00233632 -0.00218295 -0.00100271)
(0.00267989 -0.00174409 -0.00100271)
(0.00294203 -0.00125224 -0.00100271)
(0.00311479 -0.000722333 -0.00100271)
(0.0031929 -0.000170482 -0.00100271)
(0.00317399 0.000386548 -0.00100271)
(0.00305865 0.000931834 -0.00100271)
(0.00285037 0.00144881 -0.00100271)
(0.00255548 0.00192176 -0.00100271)
(0.00218295 0.00233632 -0.00100271)
(0.00174409 0.00267989 -0.00100271)
(0.00125224 0.00294203 -0.00100271)
(0.000722333 0.00311479 -0.00100271)