/*--------------------------------*- C++ -*----------------------------------*\
| =========                 |                                                 |
| \\      /  F ield         | OpenFOAM: The Open Source CFD Toolbox           |
|  \\    /   O peration     | Version:  2312                                  |
|   \\  /    A nd           | Website:  www.openfoam.com                      |
|    \\/     M anipulation  |                                                 |
\*---------------------------------------------------------------------------*/
FoamFile
{
    version     2.0;
    format      ascii;
    arch        "LSB;label=32;scalar=64";
    class       volVectorField;
    location    "0.2";
    object      D;
}
// * * * * * * * * * * * * * * * * * * * * * * * * * * * * * * * * * * * * * //

dimensions      [0 1 0 0 0 0 0];

internalField   nonuniform List<vector> 
1620
(
(-8.52245e-05 -2.69367e-05 -5.16229e-05)
(-6.69012e-05 5.78457e-06 -4.27694e-05)
(-4.15413e-05 3.48475e-05 -2.87529e-05)
(-1.35768e-05 6.1535e-05 -1.19411e-05)
(1.42517e-05 8.81363e-05 7.51032e-06)
(3.91076e-05 0.000116868 3.03325e-05)
(5.72923e-05 0.000148788 5.75993e-05)
(6.46993e-05 0.000182109 8.92592e-05)
(6.20122e-05 0.00020978 0.000118227)
(5.03413e-05 0.000225638 0.000120478)
(3.36692e-05 0.000227319 9.82892e-05)
(2.11914e-05 0.000218387 7.31708e-05)
(1.65118e-05 0.000204416 4.979e-05)
(1.80116e-05 0.000187924 2.84274e-05)
(2.3445e-05 0.000169118 8.89724e-06)
(3.07526e-05 0.000147028 -8.85283e-06)
(3.75272e-05 0.000120308 -2.43951e-05)
(3.92641e-05 8.81591e-05 -3.53685e-05)
(3.10967e-05 5.20983e-05 -3.57951e-05)
(1.3772e-05 1.71381e-05 -2.6305e-05)
(-6.81008e-06 -1.44664e-05 -1.36811e-05)
(-2.66472e-05 -4.28938e-05 -1.53665e-07)
(-4.43493e-05 -6.93991e-05 1.45476e-05)
(-5.90108e-05 -9.59734e-05 3.18144e-05)
(-6.88434e-05 -0.00012447 5.38119e-05)
(-7.09976e-05 -0.000154592 8.21182e-05)
(-6.70558e-05 -0.000180353 0.000111031)
(-5.70328e-05 -0.000195832 0.000115386)
(-4.36078e-05 -0.000197821 9.65485e-05)
(-3.54788e-05 -0.00018928 7.34028e-05)
(-3.61072e-05 -0.000175289 5.00674e-05)
(-4.41053e-05 -0.000158605 2.71352e-05)
(-5.69043e-05 -0.000139852 4.89129e-06)
(-7.16131e-05 -0.00011826 -1.62073e-05)
(-8.48199e-05 -9.23621e-05 -3.51634e-05)
(-9.11907e-05 -6.12326e-05 -4.9082e-05)
(-3.20019e-05 -2.94199e-05 -2.40586e-05)
(-2.27248e-05 5.78808e-06 -1.41456e-05)
(-1.26304e-05 3.39446e-05 -4.5504e-06)
(-1.73174e-06 5.64081e-05 6.16679e-06)
(9.76106e-06 7.43067e-05 1.83178e-05)
(2.10177e-05 8.94138e-05 3.14179e-05)
(3.11028e-05 0.000102968 4.47214e-05)
(3.96822e-05 0.000115486 5.7092e-05)
(4.76822e-05 0.000127554 6.62233e-05)
(5.2393e-05 0.000139791 6.79125e-05)
(5.29925e-05 0.000151215 6.27173e-05)
(4.97848e-05 0.000159806 5.38285e-05)
(4.49319e-05 0.000164579 4.31228e-05)
(3.90385e-05 0.000164843 3.17766e-05)
(3.19813e-05 0.000159362 2.07123e-05)
(2.35376e-05 0.000146439 1.05434e-05)
(1.39509e-05 0.000124947 1.01754e-06)
(3.519e-06 9.28587e-05 -8.99874e-06)
(-6.03077e-06 5.36412e-05 -8.81654e-06)
(-1.40884e-05 1.78705e-05 7.98523e-07)
(-2.15367e-05 -1.08689e-05 8.63992e-06)
(-2.83734e-05 -3.37953e-05 1.65474e-05)
(-3.4744e-05 -5.17738e-05 2.52934e-05)
(-4.05014e-05 -6.63958e-05 3.48756e-05)
(-4.55776e-05 -7.89011e-05 4.51282e-05)
(-5.04925e-05 -8.99328e-05 5.54961e-05)
(-5.68595e-05 -0.000100307 6.38305e-05)
(-6.20754e-05 -0.000110846 6.53828e-05)
(-6.4861e-05 -0.000121162 6.03782e-05)
(-6.53047e-05 -0.000129494 5.14097e-05)
(-6.48968e-05 -0.000134694 3.99728e-05)
(-6.37206e-05 -0.000135864 2.71706e-05)
(-6.11688e-05 -0.00013156 1.40079e-05)
(-5.65813e-05 -0.000119842 1.31269e-06)
(-4.9879e-05 -9.93334e-05 -1.07973e-05)
(-4.12235e-05 -6.7994e-05 -2.30515e-05)
(1.05116e-07 -3.44128e-05 7.18836e-06)
(1.79741e-06 9.74888e-07 1.11472e-05)
(-8.87753e-07 2.773e-05 1.55704e-05)
(-3.76827e-06 4.5266e-05 2.04238e-05)
(-4.81812e-06 5.50646e-05 2.56402e-05)
(-2.9745e-06 5.94939e-05 2.99716e-05)
(2.90519e-06 6.09918e-05 3.13166e-05)
(1.44086e-05 6.22291e-05 2.79242e-05)
(3.34223e-05 6.64385e-05 2.16187e-05)
(5.62748e-05 7.57493e-05 2.22437e-05)
(7.2163e-05 9.05886e-05 3.05378e-05)
(7.86684e-05 0.000108601 3.48944e-05)
(7.64102e-05 0.000125969 3.45828e-05)
(6.67833e-05 0.000139284 3.16438e-05)
(5.11207e-05 0.00014539 2.80401e-05)
(3.08773e-05 0.000141218 2.49491e-05)
(8.571e-06 0.000124458 2.24948e-05)
(-1.07358e-05 9.46674e-05 2.04686e-05)
(-2.11643e-05 5.7853e-05 2.10462e-05)
(-2.23168e-05 2.36472e-05 2.37637e-05)
(-1.93645e-05 -1.79434e-06 2.61276e-05)
(-1.6248e-05 -1.84313e-05 2.87505e-05)
(-1.45744e-05 -2.80417e-05 3.19442e-05)
(-1.5109e-05 -3.28544e-05 3.4631e-05)
(-1.90809e-05 -3.48038e-05 3.47061e-05)
(-2.86454e-05 -3.6002e-05 3.02196e-05)
(-4.62117e-05 -3.95478e-05 2.27169e-05)
(-6.8332e-05 -4.79639e-05 2.17576e-05)
(-8.45929e-05 -6.22657e-05 2.83455e-05)
(-9.32053e-05 -8.03702e-05 3.12428e-05)
(-9.37832e-05 -9.86633e-05 2.96776e-05)
(-8.67165e-05 -0.000113476 2.54497e-05)
(-7.27466e-05 -0.000121147 2.02979e-05)
(-5.3213e-05 -0.000118146 1.53032e-05)
(-3.08483e-05 -0.000101927 1.07263e-05)
(-1.10061e-05 -7.20638e-05 6.95122e-06)
(-0.000208965 -8.1955e-05 -0.000143451)
(-0.000167096 2.26331e-05 -0.000121547)
(-0.000112162 0.000111097 -8.05625e-05)
(-5.12548e-05 0.000184621 -2.86247e-05)
(1.05368e-05 0.000249669 3.21407e-05)
(6.76724e-05 0.000313073 0.000102697)
(0.000113723 0.000378941 0.000184011)
(0.000143098 0.000445937 0.000271479)
(0.000157215 0.000504698 0.000344165)
(0.000157132 0.000545634 0.000358983)
(0.00014073 0.000564396 0.000313387)
(0.000122489 0.000564325 0.0002467)
(0.000111234 0.000551406 0.000177517)
(0.000107502 0.000527821 0.000111785)
(0.000108726 0.000491818 5.0805e-05)
(0.000111371 0.000439023 -4.88459e-06)
(0.000110942 0.000364457 -5.27081e-05)
(0.000100276 0.000266928 -8.46617e-05)
(7.41536e-05 0.000156372 -8.80222e-05)
(3.4526e-05 4.96194e-05 -6.38724e-05)
(-1.07072e-05 -4.16562e-05 -2.69439e-05)
(-5.47027e-05 -0.000117272 1.47878e-05)
(-9.4442e-05 -0.000182028 6.06439e-05)
(-0.000127919 -0.000242091 0.000113963)
(-0.000152757 -0.000302521 0.00017903)
(-0.000166855 -0.000364189 0.000255286)
(-0.000174586 -0.000419504 0.000325096)
(-0.000176802 -0.000459329 0.000345274)
(-0.000169251 -0.000478581 0.00030776)
(-0.000163965 -0.000479738 0.000245751)
(-0.000168263 -0.000468117 0.0001759)
(-0.000181861 -0.000445956 0.000104578)
(-0.000200844 -0.000411622 3.4446e-05)
(-0.000219865 -0.000360568 -3.22737e-05)
(-0.000232714 -0.00028741 -9.12772e-05)
(-0.000231089 -0.000190884 -0.000133058)
(-0.000115021 -9.18422e-05 -7.07833e-05)
(-8.73576e-05 1.26444e-05 -4.77522e-05)
(-5.73474e-05 9.74138e-05 -1.53579e-05)
(-2.46645e-05 0.000164427 2.34404e-05)
(1.00745e-05 0.000218068 6.74365e-05)
(4.48729e-05 0.000264043 0.000115082)
(7.75079e-05 0.000306604 0.000163795)
(0.000106962 0.0003475 0.000208801)
(0.000133958 0.000386313 0.00024158)
(0.000153991 0.000422225 0.000251156)
(0.000161834 0.000453363 0.00023606)
(0.000158365 0.000476349 0.000204993)
(0.000147981 0.00048914 0.000165934)
(0.000132843 0.000489357 0.000124156)
(0.000113382 0.000472921 8.30264e-05)
(8.95152e-05 0.000434483 4.47136e-05)
(6.19464e-05 0.000369636 1.06937e-05)
(3.20195e-05 0.000275137 -1.58948e-05)
(3.74004e-06 0.000163564 -1.71725e-05)
(-2.12578e-05 5.85713e-05 5.22557e-06)
(-4.45559e-05 -2.66158e-05 3.22063e-05)
(-6.64535e-05 -9.38405e-05 6.17396e-05)
(-8.71518e-05 -0.000146958 9.40157e-05)
(-0.000106388 -0.000191253 0.00012913)
(-0.000124286 -0.000230993 0.000166437)
(-0.000142302 -0.000268292 0.000203172)
(-0.000163268 -0.000303244 0.000232012)
(-0.000183566 -0.000335783 0.000241291)
(-0.000197393 -0.000365201 0.000227102)
(-0.000204344 -0.000388497 0.000195872)
(-0.000206855 -0.000403209 0.000154294)
(-0.000205414 -0.000406407 0.000107379)
(-0.000198952 -0.000393402 5.88689e-05)
(-0.000186128 -0.00035816 1.17753e-05)
(-0.000166802 -0.000295675 -3.11531e-05)
(-0.000141952 -0.000202612 -6.52931e-05)
(-3.98928e-05 -0.000104616 9.14186e-06)
(-2.44534e-05 -3.62631e-06 2.40861e-05)
(-1.64464e-05 7.79415e-05 4.60782e-05)
(-8.81007e-06 0.000138349 7.16675e-05)
(1.99908e-06 0.000181205 9.8828e-05)
(1.77004e-05 0.000211954 0.000123732)
(3.98983e-05 0.000235955 0.000140759)
(7.04865e-05 0.000258325 0.00014549)
(0.000111663 0.000284052 0.000142177)
(0.000153988 0.000315916 0.00014783)
(0.000183421 0.000353504 0.000159645)
(0.000194443 0.000392447 0.000161505)
(0.000186847 0.000425933 0.00015117)
(0.0001631 0.000447013 0.000132626)
(0.00012611 0.000448637 0.000111)
(7.93429e-05 0.000423807 9.01319e-05)
(2.83882e-05 0.000367299 7.22064e-05)
(-1.7004e-05 0.000279166 6.0059e-05)
(-4.68269e-05 0.000173629 6.03682e-05)
(-5.9945e-05 7.39408e-05 7.18288e-05)
(-6.42267e-05 -5.54622e-06 8.70981e-05)
(-6.68114e-05 -6.39381e-05 0.000104439)
(-7.11063e-05 -0.000105369 0.000123077)
(-7.8958e-05 -0.000135152 0.000139976)
(-9.27697e-05 -0.000157974 0.000149939)
(-0.000115985 -0.000178269 0.000148697)
(-0.00015227 -0.000201111 0.000140685)
(-0.000192582 -0.000230243 0.000141858)
(-0.000224322 -0.000266292 0.000148662)
(-0.000242279 -0.000305537 0.000145909)
(-0.000244099 -0.000341382 0.000131198)
(-0.000229998 -0.000366268 0.000107833)
(-0.000201326 -0.000372124 8.03967e-05)
(-0.000160817 -0.000351008 5.27032e-05)
(-0.000113878 -0.00029714 2.77234e-05)
(-7.01968e-05 -0.000210385 1.01454e-05)
(-0.000320084 -0.000146107 -0.000213143)
(-0.000257987 2.29819e-05 -0.000183216)
(-0.00017816 0.000167102 -0.000116995)
(-8.89057e-05 0.000286478 -2.69462e-05)
(2.47084e-06 0.000390226 8.19596e-05)
(8.79074e-05 0.000488173 0.000208766)
(0.000159161 0.000586241 0.000351083)
(0.000210332 0.000683614 0.00049728)
(0.000242434 0.000771461 0.00061672)
(0.000256611 0.000838923 0.000655479)
(0.000248448 0.000878406 0.000597849)
(0.000228525 0.000890863 0.000492209)
(0.00021098 0.000881827 0.000371975)
(0.000199954 0.000852723 0.000252773)
(0.00019385 0.000800565 0.000141147)
(0.000188017 0.00071882 4.07166e-05)
(0.000176149 0.000600318 -4.26005e-05)
(0.000150234 0.000444488 -9.63271e-05)
(0.000106344 0.000268007 -0.000105225)
(4.73914e-05 9.7064e-05 -7.07129e-05)
(-1.87006e-05 -4.9339e-05 -1.09376e-05)
(-8.37494e-05 -0.000170028 6.14939e-05)
(-0.000142953 -0.000272237 0.000143774)
(-0.000192922 -0.000364959 0.000238997)
(-0.00023115 -0.00045515 0.000350448)
(-0.000257161 -0.000544624 0.000473181)
(-0.000276259 -0.000627267 0.00058282)
(-0.000291352 -0.000693323 0.000627476)
(-0.000297037 -0.000734274 0.000581984)
(-0.000298086 -0.000749355 0.000483445)
(-0.000305878 -0.000743452 0.000361441)
(-0.000322458 -0.000717831 0.000232019)
(-0.000343828 -0.000669323 0.00010399)
(-0.000362716 -0.000590969 -1.61301e-05)
(-0.000370594 -0.000475049 -0.000119549)
(-0.000358056 -0.000320888 -0.000191225)
(-0.000203183 -0.000160128 -9.88211e-05)
(-0.000156294 3.69514e-06 -6.70745e-05)
(-0.000105171 0.000139402 -1.14456e-05)
(-4.95061e-05 0.000248632 5.97142e-05)
(9.31181e-06 0.0003378 0.000142297)
(6.80004e-05 0.000415183 0.000232414)
(0.000123002 0.000487084 0.000324313)
(0.000172201 0.000556118 0.000408458)
(0.000215372 0.000621338 0.0004704)
(0.000248257 0.000680416 0.00049312)
(0.00026463 0.000730762 0.000471178)
(0.000262856 0.000768283 0.000417033)
(0.000248522 0.000789199 0.000345151)
(0.000225503 0.00078935 0.000266323)
(0.000195197 0.000762531 0.000187929)
(0.000157782 0.000700982 0.000115214)
(0.000114147 0.000598226 5.30399e-05)
(6.64454e-05 0.000451076 1.00976e-05)
(1.97762e-05 0.000279321 5.36644e-06)
(-2.33374e-05 0.000115492 3.65738e-05)
(-6.41692e-05 -1.99404e-05 8.29656e-05)
(-0.000103151 -0.000128423 0.000137455)
(-0.000140153 -0.000215815 0.000198193)
(-0.000174441 -0.00028995 0.000264253)
(-0.000205903 -0.000357229 0.00033342)
(-0.000236137 -0.000420888 0.000399858)
(-0.000268251 -0.000480768 0.000451873)
(-0.000300289 -0.000535476 0.000472196)
(-0.000325824 -0.000583888 0.000451017)
(-0.000340504 -0.000622631 0.000396097)
(-0.000346742 -0.000647214 0.000319214)
(-0.000345672 -0.000652537 0.000230597)
(-0.000336266 -0.000631395 0.00013839)
(-0.000316715 -0.000574992 4.94542e-05)
(-0.000286571 -0.000476015 -2.90931e-05)
(-0.000247285 -0.000331093 -8.59936e-05)
(-0.000100863 -0.000177088 2.42044e-05)
(-6.79832e-05 -2.24959e-05 4.91863e-05)
(-4.32742e-05 0.00010595 9.13877e-05)
(-1.86809e-05 0.000205166 0.000143105)
(9.91257e-06 0.000279954 0.00019896)
(4.41735e-05 0.000337823 0.000252096)
(8.50127e-05 0.000386168 0.0002939)
(0.00013316 0.000431474 0.000317368)
(0.000188585 0.000479342 0.000324748)
(0.000242851 0.00053313 0.000334831)
(0.000281795 0.000591549 0.000345291)
(0.000296807 0.00064868 0.000339819)
(0.000286513 0.000695491 0.000315202)
(0.000253391 0.000722391 0.000276467)
(0.000201323 0.000719434 0.000231385)
(0.000135338 0.000676866 0.000187069)
(6.31881e-05 0.000587722 0.0001494)
(-2.90199e-06 0.000453095 0.00012544)
(-5.14339e-05 0.000293429 0.000124173)
(-8.05893e-05 0.000140711 0.000143657)
(-9.84131e-05 1.52657e-05 0.000173965)
(-0.000113417 -8.07554e-05 0.000210078)
(-0.000130034 -0.000152836 0.000248917)
(-0.000150529 -0.000208445 0.000285401)
(-0.000177109 -0.000254317 0.000312194)
(-0.000212592 -0.000296193 0.000322982)
(-0.000259362 -0.000339678 0.000320028)
(-0.000310658 -0.000389378 0.00032104)
(-0.000353788 -0.00044552 0.000322435)
(-0.00037981 -0.000503385 0.000308526)
(-0.000384543 -0.00055409 0.00027544)
(-0.000367331 -0.000587053 0.000227062)
(-0.000329696 -0.000590808 0.00017047)
(-0.000275319 -0.000554185 0.000113057)
(-0.000211286 -0.000469332 6.23035e-05)
(-0.000149348 -0.000336946 2.83869e-05)
(-0.000423039 -0.000223695 -0.000230567)
(-0.000342896 -3.17963e-06 -0.000200809)
(-0.00024201 0.000189368 -0.00011842)
(-0.000129125 0.000351915 2.6717e-06)
(-1.30438e-05 0.000493678 0.000154597)
(9.6668e-05 0.000625449 0.000332699)
(0.000190972 0.000754142 0.000529454)
(0.000263885 0.000880141 0.000726895)
(0.000315066 0.000996804 0.000889228)
(0.000347078 0.00109272 0.0009576)
(0.000355507 0.00115587 0.000902885)
(0.000338845 0.00118374 0.000771849)
(0.00031676 0.00118156 0.000609173)
(0.000297143 0.00114927 0.00044091)
(0.000280569 0.00108306 0.000281389)
(0.000262574 0.000975845 0.00013948)
(0.000236239 0.000820704 2.48417e-05)
(0.000193962 0.000619326 -4.79948e-05)
(0.000132747 0.000392401 -6.50874e-05)
(5.60659e-05 0.000170831 -2.80001e-05)
(-2.82088e-05 -2.2354e-05 4.61571e-05)
(-0.000111543 -0.000183887 0.000142809)
(-0.000187915 -0.000321309 0.000256651)
(-0.000253028 -0.000444763 0.000388438)
(-0.000304543 -0.000562383 0.000538403)
(-0.000343115 -0.00067754 0.000697745)
(-0.000373613 -0.000787275 0.000839588)
(-0.000402522 -0.000882348 0.000910032)
(-0.000427428 -0.000949636 0.000870368)
(-0.000438576 -0.000983211 0.000748453)
(-0.000450474 -0.000987138 0.000582948)
(-0.000467475 -0.000961023 0.000400305)
(-0.000486894 -0.000900736 0.000217689)
(-0.000501136 -0.000798747 4.78574e-05)
(-0.000500679 -0.000647622 -9.55604e-05)
(-0.000476148 -0.000448861 -0.000194368)
(-0.000296842 -0.000236584 -8.30427e-05)
(-0.000230683 -2.74152e-05 -4.97161e-05)
(-0.000157926 0.000151361 2.18961e-05)
(-7.88131e-05 0.000299288 0.000120055)
(4.18971e-06 0.000423366 0.00023753)
(8.64613e-05 0.000532885 0.000367294)
(0.00016307 0.000635041 0.000499814)
(0.000230711 0.000732893 0.000621134)
(0.000288429 0.000825329 0.000712312)
(0.000333611 0.000908194 0.00075157)
(0.000359758 0.000977669 0.000729609)
(0.000361292 0.00102944 0.000659421)
(0.000344642 0.00105775 0.000559954)
(0.000315382 0.00105719 0.000447449)
(0.000276033 0.0010205 0.000334255)
(0.000227165 0.000938983 0.000229823)
(0.000169707 0.000805617 0.000142979)
(0.000106241 0.000619479 8.62775e-05)
(4.1983e-05 0.000404153 7.58995e-05)
(-1.98911e-05 0.000195861 0.000109382)
(-7.96797e-05 1.87195e-05 0.000168528)
(-0.000137515 -0.000126623 0.000243027)
(-0.000192568 -0.000246765 0.000328556)
(-0.000243294 -0.000350742 0.000422216)
(-0.000288869 -0.000446066 0.000519504)
(-0.000330495 -0.000536725 0.000611736)
(-0.000371534 -0.000622843 0.000684269)
(-0.000413341 -0.000701207 0.000716342)
(-0.000450255 -0.0007695 0.000693671)
(-0.000473108 -0.000824298 0.000621616)
(-0.000483644 -0.000858655 0.0005146)
(-0.000483562 -0.000865775 0.000387833)
(-0.000472146 -0.000837061 0.000254694)
(-0.000447413 -0.000762586 0.00012692)
(-0.000408525 -0.00063441 1.64615e-05)
(-0.000356941 -0.000451246 -6.05106e-05)
(-0.000180318 -0.000251964 7.22919e-05)
(-0.000128123 -5.78915e-05 0.00010242)
(-8.2362e-05 0.000108103 0.000159877)
(-3.55789e-05 0.0002415 0.000234148)
(1.56734e-05 0.000347524 0.000316687)
(7.18217e-05 0.000434624 0.000397781)
(0.000131986 0.000510854 0.000466227)
(0.000195147 0.000582453 0.0005124)
(0.000259793 0.000654039 0.000535105)
(0.000321943 0.000729124 0.000549603)
(0.000366319 0.000805738 0.000557467)
(0.000383818 0.00087706 0.000545126)
(0.000372447 0.000932817 0.000507749)
(0.000334391 0.000962184 0.000450763)
(0.00027371 0.000953816 0.000384142)
(0.000195943 0.000896625 0.000318339)
(0.000109626 0.000783018 0.000263115)
(2.75268e-05 0.000615564 0.000228746)
(-3.85921e-05 0.000418161 0.000224319)
(-8.62761e-05 0.000226738 0.000247644)
(-0.000122678 6.48319e-05 0.000288661)
(-0.000156042 -6.40121e-05 0.000340236)
(-0.000190593 -0.000165824 0.000397052)
(-0.000227792 -0.000249188 0.000452193)
(-0.000268413 -0.000321666 0.000496668)
(-0.000313907 -0.000388791 0.000522126)
(-0.00036572 -0.000454999 0.000527264)
(-0.000423752 -0.000525127 0.000526111)
(-0.000473379 -0.000599196 0.00051981)
(-0.000504976 -0.000672008 0.000494928)
(-0.000513315 -0.000733354 0.000444801)
(-0.000496668 -0.000771023 0.000373231)
(-0.000455982 -0.000771675 0.000289439)
(-0.000394852 -0.000722383 0.000204473)
(-0.000320684 -0.0006144 0.000130378)
(-0.000245398 -0.000449735 8.15916e-05)
(-0.000523356 -0.000314558 -0.000183261)
(-0.000426944 -5.78083e-05 -0.000161181)
(-0.000307288 0.000173224 -7.38847e-05)
(-0.000173526 0.000373917 6.594e-05)
(-3.54401e-05 0.000551719 0.000248568)
(9.66728e-05 0.000716815 0.000465485)
(0.000213395 0.00087643 0.000704098)
(0.000308327 0.0010321 0.00094147)
(0.000379555 0.00117907 0.00113893)
(0.000430296 0.00130554 0.00123903)
(0.000456418 0.00139463 0.00120334)
(0.000445851 0.00143932 0.00106343)
(0.000421568 0.00144527 0.000872669)
(0.000393916 0.00141134 0.000667175)
(0.00036591 0.00133359 0.000469632)
(0.000334457 0.00120587 0.000294854)
(0.000293165 0.00102353 0.000155765)
(0.000235162 0.000791337 6.68347e-05)
(0.00015767 0.000531371 3.91884e-05)
(6.42204e-05 0.000274823 7.1327e-05)
(-3.7198e-05 4.5625e-05 0.000149319)
(-0.000137877 -0.000150567 0.000259175)
(-0.000231063 -0.000319901 0.00039377)
(-0.000311973 -0.000472329 0.000550833)
(-0.00037827 -0.000616678 0.00072705)
(-0.00043085 -0.000757946 0.000910639)
(-0.000473968 -0.000895904 0.00107402)
(-0.000515658 -0.00102231 0.00116819)
(-0.000556435 -0.00111987 0.00114784)
(-0.000579086 -0.00117589 0.00101853)
(-0.000595676 -0.00119243 0.000824537)
(-0.000612025 -0.00116819 0.000601784)
(-0.000627337 -0.00109899 0.000375876)
(-0.000635032 -0.000978473 0.000166278)
(-0.000625672 -0.000801621 -9.10334e-06)
(-0.000590046 -0.00057292 -0.000131052)
(-0.000395127 -0.000320152 -1.35533e-05)
(-0.000310783 -7.99556e-05 1.48239e-05)
(-0.000216902 0.000132417 9.25432e-05)
(-0.000114746 0.000313897 0.000207394)
(-8.03957e-06 0.000470851 0.000350048)
(9.72916e-05 0.000612304 0.00051057)
(0.000195013 0.000745344 0.000675887)
(0.000280687 0.000872904 0.000828292)
(0.000352685 0.000993444 0.000945547)
(0.000409771 0.00110106 0.00100361)
(0.000445167 0.00119023 0.000989765)
(0.000451029 0.00125597 0.000913473)
(0.0004338 0.00129106 0.000796121)
(0.000400192 0.00128967 0.000658807)
(0.000353709 0.00124452 0.000518922)
(0.000295471 0.00114736 0.000390259)
(0.000226472 0.000992077 0.000285008)
(0.000149322 0.000780869 0.000217104)
(6.88277e-05 0.000538232 0.00019911)
(-1.14805e-05 0.000300099 0.000228733)
(-9.07907e-05 9.13057e-05 0.000291673)
(-0.000168482 -8.50056e-05 0.000377051)
(-0.000242803 -0.000235029 0.000478792)
(-0.000311217 -0.000367871 0.000591905)
(-0.000371918 -0.000491287 0.000709518)
(-0.000425395 -0.000609521 0.000820531)
(-0.000475003 -0.000722747 0.000908403)
(-0.000524536 -0.00082643 0.000951888)
(-0.000569914 -0.00091639 0.000934034)
(-0.000600459 -0.000987922 0.000854142)
(-0.000615729 -0.00103228 0.000726976)
(-0.000617336 -0.00104159 0.000571793)
(-0.000604889 -0.00100696 0.000406986)
(-0.000576511 -0.000918805 0.000249064)
(-0.000531008 -0.000770088 0.000114021)
(-0.000469395 -0.000562439 2.0352e-05)
(-0.000271773 -0.00032774 0.000162538)
(-0.000200594 -0.000107304 0.000192094)
(-0.000132675 8.68429e-05 0.000256799)
(-6.19041e-05 0.000248981 0.000345514)
(1.37211e-05 0.000384187 0.00044781)
(9.27001e-05 0.000500821 0.000551829)
(0.000172023 0.00060635 0.000644173)
(0.00024906 0.000705655 0.000712595)
(0.000321736 0.000801579 0.000751751)
(0.000389686 0.000896954 0.000771116)
(0.000437647 0.000989972 0.000778113)
(0.000457189 0.00107317 0.000762631)
(0.000446206 0.00113535 0.000717232)
(0.000406547 0.00116548 0.000647592)
(0.00034195 0.00115218 0.000565547)
(0.000257674 0.00108435 0.000484361)
(0.00016205 0.000954671 0.000416695)
(6.73943e-05 0.000767144 0.000374281)
(-1.47436e-05 0.000546748 0.000365191)
(-8.13337e-05 0.000329935 0.000387374)
(-0.000138334 0.00014125 0.000432173)
(-0.000192906 -1.46665e-05 0.000492163)
(-0.000248205 -0.000143838 0.0005608)
(-0.000304126 -0.000254994 0.000629849)
(-0.000359566 -0.000355389 0.000689005)
(-0.000414573 -0.000449361 0.000727992)
(-0.000470405 -0.000539393 0.00074144)
(-0.000531451 -0.000629159 0.000736873)
(-0.000584305 -0.000719593 0.000723614)
(-0.000620011 -0.000805285 0.00069107)
(-0.000632577 -0.000875047 0.000628584)
(-0.000619059 -0.000915966 0.000539866)
(-0.000579325 -0.000914106 0.000435866)
(-0.000516196 -0.0008561 0.000330534)
(-0.000436509 -0.000733236 0.000239204)
(-0.000351434 -0.000548849 0.000178523)
(-0.000624839 -0.000416059 -7.07507e-05)
(-0.000514096 -0.000137854 -6.21187e-05)
(-0.000377247 0.000120459 1.94372e-05)
(-0.000223982 0.000352306 0.000164194)
(-6.49131e-05 0.000562647 0.000362073)
(8.91639e-05 0.000760135 0.000601771)
(0.000228507 0.000951608 0.000866896)
(0.000346088 0.00113908 0.00113137)
(0.000438387 0.00131842 0.00135591)
(0.000506318 0.00147695 0.00148832)
(0.000545283 0.00159353 0.00148304)
(0.000543217 0.00165619 0.00134972)
(0.000519463 0.00167068 0.00114742)
(0.000485706 0.00163649 0.000920457)
(0.000447271 0.00155046 0.000698604)
(0.000403156 0.00140855 0.000502003)
(0.000348208 0.00120941 0.00034599)
(0.000276207 0.000960761 0.000243866)
(0.000184102 0.00068408 0.000203926)
(7.49574e-05 0.000407781 0.000224949)
(-4.32639e-05 0.000154349 0.000296733)
(-0.000161587 -6.8763e-05 0.000407551)
(-0.000272659 -0.000265601 0.000549638)
(-0.000371234 -0.000445078 0.000718203)
(-0.000454594 -0.000616127 0.000906948)
(-0.00052311 -0.000784763 0.00110233)
(-0.000580056 -0.000952126 0.00127813)
(-0.00063157 -0.0011108 0.00139291)
(-0.000680221 -0.00124121 0.00139812)
(-0.000714478 -0.00132369 0.00127703)
(-0.000735921 -0.00135517 0.00107257)
(-0.000751729 -0.00133533 0.000827112)
(-0.000762911 -0.00126107 0.000573362)
(-0.000764479 -0.00112852 0.000336817)
(-0.000747577 -0.000936241 0.000138718)
(-0.000702904 -0.000691654 -1.9294e-06)
(-0.000496918 -0.000408002 0.000110099)
(-0.000396449 -0.000149803 0.000128161)
(-0.000282997 8.61113e-05 0.000202291)
(-0.000159028 0.000294613 0.000322093)
(-2.95701e-05 0.000480811 0.000477599)
(9.81891e-05 0.000652684 0.000656914)
(0.000216787 0.000816433 0.000844333)
(0.000320649 0.000974172 0.00101953)
(0.000407136 0.0011234 0.00115843)
(0.000475007 0.0012569 0.00123653)
(0.000517994 0.00136673 0.00123741)
(0.000529266 0.00144607 0.00116474)
(0.000513447 0.00148769 0.00104083)
(0.000477553 0.00148611 0.000890414)
(0.00042591 0.00143494 0.00073492)
(0.000360375 0.00132739 0.000591672)
(0.000282138 0.00115928 0.000475101)
(0.000193581 0.000935589 0.000398682)
(9.88017e-05 0.000679914 0.000371621)
(1.33313e-06 0.000425293 0.000392113)
(-9.70647e-05 0.000195365 0.000450039)
(-0.000194804 -4.84502e-06 0.000536032)
(-0.000289113 -0.000180513 0.000643419)
(-0.000376358 -0.000340082 0.000765644)
(-0.000453566 -0.000490854 0.000893934)
(-0.000520156 -0.000636701 0.00101559)
(-0.000578741 -0.000777297 0.0011135)
(-0.000633593 -0.000907653 0.00116757)
(-0.000683696 -0.00102101 0.00115887)
(-0.000721023 -0.00110988 0.00108024)
(-0.000741194 -0.00116502 0.000944852)
(-0.000745102 -0.00117797 0.000774181)
(-0.000732616 -0.00114034 0.000590321)
(-0.000702135 -0.00104395 0.000413539)
(-0.000652153 -0.000883702 0.000262543)
(-0.000582946 -0.000663918 0.000156134)
(-0.000369668 -0.000401556 0.000295714)
(-0.000281479 -0.000166007 0.000319463)
(-0.000192816 4.73356e-05 0.000383077)
(-9.90331e-05 0.000232043 0.00047675)
(2.17703e-07 0.000392765 0.000589679)
(0.000101397 0.000537112 0.000708814)
(0.000199462 0.00067118 0.000819129)
(0.000290332 0.000797933 0.00090614)
(0.000371573 0.000918065 0.000960746)
(0.000443562 0.00103265 0.000986353)
(0.000494771 0.00114076 0.000995047)
(0.000517233 0.00123462 0.000980387)
(0.000508293 0.00130235 0.000932928)
(0.000469436 0.00133322 0.00085818)
(0.000403945 0.00131672 0.000769019)
(0.000316548 0.00124272 0.000680435)
(0.00021493 0.00110484 0.000606543)
(0.000110568 0.000908089 0.000558912)
(1.45268e-05 0.000676915 0.000544041)
(-6.97071e-05 0.000446196 0.000560394)
(-0.000146876 0.00024001 0.000601751)
(-0.000222859 6.35114e-05 0.000662055)
(-0.000299433 -8.90603e-05 0.000734722)
(-0.000374719 -0.000225941 0.000810861)
(-0.000445746 -0.000353347 0.000879211)
(-0.000511129 -0.000473975 0.000927947)
(-0.000572018 -0.000588067 0.000948463)
(-0.000632695 -0.00069674 0.000942401)
(-0.000687013 -0.000802363 0.000923978)
(-0.000726576 -0.000899749 0.000886356)
(-0.000743855 -0.000977291 0.000817295)
(-0.000734784 -0.00102179 0.000719763)
(-0.000698104 -0.00101945 0.000605197)
(-0.000635682 -0.000957354 0.000489008)
(-0.00055342 -0.000827422 0.00038806)
(-0.00046141 -0.00063399 0.000319266)
(-0.000729026 -0.000524022 0.000100563)
(-0.000605905 -0.000237382 9.20025e-05)
(-0.000453215 3.71657e-05 0.000159262)
(-0.000281342 0.000292209 0.000296386)
(-0.000101806 0.00053039 0.000494338)
(7.38992e-05 0.000758418 0.000740589)
(0.000235362 0.000981991 0.00101678)
(0.00037451 0.00120256 0.00129599)
(0.000486102 0.00141539 0.00154073)
(0.00056834 0.00160661 0.00170353)
(0.000617492 0.00175192 0.00173226)
(0.000626826 0.00183403 0.0016183)
(0.000606059 0.0018575 0.00142113)
(0.000568706 0.00182475 0.00118949)
(0.000522138 0.00173447 0.000958015)
(0.00046755 0.00158545 0.000750985)
(0.000401324 0.00137977 0.000585344)
(0.000317785 0.00112737 0.000472958)
(0.000213188 0.000847875 0.000419865)
(8.96473e-05 0.000565269 0.000425307)
(-4.51129e-05 0.000299047 0.000482683)
(-0.000181735 5.73891e-05 0.00058339)
(-0.00031215 -0.000161765 0.000720221)
(-0.000430298 -0.000365846 0.000886945)
(-0.000532439 -0.000563133 0.00107542)
(-0.000617544 -0.000759585 0.00127174)
(-0.000687215 -0.000956448 0.0014525)
(-0.000745393 -0.00114686 0.00158225)
(-0.000797485 -0.00131102 0.0016123)
(-0.00084127 -0.00142358 0.00151351)
(-0.000867028 -0.00147293 0.00131669)
(-0.000883125 -0.00146086 0.00106661)
(-0.000891641 -0.00138645 0.000801401)
(-0.000889023 -0.00124917 0.0005513)
(-0.000867045 -0.00105154 0.000339849)
(-0.000815995 -0.000803377 0.000185358)
(-0.000600348 -0.000496 0.000282156)
(-0.000486469 -0.000231082 0.000286198)
(-0.000355813 1.85466e-05 0.000348856)
(-0.000212002 0.000246722 0.000462951)
(-6.13221e-05 0.000457236 0.000619204)
(8.77673e-05 0.000656669 0.000804929)
(0.000226515 0.000849787 0.00100305)
(0.000348029 0.00103726 0.00119212)
(0.000448385 0.00121511 0.00134764)
(0.000525818 0.00137491 0.00144499)
(0.000575875 0.00150578 0.00146402)
(0.000593865 0.0015987 0.00140303)
(0.000581114 0.00164727 0.00128367)
(0.000544716 0.00164694 0.0011324)
(0.000489791 0.00159298 0.000972966)
(0.000419028 0.00148076 0.000824968)
(0.000333933 0.00130846 0.000703919)
(0.000236532 0.0010831 0.000621799)
(0.000129968 0.00082625 0.000584995)
(1.73999e-05 0.000566748 0.000592441)
(-9.87538e-05 0.000325829 0.000638161)
(-0.000215945 0.000109371 0.000715583)
(-0.000330347 -8.6705e-05 0.000818536)
(-0.000437105 -0.000269789 0.000939689)
(-0.000531818 -0.00044618 0.00106916)
(-0.000612375 -0.000618776 0.00119366)
(-0.000680036 -0.0007863 0.00129652)
(-0.000738846 -0.000943293 0.00135886)
(-0.000791514 -0.00108034 0.00136093)
(-0.000833857 -0.00118742 0.00129151)
(-0.00085818 -0.00125498 0.00115968)
(-0.000864554 -0.00127402 0.000986865)
(-0.000852933 -0.0012373 0.000797118)
(-0.000821881 -0.00113868 0.000613072)
(-0.000769562 -0.000975444 0.000454765)
(-0.00069534 -0.000754024 0.00033999)
(-0.000468991 -0.000469375 0.000466891)
(-0.000367008 -0.000228299 0.000480946)
(-0.00026071 -4.28394e-06 0.000536517)
(-0.000146698 0.000196206 0.000626558)
(-2.61405e-05 0.000377399 0.000741102)
(9.55791e-05 0.000545853 0.000866784)
(0.000211594 0.000705929 0.000987656)
(0.00031638 0.000858427 0.00108769)
(0.000406925 0.00100171 0.00115505)
(0.000482826 0.0011346 0.00118871)
(0.00053782 0.00125675 0.00120122)
(0.000563883 0.00136038 0.00119005)
(0.000557962 0.00143366 0.00114621)
(0.000521178 0.00146629 0.00107413)
(0.000456463 0.00144906 0.000986418)
(0.00036808 0.00137348 0.000898459)
(0.000262946 0.00123447 0.000824439)
(0.000151563 0.00103749 0.000774549)
(4.43555e-05 0.000805473 0.00075341)
(-5.4943e-05 0.000570671 0.000760325)
(-0.00015011 0.000355733 0.000792265)
(-0.00024589 0.000165622 0.000845732)
(-0.00034272 -5.17627e-06 0.000915036)
(-0.000437037 -0.000164076 0.000991217)
(-0.000524079 -0.000315887 0.00106253)
(-0.000600866 -0.000461433 0.00111619)
(-0.000667889 -0.000598604 0.00114171)
(-0.00072838 -0.000725793 0.00113696)
(-0.000784119 -0.000845788 0.00111479)
(-0.000826315 -0.000953886 0.00107389)
(-0.000847353 -0.00103919 0.00100412)
(-0.000842479 -0.00108849 0.000906384)
(-0.000809441 -0.00108848 0.000791109)
(-0.000749078 -0.00102712 0.000673671)