/*--------------------------------*- C++ -*----------------------------------*\
| =========                 |                                                 |
| \\      /  F ield         | OpenFOAM: The Open Source CFD Toolbox           |
|  \\    /   O peration     | Version:  2312                                  |
|   \\  /    A nd           | Website:  www.openfoam.com                      |
|    \\/     M anipulation  |                                                 |
\*---------------------------------------------------------------------------*/
FoamFile
{
    version     2.0;
    format      ascii;
    arch        "LSB;label=32;scalar=64";
    class       volVectorField;
    location    "0.2";
    object      D_0;
}
// * * * * * * * * * * * * * * * * * * * * * * * * * * * * * * * * * * * * * //

dimensions      [0 1 0 0 0 0 0];

internalField   nonuniform List<vector> 
1620
(
(0.000221908 -8.32952e-05 4.5018e-05)
(0.000195197 -9.91267e-05 1.02943e-05)
(0.000161197 -0.00012023 -1.63533e-05)
(0.000129687 -0.000137104 -3.3611e-05)
(0.000106541 -0.000146867 -4.38373e-05)
(9.35876e-05 -0.000149016 -4.88328e-05)
(8.97966e-05 -0.000143086 -4.94294e-05)
(9.21113e-05 -0.000128331 -4.60508e-05)
(9.60361e-05 -0.000104261 -3.90053e-05)
(9.62781e-05 -7.12683e-05 -2.84837e-05)
(8.74875e-05 -3.10866e-05 -1.44751e-05)
(6.51103e-05 1.2932e-05 3.22022e-06)
(2.64641e-05 5.57075e-05 2.47198e-05)
(-2.78632e-05 9.07278e-05 4.93179e-05)
(-9.25397e-05 0.000111306 7.41161e-05)
(-0.000156929 0.000113427 9.2548e-05)
(-0.000206845 0.000100022 9.53045e-05)
(-0.000229253 8.45192e-05 7.73031e-05)
(-0.000221908 8.32952e-05 4.5018e-05)
(-0.000195197 9.91267e-05 1.02943e-05)
(-0.000161197 0.00012023 -1.63533e-05)
(-0.000129687 0.000137104 -3.3611e-05)
(-0.000106541 0.000146867 -4.38373e-05)
(-9.35876e-05 0.000149016 -4.88328e-05)
(-8.97966e-05 0.000143086 -4.94294e-05)
(-9.21113e-05 0.000128331 -4.60508e-05)
(-9.60361e-05 0.000104261 -3.90053e-05)
(-9.62781e-05 7.12683e-05 -2.84837e-05)
(-8.74875e-05 3.10866e-05 -1.44751e-05)
(-6.51103e-05 -1.2932e-05 3.22022e-06)
(-2.64641e-05 -5.57075e-05 2.47198e-05)
(2.78632e-05 -9.07278e-05 4.93179e-05)
(9.25397e-05 -0.000111306 7.41161e-05)
(0.000156929 -0.000113427 9.2548e-05)
(0.000206845 -0.000100022 9.53045e-05)
(0.000229253 -8.45192e-05 7.73031e-05)
(0.000176503 -0.000117902 3.0703e-05)
(0.000177951 -0.000128686 1.69424e-05)
(0.000170798 -0.000131565 3.3434e-06)
(0.000157644 -0.00012624 -9.55882e-06)
(0.000141561 -0.000115501 -2.12385e-05)
(0.000125347 -0.000101887 -3.0529e-05)
(0.000110718 -8.65032e-05 -3.63612e-05)
(9.78635e-05 -6.93109e-05 -3.81545e-05)
(8.55463e-05 -4.98975e-05 -3.57977e-05)
(7.15972e-05 -2.81629e-05 -2.95028e-05)
(5.36146e-05 -4.71395e-06 -1.96911e-05)
(2.97179e-05 1.90708e-05 -6.96778e-06)
(-7.61233e-07 4.12928e-05 7.7846e-06)
(-3.67853e-05 6.00734e-05 2.31663e-05)
(-7.54995e-05 7.4316e-05 3.69253e-05)
(-0.000112685 8.45255e-05 4.59448e-05)
(-0.000143742 9.33585e-05 4.75507e-05)
(-0.00016532 0.000104681 4.17876e-05)
(-0.000176503 0.000117902 3.0703e-05)
(-0.000177951 0.000128686 1.69424e-05)
(-0.000170798 0.000131565 3.3434e-06)
(-0.000157644 0.00012624 -9.55882e-06)
(-0.000141561 0.000115501 -2.12385e-05)
(-0.000125347 0.000101887 -3.0529e-05)
(-0.000110718 8.65032e-05 -3.63612e-05)
(-9.78635e-05 6.93109e-05 -3.81545e-05)
(-8.55463e-05 4.98975e-05 -3.57977e-05)
(-7.15972e-05 2.81629e-05 -2.95028e-05)
(-5.36146e-05 4.71395e-06 -1.96911e-05)
(-2.97179e-05 -1.90708e-05 -6.96778e-06)
(7.61232e-07 -4.12928e-05 7.7846e-06)
(3.67853e-05 -6.00734e-05 2.31663e-05)
(7.54995e-05 -7.4316e-05 3.69253e-05)
(0.000112685 -8.45255e-05 4.59447e-05)
(0.000143742 -9.33585e-05 4.75507e-05)
(0.00016532 -0.000104681 4.17876e-05)
(0.000128373 -0.000136357 1.75617e-05)
(0.000147751 -0.0001474 1.63661e-05)
(0.000161419 -0.000141075 1.1404e-05)
(0.000165987 -0.000121739 2.01897e-06)
(0.000160652 -9.58462e-05 -9.90907e-06)
(0.000147007 -6.86695e-05 -2.14598e-05)
(0.000127572 -4.35058e-05 -3.02421e-05)
(0.000104605 -2.20087e-05 -3.4868e-05)
(7.96868e-05 -4.78344e-06 -3.486e-05)
(5.38106e-05 8.14224e-06 -3.0479e-05)
(2.77165e-05 1.70972e-05 -2.26008e-05)
(2.22891e-06 2.2824e-05 -1.26151e-05)
(-2.15824e-05 2.67527e-05 -2.28224e-06)
(-4.25859e-05 3.12974e-05 6.53116e-06)
(-6.01683e-05 3.9824e-05 1.23531e-05)
(-7.50448e-05 5.58377e-05 1.49285e-05)
(-8.97623e-05 8.09087e-05 1.58374e-05)
(-0.000107611 0.000111157 1.6921e-05)
(-0.000128373 0.000136357 1.75617e-05)
(-0.000147751 0.0001474 1.63661e-05)
(-0.000161419 0.000141075 1.1404e-05)
(-0.000165987 0.000121739 2.01897e-06)
(-0.000160652 9.58462e-05 -9.90907e-06)
(-0.000147007 6.86695e-05 -2.14598e-05)
(-0.000127572 4.35058e-05 -3.02421e-05)
(-0.000104605 2.20087e-05 -3.4868e-05)
(-7.96868e-05 4.78344e-06 -3.486e-05)
(-5.38106e-05 -8.14224e-06 -3.0479e-05)
(-2.77165e-05 -1.70972e-05 -2.26008e-05)
(-2.22891e-06 -2.2824e-05 -1.26151e-05)
(2.15824e-05 -2.67527e-05 -2.28224e-06)
(4.25859e-05 -3.12974e-05 6.53116e-06)
(6.01683e-05 -3.9824e-05 1.23531e-05)
(7.50448e-05 -5.58377e-05 1.49285e-05)
(8.97623e-05 -8.09087e-05 1.58374e-05)
(0.000107611 -0.000111157 1.6921e-05)
(0.000589384 -0.000313117 0.000161542)
(0.000548435 -0.000353087 5.47597e-05)
(0.000480324 -0.000388343 -3.59954e-05)
(0.000410207 -0.000406382 -0.000104912)
(0.000352548 -0.000405981 -0.000153085)
(0.00031293 -0.000389064 -0.00018216)
(0.000290863 -0.000356594 -0.0001935)
(0.000281121 -0.000308004 -0.000188428)
(0.000274778 -0.00024249 -0.000168246)
(0.000260594 -0.000160649 -0.000133947)
(0.000226845 -6.57377e-05 -8.5997e-05)
(0.000163548 3.56755e-05 -2.4552e-05)
(6.50909e-05 0.000133836 4.95343e-05)
(-6.68696e-05 0.000217036 0.000132636)
(-0.000220958 0.000274467 0.000215272)
(-0.000375729 0.000300779 0.000279302)
(-0.000503553 0.000301311 0.000299403)
(-0.000578758 0.000295818 0.000255701)
(-0.000589384 0.000313117 0.000161542)
(-0.000548435 0.000353087 5.47597e-05)
(-0.000480324 0.000388343 -3.59954e-05)
(-0.000410207 0.000406382 -0.000104912)
(-0.000352548 0.000405981 -0.000153085)
(-0.00031293 0.000389064 -0.00018216)
(-0.000290863 0.000356594 -0.0001935)
(-0.000281121 0.000308004 -0.000188428)
(-0.000274778 0.00024249 -0.000168246)
(-0.000260594 0.000160649 -0.000133947)
(-0.000226845 6.57377e-05 -8.5997e-05)
(-0.000163548 -3.56755e-05 -2.4552e-05)
(-6.50909e-05 -0.000133836 4.95343e-05)
(6.68696e-05 -0.000217036 0.000132636)
(0.000220958 -0.000274467 0.000215272)
(0.000375729 -0.000300779 0.000279302)
(0.000503553 -0.000301311 0.000299403)
(0.000578758 -0.000295818 0.000255701)
(0.000509707 -0.000362321 0.000135838)
(0.000512056 -0.000394867 8.2842e-05)
(0.000492239 -0.000402997 2.69442e-05)
(0.000456877 -0.000387824 -2.67639e-05)
(0.000413454 -0.000356152 -7.31677e-05)
(0.000368854 -0.000314638 -0.000108123)
(0.000327188 -0.000266896 -0.000129007)
(0.000288758 -0.000213774 -0.00013469)
(0.000250313 -0.000154993 -0.000125219)
(0.000206282 -9.07864e-05 -0.00010144)
(0.000150557 -2.29023e-05 -6.47622e-05)
(7.84585e-05 4.52257e-05 -1.72003e-05)
(-1.14168e-05 0.000109124 3.823e-05)
(-0.000115849 0.00016466 9.67327e-05)
(-0.000226687 0.000209862 0.000150733)
(-0.000332178 0.000246495 0.000189383)
(-0.000419995 0.000280256 0.000200603)
(-0.000480105 0.000319442 0.000179113)
(-0.000509707 0.000362321 0.000135838)
(-0.000512056 0.000394867 8.2842e-05)
(-0.000492239 0.000402997 2.69442e-05)
(-0.000456877 0.000387824 -2.67639e-05)
(-0.000413454 0.000356152 -7.31677e-05)
(-0.000368854 0.000314638 -0.000108123)
(-0.000327188 0.000266897 -0.000129007)
(-0.000288758 0.000213774 -0.00013469)
(-0.000250313 0.000154993 -0.000125219)
(-0.000206282 9.07864e-05 -0.00010144)
(-0.000150557 2.29023e-05 -6.47622e-05)
(-7.84585e-05 -4.52257e-05 -1.72003e-05)
(1.14167e-05 -0.000109124 3.823e-05)
(0.000115849 -0.00016466 9.67327e-05)
(0.000226687 -0.000209862 0.000150733)
(0.000332178 -0.000246495 0.000189383)
(0.000419995 -0.000280256 0.000200603)
(0.000480105 -0.000319442 0.000179113)
(0.000413813 -0.000391827 0.000108974)
(0.000453884 -0.000424568 9.79058e-05)
(0.00047815 -0.000416656 7.28725e-05)
(0.00047805 -0.000377165 3.51098e-05)
(0.000453816 -0.000319407 -7.07215e-06)
(0.000411244 -0.00025482 -4.50327e-05)
(0.000356925 -0.000190644 -7.25481e-05)
(0.000295486 -0.000130444 -8.61039e-05)
(0.000229035 -7.56491e-05 -8.45e-05)
(0.000157944 -2.6888e-05 -6.84663e-05)
(8.22165e-05 1.54066e-05 -4.04158e-05)
(2.81039e-06 5.12255e-05 -4.25013e-06)
(-7.75471e-05 8.18413e-05 3.49237e-05)
(-0.000154466 0.000110791 7.13277e-05)
(-0.000223119 0.00014415 9.94329e-05)
(-0.000280355 0.000189181 0.00011537)
(-0.000327042 0.000250755 0.000119013)
(-0.000369389 0.000325796 0.000115394)
(-0.000413813 0.000391827 0.000108974)
(-0.000453884 0.000424568 9.79058e-05)
(-0.00047815 0.000416656 7.28725e-05)
(-0.00047805 0.000377165 3.51098e-05)
(-0.000453816 0.000319407 -7.07215e-06)
(-0.000411244 0.00025482 -4.50327e-05)
(-0.000356925 0.000190644 -7.25481e-05)
(-0.000295486 0.000130444 -8.61039e-05)
(-0.000229035 7.56491e-05 -8.45e-05)
(-0.000157944 2.6888e-05 -6.84663e-05)
(-8.22165e-05 -1.54066e-05 -4.04158e-05)
(-2.81039e-06 -5.12255e-05 -4.25013e-06)
(7.75471e-05 -8.18413e-05 3.49237e-05)
(0.000154466 -0.000110791 7.13277e-05)
(0.000223119 -0.00014415 9.94329e-05)
(0.000280355 -0.000189181 0.00011537)
(0.000327042 -0.000250755 0.000119013)
(0.000369389 -0.000325796 0.000115394)
(0.000906255 -0.000606764 0.00034615)
(0.000860927 -0.000646741 0.000152541)
(0.000770259 -0.000671774 -2.97936e-05)
(0.00067006 -0.000677096 -0.000179656)
(0.000582254 -0.000660858 -0.00029065)
(0.000516833 -0.000623731 -0.000362194)
(0.000474613 -0.000565885 -0.000396102)
(0.000449132 -0.000486152 -0.000395125)
(0.00042826 -0.000383284 -0.000362018)
(0.000396316 -0.000257971 -0.000298864)
(0.00033685 -0.000114527 -0.000206925)
(0.000236037 3.82972e-05 -8.7407e-05)
(8.65455e-05 0.000187818 5.65334e-05)
(-0.000108637 0.00031973 0.000216455)
(-0.000333675 0.000422448 0.000374531)
(-0.000560364 0.000492339 0.000500582)
(-0.00075246 0.000536495 0.000554453)
(-0.000873926 0.000569903 0.000501363)
(-0.000906255 0.000606764 0.00034615)
(-0.000860927 0.000646741 0.000152541)
(-0.00077026 0.000671774 -2.97936e-05)
(-0.00067006 0.000677096 -0.000179656)
(-0.000582254 0.000660858 -0.00029065)
(-0.000516833 0.000623731 -0.000362194)
(-0.000474613 0.000565885 -0.000396102)
(-0.000449132 0.000486152 -0.000395125)
(-0.00042826 0.000383284 -0.000362018)
(-0.000396316 0.000257971 -0.000298864)
(-0.00033685 0.000114527 -0.000206925)
(-0.000236037 -3.82972e-05 -8.74071e-05)
(-8.65455e-05 -0.000187818 5.65334e-05)
(0.000108637 -0.00031973 0.000216455)
(0.000333675 -0.000422448 0.000374531)
(0.000560364 -0.000492339 0.000500582)
(0.00075246 -0.000536495 0.000554453)
(0.000873926 -0.000569903 0.000501363)
(0.000797508 -0.000609296 0.000308562)
(0.000806153 -0.000651759 0.000198609)
(0.000778768 -0.000658951 7.71543e-05)
(0.000726283 -0.000633806 -3.68432e-05)
(0.000660755 -0.000584114 -0.000132481)
(0.000592259 -0.000518152 -0.000203115)
(0.000526584 -0.000440997 -0.000245049)
(0.000464069 -0.00035441 -0.000256966)
(0.000400023 -0.000258688 -0.000239311)
(0.000326508 -0.000154756 -0.000193753)
(0.000234938 -4.55063e-05 -0.000122957)
(0.000118966 6.39895e-05 -3.08628e-05)
(-2.28396e-05 0.000167471 7.65053e-05)
(-0.000185128 0.000259551 0.000189846)
(-0.000355518 0.000338329 0.000295457)
(-0.000516749 0.000407182 0.000375239)
(-0.000651397 0.000473418 0.000409591)
(-0.000746423 0.000542516 0.000384913)
(-0.000797508 0.000609296 0.000308562)
(-0.000806153 0.000651759 0.000198609)
(-0.000778768 0.000658951 7.71543e-05)
(-0.000726283 0.000633806 -3.68432e-05)
(-0.000660755 0.000584114 -0.000132481)
(-0.000592259 0.000518152 -0.000203115)
(-0.000526584 0.000440997 -0.000245049)
(-0.000464069 0.00035441 -0.000256966)
(-0.000400023 0.000258688 -0.000239311)
(-0.000326508 0.000154756 -0.000193753)
(-0.000234938 4.55063e-05 -0.000122957)
(-0.000118966 -6.39895e-05 -3.08628e-05)
(2.28396e-05 -0.000167471 7.65053e-05)
(0.000185128 -0.000259551 0.000189846)
(0.000355518 -0.000338329 0.000295457)
(0.000516748 -0.000407182 0.000375239)
(0.000651397 -0.000473418 0.000409591)
(0.000746423 -0.000542516 0.000384913)
(0.000662471 -0.000604401 0.000259893)
(0.000720393 -0.000655643 0.000223649)
(0.00075276 -0.000653439 0.000163406)
(0.000748975 -0.000605358 8.83099e-05)
(0.000710817 -0.00052717 1.15375e-05)
(0.00064652 -0.000434172 -5.47545e-05)
(0.000564921 -0.000336992 -0.000101507)
(0.000471986 -0.000241505 -0.000123319)
(0.000370126 -0.000150663 -0.000118297)
(0.000259398 -6.62855e-05 -8.77169e-05)
(0.000139535 1.01129e-05 -3.57105e-05)
(1.19021e-05 7.76347e-05 3.10238e-05)
(-0.000119292 0.000137132 0.000103722)
(-0.000247051 0.000192434 0.000172561)
(-0.000363103 0.000250588 0.000228411)
(-0.000460613 0.000320098 0.000265108)
(-0.000537701 0.000406385 0.00028093)
(-0.000600257 0.000508674 0.000277428)
(-0.000662471 0.000604401 0.000259893)
(-0.000720393 0.000655643 0.000223649)
(-0.00075276 0.000653439 0.000163406)
(-0.000748975 0.000605358 8.83099e-05)
(-0.000710817 0.00052717 1.15375e-05)
(-0.00064652 0.000434172 -5.47545e-05)
(-0.000564921 0.000336992 -0.000101507)
(-0.000471986 0.000241505 -0.000123319)
(-0.000370126 0.000150663 -0.000118297)
(-0.000259398 6.62855e-05 -8.77169e-05)
(-0.000139535 -1.01129e-05 -3.57105e-05)
(-1.19021e-05 -7.76347e-05 3.10238e-05)
(0.000119292 -0.000137132 0.000103722)
(0.000247051 -0.000192434 0.000172561)
(0.000363103 -0.000250588 0.000228411)
(0.000460613 -0.000320098 0.000265108)
(0.000537701 -0.000406385 0.00028093)
(0.000600257 -0.000508674 0.000277428)
(0.00113523 -0.000929844 0.000544603)
(0.00109891 -0.000961883 0.000276556)
(0.00100492 -0.000969212 2.94135e-06)
(0.000890563 -0.000955093 -0.00023743)
(0.000782955 -0.000918907 -0.000424374)
(0.000696537 -0.000859955 -0.000550772)
(0.000634264 -0.000777071 -0.000617081)
(0.00058969 -0.000668319 -0.000627009)
(0.000549255 -0.000532171 -0.000584737)
(0.000495094 -0.000369453 -0.000493586)
(0.000408529 -0.000185066 -0.000356071)
(0.000274262 1.12897e-05 -0.000175434)
(8.49792e-05 0.000206024 4.13115e-05)
(-0.000154491 0.000384739 0.000279217)
(-0.000425064 0.000537232 0.000511398)
(-0.000695059 0.000662338 0.000697674)
(-0.00092573 0.000768203 0.000788658)
(-0.00107947 0.000862304 0.000738922)
(-0.00113523 0.000929844 0.000544603)
(-0.00109891 0.000961883 0.000276556)
(-0.00100492 0.000969212 2.94136e-06)
(-0.000890563 0.000955093 -0.00023743)
(-0.000782955 0.000918907 -0.000424374)
(-0.000696537 0.000859955 -0.000550772)
(-0.000634264 0.000777071 -0.000617081)
(-0.00058969 0.000668319 -0.000627009)
(-0.000549255 0.000532171 -0.000584737)
(-0.000495094 0.000369453 -0.000493586)
(-0.000408529 0.000185066 -0.000356071)
(-0.000274262 -1.12897e-05 -0.000175434)
(-8.49793e-05 -0.000206024 4.13115e-05)
(0.000154491 -0.000384739 0.000279217)
(0.000425064 -0.000537232 0.000511398)
(0.000695059 -0.000662338 0.000697674)
(0.00092573 -0.000768203 0.000788658)
(0.00107947 -0.000862304 0.000738922)
(0.00102204 -0.000848074 0.000485524)
(0.00103769 -0.000896196 0.000321496)
(0.00100687 -0.000899688 0.000136667)
(0.000943862 -0.000865257 -3.94872e-05)
(0.000863366 -0.00080135 -0.000188413)
(0.000777432 -0.000716025 -0.000298986)
(0.000692813 -0.000614485 -0.000365567)
(0.000609792 -0.000498976 -0.000386405)
(0.00052283 -0.000370489 -0.000362318)
(0.000422751 -0.000230816 -0.00029586)
(0.000299855 -8.38924e-05 -0.000191169)
(0.000147341 6.40823e-05 -5.45336e-05)
(-3.55965e-05 0.000205876 0.000104449)
(-0.000241765 0.000335602 0.00027153)
(-0.000455991 0.000451436 0.000427062)
(-0.000657942 0.000556987 0.000547098)
(-0.000827787 0.000659006 0.000607352)
(-0.000951732 0.000760292 0.000588646)
(-0.00102204 0.000848074 0.000485524)
(-0.00103769 0.000896196 0.000321496)
(-0.00100687 0.000899688 0.000136667)
(-0.000943862 0.000865257 -3.94872e-05)
(-0.000863366 0.00080135 -0.000188413)
(-0.000777432 0.000716025 -0.000298986)
(-0.000692813 0.000614485 -0.000365567)
(-0.000609792 0.000498976 -0.000386405)
(-0.00052283 0.000370489 -0.000362318)
(-0.000422751 0.000230816 -0.00029586)
(-0.000299855 8.38924e-05 -0.000191169)
(-0.000147341 -6.40823e-05 -5.45336e-05)
(3.55965e-05 -0.000205876 0.000104449)
(0.000241765 -0.000335602 0.00027153)
(0.000455991 -0.000451436 0.000427062)
(0.000657942 -0.000556987 0.000547098)
(0.000827787 -0.000659006 0.000607352)
(0.000951732 -0.000760292 0.000588646)
(0.000888429 -0.000776742 0.000411625)
(0.000946585 -0.000839414 0.000345682)
(0.000974182 -0.000843237 0.000250482)
(0.000962441 -0.000793797 0.000141323)
(0.00091306 -0.000706021 3.37706e-05)
(0.000833974 -0.000595697 -5.76327e-05)
(0.000733921 -0.000474787 -0.000121369)
(0.000618767 -0.000350734 -0.000150239)
(0.000490651 -0.000228014 -0.000141663)
(0.000349304 -0.00010989 -9.74459e-05)
(0.000194376 8.0013e-07 -2.33947e-05)
(2.76556e-05 0.000102051 7.11537e-05)
(-0.000145613 0.000193878 0.000174168)
(-0.000316855 0.000279413 0.000272448)
(-0.000475806 0.000364831 0.000353953)
(-0.000613378 0.000457314 0.000410452)
(-0.000725268 0.000561064 0.000439001)
(-0.000814556 0.000672994 0.000440211)
(-0.000888429 0.000776742 0.000411625)
(-0.000946585 0.000839414 0.000345682)
(-0.000974182 0.000843237 0.000250482)
(-0.000962441 0.000793797 0.000141323)
(-0.00091306 0.000706021 3.37706e-05)
(-0.000833974 0.000595697 -5.76327e-05)
(-0.000733921 0.000474787 -0.000121369)
(-0.000618767 0.000350734 -0.000150239)
(-0.000490651 0.000228014 -0.000141663)
(-0.000349304 0.00010989 -9.74459e-05)
(-0.000194376 -8.00125e-07 -2.33947e-05)
(-2.76556e-05 -0.000102051 7.11537e-05)
(0.000145613 -0.000193878 0.000174168)
(0.000316855 -0.000279413 0.000272448)
(0.000475806 -0.000364831 0.000353953)
(0.000613378 -0.000457314 0.000410452)
(0.000725268 -0.000561064 0.000439001)
(0.000814556 -0.000672994 0.000440211)
(0.00127059 -0.00120259 0.00069642)
(0.00125499 -0.00125223 0.000390005)
(0.00117224 -0.00125968 4.66927e-05)
(0.00105813 -0.00123487 -0.000273568)
(0.000942221 -0.00118232 -0.000533816)
(0.000842013 -0.00110322 -0.000717339)
(0.000762506 -0.000996792 -0.000820807)
(0.000698107 -0.000861276 -0.000847391)
(0.000635408 -0.000695428 -0.000801961)
(0.000556505 -0.000500402 -0.000688879)
(0.000442933 -0.000281321 -0.000512197)
(0.000280227 -4.78178e-05 -0.000277928)
(6.27302e-05 0.000187172 2.04357e-06)
(-0.000202485 0.00041074 0.000305415)
(-0.000494366 0.000614538 0.00059613)
(-0.000780675 0.000797442 0.000825027)
(-0.00102448 0.000961932 0.000937899)
(-0.00119383 0.00110276 0.000894794)
(-0.00127059 0.00120259 0.00069642)
(-0.00125499 0.00125223 0.000390005)
(-0.00117224 0.00125968 4.66927e-05)
(-0.00105813 0.00123487 -0.000273568)
(-0.000942221 0.00118232 -0.000533816)
(-0.000842013 0.00110322 -0.000717339)
(-0.000762506 0.000996792 -0.000820807)
(-0.000698107 0.000861276 -0.000847391)
(-0.000635408 0.000695428 -0.000801961)
(-0.000556505 0.000500402 -0.000688879)
(-0.000442933 0.000281321 -0.000512197)
(-0.000280227 4.78178e-05 -0.000277928)
(-6.27302e-05 -0.000187172 2.04356e-06)
(0.000202485 -0.00041074 0.000305415)
(0.000494366 -0.000614538 0.00059613)
(0.000780675 -0.000797442 0.000825027)
(0.00102448 -0.000961932 0.000937899)
(0.00119383 -0.00110276 0.000894794)
(0.00116927 -0.00105406 0.000600952)
(0.00119249 -0.00111029 0.000410866)
(0.00116391 -0.0011171 0.000183283)
(0.00109785 -0.00108014 -4.29608e-05)
(0.00101028 -0.0010083 -0.00023898)
(0.000914131 -0.000909602 -0.000387164)
(0.000816523 -0.00078933 -0.000478653)
(0.000717686 -0.000650196 -0.000510502)
(0.000611855 -0.000493958 -0.000483476)
(0.000489703 -0.000323292 -0.000400837)
(0.000341696 -0.000142962 -0.000268199)
(0.000161691 4.02143e-05 -9.43213e-05)
(-4.99337e-05 0.000218731 0.000107541)
(-0.000284496 0.000386774 0.000318384)
(-0.000525553 0.000542557 0.000513194)
(-0.000752259 0.000688563 0.000662639)
(-0.000944443 0.000827563 0.000737462)
(-0.00108648 0.000954688 0.000716869)
(-0.00116927 0.00105406 0.000600952)
(-0.00119249 0.00111029 0.000410866)
(-0.00116391 0.0011171 0.000183283)
(-0.00109785 0.00108014 -4.29608e-05)
(-0.00101028 0.0010083 -0.00023898)
(-0.000914131 0.000909602 -0.000387164)
(-0.000816523 0.00078933 -0.000478653)
(-0.000717686 0.000650196 -0.000510502)
(-0.000611855 0.000493958 -0.000483476)
(-0.000489703 0.000323292 -0.000400837)
(-0.000341696 0.000142962 -0.000268199)
(-0.000161691 -4.02143e-05 -9.43213e-05)
(4.99337e-05 -0.000218731 0.000107541)
(0.000284496 -0.000386774 0.000318384)
(0.000525553 -0.000542557 0.000513194)
(0.000752259 -0.000688563 0.000662639)
(0.000944443 -0.000827563 0.000737462)
(0.00108648 -0.000954688 0.000716869)
(0.0010624 -0.000924067 0.000497735)
(0.00111292 -0.00098328 0.000415957)
(0.00112964 -0.000989968 0.000302391)
(0.00110862 -0.000943584 0.000171707)
(0.00105118 -0.000854631 4.24989e-05)
(0.000963617 -0.000736743 -6.75418e-05)
(0.000853219 -0.000601472 -0.00014432)
(0.000724899 -0.000456864 -0.000178844)
(0.000580204 -0.000308485 -0.000167765)
(0.000418579 -0.000160867 -0.000113251)
(0.000239712 -1.81139e-05 -2.25051e-05)
(4.57509e-05 0.000116603 9.29849e-05)
(-0.000157488 0.000242181 0.000218708)
(-0.000360783 0.000360414 0.00033913)
(-0.000553177 0.000475573 0.000440213)
(-0.000724579 0.000592217 0.000511489)
(-0.00086819 0.000711525 0.000546465)
(-0.000980998 0.000827235 0.000541822)
(-0.0010624 0.000924067 0.000497735)
(-0.00111292 0.00098328 0.000415957)
(-0.00112964 0.000989968 0.000302391)
(-0.00110862 0.000943584 0.000171707)
(-0.00105118 0.000854631 4.24989e-05)
(-0.000963617 0.000736743 -6.75418e-05)
(-0.000853219 0.000601472 -0.00014432)
(-0.000724899 0.000456864 -0.000178844)
(-0.000580204 0.000308485 -0.000167765)
(-0.000418579 0.000160867 -0.000113251)
(-0.000239712 1.81139e-05 -2.25051e-05)
(-4.57509e-05 -0.000116603 9.29849e-05)
(0.000157488 -0.000242181 0.000218708)
(0.000360783 -0.000360414 0.00033913)
(0.000553177 -0.000475573 0.000440213)
(0.000724579 -0.000592217 0.000511489)
(0.00086819 -0.000711525 0.000546465)
(0.000980998 -0.000827235 0.000541822)
(0.0013211 -0.00141884 0.000759435)
(0.00132661 -0.00149807 0.000445052)
(0.00126448 -0.0015229 7.0432e-05)
(0.00116287 -0.00150179 -0.000299164)
(0.00104975 -0.00144233 -0.00061375)
(0.000943893 -0.00134886 -0.000845249)
(0.000852006 -0.00122284 -0.000983691)
(0.000769913 -0.00106406 -0.00102948)
(0.000685562 -0.000872418 -0.000986874)
(0.000582697 -0.00064973 -0.000860793)
(0.000444989 -0.000401169 -0.000656911)
(0.000260617 -0.000135693 -0.000384432)
(2.67898e-05 0.000135188 -6.04907e-05)
(-0.000247118 0.000400363 0.000285539)
(-0.000539563 0.000652295 0.000610411)
(-0.000820847 0.000887367 0.000861018)
(-0.00105999 0.00110135 0.000985846)
(-0.00123183 0.00128349 0.000951872)
(-0.0013211 0.00141884 0.000759435)
(-0.00132661 0.00149807 0.000445052)
(-0.00126448 0.0015229 7.04321e-05)
(-0.00116287 0.00150179 -0.000299164)
(-0.00104975 0.00144233 -0.00061375)
(-0.000943893 0.00134886 -0.000845249)
(-0.000852006 0.00122284 -0.000983691)
(-0.000769913 0.00106406 -0.00102948)
(-0.000685562 0.000872418 -0.000986874)
(-0.000582697 0.00064973 -0.000860793)
(-0.000444989 0.000401169 -0.000656911)
(-0.000260617 0.000135693 -0.000384432)
(-2.67898e-05 -0.000135188 -6.04907e-05)
(0.000247118 -0.000400363 0.000285539)
(0.000539563 -0.000652295 0.000610411)
(0.000820847 -0.000887367 0.000861018)
(0.00105999 -0.00110135 0.000985846)
(0.00123183 -0.00128349 0.000951872)
(0.00123636 -0.00122221 0.000643816)
(0.00126758 -0.00129072 0.000443596)
(0.00124587 -0.00130756 0.000196093)
(0.00118401 -0.00127586 -5.8986e-05)
(0.00109707 -0.00120327 -0.000286951)
(0.000997764 -0.0010976 -0.000463876)
(0.00089316 -0.00096449 -0.000576568)
(0.000783638 -0.000807409 -0.000619838)
(0.000663853 -0.000629011 -0.000593691)
(0.000525287 -0.000432798 -0.000501697)
(0.000359618 -0.00022409 -0.000350737)
(0.000162214 -9.88241e-06 -0.000151862)
(-6.50141e-05 0.000202478 7.83396e-05)
(-0.000312301 0.000407305 0.000316772)
(-0.000563073 0.000602014 0.000534316)
(-0.000797397 0.000786191 0.000698799)
(-0.000996402 0.000957502 0.000780958)
(-0.00114556 0.0011073 0.000762637)
(-0.00123636 0.00122221 0.000643816)
(-0.00126758 0.00129072 0.000443596)
(-0.00124587 0.00130756 0.000196093)
(-0.00118401 0.00127586 -5.8986e-05)
(-0.00109707 0.00120327 -0.000286951)
(-0.000997764 0.0010976 -0.000463876)
(-0.00089316 0.00096449 -0.000576568)
(-0.000783638 0.000807409 -0.000619838)
(-0.000663853 0.000629011 -0.000593691)
(-0.000525287 0.000432798 -0.000501697)
(-0.000359618 0.00022409 -0.000350737)
(-0.000162214 9.88242e-06 -0.000151862)
(6.50141e-05 -0.000202478 7.83396e-05)
(0.000312301 -0.000407305 0.000316772)
(0.000563073 -0.000602014 0.000534316)
(0.000797397 -0.000786191 0.000698799)
(0.000996402 -0.000957502 0.000780958)
(0.00114556 -0.0011073 0.000762637)
(0.00115554 -0.00104564 0.000523528)
(0.00120294 -0.00110015 0.000431357)
(0.00121271 -0.0011076 0.000307778)
(0.00118568 -0.00106571 0.000166831)
(0.0011244 -0.000980402 2.67315e-05)
(0.0010339 -0.000861778 -9.36745e-05)
(0.00091984 -0.000719771 -0.000178459)
(0.000785991 -0.000562202 -0.000217013)
(0.00063338 -0.000395158 -0.00020512)
(0.000461385 -0.000224018 -0.000145008)
(0.00026991 -5.38366e-05 -4.47703e-05)
(6.14098e-05 0.000111215 8.27099e-05)
(-0.000158103 0.000268827 0.000221424)
(-0.000379375 0.000419029 0.000354508)
(-0.000591285 0.000563422 0.000466608)
(-0.000782715 0.000703031 0.000545583)
(-0.000944252 0.000835533 0.000583222)
(-0.00106942 0.0009535 0.000575642)
(-0.00115554 0.00104564 0.000523528)
(-0.00120294 0.00110015 0.000431357)
(-0.00121271 0.0011076 0.000307778)
(-0.00118568 0.00106571 0.000166831)
(-0.0011244 0.000980402 2.67315e-05)
(-0.0010339 0.000861778 -9.36745e-05)
(-0.00091984 0.000719771 -0.000178459)
(-0.000785991 0.000562202 -0.000217013)
(-0.00063338 0.000395158 -0.00020512)
(-0.000461385 0.000224018 -0.000145008)
(-0.00026991 5.38366e-05 -4.47703e-05)
(-6.14098e-05 -0.000111215 8.27099e-05)
(0.000158103 -0.000268827 0.000221424)
(0.000379375 -0.000419029 0.000354508)
(0.000591285 -0.000563422 0.000466608)
(0.000782715 -0.000703031 0.000545583)
(0.000944252 -0.000835533 0.000583222)
(0.00106942 -0.0009535 0.000575642)
(0.00129989 -0.00157963 0.00072929)
(0.00132198 -0.00169294 0.000427498)
(0.00128231 -0.00174469 5.41804e-05)
(0.00120051 -0.00173909 -0.000329837)
(0.00109909 -0.00168328 -0.00067069)
(0.000995431 -0.00158364 -0.000932132)
(0.000897098 -0.0014443 -0.00109671)
(0.000801668 -0.00126753 -0.00116011)
(0.000699347 -0.00105503 -0.00112454)
(0.000576702 -0.000809642 -0.000994792)
(0.000420811 -0.000536644 -0.000778098)
(0.000223578 -0.00024421 -0.000486916)
(-1.44471e-05 5.75769e-05 -0.000143146)
(-0.000282144 0.000358911 0.000218703)
(-0.000559188 0.000652057 0.000552233)
(-0.000820633 0.000930667 0.000805644)
(-0.00104256 0.00118655 0.000933176)
(-0.00120615 0.00140747 0.000907634)
(-0.00129989 0.00157963 0.00072929)
(-0.00132198 0.00169294 0.000427498)
(-0.00128231 0.00174469 5.41804e-05)
(-0.00120051 0.00173909 -0.000329837)
(-0.00109909 0.00168328 -0.00067069)
(-0.000995431 0.00158364 -0.000932132)
(-0.000897098 0.0014443 -0.00109671)
(-0.000801668 0.00126753 -0.00116011)
(-0.000699347 0.00105503 -0.00112454)
(-0.000576702 0.000809642 -0.000994792)
(-0.000420811 0.000536644 -0.000778098)
(-0.000223578 0.00024421 -0.000486916)
(1.44471e-05 -5.75769e-05 -0.000143146)
(0.000282144 -0.000358911 0.000218703)
(0.000559188 -0.000652057 0.000552233)
(0.000820633 -0.000930667 0.000805644)
(0.00104256 -0.00118655 0.000933176)
(0.00120615 -0.00140747 0.000907634)
(0.00122874 -0.00134876 0.000612018)
(0.00126723 -0.00143506 0.000415965)
(0.00125554 -0.00146766 0.000167941)
(0.00120359 -0.00144769 -9.4712e-05)
(0.00112393 -0.00138094 -0.000336209)
(0.00102779 -0.00127456 -0.000528952)
(0.000921858 -0.00113464 -0.000655809)
(0.000806908 -0.000965602 -0.000708776)
(0.000678655 -0.000771109 -0.00068645)
(0.000530177 -0.000555409 -0.000592232)
(0.000355123 -0.000324146 -0.00043391)
(0.000150895 -8.42137e-05 -0.000224388)
(-7.89931e-05 0.000157313 1.72148e-05)
(-0.000324212 0.000394585 0.000265199)
(-0.000569104 0.000623587 0.000488801)
(-0.000795991 0.000840865 0.000656181)
(-0.000988804 0.00104081 0.000740398)
(-0.00113544 0.00121398 0.0007257)
(-0.00122874 0.00134876 0.000612018)
(-0.00126723 0.00143506 0.000415965)
(-0.00125554 0.00146766 0.000167941)
(-0.00120359 0.00144769 -9.4712e-05)
(-0.00112393 0.00138094 -0.000336209)
(-0.00102779 0.00127456 -0.000528952)
(-0.000921858 0.00113464 -0.000655809)
(-0.000806908 0.000965602 -0.000708776)
(-0.000678655 0.000771109 -0.00068645)
(-0.000530177 0.000555409 -0.000592232)
(-0.000355123 0.000324146 -0.00043391)
(-0.000150895 8.42137e-05 -0.000224388)
(7.89931e-05 -0.000157313 1.72147e-05)
(0.000324212 -0.000394585 0.000265199)
(0.000569104 -0.000623587 0.000488801)
(0.000795991 -0.000840865 0.000656181)
(0.000988804 -0.00104081 0.000740398)
(0.00113544 -0.00121398 0.0007257)
(0.00116947 -0.00113796 0.000490603)
(0.00121655 -0.00119361 0.000395719)
(0.00122492 -0.00120453 0.000269834)
(0.00119728 -0.00116884 0.000127147)
(0.00113705 -0.00108997 -1.4916e-05)
(0.00104857 -0.000975029 -0.000137939)
(0.000936247 -0.000832007 -0.000225572)
(0.000802999 -0.000668033 -0.000266348)
(0.000649681 -0.000489254 -0.000255348)
(0.000475974 -0.000301437 -0.000194582)
(0.000282249 -0.00011016 -9.24016e-05)
(7.12811e-05 7.97088e-05 3.78341e-05)
(-0.000150935 0.00026473 0.000179714)
(-0.000375449 0.000443029 0.000316126)
(-0.000591377 0.000613413 0.000431444)
(-0.000787354 0.000773756 0.000513049)
(-0.000953215 0.000919582 0.000552185)
(-0.0010817 0.00104383 0.000544533)
(-0.00116947 0.00113796 0.000490603)
(-0.00121655 0.00119361 0.00039572)
(-0.00122492 0.00120453 0.000269834)
(-0.00119728 0.00116884 0.000127147)
(-0.00113705 0.00108997 -1.4916e-05)
(-0.00104857 0.000975029 -0.000137939)
(-0.000936247 0.000832007 -0.000225572)
(-0.000802999 0.000668033 -0.000266348)
(-0.000649681 0.000489254 -0.000255348)
(-0.000475974 0.000301437 -0.000194582)
(-0.000282249 0.00011016 -9.24016e-05)