/*--------------------------------*- C++ -*----------------------------------*\
| =========                 |                                                 |
| \\      /  F ield         | OpenFOAM: The Open Source CFD Toolbox           |
|  \\    /   O peration     | Version:  2312                                  |
|   \\  /    A nd           | Website:  www.openfoam.com                      |
|    \\/     M anipulation  |                                                 |
\*---------------------------------------------------------------------------*/
FoamFile
{
    version     2.0;
    format      ascii;
    arch        "LSB;label=32;scalar=64";
    class       volVectorField;
    location    "0.2";
    object      D_0_0;
}
// * * * * * * * * * * * * * * * * * * * * * * * * * * * * * * * * * * * * * //

dimensions      [0 1 0 0 0 0 0];

internalField   nonuniform List<vector> 
1620
(
(-0.000144085 0.000254837 -4.11445e-05)
(-0.000186148 0.000225945 -4.11446e-05)
(-0.000222555 0.000190188 -4.11446e-05)
(-0.0002522 0.000148653 -4.11446e-05)
(-0.000274182 0.0001026 -4.11446e-05)
(-0.000287833 5.34303e-05 -4.11447e-05)
(-0.000292738 2.63684e-06 -4.11445e-05)
(-0.000288748 -4.82365e-05 -4.11445e-05)
(-0.000275985 -9.76444e-05 -4.11445e-05)
(-0.000254837 -0.000144085 -4.11445e-05)
(-0.000225945 -0.000186148 -4.11446e-05)
(-0.000190188 -0.000222555 -4.11446e-05)
(-0.000148653 -0.0002522 -4.11446e-05)
(-0.0001026 -0.000274182 -4.11446e-05)
(-5.34303e-05 -0.000287833 -4.11447e-05)
(-2.63683e-06 -0.000292738 -4.11445e-05)
(4.82365e-05 -0.000288748 -4.11445e-05)
(9.76444e-05 -0.000275985 -4.11445e-05)
(0.000144085 -0.000254837 -4.11446e-05)
(0.000186148 -0.000225945 -4.11446e-05)
(0.000222555 -0.000190188 -4.11446e-05)
(0.0002522 -0.000148653 -4.11446e-05)
(0.000274182 -0.0001026 -4.11446e-05)
(0.000287833 -5.34303e-05 -4.11447e-05)
(0.000292738 -2.63684e-06 -4.11445e-05)
(0.000288748 4.82365e-05 -4.11445e-05)
(0.000275985 9.76444e-05 -4.11445e-05)
(0.000254837 0.000144085 -4.11445e-05)
(0.000225945 0.000186148 -4.11446e-05)
(0.000190188 0.000222555 -4.11446e-05)
(0.000148653 0.0002522 -4.11446e-05)
(0.0001026 0.000274182 -4.11446e-05)
(5.34303e-05 0.000287833 -4.11447e-05)
(2.63685e-06 0.000292738 -4.11445e-05)
(-4.82365e-05 0.000288748 -4.11445e-05)
(-9.76444e-05 0.000275985 -4.11445e-05)
(-0.000115783 0.000255602 -2.95558e-05)
(-0.000158409 0.000231614 -2.95559e-05)
(-0.000196221 0.000200587 -2.95559e-05)
(-0.000228072 0.000163467 -2.95558e-05)
(-0.000252993 0.000121379 -2.95559e-05)
(-0.000270227 7.5603e-05 -2.95559e-05)
(-0.000279249 2.75301e-05 -2.95558e-05)
(-0.000279788 -2.13793e-05 -2.95558e-05)
(-0.000271825 -6.96392e-05 -2.95558e-05)
(-0.000255602 -0.000115783 -2.95558e-05)
(-0.000231614 -0.000158409 -2.95559e-05)
(-0.000200587 -0.000196221 -2.95559e-05)
(-0.000163467 -0.000228072 -2.95558e-05)
(-0.000121379 -0.000252993 -2.95559e-05)
(-7.56029e-05 -0.000270227 -2.95559e-05)
(-2.75301e-05 -0.000279249 -2.95558e-05)
(2.13793e-05 -0.000279788 -2.95558e-05)
(6.96392e-05 -0.000271825 -2.95558e-05)
(0.000115783 -0.000255602 -2.95558e-05)
(0.000158409 -0.000231614 -2.95559e-05)
(0.000196221 -0.000200587 -2.95559e-05)
(0.000228072 -0.000163467 -2.95558e-05)
(0.000252993 -0.000121379 -2.95559e-05)
(0.000270227 -7.5603e-05 -2.95559e-05)
(0.000279249 -2.75301e-05 -2.95558e-05)
(0.000279788 2.13793e-05 -2.95558e-05)
(0.000271825 6.96392e-05 -2.95558e-05)
(0.000255602 0.000115783 -2.95558e-05)
(0.000231614 0.000158409 -2.95559e-05)
(0.000200587 0.000196221 -2.95559e-05)
(0.000163467 0.000228072 -2.95558e-05)
(0.000121379 0.000252993 -2.95559e-05)
(7.5603e-05 0.000270227 -2.95559e-05)
(2.75301e-05 0.000279249 -2.95558e-05)
(-2.13793e-05 0.000279788 -2.95558e-05)
(-6.96392e-05 0.000271825 -2.95558e-05)
(-9.49645e-05 0.000255032 -1.82923e-05)
(-0.000137808 0.000234667 -1.82923e-05)
(-0.000176464 0.000207172 -1.82924e-05)
(-0.000209758 0.000173382 -1.82923e-05)
(-0.000236679 0.000134324 -1.82924e-05)
(-0.000256408 9.11846e-05 -1.82923e-05)
(-0.000268347 4.52745e-05 -1.82924e-05)
(-0.000272132 -2.01132e-06 -1.82924e-05)
(-0.000267648 -4.92359e-05 -1.82923e-05)
(-0.000255032 -9.49645e-05 -1.82923e-05)
(-0.000234667 -0.000137808 -1.82923e-05)
(-0.000207172 -0.000176464 -1.82924e-05)
(-0.000173382 -0.000209758 -1.82923e-05)
(-0.000134324 -0.000236679 -1.82924e-05)
(-9.11846e-05 -0.000256408 -1.82923e-05)
(-4.52744e-05 -0.000268347 -1.82924e-05)
(2.01133e-06 -0.000272132 -1.82924e-05)
(4.92359e-05 -0.000267648 -1.82924e-05)
(9.49645e-05 -0.000255032 -1.82923e-05)
(0.000137808 -0.000234667 -1.82923e-05)
(0.000176464 -0.000207172 -1.82924e-05)
(0.000209758 -0.000173382 -1.82923e-05)
(0.000236679 -0.000134324 -1.82924e-05)
(0.000256408 -9.11846e-05 -1.82923e-05)
(0.000268347 -4.52744e-05 -1.82924e-05)
(0.000272132 2.01133e-06 -1.82924e-05)
(0.000267648 4.92359e-05 -1.82923e-05)
(0.000255032 9.49645e-05 -1.82923e-05)
(0.000234667 0.000137808 -1.82923e-05)
(0.000207172 0.000176464 -1.82924e-05)
(0.000173382 0.000209758 -1.82923e-05)
(0.000134324 0.000236679 -1.82924e-05)
(9.11846e-05 0.000256408 -1.82923e-05)
(4.52745e-05 0.000268347 -1.82924e-05)
(-2.01132e-06 0.000272132 -1.82924e-05)
(-4.92359e-05 0.000267648 -1.82923e-05)
(-0.000372143 0.00076583 -0.000141142)
(-0.000499475 0.000689573 -0.000141143)
(-0.00061163 0.000592364 -0.000141143)
(-0.0007052 0.000477156 -0.000141142)
(-0.000777344 0.000347451 -0.000141142)
(-0.000825869 0.000207188 -0.000141142)
(-0.0008493 6.06294e-05 -0.000141142)
(-0.000846925 -8.77711e-05 -0.000141142)
(-0.000818817 -0.000233505 -0.000141142)
(-0.000765829 -0.000372143 -0.000141142)
(-0.000689573 -0.000499475 -0.000141143)
(-0.000592364 -0.00061163 -0.000141143)
(-0.000477156 -0.0007052 -0.000141142)
(-0.000347451 -0.000777344 -0.000141142)
(-0.000207188 -0.000825869 -0.000141142)
(-6.06294e-05 -0.0008493 -0.000141142)
(8.77711e-05 -0.000846925 -0.000141142)
(0.000233505 -0.000818817 -0.000141142)
(0.000372143 -0.000765829 -0.000141142)
(0.000499475 -0.000689573 -0.000141143)
(0.00061163 -0.000592364 -0.000141143)
(0.0007052 -0.000477156 -0.000141142)
(0.000777344 -0.000347451 -0.000141142)
(0.000825869 -0.000207188 -0.000141142)
(0.0008493 -6.06294e-05 -0.000141142)
(0.000846925 8.77711e-05 -0.000141142)
(0.000818817 0.000233505 -0.000141142)
(0.00076583 0.000372143 -0.000141142)
(0.000689573 0.000499475 -0.000141143)
(0.000592364 0.00061163 -0.000141143)
(0.000477156 0.0007052 -0.000141142)
(0.000347451 0.000777344 -0.000141142)
(0.000207188 0.000825869 -0.000141142)
(6.06294e-05 0.0008493 -0.000141142)
(-8.77711e-05 0.000846925 -0.000141142)
(-0.000233505 0.000818817 -0.000141142)
(-0.000345491 0.000759888 -0.000112247)
(-0.000472195 0.000688349 -0.000112247)
(-0.000584552 0.000595896 -0.000112247)
(-0.000679148 0.000485337 -0.000112247)
(-0.000753108 0.000360031 -0.000112247)
(-0.000804186 0.000223785 -0.000112247)
(-0.000830828 8.07399e-05 -0.000112247)
(-0.000832226 -6.47586e-05 -0.000112247)
(-0.000808337 -0.000208289 -0.000112247)
(-0.000759888 -0.000345491 -0.000112247)
(-0.000688349 -0.000472195 -0.000112247)
(-0.000595896 -0.000584552 -0.000112247)
(-0.000485337 -0.000679148 -0.000112247)
(-0.000360031 -0.000753108 -0.000112247)
(-0.000223785 -0.000804186 -0.000112247)
(-8.07399e-05 -0.000830828 -0.000112247)
(6.47586e-05 -0.000832226 -0.000112247)
(0.000208289 -0.000808337 -0.000112247)
(0.000345491 -0.000759888 -0.000112247)
(0.000472195 -0.000688349 -0.000112247)
(0.000584552 -0.000595896 -0.000112247)
(0.000679148 -0.000485337 -0.000112247)
(0.000753108 -0.000360031 -0.000112247)
(0.000804186 -0.000223785 -0.000112247)
(0.000830828 -8.07399e-05 -0.000112247)
(0.000832226 6.47586e-05 -0.000112247)
(0.000808337 0.000208289 -0.000112247)
(0.000759888 0.000345491 -0.000112247)
(0.000688349 0.000472195 -0.000112247)
(0.000595896 0.000584552 -0.000112247)
(0.000485337 0.000679148 -0.000112247)
(0.000360031 0.000753108 -0.000112247)
(0.000223785 0.000804186 -0.000112247)
(8.07399e-05 0.000830828 -0.000112247)
(-6.47585e-05 0.000832226 -0.000112247)
(-0.000208289 0.000808337 -0.000112247)
(-0.000328506 0.000751727 -8.41647e-05)
(-0.000454051 0.000683262 -8.41646e-05)
(-0.0005658 0.000594036 -8.41647e-05)
(-0.000660357 0.000486761 -8.41647e-05)
(-0.00073485 0.000364696 -8.41647e-05)
(-0.000787015 0.00023155 -8.41647e-05)
(-0.000815267 9.13688e-05 -8.41647e-05)
(-0.000818747 -5.15887e-05 -8.41647e-05)
(-0.000797351 -0.000192979 -8.41648e-05)
(-0.000751727 -0.000328506 -8.41648e-05)
(-0.000683262 -0.000454051 -8.41646e-05)
(-0.000594036 -0.0005658 -8.41647e-05)
(-0.000486761 -0.000660357 -8.41647e-05)
(-0.000364696 -0.00073485 -8.41647e-05)
(-0.00023155 -0.000787015 -8.41647e-05)
(-9.13688e-05 -0.000815267 -8.41647e-05)
(5.15888e-05 -0.000818747 -8.41647e-05)
(0.000192979 -0.000797351 -8.41648e-05)
(0.000328506 -0.000751727 -8.41648e-05)
(0.000454051 -0.000683262 -8.41646e-05)
(0.0005658 -0.000594036 -8.41647e-05)
(0.000660357 -0.000486761 -8.41647e-05)
(0.00073485 -0.000364696 -8.41647e-05)
(0.000787015 -0.00023155 -8.41647e-05)
(0.000815267 -9.13688e-05 -8.41647e-05)
(0.000818747 5.15887e-05 -8.41647e-05)
(0.000797351 0.000192979 -8.41648e-05)
(0.000751727 0.000328506 -8.41647e-05)
(0.000683262 0.000454051 -8.41646e-05)
(0.000594036 0.0005658 -8.41647e-05)
(0.000486761 0.000660357 -8.41647e-05)
(0.000364696 0.00073485 -8.41647e-05)
(0.00023155 0.000787015 -8.41646e-05)
(9.13688e-05 0.000815267 -8.41647e-05)
(-5.15887e-05 0.000818747 -8.41647e-05)
(-0.000192979 0.000797351 -8.41648e-05)
(-0.000599411 0.00126718 -0.000278224)
(-0.000810348 0.00114384 -0.000278224)
(-0.000996663 0.000985748 -0.000278224)
(-0.00115269 0.000797703 -0.000278224)
(-0.0012737 0.000585421 -0.000278224)
(-0.00135601 0.000355352 -0.000278224)
(-0.00139711 0.000114484 -0.000278224)
(-0.00139577 -0.000129862 -0.000278224)
(-0.00135201 -0.000370262 -0.000278224)
(-0.00126718 -0.000599411 -0.000278224)
(-0.00114384 -0.000810348 -0.000278224)
(-0.000985748 -0.000996663 -0.000278224)
(-0.000797703 -0.00115269 -0.000278224)
(-0.000585421 -0.0012737 -0.000278224)
(-0.000355352 -0.00135601 -0.000278224)
(-0.000114484 -0.00139711 -0.000278224)
(0.000129862 -0.00139577 -0.000278224)
(0.000370262 -0.00135201 -0.000278224)
(0.000599411 -0.00126718 -0.000278224)
(0.000810348 -0.00114384 -0.000278224)
(0.000996663 -0.000985748 -0.000278224)
(0.00115269 -0.000797703 -0.000278224)
(0.0012737 -0.000585421 -0.000278224)
(0.00135601 -0.000355352 -0.000278224)
(0.00139711 -0.000114484 -0.000278224)
(0.00139577 0.000129862 -0.000278224)
(0.00135201 0.000370262 -0.000278224)
(0.00126718 0.000599411 -0.000278224)
(0.00114384 0.000810348 -0.000278224)
(0.000985748 0.000996663 -0.000278224)
(0.000797703 0.00115269 -0.000278224)
(0.000585421 0.0012737 -0.000278224)
(0.000355352 0.00135601 -0.000278224)
(0.000114484 0.00139711 -0.000278224)
(-0.000129862 0.00139577 -0.000278224)
(-0.000370262 0.00135201 -0.000278224)
(-0.000570815 0.00125118 -0.000235629)
(-0.000779408 0.00113305 -0.000235629)
(-0.00096432 0.000980497 -0.000235629)
(-0.00111993 0.000798149 -0.000235629)
(-0.00124151 0.000591549 -0.000235629)
(-0.00132537 0.000366976 -0.000235629)
(-0.00136896 0.000131252 -0.000235629)
(-0.00137096 -0.000108461 -0.000235629)
(-0.0013313 -0.000344877 -0.000235629)
(-0.00125118 -0.000570815 -0.000235629)
(-0.00113305 -0.000779408 -0.000235629)
(-0.000980497 -0.00096432 -0.000235629)
(-0.000798149 -0.00111993 -0.000235629)
(-0.000591549 -0.00124151 -0.000235629)
(-0.000366975 -0.00132537 -0.000235629)
(-0.000131252 -0.00136896 -0.000235629)
(0.000108461 -0.00137096 -0.000235629)
(0.000344877 -0.0013313 -0.000235629)
(0.000570815 -0.00125118 -0.000235629)
(0.000779408 -0.00113305 -0.000235629)
(0.00096432 -0.000980497 -0.000235629)
(0.00111993 -0.000798149 -0.000235629)
(0.00124151 -0.000591549 -0.000235629)
(0.00132537 -0.000366976 -0.000235629)
(0.00136896 -0.000131252 -0.000235629)
(0.00137096 0.000108461 -0.000235629)
(0.0013313 0.000344877 -0.000235629)
(0.00125118 0.000570815 -0.000235629)
(0.00113305 0.000779408 -0.000235629)
(0.000980497 0.00096432 -0.000235629)
(0.000798149 0.00111993 -0.000235629)
(0.000591549 0.00124151 -0.000235629)
(0.000366976 0.00132537 -0.000235629)
(0.000131252 0.00136896 -0.000235629)
(-0.000108461 0.00137096 -0.000235629)
(-0.000344877 0.0013313 -0.000235629)
(-0.000552208 0.00123141 -0.000194297)
(-0.000757652 0.00111682 -0.000194297)
(-0.000940074 0.000968285 -0.000194297)
(-0.00109393 0.000790333 -0.000194297)
(-0.00121455 0.000588366 -0.000194297)
(-0.00129827 0.000368522 -0.000194297)
(-0.00134254 0.000137481 -0.000194297)
(-0.00134602 -9.77371e-05 -0.000194297)
(-0.0013086 -0.000329986 -0.000194297)
(-0.00123141 -0.000552208 -0.000194297)
(-0.00111682 -0.000757652 -0.000194297)
(-0.000968285 -0.000940074 -0.000194297)
(-0.000790333 -0.00109393 -0.000194297)
(-0.000588366 -0.00121455 -0.000194297)
(-0.000368522 -0.00129827 -0.000194297)
(-0.000137481 -0.00134254 -0.000194297)
(9.77372e-05 -0.00134602 -0.000194297)
(0.000329986 -0.0013086 -0.000194297)
(0.000552208 -0.00123141 -0.000194297)
(0.000757652 -0.00111682 -0.000194297)
(0.000940074 -0.000968285 -0.000194297)
(0.00109393 -0.000790333 -0.000194297)
(0.00121455 -0.000588366 -0.000194297)
(0.00129827 -0.000368522 -0.000194297)
(0.00134254 -0.000137481 -0.000194297)
(0.00134602 9.77371e-05 -0.000194297)
(0.0013086 0.000329986 -0.000194297)
(0.00123141 0.000552208 -0.000194297)
(0.00111682 0.000757652 -0.000194297)
(0.000968285 0.000940074 -0.000194297)
(0.000790333 0.00109393 -0.000194297)
(0.000588366 0.00121455 -0.000194297)
(0.000368522 0.00129827 -0.000194297)
(0.000137481 0.00134254 -0.000194297)
(-9.77371e-05 0.00134602 -0.000194297)
(-0.000329986 0.0013086 -0.000194297)
(-0.000820859 0.00175092 -0.000446602)
(-0.00111243 0.00158178 -0.000446602)
(-0.00137021 0.00136458 -0.000446602)
(-0.00158634 0.00110591 -0.000446602)
(-0.00175428 0.000813644 -0.000446602)
(-0.00186892 0.000496655 -0.000446602)
(-0.00192677 0.000164575 -0.000446602)
(-0.00192608 -0.000172506 -0.000446602)
(-0.00186686 -0.000504345 -0.000446602)
(-0.00175092 -0.000820859 -0.000446602)
(-0.00158178 -0.00111243 -0.000446602)
(-0.00136457 -0.00137021 -0.000446602)
(-0.00110591 -0.00158634 -0.000446602)
(-0.000813644 -0.00175428 -0.000446602)
(-0.000496655 -0.00186892 -0.000446602)
(-0.000164575 -0.00192677 -0.000446602)
(0.000172506 -0.00192608 -0.000446602)
(0.000504345 -0.00186686 -0.000446602)
(0.000820859 -0.00175092 -0.000446602)
(0.00111243 -0.00158178 -0.000446602)
(0.00137021 -0.00136457 -0.000446602)
(0.00158634 -0.00110591 -0.000446602)
(0.00175428 -0.000813644 -0.000446602)
(0.00186892 -0.000496655 -0.000446602)
(0.00192677 -0.000164575 -0.000446602)
(0.00192608 0.000172506 -0.000446602)
(0.00186686 0.000504345 -0.000446602)
(0.00175092 0.000820859 -0.000446602)
(0.00158178 0.00111243 -0.000446602)
(0.00136458 0.00137021 -0.000446602)
(0.00110591 0.00158634 -0.000446602)
(0.000813644 0.00175428 -0.000446602)
(0.000496655 0.00186892 -0.000446602)
(0.000164575 0.00192677 -0.000446602)
(-0.000172506 0.00192608 -0.000446602)
(-0.000504345 0.00186686 -0.000446602)
(-0.000789443 0.00171894 -0.000391999)
(-0.00107594 0.00155574 -0.000391999)
(-0.00132975 0.00134527 -0.000391999)
(-0.00154315 0.00109393 -0.000391999)
(-0.00170966 0.000809343 -0.000391999)
(-0.00182423 0.000500167 -0.000391999)
(-0.00188337 0.000175794 -0.000391999)
(-0.00188528 -0.00015392 -0.000391999)
(-0.00182991 -0.000478958 -0.000391999)
(-0.00171894 -0.000789443 -0.000391999)
(-0.00155574 -0.00107594 -0.000391999)
(-0.00134527 -0.00132975 -0.000391999)
(-0.00109393 -0.00154315 -0.000391999)
(-0.000809343 -0.00170966 -0.000391999)
(-0.000500167 -0.00182423 -0.000391999)
(-0.000175794 -0.00188337 -0.000391999)
(0.00015392 -0.00188528 -0.000391999)
(0.000478958 -0.00182991 -0.000391999)
(0.000789443 -0.00171894 -0.000391999)
(0.00107594 -0.00155574 -0.000391999)
(0.00132975 -0.00134527 -0.000391999)
(0.00154315 -0.00109393 -0.000391999)
(0.00170966 -0.000809343 -0.000391999)
(0.00182423 -0.000500167 -0.000391999)
(0.00188337 -0.000175794 -0.000391999)
(0.00188528 0.00015392 -0.000391999)
(0.00182991 0.000478958 -0.000391999)
(0.00171894 0.000789443 -0.000391999)
(0.00155574 0.00107594 -0.000391999)
(0.00134527 0.00132975 -0.000391999)
(0.00109393 0.00154315 -0.000391999)
(0.000809343 0.00170966 -0.000391999)
(0.000500167 0.00182423 -0.000391999)
(0.000175794 0.00188337 -0.000391999)
(-0.00015392 0.00188528 -0.000391999)
(-0.000478958 0.00182991 -0.000391999)
(-0.000768354 0.00168147 -0.000339179)
(-0.00104866 0.0015225 -0.000339179)
(-0.00129711 0.00131727 -0.000339179)
(-0.00150615 0.00107202 -0.000339179)
(-0.00166942 0.000794192 -0.000339179)
(-0.00178197 0.000492235 -0.000339179)
(-0.00184037 0.000175321 -0.000339179)
(-0.00184286 -0.00014692 -0.000339179)
(-0.00178935 -0.000464696 -0.000339179)
(-0.00168147 -0.000768354 -0.000339179)
(-0.0015225 -0.00104866 -0.000339179)
(-0.00131727 -0.00129711 -0.000339179)
(-0.00107202 -0.00150615 -0.000339179)
(-0.000794192 -0.00166942 -0.000339179)
(-0.000492235 -0.00178197 -0.000339179)
(-0.000175321 -0.00184037 -0.000339179)
(0.00014692 -0.00184286 -0.000339179)
(0.000464696 -0.00178935 -0.000339179)
(0.000768354 -0.00168147 -0.000339179)
(0.00104867 -0.0015225 -0.000339179)
(0.00129711 -0.00131727 -0.000339179)
(0.00150615 -0.00107202 -0.000339179)
(0.00166942 -0.000794192 -0.000339179)
(0.00178197 -0.000492235 -0.000339179)
(0.00184037 -0.000175321 -0.000339179)
(0.00184286 0.00014692 -0.000339179)
(0.00178935 0.000464696 -0.000339179)
(0.00168147 0.000768354 -0.000339179)
(0.0015225 0.00104867 -0.000339179)
(0.00131727 0.00129711 -0.000339179)
(0.00107202 0.00150615 -0.000339179)
(0.000794192 0.00166942 -0.000339179)
(0.000492235 0.00178197 -0.000339179)
(0.000175321 0.00184037 -0.000339179)
(-0.00014692 0.00184286 -0.000339179)
(-0.000464696 0.00178935 -0.000339179)
(-0.00103623 0.00220829 -0.00064153)
(-0.00140395 0.00199481 -0.00064153)
(-0.00172901 0.00172071 -0.00064153)
(-0.00200154 0.00139433 -0.00064153)
(-0.00221326 0.00102558 -0.00064153)
(-0.00235772 0.000625669 -0.00064153)
(-0.00243055 0.00020675 -0.00064153)
(-0.00242953 -0.000218453 -0.000641529)
(-0.00235468 -0.000637017 -0.00064153)
(-0.00220829 -0.00103623 -0.00064153)
(-0.00199481 -0.00140395 -0.00064153)
(-0.00172071 -0.00172901 -0.00064153)
(-0.00139433 -0.00200154 -0.00064153)
(-0.00102558 -0.00221326 -0.00064153)
(-0.000625669 -0.00235772 -0.00064153)
(-0.00020675 -0.00243055 -0.00064153)
(0.000218453 -0.00242953 -0.00064153)
(0.000637017 -0.00235468 -0.00064153)
(0.00103623 -0.00220829 -0.00064153)
(0.00140395 -0.00199481 -0.00064153)
(0.00172901 -0.00172071 -0.00064153)
(0.00200154 -0.00139433 -0.00064153)
(0.00221326 -0.00102558 -0.00064153)
(0.00235772 -0.000625669 -0.00064153)
(0.00243055 -0.00020675 -0.00064153)
(0.00242953 0.000218453 -0.000641529)
(0.00235468 0.000637017 -0.00064153)
(0.00220829 0.00103623 -0.00064153)
(0.00199481 0.00140395 -0.00064153)
(0.00172071 0.00172901 -0.00064153)
(0.00139433 0.00200154 -0.00064153)
(0.00102558 0.00221326 -0.00064153)
(0.000625669 0.00235772 -0.00064153)
(0.00020675 0.00243055 -0.00064153)
(-0.000218453 0.00242953 -0.000641529)
(-0.000637017 0.00235468 -0.00064153)
(-0.00100085 0.00215248 -0.00057609)
(-0.00135942 0.00194598 -0.00057609)
(-0.00167668 0.00168036 -0.00057609)
(-0.001943 0.00136368 -0.00057609)
(-0.00215028 0.00100556 -0.00057609)
(-0.00229223 0.000616894 -0.00057609)
(-0.00236453 0.00020948 -0.00057609)
(-0.00236498 -0.000204298 -0.00057609)
(-0.00229357 -0.000611869 -0.00057609)
(-0.00215248 -0.00100085 -0.00057609)
(-0.00194598 -0.00135942 -0.00057609)
(-0.00168036 -0.00167668 -0.00057609)
(-0.00136368 -0.001943 -0.00057609)
(-0.00100556 -0.00215028 -0.00057609)
(-0.000616894 -0.00229223 -0.00057609)
(-0.00020948 -0.00236453 -0.00057609)
(0.000204298 -0.00236498 -0.00057609)
(0.000611869 -0.00229357 -0.00057609)
(0.00100085 -0.00215248 -0.00057609)
(0.00135942 -0.00194598 -0.00057609)
(0.00167668 -0.00168036 -0.00057609)
(0.001943 -0.00136368 -0.00057609)
(0.00215028 -0.00100556 -0.00057609)
(0.00229223 -0.000616894 -0.00057609)
(0.00236453 -0.00020948 -0.00057609)
(0.00236498 0.000204298 -0.00057609)
(0.00229357 0.000611869 -0.00057609)
(0.00215248 0.00100085 -0.00057609)
(0.00194598 0.00135942 -0.00057609)
(0.00168036 0.00167668 -0.00057609)
(0.00136368 0.001943 -0.00057609)
(0.00100556 0.00215028 -0.00057609)
(0.000616894 0.00229223 -0.00057609)
(0.00020948 0.00236453 -0.00057609)
(-0.000204298 0.00236498 -0.00057609)
(-0.000611869 0.00229357 -0.00057609)
(-0.000975927 0.00208976 -0.000512906)
(-0.00132398 0.00188854 -0.000512906)
(-0.00163181 0.00162994 -0.000512906)
(-0.00189006 0.00132182 -0.000512906)
(-0.00209087 0.000973533 -0.000512906)
(-0.00222816 0.000595667 -0.000512906)
(-0.00229775 0.000199702 -0.000512906)
(-0.00229752 -0.000202332 -0.000512906)
(-0.00222748 -0.000598217 -0.000512906)
(-0.00208976 -0.000975927 -0.000512906)
(-0.00188854 -0.00132398 -0.000512906)
(-0.00162994 -0.00163181 -0.000512906)
(-0.00132182 -0.00189006 -0.000512906)
(-0.000973533 -0.00209087 -0.000512906)
(-0.000595667 -0.00222816 -0.000512906)
(-0.000199702 -0.00229775 -0.000512906)
(0.000202332 -0.00229752 -0.000512906)
(0.000598217 -0.00222748 -0.000512906)
(0.000975927 -0.00208976 -0.000512906)
(0.00132398 -0.00188854 -0.000512906)
(0.00163181 -0.00162994 -0.000512906)
(0.00189006 -0.00132182 -0.000512906)
(0.00209087 -0.000973533 -0.000512906)
(0.00222816 -0.000595667 -0.000512906)
(0.00229775 -0.000199702 -0.000512906)
(0.00229752 0.000202332 -0.000512906)
(0.00222748 0.000598217 -0.000512906)
(0.00208976 0.000975927 -0.000512906)
(0.00188854 0.00132398 -0.000512906)
(0.00162994 0.00163181 -0.000512906)
(0.00132182 0.00189006 -0.000512906)
(0.000973533 0.00209087 -0.000512906)
(0.000595667 0.00222816 -0.000512906)
(0.000199702 0.00229775 -0.000512906)
(-0.000202332 0.00229752 -0.000512906)
(-0.000598217 0.00222748 -0.000512906)
(-0.00124546 0.00262946 -0.00085702)
(-0.00168314 0.00237324 -0.000857021)
(-0.00206968 0.00204491 -0.000857021)
(-0.00239333 0.00165445 -0.000857021)
(-0.00264426 0.00121372 -0.00085702)
(-0.00281485 0.000736108 -0.00085702)
(-0.00289991 0.000236132 -0.00085702)
(-0.00289685 -0.00027102 -0.00085702)
(-0.00280578 -0.000769935 -0.00085702)
(-0.00262946 -0.00124546 -0.00085702)
(-0.00237324 -0.00168314 -0.000857021)
(-0.00204491 -0.00206968 -0.000857021)
(-0.00165445 -0.00239333 -0.000857021)
(-0.00121372 -0.00264426 -0.00085702)
(-0.000736108 -0.00281485 -0.00085702)
(-0.000236132 -0.00289991 -0.00085702)
(0.00027102 -0.00289685 -0.00085702)
(0.000769936 -0.00280578 -0.00085702)
(0.00124546 -0.00262946 -0.00085702)
(0.00168314 -0.00237324 -0.000857021)
(0.00206968 -0.00204491 -0.000857021)
(0.00239333 -0.00165445 -0.000857021)
(0.00264426 -0.00121372 -0.00085702)
(0.00281485 -0.000736108 -0.00085702)
(0.00289991 -0.000236132 -0.00085702)
(0.00289685 0.00027102 -0.00085702)
(0.00280578 0.000769936 -0.00085702)
(0.00262946 0.00124546 -0.00085702)
(0.00237324 0.00168314 -0.000857021)
(0.00204491 0.00206968 -0.000857021)
(0.00165445 0.00239333 -0.000857021)
(0.00121372 0.00264426 -0.00085702)
(0.000736108 0.00281485 -0.00085702)
(0.000236132 0.00289991 -0.00085702)
(-0.00027102 0.00289685 -0.00085702)
(-0.000769935 0.00280578 -0.00085702)
(-0.001204 0.0025406 -0.000781396)
(-0.00162688 0.00229293 -0.000781396)
(-0.00200032 0.00197559 -0.000781396)
(-0.00231299 0.00159822 -0.000781396)
(-0.00255538 0.00117229 -0.000781396)
(-0.00272013 0.000710747 -0.000781396)
(-0.00280222 0.000227605 -0.000781396)
(-0.00279917 -0.000262453 -0.000781396)
(-0.00271107 -0.000744538 -0.000781395)
(-0.0025406 -0.001204 -0.000781396)
(-0.00229293 -0.00162688 -0.000781396)
(-0.00197559 -0.00200032 -0.000781396)
(-0.00159822 -0.00231299 -0.000781396)
(-0.00117229 -0.00255538 -0.000781396)
(-0.000710747 -0.00272013 -0.000781396)
(-0.000227605 -0.00280222 -0.000781396)
(0.000262454 -0.00279917 -0.000781396)
(0.000744538 -0.00271107 -0.000781396)
(0.001204 -0.0025406 -0.000781396)
(0.00162688 -0.00229293 -0.000781396)
(0.00200032 -0.00197559 -0.000781396)
(0.00231299 -0.00159822 -0.000781396)
(0.00255538 -0.00117229 -0.000781396)
(0.00272013 -0.000710747 -0.000781396)
(0.00280222 -0.000227605 -0.000781396)
(0.00279917 0.000262453 -0.000781396)
(0.00271107 0.000744538 -0.000781395)
(0.0025406 0.001204 -0.000781396)
(0.00229293 0.00162688 -0.000781396)
(0.00197559 0.00200032 -0.000781396)
(0.00159822 0.00231299 -0.000781396)
(0.00117229 0.00255538 -0.000781396)
(0.000710747 0.00272013 -0.000781396)
(0.000227605 0.00280222 -0.000781395)
(-0.000262453 0.00279917 -0.000781396)
(-0.000744538 0.00271107 -0.000781395)
(-0.00117271 0.00244402 -0.000708483)
(-0.0015793 0.00220326 -0.000708483)
(-0.0019379 0.00189554 -0.000708483)
(-0.00223761 0.00153023 -0.000708483)
(-0.00246934 0.00111843 -0.000708483)
(-0.00262604 0.000672639 -0.000708483)
(-0.00270294 0.000206414 -0.000708483)
(-0.00269772 -0.000266084 -0.000708483)
(-0.00261053 -0.000730496 -0.000708483)
(-0.00244402 -0.00117271 -0.000708483)
(-0.00220326 -0.0015793 -0.000708484)
(-0.00189554 -0.0019379 -0.000708483)
(-0.00153023 -0.00223761 -0.000708483)
(-0.00111843 -0.00246934 -0.000708483)
(-0.000672639 -0.00262604 -0.000708483)
(-0.000206414 -0.00270294 -0.000708483)
(0.000266084 -0.00269772 -0.000708484)
(0.000730496 -0.00261053 -0.000708483)
(0.00117271 -0.00244402 -0.000708483)
(0.0015793 -0.00220326 -0.000708484)
(0.0019379 -0.00189554 -0.000708483)
(0.00223761 -0.00153023 -0.000708483)
(0.00246934 -0.00111843 -0.000708483)
(0.00262604 -0.000672639 -0.000708483)
(0.00270294 -0.000206414 -0.000708483)
(0.00269772 0.000266084 -0.000708483)
(0.00261053 0.000730496 -0.000708483)
(0.00244402 0.00117271 -0.000708483)
(0.00220326 0.0015793 -0.000708483)
(0.00189554 0.0019379 -0.000708483)
(0.00153023 0.00223761 -0.000708483)
(0.00111843 0.00246934 -0.000708483)
(0.000672639 0.00262604 -0.000708483)
(0.000206414 0.00270294 -0.000708483)
(-0.000266084 0.00269772 -0.000708483)
(-0.000730496 0.00261053 -0.000708483)
(-0.00144695 0.00300252 -0.00108612)
(-0.00194635 0.00270564 -0.00108613)
(-0.00238661 0.00232656 -0.00108613)
(-0.00275435 0.00187678 -0.00108613)
(-0.00303841 0.00136998 -0.00108613)
(-0.00323014 0.000821553 -0.00108613)
(-0.00332373 0.000248164 -0.00108613)
(-0.00331633 -0.000332767 -0.00108613)
(-0.00320816 -0.000903585 -0.00108612)
(-0.00300252 -0.00144695 -0.00108612)
(-0.00270564 -0.00194635 -0.00108613)
(-0.00232656 -0.00238661 -0.00108613)
(-0.00187678 -0.00275435 -0.00108613)
(-0.00136998 -0.00303841 -0.00108613)
(-0.000821553 -0.00323014 -0.00108613)
(-0.000248164 -0.00332373 -0.00108613)
(0.000332767 -0.00331633 -0.00108613)
(0.000903585 -0.00320816 -0.00108612)
(0.00144695 -0.00300252 -0.00108612)
(0.00194635 -0.00270564 -0.00108613)
(0.00238661 -0.00232656 -0.00108613)
(0.00275435 -0.00187678 -0.00108613)
(0.00303841 -0.00136998 -0.00108613)
(0.00323014 -0.000821553 -0.00108613)
(0.00332373 -0.000248164 -0.00108613)
(0.00331633 0.000332767 -0.00108612)
(0.00320816 0.000903585 -0.00108612)
(0.00300252 0.00144695 -0.00108612)
(0.00270564 0.00194635 -0.00108613)
(0.00232656 0.00238661 -0.00108613)
(0.00187678 0.00275435 -0.00108613)
(0.00136998 0.00303841 -0.00108613)
(0.000821553 0.00323014 -0.00108613)
(0.000248164 0.00332373 -0.00108613)
(-0.000332767 0.00331633 -0.00108612)
(-0.000903585 0.00320816 -0.00108612)
(-0.00139583 0.00287088 -0.00100046)
(-0.00187315 0.00258488 -0.00100046)
(-0.00229355 0.00222035 -0.00100046)
(-0.00264427 0.00178834 -0.00100046)
(-0.00291464 0.001302 -0.00100046)
(-0.00309645 0.000776101 -0.00100046)
(-0.00318417 0.000226617 -0.00100046)
(-0.00317515 -0.000329752 -0.00100046)
(-0.00306965 -0.000876102 -0.00100046)
(-0.00287088 -0.00139583 -0.00100046)
(-0.00258488 -0.00187315 -0.00100046)
(-0.00222035 -0.00229355 -0.00100046)
(-0.00178834 -0.00264427 -0.00100046)
(-0.001302 -0.00291464 -0.00100046)
(-0.0007761 -0.00309645 -0.00100046)
(-0.000226617 -0.00318417 -0.00100046)
(0.000329752 -0.00317515 -0.00100046)
(0.000876102 -0.00306965 -0.00100046)
(0.00139583 -0.00287088 -0.00100046)
(0.00187315 -0.00258488 -0.00100046)
(0.00229355 -0.00222035 -0.00100046)
(0.00264427 -0.00178834 -0.00100046)
(0.00291464 -0.001302 -0.00100046)
(0.00309645 -0.000776101 -0.00100046)
(0.00318417 -0.000226617 -0.00100046)
(0.00317515 0.000329752 -0.00100046)
(0.00306965 0.000876102 -0.00100046)
(0.00287088 0.00139583 -0.00100046)
(0.00258488 0.00187315 -0.00100046)
(0.00222035 0.00229355 -0.00100046)
(0.00178834 0.00264427 -0.00100046)
(0.001302 0.00291464 -0.00100046)
(0.000776101 0.00309645 -0.00100046)
(0.000226617 0.00318417 -0.00100046)
(-0.000329752 0.00317515 -0.00100046)
(-0.000876102 0.00306965 -0.00100046)
(-0.00135404 0.00273168 -0.000918047)
(-0.00180782 0.00245505 -0.000918047)
(-0.00220667 0.00210383 -0.000918047)
(-0.00253847 0.00168868 -0.000918047)
(-0.00279314 0.00122223 -0.000918047)
(-0.00296294 0.000718635 -0.000918047)
(-0.00304272 0.000193207 -0.000918047)
(-0.00303004 -0.00033809 -0.000918047)
(-0.0029253 -0.000859115 -0.000918047)
(-0.00273168 -0.00135404 -0.000918047)
(-0.00245505 -0.00180782 -0.000918047)
(-0.00210383 -0.00220667 -0.000918048)
(-0.00168868 -0.00253847 -0.000918047)
(-0.00122223 -0.00279314 -0.000918047)
(-0.000718635 -0.00296294 -0.000918047)
(-0.000193207 -0.00304272 -0.000918047)
(0.000338091 -0.00303004 -0.000918047)
(0.000859116 -0.0029253 -0.000918047)
(0.00135404 -0.00273168 -0.000918047)
(0.00180782 -0.00245505 -0.000918047)
(0.00220667 -0.00210383 -0.000918048)
(0.00253847 -0.00168868 -0.000918047)
(0.00279314 -0.00122223 -0.000918047)
(0.00296294 -0.000718635 -0.000918047)
(0.00304272 -0.000193207 -0.000918047)
(0.00303004 0.00033809 -0.000918047)
(0.0029253 0.000859116 -0.000918047)
(0.00273168 0.00135404 -0.000918047)
(0.00245505 0.00180782 -0.000918047)
(0.00210383 0.00220667 -0.000918047)
(0.00168868 0.00253847 -0.000918047)
(0.00122223 0.00279314 -0.000918047)
(0.000718635 0.00296294 -0.000918047)