/*--------------------------------*- C++ -*----------------------------------*\
| =========                 |                                                 |
| \\      /  F ield         | OpenFOAM: The Open Source CFD Toolbox           |
|  \\    /   O peration     | Version:  2312                                  |
|   \\  /    A nd           | Website:  www.openfoam.com                      |
|    \\/     M anipulation  |                                                 |
\*---------------------------------------------------------------------------*/
FoamFile
{
    version     2.0;
    format      ascii;
    arch        "LSB;label=32;scalar=64";
    class       volVectorField;
    location    "0.2";
    object      D_0_0;
}
// * * * * * * * * * * * * * * * * * * * * * * * * * * * * * * * * * * * * * //

dimensions      [0 1 0 0 0 0 0];

internalField   nonuniform List<vector> 
1620
(
(-8.10709e-05 -2.78363e-05 -4.71893e-05)
(-6.37676e-05 1.75034e-06 -3.89048e-05)
(-3.97135e-05 2.84838e-05 -2.58165e-05)
(-1.31897e-05 5.35701e-05 -1.02245e-05)
(1.30745e-05 7.89882e-05 7.6409e-06)
(3.63504e-05 0.000106576 2.84141e-05)
(5.32307e-05 0.000137105 5.30741e-05)
(6.00253e-05 0.000168784 8.16167e-05)
(5.73794e-05 0.0001951 0.000107775)
(4.63897e-05 0.000210305 0.000110053)
(3.09256e-05 0.000212217 9.03615e-05)
(1.93004e-05 0.000204107 6.78718e-05)
(1.48862e-05 0.000191076 4.67429e-05)
(1.63181e-05 0.000175532 2.72434e-05)
(2.15734e-05 0.000157839 9.24483e-06)
(2.86905e-05 0.000137292 -7.23769e-06)
(3.53102e-05 0.000112786 -2.17222e-05)
(3.71612e-05 8.35974e-05 -3.1955e-05)
(2.9662e-05 5.09336e-05 -3.24461e-05)
(1.34259e-05 1.90897e-05 -2.37711e-05)
(-6.07359e-06 -1.00426e-05 -1.21305e-05)
(-2.50189e-05 -3.66541e-05 3.5645e-07)
(-4.19612e-05 -6.1825e-05 1.38738e-05)
(-5.59353e-05 -8.72473e-05 2.9657e-05)
(-6.52399e-05 -0.000114462 4.9645e-05)
(-6.7285e-05 -0.000143058 7.52428e-05)
(-6.35112e-05 -0.000167497 0.000101349)
(-5.40489e-05 -0.000182264 0.000105432)
(-4.15727e-05 -0.000184406 8.86544e-05)
(-3.39342e-05 -0.000176618 6.78819e-05)
(-3.43794e-05 -0.00016354 4.67571e-05)
(-4.17751e-05 -0.000147805 2.5795e-05)
(-5.38301e-05 -0.000130183 5.27211e-06)
(-6.7827e-05 -0.000110185 -1.43314e-05)
(-8.04527e-05 -8.66195e-05 -3.19842e-05)
(-8.66088e-05 -5.86262e-05 -4.48906e-05)
(-3.26319e-05 -2.92114e-05 -2.1809e-05)
(-2.38308e-05 2.91781e-06 -1.27967e-05)
(-1.40519e-05 2.89128e-05 -4.00221e-06)
(-3.41698e-06 5.00174e-05 5.81712e-06)
(7.75986e-06 6.7217e-05 1.69198e-05)
(1.86229e-05 8.20364e-05 2.88683e-05)
(2.82602e-05 9.54891e-05 4.10033e-05)
(3.6345e-05 0.000107928 5.23155e-05)
(4.37132e-05 0.000119764 6.07177e-05)
(4.80221e-05 0.000131464 6.23827e-05)
(4.85578e-05 0.000142133 5.77725e-05)
(4.56754e-05 0.000149975 4.9762e-05)
(4.13513e-05 0.000154131 4.00412e-05)
(3.61577e-05 0.000154036 2.96764e-05)
(2.99813e-05 0.000148656 1.95099e-05)
(2.2581e-05 0.000136534 1.01148e-05)
(1.41037e-05 0.000116712 1.28857e-06)
(4.73345e-06 8.73991e-05 -7.96292e-06)
(-4.05313e-06 5.16327e-05 -7.92672e-06)
(-1.17346e-05 1.88632e-05 7.43633e-07)
(-1.9054e-05 -7.71702e-06 7.89239e-06)
(-2.59235e-05 -2.92192e-05 1.51356e-05)
(-3.23766e-05 -4.64031e-05 2.31546e-05)
(-3.81921e-05 -6.0656e-05 3.19427e-05)
(-4.32464e-05 -7.30248e-05 4.13489e-05)
(-4.79811e-05 -8.40023e-05 5.08688e-05)
(-5.38537e-05 -9.42218e-05 5.85495e-05)
(-5.86107e-05 -0.000104338 6.00824e-05)
(-6.11303e-05 -0.000113979 5.56329e-05)
(-6.15607e-05 -0.000121564 4.75377e-05)
(-6.12792e-05 -0.000126087 3.7141e-05)
(-6.03953e-05 -0.000126807 2.54364e-05)
(-5.83637e-05 -0.000122515 1.33379e-05)
(-5.45429e-05 -0.00011155 1.61948e-06)
(-4.87715e-05 -9.27309e-05 -9.56853e-06)
(-4.10847e-05 -6.42397e-05 -2.08283e-05)
(-3.62618e-06 -3.2872e-05 6.7767e-06)
(-1.84112e-06 -3.28894e-07 1.0237e-05)
(-3.87414e-06 2.44963e-05 1.41438e-05)
(-5.96354e-06 4.10638e-05 1.84819e-05)
(-6.32219e-06 5.07012e-05 2.32066e-05)
(-4.04963e-06 5.55194e-05 2.71993e-05)
(1.82595e-06 5.76675e-05 2.85584e-05)
(1.2691e-05 5.94944e-05 2.56757e-05)
(3.02283e-05 6.38782e-05 2.01414e-05)
(5.11493e-05 7.27613e-05 2.07718e-05)
(6.57727e-05 8.65092e-05 2.82343e-05)
(7.19373e-05 0.00010295 3.21217e-05)
(7.01595e-05 0.000118641 3.18036e-05)
(6.16753e-05 0.000130521 2.91207e-05)
(4.7677e-05 0.000135756 2.58345e-05)
(2.94739e-05 0.000131598 2.2994e-05)
(9.33301e-06 0.00011599 2.06943e-05)
(-8.19972e-06 8.8569e-05 1.87481e-05)
(-1.78246e-05 5.47442e-05 1.91474e-05)
(-1.91656e-05 2.32182e-05 2.1515e-05)
(-1.68962e-05 -4.42955e-07 2.36052e-05)
(-1.45578e-05 -1.619e-05 2.59688e-05)
(-1.35667e-05 -2.56192e-05 2.88922e-05)
(-1.45719e-05 -3.07244e-05 3.14051e-05)
(-1.86426e-05 -3.32163e-05 3.16052e-05)
(-2.76933e-05 -3.49557e-05 2.77186e-05)
(-4.38873e-05 -3.87046e-05 2.11045e-05)
(-6.41332e-05 -4.67511e-05 2.03264e-05)
(-7.90859e-05 -5.99849e-05 2.62718e-05)
(-8.71512e-05 -7.64891e-05 2.88554e-05)
(-8.79485e-05 -9.30083e-05 2.74095e-05)
(-8.18087e-05 -0.00010625 2.35636e-05)
(-6.93862e-05 -0.000112928 1.88854e-05)
(-5.18801e-05 -0.000109873 1.43438e-05)
(-3.1748e-05 -9.48082e-05 1.01618e-05)
(-1.38e-05 -6.73814e-05 6.6754e-06)
(-0.000200919 -8.41828e-05 -0.000131201)
(-0.000161072 1.06839e-05 -0.000110666)
(-0.000108395 9.20645e-05 -7.2434e-05)
(-4.99713e-05 0.000161141 -2.42497e-05)
(8.98313e-06 0.000223571 3.16977e-05)
(6.30276e-05 0.000285161 9.61775e-05)
(0.000106143 0.000349166 0.000170073)
(0.000133269 0.000413914 0.000249311)
(0.000145781 0.000470544 0.00031519)
(0.000144899 0.000510003 0.000329091)
(0.000129321 0.000528212 0.000288541)
(0.00011226 0.00052828 0.000228585)
(0.000101911 0.000515833 0.000165851)
(9.89075e-05 0.000493182 0.000105725)
(0.000100903 0.000459129 4.94872e-05)
(0.000104476 0.000410065 -2.18713e-06)
(0.000105169 0.000341718 -4.66845e-05)
(9.6031e-05 0.000253034 -7.64531e-05)
(7.18813e-05 0.000152649 -7.98081e-05)
(3.43696e-05 5.52439e-05 -5.77468e-05)
(-9.0012e-06 -2.89853e-05 -2.37178e-05)
(-5.15422e-05 -9.99124e-05 1.48236e-05)
(-9.00628e-05 -0.000161732 5.70806e-05)
(-0.0001224 -0.000219757 0.000105981)
(-0.00014619 -0.000278238 0.000165345)
(-0.000159471 -0.000337606 0.000234624)
(-0.00016624 -0.000390672 0.000297937)
(-0.000167537 -0.000428847 0.000316519)
(-0.000160079 -0.000447361 0.000283051)
(-0.000154852 -0.000448462 0.000227172)
(-0.000158705 -0.000437135 0.000163715)
(-0.000171591 -0.000415764 9.83815e-05)
(-0.000189996 -0.000383325 3.36406e-05)
(-0.000208849 -0.000336122 -2.82821e-05)
(-0.000222044 -0.000269546 -8.31069e-05)
(-0.000221424 -0.000182423 -0.000121772)
(-0.000115237 -9.07963e-05 -6.40161e-05)
(-8.89098e-05 4.67643e-06 -4.30258e-05)
(-5.97408e-05 8.30042e-05 -1.33445e-05)
(-2.7792e-05 0.000146008 2.22027e-05)
(6.00173e-06 0.000197548 6.24273e-05)
(3.95229e-05 0.000242559 0.00010589)
(7.05637e-05 0.000284582 0.000150265)
(9.81297e-05 0.000324862 0.000191272)
(0.000122908 0.000362695 0.00022125)
(0.000141057 0.000397084 0.000230284)
(0.00014808 0.000426263 0.000216949)
(0.000144983 0.000447247 0.000189011)
(0.000135828 0.000458319 0.000153611)
(0.000122618 0.000457531 0.000115509)
(0.000105705 0.000441428 7.77831e-05)
(8.48749e-05 0.000405388 4.24726e-05)
(6.05386e-05 0.000345583 1.10208e-05)
(3.3645e-05 0.000259147 -1.36146e-05)
(7.57457e-06 0.000157239 -1.5143e-05)
(-1.62588e-05 6.09537e-05 5.02963e-06)
(-3.91145e-05 -1.79259e-05 2.95933e-05)
(-6.0983e-05 -8.10765e-05 5.66135e-05)
(-8.17542e-05 -0.000131902 8.61897e-05)
(-0.000100938 -0.000175028 0.000118361)
(-0.00011847 -0.000214098 0.000152515)
(-0.000135585 -0.000250765 0.000186127)
(-0.00015487 -0.000284834 0.000212572)
(-0.000173269 -0.000316011 0.000221305)
(-0.00018575 -0.000343551 0.000208728)
(-0.000192137 -0.000364762 0.000180577)
(-0.000194738 -0.00037754 0.000142833)
(-0.000194071 -0.000379457 9.99971e-05)
(-0.000189151 -0.000366545 5.54841e-05)
(-0.000178614 -0.000333603 1.21198e-05)
(-0.000162049 -0.000276267 -2.7449e-05)
(-0.000139989 -0.000191545 -5.88602e-05)
(-4.66562e-05 -0.000100032 9.65904e-06)
(-3.19176e-05 -7.04334e-06 2.27941e-05)
(-2.34621e-05 6.86918e-05 4.23574e-05)
(-1.49838e-05 0.000125587 6.52889e-05)
(-3.44647e-06 0.000166864 8.97913e-05)
(1.2496e-05 0.000197345 0.000112416)
(3.41012e-05 0.000221695 0.000128072)
(6.29508e-05 0.000244324 0.000132728)
(0.000100996 0.000269555 0.000130126)
(0.000139839 0.000299831 0.000135479)
(0.000166964 0.000334714 0.000146256)
(0.000177488 0.000370211 0.000147987)
(0.000171212 0.000400219 0.000138679)
(0.000150329 0.000418553 0.000121924)
(0.000117419 0.000418954 0.000102337)
(7.5541e-05 0.000395204 8.3365e-05)
(2.96603e-05 0.000342674 6.69586e-05)
(-1.15049e-05 0.000261481 5.56699e-05)
(-3.89503e-05 0.000164427 5.55552e-05)
(-5.16443e-05 7.24637e-05 6.5553e-05)
(-5.66905e-05 -1.44402e-06 7.9108e-05)
(-6.04658e-05 -5.64672e-05 9.46773e-05)
(-6.59083e-05 -9.63147e-05 0.000111568)
(-7.45205e-05 -0.000125722 0.000127027)
(-8.83251e-05 -0.000148799 0.000136342)
(-0.000110339 -0.000169384 0.000135621)
(-0.000143864 -0.000191894 0.000128794)
(-0.000180856 -0.000219617 0.000130127)
(-0.000210073 -0.00025304 0.000136398)
(-0.000226902 -0.000288766 0.000133963)
(-0.000229215 -0.000320888 0.000120688)
(-0.00021718 -0.000342688 9.95644e-05)
(-0.000191959 -0.000346996 7.47347e-05)
(-0.000155928 -0.000326749 4.96455e-05)
(-0.000113862 -0.0002768 2.6964e-05)
(-7.44088e-05 -0.000197073 1.08887e-05)
(-0.000309218 -0.000148208 -0.000195361)
(-0.000250008 5.69951e-06 -0.000167104)
(-0.000173223 0.000138543 -0.000105214)
(-8.73395e-05 0.000250687 -2.1577e-05)
(1.32011e-07 0.00035015 7.88478e-05)
(8.12541e-05 0.000445328 0.000194979)
(0.000148243 0.000540939 0.000324639)
(0.000195734 0.000635554 0.00045742)
(0.000224804 0.000720545 0.000565851)
(0.000236877 0.000785507 0.000601488)
(0.000228688 0.000823291 0.000550127)
(0.000210112 0.000834889 0.000454909)
(0.000194211 0.000825697 0.0003457)
(0.000184898 0.000797525 0.000236604)
(0.000180672 0.00074819 0.000133698)
(0.00017702 0.000672219 4.0582e-05)
(0.000167709 0.000563411 -3.69103e-05)
(0.000144811 0.000421291 -8.69906e-05)
(0.00010413 0.000260522 -9.55918e-05)
(4.81535e-05 0.000104109 -6.40112e-05)
(-1.54558e-05 -3.12551e-05 -8.85945e-06)
(-7.85588e-05 -0.000144555 5.80963e-05)
(-0.000136135 -0.000242134 0.000134008)
(-0.000184615 -0.000331769 0.000221496)
(-0.000221431 -0.000419301 0.000323431)
(-0.000246063 -0.000505867 0.000435278)
(-0.000263401 -0.00058544 0.000535005)
(-0.000276447 -0.000648702 0.000575865)
(-0.000280947 -0.000687632 0.000535217)
(-0.000281531 -0.000701534 0.000446182)
(-0.000288783 -0.000695143 0.000335132)
(-0.000304801 -0.000670152 0.000216479)
(-0.000325981 -0.000624313 9.83104e-05)
(-0.000345416 -0.000551862 -1.30928e-05)
(-0.000354716 -0.000446129 -0.000109124)
(-0.00034445 -0.000306466 -0.000175449)
(-0.000201985 -0.000157403 -8.90257e-05)
(-0.00015748 -7.33871e-06 -6.00335e-05)
(-0.000108051 0.000118293 -9.02637e-06)
(-5.39519e-05 0.00022104 5.62101e-05)
(2.99543e-06 0.000306558 0.00013177)
(5.93494e-05 0.00038202 0.000214032)
(0.00011159 0.000452681 0.000297775)
(0.000157696 0.000520399 0.000374422)
(0.000197523 0.000583806 0.000430974)
(0.000227521 0.000640389 0.000452092)
(0.00024238 0.000687642 0.000432743)
(0.000240942 0.000721952 0.000384009)
(0.000228412 0.000740145 0.000318831)
(0.000208357 0.00073879 0.000246938)
(0.000181973 0.000712618 0.000175071)
(0.000149208 0.000654907 0.000108122)
(0.000110533 0.000560004 5.06909e-05)
(6.75122e-05 0.000425102 1.08415e-05)
(2.44257e-05 0.000267834 5.9188e-06)
(-1.65313e-05 0.00011725 3.39837e-05)
(-5.62735e-05 -8.37847e-06 7.62201e-05)
(-9.47695e-05 -0.000110369 0.000126083)
(-0.000131458 -0.000193906 0.000181762)
(-0.000165293 -0.000265855 0.000242313)
(-0.000195914 -0.000331692 0.000305655)
(-0.000224655 -0.000393958 0.000366456)
(-0.000254386 -0.000452091 0.000414122)
(-0.000283628 -0.00050446 0.00043305)
(-0.000306866 -0.000549852 0.000414291)
(-0.000320444 -0.000585225 0.000364724)
(-0.000326711 -0.000606729 0.000294878)
(-0.00032679 -0.000610104 0.000213958)
(-0.000319709 -0.000589232 0.000129395)
(-0.000303597 -0.000536513 4.75883e-05)
(-0.00027763 -0.000445552 -2.47384e-05)
(-0.000242601 -0.000313306 -7.71052e-05)
(-0.000108011 -0.000169276 2.51509e-05)
(-7.69974e-05 -2.66694e-05 4.71097e-05)
(-5.27251e-05 9.27943e-05 8.4721e-05)
(-2.80228e-05 0.000186288 0.000131127)
(5.82694e-07 0.000258085 0.00018151)
(3.42853e-05 0.000314822 0.000229668)
(7.36233e-05 0.000362915 0.000267794)
(0.000119074 0.000407886 0.000289514)
(0.000170579 0.000454478 0.000296765)
(0.000220648 0.000505527 0.000306358)
(0.000256697 0.00055978 0.00031614)
(0.000271108 0.000611878 0.000311406)
(0.000262669 0.000653751 0.000289283)
(0.000233591 0.000676891 0.000254309)
(0.000187302 0.000672494 0.000213495)
(0.000128217 0.000631915 0.000173255)
(6.31936e-05 0.000548984 0.000138877)
(3.16498e-06 0.000424768 0.000116705)
(-4.15185e-05 0.00027768 0.000114868)
(-6.92144e-05 0.000136546 0.000131802)
(-8.71814e-05 1.97481e-05 0.000158712)
(-0.000103005 -7.07343e-05 0.000191139)
(-0.000120475 -0.000139822 0.000226302)
(-0.000141372 -0.000194172 0.000259569)
(-0.000167461 -0.00023968 0.000284254)
(-0.000201164 -0.000281269 0.000294593)
(-0.000244653 -0.000323712 0.00029254)
(-0.000291963 -0.000370951 0.000293935)
(-0.000331824 -0.000423072 0.000295503)
(-0.000356291 -0.000475798 0.000283105)
(-0.000361605 -0.000521194 0.000253286)
(-0.000347144 -0.000549874 0.000209576)
(-0.00031419 -0.000551683 0.000158387)
(-0.000265909 -0.000516716 0.000106414)
(-0.000208516 -0.000437993 6.03955e-05)
(-0.000152487 -0.000316179 2.94515e-05)
(-0.000409888 -0.000223711 -0.000212224)
(-0.000333467 -2.20628e-05 -0.000183652)
(-0.00023639 0.000155976 -0.000106297)
(-0.000127676 0.000308747 6.45628e-06)
(-1.63676e-05 0.00044437 0.000146863)
(8.80805e-05 0.00057209 0.000310375)
(0.000177061 0.000697437 0.000490106)
(0.000245096 0.000819927 0.000669879)
(0.000292073 0.000932732 0.000817469)
(0.000320746 0.00102479 0.000879891)
(0.000327817 0.00108483 0.000830944)
(0.00031249 0.0011107 0.000712375)
(0.000292806 0.00110766 0.000564202)
(0.000276045 0.00107631 0.000409971)
(0.000262621 0.00101379 0.000262844)
(0.000248135 0.00091412 0.000131271)
(0.000225731 0.000771318 2.46166e-05)
(0.000187766 0.000586944 -4.33237e-05)
(0.000130843 0.000379324 -5.95323e-05)
(5.79575e-05 0.000175771 -2.54168e-05)
(-2.32211e-05 -3.36011e-06 4.32542e-05)
(-0.000104102 -0.000155167 0.000132831)
(-0.000178418 -0.000286258 0.000238105)
(-0.000241679 -0.000405424 0.000359498)
(-0.000291418 -0.000519525 0.000497065)
(-0.000328139 -0.000631024 0.000642734)
(-0.000356379 -0.000736641 0.00077211)
(-0.000382405 -0.000827406 0.000836475)
(-0.000404603 -0.000891015 0.000800935)
(-0.000414714 -0.000922061 0.000690321)
(-0.000426134 -0.000924604 0.000539215)
(-0.000443035 -0.000898961 0.000371466)
(-0.000462938 -0.000842095 0.000202797)
(-0.000478567 -0.000747745 4.5284e-05)
(-0.000480531 -0.00060948 -8.78921e-05)
(-0.000459303 -0.000428596 -0.000179341)
(-0.000293167 -0.000231053 -7.41889e-05)
(-0.000230547 -3.87765e-05 -4.3607e-05)
(-0.000160618 0.000127166 2.22217e-05)
(-8.42182e-05 0.000266412 0.000112377)
(-4.25718e-06 0.000385134 0.000220038)
(7.45043e-05 0.000491385 0.000338672)
(0.000147227 0.000591157 0.000459593)
(0.00021078 0.000686599 0.000570192)
(0.000264372 0.000776076 0.000653397)
(0.000305956 0.000855315 0.000689579)
(0.000330003 0.000920615 0.000670213)
(0.000331837 0.00096814 0.000606836)
(0.000317472 0.000993 0.000516448)
(0.00029201 0.000990725 0.000413709)
(0.000257628 0.00095514 0.000309886)
(0.000214584 0.000878709 0.000213732)
(0.000163338 0.000755285 0.000133506)
(0.000105803 0.000584108 8.08314e-05)
(4.63487e-05 0.000386271 7.05869e-05)
(-1.22408e-05 0.000194199 0.000100699)
(-6.99742e-05 2.94853e-05 0.000154657)
(-0.000126472 -0.000107281 0.000222968)
(-0.000180446 -0.000221944 0.000301524)
(-0.000230031 -0.000322434 0.000387531)
(-0.000274171 -0.000415182 0.000476782)
(-0.000313838 -0.000503338 0.00056132)
(-0.000352157 -0.000586512 0.000627837)
(-0.000390669 -0.000661347 0.000657548)
(-0.000424591 -0.000725473 0.000637433)
(-0.00044594 -0.000775756 0.000572177)
(-0.000456481 -0.000806164 0.000474722)
(-0.000457842 -0.000810972 0.000358804)
(-0.000449295 -0.000782869 0.000236644)
(-0.000428751 -0.000713264 0.000119124)
(-0.000394962 -0.000595202 1.74383e-05)
(-0.000348666 -0.000427509 -5.34047e-05)
(-0.000185339 -0.000240669 7.08887e-05)
(-0.000136366 -6.1189e-05 9.73503e-05)
(-9.24363e-05 9.35454e-05 0.000148637)
(-4.69415e-05 0.00021936 0.000215386)
(2.9445e-06 0.000320879 0.000289908)
(5.72372e-05 0.000405548 0.000363396)
(0.000114805 0.000480329 0.000425674)
(0.000174519 0.000550444 0.000467996)
(0.000234984 0.000619661 0.000489215)
(0.000292691 0.000690872 0.000502973)
(0.000334059 0.000762177 0.00051057)
(0.000351017 0.000827403 0.000499721)
(0.000341829 0.000877368 0.000466096)
(0.000308458 0.000902481 0.0004146)
(0.000254477 0.000892721 0.000354252)
(0.000184731 0.000838272 0.000294495)
(0.000106764 0.000732416 0.000244122)
(3.20046e-05 0.000577563 0.00021236)
(-2.89472e-05 0.000395265 0.000207434)
(-7.38758e-05 0.000217934 0.000227608)
(-0.000109225 6.68989e-05 0.000264052)
(-0.00014232 -5.45738e-05 0.000310433)
(-0.000176713 -0.00015189 0.000361937)
(-0.0002134 -0.0002327 0.000412225)
(-0.000252805 -0.000303611 0.000453066)
(-0.000296105 -0.000369295 0.000476815)
(-0.000344658 -0.000433398 0.000482208)
(-0.000398503 -0.000499993 0.000481782)
(-0.000444664 -0.000568944 0.00047648)
(-0.000474557 -0.000635527 0.000454183)
(-0.000483476 -0.000690613 0.000408945)
(-0.000469819 -0.000723366 0.000344237)
(-0.000434325 -0.000721983 0.000268429)
(-0.000380044 -0.000675012 0.000191529)
(-0.000313451 -0.000574687 0.000124386)
(-0.000245163 -0.000422852 7.99373e-05)
(-0.000507915 -0.00031064 -0.000170358)
(-0.000415971 -7.46006e-05 -0.000148271)
(-0.000300936 0.000139859 -6.56556e-05)
(-0.000172207 0.000328709 6.50861e-05)
(-3.97794e-05 0.000498487 0.000234394)
(8.61489e-05 0.000657915 0.000434113)
(0.000196559 0.000812806 0.000652671)
(0.000285554 0.000963669 0.0008693)
(0.000351599 0.0011053 0.00104906)
(0.000398016 0.00122617 0.00114016)
(0.000421683 0.00131052 0.00110797)
(0.000412433 0.0013521 0.000980707)
(0.000391237 0.00135658 0.000806345)
(0.000367555 0.00132368 0.000617579)
(0.000343941 0.00125041 0.000435175)
(0.000317195 0.00113162 0.000273029)
(0.000280925 0.000963296 0.000143548)
(0.000228173 0.000749779 6.05816e-05)
(0.000155807 0.000510734 3.47168e-05)
(6.69255e-05 0.000273919 6.46276e-05)
(-3.06807e-05 6.06354e-05 0.000137322)
(-0.000128225 -0.000124027 0.000239587)
(-0.000218719 -0.000285426 0.000364484)
(-0.000297188 -0.000432198 0.000509624)
(-0.000361158 -0.00057184 0.000671794)
(-0.000411367 -0.000708286 0.000840154)
(-0.000451827 -0.000840689 0.000989569)
(-0.000490178 -0.000960922 0.00107561)
(-0.000527395 -0.00105285 0.00105722)
(-0.000548581 -0.00110487 0.000939252)
(-0.000564892 -0.00111917 0.000761464)
(-0.000581762 -0.00109529 0.000556363)
(-0.000598334 -0.00103017 0.000347411)
(-0.00060818 -0.000918576 0.000152868)
(-0.000601941 -0.000756208 -1.00744e-05)
(-0.000570253 -0.000547038 -0.000122962)
(-0.000388049 -0.00031078 -1.06293e-05)
(-0.000308344 -8.90577e-05 1.57062e-05)
(-0.000218555 0.000108698 8.74989e-05)
(-0.000120458 0.000279718 0.000193329)
(-1.81425e-05 0.00042959 0.000324396)
(8.23965e-05 0.000566126 0.000471454)
(0.000175098 0.000695206 0.000622551)
(0.000255784 0.000818824 0.000761635)
(0.000323049 0.000934908 0.000868615)
(0.000376064 0.00103754 0.0009218)
(0.000409038 0.00112142 0.000909597)
(0.000415225 0.00118204 0.000840377)
(0.000400664 0.00121322 0.000733399)
(0.000371467 0.00121014 0.000607748)
(0.000330675 0.00116662 0.000479283)
(0.00027902 0.00107549 0.000360724)
(0.000217025 0.000931438 0.000263425)
(0.000146659 0.000736497 0.000200317)
(7.19645e-05 0.000512671 0.000183071)
(-3.93133e-06 0.000292239 0.000209791)
(-8.00257e-05 9.7531e-05 0.000267468)
(-0.000155236 -6.85769e-05 0.000346054)
(-0.000227396 -0.000211559 0.000439795)
(-0.000293707 -0.000339412 0.000543944)
(-0.00035221 -0.000458785 0.000652093)
(-0.000403237 -0.000573043 0.000754044)
(-0.00044993 -0.000681818 0.000834715)
(-0.000496033 -0.00078053 0.000874819)
(-0.000538198 -0.000865063 0.000858906)
(-0.00056705 -0.000931065 0.000786201)
(-0.000582356 -0.00097085 0.000670012)
(-0.000585622 -0.000977723 0.0005278)
(-0.000576364 -0.000944103 0.000376384)
(-0.000552553 -0.000861688 0.000231035)
(-0.000512604 -0.000724324 0.000106668)
(-0.000456875 -0.000533468 2.0462e-05)
(-0.000272831 -0.000312733 0.000154846)
(-0.000206216 -0.000108262 0.00018079)
(-0.00014171 7.31755e-05 0.00023868)
(-7.39375e-05 0.000226261 0.000318594)
(-1.39341e-06 0.000355439 0.000411109)
(7.41794e-05 0.000468052 0.000505441)
(0.00014971 0.000570508 0.000589402)
(0.000222608 0.000666778 0.000651873)
(0.000290966 0.00075899 0.000687986)
(0.000354497 0.000849385 0.000706191)
(0.000399591 0.000936159 0.000713026)
(0.000418735 0.00101254 0.000699322)
(0.000410102 0.00106851 0.000658392)
(0.000375354 0.00109427 0.000595365)
(0.00031778 0.00107978 0.000520955)
(0.000241972 0.00101521 0.000447166)
(0.000155306 0.000894126 0.000385414)
(6.88366e-05 0.000720227 0.000346246)
(-7.01098e-06 0.0005161 0.000336985)
(-6.94994e-05 0.000314687 0.00035605)
(-0.000123985 0.000138279 0.000395923)
(-0.0001768 -8.83422e-06 0.000450025)
(-0.000230507 -0.000132031 0.000512402)
(-0.000284661 -0.000239086 0.000575474)
(-0.000337979 -0.000336313 0.000629764)
(-0.000390372 -0.000427284 0.000665854)
(-0.00044305 -0.000513863 0.000678808)
(-0.000500119 -0.000599051 0.000675307)
(-0.000549686 -0.000683477 0.000663648)
(-0.00058372 -0.000762201 0.000634325)
(-0.000596799 -0.000825195 0.000577799)
(-0.000586184 -0.000860965 0.000497473)
(-0.000551626 -0.000857158 0.000403303)
(-0.000495468 -0.000801921 0.000307933)
(-0.000423684 -0.000687527 0.00022518)
(-0.000346237 -0.000517033 0.000169955)
(-0.000606734 -0.000406739 -6.91103e-05)
(-0.000501018 -0.000149508 -5.87733e-05)
(-0.000369604 9.13273e-05 1.93999e-05)
(-0.000222342 0.000309893 0.000155579)
(-6.99582e-05 0.000510474 0.000339776)
(7.68919e-05 0.000700448 0.000561203)
(0.00020887 0.000885328 0.000804735)
(0.000319473 0.0010661 0.00104664)
(0.000405679 0.00123809 0.00125132)
(0.000468673 0.00138897 0.00137159)
(0.000504849 0.00149904 0.00136629)
(0.000504025 0.0015575 0.00124417)
(0.000483877 0.00157007 0.0010585)
(0.000455015 0.00153704 0.000849432)
(0.000422013 0.00145611 0.000644229)
(0.000383523 0.00132399 0.000461644)
(0.000334299 0.00113959 0.000316313)
(0.000268077 0.000909863 0.000221097)
(0.00018162 0.000654075 0.000184101)
(7.77071e-05 0.000397693 0.000204264)
(-3.58864e-05 0.000160899 0.000271893)
(-0.000150155 -4.95248e-05 0.000375738)
(-0.000257584 -0.000237041 0.000508216)
(-0.000352791 -0.000409384 0.000664601)
(-0.000432983 -0.000574199 0.000838917)
(-0.00049845 -0.000736393 0.00101867)
(-0.000552327 -0.00089639 0.00117984)
(-0.000600505 -0.00104683 0.00128469)
(-0.000645794 -0.00116947 0.00128904)
(-0.000678316 -0.00124629 0.00117773)
(-0.000699784 -0.00127472 0.000989497)
(-0.000716751 -0.00125513 0.000762775)
(-0.000729891 -0.00118539 0.000527577)
(-0.000734144 -0.00106248 0.000307729)
(-0.00072068 -0.00088528 0.000123523)
(-0.000680145 -0.000660398 -6.68242e-06)
(-0.000485695 -0.000394023 0.000102092)
(-0.000390769 -0.000154598 0.000119383)
(-0.000282627 6.58566e-05 0.000188416)
(-0.000164116 0.000262643 0.000299341)
(-4.04937e-05 0.000440183 0.0004427)
(8.11028e-05 0.000605349 0.000607399)
(0.000193493 0.00076324 0.000779026)
(0.000291459 0.000915131 0.000939101)
(0.00037267 0.00105808 0.00106581)
(0.000436234 0.00118499 0.00113702)
(0.000476781 0.00128828 0.00113782)
(0.000488416 0.00136178 0.00107142)
(0.000475511 0.00139923 0.000958004)
(0.000444417 0.0013961 0.000819983)
(0.000398894 0.00134701 0.000676906)
(0.000340341 0.00124608 0.000544725)
(0.000269497 0.00108969 0.000436853)
(0.0001882 0.00088241 0.000365854)
(9.99337e-05 0.000645526 0.00034041)
(7.87786e-06 0.000408842 0.00035907)
(-8.60995e-05 0.000193726 0.000412578)
(-0.00018005 4.80363e-06 0.000492198)
(-0.000270888 -0.000162465 0.000591584)
(-0.000354825 -0.000315487 0.000704517)
(-0.000428858 -0.000460525 0.000822817)
(-0.000492376 -0.000600636 0.000934789)
(-0.000547865 -0.000735028 0.00102476)
(-0.000599478 -0.000858718 0.00107443)
(-0.000646616 -0.00096523 0.00106653)
(-0.00068226 -0.00104765 0.000994507)
(-0.000702552 -0.00109775 0.00087028)
(-0.00070827 -0.00110821 0.00071341)
(-0.00069911 -0.0010719 0.000544141)
(-0.000673265 -0.000981718 0.000381206)
(-0.000628899 -0.00083323 0.000242026)
(-0.00056577 -0.000630348 0.000144108)
(-0.00036558 -0.00038276 0.000277569)
(-0.000283116 -0.000163555 0.000298416)
(-0.000199368 3.63623e-05 0.00035553)
(-0.000110304 0.000210976 0.000440176)
(-1.59126e-05 0.000364291 0.000542547)
(8.02321e-05 0.000502948 0.000650734)
(0.000173238 0.000632112 0.000751041)
(0.000259213 0.000754035 0.000830322)
(0.000335919 0.000868914 0.000880335)
(0.000403715 0.000977395 0.000904088)
(0.000452274 0.00107843 0.000912348)
(0.000474439 0.00116494 0.000899274)
(0.000467855 0.00122626 0.00085634)
(0.000433848 0.00125283 0.000788533)
(0.000375307 0.00123536 0.00070752)
(0.000296376 0.0011649 0.000626887)
(0.000203898 0.00103582 0.000559387)
(0.000108217 0.000852802 0.000515438)
(1.93478e-05 0.000638008 0.00050096)
(-5.95552e-05 0.000423038 0.000514839)
(-0.000132745 0.000229796 0.000551769)
(-0.000205376 6.30789e-05 0.000606392)
(-0.000278761 -8.2223e-05 0.000672679)
(-0.000350851 -0.00021342 0.000742405)
(-0.000418681 -0.000335891 0.000805183)
(-0.000480889 -0.000451735 0.00085016)
(-0.000538595 -0.000560809 0.000869463)
(-0.000595846 -0.000663817 0.000864487)
(-0.000647235 -0.000762644 0.000847978)
(-0.000685202 -0.000852525 0.00081386)
(-0.00070288 -0.000923026 0.000751164)
(-0.000696457 -0.000962329 0.000662656)
(-0.000664638 -0.000958147 0.000558761)
(-0.000608922 -0.000898992 0.000453464)
(-0.00053448 -0.0007777 0.000361971)
(-0.000450356 -0.000598261 0.00029943)
(-0.000707679 -0.000508325 8.59669e-05)
(-0.00058994 -0.00024173 8.10733e-05)
(-0.00044345 1.54238e-05 0.000146918)
(-0.00027863 0.000256396 0.000277009)
(-0.000106945 0.000483348 0.000462222)
(6.03694e-05 0.000701936 0.000690564)
(0.000213381 0.000916716 0.000945017)
(0.000344617 0.00112824 0.00120095)
(0.000449449 0.00133136 0.00142429)
(0.000526548 0.00151265 0.00157194)
(0.000573007 0.00164955 0.00159683)
(0.000583294 0.00172634 0.00149141)
(0.000566448 0.00174752 0.00130953)
(0.000534637 0.00171601 0.00109544)
(0.000494214 0.0016312 0.000880859)
(0.000445799 0.00149227 0.000688332)
(0.000385589 0.00130116 0.000533958)
(0.000307951 0.00106684 0.000429319)
(0.000209214 0.000807006 0.0003805)
(9.14309e-05 0.000543338 0.000386866)
(-3.78231e-05 0.000293507 0.000441934)
(-0.000169255 6.50421e-05 0.000537229)
(-0.000294768 -0.000143709 0.000665623)
(-0.000408305 -0.000339177 0.00082104)
(-0.000506191 -0.000528482 0.000995779)
(-0.000587481 -0.000716566 0.00117696)
(-0.000653811 -0.00090403 0.00134302)
(-0.000709058 -0.00108408 0.00146151)
(-0.000758528 -0.00123825 0.001488)
(-0.000800571 -0.00134327 0.00139614)
(-0.000826745 -0.00138869 0.0012139)
(-0.000844532 -0.00137662 0.000982012)
(-0.000855481 -0.00130684 0.00073554)
(-0.000855766 -0.0011793 0.000502677)
(-0.000837151 -0.00099643 0.000305855)
(-0.000790032 -0.000767013 0.000162841)
(-0.00058446 -0.000477023 0.000258871)
(-0.000476752 -0.000230205 0.000263777)
(-0.000352452 3.9398e-06 0.0003229)
(-0.000215422 0.000219696 0.000429244)
(-7.20203e-05 0.000420252 0.000573911)
(6.95079e-05 0.000611218 0.000745014)
(0.000200837 0.000796428 0.000926832)
(0.000315562 0.000975906 0.00109979)
(0.000410169 0.00114543 0.00124166)
(0.000483231 0.00129681 0.00133011)
(0.000530947 0.00141983 0.00134696)
(0.000549275 0.00150621 0.00129065)
(0.000539546 0.00155042 0.00118082)
(0.000508138 0.00154868 0.00104152)
(0.000459507 0.00149708 0.000894436)
(0.000395821 0.00139164 0.000757619)
(0.000318166 0.00123087 0.000645481)
(0.000228153 0.00102118 0.000569266)
(0.000128506 0.000782129 0.000535117)
(2.21407e-05 0.000539853 0.000542233)
(-8.84657e-05 0.000313657 0.00058508)
(-0.000200518 0.000109003 0.000657402)
(-0.000310008 -7.76274e-05 0.000753261)
(-0.000412078 -0.000252695 0.000865695)
(-0.000502467 -0.000421587 0.000985479)
(-0.000579206 -0.00058653 0.00110033)
(-0.000643576 -0.000745934 0.00119493)
(-0.000699494 -0.00089443 0.00125199)
(-0.000749692 -0.00102316 0.00125355)
(-0.000790569 -0.00112284 0.00118936)
(-0.000815186 -0.00118485 0.00106775)
(-0.000823487 -0.00120131 0.000908301)
(-0.00081518 -0.00116597 0.000733128)
(-0.000788591 -0.00107357 0.000563161)
(-0.00074163 -0.000921792 0.000417063)
(-0.000673327 -0.000716469 0.000311465)
(-0.000459172 -0.000446964 0.000434573)
(-0.000363763 -0.000221849 0.000446916)
(-0.000263623 -1.13349e-05 0.000497076)
(-0.000155856 0.00017848 0.000578777)
(-4.18144e-05 0.000351161 0.00068292)
(7.32864e-05 0.000512367 0.000797259)
(0.000182942 0.000665697 0.000907233)
(0.000281983 0.00081148 0.000998276)
(0.000367645 0.000947844 0.0010597)
(0.000439565 0.00107343 0.00109054)
(0.000492073 0.0011877 0.00110206)
(0.000517897 0.00128354 0.00109195)
(0.000514252 0.0013503 0.00105208)
(0.000482111 0.00137873 0.000986471)
(0.000424064 0.00136066 0.000906567)
(0.000343883 0.00128859 0.00082634)
(0.000247777 0.00115809 0.000758639)
(0.000145266 0.000974262 0.000712664)
(4.58255e-05 0.000757977 0.000692646)
(-4.7161e-05 0.000538524 0.000698202)
(-0.000137066 0.00033655 0.000726892)
(-0.000228002 0.000156713 0.000775637)
(-0.000320066 -5.82733e-06 0.000839178)
(-0.000409703 -0.000157612 0.000909185)
(-0.000492356 -0.000302751 0.000974792)
(-0.000565244 -0.000441675 0.00102426)
(-0.000628901 -0.000572157 0.00104798)
(-0.00068645 -0.000692469 0.00104399)
(-0.000739582 -0.000804884 0.00102385)
(-0.000780372 -0.00090505 0.000986475)
(-0.000801783 -0.000983125 0.000922826)
(-0.000799308 -0.0010272 0.000833845)
(-0.000770715 -0.00102534 0.000729073)