/*--------------------------------*- C++ -*----------------------------------*\
| =========                 |                                                 |
| \\      /  F ield         | OpenFOAM: The Open Source CFD Toolbox           |
|  \\    /   O peration     | Version:  2312                                  |
|   \\  /    A nd           | Website:  www.openfoam.com                      |
|    \\/     M anipulation  |                                                 |
\*---------------------------------------------------------------------------*/
FoamFile
{
    version     2.0;
    format      ascii;
    arch        "LSB;label=32;scalar=64";
    class       volTensorField;
    location    "0.2";
    object      F;
}
// * * * * * * * * * * * * * * * * * * * * * * * * * * * * * * * * * * * * * //

dimensions      [0 0 0 0 0 0 0];

internalField   nonuniform List<tensor> 
1620
(
(1.04888 -0.00696359 -0.193862 0.0369046 0.998573 0.124804 0.0170475 -0.0206388 0.93829)
(1.02273 -0.0143918 -0.188433 0.032917 0.996382 0.137347 -0.00191135 -0.0214218 0.975726)
(0.999815 -0.0235711 -0.172245 0.0155118 0.993586 0.143398 -0.013182 -0.022002 1.00945)
(0.98605 -0.0314384 -0.152931 -0.00489094 0.986063 0.142033 -0.0159587 -0.022026 1.03701)
(0.982246 -0.0343916 -0.134832 -0.0209332 0.973747 0.134647 -0.0135543 -0.0203905 1.05752)
(0.985348 -0.0305904 -0.120025 -0.0295931 0.960059 0.122898 -0.00970074 -0.016812 1.07072)
(0.991226 -0.0203407 -0.109042 -0.0312272 0.948983 0.107777 -0.00670753 -0.0120193 1.0768)
(0.996593 -0.00562376 -0.101026 -0.0280988 0.943435 0.0894933 -0.005459 -0.00707288 1.07619)
(0.999748 0.0107046 -0.0939112 -0.0231866 0.944751 0.0678927 -0.00598515 -0.00282395 1.06945)
(1.00064 0.0256478 -0.0848045 -0.0193614 0.952749 0.0430107 -0.00799123 0.000324994 1.057)
(1.00066 0.0366076 -0.0705545 -0.0187777 0.965978 0.0155111 -0.0112488 0.00245525 1.03914)
(1.00225 0.0417889 -0.0484741 -0.0223046 0.981996 -0.0131212 -0.0158394 0.00401235 1.01608)
(1.00821 0.0405736 -0.017137 -0.0289192 0.997707 -0.0407108 -0.0221523 0.0055833 0.988375)
(1.02052 0.0338313 0.0228842 -0.0352726 1.00994 -0.0648889 -0.0304585 0.00768186 0.957593)
(1.03862 0.023896 0.0685849 -0.0360756 1.01637 -0.0838891 -0.0399633 0.0106366 0.927201)
(1.05801 0.0137323 0.1147 -0.0261652 1.01638 -0.0973109 -0.047629 0.0143863 0.90318)
(1.07068 0.00521715 0.154778 -0.00437375 1.0111 -0.106389 -0.0479044 0.0178558 0.893711)
(1.06801 -0.00120553 0.182849 0.0218713 1.00375 -0.113762 -0.0363693 0.0196925 0.906496)
(1.04888 -0.00696359 0.193862 0.0369046 0.998573 -0.124804 -0.0170475 0.0206388 0.93829)
(1.02273 -0.0143918 0.188433 0.032917 0.996382 -0.137347 0.00191135 0.0214218 0.975726)
(0.999815 -0.0235711 0.172245 0.0155118 0.993586 -0.143398 0.013182 0.022002 1.00945)
(0.98605 -0.0314384 0.152931 -0.00489094 0.986063 -0.142033 0.0159587 0.022026 1.03701)
(0.982246 -0.0343916 0.134832 -0.0209332 0.973747 -0.134647 0.0135543 0.0203905 1.05752)
(0.985348 -0.0305904 0.120025 -0.0295931 0.960059 -0.122898 0.00970074 0.016812 1.07072)
(0.991226 -0.0203407 0.109042 -0.0312272 0.948983 -0.107777 0.00670753 0.0120193 1.0768)
(0.996593 -0.00562376 0.101026 -0.0280988 0.943435 -0.0894933 0.005459 0.00707288 1.07619)
(0.999748 0.0107046 0.0939112 -0.0231866 0.944751 -0.0678927 0.00598515 0.00282395 1.06945)
(1.00064 0.0256478 0.0848045 -0.0193614 0.952749 -0.0430107 0.00799123 -0.000324994 1.057)
(1.00066 0.0366076 0.0705545 -0.0187777 0.965978 -0.0155111 0.0112488 -0.00245525 1.03914)
(1.00225 0.0417889 0.0484741 -0.0223046 0.981996 0.0131212 0.0158394 -0.00401235 1.01608)
(1.00821 0.0405736 0.017137 -0.0289192 0.997707 0.0407108 0.0221523 -0.0055833 0.988375)
(1.02052 0.0338313 -0.0228841 -0.0352726 1.00994 0.0648889 0.0304585 -0.00768186 0.957593)
(1.03862 0.023896 -0.0685849 -0.0360756 1.01637 0.0838891 0.0399633 -0.0106366 0.927201)
(1.05801 0.0137323 -0.1147 -0.0261652 1.01638 0.0973109 0.047629 -0.0143863 0.90318)
(1.07068 0.00521715 -0.154778 -0.00437375 1.0111 0.106389 0.0479044 -0.0178558 0.893711)
(1.06801 -0.00120553 -0.182849 0.0218713 1.00375 0.113762 0.0363693 -0.0196925 0.906496)
(1.04865 0.00880396 -0.175925 0.0287317 0.993873 0.13253 0.0153569 -0.00786313 0.944066)
(1.02449 0.00439695 -0.178229 0.0256895 1.00182 0.143942 -0.000704606 -0.0106283 0.964135)
(1.00277 -0.00685397 -0.173304 0.00918202 1.00535 0.145501 -0.00953325 -0.0151675 0.986275)
(0.990243 -0.0198352 -0.162755 -0.0104453 0.999951 0.138521 -0.0105855 -0.0183609 1.0081)
(0.988054 -0.0286471 -0.148654 -0.0256499 0.987032 0.125582 -0.00747717 -0.0182649 1.02696)
(0.993035 -0.0296935 -0.133185 -0.0331291 0.971187 0.109201 -0.00388316 -0.0151137 1.04109)
(1.00068 -0.0225116 -0.117801 -0.0329416 0.95735 0.090937 -0.00180226 -0.0103767 1.04951)
(1.0072 -0.00906161 -0.102804 -0.0272489 0.949299 0.0713892 -0.00174235 -0.00560124 1.05189)
(1.01035 0.00730702 -0.0873798 -0.0192694 0.949067 0.0506749 -0.00335083 -0.00183696 1.04829)
(1.00975 0.0227718 -0.0699728 -0.0124358 0.956805 0.0289399 -0.00596065 0.000567929 1.03906)
(1.00674 0.0338046 -0.0488501 -0.00964528 0.970854 0.00667984 -0.00904126 0.00196459 1.02476)
(1.00412 0.0378772 -0.0227321 -0.0124939 0.98796 -0.0152084 -0.0125502 0.00319563 1.00621)
(1.00548 0.0341973 0.0086251 -0.0204478 1.00372 -0.0356474 -0.0170479 0.00516672 0.98463)
(1.01388 0.0243817 0.0440337 -0.0301535 1.01353 -0.0538206 -0.0233386 0.00826469 0.961873)
(1.02994 0.0125548 0.080847 -0.0355907 1.01435 -0.0696791 -0.0314274 0.0117984 0.940761)
(1.04976 0.00401269 0.115487 -0.0301813 1.00668 -0.0842009 -0.0389548 0.0138261 0.925243)
(1.06475 0.00232062 0.14449 -0.0113961 0.995694 -0.0989553 -0.0405164 0.0124053 0.92003)
(1.06502 0.00615666 0.164943 0.0134362 0.990054 -0.115625 -0.0315975 0.00898439 0.927808)
(1.04865 0.00880396 0.175925 0.0287317 0.993873 -0.13253 -0.0153569 0.00786313 0.944066)
(1.02449 0.00439695 0.178229 0.0256895 1.00182 -0.143942 0.000704605 0.0106283 0.964135)
(1.00277 -0.00685397 0.173304 0.00918202 1.00535 -0.145501 0.00953325 0.0151675 0.986275)
(0.990243 -0.0198352 0.162755 -0.0104453 0.999951 -0.138521 0.0105855 0.0183609 1.0081)
(0.988054 -0.0286471 0.148654 -0.0256499 0.987032 -0.125582 0.00747717 0.0182649 1.02696)
(0.993035 -0.0296935 0.133185 -0.0331291 0.971187 -0.109201 0.00388316 0.0151137 1.04109)
(1.00068 -0.0225116 0.117801 -0.0329416 0.95735 -0.090937 0.00180226 0.0103767 1.04951)
(1.0072 -0.00906161 0.102804 -0.0272489 0.949299 -0.0713892 0.00174235 0.00560124 1.05189)
(1.01035 0.00730702 0.0873798 -0.0192694 0.949067 -0.0506749 0.00335083 0.00183696 1.04829)
(1.00975 0.0227718 0.0699728 -0.0124358 0.956805 -0.0289399 0.00596065 -0.00056793 1.03906)
(1.00674 0.0338046 0.0488501 -0.00964528 0.970854 -0.00667984 0.00904126 -0.00196459 1.02476)
(1.00412 0.0378772 0.0227321 -0.0124939 0.98796 0.0152084 0.0125502 -0.00319563 1.00621)
(1.00548 0.0341973 -0.0086251 -0.0204478 1.00372 0.0356474 0.0170479 -0.00516672 0.98463)
(1.01388 0.0243817 -0.0440337 -0.0301535 1.01353 0.0538206 0.0233386 -0.00826469 0.961873)
(1.02994 0.0125548 -0.080847 -0.0355907 1.01435 0.0696791 0.0314274 -0.0117984 0.940761)
(1.04976 0.00401269 -0.115487 -0.0301813 1.00668 0.0842009 0.0389548 -0.0138261 0.925243)
(1.06475 0.00232062 -0.14449 -0.0113961 0.995694 0.0989553 0.0405164 -0.0124053 0.92003)
(1.06502 0.00615666 -0.164943 0.0134362 0.990054 0.115625 0.0315975 -0.00898439 0.927808)
(1.04869 0.0209313 -0.150662 0.0198073 0.986809 0.138499 0.013889 0.000949016 0.951122)
(1.02718 0.0214841 -0.163262 0.0184673 1.00309 0.150053 0.00139188 -0.00228214 0.955609)
(1.00608 0.0112249 -0.170661 0.00373444 1.01366 0.148257 -0.00503054 -0.00892914 0.965908)
(0.993436 -0.00493728 -0.169548 -0.0150864 1.0125 0.136046 -0.00481529 -0.0142152 0.981126)
(0.991729 -0.0193773 -0.160156 -0.0302616 1.00096 0.117448 -0.00148521 -0.0153466 0.99767)
(0.998363 -0.0262601 -0.144665 -0.0376373 0.984075 0.0960386 0.00147934 -0.0126931 1.01228)
(1.00847 -0.0234632 -0.125353 -0.0363369 0.96764 0.0741404 0.0023434 -0.00820145 1.02273)
(1.01728 -0.0122648 -0.103669 -0.0280592 0.956667 0.0529244 0.000939057 -0.00383454 1.02781)
(1.02147 0.00370654 -0.0801241 -0.0163067 0.954378 0.032915 -0.00196281 -0.000841108 1.02708)
(1.0199 0.0196541 -0.0546322 -0.00545751 0.961592 0.0144453 -0.00524607 0.000501779 1.0208)
(1.01385 0.0308393 -0.0270491 0.000349767 0.976471 -0.00215161 -0.00802458 0.000874425 1.00986)
(1.00672 0.0338339 0.00232458 -0.00153756 0.994712 -0.0166468 -0.0101573 0.00158146 0.995693)
(1.00317 0.0277248 0.0324333 -0.0110348 1.01034 -0.0292389 -0.0124872 0.00384961 0.980203)
(1.00747 0.0149865 0.0614867 -0.0244296 1.01734 -0.040909 -0.0164755 0.00784852 0.965578)
(1.02119 0.00139853 0.0873758 -0.0346469 1.01231 -0.0535184 -0.0229151 0.0118265 0.953988)
(1.04099 -0.00576506 0.10842 -0.0337225 0.997303 -0.0693666 -0.0299021 0.012429 0.9472)
(1.0579 -0.00169602 0.124309 -0.0181625 0.981399 -0.0901459 -0.0322258 0.0078693 0.945838)
(1.06134 0.0106019 0.137165 0.00450748 0.976727 -0.115658 -0.0261003 0.00163476 0.948027)
(1.04869 0.0209313 0.150662 0.0198073 0.986809 -0.138499 -0.013889 -0.000949016 0.951122)
(1.02718 0.0214841 0.163262 0.0184673 1.00309 -0.150053 -0.00139188 0.00228214 0.955609)
(1.00608 0.0112249 0.170661 0.00373444 1.01366 -0.148257 0.00503054 0.00892914 0.965908)
(0.993436 -0.00493728 0.169548 -0.0150864 1.0125 -0.136046 0.00481529 0.0142152 0.981126)
(0.991729 -0.0193773 0.160156 -0.0302616 1.00096 -0.117448 0.00148521 0.0153466 0.99767)
(0.998363 -0.0262601 0.144665 -0.0376373 0.984075 -0.0960386 -0.00147934 0.0126931 1.01228)
(1.00847 -0.0234632 0.125353 -0.0363369 0.96764 -0.0741404 -0.0023434 0.00820145 1.02273)
(1.01728 -0.0122648 0.103669 -0.0280592 0.956667 -0.0529244 -0.000939057 0.00383454 1.02781)
(1.02147 0.00370654 0.0801241 -0.0163067 0.954378 -0.032915 0.00196281 0.000841108 1.02708)
(1.0199 0.0196541 0.0546322 -0.00545751 0.961592 -0.0144453 0.00524607 -0.000501779 1.0208)
(1.01385 0.0308393 0.0270491 0.000349767 0.976471 0.00215161 0.00802458 -0.000874425 1.00986)
(1.00672 0.0338339 -0.00232458 -0.00153756 0.994712 0.0166468 0.0101573 -0.00158146 0.995693)
(1.00317 0.0277248 -0.0324333 -0.0110348 1.01034 0.0292389 0.0124872 -0.00384961 0.980203)
(1.00747 0.0149865 -0.0614867 -0.0244296 1.01734 0.040909 0.0164755 -0.00784852 0.965578)
(1.02119 0.00139853 -0.0873758 -0.0346469 1.01231 0.0535184 0.0229151 -0.0118265 0.953988)
(1.04099 -0.00576506 -0.10842 -0.0337225 0.997303 0.0693666 0.0299021 -0.012429 0.9472)
(1.0579 -0.00169602 -0.124309 -0.0181625 0.981399 0.0901459 0.0322258 -0.0078693 0.945838)
(1.06134 0.0106019 -0.137165 0.00450748 0.976727 0.115658 0.0261003 -0.00163476 0.948027)
(1.08439 -0.00262025 -0.179595 0.054725 0.986584 0.142282 0.0317319 -0.0623226 0.919838)
(1.04565 -0.0239534 -0.176921 0.0489562 0.98826 0.148225 -0.0133489 -0.0695959 0.960042)
(1.00676 -0.0456046 -0.164307 0.0208776 0.991082 0.147592 -0.0392568 -0.0749635 1.00042)
(0.982743 -0.0620056 -0.147689 -0.0130032 0.984402 0.142417 -0.0462103 -0.0780251 1.03554)
(0.97639 -0.0678629 -0.130965 -0.040926 0.96747 0.133449 -0.0419358 -0.0765513 1.06267)
(0.982271 -0.0603496 -0.116388 -0.0574741 0.945937 0.121336 -0.0338268 -0.0703458 1.08089)
(0.993057 -0.040145 -0.104723 -0.0627694 0.926685 0.106468 -0.0265557 -0.0611077 1.0903)
(1.00302 -0.0106921 -0.0953973 -0.0601484 0.91494 0.0888522 -0.0222165 -0.0511431 1.09145)
(1.00907 0.0231562 -0.0867152 -0.0540873 0.913416 0.06832 -0.0212064 -0.0423248 1.08497)
(1.01072 0.0562035 -0.0762405 -0.0488756 0.922447 0.0449012 -0.0231795 -0.0355107 1.07138)
(1.00969 0.0835821 -0.0613307 -0.0477735 0.940344 0.0191494 -0.0278605 -0.0304036 1.05105)
(1.00948 0.101293 -0.0397988 -0.0522364 0.963666 -0.00772944 -0.0355588 -0.0258157 1.02442)
(1.01445 0.106862 -0.0106168 -0.0610243 0.987594 -0.0340513 -0.047105 -0.0202126 0.992426)
(1.02834 0.100096 0.0255139 -0.0694957 1.00676 -0.0581837 -0.062913 -0.0122385 0.957185)
(1.05179 0.0835112 0.0659845 -0.0699746 1.01683 -0.0793079 -0.0812071 -0.000872832 0.922609)
(1.07998 0.0617516 0.106639 -0.0543707 1.01633 -0.0979056 -0.0962646 0.0146523 0.894712)
(1.1022 0.0392566 0.142413 -0.0196106 1.00737 -0.115105 -0.0983031 0.0338516 0.88118)
(1.10627 0.0177965 0.168001 0.0264232 0.994294 -0.130689 -0.0762367 0.0511108 0.889325)
(1.08439 -0.00262025 0.179595 0.054725 0.986584 -0.142282 -0.0317319 0.0623226 0.919838)
(1.04565 -0.0239534 0.176921 0.0489562 0.98826 -0.148225 0.0133489 0.0695959 0.960042)
(1.00676 -0.0456046 0.164307 0.0208776 0.991082 -0.147592 0.0392568 0.0749635 1.00042)
(0.982743 -0.0620056 0.147689 -0.0130032 0.984402 -0.142417 0.0462103 0.0780251 1.03554)
(0.97639 -0.0678629 0.130965 -0.040926 0.96747 -0.133449 0.0419358 0.0765513 1.06267)
(0.982271 -0.0603496 0.116388 -0.0574741 0.945937 -0.121336 0.0338268 0.0703458 1.08089)
(0.993057 -0.040145 0.104723 -0.0627694 0.926685 -0.106468 0.0265557 0.0611077 1.0903)
(1.00302 -0.0106921 0.0953973 -0.0601484 0.91494 -0.0888522 0.0222165 0.0511431 1.09145)
(1.00907 0.0231562 0.0867152 -0.0540873 0.913416 -0.06832 0.0212064 0.0423248 1.08497)
(1.01072 0.0562035 0.0762405 -0.0488756 0.922447 -0.0449012 0.0231795 0.0355107 1.07138)
(1.00969 0.0835821 0.0613307 -0.0477735 0.940344 -0.0191494 0.0278605 0.0304036 1.05105)
(1.00948 0.101293 0.0397988 -0.0522364 0.963666 0.00772944 0.0355588 0.0258157 1.02442)
(1.01445 0.106862 0.0106168 -0.0610243 0.987594 0.0340513 0.047105 0.0202126 0.992426)
(1.02834 0.100096 -0.0255139 -0.0694957 1.00676 0.0581837 0.062913 0.0122385 0.957185)
(1.05179 0.0835112 -0.0659845 -0.0699746 1.01683 0.0793079 0.0812071 0.000872832 0.922609)
(1.07998 0.0617516 -0.106639 -0.0543707 1.01633 0.0979056 0.0962646 -0.0146523 0.894712)
(1.1022 0.0392566 -0.142413 -0.0196106 1.00737 0.115105 0.0983031 -0.0338516 0.88118)
(1.10627 0.0177965 -0.168001 0.0264232 0.994294 0.130689 0.0762367 -0.0511108 0.889325)
(1.08975 0.019156 -0.163408 0.0447325 0.977151 0.134041 0.0298152 -0.0323941 0.925292)
(1.04836 0.00645106 -0.167523 0.0404969 0.99606 0.142198 -0.0127779 -0.0441674 0.949104)
(1.0082 -0.0179315 -0.164523 0.0124292 1.00892 0.141972 -0.0362116 -0.0604189 0.9769)
(0.985977 -0.0442505 -0.155728 -0.0222773 1.00532 0.134835 -0.0403914 -0.0721252 1.00372)
(0.983892 -0.0608335 -0.143166 -0.0506273 0.986877 0.122549 -0.0339692 -0.0751361 1.02649)
(0.995127 -0.0612174 -0.128809 -0.0663336 0.961238 0.106962 -0.0249738 -0.0703994 1.04344)
(1.01098 -0.0450672 -0.113963 -0.0690715 0.93705 0.0893549 -0.0181292 -0.061168 1.05368)
(1.0245 -0.0162177 -0.0989525 -0.0621953 0.921054 0.0703459 -0.0151391 -0.0509122 1.05691)
(1.03161 0.0193123 -0.0831643 -0.0507375 0.917111 0.0501896 -0.015707 -0.0421344 1.05321)
(1.03122 0.054682 -0.0653726 -0.0400629 0.926116 0.0291498 -0.0186452 -0.0357503 1.043)
(1.02506 0.0831961 -0.0442403 -0.0348522 0.946067 0.00774001 -0.0229558 -0.0309746 1.02692)
(1.01743 0.0993088 -0.0188691 -0.0379774 0.972166 -0.0132563 -0.0287019 -0.0258034 1.00596)
(1.01443 0.0999615 0.0107154 -0.0490886 0.997292 -0.0329991 -0.03725 -0.0180842 0.981621)
(1.02214 0.0860887 0.0432763 -0.0633144 1.01351 -0.0509899 -0.0503556 -0.00685675 0.956105)
(1.04343 0.0634076 0.0764297 -0.0713028 1.01502 -0.067495 -0.0678657 0.00672344 0.932432)
(1.07438 0.0410343 0.107172 -0.0622566 1.0019 -0.0836475 -0.0848081 0.019589 0.914324)
(1.10276 0.0267791 0.132847 -0.0307869 0.981785 -0.10069 -0.090156 0.0279017 0.905743)
(1.11152 0.0221313 0.151734 0.0147495 0.969688 -0.118383 -0.0710051 0.0297072 0.909779)
(1.08975 0.019156 0.163408 0.0447325 0.977151 -0.134041 -0.0298152 0.0323941 0.925292)
(1.04836 0.00645106 0.167523 0.0404969 0.99606 -0.142198 0.0127779 0.0441674 0.949104)
(1.0082 -0.0179315 0.164523 0.0124292 1.00892 -0.141972 0.0362116 0.0604189 0.9769)
(0.985977 -0.0442505 0.155728 -0.0222773 1.00532 -0.134835 0.0403914 0.0721252 1.00372)
(0.983892 -0.0608335 0.143166 -0.0506273 0.986877 -0.122549 0.0339692 0.0751361 1.02649)
(0.995127 -0.0612174 0.128809 -0.0663336 0.961238 -0.106962 0.0249738 0.0703994 1.04344)
(1.01098 -0.0450672 0.113963 -0.0690715 0.93705 -0.0893549 0.0181292 0.061168 1.05368)
(1.0245 -0.0162177 0.0989525 -0.0621953 0.921054 -0.0703459 0.0151391 0.0509122 1.05691)
(1.03161 0.0193123 0.0831643 -0.0507375 0.917111 -0.0501896 0.015707 0.0421344 1.05321)
(1.03122 0.054682 0.0653726 -0.0400629 0.926116 -0.0291498 0.0186452 0.0357503 1.043)
(1.02506 0.0831961 0.0442403 -0.0348522 0.946067 -0.00774002 0.0229558 0.0309746 1.02692)
(1.01743 0.0993088 0.0188691 -0.0379774 0.972166 0.0132563 0.0287019 0.0258034 1.00596)
(1.01443 0.0999615 -0.0107154 -0.0490886 0.997292 0.0329991 0.03725 0.0180842 0.981621)
(1.02214 0.0860887 -0.0432763 -0.0633144 1.01351 0.0509899 0.0503556 0.00685675 0.956105)
(1.04343 0.0634075 -0.0764297 -0.0713028 1.01502 0.067495 0.0678657 -0.00672344 0.932432)
(1.07438 0.0410343 -0.107172 -0.0622566 1.0019 0.0836475 0.0848081 -0.019589 0.914324)
(1.10276 0.0267791 -0.132847 -0.0307869 0.981785 0.10069 0.090156 -0.0279017 0.905743)
(1.11152 0.0221313 -0.151734 0.0147495 0.969688 0.118383 0.0710051 -0.0297072 0.909779)
(1.09587 0.042713 -0.140531 0.033566 0.96317 0.127963 0.027773 -0.00496678 0.934194)
(1.05155 0.0408721 -0.15302 0.031363 0.998473 0.138704 -0.0117838 -0.0185139 0.941808)
(1.00925 0.0152244 -0.160449 0.00387879 1.02357 0.138845 -0.033036 -0.0437207 0.955512)
(0.987645 -0.0206385 -0.160045 -0.0320703 1.02622 0.129629 -0.0346792 -0.0641618 0.972817)
(0.989252 -0.049097 -0.152119 -0.061971 1.0086 0.113922 -0.0260581 -0.0723924 0.990481)
(1.00648 -0.0593987 -0.138414 -0.0779926 0.979807 0.0947156 -0.0161194 -0.06968 1.00574)
(1.02902 -0.0491318 -0.120777 -0.0786301 0.950413 0.0742108 -0.00983858 -0.0607439 1.01655)
(1.04796 -0.0218779 -0.100442 -0.0668671 0.92929 0.053712 -0.00852498 -0.0503848 1.02168)
(1.05745 0.0152197 -0.0779171 -0.0484185 0.922164 0.0339585 -0.0110269 -0.0418835 1.02066)
(1.05521 0.0532409 -0.0532654 -0.0302993 0.93095 0.0154671 -0.0150804 -0.0362334 1.01378)
(1.04295 0.0830358 -0.0265484 -0.0193847 0.953344 -0.00132748 -0.0187783 -0.0320351 1.00198)
(1.02622 0.0970428 0.00176657 -0.0205803 0.982739 -0.0161677 -0.0219242 -0.0262716 0.98683)
(1.01359 0.0915703 0.0305802 -0.0345515 1.00906 -0.0292214 -0.0266436 -0.0160626 0.970388)
(1.01408 0.0690486 0.0582135 -0.0557187 1.02144 -0.0413139 -0.0364206 -0.0009869 0.95492)
(1.03292 0.0388274 0.082756 -0.0722755 1.01292 -0.0539095 -0.0530505 0.0151821 0.942449)
(1.067 0.0148116 0.10263 -0.0702739 0.985899 -0.0686721 -0.072284 0.0250207 0.934239)
(1.10259 0.00952497 0.117365 -0.0421448 0.954546 -0.0865701 -0.081208 0.0220136 0.930564)
(1.11715 0.0248484 0.128526 0.00234313 0.942841 -0.107791 -0.0649486 0.0101073 0.930988)
(1.09587 0.042713 0.140531 0.033566 0.96317 -0.127963 -0.027773 0.00496678 0.934194)
(1.05155 0.0408721 0.15302 0.031363 0.998473 -0.138704 0.0117838 0.0185139 0.941808)
(1.00925 0.0152244 0.160449 0.00387879 1.02357 -0.138845 0.033036 0.0437207 0.955512)
(0.987645 -0.0206385 0.160045 -0.0320703 1.02622 -0.129629 0.0346792 0.0641618 0.972817)
(0.989252 -0.049097 0.152119 -0.061971 1.0086 -0.113922 0.0260581 0.0723924 0.990481)
(1.00648 -0.0593987 0.138414 -0.0779926 0.979807 -0.0947156 0.0161194 0.06968 1.00574)
(1.02902 -0.0491318 0.120777 -0.0786301 0.950413 -0.0742108 0.00983858 0.0607439 1.01655)
(1.04796 -0.0218779 0.100442 -0.0668671 0.92929 -0.053712 0.00852498 0.0503848 1.02168)
(1.05745 0.0152197 0.0779171 -0.0484185 0.922164 -0.0339585 0.0110269 0.0418835 1.02066)
(1.05521 0.0532409 0.0532654 -0.0302993 0.93095 -0.0154671 0.0150804 0.0362334 1.01378)
(1.04295 0.0830358 0.0265484 -0.0193847 0.953344 0.00132748 0.0187783 0.0320351 1.00198)
(1.02622 0.0970428 -0.00176656 -0.0205803 0.982739 0.0161677 0.0219242 0.0262716 0.98683)
(1.01359 0.0915703 -0.0305802 -0.0345515 1.00906 0.0292214 0.0266436 0.0160626 0.970388)
(1.01408 0.0690486 -0.0582135 -0.0557187 1.02144 0.0413139 0.0364206 0.0009869 0.95492)
(1.03292 0.0388274 -0.082756 -0.0722755 1.01292 0.0539095 0.0530505 -0.0151821 0.942449)
(1.067 0.0148116 -0.10263 -0.0702739 0.985899 0.0686721 0.072284 -0.0250207 0.934239)
(1.10259 0.00952497 -0.117365 -0.0421448 0.954546 0.0865701 0.081208 -0.0220136 0.930564)
(1.11715 0.0248484 -0.128526 0.00234313 0.942841 0.107791 0.0649486 -0.0101073 0.930988)
(1.11182 0.00520778 -0.146672 0.0100737 0.976569 0.165074 0.0467281 -0.108112 0.896216)
(1.0639 -0.0278179 -0.148023 0.014308 0.982602 0.1628 -0.0180294 -0.129499 0.9396)
(1.01454 -0.0602425 -0.141193 -0.00509427 0.98738 0.154995 -0.058397 -0.144312 0.988962)
(0.983325 -0.0847954 -0.129343 -0.036648 0.979318 0.145978 -0.0752913 -0.154003 1.0353)
(0.974193 -0.0951767 -0.115833 -0.066568 0.958354 0.135985 -0.075473 -0.157129 1.07276)
(0.98126 -0.0874571 -0.103038 -0.086039 0.930482 0.124391 -0.0669692 -0.153346 1.09899)
(0.995666 -0.0620518 -0.09191 -0.0929942 0.903884 0.110692 -0.0562197 -0.144427 1.11376)
(1.00994 -0.0229611 -0.0821649 -0.0900836 0.885451 0.0945632 -0.0471021 -0.133102 1.1178)
(1.01959 0.0237655 -0.0726177 -0.0820977 0.879358 0.0758225 -0.0413427 -0.121676 1.11192)
(1.02328 0.0712654 -0.0615495 -0.0741612 0.886931 0.0545088 -0.0395307 -0.111136 1.09673)
(1.02247 0.112676 -0.0471445 -0.0705719 0.906809 0.0310125 -0.0421852 -0.100909 1.07277)
(1.02106 0.141907 -0.0280099 -0.0737768 0.935074 0.00610796 -0.0504359 -0.0892796 1.0408)
(1.02441 0.154691 -0.00370213 -0.083273 0.965571 -0.0192481 -0.0658436 -0.0742533 1.00245)
(1.03768 0.14981 0.0249357 -0.0948059 0.990914 -0.0444005 -0.0889873 -0.0544254 0.960725)
(1.06309 0.129881 0.0558654 -0.100743 1.00458 -0.0695743 -0.116944 -0.0292346 0.920339)
(1.09693 0.100641 0.0864023 -0.0925232 1.00394 -0.0959572 -0.140738 0.00160694 0.887265)
(1.12723 0.0682128 0.113661 -0.0654987 0.992695 -0.124348 -0.145083 0.0381349 0.868004)
(1.13609 0.0364717 0.134548 -0.0249484 0.980217 -0.151394 -0.114546 0.0767765 0.86943)
(1.11182 0.00520778 0.146672 0.0100737 0.976569 -0.165074 -0.0467281 0.108112 0.896216)
(1.0639 -0.0278179 0.148023 0.014308 0.982602 -0.1628 0.0180294 0.129499 0.9396)
(1.01454 -0.0602425 0.141193 -0.00509427 0.98738 -0.154995 0.058397 0.144312 0.988962)
(0.983325 -0.0847954 0.129343 -0.036648 0.979318 -0.145978 0.0752913 0.154003 1.0353)
(0.974193 -0.0951767 0.115833 -0.066568 0.958354 -0.135985 0.075473 0.157129 1.07276)
(0.98126 -0.0874571 0.103038 -0.086039 0.930482 -0.124391 0.0669692 0.153346 1.09899)
(0.995666 -0.0620518 0.09191 -0.0929942 0.903884 -0.110692 0.0562197 0.144427 1.11376)
(1.00994 -0.0229611 0.0821649 -0.0900836 0.885451 -0.0945632 0.0471021 0.133102 1.1178)
(1.01959 0.0237655 0.0726177 -0.0820977 0.879358 -0.0758225 0.0413427 0.121676 1.11192)
(1.02328 0.0712654 0.0615495 -0.0741612 0.886931 -0.0545088 0.0395307 0.111136 1.09673)
(1.02247 0.112676 0.0471445 -0.0705719 0.906809 -0.0310125 0.0421852 0.100909 1.07277)
(1.02106 0.141907 0.0280099 -0.0737768 0.935074 -0.00610796 0.0504359 0.0892796 1.0408)
(1.02441 0.154691 0.00370213 -0.083273 0.965571 0.0192481 0.0658436 0.0742533 1.00245)
(1.03768 0.14981 -0.0249357 -0.0948059 0.990914 0.0444005 0.0889873 0.0544254 0.960725)
(1.06309 0.129881 -0.0558654 -0.100743 1.00458 0.0695742 0.116944 0.0292346 0.920339)
(1.09693 0.100641 -0.0864023 -0.0925232 1.00394 0.0959572 0.140738 -0.00160694 0.887265)
(1.12723 0.0682128 -0.113661 -0.0654987 0.992695 0.124348 0.145083 -0.0381349 0.868004)
(1.13609 0.0364717 -0.134548 -0.0249484 0.980217 0.151394 0.114546 -0.0767765 0.86943)
(1.12141 0.0316537 -0.139726 0.00633095 0.962076 0.131802 0.0480768 -0.062964 0.903608)
(1.06868 0.011386 -0.143483 0.0123692 0.985536 0.135896 -0.0173438 -0.0905049 0.933867)
(1.01632 -0.0237682 -0.140632 -0.00880689 1.00354 0.134372 -0.0584308 -0.120106 0.969158)
(0.986701 -0.0606492 -0.133162 -0.0438845 1.00249 0.128816 -0.0733855 -0.142627 1.00275)
(0.983248 -0.0844779 -0.123008 -0.0766491 0.982222 0.119734 -0.0703651 -0.153993 1.03089)
(0.998008 -0.0866978 -0.111579 -0.0968389 0.950819 0.107562 -0.0592076 -0.154154 1.05164)
(1.01993 -0.0662778 -0.0996191 -0.101822 0.91897 0.0927743 -0.0472896 -0.146352 1.06418)
(1.03969 -0.0276837 -0.0871548 -0.0943721 0.895733 0.075782 -0.0384099 -0.134907 1.06837)
(1.05139 0.0214995 -0.0736016 -0.0800552 0.886881 0.0569419 -0.0334396 -0.12319 1.06442)
(1.05283 0.0722322 -0.0580213 -0.0654047 0.894528 0.036671 -0.0317534 -0.112403 1.0528)
(1.04549 0.115229 -0.03948 -0.0565624 0.916992 0.0155392 -0.0328655 -0.101336 1.03424)
(1.03439 0.142354 -0.0174396 -0.0577696 0.948712 -0.00574373 -0.0377243 -0.0871915 1.00991)
(1.02726 0.148552 0.00790836 -0.0695177 0.980798 -0.0264834 -0.0489413 -0.0673448 0.981584)
(1.03221 0.133959 0.0354736 -0.0870035 1.00301 -0.0462666 -0.0692139 -0.0414372 0.951868)
(1.05407 0.105008 0.0633657 -0.100368 1.00758 -0.065197 -0.0977649 -0.0126041 0.924084)
(1.09015 0.073093 0.0893076 -0.0981278 0.99379 -0.0838253 -0.126095 0.0135745 0.901823)
(1.12739 0.049662 0.111356 -0.07379 0.970761 -0.10245 -0.136752 0.0329858 0.888377)
(1.14404 0.0390397 0.128604 -0.031436 0.954889 -0.119508 -0.111265 0.0461626 0.887461)
(1.12141 0.0316537 0.139726 0.00633095 0.962076 -0.131802 -0.0480768 0.062964 0.903608)
(1.06868 0.011386 0.143483 0.0123692 0.985536 -0.135896 0.0173438 0.0905049 0.933867)
(1.01632 -0.0237682 0.140632 -0.00880689 1.00354 -0.134372 0.0584308 0.120106 0.969158)
(0.986701 -0.0606492 0.133162 -0.0438845 1.00249 -0.128816 0.0733855 0.142627 1.00275)
(0.983248 -0.0844779 0.123008 -0.0766491 0.982222 -0.119734 0.0703651 0.153993 1.03089)
(0.998008 -0.0866978 0.111579 -0.0968389 0.950819 -0.107562 0.0592076 0.154154 1.05164)
(1.01993 -0.0662778 0.0996191 -0.101822 0.91897 -0.0927743 0.0472896 0.146352 1.06418)
(1.03969 -0.0276837 0.0871548 -0.0943721 0.895733 -0.075782 0.0384099 0.134907 1.06837)
(1.05139 0.0214995 0.0736016 -0.0800552 0.886881 -0.0569419 0.0334396 0.12319 1.06442)
(1.05283 0.0722322 0.0580213 -0.0654047 0.894528 -0.036671 0.0317534 0.112403 1.0528)
(1.04549 0.115229 0.03948 -0.0565624 0.916992 -0.0155392 0.0328655 0.101336 1.03424)
(1.03439 0.142354 0.0174396 -0.0577696 0.948712 0.00574373 0.0377243 0.0871915 1.00991)
(1.02726 0.148552 -0.00790836 -0.0695177 0.980798 0.0264834 0.0489413 0.0673448 0.981584)
(1.03221 0.133959 -0.0354736 -0.0870035 1.00301 0.0462666 0.0692139 0.0414372 0.951868)
(1.05407 0.105008 -0.0633657 -0.100368 1.00758 0.065197 0.0977649 0.0126041 0.924084)
(1.09015 0.073093 -0.0893076 -0.0981278 0.99379 0.0838253 0.126095 -0.0135745 0.901823)
(1.12739 0.049662 -0.111356 -0.07379 0.970761 0.10245 0.136752 -0.0329858 0.888377)
(1.14404 0.0390397 -0.128604 -0.031436 0.954889 0.119508 0.111265 -0.0461626 0.887461)
(1.13215 0.0599467 -0.131475 0.00170732 0.941519 0.105822 0.0504023 -0.0178406 0.915083)
(1.07407 0.0574602 -0.136522 0.00990946 0.983 0.113975 -0.0167585 -0.0451509 0.930202)
(1.01749 0.0208744 -0.137553 -0.0128166 1.01715 0.11707 -0.0600322 -0.0885729 0.949599)
(0.988341 -0.0288125 -0.134431 -0.0520146 1.02636 0.114142 -0.073124 -0.126373 0.969413)
(0.990367 -0.0680969 -0.127504 -0.0888244 1.00917 0.105655 -0.0662672 -0.1483 0.987622)
(1.01388 -0.0828013 -0.117347 -0.110925 0.975208 0.0928404 -0.0517913 -0.153837 1.00256)
(1.04531 -0.0694278 -0.104555 -0.114334 0.937788 0.0770346 -0.0383439 -0.147843 1.0127)
(1.07267 -0.0323393 -0.0894822 -0.101533 0.908797 0.0593349 -0.0296793 -0.136571 1.01701)
(1.08774 0.0192843 -0.072159 -0.0790343 0.89639 0.0406052 -0.025591 -0.124733 1.01509)
(1.08687 0.0736521 -0.0524412 -0.0554603 0.903969 0.0215857 -0.0238998 -0.113811 1.00723)
(1.07153 0.118284 -0.030275 -0.0397 0.929478 0.00293799 -0.0228654 -0.101793 0.994389)
(1.04851 0.14244 -0.00593994 -0.0384921 0.965126 -0.0148115 -0.0232928 -0.0845465 0.978093)
(1.02879 0.140284 0.0198259 -0.0534105 0.998463 -0.0313658 -0.0292581 -0.0587514 0.960306)
(1.02433 0.113925 0.0458469 -0.0784157 1.01597 -0.0466805 -0.0462293 -0.0255205 0.94313)
(1.04268 0.0743987 0.0706415 -0.10034 1.00915 -0.0608402 -0.076008 0.00740796 0.928391)
(1.08166 0.0388161 0.092631 -0.104183 0.980595 -0.0738361 -0.110189 0.028134 0.917269)
(1.12674 0.0236974 0.110468 -0.0823403 0.944411 -0.0854452 -0.128258 0.0296491 0.910457)
(1.15245 0.036722 0.123362 -0.0383638 0.924132 -0.0955537 -0.108466 0.0185554 0.909068)
(1.13215 0.0599467 0.131475 0.00170732 0.941519 -0.105822 -0.0504023 0.0178406 0.915083)
(1.07407 0.0574602 0.136522 0.00990946 0.983 -0.113975 0.0167585 0.0451509 0.930202)
(1.01749 0.0208744 0.137553 -0.0128166 1.01715 -0.11707 0.0600322 0.0885729 0.949599)
(0.988341 -0.0288125 0.134431 -0.0520146 1.02636 -0.114142 0.073124 0.126373 0.969413)
(0.990367 -0.0680969 0.127504 -0.0888244 1.00917 -0.105655 0.0662672 0.1483 0.987622)
(1.01388 -0.0828013 0.117347 -0.110925 0.975208 -0.0928404 0.0517913 0.153837 1.00256)
(1.04531 -0.0694278 0.104555 -0.114334 0.937788 -0.0770346 0.0383439 0.147843 1.0127)
(1.07267 -0.0323393 0.0894822 -0.101533 0.908797 -0.0593349 0.0296793 0.136571 1.01701)
(1.08774 0.0192843 0.072159 -0.0790343 0.89639 -0.0406052 0.025591 0.124733 1.01509)
(1.08687 0.0736521 0.0524412 -0.0554603 0.903969 -0.0215857 0.0238998 0.113811 1.00723)
(1.07153 0.118284 0.030275 -0.0397 0.929478 -0.00293799 0.0228654 0.101793 0.994389)
(1.04851 0.14244 0.00593994 -0.0384921 0.965126 0.0148115 0.0232928 0.0845465 0.978093)
(1.02879 0.140284 -0.0198259 -0.0534105 0.998463 0.0313658 0.0292581 0.0587514 0.960306)
(1.02433 0.113925 -0.0458469 -0.0784157 1.01597 0.0466805 0.0462293 0.0255205 0.94313)
(1.04268 0.0743987 -0.0706415 -0.10034 1.00915 0.0608402 0.076008 -0.00740796 0.928391)
(1.08166 0.0388161 -0.092631 -0.104183 0.980595 0.0738361 0.110189 -0.028134 0.917269)
(1.12674 0.0236974 -0.110468 -0.0823403 0.944411 0.0854452 0.128258 -0.0296491 0.910457)
(1.15245 0.036722 -0.123362 -0.0383638 0.924132 0.0955537 0.108466 -0.0185554 0.909068)
(1.11355 0.0155334 -0.103754 -0.0720315 0.962123 0.163275 0.0701472 -0.142922 0.901763)
(1.06751 -0.0253859 -0.109183 -0.0530046 0.973175 0.165006 -0.00488029 -0.181357 0.937073)