/*--------------------------------*- C++ -*----------------------------------*\
| =========                 |                                                 |
| \\      /  F ield         | OpenFOAM: The Open Source CFD Toolbox           |
|  \\    /   O peration     | Version:  2312                                  |
|   \\  /    A nd           | Website:  www.openfoam.com                      |
|    \\/     M anipulation  |                                                 |
\*---------------------------------------------------------------------------*/
FoamFile
{
    version     2.0;
    format      ascii;
    arch        "LSB;label=32;scalar=64";
    class       volScalarField;
    location    "0.2";
    object      sigmaHyd;
}
// * * * * * * * * * * * * * * * * * * * * * * * * * * * * * * * * * * * * * //

dimensions      [1 -1 -2 0 0 0 0];

internalField   nonuniform List<scalar> 
1620
(
9360.79
9360.81
9360.8
9360.73
9360.72
9360.76
9360.76
9360.78
9360.8
9360.79
9360.81
9360.8
9360.73
9360.72
9360.76
9360.76
9360.78
9360.8
9360.79
9360.81
9360.8
9360.73
9360.72
9360.76
9360.76
9360.78
9360.8
9360.79
9360.81
9360.8
9360.73
9360.72
9360.76
9360.76
9360.78
9360.8
6113.27
6113.27
6113.23
6113.26
6113.25
6113.22
6113.26
6113.26
6113.25
6113.27
6113.27
6113.23
6113.26
6113.25
6113.22
6113.26
6113.27
6113.25
6113.27
6113.27
6113.23
6113.26
6113.25
6113.22
6113.26
6113.26
6113.24
6113.27
6113.27
6113.23
6113.26
6113.25
6113.22
6113.26
6113.26
6113.24
2904.89
2904.9
2904.84
2904.83
2904.88
2904.86
2904.89
2904.85
2904.88
2904.9
2904.9
2904.85
2904.83
2904.88
2904.87
2904.9
2904.85
2904.88
2904.9
2904.9
2904.85
2904.83
2904.88
2904.86
2904.89
2904.85
2904.88
2904.89
2904.9
2904.84
2904.83
2904.87
2904.86
2904.89
2904.85
2904.88
1973.61
1973.62
1973.67
1973.56
1973.58
1973.62
1973.58
1973.64
1973.62
1973.6
1973.62
1973.67
1973.56
1973.58
1973.62
1973.58
1973.64
1973.62
1973.6
1973.62
1973.67
1973.56
1973.58
1973.62
1973.58
1973.64
1973.62
1973.6
1973.62
1973.67
1973.56
1973.58
1973.62
1973.58
1973.64
1973.62
-1330.41
-1330.42
-1330.43
-1330.35
-1330.36
-1330.41
-1330.36
-1330.45
-1330.41
-1330.4
-1330.42
-1330.43
-1330.35
-1330.36
-1330.41
-1330.36
-1330.45
-1330.41
-1330.4
-1330.42
-1330.43
-1330.35
-1330.36
-1330.41
-1330.36
-1330.45
-1330.41
-1330.4
-1330.42
-1330.43
-1330.35
-1330.36
-1330.41
-1330.36
-1330.45
-1330.4
-5845.99
-5846.01
-5845.99
-5846.07
-5846.01
-5845.95
-5845.99
-5845.96
-5845.96
-5845.99
-5846.01
-5845.99
-5846.07
-5846.01
-5845.95
-5845.99
-5845.96
-5845.96
-5845.99
-5846.01
-5845.99
-5846.07
-5846.01
-5845.95
-5845.99
-5845.96
-5845.96
-5845.99
-5846.01
-5845.99
-5846.07
-5846.01
-5845.95
-5845.99
-5845.96
-5845.97
2136.39
2136.28
2136.38
2136.31
2136.36
2136.39
2136.29
2136.33
2136.3
2136.39
2136.28
2136.38
2136.31
2136.36
2136.39
2136.29
2136.33
2136.3
2136.39
2136.28
2136.38
2136.31
2136.36
2136.39
2136.29
2136.33
2136.3
2136.39
2136.28
2136.38
2136.31
2136.36
2136.39
2136.29
2136.33
2136.3
-912.676
-912.578
-912.68
-912.6
-912.628
-912.69
-912.609
-912.663
-912.598
-912.676
-912.577
-912.68
-912.6
-912.628
-912.69
-912.609
-912.663
-912.598
-912.676
-912.577
-912.68
-912.6
-912.628
-912.69
-912.609
-912.663
-912.598
-912.676
-912.577
-912.68
-912.6
-912.628
-912.69
-912.609
-912.663
-912.598
-5965.49
-5965.55
-5965.44
-5965.46
-5965.47
-5965.47
-5965.53
-5965.45
-5965.46
-5965.49
-5965.55
-5965.44
-5965.46
-5965.47
-5965.46
-5965.53
-5965.45
-5965.46
-5965.49
-5965.55
-5965.44
-5965.46
-5965.47
-5965.46
-5965.53
-5965.45
-5965.46
-5965.49
-5965.55
-5965.44
-5965.46
-5965.47
-5965.47
-5965.53
-5965.45
-5965.46
1962.22
1962.26
1962.2
1962.26
1962.25
1962.27
1962.25
1962.2
1962.23
1962.22
1962.26
1962.2
1962.26
1962.25
1962.27
1962.25
1962.2
1962.23
1962.22
1962.26
1962.2
1962.26
1962.25
1962.27
1962.25
1962.2
1962.23
1962.22
1962.26
1962.2
1962.26
1962.25
1962.27
1962.25
1962.2
1962.23
-1097.53
-1097.57
-1097.55
-1097.53
-1097.56
-1097.55
-1097.55
-1097.55
-1097.53
-1097.53
-1097.57
-1097.55
-1097.53
-1097.56
-1097.55
-1097.55
-1097.55
-1097.53
-1097.53
-1097.57
-1097.55
-1097.53
-1097.56
-1097.55
-1097.55
-1097.55
-1097.53
-1097.53
-1097.57
-1097.55
-1097.53
-1097.56
-1097.55
-1097.54
-1097.55
-1097.53
-6773.76
-6773.78
-6773.74
-6773.78
-6773.81
-6773.73
-6773.81
-6773.75
-6773.77
-6773.76
-6773.78
-6773.74
-6773.79
-6773.81
-6773.73
-6773.81
-6773.75
-6773.77
-6773.76
-6773.78
-6773.74
-6773.79
-6773.81
-6773.73
-6773.81
-6773.75
-6773.77
-6773.76
-6773.78
-6773.74
-6773.79
-6773.81
-6773.73
-6773.81
-6773.75
-6773.77
1818.68
1818.75
1818.64
1818.73
1818.69
1818.66
1818.77
1818.61
1818.72
1818.68
1818.75
1818.64
1818.73
1818.69
1818.66
1818.77
1818.61
1818.72
1818.68
1818.75
1818.64
1818.73
1818.69
1818.66
1818.77
1818.61
1818.72
1818.68
1818.75
1818.64
1818.73
1818.69
1818.66
1818.77
1818.61
1818.72
-1240.74
-1240.86
-1240.72
-1240.82
-1240.78
-1240.73
-1240.82
-1240.73
-1240.8
-1240.74
-1240.86
-1240.72
-1240.82
-1240.78
-1240.73
-1240.82
-1240.73
-1240.8
-1240.74
-1240.86
-1240.72
-1240.82
-1240.78
-1240.73
-1240.82
-1240.73
-1240.8
-1240.74
-1240.86
-1240.72
-1240.82
-1240.78
-1240.73
-1240.82
-1240.73
-1240.8
-7376.1
-7376.03
-7376.08
-7376.09
-7376.03
-7376.1
-7376.05
-7376.13
-7376.05
-7376.1
-7376.03
-7376.08
-7376.09
-7376.03
-7376.1
-7376.05
-7376.13
-7376.05
-7376.1
-7376.03
-7376.08
-7376.09
-7376.03
-7376.1
-7376.05
-7376.13
-7376.05
-7376.1
-7376.03
-7376.08
-7376.09
-7376.03
-7376.1
-7376.05
-7376.13
-7376.05
1541.4
1541.5
1541.4
1541.46
1541.42
1541.4
1541.44
1541.36
1541.47
1541.4
1541.5
1541.4
1541.46
1541.42
1541.4
1541.44
1541.36
1541.47
1541.4
1541.5
1541.4
1541.46
1541.42
1541.4
1541.44
1541.36
1541.46
1541.4
1541.5
1541.4
1541.46
1541.42
1541.4
1541.44
1541.36
1541.47
-1489.16
-1489.27
-1489.2
-1489.22
-1489.21
-1489.19
-1489.24
-1489.1
-1489.26
-1489.16
-1489.27
-1489.2
-1489.22
-1489.21
-1489.19
-1489.24
-1489.1
-1489.26
-1489.16
-1489.27
-1489.2
-1489.22
-1489.21
-1489.19
-1489.24
-1489.1
-1489.26
-1489.16
-1489.27
-1489.2
-1489.22
-1489.21
-1489.19
-1489.24
-1489.1
-1489.26
-7805.42
-7805.33
-7805.47
-7805.35
-7805.43
-7805.48
-7805.41
-7805.47
-7805.43
-7805.42
-7805.33
-7805.47
-7805.35
-7805.43
-7805.48
-7805.41
-7805.47
-7805.43
-7805.42
-7805.33
-7805.47
-7805.35
-7805.43
-7805.48
-7805.41
-7805.47
-7805.43
-7805.42
-7805.33
-7805.47
-7805.35
-7805.43
-7805.48
-7805.41
-7805.47
-7805.43
1054.33
1054.42
1054.25
1054.45
1054.31
1054.25
1054.41
1054.24
1054.37
1054.33
1054.42
1054.25
1054.45
1054.31
1054.25
1054.41
1054.24
1054.37
1054.33
1054.42
1054.25
1054.45
1054.31
1054.25
1054.41
1054.24
1054.37
1054.33
1054.42
1054.25
1054.45
1054.31
1054.25
1054.41
1054.24
1054.37
-1851.34
-1851.59
-1851.38
-1851.54
-1851.49
-1851.34
-1851.5
-1851.39
-1851.54
-1851.34
-1851.59
-1851.38
-1851.54
-1851.49
-1851.34
-1851.5
-1851.39
-1851.54
-1851.34
-1851.59
-1851.38
-1851.54
-1851.49
-1851.34
-1851.5
-1851.39
-1851.54
-1851.34
-1851.59
-1851.38
-1851.54
-1851.49
-1851.34
-1851.5
-1851.39
-1851.54
-7930.1
-7929.95
-7930.01
-7929.98
-7930.01
-7930.05
-7929.98
-7930.1
-7929.88
-7930.1
-7929.95
-7930.01
-7929.98
-7930.01
-7930.05
-7929.98
-7930.1
-7929.88
-7930.1
-7929.95
-7930.01
-7929.98
-7930.01
-7930.05
-7929.98
-7930.1
-7929.88
-7930.1
-7929.95
-7930.01
-7929.98
-7930.01
-7930.05
-7929.98
-7930.1
-7929.88
264.931
264.891
264.835
264.908
264.849
264.823
264.883
264.823
264.804
264.931
264.891
264.835
264.908
264.849
264.823
264.883
264.824
264.804
264.931
264.891
264.835
264.908
264.85
264.823
264.883
264.824
264.804
264.931
264.891
264.835
264.908
264.849
264.823
264.883
264.824
264.804
-2317.15
-2317.14
-2317.06
-2317.2
-2317.09
-2317.02
-2317.12
-2317.1
-2317.04
-2317.15
-2317.14
-2317.06
-2317.2
-2317.09
-2317.02
-2317.12
-2317.09
-2317.04
-2317.15
-2317.14
-2317.06
-2317.2
-2317.09
-2317.02
-2317.12
-2317.1
-2317.04
-2317.15
-2317.14
-2317.06
-2317.2
-2317.09
-2317.02
-2317.12
-2317.09
-2317.04
-7581.71
-7581.67
-7581.67
-7581.68
-7581.7
-7581.76
-7581.73
-7581.72
-7581.73
-7581.71
-7581.67
-7581.67
-7581.67
-7581.7
-7581.76
-7581.73
-7581.72
-7581.73
-7581.71
-7581.67
-7581.67
-7581.67
-7581.7
-7581.76
-7581.73
-7581.72
-7581.73
-7581.71
-7581.67
-7581.67
-7581.68
-7581.7
-7581.76
-7581.73
-7581.72
-7581.73
-924.495
-924.457
-924.468
-924.48
-924.48
-924.485
-924.503
-924.485
-924.445
-924.496
-924.457
-924.469
-924.48
-924.48
-924.484
-924.503
-924.484
-924.444
-924.496
-924.457
-924.468
-924.48
-924.479
-924.484
-924.503
-924.484
-924.444
-924.496
-924.457
-924.469
-924.48
-924.48
-924.484
-924.503
-924.484
-924.444
-2834.64
-2834.6
-2834.65
-2834.55
-2834.58
-2834.66
-2834.53
-2834.61
-2834.61
-2834.64
-2834.6
-2834.65
-2834.55
-2834.58
-2834.66
-2834.53
-2834.61
-2834.61
-2834.64
-2834.6
-2834.65
-2834.55
-2834.58
-2834.66
-2834.53
-2834.61
-2834.61
-2834.64
-2834.6
-2834.65
-2834.55
-2834.58
-2834.66
-2834.53
-2834.61
-2834.61
-6529.58
-6529.69
-6529.66
-6529.75
-6529.72
-6529.69
-6529.67
-6529.68
-6529.8
-6529.58
-6529.69
-6529.66
-6529.75
-6529.72
-6529.69
-6529.67
-6529.68
-6529.8
-6529.58
-6529.69
-6529.66
-6529.75
-6529.72
-6529.69
-6529.67
-6529.68
-6529.8
-6529.58
-6529.69
-6529.66
-6529.75
-6529.72
-6529.69
-6529.67
-6529.68
-6529.8
-2554.63
-2554.69
-2554.65
-2554.58
-2554.63
-2554.67
-2554.65
-2554.58
-2554.64
-2554.63
-2554.69
-2554.65
-2554.58
-2554.63
-2554.67
-2554.65
-2554.58
-2554.64
-2554.63
-2554.69
-2554.65
-2554.58
-2554.63
-2554.67
-2554.65
-2554.58
-2554.64
-2554.63
-2554.69
-2554.65
-2554.58
-2554.63
-2554.67
-2554.65
-2554.58
-2554.64
-3319.03
-3319.01
-3319.09
-3319.06
-3319.07
-3319.1
-3319.02
-3319.06
-3319.11
-3319.03
-3319.01
-3319.09
-3319.06
-3319.07
-3319.1
-3319.02
-3319.06
-3319.11
-3319.03
-3319.01
-3319.09
-3319.06
-3319.07
-3319.1
-3319.02
-3319.06
-3319.11
-3319.03
-3319.02
-3319.09
-3319.06
-3319.07
-3319.1
-3319.02
-3319.06
-3319.11
-4536.07
-4536.13
-4536.1
-4536.13
-4536.12
-4536.09
-4536.09
-4536.1
-4536.16
-4536.07
-4536.13
-4536.1
-4536.13
-4536.12
-4536.09
-4536.09
-4536.1
-4536.16
-4536.07
-4536.13
-4536.1
-4536.13
-4536.12
-4536.09
-4536.09
-4536.1
-4536.16
-4536.07
-4536.13
-4536.1
-4536.13
-4536.12
-4536.09
-4536.09
-4536.1
-4536.16
-4454.38
-4454.43
-4454.4
-4454.33
-4454.34
-4454.38
-4454.32
-4454.37
-4454.41
-4454.38
-4454.43
-4454.4
-4454.33
-4454.34
-4454.38
-4454.32
-4454.37
-4454.41
-4454.38
-4454.43
-4454.4
-4454.33
-4454.34
-4454.38
-4454.32
-4454.36
-4454.41
-4454.38
-4454.43
-4454.4
-4454.33
-4454.34
-4454.38
-4454.32
-4454.36
-4454.41
-3695.19
-3695.04
-3695.16
-3695.13
-3695.14
-3695.13
-3695.12
-3695.22
-3695.09
-3695.19
-3695.04
-3695.16
-3695.12
-3695.14
-3695.13
-3695.12
-3695.22
-3695.09
-3695.19
-3695.04
-3695.16
-3695.12
-3695.14
-3695.13
-3695.12
-3695.22
-3695.09
-3695.19
-3695.04
-3695.16
-3695.13
-3695.14
-3695.13
-3695.12
-3695.22
-3695.09
-1488.55
-1488.63
-1488.55
-1488.62
-1488.61
-1488.61
-1488.66
-1488.54
-1488.6
-1488.55
-1488.63
-1488.55
-1488.62
-1488.61
-1488.61
-1488.66
-1488.54
-1488.6
-1488.55
-1488.63
-1488.55
-1488.63
-1488.61
-1488.61
-1488.66
-1488.54
-1488.6
-1488.55
-1488.63
-1488.55
-1488.63
-1488.61
-1488.61
-1488.66
-1488.54
-1488.6
-6011.33
-6011.33
-6011.25
-6011.31
-6011.24
-6011.24
-6011.24
-6011.25
-6011.4
-6011.33
-6011.33
-6011.25
-6011.31
-6011.24
-6011.24
-6011.24
-6011.25
-6011.4
-6011.33
-6011.33
-6011.25
-6011.31
-6011.24
-6011.24
-6011.24
-6011.25
-6011.4
-6011.33
-6011.33
-6011.25
-6011.31
-6011.25
-6011.24
-6011.24
-6011.25
-6011.4
-3934.83
-3934.77
-3934.82
-3934.86
-3934.81
-3934.84
-3934.86
-3934.9
-3934.83
-3934.83
-3934.77
-3934.82
-3934.86
-3934.81
-3934.84
-3934.86
-3934.9
-3934.83
-3934.83
-3934.77
-3934.82
-3934.86
-3934.81
-3934.84
-3934.86
-3934.9
-3934.83
-3934.83
-3934.77
-3934.82
-3934.86
-3934.81
-3934.84
-3934.86
-3934.9
-3934.83
2386.17
2386.09
2386.11
2386.08
2386.09
2386.04
2386.13
2386.18
2386.2
2386.17
2386.09
2386.11
2386.08
2386.09
2386.04
2386.13
2386.18
2386.2
2386.17
2386.09
2386.11
2386.08
2386.09
2386.04
2386.13
2386.18
2386.2
2386.17
2386.09
2386.11
2386.08
2386.09
2386.04
2386.13
2386.18
2386.2
-5888.03
-5888.02
-5887.92
-5887.88
-5887.91
-5887.82
-5887.91
-5887.92
-5888.11
-5888.03
-5888.02
-5887.92
-5887.88
-5887.91
-5887.82
-5887.91
-5887.92
-5888.11
-5888.03
-5888.02
-5887.92
-5887.88
-5887.91
-5887.82
-5887.91
-5887.92
-5888.11
-5888.03
-5888.02
-5887.92
-5887.88
-5887.91
-5887.82
-5887.91
-5887.92
-5888.11
-3396.34
-3396.31
-3396.36
-3396.4
-3396.25
-3396.38
-3396.32
-3396.38
-3396.26
-3396.34
-3396.31
-3396.36
-3396.4
-3396.25
-3396.38
-3396.32
-3396.38
-3396.26
-3396.34
-3396.31
-3396.36
-3396.4
-3396.25
-3396.38
-3396.32
-3396.38
-3396.26
-3396.34
-3396.31
-3396.36
-3396.4
-3396.25
-3396.38
-3396.32
-3396.38
-3396.26
6953.54
6953.38
6953.43
6953.33
6953.33
6953.46
6953.39
6953.61
6953.56
6953.54
6953.38
6953.43
6953.33
6953.33
6953.46
6953.39
6953.61
6953.56
6953.54
6953.38
6953.43
6953.33
6953.33
6953.46
6953.39
6953.61
6953.56
6953.54
6953.39
6953.43
6953.33
6953.33
6953.46
6953.39
6953.61
6953.56
-4540.29
-4539.88
-4539.29
-4539.55
-4540.41
-4539.67
-4539.21
-4539.97
-4540.48
-4540.3
-4539.89
-4539.3
-4539.55
-4540.42
-4539.67
-4539.21
-4539.98
-4540.49
-4540.3
-4539.9
-4539.3
-4539.56
-4540.42
-4539.67
-4539.21
-4539.98
-4540.49
-4540.3
-4539.9
-4539.3
-4539.56
-4540.42
-4539.67
-4539.21
-4539.97
-4540.48
-4295.17
-4295.27
-4295.2
-4295.22
-4295.14
-4295.39
-4295.24
-4295.18
-4295.18
-4295.16
-4295.26
-4295.2
-4295.21
-4295.14
-4295.39
-4295.24
-4295.18
-4295.18
-4295.16
-4295.26
-4295.2
-4295.22
-4295.14
-4295.39
-4295.24
-4295.18
-4295.18
-4295.16
-4295.26
-4295.2
-4295.21
-4295.14
-4295.39
-4295.24
-4295.18
-4295.18
7942.17
7942.13
7942.1
7942.04
7942.24
7942
7942.19
7942.28
7942.23
7942.18
7942.13
7942.1
7942.04
7942.24
7941.99
7942.19
7942.28
7942.23
7942.18
7942.13
7942.1
7942.04
7942.24
7941.99
7942.19
7942.28
7942.23
7942.18
7942.13
7942.1
7942.04
7942.24
7941.99
7942.19
7942.28
7942.23
9246.05
9247.44
9240.67
9242.72
9248.62
9243.44
9240.9
9245.22
9243.54
9246.07
9247.47
9240.7
9242.74
9248.64
9243.46
9240.92
9245.24
9243.56
9246.08
9247.49
9240.71
9242.74
9248.65
9243.46
9240.91
9245.23
9243.55
9246.07
9247.48
9240.7
9242.74
9248.64
9243.46
9240.92
9245.23
9243.54
5499.45
5499.26
5499.43
5497.68
5501.66
5497.6
5499.91
5499.28
5499.59
5499.44
5499.26
5499.42
5497.68
5501.66
5497.6
5499.91
5499.29
5499.59
5499.45
5499.26
5499.42
5497.68
5501.66
5497.6
5499.92
5499.28
5499.59
5499.45
5499.26
5499.42
5497.67
5501.66
5497.6
5499.91
5499.28
5499.59
-55.0068
-55.2904
-56.9083
-51.8457
-60.2974
-50.8175
-58.1058
-54.3194
-55.3826
-55.0085
-55.2894
-56.9104
-51.8506
-60.3022
-50.8212
-58.1087
-54.3205
-55.3825
-55.0077
-55.2879
-56.909
-51.8491
-60.3008
-50.8197
-58.107
-54.3192
-55.3809
-55.0053
-55.2853
-56.906
-51.8468
-60.2994
-50.8187
-58.1072
-54.3203
-55.3826
)
;

boundaryField
{
    fixed
    {
        type            zeroGradient;
    }
    inside
    {
        type            zeroGradient;
    }
    outside
    {
        type            zeroGradient;
    }
}


// ************************************************************************* //
