/*--------------------------------*- C++ -*----------------------------------*\
| =========                 |                                                 |
| \\      /  F ield         | OpenFOAM: The Open Source CFD Toolbox           |
|  \\    /   O peration     | Version:  2312                                  |
|   \\  /    A nd           | Website:  www.openfoam.com                      |
|    \\/     M anipulation  |                                                 |
\*---------------------------------------------------------------------------*/
FoamFile
{
    version     2.0;
    format      ascii;
    arch        "LSB;label=32;scalar=64";
    class       volScalarField;
    location    "0.2";
    object      sigmaEq;
}
// * * * * * * * * * * * * * * * * * * * * * * * * * * * * * * * * * * * * * //

dimensions      [1 -1 -2 0 0 0 0];

internalField   nonuniform List<scalar> 
1620
(
12614.2
11448.4
10815.3
10688.2
10829.3
11054.5
11255.1
11384.2
11444
11466.9
11498.3
11582.9
11760.4
12065.5
12521.4
13100.8
13620.5
13580.9
12614.2
11448.4
10815.3
10688.2
10829.3
11054.5
11255.1
11384.2
11444
11466.9
11498.3
11582.9
11760.4
12065.5
12521.4
13100.8
13620.5
13580.9
11584.1
10978.7
10785.5
10932.7
11238
11568.8
11847.7
12037.2
12131.4
12147.7
12116.4
12071.4
12045.1
12066.5
12157.6
12312.9
12425.6
12221.7
11584.1
10978.7
10785.5
10932.7
11238
11568.8
11847.7
12037.2
12131.4
12147.7
12116.4
12071.4
12045.1
12066.5
12157.6
12312.9
12425.6
12221.7
12377.7
12338.6
12265.3
12268.4
12365.7
12520.2
12677.3
12785
12805.1
12720.6
12539
12290
12020.2
11789.1
11665.2
11711.7
11941.6
12236
12377.7
12338.6
12265.3
12268.4
12365.7
12520.2
12677.3
12785
12805.1
12720.6
12539
12290
12020.2
11789.1
11665.2
11711.7
11941.6
12236
12499.1
11160.9
10724.9
10767.4
11019.1
11323.3
11577.2
11728.3
11771.7
11736.3
11665.8
11604.7
11594.8
11677.3
11895.8
12282.3
12808.5
13296.8
12499.1
11160.9
10724.9
10767.4
11019.1
11323.3
11577.2
11728.3
11771.7
11736.3
11665.8
11604.7
11594.8
11677.3
11895.8
12282.3
12808.5
13296.8
11013.4
10619.7
10962.4
11460.2
11936.8
12331.9
12604.2
12730.3
12713.1
12578.8
12367.4
12120
11872.6
11657.6
11512.9
11499.4
11695.3
11843.4
11013.4
10619.7
10962.4
11460.2
11936.8
12331.9
12604.2
12730.3
12713.1
12578.8
12367.4
12120
11872.6
11657.6
11512.9
11499.4
11695.3
11843.4
12703.3
12924.7
12980.8
13006.1
13105.5
13272.2
13441.8
13542.1
13518
13343.8
13028.9
12618.1
12184.9
11820
11616
11644.9
11930.6
12369.2
12703.3
12924.7
12980.8
13006.1
13105.5
13272.2
13441.8
13542.1
13518
13343.8
13028.9
12618.1
12184.9
11820
11616
11644.9
11930.6
12369.2
10998
10899.2
10722.2
10804.7
11104.2
11496.6
11852.3
12084.4
12165.3
12113
11969.4
11782.4
11596.8
11455.5
11403.1
11480.2
11605
10901.8
10998
10899.2
10722.2
10804.7
11104.2
11496.6
11852.3
12084.4
12165.3
12113
11969.4
11782.4
11596.8
11455.5
11403.1
11480.2
11605
10901.8
10209.2
10718.7
11324.9
11946.6
12528
13001.9
13301.8
13390.2
13270.1
12979.6
12574.9
12113.9
11645.9
11207.6
10822.6
10508.9
10318.4
10439.3
10209.2
10718.7
11324.9
11946.6
12528
13001.9
13301.8
13390.2
13270.1
12979.6
12574.9
12113.9
11645.9
11207.6
10822.6
10508.9
10318.4
10439.3
12108.7
13273.5
13622.4
13823.9
14018.5
14215.5
14357.9
14373.3
14205.9
13836.9
13298.9
12678.9
12107.3
11727.2
11641.7
11838.8
12085.2
11785.9
12108.7
13273.5
13622.4
13823.9
14018.5
14215.5
14357.9
14373.3
14205.9
13836.9
13298.9
12678.9
12107.3
11727.2
11641.7
11838.8
12085.2
11785.9
11610.2
10954.6
10598.1
10563.2
10824.9
11259.8
11702.8
12029.3
12185.4
12175.3
12038.3
11828.3
11600.2
11402.9
11284.9
11323
11642.7
12147.4
11610.2
10954.6
10598.1
10563.2
10824.9
11259.8
11702.8
12029.3
12185.4
12175.3
12038.3
11828.3
11600.2
11402.9
11284.9
11323
11642.7
12147.4
11150.4
11081.6
11269.7
11722.5
12300
12843.6
13212.4
13329.4
13188.4
12836.3
12349.4
11814.5
11312.9
10902.8
10603.3
10398.1
10309.7
10639.3
11150.4
11081.6
11269.7
11722.5
12300
12843.6
13212.4
13329.4
13188.4
12836.3
12349.4
11814.5
11312.9
10902.8
10603.3
10398.1
10309.7
10639.3
12275.9
12949.7
13572.3
14104.4
14542.8
14853.7
14989.6
14904.1
14567
13986.8
13235.9
12461.3
11864.5
11636.5
11870.8
12474.3
12952.4
12492.8
12275.9
12949.7
13572.3
14104.4
14542.8
14853.7
14989.6
14904.1
14567
13986.8
13235.9
12461.3
11864.5
11636.5
11870.8
12474.3
12952.4
12492.8
11618.4
10938
10362.5
10124.8
10260.3
10666.8
11152.7
11556
11798.5
11871.8
11811.3
11674.7
11520.2
11392.8
11328.8
11383.4
11617.7
11866.4
11618.4
10938
10362.5
10124.8
10260.3
10666.8
11152.7
11556
11798.5
11871.8
11811.3
11674.7
11520.2
11392.8
11328.8
11383.4
11617.7
11866.4
10914.8
10952
10933.1
11101.7
11513.4
12034.7
12459.3
12640.1
12536.8
12195
11715.6
11226.4
10843.5
10627.2
10559.9
10569.2
10599.9
10717.3
10914.8
10952
10933.1
11101.7
11513.4
12034.7
12459.3
12640.1
12536.8
12195
11715.6
11226.4
10843.5
10627.2
10559.9
10569.2
10599.9
10717.3
12619.8
12871.4
13452.1
14102.2
14682.6
15078
15207.8
15035
14556.6
13813.3
12920.8
12086.5
11563.8
11533.4
12001.8
12752.9
13226.3
12954.5
12619.8
12871.4
13452.1
14102.2
14682.6
15078
15207.8
15035
14556.6
13813.3
12920.8
12086.5
11563.8
11533.4
12001.8
12752.9
13226.3
12954.5
11212.8
10703.8
10127.4
9738.56
9697.52
9991.35
10445.9
10876
11182.6
11347.2
11399.9
11390.4
11360.9
11330.6
11307.1
11316.4
11388.2
11428.8
11212.8
10703.8
10127.4
9738.56
9697.52
9991.35
10445.9
10876
11182.6
11347.2
11399.9
11390.4
11360.9
11330.6
11307.1
11316.4
11388.2
11428.8
10650.9
10664.2
10573.4
10527.9
10699.5
11085.7
11491.8
11706.6
11637.3
11320.4
10885.7
10502.4
10296.4
10284.4
10385
10486.7
10529.5
10569.3
10650.9
10664.2
10573.4
10527.9
10699.5
11085.7
11491.8
11706.6
11637.3
11320.4
10885.7
10502.4
10296.4
10284.4
10385
10486.7
10529.5
10569.3
12884.6
13077.1
13573.8
14187.7
14747.6
15105.9
15165.7
14894
14304.6
13461.7
12515.5
11712.4
11308.6
11415.1
11940.7
12631.7
13075.2
13028.8
12884.6
13077.1
13573.8
14187.7
14747.6
15105.9
15165.7
14894
14304.6
13461.7
12515.5
11712.4
11308.6
11415.1
11940.7
12631.7
13075.2
13028.8
10813.5
10411.8
9907.78
9473.18
9291.09
9434.25
9794.56
10197
10531.7
10772.3
10939.2
11060.8
11146
11183.6
11168.5
11127.1
11092.1
11024.6
10813.5
10411.8
9907.78
9473.18
9291.09
9434.25
9794.56
10197
10531.7
10772.3
10939.2
11060.8
11146
11183.6
11168.5
11127.1
11092.1
11024.6
10311.7
10306.6
10195.8
10052.2
10044.7
10267.5
10597.3
10800.9
10738.3
10435.5
10052.6
9787.83
9744.63
9876.53
10060.3
10191.9
10242.9
10268.9
10311.7
10306.6
10195.8
10052.2
10044.7
10267.5
10597.3
10800.9
10738.3
10435.5
10052.6
9787.83
9744.63
9876.53
10060.3
10191.9
10242.9
10268.9
13076
13333.5
13804.3
14357.9
14830.7
15078.2
15016.2
14628.2
13946.3
13056.5
12133.3
11429.7
11154.2
11335.5
11836.7
12437.5
12871.4
13011.4
13076
13333.5
13804.3
14357.9
14830.7
15078.2
15016.2
14628.2
13946.3
13056.5
12133.3
11429.7
11154.2
11335.5
11836.7
12437.5
12871.4
13011.4
10461.4
10133.5
9710.02
9295.91
9040.43
9049.62
9288.65
9626.18
9957.95
10249.7
10505.1
10723
10879.6
10947
10926.1
10854.1
10769.9
10660.1
10461.4
10133.5
9710.02
9295.91
9040.43
9049.62
9288.65
9626.18
9957.95
10249.7
10505.1
10723
10879.6
10947
10926.1
10854.1
10769.9
10660.1
9895.1
9886.41
9782.74
9616.57
9518.34
9608.94
9834.99
9988.87
9912.62
9627.05
9309.67
9158.23
9232.26
9438.28
9646.02
9777.91
9832.64
9862.06
9895.1
9886.41
9782.74
9616.57
9518.34
9608.94
9834.99
9988.87
9912.62
9627.05
9309.67
9158.23
9232.26
9438.28
9646.02
9777.91
9832.64
9862.06
13181
13520.7
13994
14493.8
14868.9
14991.4
14801.2
14305.4
13558.7
12671.8
11833.9
11271.2
11117.4
11337.1
11789
12302.3
12712.5
12962.6
13181
13520.7
13994
14493.8
14868.9
14991.4
14801.2
14305.4
13558.7
12671.8
11833.9
11271.2
11117.4
11337.1
11789
12302.3
12712.5
12962.6
10145.1
9876.76
9527.98
9163.78
8892.1
8813.04
8939.88
9197
9501.64
9813.14
10114
10375.5
10555.7
10627.1
10602
10524.1
10431.9
10319.7
10145.1
9876.76
9527.98
9163.78
8892.1
8813.04
8939.88
9197
9501.64
9813.14
10114
10375.5
10555.7
10627.1
10602
10524.1
10431.9
10319.7
9418.15
9410.4
9322.9
9169.89
9041.75
9040.74
9153.52
9229.06
9133.96
8892.33
8669.85
8623.66
8765.66
8989.02
9183.78
9301.01
9354.8
9388.2
9418.15
9410.4
9322.9
9169.89
9041.75
9040.74
9153.52
9229.06
9133.96
8892.33
8669.85
8623.66
8765.66
8989.02
9183.78
9301.01
9354.8
9388.2
13194.9
13583
14047.3
14488
14769
14783.3
14494.1
13930.3
13170.1
12345.7
11643.3
11237.4
11187.3
11421.7
11814.1
12239.1
12603.1
12894.5
13194.9
13583
14047.3
14488
14769
14783.3
14494.1
13930.3
13170.1
12345.7
11643.3
11237.4
11187.3
11421.7
11814.1
12239.1
12603.1
12894.5
9839.73
9626.4
9348.66
9049.18
8802.47
8686.54
8733.44
8912.81
9170.65
9465.12
9761.17
10014.8
10181.9
10244.3
10221.3
10155
10076.8
9982.07
9839.73
9626.4
9348.66
9049.18
8802.47
8686.54
8733.44
8912.81
9170.65
9465.12
9761.17
10014.8
10181.9
10244.3
10221.3
10155
10076.8
9982.07
8894.99
8885.73
8813.49
8685
8556.41
8495.36
8503.86
8496.29
8394.18
8228.31
8119.93
8159.27
8324.88
8526.77
8688.98
8786.27
8836.6
8870.31
8894.99
8885.73
8813.49
8685
8556.41
8495.36
8503.86
8496.29
8394.18
8228.31
8119.93
8159.27
8324.88
8526.77
8688.98
8786.27
8836.6
8870.31
13120.1
13505.7
13925.2
14286.1
14474.5
14407.9
14068.1
13499.5
12796.5
12098.3
11564.6
11306.9
11330.3
11554.2
11875.5
12209.8
12513.4
12799.8
13120.1
13505.7
13925.2
14286.1
14474.5
14407.9
14068.1
13499.5
12796.5
12098.3
11564.6
11306.9
11330.3
11554.2
11875.5
12209.8
12513.4
12799.8
9530.76
9374.96
9172.33
8951.11
8759.92
8651.69
8657.46
8772.59
8968.64
9210.11
9456.46
9662.57
9792.58
9837.34
9817.23
9766.19
9707.05
9635.88
9530.76
9374.96
9172.33
8951.11
8759.92
8651.69
8657.46
8772.59
8968.64
9210.11
9456.46
9662.57
9792.58
9837.34
9817.23
9766.19
9707.05
9635.88
8329.03
8318.42
8261.66
8161.6
8047.42
7955.15
7892.51
7829.65
7743.03
7662.05
7649.09
7733.32
7882.88
8039.08
8159.81
8235.43
8280.07
8310.79
8329.03
8318.42
8261.66
8161.6
8047.42
7955.15
7892.51
7829.65
7743.03
7662.05
7649.09
7733.32
7882.88
8039.08
8159.81
8235.43
8280.07
8310.79
12955.1
13290.8
13626.9
13886.6
13986.2
13871.6
13539.5
13039.5
12466
11941.7
11581.1
11439.6
11495.5
11679.2
11918.1
12164.2
12405.3
12660.4
12955.1
13290.8
13626.9
13886.6
13986.2
13871.6
13539.5
13039.5
12466
11941.7
11581.1
11439.6
11495.5
11679.2
11918.1
12164.2
12405.3
12660.4
9249.48
9158.52
9040.04
8909.5
8794.2
8724.02
8719.91
8786.7
8913.97
9078.69
9247.16
9382.64
9459.87
9476.11
9449.25
9404.89
9359.7
9312.51
9249.48
9158.52
9040.04
8909.5
8794.2
8724.02
8719.91
8786.7
8913.97
9078.69
9247.16
9382.64
9459.87
9476.11
9449.25
9404.89
9359.7
9312.51
7715.33
7713.9
7683.11
7621.62
7539.78
7453.18
7372.15
7299.41
7241.32
7216.65
7243.89
7320.43
7421.2
7516.58
7589.14
7637.84
7671.52
7697.84
7715.33
7713.9
7683.11
7621.62
7539.78
7453.18
7372.15
7299.41
7241.32
7216.65
7243.89
7320.43
7421.2
7516.58
7589.14
7637.84
7671.52
7697.84
12692.6
12945.5
13177.2
13334.1
13366
13245.4
12979.2
12610.8
12214.2
11875.2
11659.3
11586.6
11632.6
11752.1
11904.9
12071
12251.1
12456.5
12692.6
12945.5
13177.2
13334.1
13366
13245.4
12979.2
12610.8
12214.2
11875.2
11659.3
11586.6
11632.6
11752.1
11904.9
12071
12251.1
12456.5
9099.34
9077.87
9046.24
9007.33
8970.44
8946.94
8947.05
8978.14
9042.26
9130
9218.34
9279.84
9297.66
9273.99
9226.09
9175.92
9138.52
9115.92
9099.34
9077.87
9046.24
9007.33
8970.44
8946.95
8947.05
8978.14
9042.26
9130
9218.34
9279.84
9297.66
9273.99
9226.09
9175.92
9138.52
9115.92
7061.87
7088.11
7102.48
7098.18
7074.02
7033.9
6984.43
6933.93
6892.96
6872.59
6878.09
6903.89
6936.69
6964.33
6982.59
6995.54
7010.86
7033.52
7061.87
7088.11
7102.48
7098.18
7074.02
7033.9
6984.43
6933.93
6892.97
6872.59
6878.09
6903.89
6936.69
6964.33
6982.59
6995.54
7010.86
7033.52
12334.2
12494.7
12632
12716.1
12723
12642.5
12483.8
12274.8
12057.7
11875.7
11757.3
11708.1
11715.8
11762.1
11833.3
11924.9
12038.8
12176.9
12334.2
12494.7
12632
12716.1
12723
12642.5
12483.8
12274.8
12057.7
11875.7
11757.3
11708.1
11715.8
11762.1
11833.3
11924.9
12038.8
12176.9
9202.61
9239.91
9276.52
9304.74
9319.9
9321.34
9314.69
9312.95
9329.33
9364.69
9400.99
9412.54
9385.54
9326.55
9256.92
9200.32
9172.48
9175.94
9202.61
9239.91
9276.52
9304.74
9319.9
9321.34
9314.69
9312.95
9329.33
9364.69
9400.99
9412.54
9385.54
9326.55
9256.92
9200.31
9172.48
9175.94
6422.42
6482.52
6549.75
6613.5
6664.8
6696.15
6701.08
6676.99
6629.4
6572
6519.37
6478.07
6445.19
6414.97
6386.44
6365.39
6360.92
6379.79
6422.42
6482.52
6549.75
6613.5
6664.8
6696.15
6701.08
6676.99
6629.4
6572
6519.37
6478.07
6445.19
6414.97
6386.44
6365.39
6360.92
6379.79
11956.3
12037.5
12110.3
12160.3
12177.3
12159.5
12113.1
12050.1
11983.1
11920.8
11867.5
11824.4
11792.2
11772.6
11768.8
11784.4
11821.9
11881
11956.3
12037.5
12110.3
12160.3
12177.3
12159.5
12113.1
12050.1
11983.1
11920.8
11867.5
11824.4
11792.2
11772.6
11768.8
11784.4
11821.9
11881
10043.9
10106.9
10170.3
10212.4
10211.6
10160.8
10076.1
9992.02
9945.97
9959.44
10020.6
10085.8
10111.1
10085.1
10032.5
9988.58
9975.5
9996.43
10043.9
10106.9
10170.3
10212.4
10211.6
10160.8
10076.1
9992.02
9945.97
9959.44
10020.6
10085.8
10111.1
10085.1
10032.5
9988.58
9975.5
9996.43
5922.78
6010.75
6121.77
6244.95
6363.82
6458
6508.23
6502.29
6440.39
6336.24
6212.56
6092.17
5990.27
5912.95
5860.88
5834.13
5834.25
5863.43
5922.78
6010.75
6121.77
6244.95
6363.82
6458
6508.23
6502.29
6440.39
6336.24
6212.56
6092.17
5990.27
5912.95
5860.88
5834.13
5834.25
5863.43
11623.2
11643.2
11672.5
11703.2
11733.2
11767
11811.3
11867.7
11928.5
11977.2
11996.4
11975.9
11919.1
11840.8
11759.6
11690.8
11643.5
11621.3
11623.2
11643.2
11672.5
11703.2
11733.2
11767
11811.3
11867.7
11928.5
11977.2
11996.4
11975.9
11919.1
11840.8
11759.6
11690.8
11643.5
11621.3
)
;

boundaryField
{
    fixed
    {
        type            calculated;
        value           nonuniform List<scalar> 
108
(
12621.4
11632.2
11005.6
10799.2
10860.1
11027.8
11193.3
11306.1
11364.5
11399.1
11453.5
11572.2
11794.5
12152.6
12656.7
13239.9
13655.3
13478.5
12621.4
11632.2
11005.6
10799.2
10860.1
11027.8
11193.3
11306.1
11364.5
11399.1
11453.5
11572.2
11794.5
12152.6
12656.7
13239.9
13655.3
13478.5
11660.8
11160
10904.4
10924
11119.2
11379.7
11626.6
11816.1
11936.2
11998.5
12027.8
12052.8
12099.2
12184.5
12306.4
12421.6
12417.7
12161
11660.8
11160
10904.4
10924
11119.2
11379.7
11626.6
11816.1
11936.2
11998.5
12027.8
12052.8
12099.2
12184.5
12306.4
12421.6
12417.7
12161
12406.5
12358.6
12209.7
12117.6
12143.1
12263.5
12423.1
12563.7
12638.4
12620.4
12506.1
12315.3
12086.5
11873.4
11742.1
11758.7
11952.6
12238.5
12406.5
12358.6
12209.7
12117.6
12143.1
12263.5
12423.1
12563.7
12638.4
12620.4
12506.1
12315.3
12086.5
11873.4
11742.1
11758.7
11952.6
12238.5
)
;
    }
    inside
    {
        type            calculated;
        value           nonuniform List<scalar> 
540
(
13221.5
13126
12900.9
12739
12704.6
12768.2
12866.9
12936
12925.2
12808.9
12594.2
12320.8
12054.5
11876.9
11871.7
12098.1
12537.8
13005.5
13221.5
13126
12900.9
12739
12704.6
12768.2
12866.9
12936
12925.2
12808.9
12594.2
12320.8
12054.5
11876.9
11871.7
12098.1
12537.8
13005.5
14518.3
14177
13611.4
13285.3
13263.1
13441.6
13680.1
13855.1
13878
13704.9
13347.9
12879.4
12419.9
12114.3
12097.7
12454.1
13177.7
14076.1
14518.3
14177
13611.4
13285.3
13263.1
13441.6
13680.1
13855.1
13878
13704.9
13347.9
12879.4
12419.9
12114.3
12097.7
12454.1
13177.7
14076.1
13645.1
14447.2
14085.4
13911.7
14043
14379
14747.5
14981.1
14959
14631.6
14041.7
13326.1
12687.2
12341.4
12456.9
13072.1
13844.2
13106.4
13645.1
14447.2
14085.4
13911.7
14043
14379
14747.5
14981.1
14959
14631.6
14041.7
13326.1
12687.2
12341.4
12456.9
13072.1
13844.2
13106.4
13952.2
13798.4
13918.5
14213.5
14690.5
15267.1
15777.7
16040.5
15924.4
15397
14554.4
13614.2
12859.1
12554.4
12881.3
13876.1
15066.4
14972.1
13952.2
13798.4
13918.5
14213.5
14690.5
15267.1
15777.7
16040.5
15924.4
15397
14554.4
13614.2
12859.1
12554.4
12881.3
13876.1
15066.4
14972.1
14246
13803.8
13945.1
14470.7
15215.1
16004.4
16625.8
16879.8
16645
15928.3
14889.6
13814.6
13026.1
12774.6
13176
14157.8
15136.8
15074.9
14246
13803.8
13945.1
14470.7
15215.1
16004.4
16625.8
16879.8
16645
15928.3
14889.6
13814.6
13026.1
12774.6
13176
14157.8
15136.8
15074.9
14380.8
14110
14322.6
14945.5
15808.9
16685
17317.4
17496.2
17126.1
16264.2
15125.7
14028.1
13275.4
13049.8
13381.6
14130.6
14828.7
14858.2
14380.8
14110
14322.6
14945.5
15808.9
16685
17317.4
17496.2
17126.1
16264.2
15125.7
14028.1
13275.4
13049.8
13381.6
14130.6
14828.7
14858.2
14613.6
14564.3
14899.1
15596.8
16495.2
17346.5
17887
17927.8
17418.3
16467.4
15324.6
14297
13626.8
13418.2
13651.9
14188.3
14696
14806
14613.6
14564.3
14899.1
15596.8
16495.2
17346.5
17887
17927.8
17418.3
16467.4
15324.6
14297
13626.8
13418.2
13651.9
14188.3
14696
14806
14927.7
15071.3
15530.4
16284.1
17163
17914.4
18298.1
18174.5
17549.8
16576.8
15511.2
14615.9
14057.5
13879.7
14040.7
14418.4
14782.7
14925.9
14927.7
15071.3
15530.4
16284.1
17163
17914.4
18298.1
18174.5
17549.8
16576.8
15511.2
14615.9
14057.5
13879.7
14040.7
14418.4
14782.7
14925.9
15272.5
15553.7
16099.1
16863.4
17667.9
18272.4
18480.1
18212.4
17529.7
16609.8
15687.3
14961.9
14532.5
14402.1
14516.5
14770
15012.6
15152.3
15272.5
15553.7
16099.1
16863.4
17667.9
18272.4
18480.1
18212.4
17529.7
16609.8
15687.3
14961.9
14532.5
14402.1
14516.5
14770
15012.6
15152.3
15595.3
15952.9
16521.7
17229.1
17901.9
18336.4
18391.1
18041.1
17380.4
16586.2
15851.2
15310.9
15011.2
14928.5
15001.4
15146.2
15285.8
15408.6
15595.3
15952.9
16521.7
17229.1
17901.9
18336.4
18391.1
18041.1
17380.4
16586.2
15851.2
15310.9
15011.2
14928.5
15001.4
15146.2
15285.8
15408.6
15847.3
16219.9
16741
17324.5
17825.6
18098.1
18057
17709.7
17153.5
16538.3
16006
15638.3
15445.1
15387.4
15408.4
15459.2
15523.2
15631.6
15847.3
16219.9
16741
17324.5
17825.6
18098.1
18057
17709.7
17153.5
16538.3
16006
15638.3
15445.1
15387.4
15408.4
15459.2
15523.2
15631.6
15994.6
16319.5
16731.2
17152.4
17483.6
17638.5
17574.5
17308.7
16915.3
16499.8
16153.7
15919.8
15789.3
15725.2
15691.7
15676
15695.9
15790
15994.6
16319.5
16731.2
17152.4
17483.6
17638.5
17574.5
17308.7
16915.3
16499.8
16153.7
15919.8
15789.3
15725.2
15691.7
15676
15695.9
15790
16040.4
16268
16540.8
16807.1
17010.9
17107.7
17078.1
16934.6
16720.4
16492.7
16297.2
16150.3
16042.7
15956.4
15882.8
15831.4
15825.3
15890.3
16040.4
16268
16540.8
16807.1
17010.9
17107.7
17078.1
16934.6
16720.4
16492.7
16297.2
16150.3
16042.7
15956.4
15882.8
15831.4
15825.3
15890.3
16155.7
16267.1
16402.6
16534.4
16635.5
16688.5
16692.2
16660.1
16611.5
16560.1
16507.1
16445
16367.5
16277
16185.8
16112.3
16075.5
16088.8
16155.7
16267.1
16402.6
16534.4
16635.5
16688.5
16692.2
16660.1
16611.5
16560.1
16507.1
16445
16367.5
16277
16185.8
16112.3
16075.5
16088.8
16409.7
16400.5
16399.9
16391.1
16367.3
16340.1
16336.3
16382.6
16487.6
16631.8
16772.3
16862.1
16874.9
16816
16714
16603
16508.2
16443
16409.7
16400.5
16399.9
16391.1
16367.3
16340.1
16336.3
16382.6
16487.6
16631.8
16772.3
16862.1
16874.9
16816
16714
16603
16508.2
16443
)
;
    }
    outside
    {
        type            calculated;
        value           nonuniform List<scalar> 
540
(
13486.8
12316.5
11499.7
11137.4
11068.2
11138.5
11244
11329.9
11383.3
11421.6
11479.2
11597.2
11818.3
12183.3
12718.8
13395
14041.5
14227.9
13486.8
12316.5
11499.7
11137.4
11068.2
11138.5
11244
11329.9
11383.3
11421.6
11479.2
11597.2
11818.3
12183.3
12718.8
13395
14041.5
14227.9
13448.3
12044.9
11285.9
11021
11039.7
11190.3
11363.6
11496.5
11570.3
11598.3
11611.6
11649.5
11755.7
11979.7
12370.5
12934.3
13523.8
13909.3
13448.3
12044.9
11285.9
11021
11039.7
11190.3
11363.6
11496.5
11570.3
11598.3
11611.6
11649.5
11755.7
11979.7
12370.5
12934.3
13523.8
13909.3
11659.3
11669.5
11167.2
10912.1
10932.4
11125.2
11371.9
11586.9
11732
11806.8
11832.8
11841.8
11873.5
11978.1
12216.8
12619.7
12899.7
11556.1
11659.3
11669.5
11167.2
10912.1
10932.4
11125.2
11371.9
11586.9
11732
11806.8
11832.8
11841.8
11873.5
11978.1
12216.8
12619.7
12899.7
11556.1
12238
11664.5
11090.8
10758.8
10724.1
10917.1
11215.2
11511.4
11746.5
11903.7
11992.9
12039.5
12079.3
12159.4
12344.9
12709.2
13179
13138.6
12238
11664.5
11090.8
10758.8
10724.1
10917.1
11215.2
11511.4
11746.5
11903.7
11992.9
12039.5
12079.3
12159.4
12344.9
12709.2
13179
13138.6
12736.6
11815.1
11053.7
10597.2
10468.4
10621.4
10939.2
11300.3
11627
11885.7
12073.9
12207.9
12314.5
12428.7
12599.6
12883.4
13236
13314.3
12736.6
11815.1
11053.7
10597.2
10468.4
10621.4
10939.2
11300.3
11627
11885.7
12073.9
12207.9
12314.5
12428.7
12599.6
12883.4
13236
13314.3
12548.4
11785.8
11048.3
10521.2
10291.2
10367.1
10662.9
11058.1
11461.3
11823.6
12126.2
12367.8
12554.2
12696.2
12819.9
12963.8
13101.4
13031.4
12548.4
11785.8
11048.3
10521.2
10291.2
10367.1
10662.9
11058.1
11461.3
11823.6
12126.2
12367.8
12554.2
12696.2
12819.9
12963.8
13101.4
13031.4
12357.5
11726
11076.3
10550.3
10254.6
10246.5
10489.6
10884.2
11336.2
11783.4
12187.5
12520.9
12760.6
12898.8
12959.1
12986.1
12971.6
12797.7
12357.5
11726
11076.3
10550.3
10254.6
10246.5
10489.6
10884.2
11336.2
11783.4
12187.5
12520.9
12760.6
12898.8
12959.1
12986.1
12971.6
12797.7
12253
11709.7
11143
10655.1
10340.1
10272.1
10455.5
10822.7
11288
11781
12244
12622.9
12874.2
12987.7
12999.8
12962.8
12875.9
12659.6
12253
11709.7
11143
10655.1
10340.1
10272.1
10455.5
10822.7
11288
11781
12244
12622.9
12874.2
12987.7
12999.8
12962.8
12875.9
12659.6
12194.1
11723.4
11230.9
10796.8
10498.3
10404.3
10537.8
10859.6
11299.3
11784.9
12246
12614.7
12843.7
12932.2
12925.5
12872.8
12770.6
12557.5
12194.1
11723.4
11230.9
10796.8
10498.3
10404.3
10537.8
10859.6
11299.3
11784.9
12246
12614.7
12843.7
12932.2
12925.5
12872.8
12770.6
12557.5
12104.4
11712.6
11299.9
10933.6
10676.9
10584.6
10680.8
10944.1
11320.8
11745.4
12147.7
12462.7
12652.8
12725.4
12722.4
12680.3
12591.3
12408.3
12104.4
11712.6
11299.9
10933.6
10676.9
10584.6
10680.8
10944.1
11320.8
11745.4
12147.7
12462.7
12652.8
12725.4
12722.4
12680.3
12591.3
12408.3
11910.7
11614.2
11298.8
11018.1
10821.3
10747.6
10814.5
11010
11296.8
11623.2
11931.2
12169.9
12314.4
12373.7
12378.1
12349.7
12280.7
12140
11910.7
11614.2
11298.8
11018.1
10821.3
10747.6
10814.5
11010
11296.8
11623.2
11931.2
12169.9
12314.4
12373.7
12378.1
12349.7
12280.7
12140
11566.4
11378.6
11176.8
10996.4
10870.1
10822.5
10864.7
10991.2
11181.1
11399.5
11604.5
11760.3
11851.4
11885.6
11882.8
11857.1
11805.5
11712
11566.4
11378.6
11176.8
10996.4
10870.1
10822.5
10864.7
10991.2
11181.1
11399.5
11604.5
11760.3
11851.4
11885.6
11882.8
11857.1
11805.5
11712
11065.6
10987.1
10900.6
10821.3
10764.8
10743.6
10765.5
10833.5
10941.4
11069
11184.9
11261.7
11290
11279.2
11247.9
11211.1
11172.9
11127.2
11065.6
10987.1
10900.6
10821.3
10764.8
10743.6
10765.5
10833.5
10941.4
11069
11184.9
11261.7
11290
11279.2
11247.9
11211.1
11172.9
11127.2
10487.1
10498.4
10505.3
10505.4
10498.9
10489.3
10486.3
10503.8
10550.6
10617.8
10677.7
10701.3
10678.8
10623.1
10558.8
10508.1
10481.8
10478.1
10487.1
10498.4
10505.3
10505.4
10498.9
10489.3
10486.3
10503.8
10550.6
10617.8
10677.7
10701.3
10678.8
10623.1
10558.8
10508.1
10481.8
10478.1
10091.7
10154
10216.2
10256.8
10254.5
10202.6
10117.6
10034.3
9990.06
10006
10069.6
10136.4
10162.1
10135.6
10082.3
10037.7
10024.1
10044.7
10091.7
10154
10216.2
10256.8
10254.5
10202.6
10117.6
10034.3
9990.06
10006
10069.6
10136.4
10162.1
10135.6
10082.3
10037.7
10024.1
10044.7
)
;
    }
}


// ************************************************************************* //
