/*--------------------------------*- C++ -*----------------------------------*\
| =========                 |                                                 |
| \\      /  F ield         | OpenFOAM: The Open Source CFD Toolbox           |
|  \\    /   O peration     | Version:  2312                                  |
|   \\  /    A nd           | Website:  www.openfoam.com                      |
|    \\/     M anipulation  |                                                 |
\*---------------------------------------------------------------------------*/
FoamFile
{
    version     2.0;
    format      ascii;
    arch        "LSB;label=32;scalar=64";
    class       volSymmTensorField;
    location    "0.2";
    object      sigma;
}
// * * * * * * * * * * * * * * * * * * * * * * * * * * * * * * * * * * * * * //

dimensions      [1 -1 -2 0 0 0 0];

internalField   nonuniform List<symmTensor> 
1620
(
(10734.2 15.1148 109.396 11153 -1251.27 23592.4)
(9799.67 -277.708 884.38 11160.3 -3674.68 21393.7)
(7739.65 -1037.11 2073.77 9926.89 -4930.93 17214)
(5214.74 -1991.49 3225.65 7173.3 -5118.63 12088.2)
(2375.73 -2732.55 4128.9 2937.32 -4623.65 6490.19)
(-1200.82 -2995.56 4750.14 -2770.69 -3776.35 252.046)
(-5950.99 -2710.55 5118.22 -9817.47 -2773.69 -6897.23)
(-12138.9 -1970.74 5229.37 -18109.1 -1708.1 -15366.9)
(-15595.9 -949.145 4075.22 -24898 -549.598 -24071.1)
(-17802.3 974.219 -5296.56 -26159.2 -716.718 -24078.5)
(-16115.5 1845.45 -5817.28 -21273.1 -1945.24 -17303.8)
(-11535.8 2429.5 -5535.54 -14702.5 -3068.96 -10460.9)
(-7254.13 2601.68 -4997.06 -8369.6 -4083.22 -3889.61)
(-3506.52 2304.49 -4192.45 -2810.04 -4869.96 2307.95)
(-144.351 1631.9 -3125.54 1659.9 -5229.11 8087.01)
(3068.51 836.057 -1883.4 4986.96 -4895.74 13406.2)
(5875.34 244.29 -702.863 7098.85 -3656.64 17732.3)
(7795.56 29.3218 50.6082 8243.91 -1584.9 20389.3)
(8050.91 18.9755 106.684 8384.45 820.209 20515.8)
(6815.8 -147.468 -535.919 7731.66 2874.17 18362.2)
(4760.51 -664.848 -1613.02 6282.85 4125.91 14767.9)
(2512.23 -1395.88 -2773.14 3956.2 4534.02 10520.1)
(244.787 -2037.6 -3788.69 701.8 4294.45 5988.72)
(-2505.54 -2339.48 -4567.34 -3710.24 3639.61 922.555)
(-6311.58 -2199.32 -5094.06 -9427.21 2746.98 -5102.11)
(-11768.2 -1677.16 -5363.78 -16806 1723.97 -12926)
(-14379.9 -926.737 -4281.13 -23408 530.803 -22269.4)
(-16843 956.381 5113.38 -25641.8 629.635 -23847.5)
(-15455.4 2056.95 5696.76 -21612.1 1796.54 -18596.1)
(-11333 2846.87 5533.12 -15387 2915.42 -12389.1)
(-7127.58 3164.1 5131.07 -8811.58 3984.39 -5819.46)
(-3178.16 2920.26 4476.28 -2633.19 4909.53 825.944)
(571.299 2178.07 3530.81 2614.38 5486.65 7414.66)
(4283.1 1195.52 2317.45 6621.98 5365.89 13819)
(7653.23 390.837 1043 9156.63 4139 19352)
(10033.2 63.2892 164.734 10509.1 1714.76 22943.3)
(3740.87 -487.252 449.977 10943 -5885.84 9059.02)
(2246.33 -2751.21 831.096 12361.6 -3190.12 2688.01)
(1407.34 -4483.42 906.824 9320.51 -2064.85 -128.99)
(900.821 -5568.68 946.666 5266.97 -1510.56 -2700.4)
(61.6158 -5928.41 965.912 326.779 -1148.85 -5750.44)
(-1185.25 -5546.99 965.777 -4999.83 -868.381 -9159.25)
(-2871.27 -4488.77 943.722 -10225.8 -626.266 -12721.7)
(-4739.16 -2903.8 873.044 -14663 -399.617 -15969.1)
(-5635.05 -996.967 461.839 -16952.9 -179.343 -17696.2)
(-6283.4 1052.9 -942.034 -17629.1 -228.508 -18371.5)
(-6622.78 2961.49 -1224.8 -16608.1 -510.23 -17978.9)
(-5707.46 4551.84 -1273.34 -13124.7 -806.915 -15730.5)
(-4594.69 5624.01 -1269.9 -8467.49 -1124.38 -12767.5)
(-3616.23 6027.36 -1234.49 -3384.65 -1483.74 -9629.23)
(-2839.6 5690.39 -1168.47 1547.79 -1926.82 -6615.85)
(-2269.31 4619.27 -1069.18 5753.29 -2565.01 -3922.63)
(-1108.22 2882.09 -919.955 9249.83 -3786.09 -671.579)
(579.213 548.411 -423.284 8132.19 -6568.67 6181.3)
(722.908 -443.911 -342.715 7654.47 5724.97 5890.14)
(-825.346 -2712.08 -752.13 9150.2 3098.84 -523.316)
(-1404.52 -4447.91 -826.26 6413.1 1966.11 -3069.86)
(-1415.89 -5537.86 -864.579 2880.78 1413.9 -5123.35)
(-1577.13 -5907.06 -887.308 -1363.09 1063.02 -7469.04)
(-2053.63 -5537.84 -895.938 -5910.42 797.199 -10082.8)
(-3016.21 -4490.44 -885.238 -10411.6 568.578 -12900.8)
(-4373.06 -2912.4 -822.573 -14337.6 350.145 -15620.1)
(-5082.6 -1007.93 -396.798 -16441.3 130.954 -17151.7)
(-5723.81 1036.9 992.965 -17104.3 180.495 -17801.6)
(-6023.6 2943.24 1250.51 -16042 452.284 -17366.1)
(-5114.19 4531.37 1294.63 -12569.8 738.914 -15120.8)
(-3841.17 5605.56 1294.28 -7768 1048.04 -11997.9)
(-2528.43 6017.61 1265.42 -2367.43 1399.91 -8523.82)
(-1292.18 5694.42 1207.4 3016.04 1834.14 -5043.7)
(-211.944 4639.5 1117.4 7734.64 2458.82 -1829.84)
(1380.99 2921.71 982.759 11679.9 3658.41 1855.08)
(3402.53 618.572 540.227 10971 6477.96 9034.67)
(-6406.82 -42.5665 -508.16 -6026.17 1387.23 5543.48)
(-7036.12 -393.518 -1259.2 -5973.11 3300.6 3676.76)
(-8043.94 -1106.04 -2357.15 -6514.76 4230.75 528.946)
(-8788.94 -1939.17 -3414.85 -7718.86 4281.61 -2772.91)
(-9068.1 -2547.35 -4262.92 -9449.42 3780.82 -5684.12)
(-8744.79 -2698.08 -4878.41 -11178.1 2998.78 -7818.12)
(-7552.3 -2330.31 -5289.67 -12107.1 2096.41 -8724.1)
(-5641.15 -1541.61 -5506.95 -12019.9 1152.77 -8623.51)
(-2459.14 -623.419 -4408.82 -11937.4 182.144 -10591)
(-4334.76 554.328 4666 -12751.3 185.005 -10784.4)
(-6811.87 1677.62 4936.87 -13476.1 1027.85 -11000.5)
(-8979.98 2532.2 4776.71 -13805.7 1875.47 -11554.7)
(-10511.3 2940.91 4464.51 -13111.3 2710.47 -11036.1)
(-11329.2 2808.61 3978.25 -11740.2 3471.24 -9394.48)
(-11569.2 2179.34 3274.93 -10393.1 4011.21 -6923.64)
(-11311.3 1275.64 2342.53 -9617.74 4037.73 -3908.55)
(-10673.3 473.818 1312.52 -9533.01 3117.84 -791.952)
(-10330 77.9861 592.631 -9999.93 1012.38 1164.61)
(-10371.2 -77.3179 637.227 -9981.64 -1680.68 1225.88)
(-10643 -505.588 1451.26 -9355.92 -3765.76 -501.59)
(-11190.6 -1359.72 2577.17 -9334.4 -4642.94 -3468.64)
(-11322 -2315.51 3594.79 -10040 -4550.06 -6384.44)
(-10930.1 -2980.32 4362.15 -11348.4 -3922.6 -8789.08)
(-9936.77 -3120.08 4884.91 -12690.4 -3061.9 -10378.7)
(-8094.61 -2687.71 5202.03 -13227 -2124.97 -10744)
(-5512.18 -1796.12 5307.77 -12668.5 -1179.22 -10076.3)
(-1985.05 -726.057 3895.41 -12068.4 -212.648 -11231.4)
(-4245.08 507.951 -4910.96 -12144.9 -254.369 -9653.31)
(-5942.68 1520.85 -5101 -12047.4 -1129.01 -8868.49)
(-7470.35 2280.07 -4879.89 -11858.5 -1991.66 -8777.29)
(-8423.75 2625.13 -4493.15 -10782.5 -2812.01 -7726.13)
(-8712.82 2479.41 -3921.6 -9113.73 -3516.44 -5637.49)
(-8448.39 1900.58 -3137.19 -7463.83 -3953.77 -2788.03)
(-7740.48 1106.92 -2157.56 -6317.16 -3860.71 486.091)
(-6794.31 428.56 -1142.67 -5814.08 -2908.81 3657.29)
(-6272.22 95.873 -470.774 -5922.26 -987.543 5579.34)
(4747.8 56.7025 -202.224 5511.68 -1172.53 17632.4)
(4850.79 -167.22 526.636 6454.82 -3484.94 16664.9)
(4553.72 -822.016 1695.54 6926.85 -4758.28 14482.4)
(4368.15 -1690.86 2879.15 6580.8 -5019.11 11900.6)
(4504.84 -2399.19 3848.57 5475.81 -4588.88 9427.38)
(4637.03 -2684.74 4547.51 3654.84 -3770.22 6994.14)
(4378.45 -2467.85 4993.83 1256.73 -2755.58 4388.45)
(3045.09 -1837.13 5191.91 -2092.41 -1645.54 746.245)
(3681.97 -975.359 4027.13 -5178.27 -413.206 -4653.06)
(1857.53 860.451 -5524.51 -5467.23 -604.345 -3061.8)
(1828.38 1582.69 -5687.22 -2464.47 -1820.83 1816.04)
(2879.33 2064.21 -5294.23 350.191 -2932.75 4990.27)
(3312.94 2192.54 -4676.97 2579.09 -3910.05 7554.78)
(3465.52 1918.9 -3812.98 4307.9 -4632.87 9964.87)
(3632.31 1335.84 -2718.86 5434.46 -4922.19 12323.3)
(4085.45 669.464 -1495.39 6005.8 -4559.62 14648.9)
(4588.85 194.157 -372.129 5960.81 -3387.81 16476.7)
(4898.51 36.6018 330.253 5651.43 -1495.54 17421.4)
(4934.35 48.0956 393.455 5583.27 690.963 17369.5)
(4856.93 -63.7772 -191.417 5968.29 2608.88 16544.9)
(4477.41 -477.737 -1216.43 6105.76 3848.9 14866)
(4203.09 -1104.06 -2368.24 5802.12 4325.63 12847.7)
(4267.16 -1687.42 -3419.25 5054.92 4172.57 10875.6)
(4392.01 -1997 -4259.73 3750.87 3579.19 8862.89)
(4223.88 -1928.14 -4862.16 1895.91 2706.01 6597.93)
(2937.77 -1536.44 -5239.51 -1168.53 1664.64 2953.68)
(4219.5 -998.083 -4166.04 -4441.33 400.929 -3674.4)
(2093.09 807.926 5415.78 -5675.9 514.052 -3553.77)
(1967.72 1786.46 5686 -3365.43 1685.4 -96.6192)
(2701.45 2491.17 5418.19 -735.413 2811.67 2586.29)
(2941.68 2767.28 4930.23 1654.2 3863.42 5072.91)
(2947.52 2534.28 4195.53 3681.63 4739.61 7639.89)
(3035.43 1861.45 3187.86 5121.58 5246.11 10396.2)
(3508.53 997.582 1950.68 5870.75 5069.04 13356.6)
(4142.04 318.729 700.884 5797.74 3864.69 15949.5)
(4531.62 67.1605 -139.121 5326.08 1588.39 17425)
(-26.2074 -228.14 193.433 7185.12 -6098.94 6163.03)
(-609.821 -2621.51 798.385 10257.9 -3602.59 264.288)
(138.38 -4438.2 920.054 8752.57 -2337.3 -1105.09)
(1987.25 -5544.65 987.523 6915.48 -1708.48 -1372.09)
(3976.34 -5902.18 1037.9 4708.11 -1300.98 -1617.57)
(5955.71 -5516.99 1077.56 2568.68 -978.759 -1811.03)
(7710.74 -4464.94 1102.85 792.947 -680.222 -1930.13)
(9130.27 -2904.22 1067.12 -320.672 -369.591 -1880.33)
(10649.9 -1035.58 459.541 -227.318 -39.8566 -1275.1)
(10883.7 995.656 -1215.68 -31.2594 -105.378 -1020.84)
(9783.5 2864.63 -1456.45 121.818 -462.151 -1449.62)
(8561.01 4450.6 -1455.11 1337.15 -829.738 -1416.59)
(6846.19 5555.41 -1402.97 3088.99 -1200.87 -1323.21)
(4798.35 6013.94 -1328.96 5154.59 -1605.37 -1210.74)
(2667.41 5735.42 -1236.12 7291.2 -2104.93 -1063.91)
(629.017 4696.64 -1116.27 9096.77 -2839.6 -885.858)
(-154.749 2911.77 -928.858 10839.5 -4237.01 634.297)
(112.354 400.89 -203.861 7677.97 -6802.47 6583.81)
(85.9624 -180.953 -85.2823 6880.3 5884.73 6140.45)
(-526.439 -2581.01 -733.387 10125.4 3522.56 193.998)
(277.167 -4415.16 -860.575 8748.37 2255.34 -1127.21)
(2212.22 -5537.06 -929.745 7031.29 1629.13 -1298.59)
(4278.17 -5912.28 -982.643 4918.58 1230.71 -1450.5)
(6301.06 -5545.08 -1025.44 2828.41 920.412 -1579.63)
(8033.45 -4506.85 -1051.1 1030.8 632.52 -1696.64)
(9332.1 -2952.97 -1002.8 -196.924 326.519 -1740.74)
(10619.6 -1082.59 -325.946 -320.056 -7.24269 -1341.28)
(10723.9 944.847 1310.86 -200.913 58.0674 -1137.78)
(9660.38 2809.14 1499.92 14.7564 396.398 -1506.14)
(8376.33 4387.75 1482.32 1173.45 746.853 -1516.1)
(6642.39 5489.46 1424.56 2884.13 1103.77 -1437.73)
(4618 5954.61 1349.56 4937.8 1494.2 -1307.09)
(2545.12 5693.26 1259.54 7098.05 1976.55 -1111.36)
(575.678 4682 1148.21 8950.16 2688.23 -876.44)
(-208.575 2937.42 981.72 10695.9 4058.67 620.13)
(44.412 475.844 324.839 7602.08 6702.32 6579.71)
(-7083.44 -52.852 -901.35 -6321.76 1375.99 4924.69)
(-6615.05 -479.945 -1612.97 -5258.36 3286.63 4165.05)
(-5663.23 -1216.38 -2656.99 -3988.23 4204.44 2931.67)
(-4258.32 -2024.57 -3658.65 -3175.19 4236.1 1703.69)
(-2350.74 -2576.51 -4446.3 -2795.12 3715.75 907.296)
(-21.2272 -2659.73 -4988.26 -2509.97 2925.91 737.831)
(2769.96 -2241.14 -5310.33 -1738.41 2046.35 1433.51)
(5394.48 -1454.36 -5433.61 -795.21 1169.1 2245.63)
(9909.25 -709.633 -3439.91 94.9165 268.549 313.087)
(8128.22 401.93 4661.55 221.898 297.473 1966.5)
(5980.38 1499.14 4862.27 -535.173 1073.79 1629.53)
(3382.13 2363.5 4771.04 -1520.79 1860.1 539.331)
(864.582 2839.56 4544.32 -1980.23 2664.89 27.0261)
(-1461.78 2807.61 4134.76 -2172.08 3422 182.108)
(-3511.81 2274.9 3494.98 -2569.12 3966.61 918.755)
(-5164.79 1432.48 2620.8 -3544.47 3991.44 2117.22)
(-6387.72 631.318 1650.2 -5109.6 3063.61 3442.42)
(-7305.73 164.697 977.49 -6654.63 959.493 4166.25)
(-7515.62 -104.568 1023.2 -6745.85 -1717.03 4076.7)
(-6840.76 -618.912 1790.73 -5259.95 -3782.6 3291.86)
(-5863.93 -1498.45 2855.59 -3868.5 -4638.07 1794.74)
(-4454.23 -2429.21 3813.99 -3170.13 -4520.73 338.658)
(-2559.95 -3041.9 4520.71 -3056.08 -3869.8 -639.747)
(-244.876 -3123.3 4969.32 -3078.27 -2996.67 -959.828)
(2578.63 -2652.13 5190.09 -2555.45 -2076.14 -374.265)
(5400.34 -1775.36 5165.64 -1672.58 -1189.34 429.315)
(10034.4 -866.341 2583.27 -355.037 -266.456 -656.909)
(7899.94 320.142 -4916.59 570.707 -355.796 2886.72)
(6375.39 1322.6 -5027.51 431.761 -1177.8 3284.46)
(4144.25 2102.11 -4868.45 -298.645 -1985.94 2564.37)
(1874.06 2520.26 -4565.51 -692.886 -2777.68 2261.93)
(-318.635 2476.96 -4075.59 -971.096 -3480.1 2474.27)
(-2336.43 1993.89 -3363.87 -1530.55 -3929.13 3117.97)
(-4077.19 1258.91 -2450.79 -2671.79 -3850.42 4038.03)
(-5522.69 580.332 -1496.42 -4361.08 -2911.04 4896.67)
(-6648.8 184.395 -864.835 -5958.56 -997.509 5221.26)
(3343.88 64.5289 -126.004 4419.54 -1094.26 16064.7)
(3712.15 -169.09 553.174 5530.28 -3313.85 15451.3)
(3723.55 -790.133 1664.79 6201.38 -4556.28 13626.4)
(3708.77 -1607.2 2807.67 5977.38 -4813.62 11237.7)
(3953.64 -2271.01 3753.88 4999.18 -4383.43 8886.35)
(4228.58 -2530.34 4441.61 3386.49 -3556.8 6613.39)
(4257.42 -2305.69 4885.19 1372.58 -2522.97 4333.96)
(3600.23 -1676.64 5096.2 -1149.53 -1390.75 1502.47)
(4138.78 -841.117 4400.07 -3655.12 -230.306 -2880.73)
(2630.23 638.477 -5284.14 -4828.31 -277.202 -3164.71)
(1038.19 1304.62 -5588.91 -3044.22 -1446.7 989.654)
(1898.3 1795.46 -5175.68 -591.349 -2553.78 3901.24)
(2217.76 1970.61 -4561.31 1372.99 -3526.53 6259.12)
(2397.5 1768.6 -3719.54 3052.92 -4244.64 8632.27)
(2579.7 1269.11 -2667.05 4210.51 -4542.6 10968.2)
(2961.3 679.121 -1501.14 4822.35 -4221.84 13207.9)
(3252.28 247.166 -437.232 4741.71 -3139.62 14829)
(3353.64 83.4343 229.986 4378.87 -1379.89 15584.4)
(3426.06 61.0664 292.994 4389.5 667.21 15612.1)
(3611.82 -72.8736 -261.368 4965.23 2481.48 15100.5)
(3517.74 -474.753 -1239.12 5278.94 3665.71 13732.6)
(3398.57 -1065.59 -2346.44 5056.87 4117.23 11883.5)
(3562.37 -1609.39 -3362.21 4396.25 3952.33 10027.9)
(3839.88 -1889.44 -4176.57 3286.53 3347.15 8198.45)
(3999.16 -1805.15 -4759.85 1847.34 2455.15 6328.42)
(3533.3 -1401.79 -5125.09 -215.822 1393.26 3726.02)
(4556.29 -863.018 -4674.25 -2697.02 239.58 -1357.71)
(3336.01 559.556 5044.23 -4769.98 182.09 -3577.74)
(1278.62 1512.95 5595.08 -3958.94 1332.65 -1085.69)
(1835.96 2229.76 5320.54 -1587.63 2466.92 1493.18)
(1964.63 2547.79 4829.05 581.61 3520.76 3857.27)
(1993.39 2379.44 4105.55 2567.43 4391.76 6425.64)
(2086.51 1786.13 3129.14 4022.36 4899.62 9165.02)
(2474.04 1000.85 1944.74 4790.88 4756.33 12027.2)
(2880.37 369.283 755.869 4670.65 3643.91 14403.9)
(3080.56 109.925 -50.0209 4165.14 1515.55 15729.9)
(-482.506 -181.262 241.525 4681.52 -5736.63 8081.42)
(-853.195 -2405.81 1042.82 9634.73 -4809.63 1258.64)
(-189.889 -4302.23 1221.77 8657.71 -3155.16 -833.213)
(1601.76 -5447.75 1269.44 6858.83 -2205.1 -1383.99)
(3476.84 -5821.35 1277.82 4551.39 -1584.15 -1844.48)
(5287.3 -5450.15 1269.74 2262.83 -1111.48 -2261.62)
(6848.23 -4418.88 1248.25 326.249 -696.531 -2609.65)
(8082.96 -2885.28 1178.84 -931.817 -292.131 -2765.15)
(9436.8 -1065.02 746.005 -937.092 94.4082 -2294.26)
(9756.33 862.416 -1142.49 -752.931 88.8184 -2086.42)
(8703.14 2706.74 -1581.36 -645.933 -334.803 -2444.55)
(7659.45 4295.95 -1632.47 600.529 -800.384 -2272.62)
(6134.95 5428.88 -1620.56 2426.82 -1288.89 -2000.92)
(4250.78 5931.42 -1588.72 4596.54 -1843.27 -1684.96)
(2238.35 5699.18 -1539.71 6841.45 -2557.85 -1305.69)
(283.911 4685.88 -1450.73 8700.68 -3622.88 -775.677)
(-458.831 2860.07 -1222.25 10030 -5423.18 1508.79)
(-407.187 445.322 -280.919 5016.42 -6309.14 8271.2)
(-439.455 -139.725 -125.972 4379.84 5422.21 7773.65)
(-842.03 -2344.17 -973.154 9311.55 4677.47 1075.33)
(-151.662 -4269.51 -1174.22 8484.9 3074.71 -985.344)
(1709.45 -5444.76 -1234.13 6818.54 2143.5 -1461.49)
(3679.85 -5848.19 -1250.9 4634.26 1535.85 -1814.88)
(5573.7 -5504.99 -1248.56 2434.67 1075.93 -2129.68)
(7165.47 -4495.41 -1229.59 526.223 672.782 -2418.75)
(8331.51 -2973.78 -1157.33 -791.812 275.129 -2603.06)
(9439.04 -1157.46 -704.793 -1007.18 -119.556 -2329.71)
(9605.95 764.795 1182.97 -914.34 -142.823 -2209.85)
(8548.83 2607.36 1596.59 -748.947 247.192 -2511.78)
(7426.89 4189.95 1639.25 438.999 690.167 -2377.01)
(5899.42 5319.88 1622.14 2238.34 1160.73 -2094.6)
(4073.09 5828.56 1587.05 4415.78 1694.3 -1729.54)
(2154.14 5614.96 1539.2 6694.89 2380.27 -1282.78)
(284.237 4638.2 1461.6 8590.25 3408.56 -710.732)
(-459.253 2876.36 1268.85 9928.43 5186.42 1507.69)
(-423.875 515.75 414.367 5060.06 6270.61 8351.73)
(-5786.12 27.7744 -468.554 -4541.18 1599.47 6255.27)
(-5515.23 -407.686 -1292.39 -3389.49 3758.33 5274.6)
(-4790.06 -1250.53 -2459.59 -2150.37 4707.26 3737.31)
(-3739.54 -2182.43 -3533.24 -1695.65 4654.3 2070.93)
(-2378.27 -2822.39 -4342.54 -1987.18 4043.1 666.161)
(-844.126 -2954.94 -4875.62 -2646.46 3202.65 -337.816)
(824.806 -2563.85 -5176.19 -3120.95 2322.23 -784.447)
(2307.84 -1785.68 -5293.6 -3373.87 1483.87 -1029.83)
(4787.26 -837.994 -4649.42 -3261.3 612.211 -2228.69)
(5258.44 654.438 4202.91 -2701.98 595.182 -1960.91)
(3647.07 1706.38 4689.94 -2412.08 1395.56 -905.506)
(1971.12 2545.9 4605.53 -2451.2 2131.99 -1090.03)
(271.979 3021.12 4394.93 -2071.48 2907.14 -850.833)
(-1315.95 2990.68 4001.51 -1448.06 3681.95 -0.0576396)
(-2773.18 2430.17 3356.61 -1143.5 4293.28 1327.69)
(-3998.66 1516.98 2432.54 -1648.69 4403.4 2995.53)
(-4968.01 643.386 1353.86 -3083.1 3482.34 4657.12)
(-5838.03 187.309 560.036 -4768.48 1175.58 5531.67)
(-6163.48 -8.52315 587.275 -4913.15 -1864.16 5403.12)
(-5747.87 -526.207 1457.11 -3381.49 -4178.14 4363.24)
(-5059.96 -1509.92 2635.66 -2076.69 -5056.96 2534.8)
(-4078.53 -2554.79 3660.47 -1817.34 -4859.94 621.27)
(-2794.82 -3242.56 4396.03 -2430.88 -4135.71 -958.899)
(-1333.33 -3363.76 4858.33 -3422.93 -3229.87 -2082.79)
(300.699 -2914.89 5098.4 -4150.36 -2318.7 -2579.27)
(1854.51 -2042.31 5158.49 -4459.82 -1475.71 -2717.4)
(4592.11 -970.136 4442.47 -3896.84 -632.352 -3173.36)
(5226.07 568.342 -4402.19 -2374.73 -670.728 -1296.51)
(4130.15 1522.82 -4843.23 -1370.34 -1544.67 742.4)
(2800.61 2272.54 -4697.34 -1129.76 -2316.72 988.926)
(1313.12 2680.75 -4414.27 -706.002 -3087.47 1456.7)
(-154.427 2624.17 -3939.66 -192.418 -3812.62 2399.16)
(-1584.39 2099.14 -3214.5 -94.2869 -4322.16 3668.6)
(-2913.84 1293.53 -2237.95 -833.269 -4297.24 5065.89)
(-4131.56 562.693 -1169.91 -2432.88 -3306.65 6228.83)
(-5239 194.988 -431.503 -4155.83 -1143.27 6632.93)
(2229.88 51.4663 264.497 3547.98 -939.92 14578.9)
(2784.33 -223.672 853.711 4664.42 -2971.2 14268.3)
(3110.81 -805.707 1850.33 5449.45 -4150.94 12862.9)
(3390.1 -1540.31 2901.38 5429.55 -4419.22 10842.2)
(3912.13 -2125.57 3786.27 4756.79 -4016.1 8820.36)
(4539.48 -2331.89 4432.67 3599.57 -3206.45 6944.84)
(5042.41 -2078.35 4845.14 2203.12 -2175.43 5199.72)
(5153.24 -1425.66 5040.56 667.318 -1041.74 3321.45)
(5439.4 -542.587 4783.86 -1047.18 52.8869 355.905)
(6006.23 432.559 -4209.51 -2756.93 86.8236 -2810.41)
(1613.47 919.224 -5585.08 -2386.04 -949.085 1532.41)
(2490.24 1438.42 -5162.49 -96.7725 -2037.62 4478.5)
(2399.92 1691.81 -4568.45 1254.09 -2997.41 6303.43)
(2298.94 1596 -3773.06 2539.75 -3696.71 8289.03)
(2220.84 1215.11 -2795.37 3445.43 -3986.28 10280.1)
(2307.36 728.968 -1730.17 3906.64 -3699.31 12161.2)
(2305.52 346.754 -772.02 3778.9 -2730.14 13452.1)
(2207.35 156.702 -174.143 3442.88 -1170.51 14005.5)
(2300.23 62.3988 -117.453 3540.68 643.436 14085.6)
(2684.95 -126.394 -615.504 4201.95 2264.59 13820)
(2913.89 -524.395 -1500.15 4655.55 3335.91 12815.6)
(3107.67 -1062.13 -2514.08 4612.66 3740.17 11315.2)
(3556.2 -1536.82 -3452.24 4196.84 3562.27 9786)
(4177.16 -1756.53 -4205.34 3474.95 2955.2 8357.26)
(4784.03 -1626.65 -4737.41 2594.61 2060.75 7032.22)
(5119.87 -1176.04 -5054.96 1573.96 996.301 5526.52)
(5642.24 -537.781 -5042.23 78.8649 -80.2494 2461.28)
(7198.82 376.229 3250.11 -2440.93 -194.37 -3249.74)
(2181.22 1196.27 5532.06 -3341.9 886.633 -1015.58)
(2581.07 1933.13 5321.59 -1077.97 2023.06 1806.06)
(2257.23 2313.7 4854.04 541.262 3077.56 3790.77)
(1960.37 2234.2 4167.71 2125.32 3934.56 6034.47)
(1766.64 1747.08 3254.14 3302.06 4426.2 8458.43)
(1841.77 1062.15 2164.25 3895.71 4301.4 10965.9)
(1935.42 478.735 1085.55 3716.48 3299.47 12997.4)
(1950.04 181.013 352.269 3254.98 1400.15 14149.9)
(-643.946 -227.056 487.323 3205.49 -4837.88 9161.29)
(-936.412 -2204.15 1301.76 8564.11 -5592.45 2514.59)
(-293.034 -4122.27 1548.77 8427.31 -3895.28 -230.938)
(1423.99 -5308.96 1584.77 6838.7 -2686.99 -1125.68)
(3287.63 -5716.93 1549.21 4635.34 -1859.27 -1713.73)
(5100.42 -5383 1483.33 2415.83 -1233.33 -2187.41)
(6704.61 -4392.98 1397.09 561.007 -703.377 -2533.67)
(8004.46 -2894.28 1268.42 -612.732 -215.345 -2658.05)
(9300.31 -1095.58 927.492 -617.073 220.31 -2212.2)
(9813.57 735.042 -875.724 -320.207 287.249 -1972.62)
(8722.06 2551.68 -1701.32 -310.463 -199.263 -2283.61)
(7625.21 4146.35 -1827.63 747.566 -763.862 -2180.09)
(6111.44 5292.7 -1866.63 2455.72 -1372.22 -1900.32)
(4247.6 5815.24 -1881.56 4527.64 -2075.17 -1523.24)
(2250.56 5607.83 -1874.34 6658.84 -2984.75 -1008.27)
(365.798 4612.4 -1805.85 8350.21 -4291.56 -112.506)
(-466.766 2782.25 -1520.51 8850.64 -6104.17 2759.4)
(-502.813 568.528 -538.491 3497.12 -5278.8 9210.1)
(-564.657 -183.902 -364.245 3063.6 4539.21 8737.5)
(-881.996 -2121.45 -1218.59 8214.07 5383.63 2314.99)
(-214.9 -4070.01 -1502.21 8226.2 3796.13 -364.162)
(1562.88 -5298.57 -1561.94 6789.1 2632.64 -1190.07)
(3524.56 -5749.1 -1541.72 4724.38 1826.93 -1672.26)
(5428.5 -5454.73 -1485.62 2599.98 1216.86 -2041.4)
(7072.14 -4495.59 -1405.85 770.664 701.445 -2325.51)
(8311.85 -3014.81 -1284 -464.955 223.262 -2469.34)
(9327.86 -1223.54 -961.229 -696.426 -222.75 -2229.04)
(9654.68 594.36 810.678 -509.323 -348.548 -2137.34)
(8564.09 2404.47 1668.58 -395.738 79.6782 -2362.62)
(7327.34 3993.68 1804.93 567.3 616.817 -2328.87)
(5786.62 5140.11 1843.14 2225.39 1206.61 -2052.05)
(3979.58 5670.87 1855.14 4292.06 1884.57 -1630.67)
(2086.09 5483.99 1848.9 6448.54 2756.41 -1055.33)
(292.938 4531.86 1795.12 8166.96 4018.01 -143.034)
(-517.856 2783.84 1560.32 8722.51 5837.68 2649.43)
(-569.814 621.317 671.064 3516.55 5293.28 9270.8)
(-4316.79 131.332 -30.685 -2665.04 1813.9 7539.42)
(-4422.43 -293.767 -969.05 -1507.47 4221.97 6197.03)
(-4105.69 -1253.79 -2257.84 -409.761 5195.08 4242.32)
(-3401.08 -2327.37 -3398.8 -287.55 5052.07 2212.78)
(-2417.31 -3073.43 -4228.42 -1085.08 4352.32 420.66)
(-1342.58 -3275.47 -4761.15 -2370.24 3466.04 -1049.23)
(-250.965 -2926.88 -5060.08 -3586.16 2582.24 -2082.44)
(883.902 -2159.73 -5189.14 -4308.03 1771.18 -2634.41)
(2108.88 -1141.36 -4944.35 -4912.04 948.287 -3794.23)
(4664.5 853.192 3109.14 -3916.96 720.065 -4559.66)
(3096.97 1944.41 4517.46 -2518.57 1700.14 -1664.63)
(1705.59 2767.51 4437.45 -2175.66 2398.56 -1512.74)
(369.861 3229.52 4231.2 -1373.9 3136.75 -966.82)
(-786.919 3178.31 3849.92 -236.452 3915.75 248.422)
(-1855.53 2572.11 3206.3 549.783 4585.09 1910.88)
(-2750.61 1576.51 2244.69 393.204 4788.11 3885.18)
(-3414.15 623.575 1065.94 -912.339 3900.39 5875.45)
(-4109.79 192.036 146.069 -2694.08 1412.75 6995.01)
(-4547.92 111.868 148.12 -2894.87 -1995.75 6829.9)
(-4544.12 -387.848 1122.18 -1371.65 -4567.22 5411.18)
(-4264.05 -1487.62 2414.24 -195.457 -5466.15 3183.43)
(-3647.66 -2667.85 3501.42 -291.527 -5188.23 926.764)
(-2783.16 -3454.28 4264.47 -1445.36 -4397.16 -1028.78)
(-1844.8 -3642.55 4746.98 -3104.94 -3466.09 -2619.2)
(-887.856 -3239.42 5018.26 -4637.32 -2563.46 -3720.51)
(227.266 -2387.26 5144.7 -5436.97 -1752.97 -4119.76)
(1334.08 -1282.18 4996.96 -5863.31 -977.489 -4743.01)
(4829.27 741.065 -2941.72 -3867.18 -743.976 -4583.17)
(3615.01 1750.22 -4648.81 -1480.52 -1887.01 -137.303)
(2517.78 2474.9 -4520.38 -838.163 -2644.1 510.06)
(1329.85 2860.96 -4248.5 -40.6642 -3389.05 1275.77)
(244.907 2769.49 -3785.65 926.806 -4126.82 2579.27)
(-812.632 2182.98 -3051.16 1448.97 -4692.96 4206.45)
(-1803.59 1292.58 -2018.87 1004.88 -4730.98 5942.56)
(-2697.34 505.234 -841.111 -475.104 -3705.95 7441.26)
(-3649.62 186.642 6.14436 -2261.21 -1300.93 8015.77)
(1252.13 43.0392 725.921 2730.5 -789.036 13108.7)
(1946.78 -273.189 1228.41 3824.71 -2608.19 13050)
(2541.16 -820.838 2104.37 4687.93 -3702.41 12040.3)
(3096 -1475.06 3050.66 4858.63 -3973.99 10405.4)
(3849.53 -1981.3 3860.11 4451.26 -3602.92 8700.68)
(4723.68 -2134.24 4452.24 3649.7 -2822.08 7138.87)
(5519.55 -1852.72 4821.07 2689.74 -1809.78 5749.19)
(6113.31 -1180.45 4983.61 1828.6 -689.24 4483.81)
(6344.02 -252.789 4866 731.854 389.573 2436.54)
(8559.78 600.985 -1020.22 -1337 415.199 -3217.2)
(1879.09 533.664 -5626.79 -2077.31 -449.298 1669.35)
(2850.52 1066.31 -5184.32 218.413 -1496.04 4890.09)
(2482.37 1401.32 -4613.09 1077.34 -2444.45 6293.63)
(2167.91 1412.91 -3869.96 2016.38 -3126.93 7926.42)
(1866.03 1150.26 -2973.38 2685.06 -3409.96 9575.84)
(1676.32 766.626 -2013.8 2990.37 -3159.71 11087.7)
(1426.4 434.007 -1163.88 2831.95 -2307.58 12071.1)
(1182.41 223.308 -637.548 2552.48 -951.6 12464.1)
(1294.94 65.5304 -588.526 2733.76 621.734 12587.2)
(1824.74 -172.989 -1029.06 3441.85 2035.54 12512.6)
(2325.72 -567.176 -1815.99 4000.31 2978.06 11837.3)
(2810.48 -1053.03 -2728.26 4124.14 3326.51 10689.6)
(3502.83 -1459.79 -3579.69 3916.84 3135.79 9471.79)
(4372.64 -1620.51 -4263.31 3487.81 2534.34 8366.31)
(5260.59 -1447.26 -4737.36 2990.27 1650.8 7415.09)
(6048.87 -957.871 -5001.07 2613.65 596.653 6566.64)
(6452.48 -252.538 -5046.72 1850.12 -476.343 4721.63)
(9011.93 601.557 -813.021 -686.319 -626.977 -2503.39)
(3364.21 948.787 5375.66 -2698.44 479.31 -1185.52)
(3101.23 1651.78 5344.97 -820.062 1587.81 1783.7)
(2488.37 2084.1 4915.43 447.623 2635.36 3620.63)
(1916.39 2087.76 4273.84 1674.74 3474.89 5597.69)
(1472.45 1703.4 3429.43 2592.29 3947.4 7732.71)
(1254.61 1115.87 2438.78 3007.43 3837.96 9887.95)
(1082.33 579.723 1473.37 2788.05 2943.25 11600.2)
(958.52 249.493 818.125 2397.3 1271.43 12606.8)
(-557.287 -277.271 847.768 2532.36 -3951.65 9700.15)
(-822.362 -2038.84 1579.71 7355.85 -5866.02 3826.89)
(-236.374 -3912.77 1885 7990.45 -4464.27 581.396)
(1318.94 -5130.01 1921.83 6683.07 -3118.69 -747.636)
(3100.48 -5581.79 1848.59 4613.83 -2118.03 -1546.57)
(4848.47 -5298.57 1723.87 2445.28 -1349.29 -2151.01)
(6408.47 -4360.61 1565.46 601.528 -712.758 -2587.61)
(7663.57 -2902.48 1363.13 -598.13 -153.651 -2796.71)
(8732.29 -1119.84 1026.41 -786.717 322.599 -2571.81)
(9362.07 670.896 -391.763 -385.911 471.345 -2330.33)
(8469.56 2393.91 -1824.91 -246.762 -66.4798 -2368.02)
(7267.94 3986.04 -2050.74 580.926 -727.971 -2350.15)
(5838.79 5134.41 -2145.25 2224.77 -1452.02 -1977.25)
(4082.96 5659.8 -2205.46 4229.3 -2290.49 -1447.57)
(2201.25 5460.65 -2230.44 6240.48 -3351.53 -691.559)
(485.942 4476.4 -2164.2 7700.44 -4762.39 660.6)
(-360.586 2683.17 -1818.36 7440.68 -6234.28 3965.66)
(-418.905 684.568 -893.322 2725.8 -4288.16 9589.67)
(-501.856 -226.287 -712.916 2460.27 3707.86 9187.57)
(-785.484 -1937.16 -1478.38 6986.26 5596.4 3539.09)
(-179.261 -3835.05 -1830.3 7711.59 4332.55 404.817)
(1435.28 -5102.09 -1902.49 6565.65 3060.84 -844.887)
(3322.44 -5608.39 -1852.87 4653.75 2095.72 -1530.88)
(5181.31 -5376.86 -1743.57 2597.93 1349.01 -2017.05)
(6808.78 -4479.79 -1596.76 792.788 731.053 -2373.49)
(8035.69 -3045.99 -1409.14 -456.327 185.325 -2578.96)
(8854.14 -1273.58 -1109.25 -844.893 -301.654 -2521.79)
(9238.4 505.477 195.965 -562.889 -534.255 -2460.26)
(8362.11 2203.2 1714.4 -281.258 -91.5147 -2440.82)
(6948.82 3785.47 1986.62 426.905 535.31 -2523.92)
(5457.27 4936.04 2090.22 1989.43 1242.49 -2177.82)
(3756.08 5473.79 2150.95 3976 2055.89 -1609.97)
(1988.45 5299.73 2179.29 6011.28 3076.69 -798.466)
(377.438 4366.57 2133.23 7509.76 4447.65 555.919)
(-417.486 2667.12 1851.31 7360.66 5977.79 3801.58)
(-477.167 715.221 1021.08 2749.87 4331.81 9684.15)
(-2915.97 251.642 393.697 -934.482 2026.5 8615.14)
(-3489.75 -147.985 -660.942 239.635 4668.85 6807.29)
(-3702.52 -1239.65 -2061.44 1141.64 5643.69 4334.78)
(-3425.1 -2472.05 -3255.32 852.252 5403.97 1899.23)
(-2826.88 -3336.18 -4098.17 -482.344 4622.73 -254.179)
(-2143.05 -3615.62 -4634.47 -2357 3698.97 -2099.07)
(-1483.49 -3310.93 -4943.91 -4206.66 2811.65 -3561.14)
(-639.734 -2549.34 -5094.74 -5381.37 2016.8 -4373.86)
(-146.981 -1486.51 -5004.56 -6534.27 1237.81 -5665.71)
(4106.43 746.597 483.295 -5325.39 567.105 -7237.61)
(2289.49 2203 4316.79 -2921.28 1962.04 -2775.58)
(1043.8 3011.34 4255.47 -2255.83 2643.71 -2331.32)
(-20.3084 3456.36 4045.34 -1099.66 3337.79 -1566.31)
(-797.85 3374.06 3673.03 511.039 4106.16 -56.4533)
(-1467.52 2711.72 3039.89 1792.26 4822.24 1916.5)
(-1963.69 1622.34 2060.11 2050.22 5127.38 4227.92)
(-2218.59 574.252 795.973 932.346 4310.04 6628.57)
(-2595.42 172.1 -252.343 -901.776 1669.41 8139.89)
(-3114.08 248.82 -280.351 -1145.06 -2117.86 7967.14)
(-3608.27 -213.06 800.526 389.11 -4943.61 6069.52)
(-3842.25 -1443.91 2198.93 1402.49 -5841.66 3347.14)
(-3631.13 -2778.92 3335.22 915.75 -5477.77 735.257)
(-3144.38 -3680.56 4118.75 -758.053 -4629.36 -1531.98)
(-2614.1 -3949.89 4623.65 -3007.55 -3683.36 -3468.95)
(-2141.85 -3600.15 4932.89 -5207.7 -2790.6 -5000)
(-1418.25 -2769.09 5117.85 -6531.9 -2000.85 -5687.02)
(-1185.33 -1654.79 5174.62 -7603.24 -1277.28 -6503.63)
(3985.61 414.234 873.474 -5639.31 -496.119 -7478.01)
(2610.56 2001.76 -4404.96 -2183.5 -2160.3 -1723.71)
(1731.81 2695.17 -4324.96 -1008.37 -2947.35 -511.35)
(865.182 3052.45 -4059.58 217.527 -3665.45 586.155)
(151.5 2915.62 -3607.8 1636.57 -4404.58 2220.16)
(-493.925 2255.99 -2873.41 2622.23 -5021.34 4213.09)
(-1049.75 1266.44 -1800.85 2554.65 -5133.93 6355.09)
(-1498.93 410.193 -522.533 1252.79 -4099.49 8295.81)
(-2156.25 155.354 433.149 -545.688 -1463.46 9177.71)
(447.263 38.0731 1223.87 1988.12 -649.454 11749.8)
(1231.17 -311.752 1649.5 3034.84 -2253.56 11876.8)
(2049.6 -826.921 2409.3 3956.11 -3245.29 11217)
(2860.83 -1403.94 3245.48 4308.8 -3506.43 9961.62)
(3824.36 -1831.43 3968.83 4150.45 -3164.71 8570.47)
(4887.29 -1929.3 4495.11 3651.83 -2419.52 7278.09)
(5859.88 -1618.38 4809.34 3017.25 -1438.94 6129.34)
(6616.64 -928.214 4925.72 2501.98 -346.215 5119.23)
(6718.75 29.417 4828.22 1714.29 720.121 3460.2)
(8184.94 1080.39 2530.37 -63.917 969.589 -1598.98)
(2915.23 177.589 -5699.72 -1169.5 11.3635 2190.95)
(3194.7 670.479 -5229.69 590.626 -928.874 5327.65)
(2719.89 1092.47 -4686.57 1116.35 -1871.68 6457.74)
(2184.57 1213.18 -4002.28 1683.08 -2546.3 7703.36)
(1655.88 1066.49 -3190.44 2091.03 -2833.27 8988.17)
(1190.08 780.933 -2335.6 2211.4 -2630.2 10119.4)
(712.436 496.655 -1588.9 2000.25 -1899.24 10811.6)
(362.788 273.138 -1130.49 1775.57 -739.953 11081.4)
(483.815 66.4553 -1089.98 2015.37 602.639 11230.5)