/*--------------------------------*- C++ -*----------------------------------*\
| =========                 |                                                 |
| \\      /  F ield         | OpenFOAM: The Open Source CFD Toolbox           |
|  \\    /   O peration     | Version:  2312                                  |
|   \\  /    A nd           | Website:  www.openfoam.com                      |
|    \\/     M anipulation  |                                                 |
\*---------------------------------------------------------------------------*/
FoamFile
{
    version     2.0;
    format      ascii;
    arch        "LSB;label=32;scalar=64";
    class       volScalarField;
    location    "0.2";
    object      sigmaEq;
}
// * * * * * * * * * * * * * * * * * * * * * * * * * * * * * * * * * * * * * //

dimensions      [1 -1 -2 0 0 0 0];

internalField   nonuniform List<scalar> 
1620
(
12839.6
12790
12763
12622.7
12353.6
12010.4
11657.5
11368.2
11530.5
12055.2
12040.5
12348.2
12710.4
13040.5
13247.1
13242.3
13013.5
12676.9
12384.7
12218.6
12142.2
12051.4
11892.1
11665.1
11398.9
11160.3
11442.5
12133.5
12172.4
12447
12782.6
13120.7
13377.8
13449.1
13290.9
13025.7
12128.5
12383.7
12357.1
12260.5
12148.6
12045.2
11957
11883.3
11864.9
11993.5
12118.8
12251.9
12396
12560.5
12745.7
12943.7
13168.9
13304.2
11755.8
12213.2
12243.5
12181.1
12101.8
12028.9
11962.8
11897.9
11881.3
12009.1
12111.2
12222.1
12349.5
12500.1
12670.5
12848.4
13041
13202
12039.9
11933.6
11694.4
11496.2
11391
11368.7
11410.5
11517.6
11767.2
11157.6
10898.3
10757.8
10651.4
10583
10592.2
10741.8
11076
11514.7
11825.2
11877.7
11784.9
11689.9
11642.5
11639.5
11668.9
11736.6
11881.7
11056.8
10807
10684.8
10614
10607.9
10709.6
10970.4
11393.1
11834.4
12689
12670.7
12618.4
12409.1
12052.8
11625.1
11209
10908
11231.5
11691.7
11526.9
11784.1
12147.2
12511.2
12780.1
12861.2
12722.1
12450
12201.9
12058
11967.6
11835.5
11616.1
11318
10982.9
10708.9
11157.7
11794.8
11695.4
11909.4
12231.8
12592.8
12908.3
13068.5
13007.5
12816.7
12551.4
13070.4
12825.1
12491.6
12195.8
11964.8
11787.8
11645.7
11604.5
11762.6
11942.5
12145
12368.5
12645.5
13004.5
13451
13953.5
13769
12070.4
12850.3
12711.9
12449.9
12214.8
12030.7
11875.4
11721.5
11650.1
11760.4
11870.8
12021.2
12214.4
12475.5
12824.4
13259
13738.8
13645.4
11989.8
12013.6
11871.4
11685.4
11528.4
11411.1
11327.7
11302.9
11465.3
10849
10684.6
10658.7
10670.5
10697.7
10757.1
10881.7
11100.6
11413.6
11750.3
11951.8
11962
11879.4
11784.8
11696.2
11608.7
11546.8
11560.8
10738.4
10571
10555.1
10605.1
10706
10871.6
11121
11443.8
11769.1
12367.1
12398.3
12334.3
12069.1
11647.2
11169.1
10732.6
10447.3
10755.1
11454.7
11025.6
11171.2
11482
11838.7
12141.8
12288.3
12219.8
11999.8
11802.2
11703.3
11621.1
11465.3
11209.5
10879.6
10530.7
10263.2
10613.3
11611.9
11258.3
11347.3
11607.4
11951.8
12292.8
12518.6
12542.9
12425.7
12441.2
13503
13200.6
12676.9
12218
11872.6
11619.5
11426
11341.9
11506.8
11716.4
11985.3
12290.4
12677.4
13200.2
13872.5
14508.8
13338.3
11807.1
13125
13025.7
12635.2
12276.9
12003.3
11782.4
11567.9
11412.3
11489
11583.3
11772.7
12036.6
12404.1
12912.2
13566.4
14201.7
13350.4
11827.5
12078.4
12103.3
11949.5
11736.3
11519.5
11317.5
11166.8
11207.9
10647
10508
10587.9
10714.6
10838
10936.4
10992.3
11007.9
11110.6
11504.2
11978.2
12178.7
12133
11986
11807.3
11614.1
11435.9
11387.4
10544.9
10372.3
10459.4
10630.2
10837.4
11056.6
11262.6
11422.9
11569.4
11867
11943.4
11902.7
11638.5
11207.5
10725.3
10301.2
10041.7
10222.1
11445.9
10700.2
10696.1
10916.7
11218
11494.5
11641.6
11597.6
11420.2
11274.3
11223.6
11171.1
11026.8
10776.8
10460
10137.9
9897.76
10026.6
11558.7
11024.1
10936.2
11094.4
11378.9
11686
11902.6
11946.5
11873.1
12012.4
13522.9
13386.6
12781.8
12214.4
11783.4
11470.3
11232.1
11092.6
11240
11473.4
11804.9
12182.1
12648.6
13267.5
14023.4
14460.4
12527
11325
12991.8
13123.7
12712.8
12287.5
11958.1
11697.9
11445.7
11207.6
11220.5
11291
11507.7
11833.6
12279.3
12879.2
13613.9
14104.5
12644.7
11560.3
12118.8
12388.4
12296.6
12035.5
11733.5
11440.6
11191.7
11074.3
10597.6
10426.1
10594.4
10817.2
11026.1
11165.5
11153.7
10932.9
10759.3
11199.6
12016.5
12469.1
12478.9
12283.3
12027.4
11756.1
11492.5
11300.5
10565.8
10277.7
10450.2
10722.3
11019
11280.6
11424.6
11370.6
11269.2
11344.2
11450.6
11440.3
11201.6
10788.8
10325
9927.86
9702.93
9824.27
11172
10550.3
10354.4
10464.9
10691.5
10916.6
11037
10996.7
10852.8
10749.4
10735.9
10715
10597.6
10376.1
10096.5
9822.14
9628.09
9669.11
10919.2
10952.4
10649
10682.1
10890.3
11143.1
11324.4
11362.4
11315.4
11502.3
13178.2
13341.7
12780.5
12169.5
11685.4
11328.3
11053.1
10863.9
10965.2
11232.1
11609.5
12046.7
12563.8
13207.8
13893.4
13926.3
11728.2
10811.1
12540.6
12980.1
12660
12232.2
11883
11607
11337.5
11044.4
10954.4
11020.1
11232.8
11605
12102.5
12730.6
13409.9
13576
11909.3
11270.3
12178.1
12729.6
12712.3
12408.4
12031.5
11662.1
11326.5
11061.9
10676.6
10412.8
10660.3
10965.5
11247.2
11427.7
11361.9
10906.1
10419.9
10896.3
12096.7
12830.6
12901.2
12659.8
12336.5
12002.1
11667.6
11348.2
10828.6
10257.8
10505.3
10863.5
11232.3
11527.3
11608
11326.9
10948
10884.4
11003.2
11011.8
10799.7
10413.8
9977.12
9611.32
9420.39
9531.48
10420.8
10573.9
10142.5
10125.1
10266.3
10430.4
10516.9
10477.7
10365.4
10297.8
10309.1
10310.7
10220.8
10035.1
9801.82
9581.6
9437.43
9465.62
10046
10963.5
10473.4
10363.7
10485.2
10679.8
10824.9
10856.7
10832.4
11026
12618.1
13065.8
12642.5
12053.1
11550.6
11167.6
10867.4
10649.1
10694
10999
11392.7
11876.1
12417.4
13023.1
13524.4
13151.8
11053
10350.6
11922.6
12611.6
12454.7
12084.1
11750.8
11481.5
11216.1
10908.4
10712.4
10782.2
10949.9
11343.3
11866.1
12470.5
13004.7
12846
11274.4
11019.7
12303.9
13142.4
13192
12840.6
12386.9
11939
11515.7
11123.3
10720.2
10433
10765
11148.9
11499.4
11727.2
11632.7
10964.2
10140.2
10645.5
12260.5
13276.2
13393.7
13099.2
12705.8
12306.9
11903.8
11490.7
11043
10267.2
10602
11040.7
11473.5
11802.1
11832.7
11332.9
10660.8
10522.7
10638
10647.5
10451.2
10089.4
9679.83
9344.11
9184.71
9313.39
9936.74
10729.8
10064.8
9897.42
9944.7
10045.9
10101
10067.7
9989.02
9952.68
9977.69
9988.93
9917.43
9763.05
9573.02
9403.2
9306.62
9358.12
9700.81
10801.5
10396.3
10136.1
10161.8
10300.9
10418.5
10453.7
10454.9
10632.3
11984.8
12598.5
12350.3
11836.3
11352.8
10968.3
10663.5
10438.7
10440.6
10766
11148.2
11661
12200.1
12716.8
12982.4
12330.8
10526.4
9984.81
11269.2
12072.3
12091.8
11821.7
11537.9
11299.9
11064
10777.6
10519.1
10565.9
10668.6
11043.6
11561.6
12105.2
12463.6
12089.8
10773.9
10856
12551.8
13651.8
13731
13310.6
12766.6
12229
11714.4
11216.1
10712.3
10443.8
10899.3
11366.2
11790.9
12082.5
11997.1
11152.9
9957.45
10488.1
12557.6
13823.4
13945
13574.8
13098.8
12626.2
12154.8
11672.1
11176.1
10243.9
10719.5
11249.7
11751.7
12127.1
12136.6
11436.1
10443.5
10263.3
10360
10351.3
10155.3
9809.04
9422.67
9114.78
8987.56
9146.96
9714.51
10751.6
10137.8
9789.06
9732.07
9771.63
9800.56
9778.04
9733.3
9722.55
9750.59
9757.23
9690.41
9555.7
9398.97
9271.37
9219.11
9306.75
9621.48
10221.6
10387.7
9998.42
9920.6
10007.9
10108.8
10157.9
10186.9
10337.5
11380.1
12010.2
11913.9
11506.6
11075.7
10716.6
10430.1
10217.7
10192.1
10515.5
10876.8
11393.7
11904.6
12301.9
12346.7
11584.1
10152.4
9733.77
10679
11446.2
11597.7
11442.6
11232.4
11047.7
10862.7
10623.6
10355.7
10334
10407.5
10709.6
11188.6
11652.8
11859.3
11411.9
10410.2
10825.1
13005.4
14300.3
14329.3
13797.6
13140.8
12500.4
11892.3
11302.5
10702.6
10368.7
11061.4
11629.1
12145.8
12531.2
12511.9
11547.6
9910.44
10462.3
13063.8
14501.7
14543.9
14059.2
13481.8
12926
12387
11844.2
11292.9
10171.1
10822.9
11489.4
12088.1
12544.3
12587.3
11711.4
10321.8
10084.5
10147
10102.4
9893.14
9556.08
9191.73
8912.31
8818.32
9011.02
9576.39
10268.7
10410.8
9826.75
9638.78
9611.23
9614.09
9602.17
9586.71
9592.79
9612.68
9601.38
9525.91
9399.46
9266.64
9173.94
9161.21
9283.04
9617
9979.83
10322
9944.84
9762.45
9796.13
9887.11
9955.75
10010
10135.8
10861.9
11383
11374
11074.4
10716.8
10403
10149
9962.29
9935.41
10244.9
10595
11069
11530.6
11807.7
11699.4
10977.6
9922.75
9600
10216.1
10828.6
11030.9
10971.7
10840.9
10719.4
10596
10422.1
10196.5
10106.1
10187.9
10364.1
10763.8
11147.1
11261.5
10862.5
10168.1
11003.7
13822.6
15158.7
14997.8
14289.5
13488.9
12730.4
12024.3
11347.9
10668.4
10129.2
11249.6
11959.5
12602.3
13132.7
13272.6
12299.4
10068.6
10621.2
13926.5
15359.8
15182.7
14526.9
13824
13175
12569.6
11975.3
11383.9
10457.7
10837.5
11747.9
12506.3
13113.5
13302.8
12317.1
10325.8
9935.88
9949.93
9859.64
9633.87
9310.37
8977.18
8735.2
8678.72
8903.89
9492.78
10193.1
10882
10100.1
9696.03
9568.03
9528.35
9513.97
9514.02
9524.3
9526.59
9490.14
9400.74
9278.89
9167.03
9106.6
9132.02
9290.45
9663.64
10196.6
10008
9946.14
9689.91
9656.18
9729.95
9811.42
9879.02
10000.9
10442.4
10782.6
10788.6
10573.8
10293.1
10032.9
9817.84
9666.68
9667.94
9984.21
10330.8
10694.6
11094.2
11277.3
11106.7
10529.3
9813.27
9566.71
9903.39
10299
10469
10462.2
10395.2
10331.3
10268.1
10168.3
10019.1
9930.81
10006.2
10061.1
10330.7
10633.3
10719
10444.3
10013.9
11641.6
15343.4
16312.3
15743.9
14773.3
13793.1
12901.3
12092.3
11332
10594.6
9932.29
11419.5
12381.3
13198.9
13954.9
14417.3
13742.2
10673.5
11114.9
15472
16441.3
15841.4
14944.9
14089.9
13339.9
12671.7
12040.1
11433.9
10828.8
10536.9
11968.3
13002.6
13889.6
14463.3
13667.9
10550.3
9739.79
9702.38
9573.89
9345.95
9056.05
8777.11
8594.36
8593.42
8865.76
9493.93
10345.5
10576.4
10861.4
10005.9
9676.06
9539.93
9482.06
9462.83
9459.33
9442.78
9387.16
9292.49
9183.85
9100.27
9078.86
9151.61
9362.15
9790.18
10480.8
10513.4
9865.47
9697.91
9588.27
9610.53
9670.94
9720.4
9884.97
10086.4
10236.1
10212.8
10054
9841.33
9634.29
9461.77
9356
9401.74
9728.62
10104.2
10318.4
10636
10759.6
10600.1
10207.7
9777.76
9594.87
9713.27
9893.2
9983.36
9984.74
9952
9925.39
9907.87
9876.05
9816.47
9791
9896.74
9859.11
9963.17
10163.6
10245.4
10112.3
9895.08
14251.3
18063.9
17683
16462.3
15171.7
14004.8
12985.7
12082.2
11251.9
10481.6
9832.76
11245
12870.5
13905.6
14972.2
15987.2
16402.5
13244.7
12988.3
18140.7
17593
16399.2
15227
14220.7
13382.8
12669.6
12025.4
11420.6
10889.5
9782.84
11895.5
13376.9
14713.1
16042.3
16702
11837.3
9446.86
9363.71
9220.48
9022.32
8803.24
8617.38
8529.91
8613.23
8944.35
9576.72
10380.1
9970.98
12861
10976.8
10095
9717.2
9529.23
9430.62
9376.54
9331.35
9267.93
9188.14
9115.3
9082.2
9120.99
9261.64
9543.63
10036.2
10829.4
11715.5
10163.3
9701.96
9607
9534.96
9512.33
9490.15
9697.05
9730.34
9742.07
9683.59
9559.01
9401.55
9245.14
9118.62
9063.89
9158.8
9490.44
9914.09
10060.7
10227.1
10309.4
10196.4
9959.09
9727.23
9596.04
9576.21
9603.52
9614.21
9596.1
9568.69
9554.43
9560.41
9578.77
9604.36
9670.55
9878.35
9798.53
9753.01
9816.81
9860.32
9808.56
9720.48
19671.4
19372.7
17991.4
16523.4
15162.6
13959.1
12903.1
11962.6
11106.7
10340.2
9743.33
10151.3
13201.4
14413.9
15654.3
17011.7
18393.7
19276.9
16344.6
18655.2
17565.6
16300.8
15106.5
14085.8
13239
12528.4
11906.6
11338.7
10851
10484.7
10835.6
12950.7
14558.4
16166.5
17804.6
15867.5
9143.8
9011.91
8876.24
8742.18
8626.67
8556.45
8565.85
8693.08
8967.39
9374.06
9745
9559.65
14697.6
14025.9
11371.8
10310.3
9793.99
9502.98
9323.98
9207.81
9130.18
9081.48
9068.18
9107.51
9220.91
9431.4
9768.67
10281.9
11055.3
12167.3
12842.4
9904.47
9623.23
9540.49
9405.01
9273.19
9439.94
9375.31
9306.23
9220.56
9119.2
9010.84
8909.99
8839.55
8838.78
8965.73
9263.6
9651.16
9972.68
10069
10026.1
9936.86
9789.24
9637.32
9518.12
9439.57
9386.21
9340.28
9297.2
9262.91
9248.89
9265.05
9316.53
9407.24
9551.67
9803.02
10017.2
9721.44
9680.76
9648.41
9592.76
9515.44
11088.2
13684.1
14676.6
14581.7
13997.1
13226.1
12409.5
11608.9
10853.7
10183.3
9683.44
9606.89
12441.1
14002.3
14708.3
15069.8
14406.1
11649.5
9885.19
12486
14134.9
14381
13981.1
13371.2
12742.9
12163.2
11644.9
11185.3
10799.3
10601.3
9946.99
10939.3
12052.5
12364.8
11525.5
9857.74
9089.2
8896.02
8719.75
8565.08
8433.98
8327.82
8250.88
8215.55
8251.88
8439.73
9038.17
11055.3
17408.7
20411.5
15147
12047.6
10608
9817.65
9344.11
9054.35
8879.96
8781.85
8741.23
8755.11
8830.69
8979.78
9216.68
9564.75
10081.3
10929.2
12413.3
12581.8
10039.8
9648.79
9483.79
9290.36
9272.25
9108.84
8967.28
8853.57
8768.23
8709.03
8675.23
8673.95
8723.5
8849.5
9068.58
9368.77
9920.54
10708.5
10139.8
9902.26
9720.49
9547.24
9388.63
9253.56
9142.94
9054.69
8990.34
8953.68
8948.84
8981.24
9057.52
9183.62
9363.42
9606.32
9973.64
9817.1
9757.34
9700.2
9589.89
9441.06
9838.79
10372.4
10975.8
11400.9
11556.1
11457.7
11175.1
10786.8
10360.2
9954.56
9631.1
9474.86
10127.1
12492.9
12212
11755.7
10974.8
10049.1
9590.35
9955.2
10735.1
11394.6
11730.7
11770.6
11619.7
11376.6
11108.9
10858.3
10657.4
10583.6
11019.4
9777.24
9809.53
9884.38
9752.27
9642.83
9853.43
9220.54
8814.77
8589.84
8483.97
8429.15
8384.79
8359.34
8407.97
8626.4
9177.36
10291
12240.2
13884.3
11574.2
10370.1
9970.75
9682.21
9398.12
9119.64
8874.53
8701.4
8639.75
8721.81
8981.71
9478.5
10278.6
11481.2
13328.9
16239.1
20054.8
21171.5
19283.9
15004.3
12301.1
10794.6
9342.35
9003.4
8701.89
8488.49
8379.13
8357.93
8398.36
8483.51
8614.69
8806.52
9077.82
9482.21
10400
12057.1
10789.5
10265.1
9943.54
9629.95
9304.93
8994.84
8735.97
8550.87
8442.75
8403.75
8424.57
8498.27
8621.53
8793.6
9014.7
9278.09
9607.98
9829.52
9899.35
9976.52
9879.74
9653.19
9619.5
9561.2
9589
9704.32
9844.82
9936.1
9937.86
9850.64
9703.67
9538.94
9403.81
9354.09
9554.9
11037.3
10461.1
10188
10011.1
9797.94
9587.67
9475.62
9536.69
9757.07
10044.8
10295.5
10446.3
10486.3
10444.6
10368.5
10315.1
10372.2
10864.7
11134.5
9759.34
9709.69
9733.89
9699.2
)
;

boundaryField
{
    fixed
    {
        type            calculated;
        value           nonuniform List<scalar> 
108
(
12855.6
12793.3
12750.6
12601.5
12326.5
11974.6
11605.1
11272.4
11178.1
11887.1
12002.6
12343.3
12713.1
13048.3
13261.6
13261.1
13027.7
12679.6
12377.7
12209.3
12134.9
12045.7
11887.7
11663.2
11396.2
11124.2
11064.8
11999.6
12094.7
12389.7
12731.5
13070
13325.4
13401.1
13263.9
13029.4
12118.6
12383.2
12374
12276.8
12159.2
12049.9
11957.3
11879.7
11844.8
12006.4
12129.2
12267.3
12421.4
12600.9
12806.1
13028
13268.7
13253.6
11703
12170.4
12232.9
12179.3
12100.9
12026.6
11958.9
11891
11853
12022.2
12121.6
12237.9
12375.5
12541.2
12731.4
12932.7
13142.8
13201.4
12045.2
11940.1
11697.3
11500.5
11397.7
11374.7
11410.9
11504.4
11709.8
11087.7
10857
10726.1
10626.4
10562.6
10573
10719.8
11050.3
11488.3
11805.3
11864.6
11773.3
11677.1
11626.4
11618.7
11642.6
11703.1
11858.8
11015.6
10804.2
10692.9
10624
10611.7
10699.7
10945.6
11366.6
11823.7
)
;
    }
    inside
    {
        type            calculated;
        value           nonuniform List<scalar> 
540
(
11994
11883.9
11677.8
11465.4
11296.9
11196.3
11177.2
11253.5
11459.2
10843.7
10631.4
10528.2
10516.2
10598.3
10778.4
11045.7
11356.1
11620.4
11738.7
11702.5
11588.2
11467
11375.9
11330.4
11340.4
11422
11626.5
10783.2
10633.2
10578.7
10617
10753.8
10989.5
11305.7
11648
11913.8
11928.7
11863.3
11693.5
11489.9
11299.8
11143.1
11033
11004.7
11137.5
10540.8
10384.6
10362.2
10426.6
10558.5
10753
11000.7
11269.2
11502.5
11635.5
11644.8
11567.8
11458.6
11353.3
11262.6
11191.3
11173.9
11311.6
10479.3
10381.7
10405
10523.1
10719
10980.3
11287
11595
11833.4
11734
11754
11653.7
11474.4
11265.3
11052.2
10856.5
10727.5
10775.3
10182.7
10089.9
10128.2
10249.6
10418.4
10612.9
10816.6
11009.5
11185.6
11348.5
11453.7
11460.9
11393
11288
11162.5
11026.7
10923.2
10973.7
10126
10097
10188.9
10375.6
10623.3
10901.1
11180.4
11426.3
11612.9
11426.1
11567
11593.8
11492
11306.9
11079.6
10848.3
10670.7
10659.4
10013.3
9987.85
10046.8
10182.8
10352.2
10514.5
10639
10718.1
10809.2
10997.7
11224.8
11361.6
11379.5
11312
11188.4
11032.5
10890.3
10873.1
9970.25
10017.7
10137.7
10344.8
10598.3
10848.8
11053.1
11186.6
11284.2
11085.9
11350.4
11525.8
11532.6
11404.3
11197.8
10967.9
10774.8
10720.6
9995.98
10044.9
10095.8
10208.9
10343.4
10446.3
10474.2
10431
10433.8
10642.6
10992.5
11275.5
11405.8
11405.3
11314.8
11170.8
11017.8
10947.5
9964.14
10105.4
10230.9
10414.4
10628.8
10816.2
10921.5
10928.9
10930.6
10771.4
11146.8
11470.5
11601.3
11553.1
11390.6
11180.4
10984.2
10892.9
10080.3
10226.7
10262
10324.1
10395
10417.2
10340.9
10181.5
10105.1
10331.6
10794.5
11223.5
11479
11564.8
11525.7
11406.4
11250.5
11137.1
10035.2
10312.9
10459.9
10585.2
10719
10813.5
10807.6
10693.4
10607.8
10519.6
10988.9
11448.6
11705.5
11748.4
11639.4
11452.1
11253.4
11130.6
10212.2
10501.7
10541.5
10531.7
10516.6
10443.1
10259.8
9995.36
9854.39
10098.7
10660.9
11224.8
11606
11784.7
11801.1
11704.3
11541.2
11388.7
10120.1
10589.7
10818.3
10869.5
10885.9
10860.2
10734.2
10507.8
10349.1
10350.7
10899.5
11478.3
11854.3
11987.9
11931.4
11762.2
11556.4
11398.6
10363.6
10850
10944.6
10852.1
10732.3
10549.4
10255.2
9894.43
9701.81
9965.69
10613.2
11295.8
11793.9
12061.1
12126.6
12042.4
11862.7
11663.4
10200.3
10898.8
11298.9
11300
11169.5
10990.3
10728.2
10392.8
10172.2
10270.1
10892.5
11577.8
12063.5
12281.7
12269.2
12107.2
11883.3
11668
10534.9
11268.6
11498.5
11331.5
11088.6
10776.7
10358.4
9898.36
9656.91
9940.72
10665.3
11453.2
12056.5
12400.6
12500.1
12412.6
12204
11949.2
10278.1
11191.8
11871
11928.2
11641.7
11260.3
10825.5
10365.5
10081.5
10268.2
10976.7
11771.4
12370.6
12668.4
12685.6
12512.6
12249.7
11934.9
10756.1
11755.8
12230.4
12047.7
11669.4
11197.3
10617.8
10029.7
9717.52
10014.7
10827.5
11722.9
12430.2
12835.8
12943.5
12827.2
12570.6
12251.8
10354.9
11417.5
12453.8
12796.5
12414.3
11772.7
11088.5
10449.9
10066.7
10325.1
11146.1
12115
12865.7
13241.5
13266.4
13052.1
12714.7
12219.5
11072.8
12291.7
13131.1
13094.3
12615.8
11957.4
11140.8
10325.8
9882.97
10166.5
11093.2
12161.7
13007.3
13453
13525
13338.8
13006.2
12613.6
10437.3
11635.7
12988.2
13836.2
13595.3
12712.8
11647.2
10687
10127.2
10315.7
11502.4
12803.5
13760.1
14204.3
14192.8
13876.4
13389.8
12515.5
11553.7
12880.6
14137.9
14510.1
14124.2
13352.1
12233.1
10963.7
10045.7
10239.3
11532
12972.9
14011.8
14448.9
14401.6
14068.7
13606.2
13125.1
10520.6
11921.3
13395.7
14762.5
15139.2
14332.2
12817.1
11208.7
10123.2
10314.8
12434.4
14437.9
15654.8
16045
15810.2
15195.9
14350.1
12550.9
12300.5
13542.8
15021.5
16008.8
16271.9
15910.9
14731.2
12583.9
10271.1
10099.7
12420.2
14816.2
16091.8
16303.8
15892.2
15227.1
14525.6
13959.1
10442.6
12194.8
13739.5
15435
16682.2
16740.5
15180.1
12299.1
9964.93
13097.9
17970.4
19944
20037.5
19171.8
17881.5
16426.4
14777.3
11110.4
13256.5
13893.6
15083
16293.6
17415.4
18641.8
19855.4
19821.9
14681.5
10480.9
18233.3
21143.1
20789.3
19429.3
17950.9
16660.2
15679.1
15316.7
9772.54
11749.9
13192.9
14782.2
16512.5
18250.2
19544
17919.7
10238.4
11123.6
13626.2
15367.3
16089
15958.8
15213.9
14056.2
12408.7
9230.15
13538.3
12883.6
13038.4
13213.4
13397.4
13656.8
13734.7
13164
11301.4
9586.41
11658.8
14522.7
16143.6
16636.1
16423.8
15931.5
15592.2
16493.5
9724.17
9976.46
10646.7
11165.3
11497.6
11583.4
11296.5
10443
9687.95
)
;
    }
    outside
    {
        type            calculated;
        value           nonuniform List<scalar> 
540
(
12874.8
12785.4
12675.2
12486.5
12188.4
11794.1
11344.8
10908.2
10689.7
11275.9
11338
11696.7
12077.9
12406.2
12630.6
12723.6
12696.9
12590.6
12433.7
12266
12118.5
11959.9
11751.4
11473.3
11129.2
10762.3
10567.9
11486.1
11543.8
11866.9
12230.5
12569.1
12826.5
12963.1
12985.8
12947
12715.4
12649.8
12524.3
12285.3
11915.7
11445.3
10936.8
10488.4
10334.3
10943.4
10884.7
11206.7
11607.6
11988.4
12280.9
12441.3
12462.8
12377.2
12238.4
12089.4
11938
11752.3
11496.9
11159.7
10760.4
10370.2
10210.1
11182.9
11107.6
11375.3
11741.7
12121.8
12446.6
12661.7
12752.2
12754.1
12387.6
12369.9
12240.1
11953.1
11517.4
10987.5
10449.2
10019.1
9942.27
10586
10352.1
10573.6
10943.3
11342.7
11685.5
11908.8
11984.3
11935
11839.3
11734.4
11593.2
11384.8
11089.6
10713.1
10295.1
9920.74
9801.82
10923.9
10632.3
10780.2
11103.7
11493.9
11865.4
12149.4
12310.6
12368.2
11881.3
11910.6
11811.7
11532.1
11092.3
10565.1
10054.1
9686.43
9691.38
10520.1
10081.4
10137.3
10409.1
10759.6
11085.3
11309
11393.9
11366.7
11311
11255.1
11150.6
10959.6
10673.3
10314
9935.84
9627.26
9552.72
11005.3
10437.7
10390.3
10603.5
10939.6
11289.4
11570.6
11741.3
11821.9
11353.5
11416.3
11356.6
11112.1
10703.7
10214
9758.03
9467.51
9524.41
10724.8
10052.3
9891.21
10022.5
10284.7
10556.3
10749.3
10823.8
10810
10784.6
10767.9
10705.7
10553.7
10308.2
10001.8
9695.95
9477.28
9447.07
11351.9
10504.5
10189.9
10238.4
10481.2
10776.4
11025.2
11182
11270.4
10890.4
10971.5
10942.2
10737.2
10374.5
9938.4
9547.45
9329.88
9400.62
11119.7
10237.7
9821.09
9778.16
9925.18
10122
10272.2
10333.3
10332.2
10331.1
10342.8
10316.9
10209.5
10019.5
9783.35
9562.59
9436.96
9452.35
11872.3
10819
10174.4
10005.3
10122.9
10346.9
10556.7
10698.8
10793.2
10526.9
10613.5
10599.4
10425.4
10107.3
9726.42
9398.32
9242.26
9299.74
11673.4
10621.9
9915.16
9669.42
9683.7
9795.53
9899.99
9950.52
9964.3
9984.31
10015.4
10015.5
9947.09
9812
9646.65
9508.46
9469.68
9543.71
12510.8
11357.3
10349.2
9910.1
9871.42
10012.8
10184.2
10317.7
10421
10266.9
10346.5
10330.8
10172.9
9889.71
9557.8
9286.2
9183.82
9204.25
12408.7
11209.1
10165.7
9694.48
9565.52
9587.46
9645.33
9687.13
9716.01
9753.19
9795.07
9808.66
9767.14
9676.56
9572.5
9507.89
9550.85
9698.8
13199
12084.9
10746.9
9974.99
9739.28
9783.45
9915.84
10044.9
10157.8
10088.1
10147.2
10113.7
9957.97
9700.73
9413.23
9195.99
9143.16
9091.58
13261.8
11957.7
10595
9867.26
9578.88
9502.25
9508.23
9537.4
9576.16
9623.21
9666.29
9681.09
9653.45
9595.52
9542.67
9544.43
9666.49
9901.08
13840.4
12968.7
11417.3
10239.2
9746.09
9664.42
9748.05
9868.84
9985.54
9939.64
9965.31
9905.62
9748.32
9518.64
9281.54
9125.33
9119.24
8942.91
14265.3
12894.1
11271.4
10227.8
9739.1
9539.92
9476.08
9476.33
9509.93
9554.78
9590.31
9599.5
9580.13
9550.22
9545.18
9612.66
9819.16
10170.7
14327.4
13981.7
12365.3
10771.5
9934.28
9665.37
9666.18
9756.84
9859.53
9742.71
9732.17
9655.13
9511.21
9327.78
9161.53
9083.23
9123.4
8752.69
15764.7
14328.9
12346.8
10831.3
10080
9712.99
9539.3
9471.32
9464.4
9488.25
9513.88
9522.69
9519.26
9525.17
9576.71
9723
10039.7
10580
14326.8
15025.2
13593.3
11719.7
10398.6
9824.1
9659.16
9660.68
9707.41
9445
9400.33
9329.02
9230.87
9130.44
9069.96
9091.53
9155.55
8523.99
18367.6
16577.7
14041.9
11881.9
10711.4
10079.8
9727.28
9530.67
9431.82
9397.32
9398.76
9413.17
9441.17
9503.65
9637.15
9896.05
10380.4
11264.3
13008.6
15855.5
14934.3
13097.9
11300.2
10243
9763.37
9568.51
9487.89
9130.93
9037.92
8981.95
8951.3
8949.65
8985.26
9040.17
8931.6
9306.47
24013.7
20627.6
16747.4
13583.1
11765.2
10757.4
10134.9
9735.24
9480.09
9326.11
9251.56
9243.79
9296.94
9421.09
9646.88
10038.5
10760.2
12345.1
9680.74
14709.6
15116.8
14090.9
12413.5
10943.2
10052.5
9560.87
9288.03
9108.71
8937.65
8781.62
8632.31
8485.34
8345.9
8284.75
9034.71
23407.6
34275.2
23174.7
17316.7
14050
12426.1
11459.8
10699.5
10118.7
9679.22
9347.96
9101.95
8924.75
8807.43
8753.9
8790.43
8998.85
9704.62
12742.9
10803.9
9142.41
9969.35
10526
10610.8
10296.9
9890.44
9560.97
9308.92
10096.9
10134.8
10163.2
10153.6
10091.2
10004.4
9968.34
10074.5
10284.7
11878.5
10615.6
9814.33
9580.17
9560.65
9521.6
9484.21
9482.36
9536.46
9665.72
9849.39
10024.2
10109.4
10048.4
9864.77
9678.06
9607.55
9318.79
12449.1
11256.5
10515.3
10206.4
10080.9
10006.2
10007.3
10037
10065.4
)
;
    }
}


// ************************************************************************* //
