/*--------------------------------*- C++ -*----------------------------------*\
| =========                 |                                                 |
| \\      /  F ield         | OpenFOAM: The Open Source CFD Toolbox           |
|  \\    /   O peration     | Version:  2312                                  |
|   \\  /    A nd           | Website:  www.openfoam.com                      |
|    \\/     M anipulation  |                                                 |
\*---------------------------------------------------------------------------*/
FoamFile
{
    version     2.0;
    format      ascii;
    arch        "LSB;label=32;scalar=64";
    class       volScalarField;
    location    "0.2";
    object      sigmaHyd;
}
// * * * * * * * * * * * * * * * * * * * * * * * * * * * * * * * * * * * * * //

dimensions      [1 -1 -2 0 0 0 0];

internalField   nonuniform List<scalar> 
1620
(
-10934.3
-2462.31
4148.36
8825.76
11572.4
12739.4
12693.6
11713.5
9972.36
7533.51
4349.75
291.316
-4757.92
-10684
-16805.9
-21627.6
-23204.7
-19242.2
-10934.3
-2462.31
4148.36
8825.76
11572.4
12739.4
12693.6
11713.5
9972.36
7533.51
4349.75
291.316
-4757.92
-10684
-16805.9
-21627.6
-23204.7
-19242.2
-12552.9
-9122.82
-5061.44
-1204.47
1903.67
4095.82
5350.47
5689.52
5142.05
3733.12
1487.05
-1551.73
-5269.74
-9399.16
-13420.6
-16533.7
-17627.6
-15583.7
-12552.9
-9122.82
-5061.44
-1204.47
1903.67
4095.82
5350.47
5689.52
5142.05
3733.12
1487.05
-1551.73
-5269.74
-9399.16
-13420.6
-16533.7
-17627.6
-15583.7
-14251.3
-15290.8
-14630.6
-12219.6
-8772.44
-5134.26
-1994.43
197.909
1204
955.251
-463.388
-2814.82
-5715.97
-8673.13
-11174.3
-12826.4
-13470.6
-13649
-14251.3
-15290.8
-14630.6
-12219.6
-8772.44
-5134.26
-1994.43
197.909
1204
955.251
-463.388
-2814.82
-5715.97
-8673.13
-11174.3
-12826.4
-13470.6
-13649
53.2432
2307.79
4418.31
5407.83
5490.91
4998.02
4184.85
3261.58
2379.67
1618.02
976.018
379.31
-288.22
-1103.84
-1966.91
-2469.44
-2178.34
-1672.12
53.2432
2307.79
4418.31
5407.83
5490.91
4998.02
4184.85
3261.58
2379.67
1618.02
976.018
379.31
-288.22
-1103.84
-1966.91
-2469.44
-2178.34
-1672.12
-5706.74
-4434.99
-3234.55
-2829.2
-2496.64
-2170.12
-1909.52
-1760.63
-1730.24
-1796.57
-1921.28
-2059.07
-2167.35
-2221.23
-2253.01
-2446.67
-3653.87
-5112.21
-5706.74
-4434.99
-3234.55
-2829.2
-2496.64
-2170.12
-1909.52
-1760.63
-1730.24
-1796.57
-1921.28
-2059.07
-2167.35
-2221.23
-2253.01
-2446.67
-3653.87
-5112.21
-10715
-11509.2
-12401.6
-12451.7
-11186.3
-9092.21
-6809.8
-4823.55
-3418.05
-2707.58
-2668.61
-3169.06
-4008.46
-4985.04
-6010.82
-7236.44
-9119.58
-10237
-10715
-11509.2
-12401.6
-12451.7
-11186.3
-9092.21
-6809.8
-4823.55
-3418.05
-2707.58
-2668.61
-3169.06
-4008.46
-4985.04
-6010.82
-7236.44
-9119.58
-10237
-227.072
2782.9
5350.45
6510.66
6937.97
6796.29
6302.68
5667.72
5051.68
4532.25
4091.38
3618.87
2943.96
1918.95
548.595
-916.753
-2174.13
-2315.56
-227.072
2782.9
5350.45
6510.66
6937.97
6796.29
6302.68
5667.72
5051.68
4532.25
4091.38
3618.87
2943.96
1918.95
548.595
-916.753
-2174.13
-2315.56
-9317.13
-5751.39
-3556.16
-2727.85
-2188.89
-1748.82
-1417.79
-1238.31
-1218.89
-1338.24
-1558.57
-1832.94
-2113.19
-2378.64
-2710.06
-3434.32
-5480.73
-9154.52
-9317.13
-5751.39
-3556.16
-2727.85
-2188.89
-1748.82
-1417.79
-1238.31
-1218.89
-1338.24
-1558.57
-1832.94
-2113.19
-2378.64
-2710.06
-3434.32
-5480.73
-9154.52
-16100.6
-15304
-15234.5
-14668.4
-13197.5
-11045
-8761.95
-6840.98
-5590.75
-5130.98
-5421.65
-6299.02
-7523.14
-8837.19
-10064.8
-11133.9
-13263.5
-15976.8
-16100.6
-15304
-15234.5
-14668.4
-13197.5
-11045
-8761.95
-6840.98
-5590.75
-5130.98
-5421.65
-6299.02
-7523.14
-8837.19
-10064.8
-11133.9
-13263.5
-15976.8
-767.239
2638.13
4712.01
5954.08
6523.4
6553.71
6247.56
5810.99
5399.18
5081.48
4824.89
4494.56
3885.45
2808.99
1228.86
-705.227
-2715.92
-2771.54
-767.239
2638.13
4712.01
5954.08
6523.4
6553.71
6247.56
5810.99
5399.18
5081.48
4824.89
4494.56
3885.45
2808.99
1228.86
-705.227
-2715.92
-2771.54
-8226.73
-5403.59
-3531.84
-2699.68
-2055.9
-1519.45
-1138.26
-952.915
-960.408
-1132.25
-1428.18
-1793.13
-2154.01
-2443.98
-2666.08
-3006.99
-4346.46
-7672.25
-8226.73
-5403.59
-3531.84
-2699.68
-2055.9
-1519.45
-1138.26
-952.915
-960.408
-1132.25
-1428.18
-1793.13
-2154.01
-2443.98
-2666.08
-3006.99
-4346.46
-7672.25
-12997.6
-13675.2
-13857.6
-13733.4
-12657.5
-10814.6
-8775.73
-7077.05
-6051.3
-5811.81
-6284.42
-7250.81
-8403.29
-9404.19
-9942.48
-9842.53
-9713.55
-11300.1
-12997.6
-13675.2
-13857.6
-13733.4
-12657.5
-10814.6
-8775.73
-7077.05
-6051.3
-5811.81
-6284.42
-7250.81
-8403.29
-9404.19
-9942.48
-9842.53
-9713.55
-11300.1
-2543.62
-142.874
2485.18
4083.92
4854.06
5037.67
4882.36
4604.86
4351.78
4175.08
4020.55
3730.82
3083.75
1895.05
180.323
-1701.12
-2842.21
-2906.32
-2543.62
-142.874
2485.18
4083.92
4854.06
5037.67
4882.36
4604.86
4351.78
4175.08
4020.55
3730.82
3083.75
1895.05
180.323
-1701.12
-2842.21
-2906.32
-5091.37
-5261.8
-4200.21
-3125.12
-2201.17
-1454.32
-954.202
-730.508
-762.684
-1012.32
-1436.28
-1971.16
-2517.33
-2962.62
-3264.33
-3560.42
-4000.73
-4442.57
-5091.37
-5261.8
-4200.21
-3125.12
-2201.17
-1454.32
-954.202
-730.508
-762.684
-1012.32
-1436.28
-1971.16
-2517.33
-2962.62
-3264.33
-3560.42
-4000.73
-4442.57
-5495.44
-7878.07
-9798.04
-10529.2
-10029.3
-8637.42
-6970.12
-5595.43
-4857.07
-4851.59
-5464.06
-6419.94
-7352.72
-7877.23
-7673.07
-6690.86
-5435.9
-4758.49
-5495.44
-7878.07
-9798.04
-10529.2
-10029.3
-8637.42
-6970.12
-5595.43
-4857.07
-4851.59
-5464.06
-6419.94
-7352.72
-7877.23
-7673.07
-6690.86
-5435.9
-4758.49
-3401.17
-1861.65
141.564
1714.2
2596.18
2900.35
2858.36
2688.01
2528.1
2415.15
2281.39
1968.58
1279.77
96.4853
-1461.84
-2965.2
-3873.75
-4052.29
-3401.17
-1861.65
141.564
1714.2
2596.18
2900.35
2858.36
2688.01
2528.1
2415.15
2281.39
1968.58
1279.77
96.4853
-1461.84
-2965.2
-3873.75
-4052.29
-4920.23
-4975.43
-4422.21
-3473.27
-2440.96
-1543.69
-926.36
-639.971
-664.18
-955.565
-1464.7
-2115.44
-2783.9
-3322.85
-3644.45
-3812.28
-4027.16
-4505.6
-4920.23
-4975.43
-4422.21
-3473.27
-2440.96
-1543.69
-926.36
-639.971
-664.18
-955.565
-1464.7
-2115.44
-2783.9
-3322.85
-3644.45
-3812.28
-4027.16
-4505.6
-1225.81
-3068.11
-5053.74
-6221.98
-6230.18
-5314.85
-4054.31
-3020.48
-2559.68
-2748.24
-3431.2
-4291.03
-4937.52
-5003.46
-4251.68
-2770.65
-1184.58
-494.509
-1225.81
-3068.11
-5053.74
-6221.98
-6230.18
-5314.85
-4054.31
-3020.48
-2559.68
-2748.24
-3431.2
-4291.03
-4937.52
-5003.46
-4251.68
-2770.65
-1184.58
-494.509
-4539.43
-3406.43
-1943.12
-629.039
238.511
628.73
683.458
583.972
454.411
323.712
127.665
-263.399
-981.035
-2051.77
-3299.47
-4381.25
-4999.68
-5067.56
-4539.43
-3406.43
-1943.12
-629.039
238.511
628.73
683.458
583.972
454.411
323.712
127.665
-263.399
-981.035
-2051.77
-3299.47
-4381.25
-4999.68
-5067.56
-4787.99
-4809.74
-4387.21
-3577.05
-2587.22
-1658.14
-976.753
-628.157
-613.103
-894.776
-1419.6
-2101.67
-2806.96
-3381.44
-3733.01
-3922.06
-4136.66
-4482.45
-4787.99
-4809.74
-4387.21
-3577.05
-2587.22
-1658.14
-976.753
-628.157
-613.103
-894.776
-1419.6
-2101.67
-2806.96
-3381.44
-3733.01
-3922.06
-4136.66
-4482.45
2593.47
1103.83
-662.494
-1923.79
-2250.97
-1732.61
-836.151
-91.3984
164.581
-129.431
-793.265
-1493.71
-1858.44
-1587.01
-564.2
989.236
2457.11
3112.62
2593.47
1103.83
-662.494
-1923.79
-2250.97
-1732.61
-836.151
-91.3984
164.581
-129.431
-793.265
-1493.71
-1858.44
-1587.01
-564.2
989.236
2457.11
3112.62
-5830.11
-4992.84
-3919.77
-2875.25
-2085.8
-1644.99
-1507.89
-1559.26
-1702.02
-1908.45
-2220.31
-2713.52
-3437.16
-4343.2
-5260.76
-5968.73
-6321.66
-6280.51
-5830.11
-4992.84
-3919.77
-2875.25
-2085.8
-1644.99
-1507.89
-1559.26
-1702.02
-1908.45
-2220.3
-2713.52
-3437.16
-4343.2
-5260.76
-5968.73
-6321.66
-6280.51
-4572.06
-4519.87
-4135.68
-3443.85
-2572.22
-1709.96
-1034.56
-650.443
-584.482
-815.901
-1294.88
-1935.41
-2609.38
-3178.65
-3568.97
-3831.59
-4088.91
-4376.95
-4572.06
-4519.87
-4135.68
-3443.85
-2572.22
-1709.96
-1034.56
-650.443
-584.481
-815.901
-1294.88
-1935.41
-2609.38
-3178.65
-3568.97
-3831.59
-4088.91
-4376.95
6017.83
4791.44
3252.7
2011.98
1482.43
1678.39
2258.52
2771.67
2908.24
2614.69
2071.04
1591.19
1497.82
2009.75
3140.39
4609.54
5885.27
6435.36
6017.83
4791.44
3252.7
2011.98
1482.43
1678.39
2258.52
2771.68
2908.24
2614.69
2071.04
1591.19
1497.82
2009.75
3140.39
4609.54
5885.27
6435.36
-7292.32
-6663.46
-5872.38
-5061.95
-4384.26
-3942.67
-3760.13
-3790.92
-3973.24
-4276.72
-4707.78
-5279.09
-5967.11
-6684.73
-7298.75
-7692.18
-7817.94
-7682.31
-7292.32
-6663.46
-5872.38
-5061.95
-4384.26
-3942.67
-3760.13
-3790.92
-3973.24
-4276.72
-4707.78
-5279.09
-5967.11
-6684.73
-7298.75
-7692.18
-7817.94
-7682.31
-4324.1
-4198.87
-3814.87
-3205.87
-2458.18
-1703.57
-1082.89
-696.019
-584.644
-745.998
-1143.54
-1703.56
-2316.85
-2871.12
-3308.79
-3655.77
-3963.48
-4216.81
-4324.1
-4198.87
-3814.87
-3205.87
-2458.18
-1703.57
-1082.89
-696.019
-584.644
-745.998
-1143.54
-1703.56
-2316.85
-2871.12
-3308.79
-3655.77
-3963.48
-4216.81
9206.54
8138.19
6773.04
5584.07
4926.27
4864.87
5171.94
5497.88
5583.42
5380.7
5043.57
4832.68
4998.67
5679.74
6820.82
8136.66
9192.98
9602.38
9206.54
8138.19
6773.04
5584.07
4926.27
4864.87
5171.94
5497.88
5583.42
5380.7
5043.57
4832.68
4998.67
5679.74
6820.82
8136.66
9192.98
9602.38
-8803.59
-8337.57
-7775.27
-7185.92
-6660.81
-6287.12
-6120.25
-6166.88
-6398.58
-6780.79
-7282.4
-7861.21
-8447.58
-8949.33
-9282.88
-9411.04
-9351.85
-9143.41
-8803.59
-8337.57
-7775.27
-7185.92
-6660.81
-6287.12
-6120.25
-6166.88
-6398.58
-6780.79
-7282.4
-7861.21
-8447.58
-8949.33
-9282.88
-9411.04
-9351.85
-9143.41
-4184.79
-4001.17
-3607.1
-3049.36
-2396.01
-1740.31
-1185.77
-813.364
-665.766
-754.871
-1064.78
-1543.61
-2105.29
-2659
-3150.6
-3571.58
-3917.41
-4144.3
-4184.79
-4001.17
-3607.1
-3049.36
-2396.01
-1740.31
-1185.77
-813.364
-665.766
-754.871
-1064.78
-1543.61
-2105.29
-2659
-3150.6
-3571.58
-3917.41
-4144.3
12234.3
11263
10036.8
8920.13
8196.54
7944.76
8028.39
8207.62
8292.76
8243.01
8165.59
8242.48
8638.48
9418.75
10491.3
11601.4
12414.6
12657.4
12234.3
11263
10036.8
8920.13
8196.54
7944.76
8028.39
8207.62
8292.76
8243.01
8165.59
8242.48
8638.48
9418.75
10491.3
11601.4
12414.6
12657.4
-10186.9
-9872.81
-9528.02
-9173.88
-8852.06
-8619.4
-8532.62
-8625.08
-8892.27
-9297.31
-9781.3
-10268.9
-10676.9
-10933.7
-11007
-10916.5
-10719
-10468.4
-10186.9
-9872.81
-9528.02
-9173.88
-8852.06
-8619.4
-8532.62
-8625.08
-8892.27
-9297.31
-9781.3
-10268.9
-10676.9
-10933.7
-11007
-10916.5
-10719
-10468.4
-4341.81
-4122.89
-3723.61
-3195.08
-2597.11
-2003.42
-1493.4
-1130.32
-953.083
-985.157
-1231.44
-1660.7
-2203.41
-2777.24
-3318.94
-3788.7
-4148.74
-4347.95
-4341.81
-4122.89
-3723.61
-3195.08
-2597.11
-2003.42
-1493.4
-1130.32
-953.083
-985.157
-1231.44
-1660.7
-2203.41
-2777.24
-3318.94
-3788.7
-4148.74
-4347.95
15145
14268.3
13194.4
12192
11470
11101.3
11022.2
11100.5
11223.3
11355.8
11545.1
11880.4
12437.5
13223
14137.6
14984.3
15530.5
15600.1
15145
14268.3
13194.4
12192
11470
11101.3
11022.2
11100.5
11223.3
11355.8
11545.1
11880.4
12437.5
13223
14137.6
14984.3
15530.5
15600.1
-11249.6
-11097.9
-10976.9
-10874.5
-10790.4
-10742.6
-10767.6
-10902.8
-11159.1
-11503.7
-11868.4
-12173.2
-12349.7
-12361.8
-12218.5
-11972.5
-11696.1
-11447.3
-11249.6
-11097.9
-10976.9
-10874.5
-10790.4
-10742.6
-10767.6
-10902.8
-11159.1
-11503.7
-11868.4
-12173.2
-12349.7
-12361.8
-12218.5
-11972.5
-11696.1
-11447.3
-5005.04
-4781.8
-4393.23
-3883.61
-3306.46
-2728.94
-2223.37
-1850.88
-1654.72
-1666.44
-1897.83
-2322.03
-2872.67
-3467.05
-4032.33
-4512.17
-4859.65
-5032.37
-5005.04
-4781.8
-4393.23
-3883.61
-3306.46
-2728.94
-2223.37
-1850.88
-1654.72
-1666.44
-1897.83
-2322.03
-2872.67
-3467.05
-4032.33
-4512.17
-4859.65
-5032.37
18035.9
17298.6
16429.8
15605.6
14963
14563.1
14401.1
14436.4
14622.2
14921.9
15319.2
15816.1
16414.3
17086.1
17753.1
18291.5
18567.1
18486.1
18035.9
17298.6
16429.8
15605.6
14963
14563.1
14401.1
14436.4
14622.2
14921.9
15319.2
15816.1
16414.3
17086.1
17753.1
18291.5
18567.1
18486.1
-11871
-11883.1
-11973.8
-12107.8
-12247.8
-12370.9
-12484.8
-12622.1
-12805
-13014
-13190.6
-13272
-13222.6
-13041.9
-12763.5
-12447.3
-12162.5
-11962.4
-11871
-11883.1
-11973.8
-12107.8
-12247.8
-12370.9
-12484.8
-12622.1
-12805
-13014
-13190.6
-13272
-13222.6
-13041.9
-12763.5
-12447.3
-12162.5
-11962.4
-6318.4
-6104.69
-5742.98
-5263.45
-4709.5
-4144.42
-3645.76
-3291.03
-3137.02
-3209.2
-3494.91
-3944.81
-4487.57
-5046.01
-5556.29
-5967.43
-6245.73
-6366.51
-6318.4
-6104.69
-5742.98
-5263.45
-4709.5
-4144.42
-3645.76
-3291.03
-3137.02
-3209.2
-3494.91
-3944.81
-4487.57
-5046.01
-5556.29
-5967.43
-6245.73
-6366.51
20940.1
20444.9
19880.6
19335.9
18884.9
18577.6
18445
18498.2
18720.9
19068.7
19487.6
19934.6
20380.2
20796.8
21145
21374.1
21431.7
21285.3
20940.1
20444.9
19880.6
19335.9
18884.9
18577.6
18445
18498.2
18720.9
19068.7
19487.6
19934.6
20380.2
20796.8
21145
21374.1
21431.7
21285.3
-11478.7
-11713.1
-12044.7
-12408.3
-12722.8
-12929.3
-13023.4
-13047.9
-13043
-13006.9
-12901.8
-12702.3
-12427.2
-12120.7
-11825
-11577.2
-11416.6
-11377.6
-11478.7
-11713.1
-12044.7
-12408.3
-12722.8
-12929.3
-13023.4
-13047.9
-13043
-13006.9
-12901.8
-12702.3
-12427.2
-12120.7
-11825
-11577.2
-11416.6
-11377.6
-7731.85
-7657.63
-7500.98
-7257.39
-6929.57
-6551.67
-6195.81
-5952.92
-5880.15
-5974.51
-6184.38
-6450.36
-6735.47
-7017.16
-7276.97
-7491.84
-7645.48
-7727.01
-7731.85
-7657.63
-7500.98
-7257.39
-6929.57
-6551.67
-6195.81
-5952.92
-5880.14
-5974.51
-6184.38
-6450.36
-6735.47
-7017.16
-7276.98
-7491.84
-7645.48
-7727.01
25268
24939
24554.2
24162.7
23821.7
23583.8
23483.2
23525.4
23692.5
23954.2
24279.1
24634.2
24981.1
25281.8
25503.4
25622.8
25624.7
25504
25268
24939
24554.2
24162.7
23821.7
23583.8
23483.2
23525.4
23692.5
23954.2
24279.1
24634.2
24981.1
25281.8
25503.3
25622.8
25624.7
25504
-12982.9
-12932.9
-12902.5
-12875.3
-12881.6
-12988
-13242.1
-13628
-14073.3
-14495.9
-14799.2
-14892.2
-14743.3
-14405.8
-13990.3
-13599.5
-13294.1
-13092.5
-12982.9
-12932.9
-12902.5
-12875.3
-12881.6
-12988
-13242.1
-13628
-14073.3
-14495.9
-14799.2
-14892.2
-14743.3
-14405.8
-13990.3
-13599.5
-13294.1
-13092.5
-9534.47
-9326.06
-9059.95
-8731.9
-8390.79
-8130.11
-8055.15
-8209.84
-8576.89
-9079.73
-9602.73
-10020.9
-10253.3
-10296.6
-10207.8
-10053.9
-9883.23
-9712.22
-9534.47
-9326.06
-9059.95
-8731.9
-8390.79
-8130.11
-8055.15
-8209.84
-8576.89
-9079.73
-9602.73
-10020.9
-10253.3
-10296.6
-10207.8
-10053.9
-9883.23
-9712.22
24495.9
24551.9
24651.3
24817.1
25047.4
25280.2
25449
25476.8
25348.4
25090.2
24773.6
24490.6
24304.2
24238.9
24259.5
24325.3
24394.5
24450.6
24495.9
24551.9
24651.3
24817.1
25047.4
25280.2
25449
25476.8
25348.4
25090.2
24773.6
24490.6
24304.2
24238.9
24259.5
24325.3
24394.5
24450.6
)
;

boundaryField
{
    fixed
    {
        type            zeroGradient;
    }
    inside
    {
        type            zeroGradient;
    }
    outside
    {
        type            zeroGradient;
    }
}


// ************************************************************************* //
