/*--------------------------------*- C++ -*----------------------------------*\
| =========                 |                                                 |
| \\      /  F ield         | OpenFOAM: The Open Source CFD Toolbox           |
|  \\    /   O peration     | Version:  2312                                  |
|   \\  /    A nd           | Website:  www.openfoam.com                      |
|    \\/     M anipulation  |                                                 |
\*---------------------------------------------------------------------------*/
FoamFile
{
    version     2.0;
    format      ascii;
    arch        "LSB;label=32;scalar=64";
    class       volScalarField;
    location    "0.2";
    object      sigmaHyd;
}
// * * * * * * * * * * * * * * * * * * * * * * * * * * * * * * * * * * * * * //

dimensions      [1 -1 -2 0 0 0 0];

internalField   nonuniform List<scalar> 
1620
(
11159.9
10117.9
7626.84
4158.76
-65.5892
-5239.82
-11555.2
-19204.9
-25521.7
-26680
-22230.8
-16233.1
-10504.4
-5336.2
-799.147
3153.89
6235.5
8142.93
8317.05
6969.89
4603.77
1662.86
-1688.23
-5764.41
-10947
-17833.4
-24019.1
-26110.8
-22554.5
-17036.3
-11252.9
-5661.8
-466.554
4241.37
8053.95
10495.2
3914.28
1765.31
-467.046
-2844.2
-5787.35
-9114.78
-12606.3
-15790.4
-17428
-18094.7
-17736.6
-15520.9
-12609.9
-9543.37
-6635.89
-4146.22
-1509.99
964.234
755.837
-1399.49
-3353.76
-5219.49
-7469.75
-10015.6
-12776.2
-15443.6
-16891.9
-17543.2
-17143.9
-14934.9
-11869
-8473.23
-5106.61
-2102.38
972.001
3802.75
-6296.5
-7110.82
-8676.58
-10426.9
-12067.2
-13247
-13461.2
-12761.5
-12329.2
-13290.2
-14429.5
-15446.8
-15552.9
-14821.3
-13628.7
-12279.2
-10999.4
-10388.5
-10375.7
-10833.5
-11997.9
-13248.8
-14355.9
-15001.9
-14688.5
-13419
-12428.3
-12681.1
-12952.9
-13368.7
-12977.5
-11821.3
-10233.4
-8523.85
-6983.7
-6205.05
5297.28
5323.51
4654.33
3616.51
2469.34
1095.34
-658.791
-3433.69
-6049.78
-6223.83
-3606.68
-1260.07
482.27
1912.76
3130.01
4246.7
5008.78
5323.78
5295.69
5123.38
4483.06
3617.62
2732.57
1668.59
239.24
-2425.7
-5298.74
-6378.86
-4498.11
-2482.56
-777.07
756.349
2184.39
3578.62
4629.76
5094.25
440.649
-695.887
-1404.71
-1489.79
-1644.37
-1762.21
-1808.82
-1690.24
-950.842
-722.784
-1181.43
-1172.81
-1129.35
-1085.93
-1035.1
-1053.36
-226.999
791.375
368.905
-735.668
-1367.22
-1351.69
-1417.92
-1483.39
-1544.13
-1535.19
-1013.92
-871.611
-1277
-1322.11
-1303.74
-1250.43
-1156.06
-1116.87
-297.502
742.067
-6826.84
-6569.46
-6239.93
-5909.94
-5412.85
-4597.79
-3178.31
-1718.37
-560.915
-561.125
-1641.76
-3199.78
-4362.87
-5150.58
-5720.72
-6197.35
-6684.97
-7264.7
-7394.92
-6936.28
-6645.9
-6428.57
-6085.26
-5427.66
-4117.03
-2614.31
-992.519
-214.211
-636.13
-1863.34
-2852.3
-3605.16
-4249.67
-4903.65
-5662.37
-6462.03
3942.71
4231.23
3850.44
2974.61
1946.39
742.82
-678.682
-2682.28
-4799.03
-5787.6
-4338.79
-2263.94
-716.712
694.229
1919.46
2997.17
3607.65
3772.31
3809.23
3892.51
3509.76
2779.66
1995.51
1108.29
58.3049
-1652.17
-3832.81
-5670.57
-5255.34
-3419.5
-1865.5
-337.845
1091.3
2430.69
3318.31
3658.54
93.4777
-653.275
-1455.13
-1641.13
-1938.75
-2237.16
-2478.39
-2538
-1931.52
-1694.34
-2129.11
-2004.21
-1813.05
-1612.55
-1408.63
-1263.69
-306.665
293.478
-95.3208
-818.384
-1550.7
-1644.5
-1833.59
-2040.44
-2242.35
-2354.46
-1965.95
-1839.41
-2237.3
-2170.37
-1985.62
-1746.89
-1477.92
-1278.75
-341.045
329.304
-5357.34
-5210.04
-5067.71
-5121.42
-5233.1
-5276.13
-5026.87
-4698.62
-4234.25
-3801.48
-3890.17
-4523.37
-4883.44
-4921.35
-4863
-4883.94
-5131.33
-5691.61
-5891.17
-5588.71
-5533.95
-5758.2
-6061.53
-6279.68
-6142.98
-5774.24
-4826.03
-3481.72
-2832.6
-3113.41
-3312.06
-3315.9
-3336.69
-3560.41
-4111.87
-4920.63
2785.58
3239.01
3141.04
2553.95
1829.76
1027.96
148.417
-952.664
-2417.29
-3853.7
-3746.72
-1709.34
-680.853
375.908
1315.45
2125.08
2512.17
2551.91
2642.17
2902.3
2795.02
2345.19
1846.35
1336.46
803.621
73.4482
-1272.54
-3497.28
-4725.42
-2896.95
-1803.58
-626.612
509.042
1567.81
2216.43
2451.63
-92.3872
-619.239
-1365.55
-1620.99
-1930.25
-2223.72
-2422.69
-2422.11
-1842.99
-1493.08
-1957.34
-1935.77
-1777.72
-1582.67
-1366.29
-1132.17
-285.574
68.1358
-254.519
-784.312
-1450.96
-1612.7
-1807.77
-2004.31
-2160.9
-2207.48
-1865.87
-1663.99
-2064.75
-2144.74
-2013.35
-1786.34
-1506.9
-1227.71
-381.973
72.5102
-3814.13
-3910.96
-4091.04
-4491.95
-5027.24
-5587.35
-5973.19
-6019.51
-6199.13
-5270.71
-4362.07
-4660.93
-4656.95
-4258.32
-3798.29
-3490.74
-3483.68
-3936.28
-4204.3
-4168.2
-4425.36
-5004.14
-5752.43
-6522.98
-7081.9
-7109.82
-7090.74
-5207.03
-3334.27
-3270.11
-3145.02
-2749.67
-2385.74
-2285.38
-2577.06
-3298.35
1697.12
2273.84
2423.14
2120
1667.15
1170.75
652.827
141.904
-829.196
-2664.81
-3509.62
-1346.99
-715.554
36.9055
708.979
1251.48
1443.17
1399.66
1538.63
1926.41
2054.45
1874.74
1630.49
1408.92
1221.98
1076.39
341.411
-2059.26
-4173.25
-2645.05
-1814.46
-937.06
-67.5157
716.663
1156.88
1320.88
-108.259
-546.538
-1221.51
-1581.88
-1944.09
-2285.75
-2525.87
-2577.09
-2208.74
-1784.72
-2048.41
-2167.09
-1971.23
-1711.77
-1416.61
-1051.01
-318.082
-34.4764
-284.671
-753.379
-1354.29
-1614.65
-1851.57
-2079.27
-2257.31
-2333.2
-2170.85
-1928.25
-2119.99
-2382.73
-2243.71
-1959.3
-1599.58
-1185.63
-418.417
-14.3834
-2411.77
-2814.27
-3408.7
-4224.54
-5187.8
-6199.71
-7083.76
-7464.99
-8115.65
-6818.86
-5135.79
-5181.12
-4895.43
-4114.42
-3252.92
-2561.85
-2219.22
-2452.44
-2764
-3049.88
-3697.54
-4660.04
-5811.47
-7030.2
-8116.52
-8545.72
-9097.4
-7043.9
-4432.21
-3929.3
-3443.71
-2663.92
-1886.2
-1380.01
-1316.78
-1841.41
728.402
1380.92
1740.92
1710.41
1515.09
1272.4
1002.15
745.949
-35.5872
-1825.99
-2687.78
-962.343
-568.674
-142.993
245.028
506.961
508.101
406.569
576.557
1043.33
1370.38
1448.63
1447.31
1465.07
1516.33
1599.95
1210.8
-735.068
-2815.05
-2549.96
-1715.24
-1137.64
-535.572
-29.3002
215.831
328.542
-151.476
-510.045
-1099.4
-1522.76
-1913.27
-2278.62
-2552.26
-2657.18
-2486.59
-1993.67
-2021.7
-2346.54
-2127.8
-1831.77
-1479.48
-1034.97
-414.259
-159.567
-334.092
-743.773
-1274.38
-1594.46
-1852.95
-2091.3
-2283.76
-2390.91
-2354.22
-2101.97
-2155.37
-2566.71
-2440.85
-2131.5
-1715.35
-1208.23
-513.629
-125.866
-1221.79
-1930.01
-2916.51
-4110.71
-5432.4
-6792.01
-8015.67
-8684.25
-9357.81
-8222.54
-6444.88
-6003.12
-5366.35
-4255.11
-3032.01
-1970.11
-1278.86
-1233.42
-1556.48
-2158.75
-3181.81
-4481.95
-5948.06
-7495.13
-8937.89
-9795.15
-10238.3
-8794.28
-6377.32
-4991.16
-3953.33
-2821.02
-1665.26
-763.909
-342.63
-621.093
-60.3431
612.707
1122.02
1318.41
1341.99
1298.83
1204.53
1064.63
415.941
-928.743
-1537.86
-707.576
-293.566
-191.06
-63.9099
-65.0551
-236.5
-382.491
-205.82
289.786
761.667
1055.88
1261.84
1468.37
1695.43
1921.67
1893.4
761.967
-1366.15
-2661.84
-1592.59
-1252.05
-881.113
-618.173
-534.437
-458.408
-215.708
-495.093
-1004.19
-1451.29
-1855.61
-2231.96
-2528.64
-2670.44
-2595.86
-2078.52
-2035.44
-2523.79
-2275.5
-1964.41
-1578.93
-1109.7
-576.674
-310.304
-396.258
-742.52
-1213.44
-1559.32
-1829.24
-2070.33
-2270.75
-2398.2
-2420
-2239.36
-2321.68
-2697.34
-2625.08
-2325.11
-1879.74
-1321.59
-673.63
-266.956
-250.029
-1229.15
-2555.36
-4061.2
-5669.6
-7305.91
-8786.58
-9729.42
-10258
-9696.34
-8053.67
-6873.38
-5950.16
-4600.82
-3070.93
-1667.11
-618.818
-261.04
-553.574
-1437.48
-2801.21
-4381.03
-6085.72
-7876.98
-9582.75
-10821.9
-11156
-10715.7
-8348.8
-5810.12
-4416.8
-3068.59
-1624.62
-378.484
379.115
359.999
-666.192
-27.6595
563.976
931.091
1129.99
1247.65
1312.28
1337.09
1115.37
380.536
-628.493
-904.318
128.925
-101.274
-198.613
-444.959
-779.835
-976.088
-821.448
-341.163
221.669
681.37
1049.38
1397.42
1758.82
2117.37
2448.88
1946.41
-338.819
-2446.86
-1535.61
-1273.58
-1093.83
-1023.97
-1068.7
-1029.39
-252.33
-468.968
-920.48
-1364.18
-1775.13
-2159.86
-2476.77
-2659.24
-2663.87
-2275.53
-2201.36
-2643.23
-2415.59
-2115.17
-1731.14
-1284.56
-801.179
-456.303
-424.225
-716.942
-1152.87
-1502.5
-1780.86
-2026.4
-2234.94
-2385.19
-2454.82
-2394.81
-2528.89
-2712.97
-2781.56
-2537.11
-2101.72
-1531.84
-891.363
-402.134
577.286
-630.655
-2254.89
-4001.69
-5830.18
-7696.49
-9415.72
-10664.1
-11231.6
-11303.2
-9470.56
-7453.93
-6482.17
-5064.72
-3304.98
-1589.29
-148.544
561.438
359.296
-770.57
-2460.71
-4269.72
-6151.77
-8129.92
-10055.2
-11633.6
-12133.7
-12511.1
-10047.1
-6469.37
-4825.9
-3330.35
-1679.93
-145.444
935.33
1183.53
-1149.46
-592.873
35.68
526.053
854.89
1089.27
1268.81
1403.76
1509.27
980.182
-393.091
-911.488
686.733
161.39
-161.045
-654.203
-1171.85
-1441.67
-1336.8
-906.575
-284.603
298.91
779.77
1216.69
1653.52
2081.08
2503.14
2416.96
768.977
-1433.9
-1796.83
-1246.41
-1196.03
-1264.25
-1428.14
-1436.79
-196.185
-392.52
-832.488
-1259.64
-1674.13
-2069.41
-2409.84
-2646.36
-2737.19
-2608.48
-2394.26
-2552.15
-2529.15
-2272.86
-1945.82
-1563.9
-1091.82
-571.957
-364.042
-626.726
-1073.96
-1417.15
-1706.54
-1964.42
-2185.62
-2359.73
-2469.72
-2491.94
-2582.86
-2739.42
-2945.35
-2754.78
-2373.37
-1835.72
-1159.59
-486.341
1472.95
18.1834
-1942.94
-3880.65
-5875.53
-7925
-9845.22
-11355
-12029.2
-12532.3
-10664.9
-8139.9
-7106.33
-5690.75
-3735.42
-1697.93
265.494
1444.08
1440.55
31.8552
-2068.99
-4079.4
-6097.08
-8215.39
-10314.2
-12138.8
-13034.6
-13371.7
-11502.7
-8054.42
-5690.87
-3699.72
-1817.39
-2.30693
1477.99
2094.55
-1657.63
-1151.17
-480.939
96.7274
503.795
798.167
1016.07
1147.82
1214.69
596.746
-307.168
28.223
1267.99
594.477
-1.99406
-756.068
-1520.51
-1956.33
-1892.69
-1472
-779.611
-105.1
431.384
899.719
1357.81
1818.82
2275.35
2611.76
1869.22
-497.725
-2182.94
-1255.01
-1215.4
-1394.97
-1732.15
-1863.36
44.4467
-283.871
-763.609
-1164.38
-1571.91
-1968.15
-2321.27
-2590.81
-2712.69
-2674.91
-2246.13
-2295.82
-2633.52
-2418.25
-2220.17
-1941.84
-1484.37
-622.485
-156.814
-482.357
-998.08
-1322.25
-1620.09
-1890.96
-2123.89
-2315.46
-2453.19
-2526.34
-2569.28
-2885.64
-3037.7
-2894.63
-2633.78
-2209.8
-1493.77
-435.605
2909.93
1022.85
-1581.55
-3700.3
-5823.63
-7983.83
-10013.6
-11648.8
-12452
-12879.3
-11608.1
-9322.49
-7992.66
-6570.21
-4432.11
-2016.31
814.468
2762.54
3186.39
1399.84
-1553.06
-3774.46
-5910.9
-8112.12
-10308.5
-12273.6
-13585.7
-13587.1
-13020.5
-10079.1
-6398.25
-4014.43
-1964.38
110.015
2361.67
3465.18
-2099.2
-1680.6
-957.61
-355.642
75.2332
388.646
612.135
749.783
851.796
554.706
177.099
644.352
1225.16
1216.35
170.737
-803.924
-1848.46
-2409.34
-2379.93
-2026.28
-1255.21
-552.435
-29.5952
412.487
842.075
1293.25
1763.16
2298.39
2303.72
587.054
-1658.61
-1715.59
-1198.35
-1458.23
-1996.49
-2202.16
227.254
-327.04
-774.038
-1127.67
-1497.51
-1860.92
-2195.5
-2465.9
-2598.51
-2583.04
-2162.67
-2140.92
-2584.1
-2458.31
-2515.19
-2398.12
-2136.23
-1065.57
-8.70258
-439.272
-968.511
-1257
-1543.27
-1806.41
-2035.5
-2227.63
-2373.4
-2457.76
-2475.6
-2833.1
-2969.1
-2869.83
-2771.33
-2618
-2164.72
-717.645
7107.81
1625.86
-1561.85
-3721.67
-5849.99
-7973.43
-9966.24
-11596.3
-12543.6
-12820.1
-12589.8
-10624.6
-8809.72
-7674.84
-5577.68
-2766.54
976.154
6836.46
7810.43
2555.14
-1449.19
-3629.86
-5750.47
-7882.62
-10026.8
-12000.7
-13517.2
-13736.3
-13679.2
-11682.7
-7755.57
-4905.79
-2591.75
-422.123
3135.3
7881.32
-2263.05
-1852.96
-1288.92
-803.651
-405.175
-96.0061
115.546
234.127
284.099
266.542
-329.848
53.6772
1663.21
2349.07
335.943
-821.393
-1906.6
-2559.32
-2572.28
-2204.93
-1590.4
-1040.06
-617.137
-257.604
95.2215
484.508
937.94
1461.27
2057.35
1525.95
-767.545
-2102.65
-1291.47
-1344.5
-1792.57
-2118.65
-1065.37
-868.337
-1066.56
-1282.31
-1519.52
-1764.34
-2005.28
-2218.6
-2349.07
-2347.29
-2137.27
-1713.93
-1895.94
-2275.22
-2669.73
-2732.16
-2599.14
-2170.36
-1252.76
-947.392
-1224.78
-1400.85
-1570.85
-1744.86
-1913.93
-2068.21
-2199.29
-2290.73
-2339.74
-2380.37
-2648.25
-2633.77
-2574.81
-2682.36
-2495.89
-1845.76
5762.73
1149.02
-1806.73
-4050.6
-6093.75
-8025.61
-9786.39
-11213.3
-12125.9
-12342.3
-12691.9
-11559.9
-9982.2
-9139.66
-7348.5
-4272.22
-302.603
5593.84
7212.78
2825.51
-1272.63
-3633.4
-5686.28
-7601.37
-9495.77
-11298
-12796.9
-13631.9
-13095
-12253.2
-10345.4
-7203.75
-4271.52
-1839.77
2139.1
6518.91
-1385.66
-1390.42
-1206.7
-930.072
-630.798
-363.607
-197.282
-180.476
-346.173
-610.457
-1455.12
-125.126
2827.35
3077.06
456.146
-993.669
-1686.85
-1963.18
-1940.63
-1749.87
-1445.23
-1157.77
-943.586
-764.058
-575.587
-326.949
47.7303
606.152
1392.96
2245.91
1496.93
-761.67
-1315.02
-630.603
-815.015
-1122.86
-2537.26
-1848.79
-1560.27
-1445.96
-1421.98
-1458.77
-1532.64
-1619.14
-1675.52
-1628.97
-1470.9
-974.39
-1105.05
-1742.98
-2375.58
-3024.98
-3443.53
-3539.68
-3023.39
-2221.77
-1852.04
-1640.4
-1497.8
-1443.1
-1458.36
-1517.22
-1596.35
-1673.24
-1739.53
-1803.24
-1998.22
-2104.35
-2223.36
-2762.56
-3179.42
-3074.19
-2102.43
-3214.19
-5164.7
-6422.94
-7627.19
-8867.89
-10041.5
-11000.4
-11636.7
-11898.2
-12167.3
-12390.5
-11901.3
-11315.5
-10512.4
-8534.91
-5218.05
-1912
-40.2725
-1405.19
-4290.48
-5785.9
-6855.74
-7915.73
-9060.91
-10263.6
-11401.2
-12291.6
-12427.9
-11969.6
-11488.1
-10901
-9529.11
-7324.69
-4184.81
-2128.47
-1274.27
-1558.66
-1674.06
-1543.01
-1201.39
-761.116
-374.857
-181.78
-259.209
-510.741
-587.275
1384.78
4161.73
4909.06
2960.1
687.564
29.6537
-410.731
-925.932
-1466.92
-1859.13
-2058.75
-2091.92
-2012.16
-1886.96
-1758.1
-1596.32
-1272.21
-620
693.779
1967.58
1071.03
-1234.47
-1645.01
-1050.77
-1035.09
-2585.64
-2224.17
-1805.39
-1446.21
-1133.08
-869.207
-670.118
-518.079
-357.162
-122.557
137.121
379.327
768.337
1108.93
468.939
-992.211
-1918.37
-2664.13
-3094.93
-3105.7
-2824.79
-2425.14
-1919.88
-1359.91
-839.836
-439.026
-198.714
-131.728
-239.034
-619.049
-1115
-1547.57
-1788.94
-2066.23
-2526.59
-2702.61
-9944.35
-9123.29
-9068.94
-9404.68
-9744.73
-10013.9
-10250.5
-10461.2
-10625.9
-10766.7
-10929.2
-11585.7
-12008.2
-12110.1
-12128.3
-11189.1
-9553.56
-8601.86
-7966.08
-7788.91
-8246.51
-8880.3
-9132.49
-9065.32
-8944.9
-8961.46
-9190.61
-9590.07
-10106.7
-9936.57
-10099
-11613.4
-12855.5
-12503.7
-11570.7
-10814.7
3293.42
2873.29
2569.78
2289.6
2009.35
1772.89
1669.24
1783.62
2128.04
2664.46
3218.51
3673.06
3449.12
3375.09
3493.18
2123.57
3512.6
5223.59
6508.14
7180.91
7234.96
6701.09
5655.63
4228.63
2611.67
1059.37
-108.064
-454.406
738.961
4001.53
6342.48
10328.1
11415.2
7670.33
5317.61
4010.82
1638.14
1287.4
1056.86
882.257
702.611
526.855
390.597
329.625
308.458
284.732
123.948
293.178
1439.21
2069.04
1952.73
833.264
570.616
368.68
412.779
575.12
740.738
774.016
590.804
239.648
-151.385
-435.413
-509.515
-374.442
-52.965
36.235
218.86
1807.17
2591.7
2624.06
2564.08
2090.93
-14225.6
-14943.5
-15683.3
-16391.3
-17005.3
-17445.6
-17640.1
-17605.7
-17391.7
-17074.5
-16723.8
-16617.7
-17915
-16728.6
-15092.9
-15261
-14340.2
-13995.9
-13661.6
-13682.8
-13880.8
-14242.5
-14674.2
-15034.9
-15198.9
-15150.7
-14925.4
-14531.2
-14004.7
-12903.6
-11427.4
-11355.8
-12344.4
-13350.5
-13186.8
-13663.6
)
;

boundaryField
{
    fixed
    {
        type            zeroGradient;
    }
    inside
    {
        type            zeroGradient;
    }
    outside
    {
        type            zeroGradient;
    }
}


// ************************************************************************* //
