/*--------------------------------*- C++ -*----------------------------------*\
| =========                 |                                                 |
| \\      /  F ield         | OpenFOAM: The Open Source CFD Toolbox           |
|  \\    /   O peration     | Version:  2312                                  |
|   \\  /    A nd           | Website:  www.openfoam.com                      |
|    \\/     M anipulation  |                                                 |
\*---------------------------------------------------------------------------*/
FoamFile
{
    version     2.0;
    format      ascii;
    arch        "LSB;label=32;scalar=64";
    class       volVectorField;
    location    "0.2";
    object      U;
}
// * * * * * * * * * * * * * * * * * * * * * * * * * * * * * * * * * * * * * //

dimensions      [0 1 -1 0 0 0 0];

internalField   nonuniform List<vector> 
1620
(
(0.000933257 -0.000189198 0.000219096)
(0.000804069 -0.000253752 1.28724e-05)
(0.000656105 -0.000354704 -0.000136679)
(0.000524267 -0.00042721 -0.000215014)
(0.000424744 -0.000452457 -0.00024411)
(0.000358961 -0.000437648 -0.000245074)
(0.00032103 -0.000395244 -0.000229102)
(0.0003013 -0.000333566 -0.000201452)
(0.000287388 -0.000255685 -0.000165126)
(0.0002649 -0.000161361 -0.00012158)
(0.000218193 -4.95272e-05 -6.9857e-05)
(0.000131254 7.85637e-05 -5.76865e-06)
(-9.97513e-06 0.000214652 7.75616e-05)
(-0.000211489 0.000338191 0.000185871)
(-0.000460526 0.000415798 0.00031402)
(-0.000716003 0.000414333 0.000431205)
(-0.000912982 0.000330918 0.00047684)
(-0.000988192 0.000224962 0.000399429)
(-0.000933257 0.000189198 0.000219096)
(-0.000804069 0.000253752 1.28724e-05)
(-0.000656105 0.000354704 -0.000136679)
(-0.000524267 0.00042721 -0.000215014)
(-0.000424744 0.000452457 -0.00024411)
(-0.000358961 0.000437648 -0.000245074)
(-0.00032103 0.000395244 -0.000229102)
(-0.0003013 0.000333566 -0.000201452)
(-0.000287388 0.000255685 -0.000165126)
(-0.0002649 0.000161361 -0.00012158)
(-0.000218193 4.95272e-05 -6.9857e-05)
(-0.000131254 -7.85637e-05 -5.76865e-06)
(9.97513e-06 -0.000214652 7.75616e-05)
(0.000211489 -0.000338191 0.000185871)
(0.000460526 -0.000415798 0.00031402)
(0.000716003 -0.000414333 0.000431205)
(0.000912982 -0.000330918 0.00047684)
(0.000988192 -0.000224962 0.000399429)
(0.000753443 -0.000361148 0.00014709)
(0.000758968 -0.000395326 6.45719e-05)
(0.000732505 -0.000397375 -1.05032e-05)
(0.000679513 -0.000358403 -7.30403e-05)
(0.000607728 -0.000291828 -0.000124805)
(0.000527229 -0.000215654 -0.000163917)
(0.000447065 -0.000141764 -0.000186693)
(0.000371513 -7.41184e-05 -0.000190818)
(0.00029896 -1.16334e-05 -0.000176248)
(0.000223388 4.82467e-05 -0.00014455)
(0.000137079 0.000107107 -9.79677e-05)
(3.34573e-05 0.000164403 -3.89057e-05)
(-9.04205e-05 0.000217169 2.98364e-05)
(-0.000231817 0.000260471 0.000103736)
(-0.00038106 0.000289312 0.000173982)
(-0.000522315 0.000302738 0.000225358)
(-0.00063755 0.0003092 0.000240387)
(-0.000714593 0.000327292 0.000212221)
(-0.000753443 0.000361148 0.00014709)
(-0.000758968 0.000395326 6.45719e-05)
(-0.000732505 0.000397375 -1.05032e-05)
(-0.000679513 0.000358403 -7.30403e-05)
(-0.000607728 0.000291828 -0.000124805)
(-0.000527229 0.000215654 -0.000163917)
(-0.000447065 0.000141764 -0.000186693)
(-0.000371513 7.41184e-05 -0.000190818)
(-0.00029896 1.16334e-05 -0.000176248)
(-0.000223388 -4.82467e-05 -0.00014455)
(-0.000137079 -0.000107107 -9.79677e-05)
(-3.34573e-05 -0.000164403 -3.89057e-05)
(9.04205e-05 -0.000217169 2.98364e-05)
(0.000231817 -0.000260471 0.000103736)
(0.00038106 -0.000289312 0.000173982)
(0.000522315 -0.000302738 0.000225358)
(0.00063755 -0.0003092 0.000240387)
(0.000714593 -0.000327292 0.000212221)
(0.000532549 -0.000459264 7.6579e-05)
(0.000626022 -0.000491084 6.88256e-05)
(0.000698054 -0.00043943 4.50153e-05)
(0.000728952 -0.000327421 -2.3965e-06)
(0.000711084 -0.000190247 -6.58532e-05)
(0.000650588 -5.64286e-05 -0.00012899)
(0.000560432 5.70712e-05 -0.000176687)
(0.000453017 0.000142994 -0.000199615)
(0.000336919 0.000199947 -0.00019452)
(0.000217282 0.00022922 -0.000163225)
(9.79074e-05 0.000233337 -0.000111694)
(-1.66628e-05 0.000216492 -4.92533e-05)
(-0.000120324 0.000186378 1.25139e-05)
(-0.000206701 0.000156201 6.17009e-05)
(-0.000272619 0.000144879 8.93421e-05)
(-0.000322625 0.000172835 9.42299e-05)
(-0.000371784 0.00025096 8.67286e-05)
(-0.000440681 0.000363032 8.06519e-05)
(-0.000532549 0.000459264 7.6579e-05)
(-0.000626022 0.000491084 6.88256e-05)
(-0.000698054 0.00043943 4.50153e-05)
(-0.000728952 0.000327421 -2.3965e-06)
(-0.000711084 0.000190247 -6.58532e-05)
(-0.000650588 5.64286e-05 -0.00012899)
(-0.000560432 -5.70712e-05 -0.000176687)
(-0.000453017 -0.000142994 -0.000199615)
(-0.000336919 -0.000199947 -0.00019452)
(-0.000217282 -0.00022922 -0.000163225)
(-9.79074e-05 -0.000233337 -0.000111694)
(1.66628e-05 -0.000216492 -4.92533e-05)
(0.000120324 -0.000186378 1.25139e-05)
(0.000206701 -0.000156201 6.17009e-05)
(0.000272619 -0.000144879 8.93421e-05)
(0.000322625 -0.000172835 9.42299e-05)
(0.000371784 -0.00025096 8.67286e-05)
(0.000440681 -0.000363032 8.06519e-05)
(0.00246487 -0.000882319 0.000751996)
(0.00227301 -0.00104893 0.000159341)
(0.00198643 -0.00119413 -0.000321364)
(0.00169283 -0.00122694 -0.000641799)
(0.00143301 -0.00114794 -0.000826016)
(0.00121901 -0.000998283 -0.000906812)
(0.00105106 -0.000817803 -0.000909451)
(0.000919996 -0.00062774 -0.000852697)
(0.000806448 -0.000431842 -0.000750288)
(0.000682176 -0.000223778 -0.000609435)
(0.000513172 5.19291e-06 -0.000428581)
(0.000263977 0.000258727 -0.000197317)
(-9.51148e-05 0.000526898 9.88707e-05)
(-0.00057495 0.000778312 0.000465869)
(-0.00114837 0.000960635 0.000877662)
(-0.00173505 0.0010218 0.0012476)
(-0.00221275 0.000956745 0.00142127)
(-0.00246836 0.000855698 0.00124532)
(-0.00246487 0.000882319 0.000751996)
(-0.00227301 0.00104893 0.000159341)
(-0.00198643 0.00119413 -0.000321364)
(-0.00169283 0.00122694 -0.000641799)
(-0.00143301 0.00114794 -0.000826016)
(-0.00121901 0.000998283 -0.000906812)
(-0.00105106 0.000817803 -0.000909451)
(-0.000919996 0.00062774 -0.000852697)
(-0.000806448 0.000431842 -0.000750288)
(-0.000682176 0.000223778 -0.000609435)
(-0.000513172 -5.19291e-06 -0.000428581)
(-0.000263977 -0.000258727 -0.000197317)
(9.51148e-05 -0.000526898 9.88707e-05)
(0.00057495 -0.000778312 0.000465869)
(0.00114837 -0.000960635 0.000877662)
(0.00173505 -0.0010218 0.0012476)
(0.00221275 -0.000956745 0.00142127)
(0.00246836 -0.000855698 0.00124532)
(0.00215618 -0.00115523 0.000660809)
(0.00216578 -0.00126045 0.000355357)
(0.00209292 -0.00125272 5.86778e-05)
(0.00195143 -0.00112655 -0.000202645)
(0.00175832 -0.000920992 -0.000414061)
(0.00153788 -0.000686133 -0.000564135)
(0.00131207 -0.000457049 -0.00064574)
(0.00109126 -0.000248337 -0.00065754)
(0.000871753 -6.06265e-05 -0.000603001)
(0.000639383 0.000110954 -0.000487867)
(0.000376084 0.000270956 -0.000318122)
(6.68195e-05 0.000420845 -9.97194e-05)
(-0.000294079 0.000558262 0.000159241)
(-0.000697554 0.000677844 0.000443295)
(-0.00111677 0.000774468 0.000721245)
(-0.00150994 0.000849915 0.00093794)
(-0.00183249 0.000920465 0.00101854)
(-0.00204967 0.00102147 0.000911075)
(-0.00215618 0.00115523 0.000660809)
(-0.00216578 0.00126045 0.000355357)
(-0.00209292 0.00125272 5.86778e-05)
(-0.00195143 0.00112655 -0.000202645)
(-0.00175832 0.000920992 -0.000414061)
(-0.00153788 0.000686133 -0.000564135)
(-0.00131207 0.000457049 -0.00064574)
(-0.00109126 0.000248337 -0.00065754)
(-0.000871753 6.06265e-05 -0.000603001)
(-0.000639383 -0.000110954 -0.000487867)
(-0.000376084 -0.000270956 -0.000318122)
(-6.68196e-05 -0.000420845 -9.97194e-05)
(0.000294079 -0.000558262 0.000159241)
(0.000697554 -0.000677844 0.000443295)
(0.00111677 -0.000774468 0.000721245)
(0.00150994 -0.000849915 0.00093794)
(0.00183249 -0.000920465 0.00101854)
(0.00204967 -0.00102147 0.000911075)
(0.00173193 -0.00133872 0.000551299)
(0.00191978 -0.00142369 0.000474187)
(0.00204993 -0.00132052 0.000341536)
(0.00207093 -0.00107837 0.000146067)
(0.00197497 -0.000768347 -7.5631e-05)
(0.00178709 -0.000451107 -0.000276733)
(0.00153998 -0.000163657 -0.000420274)
(0.00125756 7.7698e-05 -0.000484802)
(0.000951105 0.000268296 -0.000463163)
(0.000623567 0.000407551 -0.000359843)
(0.000277054 0.00049595 -0.000189124)
(-8.03235e-05 0.000536857 2.5952e-05)
(-0.000431153 0.000541722 0.000254997)
(-0.00075122 0.000535526 0.000463387)
(-0.00101843 0.000557133 0.00061769)
(-0.00122512 0.000649199 0.000693345)
(-0.00138722 0.000836639 0.000686109)
(-0.00154388 0.00110276 0.000625052)
(-0.00173193 0.00133872 0.000551299)
(-0.00191978 0.00142369 0.000474187)
(-0.00204993 0.00132052 0.000341536)
(-0.00207093 0.00107837 0.000146067)
(-0.00197497 0.000768347 -7.5631e-05)
(-0.00178709 0.000451107 -0.000276733)
(-0.00153998 0.000163657 -0.000420274)
(-0.00125756 -7.7698e-05 -0.000484802)
(-0.000951105 -0.000268296 -0.000463163)
(-0.000623567 -0.000407551 -0.000359843)
(-0.000277054 -0.00049595 -0.000189124)
(8.03234e-05 -0.000536857 2.5952e-05)
(0.000431153 -0.000541722 0.000254997)
(0.00075122 -0.000535526 0.000463387)
(0.00101843 -0.000557133 0.00061769)
(0.00122512 -0.000649199 0.000693345)
(0.00138722 -0.000836639 0.000686109)
(0.00154388 -0.00110276 0.000625052)
(0.00378215 -0.00187463 0.00161586)
(0.003561 -0.00203252 0.000588212)
(0.00317168 -0.0020988 -0.000339778)
(0.00274286 -0.00202449 -0.0010396)
(0.00233824 -0.00182002 -0.00149758)
(0.00198377 -0.00153873 -0.00174335)
(0.0016873 -0.00123267 -0.00181815)
(0.00144164 -0.000929175 -0.00176098)
(0.00122333 -0.000630893 -0.0016007)
(0.000994463 -0.000325498 -0.00135052)
(0.000707622 3.1474e-06 -0.00100597)
(0.00031339 0.000364023 -0.000548888)
(-0.000228011 0.000748114 4.00323e-05)
(-0.000928642 0.00112104 0.000757551)
(-0.00175063 0.00142848 0.00154344)
(-0.00259209 0.00162378 0.00224616)
(-0.00329915 0.00170978 0.00261992)
(-0.00371525 0.001763 0.00241536)
(-0.00378215 0.00187463 0.00161586)
(-0.003561 0.00203252 0.000588212)
(-0.00317168 0.0020988 -0.000339778)
(-0.00274286 0.00202449 -0.0010396)
(-0.00233824 0.00182002 -0.00149758)
(-0.00198377 0.00153873 -0.00174335)
(-0.0016873 0.00123267 -0.00181815)
(-0.00144164 0.000929175 -0.00176098)
(-0.00122333 0.000630893 -0.0016007)
(-0.000994463 0.000325498 -0.00135052)
(-0.000707622 -3.1474e-06 -0.00100597)
(-0.00031339 -0.000364023 -0.000548888)
(0.000228011 -0.000748114 4.00323e-05)
(0.000928642 -0.00112104 0.000757551)
(0.00175063 -0.00142848 0.00154344)
(0.00259209 -0.00162378 0.00224616)
(0.00329915 -0.00170977 0.00261992)
(0.00371525 -0.001763 0.00241536)
(0.00336304 -0.00198417 0.00150792)
(0.00339377 -0.00210199 0.000908687)
(0.00328507 -0.0020535 0.00028412)
(0.00306479 -0.00184343 -0.000268739)
(0.00276617 -0.00152119 -0.00070699)
(0.00242623 -0.00115359 -0.00101112)
(0.00207539 -0.000790157 -0.0011757)
(0.00172697 -0.000453911 -0.00120535)
(0.00137494 -0.000148617 -0.00110962)
(0.000999335 0.00013056 -0.000898233)
(0.000575407 0.000389311 -0.000579276)
(8.35273e-05 0.000630224 -0.000161386)
(-0.000481654 0.000851818 0.000339812)
(-0.0011039 0.00105041 0.000891566)
(-0.00174225 0.00122565 0.00143214)
(-0.00233692 0.00138853 0.00186403)
(-0.00282798 0.00156309 0.00206591)
(-0.00317406 0.00176891 0.00193838)
(-0.00336304 0.00198417 0.00150792)
(-0.00339377 0.00210199 0.000908687)
(-0.00328507 0.0020535 0.00028412)
(-0.00306479 0.00184343 -0.000268739)
(-0.00276617 0.00152119 -0.00070699)
(-0.00242623 0.00115359 -0.00101112)
(-0.00207539 0.000790157 -0.0011757)
(-0.00172697 0.000453911 -0.00120535)
(-0.00137494 0.000148617 -0.00110962)
(-0.000999335 -0.00013056 -0.000898233)
(-0.000575407 -0.000389311 -0.000579276)
(-8.35273e-05 -0.000630224 -0.000161386)
(0.000481654 -0.000851818 0.000339812)
(0.0011039 -0.00105041 0.000891566)
(0.00174225 -0.00122565 0.00143214)
(0.00233692 -0.00138853 0.00186403)
(0.00282798 -0.00156309 0.00206591)
(0.00317406 -0.00176891 0.00193838)
(0.00277836 -0.00205008 0.00133001)
(0.00304164 -0.00217357 0.00111011)
(0.00320496 -0.00206121 0.000791903)
(0.00320533 -0.00175364 0.000405436)
(0.00304362 -0.00133438 9.47448e-06)
(0.00275799 -0.000883983 -0.000332049)
(0.0023915 -0.000455565 -0.000568102)
(0.00197242 -7.56176e-05 -0.000668315)
(0.00151152 0.000244554 -0.000622369)
(0.0010095 0.000499171 -0.000436823)
(0.000468006 0.000684607 -0.000133255)
(-0.000100777 0.000802353 0.00025203)
(-0.000669703 0.000866175 0.000668991)
(-0.00120054 0.000908671 0.0010585)
(-0.00165629 0.0009797 0.00136259)
(-0.00201699 0.00113049 0.00153919)
(-0.00229227 0.00138453 0.0015743)
(-0.00252267 0.00172767 0.00148457)
(-0.00277836 0.00205008 0.00133001)
(-0.00304164 0.00217357 0.00111011)
(-0.00320496 0.00206121 0.000791903)
(-0.00320533 0.00175364 0.000405436)
(-0.00304362 0.00133438 9.47449e-06)
(-0.00275799 0.000883983 -0.000332049)
(-0.0023915 0.000455565 -0.000568102)
(-0.00197242 7.56176e-05 -0.000668315)
(-0.00151152 -0.000244554 -0.000622369)
(-0.0010095 -0.000499171 -0.000436823)
(-0.000468006 -0.000684607 -0.000133255)
(0.000100777 -0.000802353 0.00025203)
(0.000669703 -0.000866175 0.000668991)
(0.00120054 -0.000908671 0.0010585)
(0.00165629 -0.0009797 0.00136259)
(0.00201699 -0.00113049 0.00153919)
(0.00229227 -0.00138453 0.0015743)
(0.00252267 -0.00172767 0.00148457)
(0.00474017 -0.00299532 0.0025866)
(0.00452868 -0.00308319 0.00122569)
(0.0040955 -0.00303257 -0.000125176)
(0.00357975 -0.00283655 -0.00124076)
(0.00306836 -0.0025144 -0.00202999)
(0.00260331 -0.00211947 -0.00249634)
(0.00219877 -0.00170548 -0.00269054)
(0.00184832 -0.00130211 -0.0026718)
(0.00152654 -0.000912141 -0.00248384)
(0.00119154 -0.000520386 -0.00214393)
(0.000790485 -0.000106137 -0.00164291)
(0.000268896 0.000343755 -0.000956183)
(-0.000414619 0.000823175 -6.66366e-05)
(-0.00126752 0.00130199 0.00100098)
(-0.00224162 0.00173756 0.00214151)
(-0.00322507 0.00210602 0.00314532)
(-0.00406124 0.00243107 0.00371467)
(-0.00459253 0.00275391 0.00354964)
(-0.00474017 0.00299532 0.0025866)
(-0.00452868 0.00308319 0.00122569)
(-0.0040955 0.00303257 -0.000125176)
(-0.00357975 0.00283655 -0.00124076)
(-0.00306836 0.0025144 -0.00202999)
(-0.00260331 0.00211947 -0.00249634)
(-0.00219877 0.00170548 -0.00269054)
(-0.00184832 0.00130211 -0.0026718)
(-0.00152654 0.000912141 -0.00248384)
(-0.00119154 0.000520386 -0.00214393)
(-0.000790485 0.000106137 -0.00164291)
(-0.000268896 -0.000343755 -0.000956183)
(0.000414619 -0.000823175 -6.66366e-05)
(0.00126752 -0.00130199 0.00100098)
(0.00224162 -0.00173756 0.00214151)
(0.00322507 -0.00210602 0.00314532)
(0.00406124 -0.00243107 0.00371467)
(0.00459253 -0.00275391 0.00354964)
(0.00430734 -0.00277557 0.00241528)
(0.00434506 -0.00288934 0.00156362)
(0.0041969 -0.00279372 0.000637033)
(0.00390838 -0.00251622 -0.000208872)
(0.00352688 -0.00211289 -0.000888532)
(0.00309816 -0.00165294 -0.00136363)
(0.00265552 -0.00118972 -0.00162782)
(0.00221104 -0.000750597 -0.00169198)
(0.00175534 -0.000342768 -0.00157158)
(0.00126456 3.65843e-05 -0.00127919)
(0.00071068 0.000392312 -0.000823754)
(7.2891e-05 0.000726825 -0.000216806)
(-0.000651881 0.0010391 0.000515967)
(-0.00144092 0.00132742 0.00132044)
(-0.00224329 0.00159608 0.00210264)
(-0.00298817 0.00186286 0.00273012)
(-0.00360747 0.00215582 0.00305653)
(-0.00405747 0.00248437 0.00296191)
(-0.00430734 0.00277557 0.00241528)
(-0.00434506 0.00288934 0.00156362)
(-0.0041969 0.00279372 0.000637033)
(-0.00390838 0.00251622 -0.000208872)
(-0.00352688 0.00211289 -0.000888532)
(-0.00309816 0.00165294 -0.00136363)
(-0.00265552 0.00118972 -0.00162782)
(-0.00221104 0.000750597 -0.00169198)
(-0.00175534 0.000342768 -0.00157158)
(-0.00126456 -3.65843e-05 -0.00127919)
(-0.00071068 -0.000392312 -0.000823754)
(-7.2891e-05 -0.000726825 -0.000216806)
(0.000651881 -0.0010391 0.000515967)
(0.00144092 -0.00132742 0.00132044)
(0.00224329 -0.00159608 0.00210264)
(0.00298817 -0.00186286 0.00273012)
(0.00360747 -0.00215582 0.00305653)
(0.00405747 -0.00248437 0.00296191)
(0.00375184 -0.00260261 0.00215568)
(0.00398982 -0.00274744 0.00178336)
(0.00410642 -0.00263706 0.00128834)
(0.00405032 -0.00230595 0.000731158)
(0.00382457 -0.00183578 0.000182939)
(0.00346764 -0.00131078 -0.000280611)
(0.00302184 -0.000789899 -0.000597222)
(0.00251275 -0.000305465 -0.000728894)
(0.00194685 0.0001255 -0.000662351)
(0.00132095 0.000491454 -0.000405735)
(0.000635104 0.000783599 1.29706e-05)
(-9.65633e-05 0.00100004 0.000545424)
(-0.000841592 0.0011538 0.0011239)
(-0.00155436 0.00127842 0.00166823)
(-0.00218952 0.00142315 0.00210089)
(-0.00271738 0.00163403 0.00236722)
(-0.00313503 0.0019284 0.00245097)
(-0.00346822 0.0022794 0.0023726)
(-0.00375184 0.00260261 0.00215568)
(-0.00398982 0.00274744 0.00178336)
(-0.00410642 0.00263706 0.00128834)
(-0.00405032 0.00230595 0.000731158)
(-0.00382457 0.00183578 0.000182939)
(-0.00346764 0.00131078 -0.000280611)
(-0.00302184 0.000789899 -0.000597222)
(-0.00251275 0.000305465 -0.000728894)
(-0.00194685 -0.0001255 -0.000662351)
(-0.00132095 -0.000491454 -0.000405735)
(-0.000635104 -0.000783599 1.29706e-05)
(9.65632e-05 -0.00100004 0.000545424)
(0.000841592 -0.0011538 0.0011239)
(0.00155436 -0.00127842 0.00166823)
(0.00218952 -0.00142315 0.00210089)
(0.00271738 -0.00163403 0.00236722)
(0.00313503 -0.0019284 0.00245097)
(0.00346822 -0.0022794 0.0023726)
(0.00531358 -0.00380868 0.00341208)
(0.00515336 -0.00394681 0.0019305)
(0.00471902 -0.00387475 0.000289379)
(0.00415763 -0.00362359 -0.00116954)
(0.00357913 -0.00323487 -0.00226277)
(0.00304112 -0.00276632 -0.0029523)
(0.0025608 -0.00227271 -0.00328707)
(0.00212904 -0.001787 -0.0033395)
(0.00171824 -0.00131555 -0.00316352)
(0.00128629 -0.000844574 -0.00277758)
(0.000781685 -0.000352165 -0.00216701)
(0.000153084 0.000177518 -0.00130272)
(-0.000634506 0.000742463 -0.000174797)
(-0.00157841 0.00132086 0.00116414)
(-0.00262054 0.00188569 0.00256125)
(-0.00364766 0.0024283 0.00375608)
(-0.00451607 0.00295922 0.00442976)
(-0.00509723 0.00345311 0.00432678)
(-0.00531358 0.00380868 0.00341208)
(-0.00515336 0.00394681 0.0019305)
(-0.00471902 0.00387475 0.000289379)
(-0.00415763 0.00362359 -0.00116954)
(-0.00357913 0.00323487 -0.00226277)
(-0.00304112 0.00276632 -0.0029523)
(-0.0025608 0.00227271 -0.00328707)
(-0.00212904 0.001787 -0.0033395)
(-0.00171824 0.00131555 -0.00316352)
(-0.00128629 0.000844574 -0.00277758)
(-0.000781685 0.000352165 -0.00216701)
(-0.000153084 -0.000177518 -0.00130272)
(0.000634506 -0.000742463 -0.000174797)
(0.00157841 -0.00132086 0.00116414)
(0.00262054 -0.00188569 0.00256125)
(0.00364766 -0.0024283 0.00375608)
(0.00451607 -0.00295922 0.00442976)
(0.00509723 -0.00345311 0.00432678)
(0.00492489 -0.00336563 0.00310717)
(0.00495806 -0.00349757 0.00216723)
(0.004779 -0.00340507 0.0010584)
(0.00444055 -0.00311378 -8.36608e-06)
(0.00400342 -0.00268222 -0.000890303)
(0.00351918 -0.00217806 -0.00152055)
(0.00301994 -0.00165495 -0.00188585)
(0.00251374 -0.00114321 -0.00199941)
(0.00198748 -0.000653969 -0.00187989)
(0.00141514 -0.000187656 -0.00154084)
(0.000768321 0.000258544 -0.000991269)
(2.76836e-05 0.000686029 -0.000245663)
(-0.000806136 0.00109373 0.000659878)
(-0.00170466 0.00148152 0.00165096)
(-0.00261082 0.00185723 0.00260612)
(-0.00344996 0.00224028 0.0033655)
(-0.00414983 0.0026474 0.00376212)
(-0.00465397 0.00305232 0.00367673)
(-0.00492489 0.00336563 0.00310717)
(-0.00495806 0.00349757 0.00216723)
(-0.004779 0.00340507 0.0010584)
(-0.00444055 0.00311378 -8.36605e-06)
(-0.00400342 0.00268222 -0.000890303)
(-0.00351918 0.00217806 -0.00152055)
(-0.00301994 0.00165495 -0.00188585)
(-0.00251374 0.00114321 -0.00199941)
(-0.00198748 0.000653969 -0.00187989)
(-0.00141514 0.000187656 -0.00154084)
(-0.000768321 -0.000258544 -0.000991269)
(-2.76836e-05 -0.000686029 -0.000245663)
(0.000806136 -0.00109373 0.000659878)
(0.00170466 -0.00148152 0.00165096)
(0.00261082 -0.00185723 0.00260612)
(0.00344996 -0.00224028 0.0033655)
(0.00414983 -0.0026474 0.00376212)
(0.00465397 -0.00305232 0.00367673)
(0.00450017 -0.00301769 0.00275955)
(0.00466309 -0.0031318 0.00231643)
(0.00469382 -0.00302814 0.00173224)
(0.00456732 -0.00271149 0.00106952)
(0.00428649 -0.00224322 0.000416405)
(0.00388259 -0.00169847 -0.000137025)
(0.00339132 -0.00113502 -0.000517207)
(0.00283283 -0.000587351 -0.00067816)
(0.00220869 -7.59382e-05 -0.000602859)
(0.00151163 0.000383488 -0.000300171)
(0.000739194 0.000777729 0.000196576)
(-9.51883e-05 0.00110086 0.000829014)
(-0.000958401 0.00136207 0.00151595)
(-0.00180333 0.00158964 0.00216366)
(-0.00258137 0.001824 0.00268456)
(-0.00325477 0.00209909 0.00301693)
(-0.00380263 0.00242085 0.0031338)
(-0.0042172 0.0027525 0.00303898)
(-0.00450017 0.00301769 0.00275955)
(-0.00466309 0.0031318 0.00231643)
(-0.00469382 0.00302814 0.00173224)
(-0.00456732 0.00271149 0.00106952)
(-0.00428649 0.00224322 0.000416405)
(-0.00388259 0.00169847 -0.000137025)
(-0.00339132 0.00113502 -0.000517207)
(-0.00283283 0.000587351 -0.00067816)
(-0.00220869 7.59382e-05 -0.000602859)
(-0.00151163 -0.000383488 -0.000300171)
(-0.000739194 -0.000777729 0.000196576)
(9.51883e-05 -0.00110086 0.000829014)
(0.000958401 -0.00136207 0.00151595)
(0.00180333 -0.00158964 0.00216366)
(0.00258137 -0.001824 0.00268456)
(0.00325477 -0.00209909 0.00301693)
(0.00380263 -0.00242085 0.0031338)
(0.0042172 -0.0027525 0.00303898)
(0.00552085 -0.00429472 0.00389738)
(0.00541104 -0.00453304 0.00246822)
(0.00501401 -0.00452861 0.000758305)
(0.00445361 -0.00430872 -0.000870116)
(0.00384986 -0.0039237 -0.00216311)
(0.0032755 -0.00343522 -0.00302816)
(0.0027522 -0.002901 -0.00349344)
(0.00226796 -0.00235976 -0.00363091)
(0.00179266 -0.00182459 -0.00349781)
(0.00128537 -0.00128642 -0.00311197)
(0.000699507 -0.000725027 -0.00245495)
(-7.81873e-06 -0.000123604 -0.00149685)
(-0.000859455 0.000519439 -0.00023853)
(-0.00183884 0.00118988 0.00124042)
(-0.00287948 0.00187062 0.00275234)
(-0.0038752 0.00255324 0.0040184)
(-0.00470868 0.00322464 0.00474196)
(-0.00528051 0.0038339 0.00471302)
(-0.00552085 0.00429472 0.00389738)
(-0.00541104 0.00453304 0.00246822)
(-0.00501401 0.00452861 0.000758305)
(-0.00445361 0.00430872 -0.000870116)
(-0.00384986 0.0039237 -0.00216311)
(-0.0032755 0.00343522 -0.00302816)
(-0.0027522 0.002901 -0.00349344)
(-0.00226796 0.00235976 -0.00363091)
(-0.00179266 0.00182459 -0.00349781)
(-0.00128537 0.00128642 -0.00311197)
(-0.000699507 0.000725027 -0.00245495)
(7.81868e-06 0.000123604 -0.00149685)
(0.000859455 -0.000519439 -0.00023853)
(0.00183884 -0.00118988 0.00124042)
(0.00287948 -0.00187062 0.00275234)
(0.0038752 -0.00255324 0.0040184)
(0.00470868 -0.00322464 0.00474196)
(0.00528051 -0.0038339 0.00471302)
(0.00519771 -0.00373148 0.00354398)
(0.00522272 -0.0038992 0.00260929)
(0.00502752 -0.00385179 0.00145462)
(0.00466623 -0.00360048 0.000290528)
(0.004204 -0.0031937 -0.000709779)
(0.00369498 -0.00269272 -0.00144925)
(0.00316931 -0.00215006 -0.00189882)
(0.00263128 -0.00159915 -0.00206673)
(0.00206526 -0.00105555 -0.00197062)
(0.00144489 -0.000523458 -0.00162355)
(0.000743563 -2.46986e-06 -0.00103477)
(-5.45945e-05 0.000507583 -0.000222049)
(-0.000944254 0.00100517 0.000769374)
(-0.00189176 0.00149008 0.00184977)
(-0.00283615 0.0019686 0.00288085)
(-0.00370164 0.00245191 0.00369365)
(-0.00441664 0.00293815 0.00412804)
(-0.00492664 0.0033882 0.00408111)
(-0.00519771 0.00373148 0.00354398)
(-0.00522272 0.0038992 0.00260929)
(-0.00502752 0.00385179 0.00145462)
(-0.00466623 0.00360048 0.000290528)
(-0.004204 0.0031937 -0.000709779)
(-0.00369498 0.00269272 -0.00144925)
(-0.00316931 0.00215006 -0.00189882)
(-0.00263128 0.00159915 -0.00206673)
(-0.00206526 0.00105555 -0.00197062)
(-0.00144489 0.000523458 -0.00162355)
(-0.000743563 2.46985e-06 -0.00103477)
(5.45944e-05 -0.000507583 -0.000222049)
(0.000944254 -0.00100517 0.000769374)
(0.00189176 -0.00149008 0.00184977)
(0.00283615 -0.0019686 0.00288085)
(0.00370164 -0.00245191 0.00369365)
(0.00441664 -0.00293815 0.00412804)
(0.00492664 -0.0033882 0.00408111)
(0.0048898 -0.0032742 0.00316508)
(0.00499849 -0.00335799 0.00269223)
(0.00495781 -0.00326414 0.00207611)
(0.00477237 -0.00298473 0.00137682)
(0.00445293 -0.00255545 0.000679705)
(0.00402401 -0.00203336 7.95775e-05)
(0.00351302 -0.0014694 -0.000340977)
(0.00293492 -0.000897635 -0.000527382)
(0.00228827 -0.000340213 -0.000457567)
(0.00156367 0.000184852 -0.000139892)
(0.00075688 0.000661636 0.000388504)
(-0.000120604 0.00108065 0.00106227)
(-0.00103812 0.00144554 0.00179264)
(-0.00195072 0.00177512 0.00248098)
(-0.00280825 0.00209563 0.00303845)
(-0.00356313 0.00242469 0.00340255)
(-0.00417561 0.00275622 0.00354295)
(-0.00461947 0.00305621 0.00345768)
(-0.0048898 0.0032742 0.00316508)
(-0.00499849 0.00335799 0.00269223)
(-0.00495781 0.00326414 0.00207611)
(-0.00477237 0.00298473 0.00137682)
(-0.00445293 0.00255545 0.000679705)
(-0.00402401 0.00203336 7.95775e-05)
(-0.00351302 0.0014694 -0.000340977)
(-0.00293492 0.000897635 -0.000527382)
(-0.00228827 0.000340213 -0.000457567)
(-0.00156367 -0.000184852 -0.000139892)
(-0.00075688 -0.000661636 0.000388504)
(0.000120604 -0.00108065 0.00106227)
(0.00103812 -0.00144554 0.00179264)
(0.00195072 -0.00177512 0.00248098)
(0.00280825 -0.00209563 0.00303845)
(0.00356313 -0.00242469 0.00340255)
(0.00417561 -0.00275622 0.00354295)
(0.00461947 -0.00305621 0.00345768)
(0.00541031 -0.00449848 0.00404006)
(0.00533143 -0.00484819 0.00276399)
(0.00498618 -0.00495548 0.00116042)
(0.00446603 -0.00482776 -0.000451193)
(0.0038786 -0.0045062 -0.00180436)
(0.00330181 -0.00404977 -0.00276488)
(0.00276389 -0.00351792 -0.00332606)
(0.0022541 -0.0029552 -0.00354291)
(0.00174179 -0.00238227 -0.00346701)
(0.00118811 -0.00179647 -0.0031144)
(0.000552824 -0.00118147 -0.00246685)
(-0.00019597 -0.000521792 -0.00149945)
(-0.00106637 0.000185579 -0.000226433)
(-0.00202794 0.000930643 0.00125373)
(-0.00301043 0.00169971 0.00274258)
(-0.00392131 0.00247943 0.00397534)
(-0.00467049 0.00324427 0.00469405)
(-0.00518437 0.00394154 0.00472616)
(-0.00541031 0.00449848 0.00404006)
(-0.00533143 0.00484819 0.00276399)
(-0.00498618 0.00495548 0.00116042)
(-0.00446603 0.00482776 -0.000451193)
(-0.0038786 0.0045062 -0.00180436)
(-0.00330181 0.00404977 -0.00276488)
(-0.00276389 0.00351792 -0.00332606)
(-0.0022541 0.0029552 -0.00354291)
(-0.00174179 0.00238227 -0.00346701)
(-0.00118811 0.00179647 -0.0031144)
(-0.000552824 0.00118147 -0.00246685)
(0.00019597 0.000521792 -0.00149945)
(0.00106637 -0.000185578 -0.000226433)
(0.00202794 -0.000930643 0.00125373)
(0.00301043 -0.00169971 0.00274258)
(0.00392131 -0.00247943 0.00397534)
(0.00467049 -0.00324427 0.00469405)
(0.00518437 -0.00394154 0.00472616)
(0.00514397 -0.00388433 0.00371494)
(0.00516108 -0.00410703 0.0028618)
(0.00496848 -0.00413077 0.00176977)
(0.00461391 -0.00395471 0.000626208)
(0.00415751 -0.00361182 -0.000396042)
(0.00365111 -0.00315282 -0.00118248)
(0.00312339 -0.002627 -0.00168521)
(0.00257749 -0.00207012 -0.00190049)
(0.00199778 -0.00150206 -0.00184043)
(0.00135979 -0.000930865 -0.0015165)
(0.000640623 -0.000358592 -0.000939046)
(-0.000170639 0.000213511 -0.000129898)
(-0.00106324 0.000782835 0.000858863)
(-0.00199925 0.00134721 0.00193056)
(-0.00291701 0.00190773 0.00294581)
(-0.00374514 0.00246531 0.00374538)
(-0.00441993 0.00300781 0.00418695)
(-0.00489521 0.00349913 0.00418098)
(-0.00514397 0.00388433 0.00371494)
(-0.00516108 0.00410703 0.0028618)
(-0.00496848 0.00413077 0.00176977)
(-0.00461391 0.00395471 0.000626208)
(-0.00415751 0.00361182 -0.000396042)
(-0.00365111 0.00315282 -0.00118248)
(-0.00312339 0.002627 -0.00168521)
(-0.00257749 0.00207012 -0.00190049)
(-0.00199778 0.00150206 -0.00184043)
(-0.00135979 0.000930865 -0.0015165)
(-0.000640623 0.000358592 -0.000939046)
(0.000170639 -0.000213511 -0.000129898)
(0.00106324 -0.000782835 0.000858863)
(0.00199925 -0.00134721 0.00193056)
(0.00291701 -0.00190773 0.00294581)
(0.00374514 -0.00246531 0.00374538)
(0.00441993 -0.00300781 0.00418695)
(0.00489521 -0.00349913 0.00418098)
(0.00493475 -0.00337701 0.00336355)
(0.00500795 -0.00345563 0.00291063)
(0.00492607 -0.00338472 0.00231457)
(0.00470808 -0.00315487 0.00163406)
(0.00437183 -0.00278457 0.000947389)
(0.00393811 -0.00231228 0.000345024)
(0.00342751 -0.00177869 -8.81622e-05)
(0.00285128 -0.00121515 -0.000291613)
(0.00220758 -0.000644233 -0.000238236)
(0.00148779 -8.49501e-05 6.5206e-05)
(0.000687931 0.000445471 0.00057989)
(-0.000181838 0.000934934 0.0012377)
(-0.00109411 0.00138134 0.00194934)
(-0.00200741 0.00179305 0.00262014)
(-0.00287192 0.0021818 0.00316813)
(-0.0036353 0.00255168 0.00353613)
(-0.0042505 0.0028918 0.00369371)
(-0.00468624 0.00317759 0.00363288)
(-0.00493475 0.00337701 0.00336355)
(-0.00500795 0.00345563 0.00291063)
(-0.00492607 0.00338472 0.00231457)
(-0.00470808 0.00315487 0.00163406)
(-0.00437183 0.00278457 0.000947389)
(-0.00393811 0.00231228 0.000345024)
(-0.00342751 0.00177869 -8.81621e-05)
(-0.00285128 0.00121515 -0.000291613)
(-0.00220758 0.000644233 -0.000238236)
(-0.00148779 8.49501e-05 6.5206e-05)
(-0.000687931 -0.000445471 0.00057989)
(0.000181838 -0.000934934 0.0012377)
(0.00109411 -0.00138134 0.00194934)
(0.00200741 -0.00179305 0.00262014)
(0.00287192 -0.0021818 0.00316813)
(0.0036353 -0.00255168 0.00353613)
(0.0042505 -0.0028918 0.00369371)
(0.00468624 -0.00317759 0.00363288)
(0.00504332 -0.00447734 0.00389047)
(0.00497488 -0.00492967 0.00282252)
(0.00468011 -0.00515469 0.0014338)
(0.00422211 -0.00514309 -2.07688e-05)
(0.00368349 -0.00491989 -0.00130533)
(0.0031338 -0.00453454 -0.00227222)
(0.00260513 -0.0040438 -0.00288055)
(0.00209221 -0.00349479 -0.00315662)
(0.00156786 -0.00291388 -0.00313706)
(0.000997284 -0.00230496 -0.00283425)
(0.000347711 -0.0016574 -0.00223439)
(-0.000400874 -0.00095966 -0.00132373)
(-0.0012424 -0.000209834 -0.000130992)
(-0.00213658 0.000583832 0.00123719)
(-0.00301567 0.00140889 0.00259355)
(-0.00380397 0.00224909 0.00370803)
(-0.00443557 0.00307539 0.00436848)
(-0.00486008 0.00383902 0.00443782)
(-0.00504332 0.00447734 0.00389047)
(-0.00497488 0.00492967 0.00282252)
(-0.00468011 0.00515469 0.0014338)
(-0.00422211 0.00514309 -2.07688e-05)
(-0.00368349 0.00491989 -0.00130533)