/*--------------------------------*- C++ -*----------------------------------*\
| =========                 |                                                 |
| \\      /  F ield         | OpenFOAM: The Open Source CFD Toolbox           |
|  \\    /   O peration     | Version:  2412                                  |
|   \\  /    A nd           | Website:  www.openfoam.com                      |
|    \\/     M anipulation  |                                                 |
\*---------------------------------------------------------------------------*/
FoamFile
{
    version     2.0;
    format      ascii;
    arch        "LSB;label=32;scalar=64";
    class       volScalarField;
    location    "0.0199794";
    object      ionicCurrent;
}
// * * * * * * * * * * * * * * * * * * * * * * * * * * * * * * * * * * * * * //

dimensions      [1 2 -4 0 0 -1 0];

internalField   nonuniform List<scalar> 
8679
(
6.00118
5.76723
5.87077
6.02612
5.94745
5.92702
5.97325
5.75352
5.88135
5.70434
5.91692
5.82808
5.80072
5.41808
5.42898
5.48282
5.15332
4.8637
4.58148
4.31625
4.04116
3.74705
3.38829
2.94605
1.64013
0.537778
-2.00281
-5.78329
-10.3326
-16.6152
-21.8008
-25.8606
-31.3578
5.8112
5.86095
5.97075
5.84099
5.76664
6.0457
5.76264
5.83212
5.95472
5.80087
5.688
5.61181
5.54856
5.51655
5.5269
5.14408
5.23618
4.92046
4.63532
4.35581
4.096
3.82315
3.52951
2.4948
1.82
-0.0439619
-1.9794
-5.88808
-11.4347
-16.8086
-22.0003
-26.0723
-31.7291
5.94231
6.0013
5.81582
5.98728
5.9058
5.87788
5.89939
5.97589
5.76203
5.9328
5.80855
5.72771
5.67852
5.6731
5.2894
5.36221
5.03467
4.72994
4.4044
4.63463
3.86279
3.59426
3.21707
2.7209
1.30955
0.0424202
-2.77469
-6.96788
-11.9122
-18.0376
-22.797
-26.8313
-33.0783
4.94723
4.98778
4.92087
5.03104
5.03492
5.07907
5.16509
5.12894
5.28343
5.30466
5.35463
5.43352
5.54334
5.69123
5.64579
5.8579
5.86329
5.89212
5.93571
5.9946
6.08031
5.83504
5.93374
5.64065
5.74187
5.41688
5.07958
4.70613
4.28609
3.83988
3.33117
2.63414
1.55593
4.99117
5.03043
4.95873
5.07657
5.08134
5.124
5.208
5.16248
5.3203
5.34233
5.39762
5.48484
5.60777
5.55084
5.72662
5.69466
5.9348
5.95364
5.99921
6.07375
5.83962
5.92374
6.01537
5.75538
5.43867
5.52489
5.1494
4.75746
4.33129
3.87082
3.3513
2.64024
1.59649
4.96002
4.99711
5.07557
5.04307
5.04902
5.08909
5.16299
5.27523
5.25189
5.44213
5.4948
5.59105
5.51677
5.67805
5.64242
5.85488
5.85809
5.88264
5.91989
5.9706
6.05414
5.80136
5.89655
5.58967
5.67996
5.32948
4.95022
4.48878
4.51794
4.08001
3.04034
2.34899
1.1446
5.00387
5.04157
5.12152
5.08777
5.09291
5.13243
5.20569
5.31777
5.29079
5.48197
5.53221
5.62696
5.55226
5.70795
5.66675
5.87811
5.87371
5.88929
5.91668
5.96247
6.0403
5.77246
5.85721
5.53294
5.60895
5.22558
4.78459
4.79654
4.30839
3.84679
3.35783
2.00029
0.709496
5.14689
5.189
5.11154
5.23639
5.23879
5.28075
5.36306
5.3046
5.46332
5.47529
5.52281
5.60427
5.72408
5.65118
5.82527
5.78153
6.01268
6.0083
6.03274
6.089
5.8123
5.86508
5.92985
5.61355
5.24151
5.28881
4.85208
4.41088
3.95524
3.44088
2.77253
1.77085
0.14373
3.37548
3.32983
3.38405
3.39188
3.42488
3.4836
3.56906
3.68327
3.74149
3.82383
3.93185
4.06667
4.13042
4.31152
4.41321
4.53782
4.67503
4.82933
4.99707
5.19413
5.23819
5.47309
5.52092
5.78541
5.85046
5.91248
5.97357
6.0249
6.07894
6.13882
5.80496
5.83103
5.36803
3.33168
3.35873
3.41265
3.41931
3.45202
3.51118
3.59755
3.62944
3.77039
3.8533
3.96137
4.09685
4.15645
4.34415
4.44627
4.56621
4.70308
4.85822
5.03375
5.23456
5.28368
5.52627
5.59069
5.6524
5.69808
5.99202
6.04687
6.12194
5.86561
5.89964
5.89967
5.89231
5.41368
3.39985
3.4272
3.40738
3.41876
3.52433
3.58582
3.59272
3.70603
3.76267
3.8478
3.94828
4.08001
4.23967
4.31636
4.52912
4.65055
4.79402
4.96143
4.99935
5.19068
5.41226
5.46959
5.51979
5.79422
5.85197
5.91
5.96252
6.00453
6.0328
6.07556
5.71901
5.69241
5.63633
3.44809
3.47561
3.45522
3.53865
3.57387
3.63543
3.64661
3.75671
3.81317
3.89822
4.00364
4.13071
4.29104
4.36595
4.57972
4.69929
4.8409
5.00647
5.03876
5.22687
5.44291
5.48522
5.74203
5.79956
5.85595
5.90936
5.95286
5.97984
5.99032
6.00056
6.01629
5.58733
5.54397
3.50088
3.52391
3.57993
3.58565
3.61843
3.67914
3.76785
3.80206
3.94185
4.02379
4.13208
4.26844
4.32226
4.5117
4.6083
4.72307
4.85953
5.00386
5.17369
5.36911
5.40034
5.63521
5.6756
5.70653
5.98531
6.01562
6.0497
6.07799
6.12018
5.77409
5.75102
5.70739
5.1527
3.63994
3.66927
3.72716
3.73116
3.76228
3.82249
3.91261
3.94441
4.08728
4.16808
4.27634
4.30699
4.4604
4.65037
4.74344
4.8556
4.98365
5.12652
5.28976
5.48058
5.49704
5.72471
5.74891
5.76129
6.03195
6.04285
6.05554
6.05558
6.05193
6.04843
5.60178
5.50458
5.36967
3.83952
3.86926
3.84614
3.93174
3.9629
4.02316
4.11337
4.13458
4.18518
4.35922
4.4638
4.48327
4.63409
4.82276
4.90607
5.00862
5.12661
5.25827
5.40862
5.58551
5.57632
5.78913
5.77365
6.01941
6.0131
6.00712
5.98878
5.94953
5.89201
5.81175
5.72445
5.12746
4.91685
4.12053
4.06088
4.12049
4.12437
4.15262
4.20959
4.29651
4.41041
4.44934
4.51896
4.61087
4.73121
4.87803
4.92099
5.12465
5.20618
5.30423
5.41749
5.5454
5.69187
5.86721
5.82369
6.03836
5.99951
5.95424
5.87824
6.13067
6.04632
5.97817
5.45538
5.28723
5.04081
4.76748
4.40083
4.43524
4.39079
4.49098
4.51313
4.56942
4.543
4.65761
4.68289
4.85849
4.93742
5.04972
5.04266
5.20345
5.40222
5.45744
5.52934
5.61722
5.71949
5.83822
5.98338
5.8804
6.05753
5.93956
6.14215
6.02746
5.89088
5.73594
5.54848
5.31605
5.01941
4.67165
4.31103
4.78918
4.70043
4.76637
4.74456
4.88062
4.92265
5.00129
4.96968
5.11821
5.15126
5.21407
5.30418
5.42277
5.57703
5.57186
5.58312
5.81811
5.86067
5.92096
6.00075
6.10932
5.92781
6.04391
6.17377
5.97935
5.74376
5.89187
5.60947
5.30514
4.95276
4.54255
4.09891
3.63058
5.10998
5.14491
5.22013
5.17881
5.1743
5.20406
5.26689
5.36593
5.50135
5.50632
5.53795
5.59908
5.69011
5.81933
5.75003
5.94521
5.91218
5.88379
6.15441
6.17892
5.90762
5.95439
5.99426
6.04562
5.69404
5.76877
5.39263
4.99628
4.53367
3.98989
4.00357
2.77685
1.90333
5.59803
5.64235
5.53952
5.6644
5.63716
5.65052
5.70198
5.79659
5.71799
5.8922
5.88152
5.90306
5.95736
6.05755
5.9179
6.07316
5.95035
6.15849
6.07022
5.99855
5.93814
5.88163
5.84255
5.35046
5.28506
5.20444
4.62338
3.98955
3.87009
3.13319
2.2426
0.955318
-1.09219
5.91977
5.97059
5.83188
5.97481
5.92594
5.91679
5.94486
6.01236
6.1273
6.02697
5.94642
6.19984
6.21231
5.94365
6.0177
6.11515
5.88296
6.04428
5.84625
5.66594
5.47501
5.27335
5.05117
4.82503
4.60838
3.83238
3.61627
2.66691
2.17073
0.664133
-1.44568
-4.7173
-10.0253
5.9983
6.06172
5.87189
6.03954
5.94858
5.90351
5.90264
5.94615
6.03837
5.83742
6.03658
5.92151
5.84811
5.80284
5.77618
5.80411
5.43071
5.52299
5.15951
4.7779
4.91734
4.55417
4.26279
3.39082
3.02796
2.5343
1.10328
-0.117343
-2.90763
-6.27569
-12.351
-19.9544
-27.4206
5.46263
5.50602
5.6085
5.39367
5.61523
5.51152
5.47171
5.48408
5.56682
5.28186
5.48196
5.29881
5.16432
5.04918
4.95138
4.90375
4.37764
4.39642
3.87464
3.96099
3.52493
3.14496
2.72426
2.15724
1.29105
-0.058431
-3.09111
-6.97779
-13.655
-19.9768
-26.0851
-33.2082
-46.3701
1.8244
1.84245
1.84158
1.89788
1.93535
1.98945
2.02198
2.11514
2.18601
2.27491
2.38396
2.46373
2.6125
2.7285
2.86055
3.01068
3.1803
3.37061
3.50408
3.73408
3.89833
4.07386
4.26013
4.45502
4.65824
4.86982
5.08641
5.32432
5.38771
5.62626
5.8836
5.91376
5.91691
1.84395
1.8625
1.86054
1.88241
1.95296
1.97293
2.04055
2.09731
2.20685
2.29675
2.36227
2.48438
2.58658
2.75179
2.88665
3.03908
3.21107
3.32961
3.53755
3.68237
3.93138
4.10672
4.29367
4.49097
4.69665
4.91024
5.12998
5.37257
5.43819
5.695
5.72612
5.98698
5.98943
1.84804
1.86762
1.90512
1.92155
1.95702
2.01321
2.0892
2.14122
2.21059
2.29967
2.40906
2.53986
2.63802
2.75235
2.8897
3.04054
3.20612
3.3971
3.53385
3.75621
3.91304
4.17829
4.36752
4.56968
4.78772
4.87525
5.09948
5.32476
5.57054
5.61566
5.87035
5.88265
6.14431
1.89067
1.90571
1.94378
1.96117
1.99677
2.05309
2.12942
2.18181
2.25659
2.34194
2.45297
2.58435
2.68216
2.80178
2.99182
3.08673
3.25091
3.44144
3.65409
3.80119
3.95658
4.22698
4.41317
4.61225
4.81978
5.04784
5.12618
5.35218
5.59536
5.63054
5.88328
5.8829
6.14099
1.97364
1.99222
1.99491
2.04858
2.08719
2.14446
2.17873
2.27611
2.34938
2.44164
2.55382
2.63445
2.78771
2.90523
3.03982
3.19244
3.36517
3.55886
3.69046
3.92412
4.08563
4.25775
4.44049
4.63172
4.82965
5.03612
5.2478
5.48
5.52332
5.7535
5.99682
6.00348
5.9687
2.08705
2.1063
2.1095
2.16621
2.2049
2.22315
2.29553
2.35448
2.47176
2.56615
2.63152
2.75916
2.86148
3.03336
3.16955
3.32405
3.49881
3.61712
3.82307
3.96642
4.21407
4.38123
4.55806
4.74213
4.93232
5.13068
5.33929
5.55734
5.5813
5.79891
6.03083
6.01301
5.9515
2.25805
2.23901
2.27586
2.29907
2.33753
2.39691
2.47303
2.52973
2.60128
2.69328
2.80679
2.93706
3.03692
3.2113
3.34586
3.49943
3.67305
3.78325
3.98534
4.21675
4.36399
4.51818
4.67579
4.97779
5.16452
5.36832
5.39931
5.59907
5.81365
5.78168
5.98141
6.19258
6.10595
2.46548
2.48787
2.48943
2.55257
2.59185
2.60378
2.68451
2.78477
2.85592
2.94729
3.06121
3.13715
3.28905
3.40284
3.52887
3.75265
3.83726
4.01742
4.21254
4.43673
4.56551
4.69893
4.9803
5.13716
5.30282
5.46942
5.64709
5.83784
5.79791
5.97649
6.15923
6.04126
6.22933
2.77603
2.79944
2.78971
2.8084
2.89769
2.90315
2.9847
3.08638
3.15205
3.23846
3.34838
3.48241
3.56781
3.74335
3.86329
4.0015
4.15738
4.33164
4.52691
4.61744
4.84935
4.95708
5.22865
5.35714
5.49121
5.62912
5.7618
5.89831
6.03655
6.18195
6.02927
6.17661
5.9547
3.14453
3.16966
3.15846
3.22741
3.25938
3.31493
3.3956
3.42894
3.56049
3.64182
3.74714
3.87775
3.9416
4.12104
4.22713
4.3504
4.48918
4.64356
4.81452
5.00559
5.21872
5.30248
5.37618
5.64236
5.72952
5.8251
5.90538
5.98563
6.05965
6.13206
6.21371
5.93206
6.00559
3.62998
3.65697
3.63074
3.71241
3.73949
3.79232
3.86662
3.88761
4.02053
4.08872
4.18171
4.3002
4.44092
4.50241
4.69711
4.80053
4.91487
5.04399
5.18738
5.35028
5.53508
5.55145
5.76738
5.77184
6.02796
6.04677
6.06789
6.08459
6.08721
6.06782
6.04261
6.0266
5.55238
4.15323
4.17715
4.23716
4.22586
4.24847
4.29336
4.35998
4.46096
4.59513
4.64311
4.71828
4.81963
4.94971
5.1068
5.1526
5.20393
5.4423
5.52875
5.63448
5.75967
5.90477
5.83547
6.00069
6.19687
6.12349
6.03374
6.26943
6.17412
6.06083
5.93778
5.79508
5.64372
4.93832
4.75915
4.78615
4.85294
4.81703
4.95269
4.98676
5.05772
5.01544
5.15556
5.17563
5.22073
5.46174
5.39644
5.52959
5.69147
5.67328
5.89086
5.92236
5.96733
6.02786
6.09638
6.18719
6.30692
6.10704
6.26576
6.06466
5.82259
5.98274
5.69607
5.38873
5.04039
4.6264
4.13
5.31253
5.3552
5.26153
5.37907
5.35549
5.37591
5.42631
5.50929
5.64442
5.61851
5.63314
5.67092
5.73201
5.81422
5.91832
6.07397
5.99249
5.916
6.17414
6.14089
6.13596
6.16429
5.82164
5.86656
5.90711
5.50101
5.55721
5.09179
4.56291
4.51975
3.87605
3.18384
2.37202
5.20158
5.23776
5.32016
5.20573
5.38084
5.3575
5.38672
5.46398
5.33159
5.51319
5.45948
5.44654
5.46115
5.49829
5.56143
5.67359
5.47216
5.67055
5.53341
5.42203
5.33016
5.24484
5.15327
5.04995
4.98058
4.37883
4.31063
3.60425
3.50679
2.77969
1.97961
0.787398
-1.29215
0.690559
0.679614
0.704204
0.720763
0.750083
0.793601
0.832163
0.900521
0.961904
1.01346
1.09793
1.20437
1.2968
1.40173
1.52201
1.62829
1.77501
1.91102
2.09335
2.25557
2.43162
2.62323
2.8318
3.05302
3.23054
3.48029
3.75676
3.9603
4.16651
4.48821
4.71238
4.94103
5.1701
0.680516
0.690278
0.717252
0.733355
0.762758
0.805889
0.839705
0.912113
0.97374
1.0262
1.10926
1.19232
1.30934
1.41847
1.54088
1.64389
1.79673
1.92884
2.11714
2.28008
2.45649
2.64892
2.85385
3.08168
3.26077
3.51354
3.70421
3.99504
4.2018
4.52656
4.754
4.98478
5.21155
0.707014
0.719428
0.721499
0.740743
0.770379
0.810717
0.869789
0.917685
0.978762
1.0543
1.12262
1.22339
1.31632
1.42335
1.54626
1.68531
1.80366
1.97474
2.12268
2.28379
2.45935
2.65028
2.85723
3.07698
3.32125
3.5053
3.78179
3.98175
4.28947
4.51031
4.73526
4.96196
5.18671
0.730642
0.743681
0.752147
0.788158
0.819141
0.843175
0.896091
0.943903
1.01055
1.08449
1.17782
1.25706
1.3537
1.46156
1.58119
1.7216
1.84552
2.0133
2.16218
2.32434
2.50094
2.69256
2.89967
3.12425
3.36341
3.55135
3.82378
4.02307
4.33132
4.54923
4.76926
4.98743
5.37444
0.788574
0.801218
0.803381
0.823872
0.855427
0.898391
0.960584
1.01093
1.0744
1.15264
1.22354
1.32874
1.42558
1.53605
1.66178
1.77177
1.92345
2.06251
2.25033
2.41568
2.5947
2.78867
2.99921
3.22208
3.4688
3.65113
3.93136
4.13271
4.33545
4.66142
4.88031
5.10142
5.32026
0.866024
0.859576
0.881994
0.90494
0.937598
0.980601
1.0232
1.09734
1.16419
1.22053
1.31026
1.39726
1.52178
1.63566
1.76356
1.87405
2.02869
2.16892
2.36013
2.52659
2.70632
2.90071
3.1113
3.33419
3.5807
3.7585
4.03663
4.22965
4.54027
4.75078
4.96285
5.17544
5.38351
0.968801
0.985066
1.01222
1.03218
1.06617
1.11494
1.1553
1.20585
1.27281
1.35588
1.45057
1.53777
1.63539
1.77984
1.87738
2.02136
2.1798
2.31985
2.51327
2.67904
2.8577
3.05081
3.25895
3.4833
3.72155
3.8954
4.16308
4.45269
4.64982
4.83753
5.17227
5.36815
5.55637
1.14195
1.15902
1.18722
1.20667
1.24098
1.29115
1.33269
1.4113
1.48001
1.53586
1.63575
1.75037
1.84935
1.96702
2.09183
2.23953
2.40521
2.53781
2.68783
2.90049
3.07723
3.26685
3.47064
3.68995
3.92138
4.17741
4.34004
4.62451
4.79155
5.10019
5.26855
5.42615
5.77813
1.40458
1.39439
1.42163
1.44449
1.47897
1.53114
1.59505
1.6512
1.71798
1.80224
1.89989
1.98615
2.11897
2.23269
2.36156
2.508
2.67293
2.80389
2.99816
3.15255
3.39127
3.57683
3.77528
3.98286
4.21104
4.45649
4.59176
4.85515
5.13205
5.26641
5.57726
5.71666
5.84779
1.71693
1.73133
1.76809
1.78527
1.81893
1.87043
1.90638
1.98852
2.0549
2.13901
2.24227
2.36477
2.45824
2.56675
2.74737
2.89415
3.0538
3.17477
3.37277
3.51482
3.74806
3.92103
4.11073
4.30572
4.506
4.72219
4.94943
5.18457
5.44383
5.5298
5.81148
5.88869
5.93711
2.14427
2.16493
2.20029
2.2198
2.25292
2.30628
2.37392
2.42343
2.48616
2.61531
2.71924
2.79084
2.92687
3.03384
3.2147
3.35538
3.51379
3.69108
3.79995
4.0101
4.24016
4.39729
4.55697
4.72052
5.02868
5.22294
5.43028
5.47261
5.69016
5.91549
5.9105
6.14992
6.101
2.7286
2.70079
2.74363
2.75509
2.83908
2.8934
2.91414
3.00503
3.06759
3.14594
3.24482
3.3641
3.50145
3.66922
3.77936
3.90615
4.04952
4.20983
4.38732
4.58563
4.8053
4.92508
5.04104
5.31837
5.45495
5.59702
5.74206
5.89035
6.03813
6.20675
6.08551
6.24295
6.40911
3.38012
3.40455
3.44963
3.45647
3.48273
3.53392
3.61083
3.70946
3.7605
3.82842
4.00604
4.12561
4.17479
4.33554
4.42039
4.63072
4.75007
4.88688
5.04234
5.21917
5.4228
5.46985
5.71399
5.7769
5.83019
6.11916
6.17792
6.23386
6.2909
6.35422
6.43203
6.13109
6.19932
4.12154
4.05359
4.11386
4.09782
4.21744
4.2613
4.33258
4.32929
4.46619
4.51426
4.58833
4.68677
4.80882
4.95685
5.1308
5.18391
5.2469
5.50722
5.61321
5.75258
5.69395
5.86169
6.05587
5.98876
6.21941
6.15411
6.06679
6.32951
6.24901
6.20245
5.71539
5.63223
5.48747
4.2736
4.30468
4.36693
4.32888
4.3178
4.49329
4.40101
4.49418
4.61714
4.61188
4.80881
4.8686
4.96793
4.89566
5.04387
5.2203
5.20305
5.19913
5.47047
5.51596
5.60617
5.40097
5.50602
5.63685
5.40067
5.57523
5.32051
5.51857
5.28649
5.06998
4.84021
4.56342
4.22451
-0.0923381
-0.0833497
-0.075524
-0.0520404
-0.041634
-0.013495
0.0312446
0.0688677
0.114446
0.153455
0.221713
0.284343
0.355393
0.422912
0.512943
0.605741
0.72419
0.838264
0.964167
1.10469
1.25496
1.39881
1.57898
1.74596
1.96678
2.1653
2.37294
2.6017
2.90319
3.10957
3.38268
3.67991
3.99398
-0.0847063
-0.0760042
-0.0739394
-0.0584093
-0.0365062
-0.0087268
0.0211521
0.0563199
0.102943
0.156353
0.213212
0.289099
0.348234
0.431895
0.525315
0.615204
0.739529
0.854271
0.981605
1.11727
1.24715
1.41071
1.59814
1.76674
1.98442
2.18426
2.39794
2.62688
2.87227
3.12931
3.40947
3.70383
4.02587
-0.0675186
-0.0698381
-0.0559377
-0.0427702
-0.0198847
0.0134999
0.0391966
0.074673
0.122976
0.182589
0.234038
0.295861
0.369785
0.455418
0.537432
0.643077
0.745088
0.8586
0.985536
1.12686
1.27907
1.45148
1.60542
1.80927
1.99244
2.18933
2.44698
2.68064
2.92533
3.19363
3.47692
3.70288
4.01454
-0.0523803
-0.0435809
-0.0411181
-0.0292582
-0.00616867
0.0270887
0.0531504
0.0939137
0.138796
0.199412
0.252288
0.319604
0.390574
0.477768
0.561039
0.668287
0.771489
0.886366
1.01465
1.15721
1.3152
1.48403
1.6434
1.84368
2.0279
2.26725
2.48543
2.7185
2.9632
3.23107
3.51868
3.82237
4.05092
-0.0204755
-0.0235027
-0.00838205
0.00633187
0.0314245
0.0667429
0.0946441
0.132388
0.181604
0.229066
0.297137
0.364043
0.441696
0.53119
0.611574
0.726044
0.831281
0.947891
1.07806
1.22308
1.37851
1.52567
1.71115
1.91657
2.1079
2.30736
2.52209
2.8015
3.05637
3.32917
3.53919
3.83881
4.15149
0.028798
0.0257889
0.0415589
0.0611798
0.080977
0.104367
0.146814
0.189355
0.241141
0.290261
0.36106
0.429363
0.507551
0.581461
0.67856
0.777457
0.904216
1.02536
1.15891
1.30677
1.46508
1.6133
1.80099
2.01392
2.20137
2.40184
2.66757
2.90553
3.1545
3.42678
3.71357
3.93333
4.24424
0.097496
0.108304
0.114607
0.14302
0.156998
0.193305
0.224108
0.266103
0.320593
0.386666
0.444191
0.51206
0.592782
0.686909
0.789438
0.89087
1.02047
1.14327
1.27858
1.42869
1.58938
1.73843
1.92851
2.14405
2.33261
2.58198
2.8033
3.0386
3.28933
3.55035
3.83212
4.12604
4.44569
0.229323
0.235918
0.244471
0.259573
0.286973
0.326148
0.357223
0.399964
0.455537
0.523413
0.583776
0.673043
0.75724
0.832963
0.940725
1.05957
1.16974
1.29732
1.46206
1.61253
1.78096
1.92985
2.12296
2.34136
2.52941
2.78179
3.00143
3.23383
3.48005
3.73927
4.00689
4.29325
4.58956
0.411257
0.407519
0.426562
0.44753
0.471412
0.512293
0.547763
0.590362
0.647031
0.712563
0.778112
0.8703
0.956697
1.05457
1.16632
1.26865
1.40444
1.52977
1.69884
1.85405
2.02366
2.20972
2.41357
2.58363
2.81597
3.0172
3.28888
3.513
3.74707
4.08483
4.34992
4.63721
4.80077
0.647771
0.66216
0.689249
0.706213
0.735792
0.777978
0.808508
0.851679
0.909573
0.982541
1.06901
1.14374
1.25521
1.36291
1.47414
1.57586
1.72043
1.87863
2.01918
2.17305
2.38564
2.57593
2.73052
2.94755
3.17933
3.43183
3.63532
3.92733
4.15295
4.38853
4.6323
4.87711
5.13116
0.999377
1.01398
1.02222
1.06145
1.09391
1.13883
1.1704
1.24449
1.30621
1.38157
1.44085
1.54555
1.63563
1.77093
1.89209
2.02686
2.14052
2.30273
2.49014
2.64433
2.81216
2.99469
3.25574
3.47676
3.63299
3.88236
4.1489
4.33931
4.6428
4.84417
5.04271
5.39882
5.60539
1.48366
1.49933
1.5047
1.54916
1.58336
1.63173
1.66686
1.74378
1.80726
1.88652
1.98271
2.09686
2.18673
2.3379
2.46205
2.60167
2.7537
2.92966
3.06698
3.27383
3.43552
3.60943
3.88466
4.08975
4.31612
4.56108
4.70234
4.96416
5.2483
5.40057
5.53497
5.8573
5.98863
2.15215
2.12739
2.16469
2.17944
2.21249
2.26482
2.33693
2.43002
2.49358
2.57502
2.67667
2.79895
2.88335
3.04607
3.16722
3.30466
3.45906
3.63129
3.82244
4.03073
4.17328
4.42588
4.59559
4.77815
4.97089
5.17121
5.37915
5.5964
5.83067
5.8565
6.09486
6.36368
6.37521
2.87706
2.89972
2.8821
2.95152
2.98045
3.03311
3.11058
3.1423
3.26737
3.34349
3.44154
3.56244
3.70223
3.78502
3.97194
4.09483
4.23024
4.38271
4.55355
4.74704
4.96157
5.05297
5.31183
5.42517
5.55111
5.67728
5.8037
5.92606
6.04755
6.16881
6.31708
6.1169
6.27355
3.21792
3.23728
3.28887
3.2779
3.38364
3.42687
3.40107
3.49271
3.6192
3.66411
3.734
3.82887
3.94952
4.09984
4.1329
4.33606
4.40955
4.49695
4.78574
4.73354
4.88397
5.05225
5.24397
5.21423
5.46398
5.45858
5.46716
5.46535
5.45735
5.4408
5.41256
5.39325
5.40261
-0.5534
-0.546883
-0.546974
-0.539579
-0.523077
-0.498103
-0.479226
-0.455054
-0.431225
-0.393376
-0.354798
-0.310196
-0.266701
-0.208604
-0.149876
-0.0823192
-0.00447623
0.0794113
0.165454
0.271229
0.376852
0.510517
0.642708
0.787527
0.948286
1.12181
1.31955
1.53296
1.73515
1.98941
2.22843
2.48404
2.81092
-0.550433
-0.552482
-0.543499
-0.534706
-0.519939
-0.504387
-0.477975
-0.461054
-0.433191
-0.398988
-0.352394
-0.315618
-0.266879
-0.212521
-0.142062
-0.0722784
0.00526371
0.0764748
0.175254
0.283428
0.388775
0.506329
0.655218
0.803109
0.961066
1.14086
1.33458
1.52388
1.75519
1.97494
2.2516
2.50905
2.78399
-0.552455
-0.547859
-0.531095
-0.522646
-0.516593
-0.499111
-0.476087
-0.453266
-0.417775
-0.388438
-0.35089
-0.303273
-0.246318
-0.196413
-0.139114
-0.0715124
0.00718557
0.0972275
0.194528
0.289503
0.414791
0.534059
0.665698
0.80749
0.969983
1.14483
1.3432
1.55669
1.75925
2.0137
2.25359
2.55815
2.83926
-0.534151
-0.535881
-0.525357
-0.515188
-0.499634
-0.486348
-0.469107
-0.441489
-0.409325
-0.374327
-0.335998
-0.291487
-0.233552
-0.182415
-0.123955
-0.054911
0.0253705
0.116611
0.214645
0.315065
0.436949
0.557604
0.690541
0.83367
0.997306
1.17841
1.37296
1.58787
1.82502
2.05321
2.3365
2.59572
2.87735
-0.518145
-0.520071
-0.50845
-0.496853
-0.479651
-0.469098
-0.445943
-0.421104
-0.382617
-0.350455
-0.310587
-0.262386
-0.214933
-0.152295
-0.0901252
-0.0186024
0.0632018
0.155794
0.242008
0.35229
0.462549
0.60592
0.738315
0.88872
1.05497
1.23402
1.43718
1.6561
1.86237
2.1224
2.36618
2.67725
2.96237
-0.489613
-0.485634
-0.478858
-0.468
-0.453594
-0.436847
-0.416188
-0.38591
-0.350347
-0.312414
-0.270552
-0.2244
-0.174945
-0.110211
-0.0459581
0.0272469
0.111843
0.208188
0.311655
0.412251
0.544692
0.670223
0.808297
0.956732
1.1263
1.30833
1.51412
1.73615
1.98123
2.20958
2.50097
2.76938
3.05417
-0.452377
-0.444236
-0.441377
-0.43021
-0.409262
-0.379616
-0.355402
-0.32378
-0.29676
-0.251089
-0.207229
-0.166661
-0.105392
-0.0360764
0.0309868
0.106298
0.192702
0.289936
0.380258
0.501682
0.634617
0.763146
0.904274
1.06167
1.256
1.45078
1.62771
1.85632
2.10407
2.33282
2.62454
2.88917
3.23433
-0.360434
-0.366241
-0.349649
-0.336576
-0.320403
-0.30155
-0.278744
-0.245431
-0.203029
-0.166681
-0.122031
-0.0673997
-0.00304004
0.0557394
0.136268
0.215257
0.303913
0.404675
0.518754
0.641533
0.760224
0.910663
1.06151
1.21787
1.42302
1.62281
1.8349
2.03488
2.28431
2.55914
2.80643
3.12861
3.41269
-0.254225
-0.243661
-0.227579
-0.215312
-0.205371
-0.176544
-0.152027
-0.11766
-0.0734002
-0.0341405
0.0258201
0.0841742
0.151121
0.214601
0.297842
0.380239
0.48987
0.597072
0.71498
0.822185
0.966339
1.12423
1.27484
1.46647
1.64962
1.84892
2.06668
2.299
2.55814
2.83677
3.07988
3.40253
3.67603
-0.0668127
-0.0611423
-0.0535798
-0.0415096
-0.018742
0.00996043
0.0404529
0.0757747
0.123274
0.176981
0.231998
0.291884
0.362879
0.445816
0.537591
0.641928
0.745183
0.853974
0.976581
1.10877
1.26166
1.42738
1.61543
1.78495
1.96922
2.20882
2.43081
2.66554
2.92575
3.20315
3.51028
3.7565
4.09959
0.190205
0.200784
0.209259
0.237786
0.26356
0.281001
0.327376
0.367476
0.419263
0.482897
0.537715
0.619955
0.698451
0.788833
0.891886
0.988312
1.11281
1.23091
1.38763
1.5348
1.69632
1.87539
2.06803
2.24461
2.47297
2.67673
2.95032
3.19096
3.44772
3.72283
4.0123
4.32836
4.54805
0.591481
0.603743
0.610448
0.625645
0.653609
0.695142
0.74551
0.794679
0.851502
0.917797
1.00183
1.07889
1.18659
1.28704
1.40144
1.53007
1.64066
1.7999
1.94034
2.13115
2.30293
2.49007
2.69552
2.92047
3.10202
3.36382
3.57313
3.87338
4.11271
4.36342
4.62514
4.89572
5.17568
1.16704
1.18218
1.1847
1.2304
1.26327
1.31035
1.34328
1.42204
1.48599
1.56449
1.65969
1.76706
1.86273
1.96875
2.12952
2.27185
2.38629
2.55882
2.74775
2.90849
3.07719
3.32524
3.53082
3.75359
3.99569
4.16207
4.42716
4.71946
4.89988
5.2253
5.42223
5.62533
5.81612
1.90398
1.92265
1.91779
1.96974
2.00802
2.05943
2.08504
2.17558
2.23917
2.32032
2.4198
2.53835
2.67699
2.77645
2.9526
3.08954
3.244
3.41835
3.6147
3.74546
3.97567
4.12931
4.29655
4.59189
4.7885
5.00159
5.22801
5.2947
5.53511
5.78581
5.82382
6.10338
6.11603
2.3789
2.40078
2.37911
2.4467
2.47011
2.51694
2.58791
2.60921
2.72633
2.79058
2.87581
2.98335
3.11479
3.17447
3.35207
3.44902
3.56189
3.81279
3.84466
4.01464
4.20247
4.41039
4.47749
4.73614
4.82982
4.9359
5.04823
5.16222
5.27654
5.39653
5.53303
5.32258
5.45105
-0.806869
-0.809404
-0.803042
-0.796832
-0.786558
-0.782012
-0.770465
-0.751833
-0.739167
-0.719194
-0.6928
-0.671958
-0.640828
-0.610399
-0.567492
-0.521209
-0.470998
-0.408097
-0.344689
-0.276894
-0.194058
-0.103516
-0.000610822
0.107881
0.238452
0.368734
0.536596
0.707489
0.896793
1.10302
1.33778
1.59319
1.84016
-0.803741
-0.806594
-0.800071
-0.79573
-0.793025
-0.780927
-0.767301
-0.74805
-0.734604
-0.716184
-0.697509
-0.66949
-0.640456
-0.60475
-0.561042
-0.514086
-0.469157
-0.411309
-0.34279
-0.268197
-0.184444
-0.0938713
-0.00272413
0.113482
0.247079
0.381974
0.533567
0.722129
0.909873
1.12317
1.35452
1.58433
1.86195
-0.808747
-0.807615
-0.803175
-0.798075
-0.791155
-0.780858
-0.768178
-0.749176
-0.735739
-0.716054
-0.689747
-0.666152
-0.628052
-0.590895
-0.56068
-0.51124
-0.464603
-0.401491
-0.337355
-0.264747
-0.184933
-0.0929859
0.0172755
0.137349
0.258638
0.409843
0.558833
0.729518
0.919482
1.12664
1.36271
1.61909
1.86753
-0.797261
-0.799046
-0.791282
-0.784915
-0.782048
-0.777301
-0.764425
-0.744466
-0.729702
-0.709373
-0.68183
-0.657978
-0.619335
-0.581571
-0.550411
-0.498926
-0.442093
-0.386055
-0.323191
-0.250191
-0.169873
-0.072181
0.034749
0.155772
0.278329
0.430668
0.585884
0.753458
0.945343
1.15378
1.39158
1.6499
1.94101
-0.793914
-0.795249
-0.786126
-0.77859
-0.774727
-0.768732
-0.753961
-0.732198
-0.715792
-0.693239
-0.66861
-0.640746
-0.61107
-0.573671
-0.532462
-0.478858
-0.429481
-0.363064
-0.296222
-0.224803
-0.137632
-0.0424328
0.0707652
0.180297
0.316632
0.457539
0.62723
0.804629
1.00037
1.21305
1.45466
1.71767
1.9714
-0.787676
-0.780798
-0.778556
-0.769939
-0.754962
-0.74562
-0.731062
-0.721738
-0.705865
-0.682003
-0.650755
-0.623864
-0.583247
-0.550904
-0.508544
-0.452778
-0.401418
-0.332754
-0.263706
-0.18581
-0.100606
0.00223832
0.114827
0.242012
0.370537
0.530437
0.692183
0.866442
1.06554
1.28178
1.52726
1.79383
2.09342
-0.75695
-0.749223
-0.747426
-0.739896
-0.73777
-0.724837
-0.707792
-0.687707
-0.66858
-0.642813
-0.610372
-0.584118
-0.55057
-0.509129
-0.463217
-0.404841
-0.351481
-0.280365
-0.209141
-0.127677
-0.0391026
0.066854
0.182183
0.312908
0.445183
0.608997
0.776105
0.983451
1.18792
1.41785
1.66627
1.90907
2.20386
-0.708334
-0.715751
-0.71132
-0.702519
-0.690212
-0.679222
-0.661454
-0.636163
-0.616557
-0.590457
-0.557136
-0.52857
-0.484251
-0.439758
-0.387988
-0.32803
-0.272943
-0.198863
-0.123059
-0.0256971
0.0728502
0.179129
0.304719
0.440936
0.577245
0.746949
0.918363
1.13178
1.3408
1.57545
1.83395
2.11353
2.37563
-0.644784
-0.642319
-0.636451
-0.627131
-0.614103
-0.598471
-0.580445
-0.559024
-0.533313
-0.495404
-0.45832
-0.429033
-0.379242
-0.333888
-0.280251
-0.216722
-0.146832
-0.0617361
0.0305334
0.121333
0.224235
0.351691
0.485466
0.628428
0.773648
0.95028
1.15024
1.34701
1.5637
1.83054
2.09758
2.38803
2.64878
-0.529491
-0.521741
-0.520202
-0.510715
-0.492421
-0.478803
-0.45013
-0.431087
-0.39614
-0.363273
-0.312681
-0.26416
-0.218415
-0.158252
-0.0972526
-0.014375
0.0665349
0.144268
0.241358
0.35268
0.463679
0.604985
0.745874
0.901461
1.06966
1.26254
1.47231
1.67448
1.9334
2.17774
2.44286
2.72508
3.03353
-0.338051
-0.329546
-0.3278
-0.317106
-0.296478
-0.266751
-0.242887
-0.210657
-0.167723
-0.118761
-0.0729539
-0.0187
0.0460236
0.121217
0.19007
0.28802
0.37909
0.48074
0.591021
0.720132
0.844607
0.998041
1.14886
1.33973
1.52519
1.72805
1.95202
2.19311
2.42075
2.70665
2.96628
3.30496
3.60453
-0.00898512
0.00183405
0.00713706
0.037528
0.0486392
0.0773199
0.122971
0.162225
0.212149
0.268782
0.324633
0.385992
0.460211
0.547726
0.648499
0.757509
0.865495
1.00214
1.13305
1.27764
1.43706
1.58469
1.77211
1.9862
2.17812
2.38599
2.65944
2.9109
3.18248
3.40262
3.70968
4.03682
4.29693
0.520524
0.530373
0.556945
0.573151
0.600902
0.641816
0.67408
0.743152
0.802523
0.872516
0.930149
1.02677
1.11273
1.21184
1.32597
1.4559
1.59707
1.72867
1.90223
2.05866
2.22934
2.41656
2.6219
2.84673
3.08718
3.29029
3.57105
3.79813
4.03509
4.38478
4.6596
4.95236
5.11374
1.21591
1.23213
1.23168
1.24683
1.28276
1.32541
1.38891
1.43593
1.5346
1.6144
1.70871
1.7798
1.90775
2.01136
2.13109
2.26682
2.42004
2.59164
2.77827
2.92446
3.15588
3.3341
3.5261
3.73224
3.95373
4.18642
4.44344
4.7187
4.87686
5.19146
5.35691
5.51562
5.65434
1.71781
1.69291
1.73069
1.73919
1.76587
1.81158
1.87721
1.95824
2.01453
2.08358
2.17112
2.27731
2.39968
2.48242
2.64661
2.76117
2.89285
3.04259
3.21203
3.40367
3.50157
3.72592
3.84945
4.11927
4.26887
4.43106
4.60453
4.79178
4.99739
4.98156
5.21069
5.16077
5.39621
-0.92094
-0.928627
-0.92016
-0.917993
-0.919185
-0.918956
-0.910263
-0.900612
-0.898252
-0.884781
-0.874908
-0.863744
-0.842918
-0.828219
-0.813064
-0.787102
-0.753283
-0.715699
-0.670642
-0.62466
-0.566802
-0.501764
-0.430372
-0.342097
-0.243806
-0.124904
0.00723518
0.145139
0.31476
0.491874
0.690081
0.911411
1.15805
-0.921805
-0.924608
-0.920495
-0.918586
-0.919582
-0.918665
-0.910983
-0.907202
-0.898409
-0.88312
-0.872807
-0.862208
-0.84822
-0.827495
-0.810324
-0.783319
-0.753531
-0.711639
-0.66626
-0.624109
-0.560992
-0.494931
-0.423213
-0.334011
-0.234542
-0.118853
0.0196676
0.157317
0.312875
0.505142
0.704976
0.927278
1.17494
-0.925455
-0.925787
-0.923846
-0.921259
-0.91309
-0.909782
-0.901163
-0.898399
-0.890994
-0.888396
-0.880301
-0.865068
-0.84778
-0.830413
-0.801174
-0.771665
-0.740762
-0.703038
-0.6656
-0.612365
-0.555721
-0.484048
-0.404577
-0.318147
-0.213544
-0.109596
0.0221169
0.175207
0.333455
0.511459
0.731815
0.959647
1.21152
-0.929437
-0.925206
-0.922286
-0.91848
-0.91312
-0.904263
-0.899261
-0.891008
-0.887663
-0.880905
-0.872672
-0.857244
-0.839969
-0.822866
-0.793539
-0.763718
-0.732659
-0.694784
-0.656827
-0.602729
-0.545236
-0.473156
-0.392631
-0.304747
-0.198918
-0.0928428
0.0399474
0.193943
0.358196
0.538507
0.760155
0.990058
1.23879
-0.922051
-0.923038
-0.916742
-0.911236
-0.912684
-0.903906
-0.896899
-0.890316
-0.87946
-0.870895
-0.861414
-0.849608
-0.827241
-0.810994
-0.789632
-0.765497
-0.72943
-0.689409
-0.640867
-0.582942
-0.524606
-0.459562
-0.368574
-0.278228
-0.185565
-0.0633007
0.0747517
0.233861
0.397126
0.579126
0.78501
1.0379
1.29787
-0.922615
-0.916352
-0.915075
-0.909643
-0.909254
-0.90389
-0.903143
-0.896838
-0.884382
-0.877296
-0.864636
-0.845955
-0.825266
-0.8053
-0.772643
-0.739629
-0.705313
-0.66363
-0.621956
-0.563884
-0.501751
-0.425049
-0.339638
-0.246209
-0.133201
-0.00760993
0.121315
0.281064
0.452095
0.639738
0.870079
1.10795
1.36557
-0.914006
-0.911167
-0.904542
-0.902171
-0.896222
-0.89398
-0.887927
-0.88006
-0.870807
-0.858418
-0.845229
-0.82975
-0.807989
-0.786329
-0.751432
-0.716289
-0.679093
-0.634949
-0.59071
-0.528993
-0.454428
-0.378253
-0.295125
-0.194088
-0.0818131
0.0483851
0.202094
0.356485
0.546137
0.741474