/*--------------------------------*- C++ -*----------------------------------*\
| =========                 |                                                 |
| \\      /  F ield         | OpenFOAM: The Open Source CFD Toolbox           |
|  \\    /   O peration     | Version:  2412                                  |
|   \\  /    A nd           | Website:  www.openfoam.com                      |
|    \\/     M anipulation  |                                                 |
\*---------------------------------------------------------------------------*/
FoamFile
{
    version     2.0;
    format      ascii;
    arch        "LSB;label=32;scalar=64";
    class       volScalarField;
    location    "0.0199794";
    object      Vm;
}
// * * * * * * * * * * * * * * * * * * * * * * * * * * * * * * * * * * * * * //

dimensions      [0 0 0 0 0 0 0];

internalField   nonuniform List<scalar> 
8679
(
1.24558
1.24649
1.24729
1.24845
1.25057
1.25323
1.25648
1.26059
1.26452
1.26906
1.27349
1.27881
1.28474
1.29153
1.29792
1.30455
1.31223
1.32042
1.32879
1.33732
1.3459
1.35435
1.36244
1.37012
1.37765
1.38271
1.38619
1.38626
1.38124
1.37662
1.37778
1.3836
1.38683
1.2469
1.24726
1.24812
1.24987
1.25204
1.25425
1.25771
1.26118
1.26496
1.26973
1.27496
1.28049
1.28625
1.29222
1.29852
1.30569
1.31265
1.3206
1.32893
1.33739
1.34603
1.35459
1.36302
1.37161
1.37835
1.38395
1.38617
1.38577
1.38161
1.37593
1.37712
1.38296
1.38587
1.24772
1.2482
1.24951
1.25088
1.25304
1.25565
1.25864
1.26207
1.26628
1.27042
1.27548
1.281
1.28682
1.29301
1.30008
1.30694
1.31476
1.32293
1.33103
1.33881
1.34826
1.35695
1.36499
1.37244
1.3796
1.38407
1.38673
1.38571
1.37981
1.37637
1.37922
1.38533
1.38707
1.16889
1.16934
1.17034
1.17151
1.17328
1.17551
1.1782
1.18154
1.18505
1.18919
1.19375
1.19867
1.20399
1.20978
1.21627
1.2229
1.23035
1.23833
1.24667
1.25535
1.26449
1.27438
1.28408
1.29437
1.30436
1.31506
1.32606
1.33709
1.34803
1.35896
1.36961
1.3794
1.38765
1.16926
1.16966
1.17065
1.17184
1.17363
1.17583
1.17851
1.18179
1.18526
1.18939
1.19402
1.19906
1.20456
1.21074
1.21705
1.22394
1.23091
1.2387
1.24703
1.25588
1.26553
1.27497
1.28461
1.29512
1.30568
1.31568
1.32634
1.33722
1.34812
1.35896
1.36956
1.37931
1.38769
1.17075
1.17107
1.17185
1.17329
1.17518
1.1774
1.17993
1.18286
1.18642
1.19017
1.19468
1.19983
1.20577
1.21186
1.21854
1.2253
1.23284
1.24088
1.24928
1.25799
1.26721
1.27719
1.28693
1.29724
1.3072
1.31782
1.32861
1.33916
1.34893
1.35981
1.37153
1.38142
1.38924
1.17294
1.17327
1.17404
1.1755
1.17742
1.17966
1.18222
1.18518
1.18878
1.19255
1.1971
1.2023
1.20828
1.21443
1.22116
1.22796
1.23552
1.24358
1.25198
1.26074
1.26999
1.27999
1.2897
1.30001
1.30991
1.3204
1.33087
1.34056
1.35106
1.3619
1.37264
1.38316
1.39072
1.17598
1.17641
1.17743
1.17867
1.18053
1.18282
1.18556
1.1889
1.19244
1.19665
1.20139
1.20655
1.21221
1.21857
1.22503
1.23208
1.23915
1.24701
1.25543
1.26438
1.2741
1.28349
1.29306
1.30353
1.31403
1.32387
1.33441
1.34521
1.35611
1.36677
1.37673
1.3853
1.39162
1.11503
1.11547
1.11611
1.1171
1.11836
1.11986
1.12162
1.12372
1.12631
1.12931
1.13267
1.13642
1.14068
1.14523
1.15035
1.15591
1.16187
1.16823
1.17501
1.1823
1.19035
1.19867
1.20764
1.21682
1.22676
1.23729
1.2483
1.25971
1.27149
1.28366
1.29664
1.30928
1.32239
1.11553
1.11578
1.11633
1.11729
1.11855
1.12009
1.12193
1.12418
1.12664
1.12958
1.13291
1.13664
1.14091
1.14546
1.15055
1.15611
1.16206
1.16843
1.17523
1.18256
1.19066
1.19906
1.20826
1.21797
1.228
1.238
1.24886
1.26042
1.27286
1.28504
1.29723
1.30954
1.3225
1.11614
1.11644
1.11715
1.11811
1.11924
1.12079
1.12279
1.12502
1.12769
1.13068
1.13402
1.13769
1.14178
1.1464
1.1513
1.15679
1.16281
1.16938
1.17661
1.18405
1.19194
1.20066
1.20984
1.21917
1.22927
1.23991
1.25098
1.26237
1.27409
1.28624
1.29914
1.31151
1.32375
1.11758
1.11785
1.1185
1.11936
1.12062
1.12225
1.12431
1.12659
1.1293
1.13234
1.13571
1.13944
1.14358
1.14826
1.1532
1.15877
1.16486
1.17149
1.17879
1.18629
1.19421
1.20286
1.21177
1.22149
1.23176
1.24252
1.25364
1.26503
1.27671
1.28868
1.30097
1.31399
1.32642
1.11998
1.12023
1.12077
1.12175
1.12307
1.12469
1.12662
1.12898
1.13155
1.13461
1.13807
1.14197
1.1464
1.15112
1.15642
1.16219
1.16833
1.17491
1.18193
1.18949
1.19783
1.20643
1.21578
1.22557
1.23536
1.2459
1.257
1.26854
1.28055
1.2933
1.30562
1.3179
1.33071
1.12329
1.12355
1.12411
1.12513
1.12649
1.12816
1.13017
1.1326
1.13526
1.13839
1.14202
1.14619
1.15056
1.15531
1.16072
1.16665
1.17297
1.17965
1.18677
1.19447
1.20293
1.21161
1.22108
1.23097
1.24083
1.25145
1.26261
1.27413
1.28594
1.29807
1.31083
1.32296
1.33489
1.12836
1.12868
1.12942
1.13038
1.13177
1.13349
1.13557
1.13817
1.14108
1.14417
1.14784
1.15211
1.1566
1.16149
1.16706
1.17315
1.17965
1.1865
1.19377
1.20158
1.21022
1.21903
1.22849
1.23809
1.2485
1.25946
1.27076
1.28227
1.29399
1.30586
1.31787
1.33042
1.34215
1.13549
1.13602
1.13678
1.13799
1.13955
1.14139
1.14352
1.14602
1.14909
1.15253
1.15637
1.1606
1.16527
1.17054
1.17606
1.18224
1.18889
1.19593
1.20334
1.21117
1.21957
1.2288
1.23817
1.24837
1.25905
1.26991
1.2805
1.29187
1.30375
1.31634
1.32816
1.33964
1.35101
1.14559
1.146
1.14688
1.14793
1.14951
1.15155
1.15411
1.15687
1.16004
1.16339
1.16731
1.17176
1.17685
1.18212
1.18776
1.19417
1.20106
1.20837
1.21605
1.22412
1.2327
1.2421
1.25155
1.2617
1.27183
1.28273
1.29394
1.30537
1.31686
1.32827
1.33949
1.35049
1.36153
1.15955
1.16013
1.1609
1.16212
1.1635
1.16544
1.16784
1.17083
1.17403
1.17786
1.18214
1.18678
1.19179
1.19726
1.20353
1.21021
1.21692
1.22433
1.23218
1.24046
1.24926
1.25884
1.2682
1.27784
1.28838
1.2991
1.30936
1.32023
1.33127
1.34222
1.353
1.3637
1.37435
1.17759
1.1779
1.17862
1.18001
1.18182
1.18397
1.18643
1.18925
1.1925
1.19652
1.20101
1.20589
1.21113
1.21685
1.22334
1.22996
1.23725
1.24484
1.25235
1.26074
1.27011
1.27931
1.28852
1.29797
1.30813
1.31798
1.32856
1.33932
1.3499
1.36018
1.36967
1.38045
1.38949
1.19939
1.19981
1.20089
1.20213
1.204
1.20629
1.20892
1.21197
1.21574
1.21968
1.22434
1.22943
1.2349
1.2409
1.24771
1.25447
1.26181
1.26908
1.27711
1.28553
1.29423
1.30309
1.31218
1.32198
1.33115
1.34025
1.35013
1.36004
1.36898
1.37853
1.38751
1.39505
1.40013
1.22688
1.22741
1.22865
1.22994
1.23197
1.23445
1.23722
1.2403
1.24387
1.24836
1.25317
1.25792
1.26362
1.27026
1.2767
1.28335
1.29078
1.29798
1.30602
1.31432
1.32273
1.33117
1.33958
1.34798
1.35646
1.36576
1.37427
1.383
1.39023
1.39702
1.40209
1.40407
1.40119
1.25884
1.25936
1.26074
1.2621
1.26424
1.26681
1.26972
1.27294
1.27657
1.28109
1.28554
1.29079
1.2965
1.30244
1.30854
1.31498
1.32233
1.32925
1.33691
1.34459
1.35156
1.35937
1.36765
1.37671
1.38461
1.39186
1.39893
1.4036
1.40678
1.4056
1.4014
1.39546
1.39249
1.28733
1.28758
1.28828
1.28988
1.29135
1.29377
1.29666
1.29988
1.30358
1.30826
1.31271
1.31812
1.3239
1.32977
1.33572
1.34193
1.34907
1.35563
1.36294
1.36963
1.37733
1.38525
1.3929
1.39987
1.4057
1.40997
1.41253
1.41018
1.40502
1.39918
1.39961
1.39954
1.38489
1.0844
1.08457
1.08494
1.0854
1.08608
1.08695
1.08807
1.08933
1.09087
1.09269
1.09477
1.09719
1.09984
1.10285
1.10621
1.1099
1.11392
1.11834
1.12328
1.1286
1.13456
1.14106
1.14807
1.15556
1.16355
1.17204
1.18109
1.19079
1.20136
1.21219
1.22362
1.23604
1.24899
1.08457
1.08473
1.08512
1.08566
1.08632
1.08725
1.08835
1.08967
1.09116
1.09297
1.09513
1.09751
1.10019
1.1031
1.10642
1.1101
1.11419
1.11876
1.12365
1.12906
1.13483
1.14124
1.14823
1.15575
1.16377
1.17229
1.18137
1.19111
1.20177
1.21276
1.22454
1.23661
1.24957
1.08509
1.08522
1.08552
1.08606
1.08676
1.08765
1.08875
1.09014
1.09177
1.09361
1.09568
1.09802
1.10076
1.10384
1.10722
1.11095
1.11504
1.11953
1.12455
1.1299
1.13576
1.14201
1.14893
1.15646
1.16466
1.17364
1.18294
1.19269
1.20304
1.21429
1.22589
1.23822
1.25077
1.08586
1.08599
1.08629
1.08682
1.08754
1.08846
1.08959
1.09102
1.09267
1.09455
1.09665
1.09903
1.1018
1.10489
1.10824
1.11212
1.11629
1.12082
1.1258
1.13136
1.13737
1.14371
1.15071
1.15832
1.16653
1.1754
1.18503
1.19498
1.20545
1.21677
1.2284
1.24086
1.25349
1.08696
1.08711
1.08748
1.08797
1.0887
1.08966
1.09087
1.09224
1.09389
1.09581
1.09801
1.10056
1.10336
1.10653
1.11007
1.11396
1.11819
1.12284
1.12804
1.13362
1.13985
1.14662
1.15391
1.1617
1.16996
1.17877
1.18814
1.19816
1.20903
1.22015
1.23178
1.24441
1.25755
1.08876
1.08894
1.08933
1.08988
1.0907
1.0918
1.09306
1.09454
1.0962
1.09821
1.1006
1.10321
1.10613
1.10928
1.11288
1.1169
1.12134
1.12631
1.1316
1.13743
1.14365
1.15053
1.15796
1.16589
1.1743
1.18326
1.1928
1.20298
1.214
1.22525
1.23703
1.24977
1.26302
1.09172
1.09199
1.09241
1.09306
1.09393
1.09501
1.09633
1.09796
1.09985
1.10197
1.10435
1.10704
1.11008
1.11337
1.11713
1.12131
1.12594
1.13107
1.13648
1.14234
1.14891
1.15601
1.16352
1.17129
1.17984
1.18913
1.19929
1.20973
1.22069
1.23241
1.2442
1.2565
1.26974
1.09613
1.09636
1.09685
1.09752
1.09848
1.09975
1.10114
1.10276
1.10475
1.10704
1.10964
1.11263
1.11588
1.11953
1.12353
1.12783
1.13275
1.13797
1.14355
1.14961
1.15639
1.16369
1.17124
1.17952
1.18842
1.19788
1.20787
1.21848
1.22996
1.24159
1.25359
1.26639
1.27928
1.10252
1.10278
1.10338
1.10417
1.10514
1.10649
1.10802
1.10979
1.11194
1.11439
1.11715
1.12027
1.12383
1.12765
1.13196
1.13669
1.14183
1.14734
1.15331
1.1599
1.16683
1.17441
1.18228
1.19092
1.20017
1.20996
1.22022
1.23091
1.24205
1.25374
1.26631
1.27896
1.29226
1.11189
1.11216
1.11274
1.11348
1.11454
1.11589
1.11755
1.11959
1.12182
1.12448
1.1275
1.13091
1.13481
1.13898
1.1437
1.14886
1.15438
1.16027
1.16653
1.17323
1.18049
1.18858
1.19714
1.20589
1.21542
1.22551
1.23606
1.24699
1.25829
1.26997
1.28215
1.29518
1.308
1.12451
1.12478
1.12543
1.12626
1.12748
1.12902
1.13087
1.13312
1.13558
1.13854
1.14188
1.14557
1.14966
1.1543
1.15924
1.16475
1.17072
1.17707
1.18378
1.19093
1.19864
1.2071
1.21574
1.225
1.23445
1.24473
1.25558
1.26684
1.27836
1.29008
1.30199
1.31427
1.3272
1.14167
1.14194
1.14253
1.14362
1.14504
1.14677
1.14877
1.15106
1.15374
1.15702
1.16073
1.16477
1.1692
1.17409
1.17967
1.18564
1.19171
1.1984
1.20558
1.2132
1.22135
1.23025
1.23917
1.24848
1.25863
1.26916
1.27951
1.29058
1.30199
1.31358
1.32524
1.33701
1.34932
1.16402
1.16431
1.16494
1.16606
1.16737
1.16924
1.17159
1.17452
1.17768
1.18145
1.18556
1.18982
1.19496
1.20029
1.20596
1.21228
1.21878
1.22599
1.23368
1.24177
1.2502
1.25898
1.2682
1.27824
1.28822
1.29898
1.30981
1.3201
1.331
1.34201
1.35293
1.36357
1.37383
1.19137
1.1918
1.19284
1.19403
1.1958
1.19799
1.20055
1.20348
1.20689
1.21116
1.2159
1.221
1.22637
1.23197
1.23788
1.24429
1.25164
1.25931
1.26685
1.27519
1.284
1.2933
1.30339
1.31307
1.32274
1.33312
1.34294
1.35328
1.3634
1.37246
1.3821
1.3916
1.4006
1.2179
1.21816
1.21884
1.22025
1.22172
1.22398
1.22678
1.23012
1.23426
1.23855
1.24364
1.24921
1.25508
1.26116
1.26747
1.27423
1.28193
1.28952
1.29796
1.30683
1.31595
1.32517
1.33436
1.34349
1.35273
1.3627
1.37187
1.38143
1.39013
1.39951
1.40854
1.41618
1.4212
1.07168
1.07179
1.07192
1.07213
1.0724
1.07275
1.0732
1.07374
1.07445
1.07534
1.07634
1.07748
1.07885
1.08045
1.0823
1.08442
1.08676
1.0894
1.09231
1.09563
1.09937
1.10353
1.10813
1.11323
1.11892
1.12502
1.13169
1.13913
1.14724
1.15584
1.16532
1.17563
1.18668
1.07182
1.07188
1.07199
1.0722
1.07249
1.07285
1.07333
1.07388
1.0746
1.0755
1.07653
1.07771
1.07903
1.08059
1.08241
1.08453
1.08686
1.08952
1.09243
1.09577
1.0995
1.10364
1.10824
1.11335
1.11906
1.12526
1.13209
1.13942
1.14748
1.15609
1.1656
1.17591
1.18698
1.07194
1.07201
1.07218
1.07242
1.07272
1.07309
1.07355
1.07416
1.0749
1.07578
1.07684
1.07803
1.07944
1.08106
1.0829
1.08499
1.08739
1.09006
1.09311
1.09653
1.10031
1.10448
1.10908
1.11418
1.11983
1.12616
1.13296
1.14045
1.14849
1.15741
1.16713
1.1776
1.18876
1.07223
1.07229
1.07244
1.07264
1.07295
1.07338
1.0739
1.07454
1.0753
1.07619
1.07723
1.07849
1.07996
1.08164
1.08354
1.08569
1.08816
1.09089
1.09401
1.09751
1.10138
1.10563
1.1103
1.11546
1.12118
1.12759
1.13452
1.14215
1.15031
1.15933
1.16912
1.17958
1.19061
1.07262
1.07271
1.0729
1.07315
1.07347
1.07387
1.07436
1.07501
1.0758
1.07675
1.07788
1.07916
1.08066
1.0824
1.08439
1.08668
1.08921
1.09205
1.09519
1.09874
1.10271
1.10709
1.1119
1.11718
1.12301
1.12954
1.13659
1.14441
1.15289
1.16188
1.17177
1.18246
1.19386
1.07345
1.07356
1.07373
1.07399
1.07435
1.07482
1.0754
1.07608
1.07693
1.07799
1.07918
1.08055
1.08207
1.08385
1.08592
1.08831
1.09095
1.09392
1.09718
1.10087
1.10499
1.10953
1.1145
1.11995
1.12595
1.13266
1.13985
1.14779
1.15631
1.16569
1.17586
1.1868
1.19845
1.07483
1.07489
1.07505
1.07534
1.07574
1.07627
1.07696
1.07779
1.07876
1.07986
1.08113
1.08262
1.08431
1.08619
1.08842
1.09089
1.09365
1.09679
1.10023
1.10412
1.10846
1.11323
1.11842
1.12408
1.13033
1.13728
1.14472
1.15276
1.16165
1.17122
1.18124
1.19218
1.20393
1.07691
1.07699
1.07717
1.07751
1.07798
1.07857
1.07932
1.08019
1.08126
1.08255
1.08397
1.08558
1.08747
1.0896
1.092
1.09466
1.09766
1.10108
1.10484
1.10891
1.11348
1.11853
1.12403
1.13002
1.13656
1.14372
1.15165
1.16007
1.16928
1.17897
1.18951
1.20073
1.21233
1.08014
1.08031
1.08057
1.08098
1.08152
1.0822
1.08303
1.08408
1.08531
1.08672
1.08833
1.0902
1.09227
1.09464
1.0973
1.10027
1.10358
1.10731
1.11134
1.11582
1.12062
1.12601
1.13192
1.13836
1.14534
1.15292
1.16125
1.16996
1.17926
1.18944
1.20015
1.21184
1.22431
1.08529
1.0854
1.08565
1.08612
1.08677
1.0876
1.08864
1.08984
1.09126
1.09287
1.0947
1.09678
1.09921
1.10191
1.1048
1.10811
1.11184
1.11603
1.12052
1.12549
1.13081
1.13676
1.14324
1.15022
1.1577
1.1657
1.17425
1.18336
1.19313
1.20383
1.21498
1.22707
1.2397
1.09289
1.09302
1.09332
1.09387
1.09463
1.09559
1.09679
1.09826
1.09994
1.10176
1.10392
1.10643
1.10916
1.11223
1.11554
1.11931
1.12349
1.1281
1.13321
1.13859
1.14444
1.15097
1.15803
1.16551
1.17327
1.18181
1.19109
1.20124
1.21167
1.22265
1.23448
1.24652
1.25935
1.10394
1.10422
1.10463
1.10529
1.10611
1.10726
1.10876
1.11046
1.1125
1.11481
1.11737
1.12019
1.1233
1.12677
1.13078
1.13521
1.14
1.14517
1.15071
1.15668
1.16319
1.17047
1.17823
1.18625
1.19501
1.20436
1.21422
1.22458
1.23545
1.2469
1.25922
1.27149
1.28414
1.1199
1.12013
1.12061
1.12148
1.12262
1.12402
1.1257
1.12772
1.13017
1.13293
1.13585
1.13924
1.14318
1.14736
1.152
1.15691
1.16237
1.16828
1.1746
1.18138
1.18872
1.1968
1.20519
1.21436
1.22393
1.23358
1.24396
1.25479
1.26608
1.2778
1.29003
1.30305
1.31582
1.14111
1.1416
1.14228
1.14332
1.14451
1.14618
1.14831
1.15095
1.15381
1.15723
1.16102
1.16514
1.16958
1.17434
1.17954
1.18544
1.19179
1.19825
1.20539
1.21321
1.22189
1.2307
1.23986
1.24975
1.25971
1.27041
1.28137
1.29203
1.30353
1.31558
1.32849
1.34073
1.3526
1.16316
1.16343
1.1641
1.16539
1.16701
1.16885
1.17153
1.1744
1.17761
1.18141
1.18541
1.19013
1.19541
1.2014
1.20741
1.21381
1.22104
1.2286
1.23615
1.24461
1.25378
1.26381
1.27363
1.28368
1.29451
1.30512
1.31632
1.32709
1.33863
1.35041
1.36209
1.37343
1.38433
1.07128
1.07127
1.07125
1.07122
1.07122
1.07119
1.07116
1.07118
1.07126
1.07142
1.07162
1.07191
1.07232
1.07286
1.07351
1.07428
1.07519
1.07631
1.07765
1.07926
1.08117
1.08343
1.08601
1.089
1.09236
1.09626
1.10068
1.10564
1.11113
1.11746
1.12443
1.13212
1.14064
1.07128
1.07127
1.07128
1.07128
1.07128
1.07128
1.0713
1.07136
1.07144
1.07158
1.07178
1.07205
1.07245
1.07294
1.07356
1.07432
1.07522
1.07635
1.07771
1.07935
1.0813
1.08352
1.08607
1.08905
1.09243
1.09635
1.1008
1.10581
1.11142
1.11767
1.12461
1.13231
1.14084
1.07123
1.07125
1.07125
1.07125
1.07125
1.07125
1.07129
1.07136
1.07146
1.0716
1.07184
1.07216
1.07256
1.07308
1.07374
1.07454
1.07552
1.07671
1.07811
1.07974
1.08165
1.08388
1.0865
1.08947
1.09293
1.09686
1.10122
1.10621
1.11185
1.11818
1.12527
1.13325
1.14192
1.07122
1.07122
1.07124
1.07126
1.07128
1.0713
1.07136
1.07144
1.07156
1.07171
1.07197
1.07231
1.07275
1.0733
1.07401
1.07485
1.07589
1.07713
1.07858
1.08027
1.08222
1.08451
1.08718
1.09021
1.09371
1.09764
1.10215
1.10725
1.11298
1.11939
1.12654
1.13451
1.14344
1.07123
1.07126
1.07126
1.07127
1.07128
1.0713
1.07137
1.07147
1.07161
1.07182
1.07209
1.07244
1.07291
1.0735
1.07426
1.07515
1.07624
1.07754
1.07906
1.08084
1.08292
1.08534
1.08808
1.0912
1.09483
1.09898
1.10362
1.10876
1.11462
1.12122
1.1287
1.13683
1.1457
1.07134
1.07137
1.07138
1.0714
1.07145
1.07152
1.07159
1.07171
1.07189
1.07214
1.07245
1.07288
1.07342
1.0741
1.07492
1.07589
1.07702
1.07839
1.08
1.08188
1.08409
1.08666
1.08954
1.0928
1.09659
1.10087
1.1056
1.111
1.11708
1.12388
1.13148
1.13998
1.14916
1.0716
1.07161
1.07163
1.07166
1.07175
1.07185
1.07201
1.0722
1.07244
1.07274
1.07316
1.07368
1.0743
1.07503
1.07593
1.077
1.07826
1.07977
1.08154
1.0836
1.086
1.08878
1.09186
1.09533
1.09931
1.10377
1.10886
1.11459
1.12097
1.12804
1.13579
1.14433
1.15372
1.07192
1.07195
1.07201
1.07211
1.07222
1.07238
1.07261
1.0729
1.07323
1.07364
1.07416
1.07476
1.07553
1.07647
1.07754
1.0788
1.08029
1.082
1.08392
1.08619
1.08882
1.09187
1.09525
1.09905
1.10338
1.10819
1.11368
1.11981
1.12659
1.13403
1.1422
1.15111
1.16085
1.07278
1.07284
1.07291
1.07304
1.07323
1.07347
1.07381
1.07423
1.07472
1.07529
1.07597
1.07674
1.07769
1.07881
1.08012
1.08166
1.0834
1.0854
1.08764
1.09022
1.09316
1.09649
1.10027
1.10458
1.10933
1.11464
1.12047
1.12697
1.1341
1.1418
1.1504
1.15991
1.17045
1.07462
1.07464
1.07471
1.07489
1.07515
1.07551
1.07601
1.07661
1.07728
1.07803
1.0789
1.07994
1.08111
1.08249
1.08411
1.08601
1.08812
1.0905
1.09323
1.09629
1.09964
1.10348
1.10786
1.11263
1.11787
1.12364
1.13008
1.13709
1.14492
1.15353
1.16289
1.17301
1.18387
1.07798
1.07803
1.07819
1.0784
1.07874
1.07922
1.07986
1.08059
1.08148
1.08253
1.08377
1.08514
1.0867
1.08842
1.09042
1.09274
1.0954
1.0983
1.10152
1.10519
1.10925
1.11371
1.11851
1.12392
1.13
1.13655
1.14371
1.15163
1.16011
1.16944
1.17945
1.18989
1.20131
1.08384
1.08395
1.08421
1.08455
1.08506
1.08573
1.0866
1.0876
1.08882
1.09021
1.09178
1.09354
1.09558
1.09781
1.1004
1.10331
1.10655
1.11013
1.11414
1.1185
1.12337
1.12868
1.13432
1.1406
1.1475
1.15503
1.16332
1.17204
1.18139
1.1917
1.20268
1.21398
1.22625
1.09356
1.09381
1.09418
1.09477
1.09553
1.09645
1.09755
1.09888
1.10052
1.10243
1.10456
1.10697
1.10975
1.11276
1.11616
1.11992
1.12403
1.12848
1.1333
1.13858
1.14448
1.15079
1.15778
1.16538
1.17354
1.18221
1.19138
1.20108
1.21142
1.22265
1.23412
1.24616
1.25927
1.10831
1.10857
1.10912
1.10982
1.11082
1.11212
1.11373
1.11571
1.11787
1.12044
1.12332
1.1265
1.13002
1.134
1.13827
1.14306
1.1483
1.15391
1.15993
1.16643
1.17348
1.18123
1.18936
1.19831
1.20787
1.21799
1.22856
1.23953
1.25089
1.2627
1.27504
1.28822
1.30129
1.12494
1.12517
1.12568
1.12661
1.12776
1.12943
1.13166
1.13404
1.13671
1.13994
1.14357
1.14756
1.15192
1.15672
1.16211
1.16775
1.17404
1.18074
1.18768
1.19567
1.2039
1.2125
1.22161
1.23159
1.24182
1.25297
1.26467
1.2767
1.28899
1.30145
1.31404
1.32675
1.33963
1.07827
1.07822
1.07813
1.07798
1.07776
1.07748
1.07719
1.07687
1.07655
1.07619
1.07583
1.07549
1.07518
1.07489
1.07465
1.07446
1.07435
1.07435
1.07449
1.07477
1.07524
1.0759
1.07684
1.07806
1.07961
1.08153
1.08387
1.0867
1.09013
1.09413
1.09883
1.10424
1.11035
1.07827
1.07823
1.07812
1.07797
1.07777
1.07753
1.07725
1.07695
1.07663
1.07627
1.07591
1.07557
1.07524
1.07494
1.07466
1.07446
1.07435
1.07437
1.0745
1.07478
1.07526
1.07596
1.07687
1.07809
1.07966
1.0816
1.08399
1.0869
1.09033
1.09438
1.09904
1.10448
1.11069
1.07821
1.07815
1.07803
1.07788
1.0777
1.07748
1.0772
1.0769
1.07656
1.07623
1.07588
1.07553
1.0752
1.07492
1.07471
1.07455
1.07445
1.07445
1.07459
1.0749
1.07538
1.0761
1.0771
1.07838
1.07999
1.08197
1.08436
1.08726
1.09075
1.09481
1.09957
1.10502
1.11134
1.07802
1.07798
1.07787
1.07773
1.07755
1.07734
1.07709
1.07679
1.07647
1.07613
1.0758
1.07547
1.07516
1.07491
1.07472
1.07459
1.07452
1.07456
1.07473
1.07508
1.0756
1.07638
1.07743
1.07877
1.08043
1.08245
1.0849
1.08784
1.09133
1.09548
1.10029
1.10594
1.11244
1.07781
1.07777
1.07766
1.07751
1.07732
1.07712
1.07686
1.07658
1.07625
1.07594
1.07563
1.07532
1.07506
1.07482
1.07464
1.07453
1.07451
1.0746
1.07486
1.07527
1.07588
1.07669
1.07779
1.0792
1.08095
1.08308
1.08564
1.0887
1.09238
1.09666
1.10166
1.10736
1.11396
1.0775
1.07745
1.07736
1.07722
1.07705
1.07684
1.0766
1.07632
1.07603
1.07573
1.07545
1.07519
1.07497
1.07477
1.07464
1.07458
1.07461
1.07475
1.07505
1.07554
1.07622
1.07717
1.07841
1.07995
1.08184
1.08411
1.08681
1.09002
1.09381
1.09831
1.10347
1.10948
1.11636
1.07707
1.07702
1.07694
1.07681
1.07662
1.0764
1.07617
1.07593
1.07569
1.07544
1.07522
1.07503
1.07486
1.07472
1.07466
1.0747
1.07484
1.07511
1.07556
1.07617
1.07699
1.07809
1.07948
1.08117
1.08318
1.08565
1.08866
1.09216
1.09623
1.101
1.10642
1.11265
1.11966
1.07623
1.07622
1.07614
1.07603
1.07591
1.07578
1.07562
1.07545
1.07526
1.07511
1.07497
1.07486
1.07479
1.0748
1.07487
1.07505
1.07535
1.07577
1.07636
1.07716
1.07822
1.07952
1.08113
1.08308
1.08537
1.08813
1.09143
1.09533
1.09978
1.10487
1.11074
1.11734
1.12491
1.07539
1.07535
1.07528
1.07522
1.07517
1.07509
1.07502
1.07494
1.07486
1.07481
1.07477
1.0748
1.07489
1.07508
1.07535
1.07573
1.07623
1.0769
1.07778
1.07891
1.08025
1.08187
1.08383
1.08614
1.0889
1.09211
1.09583
1.10011
1.10497
1.11053
1.11693
1.12408
1.13216
1.07461
1.0746
1.07459
1.07459
1.07458
1.07459
1.07462
1.07467
1.07474
1.07484
1.07501
1.07525
1.07557
1.07597
1.07649
1.07716
1.07802
1.07909
1.08037
1.08189
1.08365
1.08571
1.08814
1.09103
1.09434
1.09807
1.10238
1.1073
1.11286
1.11912
1.12617
1.13416
1.14294
1.07456
1.07456
1.07459
1.07461
1.07469
1.07483
1.07498
1.0752
1.07547
1.07581
1.07626
1.07677
1.07741
1.07818
1.07911
1.08024
1.08156
1.08311
1.08486
1.08692
1.08929
1.09201
1.09513
1.09874
1.10279
1.10737
1.11245
1.11823
1.1247
1.13189
1.13984
1.14862
1.15844
1.07597
1.07602
1.07615
1.07633
1.07656
1.07684
1.07721
1.07768
1.07826
1.07894
1.07974
1.08069
1.08176
1.08304
1.08452
1.08624
1.08825
1.09048
1.09302
1.09584
1.09907
1.1027
1.10676
1.11133
1.11653
1.12221
1.12853
1.13539
1.14307
1.15152
1.16073
1.17067
1.1814
1.0803
1.0804
1.08064
1.08093
1.08136
1.08194
1.08267
1.08351
1.08453
1.08572
1.08707
1.08863
1.09046
1.0925
1.09473
1.09731
1.10027
1.10348
1.10703
1.11106
1.1155
1.12027
1.12561
1.13151
1.13802
1.14524
1.15291
1.16117
1.17024
1.17986
1.19044
1.20182
1.21398
1.08872
1.0889
1.08932
1.08983
1.09058
1.09157
1.09282
1.09423
1.09589
1.0978
1.09993
1.1023
1.10495
1.10798
1.11126
1.11497
1.11907
1.12354
1.12847
1.13398
1.13987
1.14638
1.15339
1.16074
1.16887
1.17767
1.18716
1.19747
1.20809
1.21924
1.23133
1.24376
1.25704
1.09948
1.09973
1.1003
1.10101
1.10206
1.10339
1.10503
1.10703
1.10921
1.11181
1.11474
1.11797
1.12157
1.12568
1.13005
1.13495
1.14027
1.14588
1.15231
1.15908
1.16625
1.17394
1.18242
1.19128
1.20106
1.21155
1.2226
1.23411
1.24603
1.25837
1.27125
1.28497
1.29839
1.08939
1.08932
1.08916
1.08892
1.0886
1.08822
1.08775
1.0872
1.0866
1.08592
1.08519
1.08442
1.08359
1.08273
1.08183
1.08092
1.08001
1.07912
1.0783
1.07757
1.07694
1.07643
1.0761
1.07597
1.07608
1.07648
1.07719
1.07832
1.07994
1.08208
1.08483
1.08827
1.09251
1.08935
1.08928
1.08913
1.0889
1.0886
1.08821
1.08773
1.08718
1.08657
1.08591
1.08519
1.0844
1.08357
1.08269
1.08178
1.08087
1.07998
1.07911
1.07828
1.07754
1.0769
1.07641
1.0761
1.07596
1.07607
1.07649
1.07725
1.07838
1.08
1.08217
1.08495
1.08845
1.09267
1.0893
1.08922
1.08906
1.08883
1.08852
1.08812
1.08765
1.0871
1.0865
1.08583
1.08509
1.08429
1.08344
1.08257
1.0817
1.08081
1.07993
1.07907
1.07827
1.07755
1.07693
1.07644
1.0761
1.07598
1.07613
1.07657
1.07739
1.07861
1.08031
1.08253
1.08534
1.08884
1.09316
1.08906
1.08898
1.08882
1.08858
1.08829
1.08791
1.08745
1.0869
1.0863
1.08563
1.08489
1.0841
1.08326
1.08239
1.08153
1.08065
1.07977
1.07894
1.07818
1.0775
1.07692
1.07645
1.07616
1.07609
1.07629
1.07678
1.07765
1.07895
1.08071
1.083
1.08588
1.08946
1.09382
1.08879
1.08871
1.08853
1.08829
1.08798
1.0876
1.08713
1.08657
1.08596
1.08529
1.08457
1.0838
1.08299
1.08216
1.0813
1.08042
1.07958
1.07876
1.07802
1.07738
1.07684
1.07643
1.0762
1.07622
1.07648
1.07706
1.07798
1.07935
1.08121
1.08362
1.08664
1.09038
1.09496
1.08834
1.08824
1.08807
1.08782
1.08748
1.08709
1.08664
1.08613
1.08554
1.08488
1.08416
1.0834
1.0826
1.08179
1.08096
1.08012
1.07931
1.07854
1.07785
1.07726
1.07678
1.07644
1.07629
1.07637
1.07674
1.07741
1.07849
1.08001
1.08203
1.08462
1.08782
1.09174
1.09647
1.0874
1.08732
1.08716
1.08693
1.08664
1.08626
1.0858
1.08527
1.08469
1.08406
1.08337
1.08267
1.08194
1.08117
1.0804
1.07962
1.0789
1.07822
1.07763
1.07714
1.07678
1.07657
1.07656
1.07679
1.07731
1.07815
1.07938
1.08103
1.08324
1.08605
1.08955
1.09383
1.09887
1.08589
1.08584
1.0857
1.08548
1.08519
1.08483
1.08441
1.08391
1.08338
1.0828
1.08219
1.08155
1.08088
1.08021
1.07954
1.07889
1.0783
1.07776
1.07731
1.07695
1.07676
1.07674
1.07693
1.0774
1.07819
1.07931
1.08084
1.08282
1.08537
1.08852
1.09237
1.09701
1.10255
1.08371
1.08365
1.08352
1.08332
1.08306
1.08275
1.08238
1.08197
1.0815
1.08099
1.08046
1.07994
1.07941
1.0789
1.07841
1.07795
1.07755
1.07721
1.07699
1.07692
1.07701
1.07728
1.0778
1.07862
1.0798
1.08132
1.08326
1.08573
1.08875
1.09236
1.09671
1.1019
1.10804
1.08088
1.08082
1.08073
1.08059
1.08038
1.08014
1.07986
1.07955
1.0792
1.07883
1.07844
1.07807
1.07774
1.07743
1.07718
1.07698
1.07689
1.07694
1.07711
1.07743
1.07795
1.07867
1.07968
1.08101
1.0827
1.08478
1.08735
1.09048
1.09418
1.09859
1.10377
1.10977
1.11662
1.07781
1.07777
1.07772
1.07764
1.07751
1.07735
1.0772
1.07703
1.07685
1.07669
1.07657
1.07649
1.07645
1.07647
1.07659
1.0768
1.07715
1.07766
1.07835
1.07925
1.0804
1.0818
1.08351
1.08555
1.08801
1.09094
1.09437
1.09839
1.10311
1.10849
1.11467
1.1216
1.12952
1.07522
1.07521
1.07521
1.0752
1.07523
1.07526
1.07529
1.07537
1.0755
1.07569
1.07598
1.07636
1.07681
1.07735
1.078
1.0788
1.0798
1.08099
1.08243
1.08415
1.08619
1.08858
1.09129
1.09439
1.09801
1.10213
1.10671
1.11198
1.11798
1.12482
1.13233
1.14065
1.14998
1.07462
1.07466
1.07474
1.07492
1.07515
1.07545
1.07584
1.07627
1.07682
1.07752
1.0784
1.07938
1.08054
1.08188
1.08338
1.08509
1.08704
1.0893
1.09184
1.09476
1.09806
1.10174
1.10582
1.11035
1.11543
1.12114
1.12737
1.13436
1.14201
1.15023
1.15938
1.16948
1.18062
1.07768
1.07783
1.07816
1.07862
1.07918
1.07986
1.08066
1.08164
1.08273
1.08408
1.08567
1.08754
1.0896
1.09197
1.0946
1.09753
1.10074
1.10429
1.10824
1.1127
1.11754
1.12295
1.12889
1.13531
1.14227
1.14981
1.15794
1.1668
1.17654
1.18686
1.19817
1.21023
1.22283
1.08377
1.08406
1.08449
1.08517
1.08604
1.08706
1.08826
1.0897
1.09147
1.09353
1.09587
1.09847
1.10139
1.10471
1.1083
1.11237
1.11686
1.12175
1.1271
1.13295
1.13946
1.14633
1.15386
1.16178
1.17053
1.17996
1.19
1.20068
1.21209
1.22452
1.23725
1.25079
1.26432
1.10231
1.10223
1.10205
1.10177
1.10142
1.10096
1.10037
1.09968
1.09889
1.09799
1.09698
1.09586
1.09464
1.09335
1.09197
1.09051
1.08898
1.08741
1.08584
1.0843
1.08279
1.08136
1.08003
1.07882
1.07779
1.07697
1.07643
1.07626
1.07649
1.07723
1.07852
1.08044
1.08308
1.10228
1.1022
1.10201
1.10174
1.10138
1.10092
1.10034
1.09965
1.09885
1.09794
1.09692
1.09581
1.0946
1.09329
1.0919
1.09043
1.08891
1.08734
1.08577
1.08423
1.08271
1.08126
1.07993
1.07873
1.07771
1.0769
1.07638
1.07624
1.0765
1.07723
1.07852
1.08046
1.08311
1.1022
1.10211
1.10192
1.10163
1.10123
1.10074
1.10015
1.09948
1.0987
1.09782
1.09683
1.09571
1.09447
1.09315
1.09173
1.09024
1.08872
1.08718
1.08563
1.08408
1.08258
1.08113
1.07979
1.07861
1.07762
1.07688
1.07641
1.07628
1.07657
1.07734
1.07862
1.08057
1.08327
1.10201
1.1019
1.10169
1.10139
1.10098
1.10047
1.09988
1.09919
1.09841
1.09752
1.09652
1.0954
1.09418
1.09286
1.09145
1.08998
1.08847
1.08694
1.08541
1.08388
1.08239
1.08097
1.07966
1.07851
1.07756
1.07687
1.07646
1.07638
1.07672
1.07755
1.07891
1.08094
1.08374
1.10172
1.10161
1.1014
1.10108
1.10068
1.10017
1.09956
1.09885
1.09804
1.09713
1.09612
1.09501
1.09379
1.09249
1.09111
1.08967
1.08817
1.08664
1.0851
1.08359
1.08213
1.08076
1.07949
1.07839
1.07752
1.07686
1.07649
1.07649
1.07694
1.07789
1.0794
1.08152
1.08443
1.10124
1.10113
1.10091
1.1006
1.1002
1.0997
1.09911
1.09841
1.09759
1.09668
1.09566
1.09453
1.09329
1.09198
1.09058
1.08913
1.08765
1.08616
1.08468
1.08321
1.0818
1.08046
1.07925
1.07821
1.07737
1.0768
1.07657
1.0767
1.07728
1.07837
1.08002
1.08236
1.0855
1.10017
1.10006
1.09984
1.09953
1.09912
1.09863
1.09803
1.09733
1.09652
1.09562
1.09462
1.09352
1.09233
1.09105
1.08969
1.08829
1.08686
1.08544
1.08404
1.08265
1.08131
1.08008
1.079
1.07808
1.07738
1.07694
1.07682
1.07712
1.07787
1.07919
1.08114
1.08379
1.08722
1.09815
1.09805
1.09784
1.09754
1.09713
1.09662
1.09604
1.09536
1.09457
1.0937
1.09274
1.09169
1.09057
1.08936
1.08812
1.08684
1.08552
1.08421
1.08293
1.08171
1.08055
1.0795
1.07858
1.07786
1.07739
1.07722
1.07741
1.07797
1.07901
1.08064
1.0829
1.08585
1.08964
1.09481
1.09473
1.09454
1.09425
1.09385
1.09338
1.09282
1.09218
1.09146
1.09064
1.08974
1.0888
1.08779
1.08674
1.08565
1.08456
1.08344
1.08235
1.08132
1.08034
1.07946
1.07872
1.07814
1.07779
1.07771
1.07793
1.07851
1.0795
1.08101
1.08312
1.08586
1.08938
1.09375
1.09
1.08991
1.08975
1.08949
1.08916
1.08875
1.08827
1.08773
1.08709
1.08639
1.08564
1.08485
1.08402
1.08319
1.08235
1.08153
1.08075
1.08001
1.07935
1.07878
1.07832
1.07802
1.07791
1.07806
1.07853
1.07936
1.08057
1.08222
1.08446
1.08729
1.09078
1.09507
1.1003
1.08393
1.08386
1.08374
1.08355
1.0833
1.08301
1.08265
1.08224
1.08177
1.08129
1.08078
1.08025
1.07973
1.07925
1.07879
1.07837
1.07806
1.07782
1.07769
1.07772
1.07789
1.07829
1.07893
1.07986
1.08114
1.08284
1.08495
1.08757
1.09074
1.09462
1.09926
1.10474
1.11119
1.07758
1.07753
1.07744
1.07734
1.07723
1.07712
1.077
1.07685
1.07668
1.07652
1.0764
1.07632
1.07628
1.07629
1.07638
1.07661
1.07698
1.07749
1.07818
1.07906
1.08017
1.08158
1.08327
1.08535
1.08784
1.09076
1.09418
1.09815
1.10276
1.10815
1.11424
1.12126
1.12924
1.0729
1.07292
1.07297
1.07304
1.07313
1.07325
1.07342
1.07361
1.07387
1.07423
1.07466
1.0752
1.07582
1.0766
1.07757
1.0787
1.08001
1.08159
1.08344
1.08557
1.08799
1.09075
1.09386
1.0974
1.10147
1.10601
1.11121
1.11708
1.12361
1.13084
1.13882
1.1476
1.1573
1.07178
1.07185
1.07204
1.07229
1.07267
1.07318
1.07375
1.07445
1.07522
1.0762
1.0774
1.07875
1.08034
1.08212
1.0841
1.08643
1.08902
1.09192
1.09523
1.09886
1.10298
1.10754
1.11256
1.11804
1.12402
1.13055