/*--------------------------------*- C++ -*----------------------------------*\
| =========                 |                                                 |
| \\      /  F ield         | OpenFOAM: The Open Source CFD Toolbox           |
|  \\    /   O peration     | Version:  2412                                  |
|   \\  /    A nd           | Website:  www.openfoam.com                      |
|    \\/     M anipulation  |                                                 |
\*---------------------------------------------------------------------------*/
FoamFile
{
    version     2.0;
    format      ascii;
    arch        "LSB;label=32;scalar=64";
    class       volScalarField;
    location    "0.0199794";
    object      Vm_0;
}
// * * * * * * * * * * * * * * * * * * * * * * * * * * * * * * * * * * * * * //

dimensions      [1 2 -3 0 0 -1 0];

internalField   nonuniform List<scalar> 
8679
(
0.0227464
0.0228245
0.0228926
0.0229921
0.0231742
0.0234017
0.0236807
0.0240324
0.0243694
0.0247585
0.025138
0.0255941
0.0261026
0.0266838
0.0272319
0.0277999
0.0284579
0.0291599
0.0298774
0.030608
0.031344
0.0320677
0.0327611
0.0334191
0.034065
0.034498
0.0347965
0.0348025
0.0343726
0.0339765
0.0340761
0.0345741
0.034851
0.0228592
0.0228901
0.0229639
0.0231135
0.0233
0.0234896
0.0237861
0.0240829
0.0244072
0.0248159
0.0252638
0.0257384
0.0262317
0.026743
0.0272831
0.0278978
0.0284938
0.0291753
0.0298895
0.0306147
0.031355
0.0320883
0.0328106
0.0335473
0.0341249
0.0346046
0.0347949
0.0347606
0.0344041
0.0339173
0.0340191
0.0345194
0.0347687
0.0229297
0.0229708
0.0230833
0.0232004
0.0233853
0.0236093
0.0238658
0.0241595
0.0245198
0.0248747
0.0253085
0.025782
0.0262804
0.0268109
0.027417
0.0280051
0.0286746
0.0293747
0.0300693
0.0307359
0.0315458
0.032291
0.0329795
0.0336178
0.034232
0.034615
0.0348425
0.0347557
0.0342497
0.0339547
0.0341992
0.0347227
0.0348718
0.0161741
0.0162128
0.0162983
0.0163981
0.0165504
0.0167413
0.016972
0.0172582
0.0175584
0.0179135
0.0183041
0.0187264
0.0191816
0.0196779
0.0202342
0.0208029
0.021441
0.0221246
0.0228396
0.0235836
0.0243666
0.0252147
0.0260457
0.0269279
0.0277835
0.0287008
0.0296436
0.0305887
0.0315265
0.0324625
0.0333759
0.0342142
0.0349218
0.0162056
0.0162402
0.0163247
0.0164269
0.0165799
0.0167689
0.0169979
0.0172796
0.0175764
0.0179311
0.0183274
0.0187591
0.0192308
0.0197601
0.0203008
0.0208913
0.0214889
0.0221566
0.0228705
0.0236288
0.0244562
0.0252651
0.0260911
0.0269918
0.0278972
0.0287537
0.0296674
0.0306001
0.0315339
0.0324626
0.033371
0.0342067
0.034925
0.016333
0.0163607
0.0164271
0.016551
0.016713
0.016903
0.01712
0.0173712
0.0176765
0.0179977
0.0183841
0.0188258
0.0193344
0.0198563
0.0204286
0.0210079
0.021654
0.0223438
0.0230635
0.0238098
0.0245995
0.0254553
0.0262901
0.0271738
0.0280269
0.0289371
0.0298622
0.0307657
0.0316035
0.0325357
0.0335397
0.0343881
0.0350581
0.0165213
0.0165489
0.0166153
0.01674
0.0169045
0.0170973
0.0173166
0.0175701
0.0178781
0.0182018
0.0185914
0.0190367
0.0195495
0.0200764
0.0206533
0.0212359
0.0218844
0.0225751
0.0232947
0.0240457
0.0248383
0.0256948
0.0265276
0.0274107
0.0282592
0.0291585
0.0300559
0.0308861
0.0317863
0.0327148
0.0336356
0.0345366
0.0351849
0.0167817
0.0168182
0.0169059
0.0170123
0.0171711
0.0173678
0.0176021
0.0178891
0.0181917
0.0185533
0.0189589
0.0194015
0.0198862
0.0204314
0.0209847
0.021589
0.0221956
0.0228691
0.0235904
0.0243577
0.0251904
0.0259952
0.026815
0.0277129
0.0286122
0.0294558
0.0303589
0.0312845
0.0322183
0.0331321
0.0339858
0.0347198
0.0352618
0.0115583
0.0115959
0.0116503
0.0117351
0.0118435
0.011972
0.0121226
0.0123026
0.012525
0.0127821
0.0130697
0.0133908
0.0137563
0.0141459
0.0145852
0.0150613
0.0155725
0.0161171
0.0166981
0.0173229
0.0180133
0.0187264
0.019495
0.0202811
0.0211336
0.0220359
0.0229791
0.0239571
0.0249664
0.02601
0.0271217
0.0282051
0.0293285
0.0116008
0.0116223
0.0116696
0.0117519
0.0118599
0.0119915
0.0121493
0.0123423
0.0125534
0.0128048
0.0130903
0.0134104
0.0137763
0.0141656
0.0146025
0.0150788
0.0155888
0.0161344
0.0167175
0.0173457
0.0180399
0.0187598
0.0195475
0.0203801
0.0212396
0.022097
0.023027
0.0240178
0.0250843
0.026128
0.0271729
0.0282274
0.0293383
0.0116534
0.0116788
0.0117394
0.0118223
0.011919
0.0120515
0.0122233
0.0124143
0.0126427
0.0128994
0.0131852
0.0135002
0.0138509
0.0142468
0.0146661
0.0151367
0.015653
0.0162156
0.0168357
0.0174728
0.0181493
0.0188964
0.0196834
0.020483
0.0213482
0.0222607
0.0232088
0.0241852
0.0251893
0.0262306
0.0273367
0.0283966
0.0294451
0.0117763
0.0117999
0.0118557
0.0119291
0.0120373
0.0121769
0.0123533
0.0125488
0.012781
0.0130412
0.0133301
0.0136497
0.014005
0.0144057
0.0148297
0.0153063
0.0158285
0.0163966
0.0170223
0.0176647
0.0183434
0.0190851
0.0198484
0.0206815
0.0215621
0.022484
0.0234373
0.0244129
0.0254138
0.0264396
0.0274935
0.0286085
0.0296742
0.0119827
0.0120035
0.0120502
0.0121341
0.0122472
0.0123856
0.0125517
0.0127538
0.0129742
0.0132357
0.0135327
0.0138665
0.0142467
0.0146513
0.0151053
0.0155993
0.0161263
0.0166897
0.0172916
0.0179391
0.0186542
0.019391
0.0201926
0.0210316
0.0218701
0.0227736
0.0237247
0.0247141
0.0257431
0.0268359
0.0278915
0.0289442
0.0300418
0.0122661
0.0122882
0.0123363
0.0124238
0.0125401
0.0126833
0.0128554
0.0130642
0.0132914
0.0135601
0.0138707
0.0142282
0.0146032
0.0150101
0.0154739
0.0159816
0.0165232
0.0170959
0.0177064
0.0183657
0.0190907
0.0198353
0.0206469
0.0214937
0.0223387
0.0232494
0.0242054
0.0251931
0.0262051
0.0272443
0.0283384
0.0293775
0.0304
0.0127002
0.0127282
0.0127913
0.0128738
0.0129929
0.0131405
0.0133188
0.0135411
0.0137908
0.0140556
0.0143698
0.0147359
0.0151207
0.0155396
0.0160169
0.0165394
0.0170962
0.0176831
0.0183059
0.0189758
0.019716
0.0204712
0.0212816
0.0221041
0.0229963
0.0239358
0.0249042
0.0258909
0.0268947
0.0279122
0.0289417
0.0300174
0.0310221
0.0133117
0.0133566
0.0134223
0.013526
0.0136597
0.0138175
0.0139996
0.0142137
0.0144766
0.0147718
0.0151006
0.0154632
0.0158635
0.016315
0.0167879
0.0173178
0.0178876
0.0184914
0.0191266
0.0197975
0.020517
0.0213085
0.0221112
0.0229849
0.0239007
0.0248311
0.025739
0.0267132
0.0277317
0.02881
0.0298235
0.0308068
0.0317814
0.014177
0.0142124
0.0142872
0.0143778
0.0145129
0.0146877
0.0149074
0.0151438
0.0154151
0.0157025
0.0160383
0.0164198
0.0168562
0.0173077
0.0177914
0.0183404
0.0189307
0.0195572
0.0202155
0.0209072
0.0216421
0.0224484
0.0232578
0.024128
0.0249959
0.0259301
0.026891
0.0278705
0.0288547
0.0298326
0.0307939
0.0317373
0.032683
0.0153733
0.0154232
0.0154895
0.0155935
0.0157123
0.0158778
0.016084
0.0163402
0.0166141
0.0169427
0.0173097
0.0177073
0.0181364
0.0186053
0.0191426
0.019715
0.0202904
0.0209248
0.0215979
0.0223076
0.0230618
0.0238823
0.0246851
0.0255112
0.0264145
0.0273333
0.0282119
0.0291439
0.0300898
0.0310287
0.0319521
0.0328692
0.0337819
0.0169197
0.0169458
0.0170075
0.0171272
0.017282
0.0174662
0.0176772
0.0179186
0.0181977
0.0185415
0.0189269
0.0193448
0.0197938
0.020284
0.0208406
0.0214078
0.0220322
0.0226824
0.023326
0.0240453
0.0248488
0.0256366
0.0264261
0.0272358
0.0281068
0.0289509
0.0298573
0.03078
0.0316861
0.0325672
0.0333807
0.0343045
0.0350789
0.0187875
0.0188239
0.0189161
0.0190224
0.0191829
0.0193792
0.0196045
0.019866
0.0201886
0.0205261
0.0209261
0.0213621
0.0218307
0.0223454
0.0229291
0.0235083
0.0241374
0.0247601
0.0254487
0.0261702
0.0269152
0.0276746
0.028454
0.0292933
0.0300796
0.0308593
0.0317065
0.0325554
0.0333217
0.03414
0.0349098
0.0355558
0.0359912
0.0211439
0.0211892
0.0212954
0.021406
0.0215801
0.021792
0.0220294
0.0222937
0.0225998
0.0229843
0.0233967
0.0238036
0.0242922
0.0248609
0.025413
0.0259835
0.0266201
0.0272371
0.0279256
0.0286376
0.029358
0.0300809
0.0308018
0.0315221
0.0322484
0.0330454
0.0337749
0.0345232
0.0351423
0.0357243
0.0361589
0.0363286
0.0360822
0.0238828
0.0239273
0.0240458
0.0241616
0.0243451
0.024566
0.0248149
0.0250906
0.0254022
0.0257895
0.0261704
0.026621
0.0271098
0.0276187
0.0281415
0.0286935
0.0293236
0.0299165
0.0305728
0.0312312
0.0318283
0.0324981
0.0332075
0.0339843
0.0346611
0.0352823
0.0358884
0.0362888
0.0365613
0.0364596
0.0361001
0.0355906
0.0353362
0.0263245
0.0263456
0.0264056
0.0265431
0.0266688
0.0268764
0.0271239
0.0273999
0.027717
0.0281181
0.0284988
0.0289629
0.0294579
0.0299615
0.0304708
0.0310035
0.0316149
0.0321779
0.0328037
0.0333773
0.0340369
0.034716
0.0353717
0.0359692
0.0364685
0.0368344
0.0370537
0.0368526
0.0364101
0.0359094
0.0359469
0.0359406
0.0346847
0.00893316
0.00894798
0.00897948
0.00901916
0.00907675
0.00915182
0.0092474
0.00935532
0.00948779
0.0096432
0.00982208
0.0100295
0.0102562
0.0105146
0.0108026
0.0111184
0.0114628
0.0118416
0.0122653
0.0127211
0.0132314
0.0137886
0.0143895
0.0150314
0.015716
0.016444
0.0172197
0.0180511
0.0189562
0.0198846
0.0208643
0.0219285
0.0230386
0.00894726
0.00896141
0.00899463
0.00904071
0.0090974
0.00917752
0.00927153
0.00938445
0.00951218
0.00966777
0.00985257
0.0100563
0.0102862
0.010536
0.01082
0.011136
0.0114857
0.0118777
0.0122972
0.0127601
0.0132553
0.0138046
0.0144037
0.015048
0.0157352
0.016465
0.0172432
0.0180782
0.0189915
0.0199336
0.0209428
0.0219776
0.0230883
0.00899192
0.00900308
0.009029
0.00907498
0.00913553
0.00921131
0.00930546
0.00942479
0.00956434
0.00972218
0.0098994
0.0101003
0.0103355
0.0105993
0.0108888
0.011208
0.0115585
0.0119438
0.0123736
0.0128321
0.0133349
0.0138699
0.014463
0.0151086
0.0158111
0.016581
0.0173779
0.0182133
0.0191005
0.0200649
0.0210584
0.0221157
0.0231912
0.00905838
0.00906974
0.00909489
0.0091402
0.00920247
0.00928082
0.00937797
0.00949999
0.00964192
0.00980292
0.00998264
0.0101867
0.0104244
0.010689
0.0109763
0.0113085
0.0116665
0.0120541
0.0124807
0.0129573
0.013473
0.0140163
0.0146157
0.0152678
0.015972
0.0167316
0.0175574
0.0184094
0.0193067
0.0202774
0.0212737
0.0223414
0.023424
0.00915242
0.00916571
0.00919665
0.00923915
0.00930198
0.00938384
0.00948779
0.00960532
0.00974652
0.00991067
0.0100995
0.0103183
0.0105576
0.0108299
0.0111329
0.0114661
0.0118291
0.0122277
0.0126729
0.0131514
0.0136851
0.0142654
0.0148905
0.0155577
0.0162659
0.0170203
0.017824
0.0186822
0.0196138
0.020567
0.0215636
0.0226458
0.023772
0.00930683
0.009322
0.00935591
0.00940285
0.00947331
0.00956754
0.00967521
0.00980248
0.00994475
0.0101169
0.010321
0.010545
0.0107951
0.0110655
0.0113742
0.0117185
0.0120992
0.0125245
0.0129782
0.0134774
0.014011
0.0146003
0.0152375
0.0159166
0.0166377
0.0174057
0.0182228
0.019095
0.0200396
0.021004
0.0220132
0.0231056
0.0242405
0.00956065
0.00958362
0.00961963
0.00967532
0.00974987
0.00984242
0.00995515
0.0100949
0.0102568
0.0104386
0.0106427
0.010873
0.0111336
0.0114159
0.0117382
0.0120965
0.0124927
0.0129328
0.0133965
0.0138987
0.0144617
0.0150702
0.0157135
0.0163795
0.0171119
0.0179086
0.018779
0.0196741
0.020613
0.0216177
0.0226281
0.0236821
0.0248168
0.00993834
0.0099581
0.0100005
0.0100574
0.01014
0.0102482
0.0103674
0.0105062
0.0106767
0.0108734
0.0110965
0.0113526
0.0116306
0.0119436
0.0122864
0.0126546
0.0130766
0.0135242
0.0140026
0.014522
0.015103
0.0157282
0.0163753
0.017085
0.017848
0.0186585
0.0195144
0.0204236
0.0214077
0.0224039
0.0234325
0.0245294
0.0256339
0.0104855
0.0105085
0.0105598
0.0106277
0.0107103
0.0108264
0.0109573
0.0111092
0.0112933
0.0115035
0.0117401
0.0120068
0.0123119
0.0126395
0.0130089
0.0134147
0.0138544
0.0143273
0.0148383
0.0154032
0.015997
0.0166468
0.0173217
0.0180621
0.0188544
0.0196932
0.020573
0.0214889
0.0224435
0.0234456
0.024523
0.0256068
0.026747
0.0112892
0.0113119
0.0113615
0.0114248
0.0115158
0.0116319
0.0117738
0.0119486
0.0121398
0.0123678
0.012627
0.0129187
0.013253
0.0136108
0.0140153
0.0144574
0.0149307
0.0154355
0.015972
0.016546
0.0171681
0.0178615
0.0185947
0.0193447
0.0201614
0.0210266
0.02193
0.0228673
0.0238357
0.0248368
0.0258803
0.0269967
0.0280953
0.0123705
0.0123938
0.0124491
0.0125203
0.0126253
0.0127568
0.0129154
0.0131086
0.0133196
0.0135726
0.0138588
0.0141753
0.0145262
0.0149236
0.0153469
0.0158194
0.0163304
0.0168746
0.0174499
0.0180625
0.0187234
0.0194485
0.0201888
0.0209825
0.0217922
0.0226737
0.0236032
0.024568
0.0255553
0.02656
0.0275809
0.0286326
0.0297414
0.0138409
0.0138639
0.013915
0.0140082
0.0141302
0.0142778
0.0144493
0.0146459
0.0148755
0.0151568
0.0154745
0.0158212
0.0162001
0.0166193
0.0170978
0.0176096
0.0181297
0.0187028
0.019318
0.0199714
0.0206697
0.0214326
0.0221969
0.0229944
0.0238645
0.0247669
0.0256542
0.0266025
0.0275803
0.0285736
0.0295735
0.0305818
0.0316369
0.0157569
0.0157811
0.015835
0.0159313
0.0160436
0.0162042
0.0164052
0.0166568
0.016927
0.0172504
0.0176024
0.0179673
0.0184083
0.0188652
0.0193511
0.0198926
0.0204495
0.021067
0.0217264
0.0224193
0.0231417
0.0238944
0.0246849
0.0255451
0.0264
0.0273224
0.0282504
0.0291326
0.0300666
0.0310104
0.0319457
0.0328577
0.0337377
0.0181003
0.018137
0.0182266
0.0183281
0.01848
0.0186681
0.0188868
0.0191379
0.0194306
0.0197962
0.0202029
0.0206395
0.0211001
0.0215802
0.0220861
0.0226354
0.0232657
0.0239227
0.0245695
0.0252841
0.026039
0.0268354
0.0277004
0.0285301
0.0293592
0.030248
0.0310896
0.0319759
0.0328438
0.03362
0.0344458
0.0352605
0.0360313
0.0203738
0.0203964
0.0204545
0.0205753
0.0207015
0.0208949
0.0211353
0.021421
0.0217765
0.0221439
0.0225798
0.0230574
0.0235603
0.0240815
0.0246222
0.0252013
0.0258617
0.0265118
0.0272352
0.0279955
0.028777
0.0295669
0.0303546
0.031137
0.0319293
0.0327832
0.033569
0.0343883
0.0351342
0.0359377
0.0367122
0.0373663
0.0377967
0.0078432
0.00785203
0.00786321
0.00788116
0.00790476
0.00793447
0.0079735
0.00801959
0.00808033
0.0081567
0.00824205
0.00833969
0.00845725
0.0085947
0.00875286
0.00893517
0.00913558
0.00936143
0.00961068
0.00989533
0.0102157
0.0105721
0.0109664
0.0114037
0.011891
0.0124144
0.0129857
0.0136238
0.0143184
0.0150551
0.0158681
0.0167512
0.0176983
0.0078551
0.00785971
0.00786936
0.00788764
0.00791202
0.00794333
0.00798433
0.00803154
0.00809299
0.00817041
0.00825838
0.00835941
0.00847298
0.00860657
0.00876221
0.00894388
0.00914431
0.00937187
0.00962164
0.00990709
0.0102269
0.0105823
0.0109765
0.0114137
0.0119039
0.0124348
0.0130204
0.0136484
0.0143394
0.0150767
0.0158918
0.0167753
0.0177246
0.00786532
0.00787124
0.00788598
0.00790626
0.00793193
0.00796366
0.00800297
0.00805536
0.00811905
0.00819452
0.0082848
0.00838727
0.00850824
0.00864694
0.00880423
0.00898325
0.00918972
0.00941804
0.00967947
0.0099722
0.0102965
0.0106538
0.0110483
0.0114849
0.0119695
0.0125121
0.013095
0.013737
0.0144258
0.0151903
0.0160229
0.0169199
0.0178769
0.00789044
0.00789551
0.00790808
0.00792528
0.00795194
0.007989
0.00803286
0.00808812
0.0081529
0.00822912
0.00831849
0.00842689
0.00855266
0.00869628
0.00885905
0.00904365
0.00925523
0.00948958
0.009757
0.0100569
0.0103884
0.0107524
0.011153
0.0115948
0.0120854
0.0126348
0.0132284
0.0138822
0.0145815
0.0153549
0.0161933
0.0170904
0.0180349
0.00792385
0.00793083
0.00794713
0.00796871
0.00799622
0.0080305
0.00807291
0.00812861
0.00819648
0.00827728
0.00837393
0.00848369
0.00861262
0.00876141
0.00893198
0.00912841
0.00934511
0.00958895
0.00985743
0.0101621
0.0105023
0.0108777
0.0112894
0.0117419
0.0122417
0.0128016
0.0134054
0.0140758
0.0148025
0.015573
0.0164205
0.0173366
0.018314
0.00799425
0.00800389
0.00801842
0.00804095
0.00807189
0.00811182
0.00816182
0.00822006
0.00829325
0.0083836
0.00848578
0.00860299
0.00873352
0.00888607
0.00906307
0.00926803
0.00949432
0.00974929
0.0100283
0.0103449
0.0106975
0.0110864
0.0115123
0.0119793
0.0124938
0.0130686
0.0136853
0.014366
0.0150954
0.0158992
0.016771
0.0177092
0.018707
0.00811285
0.00811846
0.0081317
0.00815652
0.00819115
0.00823617
0.00829552
0.00836702
0.00844951
0.00854378
0.00865249
0.00878018
0.00892532
0.00908647
0.00927739
0.00948906
0.00972614
0.00999525
0.0102898
0.0106231
0.0109949
0.0114036
0.0118487
0.012334
0.0128692
0.013465
0.0141024
0.0147916
0.0155533
0.0163733
0.0172321
0.0181697
0.0191764
0.00829108
0.00829784
0.00831388
0.00834289
0.00838267
0.00843335
0.00849757
0.00857192
0.00866415
0.0087747
0.0088963
0.00903454
0.00919593
0.00937872
0.0095842
0.00981228
0.0100692
0.0103625
0.0106846
0.0110333
0.0114252
0.0118578
0.0123291
0.0128426
0.0134031
0.0140165
0.0146962
0.0154183
0.0162077
0.0170381
0.0179412
0.0189025
0.019897
0.00856809
0.00858257
0.00860517
0.00864031
0.00868664
0.00874448
0.00881608
0.00890523
0.00901096
0.00913201
0.00927017
0.00942978
0.00960713
0.00981056
0.0100388
0.0102931
0.0105767
0.0108967
0.0112423
0.0116256
0.0120372
0.0124987
0.0130052
0.0135576
0.0141555
0.0148053
0.0155189
0.0162653
0.017063
0.0179351
0.0188526
0.019855
0.0209232
0.00900929
0.00901914
0.00904062
0.00908067
0.00913617
0.00920698
0.00929682
0.00939931
0.00952069
0.00965898
0.00981552
0.00999443
0.0102027
0.0104334
0.0106817
0.0109654
0.0112845
0.0116434
0.0120288
0.0124544
0.01291
0.01342
0.0139761
0.0145741
0.0152151
0.0159006
0.016633
0.0174143
0.0182515
0.0191678
0.0201237
0.02116
0.022242
0.0096604
0.00967172
0.00969792
0.00974484
0.00980989
0.00989231
0.00999477
0.0101208
0.0102645
0.010421
0.0106056
0.0108208
0.0110551
0.0113179
0.0116019
0.011925
0.0122835
0.0126782
0.0131161
0.0135776
0.0140781
0.0146381
0.0152433
0.0158841
0.0165492
0.0172807
0.0180765
0.0189462
0.0198401
0.0207809
0.0217952
0.0228269
0.023926
0.0106077
0.0106315
0.0106665
0.0107235
0.0107936
0.010892
0.0110207
0.0111666
0.0113411
0.0115394
0.0117586
0.012
0.0122668
0.012564
0.0129077
0.0132874
0.0136984
0.0141409
0.0146162
0.0151271
0.0156851
0.0163092
0.0169743
0.017662
0.0184127
0.0192133
0.0200585
0.0209468
0.0218778
0.0228591
0.0239155
0.0249671
0.0260504
0.0119752
0.0119947
0.0120364
0.0121108
0.0122082
0.0123283
0.0124725
0.0126457
0.012856
0.0130924
0.0133422
0.0136327
0.0139703
0.0143286
0.0147265
0.0151472
0.0156153
0.0161212
0.0166635
0.0172445
0.0178732
0.0185662
0.0192851
0.0200703
0.0208904
0.0217174
0.0226071
0.0235358
0.0245031
0.0255076
0.0265557
0.0276712
0.0287654
0.0137933
0.0138355
0.013893
0.0139822
0.0140844
0.0142277
0.0144101
0.0146362
0.0148818
0.0151747
0.0154995
0.0158525
0.0162326
0.0166413
0.0170865
0.0175919
0.0181362
0.0186903
0.0193019
0.0199723
0.0207157
0.021471
0.0222556
0.0231039
0.0239569
0.0248743
0.025813
0.0267272
0.0277125
0.0287454
0.0298515
0.0309007
0.0319176
0.0156824
0.0157063
0.015763
0.0158737
0.0160128
0.0161701
0.0164005
0.0166462
0.0169211
0.0172467
0.0175899
0.0179937
0.0184471
0.0189597
0.0194752
0.0200231
0.0206427
0.0212906
0.0219383
0.022663
0.0234488
0.0243082
0.0251499
0.0260114
0.0269394
0.0278488
0.0288085
0.0297314
0.0307207
0.0317302
0.0327314
0.0337025
0.0346374
0.00780881
0.00780766
0.00780646
0.00780397
0.00780333
0.00780098
0.00779827
0.00780019
0.00780725
0.00782086
0.00783741
0.00786258
0.00789773
0.00794424
0.0079994
0.00806604
0.00814376
0.00823966
0.00835502
0.00849255
0.00865632
0.00884991
0.00907089
0.00932712
0.00961549
0.00994913
0.0103285
0.0107532
0.0112242
0.011766
0.0123635
0.0130223
0.0137526
0.00780862
0.00780825
0.0078091
0.00780891
0.00780832
0.00780829
0.00781046
0.00781512
0.00782241
0.00783403
0.0078513
0.00787464
0.00790911
0.00795125
0.00800368
0.00806953
0.00814671
0.00824335
0.0083601
0.00850051
0.00866766
0.00885806
0.00907635
0.00933175
0.00962167
0.00995721
0.0103388
0.0107682
0.0112485
0.0117843
0.0123789
0.0130386
0.0137699
0.00780453
0.00780572
0.00780578
0.00780613
0.00780593
0.0078061
0.00780994
0.00781597
0.00782394
0.00783606
0.00785645
0.00788376
0.00791865
0.00796282
0.00801956
0.00808774
0.00817244
0.00827395
0.00839381
0.00853407
0.00869782
0.00888831
0.00911293
0.0093679
0.00966431
0.0100007
0.0103745
0.0108023
0.0112857
0.0118279
0.012436
0.0131194
0.0138623
0.00780313
0.00780345
0.00780558
0.00780736
0.0078084
0.00781013
0.00781545
0.0078224
0.0078323
0.00784597
0.00786776
0.00789681
0.00793481
0.00798223
0.00804265
0.00811469
0.00820376
0.00830978
0.00843412
0.00857875
0.0087466
0.00894254
0.00917165
0.00943137
0.00973115
0.0100679
0.0104539
0.010891
0.0113825
0.011932
0.0125447
0.0132276
0.0139924
0.00780476
0.00780657
0.00780709
0.00780794
0.00780858
0.00781027
0.00781614
0.00782504
0.00783727
0.0078552
0.0078777
0.00790853
0.00794843
0.00799911
0.00806399
0.00813995
0.00823347
0.00834496
0.0084755
0.00862779
0.00880591
0.0090139
0.00924826
0.00951576
0.00982708
0.0101824
0.0105802
0.011021
0.0115228
0.012089
0.01273
0.0134262
0.0141867
0.00781415
0.00781621
0.00781707
0.00781881
0.00782294
0.00782895
0.00783557
0.00784576
0.00786055
0.00788223
0.00790912
0.00794541
0.00799174
0.00805071
0.00812044
0.00820394
0.00830066
0.00841762
0.00855563
0.00871738
0.00890653
0.00912697
0.0093736
0.00965304
0.00997757
0.0103445
0.0107503
0.0112126
0.0117335
0.0123164
0.0129677
0.0136963
0.0144828
0.00783653
0.00783669
0.00783897
0.00784155
0.00784871
0.00785734
0.00787085
0.00788767
0.00790791
0.00793372
0.00796947
0.008014
0.00806719
0.00813046
0.00820696
0.00829931
0.00840674
0.00853609
0.00868773
0.00886435
0.00906989
0.00930803
0.00957253
0.00986956
0.0102111
0.0105931
0.0110295
0.0115203
0.0120675
0.0126728
0.0133372
0.0140688
0.0148739
0.00786374
0.00786613
0.0078715
0.00787948
0.00788956
0.00790288
0.00792293
0.00794733
0.00797609
0.00801103
0.00805538
0.00810702
0.00817252
0.00825352
0.00834554
0.00845299
0.00858072
0.0087272
0.00889212
0.00908621
0.00931158
0.00957292
0.00986317
0.0101884
0.0105594
0.0109719
0.011442
0.0119677
0.0125489
0.0131866
0.0138863
0.0146502
0.0154845
0.00793705
0.00794202
0.00794847
0.00795952
0.00797575
0.00799657
0.0080257
0.00806172
0.00810339
0.0081522
0.00821035
0.00827692
0.00835771
0.00845362
0.00856592
0.00869839
0.00884746
0.00901916
0.0092105
0.00943189
0.00968344
0.0099692
0.0102934
0.0106629
0.0110696
0.0115249
0.0120239
0.0125813
0.0131927
0.0138525
0.0145896
0.0154046
0.0163077
0.00809481
0.00809668
0.00810279
0.00811792
0.00814055
0.00817157
0.00821448
0.00826522
0.00832261
0.00838727
0.00846195
0.00855083
0.00865092
0.00876903
0.0089082
0.00907104
0.00925171
0.00945581
0.00968988
0.00995186
0.010239
0.0105682
0.0109435
0.0113528
0.0118015
0.0122957
0.0128477
0.0134484
0.0141194
0.0148573
0.0156596
0.0165269
0.0174576
0.00838266
0.00838757
0.00840049
0.00841873
0.0084483
0.00848933
0.00854406
0.00860625
0.00868264
0.00877251
0.0088792
0.00899615
0.00912982
0.00927722
0.00944921
0.00964771
0.00987551
0.0101243
0.0104005
0.0107144
0.011063
0.0114447
0.011856
0.0123198
0.0128414
0.0134027
0.0140161
0.0146951
0.0154211
0.0162209
0.0170786
0.0179733
0.0189527
0.00888467
0.00889488
0.00891693
0.00894619
0.0089894
0.00904699
0.0091218
0.00920751
0.00931163
0.00943115
0.0095654
0.00971671
0.00989143
0.0100825
0.0103042
0.010554
0.0108317
0.0111381
0.0114821
0.0118552
0.012273
0.0127279
0.0132113
0.0137495
0.0143406
0.0149858
0.0156964
0.0164437
0.0172454
0.0181289
0.0190693
0.0200377
0.0210899
0.00971773
0.00973949
0.00977147
0.00982175
0.00988699
0.00996602
0.0100603
0.0101736
0.0103148
0.0104781
0.0106611
0.0108677
0.011106
0.0113632
0.0116548
0.0119773
0.0123294
0.0127104
0.0131237
0.0135767
0.0140819
0.0146226
0.0152213
0.0158733
0.0165724
0.017315
0.0181015
0.0189329
0.0198189
0.0207807
0.0217639
0.022796
0.0239196
0.0109826
0.0110044
0.0110518
0.0111112
0.0111976
0.0113091
0.011447
0.0116161
0.0118014
0.0120214
0.0122684
0.0125407
0.0128428
0.0131841
0.0135495
0.0139602
0.0144092
0.0148902
0.0154056
0.0159628
0.016567
0.0172316
0.0179282
0.0186954
0.0195145
0.0203816
0.0212878
0.0222275
0.0232015
0.0242134
0.0252707
0.0264002
0.0275209
0.0124074
0.0124271
0.0124708
0.0125503
0.0126486
0.0127924
0.0129831
0.0131872
0.0134157
0.0136928
0.0140042
0.014346
0.0147192
0.0151307
0.0155927
0.0160758
0.0166152
0.0171893
0.0177842
0.0184686
0.0191738
0.0199111
0.0206922
0.0215473
0.022424
0.0233795
0.0243823
0.0254136
0.0264666
0.0275345
0.0286135
0.0297022
0.0308065
0.00840805
0.00840356
0.00839587
0.00838286
0.00836397
0.00834032
0.00831503
0.00828809
0.00826004
0.00822957
0.00819904
0.0081698
0.00814323
0.00811831
0.00809739
0.00808127
0.00807159
0.00807153
0.00808348
0.00810758
0.00814813
0.00820502
0.00828482
0.00838992
0.0085227
0.00868748
0.00888767
0.00913061
0.00942415
0.00976686
0.01017
0.0106335
0.0111571
0.00840738
0.0084039
0.00839522
0.00838245
0.00836529
0.00834444
0.00831999
0.00829479
0.00826685
0.0082367
0.00820523
0.0081762
0.00814824
0.00812215
0.00809842
0.00808119
0.00807205
0.00807391
0.00808445
0.00810834
0.00815014
0.00820974
0.0082879
0.00839258
0.00852667
0.00869317
0.00889791
0.00914742
0.00944129
0.00978854
0.0101881
0.0106539
0.0111863
0.00840284
0.00839761
0.00838697
0.00837438
0.00835932
0.00833969
0.00831631
0.00829038
0.00826148
0.00823256
0.00820288
0.00817283
0.00814426
0.00812104
0.00810252
0.00808855
0.00808051
0.00808063
0.00809227
0.00811886
0.00815966
0.00822192
0.00830708
0.00841756
0.00855543
0.00872486
0.00892982
0.00917814
0.00947737
0.00982532
0.0102331
0.0107
0.0112419
0.0083861
0.0083826
0.00837381
0.00836152
0.00834589
0.0083279
0.0083066
0.00828121
0.00825331
0.00822461
0.00819606
0.00816803
0.00814137
0.00812014
0.00810385
0.00809216
0.00808652
0.00808944
0.00810437
0.00813413
0.00817935
0.0082459
0.00833572
0.00845088
0.00859309
0.00876622
0.00897605
0.00922752
0.00952703
0.00988292
0.010295
0.0107788
0.0113359
0.00836809
0.00836462
0.00835551
0.0083427
0.00832668
0.00830894
0.00828724
0.00826251
0.00823488
0.00820792
0.00818112
0.00815528
0.00813233
0.00811185
0.00809688
0.00808754
0.00808551
0.00809346
0.00811558
0.00815058
0.00820258
0.00827195
0.00836687
0.00848782
0.00863772
0.00882037
0.00903908
0.00930154
0.00961707
0.00998354
0.0104121
0.0109007
0.0114665
0.00834191
0.00833784
0.00832985
0.00831808
0.00830302
0.00828526
0.0082646
0.00824084
0.00821544
0.00819017
0.00816602
0.00814404
0.00812477
0.00810807
0.00809698
0.00809189
0.00809399
0.00810595
0.00813163
0.00817406
0.00823233
0.00831386
0.00841967
0.00855209
0.00871335
0.00890794
0.00913939
0.00941445
0.00973989
0.0101252
0.0105675
0.0110828
0.0116722
0.00830499
0.00830068
0.00829372
0.00828244
0.00826666
0.00824749
0.00822778
0.00820704
0.00818673
0.00816525
0.00814617
0.0081303
0.00811508
0.00810338
0.00809876
0.0081018
0.00811366
0.008137
0.00817572
0.00822759
0.008298
0.00839266
0.00851163
0.00865601
0.00882832
0.00903995
0.00929822
0.00959785
0.00994714
0.0103559
0.0108202
0.0113543
0.011955
0.00823326
0.00823163
0.00822488
0.00821618
0.0082058
0.00819401
0.00818087
0.00816571
0.00814997
0.00813667
0.00812506
0.00811552
0.00810971
0.00811074
0.00811679
0.00813204
0.00815727
0.00819377
0.00824414
0.00831261
0.0084032
0.0085147
0.00865306
0.0088202
0.00901588
0.00925244
0.00953559
0.00986996
0.0102509
0.010687
0.0111903
0.0117564
0.012405
0.00816059
0.00815708
0.0081516
0.00814667
0.00814207
0.00813528
0.0081291
0.00812235
0.00811556
0.00811132
0.00810821
0.00811011
0.00811807
0.00813442
0.00815747
0.00819046
0.00823262
0.00829028
0.00836564
0.00846276
0.0085776
0.00871588
0.00888452
0.00908251
0.00931848
0.00959413
0.00991275
0.0102791
0.0106962
0.0111724
0.0117208
0.0123335
0.0130262
0.0080939
0.00809306
0.00809249
0.00809214
0.00809157
0.00809201
0.00809468
0.00809927
0.00810505
0.00811405
0.00812855
0.00814928
0.00817626
0.00821084
0.0082555
0.00831278
0.00838658
0.00847829
0.00858814
0.00871798
0.00886875
0.00904561
0.00925373
0.00950114
0.00978527
0.0101047
0.0104739
0.0108954
0.0113717
0.0119087
0.0125129
0.0131976
0.0139497
0.00808969
0.00808984
0.00809204
0.00809441
0.00810094
0.00811278
0.008126
0.00814458
0.00816786
0.00819705
0.00823533
0.00827945
0.0083341
0.00839988
0.0084795
0.00857691
0.00869
0.00882249
0.00897249
0.00914878
0.00935233
0.00958513
0.00985237
0.0101617
0.0105087
0.0109017
0.011337
0.0118319
0.0123866
0.0130029
0.0136844
0.0144369
0.0152782
0.00821073
0.00821498
0.00822605
0.00824155
0.00826122
0.00828551
0.00831658
0.00835691
0.00840663
0.00846543
0.00853361
0.00861488
0.00870725
0.00881648
0.00894331
0.00909084
0.00926336
0.00945402
0.00967173
0.00991324
0.01019
0.0105012
0.0108492
0.011241
0.0116862
0.012173
0.0127149
0.0133028
0.0139609
0.0146855
0.0154743
0.0163264
0.0172463
0.00858186
0.00859071
0.00861057
0.00863546
0.0086728
0.00872188
0.00878523
0.0088564
0.008944
0.00904597
0.00916224
0.00929589
0.00945201
0.00962728
0.00981836
0.0100393
0.0102929
0.0105679
0.0108726
0.0112175
0.0115979
0.0120072
0.012465
0.0129703
0.0135282
0.0141472
0.0148043
0.0155119
0.0162893
0.017114
0.0180204
0.0189958
0.020038
0.00930332
0.00931903
0.00935438
0.00939883
0.00946294
0.00954726
0.00965481
0.00977515
0.00991802
0.0100815
0.010264
0.0104667
0.0106939
0.0109541
0.0112347
0.0115528
0.011904
0.0122874
0.0127099
0.013182
0.0136865
0.0142449
0.0148451
0.0154758
0.0161719
0.0169265
0.0177396
0.0186234
0.0195329
0.0204892
0.0215248
0.0225903
0.0237283
0.0102253
0.010247
0.0102957
0.0103567
0.0104463
0.0105607
0.0107008
0.0108721
0.0110594
0.0112821
0.011533
0.0118102
0.0121186
0.0124706
0.0128449
0.0132653
0.0137209
0.0142019
0.0147533
0.0153336
0.0159475
0.0166068
0.0173333
0.0180927
0.0189307
0.0198298
0.0207767
0.0217634
0.0227845
0.0238424
0.0249459
0.0261222
0.0272722
0.00936054
0.0093546
0.00934088
0.00932035
0.00929307
0.0092601
0.00921991
0.00917291
0.00912124
0.00906355
0.00900059
0.0089344
0.00886378
0.00879011
0.00871289
0.00863449
0.00855672
0.00848079
0.00841063
0.00834793
0.00829343
0.00825039
0.00822171
0.00821095
0.00821984
0.00825443
0.00831537
0.00841244
0.00855044
0.00873454
0.00896982
0.00926468
0.00962822
0.00935742
0.00935167
0.00933836
0.00931888
0.00929303
0.00925922
0.00921835
0.00917111
0.00911944
0.00906238
0.00900039
0.00893302
0.00886153
0.00878629
0.00870845
0.00863041
0.00855439
0.00847988
0.00840892
0.00834481
0.0082901
0.00824798
0.00822136
0.00821019
0.00821929
0.00825517
0.00832013
0.00841716
0.00855638
0.00874159
0.00898008
0.00928023
0.00964179
0.00935298
0.0093463
0.00933261
0.00931253
0.00928591
0.00925229
0.00921179
0.00916474
0.009113
0.00905542
0.00899196
0.00892402
0.00885091
0.00877622
0.00870167
0.00862509
0.0085499
0.00847609
0.00840751
0.00834575
0.00829285
0.00825067
0.00822178
0.00821129
0.00822419
0.00826174
0.00833192
0.00843709
0.00858228
0.00877264
0.00901347
0.00931393
0.00968369
0.00933209
0.00932567
0.0093115
0.00929142
0.00926607