/*--------------------------------*- C++ -*----------------------------------*\
| =========                 |                                                 |
| \\      /  F ield         | OpenFOAM: The Open Source CFD Toolbox           |
|  \\    /   O peration     | Version:  2412                                  |
|   \\  /    A nd           | Website:  www.openfoam.com                      |
|    \\/     M anipulation  |                                                 |
\*---------------------------------------------------------------------------*/
FoamFile
{
    version     2.0;
    format      ascii;
    arch        "LSB;label=32;scalar=64";
    class       volScalarField;
    location    "0.0350058";
    object      ionicCurrent;
}
// * * * * * * * * * * * * * * * * * * * * * * * * * * * * * * * * * * * * * //

dimensions      [1 2 -4 0 0 -1 0];

internalField   nonuniform List<scalar> 
8835
(
1.06291e-05
8.28486e-06
6.42128e-06
4.9506e-06
3.79893e-06
2.90216e-06
2.20647e-06
1.66852e-06
1.25426e-06
9.37029e-07
6.95757e-07
5.13502e-07
3.76662e-07
2.74496e-07
1.98667e-07
1.42756e-07
1.01829e-07
7.20916e-08
1.04173e-05
8.11881e-06
6.29219e-06
4.85109e-06
3.72267e-06
2.84391e-06
2.16208e-06
1.63482e-06
1.22881e-06
9.17976e-07
6.81614e-07
5.03086e-07
3.69042e-07
2.68956e-07
1.94664e-07
1.39882e-07
9.97792e-08
7.06397e-08
1.00048e-05
7.79647e-06
6.04189e-06
4.65817e-06
3.57493e-06
2.73126e-06
2.07648e-06
1.56999e-06
1.17996e-06
8.81393e-07
6.54411e-07
4.8299e-07
3.54284e-07
2.58182e-07
1.86849e-07
1.34253e-07
9.57552e-08
6.77837e-08
9.40775e-06
7.32953e-06
5.67907e-06
4.37845e-06
3.36055e-06
2.5676e-06
1.95194e-06
1.4756e-06
1.10881e-06
8.28133e-07
6.14818e-07
4.5374e-07
3.32798e-07
2.42491e-07
1.75464e-07
1.26051e-07
8.98901e-08
6.36196e-08
8.64742e-06
6.7351e-06
5.21762e-06
4.02272e-06
3.08766e-06
2.35893e-06
1.7929e-06
1.35493e-06
1.01781e-06
7.60007e-07
5.64192e-07
4.1636e-07
3.05357e-07
2.22464e-07
1.6094e-07
1.15593e-07
8.24124e-08
5.83102e-08
7.75918e-06
6.04106e-06
4.67935e-06
3.60801e-06
2.76944e-06
2.11547e-06
1.60723e-06
1.21402e-06
9.1157e-07
6.80493e-07
5.05088e-07
3.72691e-07
2.73276e-07
1.99037e-07
1.43949e-07
1.03357e-07
7.36629e-08
5.20969e-08
6.78162e-06
5.279e-06
4.08964e-06
3.1541e-06
2.42131e-06
1.84928e-06
1.40447e-06
1.06039e-06
7.95919e-07
5.94011e-07
4.40796e-07
3.25144e-07
2.38301e-07
1.73467e-07
1.25383e-07
8.99733e-08
6.40843e-08
4.529e-08
5.76481e-06
4.48777e-06
3.4779e-06
2.68316e-06
2.05995e-06
1.57297e-06
1.19417e-06
9.01267e-07
6.76297e-07
5.04609e-07
3.74316e-07
2.75951e-07
2.02097e-07
1.4699e-07
1.06154e-07
7.6109e-08
5.41583e-08
3.82347e-08
4.76039e-06
3.70675e-06
2.87354e-06
2.21709e-06
1.7017e-06
1.29875e-06
9.85451e-07
7.43436e-07
5.57699e-07
4.15975e-07
3.08398e-07
2.27176e-07
1.66217e-07
1.20771e-07
8.71299e-08
6.24013e-08
4.43504e-08
3.1268e-08
3.81578e-06
2.97179e-06
2.30376e-06
1.77685e-06
1.36293e-06
1.03944e-06
7.88224e-07
5.94383e-07
4.45691e-07
3.32226e-07
2.46094e-07
1.81086e-07
1.3234e-07
9.60421e-08
6.92031e-08
4.94944e-08
3.51226e-08
2.47198e-08
2.97171e-06
2.31416e-06
1.79308e-06
1.38179e-06
1.05886e-06
8.06834e-07
6.11408e-07
4.60748e-07
3.45205e-07
2.57047e-07
1.9016e-07
1.39732e-07
1.01973e-07
7.38956e-08
5.31607e-08
3.79529e-08
2.6879e-08
1.88774e-08
2.25943e-06
1.75819e-06
1.36075e-06
1.04729e-06
8.01575e-07
6.10179e-07
4.61945e-07
3.47728e-07
2.60167e-07
1.93411e-07
1.42832e-07
1.04768e-07
7.63188e-08
5.51986e-08
3.96251e-08
2.82226e-08
1.99368e-08
1.39641e-08
1.70085e-06
1.32159e-06
1.02125e-06
7.8487e-07
5.99977e-07
4.5616e-07
3.44856e-07
2.59147e-07
1.9351e-07
1.43554e-07
1.05785e-07
7.74218e-08
5.62644e-08
4.05875e-08
2.90526e-08
2.06286e-08
1.4525e-08
1.01391e-08
1.3142e-06
1.01942e-06
7.86515e-07
6.03611e-07
4.60758e-07
3.4974e-07
2.63895e-07
1.97881e-07
1.47425e-07
1.09112e-07
8.02127e-08
5.85565e-08
4.24353e-08
3.05177e-08
2.17726e-08
1.54057e-08
1.08079e-08
7.51529e-09
1.11511e-06
8.6397e-07
6.65882e-07
5.10502e-07
3.89225e-07
2.95033e-07
2.22267e-07
1.66388e-07
1.23752e-07
9.14345e-08
6.70951e-08
4.88827e-08
3.53469e-08
2.53595e-08
1.8047e-08
1.27358e-08
8.90986e-09
6.17692e-09
6.59997e-05
5.17093e-05
4.02633e-05
3.11135e-05
2.38872e-05
1.82598e-05
1.39103e-05
1.0556e-05
7.96889e-06
5.97617e-06
4.45017e-06
3.29258e-06
2.42212e-06
1.77152e-06
1.28741e-06
9.28918e-07
6.65175e-07
4.72723e-07
6.4697e-05
5.06823e-05
3.94566e-05
3.04875e-05
2.34066e-05
1.78936e-05
1.36318e-05
1.03441e-05
7.80778e-06
5.85449e-06
4.35933e-06
3.22555e-06
2.37312e-06
1.73591e-06
1.26164e-06
9.10345e-07
6.51877e-07
4.63273e-07
6.21738e-05
4.87055e-05
3.79067e-05
2.92789e-05
2.24799e-05
1.71903e-05
1.31001e-05
9.94187e-06
7.50316e-06
5.6246e-06
4.18734e-06
3.09807e-06
2.27929e-06
1.66719e-06
1.21154e-06
8.74049e-07
6.25797e-07
4.44694e-07
5.85318e-05
4.5838e-05
3.56456e-05
2.75189e-05
2.11296e-05
1.61631e-05
1.23211e-05
9.35106e-06
7.05554e-06
5.2872e-06
3.93523e-06
2.91141e-06
2.14199e-06
1.56667e-06
1.1383e-06
8.21006e-07
5.87695e-07
4.17554e-07
5.38739e-05
4.21618e-05
3.27555e-05
2.52716e-05
1.94056e-05
1.48492e-05
1.13214e-05
8.59072e-06
6.47848e-06
4.85202e-06
3.61052e-06
2.67147e-06
1.96581e-06
1.43787e-06
1.04454e-06
7.53186e-07
5.39022e-07
3.82893e-07
4.8441e-05
3.78652e-05
2.93767e-05
2.26561e-05
1.74023e-05
1.33206e-05
1.01554e-05
7.70134e-06
5.80275e-06
4.34308e-06
3.2312e-06
2.39111e-06
1.75972e-06
1.28702e-06
9.34688e-07
6.73747e-07
4.82034e-07
3.42315e-07
4.24132e-05
3.31068e-05
2.56635e-05
1.97983e-05
1.52186e-05
1.16557e-05
8.88555e-06
6.73373e-06
5.06919e-06
3.79196e-06
2.82088e-06
2.08748e-06
1.53595e-06
1.12277e-06
8.14822e-07
5.8695e-07
4.19701e-07
2.9788e-07
3.61042e-05
2.81406e-05
2.18127e-05
1.68426e-05
1.29602e-05
9.93135e-06
7.56901e-06
5.73137e-06
4.31136e-06
3.22413e-06
2.39834e-06
1.77441e-06
1.30481e-06
9.52903e-07
6.90829e-07
4.97175e-07
3.5521e-07
2.51877e-07
2.98357e-05
2.32373e-05
1.8024e-05
1.39323e-05
1.07278e-05
8.21896e-06
6.25806e-06
4.73373e-06
3.55895e-06
2.66132e-06
1.97954e-06
1.46386e-06
1.07539e-06
7.8439e-07
5.67991e-07
4.08354e-07
2.91451e-07
2.06412e-07
2.39102e-05
1.86289e-05
1.44643e-05
1.11893e-05
8.61509e-06
6.59383e-06
5.01412e-06
3.78941e-06
2.84825e-06
2.12966e-06
1.58341e-06
1.16979e-06
8.58202e-07
6.25093e-07
4.52083e-07
3.24637e-07
2.31385e-07
1.636e-07
1.86208e-05
1.45229e-05
1.12851e-05
8.72837e-06
6.7121e-06
5.12884e-06
3.89507e-06
2.94202e-06
2.21071e-06
1.65209e-06
1.22701e-06
9.05106e-07
6.6292e-07
4.82131e-07
3.482e-07
2.49653e-07
1.77608e-07
1.25306e-07
1.41772e-05
1.10646e-05
8.59445e-06
6.63704e-06
5.09335e-06
3.88532e-06
2.94802e-06
2.22547e-06
1.67094e-06
1.247e-06
9.24395e-07
6.80475e-07
4.97457e-07
3.61168e-07
2.60357e-07
1.86263e-07
1.32175e-07
9.29952e-08
1.07033e-05
8.34589e-06
6.46994e-06
4.98472e-06
3.81823e-06
2.90954e-06
2.20595e-06
1.6635e-06
1.24688e-06
9.28433e-07
6.86563e-07
5.04239e-07
3.67822e-07
2.6643e-07
1.91546e-07
1.36611e-07
9.66186e-08
6.77465e-08
8.29338e-06
6.45236e-06
4.98958e-06
3.83667e-06
2.93522e-06
2.23442e-06
1.69183e-06
1.27333e-06
9.52093e-07
7.07079e-07
5.21591e-07
3.82187e-07
2.781e-07
2.00866e-07
1.43939e-07
1.02296e-07
7.20856e-08
5.03551e-08
7.04384e-06
5.46974e-06
4.22324e-06
3.24431e-06
2.48023e-06
1.88629e-06
1.42627e-06
1.07154e-06
7.99671e-07
5.92818e-07
4.36583e-07
3.19349e-07
2.31914e-07
1.67119e-07
1.19452e-07
8.46701e-08
5.95041e-08
4.14481e-08
0.000460793
0.00036216
0.000284769
0.000222183
0.000171123
0.000130554
9.9211e-05
7.53037e-05
5.70832e-05
4.30735e-05
3.22306e-05
2.38955e-05
1.75959e-05
1.28937e-05
9.40376e-06
6.81673e-06
4.90239e-06
3.49581e-06
0.0004516
0.000355078
0.000279202
0.000217869
0.00016766
0.000127892
9.71965e-05
7.37873e-05
5.59341e-05
4.21977e-05
3.15681e-05
2.34031e-05
1.72363e-05
1.2634e-05
9.21682e-06
6.68182e-06
4.80518e-06
3.42636e-06
0.000433924
0.000341718
0.000268806
0.000209451
0.000161047
0.000122862
9.34313e-05
7.09788e-05
5.38192e-05
4.05879e-05
3.03472e-05
2.24906e-05
1.65631e-05
1.2141e-05
8.85643e-06
6.41888e-06
4.6147e-06
3.28991e-06
0.000408699
0.00032231
0.000253277
0.000197019
0.000151298
0.000115432
8.78543e-05
6.68066e-05
5.06736e-05
3.81979e-05
2.85351e-05
2.11383e-05
1.55681e-05
1.14141e-05
8.32646e-06
6.033e-06
4.33539e-06
3.08998e-06
0.000376572
0.000297365
0.000233483
0.000180947
0.000138753
0.00010589
8.06815e-05
6.14162e-05
4.6587e-05
3.50767e-05
2.61715e-05
1.93837e-05
1.42833e-05
1.04784e-05
7.64525e-06
5.53761e-06
3.97751e-06
2.83416e-06
0.000339747
0.000268359
0.000209959
0.000162124
0.000124207
9.48482e-05
7.23547e-05
5.51058e-05
4.17639e-05
3.13943e-05
2.33971e-05
1.73306e-05
1.278e-05
9.38184e-06
6.8457e-06
4.95604e-06
3.55792e-06
2.53459e-06
0.00029889
0.000235777
0.000183601
0.000141446
0.000108411
8.29326e-05
6.33776e-05
4.82853e-05
3.65447e-05
2.7416e-05
2.0416e-05
1.51271e-05
1.11615e-05
8.19418e-06
5.97458e-06
4.32058e-06
3.09922e-06
2.20687e-06
0.000255982
0.000201034
0.000155864
0.00012003
9.21743e-05
7.07067e-05
5.41291e-05
4.1221e-05
3.11353e-05
2.33194e-05
1.73613e-05
1.28695e-05
9.49783e-06
6.96834e-06
5.07375e-06
3.66389e-06
2.62574e-06
1.86851e-06
0.000212906
0.00016606
0.000128499
9.90813e-05
7.62943e-05
5.86605e-05
4.49149e-05
3.4138e-05
2.57224e-05
1.92511e-05
1.43396e-05
1.06357e-05
7.84709e-06
5.74925e-06
4.17836e-06
3.01315e-06
2.15757e-06
1.5341e-06
0.000170825
0.000132796
0.000102832
7.95165e-05
6.14113e-05
4.72575e-05
3.6119e-05
2.73702e-05
2.05912e-05
1.54134e-05
1.14891e-05
8.522e-06
6.28008e-06
4.59179e-06
3.33107e-06
2.39934e-06
1.71642e-06
1.21888e-06
0.000132691
0.00010321
8.01558e-05
6.21736e-05
4.80648e-05
3.6918e-05
2.81174e-05
2.12583e-05
1.59897e-05
1.19765e-05
8.92881e-06
6.61575e-06
4.86472e-06
3.549e-06
2.57061e-06
1.84945e-06
1.32122e-06
9.36356e-07
0.000100686
7.85702e-05
6.12222e-05
4.75274e-05
3.66539e-05
2.80352e-05
2.12908e-05
1.60873e-05
1.21055e-05
9.0677e-06
6.75144e-06
4.98955e-06
3.65883e-06
2.66397e-06
1.92677e-06
1.38399e-06
9.86465e-07
6.97091e-07
7.59781e-05
5.94552e-05
4.63362e-05
3.5863e-05
2.75343e-05
2.0998e-05
1.5936e-05
1.20447e-05
9.06168e-06
6.7765e-06
5.0304e-06
3.70569e-06
2.7107e-06
1.96987e-06
1.4218e-06
1.01844e-06
7.23388e-07
5.09288e-07
5.90481e-05
4.61794e-05
3.58621e-05
2.76308e-05
2.11523e-05
1.61183e-05
1.22329e-05
9.24107e-06
6.93886e-06
5.1722e-06
3.82644e-06
2.81139e-06
2.05233e-06
1.48818e-06
1.07105e-06
7.64442e-07
5.4086e-07
3.79335e-07
5.02839e-05
3.92232e-05
3.03546e-05
2.3331e-05
1.78476e-05
1.35999e-05
1.03184e-05
7.78452e-06
5.83179e-06
4.33614e-06
3.20168e-06
2.34904e-06
1.71235e-06
1.23927e-06
8.89647e-07
6.33176e-07
4.46753e-07
3.12497e-07
0.216915
0.166291
0.130776
0.104199
0.00123791
0.000948605
0.000716154
0.000537951
0.000405914
0.000308281
0.000233594
0.000174454
0.0001285
9.39724e-05
6.8549e-05
4.99208e-05
3.61516e-05
2.59106e-05
0.212158
0.162881
0.12839
0.102638
0.00121422
0.000928802
0.000700826
0.000526596
0.000397604
0.000302054
0.000228806
0.000170805
0.000125803
9.20402e-05
6.71845e-05
4.89482e-05
3.54467e-05
2.54006e-05
0.20276
0.156548
0.123961
0.0990325
0.00116844
0.000892432
0.000673113
0.000506261
0.000382901
0.000291096
0.000220347
0.000164324
0.000120958
8.84856e-05
6.45993e-05
4.70616e-05
3.40671e-05
2.43979e-05
0.18964
0.14748
0.117277
0.0939018
0.00109922
0.000837241
0.000631309
0.0004758
0.000360927
0.000274733
0.000207703
0.000154518
0.000113654
8.31732e-05
6.07694e-05
4.42824e-05
3.20305e-05
2.29205e-05
0.173238
0.13627
0.109054
0.0870605
0.00100812
0.000765689
0.000577471
0.000436606
0.000332377
0.000253073
0.000190737
0.000141543
0.000104103
7.62882e-05
5.58265e-05
4.06958e-05
2.94085e-05
2.10237e-05
0.155427
0.123689
0.0991849
0.00117491
0.000901033
0.000682497
0.000515363
0.000391189
0.000298611
0.000227197
0.000170435
0.000126227
9.29055e-05
6.82374e-05
5.00339e-05
3.64781e-05
2.63222e-05
1.88004e-05
0.136839
0.110004
0.0882411
0.00102693
0.000783555
0.000593262
0.000449798
0.000343335
0.000262596
0.000199099
0.000148648
0.000109967
8.10375e-05
5.96389e-05
4.37553e-05
3.18532e-05
2.29377e-05
1.63681e-05
0.118242
0.0955494
0.00112975
0.000869368
0.00066187
0.000502741
0.000383922
0.0002946
0.000225175
0.000169697
0.000126291
9.34252e-05
6.89746e-05
5.08413e-05
3.72786e-05
2.70628e-05
1.94468e-05
1.38669e-05
0.100369
0.00120131
0.000931407
0.000713115
0.00054348
0.00041568
0.000319858
0.000245924
0.000186928
0.00014007
0.000104133
7.71685e-05
5.71088e-05
4.21096e-05
3.07941e-05
2.22839e-05
1.59885e-05
1.1398e-05
0.00123418
0.000962311
0.00074053
0.00056691
0.000435049
0.00033588
0.000259451
0.000198631
0.000149797
0.000111946
8.3318e-05
6.19179e-05
4.58893e-05
3.3773e-05
2.46018e-05
1.77584e-05
1.27318e-05
9.07456e-06
0.000961327
0.000743042
0.000571316
0.000440255
0.000341321
0.000264923
0.000203919
0.000154628
0.000116141
8.68342e-05
6.48149e-05
4.82719e-05
3.57317e-05
2.61886e-05
1.90123e-05
1.37049e-05
9.82214e-06
6.99457e-06
0.000723672
0.000559218
0.000433279
0.000337546
0.000263053
0.000203277
0.000154797
0.000116791
8.77256e-05
6.5786e-05
4.92275e-05
3.66214e-05
2.69812e-05
1.96901e-05
1.42663e-05
1.02772e-05
7.35857e-06
5.22737e-06
0.00053965
0.000420482
0.000329278
0.000257534
0.000199605
0.000152542
0.000115577
8.72069e-05
6.56948e-05
4.93766e-05
3.68929e-05
2.73032e-05
2.00175e-05
1.45717e-05
1.05469e-05
7.58804e-06
5.41735e-06
3.8315e-06
0.000417093
0.000328009
0.000257404
0.000200091
0.000153413
0.000116679
8.84075e-05
6.68822e-05
5.04743e-05
3.78584e-05
2.81334e-05
2.07146e-05
1.51468e-05
1.10142e-05
7.96223e-06
5.71229e-06
4.06015e-06
2.85849e-06
0.00035575
0.000280329
0.000219156
0.000168915
0.000128968
9.80406e-05
7.44099e-05
5.6377e-05
4.25053e-05
3.17693e-05
2.35156e-05
1.72782e-05
1.26249e-05
9.17456e-06
6.62069e-06
4.73524e-06
3.35435e-06
2.35494e-06
1.80186
1.28304
0.931588
0.730906
0.590195
0.466291
0.356246
0.263637
0.192475
0.143432
0.110182
0.00127478
0.000948339
0.000691043
0.000499198
0.000362092
0.000264461
0.000192008
1.76008
1.24854
0.911533
0.718759
0.580007
0.457112
0.348407
0.257555
0.188117
0.140438
0.107998
0.0012486
0.00092801
0.000676153
0.000488812
0.000355009
0.00025945
0.00018831
1.66476
1.18177
0.874153
0.696362
0.561505
0.440854
0.334503
0.24661
0.180503
0.135466
0.104367
0.0012047
0.00089348
0.000649985
0.000469793
0.000341547
0.00024984
0.000181079
1.53146
1.09026
0.823435
0.662695
0.532235
0.414941
0.312926
0.23014
0.169271
0.128103
0.0991642
0.00113689
0.000839692
0.000609938
0.000441383
0.000321678
0.000235345
0.000170265
1.35609
0.98045
0.762377
0.617802
0.492645
0.38054
0.284556
0.208737
0.154834
0.118379
0.0919265
0.00104319
0.000767271
0.000557171
0.000404602
0.00029608
0.000216825
0.000156305
1.16713
0.87041
0.696748
0.563716
0.444239
0.338789
0.251128
0.184451
0.138625
0.10712
0.00124397
0.000929319
0.000681158
0.000495544
0.000362105
0.00026633
0.000194701
0.000139839
0.98406
0.768021
0.624767
0.500669
0.388855
0.292578
0.215551
0.159915
0.1223
0.0954273
0.00109068
0.000808175
0.000590827
0.000431204
0.000317001
0.000233724
0.000170054
0.00012169
0.828161
0.671765
0.544573
0.429571
0.328224
0.244054
0.180393
0.136616
0.106142
0.00123776
0.000928617
0.000683813
0.000499968
0.000367209
0.000271563
0.000199791
0.000144436
0.000103034
0.703323
0.574265
0.457871
0.353982
0.265823
0.196927
0.148313
0.114981
0.0903577
0.00102887
0.000764251
0.000561318
0.000412395
0.000305216
0.00022608
0.00016515
0.000118752
8.459e-05
0.587583
0.471417
0.367217
0.278136
0.207105
0.155927
0.120789
0.0951681
0.00109844
0.000822328
0.000607358
0.000447406
0.000331716
0.000246861
0.000181886
0.000131795
9.44462e-05
6.73142e-05
0.470997
0.368382
0.280379
0.209831
0.158559
0.123224
0.097567
0.00113338
0.000853895
0.000634012
0.000468771
0.000348545
0.000260443
0.000193287
0.000141029
0.000101653
7.28076e-05
5.19982e-05
0.35851
0.273568
0.205786
0.15658
0.12237
0.0972726
0.00113427
0.00085821
0.000640325
0.00047578
0.000355347
0.000266739
0.000199
0.000146009
0.000105794
7.61328e-05
5.46274e-05
3.90547e-05
0.262829
0.198697
0.152415
0.119917
0.0956184
0.00111771
0.000848475
0.000635629
0.000474507
0.000356103
0.00026851
0.000201202
0.000148304
0.000107969
7.80619e-05
5.62648e-05
4.04092e-05
2.87825e-05
0.196319
0.151537
0.119835
0.0958378
0.00112293
0.000854952
0.000642882
0.00048197
0.000363184
0.00027476
0.000206702
0.000153053
0.00011192
8.13008e-05
5.88861e-05
4.25023e-05
3.04255e-05
2.15237e-05
0.16415
0.129656
0.103851
0.00123157
0.000943709
0.000712646
0.000535355
0.000403786
0.00030643
0.000232006
0.000173104
0.000127302
9.28814e-05
6.75428e-05
4.89929e-05
3.53069e-05
2.51561e-05
1.77186e-05
-151.027
-218.097
-152.834
-35.6821
2.35867
2.28064
2.21559
2.14915
1.58908
1.07744
0.780575
0.607797
0.468867
0.348141
0.248634
0.174442
0.125624
0.0935887
-159.436
-216.671
-141.377
-28.8672
2.3539
2.27689
2.20525
2.13977
1.54947
1.04836
0.764816
0.596818
0.459631
0.34066
0.242917
0.170614
0.123238
0.0918737
-172.076
-217.183
-118.447
-19.2593
2.33944
2.26322
2.19933
2.13515
1.46963
1.00231
0.741303
0.579627
0.444698
0.327842
0.232748
0.163687
0.11892
0.0890121
-192.498
-205.992
-89.5701
-6.05206
2.32023
2.25284
2.18325
2.12145
1.35247
0.933191
0.704264
0.551305
0.420262
0.307529
0.217361
0.153447
0.112224
0.0012594
-211.438
-171.731
-51.795
2.37806
2.29775
2.22485
2.16448
1.74912
1.19603
0.846908
0.65435
0.510742
0.385587
0.279578
0.197054
0.140583
0.104288
0.00116234
-214.815
-115.412
-18.9077
2.33949
2.2712
2.20072
2.13673
1.50889
1.02968
0.757768
0.594278
0.459686
0.342651
0.246063
0.173948
0.126241
0.0946985
0.00104491
-173.172
-55.0419
2.38101
2.30037
2.23512
2.16763
1.81566
1.24956
0.877002
0.67451
0.529522
0.403652
0.295981
0.210547
0.150445
0.11142
0.00125682
0.000911914
-91.4525
-8.54851
2.33176
2.25858
2.18922
2.13374
1.46449
1.0086
0.750375
0.591302
0.458768
0.343085
0.247535
0.176085
0.128441
0.0969085
0.00107702
0.000772904
-21.1667
2.35025
2.2765
2.20663
2.14947
1.63254
1.12484
0.81535
0.63999
0.503157
0.382808
0.280454
0.200226
0.144429
0.107875
0.00122169
0.000889495
0.000632571
2.35538
2.28114
2.21901
2.15427
1.73113
1.20324
0.862533
0.672607
0.532907
0.410342
0.304427
0.219126
0.157563
0.117006
0.0890895
0.000984638
0.000707044
0.000500077
2.2811
2.21953
2.15519
1.75825
1.23086
0.882117
0.687876
0.548141
0.425512
0.318382
0.230782
0.166175
0.123116
0.0938405
0.00105122
0.000761209
0.000541744
0.000384027
2.21549
2.15232
1.71502
1.20734
0.874381
0.68598
0.548423
0.427248
0.321383
0.234462
0.169699
0.126087
0.0964881
0.00108749
0.000792498
0.000567003
0.000403455
0.000288899
2.14826
1.64388
1.16015
0.85321
0.675835
0.541763
0.422856
0.318757
0.233349
0.169772
0.126803
0.0974678
0.00110355
0.000808239
0.000581171
0.000415274
0.00029836
0.000215138
1.61661
1.14534
0.850312
0.677434
0.544384
0.425804
0.321876
0.236465
0.172654
0.129279
0.0993157
0.00113452
0.00083503
0.000603469
0.000433456
0.000312944
0.000226656
0.000162112
1.26574
0.926165
0.729925
0.590143
0.466383
0.356456
0.264025
0.192769
0.143469
0.110085
0.00127333
0.000946705
0.000688808
0.00049624
0.000358618
0.00026076
0.000188358
0.00013351
-10.061
-16.4452
-20.8319
-24.8094
-29.2361
-37.5351
-56.9657
-101.063
-186.308
-205.445
-73.7201
2.37441
2.2835
2.20782
2.14037
1.44474
0.938531
0.673015
-10.3272
-16.6211
-21.8933
-24.7965
-29.5491
-38.318
-58.3882
-106.175
-195.014
-197.138
-62.4748
2.36782
2.2801
2.2052
2.13816
1.40401
0.915837
0.661424
-11.6405
-17.851
-21.7973
-25.6773
-30.7308
-40.9257
-62.8274
-116.1
-203.794
-187.802
-50.4843
2.35966
2.27456
2.19263
2.12665
1.32903
0.875304
0.639798
-13.1453
-19.1812
-22.7603
-26.7185
-32.6979
-43.5758
-71.5839
-133.797
-217.504
-162.292
-29.6611
2.33951
2.25819
2.18506
2.12117
1.22315
0.818549
0.607315
-15.0448
-20.7059
-23.8075
-28.0235
-35.1697
-51.0095
-86.4725
-162.243
-220.063
-114.947
-6.56339
2.31474
2.23704
2.15908
1.66952
1.08568
0.750629
0.564881
-17.9943
-21.8756
-25.758
-30.932
-39.583
-61.6057
-112.255
-199.835
-197.973
-59.8128
2.36546
2.27967
2.20561
2.13901
1.43647
0.940941
0.679065
0.514415
-20.6769
-23.7537
-27.9178
-34.8916
-48.2266
-81.9884
-153.325
-224.12
-133.897
-13.5081
2.32105
2.24283
2.17181
1.78998
1.18384
0.805842
0.60453
0.455743
-22.9254
-26.765
-31.0566
-41.626
-66.0046
-118.613
-204.404
-189.78
-54.497
2.36269
2.27817
2.20436
2.13829
1.4516
0.957901
0.692683
0.527839
0.391875
-25.8331
-29.5135
-38.2266
-57.4203
-99.4759
-180.87
-216.596
-92.2027
-0.144351
2.30312
2.22756
2.16592
1.69403
1.11975
0.777075
0.589208
0.445468
0.323326
-29.6256
-36.466
-53.1343
-91.5589
-164.469
-220.687
-123.66
-11.9215
2.32226
2.24551
2.18254
2.1208
1.25763
0.852316
0.637969
0.487555
0.359966
0.254199
-36.4471
-52.8143
-89.9141
-160.666
-222.997
-130.884
-19.1452
2.33631
2.2591
2.188
2.12487
1.34734
0.906965
0.671621
0.516303
0.385872
0.276155
0.190756
-54.9943
-94.5018
-166.517
-220.992
-130.469
-18.0232
2.33651
2.25974
2.18924
2.12628
1.38445
0.934203
0.689451
0.532364
0.401083
0.28948
0.201335
0.140057
-100.739
-179.227
-215.01
-115.76
-13.0381
2.32783
2.25917
2.18874
2.12592
1.38173
0.938527
0.695576
0.539349
0.408534
0.296729
0.20755
0.144721
0.104803
-181.978
-212.181
-111.605
-13.1288
2.33116
2.26217
2.19104
2.12726
1.40579
0.95725
0.709724
0.552013
0.42003
0.306861
0.216128
0.151438
0.109681
0.00121476
-217.637
-150.33
-36.1059
2.36755
2.2877
2.21391
2.15375
1.60582
1.08602
0.784577
0.610319
0.470924
0.34961
0.249186
0.17422
0.124896
0.0926063
0.00100941
4.45759
3.91927
3.27525
3.0645
1.96933
0.347501
-2.2524
-6.4572
-12.6059
-19.3023
-24.4452
-29.5104
-38.8088
-60.4317
-115.884
-210.831
-173.579
-22.4962
4.57285
4.01368
3.43022
2.6486
1.48004
0.366061
-2.39977
-6.6926
-12.9321
-19.6145
-24.6172
-29.7169
-39.2002
-63.7126
-120.648
-214.272
-161.639
-15.8979
4.33439
3.79439
3.12533
2.87263
1.67486
-0.130242
-3.03729
-7.58853
-13.9998
-20.4529
-25.3028
-30.7577
-41.6556
-68.2695
-131.102
-218.124
-143.704
-6.74717
4.19135
3.59042
3.46048
2.54619
1.27628
-0.721853
-3.90647
-8.85294
-15.4688
-21.5901
-26.2274
-32.2529
-45.0269
-76.7708
-148.859
-223.221
-111.751
2.3891
4.13088
3.53965
2.76544
2.34027
0.829743
-1.49095
-5.22222
-10.8317
-17.5599
-23.0924
-27.687
-34.9713
-51.3328
-92.104
-176.526
-210.898
-67.2819
2.35337
3.70898
3.59469
2.75652
1.60448
-0.183901
-3.03075
-7.60689
-13.1978
-19.8234
-24.7438
-29.7774
-39.0779
-62.8616
-117.881
-211.647
-174.063
-24.5438
2.32082
3.43978
3.24832
2.24038
0.802334
-1.46603
-5.13465
-9.83361
-16.6593
-22.4687
-27.0525
-33.7203
-48.0853
-83.0831
-158.182
-227.083
-101.67
2.38408
2.28132
3.27958
2.3435
1.6549
-0.266128
-3.21134
-7.82765
-14.2156
-20.7537
-24.6963
-30.0602
-40.0327
-63.1842
-117.003
-210.759
-181.062
-30.7589
2.32591
2.24175
2.68198
1.46058
0.339401
-2.35406
-6.57318
-11.7251
-18.3676
-23.559
-28.1118
-35.5675
-52.0315
-91.8896
-173.413
-218.004
-81.5079
2.37259
2.27707
2.19381
1.94892
0.17403
-1.68626
-5.50069
-11.0853
-17.7833
-22.3567
-26.8733
-33.2468
-46.5832
-78.3122
-147.893
-224.731
-128.303
-4.3141
2.30093
2.22223
2.14562
0.179971
-1.66845
-5.43703
-10.9887
-16.6626
-22.2287
-26.5365
-32.4528
-44.7427
-71.6765
-134.047
-217.63
-154.599
-18.4525
2.32011
2.23936
2.16105
1.63963
-2.42881
-5.62364
-11.1878
-17.6815
-22.1587
-26.5604
-32.6093
-43.3166
-70.2791
-129.822
-215.775
-169.353
-28.2449
2.32823
2.24591
2.17364
1.73675
1.11354
-6.68957
-11.6182
-17.9676
-23.1387
-26.3282
-32.3032
-44.3853
-70.4299
-130.594
-215.967
-170.76
-30.9954
2.3323
2.24965
2.17701
1.79591
1.16281
0.770527
-12.5176
-17.9595
-23.0452
-26.0373
-31.703
-42.9856
-67.545
-126.183
-214.381
-178.082
-36.7495
2.34602
2.26198
2.18807
2.12376
1.22217
0.808781
0.592201
-16.3868
-21.8302
-24.792
-29.5361
-36.6598
-55.0229
-99.0316
-187.015
-208.751
-78.0039
2.38643
2.29259
2.21469
2.14476
1.45356
0.940717
0.671117
0.502727
6.0818
5.99407
5.89172
5.7433
5.54845
5.29372
4.96886
4.56465
4.10681
3.60231
2.98984
2.10966
-0.0588217
-2.72264
-7.24902
-14.0534
-22.0989
-27.5805
5.84643
6.0823
5.9612
5.8122
5.61299
5.34688
5.01518
4.62051
4.18457
3.74373
2.57258
1.62994
0.000251108
-2.79222
-7.40522
-15.235
-22.25
-27.8419
6.03845
5.96663
5.85793
5.70259
5.49552
5.22543
4.88367
4.47157
3.99751
3.47128
2.79128
1.74007
0.0522377
-3.59549
-8.54082
-15.6567
-23.4144
-29.0578
6.01689
5.93412
5.81117
5.64631
5.42738
5.1422
4.7853
4.35873
3.87575
3.31281
2.55636
1.37167
-0.591462
-3.82581
-9.99945
-17.3693
-23.7302
-30.5683
6.08637
5.96745
5.82733
5.6316
5.37791
5.06215
4.67698
4.22887
3.7251
3.13368
2.29702
0.949768
-1.25542
-5.77434
-11.8621
-19.3235
-25.1964
-32.687
5.95496
5.81133
5.62135
5.34354
5.45334
5.06324
4.63105
4.15032
3.63563
3.04192
1.5013
-0.0649571
-2.80645
-7.39599
-14.1676
-22.1312
-27.6062
-35.417
5.91319
5.73009
5.47664
5.60094
5.23554
4.82323
4.34437
3.83239
3.2563
2.48217
1.3161
-1.37507
-4.86558
-10.5371
-17.831
-23.9398
-30.8074
-41.8619
5.97742
5.7669
5.51151
5.19649
4.80079
4.29461
4.27011
3.67881
3.03065
1.44642
-0.168685
-2.9745
-7.55949
-14.2238
-21.0914
-27.5646
-35.035
-52.1358
5.80784
5.56031
5.24032
4.81922
4.82133
4.26502
3.70237
3.06122
2.17183
0.770015
-1.55211
-5.35502
-11.142
-19.1681
-25.0383
-30.9726
-42.316
-72.1605
5.77638
5.43919
5.06525
4.61553
4.05938
4.00346
3.31871
2.46798
1.19288
-0.864282
-4.23426
-9.51956
-16.4606
-23.7117
-29.0724
-38.1042
-58.7363
-112.432
5.47389
5.04424
4.53577
4.48919
3.89224
3.26968
2.47613
1.28695
-0.631882
-3.80006
-8.78055
-15.6818
-22.3453
-27.716
-35.4818
-52.3567
-96.5018
-184.002
5.18928
4.67077
4.08956
4.01636
3.3182
2.48968
1.28737
-0.615543
-3.67236
-8.47221
-15.2015
-21.8627
-27.1517
-34.3025
-49.787
-88.0137
-168.723
-219.079
4.41315
4.33707
3.71293
2.9895
2.65875
1.36148
-0.581233
-3.70632
-8.5456
-15.2275
-21.7718
-26.901
-33.6228
-47.9634
-83.3579
-160.548
-226.283
-89.4012
3.96768
3.86658
3.14732
2.20763
1.5269
-0.451497
-3.55893
-8.40135
-15.225
-20.9319
-26.0774
-32.3426
-45.4078
-77.5416
-149.44
-230.673
-112.685
2.38473
3.979
3.30239
2.46031
1.93786
0.203942
-2.53097
-6.08929
-12.3818
-19.2797
-24.4615
-29.3191
-38.2146
-59.663
-113.163
-209.699
-176.068
-23.5188
2.31855
5.35978
5.49973
5.62931
5.74496
5.84368
5.91819
5.97802
6.01853
6.04325
6.06335
5.64446
5.56985
5.44939
4.77083
4.51952
3.61181
3.16342
2.48919
5.40842
5.54776
5.6774
5.79413
5.89491
5.97946
6.05119
6.12206
5.82157
5.82086
5.78114
5.70652
5.09917
4.87987
4.58636
3.68007
3.26213
1.93521
5.38584
5.52509
5.65222
5.76378
5.85675
5.92877
5.97386
6.00322
6.01646
6.02133
5.57569
5.48436
5.34269
4.6204
4.30584
3.93051
2.87916
2.16005
5.41174
5.54691
5.6698
5.77711
5.86448
5.92885
5.96878
5.97754
5.96487
5.92711
5.88133
5.33336
5.15443
4.91763
4.08383
3.73933
2.65323
1.86607
5.48975
5.61332
5.72521
5.82189
5.90025
5.95818
5.98957
6.00383
5.9915
5.96618
5.46979
5.32807
5.10245
4.83405
3.96153
3.59106
2.4369
1.51358
5.46109
5.766
5.85693
5.93839
6.00553
6.06414
6.12325
5.81022
5.79075
5.71903
5.59946
5.44397
4.72028
4.40874
4.04123
3.02367
2.40117
0.551406
5.52705
5.82671
5.90098
5.96393
6.01406
6.04873
6.0676
6.08426
5.67474
5.57954
5.41258
5.18637
4.92119
4.03896
3.61452
3.09598
1.62056
0.0853313
5.6992
5.78044
5.84558
5.89267
5.91705
5.9132
5.87716
5.81306
5.71103
5.56457
5.35298
5.10629
4.26806
3.88936
3.43935
2.18291
1.07599
-1.77139
5.74235
5.7832
6.07612
6.0924
6.09154
6.07046
6.02922
5.9794
5.4618
5.2805
5.00277
4.65159
4.2859
3.30058
2.72724
1.80597
-0.495325
-3.39173
5.89698
5.93728
5.95326
5.94416
5.90618
5.8327
5.72288
5.56865
5.35609
5.07951
4.726
4.31519
3.89139
2.79567
1.98722
0.598299
-2.59301
-6.93291
5.92972
5.9247
5.87491
6.12527
6.02445
5.90592
5.74974
5.54085
5.26955
4.94006
4.58293
3.61523
3.08979
2.29651
1.02666
-1.86616
-5.67773
-11.932
6.02141
5.97749
5.90732
5.76853
5.97956
5.77827
5.54325
5.24905
4.89763
4.49929
4.08724
3.01668
2.28128
1.00955
-1.15177
-4.73595
-11.4312
-19.31
5.85988
6.08202
5.94927
5.79282
5.58543
5.322
4.96318
5.04373
4.61904
3.63148
3.116
2.35313
1.11056
-0.986763
-4.54566
-10.197
-18.7828
-25.7003
5.87341
5.68747
5.87685
5.6448
5.37735
5.05305
4.64376
4.1291
4.16558
3.01814
2.30315
1.12751
-0.860198
-4.26096
-9.82176
-17.2517
-25.0178
-31.4141
5.70329
5.87056
5.63947
5.37501
5.0511
4.61195
4.60343
4.04195
3.48024
2.82759
1.87025
0.314705
-2.27354
-7.50519
-14.5524
-21.9737
-27.6224
-37.1878
4.01637
4.23027
4.44632
4.65864
4.87778
5.10063
5.33231
5.37454
5.59132
5.81011
5.77241
5.9586
6.13744
5.99907
6.16563
5.95408
5.66778
5.73364
5.29072
4.05214
4.26267
4.48067
4.70084
4.92463
5.15617
5.2159
5.43974
5.66738
5.65671
5.85435
6.04468
5.93926
6.1099
5.91264
6.04352
5.72588
5.79636
5.35602
4.05284
4.26617
4.48153
4.69763
4.90809
5.12357
5.34121
5.5664
5.57915
5.7871
5.99157
5.92276
6.10851
5.95882
6.10704
5.84331
5.94623
5.56679
5.08314
4.17651
4.39835
4.62727
4.72631
4.94403
5.15295
5.36689
5.58744
5.58869
5.7867
5.98119
5.90204
6.08477
5.91439
6.05575
5.78116
5.85545
5.42631
5.41178
4.17016
4.38054
4.59304
4.80677
5.01595
5.23193
5.45271
5.46736
5.66442
5.85248
6.04079
5.94542
6.11501
5.93398
6.06827
5.7774
5.85038
5.43027
4.89703
4.30269
4.51073
4.72207
4.93814
5.16207
5.21782
5.42182
5.62552
5.82905
5.77349
5.94588
6.11174
5.95726
6.09686
5.83709
5.92585
5.52534
5.52561
4.96075
4.41321
4.61703
4.82354
5.03397
5.25131
5.29024
5.48065
5.66518
5.84653
6.02789
5.92785
6.09074
5.89625
6.00163
6.09126
5.75736
5.34072
5.28613
4.6263
4.49618
4.69299
4.88967
5.0852
5.27156
5.45712
5.63441
5.80717
5.97995
5.88415
6.0275
6.16083
5.9473
6.05289
5.72312
5.76076
5.26447
5.18232
4.48821
4.625
4.9453
5.14355
5.17749
5.3591
5.52428
5.68533
5.84155
6.00513
5.8694
5.98109
6.06691
6.15144
5.83582
5.87254
5.40156
5.33498
4.64895
4.41652
4.84476
5.02474
5.20276
5.37594
5.54056
5.6939
5.83591
5.97131
6.1062
5.935
6.03164
6.10807
5.78111
5.78859
5.75728
5.19689
5.06103
4.27165
3.95406
5.01956
5.18963
5.34803
5.49051
5.62786
5.75303
5.86357
5.96057
6.04978
6.14181
5.87496
5.9177
5.92403
5.44692
5.33244
5.17139
4.39254
4.0781
3.05379
5.25874
5.40629
5.54625
5.67248
5.78104
5.87696
5.95985
6.02959
6.0879
6.14243
5.8062
5.79159
5.70815
5.60493
4.93692
4.71121
3.82772
3.4203
2.17705
5.38077
5.49691
5.60012
5.67834
5.99522
6.06232
6.13765
5.87089
5.88971
5.87072
5.81251
5.70527
5.58189
4.88847
4.59893
4.24144
3.23306
2.67228
1.01663
5.58619
5.67158